1000 SPC/Fw water molecules t= 256.00000 step= 256000
 3000
    1SOL     OW    1   2.787   2.404   1.058 -0.4526  0.0696  0.1367
    1SOL    HW1    2   2.847   2.328   1.031 -3.5791  1.6991 -0.2568
    1SOL    HW2    3   2.724   2.428   0.987  1.5364  1.4991  2.5089
    2SOL     OW    4   1.826   2.214   1.358  0.0997  0.0424  0.0752
    2SOL    HW1    5   1.753   2.213   1.430 -1.6920  0.1991  0.2277
    2SOL    HW2    6   1.852   2.117   1.325 -1.0011 -0.4368  1.7217
    3SOL     OW    7   1.082   2.651   2.810 -0.6137 -0.1475  0.3762
    3SOL    HW1    8   1.127   2.720   2.866  1.5155 -2.2760 -0.4514
    3SOL    HW2    9   1.066   2.571   2.870 -0.5188 -0.0971 -0.0074
    4SOL     OW   10   1.927   1.973   1.821  0.1352  0.4130 -0.0385
    4SOL    HW1   11   1.903   1.919   1.903  0.0177 -4.0543 -2.5976
    4SOL    HW2   12   1.925   2.074   1.833 -1.5669 -0.4959 -0.4773
    5SOL     OW   13   1.499   1.223   1.427 -0.6050  0.7664  0.1152
    5SOL    HW1   14   1.522   1.303   1.476 -3.0368 -3.3017 -1.7066
    5SOL    HW2   15   1.570   1.185   1.367  0.0906  1.1600  0.1167
    6SOL     OW   16   2.373   3.123   0.170 -0.0223  0.6556  0.0486
    6SOL    HW1   17   2.428   0.079   0.162 -0.5855 -0.4331  0.3574
    6SOL    HW2   18   2.358   3.084   0.074 -1.3313  1.6571 -3.3050
    7SOL     OW   19   2.731   1.425   1.194 -0.0723  0.1497  0.4733
    7SOL    HW1   20   2.810   1.359   1.197 -0.8508  1.6984  0.5687
    7SOL    HW2   21   2.753   1.513   1.144 -0.7941 -0.8612 -0.5441
    8SOL     OW   22   1.165   0.158   0.880 -0.4361 -0.5473  0.0720
    8SOL    HW1   23   1.134   0.068   0.910 -1.1044 -0.9870 -0.5773
    8SOL    HW2   24   1.213   0.157   0.790  1.1068  1.8138 -0.0423
    9SOL     OW   25   1.486   0.140   2.517  0.4571  0.2843  0.1663
    9SOL    HW1   26   1.471   0.224   2.464  1.3125 -0.8625  0.0473
    9SOL    HW2   27   1.578   0.143   2.555 -0.6268  0.5966 -1.9490
   10SOL     OW   28   0.701   2.188   0.607  0.2894 -0.1198  0.4301
   10SOL    HW1   29   0.659   2.230   0.689 -2.1655 -0.7274  1.7090
   10SOL    HW2   30   0.760   2.112   0.638 -1.1048 -1.5388 -0.9110
   11SOL     OW   31   1.434   1.302   0.397 -0.0276 -0.1182  0.2326
   11SOL    HW1   32   1.490   1.372   0.444 -0.8219  0.9081 -2.1006
   11SOL    HW2   33   1.409   1.330   0.300 -1.3465 -0.9866 -0.4807
   12SOL     OW   34   2.958   0.013   1.875 -0.4567  0.1705 -0.3673
   12SOL    HW1   35   2.923   0.050   1.966 -2.6306 -1.1131  0.2894
   12SOL    HW2   36   2.872   3.123   1.820 -4.3843  2.2384  0.8898
   13SOL     OW   37   1.720   0.187   0.533  0.0955 -0.1338  0.3076
   13SOL    HW1   38   1.685   0.268   0.583 -1.4706  1.2928  3.3539
   13SOL    HW2   39   1.818   0.181   0.531  0.0397  0.7984  0.1661
   14SOL     OW   40   1.396   2.460   1.297 -0.0152  0.0582  0.3349
   14SOL    HW1   41   1.354   2.552   1.287 -1.4876 -2.0462 -2.2304
   14SOL    HW2   42   1.494   2.451   1.266  0.5533 -3.2392 -0.4086
   15SOL     OW   43   2.572   1.569   1.513  0.3520  0.2487  1.4341
   15SOL    HW1   44   2.613   1.565   1.422  2.0828 -0.0603  0.7611
   15SOL    HW2   45   2.620   1.512   1.579 -1.1363  2.6527 -3.4122
   16SOL     OW   46   2.080   2.625   0.261 -0.2926 -0.3472 -0.2268
   16SOL    HW1   47   1.992   2.595   0.227  2.2083  1.7785 -2.3439
   16SOL    HW2   48   2.109   2.708   0.209  0.5285  2.4700  1.1567
   17SOL     OW   49   0.816   0.034   1.364  0.1609  0.4854  0.3160
   17SOL    HW1   50   0.842   0.113   1.303  1.0662  1.3175  0.0376
   17SOL    HW2   51   0.729   3.120   1.329  1.1859  0.2061  0.9587
   18SOL     OW   52   1.598   0.741   2.776 -0.4365 -0.4665  0.1904
   18SOL    HW1   53   1.585   0.738   2.875  1.4779  0.6812 -1.8912
   18SOL    HW2   54   1.692   0.777   2.758  2.4863 -0.7519 -0.3589
   19SOL     OW   55   1.874   1.952   0.021  0.5634 -0.3530 -0.2198
   19SOL    HW1   56   1.973   1.942   3.124 -1.3666 -1.4027 -1.0955
   19SOL    HW2   57   1.838   2.049   0.024 -1.2944 -0.0903  1.1399
   20SOL     OW   58   2.280   1.992   1.883  0.2334 -1.0101 -0.0490
   20SOL    HW1   59   2.367   2.027   1.838  2.5280 -2.9804 -0.1485
   20SOL    HW2   60   2.286   1.895   1.891 -0.0861  2.3552 -0.5942
   21SOL     OW   61   1.030   1.700   0.086 -0.1644  0.6421  0.2979
   21SOL    HW1   62   1.031   1.670   0.183  1.3866  2.0624 -3.1218
   21SOL    HW2   63   1.005   1.799   0.077  0.3515 -3.3819 -0.7659
   22SOL     OW   64   2.136   0.117   1.545 -0.2390  0.4894 -0.2695
   22SOL    HW1   65   2.220   0.144   1.496 -0.9063  1.4261 -0.1027
   22SOL    HW2   66   2.071   0.192   1.553  0.0641 -1.2881 -0.9674
   23SOL     OW   67   2.847   0.866   2.000 -0.2843  0.0561  0.1290
   23SOL    HW1   68   2.777   0.882   1.931  3.6503  0.9528  0.0111
   23SOL    HW2   69   2.815   0.843   2.094  1.6252  3.1877  1.5221
   24SOL     OW   70   2.349   2.741   0.644  0.5730  0.7157 -0.2399
   24SOL    HW1   71   2.316   2.681   0.569 -2.8326 -3.1286 -0.2391
   24SOL    HW2   72   2.280   2.727   0.719 -1.7308 -1.4866 -1.2569
   25SOL     OW   73   0.978   2.731   2.573  0.1000  0.0447  0.7508
   25SOL    HW1   74   0.995   2.721   2.673 -1.6628  1.1266 -0.2893
   25SOL    HW2   75   1.049   2.788   2.528  0.4112  0.4198  0.2884
   26SOL     OW   76   1.869   2.624   3.118 -0.0064  0.1757  0.5704
   26SOL    HW1   77   1.840   2.717   3.090 -0.0853  1.2886 -1.5206
   26SOL    HW2   78   1.850   2.604   0.087 -0.8883 -1.9750 -1.3832
   27SOL     OW   79   2.925   2.003   3.039 -0.0566  0.2838  0.1480
   27SOL    HW1   80   2.852   2.025   2.970  2.3874 -1.9097  2.0534
   27SOL    HW2   81   2.999   1.952   3.000 -0.4421  0.9731  0.1560
   28SOL     OW   82   3.072   1.124   1.706  0.4568  0.3097 -0.4724
   28SOL    HW1   83   2.979   1.102   1.679 -0.4026  1.7250  1.5854
   28SOL    HW2   84   3.108   1.195   1.645  3.9211 -0.1450  0.9459
   29SOL     OW   85   2.484   2.433   1.331  0.1767  0.3181 -0.2318
   29SOL    HW1   86   2.462   2.481   1.420 -1.7342  2.3933 -0.5161
   29SOL    HW2   87   2.565   2.369   1.341  1.0626  1.2198  1.4294
   30SOL     OW   88   1.551   0.486   0.197 -0.0713 -0.8000  0.2582
   30SOL    HW1   89   1.564   0.551   0.278  0.2999 -0.9371  1.2892
   30SOL    HW2   90   1.638   0.448   0.157 -0.1197  0.1417  1.7027
   31SOL     OW   91   2.910   2.829   1.556 -0.3084 -0.0163 -0.7741
   31SOL    HW1   92   2.826   2.772   1.533 -2.5421 -1.7273 -1.2777
   31SOL    HW2   93   2.978   2.766   1.595 -0.2933  1.1596 -0.2585
   32SOL     OW   94   0.802   1.836   1.344  1.0529 -0.3943  0.5779
   32SOL    HW1   95   0.890   1.843   1.293 -0.5897 -1.1977 -2.7785
   32SOL    HW2   96   0.782   1.909   1.410 -0.4129  2.9412 -0.6483
   33SOL     OW   97   0.446   2.521   2.465  0.1983 -0.6628  0.3091
   33SOL    HW1   98   0.503   2.486   2.541 -1.2632  1.8618 -2.2741
   33SOL    HW2   99   0.467   2.614   2.444 -0.4075 -1.6722  1.6532
   34SOL     OW  100   1.521   0.086   0.815 -0.0439 -0.7315 -0.1809
   34SOL    HW1  101   1.530   0.045   0.909  0.9055  0.4248  0.9163
   34SOL    HW2  102   1.563   0.030   0.740  0.0549 -1.4689  2.2170
   35SOL     OW  103   2.194   3.089   1.260  0.4036  0.0099 -0.1820
   35SOL    HW1  104   2.098   3.122   1.270  1.2411  2.4392  2.0630
   35SOL    HW2  105   2.243   0.013   1.328  1.1735 -1.5118  0.8650
   36SOL     OW  106   1.814   2.806   2.164 -0.2814 -0.4176 -0.6471
   36SOL    HW1  107   1.788   2.897   2.198  2.9462 -2.9596 -0.6920
   36SOL    HW2  108   1.774   2.724   2.213  1.2929 -0.1456 -0.5076
   37SOL     OW  109   0.659   2.970   2.296  1.0264 -0.4077  0.0548
   37SOL    HW1  110   0.682   2.989   2.199 -0.7341 -0.8137  0.8867
   37SOL    HW2  111   0.736   2.989   2.362 -0.3451  0.1813 -0.5448
   38SOL     OW  112   0.124   2.447   2.703  0.0257 -0.3059  0.0934
   38SOL    HW1  113   0.214   2.420   2.747 -0.4856  1.2609 -1.7064
   38SOL    HW2  114   0.135   2.461   2.599  0.2971 -0.4438 -1.4446
   39SOL     OW  115   2.341   1.306   1.814  0.6843  0.4445 -0.5472
   39SOL    HW1  116   2.257   1.329   1.759  0.8284  0.1013  1.3855
   39SOL    HW2  117   2.328   1.335   1.910  0.6092  0.4177  1.9301
   40SOL     OW  118   0.790   2.969   3.025 -0.5084 -0.7542  0.2692
   40SOL    HW1  119   0.882   2.939   3.057  1.1293  0.8178  0.2458
   40SOL    HW2  120   0.743   3.023   3.100 -1.2052  1.9224  2.7796
   41SOL     OW  121   2.251   0.966   1.049  0.2287  0.1228  0.1186
   41SOL    HW1  122   2.302   1.011   1.119  0.5575  0.2424 -3.9966
   41SOL    HW2  123   2.245   1.022   0.962 -2.6699  1.0839 -2.7795
   42SOL     OW  124   0.607   0.631   1.315 -0.4479 -0.4684  0.1691
   42SOL    HW1  125   0.570   0.723   1.345  0.1742  3.8164  0.5731
   42SOL    HW2  126   0.622   0.638   1.213  0.3421  0.7445 -4.6360
   43SOL     OW  127   2.139   1.489   2.714  0.3607 -0.5351  0.1348
   43SOL    HW1  128   2.058   1.431   2.737 -1.1394  2.3998  2.5256
   43SOL    HW2  129   2.168   1.474   2.618 -0.7385  2.6591 -0.6992
   44SOL     OW  130   3.130   2.950   1.213 -0.1265 -0.4548  0.4197
   44SOL    HW1  131   0.103   2.935   1.187  1.5224  0.9029  0.8434
   44SOL    HW2  132   3.118   3.023   1.283  0.8339  1.7325  0.8124
   45SOL     OW  133   0.249   2.627   1.024  0.3640 -0.5659 -0.7117
   45SOL    HW1  134   0.280   2.708   0.979 -3.8366 -1.3296  0.7954
   45SOL    HW2  135   0.159   2.598   0.987  0.4387 -3.1810  0.4029
   46SOL     OW  136   2.215   2.864   2.647  0.2125  0.2482  0.1514
   46SOL    HW1  137   2.235   2.765   2.651  1.8535 -1.1986 -1.2175
   46SOL    HW2  138   2.296   2.924   2.618  2.1384 -0.0021 -0.6306
   47SOL     OW  139   1.963   1.937   0.927  0.0107 -0.1622  0.3782
   47SOL    HW1  140   2.016   1.869   0.979  0.5253  0.3548 -1.0359
   47SOL    HW2  141   1.923   1.894   0.838  1.9550 -0.0451 -3.3007
   48SOL     OW  142   0.635   1.872   0.398  0.4905 -0.4271  0.2861
   48SOL    HW1  143   0.684   1.904   0.313 -0.2392  0.9708  0.1917
   48SOL    HW2  144   0.574   1.796   0.370 -0.2252  0.5740  1.1055
   49SOL     OW  145   2.914   0.249   2.669  0.3483  1.0338  0.2578
   49SOL    HW1  146   2.998   0.260   2.720 -3.1507  1.0223  0.6454
   49SOL    HW2  147   2.939   0.220   2.574  1.8743  1.8751  0.7377
   50SOL     OW  148   2.060   0.670   0.340 -0.2030  0.4422  0.0046
   50SOL    HW1  149   2.006   0.755   0.318  0.0573  2.2004  2.4078
   50SOL    HW2  150   2.004   0.613   0.410 -2.4144 -1.5668  2.9143
   51SOL     OW  151   2.310   0.704   0.941 -0.7922  0.0950  0.4470
   51SOL    HW1  152   2.309   0.799   0.958  3.3200 -3.4578 -0.2353
   51SOL    HW2  153   2.276   0.689   0.841 -1.8177 -0.2582 -3.4369
   52SOL     OW  154   1.529   1.541   2.229  0.4989  0.5053 -0.1143
   52SOL    HW1  155   1.577   1.463   2.190  2.7319 -0.4544 -4.1294
   52SOL    HW2  156   1.429   1.527   2.250 -0.0167 -0.2937 -1.3424
   53SOL     OW  157   0.651   1.834   2.228  0.1636  0.3026 -0.0057
   53SOL    HW1  158   0.711   1.757   2.201  0.5900  0.0860  0.7646
   53SOL    HW2  159   0.708   1.918   2.213 -4.6393 -1.1487 -0.0776
   54SOL     OW  160   2.175   0.302   1.328 -0.1806  0.1243 -0.5022
   54SOL    HW1  161   2.156   0.252   1.244  0.1192 -1.4634  0.2836
   54SOL    HW2  162   2.258   0.364   1.324  2.6666  1.4940  1.4858
   55SOL     OW  163   2.592   2.190   0.835 -0.8375  0.0257 -0.2475
   55SOL    HW1  164   2.628   2.144   0.915 -1.8417  1.2709 -2.7180
   55SOL    HW2  165   2.490   2.180   0.826  2.4714  1.9642 -1.3833
   56SOL     OW  166   1.086   0.108   1.697 -0.0154 -0.1497 -0.4791
   56SOL    HW1  167   1.159   0.053   1.736  1.5087 -3.7132 -1.2569
   56SOL    HW2  168   1.101   0.206   1.725  1.3229  2.1085 -0.7850
   57SOL     OW  169   1.641   1.632   0.261  0.2729 -0.2597 -0.5659
   57SOL    HW1  170   1.555   1.629   0.320 -1.0727  0.8452 -0.1394
   57SOL    HW2  171   1.627   1.700   0.186  0.8679  0.9578  0.8185
   58SOL     OW  172   0.047   1.072   2.436 -0.1392 -0.1293 -0.0179
   58SOL    HW1  173   0.142   1.045   2.470  0.0842  1.6134  0.9442
   58SOL    HW2  174   0.040   1.045   2.335 -1.1865  0.8802  0.4044
   59SOL     OW  175   0.844   2.956   2.511 -0.1788  0.5996 -0.2102
   59SOL    HW1  176   0.860   3.008   2.597  0.1294 -1.6662  1.9637
   59SOL    HW2  177   0.878   2.862   2.521  1.6244  1.5550 -1.4835
   60SOL     OW  178   2.644   2.290   0.439  0.4007  0.1030 -0.1979
   60SOL    HW1  179   2.642   2.201   0.389  1.1714  0.5523  0.2280
   60SOL    HW2  180   2.682   2.268   0.532 -1.3528  0.0984 -1.3736
   61SOL     OW  181   1.347   2.094   0.482 -0.2374  0.4678  0.3722
   61SOL    HW1  182   1.417   2.167   0.462  1.5006  0.8697 -1.8074
   61SOL    HW2  183   1.270   2.142   0.526  2.3070  0.2538 -0.7802
   62SOL     OW  184   1.950   2.166   2.504  0.5069 -0.0560  0.4153
   62SOL    HW1  185   2.021   2.100   2.534 -1.7371  1.2998  1.2065
   62SOL    HW2  186   1.902   2.125   2.420 -0.3181  0.9568  0.0263
   63SOL     OW  187   2.087   2.437   3.081 -0.4440 -0.0345  0.2860
   63SOL    HW1  188   1.996   2.483   3.105 -1.7296 -3.4287  0.0599
   63SOL    HW2  189   2.076   2.385   2.998  0.6438 -2.1498 -0.7402
   64SOL     OW  190   1.568   1.148   2.387 -0.0230  0.2367 -0.4949
   64SOL    HW1  191   1.596   1.216   2.318  0.6641 -2.0727  0.9302
   64SOL    HW2  192   1.646   1.096   2.428 -0.2095  2.2619  1.9093
   65SOL     OW  193   1.334   2.389   3.062 -0.0875 -0.3141  0.3739
   65SOL    HW1  194   1.343   2.370   2.963 -0.8306 -1.4808  2.0607
   65SOL    HW2  195   1.311   2.486   3.085 -1.2312  0.6260  0.7710
   66SOL     OW  196   0.141   1.529   1.967  0.1904  0.2709 -0.0908
   66SOL    HW1  197   0.220   1.555   2.025  3.4659  0.5003 -1.1112
   66SOL    HW2  198   0.139   1.434   1.931  0.5394  2.8426 -0.2165
   67SOL     OW  199   2.869   2.768   2.852  0.4945  0.1284 -0.0650
   67SOL    HW1  200   2.767   2.755   2.834 -0.0407 -2.0274 -1.9886
   67SOL    HW2  201   2.900   2.860   2.819  2.2077  0.6890  1.4925
   68SOL     OW  202   1.083   2.525   1.326  0.0829  0.1599  0.3786
   68SOL    HW1  203   1.048   2.616   1.349  2.6135  1.6391 -0.9283
   68SOL    HW2  204   1.140   2.488   1.401 -0.0148 -0.7922  2.7185
   69SOL     OW  205   0.712   2.456   0.517 -0.4640 -0.1620 -0.1799
   69SOL    HW1  206   0.696   2.510   0.603  1.5077 -1.7636  0.0774
   69SOL    HW2  207   0.729   2.355   0.541 -0.8744  0.3563 -0.1120
   70SOL     OW  208   2.741   0.929   2.567 -0.7124  0.0881 -0.0054
   70SOL    HW1  209   2.839   0.928   2.605 -0.9151  1.5831  1.0501
   70SOL    HW2  210   2.697   0.840   2.578 -0.3320 -0.5070  0.0718
   71SOL     OW  211   0.680   1.116   2.358  0.3682 -0.2547 -0.3021
   71SOL    HW1  212   0.636   1.023   2.363 -1.1562  1.9610 -4.1088
   71SOL    HW2  213   0.612   1.190   2.356  1.4244  0.5798 -2.1186
   72SOL     OW  214   0.304   2.116   0.730 -0.1929 -0.0326  0.3668
   72SOL    HW1  215   0.352   2.033   0.697  0.2164 -0.2017  1.0189
   72SOL    HW2  216   0.207   2.119   0.693  0.8261 -1.1476  0.5771
   73SOL     OW  217   1.119   1.520   0.300 -0.0557  0.1142  0.0419
   73SOL    HW1  218   1.060   1.443   0.317  1.3421  3.6724 -0.3214
   73SOL    HW2  219   1.129   1.578   0.381 -0.2603 -0.9462 -3.8340
   74SOL     OW  220   2.556   2.935   0.282 -0.2551  0.2348 -0.0621
   74SOL    HW1  221   2.506   2.845   0.282 -0.7607  0.3044  1.7546
   74SOL    HW2  222   2.495   3.014   0.256 -1.9714 -0.8958 -0.1118
   75SOL     OW  223   2.414   1.518   2.057 -0.0524 -0.0017 -0.0815
   75SOL    HW1  224   2.331   1.463   2.073 -0.4958  0.8159 -0.6068
   75SOL    HW2  225   2.398   1.594   1.987  2.0463 -1.2206  0.6380
   76SOL     OW  226   1.883   2.576   1.957 -0.1282  0.4094 -0.3169
   76SOL    HW1  227   1.914   2.548   2.049 -1.5746  0.1674  0.4622
   76SOL    HW2  228   1.904   2.672   1.939 -2.3263  1.4740 -1.3976
   77SOL     OW  229   2.631   0.251   1.714  0.0691 -0.0639  0.1974
   77SOL    HW1  230   2.544   0.283   1.756  0.2184 -1.2735  0.2519
   77SOL    HW2  231   2.712   0.297   1.749 -1.4877  0.9172  1.5408
   78SOL     OW  232   1.870   0.863   2.668 -0.0948  0.4871 -0.3584
   78SOL    HW1  233   1.943   0.791   2.682  1.2397 -0.9049  0.3073
   78SOL    HW2  234   1.874   0.930   2.749  0.1515 -1.2561  1.1527
   79SOL     OW  235   3.112   1.714   2.136  0.1348  0.2285  0.0015
   79SOL    HW1  236   0.033   1.649   2.079  1.0433  1.4822 -0.2347
   79SOL    HW2  237   3.022   1.732   2.091 -0.7560 -0.8373  0.4879
   80SOL     OW  238   1.899   1.063   1.209  0.6453  0.0309  0.1394
   80SOL    HW1  239   1.932   1.006   1.128 -1.0859  1.8553 -0.5599
   80SOL    HW2  240   1.925   1.020   1.301  3.7771 -0.6396 -1.2859
   81SOL     OW  241   1.296   0.584   1.620  0.2747  0.1580  0.0854
   81SOL    HW1  242   1.279   0.619   1.524 -2.7370 -1.4902 -0.3136
   81SOL    HW2  243   1.389   0.543   1.633 -0.6077  1.2722 -0.0091
   82SOL     OW  244   1.368   2.625   1.663  0.0356  0.3210  0.4565
   82SOL    HW1  245   1.399   2.710   1.612  0.4576 -0.4972 -2.6654
   82SOL    HW2  246   1.354   2.634   1.765 -0.4412  0.1813  0.9697
   83SOL     OW  247   0.389   0.114   0.622 -0.6265 -0.5448 -0.4923
   83SOL    HW1  248   0.423   0.041   0.687 -0.9321 -0.3018  0.4539
   83SOL    HW2  249   0.460   0.127   0.553 -0.5476 -0.4809  1.0143
   84SOL     OW  250   0.116   1.006   2.854  0.2508  0.0301  0.0204
   84SOL    HW1  251   0.197   0.992   2.910 -0.7730  2.2342 -1.0686
   84SOL    HW2  252   0.045   1.067   2.907  0.9501  1.6869  2.9389
   85SOL     OW  253   2.783   2.173   1.829 -0.0303  1.0841 -0.8823
   85SOL    HW1  254   2.775   2.073   1.818  1.6484 -1.3796  1.0159
   85SOL    HW2  255   2.814   2.217   1.743 -0.4775  2.2931 -1.7297
   86SOL     OW  256   2.861   2.313   1.625 -0.5960  0.3436 -0.2670
   86SOL    HW1  257   2.952   2.274   1.592  3.0440 -0.7456  0.2372
   86SOL    HW2  258   2.789   2.315   1.555  0.7740  2.5113  3.6201
   87SOL     OW  259   0.359   3.029   3.000  0.2742 -0.2212  0.7048
   87SOL    HW1  260   0.392   2.938   2.967 -1.5446 -0.2309  0.1740
   87SOL    HW2  261   0.438   3.093   3.005 -0.2451 -1.6331  1.9998
   88SOL     OW  262   0.392   1.968   0.994 -0.1766 -0.0055  0.3730
   88SOL    HW1  263   0.420   2.029   0.923  1.0834 -0.5520  3.1910
   88SOL    HW2  264   0.467   1.939   1.057  0.2037  0.4158  3.3596
   89SOL     OW  265   0.981   0.782   1.625  0.0156 -0.0435  0.4491
   89SOL    HW1  266   1.047   0.831   1.562  0.5681  2.2438 -1.9272
   89SOL    HW2  267   0.953   0.689   1.585 -2.2244 -2.2194 -2.1074
   90SOL     OW  268   2.461   1.817   1.615  0.7392  0.1555 -0.0888
   90SOL    HW1  269   2.501   1.733   1.564 -3.8018 -3.5189  0.0533
   90SOL    HW2  270   2.377   1.847   1.556  0.9496  1.2410 -3.1327
   91SOL     OW  271   1.475   1.549   0.806  0.2474 -0.1307 -0.5747
   91SOL    HW1  272   1.413   1.625   0.839 -0.2492  0.5065  0.0849
   91SOL    HW2  273   1.444   1.463   0.854  1.9738  1.0764 -1.1055
   92SOL     OW  274   2.202   0.622   1.180  0.0086 -0.3771  0.3087
   92SOL    HW1  275   2.232   0.665   1.091 -0.9755  0.2996  2.2656
   92SOL    HW2  276   2.278   0.579   1.238  0.5764 -0.4282  0.8748
   93SOL     OW  277   2.118   1.387   3.096 -0.2920 -0.4546  0.4219
   93SOL    HW1  278   2.126   1.337   0.055 -1.6865  0.7259 -1.7089
   93SOL    HW2  279   2.035   1.450   3.103  1.0479  0.7136  2.1653
   94SOL     OW  280   2.298   2.220   2.301 -0.2618  0.1455 -0.3035
   94SOL    HW1  281   2.335   2.254   2.210 -0.3742 -2.9743  3.3416
   94SOL    HW2  282   2.244   2.132   2.295 -0.6006 -1.6546  0.9775
   95SOL     OW  283   2.047   0.445   1.025  0.3852 -0.2310  0.1672
   95SOL    HW1  284   2.123   0.497   1.068 -2.2921  0.4139 -1.2247
   95SOL    HW2  285   2.085   0.391   0.943  0.4691  1.3814  2.8003
   96SOL     OW  286   3.050   3.066   1.498 -0.3623  0.0349 -1.1823
   96SOL    HW1  287   2.988   2.982   1.516 -0.3078  0.1626  0.2641
   96SOL    HW2  288   3.011   0.006   1.434  2.2206 -0.2123 -2.9435
   97SOL     OW  289   2.342   0.247   1.089 -0.1062 -0.5962 -0.1341
   97SOL    HW1  290   2.390   0.326   1.041  0.4447  1.5070 -1.1971
   97SOL    HW2  291   2.332   0.166   1.029 -1.0181 -1.2891  1.9367
   98SOL     OW  292   1.603   2.446   1.631 -0.0487 -0.1756 -0.0425
   98SOL    HW1  293   1.667   2.471   1.553 -0.5635 -0.6875 -0.3331
   98SOL    HW2  294   1.517   2.495   1.632  0.1846 -0.7319  0.2526
   99SOL     OW  295   2.670   2.606   1.773 -0.0606  0.2954 -0.3175
   99SOL    HW1  296   2.582   2.654   1.781  1.5941 -1.0719 -1.4321
   99SOL    HW2  297   2.709   2.620   1.682  0.1517  0.6352  1.3840
  100SOL     OW  298   0.384   0.843   2.949  0.1896  0.1904  0.0146
  100SOL    HW1  299   0.455   0.908   2.967 -1.3045  0.1543  0.6829
  100SOL    HW2  300   0.409   0.795   2.864 -0.0664  1.1529  1.0550
  101SOL     OW  301   1.959   0.641   3.050 -0.4337 -0.1362  0.4015
  101SOL    HW1  302   1.963   0.636   2.950 -1.7044  3.8367  0.2549
  101SOL    HW2  303   2.048   0.627   3.091 -3.5369  3.0116  0.0738
  102SOL     OW  304   0.012   0.694   1.746 -0.0910 -0.0696 -0.2733
  102SOL    HW1  305   0.085   0.766   1.743  0.1708 -0.7119 -1.3369
  102SOL    HW2  306   0.061   0.605   1.761  0.2319  1.3857 -0.8041
  103SOL     OW  307   2.776   1.117   2.360  0.0216 -0.1200  0.7159
  103SOL    HW1  308   2.714   1.198   2.373  0.1231  0.9948 -2.3025
  103SOL    HW2  309   2.795   1.074   2.451  0.6710 -1.6536  1.5958
  104SOL     OW  310   0.629   0.214   2.467  0.1719 -0.6305  0.9157
  104SOL    HW1  311   0.620   0.190   2.566 -0.0359  0.6591  1.8984
  104SOL    HW2  312   0.674   0.307   2.456  0.1470  2.4852 -1.5305
  105SOL     OW  313   1.883   1.637   1.257  0.1654 -0.1826  0.4200
  105SOL    HW1  314   1.861   1.541   1.287  1.8328  2.6688 -0.1275
  105SOL    HW2  315   1.803   1.687   1.221  0.7921 -1.2727 -2.0557
  106SOL     OW  316   2.187   0.225   0.454  0.1691  0.7695 -0.2709
  106SOL    HW1  317   2.205   0.132   0.414 -1.7091  1.9680  3.5665
  106SOL    HW2  318   2.114   0.216   0.529  0.1199 -0.9048 -0.1922
  107SOL     OW  319   0.041   1.496   1.344 -0.1154  0.2473 -0.2772
  107SOL    HW1  320   0.134   1.537   1.320 -1.0821 -0.1251  0.7580
  107SOL    HW2  321   3.095   1.555   1.310 -0.8115  4.3380  0.2189
  108SOL     OW  322   2.885   2.656   1.938 -0.8590  0.1937 -0.6611
  108SOL    HW1  323   2.920   2.562   1.918  1.1165  2.4161  1.9343
  108SOL    HW2  324   2.805   2.673   1.886  1.6266 -1.3450  1.2371
  109SOL     OW  325   2.005   0.146   0.639 -0.1271  0.5045  0.4475
  109SOL    HW1  326   2.026   0.196   0.725  2.4181  2.2237 -0.7180
  109SOL    HW2  327   1.980   0.046   0.653  1.8516  0.8938 -0.3066
  110SOL     OW  328   0.414   2.010   2.433  0.2090 -0.2848  0.0673
  110SOL    HW1  329   0.360   2.070   2.497  3.0324 -1.2388 -0.8570
  110SOL    HW2  330   0.369   1.921   2.416  2.2360 -0.9937  2.7018
  111SOL     OW  331   1.583   2.532   1.972 -0.2092 -0.6322  0.0370
  111SOL    HW1  332   1.661   2.553   1.910 -1.9944 -0.4264 -0.0295
  111SOL    HW2  333   1.591   2.432   1.990  2.1552  2.9924 -1.7680
  112SOL     OW  334   1.502   2.765   0.008 -0.0918  0.8069 -0.0392
  112SOL    HW1  335   1.441   2.708   0.063  1.0663 -2.4042  1.8858
  112SOL    HW2  336   1.519   2.724   3.051  2.3848  1.3940  0.6526
  113SOL     OW  337   2.038   2.810   1.560 -0.0741 -0.6058  0.3567
  113SOL    HW1  338   1.935   2.799   1.573 -1.9654  1.7309  1.3838
  113SOL    HW2  339   2.068   2.745   1.489 -0.2635 -1.6902  0.4329
  114SOL     OW  340   3.073   1.167   0.547  0.1039 -0.0369  0.1197
  114SOL    HW1  341   3.014   1.149   0.628  1.3471  0.1398 -2.0731
  114SOL    HW2  342   3.098   1.268   0.540  2.1254 -0.5149 -1.2333
  115SOL     OW  343   0.564   1.013   3.020 -0.1365  0.3176 -0.0776
  115SOL    HW1  344   0.565   1.104   2.973 -0.7871 -0.1653 -0.3605
  115SOL    HW2  345   0.574   1.025   3.119 -1.6097  0.6453  0.8528
  116SOL     OW  346   2.811   1.654   2.226 -0.5386  0.2500 -0.1024
  116SOL    HW1  347   2.853   1.738   2.186 -0.9972  0.2541  1.1928
  116SOL    HW2  348   2.834   1.572   2.167 -0.3068 -0.5890 -0.2843
  117SOL     OW  349   2.769   2.907   0.678 -0.0134 -0.1396  0.1167
  117SOL    HW1  350   2.776   2.934   0.578 -5.0036  1.8252 -1.5868
  117SOL    HW2  351   2.786   2.988   0.738  0.5788 -0.5536 -0.0806
  118SOL     OW  352   1.195   2.171   1.593  0.3349  0.0928 -0.5727
  118SOL    HW1  353   1.272   2.159   1.656 -1.6599 -3.2214 -3.0890
  118SOL    HW2  354   1.202   2.266   1.552  0.9525  1.3488  1.2246
  119SOL     OW  355   0.635   2.129   2.965 -0.1719 -0.2968  0.8130
  119SOL    HW1  356   0.534   2.131   2.935 -1.5096  0.3064 -0.0829
  119SOL    HW2  357   0.654   2.102   3.063 -1.4133  0.7040 -0.3305
  120SOL     OW  358   0.705   0.751   3.085  0.5880 -0.1518 -0.5455
  120SOL    HW1  359   0.738   0.724   2.994  2.9152  0.4763  0.1729
  120SOL    HW2  360   0.660   0.842   3.074 -0.5720  2.2660 -1.0685
  121SOL     OW  361   1.567   2.746   1.080 -0.1903 -0.2906  0.1811
  121SOL    HW1  362   1.593   2.661   1.129 -0.1032  4.6796 -0.1537
  121SOL    HW2  363   1.566   2.732   0.978  0.8989 -0.4253 -2.0945
  122SOL     OW  364   2.208   2.442   1.691 -0.6208  0.1014  0.4522
  122SOL    HW1  365   2.167   2.495   1.772  1.4721 -2.2686  3.5809
  122SOL    HW2  366   2.136   2.425   1.623  1.8119 -0.0915  4.5600
  123SOL     OW  367   0.458   3.056   0.837  0.2547 -0.2793 -0.0364
  123SOL    HW1  368   0.553   3.020   0.808  2.6044 -0.7638 -0.8539
  123SOL    HW2  369   0.391   2.972   0.839 -1.7175 -3.2644  0.5449
  124SOL     OW  370   2.176   1.204   2.905  0.1889  0.5210  0.3198
  124SOL    HW1  371   2.247   1.228   2.835 -0.5170  2.1328 -2.2917
  124SOL    HW2  372   2.148   1.286   2.964  0.3854  0.2106  0.7808
  125SOL     OW  373   0.801   0.912   0.518 -0.1007 -0.7998  0.1085
  125SOL    HW1  374   0.729   0.973   0.555 -1.9299 -1.6060 -2.4927
  125SOL    HW2  375   0.853   0.954   0.440  0.1329  0.4916  0.8147
  126SOL     OW  376   2.544   1.423   0.763 -0.0783 -0.1467  0.2643
  126SOL    HW1  377   2.639   1.407   0.725  1.0187  0.1668  0.9277
  126SOL    HW2  378   2.507   1.333   0.801 -4.4880 -2.5319 -0.0933
  127SOL     OW  379   3.090   1.939   1.827  0.3508  0.5504 -0.4265
  127SOL    HW1  380   0.046   1.912   1.782  3.1835  2.1975  2.7767
  127SOL    HW2  381   3.106   1.983   1.913 -0.2251  0.8716  1.9685
  128SOL     OW  382   1.208   1.042   0.052 -0.3520 -0.2521 -0.0786
  128SOL    HW1  383   1.245   1.006   0.139 -0.3015  1.1027  2.6577
  128SOL    HW2  384   1.280   1.048   3.111  0.7103  0.4886 -0.0863
  129SOL     OW  385   2.669   1.025   0.853 -0.5033 -0.3614  0.1345
  129SOL    HW1  386   2.590   1.092   0.870 -3.0601 -1.1782 -0.6440
  129SOL    HW2  387   2.654   0.981   0.760  2.0384  1.4529  1.0069
  130SOL     OW  388   2.440   0.811   1.349 -0.2144 -0.2943  0.3203
  130SOL    HW1  389   2.537   0.810   1.381 -1.2876  0.2342 -0.5351
  130SOL    HW2  390   2.417   0.905   1.314 -2.7161 -0.2335 -3.8436
  131SOL     OW  391   2.949   2.799   3.117  0.5138  0.6353  0.0985
  131SOL    HW1  392   2.934   2.821   3.019  0.3619 -0.7767  0.8907
  131SOL    HW2  393   3.044   2.799   0.004 -2.0184  1.8558  0.4336
  132SOL     OW  394   3.006   1.972   1.561  0.3454 -0.0558 -0.5011
  132SOL    HW1  395   3.048   2.066   1.554 -0.3276 -0.6693  0.0938
  132SOL    HW2  396   3.011   1.935   1.656 -1.5779 -0.5767 -0.7868
  133SOL     OW  397   1.271   0.218   1.300  0.2998 -0.1195 -0.5028
  133SOL    HW1  398   1.361   0.253   1.325 -1.0461  0.8787  1.1359
  133SOL    HW2  399   1.194   0.279   1.327  1.0095 -0.3991 -0.3447
  134SOL     OW  400   3.080   1.371   0.239 -0.0480 -0.1100  0.1852
  134SOL    HW1  401   2.982   1.360   0.214 -0.2302  0.9748 -0.1496
  134SOL    HW2  402   3.118   1.438   0.171 -0.5164 -2.3798  1.6270
  135SOL     OW  403   2.562   1.164   1.545  0.4526  0.2313 -0.0830
  135SOL    HW1  404   2.569   1.179   1.648 -0.9865  0.3650  0.1152
  135SOL    HW2  405   2.645   1.200   1.498 -0.8403 -2.4184  3.8884
  136SOL     OW  406   0.172   1.021   0.472  0.2161  0.0856 -0.0334
  136SOL    HW1  407   0.094   1.052   0.520  3.1094 -1.0555 -1.0370
  136SOL    HW2  408   0.171   1.044   0.372  0.4866  2.1032  2.0848
  137SOL     OW  409   2.907   1.146   1.451  0.0917  0.7798 -0.1782
  137SOL    HW1  410   2.922   1.099   1.362  1.2972  0.3071 -2.1209
  137SOL    HW2  411   2.972   1.218   1.457 -4.9058 -0.6964 -2.1682
  138SOL     OW  412   1.648   1.130   1.248  0.3191 -0.1650 -0.5475
  138SOL    HW1  413   1.595   1.056   1.203  1.0487 -2.5443  0.9415
  138SOL    HW2  414   1.748   1.107   1.246 -1.1374  1.1570  0.2263
  139SOL     OW  415   1.810   3.108   0.090  0.2901  0.3322 -0.0590
  139SOL    HW1  416   1.847   3.055   0.169  0.4124  0.1080  0.1480
  139SOL    HW2  417   1.785   0.076   0.110 -0.3673  1.7133  1.0847
  140SOL     OW  418   1.565   1.937   1.677 -0.1818 -0.3193 -0.2937
  140SOL    HW1  419   1.630   1.862   1.660  0.8192 -0.3025 -0.4522
  140SOL    HW2  420   1.500   1.911   1.747 -0.0170  2.2404 -2.1849
  141SOL     OW  421   1.838   2.395   0.700 -0.4682 -0.6065 -0.5368
  141SOL    HW1  422   1.907   2.457   0.662  0.4706 -1.8719 -0.6323
  141SOL    HW2  423   1.841   2.305   0.654 -0.8696 -1.6667  0.6811
  142SOL     OW  424   0.501   0.944   0.169  0.0437  0.0882 -0.0171
  142SOL    HW1  425   0.556   0.870   0.210  1.5202  2.9142 -0.4658
  142SOL    HW2  426   0.413   0.919   0.127  2.2252 -0.9072 -2.9398
  143SOL     OW  427   0.366   2.137   3.006  0.1458  0.4265 -0.1678
  143SOL    HW1  428   0.369   2.238   3.032  0.5218 -0.2603  0.9573
  143SOL    HW2  429   0.304   2.119   2.927  0.7247 -0.8135  1.5000
  144SOL     OW  430   1.382   3.121   1.194  0.4561  0.0809 -0.1840
  144SOL    HW1  431   1.337   0.075   1.222  0.6770 -3.8775 -1.3121
  144SOL    HW2  432   1.419   3.129   1.096  1.0101  0.9401  0.9910
  145SOL     OW  433   2.399   1.413   0.522 -0.3555  0.4241 -0.7627
  145SOL    HW1  434   2.437   1.437   0.433 -0.1920 -1.3523  3.9477
  145SOL    HW2  435   2.471   1.414   0.597  1.1534  2.8293  1.3861
  146SOL     OW  436   2.738   2.080   0.243 -0.6158 -0.3032 -0.1551
  146SOL    HW1  437   2.691   2.128   0.168 -0.2347 -1.9955  0.6631
  146SOL    HW2  438   2.841   2.069   0.223  2.4542  1.4105 -2.3018
  147SOL     OW  439   2.419   2.863   1.596 -0.5830  0.8236  0.5562
  147SOL    HW1  440   2.347   2.934   1.612  2.1424  0.2510 -3.3194
  147SOL    HW2  441   2.485   2.892   1.524 -1.4226  0.8340  2.1673
  148SOL     OW  442   1.249   2.818   1.943 -0.5903  0.1260 -0.0742
  148SOL    HW1  443   1.281   2.736   1.994  0.8813  0.3293 -2.4288
  148SOL    HW2  444   1.160   2.806   1.900  4.3014  0.0434  0.7207
  149SOL     OW  445   1.612   0.475   2.416  0.3604  0.1050  0.5060
  149SOL    HW1  446   1.592   0.550   2.346  3.3560  1.0339 -0.3972
  149SOL    HW2  447   1.584   0.502   2.512  0.6627  1.0610 -4.7526
  150SOL     OW  448   0.625   2.959   0.449 -0.0696  0.1394 -0.7336
  150SOL    HW1  449   0.721   2.938   0.441 -2.0892 -0.9958 -1.0839
  150SOL    HW2  450   0.565   2.882   0.429  0.1888  1.4366  1.9772
  151SOL     OW  451   0.030   1.544   0.034  1.2291  0.0544  0.0279
  151SOL    HW1  452   3.074   1.597   0.055 -1.6864 -0.3155  1.6449
  151SOL    HW2  453   0.021   1.503   3.070 -0.6962 -0.4133 -2.5852
  152SOL     OW  454   2.943   0.167   0.514 -0.3060  0.0749 -0.0233
  152SOL    HW1  455   2.944   0.091   0.582  1.2429 -0.8239 -1.6612
  152SOL    HW2  456   3.030   0.171   0.462  0.1819 -1.5493 -0.0866
  153SOL     OW  457   2.277   0.023   0.958 -0.2594 -0.7989  0.4708
  153SOL    HW1  458   2.251   3.128   1.049  0.4307  1.3346 -0.3721
  153SOL    HW2  459   2.348   3.089   0.919 -1.3337  0.4165 -0.1365
  154SOL     OW  460   0.895   0.445   1.869  0.0570 -0.1698 -0.3753
  154SOL    HW1  461   0.854   0.371   1.926 -2.6320 -0.2582 -0.1588
  154SOL    HW2  462   0.986   0.416   1.831  0.8957 -0.2865 -3.2342
  155SOL     OW  463   2.972   1.024   1.198  0.6657 -0.5121  0.4946
  155SOL    HW1  464   3.015   0.932   1.219  1.6297 -3.3120  0.0438
  155SOL    HW2  465   3.032   1.088   1.146  0.1641  0.5967  0.4605
  156SOL     OW  466   2.999   2.103   0.146  0.0415  0.3729 -0.3348
  156SOL    HW1  467   3.009   2.208   0.147 -1.8001 -0.3801  0.6384
  156SOL    HW2  468   2.964   2.071   0.052 -0.7777 -0.0493 -2.9876
  157SOL     OW  469   0.947   0.294   0.291  0.3982  0.5269  0.1845
  157SOL    HW1  470   0.973   0.198   0.264  0.9694  0.3847 -0.6497
  157SOL    HW2  471   0.886   0.336   0.219 -2.6194  0.3763 -1.5670
  158SOL     OW  472   2.652   0.081   2.821  0.4349 -0.4852  0.4096
  158SOL    HW1  473   2.685   0.179   2.818  1.0668  0.1765  0.4962
  158SOL    HW2  474   2.640   0.041   2.730  0.0052 -0.0461 -0.8116
  159SOL     OW  475   0.573   0.078   3.039 -0.0007 -0.0428  0.0670
  159SOL    HW1  476   0.639   0.034   3.107 -0.8382 -3.1693  0.2894
  159SOL    HW2  477   0.585   0.179   3.034 -1.1785  1.5074 -0.3372
  160SOL     OW  478   1.182   1.786   2.991 -0.0437 -1.0567  0.3905
  160SOL    HW1  479   1.121   1.859   2.950  2.5629 -0.2305  2.0227
  160SOL    HW2  480   1.141   1.739   3.073 -1.3409  0.9354  0.2565
  161SOL     OW  481   3.056   1.622   2.762  0.2007  0.2391  0.6468
  161SOL    HW1  482   2.957   1.628   2.780 -2.0394  0.9573 -0.1992
  161SOL    HW2  483   3.072   1.641   2.662 -2.7765  0.8865 -2.4578
  162SOL     OW  484   0.270   2.471   1.260  0.2998  0.2911 -0.5806
  162SOL    HW1  485   0.368   2.437   1.247  1.9202  0.9924  1.4394
  162SOL    HW2  486   0.248   2.537   1.186 -3.6947 -0.1683  1.2567
  163SOL     OW  487   2.138   0.280   2.817  0.4162  0.0275 -0.3666
  163SOL    HW1  488   2.181   0.247   2.904 -0.7326  2.3891  3.0167
  163SOL    HW2  489   2.155   0.213   2.743  0.1526 -0.4776  0.9892
  164SOL     OW  490   2.791   1.374   0.618  0.0111  0.1756  0.6926
  164SOL    HW1  491   2.772   1.408   0.520  1.2462 -3.8702  0.9571
  164SOL    HW2  492   2.850   1.291   0.609 -0.5701 -0.0891  0.6036
  165SOL     OW  493   0.164   3.104   1.853  0.3961 -0.1214 -0.3613
  165SOL    HW1  494   0.083   3.044   1.848  1.5056  1.3622  2.9649
  165SOL    HW2  495   0.171   0.043   1.781 -0.9044  0.0002  3.4151
  166SOL     OW  496   2.156   0.686   0.688 -0.3695 -0.2477  0.5331
  166SOL    HW1  497   2.239   0.698   0.626  1.1871  1.8234 -0.9139
  166SOL    HW2  498   2.100   0.770   0.698  1.3099 -1.9315  2.1597
  167SOL     OW  499   0.469   0.512   0.326  0.1749  0.4992  0.6064
  167SOL    HW1  500   0.530   0.594   0.339 -0.7603  0.6133  0.0926
  167SOL    HW2  501   0.381   0.522   0.376 -2.9929  1.3046  0.6442
  168SOL     OW  502   1.999   3.060   2.036  0.0449  0.0828  0.0360
  168SOL    HW1  503   1.902   3.083   2.011 -1.7970 -1.3589  1.8623
  168SOL    HW2  504   2.050   0.016   2.061  2.7007  0.7100 -0.1072
  169SOL     OW  505   1.021   1.193   0.668  0.1413  0.0493 -0.0881
  169SOL    HW1  506   1.004   1.096   0.677 -3.2699  2.4990 -2.2540
  169SOL    HW2  507   1.079   1.226   0.741  1.3339 -0.0842 -0.8219
  170SOL     OW  508   3.038   0.123   1.306  0.0719  0.0542  0.6188
  170SOL    HW1  509   0.009   0.106   1.299 -1.2416  0.7538 -0.3089
  170SOL    HW2  510   3.017   0.190   1.379 -1.4576 -0.3430 -1.7667
  171SOL     OW  511   0.805   2.764   1.847  0.2257 -0.1442 -0.0470
  171SOL    HW1  512   0.710   2.742   1.867  2.5119  0.9627 -4.5027
  171SOL    HW2  513   0.861   2.677   1.842  0.5392  0.4843 -0.8343
  172SOL     OW  514   0.484   2.229   1.448 -0.1801  0.1170  0.1740
  172SOL    HW1  515   0.500   2.271   1.355 -0.4848  2.4628 -0.8189
  172SOL    HW2  516   0.405   2.165   1.451  1.9250 -1.1230 -1.2277
  173SOL     OW  517   1.362   0.871   2.712  0.5911 -0.8440  0.5331
  173SOL    HW1  518   1.338   0.875   2.613  1.5213 -1.6515 -1.5733
  173SOL    HW2  519   1.452   0.823   2.718  0.7217 -2.3003 -1.2846
  174SOL     OW  520   1.777   3.108   2.961  0.0610 -0.1550  0.2468
  174SOL    HW1  521   1.783   3.086   3.061 -0.2594 -2.2947  1.7253
  174SOL    HW2  522   1.818   0.070   2.940 -1.6352 -1.2078  0.4736
  175SOL     OW  523   1.821   2.548   0.255  0.3430  0.0259  0.5335
  175SOL    HW1  524   1.734   2.567   0.304  0.0877 -3.6695  2.0441
  175SOL    HW2  525   1.829   2.445   0.256 -2.8328 -1.8513  0.4323
  176SOL     OW  526   1.504   0.120   2.895 -0.0891  0.0853 -0.2333
  176SOL    HW1  527   1.508   0.223   2.891  1.4195 -2.4738  1.6158
  176SOL    HW2  528   1.601   0.092   2.888  2.8110 -2.1620  0.0953
  177SOL     OW  529   1.202   1.757   0.558  0.3771  0.2378  0.0539
  177SOL    HW1  530   1.227   1.854   0.571 -0.5922  1.5078  1.7423
  177SOL    HW2  531   1.116   1.722   0.606  0.8449 -2.3960  1.3300
  178SOL     OW  532   2.923   2.081   2.754 -0.5034  0.2375 -0.0618
  178SOL    HW1  533   2.953   2.175   2.786 -0.1981 -0.7143  1.0476
  178SOL    HW2  534   2.936   2.088   2.652 -1.9980 -3.3649  2.0589
  179SOL     OW  535   0.356   2.334   2.779  0.4571 -0.3329 -0.4496
  179SOL    HW1  536   0.440   2.378   2.744 -1.7337 -1.5796 -0.1805
  179SOL    HW2  537   0.349   2.335   2.882 -0.3351 -0.2747  2.3648
  180SOL     OW  538   1.728   1.657   0.854  0.1298 -0.4127 -0.6355
  180SOL    HW1  539   1.767   1.738   0.808 -0.3060 -1.4151 -1.6610
  180SOL    HW2  540   1.658   1.613   0.792 -1.8203  4.1444 -0.9260
  181SOL     OW  541   2.149   0.963   2.086  0.3504  0.1020  0.0919
  181SOL    HW1  542   2.120   0.874   2.122  1.0459  0.3329 -1.4575
  181SOL    HW2  543   2.251   0.972   2.089  0.2405  2.3323 -0.8335
  182SOL     OW  544   2.884   3.022   2.751 -0.3639  0.1471 -0.3122
  182SOL    HW1  545   2.818   3.069   2.690 -0.3871  2.0305 -1.1306
  182SOL    HW2  546   2.981   3.051   2.734  1.4516 -0.6994  1.9396
  183SOL     OW  547   1.278   0.689   2.268  0.3288 -0.6014  0.1866
  183SOL    HW1  548   1.222   0.613   2.299 -1.4086 -0.4940 -2.6801
  183SOL    HW2  549   1.274   0.684   2.165  0.9189 -2.3496  0.2618
  184SOL     OW  550   0.698   0.625   1.850 -0.3071 -0.7739 -0.4814
  184SOL    HW1  551   0.744   0.718   1.835  0.9075  0.6500 -0.6492
  184SOL    HW2  552   0.771   0.553   1.851  0.6633 -2.0779  0.4380
  185SOL     OW  553   2.050   1.057   0.558  0.2142 -0.3913 -0.9188
  185SOL    HW1  554   1.977   1.100   0.505  1.2635  2.9007  0.6569
  185SOL    HW2  555   2.138   1.107   0.541  1.6270 -0.7864  0.8579
  186SOL     OW  556   0.100   2.083   2.852  0.0781  0.0962 -0.4020
  186SOL    HW1  557   0.021   2.016   2.855  1.5018 -2.8692  0.2586
  186SOL    HW2  558   0.060   2.174   2.851  1.7748 -4.1216  0.6549
  187SOL     OW  559   2.480   1.500   0.263 -0.5638  0.1457 -0.3963
  187SOL    HW1  560   2.441   1.594   0.264  0.3451  0.8856 -0.7233
  187SOL    HW2  561   2.454   1.451   0.180  1.4310  1.0492  2.7877
  188SOL     OW  562   0.234   1.700   0.991 -0.2952 -0.1250 -0.0592
  188SOL    HW1  563   0.274   1.682   0.897  1.0539 -0.9943 -4.6673
  188SOL    HW2  564   0.286   1.774   1.036 -0.4150 -1.2025 -3.7597
  189SOL     OW  565   2.376   0.418   0.450 -0.1515  0.1397  0.3551
  189SOL    HW1  566   2.306   0.342   0.432 -0.8817 -0.2827  2.1410
  189SOL    HW2  567   2.466   0.404   0.405  1.5708  0.7901 -1.2888
  190SOL     OW  568   1.155   1.623   2.090 -0.5078  0.3848  0.1049
  190SOL    HW1  569   1.208   1.563   2.151  0.0400 -0.3377 -2.6748
  190SOL    HW2  570   1.055   1.619   2.119  0.4780 -0.9470  2.8308
  191SOL     OW  571   2.880   0.347   1.765 -0.4095  0.2593  0.5640
  191SOL    HW1  572   2.963   0.296   1.800  0.0141  0.5665  2.4872
  191SOL    HW2  573   2.872   0.431   1.821  1.5399  1.6833 -1.0843
  192SOL     OW  574   1.838   1.503   1.523 -0.5628  0.4393  0.4702
  192SOL    HW1  575   1.863   1.404   1.523 -0.0300 -0.0388 -6.5782
  192SOL    HW2  576   1.924   1.560   1.539 -0.4723  0.3124 -1.8700
  193SOL     OW  577   1.048   0.930   0.735  0.2073 -0.1584  0.5430
  193SOL    HW1  578   0.974   0.860   0.714 -0.4567 -3.2145  0.1707
  193SOL    HW2  579   1.093   0.912   0.826 -0.1526  1.3094  2.1242
  194SOL     OW  580   1.367   2.729   1.287  0.2212  0.7032  0.6221
  194SOL    HW1  581   1.463   2.744   1.258 -0.7888 -1.6357  1.4099
  194SOL    HW2  582   1.308   2.748   1.204  0.5851  0.9936  0.1956
  195SOL     OW  583   2.380   0.425   2.859 -0.2901  0.3301  0.1727
  195SOL    HW1  584   2.431   0.351   2.912  0.2438 -0.7569  0.0327
  195SOL    HW2  585   2.296   0.387   2.813  0.9487  0.2350 -0.3318
  196SOL     OW  586   0.879   2.382   1.521 -0.4651  0.5189  0.5474
  196SOL    HW1  587   0.911   2.324   1.596 -1.0506 -3.5585  0.5420
  196SOL    HW2  588   0.902   2.331   1.432 -0.1576 -0.0536 -3.8992
  197SOL     OW  589   0.857   2.781   0.673  0.0176  0.2536  0.1133
  197SOL    HW1  590   0.774   2.731   0.690  0.0650  0.7560 -1.6844
  197SOL    HW2  591   0.857   2.797   0.577 -1.3333 -0.7256  2.0415
  198SOL     OW  592   0.837   0.748   0.753  0.1748  0.3579  0.2863
  198SOL    HW1  593   0.756   0.767   0.812  1.1680 -2.0503 -1.0358
  198SOL    HW2  594   0.816   0.784   0.662  1.1430 -0.9637  2.0786
  199SOL     OW  595   0.098   2.866   1.575 -0.0471 -0.4529  0.0244
  199SOL    HW1  596   0.045   2.942   1.528 -2.7703  0.6982 -1.4717
  199SOL    HW2  597   0.105   2.781   1.512  0.9175 -0.5563 -1.6903
  200SOL     OW  598   2.339   1.820   2.658 -0.4180 -0.0086 -0.3796
  200SOL    HW1  599   2.356   1.756   2.582 -0.3137  0.9474  2.1638
  200SOL    HW2  600   2.279   1.772   2.726 -2.6539 -1.2488 -2.0174
  201SOL     OW  601   2.911   2.055   1.315  1.0963  0.2896  0.0259
  201SOL    HW1  602   2.972   2.019   1.244 -1.5883 -0.9363  2.1103
  201SOL    HW2  603   2.940   2.021   1.407  1.8967  0.6151 -1.1026
  202SOL     OW  604   2.728   0.147   0.302 -0.4392 -0.0437 -0.5400
  202SOL    HW1  605   2.816   0.151   0.356  0.4800 -0.2630  1.9525
  202SOL    HW2  606   2.758   0.120   0.210  1.8767  0.2314  0.2613
  203SOL     OW  607   1.193   2.295   2.226  0.5538 -0.1742 -0.2168
  203SOL    HW1  608   1.245   2.209   2.227  0.2661  0.4668  2.3796
  203SOL    HW2  609   1.146   2.312   2.317  0.4430  0.7048 -1.7266
  204SOL     OW  610   1.151   1.885   1.610 -0.8777  0.2730  0.3925
  204SOL    HW1  611   1.182   1.985   1.602  0.7616  3.2613  0.6518
  204SOL    HW2  612   1.094   1.864   1.690  2.5476 -1.9545  1.0629
  205SOL     OW  613   0.931   2.191   1.700 -0.0419  0.2513  0.0692
  205SOL    HW1  614   1.026   2.174   1.669 -0.6441 -0.8229 -1.6174
  205SOL    HW2  615   0.903   2.108   1.756 -1.1474 -0.7694  2.4682
  206SOL     OW  616   0.263   0.589   2.780 -0.1709  0.4496 -0.0460
  206SOL    HW1  617   0.355   0.616   2.755 -0.4792  0.4514  0.4607
  206SOL    HW2  618   0.199   0.597   2.701  2.7400 -3.8367  0.9029
  207SOL     OW  619   1.459   0.062   1.863 -0.6854  0.3887 -0.6794
  207SOL    HW1  620   1.398   3.121   1.829 -1.3481  1.4622 -0.8057
  207SOL    HW2  621   1.409   0.146   1.891  1.8794 -0.9823 -1.3832
  208SOL     OW  622   0.661   2.412   1.935  0.4733  0.0230  0.9243
  208SOL    HW1  623   0.640   2.489   1.995 -2.6738  0.4121 -1.7752
  208SOL    HW2  624   0.734   2.448   1.874 -1.9832 -1.4737  1.8285
  209SOL     OW  625   1.832   0.872   3.108 -0.5446 -0.1721  0.8109
  209SOL    HW1  626   1.892   0.789   3.090  1.2299 -0.1951  1.3993
  209SOL    HW2  627   1.853   0.947   3.041  1.2739 -1.6912 -1.6825
  210SOL     OW  628   0.021   0.360   0.851  0.2813 -0.1308 -0.1443
  210SOL    HW1  629   3.066   0.367   0.793  0.8821 -1.7910 -1.2636
  210SOL    HW2  630   0.033   0.450   0.896 -1.7423  1.5470 -1.1943
  211SOL     OW  631   0.923   0.932   1.279  0.0156  0.2234  0.0482
  211SOL    HW1  632   0.847   0.961   1.334  2.3070 -0.8714 -2.4100
  211SOL    HW2  633   1.009   0.937   1.333  1.4760  0.7392  2.5850
  212SOL     OW  634   1.411   2.179   0.922 -0.8548 -0.3331  0.1403
  212SOL    HW1  635   1.331   2.198   0.984  1.7442  1.5386 -0.0751
  212SOL    HW2  636   1.476   2.119   0.978 -1.1822 -1.3875  1.9600
  213SOL     OW  637   2.079   0.181   1.985  0.0509  0.4672  0.2870
  213SOL    HW1  638   2.006   0.175   1.917  1.0157  1.5206 -0.5445
  213SOL    HW2  639   2.162   0.144   1.942 -2.0736 -0.8356 -0.3273
  214SOL     OW  640   1.240   2.490   2.595 -0.1105  0.1877 -0.3320
  214SOL    HW1  641   1.191   2.560   2.645  1.5468 -1.3490 -1.2875
  214SOL    HW2  642   1.300   2.531   2.522  0.9726 -1.0149  1.4052
  215SOL     OW  643   2.965   1.684   1.254 -0.2926 -0.0061  0.2835
  215SOL    HW1  644   2.921   1.702   1.344 -1.7283 -0.6614  1.1384
  215SOL    HW2  645   2.895   1.672   1.175 -2.2306 -1.9053 -0.9166
  216SOL     OW  646   0.308   0.254   2.264 -0.4990  0.0962  0.0401
  216SOL    HW1  647   0.345   0.177   2.317 -0.2543  3.0689 -2.0532
  216SOL    HW2  648   0.383   0.318   2.239 -1.7618  1.6111  0.4493
  217SOL     OW  649   2.683   0.388   0.027  0.3206  0.3903  0.5364
  217SOL    HW1  650   2.672   0.484   0.002 -1.5431 -1.0737 -1.9618
  217SOL    HW2  651   2.782   0.363   0.027 -0.8137  0.4626  2.1336
  218SOL     OW  652   1.735   1.852   2.066 -0.0545 -0.4074  0.5431
  218SOL    HW1  653   1.837   1.832   2.071  0.6482  1.8957 -0.1727
  218SOL    HW2  654   1.689   1.817   2.150  0.0099 -0.9458 -0.3550
  219SOL     OW  655   1.886   0.856   0.252  0.4890 -0.0559 -0.5005
  219SOL    HW1  656   1.829   0.860   0.169  0.9370  1.8952  1.4630
  219SOL    HW2  657   1.830   0.885   0.331 -2.4881 -0.6404  1.3701
  220SOL     OW  658   1.624   2.070   1.091 -0.4579 -0.2438  0.4053
  220SOL    HW1  659   1.568   2.065   1.173  1.0388  1.9776 -1.6036
  220SOL    HW2  660   1.722   2.051   1.115  2.8103  1.0137 -1.4676
  221SOL     OW  661   0.282   0.870   0.072  0.1858  0.5512  0.4556
  221SOL    HW1  662   0.178   0.879   0.072 -1.9942  0.2593  1.1039
  221SOL    HW2  663   0.306   0.853   3.105  1.8278  0.9026  0.5746
  222SOL     OW  664   1.001   2.798   1.344 -0.4249  0.1487 -0.6899
  222SOL    HW1  665   0.977   2.846   1.436  3.1086 -0.5491  1.0280
  222SOL    HW2  666   1.043   2.865   1.275  1.6145 -0.5508  0.3500
  223SOL     OW  667   1.525   0.495   2.690  0.5274 -0.6157 -0.0801
  223SOL    HW1  668   1.546   0.431   2.769 -0.0986  0.9681  2.2236
  223SOL    HW2  669   1.531   0.594   2.715  2.6561 -1.3954  2.7473
  224SOL     OW  670   3.096   0.772   1.223  0.0615  0.3497  0.1239
  224SOL    HW1  671   3.046   0.688   1.183 -2.7298 -0.2234 -1.6098
  224SOL    HW2  672   3.071   0.767   1.325 -0.8563 -1.8424  2.2989
  225SOL     OW  673   1.012   1.302   1.410  0.3622  0.2841 -0.6946
  225SOL    HW1  674   0.964   1.259   1.333  1.0648  1.3545  1.1778
  225SOL    HW2  675   0.950   1.336   1.486 -2.0296  0.8017  0.2879
  226SOL     OW  676   0.965   0.024   0.229  0.4830  0.1027 -0.1768
  226SOL    HW1  677   1.001   0.008   0.134 -1.9537  1.0731 -0.6238
  226SOL    HW2  678   1.005   3.096   0.300  0.4349  0.9518 -2.1036
  227SOL     OW  679   0.700   1.594   1.440  0.3061 -0.0525  0.0223
  227SOL    HW1  680   0.745   1.677   1.409  1.9982 -0.9607  0.2617
  227SOL    HW2  681   0.629   1.558   1.374 -0.2753  0.4455  0.5266
  228SOL     OW  682   0.478   2.857   1.342 -0.0942 -0.0830 -0.1272
  228SOL    HW1  683   0.534   2.777   1.327 -2.7234  1.2742 -1.9353
  228SOL    HW2  684   0.422   2.844   1.427  3.0435  1.4515 -0.0511
  229SOL     OW  685   2.450   0.937   0.457  0.2698  0.0786  0.2602
  229SOL    HW1  686   2.389   0.854   0.449  0.0117 -1.5530 -0.5100
  229SOL    HW2  687   2.476   0.983   0.370 -0.5093  0.8979  1.8879
  230SOL     OW  688   0.472   1.204   1.826 -0.1081 -0.0555 -0.3441
  230SOL    HW1  689   0.430   1.114   1.838  0.2365 -0.2559 -1.2546
  230SOL    HW2  690   0.471   1.257   1.913  0.8427 -2.4677  0.6881
  231SOL     OW  691   1.246   2.428   1.523  0.0272  0.4581  0.0585
  231SOL    HW1  692   1.276   2.501   1.589 -1.3067 -1.6447  1.4441
  231SOL    HW2  693   1.325   2.399   1.460  0.9911  0.0374 -1.4665
  232SOL     OW  694   2.187   2.501   0.486 -0.2527 -0.1814  0.0435
  232SOL    HW1  695   2.128   2.524   0.567  0.9236  1.4353 -2.9740
  232SOL    HW2  696   2.143   2.525   0.397  0.5335 -0.9164  0.6569
  233SOL     OW  697   1.004   2.464   2.996 -0.2090  0.1868 -0.3720
  233SOL    HW1  698   1.015   2.515   3.085 -1.4721 -0.2143  0.3388
  233SOL    HW2  699   1.027   2.365   3.004 -0.3246 -1.4757  0.7952
  234SOL     OW  700   1.143   0.439   2.447  0.0666 -0.0793 -0.3046
  234SOL    HW1  701   1.213   0.425   2.519  2.6797 -1.6523  0.6231
  234SOL    HW2  702   1.122   0.352   2.398  1.6441 -2.3755 -0.2766
  235SOL     OW  703   0.256   2.480   0.289  0.4341  0.3910 -0.4478
  235SOL    HW1  704   0.164   2.500   0.321  3.1599  0.4858 -0.4572
  235SOL    HW2  705   0.266   2.382   0.290  0.2887  2.7403 -1.1499
  236SOL     OW  706   2.049   2.879   2.444 -0.2198  0.0461 -0.4053
  236SOL    HW1  707   2.042   2.782   2.412 -0.2008 -1.8391 -0.1081
  236SOL    HW2  708   2.113   2.885   2.522  0.7747  0.9490  1.5992
  237SOL     OW  709   2.100   1.199   1.659 -0.1302 -0.2298 -0.1259
  237SOL    HW1  710   2.178   1.183   1.598 -3.3647 -0.7269  4.2483
  237SOL    HW2  711   2.078   1.115   1.709 -0.4456 -0.4201  0.2317
  238SOL     OW  712   2.123   0.124   2.372 -0.1795  0.2564  0.4243
  238SOL    HW1  713   2.135   0.170   2.281  1.5053  0.8565 -2.4953
  238SOL    HW2  714   2.028   0.087   2.379  1.6044 -0.7884 -0.7870
  239SOL     OW  715   0.419   1.734   1.616 -0.3159  0.1198 -0.0408
  239SOL    HW1  716   0.408   1.743   1.514 -1.5723  1.6833  0.5024
  239SOL    HW2  717   0.518   1.723   1.642  0.2753 -0.9700  0.3648
  240SOL     OW  718   0.169   2.405   0.662 -0.0794  0.2427 -0.3435
  240SOL    HW1  719   0.098   2.477   0.657  1.4235  1.2110  2.6179
  240SOL    HW2  720   0.137   2.316   0.620  3.0952 -3.4273  0.9466
  241SOL     OW  721   1.434   2.363   0.229  0.4154  0.3564 -0.2025
  241SOL    HW1  722   1.460   2.325   0.326  0.2663 -2.2990  3.3005
  241SOL    HW2  723   1.436   2.293   0.156  0.2111  0.0228 -0.8305
  242SOL     OW  724   1.880   1.197   0.322 -0.1814 -0.6318  0.2766
  242SOL    HW1  725   1.971   1.216   0.280  0.3208  1.4507 -1.7034
  242SOL    HW2  726   1.812   1.248   0.271 -0.6920 -1.1244  0.7252
  243SOL     OW  727   0.833   0.023   1.627  0.4820 -0.3520  0.3860
  243SOL    HW1  728   0.824   0.033   1.524 -1.0281 -0.5341 -0.2894
  243SOL    HW2  729   0.922   0.059   1.660  1.4542 -1.4903  0.5972
  244SOL     OW  730   1.853   2.858   2.897 -0.3746  0.1480  0.0478
  244SOL    HW1  731   1.805   2.942   2.929 -0.0766 -0.0689 -0.4358
  244SOL    HW2  732   1.794   2.822   2.819 -1.5802 -1.5031 -3.3051
  245SOL     OW  733   1.396   3.069   3.084 -0.0289 -0.7908 -0.3174
  245SOL    HW1  734   1.436   0.019   3.031 -0.1349 -0.6511  0.0550
  245SOL    HW2  735   1.460   3.043   0.032  2.9961  0.2854  3.5095
  246SOL     OW  736   1.199   1.222   2.278  0.3430  0.2878 -0.6075
  246SOL    HW1  737   1.252   1.134   2.273  1.8669  1.5700  0.6479
  246SOL    HW2  738   1.105   1.206   2.317 -1.7094  0.4221 -1.1612
  247SOL     OW  739   0.030   0.538   2.214 -0.4889 -0.3564  0.0861
  247SOL    HW1  740   0.111   0.603   2.201  0.6034 -1.2208  0.4527
  247SOL    HW2  741   3.076   0.582   2.255 -1.6213  0.9154 -2.3315
  248SOL     OW  742   0.556   0.887   2.105 -0.8305  0.1131 -0.1324
  248SOL    HW1  743   0.645   0.935   2.089  1.5134 -1.1920 -1.7827
  248SOL    HW2  744   0.485   0.919   2.042  5.6931  3.0445  1.2679
  249SOL     OW  745   2.231   0.600   0.147  0.5896  0.2955 -0.4528
  249SOL    HW1  746   2.232   0.498   0.142 -2.0413  0.2145 -1.2390
  249SOL    HW2  747   2.178   0.632   0.228 -0.4860 -0.8689 -0.5438
  250SOL     OW  748   0.068   0.184   0.419 -0.4790 -0.3093 -0.1241
  250SOL    HW1  749   0.080   0.240   0.336 -1.4823  0.7566 -3.2489
  250SOL    HW2  750   0.085   0.243   0.502 -1.4320 -0.3954  0.3536
  251SOL     OW  751   0.993   0.678   2.495  0.3057  0.5774 -0.1019
  251SOL    HW1  752   1.047   0.588   2.477  0.4525 -1.3305 -0.5070
  251SOL    HW2  753   0.962   0.717   2.403  0.7373  0.2841  2.0788
  252SOL     OW  754   1.415   1.659   1.818 -0.1813  0.1274  0.1912
  252SOL    HW1  755   1.333   1.700   1.867 -1.7280  0.3220 -1.0908
  252SOL    HW2  756   1.386   1.593   1.744 -1.4636  2.7964 -2.3620
  253SOL     OW  757   1.320   2.525   1.931  0.3131  0.0736 -0.0367
  253SOL    HW1  758   1.276   2.474   2.010  0.2938 -1.7944  0.4656
  253SOL    HW2  759   1.417   2.543   1.955 -0.9515  2.6575 -2.0489
  254SOL     OW  760   0.803   2.060   2.222  0.3651 -0.7601  0.4194
  254SOL    HW1  761   0.901   2.028   2.228 -0.7642  2.6785  0.0036
  254SOL    HW2  762   0.792   2.121   2.139  0.0838 -0.7291  0.7399
  255SOL     OW  763   1.385   0.530   0.530  0.4346 -0.2082  0.0796
  255SOL    HW1  764   1.349   0.537   0.629 -0.2012  1.8327 -0.6158
  255SOL    HW2  765   1.310   0.514   0.466 -2.2255 -1.8728  0.7252
  256SOL     OW  766   1.989   2.407   1.516 -0.2175  0.1824 -1.1090
  256SOL    HW1  767   1.977   2.487   1.457 -0.7847  1.5268 -0.8166
  256SOL    HW2  768   1.986   2.318   1.463  0.3486 -0.4206  1.1664
  257SOL     OW  769   0.268   2.129   2.609 -0.3426  0.0339 -0.3825
  257SOL    HW1  770   0.300   2.217   2.648 -0.7849  1.0574 -1.2460
  257SOL    HW2  771   0.204   2.094   2.680 -1.6360 -0.9813 -1.2149
  258SOL     OW  772   0.759   0.514   2.279 -0.3340  0.2027 -0.5515
  258SOL    HW1  773   0.808   0.603   2.267  1.5830 -1.1250  0.0139
  258SOL    HW2  774   0.782   0.473   2.369  1.0582 -2.3010 -0.7978
  259SOL     OW  775   1.297   0.874   2.464 -0.4800  0.6375  0.4122
  259SOL    HW1  776   1.213   0.909   2.509 -1.5977  1.9886  0.7925
  259SOL    HW2  777   1.281   0.799   2.394  0.5552 -0.3004  1.2010
  260SOL     OW  778   1.723   0.755   0.740  0.1558  0.4136  0.1164
  260SOL    HW1  779   1.639   0.781   0.787  0.1492 -0.3674  1.4988
  260SOL    HW2  780   1.776   0.689   0.794 -0.2984 -2.3345 -2.4852
  261SOL     OW  781   0.785   0.285   2.848 -0.1399  0.0076 -0.5759
  261SOL    HW1  782   0.875   0.261   2.894  2.4044 -0.8491  5.0959
  261SOL    HW2  783   0.777   0.218   2.770 -1.9922 -2.4959 -0.8597
  262SOL     OW  784   2.553   2.973   2.957  0.0903  0.5470  0.0126
  262SOL    HW1  785   2.592   2.946   3.047 -1.1278 -0.8124 -0.8504
  262SOL    HW2  786   2.609   3.053   2.927  3.3608  1.7611  1.0570
  263SOL     OW  787   0.430   2.233   0.510 -0.2707 -0.2968 -0.2103
  263SOL    HW1  788   0.370   2.205   0.588  1.5158  0.2187  0.7519
  263SOL    HW2  789   0.524   2.200   0.534  1.9941 -1.0730  1.2896
  264SOL     OW  790   0.327   1.329   1.631  0.6280  0.2901  0.1083
  264SOL    HW1  791   0.397   1.291   1.690 -0.3474 -0.4837 -2.5197
  264SOL    HW2  792   0.291   1.420   1.664 -3.6148 -1.7135  0.7575
  265SOL     OW  793   0.493   1.361   0.299  0.0572  0.1523  0.2779
  265SOL    HW1  794   0.420   1.311   0.245  0.1142  0.0981  0.1223
  265SOL    HW2  795   0.572   1.374   0.236 -0.1368 -2.8502 -0.7318
  266SOL     OW  796   1.941   1.631   0.600 -0.1579 -0.2091  0.7693
  266SOL    HW1  797   1.908   1.724   0.628 -0.3634  4.0069 -1.2499
  266SOL    HW2  798   2.015   1.603   0.668  0.6862  0.4424 -0.1423
  267SOL     OW  799   2.943   0.306   3.122 -0.1561 -0.0973 -0.5215
  267SOL    HW1  800   3.028   0.249   3.127 -0.9365 -1.0433  0.3936
  267SOL    HW2  801   2.963   0.390   3.066 -1.7239 -1.5231  1.2923
  268SOL     OW  802   0.580   0.101   2.730 -0.2901 -0.4173 -1.0908
  268SOL    HW1  803   0.572   0.109   2.831  0.1324  0.3368 -0.0245
  268SOL    HW2  804   0.496   0.060   2.694 -1.2778 -0.5451  0.2868
  269SOL     OW  805   1.821   0.257   2.908 -0.0083 -0.2069 -0.2638
  269SOL    HW1  806   1.760   0.307   2.974 -0.2532 -0.7473  2.4889
  269SOL    HW2  807   1.906   0.307   2.900 -0.1341  0.6952 -2.5003
  270SOL     OW  808   1.055   0.964   2.581  0.3284 -0.4322  0.0711
  270SOL    HW1  809   1.017   0.871   2.593 -2.0825 -2.8332 -0.7307
  270SOL    HW2  810   1.021   1.022   2.658  2.7691 -0.1334  0.6590
  271SOL     OW  811   2.577   0.947   0.183  0.1976  0.0181 -0.4041
  271SOL    HW1  812   2.554   0.860   0.134  0.3127  1.5211 -1.1859
  271SOL    HW2  813   2.578   1.018   0.108 -0.3238 -1.1519  1.4195
  272SOL     OW  814   2.695   1.894   2.747  0.3808  0.1623  0.6697
  272SOL    HW1  815   2.775   1.956   2.729  1.8041  1.3722  2.0639
  272SOL    HW2  816   2.608   1.946   2.751  0.1245  0.9002 -1.3145
  273SOL     OW  817   2.530   0.640   2.927 -0.2394  0.0547  0.4298
  273SOL    HW1  818   2.469   0.563   2.903  2.7499  1.9540  2.4864
  273SOL    HW2  819   2.619   0.643   2.869  1.3656  2.6290 -0.6726
  274SOL     OW  820   0.264   2.940   1.174  1.0466 -0.0029  0.1607
  274SOL    HW1  821   0.265   3.037   1.147 -1.9303  0.6290  0.4656
  274SOL    HW2  822   0.353   2.900   1.207 -0.7489 -2.1346  1.7069
  275SOL     OW  823   2.141   1.510   0.918  0.8169  0.0159  0.1121
  275SOL    HW1  824   2.092   1.424   0.894 -0.8983  1.9256  0.4026
  275SOL    HW2  825   2.191   1.541   0.831 -1.6459 -1.4173 -0.8244
  276SOL     OW  826   0.240   1.326   2.724  0.1557 -0.0186  0.0391
  276SOL    HW1  827   0.318   1.271   2.706 -0.9787  1.3178 -0.3234
  276SOL    HW2  828   0.157   1.284   2.676  1.1426 -1.1904 -0.9074
  277SOL     OW  829   1.664   2.834   1.856 -0.2429 -0.0096  0.5536
  277SOL    HW1  830   1.699   2.809   1.944 -0.4696  2.4988 -1.8282
  277SOL    HW2  831   1.601   2.913   1.862 -1.0187 -0.6346 -1.3581
  278SOL     OW  832   1.542   0.459   1.638 -0.1321 -0.7220  0.3839
  278SOL    HW1  833   1.561   0.360   1.644  0.5132  0.6518 -1.1848
  278SOL    HW2  834   1.616   0.505   1.585  0.3534 -3.2274  2.4819
  279SOL     OW  835   1.885   1.481   0.033 -0.3328 -1.1422  0.6666
  279SOL    HW1  836   1.802   1.424   0.015 -2.5777  2.2931  0.4213
  279SOL    HW2  837   1.873   1.526   0.122 -0.0459 -0.6616 -0.7939
  280SOL     OW  838   0.891   1.520   0.943  0.0187 -0.4024  0.2044
  280SOL    HW1  839   0.987   1.491   0.969  2.6661  1.2416 -0.0532
  280SOL    HW2  840   0.862   1.466   0.858  0.9363  0.8069 -1.2425
  281SOL     OW  841   0.346   3.117   2.629 -0.4348 -0.2259  0.0649
  281SOL    HW1  842   0.367   3.083   2.537 -3.7514 -0.1647  1.7874
  281SOL    HW2  843   0.307   3.039   2.682  1.5383  0.0972 -0.1197
  282SOL     OW  844   0.254   0.659   1.401 -0.1844  0.2227  0.6864
  282SOL    HW1  845   0.255   0.656   1.298 -1.3332 -0.0558 -3.5092
  282SOL    HW2  846   0.187   0.592   1.435 -1.3634  0.8476 -0.1635
  283SOL     OW  847   1.757   2.196   0.020 -0.6605 -0.1758  0.1404
  283SOL    HW1  848   1.790   2.260   3.078 -1.7639 -0.4365  1.6158
  283SOL    HW2  849   1.657   2.184   0.013 -0.6445 -0.3779  1.2509
  284SOL     OW  850   1.817   1.362   0.564  0.1216  0.3937 -0.5079
  284SOL    HW1  851   1.888   1.435   0.569  0.3870 -0.7776  0.5660
  284SOL    HW2  852   1.828   1.308   0.479 -2.9112  1.9584  3.0356
  285SOL     OW  853   0.019   0.251   2.803  0.0092 -0.1602 -0.2672
  285SOL    HW1  854   0.119   0.268   2.828  3.0342  2.8113  1.3509
  285SOL    HW2  855   3.124   0.154   2.784 -1.4565  0.7754 -0.2457
  286SOL     OW  856   1.885   0.121   1.762 -0.0391  0.1658  0.6343
  286SOL    HW1  857   1.859   0.045   1.692 -0.8302 -2.5672 -0.7152
  286SOL    HW2  858   1.913   0.207   1.722 -0.9027 -1.2832  0.2360
  287SOL     OW  859   0.967   1.118   1.064 -0.1589 -0.5654  0.4499
  287SOL    HW1  860   0.984   1.044   1.136  0.5546 -2.5718  3.9815
  287SOL    HW2  861   0.899   1.183   1.106 -0.8489  0.0197 -0.8756
  288SOL     OW  862   1.469   2.996   0.428  0.0984  0.4649  0.0342
  288SOL    HW1  863   1.483   2.975   0.329 -1.8524 -2.1761  0.7056
  288SOL    HW2  864   1.415   3.078   0.450  1.4371 -0.8583  1.6177
  289SOL     OW  865   0.023   1.425   2.903 -0.1958  0.3213  0.3349
  289SOL    HW1  866   3.118   1.506   2.847 -0.5818  1.2170 -1.0154
  289SOL    HW2  867   0.124   1.421   2.891 -0.7391  1.1163 -2.4120
  290SOL     OW  868   1.153   2.678   0.621 -0.1786  0.2922 -0.0300
  290SOL    HW1  869   1.063   2.719   0.624  2.4825 -1.2910 -1.7822
  290SOL    HW2  870   1.202   2.682   0.708 -1.1442 -0.7572  0.8465
  291SOL     OW  871   2.208   2.471   2.750  0.0721 -0.5029  0.1868
  291SOL    HW1  872   2.306   2.460   2.768  2.2136  0.4567  0.4755
  291SOL    HW2  873   2.183   2.524   2.666 -0.4517 -0.2818 -2.0245
  292SOL     OW  874   0.923   1.170   1.946 -0.0898  0.6968 -0.3598
  292SOL    HW1  875   1.012   1.201   1.974 -0.5932 -1.9464  1.7001
  292SOL    HW2  876   0.928   1.135   1.855 -1.1885 -0.0493 -2.1825
  293SOL     OW  877   2.178   2.829   1.173 -0.2543  0.3353 -0.7492
  293SOL    HW1  878   2.200   2.919   1.215  3.0745 -1.8721  2.0130
  293SOL    HW2  879   2.253   2.799   1.108  0.4297 -2.2863 -0.4509
  294SOL     OW  880   0.112   0.600   2.581  0.1559  0.0162 -0.0583
  294SOL    HW1  881   0.012   0.622   2.599  0.6857 -1.1367  0.7468
  294SOL    HW2  882   0.122   0.502   2.558  2.2025 -0.3078 -0.5869
  295SOL     OW  883   1.377   1.902   0.276  0.1313  0.5351 -0.4649
  295SOL    HW1  884   1.386   1.967   0.355  1.4347  0.3281  1.4663
  295SOL    HW2  885   1.394   1.812   0.320  0.3749  0.1236 -0.9778
  296SOL     OW  886   2.111   1.909   3.026 -1.0921  0.2154 -0.1652
  296SOL    HW1  887   2.148   1.991   2.973 -0.7917 -0.2909  1.0023
  296SOL    HW2  888   2.118   1.816   2.976  0.9091 -2.0401 -0.9151
  297SOL     OW  889   2.466   0.721   0.041 -0.1382 -0.6518 -0.0290
  297SOL    HW1  890   2.464   0.698   3.073  2.0185  2.4212  2.9544
  297SOL    HW2  891   2.394   0.682   0.099  1.4250  1.9643 -2.8745
  298SOL     OW  892   1.012   2.117   2.641  0.7455  0.0837 -0.1576
  298SOL    HW1  893   1.025   2.176   2.560  2.8525  0.6123 -1.2629
  298SOL    HW2  894   0.912   2.109   2.667 -3.1305  2.8082 -1.1824
  299SOL     OW  895   1.220   2.862   2.498  0.4116  0.7347 -0.7091
  299SOL    HW1  896   1.249   2.860   2.400  0.9901 -2.8846  2.2706
  299SOL    HW2  897   1.284   2.906   2.566  3.3244  0.5803  1.2044
  300SOL     OW  898   2.490   0.207   3.032  0.7404 -0.5603 -0.7142
  300SOL    HW1  899   2.548   0.266   3.097  1.8405 -0.2394  2.7337
  300SOL    HW2  900   2.535   0.165   2.954 -2.0854  0.7505  3.9629
  301SOL     OW  901   1.242   1.182   1.361  0.5327 -0.5860 -0.0776
  301SOL    HW1  902   1.322   1.235   1.403  1.2817  0.5210 -1.2223
  301SOL    HW2  903   1.152   1.230   1.375  0.5446 -0.8867  1.2499
  302SOL     OW  904   3.045   2.392   0.152  0.6558 -0.0382  0.2593
  302SOL    HW1  905   3.084   2.431   0.237  2.7628  3.0648 -1.7999
  302SOL    HW2  906   2.946   2.414   0.133 -1.7327  3.6929  0.2334
  303SOL     OW  907   2.987   2.580   2.667 -0.7320  0.1177  0.0585
  303SOL    HW1  908   2.951   2.656   2.724  1.2335  1.0367 -1.8667
  303SOL    HW2  909   3.079   2.552   2.699  0.3304  1.1355  2.5061
  304SOL     OW  910   2.916   0.648   2.307  0.4091 -0.1033 -0.1950
  304SOL    HW1  911   2.855   0.723   2.272 -1.2436  1.9199 -0.9978
  304SOL    HW2  912   2.891   0.560   2.270 -0.5363  1.4918  0.2863
  305SOL     OW  913   0.430   2.142   2.183 -0.4285  0.2000  0.8264
  305SOL    HW1  914   0.485   2.222   2.219 -0.4286  1.4697 -3.0557
  305SOL    HW2  915   0.396   2.083   2.261  2.6697  0.0024  2.1205
  306SOL     OW  916   2.696   0.929   1.781  0.7321 -0.3092  0.5460
  306SOL    HW1  917   2.680   1.031   1.798  2.6132 -0.5432  0.6544
  306SOL    HW2  918   2.608   0.879   1.797 -3.5738  0.5025  0.4903
  307SOL     OW  919   1.699   0.846   1.497  0.2774 -0.4861  0.1366
  307SOL    HW1  920   1.782   0.883   1.448 -2.5015  2.2515  0.6815
  307SOL    HW2  921   1.640   0.794   1.430 -1.8243  0.0667 -1.1167
  308SOL     OW  922   2.516   1.799   1.084  0.3718  0.4629  0.1918
  308SOL    HW1  923   2.431   1.792   1.138 -0.7117  0.3134 -1.9840
  308SOL    HW2  924   2.503   1.759   0.993  0.3031  1.0622  0.0084
  309SOL     OW  925   2.056   1.630   1.660  0.2729 -0.0093  0.3043
  309SOL    HW1  926   2.068   1.728   1.688  1.0612 -2.1983 -2.5280
  309SOL    HW2  927   2.145   1.581   1.649  1.0880 -1.9417 -0.0124
  310SOL     OW  928   2.755   1.610   2.741 -0.0168 -0.1983  0.4858
  310SOL    HW1  929   2.729   1.714   2.739 -1.2140  2.2466  1.0601
  310SOL    HW2  930   2.668   1.558   2.719 -2.2990 -0.2971  1.7472
  311SOL     OW  931   2.462   2.077   2.727  0.1830  0.1301 -0.5588
  311SOL    HW1  932   2.434   1.987   2.698  1.9010  2.8987  3.2435
  311SOL    HW2  933   2.471   2.136   2.642 -0.9852  1.0675  1.9135
  312SOL     OW  934   2.266   1.914   1.421 -0.5769  0.3620 -0.0307
  312SOL    HW1  935   2.170   1.903   1.445 -0.9064 -0.9090 -2.8260
  312SOL    HW2  936   2.290   2.014   1.425  2.7232 -1.1012  1.6302
  313SOL     OW  937   2.405   2.751   1.018 -0.6951 -0.0537  0.1573
  313SOL    HW1  938   2.493   2.795   1.037 -0.7643 -1.4740 -2.6639
  313SOL    HW2  939   2.416   2.655   0.994 -0.0522  0.8341  1.5133
  314SOL     OW  940   1.064   1.980   0.366  0.1719 -0.4399  0.0512
  314SOL    HW1  941   1.141   1.914   0.367 -2.1253 -0.9070 -0.7786
  314SOL    HW2  942   1.020   1.986   0.458  0.1609 -2.1398 -1.9459
  315SOL     OW  943   0.584   2.444   2.702 -0.7914 -0.2184 -0.2209
  315SOL    HW1  944   0.667   2.378   2.710 -0.6346 -1.6962  1.9235
  315SOL    HW2  945   0.623   2.538   2.732 -0.0237  2.3756  1.1955
  316SOL     OW  946   0.104   0.743   0.554 -0.4553  0.1335 -0.2652
  316SOL    HW1  947   0.186   0.801   0.543 -0.7701 -0.8059  0.6111
  316SOL    HW2  948   0.036   0.748   0.476 -1.9750 -1.1799  0.7622
  317SOL     OW  949   1.265   0.531   0.765 -0.3137 -0.0629  0.5671
  317SOL    HW1  950   1.306   0.535   0.858  5.6874 -0.2759 -0.3752
  317SOL    HW2  951   1.164   0.538   0.760 -2.1560  0.0964  0.8450
  318SOL     OW  952   3.021   2.529   0.627  0.3830 -0.9203 -0.2136
  318SOL    HW1  953   2.980   2.617   0.656  0.2773  1.8851 -1.5317
  318SOL    HW2  954   2.973   2.448   0.662  1.4387 -1.2762 -0.3317
  319SOL     OW  955   0.314   1.541   2.573 -0.3946  0.2712  0.0316
  319SOL    HW1  956   0.303   1.469   2.647  0.2792 -1.3018  0.6009
  319SOL    HW2  957   0.311   1.633   2.616  1.6549 -0.1428  1.5669
  320SOL     OW  958   0.675   2.585   2.123  0.3443 -0.6343 -0.1554
  320SOL    HW1  959   0.598   2.654   2.107 -4.2820 -1.4647  0.8827
  320SOL    HW2  960   0.735   2.614   2.200 -0.7959 -1.2191  0.1602
  321SOL     OW  961   1.114   2.645   0.072 -0.0355  0.9538  0.4378
  321SOL    HW1  962   1.196   2.616   0.126 -1.6328  0.8593  0.7014
  321SOL    HW2  963   1.054   2.705   0.128  0.7978  1.5310  0.8575
  322SOL     OW  964   2.646   1.251   2.066 -0.1207  0.1224 -0.1525
  322SOL    HW1  965   2.597   1.269   2.155  4.1348  1.9469  3.2123
  322SOL    HW2  966   2.699   1.336   2.049 -1.2344 -0.0790  1.4795
  323SOL     OW  967   2.323   0.690   0.462 -0.0736 -0.1016  0.3098
  323SOL    HW1  968   2.231   0.701   0.419 -1.1356 -0.8279 -0.7456
  323SOL    HW2  969   2.361   0.595   0.453 -0.0082 -1.4198  0.0299
  324SOL     OW  970   0.491   2.588   3.038 -0.5144 -0.0590  0.1447
  324SOL    HW1  971   0.561   2.513   3.017 -0.8756 -4.4948  0.6867
  324SOL    HW2  972   0.519   2.681   2.993 -2.7760 -0.1566 -0.2916
  325SOL     OW  973   1.752   0.183   2.604 -0.5665 -0.4271 -0.1759
  325SOL    HW1  974   1.779   0.217   2.696 -3.1380 -0.9869  1.9989
  325SOL    HW2  975   1.820   0.118   2.573 -2.3914  0.7195 -0.5785
  326SOL     OW  976   2.397   2.585   1.540  0.2531 -0.3169 -0.1231
  326SOL    HW1  977   2.306   2.556   1.572  2.1759 -0.6596 -1.1109
  326SOL    HW2  978   2.418   2.681   1.559 -1.0763  0.4906 -0.6942
  327SOL     OW  979   1.514   0.380   2.951 -0.6406 -0.0617 -0.1166
  327SOL    HW1  980   1.429   0.408   2.998  2.2448  1.3757 -0.0431
  327SOL    HW2  981   1.599   0.421   2.998  0.9119 -1.9705  1.3295
  328SOL     OW  982   2.564   1.328   2.324 -0.4636  0.1082 -0.1661
  328SOL    HW1  983   2.555   1.428   2.303  0.3561  1.0675  1.3409
  328SOL    HW2  984   2.472   1.282   2.339 -3.1239  2.5827  0.6704
  329SOL     OW  985   1.719   0.031   1.962  0.2572 -0.0203 -0.3681
  329SOL    HW1  986   1.784   0.079   1.902 -0.7537  0.2760  1.6060
  329SOL    HW2  987   1.625   0.058   1.929 -1.1355 -2.4739  0.4559
  330SOL     OW  988   2.311   1.515   1.592  0.1276 -0.4083  0.2214
  330SOL    HW1  989   2.258   1.464   1.519 -0.5564 -1.6701 -1.4176
  330SOL    HW2  990   2.406   1.533   1.559 -1.6258  2.8957 -0.9860
  331SOL     OW  991   0.448   1.260   1.366 -0.3885  0.6770 -0.1331
  331SOL    HW1  992   0.475   1.336   1.307 -0.2744  0.1568  2.9406
  331SOL    HW2  993   0.404   1.295   1.458 -2.1254  3.5988  3.5172
  332SOL     OW  994   0.859   0.296   1.206  0.4173 -0.4211  0.1406
  332SOL    HW1  995   0.886   0.287   1.106  0.7145  0.4472 -2.1827
  332SOL    HW2  996   0.940   0.327   1.260 -0.7175  1.3804 -0.5558
  333SOL     OW  997   2.199   2.607   1.967  0.0964 -0.2009  0.4381
  333SOL    HW1  998   2.245   2.563   2.047  2.5248 -1.2168 -0.3972
  333SOL    HW2  999   2.122   2.669   1.995 -1.1519  1.2233  1.8218
  334SOL     OW 1000   1.206   1.502   1.279  0.2490 -0.5634 -0.1193
  334SOL    HW1 1001   1.152   1.445   1.344  1.3112 -0.6162  3.1104
  334SOL    HW2 1002   1.251   1.577   1.329  1.3862  0.9731  0.9462
  335SOL     OW 1003   0.551   2.836   2.944 -0.0139 -0.5726  0.2330
  335SOL    HW1 1004   0.634   2.874   2.989  1.6638  1.2180  0.4323
  335SOL    HW2 1005   0.546   2.872   2.846 -1.1285  0.4414 -2.0969
  336SOL     OW 1006   3.042   2.889   1.961  0.1825 -0.1771 -0.1749
  336SOL    HW1 1007   3.020   2.980   1.917  0.8722  0.5824 -1.1016
  336SOL    HW2 1008   2.968   2.818   1.944  0.6375  0.9524 -0.3044
  337SOL     OW 1009   2.693   1.869   0.633 -0.0033 -0.2804  0.4501
  337SOL    HW1 1010   2.638   1.828   0.709  0.0748  1.5774 -2.3663
  337SOL    HW2 1011   2.662   1.837   0.541 -3.0499  0.0531  0.2825
  338SOL     OW 1012   1.181   2.070   1.320  0.0475 -0.2980  0.1083
  338SOL    HW1 1013   1.139   1.977   1.299 -1.6891 -1.0997 -0.3586
  338SOL    HW2 1014   1.161   2.109   1.414 -1.5937  0.2694  4.1513
  339SOL     OW 1015   2.989   0.681   2.564  0.3110  0.2089  0.5786
  339SOL    HW1 1016   2.964   0.656   2.466  0.0464 -1.3161  2.2224
  339SOL    HW2 1017   3.003   0.780   2.582  4.1975 -1.0591  0.4019
  340SOL     OW 1018   1.577   3.023   1.007 -0.5396  0.4166 -0.0581
  340SOL    HW1 1019   1.575   3.028   1.106  0.6662  0.2733 -0.8307
  340SOL    HW2 1020   1.543   2.932   0.979  4.4500 -2.8309 -1.4136
  341SOL     OW 1021   1.913   1.993   1.218  0.9464  0.2708  0.0106
  341SOL    HW1 1022   1.917   1.955   1.120 -1.8660 -0.2974 -0.4252
  341SOL    HW2 1023   1.945   1.930   1.290 -0.1670  1.4528 -0.9362
  342SOL     OW 1024   0.631   1.417   0.969 -0.3015  0.0574 -0.4275
  342SOL    HW1 1025   0.542   1.377   0.939 -2.3884 -0.9061 -5.1027
  342SOL    HW2 1026   0.700   1.393   0.898  1.3512  0.7672  2.7702
  343SOL     OW 1027   2.506   0.355   1.467  0.2459  0.1485 -0.1861
  343SOL    HW1 1028   2.523   0.299   1.553  0.1904 -1.2067 -1.6154
  343SOL    HW2 1029   2.596   0.386   1.428  0.8732 -1.0448 -0.7700
  344SOL     OW 1030   2.168   2.430   0.879  0.2810  0.0280 -0.2285
  344SOL    HW1 1031   2.142   2.330   0.880 -0.6944 -0.0020  0.6693
  344SOL    HW2 1032   2.242   2.453   0.945 -1.7552 -1.6718 -0.2020
  345SOL     OW 1033   2.841   2.370   2.950  0.7567 -0.0687  0.5045
  345SOL    HW1 1034   2.827   2.463   2.999  1.3037  0.3146  2.2937
  345SOL    HW2 1035   2.764   2.306   2.945  0.2997  0.1441 -3.9759
  346SOL     OW 1036   0.154   1.340   0.740  0.6113  0.1270  0.4059
  346SOL    HW1 1037   0.122   1.388   0.823  1.8173  1.0240  0.0123
  346SOL    HW2 1038   0.107   1.378   0.654 -2.1807  1.5991 -0.9220
  347SOL     OW 1039   1.995   2.894   0.981 -0.8931 -0.3276  0.4437
  347SOL    HW1 1040   1.983   2.802   0.934 -2.2600 -0.8345  1.0946
  347SOL    HW2 1041   2.066   2.888   1.052 -2.4585 -1.0865 -2.2601
  348SOL     OW 1042   1.447   1.229   2.616  0.2353 -0.2320  0.0887
  348SOL    HW1 1043   1.478   1.179   2.532  0.3560  0.2987 -0.5158
  348SOL    HW2 1044   1.484   1.322   2.615 -2.0645 -0.7441  0.0949
  349SOL     OW 1045   2.346   1.189   2.382  0.1248  0.5307 -0.0054
  349SOL    HW1 1046   2.245   1.173   2.370 -2.0552 -1.9840  0.2272
  349SOL    HW2 1047   2.394   1.110   2.426  2.0215 -1.8641 -0.7636
  350SOL     OW 1048   3.090   1.914   1.149  0.3418  0.2529 -0.1980
  350SOL    HW1 1049   3.082   1.820   1.191 -0.6337 -0.4250 -0.7761
  350SOL    HW2 1050   0.050   1.962   1.143 -0.4656 -1.7209 -1.8806
  351SOL     OW 1051   0.849   0.408   2.530  0.1850 -0.9970 -0.0089
  351SOL    HW1 1052   0.896   0.326   2.574  1.2330  0.4197 -1.1074
  351SOL    HW2 1053   0.915   0.491   2.527 -0.1158  1.4841 -1.0734
  352SOL     OW 1054   0.791   2.648   1.537 -0.0990 -0.0904 -0.3254
  352SOL    HW1 1055   0.846   2.734   1.533 -2.4237  0.8659 -1.0949
  352SOL    HW2 1056   0.846   2.561   1.548  0.4859 -0.2973  1.4234
  353SOL     OW 1057   0.473   1.348   2.061 -0.0446 -0.4843 -0.3789
  353SOL    HW1 1058   0.404   1.285   2.094  2.9801  0.1613 -2.6315
  353SOL    HW2 1059   0.459   1.448   2.087 -0.0452  2.2185  1.0373
  354SOL     OW 1060   1.989   1.292   0.834 -0.1482 -0.1611  0.2923
  354SOL    HW1 1061   1.932   1.344   0.895  0.9062  0.3889  0.4958
  354SOL    HW2 1062   1.936   1.246   0.764  1.2453  0.8530  3.1746
  355SOL     OW 1063   2.405   0.301   0.690  0.1393  0.3800 -0.3258
  355SOL    HW1 1064   2.357   0.351   0.615 -1.5300 -0.1065  1.3643
  355SOL    HW2 1065   2.467   0.224   0.665 -0.3413  0.7324 -0.3787
  356SOL     OW 1066   0.004   1.265   2.614  0.4228  0.0401 -0.1528
  356SOL    HW1 1067   3.083   1.350   2.595 -1.8764  2.1016  0.0516
  356SOL    HW2 1068   0.006   1.206   2.529  0.3067  1.6340  1.2685
  357SOL     OW 1069   0.381   2.822   1.594  0.7221  0.0202 -0.2821
  357SOL    HW1 1070   0.282   2.812   1.587  0.1253 -0.0291  0.5044
  357SOL    HW2 1071   0.417   2.889   1.661 -0.5814  1.5083 -2.0114
  358SOL     OW 1072   2.867   1.280   2.724  0.5059  0.2330  0.0793
  358SOL    HW1 1073   2.965   1.266   2.710 -0.8937  0.0525 -0.0825
  358SOL    HW2 1074   2.833   1.316   2.634 -0.1183  2.9568 -1.7255
  359SOL     OW 1075   2.736   2.589   3.062  0.4283  0.2295 -0.1719
  359SOL    HW1 1076   2.801   2.644   3.010  1.8312  0.2375  0.1294
  359SOL    HW2 1077   2.647   2.582   3.012 -0.4433 -0.0769 -0.3465
  360SOL     OW 1078   1.545   1.521   1.237 -0.2073 -0.4464 -0.1888
  360SOL    HW1 1079   1.525   1.435   1.183 -1.6561  0.6617 -0.6571
  360SOL    HW2 1080   1.585   1.598   1.181  3.9545  2.7136 -0.0713
  361SOL     OW 1081   2.065   2.620   1.334  0.7656 -0.2135 -0.1466
  361SOL    HW1 1082   2.096   2.702   1.280  0.1102  0.6776 -1.0146
  361SOL    HW2 1083   2.118   2.540   1.315 -1.2228  0.6354  1.6036
  362SOL     OW 1084   1.668   1.730   1.105 -0.1882  0.1654 -0.1745
  362SOL    HW1 1085   1.622   1.815   1.076 -2.7815 -1.0295 -1.7369
  362SOL    HW2 1086   1.702   1.683   1.019  0.4507 -1.9002  2.2786
  363SOL     OW 1087   2.590   2.212   0.058  0.6205 -0.4197 -0.3788
  363SOL    HW1 1088   2.566   2.224   3.086 -0.2486  0.6508 -0.2322
  363SOL    HW2 1089   2.635   2.293   0.096 -1.5197 -1.3558 -1.1009
  364SOL     OW 1090   2.220   0.482   1.621  0.6933 -0.6841  0.2556
  364SOL    HW1 1091   2.246   0.520   1.531  5.2954 -0.5872  0.9069
  364SOL    HW2 1092   2.290   0.418   1.649  0.3103 -1.8365  0.4548
  365SOL     OW 1093   2.863   2.541   1.292  0.6635  0.0410 -0.5392
  365SOL    HW1 1094   2.941   2.595   1.247 -2.1884  2.1937 -0.3821
  365SOL    HW2 1095   2.826   2.476   1.222 -2.5296 -0.8135  0.4341
  366SOL     OW 1096   2.826   1.306   0.146 -0.5685  0.3686 -0.1742
  366SOL    HW1 1097   2.810   1.305   0.045 -1.8382 -0.4494  1.0934
  366SOL    HW2 1098   2.815   1.207   0.186  0.9355 -1.3564  0.6548
  367SOL     OW 1099   2.440   2.498   2.909  0.0385 -0.0393 -0.5229
  367SOL    HW1 1100   2.476   2.592   2.894  0.0726  0.2963  0.6840
  367SOL    HW2 1101   2.417   2.487   3.007 -1.4996 -0.3310  1.9489
  368SOL     OW 1102   2.631   1.840   1.369  0.1539 -0.1351  0.1396
  368SOL    HW1 1103   2.575   1.919   1.390  1.5995 -0.0991 -1.3201
  368SOL    HW2 1104   2.609   1.812   1.277  0.4110  0.7613  1.6061
  369SOL     OW 1105   0.483   0.310   0.861  0.2717  0.1100  0.0702
  369SOL    HW1 1106   0.445   0.347   0.946  2.2640  1.7331 -1.4178
  369SOL    HW2 1107   0.467   0.210   0.863 -0.8964  0.4987  0.3784
  370SOL     OW 1108   0.881   0.685   1.119 -0.4630 -0.5076  0.0254
  370SOL    HW1 1109   0.862   0.766   1.177 -0.6151  1.6595  0.6477
  370SOL    HW2 1110   0.787   0.659   1.090 -0.3332 -1.1947  0.6904
  371SOL     OW 1111   2.438   1.763   0.265 -0.2445 -0.7481  0.1156
  371SOL    HW1 1112   2.528   1.790   0.304 -1.7117  2.0783 -2.5025
  371SOL    HW2 1113   2.427   1.810   0.174  1.6446 -1.4092  2.4922
  372SOL     OW 1114   0.260   0.990   2.608 -0.3864  0.3744 -0.4747
  372SOL    HW1 1115   0.205   0.981   2.697  1.6268 -1.1634  4.4343
  372SOL    HW2 1116   0.346   1.040   2.625  0.4352 -1.6979  0.0469
  373SOL     OW 1117   2.972   0.942   0.442  0.5583 -0.1015  0.3672
  373SOL    HW1 1118   3.038   1.022   0.458  0.3354 -0.6543  0.3273
  373SOL    HW2 1119   3.014   0.852   0.415 -3.0940 -1.4056  1.5037
  374SOL     OW 1120   0.682   2.327   0.153  0.1790 -0.0148  0.2287
  374SOL    HW1 1121   0.615   2.400   0.180 -0.7259  0.7426 -2.4558
  374SOL    HW2 1122   0.688   2.316   0.052  3.1185 -1.8339  0.8034
  375SOL     OW 1123   1.141   0.710   3.109 -0.8695  0.4968 -0.2094
  375SOL    HW1 1124   1.148   0.779   3.034 -0.8050 -0.6033 -0.2949
  375SOL    HW2 1125   1.053   0.722   0.031 -2.5267  0.7685 -1.7833
  376SOL     OW 1126   0.134   2.717   1.811 -0.0157 -0.3043 -0.3727
  376SOL    HW1 1127   0.062   2.719   1.882  1.2548 -0.6477 -0.6299
  376SOL    HW2 1128   0.122   2.800   1.753 -2.7629 -2.3573  1.4510
  377SOL     OW 1129   0.084   1.946   2.455  0.2368 -0.0963  0.1248
  377SOL    HW1 1130   0.003   2.011   2.458  1.0408  0.0926  0.8415
  377SOL    HW2 1131   0.143   1.951   2.373 -0.5775  2.5669  1.9197
  378SOL     OW 1132   1.678   0.894   0.486 -0.1685 -0.0152 -0.6584
  378SOL    HW1 1133   1.591   0.950   0.463 -3.3031  1.8155 -0.0618
  378SOL    HW2 1134   1.688   0.865   0.583  0.6377 -0.9337 -1.0211
  379SOL     OW 1135   1.327   1.398   0.171  0.5596  0.4390 -0.2112
  379SOL    HW1 1136   1.247   1.427   0.231  0.6959  0.3720  1.6864
  379SOL    HW2 1137   1.322   1.459   0.086 -2.5681  1.8324 -2.2299
  380SOL     OW 1138   2.370   2.333   2.035 -0.7116  0.5950 -0.0019
  380SOL    HW1 1139   2.421   2.357   1.950 -2.6922 -0.5735 -1.4837
  380SOL    HW2 1140   2.274   2.305   2.016 -1.2651  0.6619  1.0645
  381SOL     OW 1141   0.122   0.973   2.174 -0.3897  0.3134 -0.3469
  381SOL    HW1 1142   0.051   0.985   2.097 -1.9538  2.3280 -0.0451
  381SOL    HW2 1143   0.154   0.872   2.170  1.5471 -3.9010 -4.4360
  382SOL     OW 1144   2.773   2.452   0.161 -0.3475 -0.5470  0.0770
  382SOL    HW1 1145   2.757   2.525   0.089  2.6749  3.9213 -0.1460
  382SOL    HW2 1146   2.737   2.479   0.248  0.3900  1.7562 -0.6429
  383SOL     OW 1147   1.726   1.130   1.977  0.0157  0.8796 -0.0387
  383SOL    HW1 1148   1.669   1.043   1.978 -1.1475  1.5612  0.9801
  383SOL    HW2 1149   1.718   1.171   1.882  0.9685  3.0706  1.6105
  384SOL     OW 1150   0.673   2.042   2.481 -0.5858  0.3759 -0.2302
  384SOL    HW1 1151   0.723   2.044   2.389  3.2160  0.6967  0.4784
  384SOL    HW2 1152   0.573   2.046   2.475  2.2691 -0.0215  1.1930
  385SOL     OW 1153   2.768   2.148   0.634  0.3628  0.2018 -0.3618
  385SOL    HW1 1154   2.747   2.061   0.592 -2.1567 -1.0698  0.1402
  385SOL    HW2 1155   2.695   2.168   0.708 -0.4052  0.6855  2.0677
  386SOL     OW 1156   1.551   0.786   3.048  0.2569 -0.0155  0.3139
  386SOL    HW1 1157   1.641   0.822   3.083  1.0885  0.7467  0.0283
  386SOL    HW2 1158   1.499   0.739   3.127 -1.2179  0.4865  2.1724
  387SOL     OW 1159   0.425   0.538   1.626  0.0568  0.0346  0.2811
  387SOL    HW1 1160   0.426   0.547   1.525 -0.7403 -0.6979  0.6167
  387SOL    HW2 1161   0.340   0.487   1.657 -0.9168  0.1591 -0.0327
  388SOL     OW 1162   3.039   0.757   1.499  0.9321 -0.3299 -0.1769
  388SOL    HW1 1163   3.068   0.739   1.597  2.1390  0.7472  0.9025
  388SOL    HW2 1164   2.954   0.812   1.504 -0.5263  0.5680 -1.0650
  389SOL     OW 1165   1.825   1.290   2.511 -0.0286  0.4705  0.1793
  389SOL    HW1 1166   1.808   1.193   2.494 -0.9723 -0.5125 -1.8704
  389SOL    HW2 1167   1.739   1.347   2.512 -0.3868  0.4376 -2.5035
  390SOL     OW 1168   1.794   2.208   0.470 -0.2331  0.4005  0.8593
  390SOL    HW1 1169   1.803   2.240   0.374 -1.4333  2.9381 -0.0348
  390SOL    HW2 1170   1.848   2.123   0.487 -0.4624 -0.0832  0.9196
  391SOL     OW 1171   1.183   2.559   1.071 -0.1380  0.6142  0.0212
  391SOL    HW1 1172   1.149   2.547   1.167  2.2636  2.5362  0.8990
  391SOL    HW2 1173   1.108   2.569   1.005  1.6292  2.2312  3.1936
  392SOL     OW 1174   2.712   2.638   1.494 -0.4281  0.3084 -0.0832
  392SOL    HW1 1175   2.775   2.598   1.426  0.7619 -0.2364  1.1048
  392SOL    HW2 1176   2.610   2.628   1.466 -3.5880  0.1446  1.0360
  393SOL     OW 1177   1.856   2.593   2.527  0.4461  0.2539 -0.2446
  393SOL    HW1 1178   1.898   2.615   2.614 -3.0376 -1.2285 -0.4319
  393SOL    HW2 1179   1.928   2.604   2.455 -0.3662  0.1448 -0.2616
  394SOL     OW 1180   0.574   2.927   2.674 -0.5969  1.0116  0.0755
  394SOL    HW1 1181   0.550   2.911   2.578  2.2819  1.8805 -0.7452
  394SOL    HW2 1182   0.619   3.019   2.687 -1.4410  2.4223 -0.0738
  395SOL     OW 1183   0.666   0.993   1.437 -0.5875  0.3696  0.0625
  395SOL    HW1 1184   0.694   1.060   1.505 -2.6906 -0.3030  0.6844
  395SOL    HW2 1185   0.571   1.023   1.410  1.6251  0.1953 -0.1573
  396SOL     OW 1186   2.060   1.203   2.364 -0.1176 -0.1312 -0.2128
  396SOL    HW1 1187   2.023   1.194   2.265 -3.0202  0.5568 -0.9968
  396SOL    HW2 1188   1.997   1.253   2.422  1.1525 -0.3946 -2.9483
  397SOL     OW 1189   2.691   0.346   2.746 -0.7169 -0.4373 -0.7231
  397SOL    HW1 1190   2.692   0.436   2.795  3.5389  0.4555 -0.7302
  397SOL    HW2 1191   2.784   0.318   2.716 -2.7257  2.5756  1.9157
  398SOL     OW 1192   1.775   0.256   0.867  0.1251 -0.4235 -0.2021
  398SOL    HW1 1193   1.818   0.165   0.841  1.1757 -4.7516  1.9231
  398SOL    HW2 1194   1.727   0.292   0.784  1.6140 -0.9986 -0.2316
  399SOL     OW 1195   2.402   2.748   1.854 -0.3020 -0.3370  0.2683
  399SOL    HW1 1196   2.407   2.793   1.761  1.5651 -0.3674 -2.3458
  399SOL    HW2 1197   2.309   2.719   1.880  2.4197  0.4769  2.1658
  400SOL     OW 1198   3.053   2.440   1.858 -0.2957 -0.7816  0.0699
  400SOL    HW1 1199   2.981   2.385   1.814 -1.3815  0.4820  1.2617
  400SOL    HW2 1200   3.126   2.379   1.896  1.6927  1.4354  1.3199
  401SOL     OW 1201   0.545   0.274   0.427  0.1166  0.0128  0.1889
  401SOL    HW1 1202   0.531   0.192   0.369  1.7426 -1.3037  1.6455
  401SOL    HW2 1203   0.517   0.360   0.380 -1.6733 -1.4540  4.1986
  402SOL     OW 1204   0.575   2.631   1.715 -0.0251 -0.4794 -0.0444
  402SOL    HW1 1205   0.649   2.597   1.652  0.4088  3.1682  1.5850
  402SOL    HW2 1206   0.517   2.698   1.665 -0.6966  0.4037 -2.0839
  403SOL     OW 1207   0.153   1.290   1.893  0.4088  0.0653 -0.1885
  403SOL    HW1 1208   0.194   1.281   1.801 -1.8652  1.4621 -1.1774
  403SOL    HW2 1209   0.192   1.227   1.962 -0.6082 -0.8714  0.9773
  404SOL     OW 1210   2.789   2.560   2.184  0.1169 -0.4098 -0.2647
  404SOL    HW1 1211   2.810   2.618   2.102  0.6879  0.2801 -1.2581
  404SOL    HW2 1212   2.832   2.471   2.159 -0.0305 -0.0170  0.5959
  405SOL     OW 1213   2.513   0.322   2.549  0.2166 -0.2099  0.5405
  405SOL    HW1 1214   2.442   0.252   2.564  0.0457  2.3954 -0.7128
  405SOL    HW2 1215   2.584   0.316   2.624  0.6632 -0.9219 -0.2130
  406SOL     OW 1216   1.624   2.623   0.430  0.5320 -0.3658 -0.3985
  406SOL    HW1 1217   1.530   2.666   0.412 -1.5193  0.8606 -2.4352
  406SOL    HW2 1218   1.626   2.577   0.520 -0.8975 -2.1062 -1.2133
  407SOL     OW 1219   1.900   1.592   0.329  0.4536  0.3218 -0.0178
  407SOL    HW1 1220   1.904   1.609   0.430 -0.5150  1.7293 -0.5279
  407SOL    HW2 1221   1.804   1.594   0.294 -2.6751  1.8505  1.0872
  408SOL     OW 1222   0.251   0.691   2.169 -0.1081  0.1324 -0.4064
  408SOL    HW1 1223   0.288   0.716   2.261  1.0202 -1.2276  0.2948
  408SOL    HW2 1224   0.327   0.677   2.103 -2.7889 -0.6677  0.7285
  409SOL     OW 1225   2.821   1.342   3.002  0.0070  0.0719 -0.4991
  409SOL    HW1 1226   2.783   1.433   3.016  0.6017  0.3709  0.5198
  409SOL    HW2 1227   2.859   1.331   2.909 -1.2504  0.2862  1.9738
  410SOL     OW 1228   2.497   1.326   1.143  0.1319  0.1933  0.1684
  410SOL    HW1 1229   2.421   1.400   1.136 -5.7523  3.9298  1.8365
  410SOL    HW2 1230   2.591   1.368   1.160  1.6086 -0.6254 -0.2646
  411SOL     OW 1231   3.032   0.682   0.361 -0.2605  0.1715 -0.2207
  411SOL    HW1 1232   3.080   0.631   0.291 -0.8952 -0.4703  1.6914
  411SOL    HW2 1233   2.937   0.644   0.358  1.8243 -0.3446 -1.5336
  412SOL     OW 1234   1.776   0.258   0.154 -0.1101  0.2067 -0.0526
  412SOL    HW1 1235   1.688   0.258   0.204 -0.3559 -0.0285 -0.7182
  412SOL    HW2 1236   1.850   0.263   0.223 -1.4287  1.6794 -1.0669
  413SOL     OW 1237   1.145   0.397   1.780 -0.2952 -0.2034  0.1482
  413SOL    HW1 1238   1.222   0.373   1.843 -1.7825  1.0144 -1.3274
  413SOL    HW2 1239   1.187   0.432   1.690  2.4803 -0.9867  0.9224
  414SOL     OW 1240   0.350   1.192   0.131  0.1741 -0.0855 -0.1670
  414SOL    HW1 1241   0.389   1.105   0.158 -1.0533  2.2482  0.6146
  414SOL    HW2 1242   0.327   1.194   0.032 -1.8061  0.7070 -2.4519
  415SOL     OW 1243   3.125   1.412   0.496 -0.3450  0.1994  0.1811
  415SOL    HW1 1244   3.116   1.510   0.494  0.4596 -4.1661 -1.6203
  415SOL    HW2 1245   3.115   1.381   0.400 -0.3382  0.3098  2.0885
  416SOL     OW 1246   2.175   1.177   0.155  0.6756 -0.0434 -0.6749
  416SOL    HW1 1247   2.164   1.077   0.145  0.3751 -2.0469 -0.3323
  416SOL    HW2 1248   2.274   1.195   0.162 -0.6076 -1.2051  0.8044
  417SOL     OW 1249   2.687   2.929   0.040 -0.1182 -0.1013 -0.0744
  417SOL    HW1 1250   2.770   2.872   0.028 -1.8540  0.3040  1.1666
  417SOL    HW2 1251   2.635   2.919   0.128 -1.9112  0.2708  0.2786
  418SOL     OW 1252   2.728   0.679   0.129  0.1125 -0.0226  0.1258
  418SOL    HW1 1253   2.629   0.677   0.116  0.9337 -1.6902 -0.9221
  418SOL    HW2 1254   2.745   0.656   0.229 -0.2762  3.1429  1.8212
  419SOL     OW 1255   0.926   0.359   0.568 -0.7349  0.0283  0.8846
  419SOL    HW1 1256   0.834   0.379   0.607 -0.9319  4.6891 -0.1817
  419SOL    HW2 1257   0.919   0.312   0.476 -1.3141  0.5161 -0.5968
  420SOL     OW 1258   0.618   1.062   0.635  0.5085  0.1313  0.0504
  420SOL    HW1 1259   0.519   1.026   0.647 -5.0087  0.5326  1.5812
  420SOL    HW2 1260   0.660   1.077   0.726 -1.8937  0.1490 -5.0708
  421SOL     OW 1261   0.423   1.903   0.580 -0.5937  0.2225 -0.7736
  421SOL    HW1 1262   0.512   1.891   0.532 -0.4718  1.9995  0.7210
  421SOL    HW2 1263   0.349   1.869   0.520 -1.2549  0.5643  1.1562
  422SOL     OW 1264   2.881   0.274   1.497  0.2504 -0.2069  0.9676
  422SOL    HW1 1265   2.834   0.349   1.439 -1.6359  1.0687 -1.5540
  422SOL    HW2 1266   2.863   0.291   1.597  2.4727 -0.6222  1.2018
  423SOL     OW 1267   1.986   1.994   0.516 -0.0535  0.4790 -0.6349
  423SOL    HW1 1268   2.079   2.041   0.512  1.6307 -1.6085 -0.9559
  423SOL    HW2 1269   1.961   1.949   0.426  1.7717 -1.1070 -0.0321
  424SOL     OW 1270   1.650   1.603   2.961 -0.1987 -0.0729 -0.5095
  424SOL    HW1 1271   1.628   1.656   3.046 -1.7083  0.1560  0.9158
  424SOL    HW2 1272   1.736   1.635   2.917  0.9753  1.4603  0.5448
  425SOL     OW 1273   0.515   2.776   2.053 -0.4223  0.5525  0.0227
  425SOL    HW1 1274   0.432   2.754   2.111 -1.4030 -0.9868 -0.6246
  425SOL    HW2 1275   0.485   2.793   1.956 -0.5692 -1.8791 -0.9985
  426SOL     OW 1276   2.295   3.000   3.069  0.1724 -0.0007  0.1213
  426SOL    HW1 1277   2.386   2.986   3.026  0.6605 -0.2814  0.9653
  426SOL    HW2 1278   2.215   2.966   3.008  1.4104 -0.5369 -2.6851
  427SOL     OW 1279   0.356   1.575   2.143 -0.1941  0.7189  0.2407
  427SOL    HW1 1280   0.364   1.672   2.114 -0.1847  0.7669 -1.0792
  427SOL    HW2 1281   0.289   1.564   2.223  1.1215 -0.8253 -0.8721
  428SOL     OW 1282   2.187   1.458   2.443 -0.0457  0.1657  0.6771
  428SOL    HW1 1283   2.118   1.502   2.384  1.9062 -1.8098 -0.5104
  428SOL    HW2 1284   2.207   1.371   2.398 -0.6483  2.8128 -1.0453
  429SOL     OW 1285   2.556   0.081   0.614 -0.3648  0.0353  0.3024
  429SOL    HW1 1286   2.613   0.092   0.529  0.7370  1.3993 -0.2612
  429SOL    HW2 1287   2.484   0.011   0.600  0.9539  2.3671  1.0029
  430SOL     OW 1288   1.840   2.058   2.278  0.9239 -0.2335  0.0772
  430SOL    HW1 1289   1.900   2.072   2.193 -0.3515  3.7110  0.1990
  430SOL    HW2 1290   1.773   1.980   2.273  0.9708  1.3391  0.4973
  431SOL     OW 1291   2.778   1.683   1.797  0.4008 -0.4881  0.6936
  431SOL    HW1 1292   2.867   1.653   1.762 -0.5982  0.8959  1.3778
  431SOL    HW2 1293   2.700   1.614   1.787  3.8099  2.2759  1.1445
  432SOL     OW 1294   0.991   2.352   2.066 -0.0479 -0.0101 -0.0649
  432SOL    HW1 1295   1.070   2.330   2.127 -0.3999  0.6216  0.5474
  432SOL    HW2 1296   0.927   2.276   2.054  1.5351  1.7352  2.5280
  433SOL     OW 1297   1.030   0.079   0.594  0.1471 -0.6498 -0.2963
  433SOL    HW1 1298   1.086   0.157   0.574 -1.2923 -0.7807  0.1713
  433SOL    HW2 1299   0.941   0.105   0.629  0.5552  1.7284 -0.7603
  434SOL     OW 1300   0.204   2.318   2.076  0.6037 -0.1590 -0.0719
  434SOL    HW1 1301   0.259   2.386   2.025 -1.2310 -0.9851 -0.5604
  434SOL    HW2 1302   0.266   2.257   2.127  1.0033  0.3303  0.9722
  435SOL     OW 1303   0.565   1.318   0.591 -0.2798 -0.5293 -0.1151
  435SOL    HW1 1304   0.577   1.215   0.602  1.2948 -1.6982 -1.9765
  435SOL    HW2 1305   0.547   1.334   0.488  1.3818 -1.0691 -2.1262
  436SOL     OW 1306   0.199   1.557   1.697 -0.2660 -0.7013  0.5179
  436SOL    HW1 1307   0.279   1.614   1.665 -0.6931 -0.6215 -1.3763
  436SOL    HW2 1308   0.164   1.594   1.785  3.0290  0.2503 -0.7814
  437SOL     OW 1309   1.147   0.470   0.354 -0.6163  0.2431 -0.3628
  437SOL    HW1 1310   1.080   0.393   0.358 -3.8415 -1.6477  1.2673
  437SOL    HW2 1311   1.098   0.563   0.355 -2.1683  0.4727 -1.0236
  438SOL     OW 1312   1.073   1.829   1.206 -0.0157 -0.5962 -0.2324
  438SOL    HW1 1313   1.026   1.818   1.116  1.9576 -1.0012 -0.9213
  438SOL    HW2 1314   1.169   1.821   1.178 -1.4475  1.9922  0.8218
  439SOL     OW 1315   1.444   2.004   2.426 -0.4646  0.3394  0.2694
  439SOL    HW1 1316   1.348   1.995   2.471 -2.2074 -0.2473  1.0679
  439SOL    HW2 1317   1.513   1.938   2.466  2.1545 -4.9232  1.7145
  440SOL     OW 1318   1.532   0.287   1.346 -0.3076 -0.3553  0.3127
  440SOL    HW1 1319   1.541   0.275   1.448 -0.4519  0.2576  2.8283
  440SOL    HW2 1320   1.584   0.217   1.293 -0.0014  1.7784  0.9424
  441SOL     OW 1321   0.580   3.091   1.281 -0.0920  0.1412 -0.6933
  441SOL    HW1 1322   0.520   0.046   1.289 -1.9839  2.6920 -0.0509
  441SOL    HW2 1323   0.535   3.007   1.310  0.7238  1.6633  2.2934
  442SOL     OW 1324   2.313   2.142   0.791 -0.2835 -0.0989 -0.6408
  442SOL    HW1 1325   2.227   2.151   0.844  1.6498  1.5127 -0.1758
  442SOL    HW2 1326   2.296   2.173   0.698 -2.3990  1.1289  1.7780
  443SOL     OW 1327   2.842   0.392   2.281  0.0648 -0.4949  0.0932
  443SOL    HW1 1328   2.749   0.356   2.260 -0.1746 -2.4092 -0.8379
  443SOL    HW2 1329   2.900   0.327   2.327 -1.0090 -0.2754  1.5961
  444SOL     OW 1330   1.978   1.195   2.093  0.3988  0.2504  0.1618
  444SOL    HW1 1331   1.895   1.161   2.045  2.8042  2.5743  0.3260
  444SOL    HW2 1332   2.043   1.117   2.088  1.8151  1.9645 -1.0845
  445SOL     OW 1333   2.532   2.105   1.434 -0.3558  0.0314  0.2261
  445SOL    HW1 1334   2.627   2.133   1.416  1.6137  0.0663  0.4042
  445SOL    HW2 1335   2.511   2.101   1.535 -0.6893 -1.2959  2.2005
  446SOL     OW 1336   0.384   0.956   0.658 -0.0232  0.0646 -0.7426
  446SOL    HW1 1337   0.340   0.987   0.574 -0.3946 -2.1448 -0.9976
  446SOL    HW2 1338   0.320   0.974   0.737  0.9431  1.7690 -1.3175
  447SOL     OW 1339   0.923   1.863   0.983  0.6493  0.1184  0.3610
  447SOL    HW1 1340   0.904   1.964   0.992  1.2671  0.2665  3.0749
  447SOL    HW2 1341   0.837   1.809   0.973 -2.3542  1.5228 -0.7289
  448SOL     OW 1342   1.089   1.064   1.696  1.0329  0.9779  0.0407
  448SOL    HW1 1343   1.088   1.046   1.594  1.5203 -1.9208 -0.0258
  448SOL    HW2 1344   1.055   0.979   1.741  0.4580 -3.7081  0.4225
  449SOL     OW 1345   0.165   1.795   0.023 -0.0044  0.0191 -0.2680
  449SOL    HW1 1346   0.140   1.698   0.047  1.6898 -1.1797 -0.9543
  449SOL    HW2 1347   0.134   1.858   0.097  2.2301 -0.2049  0.1178
  450SOL     OW 1348   2.500   2.516   2.200  0.0390  0.1662 -0.3781
  450SOL    HW1 1349   2.456   2.451   2.131  0.2091  1.5913 -1.5609
  450SOL    HW2 1350   2.601   2.534   2.187  0.4920 -1.1920 -1.1329
  451SOL     OW 1351   2.188   0.430   1.933 -0.3269  0.4103 -0.0891
  451SOL    HW1 1352   2.155   0.345   1.972 -0.6636  1.4438 -1.6193
  451SOL    HW2 1353   2.114   0.498   1.925  1.3772 -2.5747  2.0272
  452SOL     OW 1354   0.848   2.756   1.116  0.4815  0.3624 -0.4619
  452SOL    HW1 1355   0.818   2.840   1.075  1.3824 -0.7103  2.6285
  452SOL    HW2 1356   0.906   2.774   1.192  0.3199 -1.5905 -1.9605
  453SOL     OW 1357   1.151   1.247   0.917 -0.0602  0.1988  0.1967
  453SOL    HW1 1358   1.158   1.346   0.936  2.6711 -2.3779 -0.7090
  453SOL    HW2 1359   1.070   1.202   0.960 -2.8658  1.0240 -1.7695
  454SOL     OW 1360   0.189   1.013   0.832 -0.6993  0.3131 -0.5203
  454SOL    HW1 1361   0.170   0.973   0.926 -0.7886  0.6259  0.0797
  454SOL    HW2 1362   0.148   1.105   0.823  1.2530  0.2025  3.2472
  455SOL     OW 1363   0.211   3.057   0.307 -0.8241 -0.0288  0.1884
  455SOL    HW1 1364   0.185   3.071   0.211 -0.2845  1.0220 -1.6813
  455SOL    HW2 1365   0.159   3.121   0.363  1.5213 -0.8344 -0.9431
  456SOL     OW 1366   2.642   2.451   0.833  0.2252 -0.3072  0.2106
  456SOL    HW1 1367   2.604   2.357   0.820 -1.4945 -0.5600 -0.7430
  456SOL    HW2 1368   2.616   2.520   0.764  1.7054 -1.7580 -0.9931
  457SOL     OW 1369   1.147   3.080   2.859  0.3837 -0.0661 -0.7664
  457SOL    HW1 1370   1.214   3.004   2.868  0.5789 -2.6526  1.9240
  457SOL    HW2 1371   1.193   0.015   2.794  0.5793 -0.4258 -3.6971
  458SOL     OW 1372   2.910   2.739   0.274 -0.4633  0.3211 -0.0218
  458SOL    HW1 1373   2.838   2.677   0.307  1.5906 -0.8101 -0.6015
  458SOL    HW2 1374   2.921   2.749   0.173 -1.5799 -0.0157 -0.2779
  459SOL     OW 1375   2.531   0.372   2.270 -0.1136 -0.7075  0.4241
  459SOL    HW1 1376   2.502   0.370   2.368  1.3947 -2.7663 -2.0441
  459SOL    HW2 1377   2.512   0.284   2.219  0.4354 -0.4622  1.0450
  460SOL     OW 1378   3.110   0.615   0.107 -0.3203  0.1084  0.8943
  460SOL    HW1 1379   0.003   0.715   0.096 -1.7043  0.8313 -4.0218
  460SOL    HW2 1380   3.083   0.579   0.020  1.0001  0.9567  1.8369
  461SOL     OW 1381   0.569   1.834   1.177  0.1845  0.3189  0.3784
  461SOL    HW1 1382   0.617   1.815   1.089 -1.1352 -2.0505 -0.6709
  461SOL    HW2 1383   0.628   1.830   1.264  1.2493 -2.4916  2.2735
  462SOL     OW 1384   3.074   2.694   1.212  0.2819 -0.4628  0.2277
  462SOL    HW1 1385   3.093   2.795   1.191  0.7776  0.2986  1.0906
  462SOL    HW2 1386   0.001   2.670   1.295  0.7822 -1.5978 -0.2577
  463SOL     OW 1387   2.527   1.121   3.090 -0.2731 -0.4139 -0.0987
  463SOL    HW1 1388   2.444   1.071   3.067  2.0400  2.3209  2.1098
  463SOL    HW2 1389   2.594   1.121   3.010  1.2153  2.3335 -3.0634
  464SOL     OW 1390   0.529   2.390   1.244  0.5940  0.2359 -0.5949
  464SOL    HW1 1391   0.599   2.324   1.218  1.3102  1.6990  0.7534
  464SOL    HW2 1392   0.570   2.475   1.274 -1.6558 -2.7364 -3.0798
  465SOL     OW 1393   0.601   0.659   1.037  0.2363  0.0204  0.1446
  465SOL    HW1 1394   0.552   0.590   0.980 -1.6373  2.0589 -0.4603
  465SOL    HW2 1395   0.612   0.742   0.979  0.9151 -0.0804 -1.8709
  466SOL     OW 1396   1.228   2.918   2.210  0.1945 -0.1830  0.1797
  466SOL    HW1 1397   1.233   2.891   2.112  1.4882  0.2204  1.0789
  466SOL    HW2 1398   1.136   2.954   2.240  1.4539  0.5121  0.2066
  467SOL     OW 1399   0.833   0.303   2.086  0.7641 -0.2879 -0.2032
  467SOL    HW1 1400   0.735   0.262   2.092 -2.6558  0.1679  1.7168
  467SOL    HW2 1401   0.838   0.387   2.146 -0.5932  1.7986  2.1970
  468SOL     OW 1402   0.255   1.241   2.186 -0.3739 -0.0821 -0.4669
  468SOL    HW1 1403   0.183   1.168   2.203 -1.7907 -0.3031 -1.3311
  468SOL    HW2 1404   0.230   1.326   2.241  0.8418  0.9948  0.9622
  469SOL     OW 1405   0.461   1.608   0.823  0.0321  0.4227 -0.2817
  469SOL    HW1 1406   0.491   1.620   0.731  0.1099 -2.5040 -0.0168
  469SOL    HW2 1407   0.439   1.509   0.841 -0.4435 -1.7960  1.7924
  470SOL     OW 1408   2.480   1.903   2.276 -0.2749 -0.1675 -0.1733
  470SOL    HW1 1409   2.514   1.803   2.286  1.8508 -2.9226  0.2651
  470SOL    HW2 1410   2.526   1.968   2.345  1.5572  0.7224 -2.4566
  471SOL     OW 1411   1.287   0.338   2.647 -0.1505 -0.2167  0.0406
  471SOL    HW1 1412   1.276   0.247   2.685 -0.4515  0.4222 -0.8491
  471SOL    HW2 1413   1.377   0.384   2.664  2.2189  0.5630  0.6574
  472SOL     OW 1414   0.413   2.388   1.713  0.2515 -0.7720  0.0007
  472SOL    HW1 1415   0.441   2.334   1.633  2.9049 -0.7425  1.1546
  472SOL    HW2 1416   0.451   2.477   1.701  0.3523  0.9663  2.4538
  473SOL     OW 1417   0.463   0.022   2.371  0.1369 -0.6331  0.0996
  473SOL    HW1 1418   0.531   0.088   2.413  1.4216  0.1023 -0.6179
  473SOL    HW2 1419   0.509   3.072   2.331  0.7678 -0.1930 -1.9098
  474SOL     OW 1420   1.818   0.166   1.394 -0.7620  0.2061 -0.3810
  474SOL    HW1 1421   1.834   0.269   1.402 -1.4925  1.1906 -2.3537
  474SOL    HW2 1422   1.866   0.128   1.315  0.7508  0.9623 -1.4068
  475SOL     OW 1423   1.948   0.695   1.256 -0.1112  0.3960  0.5962
  475SOL    HW1 1424   2.038   0.654   1.259 -0.9595  2.4200  0.3433
  475SOL    HW2 1425   1.928   0.735   1.166  1.2613  1.7541  0.1697
  476SOL     OW 1426   0.728   1.094   0.897 -0.4025  0.1751 -0.3545
  476SOL    HW1 1427   0.643   1.119   0.952  1.4002 -0.0144  1.9434
  476SOL    HW2 1428   0.806   1.095   0.963 -2.6310  0.4201  1.0913
  477SOL     OW 1429   1.425   2.335   0.694 -0.6578 -0.4990  0.1163
  477SOL    HW1 1430   1.418   2.286   0.785 -0.5464  0.8648  0.4555
  477SOL    HW2 1431   1.331   2.345   0.659  0.2348  0.7758  1.9801
  478SOL     OW 1432   0.062   2.685   2.290  0.4714 -0.0965  0.1988
  478SOL    HW1 1433   0.119   2.655   2.369 -1.0624  0.3687 -0.3546
  478SOL    HW2 1434   0.017   2.608   2.249 -0.3382 -0.9187  2.1732
  479SOL     OW 1435   2.593   0.161   1.208  0.5246  0.3200 -0.0578
  479SOL    HW1 1436   2.621   0.260   1.195  0.4537 -2.0559 -1.2316
  479SOL    HW2 1437   2.496   0.156   1.170 -2.5523  1.2720 -0.1089
  480SOL     OW 1438   0.411   2.659   0.576 -0.0845 -0.0924  0.5525
  480SOL    HW1 1439   0.371   2.568   0.573  3.1512 -0.3845  0.6715
  480SOL    HW2 1440   0.392   2.719   0.497  5.2892  0.0420  0.6919
  481SOL     OW 1441   2.212   2.169   1.530  0.5443 -0.2029 -0.0172
  481SOL    HW1 1442   2.197   2.087   1.592 -1.3579 -2.6477  4.6223
  481SOL    HW2 1443   2.224   2.253   1.589  3.2261  1.0880 -1.4463
  482SOL     OW 1444   1.299   2.849   2.912  0.1053  0.3763 -0.0611
  482SOL    HW1 1445   1.333   2.912   2.984 -0.8941 -0.1241 -0.6546
  482SOL    HW2 1446   1.370   2.787   2.875 -1.2268  2.0982 -2.9587
  483SOL     OW 1447   0.789   1.960   1.819 -0.0924 -0.2487 -0.1949
  483SOL    HW1 1448   0.849   1.916   1.891  3.5096 -1.7321  4.1018
  483SOL    HW2 1449   0.738   1.890   1.765  0.7864 -0.1325 -2.1075
  484SOL     OW 1450   1.075   0.400   1.360  0.6218  0.0902 -0.1230
  484SOL    HW1 1451   1.044   0.443   1.444  0.1398 -0.4021 -2.2142
  484SOL    HW2 1452   1.100   0.473   1.286  1.4118  2.7676  1.4905
  485SOL     OW 1453   1.866   1.086   2.928  0.0184 -0.1798  0.0068
  485SOL    HW1 1454   1.797   1.153   2.969  2.1848  0.7440  1.1843
  485SOL    HW2 1455   1.958   1.131   2.929  3.1370  2.9713  0.1915
  486SOL     OW 1456   2.395   0.098   1.401  0.4072 -0.1571  0.2054
  486SOL    HW1 1457   2.428   0.187   1.372  1.9644 -1.0964 -0.3759
  486SOL    HW2 1458   2.464   0.026   1.379  0.7316  3.0351  0.3251
  487SOL     OW 1459   0.710   2.186   1.233 -0.5454  0.0752 -0.5354
  487SOL    HW1 1460   0.791   2.246   1.236 -0.6875  1.6590  0.9699
  487SOL    HW2 1461   0.694   2.141   1.322 -0.4264 -0.3153  2.0133
  488SOL     OW 1462   2.293   2.148   0.055  0.0249  0.3173 -0.7611
  488SOL    HW1 1463   2.272   2.157   3.082  4.6351 -0.5314 -2.6513
  488SOL    HW2 1464   2.383   2.197   0.081  1.0594  0.1758  0.8870
  489SOL     OW 1465   1.930   3.019   0.649 -0.4439 -0.6106 -0.4954
  489SOL    HW1 1466   1.930   2.984   0.746  2.2319 -1.4452  0.0361
  489SOL    HW2 1467   1.977   2.961   0.586 -1.8910 -2.1487  3.2649
  490SOL     OW 1468   1.009   1.995   2.902  0.6994  0.1679 -0.2752
  490SOL    HW1 1469   1.037   2.024   2.807  2.5632 -1.4064 -0.0039
  490SOL    HW2 1470   1.038   2.063   2.975  0.5494 -1.7857  1.7939
  491SOL     OW 1471   0.246   1.889   1.754 -0.4167 -0.0954 -0.2064
  491SOL    HW1 1472   0.305   1.818   1.721  0.6662  0.3260  1.1402
  491SOL    HW2 1473   0.299   1.960   1.810 -1.7340 -0.1485 -0.5674
  492SOL     OW 1474   0.831   1.560   1.814 -0.1778  0.7546 -0.0197
  492SOL    HW1 1475   0.931   1.562   1.813 -5.1656  0.2126 -0.6275
  492SOL    HW2 1476   0.797   1.498   1.890 -2.0213  0.4463  2.6471
  493SOL     OW 1477   2.545   1.699   0.816 -0.9744 -0.1772 -0.1993
  493SOL    HW1 1478   2.460   1.740   0.785 -1.2803 -0.4396 -1.4269
  493SOL    HW2 1479   2.541   1.598   0.798  0.0241 -3.9374 -0.1001
  494SOL     OW 1480   2.956   1.502   0.815  0.2734  0.6500  0.5079
  494SOL    HW1 1481   2.912   1.439   0.753  1.2752  0.2737 -0.0923
  494SOL    HW2 1482   2.960   1.599   0.784  0.8364  2.5491 -1.2628
  495SOL     OW 1483   2.355   3.001   0.579 -0.0119 -0.2439 -0.6293
  495SOL    HW1 1484   2.288   3.015   0.504  1.9308  1.4949  0.9485
  495SOL    HW2 1485   2.361   2.901   0.596  1.2355  1.7307  0.0048
  496SOL     OW 1486   2.752   3.122   1.716  0.2895  0.4310 -0.0635
  496SOL    HW1 1487   2.774   3.060   1.640 -1.2107  1.2630  2.5147
  496SOL    HW2 1488   2.713   0.079   1.681  0.0317 -0.3109 -0.7742
  497SOL     OW 1489   2.428   1.212   2.737  0.0271  0.1210 -0.1366
  497SOL    HW1 1490   2.427   1.150   2.653 -3.0066 -1.6473  0.2173
  497SOL    HW2 1491   2.518   1.202   2.787  1.9920 -1.2546  1.5273
  498SOL     OW 1492   2.871   1.735   1.488  0.0797 -0.0561  0.0691
  498SOL    HW1 1493   2.913   1.827   1.499  1.4371 -0.1975 -0.2663
  498SOL    HW2 1494   2.769   1.739   1.482 -0.8416 -0.3104  0.1076
  499SOL     OW 1495   1.064   2.323   2.458  0.2260  0.0909  0.0350
  499SOL    HW1 1496   1.101   2.377   2.536  1.6240  1.3284 -1.3110
  499SOL    HW2 1497   0.962   2.333   2.445  2.0551  2.5183  1.8754
  500SOL     OW 1498   1.581   1.504   0.563  0.5615  0.0067 -0.3357
  500SOL    HW1 1499   1.662   1.445   0.566 -1.0204  2.7828  0.5311
  500SOL    HW2 1500   1.549   1.520   0.657  2.5175  1.0966 -5.0917
  501SOL     OW 1501   1.585   0.187   1.613  0.2354  0.5440 -0.5820
  501SOL    HW1 1502   1.534   0.135   1.681  2.5880 -0.5678  0.0724
  501SOL    HW2 1503   1.667   0.130   1.587  2.5341 -1.1694 -2.3606
  502SOL     OW 1504   2.667   0.602   1.683 -0.0837  0.0351 -0.0664
  502SOL    HW1 1505   2.743   0.586   1.749 -0.3805 -1.8568  0.3043
  502SOL    HW2 1506   2.583   0.628   1.728  2.5330  1.5597 -2.2185
  503SOL     OW 1507   2.558   1.620   2.265 -0.1073 -0.0643 -0.2427
  503SOL    HW1 1508   2.513   1.574   2.182 -0.9760 -0.6762  1.2014
  503SOL    HW2 1509   2.660   1.629   2.249  0.0653 -0.0838  0.9555
  504SOL     OW 1510   1.159   1.287   2.014  0.6067 -0.4283  0.2063
  504SOL    HW1 1511   1.178   1.271   2.114 -0.6371  0.2153  1.5378
  504SOL    HW2 1512   1.231   1.258   1.955 -2.8185  2.1176  1.5470
  505SOL     OW 1513   0.336   0.234   1.654 -0.5660 -0.3496  0.1347
  505SOL    HW1 1514   0.392   0.169   1.710  1.1657  1.1125  0.5082
  505SOL    HW2 1515   0.247   0.190   1.625  1.5784  2.6885  1.1019
  506SOL     OW 1516   0.104   0.233   3.126  0.6908 -0.3074 -0.0012
  506SOL    HW1 1517   0.126   0.281   0.083  1.5706  2.5598  2.5461
  506SOL    HW2 1518   0.164   0.271   3.050  1.1175  0.1403  0.1361
  507SOL     OW 1519   0.304   2.397   3.029 -0.2620 -0.0154 -0.1904
  507SOL    HW1 1520   0.208   2.426   3.062 -0.7785  3.2997 -0.3437
  507SOL    HW2 1521   0.363   2.477   3.032 -3.3471 -1.0147 -0.8663
  508SOL     OW 1522   1.091   0.218   2.111  0.1498  0.1879 -0.0126
  508SOL    HW1 1523   0.999   0.235   2.072  1.2324  0.0752  0.5870
  508SOL    HW2 1524   1.089   0.214   2.216 -1.1065 -1.6022  0.1594
  509SOL     OW 1525   1.457   2.059   1.296 -0.0112 -0.4364  0.5992
  509SOL    HW1 1526   1.508   2.102   1.368 -0.6527 -2.2216 -1.1457
  509SOL    HW2 1527   1.359   2.049   1.324  1.4809 -0.5450  2.9059
  510SOL     OW 1528   2.837   0.909   1.548  0.1673  0.2814  0.6899
  510SOL    HW1 1529   2.795   0.923   1.641  2.1419 -1.4128  1.7086
  510SOL    HW2 1530   2.854   0.996   1.493  0.6683 -1.1342  1.0719
  511SOL     OW 1531   1.351   1.801   1.198 -0.0223  0.3861 -0.1579
  511SOL    HW1 1532   1.419   1.875   1.208 -1.2083 -1.5116  0.1414
  511SOL    HW2 1533   1.333   1.764   1.293 -0.1658 -1.2042  1.4517
  512SOL     OW 1534   0.203   1.789   0.398  0.6350  0.0148  0.1258
  512SOL    HW1 1535   0.129   1.751   0.459  0.2789 -1.5095  1.0438
  512SOL    HW2 1536   0.165   1.856   0.330  2.5151 -0.0148  0.8110
  513SOL     OW 1537   0.269   1.206   3.006 -0.2568 -0.6902  0.0334
  513SOL    HW1 1538   0.339   1.267   2.960  0.2777 -0.5056  2.4322
  513SOL    HW2 1539   0.175   1.217   2.975  0.6193 -3.9121  1.0129
  514SOL     OW 1540   2.105   2.354   2.389  0.0111  1.0489 -0.0653
  514SOL    HW1 1541   2.040   2.307   2.457  1.3328  3.5511  2.2814
  514SOL    HW2 1542   2.181   2.294   2.374 -2.1151  3.2142 -0.9729
  515SOL     OW 1543   2.707   0.880   0.571 -0.5872  0.0800  0.4992
  515SOL    HW1 1544   2.626   0.917   0.516 -2.1539  1.4344 -0.7472
  515SOL    HW2 1545   2.790   0.897   0.513  0.1630 -0.7446 -0.4916
  516SOL     OW 1546   2.483   2.671   0.249 -0.2132 -0.0366  0.5918
  516SOL    HW1 1547   2.412   2.625   0.196  0.3353  1.5508  0.8434
  516SOL    HW2 1548   2.572   2.619   0.261  3.1367 -1.6750 -1.1080
  517SOL     OW 1549   0.654   1.674   3.040  0.1557  0.0396  0.7297
  517SOL    HW1 1550   0.665   1.747   2.972 -2.3149  0.7432 -0.4045
  517SOL    HW2 1551   0.583   1.695   3.114 -0.0017  0.1277  2.1701
  518SOL     OW 1552   3.108   0.236   1.832  0.1342 -0.4685  0.0200
  518SOL    HW1 1553   3.067   0.140   1.845  0.2560 -0.6832  0.0331
  518SOL    HW2 1554   0.009   0.272   1.927 -0.7604  3.2611 -1.0413
  519SOL     OW 1555   1.690   1.363   0.206 -0.2524  0.0476  0.0721
  519SOL    HW1 1556   1.612   1.297   0.213  0.9522 -1.0311 -1.7450
  519SOL    HW2 1557   1.656   1.456   0.208 -1.6422 -1.0476  0.6394
  520SOL     OW 1558   2.801   2.871   2.214 -0.3372  0.1145 -0.1198
  520SOL    HW1 1559   2.886   2.927   2.220 -0.8361 -2.1757 -0.5985
  520SOL    HW2 1560   2.818   2.781   2.260  0.9571 -2.1664  0.0965
  521SOL     OW 1561   0.048   2.106   2.044  0.0403  0.0774 -0.0390
  521SOL    HW1 1562   0.100   2.192   2.060  1.7245 -2.8863  2.8744
  521SOL    HW2 1563   0.095   2.031   2.100  1.1099 -3.3575  4.3505
  522SOL     OW 1564   1.284   3.007   1.747  0.0991 -0.2123  0.0032
  522SOL    HW1 1565   1.289   2.959   1.835  1.8862 -2.5798 -2.8467
  522SOL    HW2 1566   1.253   2.948   1.670 -0.0658  1.8799  0.3700
  523SOL     OW 1567   1.981   2.335   1.168  0.5004 -0.9721 -0.6639
  523SOL    HW1 1568   1.924   2.299   1.245  0.2003  2.7091  1.6100
  523SOL    HW2 1569   2.081   2.330   1.196  4.3486 -1.5185  0.2166
  524SOL     OW 1570   1.051   2.313   0.963 -0.1273  0.3902 -0.2676
  524SOL    HW1 1571   1.134   2.314   1.025  0.3528  2.5192 -0.4078
  524SOL    HW2 1572   1.002   2.401   0.965  2.6702 -2.8676 -0.2533
  525SOL     OW 1573   2.807   0.595   0.671 -0.0620  0.2594 -0.7149
  525SOL    HW1 1574   2.715   0.582   0.714  0.7760  0.3957  1.6716
  525SOL    HW2 1575   2.855   0.659   0.731  0.5474 -0.5606  1.2324
  526SOL     OW 1576   1.308   0.327   0.186  0.0357 -0.6727 -0.0352
  526SOL    HW1 1577   1.250   0.388   0.247  0.0464  1.1577 -1.8697
  526SOL    HW2 1578   1.404   0.336   0.216 -0.2703  1.0098  1.8751
  527SOL     OW 1579   1.932   1.326   1.239  0.0779  0.1979  0.2105
  527SOL    HW1 1580   1.931   1.396   1.164 -2.0551 -0.2361  1.3282
  527SOL    HW2 1581   1.930   1.228   1.208 -1.8284  1.5075  0.3130
  528SOL     OW 1582   2.805   2.676   2.439 -0.1486 -0.1593  0.2169
  528SOL    HW1 1583   2.880   2.647   2.505  0.0857  0.4314  3.8394
  528SOL    HW2 1584   2.802   2.626   2.350  2.8716  1.1576 -1.6066
  529SOL     OW 1585   0.943   1.152   2.399 -0.8246 -0.0534  0.5755
  529SOL    HW1 1586   0.972   1.072   2.457  2.4593 -1.4506  2.8714
  529SOL    HW2 1587   0.840   1.155   2.384  0.8814 -0.0180 -0.1352
  530SOL     OW 1588   1.804   1.013   2.429  0.2912 -0.9346  0.0965
  530SOL    HW1 1589   1.811   0.972   2.340 -1.9995 -1.4907  1.3060
  530SOL    HW2 1590   1.824   0.945   2.502  1.4785  0.0012  5.6176
  531SOL     OW 1591   0.018   0.904   0.096  0.4640 -0.1097 -0.3435
  531SOL    HW1 1592   3.069   0.944   0.044 -1.9848  2.4488  2.8326
  531SOL    HW2 1593   0.060   0.979   0.154  1.8760  0.9016 -1.8313
  532SOL     OW 1594   1.840   1.440   0.988 -0.4849 -0.0634  0.5607
  532SOL    HW1 1595   1.760   1.381   0.999  2.8970  3.8181 -0.5611
  532SOL    HW2 1596   1.810   1.534   0.951 -1.9142 -2.8165  1.6222
  533SOL     OW 1597   0.293   0.769   2.427  0.5244 -0.2294  0.0615
  533SOL    HW1 1598   0.309   0.844   2.496  0.5355 -2.2244  0.9956
  533SOL    HW2 1599   0.237   0.701   2.472 -1.2808 -1.3499 -0.8434
  534SOL     OW 1600   0.957   0.183   2.636 -0.0146 -0.1658 -0.1967
  534SOL    HW1 1601   1.044   0.189   2.685 -0.1476  0.4735  0.3746
  534SOL    HW2 1602   0.905   0.102   2.668  0.6161  0.4910  2.3903
  535SOL     OW 1603   0.513   0.361   2.968 -0.0720 -0.1411  0.5362
  535SOL    HW1 1604   0.524   0.423   3.042  0.9797  0.2795 -2.0236
  535SOL    HW2 1605   0.601   0.355   2.918 -1.8142 -0.3131  2.1685
  536SOL     OW 1606   0.567   0.866   2.377  0.1457 -0.4677 -1.0540
  536SOL    HW1 1607   0.480   0.812   2.392 -0.2041 -0.7382 -2.6342
  536SOL    HW2 1608   0.567   0.886   2.272 -0.4656  0.8019 -0.5185
  537SOL     OW 1609   1.487   3.055   1.450  0.2922 -0.3201  0.1459
  537SOL    HW1 1610   1.443   3.083   1.362  1.4328  2.4644 -2.0314
  537SOL    HW2 1611   1.421   2.990   1.494 -1.8150 -0.1718  0.8682
  538SOL     OW 1612   0.670   2.068   0.098 -0.4700 -0.6368  0.6772
  538SOL    HW1 1613   0.661   2.162   0.143 -1.3681  1.8649  0.9818
  538SOL    HW2 1614   0.582   2.016   0.105 -0.8494  1.3260  0.6231
  539SOL     OW 1615   2.581   1.184   1.813  0.6397 -0.6276 -0.0513
  539SOL    HW1 1616   2.481   1.221   1.799 -3.2768 -0.0617  1.6390
  539SOL    HW2 1617   2.617   1.220   1.904  0.8902  2.3835  0.5186
  540SOL     OW 1618   2.005   1.887   1.549  0.5371  0.4365 -0.5404
  540SOL    HW1 1619   1.919   1.839   1.531 -0.2694  1.1347  0.6182
  540SOL    HW2 1620   1.999   1.927   1.640 -0.7101 -0.7016 -0.1649
  541SOL     OW 1621   0.696   1.764   1.680 -0.2277  0.2962  0.0214
  541SOL    HW1 1622   0.745   1.689   1.731 -0.5529  1.4683  0.0340
  541SOL    HW2 1623   0.721   1.761   1.584 -0.0696  0.7459  0.0138
  542SOL     OW 1624   1.804   0.858   2.213  0.1727 -0.1479  0.1853
  542SOL    HW1 1625   1.822   0.909   2.125 -2.1969 -0.0586 -4.4018
  542SOL    HW2 1626   1.887   0.802   2.239  2.1458  0.9263  0.5169
  543SOL     OW 1627   0.997   0.528   0.770 -0.5040  0.0846  0.1356
  543SOL    HW1 1628   0.928   0.604   0.779  1.6318  0.8721  0.7459
  543SOL    HW2 1629   0.986   0.473   0.682  0.8930 -2.1043 -3.1261
  544SOL     OW 1630   2.122   1.919   2.497  0.4362 -0.3139 -0.0104
  544SOL    HW1 1631   2.149   1.905   2.403 -2.1275  1.1276 -0.9399
  544SOL    HW2 1632   2.202   1.910   2.560 -1.2922  1.9148  0.2547
  545SOL     OW 1633   1.731   1.773   1.525 -0.8827  0.1214  0.1787
  545SOL    HW1 1634   1.655   1.811   1.467 -1.1759 -1.6981  2.4788
  545SOL    HW2 1635   1.726   1.674   1.530 -0.5579  4.2573  1.2009
  546SOL     OW 1636   0.239   0.342   2.916  0.1151 -0.7580 -0.3277
  546SOL    HW1 1637   0.225   0.432   2.865  1.3813  3.2033 -2.2185
  546SOL    HW2 1638   0.340   0.339   2.930  1.2880 -0.2561 -0.4257
  547SOL     OW 1639   2.126   0.893   0.060 -0.1343  0.0329  0.7752
  547SOL    HW1 1640   2.033   0.891   0.103 -1.3887 -0.4741 -2.2342
  547SOL    HW2 1641   2.175   0.809   0.077 -0.1383 -1.6955 -2.1728
  548SOL     OW 1642   2.214   1.954   2.233 -0.1462  0.3262  0.2574
  548SOL    HW1 1643   2.201   2.012   2.148 -1.3257  1.0120 -2.3065
  548SOL    HW2 1644   2.313   1.940   2.244 -2.4359 -2.8911  0.1336
  549SOL     OW 1645   2.177   0.248   0.842  0.4874 -0.2875  0.1535
  549SOL    HW1 1646   2.182   0.147   0.864  1.7975  0.5620 -0.8262
  549SOL    HW2 1647   2.264   0.270   0.791  0.6233  0.0466 -0.1115
  550SOL     OW 1648   2.326   1.930   0.435 -0.4136 -0.0201 -0.3807
  550SOL    HW1 1649   2.305   2.021   0.393 -2.4595  0.8630 -0.1281
  550SOL    HW2 1650   2.349   1.856   0.366 -0.2051  1.0501 -1.0418
  551SOL     OW 1651   1.303   0.304   1.984  0.7585 -0.2207  0.0128
  551SOL    HW1 1652   1.372   0.344   2.047  2.9684  0.3579  0.2557
  551SOL    HW2 1653   1.220   0.269   2.034 -0.5308 -2.7846  0.0733
  552SOL     OW 1654   2.982   2.400   2.439  0.4969 -0.0902  0.1377
  552SOL    HW1 1655   3.054   2.443   2.380 -1.0259  1.6535 -1.1154
  552SOL    HW2 1656   2.973   2.456   2.524 -0.7507  3.3282 -0.4940
  553SOL     OW 1657   0.725   3.117   0.117 -0.1621 -0.0062  0.3774
  553SOL    HW1 1658   0.807   0.002   0.181  0.9605 -1.1972  1.4436
  553SOL    HW2 1659   0.640   0.003   0.166  2.0122  1.0100  1.6125
  554SOL     OW 1660   1.885   2.346   1.790 -0.4361  0.9077  0.1925
  554SOL    HW1 1661   1.911   2.368   1.695  0.0844 -1.4460 -0.0142
  554SOL    HW2 1662   1.881   2.428   1.851  1.4615  0.9138 -0.2470
  555SOL     OW 1663   1.396   2.246   1.787  0.5044  0.2484 -0.2603
  555SOL    HW1 1664   1.364   2.335   1.822  0.8889 -1.9094 -0.9349
  555SOL    HW2 1665   1.440   2.195   1.863 -2.0963  0.9222  2.8117
  556SOL     OW 1666   1.576   1.978   0.689  0.0999 -0.2326  0.0058
  556SOL    HW1 1667   1.521   1.990   0.603  3.1339 -2.0864 -1.6205
  556SOL    HW2 1668   1.530   2.036   0.761 -2.6801 -1.5496  1.4986
  557SOL     OW 1669   1.613   2.298   2.093 -0.6472  0.9058 -0.6183
  557SOL    HW1 1670   1.590   2.208   2.045 -1.7530 -2.2515 -0.1692
  557SOL    HW2 1671   1.612   2.288   2.194  0.3703  0.8532 -0.5474
  558SOL     OW 1672   0.158   0.454   1.826  0.5435  0.6569  0.0242
  558SOL    HW1 1673   0.208   0.453   1.914  0.9029 -1.4853  2.0446
  558SOL    HW2 1674   0.103   0.368   1.808  0.2791  1.3888 -2.7705
  559SOL     OW 1675   2.574   2.948   1.385  0.5289  0.2086 -0.3124
  559SOL    HW1 1676   2.577   2.933   1.285 -2.7167  1.0348 -0.1986
  559SOL    HW2 1677   2.638   3.022   1.400 -2.5398 -0.0762  2.0221
  560SOL     OW 1678   0.881   2.444   0.330 -0.3728  0.1703 -0.2775
  560SOL    HW1 1679   0.844   2.378   0.258  0.3497 -1.2472 -0.3314
  560SOL    HW2 1680   0.804   2.454   0.396 -0.7538  3.0453 -0.2246
  561SOL     OW 1681   1.055   0.735   0.354  0.0486 -0.5406 -0.5683
  561SOL    HW1 1682   0.987   0.725   0.279 -2.5037 -0.2448  1.5080
  561SOL    HW2 1683   1.042   0.828   0.403  0.4840  3.1340  1.9179
  562SOL     OW 1684   0.859   0.774   2.698 -0.2783 -0.8308  0.4918
  562SOL    HW1 1685   0.921   0.741   2.621 -0.9000 -1.9641 -2.6773
  562SOL    HW2 1686   0.826   0.690   2.747 -1.6248 -0.9905 -0.0833
  563SOL     OW 1687   1.767   2.352   2.571 -0.3237 -0.4472 -0.7569
  563SOL    HW1 1688   1.840   2.281   2.562  1.3336 -2.7579 -0.4840
  563SOL    HW2 1689   1.808   2.446   2.552  1.7867  2.4274 -0.6698
  564SOL     OW 1690   0.110   1.139   0.216 -0.4172 -0.0235 -0.4477
  564SOL    HW1 1691   0.193   1.168   0.165  3.9760  1.1757  3.0898
  564SOL    HW2 1692   0.049   1.220   0.230  1.3055  0.3032 -1.7255
  565SOL     OW 1693   1.322   0.073   2.709  0.1019  0.0362  0.1922
  565SOL    HW1 1694   1.372   0.100   2.620  1.4911  2.1648 -1.0767
  565SOL    HW2 1695   1.391   0.075   2.783 -1.5365 -3.4354 -1.7693
  566SOL     OW 1696   1.901   3.112   2.433 -0.0436 -0.8118 -0.2691
  566SOL    HW1 1697   1.960   3.031   2.461 -3.1575 -0.1914 -0.4178
  566SOL    HW2 1698   1.826   3.079   2.374 -0.5914 -2.7077  2.7518
  567SOL     OW 1699   2.478   1.198   0.903 -0.2257  0.4824  0.6262
  567SOL    HW1 1700   2.485   1.234   0.999 -3.3577 -1.5035 -2.1402
  567SOL    HW2 1701   2.384   1.177   0.886  3.3510 -0.5651  0.3637
  568SOL     OW 1702   1.969   1.856   0.268  0.2723  0.3505  0.1182
  568SOL    HW1 1703   1.898   1.882   0.193 -0.8914 -0.0502 -1.8398
  568SOL    HW2 1704   1.971   1.756   0.280 -0.9513  2.6898 -1.0440
  569SOL     OW 1705   2.183   1.683   2.870 -0.3395  0.2445 -0.4627
  569SOL    HW1 1706   2.264   1.652   2.919 -2.1884  1.6173 -3.8723
  569SOL    HW2 1707   2.153   1.605   2.808  2.6110 -1.6361 -0.6356
  570SOL     OW 1708   3.025   2.573   1.589  0.1526 -0.6382  0.0448
  570SOL    HW1 1709   3.053   2.534   1.679  0.2877  3.1709 -1.5491
  570SOL    HW2 1710   2.929   2.563   1.567  1.4707 -0.8535 -1.1663
  571SOL     OW 1711   0.108   0.359   2.418  0.2854 -0.3202  0.2180
  571SOL    HW1 1712   0.200   0.324   2.385  1.8527 -0.6110  1.5129
  571SOL    HW2 1713   0.085   0.443   2.368 -0.3082 -2.5821  1.0730
  572SOL     OW 1714   1.188   1.507   1.003 -0.2031 -0.7282 -0.0366
  572SOL    HW1 1715   1.237   1.598   0.983 -0.0631  0.2539  0.2889
  572SOL    HW2 1716   1.182   1.493   1.101 -0.5366 -0.2317  1.1386
  573SOL     OW 1717   1.048   0.259   2.924  0.9664 -0.2567  0.2000
  573SOL    HW1 1718   1.086   0.201   3.003  1.8877  0.3179  3.7191
  573SOL    HW2 1719   1.072   0.362   2.922  2.6870  2.0030 -0.4431
  574SOL     OW 1720   0.673   0.350   0.643 -0.3964 -0.0061 -0.5647
  574SOL    HW1 1721   0.624   0.315   0.561 -0.3721  2.1166  2.3532
  574SOL    HW2 1722   0.605   0.358   0.720  1.4174  2.2060  0.0221
  575SOL     OW 1723   0.053   1.304   1.540  0.4669 -0.2903 -0.1060
  575SOL    HW1 1724   0.146   1.300   1.590  2.3802 -2.5128  1.2598
  575SOL    HW2 1725   0.066   1.358   1.451  4.2731  0.5167 -0.9776
  576SOL     OW 1726   2.372   0.317   1.786 -0.4262 -0.3959 -0.5977
  576SOL    HW1 1727   2.319   0.389   1.841 -1.1862  0.5860  0.7777
  576SOL    HW2 1728   2.344   0.226   1.815 -0.8435  2.1967 -2.5766
  577SOL     OW 1729   2.863   1.436   2.080 -1.0069 -0.2238  0.0903
  577SOL    HW1 1730   2.915   1.351   2.114 -0.6157 -1.0424  0.1197
  577SOL    HW2 1731   2.876   1.439   1.985 -1.7823 -0.4540  3.0500
  578SOL     OW 1732   1.512   2.805   2.471  0.1123  0.4187 -0.1268
  578SOL    HW1 1733   1.460   2.727   2.433 -2.1458 -1.8812  0.2436
  578SOL    HW2 1734   1.546   2.870   2.394  2.3399 -0.1235 -1.9755
  579SOL     OW 1735   2.158   2.149   2.054  0.5510  0.0396 -0.0244
  579SOL    HW1 1736   2.060   2.147   2.048  3.3540 -1.4787 -1.4192
  579SOL    HW2 1737   2.197   2.103   1.971 -2.0361  0.3667 -0.4249
  580SOL     OW 1738   1.863   1.510   2.083 -0.1840  0.5059  0.4964
  580SOL    HW1 1739   1.801   1.535   2.006  1.1456  3.5204 -1.1495
  580SOL    HW2 1740   1.931   1.437   2.052 -0.7768 -2.3205 -0.6029
  581SOL     OW 1741   1.403   1.005   2.234 -0.1945  0.1656  0.2238
  581SOL    HW1 1742   1.480   1.051   2.289  0.7343  0.1326 -0.2540
  581SOL    HW2 1743   1.363   0.937   2.301  1.8941  0.5163 -1.4709
  582SOL     OW 1744   0.178   2.223   1.763  0.2598 -0.7426  0.0804
  582SOL    HW1 1745   0.261   2.280   1.741 -0.0310  0.1116  0.6289
  582SOL    HW2 1746   0.214   2.167   1.838 -1.4305 -0.9271 -0.2780
  583SOL     OW 1747   1.595   1.296   1.041 -0.2597  0.0138  0.5885
  583SOL    HW1 1748   1.522   1.248   0.981  0.0704 -1.5271  0.5648
  583SOL    HW2 1749   1.628   1.241   1.120 -1.9191 -0.1080 -2.3196
  584SOL     OW 1750   1.141   2.261   0.682  0.2974 -0.6342 -0.1515
  584SOL    HW1 1751   1.114   2.323   0.606 -0.9872 -0.3135 -0.4252
  584SOL    HW2 1752   1.097   2.287   0.776 -2.9018  0.7737 -0.4001
  585SOL     OW 1753   0.057   2.532   3.081  0.4552 -0.2402  0.6998
  585SOL    HW1 1754   0.005   2.476   0.021  1.2629 -0.1101  0.3024
  585SOL    HW2 1755   0.074   2.623   3.125 -1.7036 -0.8392  0.4559
  586SOL     OW 1756   2.734   1.444   0.341 -0.4952  0.1112 -0.0379
  586SOL    HW1 1757   2.762   1.388   0.259 -1.6683 -0.9213 -0.1168
  586SOL    HW2 1758   2.642   1.485   0.319  1.8809 -2.1811 -0.9249
  587SOL     OW 1759   1.088   1.466   2.812 -0.0382 -0.2774  0.5063
  587SOL    HW1 1760   1.133   1.382   2.843  1.6563  1.8419 -1.0815
  587SOL    HW2 1761   1.111   1.538   2.876 -0.3789 -0.9498 -2.3057
  588SOL     OW 1762   0.189   0.312   0.649 -0.9407  0.1478 -0.6385
  588SOL    HW1 1763   0.265   0.245   0.652 -0.6605 -0.3446  0.5721
  588SOL    HW2 1764   0.152   0.318   0.743 -1.4680 -0.1181 -0.8142
  589SOL     OW 1765   1.662   0.407   0.662 -0.0913  0.5761 -0.5552
  589SOL    HW1 1766   1.573   0.447   0.641  2.0471  1.5547 -0.9438
  589SOL    HW2 1767   1.732   0.483   0.680  2.8635  4.7563 -1.9124
  590SOL     OW 1768   2.382   2.353   0.296  0.6116  0.1638 -0.5164
  590SOL    HW1 1769   2.475   2.336   0.337  1.8434 -1.7036  0.2628
  590SOL    HW2 1770   2.337   2.425   0.348  0.5215 -1.9397 -0.2636
  591SOL     OW 1771   0.323   2.525   1.931  0.6019  0.7312  0.2523
  591SOL    HW1 1772   0.355   2.458   1.863 -1.2598  0.3993  2.5271
  591SOL    HW2 1773   0.265   2.603   1.887 -1.2005  2.1412 -3.3104
  592SOL     OW 1774   2.935   2.062   2.181  0.0988  0.1949  0.2253
  592SOL    HW1 1775   2.886   1.998   2.116  0.9638  0.5077 -0.7894
  592SOL    HW2 1776   3.026   2.090   2.146 -0.6385  2.9731 -0.6808
  593SOL     OW 1777   1.563   1.470   1.501 -0.0854  0.2985 -0.1669
  593SOL    HW1 1778   1.664   1.482   1.510 -1.2964 -0.3677 -0.7209
  593SOL    HW2 1779   1.543   1.488   1.404  2.0405 -1.3608  0.4775
  594SOL     OW 1780   0.838   1.274   2.955 -0.5986  0.9502 -0.1229
  594SOL    HW1 1781   0.742   1.271   2.922 -1.1316  0.2815  2.3826
  594SOL    HW2 1782   0.845   1.351   3.024  0.8731  2.7818  2.1824
  595SOL     OW 1783   1.494   0.819   0.860  0.2599 -0.1788 -0.6279
  595SOL    HW1 1784   1.434   0.747   0.908  0.9767  3.6302  1.0793
  595SOL    HW2 1785   1.431   0.865   0.792 -0.9973 -0.9672  0.5630
  596SOL     OW 1786   0.160   0.889   1.084  0.0851  0.1483  0.3534
  596SOL    HW1 1787   0.085   0.849   1.149 -0.4363 -0.5675 -0.8219
  596SOL    HW2 1788   0.224   0.945   1.142  0.1965  1.2457 -0.6692
  597SOL     OW 1789   0.784   2.174   1.985  0.1416  0.2129 -0.5329
  597SOL    HW1 1790   0.733   2.259   1.963 -1.6671 -0.5590 -0.5255
  597SOL    HW2 1791   0.774   2.101   1.911 -1.8973  3.0711 -1.2271
  598SOL     OW 1792   1.945   2.498   2.240 -0.4343 -0.6356 -0.2282
  598SOL    HW1 1793   1.846   2.495   2.247  0.9347 -1.5892 -0.7828
  598SOL    HW2 1794   1.995   2.425   2.288  0.8255 -1.4597  0.1674
  599SOL     OW 1795   0.994   1.021   0.356 -0.2125  0.3636  0.4361
  599SOL    HW1 1796   1.052   1.087   0.403 -5.8960 -2.4254 -1.6140
  599SOL    HW2 1797   0.980   1.043   0.254 -1.2460 -0.8257  2.5750
  600SOL     OW 1798   1.383   0.678   0.109 -0.5625 -0.2803  0.1540
  600SOL    HW1 1799   1.290   0.672   0.063 -3.2001  3.1495 -1.3171
  600SOL    HW2 1800   1.421   0.585   0.137  1.5613  0.8805 -1.9416
  601SOL     OW 1801   0.924   0.514   1.561  1.1907 -0.6984 -0.5429
  601SOL    HW1 1802   0.911   0.507   1.662  0.4903  2.8564  1.3441
  601SOL    HW2 1803   0.845   0.473   1.511  0.6275 -1.8752  0.7228
  602SOL     OW 1804   0.508   2.271   0.846 -0.3282 -0.6819 -0.1741
  602SOL    HW1 1805   0.417   2.245   0.805 -0.8871 -0.5351  0.8526
  602SOL    HW2 1806   0.498   2.360   0.898 -0.8693 -0.9915  0.2829
  603SOL     OW 1807   0.780   2.329   2.442 -0.1817 -0.1581  0.3836
  603SOL    HW1 1808   0.722   2.325   2.353 -2.9699  0.9154  0.6016
  603SOL    HW2 1809   0.729   2.273   2.508 -0.2341  3.0042  0.5055
  604SOL     OW 1810   0.308   2.193   0.280 -0.0447  0.2931 -0.6242
  604SOL    HW1 1811   0.345   2.224   0.373  1.6478 -1.0233  0.5244
  604SOL    HW2 1812   0.364   2.120   0.235 -0.8624 -0.0239  1.0414
  605SOL     OW 1813   2.052   1.413   1.826 -0.4563 -0.1288  0.1542
  605SOL    HW1 1814   2.046   1.324   1.776  0.9057 -0.7075 -1.0914
  605SOL    HW2 1815   2.019   1.493   1.772 -1.2282  1.0338  0.9863
  606SOL     OW 1816   1.018   1.105   2.831  0.1989 -0.0630  0.1940
  606SOL    HW1 1817   0.947   1.160   2.878  1.9521 -1.4091 -0.3373
  606SOL    HW2 1818   1.111   1.148   2.833  0.7035  0.7818  3.5371
  607SOL     OW 1819   1.291   1.061   1.136  0.6712 -0.2968 -0.2168
  607SOL    HW1 1820   1.289   1.117   1.221  0.0491  1.1806 -1.1343
  607SOL    HW2 1821   1.306   1.121   1.057  1.0870  0.4210  1.2489
  608SOL     OW 1822   2.873   2.309   2.084  0.3483  0.1921 -0.6788
  608SOL    HW1 1823   2.823   2.277   2.002  0.3572 -0.5597  0.2407
  608SOL    HW2 1824   2.894   2.227   2.140  0.0670 -3.2718  0.7738
  609SOL     OW 1825   2.192   3.079   0.381  0.3052  0.1353 -0.0899
  609SOL    HW1 1826   2.246   3.081   0.291  0.4980 -1.5725 -0.9774
  609SOL    HW2 1827   2.096   3.048   0.354 -0.7671 -0.3262 -2.9406
  610SOL     OW 1828   0.185   2.234   1.343  0.7820 -0.0666 -0.8646
  610SOL    HW1 1829   0.217   2.331   1.324 -1.6116  1.8764  2.3857
  610SOL    HW2 1830   0.186   2.179   1.258  0.5727 -0.4729 -0.3738
  611SOL     OW 1831   1.545   2.272   0.458 -0.2781 -0.2109 -0.1620
  611SOL    HW1 1832   1.641   2.248   0.450 -1.1705  2.3301  1.2450
  611SOL    HW2 1833   1.529   2.309   0.551 -1.8778  2.9504 -0.1365
  612SOL     OW 1834   0.622   3.127   1.834  0.2917 -0.5304  0.3994
  612SOL    HW1 1835   0.697   0.014   1.768  1.8805 -2.5126  3.1321
  612SOL    HW2 1836   0.609   0.077   1.895  1.5009  2.3092 -0.5238
  613SOL     OW 1837   3.100   1.699   0.501 -0.0661  0.0169 -0.0740
  613SOL    HW1 1838   3.070   1.736   0.589  1.1537  2.0480 -1.5528
  613SOL    HW2 1839   3.036   1.722   0.424  0.3443  0.0758 -0.4741
  614SOL     OW 1840   1.796   0.503   2.002  0.2127 -0.1442  0.1590
  614SOL    HW1 1841   1.795   0.432   2.073 -0.8567 -1.5703  1.7252
  614SOL    HW2 1842   1.881   0.557   1.979  0.8907  0.0109 -0.9704
  615SOL     OW 1843   0.839   1.322   1.179  0.1073 -0.5501 -0.0855
  615SOL    HW1 1844   0.793   1.376   1.254  0.8850 -0.6698  1.3582
  615SOL    HW2 1845   0.823   1.371   1.091 -0.8319  0.7801  0.3261
  616SOL     OW 1846   1.637   1.792   0.028  0.5398  0.2478  0.1721
  616SOL    HW1 1847   1.551   1.853   0.024  0.6349 -0.5675  2.2608
  616SOL    HW2 1848   1.718   1.850   3.129  1.1364  1.6377 -1.2614
  617SOL     OW 1849   1.962   2.971   0.271 -0.1274  0.3147 -0.1612
  617SOL    HW1 1850   1.992   2.922   0.185 -1.8366 -0.5552 -2.5444
  617SOL    HW2 1851   1.896   2.916   0.327  1.9057 -1.6589  1.7202
  618SOL     OW 1852   0.620   0.936   2.642 -0.2055 -0.3260  0.5428
  618SOL    HW1 1853   0.599   0.913   2.545  0.9144 -1.0116 -0.0910
  618SOL    HW2 1854   0.718   0.912   2.656  1.0345 -0.3827 -1.2724
  619SOL     OW 1855   2.804   1.625   1.015  0.3225  0.1166 -0.6698
  619SOL    HW1 1856   2.853   1.567   0.949 -1.1353 -0.8232  1.5215
  619SOL    HW2 1857   2.724   1.670   0.975 -1.6265  0.6086  1.5310
  620SOL     OW 1858   2.100   2.939   2.893 -0.7604 -0.1697  0.1643
  620SOL    HW1 1859   2.138   2.927   2.802 -2.0224  1.3204  3.4361
  620SOL    HW2 1860   2.002   2.908   2.895 -2.0280 -0.9507  3.3958
  621SOL     OW 1861   2.377   1.620   3.039 -0.1602  0.2521  0.2514
  621SOL    HW1 1862   2.349   1.533   3.078  0.1581 -2.3992  0.7490
  621SOL    HW2 1863   2.416   1.685   3.106  0.5301 -2.8298 -0.1894
  622SOL     OW 1864   1.702   3.063   2.244  0.7675 -0.8331  0.3643
  622SOL    HW1 1865   1.695   3.093   2.143 -1.0306 -1.7908 -0.7571
  622SOL    HW2 1866   1.604   3.042   2.269 -1.2138  2.9939 -0.8540
  623SOL     OW 1867   1.257   1.973   0.818 -0.2572 -0.3059 -0.0525
  623SOL    HW1 1868   1.169   1.996   0.777  2.2372 -1.6102  1.5221
  623SOL    HW2 1869   1.312   2.057   0.837 -0.0246 -0.3731  0.0531
  624SOL     OW 1870   0.168   3.085   0.037  0.7508  0.1420  0.6938
  624SOL    HW1 1871   0.235   3.049   3.097 -1.6992  0.4830  1.6214
  624SOL    HW2 1872   0.157   0.053   0.027 -2.4770 -0.3201  0.8988
  625SOL     OW 1873   0.993   1.696   0.712 -0.7140 -0.0700  0.2099
  625SOL    HW1 1874   1.006   1.637   0.799  1.5139 -0.7752 -0.7565
  625SOL    HW2 1875   0.912   1.760   0.710 -0.7337  1.3271 -0.2280
  626SOL     OW 1876   0.098   2.806   0.043 -0.1668 -0.6779  0.0720
  626SOL    HW1 1877   0.120   2.910   0.032 -0.1415  1.1037 -2.5678
  626SOL    HW2 1878   0.188   2.767   0.070  0.8977  1.1030 -0.8324
  627SOL     OW 1879   1.337   1.792   2.756  0.3144  0.5038 -0.0740
  627SOL    HW1 1880   1.301   1.857   2.687  0.9451  0.0632 -0.5389
  627SOL    HW2 1881   1.275   1.796   2.837  1.0527  0.8564 -0.9299
  628SOL     OW 1882   0.155   2.947   2.815  0.3253 -0.3133  0.5454
  628SOL    HW1 1883   0.193   2.970   2.908  0.9700  2.7161  1.6759
  628SOL    HW2 1884   0.135   2.847   2.813  1.2960 -0.6946  0.3990
  629SOL     OW 1885   0.478   2.788   2.400 -0.5850  0.1008 -0.0320
  629SOL    HW1 1886   0.553   2.833   2.345 -0.4276  3.5124 -1.9042
  629SOL    HW2 1887   0.389   2.814   2.355 -2.9408 -0.8502 -0.9415
  630SOL     OW 1888   1.298   1.220   1.748 -0.1413  0.0261 -0.2417
  630SOL    HW1 1889   1.384   1.166   1.757  3.4081 -0.8297 -1.5133
  630SOL    HW2 1890   1.220   1.155   1.724  2.9785 -0.7655 -0.1787
  631SOL     OW 1891   2.308   1.148   0.564  0.1092  0.0729  0.3991
  631SOL    HW1 1892   2.346   1.240   0.541 -0.5680  0.4377 -1.1049
  631SOL    HW2 1893   2.377   1.081   0.526  1.1930 -3.5657  0.5728
  632SOL     OW 1894   2.500   0.599   2.122  0.0265 -0.3266 -0.4844
  632SOL    HW1 1895   2.482   0.688   2.172  1.0536  0.3330  0.6195
  632SOL    HW2 1896   2.520   0.521   2.187 -0.7854 -2.4654  0.6048
  633SOL     OW 1897   0.925   1.937   0.146 -0.8902  0.8074 -0.6383
  633SOL    HW1 1898   0.830   1.979   0.125  0.1276  0.9272 -1.1582
  633SOL    HW2 1899   0.968   1.979   0.226 -0.6592 -1.6025  0.6025
  634SOL     OW 1900   1.685   2.754   2.682  0.2972  0.1389 -0.3775
  634SOL    HW1 1901   1.612   2.788   2.619 -0.8073  1.1156  0.5791
  634SOL    HW2 1902   1.749   2.708   2.620 -1.5800  1.1363  3.5779
  635SOL     OW 1903   2.215   0.338   0.125 -0.6646 -0.5079 -0.6924
  635SOL    HW1 1904   2.202   0.276   0.045 -2.8085 -0.3660  1.0239
  635SOL    HW2 1905   2.149   0.316   0.197 -0.8111 -1.1690  0.3240
  636SOL     OW 1906   0.804   1.374   0.737 -0.4221  0.5272 -0.3186
  636SOL    HW1 1907   0.721   1.374   0.681  0.8130 -0.6807  0.7015
  636SOL    HW2 1908   0.869   1.310   0.694 -2.1794  0.7656  0.1630
  637SOL     OW 1909   0.119   2.144   0.525  0.1320  0.5970  0.3432
  637SOL    HW1 1910   0.152   2.128   0.428  1.9306  1.8282  2.0359
  637SOL    HW2 1911   0.021   2.139   0.533  0.0575  1.4558  0.0418
  638SOL     OW 1912   0.710   2.668   2.733  0.3588 -0.1893  0.1189
  638SOL    HW1 1913   0.801   2.674   2.690  0.1763  2.3906 -0.4123
  638SOL    HW2 1914   0.668   2.763   2.722 -2.3354  0.1863  1.2941
  639SOL     OW 1915   1.371   1.931   0.011  0.5545  0.3835 -0.1920
  639SOL    HW1 1916   1.295   1.886   3.087  0.0146 -1.6920 -2.2333
  639SOL    HW2 1917   1.352   1.917   0.113  2.6571  0.9811  0.6377
  640SOL     OW 1918   1.832   3.107   0.945  0.4752  0.0229 -0.8095
  640SOL    HW1 1919   1.742   3.085   0.983 -1.6961  0.8672 -0.1397
  640SOL    HW2 1920   1.883   3.017   0.955 -1.0988 -0.7502  0.1964
  641SOL     OW 1921   0.010   2.839   0.393  0.2831  0.3675  0.6051
  641SOL    HW1 1922   3.059   2.821   0.332  0.8092  1.6175 -0.9629
  641SOL    HW2 1923   0.049   2.930   0.369  0.5069 -0.0645  0.8382
  642SOL     OW 1924   1.094   3.069   1.401 -0.3409 -0.2050  0.1626
  642SOL    HW1 1925   0.995   3.084   1.397  6.1768  2.2502 -1.8698
  642SOL    HW2 1926   1.133   0.037   1.399  0.3438  0.0523 -1.7425
  643SOL     OW 1927   0.415   1.837   2.075 -0.0818 -0.7820  0.3248
  643SOL    HW1 1928   0.495   1.846   2.138 -1.5039  0.9125 -2.1972
  643SOL    HW2 1929   0.412   1.905   1.996  1.5267  0.6710 -4.2062
  644SOL     OW 1930   0.845   2.707   0.205 -0.1437  0.1958 -0.0148
  644SOL    HW1 1931   0.866   2.623   0.261  0.3429 -0.2365  1.5457
  644SOL    HW2 1932   0.755   2.700   0.157 -0.1608  0.5826 -0.2855
  645SOL     OW 1933   1.500   2.184   0.024 -0.1185  0.3753 -0.0179
  645SOL    HW1 1934   1.445   2.255   3.115  2.4820 -5.4119  2.4995
  645SOL    HW2 1935   1.446   2.097   0.029 -1.5080  0.8858 -1.8223
  646SOL     OW 1936   0.567   1.271   2.860  0.2128 -0.2923  0.2625
  646SOL    HW1 1937   0.578   1.365   2.825  0.7627 -0.4908  0.0331
  646SOL    HW2 1938   0.535   1.211   2.781  1.6700 -1.1389 -0.4693
  647SOL     OW 1939   0.793   0.125   0.762 -0.2724 -0.3342 -0.1436
  647SOL    HW1 1940   0.773   0.193   0.690  2.0289 -0.4835  3.0052
  647SOL    HW2 1941   0.858   0.169   0.828  1.5679  0.8156  2.4134
  648SOL     OW 1942   1.989   0.370   1.638 -0.3164  0.0179  0.4657
  648SOL    HW1 1943   1.908   0.424   1.607 -1.7861 -1.3448  0.5150
  648SOL    HW2 1944   2.071   0.427   1.661 -0.9797 -1.8119  0.5403
  649SOL     OW 1945   1.215   1.950   2.562  0.1630 -0.6430 -0.5185
  649SOL    HW1 1946   1.145   2.009   2.608  1.9246  0.8853 -0.6381
  649SOL    HW2 1947   1.171   1.872   2.508  2.6745 -0.6535  1.2580
  650SOL     OW 1948   2.673   1.927   1.759 -0.3798  0.3136 -0.0932
  650SOL    HW1 1949   2.590   1.913   1.704  1.3455 -0.2431  0.1058
  650SOL    HW2 1950   2.708   1.837   1.787 -0.2406  2.1179  0.9779
  651SOL     OW 1951   1.145   0.146   0.033 -0.4201 -0.2025  0.5593
  651SOL    HW1 1952   1.194   0.056   0.042  0.2872 -1.5162  0.3941
  651SOL    HW2 1953   1.197   0.224   0.078  2.4327  1.4332 -1.7499
  652SOL     OW 1954   2.920   1.683   0.014  0.4038 -0.0144  1.0046
  652SOL    HW1 1955   2.833   1.668   3.092  0.3672  0.7823 -0.5695
  652SOL    HW2 1956   2.963   1.770   3.112 -2.6457  0.9163 -1.0610
  653SOL     OW 1957   0.105   0.143   0.983 -1.1452 -0.3267 -0.6428
  653SOL    HW1 1958   0.016   0.090   0.994 -1.4719 -1.1879  2.3368
  653SOL    HW2 1959   0.086   0.231   0.941  1.4646  0.0061 -1.1984
  654SOL     OW 1960   2.277   0.158   2.594  0.5974  0.1362  0.2747
  654SOL    HW1 1961   2.215   0.142   2.511 -0.9890  0.8050 -2.6071
  654SOL    HW2 1962   2.329   0.074   2.618 -0.2136 -1.3364 -0.4784
  655SOL     OW 1963   0.512   2.515   0.959  0.3375  0.1987 -0.6666
  655SOL    HW1 1964   0.420   2.555   0.979  2.3178  0.2619 -0.7643
  655SOL    HW2 1965   0.551   2.479   1.048 -0.1058  1.1301 -0.8997
  656SOL     OW 1966   0.275   2.891   2.268 -0.3852  0.1144 -0.1734
  656SOL    HW1 1967   0.267   2.967   2.199 -2.2911 -0.5730  1.1398
  656SOL    HW2 1968   0.183   2.860   2.300 -0.8991 -2.4915  0.6432
  657SOL     OW 1969   2.391   0.537   2.469 -0.9663 -0.2580 -0.2701
  657SOL    HW1 1970   2.325   0.513   2.396  0.0218  1.2572 -0.7885
  657SOL    HW2 1971   2.424   0.452   2.520 -0.3560 -2.3522  0.0655
  658SOL     OW 1972   2.297   1.756   1.213  0.5111 -0.1938 -0.0713
  658SOL    HW1 1973   2.199   1.748   1.182  0.0666 -0.4911  0.6641
  658SOL    HW2 1974   2.305   1.793   1.308 -2.8118 -0.3291 -1.8741
  659SOL     OW 1975   2.228   0.147   3.045  0.1019 -0.0748 -1.1973
  659SOL    HW1 1976   2.332   0.169   3.047  2.4860  2.2006 -0.8851
  659SOL    HW2 1977   2.207   0.059   3.093 -1.7020 -0.1944  1.3284
  660SOL     OW 1978   1.322   1.523   3.040 -0.0778 -0.1971  0.6046
  660SOL    HW1 1979   1.361   1.616   3.029 -1.7257 -0.1369  0.0496
  660SOL    HW2 1980   1.385   1.452   2.999  0.9742 -0.2825  2.0670
  661SOL     OW 1981   2.395   2.463   1.033 -0.5550  0.1161 -0.4222
  661SOL    HW1 1982   2.486   2.439   1.010 -1.6641  3.1530 -0.9591
  661SOL    HW2 1983   2.390   2.469   1.134 -3.6534 -1.0949 -1.7491
  662SOL     OW 1984   0.686   0.721   0.315  0.1839  0.0090 -0.4174
  662SOL    HW1 1985   0.754   0.690   0.252 -5.7617 -0.3880  0.3271
  662SOL    HW2 1986   0.729   0.770   0.391 -0.5970 -0.3559 -0.9319
  663SOL     OW 1987   1.894   2.286   0.220  0.0570 -0.5837  0.4686
  663SOL    HW1 1988   1.846   2.256   0.136 -1.2023 -0.0852  0.2282
  663SOL    HW2 1989   1.987   2.250   0.223  0.5320  0.4781 -0.2033
  664SOL     OW 1990   0.702   2.049   1.519 -0.0986  0.6305 -0.1097
  664SOL    HW1 1991   0.616   2.099   1.508  0.8175  1.1170  0.4905
  664SOL    HW2 1992   0.772   2.104   1.571  1.4233  1.0536 -1.0253
  665SOL     OW 1993   1.887   2.184   2.012 -0.0308 -0.0186 -0.0420
  665SOL    HW1 1994   1.903   2.243   1.931  0.9855  1.8764 -2.2313
  665SOL    HW2 1995   1.793   2.190   2.051  0.0917 -0.4187  0.5414
  666SOL     OW 1996   0.569   2.551   0.282  0.2283  0.2328  0.2055
  666SOL    HW1 1997   0.596   2.530   0.379 -0.9086  1.1219  1.7667
  666SOL    HW2 1998   0.468   2.554   0.273  1.9609 -0.7821  0.8199
  667SOL     OW 1999   2.165   1.392   2.073  0.4272  0.4861 -0.0410
  667SOL    HW1 2000   2.123   1.302   2.096 -1.5452 -1.8077  1.1533
  667SOL    HW2 2001   2.130   1.419   1.980  1.6678  1.5239 -2.6430
  668SOL     OW 2002   0.525   0.663   2.726 -0.5438  0.0986  0.3719
  668SOL    HW1 2003   0.565   0.751   2.689  0.5696  2.2680 -3.5030
  668SOL    HW2 2004   0.597   0.595   2.731 -4.0484 -3.1478  0.4369
  669SOL     OW 2005   1.618   2.406   2.802 -0.4862 -0.5701  0.1824
  669SOL    HW1 2006   1.529   2.357   2.794  4.5345  0.2299  0.7911
  669SOL    HW2 2007   1.670   2.399   2.714 -0.2109  1.9720  1.6482
  670SOL     OW 2008   2.591   2.258   2.901 -0.1109 -0.0862 -0.5557
  670SOL    HW1 2009   2.551   2.349   2.873 -0.8137  1.1424  0.4036
  670SOL    HW2 2010   2.571   2.184   2.833  0.7298 -3.2384 -3.0716
  671SOL     OW 2011   0.515   1.154   1.029 -0.0503  0.4031  0.9006
  671SOL    HW1 2012   0.426   1.185   0.996  2.5492  1.8521  0.8070
  671SOL    HW2 2013   0.499   1.109   1.112  1.7599  1.5221  0.2489
  672SOL     OW 2014   2.463   0.847   2.263 -0.4427  0.3504 -0.3141
  672SOL    HW1 2015   2.453   0.913   2.184  1.7582 -2.3079 -1.7927
  672SOL    HW2 2016   2.434   0.900   2.345 -0.7195 -1.0149 -0.8730
  673SOL     OW 2017   2.562   2.876   2.061 -0.9459  0.1513  0.6043
  673SOL    HW1 2018   2.649   2.861   2.108  0.8759  4.1181  0.3790
  673SOL    HW2 2019   2.525   2.793   2.006 -0.6488 -0.7029 -2.6628
  674SOL     OW 2020   1.234   2.553   2.201 -0.0777 -0.3268 -0.2247
  674SOL    HW1 2021   1.153   2.602   2.173  3.3673  0.2067  2.1041
  674SOL    HW2 2022   1.211   2.453   2.217 -0.1670 -0.3652  2.5747
  675SOL     OW 2023   0.491   0.795   1.684 -0.3141 -0.3620  0.1732
  675SOL    HW1 2024   0.473   0.696   1.660 -0.3783 -3.1590  1.9471
  675SOL    HW2 2025   0.593   0.809   1.684  0.1638 -0.5148  2.1378
  676SOL     OW 2026   1.959   0.899   0.772 -0.4442 -0.3552 -0.2905
  676SOL    HW1 2027   1.885   0.835   0.739  2.0673 -0.8318  0.3343
  676SOL    HW2 2028   1.997   0.970   0.706  2.2102  3.3707 -2.4172
  677SOL     OW 2029   2.788   1.424   2.491  0.1365  0.6665  0.5337
  677SOL    HW1 2030   2.717   1.404   2.419 -1.2590  1.4293 -0.4132
  677SOL    HW2 2031   2.762   1.518   2.530  0.7157  0.0741 -0.9683
  678SOL     OW 2032   2.682   2.033   1.038  0.2322 -0.1311  0.1005
  678SOL    HW1 2033   2.705   2.083   1.124 -2.1499  0.4385 -1.5675
  678SOL    HW2 2034   2.611   1.961   1.059  2.8937  0.8548 -0.5754
  679SOL     OW 2035   1.518   2.791   0.791  0.4601  0.6326  0.1682
  679SOL    HW1 2036   1.531   2.707   0.737 -0.3052 -3.4085  2.3954
  679SOL    HW2 2037   1.547   2.874   0.737 -3.9794 -1.3592  0.1011
  680SOL     OW 2038   0.186   2.473   2.450 -0.3679 -0.1943 -0.2579
  680SOL    HW1 2039   0.288   2.489   2.459  1.2083 -0.6123 -0.7842
  680SOL    HW2 2040   0.174   2.436   2.352  1.5163 -0.7672 -3.1966
  681SOL     OW 2041   2.709   1.399   1.687  0.1220  0.0071 -0.1819
  681SOL    HW1 2042   2.801   1.369   1.718  3.5626 -1.3923  0.6589
  681SOL    HW2 2043   2.646   1.330   1.721  2.6470  2.0218 -1.1090
  682SOL     OW 2044   0.359   1.809   1.345  0.0764  0.2468  0.4470
  682SOL    HW1 2045   0.346   1.893   1.406 -0.1265 -1.4552 -0.9381
  682SOL    HW2 2046   0.425   1.846   1.277  2.1817  1.4131 -4.6663
  683SOL     OW 2047   2.193   1.397   1.361 -0.7164  0.3175 -0.0602
  683SOL    HW1 2048   2.219   1.463   1.283  1.8418  1.7951 -0.3678
  683SOL    HW2 2049   2.109   1.356   1.330  3.0082  4.8753  2.4502
  684SOL     OW 2050   2.704   1.573   3.005  0.0516 -0.0867  0.2143
  684SOL    HW1 2051   2.747   1.599   2.918 -3.0733  2.5573  1.8250
  684SOL    HW2 2052   2.606   1.557   2.987  2.0534 -1.6609  1.7088
  685SOL     OW 2053   1.467   1.244   3.104 -0.1652 -0.6474  0.2993
  685SOL    HW1 2054   1.400   1.270   0.049  0.2223 -3.2035  0.8585
  685SOL    HW2 2055   1.437   1.160   3.051 -1.0749  0.5773  2.3871
  686SOL     OW 2056   0.459   0.222   1.389  0.4638 -0.0179  0.6277
  686SOL    HW1 2057   0.547   0.263   1.376 -2.8361  0.2045 -1.5347
  686SOL    HW2 2058   0.432   0.225   1.484  0.3422 -0.2207 -0.4429
  687SOL     OW 2059   1.043   1.928   2.240 -0.4370 -0.7593 -0.1356
  687SOL    HW1 2060   1.129   1.984   2.244 -1.1824 -1.6941  0.2905
  687SOL    HW2 2061   1.060   1.854   2.310 -3.4354 -1.0848  1.3783
  688SOL     OW 2062   0.279   1.571   1.238 -0.0454  0.4009  0.7574
  688SOL    HW1 2063   0.314   1.650   1.284 -0.2756 -2.0588 -2.5323
  688SOL    HW2 2064   0.252   1.593   1.140 -0.2135  1.9454 -1.3672
  689SOL     OW 2065   1.448   0.995   1.572 -0.5184  0.0494 -0.0702
  689SOL    HW1 2066   1.442   1.078   1.514  0.9472  0.6759  0.0579
  689SOL    HW2 2067   1.531   0.945   1.537  1.6350 -2.1598 -0.0109
  690SOL     OW 2068   2.698   0.999   1.130  1.0175  0.1158  0.1829
  690SOL    HW1 2069   2.680   0.998   1.029 -2.1113 -0.9162 -1.9501
  690SOL    HW2 2070   2.801   0.996   1.152  2.0455  0.0554  2.0426
  691SOL     OW 2071   0.394   2.066   1.917 -0.0257 -0.1140  0.0084
  691SOL    HW1 2072   0.415   2.086   2.015 -0.0315 -2.6569  1.8557
  691SOL    HW2 2073   0.482   2.091   1.874 -0.7983  1.5228  2.0552
  692SOL     OW 2074   1.970   0.123   1.122 -0.7051  0.4067 -0.0372
  692SOL    HW1 2075   1.919   0.058   1.066  0.7826 -0.1359  2.3103
  692SOL    HW2 2076   1.990   0.206   1.070 -0.3382 -0.0770  0.7849
  693SOL     OW 2077   0.178   1.463   2.345 -0.1525  0.2469  0.1139
  693SOL    HW1 2078   0.225   1.492   2.431  2.7434  2.2455 -0.6387
  693SOL    HW2 2079   0.078   1.456   2.365 -2.5131  2.6407  2.2375
  694SOL     OW 2080   2.352   0.557   1.391 -0.0214  0.1706 -0.5701
  694SOL    HW1 2081   2.422   0.488   1.414  0.3328 -1.5453 -0.9601
  694SOL    HW2 2082   2.391   0.645   1.371 -0.6445 -1.5168  0.2148
  695SOL     OW 2083   1.089   1.490   1.816 -0.3299 -0.1319  0.0840
  695SOL    HW1 2084   1.168   1.488   1.755 -1.5855 -0.5623 -0.1799
  695SOL    HW2 2085   1.103   1.432   1.900  1.2574  0.6716  1.6810
  696SOL     OW 2086   1.059   3.002   3.125  0.5561 -0.0157 -0.6877
  696SOL    HW1 2087   1.097   2.908   3.102  2.2722  1.5425 -3.3972
  696SOL    HW2 2088   1.087   3.056   3.043 -1.5243 -0.6036 -0.9960
  697SOL     OW 2089   0.946   0.297   0.928  0.0727  0.1248  0.2867
  697SOL    HW1 2090   0.950   0.386   0.879  0.1421 -1.3488  0.1237
  697SOL    HW2 2091   1.033   0.244   0.917  1.6727  0.0234 -1.0656
  698SOL     OW 2092   1.288   1.490   2.325 -0.4730 -0.3736  0.1796
  698SOL    HW1 2093   1.253   1.518   2.413  1.3596 -0.9762 -0.9047
  698SOL    HW2 2094   1.275   1.388   2.309 -0.3968  1.9688 -3.5194
  699SOL     OW 2095   1.518   0.942   1.125  0.4491 -0.5728 -0.3133
  699SOL    HW1 2096   1.425   0.985   1.139  0.5750  1.7336 -0.2037
  699SOL    HW2 2097   1.529   0.902   1.032 -0.9278  1.6380  0.6113
  700SOL     OW 2098   0.901   2.846   0.419 -0.6162  0.0744 -0.5635
  700SOL    HW1 2099   0.872   2.810   0.328 -1.9664 -0.7193 -2.4677
  700SOL    HW2 2100   1.002   2.878   0.423  0.5785  0.1697  1.9202
  701SOL     OW 2101   2.427   3.042   2.585 -0.2809 -0.0706 -0.0962
  701SOL    HW1 2102   2.512   2.990   2.603 -1.0834 -0.1027  1.5166
  701SOL    HW2 2103   2.418   3.050   2.485  1.2864 -0.6448  0.2070
  702SOL     OW 2104   1.281   0.437   3.071  0.0942  0.0107  0.3949
  702SOL    HW1 2105   1.288   0.394   0.032  0.4152  1.6677  1.1569
  702SOL    HW2 2106   1.231   0.523   3.077  3.7870  0.9017  1.2686
  703SOL     OW 2107   2.723   0.013   2.282  0.1258 -0.1107 -0.3100
  703SOL    HW1 2108   2.657   0.059   2.221  2.8816  3.9854  1.0496
  703SOL    HW2 2109   2.727   3.043   2.276 -2.6311 -0.2276 -1.1238
  704SOL     OW 2110   2.924   1.765   0.723 -0.1995  0.3965 -0.2444
  704SOL    HW1 2111   2.858   1.789   0.651 -0.1037 -1.1237 -2.6866
  704SOL    HW2 2112   2.911   1.826   0.806 -0.1334  1.6102  1.7190
  705SOL     OW 2113   0.061   3.095   2.406 -0.1870  0.0631 -0.0040
  705SOL    HW1 2114   0.160   3.105   2.383  0.0146 -0.7102  0.7837
  705SOL    HW2 2115   0.019   3.031   2.337 -0.5906 -0.9357 -0.9729
  706SOL     OW 2116   1.848   2.784   0.449  0.4946  0.0941 -0.2838
  706SOL    HW1 2117   1.920   2.732   0.506  1.6146 -2.6859 -0.9350
  706SOL    HW2 2118   1.773   2.719   0.429  0.0906  1.0600  0.1169
  707SOL     OW 2119   0.944   1.843   2.010 -0.1617 -0.0573 -0.2479
  707SOL    HW1 2120   0.968   1.889   2.097  2.0114 -0.2035  0.6259
  707SOL    HW2 2121   0.914   1.749   2.038  0.4628  1.5525 -2.0750
  708SOL     OW 2122   3.099   2.227   1.575  0.4336  0.0584 -0.0640
  708SOL    HW1 2123   0.019   2.253   1.488  1.3366  1.4134  0.0576
  708SOL    HW2 2124   0.026   2.238   1.661  0.1665  1.2574  1.5815
  709SOL     OW 2125   2.291   0.070   1.872 -0.2541  0.2760  0.0143
  709SOL    HW1 2126   2.248   0.010   1.800 -1.3864 -1.4462  0.4803
  709SOL    HW2 2127   2.378   0.029   1.911  1.4058  1.1256 -0.8424
  710SOL     OW 2128   2.151   0.905   2.390 -0.1872 -0.1597  0.2389
  710SOL    HW1 2129   2.113   0.997   2.414  0.4451 -0.9377  0.6272
  710SOL    HW2 2130   2.191   0.857   2.472  1.3697  1.9747  1.4562
  711SOL     OW 2131   1.110   2.206   3.072 -0.1040  0.0466 -0.3743
  711SOL    HW1 2132   1.081   2.201   0.041 -1.8770 -0.8349  1.6083
  711SOL    HW2 2133   1.208   2.239   3.065  1.8903 -1.8561  1.3398
  712SOL     OW 2134   0.536   2.360   2.259 -0.2690  0.1023 -0.5612
  712SOL    HW1 2135   0.491   2.422   2.327 -0.1267 -1.4643 -2.0604
  712SOL    HW2 2136   0.576   2.414   2.183 -0.4781 -1.1119 -0.6745
  713SOL     OW 2137   1.702   1.322   2.979 -0.3007 -0.5141  0.5194
  713SOL    HW1 2138   1.619   1.282   3.019  0.6563 -0.4294 -0.5647
  713SOL    HW2 2139   1.687   1.421   2.967 -0.1139 -1.6281 -2.0413
  714SOL     OW 2140   0.824   1.395   1.585 -0.0801 -0.8224 -0.2669
  714SOL    HW1 2141   0.852   1.441   1.674  2.2356 -0.3379  0.4158
  714SOL    HW2 2142   0.786   1.472   1.527  1.9807  1.5621  4.8964
  715SOL     OW 2143   1.764   0.453   3.100  0.0294  0.4007 -0.2814
  715SOL    HW1 2144   1.839   0.529   3.110  0.4622  1.0889 -0.0020
  715SOL    HW2 2145   1.789   0.365   0.019 -1.1307 -3.2247  0.4096
  716SOL     OW 2146   3.114   2.922   2.219  0.1815  0.4823  0.5063
  716SOL    HW1 2147   3.095   2.937   2.119  0.6639  1.8782 -0.9513
  716SOL    HW2 2148   3.120   2.823   2.243  3.2896  0.4717 -0.2617
  717SOL     OW 2149   0.011   0.587   0.971 -0.0904 -0.6234  0.4728
  717SOL    HW1 2150   3.122   0.660   0.902 -1.2695  1.5543 -2.1867
  717SOL    HW2 2151   3.057   0.557   1.025 -1.0490 -2.1539 -1.9030
  718SOL     OW 2152   0.513   1.352   2.434 -0.0391 -0.3537 -0.1853
  718SOL    HW1 2153   0.570   1.436   2.444  1.5191 -0.3155 -1.4097
  718SOL    HW2 2154   0.416   1.380   2.411 -1.4031 -0.4609 -1.4676
  719SOL     OW 2155   2.393   1.352   0.052 -0.5591  0.3359 -0.2096
  719SOL    HW1 2156   2.314   1.347   3.120  0.5977  3.5331  1.6622
  719SOL    HW2 2157   2.458   1.279   0.026 -3.5010 -2.1631  0.8195
  720SOL     OW 2158   1.175   0.849   0.950  0.1237 -0.0450 -0.2046
  720SOL    HW1 2159   1.092   0.805   0.985  1.9794  0.8402 -0.6345
  720SOL    HW2 2160   1.212   0.920   1.012  0.0110 -1.3139  2.6331
  721SOL     OW 2161   2.610   0.388   0.290  0.2103 -0.2806  0.8337
  721SOL    HW1 2162   2.628   0.404   0.193 -0.3866 -0.8351  4.0383
  721SOL    HW2 2163   2.656   0.301   0.318  0.1261  0.2603  3.7811
  722SOL     OW 2164   2.054   0.684   2.766 -0.0881  0.1146 -0.2746
  722SOL    HW1 2165   2.147   0.716   2.768 -1.3214  0.8068  1.4705
  722SOL    HW2 2166   2.044   0.613   2.687 -4.3891 -1.4080 -2.4092
  723SOL     OW 2167   2.789   0.572   0.389 -0.1110 -0.2181  0.0362
  723SOL    HW1 2168   2.745   0.478   0.369 -2.4562 -0.7893  1.4176
  723SOL    HW2 2169   2.796   0.587   0.491 -0.1543 -1.6802 -2.7712
  724SOL     OW 2170   0.865   1.617   2.149  0.4115  0.4638 -0.6940
  724SOL    HW1 2171   0.860   1.617   2.251  1.6174 -0.3392 -1.2104
  724SOL    HW2 2172   0.809   1.538   2.113  3.2455 -2.5512  0.2260
  725SOL     OW 2173   1.774   0.537   1.497 -0.7931 -0.3360 -0.4301
  725SOL    HW1 2174   1.808   0.632   1.509 -1.7850 -0.5699  1.3774
  725SOL    HW2 2175   1.832   0.489   1.426  1.1915  0.2947 -3.0989
  726SOL     OW 2176   1.623   3.016   0.651 -0.0462 -0.0067  0.4856
  726SOL    HW1 2177   1.723   3.014   0.641 -0.5066  1.2709 -1.4942
  726SOL    HW2 2178   1.580   2.998   0.559  1.0746 -0.2042 -3.6194
  727SOL     OW 2179   1.680   1.766   2.313  0.1602  0.3330 -0.2877
  727SOL    HW1 2180   1.692   1.796   2.406 -0.2544 -0.7295 -2.7486
  727SOL    HW2 2181   1.637   1.672   2.301 -2.4023 -0.9667 -0.0202
  728SOL     OW 2182   2.167   3.027   1.696  0.0726 -0.4352 -0.1833
  728SOL    HW1 2183   2.174   3.110   1.632  0.5138  0.9220 -0.5012
  728SOL    HW2 2184   2.109   2.959   1.654 -0.0061  3.4067  3.1249
  729SOL     OW 2185   2.226   1.148   0.821 -0.1583  0.2824 -0.1937
  729SOL    HW1 2186   2.150   1.213   0.828  0.7275 -1.5810 -0.0711
  729SOL    HW2 2187   2.237   1.128   0.722 -2.2231 -0.2475  1.1077
  730SOL     OW 2188   0.468   1.165   2.642  0.6061 -0.4842 -0.4278
  730SOL    HW1 2189   0.542   1.095   2.637  0.5142 -0.2421  0.9761
  730SOL    HW2 2190   0.484   1.235   2.570 -3.0075  0.3611  2.0618
  731SOL     OW 2191   0.146   3.115   0.709  0.3267  0.6039 -0.0336
  731SOL    HW1 2192   0.215   0.028   0.647  1.0855 -0.1335 -0.5680
  731SOL    HW2 2193   0.158   0.013   0.809 -0.9778 -1.1267  2.7754
  732SOL     OW 2194   1.300   0.896   0.258 -0.5559 -0.2580 -0.1362
  732SOL    HW1 2195   1.254   0.853   0.341 -0.2023 -0.5078  3.2461
  732SOL    HW2 2196   1.324   0.824   0.188  0.1918  0.9234 -0.1638
  733SOL     OW 2197   0.688   1.708   0.965  0.1683 -0.3934  0.0938
  733SOL    HW1 2198   0.759   1.640   0.962 -1.4990 -2.8873 -1.4522
  733SOL    HW2 2199   0.597   1.668   0.933  3.1711  2.0545 -1.2167
  734SOL     OW 2200   0.005   2.530   0.378 -0.0219 -0.3742  0.1924
  734SOL    HW1 2201   3.121   2.630   0.396  0.1673 -0.6811 -0.5339
  734SOL    HW2 2202   3.087   2.484   0.452 -0.9739  2.7290 -3.1647
  735SOL     OW 2203   1.388   0.520   1.024  0.2427 -0.6679  0.1797
  735SOL    HW1 2204   1.358   0.422   1.013  1.3871 -1.3159  3.2716
  735SOL    HW2 2205   1.480   0.528   1.075  0.1276  1.4830 -0.8091
  736SOL     OW 2206   2.339   2.464   0.047 -0.2664  0.1417  0.1840
  736SOL    HW1 2207   2.244   2.454   0.011  1.4761 -0.7320  2.6745
  736SOL    HW2 2208   2.352   2.405   0.129  3.8027  0.5525 -0.8272
  737SOL     OW 2209   3.038   0.775   0.773 -0.1937  0.4951 -0.2390
  737SOL    HW1 2210   3.036   0.861   0.830 -0.8648  0.8626  1.2899
  737SOL    HW2 2211   3.106   0.770   0.697 -4.0238 -1.0672  0.7952
  738SOL     OW 2212   2.971   0.069   1.049  0.1535 -0.1861  0.4016
  738SOL    HW1 2213   3.002   0.092   1.146 -0.9873 -0.6986  1.9145
  738SOL    HW2 2214   2.931   3.104   1.049  0.4284 -0.2779  0.1572
  739SOL     OW 2215   1.349   2.594   0.183  0.0465  0.1816 -0.1791
  739SOL    HW1 2216   1.374   2.495   0.204 -1.1119 -1.4558  2.6079
  739SOL    HW2 2217   1.336   2.646   0.275  1.3915 -1.3354  1.7510
  740SOL     OW 2218   1.597   0.504   1.186  0.1175 -0.3765  0.0610
  740SOL    HW1 2219   1.557   0.425   1.242  0.4564 -2.2444 -1.9864
  740SOL    HW2 2220   1.684   0.483   1.147 -3.0834 -1.1760  0.1142
  741SOL     OW 2221   2.919   1.138   0.822  0.1535  0.1038  0.4390
  741SOL    HW1 2222   2.953   1.104   0.910 -1.4974  0.2489  0.3337
  741SOL    HW2 2223   2.826   1.100   0.801  0.1801 -2.0531 -1.9870
  742SOL     OW 2224   0.570   1.503   2.736 -0.0894 -0.1984 -0.0145
  742SOL    HW1 2225   0.663   1.549   2.735  1.0159  0.7985 -1.5543
  742SOL    HW2 2226   0.499   1.559   2.687 -1.9062 -0.6764 -2.1179
  743SOL     OW 2227   1.287   0.686   1.986  0.1415  0.2605 -0.3329
  743SOL    HW1 2228   1.251   0.716   1.895 -3.0177 -0.4688 -0.0915
  743SOL    HW2 2229   1.383   0.650   1.983 -0.2063  1.8813 -1.4639
  744SOL     OW 2230   2.227   0.904   1.523  0.2544  0.6087 -0.2812
  744SOL    HW1 2231   2.293   0.852   1.465 -0.2093  0.7475 -1.5465
  744SOL    HW2 2232   2.222   1.004   1.495 -0.7305  1.6113  0.2037
  745SOL     OW 2233   1.330   1.465   1.630 -0.7076  0.1330  0.2117
  745SOL    HW1 2234   1.417   1.465   1.579 -1.5507 -1.0819 -1.4027
  745SOL    HW2 2235   1.320   1.370   1.669  0.9955 -0.6157  0.9858
  746SOL     OW 2236   2.060   1.732   1.077  0.1537  0.1316  0.2264
  746SOL    HW1 2237   1.984   1.699   1.131  1.7590  0.8504  0.7993
  746SOL    HW2 2238   2.115   1.660   1.030  0.6789 -1.8514  2.1566
  747SOL     OW 2239   2.309   1.511   1.111  0.1795  0.7906  0.3175
  747SOL    HW1 2240   2.326   1.609   1.150  0.0102  3.3382  1.5704
  747SOL    HW2 2241   2.267   1.505   1.016 -0.7895  0.9726 -5.1635
  748SOL     OW 2242   0.670   2.089   0.947  0.1852  0.0185  0.6254
  748SOL    HW1 2243   0.616   2.175   0.914 -0.6230  2.9540 -2.2902
  748SOL    HW2 2244   0.670   2.087   1.049 -1.9639 -0.8885  1.7982
  749SOL     OW 2245   2.308   2.816   2.205  0.2436 -0.0526  0.4017
  749SOL    HW1 2246   2.217   2.828   2.162  0.4416  0.0519 -1.8175
  749SOL    HW2 2247   2.381   2.821   2.137 -1.2489 -3.1092  0.9380
  750SOL     OW 2248   2.439   0.453   0.922  0.5262 -0.3346  0.0483
  750SOL    HW1 2249   2.421   0.407   0.829  1.7538 -0.0984  2.1252
  750SOL    HW2 2250   2.414   0.551   0.933 -0.8998 -0.8267 -0.9485
  751SOL     OW 2251   2.785   2.924   0.427 -0.2054  0.0468 -0.0816
  751SOL    HW1 2252   2.851   2.854   0.397  1.6557 -1.1914  0.0520
  751SOL    HW2 2253   2.707   2.936   0.360 -3.5610  0.6296 -2.5333
  752SOL     OW 2254   0.073   2.867   0.661 -0.0187  0.1842 -0.1627
  752SOL    HW1 2255   0.049   2.842   0.566 -1.5232  1.9714  1.0083
  752SOL    HW2 2256   0.092   2.964   0.670 -1.0555  0.3173  0.9077
  753SOL     OW 2257   1.581   0.695   2.252  0.3171 -0.2044 -0.4406
  753SOL    HW1 2258   1.667   0.756   2.232  3.7416 -0.5505 -0.2222
  753SOL    HW2 2259   1.491   0.738   2.239 -0.9743  0.4815 -2.2447
  754SOL     OW 2260   1.622   2.078   1.951  0.1746  0.0122 -0.1882
  754SOL    HW1 2261   1.664   2.082   1.859 -1.6934 -1.1070  0.7484
  754SOL    HW2 2262   1.632   1.988   1.998 -0.4085 -2.2510  1.5049
  755SOL     OW 2263   2.552   0.675   0.643 -0.0009 -0.0629 -0.4721
  755SOL    HW1 2264   2.483   0.666   0.569  0.1253 -1.2643  3.6941
  755SOL    HW2 2265   2.632   0.725   0.614 -0.3118 -1.2049  1.2816
  756SOL     OW 2266   0.819   1.609   2.751  0.2242 -0.0376  0.2493
  756SOL    HW1 2267   0.905   1.560   2.759 -1.5518  1.8058  0.2158
  756SOL    HW2 2268   0.803   1.675   2.825 -1.3591 -0.6427  1.0825
  757SOL     OW 2269   1.120   2.995   0.465  0.3889 -0.6419  0.3896
  757SOL    HW1 2270   1.074   3.053   0.540  1.0393  2.0724  4.3495
  757SOL    HW2 2271   1.210   3.040   0.434  2.6851 -0.5094 -0.5801
  758SOL     OW 2272   1.188   2.917   1.144  0.3894  0.2515  0.2759
  758SOL    HW1 2273   1.153   2.961   1.061 -1.1974  1.9173  2.8548
  758SOL    HW2 2274   1.265   2.968   1.186 -1.7646  0.2624  1.3998
  759SOL     OW 2275   0.214   0.505   0.465 -0.1728 -0.6959 -0.3228
  759SOL    HW1 2276   0.221   0.437   0.539  1.7017  3.2988  1.1006
  759SOL    HW2 2277   0.174   0.593   0.503 -0.4753  0.0579  0.6327
  760SOL     OW 2278   2.455   1.069   1.238  0.6848  0.4330  0.3584
  760SOL    HW1 2279   2.543   1.033   1.204  1.8163  0.7088  3.0321
  760SOL    HW2 2280   2.446   1.172   1.241  2.0443  0.3972  1.5507
  761SOL     OW 2281   1.917   0.547   0.797  0.0522 -0.4213  0.9151
  761SOL    HW1 2282   1.933   0.515   0.889 -2.2028 -0.0698 -1.1414
  761SOL    HW2 2283   2.007   0.583   0.757  1.8347  1.2017 -0.6881
  762SOL     OW 2284   2.209   2.200   0.480  0.5739 -0.2980 -0.3726
  762SOL    HW1 2285   2.143   2.202   0.403 -1.6444  0.7554  0.5349
  762SOL    HW2 2286   2.238   2.296   0.500 -1.3463  2.2477 -0.5518
  763SOL     OW 2287   0.706   1.153   1.661 -0.0167 -0.8777  0.2360
  763SOL    HW1 2288   0.624   1.157   1.721 -1.0497  0.1358  1.0067
  763SOL    HW2 2289   0.744   1.247   1.640  5.8954 -0.0115  2.5905
  764SOL     OW 2290   2.513   2.175   2.488  0.2465 -0.3500 -0.2706
  764SOL    HW1 2291   2.446   2.202   2.418  1.7500  0.3986  1.2991
  764SOL    HW2 2292   2.600   2.226   2.480  1.1051 -2.0358  1.0269
  765SOL     OW 2293   0.947   2.564   0.940 -0.1139  0.0152  0.6923
  765SOL    HW1 2294   0.938   2.606   0.847  0.1922  2.4987 -0.2806
  765SOL    HW2 2295   0.918   2.635   1.009 -0.7258 -0.7199 -0.8656
  766SOL     OW 2296   0.001   1.704   2.503  0.1101  0.2932 -0.7355
  766SOL    HW1 2297   0.044   1.793   2.478  0.1027  0.0767  0.6557
  766SOL    HW2 2298   3.096   1.647   2.425 -1.8584  0.8517 -0.7468
  767SOL     OW 2299   2.327   0.781   2.578  0.0485 -0.0229  0.2452
  767SOL    HW1 2300   2.366   0.789   2.671 -2.4150 -2.7392 -1.3768
  767SOL    HW2 2301   2.327   0.684   2.542  1.1160 -1.5455 -3.4658
  768SOL     OW 2302   1.058   0.177   2.376  0.0924 -0.1723  0.2896
  768SOL    HW1 2303   1.008   0.167   2.463 -1.1940  1.2917  0.2605
  768SOL    HW2 2304   1.042   0.092   2.311 -1.0475 -3.0651 -1.0319
  769SOL     OW 2305   0.151   2.325   0.931  0.0588 -0.2877  0.3953
  769SOL    HW1 2306   0.180   2.330   0.832 -0.1961  0.8128  0.9943
  769SOL    HW2 2307   0.105   2.407   0.956  1.7386 -1.5587 -0.1935
  770SOL     OW 2308   0.844   0.401   0.043 -0.8287  0.4653  0.3018
  770SOL    HW1 2309   0.860   0.357   3.082 -1.1614 -0.6779 -1.8764
  770SOL    HW2 2310   0.750   0.423   0.051  1.7766  1.2321 -0.7162
  771SOL     OW 2311   1.233   1.535   2.580  0.0220  0.1139  0.2938
  771SOL    HW1 2312   1.163   1.498   2.639  1.7592 -0.5224 -1.0736
  771SOL    HW2 2313   1.321   1.561   2.622 -1.9536  0.9043  0.6064
  772SOL     OW 2314   2.343   3.067   2.309  0.4336 -0.0282  0.5893
  772SOL    HW1 2315   2.340   2.970   2.273 -1.9678  1.5060 -0.7259
  772SOL    HW2 2316   2.255   3.104   2.332  0.4777  0.4741 -1.5734
  773SOL     OW 2317   1.639   0.833   1.923  0.0938 -0.4608 -0.2288
  773SOL    HW1 2318   1.544   0.872   1.929  2.7605  1.1488  1.1176
  773SOL    HW2 2319   1.624   0.736   1.899 -0.5596  1.4551 -0.0661
  774SOL     OW 2320   1.283   0.728   1.362  0.2832 -0.5235  0.2548
  774SOL    HW1 2321   1.239   0.670   1.292  1.6226 -0.7521  1.8015
  774SOL    HW2 2322   1.379   0.734   1.347 -0.2414 -0.7857  2.2860
  775SOL     OW 2323   2.126   2.827   0.083 -0.0405 -0.2544  0.3106
  775SOL    HW1 2324   2.101   2.782   3.123 -3.1323  0.2208 -1.0800
  775SOL    HW2 2325   2.216   2.869   0.080 -4.7399 -1.7771 -0.4168
  776SOL     OW 2326   2.061   1.009   1.834 -0.1115 -0.0552 -0.0318
  776SOL    HW1 2327   1.992   0.941   1.797 -3.4451  0.4093 -1.8838
  776SOL    HW2 2328   2.086   0.986   1.928 -1.9167  0.2855 -1.5156
  777SOL     OW 2329   3.044   1.414   2.395 -0.1303 -0.2417  0.1228
  777SOL    HW1 2330   3.037   1.347   2.323  1.1545 -0.2626  2.1322
  777SOL    HW2 2331   2.946   1.430   2.435 -3.3463  2.4345 -0.0420
  778SOL     OW 2332   2.476   1.001   2.501 -0.0325 -0.0374 -0.4637
  778SOL    HW1 2333   2.425   0.926   2.552  0.2380 -1.0431 -0.7219
  778SOL    HW2 2334   2.577   0.994   2.501  0.4181  0.3976 -0.3088
  779SOL     OW 2335   2.989   0.512   2.937 -0.1071 -0.4380  0.4970
  779SOL    HW1 2336   3.061   0.589   2.939 -0.7785  1.3378  1.6104
  779SOL    HW2 2337   3.014   0.444   2.863  1.2472  0.7405 -0.5693
  780SOL     OW 2338   2.402   2.668   2.397  0.2195  0.6289 -0.2028
  780SOL    HW1 2339   2.362   2.746   2.343  0.0103  1.3566 -0.5760
  780SOL    HW2 2340   2.435   2.596   2.335  0.8839  1.7091 -2.3148
  781SOL     OW 2341   3.062   1.028   1.968 -0.3657 -0.0941  0.4008
  781SOL    HW1 2342   2.972   0.981   1.979 -0.1725  1.4035 -0.2045
  781SOL    HW2 2343   3.068   1.064   1.868  0.3043  0.9984  0.1834
  782SOL     OW 2344   1.802   2.401   2.988 -0.3876  0.4305 -0.0774
  782SOL    HW1 2345   1.733   2.408   2.911 -1.4456  1.2074 -1.5149
  782SOL    HW2 2346   1.807   2.493   3.036 -0.1588 -0.8315  1.5810
  783SOL     OW 2347   0.930   2.327   1.240  0.5736  0.3023 -0.3117
  783SOL    HW1 2348   0.985   2.406   1.270 -1.2979  0.4345 -2.1417
  783SOL    HW2 2349   0.988   2.266   1.183 -0.4506  1.3093 -0.6668
  784SOL     OW 2350   2.222   0.490   2.239  0.1935  0.3916 -0.1471
  784SOL    HW1 2351   2.131   0.435   2.226 -2.6733 -2.5352 -0.5747
  784SOL    HW2 2352   2.282   0.480   2.157 -0.4909 -0.8493  1.8594
  785SOL     OW 2353   0.168   0.108   1.306 -0.9136 -0.0607 -0.0608
  785SOL    HW1 2354   0.224   0.053   1.240  2.3058  1.2526 -0.4982
  785SOL    HW2 2355   0.226   0.188   1.336  0.6545  0.6997 -0.4677
  786SOL     OW 2356   1.358   2.734   0.425 -0.1848 -0.5935 -0.5095
  786SOL    HW1 2357   1.293   2.736   0.506 -2.5214  1.4003  0.0928
  786SOL    HW2 2358   1.406   2.822   0.419  1.3723 -0.9730  1.3019
  787SOL     OW 2359   1.328   0.216   0.663  0.4475 -0.1251 -0.2402
  787SOL    HW1 2360   1.308   0.312   0.685 -1.3413 -1.2650 -1.4466
  787SOL    HW2 2361   1.402   0.184   0.727  0.8232 -2.9775  0.3526
  788SOL     OW 2362   0.007   1.211   1.092  0.3049 -0.5058  0.3485
  788SOL    HW1 2363   0.013   1.304   1.045  2.7795 -0.1614 -0.0709
  788SOL    HW2 2364   0.103   1.183   1.117  1.8624 -2.3050  0.0402
  789SOL     OW 2365   2.745   0.853   2.237  0.2468  0.3665  0.5269
  789SOL    HW1 2366   2.649   0.821   2.252  0.7096 -1.4273 -2.4791
  789SOL    HW2 2367   2.762   0.946   2.281 -1.7560  2.5514 -0.8550
  790SOL     OW 2368   1.146   0.802   2.837  0.0074  0.5913  0.2293
  790SOL    HW1 2369   1.225   0.819   2.772  0.7730  3.5900 -0.5839
  790SOL    HW2 2370   1.081   0.880   2.833  1.0353  0.3347  1.1370
  791SOL     OW 2371   0.342   2.682   0.110 -0.2064  0.1599  0.5722
  791SOL    HW1 2372   0.303   2.601   0.161  0.6685  4.0147 -1.2835
  791SOL    HW2 2373   0.402   2.652   0.032 -1.7537  1.3927  0.1028
  792SOL     OW 2374   1.028   0.611   2.066 -0.4652  0.0620 -0.4870
  792SOL    HW1 2375   1.112   0.658   2.025  2.4797  1.0812 -0.0059
  792SOL    HW2 2376   0.976   0.540   2.007 -3.1519 -1.9706 -1.4127
  793SOL     OW 2377   2.949   0.520   1.175 -0.4526  0.1618  0.6614
  793SOL    HW1 2378   2.909   0.478   1.259  1.4545 -0.0435 -0.9225
  793SOL    HW2 2379   2.908   0.472   1.093 -3.3314 -3.6148 -1.1235
  794SOL     OW 2380   3.013   0.208   2.427 -0.3207  0.4038 -0.7567
  794SOL    HW1 2381   3.046   0.110   2.427  1.7023 -0.7346  1.5774
  794SOL    HW2 2382   3.091   0.270   2.421 -0.2066 -0.3837  2.0037
  795SOL     OW 2383   0.446   1.729   0.096 -1.0639  0.7977 -0.2484
  795SOL    HW1 2384   0.464   1.672   0.177 -0.3080 -3.1551 -2.8745
  795SOL    HW2 2385   0.349   1.735   0.072  5.1336  1.9044  1.3136
  796SOL     OW 2386   2.874   0.744   3.022 -0.2169 -0.2529 -0.3038
  796SOL    HW1 2387   2.898   0.650   2.986 -0.9940 -2.2263 -0.5495
  796SOL    HW2 2388   2.821   0.730   3.108 -1.0934 -3.7599  0.9276
  797SOL     OW 2389   2.162   2.609   2.467 -0.3737 -0.3146 -0.0988
  797SOL    HW1 2390   2.128   2.526   2.416 -0.0355  0.2874 -1.0613
  797SOL    HW2 2391   2.263   2.625   2.444 -0.3896 -2.6363 -2.9867
  798SOL     OW 2392   2.974   3.117   0.731 -0.0449 -0.0326  0.3994
  798SOL    HW1 2393   3.074   3.095   0.721 -0.2692 -0.8130 -0.8572
  798SOL    HW2 2394   2.955   0.060   0.802 -1.1128  0.6288  1.8369
  799SOL     OW 2395   2.899   0.610   1.853  0.1034 -0.2373 -0.3711
  799SOL    HW1 2396   2.984   0.638   1.800  2.1985 -1.4857  0.3607
  799SOL    HW2 2397   2.880   0.684   1.922  0.2628 -0.0492  0.1478
  800SOL     OW 2398   0.445   1.661   0.386  0.7365 -0.3150  0.3294
  800SOL    HW1 2399   0.425   1.561   0.372 -1.5710 -0.1234  1.0266
  800SOL    HW2 2400   0.358   1.715   0.405 -2.6020  0.4519 -1.1328
  801SOL     OW 2401   1.829   1.857   0.688  0.1051  0.0295 -0.4764
  801SOL    HW1 2402   1.900   1.906   0.636  0.4113  0.2491  1.8765
  801SOL    HW2 2403   1.740   1.911   0.692  0.5084  1.2503  2.4235
  802SOL     OW 2404   1.403   1.001   2.966  0.3006  0.2147  0.0397
  802SOL    HW1 2405   1.377   0.969   2.873 -1.4575 -1.2413 -0.9116
  802SOL    HW2 2406   1.449   0.928   3.020  0.8094 -0.6322  3.3131
  803SOL     OW 2407   1.221   1.860   1.968  0.0300  0.6094 -0.2630
  803SOL    HW1 2408   1.226   1.776   2.026 -1.0117  0.2533 -1.0520
  803SOL    HW2 2409   1.122   1.877   1.947  1.1246 -0.7343  0.6774
  804SOL     OW 2410   1.605   2.530   0.688 -0.7241  0.4031 -0.3762
  804SOL    HW1 2411   1.696   2.489   0.709  2.0238 -2.6071  1.9981
  804SOL    HW2 2412   1.527   2.467   0.716 -1.3941 -1.6946  2.4090
  805SOL     OW 2413   3.115   2.413   2.202 -0.5946  0.4255 -0.3993
  805SOL    HW1 2414   3.037   2.385   2.144  0.1359  1.2745  0.8673
  805SOL    HW2 2415   0.073   2.391   2.164 -2.7791 -0.0278 -0.3355
  806SOL     OW 2416   2.986   3.091   0.270 -0.1412  0.0044  0.6804
  806SOL    HW1 2417   2.920   3.042   0.330 -0.3229  1.2093 -0.7792
  806SOL    HW2 2418   2.947   3.116   0.177 -0.0143  1.7602 -0.1980
  807SOL     OW 2419   2.446   0.885   2.811  0.4448  0.1085  0.6323
  807SOL    HW1 2420   2.494   0.815   2.862  0.0626  0.5378 -0.5750
  807SOL    HW2 2421   2.392   0.945   2.873 -2.4181 -0.5343  0.2437
  808SOL     OW 2422   1.243   2.729   0.883 -0.0520 -0.3853  0.0584
  808SOL    HW1 2423   1.227   2.662   0.961  4.4835 -2.1893  1.3341
  808SOL    HW2 2424   1.307   2.801   0.916  1.2001  0.8617  1.4029
  809SOL     OW 2425   2.798   0.093   0.061  0.1677 -0.0495  0.4588
  809SOL    HW1 2426   2.784   0.035   3.109 -1.1383  0.3451  2.3287
  809SOL    HW2 2427   2.846   0.182   0.034 -0.0496  1.4927 -2.7966
  810SOL     OW 2428   1.404   1.165   0.886  0.4346 -0.5763  0.5509
  810SOL    HW1 2429   1.304   1.186   0.885  0.7491 -0.4538 -0.9051
  810SOL    HW2 2430   1.432   1.131   0.794  2.5128 -0.5308 -1.0135
  811SOL     OW 2431   1.779   2.836   1.573 -0.1027 -0.3435  0.3288
  811SOL    HW1 2432   1.784   2.938   1.555  0.4843 -0.2259 -1.6835
  811SOL    HW2 2433   1.754   2.818   1.672  1.6130 -0.6927  1.6146
  812SOL     OW 2434   1.550   0.200   0.297  0.4173  0.0513  0.4957
  812SOL    HW1 2435   1.606   0.200   0.383 -0.9474  0.7315 -1.8748
  812SOL    HW2 2436   1.475   0.132   0.312 -1.6581 -0.8687 -1.0189
  813SOL     OW 2437   0.978   3.078   2.204 -0.1509  0.0025 -0.0473
  813SOL    HW1 2438   0.897   3.034   2.163  0.5443  1.9126 -2.0059
  813SOL    HW2 2439   1.018   0.009   2.130 -3.1283  1.1498 -2.9507
  814SOL     OW 2440   0.332   0.062   1.091 -0.2581  0.4515  0.6896
  814SOL    HW1 2441   0.407   0.042   1.026  0.0079 -0.7423 -0.5605
  814SOL    HW2 2442   0.252   0.110   1.044  0.0673  0.9045  0.5310
  815SOL     OW 2443   0.330   2.805   0.799 -0.4171  0.5744  0.3073
  815SOL    HW1 2444   0.245   2.839   0.756  4.2644 -1.6083  0.7351
  815SOL    HW2 2445   0.382   2.742   0.730  4.5204 -1.7357 -0.0227
  816SOL     OW 2446   2.520   1.475   2.686  0.2716  0.2597 -0.5036
  816SOL    HW1 2447   2.475   1.386   2.697  1.7665 -0.7435 -2.0827
  816SOL    HW2 2448   2.479   1.526   2.608 -0.7590 -0.3211 -2.5908
  817SOL     OW 2449   1.510   2.667   2.870 -0.0008 -0.0036 -0.2179
  817SOL    HW1 2450   1.529   2.570   2.893 -1.7803  0.2482 -0.3738
  817SOL    HW2 2451   1.565   2.706   2.792  1.1414 -0.5210 -0.9045
  818SOL     OW 2452   1.456   1.030   0.424 -0.0343 -0.1378 -0.1264
  818SOL    HW1 2453   1.442   1.130   0.420 -1.7217 -0.8830  2.7897
  818SOL    HW2 2454   1.393   0.994   0.352 -2.1080 -1.1449 -0.9102
  819SOL     OW 2455   2.061   2.281   2.848  0.3799  0.2326  0.2665
  819SOL    HW1 2456   1.967   2.296   2.822  0.7645  0.1995  1.0528
  819SOL    HW2 2457   2.116   2.359   2.816  1.7774 -0.3312 -0.3293
  820SOL     OW 2458   0.902   0.670   0.111  0.4985  0.4843 -0.0946
  820SOL    HW1 2459   0.837   0.711   0.042 -1.2128 -0.7366  0.6507
  820SOL    HW2 2460   0.912   0.568   0.109  3.5031 -0.3934  1.2935
  821SOL     OW 2461   0.696   0.390   1.397 -0.2876  0.0199 -0.8032
  821SOL    HW1 2462   0.760   0.347   1.333  0.2963 -1.3072  1.1049
  821SOL    HW2 2463   0.657   0.480   1.361  0.2973  1.6960  0.6556
  822SOL     OW 2464   1.419   2.561   2.392  0.5799  0.1883  0.0731
  822SOL    HW1 2465   1.458   2.467   2.406  2.9778 -0.0236 -0.2692
  822SOL    HW2 2466   1.342   2.561   2.322 -1.3862  2.0840  0.2644
  823SOL     OW 2467   0.801   0.977   2.105  0.3712  0.3498 -0.4839
  823SOL    HW1 2468   0.855   1.030   2.033  3.7010  0.2275 -2.2405
  823SOL    HW2 2469   0.768   1.042   2.179 -2.8611 -0.4402  0.1028
  824SOL     OW 2470   2.541   3.105   1.908 -0.3890 -0.8300  0.0352
  824SOL    HW1 2471   2.558   3.017   1.954  2.3720  1.6073 -1.6610
  824SOL    HW2 2472   2.608   3.119   1.833 -2.3106 -0.1695 -2.1891
  825SOL     OW 2473   0.784   1.321   0.179 -0.5126 -0.1284  0.2555
  825SOL    HW1 2474   0.849   1.244   0.165 -0.4578 -1.8921 -1.1250
  825SOL    HW2 2475   0.809   1.396   0.116 -0.1634 -0.1595 -0.1163
  826SOL     OW 2476   2.021   0.506   2.556 -0.2360 -0.4071 -0.0846
  826SOL    HW1 2477   1.935   0.458   2.523 -2.3335  1.4460 -3.0453
  826SOL    HW2 2478   2.100   0.443   2.559  1.4380  2.0081 -2.1542
  827SOL     OW 2479   0.760   2.138   2.716 -0.4694  0.0094  0.1088
  827SOL    HW1 2480   0.704   2.064   2.665  0.1946 -2.0294 -1.1304
  827SOL    HW2 2481   0.740   2.134   2.817 -0.0058  0.1333 -0.0306
  828SOL     OW 2482   2.746   0.040   1.415  0.0340 -0.2335 -0.3025
  828SOL    HW1 2483   2.725   0.069   1.323 -0.0402 -1.0313  1.7535
  828SOL    HW2 2484   2.796   0.118   1.457  0.9690 -0.9478 -1.9417
  829SOL     OW 2485   1.306   1.699   1.472  0.5310 -0.5534  0.3466
  829SOL    HW1 2486   1.324   1.612   1.523 -0.2169  0.1886  0.1541
  829SOL    HW2 2487   1.235   1.759   1.515 -2.2515  3.0846 -0.3670
  830SOL     OW 2488   0.378   0.954   1.891  0.3017 -0.1365  0.0277
  830SOL    HW1 2489   0.423   0.879   1.845 -1.8621  2.3422 -1.5426
  830SOL    HW2 2490   0.294   0.964   1.833 -4.1390 -0.0282 -1.6654
  831SOL     OW 2491   0.092   1.980   0.208  0.1846 -0.6298 -0.1027
  831SOL    HW1 2492   0.005   2.034   0.184  1.8270  3.3270  0.7276
  831SOL    HW2 2493   0.172   2.035   0.176  1.2194  2.4488  1.5137
  832SOL     OW 2494   0.874   3.080   2.763 -0.6962  0.4835 -0.1142
  832SOL    HW1 2495   0.968   3.087   2.794 -1.9908 -1.9701 -0.3341
  832SOL    HW2 2496   0.821   3.042   2.842 -0.1036 -1.3962  0.3883
  833SOL     OW 2497   0.042   0.310   2.076  0.0790  0.4118  0.0106
  833SOL    HW1 2498   0.067   0.237   2.148 -1.0363 -2.4616  2.7200
  833SOL    HW2 2499   0.036   0.401   2.123  0.4414  1.2115  0.8850
  834SOL     OW 2500   0.250   0.613   1.131 -0.4804 -0.7064 -0.4043
  834SOL    HW1 2501   0.278   0.707   1.101  0.0300 -0.1330 -1.2745
  834SOL    HW2 2502   0.156   0.586   1.098 -0.0339 -0.6985  2.3442
  835SOL     OW 2503   2.631   2.914   1.066 -0.6413  0.0476  0.9471
  835SOL    HW1 2504   2.601   2.982   0.995  2.0773 -1.3085 -1.1565
  835SOL    HW2 2505   2.735   2.893   1.063 -0.4655 -0.2896  1.8647
  836SOL     OW 2506   0.765   1.882   2.906 -0.0610 -0.5074 -0.2139
  836SOL    HW1 2507   0.716   1.956   2.952  0.4002  1.4841  2.4666
  836SOL    HW2 2508   0.862   1.906   2.889  1.6916  0.4327  0.4538
  837SOL     OW 2509   2.245   2.092   2.889  0.3913  0.7472 -0.1249
  837SOL    HW1 2510   2.176   2.165   2.864  2.8759  0.1300 -0.8217
  837SOL    HW2 2511   2.312   2.089   2.816  0.6366 -0.6275  2.7491
  838SOL     OW 2512   2.989   1.219   2.193 -0.1810  0.0888  0.1048
  838SOL    HW1 2513   2.903   1.169   2.224  0.0140 -1.7343  0.4056
  838SOL    HW2 2514   3.030   1.172   2.113  0.3699 -3.4190 -1.4739
  839SOL     OW 2515   0.959   1.116   0.049 -0.1312  0.6038  0.4359
  839SOL    HW1 2516   0.930   1.158   3.093 -0.9872 -2.0876 -0.6086
  839SOL    HW2 2517   1.054   1.080   0.048 -0.5395  0.9993  2.7106
  840SOL     OW 2518   1.627   0.611   0.435 -0.3361  0.3134 -0.5739
  840SOL    HW1 2519   1.660   0.708   0.445  0.8962  2.0559 -0.4680
  840SOL    HW2 2520   1.537   0.591   0.477  1.5781  0.9651  2.0060
  841SOL     OW 2521   0.719   2.988   0.767  0.0440 -0.1475 -0.0171
  841SOL    HW1 2522   0.776   2.912   0.728  1.6042  1.3877  0.3517
  841SOL    HW2 2523   0.746   3.082   0.735 -1.1576  2.2547 -2.2943
  842SOL     OW 2524   0.116   0.392   0.212  0.1393  0.2234 -0.0047
  842SOL    HW1 2525   0.059   0.466   0.168 -0.2601  0.3287 -0.4200
  842SOL    HW2 2526   0.174   0.434   0.282 -2.4082  0.7724  0.0229
  843SOL     OW 2527   0.587   0.383   1.809 -0.8304  0.1644  0.5741
  843SOL    HW1 2528   0.620   0.478   1.829  0.7276 -2.2024  0.6457
  843SOL    HW2 2529   0.519   0.390   1.729 -2.5812 -0.0765  0.3819
  844SOL     OW 2530   1.967   2.639   2.783 -0.4248  0.1546 -0.2173
  844SOL    HW1 2531   1.924   2.717   2.827 -0.1488 -2.3424  0.9249
  844SOL    HW2 2532   2.043   2.596   2.843  3.6137 -2.1239  1.3375
  845SOL     OW 2533   2.903   0.147   2.110 -0.0672  0.0105  0.0471
  845SOL    HW1 2534   2.843   0.113   2.182  0.5509  2.8531 -0.3866
  845SOL    HW2 2535   2.943   0.239   2.138 -0.9710  0.8202  1.0224
  846SOL     OW 2536   1.875   1.843   2.634 -0.1593  0.1282  0.1096
  846SOL    HW1 2537   1.893   1.770   2.709  1.4635 -1.4995 -2.0365
  846SOL    HW2 2538   1.956   1.855   2.568  2.3510  0.1613 -2.6120
  847SOL     OW 2539   2.073   2.810   2.093 -0.2673  0.6093  0.2862
  847SOL    HW1 2540   2.070   2.903   2.048  3.8197 -1.6626 -0.4355
  847SOL    HW2 2541   1.980   2.786   2.131  1.9405 -1.9447  0.2991
  848SOL     OW 2542   0.389   2.817   0.358 -0.5018  0.0929 -0.0759
  848SOL    HW1 2543   0.324   2.891   0.384  0.1169  1.8792 -1.0308
  848SOL    HW2 2544   0.365   2.796   0.260  2.1316 -0.7896  2.4356
  849SOL     OW 2545   0.666   2.625   1.282  0.7637 -0.3051 -0.0166
  849SOL    HW1 2546   0.715   2.623   1.372  0.7221  1.5167  1.1759
  849SOL    HW2 2547   0.723   2.676   1.211  0.8509  1.5998 -0.3241
  850SOL     OW 2548   0.059   1.476   0.968 -0.2649 -0.1593 -0.1051
  850SOL    HW1 2549   3.098   1.496   0.932  0.8391 -0.3547  3.7299
  850SOL    HW2 2550   0.112   1.560   0.997 -0.0147  0.5037  1.1992
  851SOL     OW 2551   0.016   0.725   2.917  0.3364 -0.7109  0.6473
  851SOL    HW1 2552   0.018   0.824   2.944  0.4970  0.6409  1.5100
  851SOL    HW2 2553   0.107   0.704   2.873  4.0288 -0.3938  2.8700
  852SOL     OW 2554   1.551   2.318   2.410 -0.3768  0.0736 -0.1054
  852SOL    HW1 2555   1.545   2.221   2.383  0.7525  1.3485 -1.2201
  852SOL    HW2 2556   1.627   2.337   2.477 -0.5569  0.6106 -0.7596
  853SOL     OW 2557   0.793   1.945   0.730  0.2081 -0.1145  0.1533
  853SOL    HW1 2558   0.756   1.978   0.822  2.5343 -1.6878  0.6612
  853SOL    HW2 2559   0.731   1.876   0.689 -3.5825  3.1548  0.3388
  854SOL     OW 2560   1.635   1.151   1.718  0.6173 -0.1443 -0.3578
  854SOL    HW1 2561   1.680   1.192   1.641  0.4974 -3.0654  2.6110
  854SOL    HW2 2562   1.557   1.091   1.692  2.1021 -3.7477 -1.3730
  855SOL     OW 2563   0.424   2.025   0.108 -0.1881  0.2592 -0.5274
  855SOL    HW1 2564   0.413   1.924   0.104 -0.5728  1.3413  1.4127
  855SOL    HW2 2565   0.402   2.064   0.015  0.4542 -1.8141 -0.7781
  856SOL     OW 2566   0.106   0.119   1.622  0.2154  0.0886 -0.0983
  856SOL    HW1 2567   0.070   0.040   1.568 -2.6364 -0.5745  0.1548
  856SOL    HW2 2568   0.028   0.177   1.654 -1.6449 -1.8736 -2.9933
  857SOL     OW 2569   0.572   0.203   2.013 -0.5269  0.5879 -0.0609
  857SOL    HW1 2570   0.533   0.260   2.088 -0.9142  0.1272 -1.7661
  857SOL    HW2 2571   0.566   0.259   1.927 -0.8382 -0.1408  0.4583
  858SOL     OW 2572   2.956   2.139   2.449 -0.7826  0.5047 -0.2698
  858SOL    HW1 2573   2.941   2.111   2.349 -1.3181 -1.1464 -0.4581
  858SOL    HW2 2574   2.979   2.238   2.455 -1.5493 -0.8355 -0.0877
  859SOL     OW 2575   2.048   2.576   0.694  0.1195  0.5583  0.1893
  859SOL    HW1 2576   2.111   2.530   0.763 -0.0652 -1.5394  1.7312
  859SOL    HW2 2577   1.975   2.626   0.743  0.0647  1.0715 -4.7261
  860SOL     OW 2578   1.885   0.536   0.502 -0.4841 -0.7044  0.0184
  860SOL    HW1 2579   1.895   0.519   0.597  1.8916 -1.4395 -4.2818
  860SOL    HW2 2580   1.787   0.557   0.487  1.3509  1.6228  0.5479
  861SOL     OW 2581   0.363   0.377   1.085 -0.1698  0.0834  0.0842
  861SOL    HW1 2582   0.321   0.469   1.081 -2.2724 -0.3834  2.3839
  861SOL    HW2 2583   0.373   0.350   1.182 -1.7062  1.0499  3.6549
  862SOL     OW 2584   2.238   0.733   1.724  0.2843  0.4204 -0.0098
  862SOL    HW1 2585   2.220   0.643   1.676 -1.1861 -1.7210 -0.6829
  862SOL    HW2 2586   2.217   0.809   1.660  0.3894  0.5813 -0.8661
  863SOL     OW 2587   0.535   1.481   1.242  0.2359  0.0131 -0.9624
  863SOL    HW1 2588   0.572   1.483   1.149  1.0234 -2.5379  0.0925
  863SOL    HW2 2589   0.439   1.509   1.230 -0.7954  1.5059 -0.2915
  864SOL     OW 2590   2.499   0.136   2.139 -0.7282  0.1525 -0.8510
  864SOL    HW1 2591   2.477   0.120   2.039 -1.6696  1.0158 -1.5833
  864SOL    HW2 2592   2.454   0.067   2.198  0.6943  1.5533  2.0845
  865SOL     OW 2593   1.538   0.574   1.895 -0.0622  0.1367  0.1166
  865SOL    HW1 2594   1.525   0.539   1.801  1.0565  2.8108 -0.4289
  865SOL    HW2 2595   1.613   0.523   1.944  0.4145 -2.6956  1.1948
  866SOL     OW 2596   2.531   3.061   0.850 -0.3650 -0.0407  0.4288
  866SOL    HW1 2597   2.492   2.980   0.804  0.4049  0.6359 -1.3481
  866SOL    HW2 2598   2.570   3.128   0.781  1.0060 -3.4891 -1.6456
  867SOL     OW 2599   2.606   2.674   0.651  0.1416 -0.1433 -0.0028
  867SOL    HW1 2600   2.667   2.755   0.675 -0.2430  0.6007 -0.8059
  867SOL    HW2 2601   2.507   2.700   0.653 -1.7210  3.8224  0.5414
  868SOL     OW 2602   1.525   1.614   2.715 -0.4325 -0.0371  0.3097
  868SOL    HW1 2603   1.442   1.674   2.727 -1.9899  0.7461  0.1650
  868SOL    HW2 2604   1.563   1.592   2.807  3.0187 -2.3227  1.9365
  869SOL     OW 2605   2.324   1.833   0.697 -0.0217 -0.0709  0.0334
  869SOL    HW1 2606   2.318   1.856   0.600  2.3115  0.2507  0.2857
  869SOL    HW2 2607   2.300   1.916   0.747 -0.4237 -1.7056 -1.7775
  870SOL     OW 2608   2.681   1.849   0.377  0.3696  0.3285  0.1793
  870SOL    HW1 2609   2.756   1.781   0.350  1.1102 -0.2858 -1.7825
  870SOL    HW2 2610   2.679   1.932   0.317 -0.8192  1.5420  1.2243
  871SOL     OW 2611   0.174   0.967   1.720 -0.0193 -0.2621  0.3685
  871SOL    HW1 2612   0.206   0.948   1.624 -0.9376  2.8222 -2.6842
  871SOL    HW2 2613   0.096   1.038   1.718  1.2993  0.8447 -1.6419
  872SOL     OW 2614   0.169   1.898   2.185  0.3127 -0.1555  0.4620
  872SOL    HW1 2615   0.108   1.817   2.184 -0.7422  0.7615 -0.3936
  872SOL    HW2 2616   0.265   1.874   2.153  1.7367 -2.0522 -1.1789
  873SOL     OW 2617   0.111   2.624   1.419 -0.5050 -0.1104  0.4223
  873SOL    HW1 2618   0.144   2.544   1.368 -0.4802  2.1018  0.9614
  873SOL    HW2 2619   0.038   2.597   1.483  1.7489  0.0647  2.5228
  874SOL     OW 2620   0.913   0.771   2.243 -0.5381 -0.0722 -0.2995
  874SOL    HW1 2621   0.869   0.844   2.183 -0.2259 -0.6614 -0.5762
  874SOL    HW2 2622   0.969   0.702   2.186 -0.1589 -1.6459  0.8616
  875SOL     OW 2623   2.916   2.926   1.004  0.0267  0.4882  0.9753
  875SOL    HW1 2624   2.909   2.853   0.930 -0.8156 -2.9265 -0.7548
  875SOL    HW2 2625   3.006   2.925   1.060  2.8145  1.0678 -0.6477
  876SOL     OW 2626   1.206   1.173   0.470 -0.0610 -0.3040 -0.1744
  876SOL    HW1 2627   1.158   1.195   0.554  1.1048 -1.7323 -2.4796
  876SOL    HW2 2628   1.284   1.231   0.446 -2.3300 -0.3257  2.1152
  877SOL     OW 2629   1.143   0.581   1.165  0.0430  0.1133 -0.1281
  877SOL    HW1 2630   1.043   0.605   1.143 -3.8635  0.6251 -1.7572
  877SOL    HW2 2631   1.202   0.585   1.085 -5.1377  0.8628  1.4158
  878SOL     OW 2632   2.378   1.898   0.042 -0.5252 -0.1609 -0.3922
  878SOL    HW1 2633   2.288   1.873   3.124 -1.5365  0.3888  0.4052
  878SOL    HW2 2634   2.386   1.999   0.035  0.2120 -1.3027 -0.6811
  879SOL     OW 2635   2.494   2.142   1.732  0.0870 -0.5176 -0.5679
  879SOL    HW1 2636   2.575   2.101   1.774 -2.2014  0.1107 -1.3589
  879SOL    HW2 2637   2.469   2.232   1.778 -0.6164  1.7293  1.8233
  880SOL     OW 2638   1.246   2.263   1.111 -0.2166 -0.1446 -0.0447
  880SOL    HW1 2639   1.301   2.331   1.162 -1.0304 -3.9339 -0.9111
  880SOL    HW2 2640   1.219   2.187   1.174 -1.5730 -1.3786 -1.8322
  881SOL     OW 2641   1.025   2.037   0.628  0.0401  0.4185  0.1927
  881SOL    HW1 2642   1.062   2.126   0.670 -0.5068 -1.5518 -0.1076
  881SOL    HW2 2643   0.955   1.999   0.687 -2.7441  1.4206  0.4036
  882SOL     OW 2644   1.899   1.645   2.831 -0.0320  0.0927 -0.0661
  882SOL    HW1 2645   1.888   1.550   2.796 -2.2020 -3.0932 -1.1533
  882SOL    HW2 2646   1.990   1.658   2.875 -1.1024 -2.0824 -0.0638
  883SOL     OW 2647   1.539   0.739   1.294 -1.0103  0.0329  0.0736
  883SOL    HW1 2648   1.528   0.814   1.222  1.3614 -0.0127 -0.0405
  883SOL    HW2 2649   1.564   0.644   1.264 -0.3493  0.0098  1.1211
  884SOL     OW 2650   2.995   2.763   0.782 -0.1365 -0.2862 -0.8744
  884SOL    HW1 2651   2.907   2.795   0.741  2.0026  0.6126 -0.2387
  884SOL    HW2 2652   3.074   2.797   0.730 -0.1209 -3.1313 -1.3706
  885SOL     OW 2653   0.738   1.408   2.017 -0.1766  0.2103 -0.1396
  885SOL    HW1 2654   0.638   1.391   2.029  0.2605 -3.4667 -0.7697
  885SOL    HW2 2655   0.802   1.330   2.005  0.7495 -2.9825 -0.5945
  886SOL     OW 2656   0.972   1.389   2.540 -0.1128  0.0810 -0.1375
  886SOL    HW1 2657   0.960   1.380   2.640 -1.7882  0.5754 -0.4353
  886SOL    HW2 2658   0.977   1.302   2.487  2.1467  1.8126 -1.9978
  887SOL     OW 2659   1.631   0.204   1.095 -0.0502  0.0348  0.5273
  887SOL    HW1 2660   1.682   0.221   1.014  1.2914  2.7590 -0.4920
  887SOL    HW2 2661   1.540   0.249   1.075 -0.3444  0.9471  1.6771
  888SOL     OW 2662   2.066   0.723   2.237 -0.1613 -0.3018 -0.1488
  888SOL    HW1 2663   2.104   0.797   2.297 -0.0289 -0.1157  1.2165
  888SOL    HW2 2664   2.123   0.637   2.245 -3.0067  0.2418  1.3367
  889SOL     OW 2665   2.929   1.959   0.928 -0.1951  0.2288  0.0042
  889SOL    HW1 2666   3.004   1.945   0.998 -1.2456 -1.1867  0.7673
  889SOL    HW2 2667   2.844   1.997   0.969 -2.9993  1.4127 -0.0627
  890SOL     OW 2668   1.052   2.244   0.240 -0.1190 -0.0623 -0.2452
  890SOL    HW1 2669   1.018   2.321   0.297  1.4592 -1.2502 -0.5289
  890SOL    HW2 2670   1.060   2.158   0.298  1.6903 -1.6080 -1.3354
  891SOL     OW 2671   2.749   0.616   2.772  0.6980 -0.0384  0.0638
  891SOL    HW1 2672   2.842   0.642   2.790 -3.7950 -0.2375 -0.4558
  891SOL    HW2 2673   2.733   0.624   2.671  2.6365 -0.8838  0.4539
  892SOL     OW 2674   2.988   2.213   1.030  0.3373 -0.6945 -0.1986
  892SOL    HW1 2675   3.083   2.241   1.059 -2.3579 -0.3154  0.6128
  892SOL    HW2 2676   2.987   2.114   0.994 -1.1506 -3.5649 -0.4025
  893SOL     OW 2677   1.351   0.254   1.043  0.2194 -0.5334  0.7318
  893SOL    HW1 2678   1.284   0.204   0.982 -0.1064 -0.7142  0.1312
  893SOL    HW2 2679   1.310   0.267   1.136  2.3732  0.4502  0.0602
  894SOL     OW 2680   2.887   0.327   0.970 -0.1399 -0.3287 -0.7120
  894SOL    HW1 2681   2.906   0.337   0.870  1.8646  0.7956  0.9498
  894SOL    HW2 2682   2.913   0.235   1.009  0.4475 -0.5080 -0.9741
  895SOL     OW 2683   1.626   1.849   2.576  0.2675 -0.6966  0.4142
  895SOL    HW1 2684   1.725   1.868   2.606 -0.8834 -0.3233  2.3915
  895SOL    HW2 2685   1.581   1.781   2.632  3.2834  1.2205  0.3887
  896SOL     OW 2686   1.953   0.908   1.429  0.1227  0.3166 -0.9626
  896SOL    HW1 2687   2.019   0.893   1.507  0.5095 -0.4302  0.4486
  896SOL    HW2 2688   1.958   0.830   1.358  0.4056  0.7563  1.0649
  897SOL     OW 2689   0.352   1.040   1.236 -0.3373  0.9153 -0.4116
  897SOL    HW1 2690   0.380   1.128   1.283 -0.5101 -1.3447 -0.6952
  897SOL    HW2 2691   0.334   0.983   1.314  2.4663  2.8977 -4.0296
  898SOL     OW 2692   1.660   2.591   2.247 -0.2259  0.3291 -0.5122
  898SOL    HW1 2693   1.570   2.597   2.301 -1.2433 -0.4721 -0.1684
  898SOL    HW2 2694   1.641   2.548   2.154  1.7647  1.8623  0.4912
  899SOL     OW 2695   1.339   1.733   0.930 -0.3114 -0.3516  0.1650
  899SOL    HW1 2696   1.384   1.744   1.025  0.5148  0.1463 -1.9627
  899SOL    HW2 2697   1.310   1.820   0.889  1.5072  0.1326  0.8043
  900SOL     OW 2698   0.798   2.609   2.367 -0.4221 -0.5346  0.1040
  900SOL    HW1 2699   0.786   2.520   2.409  0.5793 -0.6393  1.1134
  900SOL    HW2 2700   0.871   2.660   2.416  1.4563  0.3694 -1.5482
  901SOL     OW 2701   0.824   1.592   2.413  0.1161  0.0436 -0.0879
  901SOL    HW1 2702   0.737   1.621   2.458 -1.1293 -0.5919  0.2338
  901SOL    HW2 2703   0.879   1.529   2.476  1.5771 -2.3646  3.3730
  902SOL     OW 2704   2.300   1.009   3.019  0.5359  0.0525  0.2429
  902SOL    HW1 2705   2.253   1.084   2.974 -3.2839 -2.5713 -0.7652
  902SOL    HW2 2706   2.231   0.948   3.062  0.7115 -0.7693 -0.6968
  903SOL     OW 2707   1.872   1.394   2.753 -0.2372 -0.1037  0.2499
  903SOL    HW1 2708   1.818   1.343   2.822  1.9091  0.8579  2.2989
  903SOL    HW2 2709   1.850   1.362   2.661 -2.2946  0.8454  2.2416
  904SOL     OW 2710   1.400   0.956   1.979 -0.2244  0.4510  0.1259
  904SOL    HW1 2711   1.329   0.918   1.919  0.2934 -0.4555  1.2556
  904SOL    HW2 2712   1.383   0.969   2.080  1.5892  0.5117  2.2511
  905SOL     OW 2713   2.661   0.402   1.088 -0.0745 -0.2276 -0.3840
  905SOL    HW1 2714   2.741   0.351   1.053 -2.2377  1.4082  0.8839
  905SOL    HW2 2715   2.595   0.427   1.008  0.8113 -0.0568  0.3520
  906SOL     OW 2716   0.404   1.332   0.830  0.2026 -0.1037 -0.1335
  906SOL    HW1 2717   0.456   1.315   0.751 -3.9760  1.7485  0.2730
  906SOL    HW2 2718   0.304   1.332   0.804  3.7451 -3.3299 -0.3219
  907SOL     OW 2719   1.321   0.093   0.406 -0.3383  0.1859 -0.2428
  907SOL    HW1 2720   1.265   0.146   0.339  0.1056  2.4012 -2.2469
  907SOL    HW2 2721   1.337   0.157   0.485 -2.6494  1.1862  0.4551
  908SOL     OW 2722   1.257   2.876   1.490  0.2206  0.1766 -0.5107
  908SOL    HW1 2723   1.281   2.799   1.427  0.3502  0.4944  0.3755
  908SOL    HW2 2724   1.186   2.939   1.452  0.8839  1.2826 -1.5451
  909SOL     OW 2725   2.489   0.778   1.897  0.4838  0.4291  0.3203
  909SOL    HW1 2726   2.484   0.699   1.962 -1.5140 -2.2809 -2.0271
  909SOL    HW2 2727   2.410   0.767   1.832  1.2564  0.2782 -0.7057
  910SOL     OW 2728   1.445   3.045   2.327 -0.4040  0.0470 -0.3260
  910SOL    HW1 2729   1.431   3.094   2.411  1.7417 -0.3544 -2.3109
  910SOL    HW2 2730   1.361   3.001   2.288  0.2101 -1.4746 -0.3997
  911SOL     OW 2731   2.391   1.613   2.488  0.4413 -0.3057 -0.6691
  911SOL    HW1 2732   2.448   1.628   2.404 -2.1955 -0.1471 -1.0748
  911SOL    HW2 2733   2.319   1.546   2.464 -0.4712 -0.3738  0.1983
  912SOL     OW 2734   2.209   2.342   1.313  0.1254  0.8651  0.3677
  912SOL    HW1 2735   2.305   2.350   1.299 -1.7810  0.7396 -1.2024
  912SOL    HW2 2736   2.192   2.277   1.386 -1.4406  4.2472 -0.4914
  913SOL     OW 2737   2.463   2.419   1.802  0.1075  0.7247 -0.0676
  913SOL    HW1 2738   2.546   2.469   1.789 -0.2048 -0.9883  0.9237
  913SOL    HW2 2739   2.380   2.445   1.745 -0.7626  2.0572  1.9399
  914SOL     OW 2740   2.051   2.194   0.937  0.2095 -0.0283  0.6920
  914SOL    HW1 2741   2.023   2.226   1.026  1.7315  1.3862  1.7102
  914SOL    HW2 2742   2.017   2.100   0.930 -3.0683  2.9496 -1.8030
  915SOL     OW 2743   0.945   2.529   1.833 -0.0465  0.3736 -0.8402
  915SOL    HW1 2744   0.968   2.452   1.896  0.8914  0.2888  1.8123
  915SOL    HW2 2745   1.020   2.541   1.768 -0.8390  0.0808 -1.7896
  916SOL     OW 2746   0.174   2.109   1.101  0.7573  0.5526 -0.5058
  916SOL    HW1 2747   0.187   2.194   1.046  1.0771  0.4442  1.3297
  916SOL    HW2 2748   0.249   2.047   1.088  0.2949 -0.0793  1.0011
  917SOL     OW 2749   2.667   1.134   2.833  0.1387 -0.2451 -0.7767
  917SOL    HW1 2750   2.641   1.040   2.802 -0.1203 -2.8487 -0.3490
  917SOL    HW2 2751   2.750   1.170   2.787 -1.3967 -2.2891  3.7977
  918SOL     OW 2752   1.485   2.116   2.696 -0.6519  0.4176 -0.1378
  918SOL    HW1 2753   1.536   2.034   2.720 -2.2569 -0.6171 -1.8093
  918SOL    HW2 2754   1.478   2.121   2.597  1.7528  0.5260  3.1110
  919SOL     OW 2755   1.836   2.440   0.956 -0.2992 -0.3924 -0.6607
  919SOL    HW1 2756   1.842   2.394   0.861  0.8984 -0.4750  0.0107
  919SOL    HW2 2757   1.898   2.387   1.019  0.9513 -0.9387 -2.5912
  920SOL     OW 2758   1.113   0.522   2.823 -0.1690  0.4520  0.0154
  920SOL    HW1 2759   1.191   0.480   2.765  0.4792  0.0168  0.9205
  920SOL    HW2 2760   1.127   0.622   2.841  1.1156  3.2795 -0.7254
  921SOL     OW 2761   3.121   3.099   2.661  0.8652  0.3570 -0.2175
  921SOL    HW1 2762   0.026   3.083   2.567 -1.0493 -0.5680 -1.6272
  921SOL    HW2 2763   0.057   3.047   2.722 -0.3414 -2.2582 -3.7521
  922SOL     OW 2764   2.364   1.675   1.823 -0.1623 -0.4402 -0.5785
  922SOL    HW1 2765   2.396   1.730   1.746 -1.2405 -2.7678 -1.7072
  922SOL    HW2 2766   2.333   1.585   1.788  3.0770  1.8007  0.4590
  923SOL     OW 2767   0.232   1.765   2.691 -0.2035  0.0727  0.3092
  923SOL    HW1 2768   0.152   1.781   2.630 -0.6215  1.9603  0.3230
  923SOL    HW2 2769   0.218   1.816   2.780 -1.3795 -2.1793 -1.1064
  924SOL     OW 2770   1.757   0.299   2.309 -0.6901 -0.4800 -0.1028
  924SOL    HW1 2771   1.744   0.212   2.360 -1.2997  1.1951 -0.4143
  924SOL    HW2 2772   1.714   0.375   2.360 -0.3394 -1.4472  2.2889
  925SOL     OW 2773   2.917   0.999   3.106 -0.6233  0.1960  0.0222
  925SOL    HW1 2774   2.894   0.905   3.072 -0.8569  0.2609  0.6844
  925SOL    HW2 2775   2.868   1.022   0.066 -0.2347 -0.1919  2.8129
  926SOL     OW 2776   2.924   0.362   0.710 -0.3646 -0.1170  0.6575
  926SOL    HW1 2777   2.914   0.288   0.635  1.7982 -4.6074 -0.9805
  926SOL    HW2 2778   2.899   0.454   0.673 -0.1889  3.3037  2.4545
  927SOL     OW 2779   1.333   0.946   0.669  0.8694 -0.2514 -0.3471
  927SOL    HW1 2780   1.338   1.007   0.584  1.5487  1.9997 -0.5187
  927SOL    HW2 2781   1.237   0.919   0.687  0.0848 -1.3976 -0.8368
  928SOL     OW 2782   0.235   3.113   2.119  0.4736 -0.4071  0.2846
  928SOL    HW1 2783   0.209   3.123   2.022  0.5882 -0.7092  2.4745
  928SOL    HW2 2784   0.309   0.048   2.141 -1.8836 -1.1134  0.0783
  929SOL     OW 2785   2.680   0.718   1.448 -0.3723  0.5434  0.0845
  929SOL    HW1 2786   2.727   0.808   1.448  0.3366  1.0153 -0.1668
  929SOL    HW2 2787   2.687   0.667   1.538 -1.0524  0.3704 -0.6919
  930SOL     OW 2788   1.849   2.693   0.858 -0.5301  0.6943  0.3645
  930SOL    HW1 2789   1.765   2.734   0.824 -1.0821  0.6616  0.9368
  930SOL    HW2 2790   1.831   2.614   0.922 -1.1942 -3.0226  2.7558
  931SOL     OW 2791   1.999   0.886   1.031  0.0445  0.5346  0.1247
  931SOL    HW1 2792   1.974   0.895   0.932  1.7479  0.8247  1.2834
  931SOL    HW2 2793   2.095   0.917   1.044  1.4719  1.4943 -0.8571
  932SOL     OW 2794   0.047   0.500   1.462  0.3395 -0.7416 -0.1082
  932SOL    HW1 2795   3.106   0.577   1.466 -1.9739  1.6182  1.3781
  932SOL    HW2 2796   0.007   0.409   1.469  1.0591  0.6371 -1.6940
  933SOL     OW 2797   2.014   1.808   2.056  0.4093 -0.0294  0.0038
  933SOL    HW1 2798   1.993   1.714   2.090 -0.1790 -2.2226 -0.2609
  933SOL    HW2 2799   2.076   1.853   2.121  1.2113  0.3804 -1.3774
  934SOL     OW 2800   1.741   3.101   1.554  0.0095  0.2356 -0.1900
  934SOL    HW1 2801   1.783   0.028   1.475  1.5757  1.7988 -1.2137
  934SOL    HW2 2802   1.642   3.090   1.533 -0.1091  0.4661 -1.8361
  935SOL     OW 2803   0.341   0.898   1.474 -0.5330 -0.3011  0.6025
  935SOL    HW1 2804   0.300   0.808   1.447 -0.5148  3.1644  1.8463
  935SOL    HW2 2805   0.409   0.896   1.548  3.3974 -0.0893 -0.3371
  936SOL     OW 2806   2.739   0.463   1.333 -0.4027  0.0105 -0.0491
  936SOL    HW1 2807   2.732   0.466   1.230 -0.1094  1.7230 -2.6365
  936SOL    HW2 2808   2.693   0.551   1.365  1.5106  0.8175  1.1860
  937SOL     OW 2809   1.064   3.026   0.912  0.2113 -0.2800 -0.2168
  937SOL    HW1 2810   0.967   3.041   0.939 -0.7819 -2.3826  1.5024
  937SOL    HW2 2811   1.070   2.962   0.838  1.9100  1.2132  1.4151
  938SOL     OW 2812   3.020   2.199   0.660 -0.4222  0.1727 -0.3609
  938SOL    HW1 2813   3.039   2.188   0.759  2.0100 -1.7357 -1.8237
  938SOL    HW2 2814   2.922   2.172   0.645 -1.3726  1.0570 -0.2589
  939SOL     OW 2815   3.114   1.846   2.924  0.4523  0.0482 -0.1229
  939SOL    HW1 2816   3.106   1.757   2.878 -1.4327  2.5391  2.6325
  939SOL    HW2 2817   0.060   1.845   2.995  0.7373  0.9762  3.0044
  940SOL     OW 2818   2.576   2.729   2.824  0.1734 -0.3519 -0.5288
  940SOL    HW1 2819   2.569   2.746   2.724  0.8796  1.9265  0.2262
  940SOL    HW2 2820   2.566   2.819   2.871  0.0788  1.0828  2.3332
  941SOL     OW 2821   1.560   2.982   0.161 -0.0974  0.5443 -0.3623
  941SOL    HW1 2822   1.543   2.891   0.115  1.3117 -0.4536 -1.3629
  941SOL    HW2 2823   1.625   3.041   0.113 -0.3380  0.1450  2.1391
  942SOL     OW 2824   1.574   2.175   1.523  0.4939  0.6234 -0.2528
  942SOL    HW1 2825   1.558   2.088   1.578  1.6894 -0.3573  1.2118
  942SOL    HW2 2826   1.565   2.248   1.591 -1.2960 -1.8392 -0.6343
  943SOL     OW 2827   1.858   0.855   1.747  0.2005  0.2214 -0.6730
  943SOL    HW1 2828   1.824   0.886   1.657  1.1190  1.2077 -0.7709
  943SOL    HW2 2829   1.780   0.858   1.817 -0.6578  1.2422  2.2141
  944SOL     OW 2830   1.284   0.835   1.751 -0.0937  0.5028  0.3825
  944SOL    HW1 2831   1.319   0.902   1.678  2.3135  3.2284 -2.1698
  944SOL    HW2 2832   1.283   0.738   1.716 -0.0903 -0.7319  1.3617
  945SOL     OW 2833   2.757   2.269   1.366  0.4845  1.1866 -0.5468
  945SOL    HW1 2834   2.798   2.345   1.319 -1.3225 -1.2268  2.7577
  945SOL    HW2 2835   2.809   2.184   1.342  0.7207 -1.3851 -2.0123
  946SOL     OW 2836   0.778   0.897   1.774  0.4797 -0.1874  0.4692
  946SOL    HW1 2837   0.860   0.853   1.727 -1.7738 -0.1253 -0.5183
  946SOL    HW2 2838   0.759   0.988   1.731 -1.1448  1.4319 -0.5649
  947SOL     OW 2839   0.638   2.621   0.726 -0.4509 -0.0010 -0.5942
  947SOL    HW1 2840   0.606   2.578   0.814  0.6941 -0.6347  0.4235
  947SOL    HW2 2841   0.557   2.635   0.671  0.2775 -0.9522 -2.4751
  948SOL     OW 2842   2.949   1.364   1.814  0.6380 -0.2482  0.3836
  948SOL    HW1 2843   3.027   1.300   1.839 -0.0649  1.9308  1.9421
  948SOL    HW2 2844   2.987   1.441   1.760 -2.8052 -0.6748  1.4097
  949SOL     OW 2845   0.508   0.421   2.185 -0.0087  0.4279  0.8793
  949SOL    HW1 2846   0.603   0.434   2.218 -2.2153 -2.2831  0.6067
  949SOL    HW2 2847   0.483   0.504   2.124  2.3037  0.6967  0.7827
  950SOL     OW 2848   0.595   0.874   0.857 -0.0269 -0.5208  0.1011
  950SOL    HW1 2849   0.649   0.960   0.879  1.4350  3.8529  0.7370
  950SOL    HW2 2850   0.514   0.891   0.795 -1.1600  0.9642 -2.0165
  951SOL     OW 2851   1.087   1.722   2.434  0.9099  0.2184  0.1569
  951SOL    HW1 2852   1.150   1.652   2.478 -1.7214 -0.8139 -0.7763
  951SOL    HW2 2853   0.990   1.693   2.450  0.6707 -0.5967 -0.1662
  952SOL     OW 2854   1.251   1.256   2.835 -0.5976  0.5486  0.4668
  952SOL    HW1 2855   1.319   1.265   2.757  2.7586 -1.1135 -0.4123
  952SOL    HW2 2856   1.300   1.197   2.904  1.0518  0.5012  0.9580
  953SOL     OW 2857   1.003   2.646   2.104  0.0353 -0.8210 -0.1240
  953SOL    HW1 2858   0.988   2.553   2.070  1.6818 -1.6216  1.2719
  953SOL    HW2 2859   0.923   2.680   2.159 -0.7701  2.2550  0.2438
  954SOL     OW 2860   2.212   1.571   0.683  0.3656 -0.3480 -0.8202
  954SOL    HW1 2861   2.221   1.671   0.657 -0.3955  0.1682 -0.4693
  954SOL    HW2 2862   2.260   1.515   0.615 -1.3431  2.0549 -1.5150
  955SOL     OW 2863   3.070   2.291   2.851  0.2552  0.1320  0.4619
  955SOL    HW1 2864   3.120   2.356   2.791  4.0184  1.4433 -2.3132
  955SOL    HW2 2865   2.985   2.337   2.884 -0.0788  0.2449 -1.5217
  956SOL     OW 2866   1.131   0.934   1.442 -0.4198  0.1466 -0.2957
  956SOL    HW1 2867   1.189   0.855   1.413  1.5179 -1.1335 -1.9084
  956SOL    HW2 2868   1.184   1.016   1.408  1.0128 -4.4109  0.4188
  957SOL     OW 2869   1.962   1.577   2.349  0.2591 -0.4776  0.0352
  957SOL    HW1 2870   1.906   1.557   2.269  0.5736  0.4447  0.0995
  957SOL    HW2 2871   1.905   1.578   2.434 -2.7613 -0.5179  0.6675
  958SOL     OW 2872   1.810   2.597   1.407 -0.7142 -0.2113  0.1684
  958SOL    HW1 2873   1.902   2.621   1.368  0.6691 -0.2698 -0.7621
  958SOL    HW2 2874   1.775   2.673   1.467  1.4869  1.0585 -1.9800
  959SOL     OW 2875   1.674   1.624   1.903  0.0387 -0.5760  0.9255
  959SOL    HW1 2876   1.685   1.704   1.964 -1.1471  2.0873 -1.9654
  959SOL    HW2 2877   1.577   1.620   1.864  0.4431 -0.6923  0.4712
  960SOL     OW 2878   3.044   0.936   2.634 -0.0412 -0.4414 -0.5887
  960SOL    HW1 2879   3.089   0.973   2.722  3.0300  1.5117  3.2603
  960SOL    HW2 2880   3.087   0.972   2.549 -0.9125 -2.4189 -0.4634
  961SOL     OW 2881   0.498   0.631   2.016  0.1149  0.1437  0.4681
  961SOL    HW1 2882   0.579   0.626   1.949 -0.4599  1.0426 -1.7507
  961SOL    HW2 2883   0.494   0.729   2.054  0.6631  0.9281 -1.7149
  962SOL     OW 2884   1.410   1.668   0.439 -0.2936 -0.4134 -0.3092
  962SOL    HW1 2885   1.330   1.691   0.495  2.3778 -1.1814 -1.4707
  962SOL    HW2 2886   1.487   1.630   0.498 -1.3270 -2.0006 -0.4131
  963SOL     OW 2887   1.351   2.357   2.794  0.5753  0.4177  0.5287
  963SOL    HW1 2888   1.299   2.409   2.723  0.6788 -1.9322 -1.7109
  963SOL    HW2 2889   1.372   2.263   2.761  0.3147  1.2875 -0.6595
  964SOL     OW 2890   1.108   2.455   0.484  0.3255 -0.6504  0.0184
  964SOL    HW1 2891   1.019   2.463   0.430 -1.9570  2.3863 -2.1482
  964SOL    HW2 2892   1.129   2.546   0.529  1.6131 -1.0391 -0.5910
  965SOL     OW 2893   0.781   2.999   1.039 -0.4322  0.3180  0.1318
  965SOL    HW1 2894   0.726   3.049   1.106  2.4666  2.9753  1.2544
  965SOL    HW2 2895   0.741   3.003   0.948  0.3542  0.7079  3.6446
  966SOL     OW 2896   3.073   1.171   2.986 -0.9289 -0.4150 -0.7188
  966SOL    HW1 2897   3.055   1.274   2.996 -1.4021  2.1226 -0.4552
  966SOL    HW2 2898   2.997   1.115   3.030 -0.7744  1.0273  0.9154
  967SOL     OW 2899   0.919   2.877   1.607 -0.0813 -0.3779  0.2486
  967SOL    HW1 2900   0.914   2.978   1.615 -1.3796  1.0865  1.6868
  967SOL    HW2 2901   0.880   2.838   1.688  2.1229  0.0772 -0.5112
  968SOL     OW 2902   1.949   0.328   0.348 -0.2473 -0.2133 -0.2233
  968SOL    HW1 2903   2.035   0.296   0.387  1.8992  1.3686 -1.9083
  968SOL    HW2 2904   1.926   0.411   0.401  2.2280 -2.2944 -2.2964
  969SOL     OW 2905   2.885   1.845   2.000 -0.1843  0.2025 -0.1224
  969SOL    HW1 2906   2.821   1.785   1.948  1.9452 -0.9537  2.6917
  969SOL    HW2 2907   2.956   1.878   1.932 -2.8459  2.4458 -3.1411
  970SOL     OW 2908   2.281   1.158   1.462  0.6442  0.3251 -0.3134
  970SOL    HW1 2909   2.265   1.249   1.416 -1.6391  0.4532 -0.9262
  970SOL    HW2 2910   2.379   1.144   1.486  0.0843  1.0657 -1.9135
  971SOL     OW 2911   1.922   0.402   1.317 -0.9218 -0.1156  0.1966
  971SOL    HW1 2912   2.024   0.377   1.316 -0.0276  0.8565 -2.8683
  971SOL    HW2 2913   1.910   0.428   1.221  0.9458 -2.1431  1.0471
  972SOL     OW 2914   0.424   2.941   1.837  0.0650 -0.2361  0.3801
  972SOL    HW1 2915   0.507   3.000   1.822  1.2518 -0.1471 -1.7217
  972SOL    HW2 2916   0.357   2.998   1.888  0.0481  2.2004 -1.2537
  973SOL     OW 2917   2.823   1.039   0.233 -0.0774 -0.2735  0.3662
  973SOL    HW1 2918   2.731   0.990   0.229  0.0085  1.0500 -1.5590
  973SOL    HW2 2919   2.875   1.011   0.313 -1.0376 -0.4130  2.1516
  974SOL     OW 2920   1.663   1.302   2.186  0.5656 -0.4396  0.2328
  974SOL    HW1 2921   1.657   1.248   2.097 -1.5420 -2.9496 -1.3821
  974SOL    HW2 2922   1.749   1.353   2.195 -2.4979 -1.7804 -0.8811
  975SOL     OW 2923   3.119   2.587   0.970 -0.3899  0.1472 -0.4704
  975SOL    HW1 2924   3.070   2.631   0.895  0.3442 -0.6245  2.3722
  975SOL    HW2 2925   3.098   2.624   1.063  0.8789 -0.4614  0.0398
  976SOL     OW 2926   3.039   1.574   1.655 -0.0552 -0.2763 -0.1932
  976SOL    HW1 2927   3.124   1.543   1.599  1.1756 -0.4739 -1.6529
  976SOL    HW2 2928   2.985   1.625   1.584  1.6079 -2.4288 -1.1742
  977SOL     OW 2929   0.719   2.392   2.999  0.2152  0.5796  0.0037
  977SOL    HW1 2930   0.699   2.294   2.970  1.5182 -0.9541 -1.4656
  977SOL    HW2 2931   0.813   2.421   2.989 -1.9226  2.0847  2.9103
  978SOL     OW 2932   0.581   1.757   2.481 -0.1594  0.3032  0.0480
  978SOL    HW1 2933   0.598   1.782   2.388 -1.2311 -2.6362  2.2490
  978SOL    HW2 2934   0.545   1.834   2.541 -0.5501  2.4632  2.5999
  979SOL     OW 2935   1.643   2.512   1.195 -0.1690  0.0855  0.2801
  979SOL    HW1 2936   1.698   2.544   1.278  0.5708  3.6879  1.2266
  979SOL    HW2 2937   1.700   2.469   1.123  2.8342  3.3603  0.8229
  980SOL     OW 2938   0.840   1.510   0.010 -0.2768 -0.3623  0.1320
  980SOL    HW1 2939   0.766   1.567   3.107  1.5319  0.0826 -0.2232
  980SOL    HW2 2940   0.928   1.563   0.025  2.0529  0.8944  3.1678
  981SOL     OW 2941   2.730   0.025   2.562  0.2151 -0.5445 -0.0783
  981SOL    HW1 2942   2.738   0.024   2.462  0.9178  0.4372  0.6617
  981SOL    HW2 2943   2.793   0.092   2.604  2.3599  2.2726 -1.0363
  982SOL     OW 2944   0.149   2.678   2.858  0.5854  0.1596 -0.3766
  982SOL    HW1 2945   0.153   2.608   2.787 -1.4666  0.0268  0.0389
  982SOL    HW2 2946   0.100   2.641   2.943 -0.0896  1.9536  1.9498
  983SOL     OW 2947   2.414   1.003   2.028  0.2967 -0.3454  0.6379
  983SOL    HW1 2948   2.486   1.074   2.020  0.8154  1.5296  1.6932
  983SOL    HW2 2949   2.429   0.928   1.963 -2.1327  3.3373 -1.3139
  984SOL     OW 2950   1.541   0.376   2.131  0.3080 -0.0654  0.4040
  984SOL    HW1 2951   1.620   0.342   2.187  3.5347 -0.0097  0.4684
  984SOL    HW2 2952   1.550   0.479   2.128 -0.0119  0.6699 -0.1457
  985SOL     OW 2953   1.291   2.041   2.194  0.3531  0.7112  0.6883
  985SOL    HW1 2954   1.291   1.988   2.108 -3.6354  0.2267  0.5999
  985SOL    HW2 2955   1.371   2.019   2.255 -3.4783  0.5139  0.4622
  986SOL     OW 2956   2.019   0.311   2.223 -0.0487 -0.3660  0.0689
  986SOL    HW1 2957   2.035   0.252   2.141  2.0309  0.5989 -2.3948
  986SOL    HW2 2958   1.917   0.305   2.243 -1.9580  1.5758 -1.3614
  987SOL     OW 2959   2.018   0.656   1.889 -0.1993  0.3972  0.5619
  987SOL    HW1 2960   2.115   0.684   1.865  3.8181 -0.4007  0.7396
  987SOL    HW2 2961   1.945   0.694   1.833 -1.5513 -0.4732  1.4401
  988SOL     OW 2962   2.656   0.664   2.518  0.3120 -0.1010  0.0653
  988SOL    HW1 2963   2.719   0.638   2.444  0.3941 -0.0759 -3.1351
  988SOL    HW2 2964   2.563   0.618   2.504  0.8398  0.2002 -1.7985
  989SOL     OW 2965   2.566   2.813   2.554 -0.1954  0.0676 -0.1449
  989SOL    HW1 2966   2.495   2.763   2.500  0.1973  1.5511  1.1955
  989SOL    HW2 2967   2.655   2.790   2.515 -5.2744 -0.8262  2.2615
  990SOL     OW 2968   0.595   0.495   0.077 -0.1371  0.5464 -0.3104
  990SOL    HW1 2969   0.589   0.589   0.040  3.2377  0.7203 -0.1271
  990SOL    HW2 2970   0.545   0.483   0.164 -3.5207  0.0629 -0.7486
  991SOL     OW 2971   0.829   0.559   2.830 -0.2339 -0.3369 -0.4521
  991SOL    HW1 2972   0.816   0.460   2.805  0.8020 -1.4455  0.0632
  991SOL    HW2 2973   0.931   0.569   2.838  2.1486 -0.4920 -0.5578
  992SOL     OW 2974   2.725   2.347   2.415  0.5528  0.1861  0.3358
  992SOL    HW1 2975   2.822   2.344   2.418 -1.1554 -1.7847 -0.5940
  992SOL    HW2 2976   2.691   2.409   2.343  1.3857 -1.5805  1.6391
  993SOL     OW 2977   0.496   0.016   0.317  0.3935  0.5886 -0.4040
  993SOL    HW1 2978   0.552   3.084   0.377 -0.9442 -0.0894 -0.2376
  993SOL    HW2 2979   0.406   3.099   0.301 -1.2233 -2.8914 -1.9852
  994SOL     OW 2980   0.293   2.019   1.503  0.5263 -0.0737 -0.1968
  994SOL    HW1 2981   0.257   1.986   1.591 -0.0754  1.3388 -1.3052
  994SOL    HW2 2982   0.233   2.092   1.463  1.5577 -0.1483 -1.9269
  995SOL     OW 2983   2.103   2.114   0.235  0.0455 -0.7073 -0.4077
  995SOL    HW1 2984   2.167   2.129   0.158  0.3672  2.3577  4.0772
  995SOL    HW2 2985   2.058   2.024   0.230 -1.8508  0.7230 -0.8258
  996SOL     OW 2986   1.602   1.460   2.521 -0.4529  0.4528  0.2509
  996SOL    HW1 2987   1.551   1.476   2.430 -2.5935 -0.9545 -0.4073
  996SOL    HW2 2988   1.571   1.530   2.589 -1.8231  0.9525  1.6105
  997SOL     OW 2989   1.844   1.220   1.525  0.3282  0.1828  0.9313
  997SOL    HW1 2990   1.931   1.193   1.562 -0.3198 -1.2361  0.0300
  997SOL    HW2 2991   1.830   1.191   1.428  0.0885 -0.8375  1.8868
  998SOL     OW 2992   2.873   1.664   0.284 -0.0297  0.2581 -0.6381
  998SOL    HW1 2993   2.834   1.575   0.314  2.7612  1.2873 -0.7317
  998SOL    HW2 2994   2.883   1.671   0.181  0.7567  1.9435 -0.5554
  999SOL     OW 2995   2.690   2.550   0.406 -0.7044 -0.2738 -0.4712
  999SOL    HW1 2996   2.657   2.605   0.489 -0.3245 -1.5192 -1.5485
  999SOL    HW2 2997   2.670   2.449   0.422  0.2827  1.6348  1.7979
 1000SOL     OW 2998   0.798   2.968   2.031 -0.3254  0.1831  0.0749
 1000SOL    HW1 2999   0.730   3.032   1.994  0.3161  1.5309  1.5860
 1000SOL    HW2 3000   0.800   2.879   1.980  2.3139  0.6166  2.6290
   3.12984   3.12984   3.12984
