1000 SPC/Fw water molecules t=  55.00000 step= 55000
 3000
    1SOL     OW    1   2.142   2.681   0.903 -0.2081  0.3879  0.5765
    1SOL    HW1    2   2.075   2.660   0.829 -0.6827 -1.4711  1.2656
    1SOL    HW2    3   2.161   2.782   0.909 -1.1294 -0.1925  3.5496
    2SOL     OW    4   1.059   0.957   2.553  0.6498  0.6083 -0.5334
    2SOL    HW1    5   1.048   1.043   2.499 -2.3304  2.4943  0.2028
    2SOL    HW2    6   1.134   0.956   2.619 -1.1978  0.2461  0.7881
    3SOL     OW    7   1.027   2.733   2.812 -0.3588  0.3002 -0.1885
    3SOL    HW1    8   1.100   2.802   2.802  0.4693 -0.1190 -1.0846
    3SOL    HW2    9   1.077   2.644   2.827  0.2171 -0.5773  2.4815
    4SOL     OW   10   1.438   1.529   2.861  0.0139  0.1600  0.3060
    4SOL    HW1   11   1.457   1.427   2.880  1.6561  1.1535  1.7115
    4SOL    HW2   12   1.519   1.575   2.822  0.2617 -0.8597  2.2457
    5SOL     OW   13   0.938   0.778   1.893 -0.1805  0.5620  0.4600
    5SOL    HW1   14   0.975   0.684   1.880 -1.3691  1.0725 -0.6763
    5SOL    HW2   15   0.833   0.776   1.892  2.1952  1.6374  0.9653
    6SOL     OW   16   2.075   0.666   2.501 -0.1950  0.0812 -0.1286
    6SOL    HW1   17   2.119   0.585   2.462  2.6456  3.3520 -0.7248
    6SOL    HW2   18   2.110   0.681   2.597  0.6199  1.2828 -0.3332
    7SOL     OW   19   0.209   0.752   1.620  0.1151  0.2035  0.4514
    7SOL    HW1   20   0.259   0.714   1.536  0.8784 -0.9092 -1.6961
    7SOL    HW2   21   0.215   0.683   1.694 -1.2231 -0.9496 -1.9960
    8SOL     OW   22   1.897   3.020   1.950  0.0094  0.4815 -0.2721
    8SOL    HW1   23   1.851   2.928   1.973 -2.4453 -1.2458 -0.3565
    8SOL    HW2   24   1.840   3.106   1.960  1.2798  2.7975  0.7154
    9SOL     OW   25   0.315   3.031   0.496 -0.1598 -0.0240 -0.5586
    9SOL    HW1   26   0.216   3.044   0.512  0.6349  1.1447  1.8129
    9SOL    HW2   27   0.328   3.030   0.396 -0.5183 -0.2202  3.3099
   10SOL     OW   28   0.342   2.394   2.187  0.2545  0.4804 -0.2377
   10SOL    HW1   29   0.386   2.426   2.271  0.3623  1.1363 -1.9851
   10SOL    HW2   30   0.417   2.369   2.121  2.4076 -0.0133  1.4129
   11SOL     OW   31   0.893   1.606   2.994  0.2746  0.3804  0.3947
   11SOL    HW1   32   0.796   1.593   3.029 -3.6214  0.3028  1.6412
   11SOL    HW2   33   0.942   1.518   2.996 -1.0222 -0.5686  2.2137
   12SOL     OW   34   2.539   2.330   1.476  0.1914 -0.0542  0.0977
   12SOL    HW1   35   2.469   2.375   1.422  1.4024 -0.4236  2.1885
   12SOL    HW2   36   2.567   2.387   1.553  1.1644 -0.4492 -0.8020
   13SOL     OW   37   0.412   2.908   3.039  0.5495 -0.2968 -0.0344
   13SOL    HW1   38   0.460   2.999   3.026  4.8547 -0.8743  0.0543
   13SOL    HW2   39   0.460   2.857   0.002 -0.8011 -1.7593 -1.4304
   14SOL     OW   40   1.406   1.748   1.321 -0.3697  0.4728  0.0034
   14SOL    HW1   41   1.397   1.767   1.425  2.1445 -1.6380  1.3134
   14SOL    HW2   42   1.488   1.686   1.310  0.2636  0.6815  1.3744
   15SOL     OW   43   0.397   1.786   2.484 -0.2181  0.1057 -0.3421
   15SOL    HW1   44   0.496   1.795   2.507 -1.2263  0.7921  0.7707
   15SOL    HW2   45   0.351   1.874   2.470 -1.9376  2.1769  2.7333
   16SOL     OW   46   1.610   0.515   2.849  0.0310 -0.0824 -0.2357
   16SOL    HW1   47   1.531   0.448   2.840 -1.2337  1.9286  1.3524
   16SOL    HW2   48   1.602   0.603   2.797  3.1750  0.6998 -3.0356
   17SOL     OW   49   2.971   2.768   2.619 -0.0013  0.0605 -0.3970
   17SOL    HW1   50   2.923   2.755   2.531  1.0283 -1.6317  2.2972
   17SOL    HW2   51   3.057   2.713   2.616 -0.1490  1.8732 -1.0970
   18SOL     OW   52   1.237   1.145   0.819  0.1399  0.0539 -0.0727
   18SOL    HW1   53   1.212   1.224   0.751 -2.3204  3.7446  0.9691
   18SOL    HW2   54   1.155   1.106   0.864 -0.4763 -0.9026  1.3155
   19SOL     OW   55   2.846   1.909   2.329 -0.3053  0.7873  0.0313
   19SOL    HW1   56   2.943   1.885   2.365  1.4373  0.4060 -0.0630
   19SOL    HW2   57   2.802   1.988   2.385 -1.4312  3.9498  0.5500
   20SOL     OW   58   2.383   2.323   2.524  0.2183 -0.6967 -0.0141
   20SOL    HW1   59   2.396   2.362   2.431 -1.9539  0.2538 -0.4913
   20SOL    HW2   60   2.314   2.376   2.578 -1.0274  1.1529  2.3304
   21SOL     OW   61   1.761   1.727   0.431  0.3923 -0.0181  0.1073
   21SOL    HW1   62   1.696   1.683   0.499 -2.2348 -0.4319  1.6786
   21SOL    HW2   63   1.859   1.708   0.461 -0.4175 -0.5864  0.4930
   22SOL     OW   64   2.313   2.120   1.258  0.0189  0.5087 -0.5138
   22SOL    HW1   65   2.386   2.057   1.289 -1.0549 -1.5878  0.8167
   22SOL    HW2   66   2.232   2.067   1.224 -0.4045 -0.6393  0.4116
   23SOL     OW   67   0.004   1.297   1.384 -0.1189  0.0450 -0.7084
   23SOL    HW1   68   3.084   1.383   1.336  2.9115 -0.2586  0.1296
   23SOL    HW2   69   3.052   1.269   1.463 -2.2726  0.0332  1.2280
   24SOL     OW   70   2.307   1.221   1.900  0.0634  0.4311  0.0079
   24SOL    HW1   71   2.379   1.176   1.842 -0.8772  2.8997 -0.3588
   24SOL    HW2   72   2.345   1.274   1.978 -0.4091 -2.0227  0.9198
   25SOL     OW   73   1.945   0.152   2.449  0.4029  0.1466 -0.0798
   25SOL    HW1   74   1.867   0.138   2.507 -1.9637  1.0685 -2.9368
   25SOL    HW2   75   2.014   0.080   2.456 -3.5829  2.3570 -0.3538
   26SOL     OW   76   0.811   0.200   0.262 -0.1871 -0.5140 -0.1075
   26SOL    HW1   77   0.707   0.182   0.257 -0.9133 -1.0694  0.8517
   26SOL    HW2   78   0.842   0.272   0.198 -1.7312 -1.4874  1.7390
   27SOL     OW   79   0.782   1.804   0.913  0.4567  0.1663  0.4612
   27SOL    HW1   80   0.687   1.817   0.876 -0.8460  0.8909  1.4736
   27SOL    HW2   81   0.777   1.784   1.014  0.5616  0.0269 -0.6038
   28SOL     OW   82   2.451   2.308   1.088 -0.0164 -0.4780 -0.3800
   28SOL    HW1   83   2.433   2.239   1.159  0.4964  0.3027 -0.1818
   28SOL    HW2   84   2.389   2.389   1.105  1.6616  0.0716  1.3933
   29SOL     OW   85   2.138   0.132   1.982  0.0874  0.4945 -0.4043
   29SOL    HW1   86   2.075   0.056   2.001  0.9589 -1.7391  0.5401
   29SOL    HW2   87   2.228   0.098   1.960 -0.3287 -2.3124  1.7012
   30SOL     OW   88   0.446   2.917   1.218  0.2883  0.1836 -0.1886
   30SOL    HW1   89   0.387   2.872   1.294 -2.3999 -2.9133  1.1981
   30SOL    HW2   90   0.490   3.001   1.242 -0.2536 -0.4865  2.6395
   31SOL     OW   91   0.079   1.914   2.145 -0.0929 -0.2977 -0.5033
   31SOL    HW1   92   0.121   1.976   2.078  0.5620  2.3998 -0.5220
   31SOL    HW2   93   0.092   1.819   2.109  0.1067  1.0927 -1.8811
   32SOL     OW   94   1.527   1.925   2.297  0.0220 -0.5531  0.4358
   32SOL    HW1   95   1.592   1.879   2.234  0.5011 -1.6151 -0.8345
   32SOL    HW2   96   1.436   1.886   2.289  0.6637 -2.2518  0.2643
   33SOL     OW   97   0.298   0.064   2.928  0.3646 -0.2325 -0.0965
   33SOL    HW1   98   0.386   0.068   2.983 -0.4336 -0.2999  2.1618
   33SOL    HW2   99   0.302   0.068   2.824 -1.4676 -1.3748  0.6482
   34SOL     OW  100   2.506   2.974   0.449 -0.4055 -0.0739  0.1644
   34SOL    HW1  101   2.526   3.071   0.470  0.8038 -1.6474  0.2952
   34SOL    HW2  102   2.531   2.912   0.529  1.1924  0.4456  2.0361
   35SOL     OW  103   2.755   0.323   1.703  0.4347 -0.0862 -0.4939
   35SOL    HW1  104   2.726   0.408   1.748  0.4963 -0.8202  0.2484
   35SOL    HW2  105   2.846   0.335   1.663 -2.0591 -0.1705  0.8653
   36SOL     OW  106   2.611   3.028   2.513  0.5310 -0.1009 -0.0437
   36SOL    HW1  107   2.601   2.925   2.522 -1.6046  0.6773  2.2857
   36SOL    HW2  108   2.645   3.068   2.599  2.8660  0.9414  1.7645
   37SOL     OW  109   1.501   2.800   0.112 -0.6953 -0.1406 -0.3492
   37SOL    HW1  110   1.516   2.888   0.163  1.0041 -1.8901 -0.2641
   37SOL    HW2  111   1.405   2.771   0.118  1.1665  1.6467  0.0119
   38SOL     OW  112   0.028   0.840   3.071 -0.2807 -0.2625  0.1835
   38SOL    HW1  113   3.081   0.754   3.077 -0.9446  0.5216  1.9211
   38SOL    HW2  114   0.084   0.834   2.985 -1.8763 -1.9120 -2.8655
   39SOL     OW  115   1.548   1.795   1.938 -0.1064 -0.1769  0.6915
   39SOL    HW1  116   1.568   1.888   1.902 -1.3513  2.6751 -1.0040
   39SOL    HW2  117   1.451   1.783   1.945  1.1969  2.6231 -0.0496
   40SOL     OW  118   0.376   0.363   2.632  0.2445  0.0852  0.0273
   40SOL    HW1  119   0.468   0.398   2.645 -0.5013 -0.6102  0.0922
   40SOL    HW2  120   0.346   0.368   2.537  0.6974 -1.6482 -0.6169
   41SOL     OW  121   1.569   1.038   2.109  0.1348 -0.2862 -0.1825
   41SOL    HW1  122   1.646   0.982   2.144 -1.5966  1.1243 -0.2278
   41SOL    HW2  123   1.515   1.067   2.191  0.8656  0.2431 -2.2349
   42SOL     OW  124   3.018   0.395   1.546 -0.0371  0.0491  0.0472
   42SOL    HW1  125   3.020   0.495   1.540  0.5380 -0.8596 -0.5975
   42SOL    HW2  126   3.100   0.357   1.595  0.1561 -0.4823 -1.2609
   43SOL     OW  127   1.379   1.266   1.557  0.0902 -0.0355 -0.7993
   43SOL    HW1  128   1.419   1.352   1.593 -1.5092  1.1257  0.6154
   43SOL    HW2  129   1.375   1.210   1.636  0.6931  4.2191  0.4050
   44SOL     OW  130   0.010   0.448   2.788 -0.3244 -0.2400 -0.6203
   44SOL    HW1  131   0.061   0.393   2.860  0.3007 -1.8431  1.9077
   44SOL    HW2  132   3.021   0.442   2.809  0.4537 -1.6391  1.3457
   45SOL     OW  133   0.266   2.212   1.404 -0.5330  0.3153  0.1752
   45SOL    HW1  134   0.175   2.213   1.362 -0.6096 -2.2377 -1.1916
   45SOL    HW2  135   0.342   2.187   1.340 -0.3903 -0.3337 -0.3726
   46SOL     OW  136   2.349   3.066   1.903 -0.0731 -0.3302  0.0047
   46SOL    HW1  137   2.431   0.003   1.952 -0.6476  1.2622  0.7489
   46SOL    HW2  138   2.333   3.091   1.805  0.6296 -1.2075  1.5717
   47SOL     OW  139   0.306   1.999   1.060 -0.0565 -0.2414 -0.2962
   47SOL    HW1  140   0.385   1.954   1.012  3.1013  1.4603  2.6495
   47SOL    HW2  141   0.260   1.924   1.109  1.5076  2.2902 -1.3433
   48SOL     OW  142   0.548   2.759   0.136 -0.4408  0.2755  0.3378
   48SOL    HW1  143   0.545   2.743   0.240  0.4352 -1.6017  0.6372
   48SOL    HW2  144   0.511   2.669   0.100  0.0313  1.5828 -0.7398
   49SOL     OW  145   3.067   1.759   1.829 -0.1249  0.0944 -0.2280
   49SOL    HW1  146   0.016   1.701   1.890 -0.3426 -1.5500 -0.3074
   49SOL    HW2  147   2.986   1.715   1.785  0.8980  0.9366 -0.5068
   50SOL     OW  148   1.567   0.028   0.666 -0.5453 -0.7285 -0.2247
   50SOL    HW1  149   1.625   0.090   0.606  3.5926  0.6745  0.9863
   50SOL    HW2  150   1.489   0.087   0.697 -0.7073 -0.6257 -0.5180
   51SOL     OW  151   1.131   0.186   1.121  0.0625  0.6298 -0.1156
   51SOL    HW1  152   1.047   0.188   1.178  2.1685 -0.1332 -0.6321
   51SOL    HW2  153   1.145   0.279   1.079  2.0986 -2.7981 -0.7477
   52SOL     OW  154   0.668   1.365   0.308  0.1669  0.1862  0.2954
   52SOL    HW1  155   0.578   1.350   0.258 -2.7911 -1.5326  1.7650
   52SOL    HW2  156   0.701   1.279   0.347  1.3338 -0.1997 -0.6363
   53SOL     OW  157   1.369   2.882   2.453 -0.4003 -0.0353  0.2064
   53SOL    HW1  158   1.437   2.906   2.378  0.6475  1.5224 -0.2345
   53SOL    HW2  159   1.392   2.783   2.477 -2.3729  1.2488 -2.7657
   54SOL     OW  160   1.720   0.620   1.740 -0.6618 -0.4356 -0.4996
   54SOL    HW1  161   1.739   0.637   1.644 -0.0932 -1.0655  3.3664
   54SOL    HW2  162   1.789   0.566   1.790 -3.7707  0.6376 -0.6640
   55SOL     OW  163   2.974   2.542   0.482 -0.2159 -0.4305 -0.4359
   55SOL    HW1  164   3.038   2.616   0.465 -3.7062 -0.1353  1.4973
   55SOL    HW2  165   3.024   2.450   0.482 -0.5061 -5.2745  2.2075
   56SOL     OW  166   0.965   2.787   1.619  0.4594  0.2877 -0.1070
   56SOL    HW1  167   0.903   2.800   1.534 -0.8240  0.7717 -3.3910
   56SOL    HW2  168   1.002   2.878   1.644 -0.3655 -1.7714  0.9422
   57SOL     OW  169   1.774   0.610   2.398 -0.1337  0.2624 -0.4246
   57SOL    HW1  170   1.862   0.655   2.412 -0.9703 -0.6783 -0.8852
   57SOL    HW2  171   1.698   0.669   2.353 -2.8481  4.6985 -0.5553
   58SOL     OW  172   0.633   1.198   2.109  0.6610  0.3783 -0.1295
   58SOL    HW1  173   0.650   1.288   2.062  0.9135 -1.8630 -1.9892
   58SOL    HW2  174   0.600   1.121   2.048 -0.8742  0.4704  1.2648
   59SOL     OW  175   0.646   2.621   2.040  0.1227  0.4288  0.0440
   59SOL    HW1  176   0.613   2.531   2.012  2.1802  2.3644  1.1089
   59SOL    HW2  177   0.709   2.654   1.968  1.6764  1.1665  0.8129
   60SOL     OW  178   2.495   2.444   0.274 -0.2651 -0.4789 -0.0672
   60SOL    HW1  179   2.593   2.475   0.281  1.4983  1.6350  0.6284
   60SOL    HW2  180   2.443   2.501   0.209 -2.4624  0.6928 -0.5517
   61SOL     OW  181   1.077   2.650   0.790  0.4071  0.0400 -0.6722
   61SOL    HW1  182   1.126   2.674   0.875 -0.1963  2.0561  1.1985
   61SOL    HW2  183   1.141   2.604   0.728 -2.0648  2.5718  1.7167
   62SOL     OW  184   1.635   2.705   3.013 -0.5728 -0.2822  0.2379
   62SOL    HW1  185   1.579   2.763   3.076 -0.2149 -1.5740 -0.8096
   62SOL    HW2  186   1.630   2.609   3.044 -0.4838  1.9003 -0.6734
   63SOL     OW  187   2.241   0.596   0.020  0.2411  0.0018  0.4881
   63SOL    HW1  188   2.218   0.697   0.024 -1.5920  0.2763 -3.4670
   63SOL    HW2  189   2.281   0.557   0.102 -0.0138  0.4861  1.2664
   64SOL     OW  190   1.266   1.211   0.078 -0.5030 -0.2420  0.3105
   64SOL    HW1  191   1.190   1.249   0.134  2.3155  1.6847  2.4496
   64SOL    HW2  192   1.353   1.198   0.130 -0.2305  0.6079  1.3648
   65SOL     OW  193   0.886   3.013   1.432 -0.0223 -0.5911  0.4716
   65SOL    HW1  194   0.908   2.961   1.346 -0.2635  0.0854 -4.0559
   65SOL    HW2  195   0.945   3.097   1.444 -0.7021  3.8285  0.3783
   66SOL     OW  196   0.782   1.316   1.261  0.1143 -0.3988  0.1377
   66SOL    HW1  197   0.757   1.227   1.305 -1.4685 -1.6905  0.0916
   66SOL    HW2  198   0.873   1.297   1.218 -1.1005  1.7897 -1.1914
   67SOL     OW  199   2.403   2.271   1.795 -0.2651 -0.3743 -0.7438
   67SOL    HW1  200   2.466   2.327   1.852  1.7209  1.4550  1.4168
   67SOL    HW2  201   2.379   2.322   1.712 -1.6527  0.6025 -2.5666
   68SOL     OW  202   0.970   1.272   1.913  0.0709  0.5872 -0.9275
   68SOL    HW1  203   0.878   1.319   1.910  0.7407 -2.2903  1.4112
   68SOL    HW2  204   1.005   1.258   1.821 -3.2764 -0.9045  2.1708
   69SOL     OW  205   2.701   2.654   0.114 -0.9563  0.6412  0.4358
   69SOL    HW1  206   2.733   2.711   0.187 -0.8111 -2.1575 -1.0384
   69SOL    HW2  207   2.618   2.689   0.075  1.5163 -3.4109 -0.0949
   70SOL     OW  208   2.444   0.788   2.455  0.8888  0.0747 -0.1293
   70SOL    HW1  209   2.422   0.843   2.540 -1.6874 -2.0632 -0.0357
   70SOL    HW2  210   2.461   0.689   2.481 -0.7454 -1.9463 -0.8945
   71SOL     OW  211   0.227   1.893   0.717 -0.0274  1.0843  0.0005
   71SOL    HW1  212   0.202   1.833   0.635 -0.4556  0.5569 -3.3087
   71SOL    HW2  213   0.147   1.916   0.776  1.3448 -2.6893 -0.5692
   72SOL     OW  214   2.666   1.817   0.453  0.2221  0.2502 -0.1191
   72SOL    HW1  215   2.600   1.896   0.435 -0.9842  2.2833  0.4320
   72SOL    HW2  216   2.612   1.734   0.452  0.0633  0.5303  0.0088
   73SOL     OW  217   0.955   0.357   0.607  0.5295 -0.0685 -0.4791
   73SOL    HW1  218   1.006   0.440   0.579  0.3743 -0.7092 -0.1770
   73SOL    HW2  219   0.966   0.337   0.701  1.1475 -0.2920 -2.1604
   74SOL     OW  220   2.561   2.436   1.957  0.5825 -0.2978  0.2024
   74SOL    HW1  221   2.661   2.448   1.968 -1.9986  0.4193  0.6003
   74SOL    HW2  222   2.510   2.471   2.037 -1.5221 -0.1956 -0.0138
   75SOL     OW  223   1.706   1.609   1.822  0.0252  0.0424 -0.0302
   75SOL    HW1  224   1.632   1.670   1.847  0.2806 -1.8338 -1.7884
   75SOL    HW2  225   1.675   1.525   1.768  2.9012 -1.4601 -0.7409
   76SOL     OW  226   1.070   1.915   1.155  0.1257  0.3338 -0.1668
   76SOL    HW1  227   1.145   1.849   1.121  0.1357 -3.5129  0.7135
   76SOL    HW2  228   1.005   1.861   1.213 -0.6037  0.8971  3.2065
   77SOL     OW  229   2.734   1.557   2.011 -0.2648 -0.1831  0.2007
   77SOL    HW1  230   2.736   1.616   2.095  1.4213 -0.6448  0.9834
   77SOL    HW2  231   2.773   1.464   2.025 -0.7719  0.3183 -0.6661
   78SOL     OW  232   1.846   0.727   0.604 -0.4002 -0.1856  0.3451
   78SOL    HW1  233   1.786   0.714   0.686 -1.5833 -0.8619  1.0043
   78SOL    HW2  234   1.790   0.785   0.536  0.2488 -1.2549 -0.4341
   79SOL     OW  235   1.632   1.269   1.991 -0.2934  0.2961 -0.4269
   79SOL    HW1  236   1.718   1.298   2.034 -3.5852 -0.0566 -2.5848
   79SOL    HW2  237   1.596   1.177   2.024 -1.0465 -0.7587 -2.6746
   80SOL     OW  238   1.026   0.519   1.643 -0.0823 -0.3491 -0.3497
   80SOL    HW1  239   1.065   0.569   1.564 -1.8885  0.4387  0.3128
   80SOL    HW2  240   1.089   0.533   1.725 -2.9572  2.4237  0.8941
   81SOL     OW  241   0.819   2.665   0.705 -0.2306 -0.1787 -0.1552
   81SOL    HW1  242   0.801   2.756   0.663  0.9674 -2.2464  0.8920
   81SOL    HW2  243   0.912   2.664   0.746  1.0306  0.8884  0.4301
   82SOL     OW  244   1.276   0.339   1.852  0.5028  0.0294  0.5517
   82SOL    HW1  245   1.337   0.402   1.802 -0.0474 -0.7477 -0.6130
   82SOL    HW2  246   1.325   0.297   1.933  0.3095 -0.4909  2.2412
   83SOL     OW  247   0.154   2.429   0.636  0.4020  0.0004  0.7000
   83SOL    HW1  248   0.243   2.474   0.602  0.2198  1.4116 -0.3398
   83SOL    HW2  249   0.141   2.432   0.735 -1.0017 -1.5770  0.1510
   84SOL     OW  250   2.564   1.475   3.036 -0.5301 -0.0724  0.3732
   84SOL    HW1  251   2.609   1.420   2.962  2.6125 -2.5574 -2.0735
   84SOL    HW2  252   2.631   1.549   3.052 -1.3536 -1.5566  1.0661
   85SOL     OW  253   2.621   2.052   1.674  0.1770  0.3458 -0.1286
   85SOL    HW1  254   2.546   2.085   1.622 -1.1391  3.2177 -0.0965
   85SOL    HW2  255   2.615   2.079   1.771 -0.7833  1.1172  0.6974
   86SOL     OW  256   1.730   2.633   1.274  0.1961 -0.4100  0.3055
   86SOL    HW1  257   1.798   2.617   1.349  1.7255  0.7997 -0.8321
   86SOL    HW2  258   1.776   2.686   1.197  0.6101  0.5641 -0.5061
   87SOL     OW  259   2.518   1.575   0.406  0.1192  0.2649 -0.0880
   87SOL    HW1  260   2.435   1.626   0.445 -0.0533  1.3297  2.0308
   87SOL    HW2  261   2.505   1.545   0.310  0.4449  0.1125  1.2627
   88SOL     OW  262   1.000   0.278   0.853  0.4769  0.5157  0.1177
   88SOL    HW1  263   0.963   0.182   0.846 -0.2579 -1.2110 -0.7015
   88SOL    HW2  264   0.933   0.337   0.903  0.5185  0.0511 -2.5286
   89SOL     OW  265   0.699   0.082   1.829  0.2333 -0.4772  0.0958
   89SOL    HW1  266   0.764   0.147   1.878  0.6275  2.0158 -0.8616
   89SOL    HW2  267   0.672   0.004   1.889  0.3621  0.4117 -0.4327
   90SOL     OW  268   2.999   1.753   0.801 -0.4940  0.0881 -0.1422
   90SOL    HW1  269   2.918   1.790   0.752  1.8589  0.3878  4.0881
   90SOL    HW2  270   3.017   1.653   0.783  0.2705  1.0387 -1.4711
   91SOL     OW  271   0.923   1.763   1.355  0.7428  0.1914  0.5886
   91SOL    HW1  272   0.828   1.799   1.343 -0.6619  1.3532 -0.5211
   91SOL    HW2  273   0.926   1.659   1.368 -0.6863 -0.4623 -1.0218
   92SOL     OW  274   2.499   3.029   1.502  0.2633 -0.4084 -0.2307
   92SOL    HW1  275   2.523   3.087   1.579 -0.6957 -1.1001  2.2395
   92SOL    HW2  276   2.557   2.942   1.502  0.0517 -1.4223  0.3900
   93SOL     OW  277   0.371   0.956   2.686 -0.1595 -0.1267 -0.6275
   93SOL    HW1  278   0.447   1.002   2.734 -0.8822 -2.3665 -1.3702
   93SOL    HW2  279   0.338   1.008   2.603  2.3093  0.4153  0.0839
   94SOL     OW  280   2.563   0.082   2.026  0.0782  0.5470 -0.4816
   94SOL    HW1  281   2.549   0.164   2.080  0.0153 -2.7064  0.9446
   94SOL    HW2  282   2.638   0.095   1.955  2.5620  0.5030 -2.5378
   95SOL     OW  283   1.580   0.713   2.223  0.1186 -0.6768  0.0762
   95SOL    HW1  284   1.490   0.737   2.265  0.4130  3.4241  0.8545
   95SOL    HW2  285   1.572   0.736   2.127 -0.4436  1.3201  2.1513
   96SOL     OW  286   2.868   0.685   1.788  0.0734 -0.2697 -0.2230
   96SOL    HW1  287   2.775   0.651   1.798  0.5466 -2.4616  2.2586
   96SOL    HW2  288   2.883   0.783   1.801 -0.6368  1.8648  1.7482
   97SOL     OW  289   1.991   2.977   1.705  0.2661 -0.1391 -0.0972
   97SOL    HW1  290   2.088   3.002   1.694 -1.1487 -0.0601 -2.2553
   97SOL    HW2  291   1.962   2.989   1.804  3.1200  0.6331  1.2898
   98SOL     OW  292   2.161   2.517   1.821 -0.3310 -0.0748 -0.0313
   98SOL    HW1  293   2.170   2.424   1.857  1.4967  0.6451 -0.9318
   98SOL    HW2  294   2.106   2.563   1.891 -0.6347  1.8546 -1.5380
   99SOL     OW  295   2.808   0.645   1.350 -0.7282 -0.8377  0.5995
   99SOL    HW1  296   2.775   0.553   1.316  1.4818 -2.2136  0.6844
   99SOL    HW2  297   2.902   0.631   1.393  1.1226 -0.5211  0.2953
  100SOL     OW  298   2.443   1.832   1.892  0.0250 -0.1896 -0.1651
  100SOL    HW1  299   2.357   1.865   1.932  1.0047  0.6028  1.6257
  100SOL    HW2  300   2.512   1.902   1.911  0.1158 -1.5188  1.3653
  101SOL     OW  301   2.135   3.105   0.236  0.1836  0.3176 -0.2805
  101SOL    HW1  302   2.111   3.037   0.164 -2.2952 -1.0343  0.8372
  101SOL    HW2  303   2.168   0.085   0.194 -0.3473  1.0007  2.0526
  102SOL     OW  304   0.638   0.526   1.119 -0.4724 -0.1065  0.2108
  102SOL    HW1  305   0.651   0.486   1.213 -0.9901  1.3450 -1.0113
  102SOL    HW2  306   0.536   0.532   1.112  0.2257  1.5774 -1.9575
  103SOL     OW  307   2.925   0.112   2.334 -0.2340 -0.2859 -0.1003
  103SOL    HW1  308   2.857   0.041   2.308 -0.9274  0.2233  0.2778
  103SOL    HW2  309   2.999   0.111   2.266 -1.2045  0.6596 -2.0494
  104SOL     OW  310   0.268   2.538   1.378 -0.0848 -0.0115  0.1723
  104SOL    HW1  311   0.311   2.620   1.413 -1.6177  1.0968  0.5291
  104SOL    HW2  312   0.325   2.457   1.400 -1.6341  1.7925  0.7684
  105SOL     OW  313   1.097   1.538   1.801  0.4077 -0.0040 -0.1431
  105SOL    HW1  314   1.128   1.448   1.766  0.5303  1.0529  0.0901
  105SOL    HW2  315   1.007   1.566   1.754 -3.6480 -0.7861  1.7852
  106SOL     OW  316   1.907   0.477   0.725 -0.4176  0.2611 -0.3593
  106SOL    HW1  317   1.964   0.491   0.805 -1.8195 -1.5263 -0.0494
  106SOL    HW2  318   1.907   0.559   0.666  0.1292  0.0041  1.4924
  107SOL     OW  319   0.706   1.005   1.290 -0.1018  0.1076  0.0105
  107SOL    HW1  320   0.641   0.928   1.318 -0.8732 -0.2720  1.6447
  107SOL    HW2  321   0.719   1.010   1.191  0.8110 -0.4762  1.8634
  108SOL     OW  322   3.029   0.650   2.260 -0.6352 -0.0686  0.8540
  108SOL    HW1  323   3.028   0.612   2.166 -1.8402 -0.1166 -1.6121
  108SOL    HW2  324   3.011   0.577   2.327 -1.5317 -0.1670 -3.2509
  109SOL     OW  325   1.692   2.917   2.624 -0.1280  0.5906 -0.0721
  109SOL    HW1  326   1.638   2.828   2.632  0.3462 -5.7139  1.8616
  109SOL    HW2  327   1.789   2.897   2.592 -3.2082 -2.0921  1.4235
  110SOL     OW  328   0.020   1.799   2.790 -0.2010  0.0698  0.2615
  110SOL    HW1  329   3.027   1.784   2.793 -1.3751  0.3501 -0.7758
  110SOL    HW2  330   0.046   1.835   2.877 -1.0127 -2.4282 -4.8250
  111SOL     OW  331   2.636   0.636   2.165  0.6330  0.1234 -0.3411
  111SOL    HW1  332   2.543   0.607   2.194 -0.6528 -3.1390 -0.8606
  111SOL    HW2  333   2.704   0.561   2.187  0.5945  0.3634  0.2189
  112SOL     OW  334   2.695   2.598   1.426  0.3711  0.4112  0.4189
  112SOL    HW1  335   2.760   2.540   1.473  2.1589  0.4719  0.8577
  112SOL    HW2  336   2.676   2.552   1.333 -1.9171 -0.2166 -1.1734
  113SOL     OW  337   2.196   2.158   2.161  0.0204  0.2428  0.3572
  113SOL    HW1  338   2.224   2.246   2.197 -1.1171 -0.9970 -3.4081
  113SOL    HW2  339   2.091   2.157   2.164 -0.3006 -2.1257  0.0855
  114SOL     OW  340   0.170   0.278   0.171 -0.1451  0.0347  0.3632
  114SOL    HW1  341   0.081   0.281   0.214 -0.8717  1.7765  0.5077
  114SOL    HW2  342   0.219   0.367   0.194  1.6344  0.7645 -0.9607
  115SOL     OW  343   2.743   1.678   3.047 -0.0671  0.6445 -0.1604
  115SOL    HW1  344   2.827   1.652   3.104  0.3756  1.8527 -3.0163
  115SOL    HW2  345   2.765   1.687   2.951  2.2812 -1.3017  1.6642
  116SOL     OW  346   2.992   1.412   1.823 -0.5177 -0.0632  0.0407
  116SOL    HW1  347   3.088   1.409   1.781  2.2324 -0.6808 -3.7534
  116SOL    HW2  348   2.946   1.500   1.809  1.7790  1.6421 -1.2483
  117SOL     OW  349   2.203   0.007   1.337 -0.0933  0.3365 -0.4523
  117SOL    HW1  350   2.109   3.105   1.304  2.5198 -0.1222  0.2881
  117SOL    HW2  351   2.218   0.096   1.379 -0.3561 -2.2091  0.9594
  118SOL     OW  352   2.833   2.436   1.998  0.1703 -0.3801 -0.1566
  118SOL    HW1  353   2.839   2.537   2.005 -1.7045  0.1912  0.9081
  118SOL    HW2  354   2.891   2.387   2.068 -0.7012 -1.9338  2.2404
  119SOL     OW  355   0.676   1.890   1.324 -0.1343 -0.1511 -0.1712
  119SOL    HW1  356   0.691   1.991   1.325  0.2809 -1.9170  1.7569
  119SOL    HW2  357   0.625   1.869   1.411  3.4772  0.2215  0.1316
  120SOL     OW  358   0.079   1.749   1.378  0.1818  0.3990  0.0411
  120SOL    HW1  359   0.126   1.745   1.468  0.9451 -1.9170 -0.3731
  120SOL    HW2  360   0.026   1.832   1.363  0.4822 -3.3961 -2.9653
  121SOL     OW  361   1.955   1.340   1.051 -0.1769 -0.3309  0.3848
  121SOL    HW1  362   1.854   1.323   1.033 -1.3506 -0.1141 -0.5680
  121SOL    HW2  363   1.995   1.270   1.116 -0.7865 -1.1184 -0.3789
  122SOL     OW  364   1.743   2.227   2.598 -0.3218 -0.4247  0.4302
  122SOL    HW1  365   1.786   2.167   2.521  2.2642 -3.4799 -2.0936
  122SOL    HW2  366   1.810   2.254   2.667  0.4620  0.5911 -0.9800
  123SOL     OW  367   3.026   0.066   0.132 -0.3015 -0.2306 -0.8448
  123SOL    HW1  368   3.105   0.012   0.110 -3.7534  2.4943 -1.0333
  123SOL    HW2  369   2.991   0.041   0.223 -0.6662  0.1446 -0.5081
  124SOL     OW  370   0.978   1.165   0.471  0.5963  0.0372  0.1334
  124SOL    HW1  371   0.929   1.163   0.561 -1.0789  0.8628 -1.0639
  124SOL    HW2  372   1.077   1.170   0.478  0.5748 -0.8619  0.3806
  125SOL     OW  373   0.122   1.276   2.007 -0.3943  0.1376  0.0203
  125SOL    HW1  374   0.151   1.320   1.916  1.8776  0.4415  0.4519
  125SOL    HW2  375   0.116   1.348   2.075 -0.7599  1.2055 -0.4461
  126SOL     OW  376   0.044   2.489   0.177 -0.0501  0.1151  0.6529
  126SOL    HW1  377   0.061   2.452   0.268 -0.0685 -0.7046 -2.7136
  126SOL    HW2  378   0.008   2.582   0.184 -2.6165 -0.0414 -0.6323
  127SOL     OW  379   2.935   1.791   0.403 -0.1466 -0.0579  0.0530
  127SOL    HW1  380   2.975   1.802   0.309  0.9697 -1.5520  0.9825
  127SOL    HW2  381   2.833   1.808   0.411 -0.8296 -2.5781  0.7318
  128SOL     OW  382   1.362   0.924   0.752 -0.4538 -0.2943 -0.6252
  128SOL    HW1  383   1.304   0.999   0.788 -0.3310  0.9664 -0.4635
  128SOL    HW2  384   1.436   0.903   0.819  0.1888 -0.4004  1.1022
  129SOL     OW  385   2.442   1.932   1.037  0.7074  0.0352  0.7154
  129SOL    HW1  386   2.447   1.959   1.136 -0.4386 -1.8489  0.3754
  129SOL    HW2  387   2.443   2.020   0.979  1.1232  3.8970 -2.3702
  130SOL     OW  388   2.349   0.897   0.863 -0.0626 -0.1048 -0.1913
  130SOL    HW1  389   2.427   0.884   0.933  2.0554  0.5320  2.1530
  130SOL    HW2  390   2.307   0.993   0.867  1.5731  1.7088  0.2941
  131SOL     OW  391   2.917   1.197   2.451  0.1712 -0.1453  0.0080
  131SOL    HW1  392   2.860   1.110   2.448  0.9148  0.6354 -0.2303
  131SOL    HW2  393   3.009   1.167   2.417  0.5190  0.3706  1.4558
  132SOL     OW  394   1.411   1.435   2.041  0.2198  0.2562  0.0086
  132SOL    HW1  395   1.335   1.371   2.069  1.6201  2.0460 -3.2242
  132SOL    HW2  396   1.503   1.396   2.016  0.2077  2.7877  2.7134
  133SOL     OW  397   0.161   1.076   0.330 -0.2423  0.0252 -0.2364
  133SOL    HW1  398   0.115   1.151   0.383  0.5386  0.9427 -0.1432
  133SOL    HW2  399   0.202   1.108   0.245  1.1063  0.3163 -1.4806
  134SOL     OW  400   2.804   1.145   0.264 -0.3116  0.2142 -0.2312
  134SOL    HW1  401   2.837   1.084   0.188  3.6928  0.3148  0.9583
  134SOL    HW2  402   2.713   1.185   0.236 -0.0327  0.6378  0.3192
  135SOL     OW  403   1.537   0.724   0.123 -0.3115 -1.0161  0.1749
  135SOL    HW1  404   1.519   0.758   0.026 -1.3566 -0.5451 -1.5826
  135SOL    HW2  405   1.498   0.799   0.183 -1.2283  0.7694  0.5803
  136SOL     OW  406   1.886   1.789   1.737  0.3426  0.1067 -0.1268
  136SOL    HW1  407   1.820   1.718   1.774 -0.5411 -0.0396  1.8899
  136SOL    HW2  408   1.830   1.870   1.711  0.4312 -1.6652 -0.2359
  137SOL     OW  409   2.500   2.411   0.670  0.4986 -0.5079 -0.5608
  137SOL    HW1  410   2.567   2.349   0.632 -4.4492  1.4342 -0.2953
  137SOL    HW2  411   2.419   2.418   0.605 -1.6194 -0.7932 -2.4036
  138SOL     OW  412   2.682   0.416   1.246 -0.2784  0.6781 -0.1923
  138SOL    HW1  413   2.749   0.338   1.224 -0.4172 -1.8319 -2.7219
  138SOL    HW2  414   2.653   0.474   1.166 -1.8870  2.0296 -0.4811
  139SOL     OW  415   2.547   0.168   2.880  0.4002 -0.4665 -0.0880
  139SOL    HW1  416   2.582   0.256   2.920 -0.1300  1.6869 -1.3649
  139SOL    HW2  417   2.569   0.087   2.930 -0.3078  1.3259 -1.3067
  140SOL     OW  418   1.169   1.996   2.464  0.3821 -0.0729 -0.1521
  140SOL    HW1  419   1.192   2.091   2.489  0.0142  1.2476  0.8543
  140SOL    HW2  420   1.079   1.986   2.422  4.2099  3.3114  1.9954
  141SOL     OW  421   0.882   0.708   2.267  0.1774  0.7317  0.5788
  141SOL    HW1  422   0.880   0.696   2.365  0.6756 -1.5535 -0.8487
  141SOL    HW2  423   0.942   0.788   2.238 -1.2286 -3.2879  1.3404
  142SOL     OW  424   2.489   2.672   2.877 -0.1190  0.3921  0.1473
  142SOL    HW1  425   2.392   2.681   2.854  0.3733  0.4408  4.1569
  142SOL    HW2  426   2.531   2.610   2.805 -1.5320  0.1140  0.3564
  143SOL     OW  427   1.133   1.935   0.393  0.2500  0.0567 -0.3178
  143SOL    HW1  428   1.228   1.978   0.377 -0.6058  1.4358 -1.1984
  143SOL    HW2  429   1.064   2.003   0.436 -1.5301  1.2254 -0.8678
  144SOL     OW  430   1.244   2.735   0.130 -0.7835 -0.0325  0.5722
  144SOL    HW1  431   1.224   2.675   0.045 -1.0777 -1.2165 -2.2851
  144SOL    HW2  432   1.168   2.806   0.140  0.1593  1.0604 -1.5171
  145SOL     OW  433   1.588   2.380   2.428 -0.8178 -0.4502  0.7396
  145SOL    HW1  434   1.649   2.328   2.493  0.7269 -1.0626 -1.4834
  145SOL    HW2  435   1.523   2.319   2.377  0.0649 -0.3381  1.4015
  146SOL     OW  436   2.319   2.997   2.944  0.0584 -0.1171  0.2932
  146SOL    HW1  437   2.418   3.008   2.935  1.3838  0.7166  2.2198
  146SOL    HW2  438   2.270   3.076   2.895  1.2364 -0.1396  0.1146
  147SOL     OW  439   2.824   1.099   1.270  0.3873 -0.5187  0.6432
  147SOL    HW1  440   2.748   1.128   1.334 -3.2903 -0.3005 -1.4811
  147SOL    HW2  441   2.854   1.169   1.207 -0.7622 -3.4132  0.7451
  148SOL     OW  442   2.093   2.727   0.177  0.0216 -0.5024 -0.7810
  148SOL    HW1  443   2.156   2.754   0.254 -0.4037  1.3022 -1.3199
  148SOL    HW2  444   2.099   2.793   0.100  0.4431  0.4217  1.0275
  149SOL     OW  445   0.511   1.813   2.917 -0.2267  0.2918 -0.5425
  149SOL    HW1  446   0.559   1.734   2.960  1.6823 -1.3128  1.5494
  149SOL    HW2  447   0.435   1.791   2.854  0.8688 -0.3451  0.1999
  150SOL     OW  448   0.453   2.438   0.528 -0.0732  0.1969 -0.5105
  150SOL    HW1  449   0.516   2.377   0.475 -1.2557  2.8588  2.9419
  150SOL    HW2  450   0.471   2.432   0.630  1.2847 -0.8944  0.9849
  151SOL     OW  451   0.237   1.149   0.072  0.2498  0.5073  0.4819
  151SOL    HW1  452   0.323   1.097   0.062  0.3403  0.6653 -0.2750
  151SOL    HW2  453   0.190   1.163   3.088  3.0895 -0.7668  2.7213
  152SOL     OW  454   2.740   2.131   0.778  0.5127 -0.0928  0.0447
  152SOL    HW1  455   2.781   2.210   0.830 -0.1528  2.9026  0.3471
  152SOL    HW2  456   2.728   2.164   0.682  1.7755 -1.6796 -1.2075
  153SOL     OW  457   1.716   2.303   0.856 -0.5087  0.4166 -0.5937
  153SOL    HW1  458   1.734   2.291   0.960  1.2416  2.3748  3.3976
  153SOL    HW2  459   1.620   2.294   0.840  1.4777  0.3006 -2.0717
  154SOL     OW  460   0.732   2.812   1.235 -0.0951 -0.1581 -0.2849
  154SOL    HW1  461   0.678   2.884   1.182 -2.2582  0.0471  0.4153
  154SOL    HW2  462   0.832   2.822   1.218 -3.2017 -0.3362 -1.3171
  155SOL     OW  463   2.765   1.870   0.715 -0.0111  0.2610 -0.3208
  155SOL    HW1  464   2.751   1.965   0.750  1.5829  0.0585 -1.9169
  155SOL    HW2  465   2.732   1.865   0.621 -1.1835 -1.6353 -0.4588
  156SOL     OW  466   2.586   2.335   2.939  0.0615  0.2662 -0.0585
  156SOL    HW1  467   2.656   2.384   2.999  0.7579  0.3262 -0.3999
  156SOL    HW2  468   2.567   2.237   2.971  1.6584  1.8137  0.2933
  157SOL     OW  469   0.408   2.330   1.596  0.1729 -0.1510 -0.1254
  157SOL    HW1  470   0.353   2.401   1.644 -1.0219 -2.9643  0.7643
  157SOL    HW2  471   0.349   2.279   1.523 -2.8110  0.0092 -0.8782
  158SOL     OW  472   1.523   0.442   0.645  0.4118 -0.6636 -0.1307
  158SOL    HW1  473   1.472   0.358   0.653  1.3012  4.0087 -0.2181
  158SOL    HW2  474   1.554   0.474   0.734  0.5727 -0.8555 -0.4274
  159SOL     OW  475   1.779   0.615   0.176  0.5679 -0.0211 -0.2445
  159SOL    HW1  476   1.781   0.547   0.252 -0.0203  3.4561 -0.5338
  159SOL    HW2  477   1.687   0.662   0.172 -0.6080 -1.2822 -1.1392
  160SOL     OW  478   0.855   1.451   0.537  0.0483  0.4215  0.4989
  160SOL    HW1  479   0.849   1.352   0.572 -2.0474  1.0223  0.7487
  160SOL    HW2  480   0.856   1.451   0.437  0.7737 -1.1094 -1.9601
  161SOL     OW  481   2.926   2.453   2.651  0.3197  0.2606  0.3990
  161SOL    HW1  482   2.827   2.474   2.664 -3.4641  2.3012 -1.7660
  161SOL    HW2  483   2.941   2.349   2.653  0.3784 -2.5864 -0.5641
  162SOL     OW  484   0.054   2.185   1.250 -0.2296 -0.0789 -0.0569
  162SOL    HW1  485   3.090   2.243   1.290  3.7163 -1.3096 -0.6923
  162SOL    HW2  486   0.043   2.184   1.151  2.0644  0.0948  1.0646
  163SOL     OW  487   0.402   0.470   2.921 -0.2751 -0.4430 -0.2043
  163SOL    HW1  488   0.338   0.545   2.895  0.7385  1.1037 -0.3514
  163SOL    HW2  489   0.420   0.407   2.844 -0.5040  2.5790  2.2805
  164SOL     OW  490   0.218   2.785   2.478  0.1325  0.1657 -0.2341
  164SOL    HW1  491   0.320   2.772   2.489 -2.1149  0.0285  0.5854
  164SOL    HW2  492   0.171   2.709   2.531 -0.5705  0.0645 -0.2616
  165SOL     OW  493   2.510   0.869   1.695 -0.1282 -0.6426 -0.3222
  165SOL    HW1  494   2.582   0.846   1.626  0.2884 -0.0503  0.9318
  165SOL    HW2  495   2.539   0.854   1.794  0.0073 -0.5207 -0.2143
  166SOL     OW  496   1.934   2.024   1.406 -0.4811 -0.0820 -0.1696
  166SOL    HW1  497   1.987   2.041   1.321 -2.2312  0.6429 -1.4991
  166SOL    HW2  498   1.841   1.991   1.388 -0.6916 -0.8201 -0.5860
  167SOL     OW  499   0.731   0.886   2.477  0.1154 -0.0506 -0.2833
  167SOL    HW1  500   0.662   0.823   2.517 -2.1654 -0.7827  0.1445
  167SOL    HW2  501   0.825   0.848   2.494 -0.7063 -1.9875 -0.5668
  168SOL     OW  502   2.031   0.281   2.222  0.4063 -0.0881  0.5064
  168SOL    HW1  503   1.982   0.247   2.303 -0.2726 -1.3885 -1.2890
  168SOL    HW2  504   2.080   0.210   2.179 -1.5661  0.3736  2.5243
  169SOL     OW  505   0.464   1.009   0.033 -0.3017  0.0463 -0.9732
  169SOL    HW1  506   0.563   1.006   0.072  0.1253 -0.9274 -0.3825
  169SOL    HW2  507   0.423   0.917   0.037  0.6111  2.2218 -0.7058
  170SOL     OW  508   0.743   1.507   1.484 -0.0788 -0.1877  0.3519
  170SOL    HW1  509   0.659   1.452   1.504 -0.7001  0.8487  1.0629
  170SOL    HW2  510   0.797   1.474   1.406 -0.5467  1.9754 -0.2005
  171SOL     OW  511   0.890   2.425   1.880  0.2124  0.5473  0.0712
  171SOL    HW1  512   0.903   2.386   1.788 -1.4406 -2.6947  0.8895
  171SOL    HW2  513   0.866   2.523   1.874  0.6540 -2.0444  0.3423
  172SOL     OW  514   1.190   2.888   1.940 -0.4193  0.0293  0.1094
  172SOL    HW1  515   1.135   2.938   2.008  0.4521  0.6523  1.9244
  172SOL    HW2  516   1.226   2.802   1.979  0.2073  1.7861 -0.3828
  173SOL     OW  517   1.463   2.301   0.786 -0.1773 -0.0339 -0.0820
  173SOL    HW1  518   1.430   2.214   0.746  0.3905  1.8167 -1.4273
  173SOL    HW2  519   1.385   2.337   0.846 -1.4016  0.8930  0.6168
  174SOL     OW  520   2.256   2.870   0.369  0.3517 -0.2286  0.1567
  174SOL    HW1  521   2.346   2.896   0.407  0.1825 -0.1089  0.3368
  174SOL    HW2  522   2.209   2.950   0.326  0.8203 -0.9681  0.0051
  175SOL     OW  523   1.225   1.367   0.673 -0.0373 -0.1497 -0.1233
  175SOL    HW1  524   1.302   1.421   0.629  1.8113  0.4791 -2.1356
  175SOL    HW2  525   1.157   1.434   0.707 -0.4272 -0.7940 -2.3128
  176SOL     OW  526   0.646   1.620   0.580  0.3754 -0.0542  0.0054
  176SOL    HW1  527   0.658   1.709   0.536  0.0124  1.1851  0.1192
  176SOL    HW2  528   0.726   1.557   0.562  1.7748 -3.1598 -1.7370
  177SOL     OW  529   1.272   1.159   1.188  0.6097  0.6091 -0.1999
  177SOL    HW1  530   1.333   1.237   1.205  0.3349 -2.2539  2.0218
  177SOL    HW2  531   1.307   1.083   1.132 -1.7744  0.8498  1.5560
  178SOL     OW  532   2.431   1.828   0.202 -0.0950  0.1833  0.4005
  178SOL    HW1  533   2.378   1.915   0.198 -0.0818  0.0739 -0.9101
  178SOL    HW2  534   2.401   1.768   0.281 -1.2565 -0.8401  0.1814
  179SOL     OW  535   1.188   2.558   3.029 -0.1437 -0.0932 -0.2418
  179SOL    HW1  536   1.162   2.541   2.933  2.7379 -0.4825  0.5188
  179SOL    HW2  537   1.267   2.502   3.062  0.3114 -0.7642  0.7565
  180SOL     OW  538   2.048   1.353   1.875 -0.5047 -0.1479 -0.1954
  180SOL    HW1  539   2.139   1.308   1.880  0.7675  2.7051 -1.6777
  180SOL    HW2  540   2.051   1.451   1.845 -0.8875 -2.4374  1.4087
  181SOL     OW  541   0.945   0.701   2.562  0.5237 -0.1643 -0.1404
  181SOL    HW1  542   1.000   0.788   2.562  0.0249 -2.0260 -1.0279
  181SOL    HW2  543   0.974   0.641   2.639 -0.2935  0.1072  2.3623
  182SOL     OW  544   2.892   1.418   2.282  0.5724  0.2930  0.5689
  182SOL    HW1  545   2.903   1.350   2.354  0.6752  0.1490 -1.0704
  182SOL    HW2  546   2.866   1.364   2.194 -1.6724  2.0302  1.6351
  183SOL     OW  547   1.222   0.459   2.473 -0.0615  0.1244 -0.0933
  183SOL    HW1  548   1.264   0.400   2.548  0.4724  0.7865  1.0437
  183SOL    HW2  549   1.293   0.484   2.402  3.0833  1.4723 -0.6497
  184SOL     OW  550   0.421   0.622   1.479 -0.5136 -0.5976  0.1259
  184SOL    HW1  551   0.468   0.632   1.569 -1.2196 -0.8961 -0.6123
  184SOL    HW2  552   0.403   0.522   1.461  0.3938  0.3686 -0.9579
  185SOL     OW  553   2.292   1.758   0.433  0.1567 -0.5932 -0.0445
  185SOL    HW1  554   2.278   1.847   0.386  0.1081  2.4475 -1.3493
  185SOL    HW2  555   2.201   1.720   0.457  0.9119 -0.9461  0.0181
  186SOL     OW  556   0.260   1.898   0.267 -0.0290  0.8698 -0.7119
  186SOL    HW1  557   0.358   1.878   0.233  2.0034 -0.1625 -3.1438
  186SOL    HW2  558   0.237   1.849   0.357 -0.3106 -0.4995  3.2682
  187SOL     OW  559   1.994   2.292   0.185 -0.4576 -0.1287 -0.0135
  187SOL    HW1  560   1.965   2.249   0.272 -1.0074  0.6472 -0.3818
  187SOL    HW2  561   2.058   2.235   0.134 -1.9873  0.5802  1.7055
  188SOL     OW  562   0.857   2.131   1.089  0.1315  0.1254 -0.1057
  188SOL    HW1  563   0.823   2.178   1.168  2.9424 -3.2901 -0.0024
  188SOL    HW2  564   0.918   2.054   1.113 -1.3644  0.8076  0.8404
  189SOL     OW  565   2.206   1.373   2.605  0.5719 -0.2693 -0.2894
  189SOL    HW1  566   2.103   1.400   2.614 -2.7184  2.8795  3.2666
  189SOL    HW2  567   2.274   1.449   2.621  1.9744 -1.0245  0.5450
  190SOL     OW  568   0.853   2.554   2.242  0.4849 -0.3179 -0.4157
  190SOL    HW1  569   0.767   2.583   2.198 -0.4733 -0.0979  0.3407
  190SOL    HW2  570   0.840   2.548   2.346 -1.0606  2.3120  2.7143
  191SOL     OW  571   2.632   0.797   1.476 -0.4063 -0.3872  0.1509
  191SOL    HW1  572   2.566   0.839   1.407 -0.5178  2.0435 -0.2931
  191SOL    HW2  573   2.689   0.724   1.431  2.9923 -2.9452 -2.0157
  192SOL     OW  574   2.397   0.558   1.671  0.0700  0.7296 -0.0367
  192SOL    HW1  575   2.309   0.542   1.620 -1.3880  1.1784  0.3621
  192SOL    HW2  576   2.458   0.616   1.614  1.0118 -1.8174 -1.6962
  193SOL     OW  577   0.479   0.390   0.461  0.2635 -0.3572  0.1186
  193SOL    HW1  578   0.427   0.365   0.546  0.9320 -0.7478 -0.5971
  193SOL    HW2  579   0.535   0.473   0.479  1.6117  2.9241  0.1408
  194SOL     OW  580   1.112   2.374   1.411 -0.2050  0.1290  0.2260
  194SOL    HW1  581   1.149   2.302   1.346 -0.2253  0.8756 -0.0593
  194SOL    HW2  582   1.192   2.435   1.433  1.6631  0.9734  3.7890
  195SOL     OW  583   2.409   1.069   0.441 -0.1962 -0.5708 -0.1310
  195SOL    HW1  584   2.469   0.992   0.461 -2.7591  5.3017 -2.3467
  195SOL    HW2  585   2.445   1.122   0.362 -1.2190 -0.4708 -0.9597
  196SOL     OW  586   0.645   2.388   1.482 -0.0353 -0.2611  0.6560
  196SOL    HW1  587   0.630   2.472   1.425  0.2095 -0.7608  1.7180
  196SOL    HW2  588   0.565   2.368   1.543 -1.9628 -0.6948  0.5555
  197SOL     OW  589   0.397   0.786   2.299 -0.3619  0.0961 -0.1919
  197SOL    HW1  590   0.349   0.874   2.286 -0.9247  0.1993  0.6496
  197SOL    HW2  591   0.331   0.711   2.331  0.3417 -6.5591 -0.6221
  198SOL     OW  592   1.713   0.915   0.484 -0.3072 -0.3429  0.0058
  198SOL    HW1  593   1.614   0.927   0.487  0.4651  0.6268 -1.7981
  198SOL    HW2  594   1.757   1.006   0.469 -0.6486  0.2662 -0.6103
  199SOL     OW  595   2.637   0.532   1.833 -0.6349 -0.2600  0.4655
  199SOL    HW1  596   2.601   0.511   1.925  0.3835 -2.0370 -1.1113
  199SOL    HW2  597   2.557   0.532   1.772 -0.1412  0.5834  2.4271
  200SOL     OW  598   2.242   0.113   2.779 -0.0608 -0.0516  0.3244
  200SOL    HW1  599   2.325   0.172   2.786 -0.4413 -2.5565  1.3450
  200SOL    HW2  600   2.161   0.170   2.821 -3.8896  3.1550  1.1366
  201SOL     OW  601   2.531   0.026   1.263 -0.1151  0.2392 -0.0015
  201SOL    HW1  602   2.523   3.089   1.355  0.0096  2.6930  0.5068
  201SOL    HW2  603   2.445   0.075   1.238  1.0858  0.3893  2.2248
  202SOL     OW  604   3.052   2.752   0.224 -0.2709 -0.2837 -0.3838
  202SOL    HW1  605   3.104   2.763   0.311 -0.2038 -0.0314  0.9031
  202SOL    HW2  606   2.954   2.774   0.247 -0.2891  1.8092  1.3938
  203SOL     OW  607   1.237   1.898   2.872 -0.4833  0.1630  0.3272
  203SOL    HW1  608   1.224   1.843   2.958 -2.3246  0.9047 -2.5981
  203SOL    HW2  609   1.296   1.847   2.804 -1.1346 -3.1526  1.0554
  204SOL     OW  610   0.478   2.123   2.425  0.1116 -0.2523 -0.3654
  204SOL    HW1  611   0.418   2.069   2.365  1.2818 -1.9514  0.9061
  204SOL    HW2  612   0.420   2.190   2.482 -0.0090  1.1507  1.1782
  205SOL     OW  613   1.128   0.796   0.985 -0.3558  0.2518 -0.0662
  205SOL    HW1  614   1.093   0.733   1.061 -0.7081 -2.0704  2.3013
  205SOL    HW2  615   1.226   0.826   1.003  0.5807  2.1109  2.0058
  206SOL     OW  616   0.216   0.780   2.854 -0.0829  0.0998 -0.3215
  206SOL    HW1  617   0.268   0.861   2.820 -2.5607  1.3958  0.4295
  206SOL    HW2  618   0.179   0.733   2.775  0.0056 -0.4721 -0.2268
  207SOL     OW  619   1.557   2.501   1.718 -0.0234 -0.0319  0.1519
  207SOL    HW1  620   1.648   2.485   1.763  1.4748 -0.2971 -1.5368
  207SOL    HW2  621   1.479   2.462   1.777 -0.8119  0.5282  1.6508
  208SOL     OW  622   0.340   0.012   1.001 -0.1068  0.3323 -0.1851
  208SOL    HW1  623   0.307   3.031   1.046 -1.2825  2.9288  1.1044
  208SOL    HW2  624   0.395   3.105   0.916  1.6233 -2.2537 -2.3114
  209SOL     OW  625   1.795   1.110   0.741  0.6036 -0.1411 -0.4729
  209SOL    HW1  626   1.859   1.045   0.790  2.7419  2.9488  1.6741
  209SOL    HW2  627   1.825   1.120   0.644  1.8767 -1.5690 -1.2691
  210SOL     OW  628   2.605   0.467   0.811 -0.1258  0.2010  0.0675
  210SOL    HW1  629   2.518   0.497   0.771  1.1609  1.8975  3.2794
  210SOL    HW2  630   2.668   0.455   0.730  4.1657 -0.5303  0.7244
  211SOL     OW  631   1.278   3.045   0.335  0.7280  0.2746  0.1939
  211SOL    HW1  632   1.216   3.000   0.270  1.0222  0.9616 -0.8382
  211SOL    HW2  633   1.376   3.012   0.314  2.5673 -2.2052 -1.8656
  212SOL     OW  634   1.951   2.208   0.739  0.4036  0.7257 -0.3406
  212SOL    HW1  635   2.041   2.246   0.779  1.3998  1.3722  1.0968
  212SOL    HW2  636   1.872   2.248   0.792  1.2276  0.9435 -2.3335
  213SOL     OW  637   2.161   0.578   2.741 -0.3072  0.0800  0.0794
  213SOL    HW1  638   2.258   0.564   2.765 -0.8058 -1.5514  0.2090
  213SOL    HW2  639   2.132   0.499   2.681  1.8812 -3.1737 -0.7016
  214SOL     OW  640   1.256   1.770   1.975  0.0561 -0.2434 -0.0157
  214SOL    HW1  641   1.213   1.765   2.070 -0.5913  3.9019  1.7629
  214SOL    HW2  642   1.218   1.696   1.919 -0.5193  1.0611  1.8805
  215SOL     OW  643   0.193   1.323   0.952 -0.4718  0.0562 -0.5109
  215SOL    HW1  644   0.140   1.288   1.035  0.2266 -2.8155  2.8576
  215SOL    HW2  645   0.292   1.294   0.963  0.5967  0.1898 -0.2658
  216SOL     OW  646   0.203   2.211   2.731  0.1399 -0.2581 -0.1286
  216SOL    HW1  647   0.228   2.304   2.701  1.1317 -1.4912  0.3723
  216SOL    HW2  648   0.230   2.187   2.833  2.3082 -1.5363  0.4222
  217SOL     OW  649   2.577   1.095   1.422 -0.1448 -0.5505 -0.0894
  217SOL    HW1  650   2.526   1.024   1.363  0.6251 -0.7854  0.5184
  217SOL    HW2  651   2.525   1.181   1.434  0.3696  1.2931 -1.8405
  218SOL     OW  652   0.565   2.384   2.014 -0.3266  0.0721  0.2259
  218SOL    HW1  653   0.553   2.314   1.942 -0.9087  0.8115  0.2778
  218SOL    HW2  654   0.601   2.338   2.096 -0.3360  0.1821 -1.9802
  219SOL     OW  655   2.092   1.420   0.293 -0.1398 -0.8602 -0.3539
  219SOL    HW1  656   2.139   1.489   0.233 -4.8245 -0.4318  0.1029
  219SOL    HW2  657   2.133   1.413   0.385 -1.2896  1.2322 -0.9770
  220SOL     OW  658   2.353   0.778   0.627 -0.3425  0.1350  0.2305
  220SOL    HW1  659   2.363   0.819   0.722 -0.0139  2.7816  0.6863
  220SOL    HW2  660   2.255   0.782   0.598 -1.0863 -1.7928 -0.5700
  221SOL     OW  661   2.792   0.721   0.185  0.2121 -0.4509  0.8564
  221SOL    HW1  662   2.831   0.805   0.140  0.9024  1.1338 -0.9181
  221SOL    HW2  663   2.864   0.654   0.193 -0.3003  3.1848 -2.8362
  222SOL     OW  664   1.562   1.229   0.686  0.1773  0.0659  0.2211
  222SOL    HW1  665   1.650   1.179   0.704  0.5856  0.3935 -0.9972
  222SOL    HW2  666   1.513   1.234   0.775 -1.5685  0.5902 -0.4605
  223SOL     OW  667   0.945   0.012   2.898 -0.4026  0.2976  0.1731
  223SOL    HW1  668   0.872   0.084   2.913  1.7109 -0.1758  0.9153
  223SOL    HW2  669   0.974   3.106   2.801  2.0792 -0.0517 -1.7895
  224SOL     OW  670   1.203   3.030   1.229 -0.4571  0.4463  0.0494
  224SOL    HW1  671   1.192   0.010   1.177  3.2760 -3.7103 -2.9090
  224SOL    HW2  672   1.249   3.049   1.321  1.2204 -0.2747 -0.4550
  225SOL     OW  673   0.291   2.615   1.974  0.0556 -0.4522 -0.3527
  225SOL    HW1  674   0.352   2.644   2.054  0.4222  1.5561  1.7497
  225SOL    HW2  675   0.226   2.538   2.002  0.2828 -2.9140 -0.8267
  226SOL     OW  676   1.440   1.274   0.457  0.2936  0.2185 -0.0651
  226SOL    HW1  677   1.478   1.260   0.553  1.5205 -1.1503  1.7109
  226SOL    HW2  678   1.410   1.374   0.453 -0.4264 -0.0358  0.0353
  227SOL     OW  679   0.578   1.462   0.803  0.1111 -0.7508 -0.2507
  227SOL    HW1  680   0.576   1.520   0.723 -2.0418 -2.0179  3.0516
  227SOL    HW2  681   0.541   1.370   0.786  2.0125 -0.5431  1.9105
  228SOL     OW  682   3.037   1.504   0.736 -0.0363  0.3446 -0.6068
  228SOL    HW1  683   3.011   1.405   0.752  3.1361 -2.9504  0.6848
  228SOL    HW2  684   3.052   1.515   0.640  1.6554 -0.0831  1.5199
  229SOL     OW  685   2.687   0.377   2.991 -0.4366 -0.3203  0.1764
  229SOL    HW1  686   2.656   0.473   3.018  3.1516  0.6500  0.5857
  229SOL    HW2  687   2.751   0.345   3.065  0.7272 -4.0503  0.4959
  230SOL     OW  688   2.078   1.009   1.130 -0.2765  0.7685  0.0940
  230SOL    HW1  689   2.140   1.087   1.139 -0.6846 -0.7463 -2.1332
  230SOL    HW2  690   2.025   1.002   1.219 -0.6624  1.2664  1.9410
  231SOL     OW  691   1.573   1.303   2.918  0.1246  0.1638 -0.2019
  231SOL    HW1  692   1.638   1.327   2.847 -1.8446 -0.1589  1.0110
  231SOL    HW2  693   1.614   1.288   3.008 -1.9109  0.9796 -0.7201
  232SOL     OW  694   2.479   2.149   0.868  0.2405 -0.9014 -0.0180
  232SOL    HW1  695   2.575   2.133   0.838 -0.3854  0.2161 -1.1095
  232SOL    HW2  696   2.480   2.218   0.941 -0.4599 -1.5564 -3.5790
  233SOL     OW  697   0.630   2.605   0.881 -0.2017  0.2531  0.7277
  233SOL    HW1  698   0.605   2.694   0.923  0.4801 -0.1495  0.5776
  233SOL    HW2  699   0.709   2.606   0.810  3.7056 -0.9140 -2.3879
  234SOL     OW  700   0.649   0.485   2.658  0.6217 -0.0989 -0.0984
  234SOL    HW1  701   0.621   0.576   2.615 -1.9262  1.9682 -1.0216
  234SOL    HW2  702   0.668   0.501   2.757  2.5968 -0.0923  1.3971
  235SOL     OW  703   2.819   0.831   2.264 -0.2566 -0.2860 -0.8112
  235SOL    HW1  704   2.763   0.758   2.225 -1.5236  0.9627 -2.1307
  235SOL    HW2  705   2.918   0.816   2.268  1.3770 -0.7017 -1.9900
  236SOL     OW  706   1.473   2.882   1.469  0.1647  0.2862 -0.6221
  236SOL    HW1  707   1.469   2.821   1.387 -1.2458  0.0119 -1.4762
  236SOL    HW2  708   1.508   2.829   1.547  0.2817 -2.6595  1.8813
  237SOL     OW  709   0.958   1.482   2.457  0.1259  0.1634 -0.4644
  237SOL    HW1  710   0.962   1.384   2.432 -3.6211  2.3914 -0.7448
  237SOL    HW2  711   1.055   1.523   2.478  2.6012 -0.3524 -2.0377
  238SOL     OW  712   1.027   0.284   2.391 -0.7679 -0.3063 -0.1006
  238SOL    HW1  713   1.075   0.370   2.421 -0.0076  0.2006  0.9775
  238SOL    HW2  714   0.928   0.282   2.421 -1.2179  0.8004 -2.1762
  239SOL     OW  715   0.120   2.394   2.028 -0.3008  0.3585 -0.2828
  239SOL    HW1  716   0.184   2.380   2.109  3.3961  0.5886  0.9570
  239SOL    HW2  717   0.118   2.310   1.975  1.4925 -5.4189  1.9407
  240SOL     OW  718   2.534   2.820   0.685 -0.9257  0.0585  0.1504
  240SOL    HW1  719   2.508   2.734   0.734 -0.4807  0.8298 -1.9314
  240SOL    HW2  720   2.508   2.900   0.741  0.5301 -0.5387 -0.1820
  241SOL     OW  721   2.836   1.234   0.533  0.2074 -0.0173 -0.0904
  241SOL    HW1  722   2.767   1.306   0.555 -2.5646  0.5099  0.2168
  241SOL    HW2  723   2.819   1.198   0.436 -0.8951 -0.6469 -1.4937
  242SOL     OW  724   1.819   2.492   1.846  0.6088 -0.3621  0.1299
  242SOL    HW1  725   1.881   2.415   1.864  0.0043  1.1913  2.5707
  242SOL    HW2  726   1.869   2.563   1.793  0.3006 -2.7623  0.1549
  243SOL     OW  727   0.445   2.715   2.201 -0.3784 -0.0119  0.0560
  243SOL    HW1  728   0.529   2.692   2.150  0.5390 -2.0844 -1.4997
  243SOL    HW2  729   0.478   2.747   2.291 -0.3332  1.6134 -0.7064
  244SOL     OW  730   2.588   0.563   2.556 -0.0618  0.2770 -0.6746
  244SOL    HW1  731   2.666   0.599   2.609 -1.9889  0.4194  2.9354
  244SOL    HW2  732   2.547   0.482   2.599  3.0572  4.1930  0.4388
  245SOL     OW  733   1.355   0.116   0.933 -0.1884 -0.1053  0.0885
  245SOL    HW1  734   1.275   0.115   0.993  4.4608  0.1249 -2.3659
  245SOL    HW2  735   1.426   0.161   0.991 -0.0169 -0.6701 -0.5982
  246SOL     OW  736   1.730   2.714   0.275 -0.2823 -0.0880 -0.5682
  246SOL    HW1  737   1.809   2.671   0.223  0.8481 -2.4399 -1.1343
  246SOL    HW2  738   1.640   2.718   0.224  2.6464  1.2338 -0.6764
  247SOL     OW  739   1.319   0.781   2.340 -0.0819  0.5944 -0.0888
  247SOL    HW1  740   1.228   0.752   2.296  0.5427 -0.7854 -0.8701
  247SOL    HW2  741   1.315   0.777   2.444 -1.9196 -1.8016 -2.2457
  248SOL     OW  742   0.057   2.290   1.747 -0.0249  0.1225  0.5815
  248SOL    HW1  743   0.082   2.199   1.705  0.7942 -0.8212  1.7358
  248SOL    HW2  744   3.065   2.297   1.772 -2.7707  0.2500  1.7954
  249SOL     OW  745   3.004   0.531   0.124  0.6067 -0.7214  0.1183
  249SOL    HW1  746   3.102   0.548   0.094  0.9526 -0.3890  0.3003
  249SOL    HW2  747   2.967   0.438   0.102 -1.0991 -0.6325 -2.3621
  250SOL     OW  748   2.836   0.157   2.605  0.0551  0.1485  0.4021
  250SOL    HW1  749   2.877   0.167   2.513 -0.7140  2.0496  0.7214
  250SOL    HW2  750   2.871   0.078   2.657 -0.3689  3.1595  0.1105
  251SOL     OW  751   1.414   0.465   0.164  0.0435 -0.3382  0.0523
  251SOL    HW1  752   1.442   0.395   0.231  0.3228 -0.2987 -2.1876
  251SOL    HW2  753   1.482   0.542   0.163 -0.1649  1.7319  1.0766
  252SOL     OW  754   1.447   2.329   1.928  0.0136  0.6913  0.2895
  252SOL    HW1  755   1.364   2.300   1.984 -0.4092 -1.9048  1.1976
  252SOL    HW2  756   1.507   2.397   1.978  2.2883  0.8437  0.2288
  253SOL     OW  757   2.326   2.539   1.124  0.1937  0.6480 -0.1511
  253SOL    HW1  758   2.334   2.613   1.061  1.9776 -1.0207  0.5815
  253SOL    HW2  759   2.300   2.579   1.212 -0.2213 -1.3614 -1.0596
  254SOL     OW  760   2.394   1.255   0.631 -0.2431  0.4001  0.3467
  254SOL    HW1  761   2.400   1.180   0.558  0.8006 -3.6097 -0.2993
  254SOL    HW2  762   2.358   1.217   0.718 -1.8188 -0.4110  0.0289
  255SOL     OW  763   0.993   2.876   1.210  0.4561 -0.2555  0.3250
  255SOL    HW1  764   1.075   2.941   1.218  1.4493  0.2561 -1.0473
  255SOL    HW2  765   1.018   2.782   1.232  3.2423  0.0794 -2.6360
  256SOL     OW  766   1.878   2.232   1.582  1.1356  0.2981 -0.0878
  256SOL    HW1  767   1.907   2.152   1.525 -2.8574  1.8258 -0.8340
  256SOL    HW2  768   1.786   2.257   1.551  0.8682 -1.9909  0.4637
  257SOL     OW  769   0.822   2.479   2.501 -0.3357 -0.3782 -0.0512
  257SOL    HW1  770   0.853   2.534   2.580  0.9896 -1.0894  0.5694
  257SOL    HW2  771   0.875   2.393   2.504 -0.1198 -2.1418  0.6139
  258SOL     OW  772   0.828   2.468   0.480 -0.3952  0.4354 -0.2351
  258SOL    HW1  773   0.874   2.519   0.408 -1.8707 -1.7231 -1.1223
  258SOL    HW2  774   0.827   2.519   0.570 -0.7310  1.0392  1.6053
  259SOL     OW  775   1.417   0.322   2.879  0.0696  0.0494 -0.4281
  259SOL    HW1  776   1.452   0.234   2.920 -0.0901  0.4662 -0.0629
  259SOL    HW2  777   1.354   0.383   2.934  0.2232  0.8866 -3.0831
  260SOL     OW  778   2.759   0.864   1.171 -0.0491 -0.1151 -0.1606
  260SOL    HW1  779   2.787   0.955   1.206  1.1498 -1.9171  0.1869
  260SOL    HW2  780   2.788   0.787   1.231 -1.4051  1.9026  1.0843
  261SOL     OW  781   0.766   0.274   2.528  0.5135  0.0870  0.2639
  261SOL    HW1  782   0.751   0.357   2.579  1.6222 -2.7623 -1.0769
  261SOL    HW2  783   0.720   0.193   2.573  0.8414 -1.2957 -1.1433
  262SOL     OW  784   0.956   2.303   2.134  0.6786 -0.0267  0.0421
  262SOL    HW1  785   0.907   2.356   2.207 -1.1684  1.6406  1.2414
  262SOL    HW2  786   0.946   2.347   2.039 -0.2653 -0.5400 -3.4709
  263SOL     OW  787   0.423   2.024   3.070  0.5250  0.9161 -0.0962
  263SOL    HW1  788   0.495   2.081   0.013  1.1978 -0.5099 -3.4028
  263SOL    HW2  789   0.482   1.951   3.021  2.1613  1.2946  1.3221
  264SOL     OW  790   1.052   1.486   0.978 -0.2636 -0.5618 -0.3039
  264SOL    HW1  791   1.049   1.494   0.876  1.0604  1.8554 -0.6461
  264SOL    HW2  792   1.090   1.568   1.020 -0.4636 -1.3064  0.4837
  265SOL     OW  793   1.091   2.268   0.656  0.0157  0.1714  0.2348
  265SOL    HW1  794   1.181   2.216   0.658 -1.7186  1.3562 -2.1402
  265SOL    HW2  795   1.105   2.361   0.623  1.1841 -1.2508  2.1090
  266SOL     OW  796   2.116   0.528   0.918 -0.1425 -0.3259  0.0662
  266SOL    HW1  797   2.115   0.453   0.988 -0.5794  0.9310 -0.8935
  266SOL    HW2  798   2.125   0.618   0.960 -2.0162 -2.2687 -0.9237
  267SOL     OW  799   3.083   1.389   2.587  0.2410  0.0728  0.2849
  267SOL    HW1  800   3.067   1.408   2.682  0.7067  3.1984 -0.3781
  267SOL    HW2  801   3.017   1.323   2.548 -0.4755 -2.5351 -2.9807
  268SOL     OW  802   1.542   3.017   0.266 -0.2166  0.3086  0.2390
  268SOL    HW1  803   1.641   3.024   0.298  3.6846 -0.6207  0.1070
  268SOL    HW2  804   1.515   3.097   0.209 -0.2256 -0.6105  0.4967
  269SOL     OW  805   3.061   0.889   2.651 -0.2497 -0.3260 -0.2844
  269SOL    HW1  806   3.069   0.922   2.558 -0.7819  0.9570  0.4035
  269SOL    HW2  807   0.023   0.819   2.673  0.2573 -0.6506  0.1489
  270SOL     OW  808   0.017   1.414   3.106 -0.2757 -0.2033  0.3552
  270SOL    HW1  809   0.023   1.406   0.099 -1.2097 -0.3777 -1.2405
  270SOL    HW2  810   0.067   1.339   3.057 -0.6624  0.1230 -0.6715
  271SOL     OW  811   2.658   1.461   2.513 -0.1284  0.5285  0.0776
  271SOL    HW1  812   2.592   1.533   2.489 -0.0250  0.0642 -2.7444
  271SOL    HW2  813   2.637   1.377   2.459  0.7054  0.9724 -2.7883
  272SOL     OW  814   2.416   2.648   2.165 -0.1710  0.7606 -0.3762
  272SOL    HW1  815   2.365   2.703   2.098  2.1238 -0.5937 -2.4710
  272SOL    HW2  816   2.513   2.680   2.177  2.7681  1.3480  0.8148
  273SOL     OW  817   0.420   2.549   0.060 -0.2452  0.6247  0.1845
  273SOL    HW1  818   0.471   2.477   0.111 -0.1030  1.7652  2.3006
  273SOL    HW2  819   0.332   2.510   0.019 -1.6653 -0.7040 -1.0734
  274SOL     OW  820   0.999   2.307   0.944  0.1462 -0.1085  0.5635
  274SOL    HW1  821   0.984   2.299   0.843 -2.0415  0.9871 -1.9526
  274SOL    HW2  822   0.953   2.227   0.992 -0.6486  0.3067  0.3054
  275SOL     OW  823   2.217   1.581   0.096 -0.2824 -0.4211 -0.3003
  275SOL    HW1  824   2.143   1.652   0.100 -0.3050  0.7778 -0.7927
  275SOL    HW2  825   2.264   1.599   0.009 -0.0652 -2.2519  1.2711
  276SOL     OW  826   2.507   1.656   1.229  0.2067  0.0744  0.3725
  276SOL    HW1  827   2.545   1.580   1.283  1.0761 -0.2506  1.3870
  276SOL    HW2  828   2.560   1.679   1.140 -1.1781  0.3624  1.0804
  277SOL     OW  829   2.436   3.019   0.888  0.2151 -0.6473 -0.3822
  277SOL    HW1  830   2.347   2.979   0.914  0.2759  0.2420 -0.1868
  277SOL    HW2  831   2.511   3.003   0.959  2.7470 -1.5510  1.4887
  278SOL     OW  832   1.584   0.249   2.552  0.1028  0.5049 -0.2178
  278SOL    HW1  833   1.479   0.241   2.560 -0.0821  1.9557  0.9262
  278SOL    HW2  834   1.628   0.193   2.628 -1.2263  2.7265  2.2778
  279SOL     OW  835   1.471   2.703   1.262  0.2784  0.1958  0.0384
  279SOL    HW1  836   1.565   2.671   1.250  0.3420  0.4484  0.2817
  279SOL    HW2  837   1.434   2.721   1.175  2.6800 -0.9840 -0.2172
  280SOL     OW  838   1.237   1.048   0.529  0.3349  0.2167 -0.4281
  280SOL    HW1  839   1.268   1.000   0.616  1.1765 -0.2849 -2.2547
  280SOL    HW2  840   1.315   1.086   0.479 -2.1774  1.2806 -1.0560
  281SOL     OW  841   2.337   1.602   2.653  0.2679  0.2786  0.1413
  281SOL    HW1  842   2.410   1.648   2.598 -1.1318 -0.6980 -2.0066
  281SOL    HW2  843   2.252   1.656   2.675 -1.5764 -1.7152 -0.5572
  282SOL     OW  844   2.941   1.356   2.867 -0.1909 -0.0284 -0.0807
  282SOL    HW1  845   2.982   1.260   2.856  0.3969 -3.5549 -2.8533
  282SOL    HW2  846   2.974   1.397   2.957  2.1317  1.2017 -0.0276
  283SOL     OW  847   1.563   2.693   2.740  0.6357  0.4290  0.1489
  283SOL    HW1  848   1.560   2.601   2.707 -0.1905 -1.1771  1.6220
  283SOL    HW2  849   1.604   2.697   2.830 -0.4271 -1.0199 -1.3915
  284SOL     OW  850   0.775   0.230   2.948  0.4076 -0.3570  0.4931
  284SOL    HW1  851   0.742   0.308   2.889  1.3269  0.1135 -1.2874
  284SOL    HW2  852   0.797   0.271   3.035 -0.3988 -0.0108  0.3323
  285SOL     OW  853   2.065   1.894   2.473 -0.3259 -0.2368  0.1179
  285SOL    HW1  854   2.148   1.914   2.414  0.2817  0.2840 -0.1509
  285SOL    HW2  855   1.988   1.965   2.450 -0.6704 -0.3370 -0.1922
  286SOL     OW  856   1.244   1.859   0.822 -0.1887  0.1856 -0.1895
  286SOL    HW1  857   1.148   1.859   0.801  3.1811 -1.2341  0.1731
  286SOL    HW2  858   1.262   1.845   0.922 -0.0796  1.5144 -0.0324
  287SOL     OW  859   1.715   0.383   1.469  0.1993  0.1069 -0.1635
  287SOL    HW1  860   1.665   0.349   1.553  0.3993 -1.3576  2.4832
  287SOL    HW2  861   1.814   0.408   1.493  1.4459 -0.3579 -1.3737
  288SOL     OW  862   0.699   2.791   2.351  0.0527 -0.3923  0.2135
  288SOL    HW1  863   0.780   2.794   2.415  1.6695 -1.4808  1.1160
  288SOL    HW2  864   0.714   2.859   2.279 -1.7217  1.1592  1.8776
  289SOL     OW  865   0.169   1.240   0.696  0.2672  0.5099  0.2674
  289SOL    HW1  866   0.162   1.290   0.784  1.2377 -2.8953 -1.5287
  289SOL    HW2  867   0.206   1.144   0.711  1.4712 -0.9238 -0.3809
  290SOL     OW  868   1.209   2.143   1.283 -0.6504  0.5643 -0.3159
  290SOL    HW1  869   1.286   2.150   1.219  1.2696  1.3298  0.0628
  290SOL    HW2  870   1.149   2.062   1.257 -0.8111 -2.4236 -1.5687
  291SOL     OW  871   1.963   2.716   0.720  0.1251 -0.0058 -0.2340
  291SOL    HW1  872   1.933   2.810   0.734 -0.7823 -1.4875  1.3712
  291SOL    HW2  873   1.882   2.657   0.701 -0.1073  1.5222  2.1481
  292SOL     OW  874   0.444   0.143   1.746  0.2411 -0.4682  0.0096
  292SOL    HW1  875   0.382   0.064   1.770  1.5460 -1.0740 -0.7761
  292SOL    HW2  876   0.538   0.111   1.752 -0.9128  0.1072 -0.4241
  293SOL     OW  877   2.335   1.816   0.735  0.0808  0.0341 -0.2424
  293SOL    HW1  878   2.424   1.785   0.756 -0.2059  4.5343  1.1043
  293SOL    HW2  879   2.326   1.899   0.676 -3.1038 -0.7555 -0.9865
  294SOL     OW  880   0.685   0.182   2.281 -0.2882  0.7000 -0.2496
  294SOL    HW1  881   0.699   0.214   2.376 -3.2337 -2.0763 -0.1080
  294SOL    HW2  882   0.725   0.084   2.265  0.5991 -2.1845 -1.7270
  295SOL     OW  883   0.836   1.223   0.695  0.3722 -0.3691  0.0658
  295SOL    HW1  884   0.825   1.295   0.765  1.3547 -1.1435  0.2054
  295SOL    HW2  885   0.793   1.134   0.723  0.5637  2.8749  0.5481
  296SOL     OW  886   2.169   2.000   0.913 -0.8422 -0.3888  0.1384
  296SOL    HW1  887   2.219   1.939   0.850  1.7170 -0.6021  0.4276
  296SOL    HW2  888   2.171   2.096   0.877  0.8872  0.0199 -2.8100
  297SOL     OW  889   2.019   0.231   2.856 -0.0484  0.4364  0.3486
  297SOL    HW1  890   2.021   0.269   2.762  3.0645 -1.5654 -4.3579
  297SOL    HW2  891   2.033   0.299   2.928 -0.3119  0.6276 -0.8998
  298SOL     OW  892   1.318   3.102   2.585  0.3034  0.1705  0.3551
  298SOL    HW1  893   1.317   3.012   2.529  1.2368  0.9872 -2.9293
  298SOL    HW2  894   1.352   3.091   2.677  0.0002 -1.0531 -5.6366
  299SOL     OW  895   1.076   2.988   2.166 -0.3826 -0.3381  0.2244
  299SOL    HW1  896   1.106   3.082   2.197 -2.1774 -0.0785  0.8968
  299SOL    HW2  897   1.085   2.916   2.236 -4.7640 -2.5995 -0.6898
  300SOL     OW  898   2.520   0.145   1.656  0.3647 -0.0664  0.3232
  300SOL    HW1  899   2.610   0.189   1.644 -0.3417  0.1618 -0.8407
  300SOL    HW2  900   2.463   0.197   1.724 -0.9544  1.9579 -0.9676
  301SOL     OW  901   2.382   0.340   1.823  0.0961  0.1807 -0.1578
  301SOL    HW1  902   2.386   0.363   1.923 -0.4310 -0.2770 -0.0081
  301SOL    HW2  903   2.380   0.425   1.770 -1.4814  1.4639  2.1186
  302SOL     OW  904   0.852   2.496   3.093  0.6001 -0.5968  0.3801
  302SOL    HW1  905   0.953   2.494   3.096 -1.3542 -0.1198  1.9678
  302SOL    HW2  906   0.803   2.408   3.094 -0.1542  2.0301 -1.1548
  303SOL     OW  907   1.617   1.946   1.467 -0.0877  0.2318  0.3427
  303SOL    HW1  908   1.524   1.967   1.492 -2.2962 -0.7619 -0.6577
  303SOL    HW2  909   1.633   1.940   1.365  2.0329  1.0756 -1.0468
  304SOL     OW  910   0.505   0.832   0.971  0.7345 -0.0297  0.0477
  304SOL    HW1  911   0.426   0.874   1.013  4.0290  2.0782 -0.5128
  304SOL    HW2  912   0.485   0.751   0.916 -2.6391  0.7478 -0.6658
  305SOL     OW  913   0.995   0.657   0.814  0.1733  0.2094  0.0380
  305SOL    HW1  914   1.049   0.719   0.871 -3.2400 -3.2735 -0.6224
  305SOL    HW2  915   1.033   0.655   0.719 -0.4755 -0.3670 -1.0358
  306SOL     OW  916   0.531   1.051   2.869 -0.5150 -0.1448 -0.1045
  306SOL    HW1  917   0.629   1.028   2.848  1.9813 -2.1320 -0.0948
  306SOL    HW2  918   0.515   1.044   2.972  1.5662  1.6187  2.2519
  307SOL     OW  919   1.077   0.169   1.805 -0.6097 -0.2830 -0.1767
  307SOL    HW1  920   1.131   0.256   1.812 -0.0041  2.3345  0.4836
  307SOL    HW2  921   0.987   0.180   1.850 -1.1700 -0.9712  2.4954
  308SOL     OW  922   0.825   0.475   0.932  0.3133  0.3425  0.3103
  308SOL    HW1  923   0.773   0.501   1.013  0.4249  2.4565  0.2976
  308SOL    HW2  924   0.877   0.550   0.893 -2.0355  0.0336 -0.8821
  309SOL     OW  925   2.547   0.844   0.475  0.5094  0.5683 -0.0167
  309SOL    HW1  926   2.472   0.792   0.517  1.9722 -1.6078 -2.9477
  309SOL    HW2  927   2.636   0.821   0.517 -2.1288 -0.7638  1.7210
  310SOL     OW  928   1.109   1.491   0.006 -0.2775  0.1464  0.2580
  310SOL    HW1  929   1.174   1.570   3.101 -0.2074  1.6851 -1.3939
  310SOL    HW2  930   1.152   1.404   3.089 -1.7357 -3.0322 -0.4570
  311SOL     OW  931   2.096   2.542   2.221  0.2797 -0.2645  0.1028
  311SOL    HW1  932   2.076   2.589   2.126  0.2560  4.3645 -0.9410
  311SOL    HW2  933   2.094   2.601   2.304  0.4572  1.4019 -1.3579
  312SOL     OW  934   2.246   2.500   0.074  0.3970 -0.0377  0.2931
  312SOL    HW1  935   2.258   2.399   0.088  0.0706 -0.1970 -0.7643
  312SOL    HW2  936   2.165   2.535   0.124 -1.1437  0.2093  0.2465
  313SOL     OW  937   0.484   0.316   0.057 -0.2564 -0.0649 -0.0300
  313SOL    HW1  938   0.517   0.406   0.089 -2.1836  2.3865 -0.7792
  313SOL    HW2  939   0.424   0.324   3.080 -0.2923  0.6892  0.1225
  314SOL     OW  940   2.331   1.585   2.945 -0.1845 -0.2431 -0.0959
  314SOL    HW1  941   2.425   1.545   2.968  0.5237  0.4632  1.8920
  314SOL    HW2  942   2.339   1.622   2.850 -0.1268 -1.2998 -0.4842
  315SOL     OW  943   1.691   0.375   2.345 -0.4016  0.1974  0.6424
  315SOL    HW1  944   1.640   0.330   2.422 -1.6006 -2.1784 -0.8536
  315SOL    HW2  945   1.731   0.469   2.363  1.4016  0.4678  1.1301
  316SOL     OW  946   0.021   0.890   0.680  0.4666  0.2075 -0.3795
  316SOL    HW1  947   3.100   0.917   0.772 -2.0274  0.4387 -1.1370
  316SOL    HW2  948   3.053   0.887   0.617  2.7398  1.7021  0.4078
  317SOL     OW  949   0.835   2.749   0.118 -0.1282 -0.1115 -0.3107
  317SOL    HW1  950   0.737   2.774   0.139 -1.1822 -0.5830  1.2110
  317SOL    HW2  951   0.836   2.652   0.082 -0.5789 -0.3589  3.8667
  318SOL     OW  952   1.903   2.700   1.676 -0.3381  0.0462 -0.0507
  318SOL    HW1  953   1.940   2.790   1.710  1.2975  2.1875  0.5517
  318SOL    HW2  954   1.918   2.682   1.575  2.5473  0.6688 -2.1791
  319SOL     OW  955   1.291   1.684   3.042 -0.0923 -0.0721  0.5209
  319SOL    HW1  956   1.329   1.701   0.024 -3.4769  0.4003 -4.1927
  319SOL    HW2  957   1.361   1.635   2.984  0.8448  1.7705 -1.9917
  320SOL     OW  958   0.489   1.869   0.885  0.1451 -0.6323  0.0151
  320SOL    HW1  959   0.402   1.892   0.828 -0.9719  0.3963 -0.0168
  320SOL    HW2  960   0.487   1.768   0.910  0.3230 -0.2727 -0.8383
  321SOL     OW  961   2.041   2.667   2.004  0.7224  0.1270  0.2969
  321SOL    HW1  962   2.113   2.736   1.985 -0.5166  2.3372  2.0352
  321SOL    HW2  963   1.949   2.705   2.031 -0.0215 -0.1719 -1.0427
  322SOL     OW  964   2.280   1.957   2.335  0.7303 -0.3713 -0.2694
  322SOL    HW1  965   2.260   2.044   2.284  0.7244 -0.1004 -1.4839
  322SOL    HW2  966   2.345   1.897   2.283 -0.1672 -0.2998  0.1355
  323SOL     OW  967   2.626   0.039   0.749 -0.0726 -0.3190  0.2669
  323SOL    HW1  968   2.545   0.033   0.802  2.8408 -1.2725 -3.9883
  323SOL    HW2  969   2.610   0.081   0.654  3.0349  0.5319 -0.6603
  324SOL     OW  970   2.862   2.722   2.388  0.2297  0.6162  0.9067
  324SOL    HW1  971   2.930   2.657   2.344  0.4902 -2.6724  0.6763
  324SOL    HW2  972   2.782   2.740   2.322  0.8850  1.3276  0.8856
  325SOL     OW  973   1.037   0.571   2.789  0.1885 -0.5437  0.2010
  325SOL    HW1  974   1.113   0.613   2.845 -0.2719  1.3882 -0.3821
  325SOL    HW2  975   1.038   0.468   2.794  3.2271 -0.5290  0.3564
  326SOL     OW  976   2.685   2.474   1.200 -0.1385 -0.1194 -0.1915
  326SOL    HW1  977   2.618   2.413   1.153  1.5736  0.6311 -0.4434
  326SOL    HW2  978   2.676   2.567   1.161  0.9273 -2.4890  1.7178
  327SOL     OW  979   2.532   2.968   0.160  0.1245  0.2596  0.7174
  327SOL    HW1  980   2.530   2.956   0.265 -1.9531 -1.4548  0.0622
  327SOL    HW2  981   2.473   2.899   0.109  1.4365 -1.1318 -1.3709
  328SOL     OW  982   0.576   0.772   1.301 -0.1586 -0.4556 -0.6357
  328SOL    HW1  983   0.584   0.734   1.206 -0.2142 -0.6003 -1.1704
  328SOL    HW2  984   0.494   0.737   1.345 -1.3173  0.6288 -1.1031
  329SOL     OW  985   1.971   0.432   1.509  0.0731  0.2988  0.0122
  329SOL    HW1  986   1.974   0.406   1.604  1.5287  0.4563 -5.0995
  329SOL    HW2  987   2.023   0.516   1.497 -0.5394 -0.6709  0.0386
  330SOL     OW  988   0.642   0.419   0.704 -0.4949  0.0234  0.0863
  330SOL    HW1  989   0.709   0.428   0.625  0.5500 -4.0358 -0.2284
  330SOL    HW2  990   0.695   0.414   0.795 -0.7484 -0.3294  0.6922
  331SOL     OW  991   0.856   1.894   1.939  0.0427 -0.5571 -0.3743
  331SOL    HW1  992   0.862   1.794   1.928 -0.1231  1.3847  2.6089
  331SOL    HW2  993   0.790   1.943   1.882 -0.4111 -1.4288 -0.8042
  332SOL     OW  994   2.552   2.546   1.685 -0.2869  0.2850  0.1502
  332SOL    HW1  995   2.629   2.582   1.637 -0.8535  1.3265  2.0484
  332SOL    HW2  996   2.569   2.520   1.785  0.7619  0.4113  3.3447
  333SOL     OW  997   3.030   3.013   0.811 -0.4021 -0.1023  0.7564
  333SOL    HW1  998   3.040   0.009   0.821  0.1214  1.4341  0.7946
  333SOL    HW2  999   2.971   2.979   0.739  1.9811 -0.1175 -0.4941
  334SOL     OW 1000   0.001   1.227   0.506  0.2592  0.2461 -0.0168
  334SOL    HW1 1001   3.011   1.225   0.533  1.2380  1.6187 -1.0028
  334SOL    HW2 1002   0.061   1.267   0.580  1.1648  0.1744 -0.3871
  335SOL     OW 1003   0.654   2.514   2.831  0.5229 -0.1937  0.1598
  335SOL    HW1 1004   0.732   2.535   2.884 -3.5454  1.6863 -0.7394
  335SOL    HW2 1005   0.601   2.599   2.810  0.1371 -1.6408  2.8759
  336SOL     OW 1006   2.879   2.966   2.041  0.0719  0.4262 -0.0381
  336SOL    HW1 1007   2.826   3.000   2.121 -1.2357 -1.1340 -0.6953
  336SOL    HW2 1008   2.976   2.977   2.066 -1.5643 -0.8124  3.2712
  337SOL     OW 1009   1.322   1.996   1.718  0.5403  0.8677 -0.4178
  337SOL    HW1 1010   1.233   2.008   1.764  0.6507 -1.2326  1.1266
  337SOL    HW2 1011   1.401   2.002   1.782 -0.7821 -2.3374 -1.9047
  338SOL     OW 1012   1.051   0.007   2.644  0.1623  0.1197  0.4250
  338SOL    HW1 1013   0.991   0.030   2.560  2.5244  0.3819  0.6663
  338SOL    HW2 1014   1.151   3.093   2.618 -0.0999 -2.7780 -0.7059
  339SOL     OW 1015   0.589   1.123   2.359  0.5434 -0.4162  0.0922
  339SOL    HW1 1016   0.588   1.147   2.259  0.1245  0.8239 -0.5064
  339SOL    HW2 1017   0.639   1.035   2.371  0.2831  1.6100 -0.0774
  340SOL     OW 1018   2.216   0.344   1.148  0.3289 -0.4865 -0.0363
  340SOL    HW1 1019   2.228   0.250   1.121  1.3180  0.5089 -0.2892
  340SOL    HW2 1020   2.296   0.384   1.195 -0.1274 -1.8423  0.1005
  341SOL     OW 1021   2.269   1.156   0.873 -0.0879  0.3287 -0.3740
  341SOL    HW1 1022   2.191   1.199   0.817 -0.7807 -3.7342  0.5508
  341SOL    HW2 1023   2.257   1.174   0.970  2.3656 -0.8748  0.2798
  342SOL     OW 1024   1.977   2.715   2.768 -0.0777 -0.7815 -0.1649
  342SOL    HW1 1025   1.936   2.630   2.743  0.6512  2.1376  0.3314
  342SOL    HW2 1026   1.929   2.742   2.857  0.1185 -0.4143  0.0315
  343SOL     OW 1027   3.101   2.550   1.356 -0.3932  0.4040  0.8305
  343SOL    HW1 1028   3.059   2.455   1.350 -1.9425 -0.3084 -0.0925
  343SOL    HW2 1029   0.095   2.548   1.366 -1.1621  1.1262 -2.4552
  344SOL     OW 1030   2.431   2.710   1.414 -0.2444  0.2084 -0.4291
  344SOL    HW1 1031   2.526   2.673   1.418  0.0789 -0.3045 -0.3533
  344SOL    HW2 1032   2.381   2.699   1.503 -2.4087 -0.4944  1.5836
  345SOL     OW 1033   2.463   2.167   0.180  0.2994 -0.0781  0.5832
  345SOL    HW1 1034   2.482   2.156   0.078  0.8566  1.3236 -3.1033
  345SOL    HW2 1035   2.493   2.258   0.211 -2.0071  1.2546 -1.3616
  346SOL     OW 1036   1.586   2.271   1.522  0.2269 -0.0272  0.3023
  346SOL    HW1 1037   1.511   2.202   1.510  0.1664  0.1352  0.0731
  346SOL    HW2 1038   1.561   2.343   1.591  0.3136 -0.2417 -0.9557
  347SOL     OW 1039   1.111   1.850   1.542  0.5049 -0.2847  0.1458
  347SOL    HW1 1040   1.193   1.786   1.530  3.8686  0.3119 -2.0748
  347SOL    HW2 1041   1.052   1.842   1.459  2.3624  0.5765  1.8697
  348SOL     OW 1042   0.179   2.114   1.951  0.3152  0.2336 -0.2867
  348SOL    HW1 1043   0.169   2.114   1.850  2.7065 -0.2133 -0.0848
  348SOL    HW2 1044   0.279   2.113   1.970  0.4235 -1.7802  1.7747
  349SOL     OW 1045   1.659   1.663   1.404 -0.0269  0.2981  0.6119
  349SOL    HW1 1046   1.761   1.671   1.392  1.0392  2.8434  0.7912
  349SOL    HW2 1047   1.626   1.724   1.479 -0.9801  0.8041 -0.1665
  350SOL     OW 1048   2.165   2.211   0.500  0.6306  0.1746  0.1525
  350SOL    HW1 1049   2.063   2.213   0.470 -2.7475 -2.9729 -0.9619
  350SOL    HW2 1050   2.214   2.297   0.488 -2.4322 -0.9720  0.1111
  351SOL     OW 1051   0.627   3.017   1.576 -0.6519  0.2764  0.2577
  351SOL    HW1 1052   0.656   3.078   1.651  1.3398  0.3889  0.9294
  351SOL    HW2 1053   0.697   3.010   1.502 -0.2115 -1.1358  0.1355
  352SOL     OW 1054   0.669   0.973   0.788 -0.0078  0.5070  0.1841
  352SOL    HW1 1055   0.627   0.924   0.871 -0.7141  3.5746  1.4829
  352SOL    HW2 1056   0.746   0.917   0.749 -4.4343 -1.3530  0.9013
  353SOL     OW 1057   1.344   1.817   2.558 -0.3124 -0.3676  0.6604
  353SOL    HW1 1058   1.279   1.890   2.531  3.1516  1.3517 -1.1577
  353SOL    HW2 1059   1.309   1.728   2.532 -0.1804 -0.0311  0.9300
  354SOL     OW 1060   1.818   2.788   2.084  0.2134 -0.3216 -0.0715
  354SOL    HW1 1061   1.803   2.802   2.185 -1.5220 -1.4853  2.1656
  354SOL    HW2 1062   1.727   2.810   2.036 -1.8305  1.3256 -2.0978
  355SOL     OW 1063   2.017   1.173   0.272  0.2744 -0.0587 -0.3136
  355SOL    HW1 1064   2.060   1.268   0.279  0.4871  0.3834  0.8496
  355SOL    HW2 1065   1.984   1.159   0.178 -2.3581  0.4641  2.4174
  356SOL     OW 1066   2.823   1.833   1.307  0.3097 -0.0937 -0.1868
  356SOL    HW1 1067   2.815   1.814   1.202  1.6952  0.7613 -1.3190
  356SOL    HW2 1068   2.904   1.890   1.332 -0.1952 -3.5875 -2.6225
  357SOL     OW 1069   0.078   2.882   1.080 -0.1615 -0.1628  0.4353
  357SOL    HW1 1070   0.045   2.964   1.037  2.2528 -1.9880 -1.9658
  357SOL    HW2 1071   0.006   2.827   1.123  2.9439  1.7119 -1.8103
  358SOL     OW 1072   2.535   1.922   1.291 -0.0557  0.0196  0.0926
  358SOL    HW1 1073   2.626   1.963   1.310 -2.4311  0.0007  1.3072
  358SOL    HW2 1074   2.540   1.824   1.273  0.8179  2.1163 -0.7361
  359SOL     OW 1075   2.139   3.067   2.561  0.2032 -0.5920  0.1789
  359SOL    HW1 1076   2.170   3.086   2.654 -1.2663  1.2913 -0.3662
  359SOL    HW2 1077   2.217   3.076   2.496 -2.3703  0.7652 -1.7766
  360SOL     OW 1078   1.085   2.919   0.702 -0.1341 -0.3886 -0.4648
  360SOL    HW1 1079   1.173   2.940   0.665 -2.3801 -0.8721  2.8995
  360SOL    HW2 1080   1.094   2.831   0.757 -0.7644 -3.7821 -1.2062
  361SOL     OW 1081   2.142   0.112   0.481 -0.0108 -0.0914  0.0514
  361SOL    HW1 1082   2.130   0.069   0.391  2.9220 -2.0757 -1.1242
  361SOL    HW2 1083   2.221   0.173   0.477 -0.9111  2.5234 -0.7157
  362SOL     OW 1084   1.585   0.951   0.966  0.3912  1.7923  0.0911
  362SOL    HW1 1085   1.641   0.872   0.930 -1.5148 -0.1392  0.5113
  362SOL    HW2 1086   1.646   1.006   1.030 -2.3722 -0.9095  1.3782
  363SOL     OW 1087   2.242   1.298   2.345 -0.0253  0.1164  0.7397
  363SOL    HW1 1088   2.227   1.339   2.439  0.5664 -0.8252  0.7446
  363SOL    HW2 1089   2.216   1.198   2.351  0.5057 -1.2587  1.0537
  364SOL     OW 1090   0.232   0.774   1.199  0.0236 -0.1452 -0.4504
  364SOL    HW1 1091   0.285   0.721   1.135 -1.3217  3.3028  1.4200
  364SOL    HW2 1092   0.240   0.873   1.173 -1.0939  2.0781 -1.7415
  365SOL     OW 1093   0.652   0.055   2.639  0.4935 -0.5692 -0.2759
  365SOL    HW1 1094   0.557   0.055   2.679 -0.5164 -1.1809 -0.4211
  365SOL    HW2 1095   0.673   3.077   2.590  1.0629  1.7192 -0.2920
  366SOL     OW 1096   2.355   2.050   2.601  0.1412 -0.8323  0.3785
  366SOL    HW1 1097   2.327   2.008   2.511 -0.2266 -1.3492 -1.4364
  366SOL    HW2 1098   2.386   2.149   2.586 -1.0210 -0.3853 -2.1570
  367SOL     OW 1099   2.794   2.448   3.084 -0.4267 -0.0800 -0.8391
  367SOL    HW1 1100   2.754   2.511   0.044  0.2781 -1.9337 -0.5278
  367SOL    HW2 1101   2.845   2.490   3.006  1.5412 -0.7102 -0.7735
  368SOL     OW 1102   2.497   1.253   1.183 -0.0077 -0.2318  0.0988
  368SOL    HW1 1103   2.525   1.331   1.250  0.6657  1.1256 -0.6851
  368SOL    HW2 1104   2.543   1.260   1.090  0.6072  1.1477 -0.3513
  369SOL     OW 1105   0.869   2.865   2.556 -0.2919 -0.1801 -0.4416
  369SOL    HW1 1106   0.956   2.813   2.567  2.2727 -1.8109 -0.3079
  369SOL    HW2 1107   0.830   2.884   2.646 -1.3920 -1.3058 -1.4695
  370SOL     OW 1108   2.827   0.249   0.417 -0.0505  0.1393 -0.2411
  370SOL    HW1 1109   2.910   0.302   0.428 -2.2165 -0.4354 -0.5903
  370SOL    HW2 1110   2.761   0.292   0.350  0.2293 -0.3806 -0.9426
  371SOL     OW 1111   1.423   2.222   1.120 -0.1335  0.0010 -0.1267
  371SOL    HW1 1112   1.482   2.278   1.185 -3.4534 -0.2859  3.2535
  371SOL    HW2 1113   1.359   2.287   1.070  0.0305  0.7669 -0.2304
  372SOL     OW 1114   0.122   0.659   2.634  0.4892 -0.1525  0.1680
  372SOL    HW1 1115   0.104   0.569   2.678  2.0808 -0.7086  2.9803
  372SOL    HW2 1116   0.148   0.641   2.535 -0.0347  2.9841 -1.7680
  373SOL     OW 1117   2.575   1.741   0.888 -0.3043  0.6180  0.0916
  373SOL    HW1 1118   2.659   1.780   0.854  0.4378  1.8823  2.1908
  373SOL    HW2 1119   2.529   1.810   0.941 -2.0303  0.2795 -0.8940
  374SOL     OW 1120   0.492   2.787   2.507 -0.3187 -0.6026 -0.6783
  374SOL    HW1 1121   0.511   2.754   2.603 -1.0088 -1.9290 -0.3664
  374SOL    HW2 1122   0.578   2.789   2.447  1.9742 -0.5037 -0.5180
  375SOL     OW 1123   0.378   3.075   2.683 -0.3753 -0.3168  0.4412
  375SOL    HW1 1124   0.345   3.096   2.587  0.2265  1.5538  0.0683
  375SOL    HW2 1125   0.334   2.989   2.716 -0.1238  1.7946  0.5775
  376SOL     OW 1126   2.896   2.255   1.824  0.0233 -0.9099 -0.5245
  376SOL    HW1 1127   2.911   2.159   1.857 -0.2294 -0.9510 -2.3734
  376SOL    HW2 1128   2.872   2.328   1.891  1.4443 -0.5910  0.0836
  377SOL     OW 1129   1.776   2.515   2.881  0.6031 -0.3354 -0.4084
  377SOL    HW1 1130   1.779   2.524   2.780 -0.9083 -2.5327 -2.7813
  377SOL    HW2 1131   1.746   2.598   2.931 -0.0635  0.3785 -1.1327
  378SOL     OW 1132   0.223   0.374   2.399  0.2361  0.0513 -0.2934
  378SOL    HW1 1133   0.233   0.302   2.327 -0.1377  0.1165  0.7312
  378SOL    HW2 1134   0.158   0.344   2.479 -3.1041 -0.0269  0.3397
  379SOL     OW 1135   0.420   0.722   0.562 -0.4718 -0.2052 -0.1005
  379SOL    HW1 1136   0.445   0.700   0.662  3.1754  0.0907  0.5652
  379SOL    HW2 1137   0.362   0.800   0.559  2.7630  0.6603 -1.4301
  380SOL     OW 1138   0.359   1.655   1.741  0.8472 -0.0756 -0.4345
  380SOL    HW1 1139   0.432   1.675   1.672  1.0519 -0.6160 -1.5438
  380SOL    HW2 1140   0.387   1.676   1.838 -0.7849  0.6323  1.6690
  381SOL     OW 1141   0.551   1.021   1.905 -0.1619 -0.0349 -0.6101
  381SOL    HW1 1142   0.459   1.026   1.945  1.7449 -0.3411  0.3197
  381SOL    HW2 1143   0.565   1.090   1.827  0.6237 -0.4934  0.3764
  382SOL     OW 1144   2.522   2.035   0.395 -0.5777 -0.1101  0.3153
  382SOL    HW1 1145   2.481   2.089   0.317  0.4446 -0.0269  0.5947
  382SOL    HW2 1146   2.458   2.034   0.474 -1.7003 -2.3294  1.4580
  383SOL     OW 1147   0.168   1.867   3.022 -0.2056  0.0222  0.1767
  383SOL    HW1 1148   0.152   1.817   0.003  0.9374  0.9646 -0.9660
  383SOL    HW2 1149   0.259   1.915   3.028  1.5500  0.8109  0.3258
  384SOL     OW 1150   0.744   1.959   2.899 -0.1316  0.2452  0.5012
  384SOL    HW1 1151   0.735   2.056   2.861 -1.8089  2.3335  0.3556
  384SOL    HW2 1152   0.658   1.912   2.879 -0.3505  0.1370 -2.2614
  385SOL     OW 1153   2.343   2.039   0.621  0.1103  0.2780 -0.2917
  385SOL    HW1 1154   2.384   2.081   0.707  1.2444  0.1002  1.8300
  385SOL    HW2 1155   2.258   2.090   0.594 -1.0598  0.3834 -0.2677
  386SOL     OW 1156   2.243   0.782   1.723 -0.0534  0.2143  0.4670
  386SOL    HW1 1157   2.344   0.755   1.734  1.4144  0.1132 -2.1816
  386SOL    HW2 1158   2.239   0.878   1.762 -2.0964  0.3458  1.4571
  387SOL     OW 1159   2.742   1.651   2.258  0.4585 -0.0889 -0.2517
  387SOL    HW1 1160   2.768   1.559   2.292 -1.2646 -0.6925 -1.7923
  387SOL    HW2 1161   2.807   1.727   2.288  0.9910  0.1292 -0.4015
  388SOL     OW 1162   0.401   1.726   1.991 -0.2349  0.6148 -0.3163
  388SOL    HW1 1163   0.470   1.684   2.053  0.2458 -0.5595 -0.4484
  388SOL    HW2 1164   0.406   1.825   2.001 -0.3275 -3.9162 -0.3009
  389SOL     OW 1165   1.307   1.099   1.779 -0.5793  0.1855  0.2931
  389SOL    HW1 1166   1.230   1.072   1.720 -1.5003 -0.8635 -0.2706
  389SOL    HW2 1167   1.316   1.043   1.863  0.1601  1.1548 -1.2675
  390SOL     OW 1168   1.996   0.035   0.965 -0.1857  0.2116  0.4303
  390SOL    HW1 1169   1.983   0.033   1.065  1.9521  1.1924 -2.0667
  390SOL    HW2 1170   2.027   0.131   0.937  1.9560  0.7515  0.4500
  391SOL     OW 1171   1.912   1.807   1.178 -0.2085  0.2568 -0.0205
  391SOL    HW1 1172   1.950   1.731   1.118  0.0741  0.4915  1.4164
  391SOL    HW2 1173   1.933   1.786   1.276 -0.9230  0.3171  0.0675
  392SOL     OW 1174   2.805   2.827   0.297  0.1513 -0.2981 -0.1476
  392SOL    HW1 1175   2.769   2.781   0.382 -0.9941  0.4658 -0.2657
  392SOL    HW2 1176   2.805   2.930   0.302  0.4652  2.2762  0.0145
  393SOL     OW 1177   1.965   2.336   2.730 -0.5863  0.3783  0.2448
  393SOL    HW1 1178   1.949   2.351   2.829 -2.6807 -1.1181  0.1855
  393SOL    HW2 1179   2.054   2.378   2.701 -0.3136 -0.3130 -0.3745
  394SOL     OW 1180   0.075   2.583   2.627  0.7438  0.1715 -0.4322
  394SOL    HW1 1181   0.096   2.586   2.725 -0.1549 -0.3151  0.5917
  394SOL    HW2 1182   3.098   2.530   2.616 -0.4999 -1.7572  0.0064
  395SOL     OW 1183   0.473   0.072   0.649 -0.0397 -0.4518 -0.5388
  395SOL    HW1 1184   0.410   0.010   0.593 -2.0605 -0.4534 -0.8823
  395SOL    HW2 1185   0.440   0.166   0.648  0.9918 -1.7005 -0.3694
  396SOL     OW 1186   2.088   0.841   0.614 -0.0973 -0.1924 -0.1020
  396SOL    HW1 1187   2.006   0.784   0.610  0.4557  1.4672 -1.4813
  396SOL    HW2 1188   2.100   0.894   0.529  3.9161 -0.1619  1.4912
  397SOL     OW 1189   0.621   0.653   2.168 -0.1029  0.7088 -0.6053
  397SOL    HW1 1190   0.717   0.679   2.193  3.2164 -1.2219 -0.4867
  397SOL    HW2 1191   0.550   0.694   2.233 -0.6825 -0.8178  0.0778
  398SOL     OW 1192   0.993   2.966   0.454 -0.5067  0.3604  0.3050
  398SOL    HW1 1193   0.963   3.064   0.447 -0.2411 -2.0592  1.6137
  398SOL    HW2 1194   1.030   2.953   0.544 -2.6403  0.4167 -2.6811
  399SOL     OW 1195   2.273   2.986   1.642  0.7254  0.6148 -0.0166
  399SOL    HW1 1196   2.281   2.884   1.636  0.4249 -0.0582 -0.7138
  399SOL    HW2 1197   2.338   3.024   1.577 -0.4014 -1.2646  2.7601
  400SOL     OW 1198   0.944   1.896   2.352 -0.3701  0.3234  0.2703
  400SOL    HW1 1199   0.904   1.944   2.272 -1.0452  0.7157  0.1554
  400SOL    HW2 1200   0.877   1.851   2.415 -0.1589 -0.0400  0.2138
  401SOL     OW 1201   0.967   1.205   2.403  0.5339  0.3143  0.2561
  401SOL    HW1 1202   0.932   1.186   2.312  0.4956 -0.5496  1.3453
  401SOL    HW2 1203   0.896   1.202   2.475  2.0707 -0.2899  1.0790
  402SOL     OW 1204   3.094   2.003   0.807  0.0262  0.1625 -0.5281
  402SOL    HW1 1205   3.085   2.053   0.720  2.7182 -1.8439  3.1339
  402SOL    HW2 1206   3.058   1.906   0.799  2.8310 -2.2425 -0.9858
  403SOL     OW 1207   0.017   1.060   2.148 -0.1989  0.3893 -0.6090
  403SOL    HW1 1208   3.108   0.984   2.087  1.6544  1.0609 -1.3106
  403SOL    HW2 1209   0.023   1.142   2.094  1.3322 -0.6095  0.5836
  404SOL     OW 1210   3.034   2.575   2.275  0.2025  0.0913  0.4086
  404SOL    HW1 1211   3.030   2.487   2.226 -0.0289  2.7892 -0.2093
  404SOL    HW2 1212   0.002   2.628   2.233  2.7045  1.4008 -0.5062
  405SOL     OW 1213   0.098   0.309   1.705 -0.3051  0.3165  0.1186
  405SOL    HW1 1214   0.190   0.333   1.675 -1.3673  0.4790  1.4662
  405SOL    HW2 1215   0.101   0.261   1.799 -2.7043 -1.1548  2.5369
  406SOL     OW 1216   1.519   1.485   2.577  0.0085 -0.1665 -0.0551
  406SOL    HW1 1217   1.578   1.553   2.618 -1.2964 -1.0975 -3.2311
  406SOL    HW2 1218   1.531   1.480   2.477  0.8408 -0.6447 -2.2499
  407SOL     OW 1219   1.551   0.762   2.733 -0.1440 -0.5497  0.4625
  407SOL    HW1 1220   1.642   0.805   2.727 -1.8953  1.9230  0.8739
  407SOL    HW2 1221   1.510   0.751   2.640 -0.7941  0.3643 -2.0607
  408SOL     OW 1222   0.905   3.083   2.390 -0.3045  0.1143  0.0880
  408SOL    HW1 1223   0.918   2.992   2.433  0.5803 -2.2093 -0.5667
  408SOL    HW2 1224   0.890   3.080   2.290  0.1342  0.8456  2.2228
  409SOL     OW 1225   0.106   2.175   0.972  0.0324 -0.1552 -0.5742
  409SOL    HW1 1226   0.053   2.120   0.906  0.1982  1.1334  4.3875
  409SOL    HW2 1227   0.182   2.116   1.013  1.4347  2.4892 -1.5390
  410SOL     OW 1228   2.470   1.449   0.171  0.3264 -0.1187 -0.2337
  410SOL    HW1 1229   2.377   1.487   0.159 -0.0629 -1.3008  0.5696
  410SOL    HW2 1230   2.512   1.448   0.076 -1.6187  2.9280 -0.4185
  411SOL     OW 1231   0.114   0.172   1.083 -0.0225 -0.1760  0.7710
  411SOL    HW1 1232   0.092   0.126   1.174  0.2605 -0.8237  1.3907
  411SOL    HW2 1233   0.189   0.123   1.037  1.5674 -0.1411 -1.1155
  412SOL     OW 1234   1.819   0.730   1.493 -0.4076  0.7854 -0.4456
  412SOL    HW1 1235   1.920   0.716   1.506 -1.5643  0.0468  1.9850
  412SOL    HW2 1236   1.787   0.732   1.395 -0.6921 -0.2359 -0.9155
  413SOL     OW 1237   0.871   0.243   1.971  0.1985 -0.7069  0.0916
  413SOL    HW1 1238   0.932   0.199   2.041 -0.0705 -0.5479  2.1421
  413SOL    HW2 1239   0.796   0.303   2.010 -1.6356  1.1296 -2.3495
  414SOL     OW 1240   2.928   1.631   2.574  0.1581 -0.1286  0.3886
  414SOL    HW1 1241   2.998   1.559   2.591  1.0567 -0.9941  0.6393
  414SOL    HW2 1242   2.851   1.597   2.516 -2.2817  1.1153  1.3081
  415SOL     OW 1243   0.882   2.136   0.207 -0.1666  0.0219 -0.4394
  415SOL    HW1 1244   0.952   2.180   0.150 -0.0396 -2.4477 -0.0195
  415SOL    HW2 1245   0.917   2.123   0.303  1.5637 -0.6298  1.1164
  416SOL     OW 1246   1.843   0.034   2.943  0.1517 -0.3861 -0.1384
  416SOL    HW1 1247   1.858   0.024   3.045  2.6094 -0.8854  3.4200
  416SOL    HW2 1248   1.912   0.092   2.902 -2.2539 -0.6302  0.6671
  417SOL     OW 1249   0.297   0.299   0.650 -0.0747  0.2229 -0.0286
  417SOL    HW1 1250   0.315   0.356   0.735  0.3653 -0.9689 -0.0796
  417SOL    HW2 1251   0.210   0.248   0.651 -0.0756  0.9817 -0.4458
  418SOL     OW 1252   2.608   2.957   1.082 -0.0868  0.4237 -0.0719
  418SOL    HW1 1253   2.575   3.027   1.150 -0.0979  3.0290  1.4706
  418SOL    HW2 1254   2.708   2.967   1.062 -2.6183  2.7992  0.1059
  419SOL     OW 1255   0.066   2.756   0.461 -0.1882 -0.0843 -0.8200
  419SOL    HW1 1256   0.071   2.769   0.560  1.7545 -2.3614  0.4843
  419SOL    HW2 1257   0.140   2.688   0.426  1.9422 -0.7657 -2.5866
  420SOL     OW 1258   0.182   1.415   1.766 -0.1861 -0.0421 -0.0427
  420SOL    HW1 1259   0.248   1.496   1.765 -0.2616  0.2862 -2.0451
  420SOL    HW2 1260   0.200   1.356   1.687  1.3207  1.5185 -0.0820
  421SOL     OW 1261   1.516   2.612   0.867 -0.2592  0.4656  0.1338
  421SOL    HW1 1262   1.442   2.678   0.889  0.8426  1.4984 -3.3388
  421SOL    HW2 1263   1.487   2.513   0.861 -1.2455  0.4434  0.4598
  422SOL     OW 1264   0.694   0.420   1.359  0.1192 -0.6446  0.1195
  422SOL    HW1 1265   0.727   0.451   1.453  1.7779  0.2755  0.7975
  422SOL    HW2 1266   0.601   0.378   1.368 -1.9559  1.5714 -3.6984
  423SOL     OW 1267   1.019   1.238   1.643  0.4501 -0.6740 -0.4668
  423SOL    HW1 1268   1.076   1.255   1.564 -0.6386  0.3084 -1.3370
  423SOL    HW2 1269   0.945   1.177   1.618  2.8792  0.8854  2.6482
  424SOL     OW 1270   1.906   1.939   0.276  0.2521  0.8229 -0.0120
  424SOL    HW1 1271   1.859   1.881   0.345  2.5360  0.9172  2.8122
  424SOL    HW2 1272   1.841   1.995   0.222 -1.5933 -1.5088  1.8778
  425SOL     OW 1273   2.968   0.274   2.030  0.5999 -0.3224  0.2911
  425SOL    HW1 1274   3.051   0.235   2.067 -2.3262  0.7587 -2.4408
  425SOL    HW2 1275   2.907   0.202   1.997 -0.4255 -0.3344 -0.1951
  426SOL     OW 1276   0.109   2.639   2.896  0.2208  0.2905 -0.4777
  426SOL    HW1 1277   0.075   2.713   2.959  0.6543  2.1150 -1.5463
  426SOL    HW2 1278   0.155   2.568   2.951  0.1290 -1.5763  0.0752
  427SOL     OW 1279   1.263   0.482   3.055  0.7565  0.2809 -0.0101
  427SOL    HW1 1280   1.324   0.488   0.028  0.8077 -2.1106 -1.9601
  427SOL    HW2 1281   1.194   0.411   3.066 -0.7683  2.1794 -1.2326
  428SOL     OW 1282   2.886   0.980   1.858 -0.0136 -0.1228 -0.0940
  428SOL    HW1 1283   2.825   0.992   1.939  2.0791 -1.2863  0.8549
  428SOL    HW2 1284   2.838   1.003   1.772  1.8163 -1.7560  1.3792
  429SOL     OW 1285   1.929   2.910   1.449 -1.0175 -0.3986  0.0149
  429SOL    HW1 1286   1.960   2.927   1.547  3.3501  0.1557  3.0817
  429SOL    HW2 1287   2.004   2.852   1.411  1.6612 -0.3031  1.3453
  430SOL     OW 1288   1.209   1.537   2.526  0.0256 -0.6716 -0.2998
  430SOL    HW1 1289   1.176   1.574   2.614  1.3245 -1.0288 -1.9034
  430SOL    HW2 1290   1.286   1.470   2.536 -3.2938 -0.3641  0.7276
  431SOL     OW 1291   2.710   1.647   1.460 -0.0897 -0.2578 -0.2136
  431SOL    HW1 1292   2.660   1.698   1.529  0.1033 -2.8492 -0.0475
  431SOL    HW2 1293   2.756   1.705   1.389 -0.3159 -0.2831  2.7593
  432SOL     OW 1294   1.156   2.522   2.247 -0.3658  0.9436 -0.4432
  432SOL    HW1 1295   1.169   2.427   2.291  0.8976 -2.0610  2.9959
  432SOL    HW2 1296   1.061   2.531   2.208  1.2745  0.5355  0.1244
  433SOL     OW 1297   1.797   0.354   2.088 -0.3187  0.3922 -0.0902
  433SOL    HW1 1298   1.893   0.338   2.108 -1.9682  0.1706 -1.8876
  433SOL    HW2 1299   1.739   0.381   2.168  0.1278 -0.7060  0.8259
  434SOL     OW 1300   0.553   2.440   2.423 -0.1846  0.0384 -0.0078
  434SOL    HW1 1301   0.635   2.458   2.479 -0.0958  1.1065  0.1448
  434SOL    HW2 1302   0.577   2.386   2.337  1.1852  0.6930  1.3203
  435SOL     OW 1303   0.172   3.038   0.034 -0.1065  0.3005  0.4823
  435SOL    HW1 1304   0.191   3.082   3.053  1.5198  1.1090  1.3048
  435SOL    HW2 1305   0.249   3.039   0.096 -3.3963 -1.8153  0.8209
  436SOL     OW 1306   0.676   0.767   1.920  0.4985 -0.3342 -0.5094
  436SOL    HW1 1307   0.628   0.856   1.909 -1.9921  0.4485 -0.1203
  436SOL    HW2 1308   0.652   0.735   2.011 -1.7563  0.6089 -0.0249
  437SOL     OW 1309   0.659   2.240   2.829  0.1450  0.2669 -0.2808
  437SOL    HW1 1310   0.636   2.341   2.820  1.6773 -2.3201  0.3084
  437SOL    HW2 1311   0.651   2.215   2.931 -2.0435 -0.9193  1.8777
  438SOL     OW 1312   1.017   1.274   1.136 -0.1050 -0.2599 -0.0005
  438SOL    HW1 1313   1.040   1.348   1.071  2.2158  2.0932  1.8303
  438SOL    HW2 1314   1.101   1.220   1.167  0.4325 -1.2114 -0.8383
  439SOL     OW 1315   2.565   1.263   2.369 -0.8652  0.2130  0.2970
  439SOL    HW1 1316   2.619   1.183   2.409  2.8464  0.9620  1.0884
  439SOL    HW2 1317   2.466   1.260   2.386  0.8754 -1.2513 -0.1431
  440SOL     OW 1318   0.153   0.555   3.082  0.1577  0.0728 -0.3117
  440SOL    HW1 1319   0.165   0.474   3.024 -0.4110 -1.1462  1.9373
  440SOL    HW2 1320   0.241   0.605   3.084  3.5005 -0.3575  1.0543
  441SOL     OW 1321   0.893   2.011   1.627 -0.0251  0.4864  0.2879
  441SOL    HW1 1322   0.875   2.103   1.606  1.3027 -2.6090 -1.2583
  441SOL    HW2 1323   0.980   1.970   1.596  1.8918 -0.3340  0.7609
  442SOL     OW 1324   2.099   1.715   0.804  0.0945  0.1763  0.2834
  442SOL    HW1 1325   2.068   1.657   0.882  0.2412 -0.2819 -0.0204
  442SOL    HW2 1326   2.201   1.739   0.809  0.9063 -0.7729  1.8493
  443SOL     OW 1327   2.609   1.947   2.617 -0.3210  0.3589  0.2725
  443SOL    HW1 1328   2.683   2.017   2.621 -0.2822  0.1506 -0.8890
  443SOL    HW2 1329   2.521   1.995   2.630  0.4595  1.5854 -2.2105
  444SOL     OW 1330   1.982   1.628   2.871  0.1916 -0.2691 -0.4191
  444SOL    HW1 1331   1.908   1.673   2.927 -1.6211  1.6481 -0.6472
  444SOL    HW2 1332   2.044   1.698   2.840 -4.0441 -1.8948  0.4514
  445SOL     OW 1333   2.653   2.762   2.202  0.0875  0.1656 -0.3478
  445SOL    HW1 1334   2.654   2.865   2.197 -1.1665  0.3804 -0.9668
  445SOL    HW2 1335   2.714   2.723   2.127 -0.3811 -3.0459 -2.1152
  446SOL     OW 1336   1.023   0.925   1.687  0.0163  0.0329  0.5876
  446SOL    HW1 1337   1.057   0.871   1.609 -3.3796 -1.3529  2.0685
  446SOL    HW2 1338   1.011   0.867   1.770  0.3811 -0.8583  0.3753
  447SOL     OW 1339   1.012   1.049   0.941  0.2313  0.2786 -0.2414
  447SOL    HW1 1340   1.056   0.962   0.976  3.6343 -1.6100  0.6002
  447SOL    HW2 1341   0.994   1.117   1.017 -0.9156  1.7770  2.2592
  448SOL     OW 1342   1.239   1.235   2.327  0.0874 -0.7396 -0.3519
  448SOL    HW1 1343   1.142   1.232   2.353  2.1781 -0.7124 -1.3066
  448SOL    HW2 1344   1.242   1.239   2.224 -2.6961 -0.5829 -2.3939
  449SOL     OW 1345   3.102   2.095   2.335  0.2135 -0.1298  0.3773
  449SOL    HW1 1346   0.007   2.038   2.417 -0.5464 -2.7218 -2.1334
  449SOL    HW2 1347   0.017   2.029   2.257  0.3076 -2.6110  0.2197
  450SOL     OW 1348   2.050   1.627   1.853  0.4432 -0.0751 -0.0777
  450SOL    HW1 1349   2.052   1.646   1.953  2.2500  1.3263  2.2645
  450SOL    HW2 1350   1.997   1.702   1.802 -0.3636 -2.5493  2.8846
  451SOL     OW 1351   2.545   1.443   1.405  0.5883 -0.1223 -0.3700
  451SOL    HW1 1352   2.611   1.519   1.431 -0.4710  1.7173  0.0328
  451SOL    HW2 1353   2.477   1.427   1.482  2.4411 -1.7296  2.7818
  452SOL     OW 1354   0.493   1.356   1.521 -0.6032  0.8846  0.3563
  452SOL    HW1 1355   0.399   1.326   1.558 -1.5177 -2.3602 -1.2352
  452SOL    HW2 1356   0.491   1.356   1.417  1.7954  0.3372  1.1729
  453SOL     OW 1357   0.517   1.060   0.588  0.5541 -0.3995 -0.2820
  453SOL    HW1 1358   0.430   1.010   0.571  2.7502  0.4850  0.6194
  453SOL    HW2 1359   0.576   1.008   0.655  0.3648 -0.6547  1.3535
  454SOL     OW 1360   0.906   1.532   0.260  0.1488 -0.0116 -0.3548
  454SOL    HW1 1361   0.809   1.490   0.249 -2.7990  0.7546 -0.3086
  454SOL    HW2 1362   0.915   1.625   0.220 -1.2032 -0.0067  1.0402
  455SOL     OW 1363   1.793   0.577   1.083  0.2098  0.3235 -0.4371
  455SOL    HW1 1364   1.743   0.619   1.165 -1.2842 -3.3580 -0.6439
  455SOL    HW2 1365   1.854   0.505   1.125  0.7189 -1.2753  1.8028
  456SOL     OW 1366   1.735   2.750   1.031 -0.8455  0.5706 -0.4464
  456SOL    HW1 1367   1.730   2.652   1.001  0.5503  1.8699  0.6614
  456SOL    HW2 1368   1.660   2.803   0.992  3.6096 -1.8004  1.1401
  457SOL     OW 1369   2.046   0.349   2.604 -0.3414  0.3396  0.0533
  457SOL    HW1 1370   1.957   0.393   2.631 -1.5951 -1.2067  1.4963
  457SOL    HW2 1371   2.022   0.277   2.538 -2.1107  0.5011  0.5428
  458SOL     OW 1372   2.572   0.757   2.826 -0.4859 -0.3051 -0.2282
  458SOL    HW1 1373   2.543   0.825   2.756  0.0328 -0.0165  0.0309
  458SOL    HW2 1374   2.675   0.754   2.824  2.3632 -2.0102 -0.3333
  459SOL     OW 1375   0.141   1.662   2.009  0.2068 -0.3405 -0.4766
  459SOL    HW1 1376   0.240   1.668   2.005 -2.2982 -0.0933 -0.4156
  459SOL    HW2 1377   0.120   1.598   2.086  1.0290 -0.7391  2.0159
  460SOL     OW 1378   0.417   0.746   3.031  0.0933  0.4292  0.1385
  460SOL    HW1 1379   0.342   0.784   2.963 -2.1410  1.9581 -1.9280
  460SOL    HW2 1380   0.511   0.776   3.012 -3.7605  0.2656  1.7611
  461SOL     OW 1381   0.032   2.293   0.438  0.3281 -0.2847  1.0221
  461SOL    HW1 1382   3.102   2.205   0.473  0.8518 -2.2658  0.8791
  461SOL    HW2 1383   0.075   2.352   0.512 -0.4510  0.8160 -0.6368
  462SOL     OW 1384   0.035   2.676   1.622 -0.0952 -0.0339  0.1150
  462SOL    HW1 1385   0.040   2.665   1.522  0.1968 -0.6916  1.1378
  462SOL    HW2 1386   0.108   2.615   1.667 -0.6315 -1.0782  1.6957
  463SOL     OW 1387   1.751   2.007   1.691 -0.0940 -0.2209  0.1112
  463SOL    HW1 1388   1.681   1.998   1.613 -0.4922  0.7838  0.2742
  463SOL    HW2 1389   1.823   2.077   1.674 -1.4050  1.3857 -1.4929
  464SOL     OW 1390   0.079   2.817   0.720 -0.4679 -0.0527  0.4362
  464SOL    HW1 1391   0.028   2.899   0.757 -3.1493 -0.1033 -1.8309
  464SOL    HW2 1392   0.180   2.815   0.736 -2.3949  1.5703 -2.0110
  465SOL     OW 1393   0.314   0.046   1.487  0.2215 -0.1136  0.2316
  465SOL    HW1 1394   0.299   0.014   1.581  1.9937  0.3909  0.8590
  465SOL    HW2 1395   0.358   0.137   1.488  0.1087 -0.0054 -0.7414
  466SOL     OW 1396   1.144   2.298   2.397  0.0538 -0.3944  0.0832
  466SOL    HW1 1397   1.211   2.307   2.475 -0.5841 -0.3682 -0.3578
  466SOL    HW2 1398   1.048   2.280   2.429 -1.7114 -1.6143  1.5959
  467SOL     OW 1399   2.878   1.286   1.042  0.1563  0.3794 -0.2190
  467SOL    HW1 1400   2.878   1.381   1.071 -1.9233  1.9747 -2.5091
  467SOL    HW2 1401   2.907   1.270   0.943  1.3372  1.7200 -1.0214
  468SOL     OW 1402   2.310   2.041   2.881  0.0567  0.2208  0.6752
  468SOL    HW1 1403   2.308   2.052   2.780  1.4127 -1.4257 -1.9925
  468SOL    HW2 1404   2.214   2.045   2.913 -2.6738  0.8677  0.3276
  469SOL     OW 1405   1.315   2.092   0.663  0.5765 -0.0294 -0.0126
  469SOL    HW1 1406   1.333   2.056   0.570 -3.1970 -3.3938 -0.6928
  469SOL    HW2 1407   1.298   2.010   0.715  0.3107 -1.7197 -1.0273
  470SOL     OW 1408   1.921   1.733   1.470  0.4009 -0.1039  0.4761
  470SOL    HW1 1409   1.992   1.662   1.469  0.3131  1.6993  1.4134
  470SOL    HW2 1410   1.889   1.747   1.564  0.5722 -0.8059 -0.6172
  471SOL     OW 1411   0.486   2.296   0.166  0.3513  0.2154 -0.7235
  471SOL    HW1 1412   0.562   2.291   0.229  2.0811  0.6219 -1.3119
  471SOL    HW2 1413   0.401   2.257   0.209 -2.6531 -2.6484  0.9196
  472SOL     OW 1414   2.508   1.816   2.249 -0.0665  0.1961  0.0233
  472SOL    HW1 1415   2.608   1.795   2.249 -0.3640  1.2445 -1.6896
  472SOL    HW2 1416   2.470   1.742   2.190  2.6902 -0.2513  0.3292
  473SOL     OW 1417   1.267   2.389   0.954 -0.1329  0.3148  0.1090
  473SOL    HW1 1418   1.177   2.340   0.944  0.2038 -0.7054  0.5748
  473SOL    HW2 1419   1.250   2.479   0.999 -1.4840  2.2935  0.8984
  474SOL     OW 1420   3.034   0.291   1.305  0.2058 -0.1537 -0.2814
  474SOL    HW1 1421   3.029   0.345   1.391 -0.5107  0.8286  1.7766
  474SOL    HW2 1422   2.940   0.266   1.271 -0.7418  0.1810  0.3013
  475SOL     OW 1423   2.247   2.859   2.021  0.2852  0.3088  0.2826
  475SOL    HW1 1424   2.282   2.870   2.120  2.7580  3.2956  1.0098
  475SOL    HW2 1425   2.284   2.937   1.963 -0.6652  1.9910  0.1848
  476SOL     OW 1426   0.466   0.616   0.802 -0.4990 -0.1500 -0.0391
  476SOL    HW1 1427   0.532   0.542   0.789 -2.6215 -1.6212 -1.0223
  476SOL    HW2 1428   0.373   0.581   0.825 -1.2280 -0.4046 -2.8331
  477SOL     OW 1429   0.645   2.106   0.892 -0.1490 -0.1698 -0.3645
  477SOL    HW1 1430   0.714   2.102   0.968  1.0516 -0.8755 -1.1131
  477SOL    HW2 1431   0.582   2.026   0.899  0.7217  0.7820 -0.3143
  478SOL     OW 1432   0.931   2.292   2.816  0.1605 -0.0120 -0.1983
  478SOL    HW1 1433   0.966   2.201   2.846 -2.3076  0.0826  0.0490
  478SOL    HW2 1434   0.832   2.301   2.839 -1.2779  0.9768 -1.6311
  479SOL     OW 1435   2.844   1.307   2.033  0.1415  0.3687  0.0148
  479SOL    HW1 1436   2.807   1.212   2.043 -2.5137  0.8616  2.6907
  479SOL    HW2 1437   2.901   1.325   1.948 -0.1605  0.5436 -0.7627
  480SOL     OW 1438   0.201   2.445   3.063 -0.1170 -0.1583 -0.2997
  480SOL    HW1 1439   0.147   2.462   0.043 -1.5912 -0.8018 -1.4093
  480SOL    HW2 1440   0.193   2.354   3.018  0.4412 -0.9697 -0.7322
  481SOL     OW 1441   1.559   2.985   2.259 -0.2940 -0.0873  0.6992
  481SOL    HW1 1442   1.651   2.975   2.306  0.4480  1.6339 -1.4088
  481SOL    HW2 1443   1.549   3.085   2.239  0.0065  2.1316  0.1488
  482SOL     OW 1444   1.755   2.054   2.961  0.6759  0.3355 -0.2145
  482SOL    HW1 1445   1.781   2.152   2.978 -0.7260 -1.8873 -1.2754
  482SOL    HW2 1446   1.679   2.043   2.892 -1.0390 -2.8918  1.2097
  483SOL     OW 1447   1.141   2.475   2.774  0.4546  0.6776  0.4676
  483SOL    HW1 1448   1.213   2.433   2.718 -0.4196  0.8438  0.3016
  483SOL    HW2 1449   1.060   2.414   2.776  0.3432 -1.3028 -0.3634
  484SOL     OW 1450   0.515   2.812   0.989  0.2548 -0.0918 -0.2029
  484SOL    HW1 1451   0.549   2.898   0.957  1.0419 -1.6746 -1.1429
  484SOL    HW2 1452   0.481   2.826   1.085  0.7199 -1.0917 -0.0337
  485SOL     OW 1453   2.333   0.512   0.702  0.3986  0.0782 -0.1094
  485SOL    HW1 1454   2.346   0.611   0.680  0.3337  3.4674 -0.3494
  485SOL    HW2 1455   2.247   0.503   0.755  0.4371  0.2176 -0.5380
  486SOL     OW 1456   2.103   2.664   2.469 -0.2210  0.2202 -0.1122
  486SOL    HW1 1457   2.038   2.737   2.480  0.6723 -1.8760 -3.1165
  486SOL    HW2 1458   2.200   2.698   2.462 -0.5884  0.5082 -3.2216
  487SOL     OW 1459   1.022   1.557   0.724  0.6232 -0.0528 -0.7885
  487SOL    HW1 1460   0.958   1.526   0.648 -0.1548 -1.6874 -1.2165
  487SOL    HW2 1461   1.004   1.655   0.742  1.9925 -1.7711 -3.1211
  488SOL     OW 1462   2.208   0.254   0.148  0.3192  0.3108  0.3674
  488SOL    HW1 1463   2.231   0.322   0.221 -1.4453 -2.0482 -0.3886
  488SOL    HW2 1464   2.177   0.308   0.064 -0.7023  3.2363 -2.6232
  489SOL     OW 1465   1.964   3.029   0.551  0.0017 -0.3770  0.4717
  489SOL    HW1 1466   1.925   3.063   0.638 -0.3215  1.5271  3.3785
  489SOL    HW2 1467   2.036   3.094   0.522 -3.3213 -2.0033 -0.9310
  490SOL     OW 1468   1.573   0.099   2.992  0.0760  0.0282 -0.3021
  490SOL    HW1 1469   1.536   0.110   3.091  0.1939  1.2330  3.5207
  490SOL    HW2 1470   1.680   0.111   2.998  1.9361  0.1601  2.9308
  491SOL     OW 1471   0.781   0.002   1.073 -0.0349  0.4686 -0.7473
  491SOL    HW1 1472   0.846   0.039   1.141 -0.5014 -1.4100  1.4039
  491SOL    HW2 1473   0.826   0.007   0.980 -0.2875  0.2578  1.2725
  492SOL     OW 1474   1.804   2.964   0.323 -0.2024  0.1812  0.1715
  492SOL    HW1 1475   1.871   2.982   0.398 -1.1495 -0.1441 -0.2185
  492SOL    HW2 1476   1.795   2.864   0.316  0.8636  0.0020  0.6703
  493SOL     OW 1477   1.369   2.183   2.877  0.8975  0.2865  0.1987
  493SOL    HW1 1478   1.284   2.126   2.864  1.7568  0.7847 -1.9582
  493SOL    HW2 1479   1.453   2.135   2.844 -1.1866 -3.4319 -0.1410
  494SOL     OW 1480   0.447   1.252   1.014  0.3618 -0.1426 -0.1397
  494SOL    HW1 1481   0.447   1.284   1.112  0.1741 -1.4665 -1.7272
  494SOL    HW2 1482   0.536   1.204   0.994  0.7784  0.4192 -0.8315
  495SOL     OW 1483   3.001   0.670   1.554 -0.8684 -0.4637 -0.5276
  495SOL    HW1 1484   2.999   0.770   1.526  0.2311  0.5293  0.1991
  495SOL    HW2 1485   2.966   0.670   1.650  0.2897  1.1168  0.3390
  496SOL     OW 1486   2.331   2.394   2.244 -0.9161 -0.0439 -0.0626
  496SOL    HW1 1487   2.370   2.478   2.204  0.3114 -2.5225 -0.6646
  496SOL    HW2 1488   2.239   2.422   2.279 -5.1207 -0.8303  2.3688
  497SOL     OW 1489   1.721   1.339   2.689 -0.3020  0.0199  0.2286
  497SOL    HW1 1490   1.746   1.241   2.682 -0.9416  0.0519 -1.7021
  497SOL    HW2 1491   1.642   1.362   2.627 -0.0181  0.5012  2.1815
  498SOL     OW 1492   0.938   2.071   0.512 -0.3834  0.2106 -0.0698
  498SOL    HW1 1493   0.977   2.145   0.566 -2.3954  0.4385 -1.0680
  498SOL    HW2 1494   0.838   2.061   0.530  1.5046 -0.6151  0.9721
  499SOL     OW 1495   0.139   1.623   0.952 -0.2540 -0.2973  0.1146
  499SOL    HW1 1496   0.078   1.651   0.870 -0.2883  1.2313 -0.1680
  499SOL    HW2 1497   0.133   1.521   0.952 -0.4671  0.8422 -1.4552
  500SOL     OW 1498   1.255   2.542   0.616 -0.2720 -0.1800 -0.3234
  500SOL    HW1 1499   1.267   2.555   0.512 -0.0290 -0.7294 -0.2895
  500SOL    HW2 1500   1.337   2.498   0.660 -0.3193 -0.1473 -1.3003
  501SOL     OW 1501   2.016   2.559   1.141 -0.3574 -0.0681 -0.1673
  501SOL    HW1 1502   2.002   2.458   1.138 -0.0051  0.1981  1.2577
  501SOL    HW2 1503   2.036   2.593   1.046 -0.2920  1.0447  0.7932
  502SOL     OW 1504   0.187   0.481   1.297 -0.0324 -0.2775  0.1613
  502SOL    HW1 1505   0.099   0.426   1.289 -1.3382 -0.4902 -0.1631
  502SOL    HW2 1506   0.174   0.582   1.310  1.8382  4.6232  0.1834
  503SOL     OW 1507   2.058   0.287   1.731  0.5324 -0.5949  0.4369
  503SOL    HW1 1508   1.974   0.230   1.720 -0.5196 -1.9492  1.6015
  503SOL    HW2 1509   2.121   0.256   1.806  1.8473  1.0639  0.9182
  504SOL     OW 1510   2.064   0.696   1.917  0.3496  0.6145 -0.5992
  504SOL    HW1 1511   2.026   0.605   1.887  0.0784  1.2950  0.6705
  504SOL    HW2 1512   2.134   0.733   1.852 -2.1850 -1.2265  1.2689
  505SOL     OW 1513   1.124   2.807   2.365  0.1779  0.4609  0.3631
  505SOL    HW1 1514   1.129   2.709   2.341 -1.5018 -1.8142 -0.0865
  505SOL    HW2 1515   1.209   2.847   2.408  2.9953  1.2329  1.2780
  506SOL     OW 1516   0.364   0.390   1.734  0.2724 -0.1125  0.0943
  506SOL    HW1 1517   0.407   0.299   1.729 -2.4266 -0.8055 -0.0465
  506SOL    HW2 1518   0.434   0.463   1.725 -1.5390 -1.7845  1.1151
  507SOL     OW 1519   1.495   0.140   0.128 -0.2033  0.1372 -0.4579
  507SOL    HW1 1520   1.407   0.196   0.125  1.3216 -0.0034 -1.2701
  507SOL    HW2 1521   1.565   0.192   0.179 -0.8115 -2.4950  0.3067
  508SOL     OW 1522   2.186   0.465   2.317 -0.0457 -0.3777  0.5371
  508SOL    HW1 1523   2.211   0.542   2.256 -0.5715 -0.4826  0.1891
  508SOL    HW2 1524   2.117   0.402   2.274  2.4450 -0.1111 -4.8723
  509SOL     OW 1525   0.735   1.617   2.341  0.2813 -0.0530 -0.4974
  509SOL    HW1 1526   0.704   1.685   2.405 -0.7126 -1.7831  1.1647
  509SOL    HW2 1527   0.828   1.577   2.370  1.0847 -2.7199  0.0590
  510SOL     OW 1528   2.958   0.565   0.735 -0.2115  0.1334 -0.5661
  510SOL    HW1 1529   3.055   0.584   0.703 -0.2487  0.9842 -0.1271
  510SOL    HW2 1530   2.953   0.589   0.832  0.9136  0.2057  0.1991
  511SOL     OW 1531   1.665   1.440   1.247 -0.0167 -0.1079  0.4183
  511SOL    HW1 1532   1.650   1.525   1.305  2.4820 -0.9086  2.7048
  511SOL    HW2 1533   1.747   1.391   1.280 -2.0512  1.3771  2.4118
  512SOL     OW 1534   0.386   1.586   0.524  0.4239  0.0989  0.2912
  512SOL    HW1 1535   0.487   1.604   0.536  1.5464  0.9509  1.3108
  512SOL    HW2 1536   0.367   1.488   0.555 -0.7283  0.5461 -1.6456
  513SOL     OW 1537   0.445   2.188   1.190  0.5258  0.6024  1.2880
  513SOL    HW1 1538   0.400   2.114   1.134  0.5022 -0.0600  1.3141
  513SOL    HW2 1539   0.447   2.278   1.148 -0.4213  0.4660  2.4980
  514SOL     OW 1540   0.264   2.172   0.326  0.9722  0.1840 -0.1411
  514SOL    HW1 1541   0.179   2.225   0.349 -1.0286  1.1277 -1.0699
  514SOL    HW2 1542   0.247   2.087   0.277 -0.3049  1.2764  3.6494
  515SOL     OW 1543   2.974   3.039   2.984 -0.5311  0.0599 -0.0488
  515SOL    HW1 1544   3.044   2.966   3.005 -2.1109 -0.7432 -0.0490
  515SOL    HW2 1545   2.895   3.037   3.048 -4.9790  0.3537 -1.0233
  516SOL     OW 1546   1.948   0.007   1.242  0.3103  0.6310 -0.2283
  516SOL    HW1 1547   1.884   0.086   1.255  2.8747 -1.1557 -0.2355
  516SOL    HW2 1548   1.920   3.027   1.280  1.1665 -0.0153 -1.2853
  517SOL     OW 1549   1.734   1.431   0.569 -0.1176 -0.4444  0.2148
  517SOL    HW1 1550   1.772   1.495   0.644  2.3748  0.7082 -2.4381
  517SOL    HW2 1551   1.641   1.395   0.597  2.7114  0.2362 -1.1504
  518SOL     OW 1552   1.477   0.413   1.024  0.2236 -0.2175  0.1821
  518SOL    HW1 1553   1.389   0.386   0.973  1.5933 -1.5192  1.2502
  518SOL    HW2 1554   1.562   0.378   0.984  0.8752  3.9217  0.4207
  519SOL     OW 1555   2.799   2.411   0.314  0.0617  0.4017  0.4944
  519SOL    HW1 1556   2.845   2.485   0.369  1.4293  2.0265  0.5925
  519SOL    HW2 1557   2.864   2.363   0.248  2.7620 -2.0426  1.4341
  520SOL     OW 1558   1.851   2.071   2.005 -0.1215 -0.5166 -0.0617
  520SOL    HW1 1559   1.788   2.145   2.038 -0.5442 -2.5750 -1.2870
  520SOL    HW2 1560   1.830   1.983   2.053 -2.3295 -0.4210  0.0106
  521SOL     OW 1561   1.498   2.720   2.194 -0.0964 -0.1088  0.0760
  521SOL    HW1 1562   1.451   2.697   2.106  0.1968 -1.2774 -0.5413
  521SOL    HW2 1563   1.507   2.819   2.209 -2.1370  1.7664  0.8646
  522SOL     OW 1564   2.792   0.122   1.883  0.1090  0.3052  0.3102
  522SOL    HW1 1565   2.781   0.194   1.815  0.9341  0.2090  2.3591
  522SOL    HW2 1566   2.830   0.037   1.844  2.0295  0.6240 -0.0276
  523SOL     OW 1567   0.891   2.365   1.607 -0.2980  0.3128  0.7377
  523SOL    HW1 1568   0.797   2.381   1.566 -0.6977  1.5887 -0.3631
  523SOL    HW2 1569   0.964   2.378   1.534  1.4267  0.8651 -2.5996
  524SOL     OW 1570   2.218   2.193   0.065 -0.0917  0.4204 -0.3394
  524SOL    HW1 1571   2.182   2.139   3.097  0.1619  2.2839  1.0196
  524SOL    HW2 1572   2.301   2.153   0.108  1.7685 -2.0238  2.9273
  525SOL     OW 1573   2.897   0.988   0.069 -0.7994 -0.0540 -0.0431
  525SOL    HW1 1574   2.991   0.949   0.058  0.4801  0.3027  2.6183
  525SOL    HW2 1575   2.853   1.011   3.086  0.4506 -0.0381  1.4353
  526SOL     OW 1576   0.759   2.891   0.554 -0.2507  0.0186 -0.1097
  526SOL    HW1 1577   0.838   2.898   0.488 -0.9477  1.5237 -0.4265
  526SOL    HW2 1578   0.724   2.984   0.583 -0.6789  0.6831 -0.4197
  527SOL     OW 1579   2.632   1.395   0.582 -0.0473 -0.0655  0.1635
  527SOL    HW1 1580   2.550   1.341   0.608  0.4939 -0.1379 -0.4850
  527SOL    HW2 1581   2.600   1.458   0.505 -0.1514 -0.7307 -2.1326
  528SOL     OW 1582   0.511   0.718   2.557  0.1766  0.0049 -0.3824
  528SOL    HW1 1583   0.461   0.768   2.623  0.7323 -0.5738 -0.8305
  528SOL    HW2 1584   0.480   0.753   2.466 -1.2591  0.3018 -1.0096
  529SOL     OW 1585   0.660   1.605   0.020 -0.1318 -0.2242  0.1027
  529SOL    HW1 1586   0.597   1.664   0.074  0.8634 -0.6569 -0.3093
  529SOL    HW2 1587   0.641   1.505   0.033  0.3378  0.4307 -1.3467
  530SOL     OW 1588   1.310   0.949   2.003  0.1663  0.0813 -0.5470
  530SOL    HW1 1589   1.394   0.958   2.059  0.2995  0.7878 -1.2649
  530SOL    HW2 1590   1.230   0.929   2.064 -0.0492 -2.5912  2.8683
  531SOL     OW 1591   1.192   1.929   0.062 -0.0962 -0.3517 -0.1875
  531SOL    HW1 1592   1.247   1.853   0.102  1.1581  2.1040 -0.5153
  531SOL    HW2 1593   1.095   1.901   0.039 -0.8667  2.6647 -0.4967
  532SOL     OW 1594   2.217   0.957   2.761  0.0214 -0.0032  0.8008
  532SOL    HW1 1595   2.165   0.894   2.825 -1.4633 -0.1102  2.6027
  532SOL    HW2 1596   2.173   1.055   2.771 -5.2594  5.1483 -0.7783
  533SOL     OW 1597   3.052   0.537   1.992 -0.0249  0.5242  0.4309
  533SOL    HW1 1598   3.025   0.443   2.004 -1.9741 -2.8328 -0.1115
  533SOL    HW2 1599   2.989   0.587   1.926 -1.2912  1.2610  0.5615
  534SOL     OW 1600   1.841   0.004   0.087 -0.3474  0.1547 -0.0124
  534SOL    HW1 1601   1.838   0.098   0.118 -0.7272  1.0018 -1.1568
  534SOL    HW2 1602   1.841   3.043   0.166 -0.6948  0.2531  1.1576
  535SOL     OW 1603   0.543   0.042   3.008 -0.0750 -0.3442 -0.1482
  535SOL    HW1 1604   0.583   0.049   2.914 -0.7909  0.3486 -0.8537
  535SOL    HW2 1605   0.574   0.120   3.063 -1.8410 -1.8703 -1.5911
  536SOL     OW 1606   0.644   1.961   1.711 -0.1175 -0.5533  0.3047
  536SOL    HW1 1607   0.602   1.874   1.683 -0.4306  1.0115 -1.0868
  536SOL    HW2 1608   0.739   1.971   1.669  1.8420 -0.2997 -1.3398
  537SOL     OW 1609   2.897   2.685   1.721  0.1291 -0.4395 -1.0994
  537SOL    HW1 1610   2.996   2.683   1.701 -1.8504 -0.4160 -0.3776
  537SOL    HW2 1611   2.842   2.747   1.666  0.4286 -1.2774  1.2182
  538SOL     OW 1612   3.088   2.021   0.532  0.2354  0.8322 -0.2371
  538SOL    HW1 1613   3.031   1.944   0.504  1.4730  1.8063  1.4528
  538SOL    HW2 1614   0.072   2.011   0.492 -0.6704  0.6252 -1.4618
  539SOL     OW 1615   2.477   0.957   2.682 -0.3312  0.1244  0.7929
  539SOL    HW1 1616   2.379   0.970   2.701  0.3778  0.1761 -2.5924
  539SOL    HW2 1617   2.527   1.002   2.759  0.5509 -0.8494  1.6297
  540SOL     OW 1618   1.913   0.830   0.061  0.2442  0.1251 -0.3165
  540SOL    HW1 1619   1.883   0.926   0.065 -2.3277  1.9697 -0.7592
  540SOL    HW2 1620   1.853   0.766   0.112  1.2341 -0.4813  1.0355
  541SOL     OW 1621   1.047   0.513   2.170 -0.4084 -0.3354  0.2257
  541SOL    HW1 1622   0.987   0.582   2.219 -1.6936  0.8850  1.1094
  541SOL    HW2 1623   1.068   0.436   2.237  0.6620 -0.2331 -0.1982
  542SOL     OW 1624   1.631   2.541   2.026  0.0766  0.3468  0.2216
  542SOL    HW1 1625   1.621   2.630   2.076  0.8224  2.4605  0.5840
  542SOL    HW2 1626   1.700   2.552   1.953 -0.5733 -0.6222 -1.4889
  543SOL     OW 1627   0.973   2.674   0.349  0.8137  0.0421 -0.2864
  543SOL    HW1 1628   0.986   2.755   0.410  0.2379  1.8719 -1.3613
  543SOL    HW2 1629   0.934   2.704   0.260  1.4622 -1.3822  0.4664
  544SOL     OW 1630   2.809   1.901   2.072  0.3189 -0.2547 -0.1695
  544SOL    HW1 1631   2.854   1.819   2.032 -1.0249 -2.7850 -0.1941
  544SOL    HW2 1632   2.826   1.902   2.174 -1.7388 -1.4813 -2.9748
  545SOL     OW 1633   1.383   2.099   1.489  0.1302 -0.6306 -0.1502
  545SOL    HW1 1634   1.351   2.064   1.582 -0.1692  1.0876  0.5306
  545SOL    HW2 1635   1.305   2.119   1.425 -1.4143 -0.0091 -0.4641
  546SOL     OW 1636   0.256   0.147   2.273 -0.1238 -0.5067  0.1325
  546SOL    HW1 1637   0.331   0.148   2.206  2.8970  0.5214  0.6688
  546SOL    HW2 1638   0.277   0.081   2.347 -0.6479  1.3551 -0.7513
  547SOL     OW 1639   0.965   0.123   0.469 -0.4539 -0.4634 -0.0863
  547SOL    HW1 1640   0.898   0.158   0.396  1.9853 -0.9215 -2.0302
  547SOL    HW2 1641   0.974   0.191   0.548  0.3796 -0.1103  0.0397
  548SOL     OW 1642   1.689   2.060   0.165 -0.1244  0.1351  0.3937
  548SOL    HW1 1643   1.697   2.141   0.223  2.2183 -3.2013 -0.1395
  548SOL    HW2 1644   1.672   2.081   0.067  1.5035  0.9763 -1.2847
  549SOL     OW 1645   2.181   0.979   0.344 -0.1846  0.1719  0.3001
  549SOL    HW1 1646   2.127   1.060   0.310  3.9683  0.4948  2.7851
  549SOL    HW2 1647   2.267   1.009   0.396  0.2122  1.9888  0.0390
  550SOL     OW 1648   2.669   2.234   0.529  0.1193  0.1963  0.3129
  550SOL    HW1 1649   2.619   2.151   0.504 -1.2595 -2.0458  0.2645
  550SOL    HW2 1650   2.713   2.269   0.443 -0.8590  1.5398  1.0087
  551SOL     OW 1651   1.253   0.454   1.279 -0.3424 -0.4709  0.0869
  551SOL    HW1 1652   1.346   0.488   1.304  0.6808  1.7222 -2.2008
  551SOL    HW2 1653   1.248   0.353   1.270 -1.5643 -2.4359  0.3095
  552SOL     OW 1654   2.992   2.018   2.943  0.1704 -0.7015  0.2654
  552SOL    HW1 1655   2.945   1.938   2.897 -0.6229 -3.7442  0.2472
  552SOL    HW2 1656   2.962   2.026   3.043 -2.1571  1.8229  0.0690
  553SOL     OW 1657   2.700   2.705   0.503  0.2311  0.0074 -0.2868
  553SOL    HW1 1658   2.623   2.748   0.559 -3.0811 -0.8235  0.2733
  553SOL    HW2 1659   2.702   2.602   0.517 -1.4049 -0.6618 -2.8871
  554SOL     OW 1660   1.871   1.265   1.664  0.4778 -0.1899 -0.7675
  554SOL    HW1 1661   1.871   1.171   1.643 -1.8387  0.4632 -0.5852
  554SOL    HW2 1662   1.917   1.286   1.753  2.6166  0.4000 -1.3045
  555SOL     OW 1663   1.257   2.203   2.077 -0.0166  0.0996 -0.0443
  555SOL    HW1 1664   1.183   2.218   2.144  0.9266 -0.3400  1.9646
  555SOL    HW2 1665   1.224   2.125   2.023 -0.8828 -1.0732  1.7864
  556SOL     OW 1666   1.411   1.551   1.713 -0.1919  0.1901 -0.3399
  556SOL    HW1 1667   1.356   1.527   1.796 -2.4956 -0.8789  0.8943
  556SOL    HW2 1668   1.492   1.491   1.704  1.1990 -0.1889 -0.6092
  557SOL     OW 1669   1.516   0.045   1.788  0.4055 -0.4398  0.2116
  557SOL    HW1 1670   1.566   3.094   1.723  0.6551 -0.6182  2.7399
  557SOL    HW2 1671   1.417   0.016   1.790 -0.4911 -1.3137 -0.0448
  558SOL     OW 1672   0.515   3.059   2.020 -0.1875  0.0873  0.6674
  558SOL    HW1 1673   0.460   0.034   2.036 -1.2546 -0.1411 -0.3031
  558SOL    HW2 1674   0.462   2.983   1.971 -1.9152  0.6181 -0.9075
  559SOL     OW 1675   1.720   2.494   0.464 -1.0340 -0.2093 -0.3739
  559SOL    HW1 1676   1.707   2.591   0.431  0.1923  0.9279  1.3253
  559SOL    HW2 1677   1.724   2.498   0.568  2.7257 -1.3025  2.3796
  560SOL     OW 1678   1.377   2.061   0.372 -0.7220  0.5493 -0.3377
  560SOL    HW1 1679   1.427   2.000   0.312 -2.4388  0.5984  1.7973
  560SOL    HW2 1680   1.359   2.149   0.325 -1.0768 -2.1502 -2.1111
  561SOL     OW 1681   1.458   0.295   0.348  0.0933  0.0628 -0.2734
  561SOL    HW1 1682   1.540   0.241   0.384  1.0568  2.4851  1.2975
  561SOL    HW2 1683   1.365   0.253   0.375  2.5912  1.6367  0.6523
  562SOL     OW 1684   0.690   1.405   1.951  0.4049 -0.2455  0.4080
  562SOL    HW1 1685   0.734   1.499   1.966  1.7371  1.4575  0.2237
  562SOL    HW2 1686   0.673   1.375   1.854 -1.3429 -2.0977 -0.7211
  563SOL     OW 1687   1.575   2.067   2.741 -0.7571  0.3573 -0.1009
  563SOL    HW1 1688   1.562   1.974   2.706  0.3754  0.9324  1.5063
  563SOL    HW2 1689   1.636   2.121   2.681 -1.5126 -0.7799  0.1553
  564SOL     OW 1690   3.016   0.965   0.919  0.4882 -0.0885 -0.1101
  564SOL    HW1 1691   2.911   0.969   0.915 -1.2631  0.5115 -1.8941
  564SOL    HW2 1692   3.047   0.921   1.003  0.4836  2.1439 -2.3943
  565SOL     OW 1693   0.657   1.336   3.097  0.4062 -0.2441  0.1444
  565SOL    HW1 1694   0.654   1.375   3.001  0.4357  2.2116 -1.7759
  565SOL    HW2 1695   0.747   1.290   3.100 -1.1178  2.4067 -2.3428
  566SOL     OW 1696   2.253   2.795   2.748  0.7045  0.4147  0.3551
  566SOL    HW1 1697   2.281   2.874   2.806  0.8829 -1.2821 -0.2726
  566SOL    HW2 1698   2.160   2.763   2.763  1.8287  1.2836 -0.9653
  567SOL     OW 1699   1.411   1.364   1.285 -0.1568 -0.0629  0.4543
  567SOL    HW1 1700   1.507   1.406   1.281  0.4542  0.6077 -2.7047
  567SOL    HW2 1701   1.368   1.358   1.377  0.6664 -1.6529  1.2377
  568SOL     OW 1702   1.381   1.092   2.963 -0.4458  0.1852  0.2751
  568SOL    HW1 1703   1.324   1.132   3.037  3.9982  0.7885 -1.5890
  568SOL    HW2 1704   1.446   1.162   2.935 -3.6683 -1.7010  1.3850
  569SOL     OW 1705   2.170   1.996   0.331 -0.2747  0.3915  0.3434
  569SOL    HW1 1706   2.075   1.972   0.304  2.1837  0.3781 -1.9491
  569SOL    HW2 1707   2.175   2.076   0.394 -0.6908  2.1905 -1.0272
  570SOL     OW 1708   2.810   2.322   2.367  0.3386  0.0128 -0.3601
  570SOL    HW1 1709   2.836   2.393   2.432 -0.5734 -1.3110 -1.6770
  570SOL    HW2 1710   2.894   2.296   2.311 -1.8830 -0.9567 -1.6626
  571SOL     OW 1711   2.973   1.994   1.880  0.5258 -0.2715  0.0219
  571SOL    HW1 1712   3.026   1.910   1.858  1.0864 -2.8256 -0.1636
  571SOL    HW2 1713   2.944   1.994   1.977 -2.3568 -0.9604  2.6230
  572SOL     OW 1714   1.633   2.314   0.271  0.5975 -0.3475 -0.1245
  572SOL    HW1 1715   1.534   2.295   0.272  0.8336 -0.6043 -0.4428
  572SOL    HW2 1716   1.653   2.384   0.347 -0.7389 -1.5836 -0.7687
  573SOL     OW 1717   1.439   1.741   0.674  0.0384  0.1774 -0.4485
  573SOL    HW1 1718   1.503   1.816   0.658 -2.8751  0.2584 -1.3608
  573SOL    HW2 1719   1.359   1.775   0.722  0.1749  1.0426 -1.0174
  574SOL     OW 1720   1.271   3.055   1.497 -0.3510 -0.0151 -0.1512
  574SOL    HW1 1721   1.345   2.987   1.474 -2.7915  0.3243 -3.3625
  574SOL    HW2 1722   1.270   3.069   1.598 -1.0998 -0.2647  0.1687
  575SOL     OW 1723   0.835   0.720   1.379 -0.0302 -0.2230 -0.1292
  575SOL    HW1 1724   0.741   0.754   1.345  0.4471  1.8117 -0.0746
  575SOL    HW2 1725   0.822   0.659   1.461  1.6515  0.3772  2.3071
  576SOL     OW 1726   2.817   0.172   1.214  0.3140  0.8204 -0.1068
  576SOL    HW1 1727   2.816   0.171   1.115 -0.8591  0.0770  0.8583
  576SOL    HW2 1728   2.742   0.112   1.250 -0.3127  0.7194  0.0302
  577SOL     OW 1729   1.825   0.489   2.671 -0.2027 -0.0084  0.0872
  577SOL    HW1 1730   1.744   0.489   2.733 -1.6205 -3.0402 -0.2200
  577SOL    HW2 1731   1.797   0.483   2.575  0.4607 -0.1310 -2.1060
  578SOL     OW 1732   1.934   1.655   2.462  0.1936  0.9992  0.2043
  578SOL    HW1 1733   1.960   1.577   2.526 -0.9854 -0.6199 -1.4027
  578SOL    HW2 1734   1.997   1.733   2.471 -4.4998 -0.4082  2.9098
  579SOL     OW 1735   0.419   1.613   0.983 -0.3078  0.2036  0.4261
  579SOL    HW1 1736   0.321   1.590   0.970  2.0064  1.3138 -0.2192
  579SOL    HW2 1737   0.482   1.540   0.942 -1.0480 -0.5927  0.0411
  580SOL     OW 1738   1.392   2.378   3.068  0.1990 -0.0493  0.1666
  580SOL    HW1 1739   1.480   2.424   3.086 -0.4706 -0.9825  1.1101
  580SOL    HW2 1740   1.407   2.292   3.008  1.7310 -0.5545  1.1964
  581SOL     OW 1741   1.048   0.884   2.109 -0.5695 -0.2482 -0.1255
  581SOL    HW1 1742   0.996   0.967   2.141  1.2457 -0.2273 -0.9385
  581SOL    HW2 1743   1.003   0.841   2.024 -1.5053  0.1356 -1.8480
  582SOL     OW 1744   0.694   1.116   1.031  0.2613  0.5455  0.1366
  582SOL    HW1 1745   0.695   1.059   0.944  0.6931  0.1262 -2.0428
  582SOL    HW2 1746   0.761   1.191   1.022 -0.3882  1.1681 -1.4246
  583SOL     OW 1747   0.919   1.605   2.021  0.0026 -0.4137  0.3111
  583SOL    HW1 1748   0.953   1.584   1.925  0.3026 -0.6811 -2.8662
  583SOL    HW2 1749   0.993   1.625   2.083 -1.2247 -2.3157 -0.9375
  584SOL     OW 1750   2.210   2.689   0.573  0.0996 -0.1795 -0.4657
  584SOL    HW1 1751   2.127   2.698   0.635  0.2300  2.1946 -2.4367
  584SOL    HW2 1752   2.220   2.768   0.514  1.1758  0.7530  2.5758
  585SOL     OW 1753   1.791   0.454   3.044  0.0458  0.0728 -0.0189
  585SOL    HW1 1754   1.783   0.523   0.014 -0.1784  1.0808 -1.0883
  585SOL    HW2 1755   1.716   0.469   2.972 -3.6689  0.3937  0.8145
  586SOL     OW 1756   0.180   1.745   0.496  0.0717 -0.3127 -0.3172
  586SOL    HW1 1757   0.098   1.692   0.470 -0.8421  0.7333 -0.8412
  586SOL    HW2 1758   0.252   1.684   0.532  0.6966  3.3506  0.0489
  587SOL     OW 1759   1.587   1.981   0.703 -0.2230  0.0136  0.1669
  587SOL    HW1 1760   1.586   2.055   0.635 -3.4108  1.6902  1.1881
  587SOL    HW2 1761   1.682   1.953   0.710  1.7728 -1.0946 -0.4185
  588SOL     OW 1762   0.368   0.511   1.111  0.6762  0.2380  0.3673
  588SOL    HW1 1763   0.316   0.510   1.019 -0.0438 -0.2856 -0.1053
  588SOL    HW2 1764   0.300   0.489   1.184  1.7715 -2.7070 -1.3248
  589SOL     OW 1765   1.212   0.408   0.959  0.9105  0.2403 -0.3823
  589SOL    HW1 1766   1.125   0.372   0.906 -2.5999  0.4607 -0.8531
  589SOL    HW2 1767   1.189   0.497   1.006 -0.1940 -0.7383 -0.2815
  590SOL     OW 1768   1.384   0.921   0.250 -0.3285 -0.1375  0.0023
  590SOL    HW1 1769   1.286   0.930   0.222 -0.1403 -1.9623 -1.0375
  590SOL    HW2 1770   1.388   0.892   0.347 -1.0855  0.9509  2.4132
  591SOL     OW 1771   2.616   2.764   2.581  0.1128 -0.3263 -0.4098
  591SOL    HW1 1772   2.602   2.719   2.672  1.2183 -0.9391 -2.7104
  591SOL    HW2 1773   2.705   2.736   2.543 -2.9636  2.2564  2.2706
  592SOL     OW 1774   1.530   2.008   0.978 -0.2640 -0.2837 -0.4132
  592SOL    HW1 1775   1.550   2.004   0.880 -4.2661 -1.5316  1.9329
  592SOL    HW2 1776   1.517   2.104   1.016 -1.3859  1.3715  1.5929
  593SOL     OW 1777   0.900   0.015   0.829 -0.3366  0.1871 -0.2517
  593SOL    HW1 1778   0.833   0.009   0.757 -0.0584 -0.8583  0.2943
  593SOL    HW2 1779   0.960   3.043   0.812 -0.8677 -1.9767  0.4349
  594SOL     OW 1780   0.313   1.023   2.023 -0.0338  0.7532  0.1621
  594SOL    HW1 1781   0.274   1.105   2.059  2.1440 -3.0048 -0.6074
  594SOL    HW2 1782   0.252   0.940   2.036 -1.2834  3.1000  0.1166
  595SOL     OW 1783   0.279   2.684   1.036  0.5561 -0.3708 -0.1808
  595SOL    HW1 1784   0.216   2.762   1.065  2.4645  2.7916  0.6525
  595SOL    HW2 1785   0.359   2.723   0.984  0.9545  0.8502  0.7898
  596SOL     OW 1786   0.079   0.983   1.587  0.1125 -0.5610 -0.0538
  596SOL    HW1 1787   0.139   0.897   1.586 -0.7856 -1.6958 -0.4857
  596SOL    HW2 1788   0.057   1.014   1.682  3.6149  1.0818 -0.5507
  597SOL     OW 1789   2.017   1.644   0.531 -1.1581  0.1932 -0.0157
  597SOL    HW1 1790   2.038   1.668   0.629  0.2991 -0.0867  0.4490
  597SOL    HW2 1791   2.059   1.553   0.514  3.7105  0.8648 -0.4103
  598SOL     OW 1792   0.408   2.845   1.872 -0.2874 -0.3679 -0.5214
  598SOL    HW1 1793   0.438   2.806   1.784 -0.7406  0.0634 -0.9491
  598SOL    HW2 1794   0.358   2.773   1.930  1.9359  0.3562  2.0023
  599SOL     OW 1795   2.532   2.093   3.047 -0.0663 -0.0499  0.0328
  599SOL    HW1 1796   2.462   2.065   2.977  0.0680 -1.7825  0.1637
  599SOL    HW2 1797   2.569   2.007   3.091 -0.3201  1.5136  0.7983
  600SOL     OW 1798   0.709   1.010   0.151  0.6074  0.6387 -0.0010
  600SOL    HW1 1799   0.795   1.046   0.109 -2.7813 -2.3217 -0.1252
  600SOL    HW2 1800   0.682   1.063   0.235  0.3102 -1.0723  0.7604
  601SOL     OW 1801   1.019   0.880   0.478  0.1518 -0.1563  0.0173
  601SOL    HW1 1802   1.094   0.942   0.507  2.2931  0.8638 -0.1940
  601SOL    HW2 1803   0.945   0.873   0.550 -1.8357  2.3840  0.7064
  602SOL     OW 1804   1.332   2.847   1.072  0.0179 -0.6493  0.0388
  602SOL    HW1 1805   1.281   2.911   1.142  0.0277  3.2665  0.7718
  602SOL    HW2 1806   1.388   2.913   1.016 -1.5064  1.4136  0.6613
  603SOL     OW 1807   0.737   3.007   2.158  0.1921 -0.0151  0.0765
  603SOL    HW1 1808   0.636   3.015   2.126 -1.8284 -1.3509  0.0628
  603SOL    HW2 1809   0.801   3.004   2.081 -0.1445  0.1638  0.0696
  604SOL     OW 1810   0.033   0.098   2.143  0.0253  0.2938  0.1564
  604SOL    HW1 1811   0.016   0.000   2.125  0.2570  0.9201 -0.0027
  604SOL    HW2 1812   0.121   0.114   2.189  3.6265 -3.6372  0.6309
  605SOL     OW 1813   2.720   2.161   1.355  0.2621  0.0833 -0.4739
  605SOL    HW1 1814   2.654   2.229   1.387  2.0325 -0.4526 -0.2456
  605SOL    HW2 1815   2.775   2.113   1.426  1.3261 -0.4068 -1.0600
  606SOL     OW 1816   0.426   1.515   2.872 -0.3070 -0.6622 -0.9283
  606SOL    HW1 1817   0.401   1.518   2.970 -1.2350 -2.4844 -1.6289
  606SOL    HW2 1818   0.361   1.572   2.814  0.7471 -1.3234 -0.4671
  607SOL     OW 1819   0.928   0.350   0.059  0.4334  0.2597 -0.1534
  607SOL    HW1 1820   0.960   0.440   0.092  0.3373 -2.5476 -0.5396
  607SOL    HW2 1821   1.006   0.297   0.012 -0.4102 -2.3160  1.3612
  608SOL     OW 1822   1.725   1.048   2.423  0.4233  0.3786 -0.0711
  608SOL    HW1 1823   1.629   1.064   2.419  1.2382 -1.3837  1.3371
  608SOL    HW2 1824   1.765   1.074   2.516 -1.4415  1.6326  1.5784
  609SOL     OW 1825   3.025   0.183   0.824  0.0414  0.4109 -0.0455
  609SOL    HW1 1826   3.056   0.242   0.901  0.1103 -1.1117  2.0944
  609SOL    HW2 1827   2.922   0.187   0.810 -1.4611 -0.0173  0.2339
  610SOL     OW 1828   0.673   2.271   3.092 -0.2491 -0.1937  0.1115
  610SOL    HW1 1829   0.695   2.184   0.034  3.3298  1.6604  2.2380
  610SOL    HW2 1830   0.588   2.316   0.017  0.2547  2.1725  1.9303
  611SOL     OW 1831   1.859   1.188   0.489  0.0186 -0.4458 -0.0962
  611SOL    HW1 1832   1.921   1.180   0.407 -0.0160  0.3263 -0.7017
  611SOL    HW2 1833   1.830   1.285   0.494  1.1941  0.2016  1.1534
  612SOL     OW 1834   0.915   2.225   2.528 -0.4073 -0.2311  0.2024
  612SOL    HW1 1835   0.842   2.156   2.505  2.1074  0.3423 -1.4845
  612SOL    HW2 1836   0.948   2.206   2.624 -4.4491  0.3459  0.3007
  613SOL     OW 1837   1.017   2.044   2.851  0.2295 -0.2672  1.0166
  613SOL    HW1 1838   1.104   1.990   2.857  1.7893  1.5534  0.0962
  613SOL    HW2 1839   0.938   1.994   2.900 -2.2363  0.8606  0.1835
  614SOL     OW 1840   2.757   2.843   1.527  0.8421 -0.4051 -0.2982
  614SOL    HW1 1841   2.818   2.894   1.464  1.3163  1.1269 -0.1593
  614SOL    HW2 1842   2.726   2.756   1.481 -2.0114 -0.2560 -0.3222
  615SOL     OW 1843   2.171   1.330   3.042  0.5611  0.3345  0.0934
  615SOL    HW1 1844   2.071   1.338   3.029  0.9690  0.1139 -0.4470
  615SOL    HW2 1845   2.205   1.422   3.064  0.1760  1.1183  2.9355
  616SOL     OW 1846   1.682   0.145   0.436  0.1953 -0.9622  0.0096
  616SOL    HW1 1847   1.709   0.049   0.433 -0.6314  0.8506  0.6189
  616SOL    HW2 1848   1.758   0.211   0.429 -3.6225 -1.1534  0.8855
  617SOL     OW 1849   0.899   1.216   0.025 -0.3445 -0.1254  0.8263
  617SOL    HW1 1850   0.948   1.250   3.049  0.1559 -0.3001 -1.5584
  617SOL    HW2 1851   0.947   1.252   0.106  0.3296  2.7501 -1.4498
  618SOL     OW 1852   0.502   0.637   1.765 -0.2639 -0.5756 -0.0556
  618SOL    HW1 1853   0.431   0.628   1.844 -0.6405 -0.2686  0.5087
  618SOL    HW2 1854   0.574   0.702   1.805 -0.7822  4.1100  0.2073
  619SOL     OW 1855   0.215   1.253   1.554 -0.2268  0.2742  0.1333
  619SOL    HW1 1856   0.165   1.297   1.474 -0.6539  0.3935 -1.0346
  619SOL    HW2 1857   0.174   1.170   1.586  2.3909  2.8983  0.0192
  620SOL     OW 1858   1.937   1.104   0.014 -0.2572  0.6070 -0.1481
  620SOL    HW1 1859   1.852   1.154   0.033  2.4467  0.1373  2.2166
  620SOL    HW2 1860   1.978   1.148   3.038 -1.2313  0.5802  1.2598
  621SOL     OW 1861   2.261   2.862   1.266 -0.1418  0.3746 -0.2349
  621SOL    HW1 1862   2.256   2.951   1.311  0.6612 -2.1006  1.2619
  621SOL    HW2 1863   2.331   2.805   1.313  1.3486  0.0063  0.5615
  622SOL     OW 1864   1.264   0.706   2.617  0.5475 -0.3432  0.1631
  622SOL    HW1 1865   1.252   0.704   2.721 -1.8817 -1.6556  2.2175
  622SOL    HW2 1866   1.235   0.617   2.573 -1.0475  2.4552 -0.1096
  623SOL     OW 1867   1.111   0.237   3.017 -0.3777 -0.1973  0.5920
  623SOL    HW1 1868   1.103   0.250   2.917  1.7715  1.0556  0.4136
  623SOL    HW2 1869   1.111   0.138   3.041  1.3747 -1.3634 -1.1373
  624SOL     OW 1870   1.735   0.442   0.362  0.1066  0.1018  0.6172
  624SOL    HW1 1871   1.660   0.457   0.429 -0.5006 -0.3497  0.8328
  624SOL    HW2 1872   1.810   0.393   0.408 -1.3080  0.2619 -1.2997
  625SOL     OW 1873   0.798   1.370   0.924  0.5473  0.3073  0.9106
  625SOL    HW1 1874   0.868   1.422   0.975  0.4348  0.4758 -1.6564
  625SOL    HW2 1875   0.712   1.421   0.905 -1.3450 -0.6155 -0.0412
  626SOL     OW 1876   1.542   1.147   0.223  0.2734 -0.7869  0.4659
  626SOL    HW1 1877   1.530   1.202   0.310 -1.7264 -0.4739  0.1010
  626SOL    HW2 1878   1.515   1.051   0.231 -0.8887  0.9206  0.0916
  627SOL     OW 1879   0.877   2.939   1.923  0.0466 -0.2845 -0.3948
  627SOL    HW1 1880   0.836   2.875   1.857 -0.1730  0.6093  1.1485
  627SOL    HW2 1881   0.971   2.917   1.956 -1.1108  2.1899 -0.6045
  628SOL     OW 1882   2.556   0.306   2.222  0.7965 -0.5435  0.0462
  628SOL    HW1 1883   2.652   0.339   2.243  1.5870  2.9410 -1.5652
  628SOL    HW2 1884   2.495   0.313   2.301  0.4512  4.0632  0.9396
  629SOL     OW 1885   1.002   1.305   2.869  0.0977  0.1872 -0.1445
  629SOL    HW1 1886   0.983   1.214   2.833 -0.6745  1.3369  0.2337
  629SOL    HW2 1887   1.030   1.370   2.794 -1.1983  1.3892 -0.3022
  630SOL     OW 1888   1.188   0.091   2.297  0.3353  0.0712 -0.6170
  630SOL    HW1 1889   1.116   0.161   2.323  2.0018  0.1198  1.1592
  630SOL    HW2 1890   1.255   0.084   2.377  1.1157 -1.0596  0.8244
  631SOL     OW 1891   2.788   0.739   0.582 -0.2252 -0.0502  0.0653
  631SOL    HW1 1892   2.842   0.665   0.629 -0.7915 -0.0808  1.5449
  631SOL    HW2 1893   2.848   0.792   0.517  0.7120 -1.3320 -0.7011
  632SOL     OW 1894   2.409   0.860   1.307 -0.0368  0.5094  0.2417
  632SOL    HW1 1895   2.340   0.785   1.310  2.7255 -1.4822  2.1565
  632SOL    HW2 1896   2.433   0.887   1.213 -0.9850  0.0200 -1.5688
  633SOL     OW 1897   1.762   0.771   0.893  0.0399  0.2099  0.9906
  633SOL    HW1 1898   1.849   0.824   0.892  0.6908  0.1164  2.8763
  633SOL    HW2 1899   1.768   0.683   0.948 -2.6736 -0.3599  1.0546
  634SOL     OW 1900   1.842   2.973   0.831 -0.3331 -0.1366 -0.0409
  634SOL    HW1 1901   1.910   3.039   0.873  0.4897 -1.0771 -0.9870
  634SOL    HW2 1902   1.781   2.931   0.901  2.8718 -1.0829 -0.7729
  635SOL     OW 1903   1.710   0.829   1.212  0.1108 -0.1123 -0.2760
  635SOL    HW1 1904   1.630   0.808   1.268  0.9344 -0.0706 -2.6673
  635SOL    HW2 1905   1.734   0.928   1.210 -2.1050 -2.2502 -0.4919
  636SOL     OW 1906   0.836   0.812   0.655  0.4147 -0.1381 -0.2015
  636SOL    HW1 1907   0.769   0.763   0.592 -0.9285 -1.9392 -0.3117
  636SOL    HW2 1908   0.872   0.750   0.730  0.3686  1.2380  1.1630
  637SOL     OW 1909   1.900   2.253   0.477  0.0918 -0.0329  0.1995
  637SOL    HW1 1910   1.858   2.340   0.446  1.4731 -0.1652 -0.0285
  637SOL    HW2 1911   1.913   2.251   0.579  0.4906  1.3131  0.1484
  638SOL     OW 1912   1.307   2.799   2.821  0.2785 -0.9964  0.7026
  638SOL    HW1 1913   1.311   2.894   2.861 -0.3241  3.1847 -0.2839
  638SOL    HW2 1914   1.399   2.758   2.806  1.3121 -1.4770 -0.4220
  639SOL     OW 1915   0.686   2.160   1.311  0.1424 -0.1098  0.0820
  639SOL    HW1 1916   0.590   2.165   1.268 -4.4501 -1.8794  0.3103
  639SOL    HW2 1917   0.691   2.227   1.383  1.6000 -2.5014 -3.4689
  640SOL     OW 1918   0.048   2.798   3.095  0.2896 -0.1331  0.0409
  640SOL    HW1 1919   3.102   2.770   0.066  5.0208  0.7058  0.5872
  640SOL    HW2 1920   0.111   2.870   0.019  0.8041  0.9900  0.6845
  641SOL     OW 1921   0.141   0.285   2.998 -0.5719  0.8934 -0.1505
  641SOL    HW1 1922   0.158   0.273   3.096 -1.3831 -0.2991 -1.6548
  641SOL    HW2 1923   0.170   0.199   2.947 -2.0786 -2.7539 -2.5757
  642SOL     OW 1924   0.051   1.165   1.146  0.4007  0.1271  0.1164
  642SOL    HW1 1925   3.081   1.108   1.124  0.7648  1.1679 -3.8522
  642SOL    HW2 1926   0.036   1.204   1.237  0.9623 -0.0534 -0.8756
  643SOL     OW 1927   0.597   1.844   2.176  0.0054  0.0772 -0.0787
  643SOL    HW1 1928   0.641   1.758   2.207  0.0638 -2.0783  2.5595
  643SOL    HW2 1929   0.644   1.928   2.214  1.5711  1.3131 -1.2971
  644SOL     OW 1930   1.743   2.533   0.730  0.0736  0.4164  0.4421
  644SOL    HW1 1931   1.748   2.433   0.763 -0.5091 -0.0680 -2.4392
  644SOL    HW2 1932   1.668   2.591   0.771 -0.0610  0.5203  0.8956
  645SOL     OW 1933   1.595   2.385   1.272  0.2495 -0.4123  0.0215
  645SOL    HW1 1934   1.591   2.355   1.373 -1.3306  0.5200  0.0545
  645SOL    HW2 1935   1.643   2.473   1.264 -0.6735 -2.5875  1.3083
  646SOL     OW 1936   1.247   2.584   0.357 -0.1110 -0.2091  0.2263
  646SOL    HW1 1937   1.285   2.634   0.278  0.0879 -2.5348  2.0686
  646SOL    HW2 1938   1.144   2.586   0.354 -0.2128  0.1319  0.3960
  647SOL     OW 1939   0.272   3.031   1.738  0.2522  0.4486 -0.4598
  647SOL    HW1 1940   0.177   2.998   1.728  3.2257  3.3453  0.7116
  647SOL    HW2 1941   0.330   2.965   1.795  2.3240  0.6915 -1.3605
  648SOL     OW 1942   2.156   0.770   1.013  0.1495  0.2527  0.3713
  648SOL    HW1 1943   2.103   0.850   1.043 -0.6719 -1.8167 -0.0004
  648SOL    HW2 1944   2.237   0.805   0.960  0.8103 -1.6390 -1.2988
  649SOL     OW 1945   1.874   2.297   3.002  0.2838 -0.0252  0.3987
  649SOL    HW1 1946   1.891   2.329   3.098 -1.0097  0.6756  0.7235
  649SOL    HW2 1947   1.821   2.375   2.959  1.0621  1.1111 -0.2687
  650SOL     OW 1948   2.586   1.781   1.660 -0.2157  0.3623 -0.1891
  650SOL    HW1 1949   2.613   1.871   1.635  1.8911 -2.2458  1.2015
  650SOL    HW2 1950   2.530   1.791   1.742  0.9186 -1.3940 -1.4301
  651SOL     OW 1951   1.672   1.663   2.781  0.2396  0.6425 -0.6736
  651SOL    HW1 1952   1.724   1.696   2.864  0.2206  0.3844  2.2624
  651SOL    HW2 1953   1.682   1.730   2.705  2.1261 -3.1631  1.6397
  652SOL     OW 1954   0.796   2.872   2.835  0.0481  0.1003 -0.1018
  652SOL    HW1 1955   0.881   2.821   2.855 -1.2588  0.9156  0.2825
  652SOL    HW2 1956   0.788   2.946   2.901  0.5508 -2.5874  0.0589
  653SOL     OW 1957   2.004   2.289   1.124  0.2837  0.4441 -0.3485
  653SOL    HW1 1958   1.901   2.276   1.128 -0.7091  1.9419  0.8880
  653SOL    HW2 1959   2.051   2.198   1.139  0.0359 -0.5583  2.7095
  654SOL     OW 1960   2.691   3.047   2.243  0.2135  0.2807 -0.1555
  654SOL    HW1 1961   2.653   3.058   2.335 -0.4888  0.7816 -1.6731
  654SOL    HW2 1962   2.657   0.017   2.183 -0.3726  1.3659  0.4048
  655SOL     OW 1963   2.715   2.096   1.084  0.0873 -0.0917 -0.2734
  655SOL    HW1 1964   2.750   2.182   1.038 -2.8353 -1.7179 -0.0253
  655SOL    HW2 1965   2.695   2.109   1.185 -1.2721  0.4821  1.3701
  656SOL     OW 1966   3.030   2.197   2.737  0.1931 -0.1612 -0.4859
  656SOL    HW1 1967   0.025   2.206   2.728  1.8533  0.3500 -2.8258
  656SOL    HW2 1968   3.017   2.136   2.815  2.5140  2.8471 -0.7141
  657SOL     OW 1969   2.984   0.908   0.466 -0.7639  0.0200 -0.2375
  657SOL    HW1 1970   2.969   1.010   0.454  0.0775 -1.8247 -2.4682
  657SOL    HW2 1971   3.015   0.858   0.382  2.2034 -0.9342 -3.5640
  658SOL     OW 1972   1.319   1.842   1.079 -0.4479 -0.4935  0.4152
  658SOL    HW1 1973   1.339   1.815   1.175 -1.4171  1.8371 -1.0175
  658SOL    HW2 1974   1.384   1.913   1.055  0.6996 -2.2589  0.7294
  659SOL     OW 1975   1.518   0.515   1.305  0.2320  0.5323  0.1196
  659SOL    HW1 1976   1.593   0.478   1.369 -1.6929  1.0070  2.2028
  659SOL    HW2 1977   1.504   0.462   1.215 -2.1267 -2.9005 -4.5618
  660SOL     OW 1978   2.045   1.287   0.780 -0.1660  0.0134  0.2126
  660SOL    HW1 1979   1.965   1.230   0.765  0.7638  2.0007  0.9571
  660SOL    HW2 1980   2.014   1.357   0.848  0.8535  0.4770 -1.2429
  661SOL     OW 1981   0.380   1.539   0.250 -0.2527 -0.1743  0.3545
  661SOL    HW1 1982   0.400   1.442   0.226 -0.7768 -1.3306 -1.1094
  661SOL    HW2 1983   0.377   1.550   0.350 -0.9283 -0.5770  0.2874
  662SOL     OW 1984   2.763   1.046   2.087  0.2613 -0.1094 -0.0570
  662SOL    HW1 1985   2.800   0.977   2.155  0.8160 -1.5049  2.1598
  662SOL    HW2 1986   2.659   1.035   2.080 -2.8287 -1.4092 -0.1662
  663SOL     OW 1987   2.188   1.398   1.371 -0.6515 -0.5953 -0.3702
  663SOL    HW1 1988   2.227   1.489   1.345  3.8094 -1.1865 -4.3898
  663SOL    HW2 1989   2.235   1.371   1.461  1.4015  0.6616  3.2619
  664SOL     OW 1990   0.524   0.113   1.193  0.2827  0.5003  0.1934
  664SOL    HW1 1991   0.446   0.087   1.123 -2.3891  0.8684 -0.8197
  664SOL    HW2 1992   0.612   0.094   1.155 -0.0242 -1.9001  0.8763
  665SOL     OW 1993   1.373   3.075   2.859  0.2495  0.2009  0.4395
  665SOL    HW1 1994   1.462   3.103   2.899  1.6828  0.0081 -1.0013
  665SOL    HW2 1995   1.301   3.086   2.931  2.1601  1.3035 -3.3197
  666SOL     OW 1996   0.639   0.380   2.098 -0.0946 -0.2561  0.5744
  666SOL    HW1 1997   0.630   0.472   2.143 -0.2645  1.0885  0.4623
  666SOL    HW2 1998   0.669   0.315   2.172  0.6408 -2.2906  1.2036
  667SOL     OW 1999   1.868   1.321   2.125 -0.5282 -0.2601  0.1738
  667SOL    HW1 2000   1.951   1.336   2.069  2.5372 -1.0430  1.5632
  667SOL    HW2 2001   1.881   1.239   2.184 -2.1155 -2.5277 -0.5892
  668SOL     OW 2002   0.260   1.372   2.553  0.3978 -0.1716  0.0135
  668SOL    HW1 2003   0.166   1.411   2.557 -0.2219 -0.6737 -0.2758
  668SOL    HW2 2004   0.311   1.431   2.488  0.1360 -1.6343 -2.0237
  669SOL     OW 2005   2.368   0.024   2.441  0.6494  0.3859  0.2872
  669SOL    HW1 2006   2.464   3.100   2.462  0.0939  0.5252 -0.0394
  669SOL    HW2 2007   2.361   0.127   2.440  2.0624  0.4744 -1.0063
  670SOL     OW 2008   2.715   1.019   2.430 -0.4102  0.3803  0.0961
  670SOL    HW1 2009   2.757   0.957   2.362  3.0784  2.7399  1.0510
  670SOL    HW2 2010   2.632   0.977   2.462  0.1050  0.1658 -1.8106
  671SOL     OW 2011   2.666   1.906   0.069  0.5470  0.0068 -0.3385
  671SOL    HW1 2012   2.712   1.819   0.036 -0.3406 -0.0441  0.9938
  671SOL    HW2 2013   2.585   1.890   0.128 -1.8478  3.1943  1.3704
  672SOL     OW 2014   2.072   1.721   2.103  0.5954  0.3078  0.4289
  672SOL    HW1 2015   2.134   1.654   2.150  0.1314  0.9837  0.5598
  672SOL    HW2 2016   2.050   1.797   2.164  0.7291 -1.1823 -1.3828
  673SOL     OW 2017   2.802   1.598   1.083  0.0220 -0.0236  0.1082
  673SOL    HW1 2018   2.783   1.546   0.998 -0.1369  1.4198  4.1088
  673SOL    HW2 2019   2.820   1.694   1.057  1.6603 -1.0881  1.4774
  674SOL     OW 2020   1.130   2.005   1.931 -0.6694 -0.0143 -0.3062
  674SOL    HW1 2021   1.182   1.916   1.938 -0.3221  0.5840 -1.2662
  674SOL    HW2 2022   1.026   1.995   1.931  2.4389  2.2761 -1.8887
  675SOL     OW 2023   2.897   0.626   1.017  0.5206  0.1811  0.0437
  675SOL    HW1 2024   2.943   0.686   1.089  1.7100  0.1854 -0.0597
  675SOL    HW2 2025   2.793   0.623   1.025 -0.9941  1.4173 -0.3758
  676SOL     OW 2026   2.938   1.235   0.785 -0.3636 -0.1784  0.4320
  676SOL    HW1 2027   2.881   1.228   0.705  2.2184 -1.5776  0.9653
  676SOL    HW2 2028   2.931   1.141   0.827  0.9573  0.6084  0.6998
  677SOL     OW 2029   1.517   1.477   2.293 -0.7839 -0.3327 -0.0512
  677SOL    HW1 2030   1.609   1.516   2.271  1.1156  0.0770 -1.0704
  677SOL    HW2 2031   1.464   1.492   2.207 -2.1575  0.7821 -0.1141
  678SOL     OW 2032   2.631   1.244   0.942  0.0119  0.0477  0.0084
  678SOL    HW1 2033   2.618   1.320   0.877 -2.6101 -1.5171 -1.9404
  678SOL    HW2 2034   2.720   1.256   0.988 -2.0185 -0.7482 -0.2829
  679SOL     OW 2035   0.539   2.387   0.767 -0.4846  0.6095 -0.1163
  679SOL    HW1 2036   0.563   2.462   0.829 -2.1600 -1.2203  0.7180
  679SOL    HW2 2037   0.560   2.292   0.800  1.0065 -0.8576 -2.2985
  680SOL     OW 2038   2.829   1.855   1.038 -0.2080 -0.1217  0.2951
  680SOL    HW1 2039   2.906   1.860   0.961  2.0402 -0.0466 -1.5318
  680SOL    HW2 2040   2.789   1.950   1.063 -0.1582  2.0467  0.1796
  681SOL     OW 2041   1.052   0.615   1.174  0.3692 -0.1259 -0.5447
  681SOL    HW1 2042   0.971   0.576   1.217  1.3598  0.1597 -1.5191
  681SOL    HW2 2043   1.134   0.574   1.218 -1.7046 -0.3164 -0.0602
  682SOL     OW 2044   1.559   3.000   0.923  0.0518  0.5161 -0.0366
  682SOL    HW1 2045   1.587   3.085   0.975 -0.6723  1.7051 -0.8889
  682SOL    HW2 2046   1.560   3.020   0.822  2.6089 -1.0443  0.6062
  683SOL     OW 2047   2.365   1.392   1.602 -0.2050 -0.2061 -0.1569
  683SOL    HW1 2048   2.349   1.477   1.660  1.4051  2.1814  2.0494
  683SOL    HW2 2049   2.366   1.307   1.656  0.6018 -0.6221 -1.0804
  684SOL     OW 2050   0.153   1.807   1.664 -0.1209 -0.1543 -0.0921
  684SOL    HW1 2051   0.070   1.779   1.718 -1.2069 -1.6794  0.0254
  684SOL    HW2 2052   0.232   1.755   1.693 -1.3552  3.5922  2.0118
  685SOL     OW 2053   2.001   1.744   0.106  0.0638  0.5064 -0.0814
  685SOL    HW1 2054   2.009   1.815   0.179  2.5858 -2.6004  0.7412
  685SOL    HW2 2055   1.910   1.702   0.104 -2.9163 -2.5511  1.8585
  686SOL     OW 2056   2.712   0.200   0.956 -0.3262 -0.0013  0.3254
  686SOL    HW1 2057   2.668   0.289   0.935 -0.8711 -2.0652  2.2199
  686SOL    HW2 2058   2.707   0.134   0.878  0.6960  0.4018 -0.2142
  687SOL     OW 2059   1.738   0.071   2.694  0.7202  0.3215 -0.1653
  687SOL    HW1 2060   1.719   3.083   2.664  3.3674 -2.7012 -2.6597
  687SOL    HW2 2061   1.775   0.063   2.788  0.1599 -1.2866  1.2996
  688SOL     OW 2062   1.446   2.190   2.265  0.3695 -0.2661 -0.2712
  688SOL    HW1 2063   1.491   2.104   2.287 -0.0367 -0.8107  2.1385
  688SOL    HW2 2064   1.368   2.186   2.195  0.5595  0.6900  0.1928
  689SOL     OW 2065   2.474   1.558   2.032 -0.2146 -0.0147 -0.3606
  689SOL    HW1 2066   2.419   1.556   1.951  1.3586  2.1161  1.3851
  689SOL    HW2 2067   2.570   1.574   2.003  0.4715  0.2178  0.1389
  690SOL     OW 2068   1.706   1.978   1.185 -0.0982 -0.3016  0.1203
  690SOL    HW1 2069   1.630   1.972   1.116 -1.4769  1.3889 -0.2659
  690SOL    HW2 2070   1.782   1.909   1.173  1.8963 -1.6988  0.0248
  691SOL     OW 2071   0.402   1.325   0.566 -0.5144  0.0602  0.3136
  691SOL    HW1 2072   0.471   1.252   0.539 -2.6211  0.0437 -2.3848
  691SOL    HW2 2073   0.311   1.282   0.594 -2.3563  0.6453 -2.1167
  692SOL     OW 2074   2.292   2.929   2.265  0.1808  0.0106  0.1950
  692SOL    HW1 2075   2.317   2.861   2.337 -1.5235  0.0119  0.8539
  692SOL    HW2 2076   2.316   3.017   2.304  0.4062  0.7248 -0.0571
  693SOL     OW 2077   0.065   1.479   2.196  0.2518  0.2425  0.2133
  693SOL    HW1 2078   3.071   1.485   2.221 -4.7991  0.0866  0.3228
  693SOL    HW2 2079   0.122   1.487   2.281 -0.4349 -0.3735  2.0583
  694SOL     OW 2080   2.267   0.236   1.511 -0.3814  0.1294  0.1917
  694SOL    HW1 2081   2.178   0.266   1.550 -0.7028 -0.0909  0.9795
  694SOL    HW2 2082   2.342   0.219   1.577  2.3125  1.7027 -1.3791
  695SOL     OW 2083   1.005   1.016   2.862 -0.0236  0.4984 -0.2565
  695SOL    HW1 2084   1.003   0.923   2.913  0.6901 -1.5475  1.3492
  695SOL    HW2 2085   1.085   1.013   2.805 -2.3679  1.2017  3.7472
  696SOL     OW 2086   1.727   0.118   1.956 -0.0393 -0.2645 -0.8090
  696SOL    HW1 2087   1.749   0.219   1.979 -0.7070  3.0529 -0.7232
  696SOL    HW2 2088   1.647   0.114   1.890  0.7475  1.9648 -1.0621
  697SOL     OW 2089   1.608   0.138   2.206  0.1951 -0.2082 -0.0230
  697SOL    HW1 2090   1.652   0.191   2.275 -0.4366 -1.7708  0.2465
  697SOL    HW2 2091   1.667   0.121   2.124 -0.6142 -1.8068  1.4427
  698SOL     OW 2092   1.801   1.578   2.231  0.2291 -0.1887  0.1027
  698SOL    HW1 2093   1.856   1.618   2.307  1.0945 -0.4983  1.6404
  698SOL    HW2 2094   1.846   1.497   2.193 -2.3853 -0.6220  1.8609
  699SOL     OW 2095   2.142   0.705   0.329  0.2452  0.3913  0.7182
  699SOL    HW1 2096   2.167   0.806   0.332 -0.2251 -2.8741 -0.2747
  699SOL    HW2 2097   2.047   0.699   0.311  3.4431  0.8738  0.5198
  700SOL     OW 2098   1.235   0.187   0.452 -0.3766 -0.0157 -0.3664
  700SOL    HW1 2099   1.139   0.215   0.476  4.4320 -0.0995 -0.4581
  700SOL    HW2 2100   1.236   0.091   0.416 -2.3991  1.0144 -1.7534
  701SOL     OW 2101   0.223   0.505   0.864 -0.4282 -0.6772  0.4950
  701SOL    HW1 2102   0.155   0.454   0.914 -2.4647  2.0690  0.7107
  701SOL    HW2 2103   0.182   0.550   0.779 -1.9204 -0.5318  1.5488
  702SOL     OW 2104   1.844   0.153   1.659  0.8263 -0.4783 -0.1175
  702SOL    HW1 2105   1.748   0.187   1.670  0.3923 -1.2334  3.3982
  702SOL    HW2 2106   1.843   0.057   1.629 -0.7616 -1.3236  1.2818
  703SOL     OW 2107   2.790   1.021   1.600 -0.1015  0.3972 -0.3698
  703SOL    HW1 2108   2.831   0.953   1.536 -1.0057  1.2191  1.2306
  703SOL    HW2 2109   2.700   1.055   1.563 -0.2092  1.0136 -2.3714
  704SOL     OW 2110   0.602   2.604   1.332 -0.2569 -1.2302  0.6834
  704SOL    HW1 2111   0.667   2.673   1.287 -1.1360 -1.4770 -2.9471
  704SOL    HW2 2112   0.550   2.549   1.265  2.2475 -3.7699  3.0709
  705SOL     OW 2113   0.330   1.546   2.341 -0.3193 -0.8448  0.3463
  705SOL    HW1 2114   0.382   1.554   2.252 -0.4683 -1.0371 -1.4548
  705SOL    HW2 2115   0.350   1.628   2.396  1.3134  0.9131  0.0806
  706SOL     OW 2116   2.958   0.300   0.016 -0.2200  0.1344 -0.2773
  706SOL    HW1 2117   2.980   0.223   0.077 -1.4130 -0.9097  2.3964
  706SOL    HW2 2118   2.984   0.277   3.030 -2.3316  2.1410  0.6218
  707SOL     OW 2119   1.439   2.615   2.439  0.3061 -0.0838  0.1538
  707SOL    HW1 2120   1.444   2.651   2.344  1.6942 -0.3352  0.3501
  707SOL    HW2 2121   1.489   2.533   2.452  1.0543  0.2563  0.1587
  708SOL     OW 2122   0.234   2.511   1.727  0.5785  0.3823  0.7414
  708SOL    HW1 2123   0.270   2.547   1.817 -3.0387 -1.5335  2.6370
  708SOL    HW2 2124   0.162   2.434   1.745 -2.0468 -0.1347  0.6879
  709SOL     OW 2125   0.116   0.834   1.979 -0.2501  0.5566 -0.1739
  709SOL    HW1 2126   0.085   0.900   1.907 -0.1120 -1.2729  0.3741
  709SOL    HW2 2127   0.145   0.749   1.939 -1.9359  1.7968  0.3363
  710SOL     OW 2128   3.063   0.769   1.201  0.5587 -0.9702  0.0900
  710SOL    HW1 2129   0.056   0.761   1.208  1.1007 -0.6500  1.2129
  710SOL    HW2 2130   3.024   0.798   1.291  1.7378  0.0724  0.1625
  711SOL     OW 2131   2.973   2.720   1.134 -0.2914  0.0125 -0.4137
  711SOL    HW1 2132   2.995   2.663   1.214  0.3159  0.9109  1.0469
  711SOL    HW2 2133   2.985   2.678   1.046  0.8240 -1.3087  2.0349
  712SOL     OW 2134   0.212   3.052   2.462 -0.5566  0.1188 -0.1925
  712SOL    HW1 2135   0.132   3.087   2.516  0.1118 -0.8727  1.4150
  712SOL    HW2 2136   0.227   2.951   2.474 -1.6142  0.9045 -0.8893
  713SOL     OW 2137   2.541   0.140   0.516 -0.0474  0.3216 -0.2437
  713SOL    HW1 2138   2.459   0.206   0.517  0.7803 -0.3436  1.5838
  713SOL    HW2 2139   2.614   0.179   0.456  0.4809 -0.9208  0.7437
  714SOL     OW 2140   1.708   1.650   0.101  1.0627 -0.2500  0.1118
  714SOL    HW1 2141   1.646   1.717   0.154 -2.1504  0.2946  2.3113
  714SOL    HW2 2142   1.724   1.568   0.147  2.2711  6.0478 -0.6727
  715SOL     OW 2143   0.059   0.164   0.605  0.1648 -0.3144 -0.1709
  715SOL    HW1 2144   0.047   0.072   0.556  0.2801 -0.8436  0.6431
  715SOL    HW2 2145   3.108   0.177   0.689  0.9906 -0.0233 -0.1006
  716SOL     OW 2146   1.114   0.546   1.908  0.4190  0.1352 -0.1846
  716SOL    HW1 2147   1.158   0.461   1.878 -1.5658  4.0721  0.9222
  716SOL    HW2 2148   1.094   0.540   2.012 -2.6683  2.8692  1.7785
  717SOL     OW 2149   0.666   0.510   2.913 -0.1776  0.0130  0.0258
  717SOL    HW1 2150   0.571   0.479   2.937  0.4642  0.6953 -0.3963
  717SOL    HW2 2151   0.674   0.607   2.940 -0.3427 -0.9324  1.8320
  718SOL     OW 2152   1.050   0.650   0.091 -0.2723  0.1656  0.0850
  718SOL    HW1 2153   1.066   0.748   0.110  0.8348  0.0846  3.0759
  718SOL    HW2 2154   1.131   0.592   0.108 -2.7860 -1.4991  1.0089
  719SOL     OW 2155   2.594   2.489   2.699  0.0516  0.5136  0.5901
  719SOL    HW1 2156   2.607   2.426   2.774  0.0645 -0.7930 -0.4372
  719SOL    HW2 2157   2.533   2.439   2.632 -0.5696 -1.5335  1.3919
  720SOL     OW 2158   1.488   0.775   1.351  0.4634  0.1554  0.2437
  720SOL    HW1 2159   1.434   0.798   1.432 -0.9663 -0.1157 -1.4949
  720SOL    HW2 2160   1.500   0.673   1.337  2.5752 -0.1384 -0.3289
  721SOL     OW 2161   2.878   2.962   1.038 -0.1265  0.9422  0.8888
  721SOL    HW1 2162   2.926   2.967   0.951 -0.4955 -0.3313  0.0673
  721SOL    HW2 2163   2.919   2.892   1.102  1.1473  2.4433 -0.7168
  722SOL     OW 2164   1.084   1.642   2.745  0.2660 -0.5463 -0.4077
  722SOL    HW1 2165   0.984   1.643   2.768  0.6786 -1.8989 -1.4979
  722SOL    HW2 2166   1.136   1.692   2.819 -0.2883  0.0652  2.2109
  723SOL     OW 2167   2.302   0.103   1.075  0.1847  0.0926 -0.3091
  723SOL    HW1 2168   2.291   0.014   1.121  1.3353 -0.7268  1.7082
  723SOL    HW2 2169   2.370   0.091   1.000 -0.0639 -0.8369 -2.3450
  724SOL     OW 2170   0.662   2.023   0.098 -0.1211  0.2861 -0.5998
  724SOL    HW1 2171   0.606   1.947   0.132 -2.5638  0.6604 -0.1455
  724SOL    HW2 2172   0.734   2.054   0.163 -2.0712  0.7371 -1.4290
  725SOL     OW 2173   0.269   1.023   1.074 -0.3687 -0.2664  0.1014
  725SOL    HW1 2174   0.188   1.087   1.093  0.5416 -2.1950  1.0743
  725SOL    HW2 2175   0.336   1.075   1.022 -1.8480  0.8281 -1.4635
  726SOL     OW 2176   2.548   0.626   0.285 -0.3354  0.6143 -0.0991
  726SOL    HW1 2177   2.515   0.689   0.352  1.5860 -2.0265  1.0824
  726SOL    HW2 2178   2.636   0.664   0.247  1.1994 -1.8118 -2.0292
  727SOL     OW 2179   1.847   1.102   2.682  0.2065  0.3148 -0.3729
  727SOL    HW1 2180   1.927   1.156   2.702 -0.5722  0.1357  1.6700
  727SOL    HW2 2181   1.860   1.002   2.711 -1.0796  0.1380  0.3113
  728SOL     OW 2182   1.692   3.039   1.522  0.6988  0.3887 -0.3328
  728SOL    HW1 2183   1.771   2.989   1.491 -0.2842  2.3461 -0.1466
  728SOL    HW2 2184   1.606   2.991   1.515 -0.8528  0.8073  0.3395
  729SOL     OW 2185   2.264   0.896   2.249 -0.1967  0.4263 -0.2134
  729SOL    HW1 2186   2.329   0.845   2.309  1.8994 -1.5314 -1.1222
  729SOL    HW2 2187   2.200   0.959   2.305  1.5438  0.1139  0.6209
  730SOL     OW 2188   1.085   0.800   1.462  0.1759 -0.3378  0.2276
  730SOL    HW1 2189   1.029   0.766   1.384 -2.6960  0.7856  1.6801
  730SOL    HW2 2190   1.108   0.899   1.436  1.6588  2.3898 -1.1231
  731SOL     OW 2191   0.511   0.583   0.114  0.3958  0.7843  0.4700
  731SOL    HW1 2192   0.592   0.633   0.150  0.0627  1.2380 -0.0119
  731SOL    HW2 2193   0.480   0.615   0.023  0.2743 -0.5008  0.9745
  732SOL     OW 2194   0.324   0.509   0.283  0.4536  0.4728 -0.1329
  732SOL    HW1 2195   0.390   0.553   0.222 -0.6156  1.7117 -0.4803
  732SOL    HW2 2196   0.369   0.455   0.358  1.1511 -0.6243  0.0352
  733SOL     OW 2197   1.958   1.463   2.643 -0.0551 -0.1903 -0.8004
  733SOL    HW1 2198   1.863   1.420   2.642 -2.3725 -0.1434 -0.3450
  733SOL    HW2 2199   1.977   1.500   2.737 -0.5750 -1.4687  0.9041
  734SOL     OW 2200   0.172   1.978   2.616 -0.4384  0.3694 -0.2634
  734SOL    HW1 2201   0.117   1.920   2.677 -0.2896 -1.8880 -2.6197
  734SOL    HW2 2202   0.193   2.070   2.654  0.5223 -0.4813  0.8815
  735SOL     OW 2203   1.952   0.413   1.219 -0.0306 -0.3055  0.2015
  735SOL    HW1 2204   2.041   0.377   1.182 -1.4829  2.7872 -0.8556
  735SOL    HW2 2205   1.948   0.415   1.321  0.4824  3.7642 -0.4057
  736SOL     OW 2206   1.801   1.781   2.995 -0.0690  0.6012  0.0105
  736SOL    HW1 2207   1.768   1.736   3.083  1.4740 -0.8580  1.0450
  736SOL    HW2 2208   1.788   1.878   2.989 -0.5097 -2.4688 -1.1540
  737SOL     OW 2209   3.081   0.353   0.416 -0.6949 -0.0240 -0.3243
  737SOL    HW1 2210   0.012   0.448   0.420 -3.4821  0.9115 -0.4102
  737SOL    HW2 2211   0.031   0.291   0.468 -1.7424  0.6604 -2.0551
  738SOL     OW 2212   0.508   2.184   1.819  0.0049 -0.3158 -0.1909
  738SOL    HW1 2213   0.472   2.239   1.742 -0.2908  0.2149 -1.8195
  738SOL    HW2 2214   0.564   2.109   1.778 -0.2559  1.9212 -3.0864
  739SOL     OW 2215   1.297   2.639   1.997 -0.3114 -0.1538  0.3658
  739SOL    HW1 2216   1.236   2.597   1.920 -3.4601 -1.4701 -0.6182
  739SOL    HW2 2217   1.291   2.595   2.090 -0.0331 -1.8667  1.3724
  740SOL     OW 2218   2.079   2.426   1.576 -0.2808 -0.2691 -0.3232
  740SOL    HW1 2219   2.018   2.349   1.603 -0.7320 -1.1366  0.8532
  740SOL    HW2 2220   2.123   2.467   1.660 -0.5331  1.6604  1.2812
  741SOL     OW 2221   2.295   0.481   0.278 -0.3171  0.3629  0.4300
  741SOL    HW1 2222   2.380   0.535   0.276 -1.1123 -0.1407  0.6871
  741SOL    HW2 2223   2.219   0.553   0.289 -1.2931  3.2915 -1.0354
  742SOL     OW 2224   1.132   2.204   0.052  0.0887  0.2586  0.0911
  742SOL    HW1 2225   1.158   2.104   0.060  3.1324 -1.3537  0.0733
  742SOL    HW2 2226   1.185   2.241   3.080 -0.8660  1.0265 -2.0091
  743SOL     OW 2227   2.477   1.000   2.094  0.3528 -0.1644  0.0447
  743SOL    HW1 2228   2.406   0.965   2.153  3.2602 -0.6249 -1.0257
  743SOL    HW2 2229   2.474   1.105   2.080  0.1338 -0.7458 -0.5446
  744SOL     OW 2230   2.792   0.340   0.670  0.0357  0.2142 -0.1667
  744SOL    HW1 2231   2.794   0.313   0.575 -0.3640 -0.8269  5.0531
  744SOL    HW2 2232   2.864   0.411   0.689  2.3449 -1.2869 -1.1453
  745SOL     OW 2233   2.502   1.125   1.744  0.0501 -0.3404  0.1435
  745SOL    HW1 2234   2.493   1.035   1.703  1.4993  3.0078  0.0988
  745SOL    HW2 2235   2.600   1.151   1.765 -0.5241 -2.0272 -0.2703
  746SOL     OW 2236   1.457   1.281   0.941 -0.0626  0.0198  0.4286
  746SOL    HW1 2237   1.416   1.375   0.950  0.5418  0.4723  0.5435
  746SOL    HW2 2238   1.387   1.210   0.920  1.2142 -1.6488 -0.1301
  747SOL     OW 2239   1.401   1.772   1.585 -0.1328 -0.0716  0.1539
  747SOL    HW1 2240   1.360   1.848   1.642  1.4026 -0.7732  1.9904
  747SOL    HW2 2241   1.404   1.681   1.639  0.2334 -1.4587  0.9077
  748SOL     OW 2242   0.215   2.895   2.831  0.2277 -0.0662  0.3280
  748SOL    HW1 2243   0.275   2.908   2.909 -1.7348 -0.5570 -1.9186
  748SOL    HW2 2244   0.187   2.793   2.814 -0.6360  0.3023 -0.0659
  749SOL     OW 2245   0.316   1.128   2.483  0.1428  0.2073 -0.1963
  749SOL    HW1 2246   0.412   1.124   2.444  1.1545  2.3718  0.3043
  749SOL    HW2 2247   0.290   1.224   2.505  2.2524 -1.4768 -0.9972
  750SOL     OW 2248   1.855   0.844   2.035 -0.0407 -0.2058  0.2341
  750SOL    HW1 2249   1.915   0.791   1.979 -1.2697  1.9049  1.1668
  750SOL    HW2 2250   1.761   0.860   1.994 -1.6170 -0.1075 -0.6811
  751SOL     OW 2251   2.637   0.350   0.271 -0.0364  0.2275  0.6544
  751SOL    HW1 2252   2.599   0.277   0.210  0.6945 -3.3786 -2.2826
  751SOL    HW2 2253   2.588   0.444   0.273 -1.0949  3.2407  1.8747
  752SOL     OW 2254   0.146   2.453   0.927  0.4525 -0.4514 -0.5876
  752SOL    HW1 2255   0.143   2.358   0.964 -1.3705  0.6685  0.4267
  752SOL    HW2 2256   0.202   2.520   0.979 -1.5270 -1.2485 -0.6806
  753SOL     OW 2257   0.861   2.508   1.043  0.3772 -0.4223 -0.5052
  753SOL    HW1 2258   0.917   2.426   1.021 -0.3276  0.7603  0.8787
  753SOL    HW2 2259   0.796   2.540   0.968  0.4722  0.0035  1.3357
  754SOL     OW 2260   0.009   2.943   1.733 -0.3697  0.4686  0.0424
  754SOL    HW1 2261   3.022   2.981   1.744  0.8094 -1.4955  3.5046
  754SOL    HW2 2262   0.009   2.862   1.669 -1.2422 -0.0264 -1.7796
  755SOL     OW 2263   2.366   0.326   0.514  0.3542  0.1390 -0.0510
  755SOL    HW1 2264   2.340   0.348   0.415 -0.7042 -0.5589 -1.5180
  755SOL    HW2 2265   2.338   0.404   0.573  2.4397 -0.9704 -1.4379
  756SOL     OW 2266   2.193   2.460   2.683  1.1322 -0.2370 -0.1107
  756SOL    HW1 2267   2.226   2.443   2.780  0.6060  1.5446  2.9117
  756SOL    HW2 2268   2.155   2.553   2.672 -2.2591  4.2994  2.1000
  757SOL     OW 2269   1.922   0.296   0.499  0.0220  0.4805  0.1175
  757SOL    HW1 2270   2.007   0.242   0.509 -2.0351 -0.5847  1.3228
  757SOL    HW2 2271   1.911   0.364   0.576 -1.5960 -1.4386  2.1392
  758SOL     OW 2272   2.397   0.420   1.334 -0.3343 -0.3254  0.0571
  758SOL    HW1 2273   2.496   0.410   1.305  1.3901  1.8271 -3.2878
  758SOL    HW2 2274   2.357   0.351   1.392  0.1169  4.4725 -3.3123
  759SOL     OW 2275   2.626   0.586   1.043 -0.3756  0.0227 -0.0158
  759SOL    HW1 2276   2.624   0.685   1.020 -0.3240  1.1107 -0.4910
  759SOL    HW2 2277   2.625   0.525   0.960 -0.7967  0.3701 -1.7864
  760SOL     OW 2278   2.242   1.250   1.156  0.4116 -0.1096 -0.1943
  760SOL    HW1 2279   2.204   1.316   1.223  1.0963 -3.2046 -1.7954
  760SOL    HW2 2280   2.344   1.245   1.169  2.0762  1.1619  0.8503
  761SOL     OW 2281   0.677   0.697   0.457 -0.5087 -0.2716 -0.0995
  761SOL    HW1 2282   0.694   0.640   0.373 -0.2727  0.8557 -1.0352
  761SOL    HW2 2283   0.578   0.697   0.479  1.8676 -3.1357 -2.9011
  762SOL     OW 2284   0.994   1.822   0.757  0.0446  0.2998  0.3802
  762SOL    HW1 2285   0.916   1.819   0.824 -0.0617  2.5299 -0.6353
  762SOL    HW2 2286   0.970   1.881   0.677  1.0261 -0.9178  1.2433
  763SOL     OW 2287   1.187   1.053   1.436  0.1951 -0.0564  0.2521
  763SOL    HW1 2288   1.196   1.066   1.334 -1.2886  0.5490  0.5314
  763SOL    HW2 2289   1.246   1.119   1.483  0.0244 -0.7547 -2.5930
  764SOL     OW 2290   0.284   1.707   2.738 -0.7700 -0.2090 -0.0690
  764SOL    HW1 2291   0.304   1.732   2.644 -2.8748 -3.3284  0.7952
  764SOL    HW2 2292   0.191   1.748   2.764 -2.0087  3.8666 -2.0944
  765SOL     OW 2293   0.587   2.751   1.596  0.0270 -0.3897  0.3394
  765SOL    HW1 2294   0.603   2.701   1.506  1.7552 -1.4779 -0.5278
  765SOL    HW2 2295   0.598   2.851   1.584 -1.2559  3.1450  3.1895
  766SOL     OW 2296   2.594   2.226   2.201 -0.0302 -0.0298 -0.3469
  766SOL    HW1 2297   2.503   2.273   2.193  0.1095  1.6973  0.7100
  766SOL    HW2 2298   2.657   2.278   2.264 -1.7596 -3.4342 -3.1865
  767SOL     OW 2299   1.447   1.041   2.350 -0.0990 -0.5718 -0.1217
  767SOL    HW1 2300   1.424   0.941   2.339  0.4563  0.3379 -1.6762
  767SOL    HW2 2301   1.361   1.095   2.373  0.4426  1.2344 -0.5048
  768SOL     OW 2302   1.563   1.848   0.272  0.0687  0.3254 -0.6840
  768SOL    HW1 2303   1.611   1.791   0.342 -1.2812 -0.6484  1.0419
  768SOL    HW2 2304   1.615   1.932   0.245 -1.5527 -0.2911 -0.5535
  769SOL     OW 2305   0.389   1.632   1.334 -0.1305  0.0190  0.2423
  769SOL    HW1 2306   0.332   1.588   1.401  0.8488  0.4921 -0.8021
  769SOL    HW2 2307   0.337   1.685   1.267  1.7864 -1.1169 -0.9707
  770SOL     OW 2308   1.496   0.853   2.986 -0.0783  0.2953 -0.4756
  770SOL    HW1 2309   1.462   0.946   2.972  0.3004 -0.2973 -1.2697
  770SOL    HW2 2310   1.529   0.808   2.903 -0.4636  1.9796 -0.1447
  771SOL     OW 2311   0.039   2.944   2.059 -0.2084 -0.2814  0.4258
  771SOL    HW1 2312   0.107   2.882   2.111  0.2989  0.4413  0.0900
  771SOL    HW2 2313   0.045   2.937   1.957 -1.7067  1.1391 -0.5276
  772SOL     OW 2314   2.156   1.941   1.690 -0.0022  0.9833 -0.3608
  772SOL    HW1 2315   2.200   1.962   1.779 -1.2708  0.5643  2.1755
  772SOL    HW2 2316   2.061   1.906   1.712  1.6115 -0.1577  0.9441
  773SOL     OW 2317   0.551   1.702   1.540  0.3071  0.4182  0.0115
  773SOL    HW1 2318   0.638   1.647   1.524 -0.9126 -0.0780  0.8703
  773SOL    HW2 2319   0.493   1.695   1.459 -1.9529  1.2759 -0.4213
  774SOL     OW 2320   1.249   0.705   2.899  0.5264 -0.8666  0.3098
  774SOL    HW1 2321   1.317   0.775   2.934 -0.4958  0.9058 -0.1117
  774SOL    HW2 2322   1.257   0.626   2.964 -1.9212 -0.5859  1.8702
  775SOL     OW 2323   1.844   2.871   2.962  0.2795 -0.0971 -0.6180
  775SOL    HW1 2324   1.808   2.967   2.959 -1.6402  0.5430  1.7338
  775SOL    HW2 2325   1.775   2.809   3.001  1.5947  1.3515 -0.0147
  776SOL     OW 2326   0.192   0.592   1.918  0.0382  0.2225  0.1121
  776SOL    HW1 2327   0.096   0.575   1.945 -1.5790  0.8031 -1.7121
  776SOL    HW2 2328   0.246   0.504   1.929 -1.4546 -2.1987 -0.7764
  777SOL     OW 2329   2.251   2.050   1.921  0.1145 -0.3130 -0.2625
  777SOL    HW1 2330   2.232   2.079   2.021 -0.3506 -0.0454  1.1701
  777SOL    HW2 2331   2.316   2.115   1.877 -1.5840 -1.2228  0.4360
  778SOL     OW 2332   1.918   1.044   2.221 -0.5080  0.1307 -0.1210
  778SOL    HW1 2333   1.842   1.032   2.282  0.8254 -1.2236 -0.3601
  778SOL    HW2 2334   1.913   0.981   2.140 -0.4820 -2.0235 -1.3799
  779SOL     OW 2335   2.534   1.190   0.195  0.2809 -0.2199  0.0712
  779SOL    HW1 2336   2.506   1.286   0.213 -0.0103 -2.4792 -2.2544
  779SOL    HW2 2337   2.476   1.155   0.117 -0.6715  0.8260  0.4801
  780SOL     OW 2338   2.858   0.404   2.722 -0.2043 -0.0755  0.6278
  780SOL    HW1 2339   2.797   0.388   2.797  2.0092  2.9397  0.0659
  780SOL    HW2 2340   2.868   0.314   2.678  0.8299 -0.1678  1.3503
  781SOL     OW 2341   0.181   2.072   1.657 -0.1171 -0.2651  0.3559
  781SOL    HW1 2342   0.225   2.110   1.573 -0.6608  1.2668 -1.2417
  781SOL    HW2 2343   0.165   1.972   1.646  0.8045 -0.2998 -1.8136
  782SOL     OW 2344   2.277   2.404   2.918  0.3065 -0.3673  0.2601
  782SOL    HW1 2345   2.238   2.428   3.004  3.0714 -1.9580 -2.8244
  782SOL    HW2 2346   2.378   2.384   2.922  1.6839  0.7477  1.2054
  783SOL     OW 2347   0.508   1.392   1.251 -0.6735 -0.4517 -0.4163
  783SOL    HW1 2348   0.609   1.378   1.232  0.5818 -1.8172 -0.6423
  783SOL    HW2 2349   0.489   1.490   1.244  2.5722 -2.3926 -1.7398
  784SOL     OW 2350   2.054   0.795   2.911 -0.1100  0.2492  0.6029
  784SOL    HW1 2351   2.085   0.703   2.882 -2.2896  2.0441 -1.7214
  784SOL    HW2 2352   2.003   0.798   3.001 -0.1660  2.1779 -2.6561
  785SOL     OW 2353   2.425   2.605   0.851  0.1360 -0.2377  0.9654
  785SOL    HW1 2354   2.468   2.531   0.796 -1.3495 -1.4807  0.9577
  785SOL    HW2 2355   2.330   2.577   0.870  0.4437 -0.5237  1.4202
  786SOL     OW 2356   0.626   2.238   2.231  0.0029 -0.0757 -0.0008
  786SOL    HW1 2357   0.564   2.186   2.297 -1.2637  1.7688 -1.6443
  786SOL    HW2 2358   0.717   2.191   2.215  0.0991 -2.6500  0.7817
  787SOL     OW 2359   1.356   0.910   1.114 -0.4708  0.0688 -0.1108
  787SOL    HW1 2360   1.383   0.857   1.197 -1.5033  0.3099  3.5137
  787SOL    HW2 2361   1.426   0.896   1.043 -3.2025 -2.1710  1.3531
  788SOL     OW 2362   0.113   0.613   0.386  0.3078  0.0330  0.8426
  788SOL    HW1 2363   0.196   0.565   0.345 -1.1274 -1.5103  0.0969
  788SOL    HW2 2364   0.092   0.692   0.324 -0.3260 -2.5402  1.7719
  789SOL     OW 2365   3.030   1.973   1.384 -0.2198  0.4120 -0.3223
  789SOL    HW1 2366   3.006   2.004   1.477 -0.9303 -0.7725 -1.1957
  789SOL    HW2 2367   3.097   2.035   1.341  0.9969 -0.8905  0.2588
  790SOL     OW 2368   1.308   0.737   1.855 -0.0497  0.4860 -0.1342
  790SOL    HW1 2369   1.228   0.677   1.876 -0.4214  0.2670  0.2145
  790SOL    HW2 2370   1.310   0.823   1.907 -2.2289  0.6013 -0.3123
  791SOL     OW 2371   1.372   0.608   0.448  0.2744  0.1310  0.5141
  791SOL    HW1 2372   1.345   0.559   0.364 -0.1663 -0.9167 -1.5939
  791SOL    HW2 2373   1.423   0.549   0.516  1.0067 -0.3443  0.7576
  792SOL     OW 2374   1.600   2.829   1.889 -0.2463  0.8572 -0.0114
  792SOL    HW1 2375   1.511   2.881   1.884 -3.6807  1.6203 -1.1186
  792SOL    HW2 2376   1.603   2.768   1.808 -0.6789 -3.7075 -0.2072
  793SOL     OW 2377   0.737   0.044   0.616 -0.4123  0.2663  0.3415
  793SOL    HW1 2378   0.793   0.104   0.552  0.2204  0.1214 -0.5126
  793SOL    HW2 2379   0.634   0.061   0.615 -0.2774 -0.4987  0.2188
  794SOL     OW 2380   0.892   1.123   2.153 -0.2767  0.1274  0.0265
  794SOL    HW1 2381   0.797   1.149   2.169 -3.2710  0.0528 -0.8515
  794SOL    HW2 2382   0.929   1.173   2.074  3.4501 -0.3614  0.9855
  795SOL     OW 2383   0.316   2.002   2.260 -0.5280 -0.1260  0.2149
  795SOL    HW1 2384   0.373   1.992   2.176  0.3323 -1.5644  0.3898
  795SOL    HW2 2385   0.220   1.988   2.238 -0.2257 -0.1579 -0.3382
  796SOL     OW 2386   2.509   1.294   2.092 -0.0858  0.0019  0.3655
  796SOL    HW1 2387   2.563   1.280   2.172 -0.9658 -0.6422 -2.2935
  796SOL    HW2 2388   2.509   1.392   2.071 -0.0099 -1.0476 -0.7587
  797SOL     OW 2389   2.908   2.643   2.885 -0.0189 -0.4387  0.4601
  797SOL    HW1 2390   2.999   2.627   2.924  1.0674 -1.5394  1.9509
  797SOL    HW2 2391   2.912   2.668   2.787  2.7604 -3.3611  0.1845
  798SOL     OW 2392   3.017   2.310   2.176 -0.0800 -0.3499  0.1675
  798SOL    HW1 2393   3.096   2.341   2.119  0.8127 -2.9672  1.6210
  798SOL    HW2 2394   3.040   2.223   2.232 -1.2251  0.7322  2.8589
  799SOL     OW 2395   0.181   2.158   2.992 -0.0545 -0.0213 -0.0398
  799SOL    HW1 2396   0.113   2.077   2.998  0.4274 -2.9409  0.9995
  799SOL    HW2 2397   0.269   2.133   3.034  1.4680 -1.6479 -1.7458
  800SOL     OW 2398   1.341   1.701   0.190 -0.3973  0.5115  0.0450
  800SOL    HW1 2399   1.307   1.631   0.254  1.7646 -0.4673 -1.6143
  800SOL    HW2 2400   1.420   1.754   0.230 -3.4493 -1.0353 -1.0392
  801SOL     OW 2401   1.925   1.369   1.414 -0.3616  0.4378  0.6722
  801SOL    HW1 2402   1.909   1.344   1.513 -0.7861 -2.2256 -0.3129
  801SOL    HW2 2403   2.027   1.385   1.398  0.6038  2.8102 -1.9811
  802SOL     OW 2404   3.059   1.335   0.269  0.1091  0.1401  0.6652
  802SOL    HW1 2405   3.073   1.294   0.360  1.1199  1.9416 -2.0047
  802SOL    HW2 2406   2.978   1.287   0.225 -0.0062 -0.7133 -2.8066
  803SOL     OW 2407   1.626   1.826   2.574 -0.3052 -0.1879  1.0700
  803SOL    HW1 2408   1.669   1.867   2.492  0.1749 -0.0786 -0.0772
  803SOL    HW2 2409   1.530   1.806   2.553  0.9274  0.0130  0.8649
  804SOL     OW 2410   1.811   1.426   0.269 -0.2583 -0.0944  0.1959
  804SOL    HW1 2411   1.767   1.450   0.354 -1.5075 -3.6836 -4.5584
  804SOL    HW2 2412   1.913   1.412   0.287  2.7709 -1.9100  0.4514
  805SOL     OW 2413   2.546   1.710   2.492 -0.1648 -0.3504  0.1750
  805SOL    HW1 2414   2.525   1.748   2.398  1.9517 -0.6973 -1.3629
  805SOL    HW2 2415   2.588   1.780   2.549 -0.8057 -1.4502 -2.6648
  806SOL     OW 2416   0.401   3.059   0.230 -0.0762  0.6126 -0.4176
  806SOL    HW1 2417   0.443   0.033   0.269 -1.7780 -0.1682 -0.4789
  806SOL    HW2 2418   0.462   2.983   0.200  0.9892 -1.4101 -0.2497
  807SOL     OW 2419   1.917   1.372   2.961  0.3397 -0.2204  0.6402
  807SOL    HW1 2420   1.946   1.469   2.937 -1.3852  0.0614  0.5610
  807SOL    HW2 2421   1.835   1.376   3.024  0.3927 -1.1717  0.9984
  808SOL     OW 2422   3.062   1.568   0.455 -0.2603  0.3235 -0.3960
  808SOL    HW1 2423   3.026   1.515   0.375  0.7367  1.5512  1.4103
  808SOL    HW2 2424   3.020   1.659   0.468 -0.9915 -1.2753 -0.0627
  809SOL     OW 2425   2.374   1.124   3.050 -0.1112 -0.2009  0.6454
  809SOL    HW1 2426   2.343   1.041   3.098 -2.4407 -0.7762  1.1340
  809SOL    HW2 2427   2.294   1.187   3.020 -1.5955  1.3971  0.2918
  810SOL     OW 2428   0.463   1.297   0.160  0.3428 -0.1113  0.3670
  810SOL    HW1 2429   0.530   1.282   0.089 -0.3419  1.4788  1.4802
  810SOL    HW2 2430   0.371   1.258   0.139 -0.5895  2.1582 -1.0168
  811SOL     OW 2431   1.354   2.519   1.467 -0.0421 -0.3746  0.3258
  811SOL    HW1 2432   1.400   2.550   1.379  1.3600 -0.6888 -2.9169
  811SOL    HW2 2433   1.395   2.569   1.548  1.9215 -1.4034  0.5313
  812SOL     OW 2434   0.771   2.664   1.778  0.2909  0.3995  0.1501
  812SOL    HW1 2435   0.690   2.689   1.723  1.8695 -0.9249  0.6142
  812SOL    HW2 2436   0.860   2.700   1.743 -0.2940 -0.8759  0.2816
  813SOL     OW 2437   1.375   0.233   2.107  0.5722 -0.0258  0.5295
  813SOL    HW1 2438   1.472   0.201   2.120  0.9530  0.2026  0.5095
  813SOL    HW2 2439   1.302   0.175   2.153 -1.8182  1.0952 -0.7288
  814SOL     OW 2440   1.314   2.305   2.626  0.1604 -0.4258  0.4118
  814SOL    HW1 2441   1.397   2.344   2.581 -1.0794 -3.3785 -1.3006
  814SOL    HW2 2442   1.334   2.246   2.709 -1.7053  0.5426  0.4655
  815SOL     OW 2443   0.406   0.219   2.062  0.1300  0.3800  0.2086
  815SOL    HW1 2444   0.489   0.280   2.066 -0.7818 -1.8924  0.1115
  815SOL    HW2 2445   0.347   0.234   1.982 -0.2701  1.9513  1.2649
  816SOL     OW 2446   2.052   0.396   3.061 -0.3433  0.1482  0.4922
  816SOL    HW1 2447   2.103   0.485   3.079  1.5092  3.5717  2.6988
  816SOL    HW2 2448   1.953   0.403   3.068  0.3520 -0.6489  0.4529
  817SOL     OW 2449   2.364   0.301   2.435  0.5619  0.1713  0.1245
  817SOL    HW1 2450   2.387   0.329   2.528  0.1140 -2.4308 -1.5941
  817SOL    HW2 2451   2.291   0.365   2.395 -1.2271 -0.8455  1.0756
  818SOL     OW 2452   1.771   0.264   0.163  0.0868  0.1588  0.1525
  818SOL    HW1 2453   1.743   0.336   0.231 -1.8075  0.5264  0.6589
  818SOL    HW2 2454   1.785   0.307   0.070  0.4392  0.7091  0.1425
  819SOL     OW 2455   2.139   1.797   2.719  0.1241  0.1593  0.2722
  819SOL    HW1 2456   2.104   1.838   2.632 -0.2286 -0.7623 -1.5879
  819SOL    HW2 2457   2.229   1.841   2.745 -2.1898  0.4562 -1.0167
  820SOL     OW 2458   3.099   1.830   0.185  0.0674  0.1230  0.0126
  820SOL    HW1 2459   3.041   1.908   0.152 -1.8467  2.0539 -1.7406
  820SOL    HW2 2460   0.082   1.861   0.223  5.4038  0.8363  0.5488
  821SOL     OW 2461   0.338   2.824   0.717  0.3889 -0.0567 -0.1182
  821SOL    HW1 2462   0.428   2.825   0.763 -1.8227  0.9456 -1.2329
  821SOL    HW2 2463   0.333   2.899   0.648 -0.1094  4.1957 -2.5629
  822SOL     OW 2464   2.706   2.806   2.926 -0.4931 -0.3241 -0.0755
  822SOL    HW1 2465   2.614   2.764   2.910 -0.9862  0.8554 -0.3143
  822SOL    HW2 2466   2.775   2.728   2.937  1.6607 -0.8326 -0.3736
  823SOL     OW 2467   1.313   0.260   2.625  0.1953 -0.3901 -0.5782
  823SOL    HW1 2468   1.304   0.165   2.594 -0.4650  2.7132 -0.7797
  823SOL    HW2 2469   1.349   0.268   2.718 -1.3430  0.1380  2.6350
  824SOL     OW 2470   2.605   2.049   1.985  0.1561 -0.2060  0.5152
  824SOL    HW1 2471   2.686   1.994   2.007 -0.1522 -1.6878  0.8387
  824SOL    HW2 2472   2.582   2.109   2.063 -0.4673 -0.6279 -0.2583
  825SOL     OW 2473   2.808   2.133   2.584  0.5186  0.4521  0.4544
  825SOL    HW1 2474   2.891   2.154   2.633 -5.9752  1.2007 -1.5428
  825SOL    HW2 2475   2.791   2.200   2.507 -0.5165  1.1498  2.3524
  826SOL     OW 2476   2.255   1.547   2.230  0.1167  0.1154 -0.2060
  826SOL    HW1 2477   2.250   1.458   2.283 -1.1511  1.6257  2.7919
  826SOL    HW2 2478   2.338   1.563   2.175  2.0174 -1.4495 -2.1251
  827SOL     OW 2479   2.264   2.401   1.387 -0.1879 -0.1726 -0.0261
  827SOL    HW1 2480   2.190   2.413   1.460 -0.2049 -1.6867  3.7761
  827SOL    HW2 2481   2.265   2.317   1.339 -0.0533 -0.5342 -0.6250
  828SOL     OW 2482   0.036   0.054   1.354  0.2722  0.4980 -0.3276
  828SOL    HW1 2483   3.099   0.148   1.350  2.3949  1.9218  2.6192
  828SOL    HW2 2484   0.111   0.060   1.424 -0.5411 -2.1116  0.0924
  829SOL     OW 2485   1.696   2.285   2.132  0.0381 -0.0909 -0.0853
  829SOL    HW1 2486   1.605   2.256   2.175 -0.2634 -3.4469 -3.0310
  829SOL    HW2 2487   1.693   2.372   2.078  0.8493 -2.4482 -2.0235
  830SOL     OW 2488   1.092   0.615   0.531 -0.0990  0.0537  0.5620
  830SOL    HW1 2489   1.186   0.619   0.498 -1.8047 -1.3865 -1.5685
  830SOL    HW2 2490   1.047   0.704   0.505  2.6101 -1.7833 -0.9461
  831SOL     OW 2491   2.675   1.376   2.771  0.1670  0.5222 -0.8552
  831SOL    HW1 2492   2.775   1.358   2.796  0.4648 -0.5831 -0.6497
  831SOL    HW2 2493   2.669   1.412   2.675  0.4510  0.7926  0.1059
  832SOL     OW 2494   1.545   2.069   1.868 -0.3402 -0.0374  0.0425
  832SOL    HW1 2495   1.511   2.164   1.880 -1.3806 -1.7711  0.1767
  832SOL    HW2 2496   1.640   2.076   1.837  2.0279  2.1720  0.3142
  833SOL     OW 2497   0.152   0.132   1.904 -0.6794 -0.2993 -0.1234
  833SOL    HW1 2498   0.123   0.095   1.993  1.7125  1.5050  0.5352
  833SOL    HW2 2499   0.146   0.062   1.830 -0.0649 -2.4110 -1.9056
  834SOL     OW 2500   0.811   1.071   1.558 -0.0855 -0.0612 -0.2988
  834SOL    HW1 2501   0.797   1.052   1.455  0.4727 -1.2770 -1.1188
  834SOL    HW2 2502   0.864   0.996   1.603 -0.2720  4.0808  1.3597
  835SOL     OW 2503   2.794   1.042   2.935 -0.0196 -0.4823  0.0364
  835SOL    HW1 2504   2.708   1.083   2.900 -0.8036 -0.6534  0.1538
  835SOL    HW2 2505   2.805   0.948   2.895 -1.2220  1.0884  1.2386
  836SOL     OW 2506   1.382   1.547   0.493 -0.5774 -0.6227 -0.7692
  836SOL    HW1 2507   1.295   1.573   0.450  1.4772 -2.1159  1.8677
  836SOL    HW2 2508   1.413   1.616   0.561 -1.3318 -1.1937 -0.9174
  837SOL     OW 2509   1.685   1.609   0.998  0.0128 -0.4048 -0.3083
  837SOL    HW1 2510   1.695   1.556   1.084  1.6498 -3.1241  2.0561
  837SOL    HW2 2511   1.588   1.614   0.974 -3.8209  0.6926  0.1725
  838SOL     OW 2512   1.141   1.714   2.228 -0.3747  0.3176 -0.2898
  838SOL    HW1 2513   1.188   1.651   2.289  0.4313  2.8807 -1.6786
  838SOL    HW2 2514   1.080   1.777   2.284 -3.2958  0.3509  0.3423
  839SOL     OW 2515   0.681   2.097   2.606  0.1518  0.1579 -0.0357
  839SOL    HW1 2516   0.661   2.165   2.674 -1.5727 -2.5640 -0.7946
  839SOL    HW2 2517   0.603   2.082   2.542  0.8880 -0.4930 -1.8709
  840SOL     OW 2518   0.657   2.282   0.401  0.0003 -0.3347  0.4192
  840SOL    HW1 2519   0.713   2.370   0.419  1.1272  1.8244  0.2381
  840SOL    HW2 2520   0.695   2.217   0.463 -1.2485  1.0411 -0.2181
  841SOL     OW 2521   1.906   2.546   0.133  0.3333 -0.5259  0.0572
  841SOL    HW1 2522   1.948   2.459   0.149 -0.6033  1.7867 -2.4263
  841SOL    HW2 2523   1.971   2.624   0.151  0.7041  1.0305 -0.3842
  842SOL     OW 2524   0.681   0.781   2.956 -0.3653  0.1630 -0.1405
  842SOL    HW1 2525   0.683   0.836   2.867  0.6515 -0.6958 -0.3769
  842SOL    HW2 2526   0.774   0.785   3.002 -1.8255 -1.1631 -1.8350
  843SOL     OW 2527   1.377   0.227   0.691 -0.7782 -0.3609  0.2596
  843SOL    HW1 2528   1.351   0.169   0.769  0.2990  0.2176 -2.1376
  843SOL    HW2 2529   1.309   0.219   0.617 -1.8563  0.3542  1.8773
  844SOL     OW 2530   2.896   3.009   2.729  0.5660 -0.0278  0.0079
  844SOL    HW1 2531   2.919   2.917   2.689  0.6214 -1.2520 -0.6990
  844SOL    HW2 2532   2.928   3.018   2.827 -0.6956 -0.1387 -0.1714
  845SOL     OW 2533   2.759   2.343   0.964 -0.3523 -0.0319 -0.3581
  845SOL    HW1 2534   2.778   2.421   0.898 -1.4653 -2.1849 -2.4338
  845SOL    HW2 2535   2.749   2.384   1.060 -3.2543  0.5626  1.8919
  846SOL     OW 2536   3.076   1.856   2.477  0.1231 -0.5169 -0.4802
  846SOL    HW1 2537   3.031   1.771   2.516 -0.2241 -1.7185  0.5665
  846SOL    HW2 2538   0.050   1.880   2.530 -2.2393  1.0113 -0.4710
  847SOL     OW 2539   1.302   0.684   1.583 -0.2968  0.0472 -0.2929
  847SOL    HW1 2540   1.223   0.713   1.530  2.1548 -0.6245  1.6552
  847SOL    HW2 2541   1.299   0.723   1.678  0.9600  1.4719 -2.3805
  848SOL     OW 2542   2.600   3.043   3.003 -0.7352 -0.1657 -0.4239
  848SOL    HW1 2543   2.602   3.041   3.102 -0.4425 -0.5020 -1.3031
  848SOL    HW2 2544   2.671   2.977   2.964  1.5526 -0.4251 -0.3915
  849SOL     OW 2545   0.525   2.756   2.789 -0.2488 -0.2007 -0.6186
  849SOL    HW1 2546   0.470   2.788   2.867 -0.3008 -0.5217 -0.5674
  849SOL    HW2 2547   0.605   2.819   2.790 -0.1872  0.7365 -0.2424
  850SOL     OW 2548   1.189   2.622   1.064  0.2086 -0.5788 -0.2925
  850SOL    HW1 2549   1.123   2.612   1.145 -2.3003 -0.4203  3.3650
  850SOL    HW2 2550   1.249   2.704   1.063 -0.0848  0.1811  0.9088
  851SOL     OW 2551   2.794   0.421   2.207 -0.9621  0.4238 -0.3347
  851SOL    HW1 2552   2.846   0.395   2.291 -0.5674 -0.4642  0.0666
  851SOL    HW2 2553   2.835   0.375   2.124  0.4974 -0.4134 -1.2806
  852SOL     OW 2554   2.112   1.085   2.395  0.0448 -0.2386 -0.8398
  852SOL    HW1 2555   2.038   1.062   2.333  0.7933 -0.2062  1.9761
  852SOL    HW2 2556   2.084   1.052   2.486  0.2145 -0.6133 -1.8407
  853SOL     OW 2557   2.893   3.100   0.407  0.2723  0.4616 -0.1492
  853SOL    HW1 2558   2.857   0.089   0.418 -1.2715  2.5961  0.8127
  853SOL    HW2 2559   2.879   3.048   0.496 -0.6834 -0.8180  2.9614
  854SOL     OW 2560   2.168   0.992   1.873 -0.0980  0.0013  0.2508
  854SOL    HW1 2561   2.210   0.958   1.957 -0.6074  3.3524 -2.5241
  854SOL    HW2 2562   2.191   1.089   1.857 -0.9680  0.7675 -1.5178
  855SOL     OW 2563   1.363   2.338   0.270 -0.4962 -0.2989 -0.2534
  855SOL    HW1 2564   1.318   2.319   0.182 -0.9141  2.0591  2.2295
  855SOL    HW2 2565   1.322   2.418   0.318 -1.2476  1.0558  2.9989
  856SOL     OW 2566   0.069   0.259   2.582  0.3073 -0.2986  0.6044
  856SOL    HW1 2567   0.067   0.174   2.632 -0.1751  2.2059 -0.9649
  856SOL    HW2 2568   0.039   0.340   2.640  0.2988  2.3264  1.0923
  857SOL     OW 2569   1.257   3.086   1.760  0.5031  0.0282  0.3061
  857SOL    HW1 2570   1.186   0.052   1.765 -0.2902  0.3244  3.9665
  857SOL    HW2 2571   1.236   3.014   1.831  1.5904 -0.9173 -4.3368
  858SOL     OW 2572   2.370   2.075   1.573 -0.8818  0.6792  0.0278
  858SOL    HW1 2573   2.364   2.142   1.498  0.0467 -2.4359 -2.9265
  858SOL    HW2 2574   2.280   2.051   1.607  2.7583  2.0175 -0.5048
  859SOL     OW 2575   1.021   2.604   1.264  0.2620 -0.1673  0.4397
  859SOL    HW1 2576   0.963   2.566   1.188  1.5534 -0.8680  0.4013
  859SOL    HW2 2577   1.032   2.543   1.345  2.1969 -0.1548 -0.0749
  860SOL     OW 2578   2.413   2.719   0.056 -0.4680  0.2318 -0.9775
  860SOL    HW1 2579   2.447   2.693   3.072 -0.2558 -1.2744 -1.8140
  860SOL    HW2 2580   2.342   2.652   0.082  0.8353  0.2566 -1.3777
  861SOL     OW 2581   2.214   2.936   1.011  0.0175  0.1768  0.6444
  861SOL    HW1 2582   2.127   2.987   0.991 -0.0873  0.4905  1.2777
  861SOL    HW2 2583   2.212   2.880   1.098 -1.3207  1.1538  1.7060
  862SOL     OW 2584   1.817   2.943   2.323  0.3418 -0.1689  0.0025
  862SOL    HW1 2585   1.853   2.931   2.414 -1.5297  2.9176 -1.0299
  862SOL    HW2 2586   1.867   3.015   2.267 -0.5685  0.7057 -1.0485
  863SOL     OW 2587   0.113   0.648   0.664 -0.4101  0.0777 -0.4250
  863SOL    HW1 2588   0.096   0.749   0.678 -0.1388 -1.1153  0.8356
  863SOL    HW2 2589   0.137   0.629   0.563  0.6365 -0.1089 -0.9191
  864SOL     OW 2590   0.181   2.755   2.206  0.1189  0.0900  0.4780
  864SOL    HW1 2591   0.279   2.749   2.176  0.5221 -0.1685 -2.0166
  864SOL    HW2 2592   0.168   2.770   2.306 -0.3731 -0.7373  0.7279
  865SOL     OW 2593   0.605   1.343   2.784 -0.0735 -0.4014 -0.3759
  865SOL    HW1 2594   0.527   1.409   2.794 -2.0569  0.6053 -0.0815
  865SOL    HW2 2595   0.575   1.248   2.794  0.0417  1.0560  0.5681
  866SOL     OW 2596   2.834   0.802   2.798 -0.2763  0.3107  0.1075
  866SOL    HW1 2597   2.890   0.836   2.721 -0.1992  4.1170  0.1732
  866SOL    HW2 2598   2.889   0.728   2.844 -0.5813 -0.8569  2.1677
  867SOL     OW 2599   0.042   3.078   2.662  0.7822  0.0249 -0.4649
  867SOL    HW1 2600   0.096   3.028   2.733  1.2598  0.6048  0.9372
  867SOL    HW2 2601   3.047   3.066   2.669 -0.1153 -2.0950 -2.4975
  868SOL     OW 2602   1.314   3.004   0.591  0.5471 -0.0488  0.2487
  868SOL    HW1 2603   1.408   3.030   0.619  1.9792  1.7222 -0.9202
  868SOL    HW2 2604   1.300   3.018   0.489  0.4689 -0.6371 -1.5225
  869SOL     OW 2605   1.411   1.574   0.907 -0.3399 -0.0988 -0.6815
  869SOL    HW1 2606   1.411   1.610   0.814 -0.7080 -3.6747  1.5581
  869SOL    HW2 2607   1.375   1.641   0.973 -0.4612 -0.2659  1.2472
  870SOL     OW 2608   2.073   2.006   1.162  0.1350  0.1191 -0.1900
  870SOL    HW1 2609   2.133   1.980   1.085 -0.1928  0.4154 -0.2053
  870SOL    HW2 2610   1.986   1.946   1.155 -1.9481 -4.4387 -2.4000
  871SOL     OW 2611   0.879   1.657   1.645 -0.3223 -0.3028 -0.1917
  871SOL    HW1 2612   0.930   1.726   1.595  0.0618 -2.5466 -2.0091
  871SOL    HW2 2613   0.832   1.596   1.579  0.5053  1.2764 -0.7892
  872SOL     OW 2614   0.990   1.514   1.309  0.3476 -0.1305  0.0758
  872SOL    HW1 2615   1.085   1.533   1.283 -0.1405  1.6452  1.9292
  872SOL    HW2 2616   0.957   1.427   1.274  0.6254  0.7392  0.6017
  873SOL     OW 2617   1.244   1.063   2.720  0.6448  0.0828 -0.1833
  873SOL    HW1 2618   1.295   1.116   2.647  0.0636 -0.0876 -0.2556
  873SOL    HW2 2619   1.289   1.079   2.811  0.9602  0.5528  2.8566
  874SOL     OW 2620   2.976   1.533   1.279 -0.0775  0.1550 -0.2217
  874SOL    HW1 2621   2.905   1.563   1.220  0.4468 -2.6520  0.1732
  874SOL    HW2 2622   3.041   1.605   1.313  0.2589 -0.6088  0.6697
  875SOL     OW 2623   2.804   2.968   0.634  0.1234 -0.0188 -0.1611
  875SOL    HW1 2624   2.728   3.011   0.682 -0.8575  0.0174  0.1949
  875SOL    HW2 2625   2.798   2.870   0.608  1.3154  1.4095 -1.2674
  876SOL     OW 2626   0.942   0.752   2.964 -0.1484 -0.0263 -0.1986
  876SOL    HW1 2627   0.958   0.702   2.877 -2.2468  0.1154  0.2901
  876SOL    HW2 2628   1.002   0.716   3.041  0.8355 -0.9102  0.6901
  877SOL     OW 2629   0.014   0.410   1.005  0.5339 -0.0861  0.7258
  877SOL    HW1 2630   3.043   0.463   1.045 -0.8839  1.5498 -0.8814
  877SOL    HW2 2631   0.049   0.338   1.071  2.2272  0.3527  1.9599
  878SOL     OW 2632   1.653   2.471   0.035  0.4186  0.1028  0.6083
  878SOL    HW1 2633   1.747   2.502   0.059 -3.7686  0.1613 -1.4506
  878SOL    HW2 2634   1.611   2.428   0.115 -2.1362  1.4774 -0.9048
  879SOL     OW 2635   2.247   1.732   1.538  0.0917  0.7412 -0.6296
  879SOL    HW1 2636   2.342   1.750   1.576  1.3945 -0.4374  0.1532
  879SOL    HW2 2637   2.184   1.797   1.583  1.4066 -0.7077  0.7848
  880SOL     OW 2638   0.752   0.536   1.602  0.3842 -0.1007 -0.4345
  880SOL    HW1 2639   0.843   0.513   1.640  0.7435 -0.6585 -1.4822
  880SOL    HW2 2640   0.701   0.581   1.674  1.0341 -2.6531  1.8004
  881SOL     OW 2641   0.936   1.866   3.090 -0.0879 -0.7952  0.2627
  881SOL    HW1 2642   0.929   1.780   3.033 -0.5693 -2.0206 -2.7585
  881SOL    HW2 2643   0.852   1.924   3.078 -2.6255 -2.5300 -1.4692
  882SOL     OW 2644   2.117   0.654   1.517 -0.4542  0.3509 -0.1235
  882SOL    HW1 2645   2.165   0.718   1.575  0.4882  2.7112 -2.1781
  882SOL    HW2 2646   2.170   0.642   1.426 -0.9850 -1.2991  0.3397
  883SOL     OW 2647   1.435   0.422   2.299 -0.3223 -0.0177  0.1919
  883SOL    HW1 2648   1.532   0.424   2.318 -2.8544 -1.2988  1.8079
  883SOL    HW2 2649   1.415   0.349   2.228  0.8342 -0.3210  1.5643
  884SOL     OW 2650   2.494   0.142   0.153 -0.3296 -0.1886  0.2229
  884SOL    HW1 2651   2.397   0.172   0.143 -3.4876 -2.3233 -1.1965
  884SOL    HW2 2652   2.506   0.040   0.163 -1.5655 -0.6365  1.0692
  885SOL     OW 2653   0.397   2.069   0.568 -0.3212 -0.1787 -0.5152
  885SOL    HW1 2654   0.352   2.103   0.484  0.5969 -1.5133 -2.0293
  885SOL    HW2 2655   0.330   2.008   0.613 -2.6883  0.9869 -0.2331
  886SOL     OW 2656   1.729   1.272   0.067 -0.0568  0.3301 -0.1202
  886SOL    HW1 2657   1.671   1.204   0.119  2.2347  0.5843 -1.4247
  886SOL    HW2 2658   1.771   1.334   0.137 -0.7425  0.9518  1.4423
  887SOL     OW 2659   1.469   0.497   1.746  0.3408 -0.5579 -0.1070
  887SOL    HW1 2660   1.562   0.536   1.766 -1.7662  2.6954 -0.0896
  887SOL    HW2 2661   1.421   0.557   1.678 -0.8690 -0.4411 -1.1176
  888SOL     OW 2662   2.997   1.212   1.631  0.5671  0.1200  0.5950
  888SOL    HW1 2663   2.981   1.256   1.716 -0.0059 -0.6362 -1.9176
  888SOL    HW2 2664   2.927   1.135   1.609 -3.7126 -3.3941  1.3971
  889SOL     OW 2665   3.051   2.636   0.882  0.0806  0.5040 -0.3532
  889SOL    HW1 2666   3.104   2.700   0.823  3.2868  1.0602  0.1516
  889SOL    HW2 2667   0.002   2.555   0.905  0.8243 -1.8578 -0.3201
  890SOL     OW 2668   0.293   2.410   2.569  0.3172  0.4858  0.5149
  890SOL    HW1 2669   0.387   2.443   2.550 -0.6122  1.7060  1.2787
  890SOL    HW2 2670   0.222   2.483   2.567  0.7086  1.0813  0.5318
  891SOL     OW 2671   0.517   1.785   0.206  0.5437 -0.3353  0.3141
  891SOL    HW1 2672   0.593   1.816   0.266  0.7995 -1.6315 -0.8744
  891SOL    HW2 2673   0.475   1.699   0.238 -1.4513  4.2923  3.8892
  892SOL     OW 2674   2.960   2.319   1.374  0.3748  0.7301 -0.0759
  892SOL    HW1 2675   2.924   2.364   1.462 -0.0503  3.0598  1.9115
  892SOL    HW2 2676   2.885   2.263   1.333  0.7588 -1.7857  2.2273
  893SOL     OW 2677   0.282   2.859   1.411  0.2852 -0.3626 -0.1676
  893SOL    HW1 2678   0.316   2.893   1.501  0.0163 -2.4597  2.4883
  893SOL    HW2 2679   0.206   2.911   1.363  0.4975  0.7120  1.9322
  894SOL     OW 2680   2.688   1.499   0.853 -0.1047 -0.5586  0.4603
  894SOL    HW1 2681   2.639   1.582   0.873  1.0093 -0.7121 -1.3629
  894SOL    HW2 2682   2.679   1.482   0.750 -0.0200 -0.3149 -2.3058
  895SOL     OW 2683   2.291   2.698   1.664 -0.5328 -0.4014  0.6496
  895SOL    HW1 2684   2.217   2.666   1.721 -0.4475 -0.6522 -0.9598
  895SOL    HW2 2685   2.369   2.631   1.681  1.9926 -1.4242 -0.8425
  896SOL     OW 2686   0.906   0.199   1.273 -0.5492 -0.1691 -0.7660
  896SOL    HW1 2687   0.830   0.253   1.299  0.9067 -1.1424 -3.4822
  896SOL    HW2 2688   0.957   0.153   1.354  0.5234 -3.1224  2.9342
  897SOL     OW 2689   0.645   1.705   1.143 -0.5189 -0.3096  0.0812
  897SOL    HW1 2690   0.562   1.687   1.088  4.2888  1.6984 -1.9769
  897SOL    HW2 2691   0.642   1.792   1.197 -0.0262 -0.0168  0.0950
  898SOL     OW 2692   1.633   2.734   1.616  0.3586  0.1662 -0.4476
  898SOL    HW1 2693   1.596   2.636   1.640 -1.5821  0.0881  0.2940
  898SOL    HW2 2694   1.726   2.740   1.578 -0.6787  1.7478 -2.3079
  899SOL     OW 2695   1.074   0.266   2.759  0.0374  0.3023  0.1206
  899SOL    HW1 2696   1.153   0.257   2.693 -0.2009 -0.3011  1.2937
  899SOL    HW2 2697   1.011   0.185   2.749  0.4985  1.1190 -1.9446
  900SOL     OW 2698   1.140   2.535   1.807  0.1258 -0.7044 -0.1272
  900SOL    HW1 2699   1.062   2.481   1.836  1.4495  3.0643 -0.0321
  900SOL    HW2 2700   1.118   2.599   1.733  3.2927  1.0555  1.9185
  901SOL     OW 2701   0.925   1.817   0.256  0.0809 -0.0542  0.2185
  901SOL    HW1 2702   1.006   1.865   0.296 -0.2187  0.8555 -1.4668
  901SOL    HW2 2703   0.927   1.824   0.154  1.4341 -1.3859 -0.3095
  902SOL     OW 2704   1.706   1.226   0.989  0.0346 -0.1826  0.2964
  902SOL    HW1 2705   1.720   1.176   0.903  0.3516  2.7863 -0.1780
  902SOL    HW2 2706   1.610   1.265   0.988 -3.5052 -1.5690 -0.6669
  903SOL     OW 2707   2.564   1.153   2.848 -0.0709  0.5743 -0.4331
  903SOL    HW1 2708   2.600   1.245   2.818  0.2084  2.5017 -0.9340
  903SOL    HW2 2709   2.491   1.161   2.918 -1.1589 -1.9901  0.0072
  904SOL     OW 2710   1.074   1.320   0.230  0.0255 -0.4269 -0.0355
  904SOL    HW1 2711   1.032   1.416   0.217 -1.1787 -2.3167  0.3860
  904SOL    HW2 2712   1.046   1.284   0.319  0.9743  0.7454 -1.3487
  905SOL     OW 2713   1.709   0.127   1.328 -0.4733 -0.2497  0.5468
  905SOL    HW1 2714   1.718   0.222   1.363  2.3496 -0.0354 -1.1256
  905SOL    HW2 2715   1.706   0.058   1.408 -1.5227  0.2065  2.0244
  906SOL     OW 2716   2.603   2.683   1.041  0.5682 -0.0709  0.0120
  906SOL    HW1 2717   2.599   2.784   1.048 -0.3802  1.2867 -0.3059
  906SOL    HW2 2718   2.538   2.646   0.972 -1.6560 -0.1720  0.2142
  907SOL     OW 2719   1.459   0.858   0.512 -0.1724  0.0601 -0.6258
  907SOL    HW1 2720   1.414   0.770   0.482 -3.1073 -1.4369 -2.6954
  907SOL    HW2 2721   1.443   0.877   0.613 -1.6416  0.9420  0.1430
  908SOL     OW 2722   1.599   0.133   1.072 -0.1299  0.0046  0.6107
  908SOL    HW1 2723   1.647   0.199   1.011  1.4747  0.0029  1.5058
  908SOL    HW2 2724   1.636   0.149   1.165 -0.3699  2.7320 -0.9980
  909SOL     OW 2725   2.234   0.645   1.271 -0.6406 -0.0294 -0.2491
  909SOL    HW1 2726   2.185   0.674   1.184  2.8612  0.7675 -1.7105
  909SOL    HW2 2727   2.309   0.578   1.252 -1.5433  1.4866 -0.6378
  910SOL     OW 2728   2.218   0.649   2.130  0.3573  0.4903 -0.0273
  910SOL    HW1 2729   2.141   0.664   2.067  0.9138 -0.1297  0.5556
  910SOL    HW2 2730   2.247   0.735   2.170 -0.9957  1.1259 -0.9421
  911SOL     OW 2731   2.411   0.553   2.872 -0.2780 -0.3241  0.2040
  911SOL    HW1 2732   2.463   0.641   2.853  0.7383  0.3409 -0.8688
  911SOL    HW2 2733   2.392   0.541   2.969 -0.7688 -0.1842 -0.8049
  912SOL     OW 2734   0.673   1.286   1.710 -0.5743 -0.5417 -0.3661
  912SOL    HW1 2735   0.718   1.206   1.662 -0.0527  0.3792 -1.8190
  912SOL    HW2 2736   0.595   1.328   1.658  0.5969  0.8116  0.7395
  913SOL     OW 2737   2.834   2.418   1.590 -0.0838 -0.3374  1.0524
  913SOL    HW1 2738   2.839   2.339   1.656 -1.2216 -0.0802 -0.1168
  913SOL    HW2 2739   2.857   2.502   1.643  0.2741 -0.7862  3.4263
  914SOL     OW 2740   1.592   0.778   1.919  0.3094 -0.0717  0.2741
  914SOL    HW1 2741   1.493   0.760   1.904 -0.9482 -0.0904  0.0673
  914SOL    HW2 2742   1.652   0.725   1.858  2.1142 -1.8828  1.1392
  915SOL     OW 2743   2.502   0.946   1.077  0.0536  0.0738 -0.6938
  915SOL    HW1 2744   2.603   0.938   1.093 -2.2158  1.7448 -1.8384
  915SOL    HW2 2745   2.477   1.042   1.053 -0.0647 -0.2983 -1.7399
  916SOL     OW 2746   1.757   2.234   1.119 -0.0968  0.4675  0.5207
  916SOL    HW1 2747   1.729   2.294   1.194 -0.0717 -1.5864 -2.3032
  916SOL    HW2 2748   1.732   2.132   1.136  1.9567 -0.3839  2.4812
  917SOL     OW 2749   1.930   2.302   2.259  0.1360  0.8081  0.0753
  917SOL    HW1 2750   1.838   2.313   2.210 -2.0345 -1.0329 -1.2579
  917SOL    HW2 2751   1.982   2.387   2.254  0.2323 -1.3572 -0.1262
  918SOL     OW 2752   1.810   2.532   2.597  0.4703 -0.7480  0.6864
  918SOL    HW1 2753   1.772   2.534   2.501 -2.1125 -1.1233  0.9226
  918SOL    HW2 2754   1.867   2.450   2.616 -1.4448  0.6057  0.4593
  919SOL     OW 2755   1.078   0.129   1.469 -0.2370 -0.1180  0.0707
  919SOL    HW1 2756   1.165   0.072   1.468  3.1728 -1.1447 -0.2377
  919SOL    HW2 2757   1.080   0.206   1.535  1.0255 -1.5702 -3.6763
  920SOL     OW 2758   2.983   0.407   2.443  0.5446  0.2110  0.1561
  920SOL    HW1 2759   3.063   0.347   2.454 -1.1261  3.2005 -2.2385
  920SOL    HW2 2760   2.944   0.439   2.534  0.7069 -0.3450 -0.8408
  921SOL     OW 2761   0.042   1.056   1.852 -0.0501 -0.1172 -0.3723
  921SOL    HW1 2762   0.074   1.146   1.892  0.5449 -1.0868 -1.7065
  921SOL    HW2 2763   3.047   1.059   1.843 -0.9847  2.0242  0.4725
  922SOL     OW 2764   2.311   2.429   0.486  0.7525 -0.3647  0.1829
  922SOL    HW1 2765   2.282   2.522   0.525 -0.6278 -2.5149 -0.3479
  922SOL    HW2 2766   2.384   2.439   0.416 -2.2095  1.7872  0.7478
  923SOL     OW 2767   0.675   2.095   0.606  0.1964 -0.2073  0.1408
  923SOL    HW1 2768   0.668   2.103   0.709 -0.8715 -0.0479  0.1411
  923SOL    HW2 2769   0.576   2.114   0.577  0.0616 -0.6222  1.2631
  924SOL     OW 2770   1.114   0.933   0.152  0.0746  0.2097  0.6101
  924SOL    HW1 2771   1.115   1.018   0.089 -2.0903  2.6924  0.6333
  924SOL    HW2 2772   1.056   0.942   0.235 -2.5239 -1.1109  1.7406
  925SOL     OW 2773   2.750   1.018   0.868 -0.2992 -0.9584 -0.2213
  925SOL    HW1 2774   2.714   0.981   0.783 -0.6127  1.6319  1.2216
  925SOL    HW2 2775   2.697   1.097   0.902  2.1800 -2.2125 -1.0284
  926SOL     OW 2776   0.422   0.314   1.383 -0.0065 -0.2580 -0.0505
  926SOL    HW1 2777   0.444   0.233   1.320 -0.5655  0.4666  0.4646
  926SOL    HW2 2778   0.335   0.358   1.357  0.2102 -1.9130  1.7042
  927SOL     OW 2779   0.728   1.242   2.555 -0.2735 -0.0086  0.0659
  927SOL    HW1 2780   0.696   1.299   2.636 -2.6510  1.0043  0.9252
  927SOL    HW2 2781   0.656   1.224   2.488 -0.1232 -0.3440  1.4965
  928SOL     OW 2782   0.169   0.624   2.375  0.7531 -0.2270 -1.0124
  928SOL    HW1 2783   0.095   0.656   2.312  2.0576  0.8560 -2.0167
  928SOL    HW2 2784   0.188   0.523   2.368  2.5048  2.1683 -0.0864
  929SOL     OW 2785   2.940   2.959   1.355  0.3204 -0.2608  0.3665
  929SOL    HW1 2786   2.899   2.984   1.261  0.2899  2.2442  0.2286
  929SOL    HW2 2787   3.012   3.030   1.378  1.2239 -0.4574  0.1330
  930SOL     OW 2788   1.901   0.473   1.867 -0.4667 -0.1113 -0.1165
  930SOL    HW1 2789   1.949   0.400   1.818 -1.0774 -1.0610  1.0718
  930SOL    HW2 2790   1.855   0.445   1.955  0.7943 -0.6187  0.2588
  931SOL     OW 2791   2.209   0.877   0.076 -0.0723  0.1239 -0.1061
  931SOL    HW1 2792   2.126   0.905   0.021  1.2639  0.6543 -1.5421
  931SOL    HW2 2793   2.204   0.908   0.172 -0.9453 -1.4775 -0.4929
  932SOL     OW 2794   2.171   1.398   0.544 -0.1144  0.3432 -0.1175
  932SOL    HW1 2795   2.270   1.372   0.552 -2.3232 -1.6871 -1.4719
  932SOL    HW2 2796   2.119   1.370   0.626 -1.0060  0.2031  0.8602
  933SOL     OW 2797   2.023   1.586   1.099  0.4701  0.3464 -0.1051
  933SOL    HW1 2798   2.107   1.598   1.151 -0.6568  0.5675 -2.7663
  933SOL    HW2 2799   2.005   1.489   1.079  1.9883  1.0968 -0.7745
  934SOL     OW 2800   1.873   0.816   2.698  0.0491 -0.3027  0.1118
  934SOL    HW1 2801   1.922   0.811   2.787 -0.4820  2.6216 -0.1388
  934SOL    HW2 2802   1.929   0.774   2.624  2.3089  1.5332  1.5769
  935SOL     OW 2803   0.259   0.941   0.560 -0.7560 -0.0054 -0.1129
  935SOL    HW1 2804   0.227   0.970   0.467  3.8649  0.5347  1.3578
  935SOL    HW2 2805   0.182   0.919   0.621  0.6746 -1.1885 -0.0813
  936SOL     OW 2806   0.595   3.028   0.879 -0.7638 -0.0058 -0.0872
  936SOL    HW1 2807   0.649   3.075   0.952 -0.9651 -1.1775  0.8639
  936SOL    HW2 2808   0.583   3.083   0.797 -1.4029 -2.2046  3.5929
  937SOL     OW 2809   2.844   3.008   1.763  0.1886 -0.3718 -1.3494
  937SOL    HW1 2810   2.795   2.953   1.698  1.0575  2.1284  1.5813
  937SOL    HW2 2811   2.817   2.987   1.863 -0.3876 -2.4934  4.3067
  938SOL     OW 2812   2.975   2.297   0.141  0.0405  0.2693 -0.6334
  938SOL    HW1 2813   2.904   2.321   0.075 -1.3682 -1.2760  1.5817
  938SOL    HW2 2814   3.053   2.364   0.147  0.6228  2.2547  1.8285
  939SOL     OW 2815   1.228   1.577   1.225  0.3361  0.2533 -0.2531
  939SOL    HW1 2816   1.282   1.490   1.228  2.6825 -0.6069 -0.2014
  939SOL    HW2 2817   1.287   1.659   1.255 -1.4725  1.0863  1.7309
  940SOL     OW 2818   2.991   0.622   2.971 -0.3889  0.3512 -0.0233
  940SOL    HW1 2819   3.069   0.570   2.927  1.6185 -0.5087 -0.0839
  940SOL    HW2 2820   2.955   0.565   3.049  0.1447  1.4792 -1.8553
  941SOL     OW 2821   2.454   0.350   2.696 -0.8058 -0.0898  0.3702
  941SOL    HW1 2822   2.509   0.276   2.743 -2.2254  1.7242 -3.7501
  941SOL    HW2 2823   2.434   0.421   2.767 -1.0699 -2.2712  0.1391
  942SOL     OW 2824   1.719   0.357   0.890  0.5986  0.2647  0.0821
  942SOL    HW1 2825   1.775   0.354   0.802 -0.0192  0.2452 -0.1003
  942SOL    HW2 2826   1.749   0.432   0.954  0.3745 -0.4212 -0.6317
  943SOL     OW 2827   1.223   1.248   2.037  0.0771  0.0697  0.3774
  943SOL    HW1 2828   1.271   1.166   2.007 -1.4811  1.7413  2.5314
  943SOL    HW2 2829   1.131   1.263   1.997  0.8862  0.6796 -1.7928
  944SOL     OW 2830   1.935   1.009   1.658 -0.1013 -0.7185 -0.3339
  944SOL    HW1 2831   1.868   0.933   1.659  1.5668  1.3219  0.7402
  944SOL    HW2 2832   2.014   0.990   1.719  0.6266 -2.1332 -1.2558
  945SOL     OW 2833   3.016   0.185   2.875  0.0229 -0.3204  0.8111
  945SOL    HW1 2834   2.923   0.179   2.829 -2.9085 -2.1770 -0.6158
  945SOL    HW2 2835   3.038   0.097   2.917  0.4997  1.9743 -1.0528
  946SOL     OW 2836   2.834   1.624   1.759 -0.0306 -0.4375  0.0516
  946SOL    HW1 2837   2.768   1.630   1.679  0.7832  0.6370 -1.6452
  946SOL    HW2 2838   2.778   1.607   1.842 -0.4932 -1.3229 -0.9888
  947SOL     OW 2839   1.052   2.932   0.179 -0.6602 -0.4124 -0.2727
  947SOL    HW1 2840   0.967   2.887   0.144 -1.3083 -1.9971  2.6233
  947SOL    HW2 2841   1.032   2.959   0.273 -1.3530 -0.8997 -1.1166
  948SOL     OW 2842   2.238   1.665   1.281  0.3343 -0.1454  0.8082
  948SOL    HW1 2843   2.248   1.686   1.381  1.2251 -1.3752 -2.9698
  948SOL    HW2 2844   2.330   1.677   1.239  0.5094  0.9378  0.3540
  949SOL     OW 2845   0.157   1.213   2.933 -0.7628 -0.2456 -0.0960
  949SOL    HW1 2846   0.076   1.193   2.874 -1.3043  0.0707  3.0669
  949SOL    HW2 2847   0.244   1.213   2.881  3.2955  0.4187  0.9210
  950SOL     OW 2848   0.466   2.465   1.109 -0.2418 -0.2139  0.5250
  950SOL    HW1 2849   0.380   2.508   1.096 -0.1073 -1.2704 -0.9513
  950SOL    HW2 2850   0.535   2.524   1.057 -0.6876  3.2206 -3.0309
  951SOL     OW 2851   0.737   1.572   2.660  0.0387 -0.7768  0.4242
  951SOL    HW1 2852   0.802   1.514   2.608 -0.5885 -1.3134 -0.1403
  951SOL    HW2 2853   0.687   1.529   2.737 -1.0958  1.3199  1.6120
  952SOL     OW 2854   0.722   1.127   0.394  0.0828 -0.5316  0.5611
  952SOL    HW1 2855   0.656   1.096   0.464  2.0945 -1.0230  1.0287
  952SOL    HW2 2856   0.818   1.130   0.428 -3.9133 -0.5394 -1.9265
  953SOL     OW 2857   2.338   2.779   2.504 -0.5066  0.2177  0.6465
  953SOL    HW1 2858   2.433   2.806   2.508 -3.5121 -0.3446  1.4761
  953SOL    HW2 2859   2.302   2.784   2.598  0.0828 -1.1504  0.4247
  954SOL     OW 2860   1.978   0.954   0.864 -0.0924  0.1290 -0.2789
  954SOL    HW1 2861   2.011   0.983   0.955 -2.2445  2.0845  0.9612
  954SOL    HW2 2862   2.056   0.926   0.808  2.9757  1.5044  0.6109
  955SOL     OW 2863   0.683   1.859   0.444  0.2496  0.2310  0.0583
  955SOL    HW1 2864   0.773   1.870   0.403 -2.3100  1.7087 -1.6893
  955SOL    HW2 2865   0.663   1.936   0.513  1.5271  1.6986  1.4201
  956SOL     OW 2866   2.429   0.464   2.058  0.3234 -0.3052 -0.3847
  956SOL    HW1 2867   2.352   0.534   2.083 -1.4367  1.4750  0.0076
  956SOL    HW2 2868   2.478   0.414   2.132 -0.3860  0.0982 -0.2421
  957SOL     OW 2869   2.020   2.266   1.868  0.1236 -0.9456  0.3889
  957SOL    HW1 2870   2.107   2.225   1.866  0.0022  1.8162  0.3433
  957SOL    HW2 2871   1.952   2.205   1.910 -0.9206  0.4146  0.6402
  958SOL     OW 2872   1.705   1.108   1.238 -0.0280  0.0717  0.0987
  958SOL    HW1 2873   1.700   1.173   1.161  3.0238  0.7759  0.4116
  958SOL    HW2 2874   1.656   1.154   1.317 -0.2099  1.1516 -2.7368
  959SOL     OW 2875   1.735   1.840   2.129  0.0526  0.1194 -0.2390
  959SOL    HW1 2876   1.769   1.749   2.160 -1.5104 -0.7358 -0.7355
  959SOL    HW2 2877   1.670   1.828   2.053 -0.0171 -1.1056  0.0380
  960SOL     OW 2878   0.764   0.974   2.763 -0.1322  0.4045 -0.4503
  960SOL    HW1 2879   0.752   0.972   2.661 -1.0014  0.2336 -1.5977
  960SOL    HW2 2880   0.864   0.988   2.783  1.2290  0.9455  0.9669
  961SOL     OW 2881   3.039   1.103   2.812 -0.1480  0.1859  0.1384
  961SOL    HW1 2882   2.960   1.065   2.856  3.0416  1.0310  0.0039
  961SOL    HW2 2883   3.072   1.041   2.737  1.5538  0.3705  0.1567
  962SOL     OW 2884   0.674   1.808   2.514 -0.7623 -0.4937  0.2642
  962SOL    HW1 2885   0.680   1.735   2.582 -1.2304  0.3254  0.2470
  962SOL    HW2 2886   0.700   1.902   2.547  0.3190  1.5777  1.2093
  963SOL     OW 2887   2.922   2.015   0.094  0.6986 -0.4948  0.6790
  963SOL    HW1 2888   2.827   1.990   0.106 -0.9469 -0.3457 -0.6704
  963SOL    HW2 2889   2.948   2.106   0.136 -0.2090  2.2761 -0.2296
  964SOL     OW 2890   0.840   2.059   2.150  0.3516 -0.1323 -0.1578
  964SOL    HW1 2891   0.889   2.152   2.144 -1.8271  1.7765  1.1423
  964SOL    HW2 2892   0.851   2.004   2.066  2.7841  1.7718  0.6405
  965SOL     OW 2893   1.899   1.905   0.738  0.8897 -0.0555 -0.7203
  965SOL    HW1 2894   1.929   1.995   0.709  1.1004  0.2311  0.6678
  965SOL    HW2 2895   1.965   1.859   0.799  2.1097 -1.1925 -0.1588
  966SOL     OW 2896   2.977   1.650   0.043  0.0736 -0.4909 -0.2429
  966SOL    HW1 2897   3.040   1.706   0.102  0.2951  1.9685 -0.3669
  966SOL    HW2 2898   3.022   1.563   0.012 -0.2327 -0.4929 -3.1846
  967SOL     OW 2899   2.031   3.038   2.179  0.7181  0.3552 -0.2995
  967SOL    HW1 2900   2.098   2.963   2.205 -1.0033  0.8315 -1.0619
  967SOL    HW2 2901   1.985   3.024   2.091  0.8610 -0.3280  3.2636
  968SOL     OW 2902   0.759   0.714   0.173 -0.8347  0.2013  1.1947
  968SOL    HW1 2903   0.743   0.816   0.175  0.7943 -0.3560 -0.4295
  968SOL    HW2 2904   0.858   0.697   0.171  2.2611  1.6665  2.4517
  969SOL     OW 2905   0.538   1.554   2.158 -0.2914 -0.2560 -0.5411
  969SOL    HW1 2906   0.619   1.567   2.220 -0.8192 -0.3995  0.4094
  969SOL    HW2 2907   0.550   1.473   2.100 -2.6130 -0.4192 -1.8730
  970SOL     OW 2908   1.956   2.603   1.412 -0.2007  0.3201 -0.5142
  970SOL    HW1 2909   1.989   2.580   1.320 -0.3894  0.3162 -0.0099
  970SOL    HW2 2910   1.996   2.539   1.481  0.9024  2.5897  0.6958
  971SOL     OW 2911   2.181   2.280   0.891  0.3669  0.3147 -1.0563
  971SOL    HW1 2912   2.128   2.284   0.979  1.7110 -1.9013  0.2254
  971SOL    HW2 2913   2.272   2.327   0.913 -0.2393  0.1550 -1.4145
  972SOL     OW 2914   0.055   1.029   2.425  0.0027  0.4299  0.2950
  972SOL    HW1 2915   0.043   1.027   2.324 -0.1109 -0.8441  0.4576
  972SOL    HW2 2916   0.144   1.068   2.453 -0.5885 -1.0640  0.5892
  973SOL     OW 2917   0.528   0.188   0.293 -0.1564  0.2022  0.9219
  973SOL    HW1 2918   0.508   0.263   0.358 -1.5710  2.1510 -1.9577
  973SOL    HW2 2919   0.503   0.213   0.200  1.1981 -0.5586  1.0913
  974SOL     OW 2920   2.567   0.798   1.947 -0.2320 -0.0862 -0.1377
  974SOL    HW1 2921   2.590   0.733   2.022 -3.4486  0.0242 -2.1552
  974SOL    HW2 2922   2.524   0.880   1.991 -1.6635 -0.3591 -2.3042
  975SOL     OW 2923   0.038   3.046   0.477  0.2546  0.4003  0.3512
  975SOL    HW1 2924   3.056   3.075   0.442  1.7205 -0.8363  0.4560
  975SOL    HW2 2925   0.056   2.944   0.462  1.3590 -3.1453 -1.9514
  976SOL     OW 2926   0.242   1.768   1.167  0.1815 -0.0193  0.0834
  976SOL    HW1 2927   0.182   1.769   1.246  2.4244  1.0372 -2.4332
  976SOL    HW2 2928   0.202   1.726   1.082  0.6326 -0.3056 -1.7966
  977SOL     OW 2929   1.142   1.638   0.399  0.0962  0.1462  0.4693
  977SOL    HW1 2930   1.055   1.595   0.374  1.7697 -0.5559 -2.3918
  977SOL    HW2 2931   1.129   1.738   0.419 -1.0328  0.1499 -1.1754
  978SOL     OW 2932   0.051   0.840   0.244 -0.4524  0.1336  0.6589
  978SOL    HW1 2933   0.059   0.826   0.145  0.8656  0.1027  0.1661
  978SOL    HW2 2934   0.085   0.934   0.275 -4.5341  1.7764  2.5539
  979SOL     OW 2935   1.823   1.610   0.760 -0.5257  0.4256 -0.0471
  979SOL    HW1 2936   1.852   1.707   0.770  1.6420 -1.7614  1.1783
  979SOL    HW2 2937   1.782   1.582   0.847 -1.4701  2.3994 -3.7980
  980SOL     OW 2938   0.441   2.004   2.024 -0.0100 -0.0537 -0.7479
  980SOL    HW1 2939   0.506   1.932   2.049 -1.0334  1.9290 -0.9664
  980SOL    HW2 2940   0.468   2.078   1.961 -2.8679  0.8865  0.6553
  981SOL     OW 2941   2.090   1.213   2.788  0.0788  0.2472 -0.1194
  981SOL    HW1 2942   2.038   1.275   2.856  0.9671  0.4927  2.1225
  981SOL    HW2 2943   2.161   1.264   2.735  0.8662 -0.5681  0.9329
  982SOL     OW 2944   2.828   2.720   1.994 -0.3737  0.0516  0.3778
  982SOL    HW1 2945   2.856   2.815   2.023  1.4395 -1.8204 -1.1017
  982SOL    HW2 2946   2.865   2.712   1.897  0.2432  0.1773  1.4270
  983SOL     OW 2947   1.577   0.269   1.655 -0.1818  0.4692 -0.1285
  983SOL    HW1 2948   1.540   0.353   1.701 -0.0823 -0.1169 -3.3420
  983SOL    HW2 2949   1.550   0.183   1.704 -3.7066  0.9848 -0.5603
  984SOL     OW 2950   2.102   2.950   3.105 -0.7260 -0.0015  0.2994
  984SOL    HW1 2951   2.188   2.959   3.048  2.1564 -0.8961  0.9515
  984SOL    HW2 2952   2.016   2.948   3.049  0.4117 -0.9316  1.6728
  985SOL     OW 2953   1.611   1.367   1.745 -0.5075 -0.1883  0.4749
  985SOL    HW1 2954   1.692   1.332   1.702 -1.6182  0.2074  0.6098
  985SOL    HW2 2955   1.608   1.334   1.842 -1.5334  2.1807  1.3662
  986SOL     OW 2956   1.953   2.891   2.554  0.4342  0.0978 -0.2585
  986SOL    HW1 2957   2.033   2.956   2.542  1.2573 -2.5222  0.1947
  986SOL    HW2 2958   1.961   2.843   2.643 -1.0243  0.6797 -1.2341
  987SOL     OW 2959   2.837   1.775   2.793  0.1693 -0.2496 -0.4587
  987SOL    HW1 2960   2.866   1.734   2.703  1.7223  3.0986  3.0158
  987SOL    HW2 2961   2.746   1.818   2.789 -1.0547  0.2302 -0.1486
  988SOL     OW 2962   2.973   0.920   1.418 -1.0423 -0.4604  0.6331
  988SOL    HW1 2963   3.049   0.956   1.475  2.6167 -0.7511 -0.5702
  988SOL    HW2 2964   2.944   0.989   1.348  0.6146  0.2419  0.9369
  989SOL     OW 2965   1.960   1.012   1.375  0.3987 -0.1593 -0.0738
  989SOL    HW1 2966   1.957   1.015   1.479  1.7746 -1.4990  1.7419
  989SOL    HW2 2967   1.888   1.073   1.333  0.9912  0.8615  2.3971
  990SOL     OW 2968   2.678   0.629   3.061 -0.9684 -0.3224  0.0828
  990SOL    HW1 2969   2.627   0.705   3.018 -1.7807 -1.7987  1.6001
  990SOL    HW2 2970   2.714   0.665   0.044  1.8680  2.0115  0.3551
  991SOL     OW 2971   0.284   1.537   3.099 -0.4288 -0.0528 -0.0982
  991SOL    HW1 2972   0.189   1.494   3.083 -0.1241 -3.6145 -1.8302
  991SOL    HW2 2973   0.299   1.557   0.089  0.2733 -0.4306 -3.0056
  992SOL     OW 2974   2.307   1.603   1.800 -0.3315  0.0932  0.4881
  992SOL    HW1 2975   2.209   1.618   1.822  0.9870 -1.2861 -1.8004
  992SOL    HW2 2976   2.362   1.688   1.822  2.7883 -1.1882  2.2118
  993SOL     OW 2977   0.560   2.707   0.394  0.1298 -0.2309  0.0048
  993SOL    HW1 2978   0.554   2.615   0.433  0.9109  0.1078 -2.3578
  993SOL    HW2 2979   0.608   2.771   0.458 -2.4417  0.8025 -1.1859
  994SOL     OW 2980   2.876   2.081   1.595 -0.2273  0.4132  0.0147
  994SOL    HW1 2981   2.778   2.077   1.625  0.5664  0.5063  1.1179
  994SOL    HW2 2982   2.937   2.067   1.668 -0.7909  1.6149  1.7305
  995SOL     OW 2983   1.884   2.094   2.401  0.2233  0.0737 -0.2074
  995SOL    HW1 2984   1.914   2.182   2.362 -0.9088 -1.4747 -0.6159
  995SOL    HW2 2985   1.845   2.028   2.330  1.3494  0.2770 -1.5082
  996SOL     OW 2986   2.059   2.002   2.989  0.2354 -0.2041 -0.6837
  996SOL    HW1 2987   1.985   2.029   2.928 -0.4337  0.6285  1.3973
  996SOL    HW2 2988   2.027   1.928   3.048 -0.2250  0.1708  0.5893
  997SOL     OW 2989   1.372   1.251   2.556  0.0248  0.4251  0.7201
  997SOL    HW1 2990   1.315   1.246   2.467 -3.9776 -1.0596 -1.8288
  997SOL    HW2 2991   1.407   1.341   2.576 -0.2174 -1.3088  0.9951
  998SOL     OW 2992   2.856   2.494   0.736 -0.3119  0.1485  0.2566
  998SOL    HW1 2993   2.889   2.484   0.635  2.3276  0.4543 -3.1065
  998SOL    HW2 2994   2.913   2.554   0.794 -2.9553 -1.4709 -1.7567
  999SOL     OW 2995   0.291   2.605   0.376  0.6487  0.4626  0.0094
  999SOL    HW1 2996   0.324   2.557   0.457 -2.2178  2.4898 -3.6767
  999SOL    HW2 2997   0.343   2.688   0.354  0.6224  0.5195  0.3500
 1000SOL     OW 2998   1.158   3.074   3.045  0.4526  0.1338 -0.0589
 1000SOL    HW1 2999   1.133   3.023   0.025  1.1547  0.9861  1.4125
 1000SOL    HW2 3000   1.089   3.076   2.973  2.5868 -2.5054 -0.7659
   3.10821   3.10821   3.10821
