1000 SPC/Fw water molecules t= 215.00000 step= 215000
 3000
    1SOL     OW    1   2.913   2.732   0.828  0.4543  0.2097 -0.3372
    1SOL    HW1    2   3.008   2.717   0.849 -0.0863  0.4327  2.2546
    1SOL    HW2    3   2.892   2.828   0.853 -0.6989 -1.2919 -1.0272
    2SOL     OW    4   1.825   1.613   1.923 -0.3490 -0.8670 -0.0249
    2SOL    HW1    5   1.896   1.688   1.913  0.9183  0.8724  1.1090
    2SOL    HW2    6   1.861   1.540   1.988 -0.7865 -1.3217  1.3522
    3SOL     OW    7   1.875   2.327   2.162  0.1572 -0.5751  0.2495
    3SOL    HW1    8   1.837   2.369   2.246  0.9232 -1.9480 -0.2382
    3SOL    HW2    9   1.962   2.283   2.181 -0.6366  0.6872  1.7578
    4SOL     OW   10   2.061   1.836   2.465 -0.6175  0.0678 -0.3891
    4SOL    HW1   11   2.129   1.759   2.465 -1.7906 -2.0270 -0.9390
    4SOL    HW2   12   1.979   1.817   2.519  0.1903 -0.8249  0.8628
    5SOL     OW   13   1.306   0.463   1.793  0.2536 -0.9365 -0.1038
    5SOL    HW1   14   1.381   0.399   1.761 -1.5409 -0.3347  0.0836
    5SOL    HW2   15   1.224   0.445   1.729 -0.7428 -0.7156 -3.2645
    6SOL     OW   16   2.774   0.560   2.872 -0.3293  0.3056 -0.2564
    6SOL    HW1   17   2.808   0.503   2.953 -0.2792 -0.0233  2.8747
    6SOL    HW2   18   2.684   0.527   2.840  0.6255 -0.1714  0.0103
    7SOL     OW   19   0.546   1.574   1.415 -0.0220 -0.0694  0.3787
    7SOL    HW1   20   0.575   1.479   1.387 -0.5590  0.1617  0.4935
    7SOL    HW2   21   0.587   1.636   1.350  0.1216 -2.2915  0.2303
    8SOL     OW   22   1.238   0.624   0.848 -0.3555 -0.0880  0.1016
    8SOL    HW1   23   1.275   0.548   0.905 -1.8904 -1.5704 -1.4497
    8SOL    HW2   24   1.192   0.690   0.912 -1.0808 -1.7152  1.9743
    9SOL     OW   25   1.086   0.676   2.516  0.1023  0.8721  0.5535
    9SOL    HW1   26   1.067   0.727   2.426 -1.0819  2.5600 -2.7468
    9SOL    HW2   27   1.091   0.572   2.500  2.4586 -2.5164 -2.0593
   10SOL     OW   28   0.685   2.488   0.202  0.3665 -0.4045  0.4698
   10SOL    HW1   29   0.772   2.457   0.151  0.4502 -0.7459 -2.6606
   10SOL    HW2   30   0.672   2.589   0.189  0.8411 -0.6555 -3.0231
   11SOL     OW   31   0.792   1.249   3.075  0.6802 -0.3457  0.1923
   11SOL    HW1   32   0.718   1.183   3.085  1.4109  0.1006 -0.9053
   11SOL    HW2   33   0.787   1.310   0.067  1.3198  3.1271  2.5957
   12SOL     OW   34   0.260   0.264   1.586 -0.0452 -0.4531  0.3261
   12SOL    HW1   35   0.279   0.208   1.502  1.1245  0.3367 -0.7205
   12SOL    HW2   36   0.336   0.255   1.653 -0.8593 -3.0929  0.3408
   13SOL     OW   37   0.931   0.081   0.269 -0.0393  0.1626  0.4748
   13SOL    HW1   38   0.978   0.132   0.196 -1.0741 -0.7800  0.5510
   13SOL    HW2   39   0.990   0.081   0.350 -1.0626  2.5642  0.7348
   14SOL     OW   40   1.198   2.319   1.317  0.1322  0.3836  0.0209
   14SOL    HW1   41   1.120   2.312   1.252 -2.7661 -1.0742 -3.9697
   14SOL    HW2   42   1.209   2.231   1.371 -0.2292 -1.6638 -0.6975
   15SOL     OW   43   2.675   1.217   1.748 -0.5220  0.0093 -0.7260
   15SOL    HW1   44   2.676   1.183   1.654  3.3911  1.4697 -1.9841
   15SOL    HW2   45   2.745   1.167   1.802 -0.9130 -1.1719  2.1565
   16SOL     OW   46   1.418   2.995   2.982  0.6377  0.0547 -0.4907
   16SOL    HW1   47   1.370   3.044   3.061  0.5982  0.4911  2.1584
   16SOL    HW2   48   1.511   3.037   2.970 -0.3832 -0.0525 -2.3282
   17SOL     OW   49   0.750   0.197   1.358  0.0755 -0.5639  0.3388
   17SOL    HW1   50   0.724   0.111   1.308 -0.9432 -0.7246  0.0889
   17SOL    HW2   51   0.702   0.280   1.322  2.1541  1.1607  1.2180
   18SOL     OW   52   1.218   0.672   0.178 -0.7929 -0.4784 -0.1280
   18SOL    HW1   53   1.181   0.677   0.274 -1.4819  2.2964  0.7455
   18SOL    HW2   54   1.298   0.738   0.177  0.2810  1.5209  1.3448
   19SOL     OW   55   2.255   1.729   2.889 -0.4653  0.1150 -0.9901
   19SOL    HW1   56   2.232   1.810   2.832  2.8594  3.0254  3.1033
   19SOL    HW2   57   2.171   1.686   2.925  0.9143  2.1611 -2.2248
   20SOL     OW   58   2.071   1.605   1.604  0.0260  0.0277 -0.0574
   20SOL    HW1   59   2.026   1.693   1.622 -2.3162 -2.9518  0.2010
   20SOL    HW2   60   2.006   1.556   1.534 -0.1831 -2.3819 -1.7924
   21SOL     OW   61   1.009   1.144   2.952 -0.2796  0.9997 -0.4154
   21SOL    HW1   62   1.089   1.200   2.923  1.7050 -0.6305  0.0631
   21SOL    HW2   63   0.935   1.202   2.990  0.5585 -0.3306 -0.9593
   22SOL     OW   64   2.070   3.051   1.349 -0.2146 -0.1888 -0.1472
   22SOL    HW1   65   1.989   3.078   1.405  0.1824  0.4298 -0.4332
   22SOL    HW2   66   2.035   3.015   1.258 -2.2223  0.7350 -1.9089
   23SOL     OW   67   2.960   0.680   1.630 -0.2737 -0.2509  0.0229
   23SOL    HW1   68   3.043   0.709   1.688 -0.8136  0.6704 -1.5114
   23SOL    HW2   69   2.968   0.729   1.541  2.0308 -0.4078  1.0639
   24SOL     OW   70   2.444   2.417   1.221 -0.0131  0.3800  0.0653
   24SOL    HW1   71   2.412   2.414   1.122  1.3993 -1.9391 -1.4688
   24SOL    HW2   72   2.535   2.463   1.226  1.5105 -0.1090  0.2525
   25SOL     OW   73   1.813   2.828   2.555 -0.2406  0.1402  0.1969
   25SOL    HW1   74   1.878   2.761   2.594 -1.9406  0.1195  0.2764
   25SOL    HW2   75   1.844   2.839   2.455 -0.4860  1.4052  0.4488
   26SOL     OW   76   1.409   2.780   0.388 -0.0598 -0.2285 -0.3635
   26SOL    HW1   77   1.469   2.721   0.444  0.9480 -0.6159  0.9561
   26SOL    HW2   78   1.391   2.735   0.298 -0.7124  0.0114  0.2798
   27SOL     OW   79   0.461   1.654   2.723 -0.0370  0.4801  0.0640
   27SOL    HW1   80   0.391   1.637   2.650 -0.7822 -1.6551 -2.3475
   27SOL    HW2   81   0.530   1.725   2.695  0.5266  3.1109 -1.1998
   28SOL     OW   82   2.983   1.139   1.470 -0.3141  0.3328  0.0554
   28SOL    HW1   83   2.948   1.227   1.433 -0.6785  1.5335 -1.4868
   28SOL    HW2   84   3.041   1.154   1.554  0.3271  0.5206  2.2760
   29SOL     OW   85   2.640   2.393   2.147 -0.4496 -0.4429 -0.6205
   29SOL    HW1   86   2.686   2.349   2.224 -1.5122  1.6516 -1.4430
   29SOL    HW2   87   2.676   2.355   2.056  1.3119 -1.9372 -1.0850
   30SOL     OW   88   1.331   0.091   0.121  0.1980  0.3173  0.6317
   30SOL    HW1   89   1.284   0.139   0.040  0.8872  1.5286 -0.4978
   30SOL    HW2   90   1.416   0.136   0.154 -1.6045 -0.8077  1.4387
   31SOL     OW   91   2.926   2.549   2.021 -0.1730  0.1669 -0.1147
   31SOL    HW1   92   2.831   2.566   1.989 -0.3877 -1.2108 -0.1996
   31SOL    HW2   93   2.925   2.520   2.119 -2.3057  1.7056  1.1518
   32SOL     OW   94   1.230   1.587   1.353 -0.5739  0.4162  0.3101
   32SOL    HW1   95   1.220   1.482   1.356 -1.2648 -2.0754 -2.1388
   32SOL    HW2   96   1.329   1.613   1.337  0.0414 -2.0835 -0.0515
   33SOL     OW   97   0.078   2.580   2.766 -0.2256  0.0364  0.2809
   33SOL    HW1   98   0.143   2.548   2.695 -2.3463  1.4031 -0.0572
   33SOL    HW2   99   3.077   2.557   2.730  0.9234  1.4680 -0.3210
   34SOL     OW  100   1.814   0.249   0.770  0.0393 -0.4064 -0.5966
   34SOL    HW1  101   1.884   0.223   0.701  0.8317 -0.2738 -0.4109
   34SOL    HW2  102   1.731   0.292   0.729 -1.0895 -1.7894  0.4161
   35SOL     OW  103   2.270   0.078   0.909  0.0155  0.1360 -0.1344
   35SOL    HW1  104   2.255   3.090   0.853 -1.0947  1.1793  1.7735
   35SOL    HW2  105   2.370   0.095   0.927  0.7494  1.4462 -2.0161
   36SOL     OW  106   1.935   2.907   2.318  0.1484 -0.3062  0.0218
   36SOL    HW1  107   2.027   2.863   2.327  2.6315 -1.4152  1.4975
   36SOL    HW2  108   1.952   3.007   2.303 -1.0723  0.3497 -0.9040
   37SOL     OW  109   1.028   2.455   2.281  0.0038  0.1457 -0.4045
   37SOL    HW1  110   1.069   2.383   2.217  3.9262 -1.8896 -0.8837
   37SOL    HW2  111   1.009   2.426   2.381 -1.4301  0.8840  0.0319
   38SOL     OW  112   2.705   0.089   2.743 -0.6320  0.5827  0.1181
   38SOL    HW1  113   2.724   3.080   2.734  1.1959 -0.8298 -0.2827
   38SOL    HW2  114   2.626   0.117   2.685  3.5273  2.0667 -1.0031
   39SOL     OW  115   2.228   1.362   1.702 -0.2596 -0.6100 -0.2345
   39SOL    HW1  116   2.275   1.435   1.650  0.7928  2.4847 -0.1871
   39SOL    HW2  117   2.186   1.407   1.781 -0.5499 -2.8518 -1.8384
   40SOL     OW  118   0.250   3.039   2.811 -0.5549 -0.2842  0.5054
   40SOL    HW1  119   0.257   0.034   2.865  0.0315 -0.6858  1.3462
   40SOL    HW2  120   0.197   2.973   2.869  0.8156 -0.0795 -1.9805
   41SOL     OW  121   1.548   0.576   0.782 -0.1574  0.5926 -0.1371
   41SOL    HW1  122   1.492   0.628   0.846  1.3549 -4.1079 -1.9090
   41SOL    HW2  123   1.647   0.607   0.786  1.1533  1.3577  0.1517
   42SOL     OW  124   0.504   0.807   1.541  0.4213 -0.0463 -0.4035
   42SOL    HW1  125   0.455   0.718   1.540  1.2215 -0.8988 -1.7637
   42SOL    HW2  126   0.564   0.805   1.629 -0.4846  0.1308  2.2646
   43SOL     OW  127   2.733   1.269   2.732 -0.2483  0.6560  0.1431
   43SOL    HW1  128   2.792   1.355   2.738  0.2474 -0.8818  0.3889
   43SOL    HW2  129   2.686   1.241   2.819 -1.2897 -0.7852  0.0401
   44SOL     OW  130   3.073   2.777   0.520 -0.1757 -0.2634  0.4115
   44SOL    HW1  131   0.037   2.861   0.544 -0.9245 -0.0405  0.1448
   44SOL    HW2  132   3.082   2.713   0.595  0.4854 -1.1891  1.1298
   45SOL     OW  133   0.193   2.466   2.082 -0.1105 -0.1142 -0.0554
   45SOL    HW1  134   0.183   2.564   2.049  0.5184 -0.0252 -0.7176
   45SOL    HW2  135   0.210   2.403   2.003  3.4077 -0.5177 -0.8192
   46SOL     OW  136   2.305   2.616   2.320 -0.8596 -0.4007  0.4352
   46SOL    HW1  137   2.340   2.532   2.361  0.4137  2.5896 -3.1147
   46SOL    HW2  138   2.321   2.609   2.219 -1.4172  0.5267 -2.2645
   47SOL     OW  139   2.147   1.962   1.541 -0.0458 -0.2186 -0.3895
   47SOL    HW1  140   2.233   1.967   1.592 -3.2809 -0.4295 -3.0145
   47SOL    HW2  141   2.085   1.885   1.574 -1.1619 -0.5151 -0.6184
   48SOL     OW  142   0.660   1.600   0.264  0.3352  0.4201  0.2349
   48SOL    HW1  143   0.588   1.645   0.205 -0.0407 -3.3278 -2.5181
   48SOL    HW2  144   0.717   1.662   0.321  1.0484 -0.1797  2.0258
   49SOL     OW  145   2.571   0.467   2.708  0.2359 -0.0351  0.0389
   49SOL    HW1  146   2.555   0.370   2.667 -1.9475 -3.3436 -0.0895
   49SOL    HW2  147   2.507   0.529   2.660  1.3078 -0.6285 -0.8879
   50SOL     OW  148   2.303   0.965   0.300  0.1396 -0.3615 -0.2250
   50SOL    HW1  149   2.206   0.968   0.315  4.0055 -2.7891 -3.4885
   50SOL    HW2  150   2.349   0.879   0.313  0.0923  3.6920  0.6197
   51SOL     OW  151   1.844   0.657   1.090  0.1989  0.3522  0.1301
   51SOL    HW1  152   1.764   0.602   1.068 -3.5766  1.2004 -0.1108
   51SOL    HW2  153   1.918   0.601   1.129  0.1585  1.3604  1.2250
   52SOL     OW  154   1.255   1.269   2.919 -0.3853  0.2690  0.5332
   52SOL    HW1  155   1.227   1.318   3.002  1.1209  2.3987 -0.8299
   52SOL    HW2  156   1.357   1.276   2.916  0.5575 -3.7465  1.9665
   53SOL     OW  157   1.075   1.625   1.909  0.2639  0.5369  0.1910
   53SOL    HW1  158   1.000   1.618   1.979 -1.3413  0.4414  1.4931
   53SOL    HW2  159   1.033   1.628   1.818 -3.1105 -1.7869 -0.0087
   54SOL     OW  160   1.899   0.230   1.185 -1.0652  0.0456  0.2038
   54SOL    HW1  161   1.864   0.166   1.114  0.7589 -2.6898 -1.4213
   54SOL    HW2  162   1.994   0.254   1.162 -2.5177  0.9205  0.2100
   55SOL     OW  163   2.613   2.232   1.013  0.4398 -0.3946 -0.3403
   55SOL    HW1  164   2.529   2.279   0.985  0.8825 -2.3342  0.5615
   55SOL    HW2  165   2.625   2.153   0.951 -0.2545  0.9159  3.2555
   56SOL     OW  166   0.868   2.783   1.505  0.2313 -0.1722 -0.7392
   56SOL    HW1  167   0.937   2.757   1.432  0.1535 -0.5870 -1.0780
   56SOL    HW2  168   0.897   2.870   1.553  0.2858  0.9826 -0.2220
   57SOL     OW  169   1.545   1.381   0.320  0.2175 -0.2642  0.5952
   57SOL    HW1  170   1.486   1.317   0.376  0.0912  0.9457  0.3377
   57SOL    HW2  171   1.625   1.414   0.374 -0.2897  2.2291 -0.1584
   58SOL     OW  172   2.987   0.539   2.352  0.0291 -0.0340  0.5732
   58SOL    HW1  173   2.951   0.613   2.292  2.0456  1.8048  1.5276
   58SOL    HW2  174   2.927   0.526   2.434 -0.5616  1.7117 -1.9103
   59SOL     OW  175   1.132   2.630   2.587  0.5207 -0.3288 -0.0881
   59SOL    HW1  176   1.198   2.621   2.511 -2.0899 -1.7478 -1.0328
   59SOL    HW2  177   1.074   2.550   2.584  0.7748 -0.8984  0.1605
   60SOL     OW  178   2.297   2.597   0.757  0.6310 -0.1998  0.5874
   60SOL    HW1  179   2.303   2.582   0.658  0.4931 -0.2906  2.1250
   60SOL    HW2  180   2.335   2.684   0.781 -0.0327 -5.0338 -2.9452
   61SOL     OW  181   1.255   2.226   0.911  0.0751  0.1347  0.0803
   61SOL    HW1  182   1.235   2.323   0.939  0.7820  2.4579  1.7137
   61SOL    HW2  183   1.245   2.160   0.989 -0.6894 -0.4519  2.3827
   62SOL     OW  184   2.417   2.204   2.563 -0.3009 -0.6167 -0.6084
   62SOL    HW1  185   2.328   2.209   2.607 -0.0541 -1.2598 -0.5594
   62SOL    HW2  186   2.492   2.170   2.630  1.4856  0.9625  1.7358
   63SOL     OW  187   2.318   0.571   2.901 -0.7200 -0.1800  0.3358
   63SOL    HW1  188   2.339   0.598   2.805  0.4772 -0.7098 -0.9697
   63SOL    HW2  189   2.379   0.495   2.932 -1.1795  0.5419  2.1742
   64SOL     OW  190   1.176   0.867   2.704  0.4912  0.0329 -0.5664
   64SOL    HW1  191   1.109   0.910   2.766  0.0918  1.5438  0.5546
   64SOL    HW2  192   1.145   0.778   2.664 -1.2290  2.5460 -0.4321
   65SOL     OW  193   1.208   2.117   0.338 -0.1751 -0.4472 -0.0820
   65SOL    HW1  194   1.120   2.143   0.383 -3.0151  2.9003 -0.5952
   65SOL    HW2  195   1.259   2.201   0.315 -1.6954 -0.1166  1.0078
   66SOL     OW  196   0.315   1.164   1.700 -0.0554  0.0336 -0.4609
   66SOL    HW1  197   0.296   1.217   1.791 -0.0655  2.2264  0.5998
   66SOL    HW2  198   0.416   1.142   1.702  0.9559 -2.7576 -0.1961
   67SOL     OW  199   2.400   0.138   2.404  0.0659  0.5791 -0.0311
   67SOL    HW1  200   2.488   0.165   2.364  0.1383 -2.9669  1.4330
   67SOL    HW2  201   2.322   0.156   2.339  0.5794  1.5502 -0.2650
   68SOL     OW  202   0.435   2.331   1.151 -0.2175 -0.6690  0.4067
   68SOL    HW1  203   0.496   2.361   1.228  2.0665 -1.0367  0.6110
   68SOL    HW2  204   0.363   2.267   1.184  2.5295 -2.9395 -0.5761
   69SOL     OW  205   0.964   2.766   0.466 -0.4389 -0.0294 -0.7116
   69SOL    HW1  206   0.980   2.837   0.393  0.5923 -0.7594  0.2803
   69SOL    HW2  207   0.993   2.789   0.559  0.8216 -2.5824 -0.7544
   70SOL     OW  208   3.061   1.085   2.895 -0.7910 -0.4488  0.1747
   70SOL    HW1  209   0.029   1.163   2.879  2.3232  1.4656  1.0243
   70SOL    HW2  210   3.018   1.063   2.804  1.3428 -1.5484  1.0930
   71SOL     OW  211   0.132   1.506   2.595 -0.5931  0.2874  0.2940
   71SOL    HW1  212   0.230   1.468   2.582  1.8367  0.1277 -0.4807
   71SOL    HW2  213   0.074   1.505   2.512  0.1521  0.0944  1.4680
   72SOL     OW  214   3.019   2.206   0.444  0.5206 -0.2779  0.0976
   72SOL    HW1  215   3.002   2.128   0.377 -1.4164  0.0952  1.8750
   72SOL    HW2  216   3.069   2.170   0.518  0.2898 -0.0189 -1.8696
   73SOL     OW  217   0.815   1.394   0.210  0.2825  0.3447  0.4811
   73SOL    HW1  218   0.911   1.413   0.225 -0.0684  1.3457  0.0367
   73SOL    HW2  219   0.755   1.479   0.220 -1.8483  0.8662 -0.6902
   74SOL     OW  220   0.072   0.462   0.049  0.2455 -0.0974  0.3955
   74SOL    HW1  221   0.134   0.464   0.130 -1.1169  0.7841 -1.6589
   74SOL    HW2  222   0.133   0.473   3.058 -1.1591  1.0754  0.9608
   75SOL     OW  223   2.213   1.478   2.041 -0.1776  0.2151 -0.4691
   75SOL    HW1  224   2.308   1.499   2.004  0.0400  0.2985  0.0309
   75SOL    HW2  225   2.172   1.560   2.094 -2.4320  2.7406 -0.1694
   76SOL     OW  226   2.231   2.672   1.655 -0.0392 -0.0776 -0.0315
   76SOL    HW1  227   2.270   2.603   1.590 -0.0934  0.1779  0.1150
   76SOL    HW2  228   2.165   2.628   1.722 -0.4186 -0.7390  0.0212
   77SOL     OW  229   2.537   0.365   1.128 -0.0700 -0.1652  0.5184
   77SOL    HW1  230   2.633   0.387   1.147 -0.9840 -1.7894 -1.0645
   77SOL    HW2  231   2.475   0.439   1.099 -0.1050 -3.7280  0.2560
   78SOL     OW  232   1.687   1.115   0.007 -0.2825 -0.1710 -0.8022
   78SOL    HW1  233   1.603   1.101   3.049  3.0353 -2.6488  4.1605
   78SOL    HW2  234   1.771   1.080   3.058 -0.0544  0.0013  1.5652
   79SOL     OW  235   0.512   1.975   1.881 -0.1268  0.8711 -0.1597
   79SOL    HW1  236   0.543   2.070   1.861  0.1393 -0.2549  1.0144
   79SOL    HW2  237   0.587   1.900   1.888 -1.9751 -0.6824  0.0057
   80SOL     OW  238   1.464   1.100   0.913  0.0147 -0.6129 -0.2505
   80SOL    HW1  239   1.502   1.189   0.879  0.1397  3.1646 -2.1285
   80SOL    HW2  240   1.539   1.036   0.944  0.3466 -0.7346 -0.3361
   81SOL     OW  241   0.351   0.321   1.104  0.2698  0.3382  0.2118
   81SOL    HW1  242   0.253   0.305   1.085  1.9093  0.4857 -0.6172
   81SOL    HW2  243   0.398   0.384   1.040  1.2414 -1.3255  1.3605
   82SOL     OW  244   1.404   2.212   1.728 -0.4340  0.5185  0.1839
   82SOL    HW1  245   1.379   2.245   1.820  2.1315 -1.1638  0.0307
   82SOL    HW2  246   1.483   2.142   1.736 -0.5425  0.6040 -0.6701
   83SOL     OW  247   0.649   2.810   1.323 -0.0420 -0.1823 -0.3034
   83SOL    HW1  248   0.573   2.750   1.350 -0.7392  0.7380 -0.1275
   83SOL    HW2  249   0.732   2.792   1.379  0.3951  1.3644 -3.0541
   84SOL     OW  250   0.407   0.933   2.965  1.0617  0.3028  0.0616
   84SOL    HW1  251   0.307   0.920   2.990 -2.2961  0.1755  1.0136
   84SOL    HW2  252   0.432   0.868   2.894 -1.2660  2.8628 -0.6050
   85SOL     OW  253   2.943   2.432   1.628 -0.1729 -0.2649  0.1981
   85SOL    HW1  254   2.946   2.445   1.524  1.6314 -1.0846 -0.2695
   85SOL    HW2  255   2.866   2.373   1.652 -0.1349 -0.5586  2.6213
   86SOL     OW  256   3.000   2.706   1.692 -0.4073  1.0114  0.6618
   86SOL    HW1  257   2.991   2.600   1.677 -0.2912 -3.4524 -1.4966
   86SOL    HW2  258   0.000   2.737   1.705 -1.7689 -1.0135 -2.6645
   87SOL     OW  259   2.911   2.568   2.702 -0.0524  0.5524 -0.6846
   87SOL    HW1  260   2.884   2.651   2.750  1.0690 -0.6420  1.2121
   87SOL    HW2  261   2.846   2.549   2.622  3.0058  0.5382 -2.4449
   88SOL     OW  262   0.291   1.818   1.288 -0.2525  0.2567 -0.2290
   88SOL    HW1  263   0.358   1.890   1.310  1.1754  0.8671 -0.3294
   88SOL    HW2  264   0.326   1.759   1.212  1.6144  1.3835 -1.4103
   89SOL     OW  265   0.879   0.208   1.812  0.1002 -0.2469 -0.0573
   89SOL    HW1  266   0.835   0.135   1.754 -2.2541  2.1729 -0.0413
   89SOL    HW2  267   0.923   0.164   1.892  0.9437 -0.1353 -3.0418
   90SOL     OW  268   0.244   1.987   1.884 -0.0635 -0.0493 -0.2323
   90SOL    HW1  269   0.179   1.935   1.825 -2.3801  1.5657 -1.6324
   90SOL    HW2  270   0.341   1.957   1.863  0.0273  1.0223 -0.5080
   91SOL     OW  271   1.085   1.792   0.487 -0.4413  0.4362 -0.2141
   91SOL    HW1  272   1.076   1.805   0.588  0.8610 -0.6396  1.2251
   91SOL    HW2  273   1.154   1.724   0.462 -0.0131  3.5657  1.6405
   92SOL     OW  274   2.506   0.001   1.150  0.4577 -0.0715 -0.0302
   92SOL    HW1  275   2.540   0.076   1.090 -0.5974 -2.0380  1.6859
   92SOL    HW2  276   2.413   0.027   1.189  0.5063 -1.2555 -0.6765
   93SOL     OW  277   2.595   1.490   2.901  0.6537 -0.0220 -0.3926
   93SOL    HW1  278   2.598   1.508   2.798 -0.9745  1.4926 -0.6748
   93SOL    HW2  279   2.578   1.578   2.953 -0.2528  2.5006  1.8109
   94SOL     OW  280   2.395   2.327   2.325 -0.2025 -0.4898 -0.2011
   94SOL    HW1  281   2.404   2.276   2.411  0.9795 -0.0335  0.1796
   94SOL    HW2  282   2.473   2.312   2.263 -0.4115 -2.3945  0.5137
   95SOL     OW  283   1.682   0.433   0.996 -0.4242  0.0624  0.2986
   95SOL    HW1  284   1.586   0.425   0.963 -0.1630  1.2749 -0.4559
   95SOL    HW2  285   1.739   0.357   0.969  0.0748  2.2635  0.0972
   96SOL     OW  286   2.804   2.880   1.826  1.1013  0.3928  0.1220
   96SOL    HW1  287   2.876   2.820   1.781 -2.2238 -1.2514  2.3279
   96SOL    HW2  288   2.766   2.956   1.770 -3.4822  1.4274  0.4611
   97SOL     OW  289   2.259   0.159   1.274 -0.8466 -0.4458  0.2380
   97SOL    HW1  290   2.210   0.083   1.326  1.1944  1.4698  1.8597
   97SOL    HW2  291   2.304   0.212   1.348 -1.1034  2.5061  2.2710
   98SOL     OW  292   1.496   2.199   1.447  0.0772 -0.3735  0.1717
   98SOL    HW1  293   1.589   2.196   1.399  2.1575 -1.0187  0.1379
   98SOL    HW2  294   1.499   2.224   1.545 -0.2577 -0.3314 -0.4912
   99SOL     OW  295   2.801   3.071   2.051 -0.2497  0.1279  0.4895
   99SOL    HW1  296   2.823   2.990   1.994 -0.9510  2.0978 -0.6229
   99SOL    HW2  297   2.718   3.052   2.107 -1.6190 -0.9354 -0.2508
  100SOL     OW  298   0.166   0.956   2.552 -0.5580  0.3365 -0.2221
  100SOL    HW1  299   0.124   1.024   2.486  0.5337  0.6478  0.2994
  100SOL    HW2  300   0.250   0.999   2.590 -1.5806  1.7485  1.6997
  101SOL     OW  301   1.785   0.657   3.084  0.4232  0.2349 -0.2409
  101SOL    HW1  302   1.817   0.559   3.071  1.3603 -2.8372  2.2521
  101SOL    HW2  303   1.831   0.692   0.078  0.7575  2.5783  3.1730
  102SOL     OW  304   0.249   0.619   1.178 -0.3191 -0.3393  0.2885
  102SOL    HW1  305   0.313   0.536   1.194  1.3491 -0.2970 -0.3396
  102SOL    HW2  306   0.268   0.663   1.083  0.9796  0.8493 -3.3262
  103SOL     OW  307   2.625   0.802   1.893 -0.2173  0.6504  0.0461
  103SOL    HW1  308   2.694   0.731   1.922 -0.4975  0.4856  0.3064
  103SOL    HW2  309   2.650   0.889   1.938  3.4039  0.0948  1.0408
  104SOL     OW  310   0.194   0.295   2.679 -0.2469  0.6829  0.5932
  104SOL    HW1  311   0.194   0.247   2.587 -0.1797 -3.7735  0.7042
  104SOL    HW2  312   0.252   0.239   2.748 -0.3568  0.5507 -0.1794
  105SOL     OW  313   2.041   1.219   1.563  0.3029 -0.0025  0.2787
  105SOL    HW1  314   1.950   1.188   1.599  0.4291 -0.0816  0.5115
  105SOL    HW2  315   2.081   1.293   1.623 -0.9561  2.8643 -0.1451
  106SOL     OW  316   1.095   0.056   0.490  0.0246 -0.2346  0.3042
  106SOL    HW1  317   1.175   0.007   0.441 -3.4998 -1.0995 -1.9420
  106SOL    HW2  318   1.116   0.065   0.591  0.2055 -0.5771 -0.3488
  107SOL     OW  319   0.283   1.610   1.468 -0.0303  0.1780  0.0541
  107SOL    HW1  320   0.384   1.595   1.463 -1.2438 -1.1904 -0.0171
  107SOL    HW2  321   0.253   1.678   1.398  0.4844  0.9229  0.8730
  108SOL     OW  322   0.038   2.713   2.446 -0.1890  0.0041  0.1264
  108SOL    HW1  323   0.119   2.664   2.487  2.6008 -1.3425  1.3219
  108SOL    HW2  324   0.003   2.794   2.493  2.9563  1.2752 -2.4834
  109SOL     OW  325   1.587   0.295   0.129  0.6434 -0.1491 -0.1549
  109SOL    HW1  326   1.528   0.376   0.145  3.0305 -0.2886 -2.1598
  109SOL    HW2  327   1.660   0.323   0.066 -1.4183 -0.3808  0.2980
  110SOL     OW  328   0.454   2.213   2.730  0.7920  0.2435  0.5294
  110SOL    HW1  329   0.417   2.303   2.759  1.3837 -1.2032 -1.7933
  110SOL    HW2  330   0.543   2.226   2.692 -0.8052 -2.6897  1.8665
  111SOL     OW  331   1.405   2.663   2.080  0.2747 -0.9134  0.2448
  111SOL    HW1  332   1.400   2.714   2.172  0.6540  1.2127  3.7500
  111SOL    HW2  333   1.315   2.670   2.027 -0.3021  1.0297  2.1959
  112SOL     OW  334   1.839   2.526   2.644 -0.4026  0.3771  0.1236
  112SOL    HW1  335   1.773   2.557   2.713  0.0805 -0.8950 -1.0978
  112SOL    HW2  336   1.915   2.475   2.690 -0.0277 -0.3110 -0.8387
  113SOL     OW  337   2.048   2.646   2.034 -0.1075 -0.2649 -0.6034
  113SOL    HW1  338   2.037   2.574   2.105 -0.5089  0.1013  0.9607
  113SOL    HW2  339   2.027   2.603   1.941  1.2711 -1.5046 -0.2940
  114SOL     OW  340   2.953   0.845   0.477 -0.2824  0.6468  0.1187
  114SOL    HW1  341   2.975   0.848   0.578  0.3790  0.0081 -1.6334
  114SOL    HW2  342   2.926   0.936   0.439  1.3993 -1.1856 -0.3947
  115SOL     OW  343   0.329   1.194   2.891  0.0364  0.6458  0.0506
  115SOL    HW1  344   0.403   1.235   2.842  0.5350  0.8262  1.5547
  115SOL    HW2  345   0.352   1.095   2.901  1.8192  0.5152  2.8237
  116SOL     OW  346   0.280   1.306   1.952  0.3656 -0.3063 -0.0046
  116SOL    HW1  347   0.309   1.401   1.927 -0.4199  0.1263 -2.5637
  116SOL    HW2  348   0.215   1.320   2.031 -2.6226  1.1110 -1.9071
  117SOL     OW  349   2.671   0.172   0.678  0.3343 -0.2317  0.2188
  117SOL    HW1  350   2.760   0.198   0.724 -3.5498  0.7074  0.7722
  117SOL    HW2  351   2.637   0.247   0.613  1.5109 -0.5646 -0.1632
  118SOL     OW  352   1.271   1.868   1.672 -0.3126 -0.0713  0.0236
  118SOL    HW1  353   1.320   1.776   1.662  2.2202 -4.5680 -0.5177
  118SOL    HW2  354   1.253   1.886   1.774 -2.8737  1.3176  2.4556
  119SOL     OW  355   1.154   2.505   0.257 -0.2505 -0.5944  0.0662
  119SOL    HW1  356   1.083   2.485   0.328  2.5740 -0.3963 -1.3110
  119SOL    HW2  357   1.236   2.454   0.277  1.2652  0.1741 -3.1861
  120SOL     OW  358   0.460   0.967   2.604  0.0817  0.7196  0.5458
  120SOL    HW1  359   0.559   0.997   2.597  4.3440  1.4190  1.6178
  120SOL    HW2  360   0.448   0.893   2.680  0.1973 -2.7476 -0.1320
  121SOL     OW  361   1.987   2.685   1.296 -0.8498 -0.1128 -0.1606
  121SOL    HW1  362   1.976   2.759   1.231 -0.9948 -2.0169  3.2634
  121SOL    HW2  363   2.091   2.672   1.313  2.1070 -0.9604 -0.7183
  122SOL     OW  364   2.408   2.080   1.998  0.8736 -0.3269  0.3255
  122SOL    HW1  365   2.398   2.044   2.094  0.8649 -0.0063  0.2228
  122SOL    HW2  366   2.359   2.167   1.995 -3.8847 -1.7816 -0.8119
  123SOL     OW  367   0.076   3.022   0.609 -0.2485  0.3674  0.1248
  123SOL    HW1  368   0.073   0.020   0.646  3.3872 -0.6299  2.8239
  123SOL    HW2  369   0.168   2.977   0.625  0.6311 -1.0491  1.3955
  124SOL     OW  370   1.897   0.780   2.327 -0.1742 -0.1465  0.0249
  124SOL    HW1  371   1.814   0.824   2.286 -1.3296  1.1670 -0.5941
  124SOL    HW2  372   1.936   0.714   2.257  2.3530 -3.9747 -2.1958
  125SOL     OW  373   0.488   1.498   0.749 -0.3241  0.3604  0.3198
  125SOL    HW1  374   0.517   1.481   0.652 -0.7222 -0.0950 -1.4813
  125SOL    HW2  375   0.450   1.593   0.763 -1.5023 -1.0459  0.1052
  126SOL     OW  376   2.419   1.625   0.642 -0.2057  0.0619 -0.7340
  126SOL    HW1  377   2.509   1.666   0.676  0.7970  2.5495  2.0616
  126SOL    HW2  378   2.343   1.678   0.679  1.5408 -1.1489 -1.4081
  127SOL     OW  379   0.011   2.076   1.604  0.1145 -0.3616  1.1200
  127SOL    HW1  380   3.087   2.129   1.516 -2.0837  0.7763  0.1739
  127SOL    HW2  381   3.065   2.115   1.685  2.1369 -0.2147  0.6418
  128SOL     OW  382   0.808   0.554   2.611 -0.1171 -0.2157 -0.5817
  128SOL    HW1  383   0.901   0.602   2.592  4.1287  1.2518 -1.0483
  128SOL    HW2  384   0.823   0.455   2.624 -0.1611  1.3833 -0.8998
  129SOL     OW  385   2.502   1.014   0.886 -0.4245 -0.1314  0.1145
  129SOL    HW1  386   2.558   0.966   0.816 -1.7598 -0.5537  2.7708
  129SOL    HW2  387   2.450   1.089   0.848  2.1457 -1.0238  1.3075
  130SOL     OW  388   2.456   1.476   1.348  0.7826  0.2540  0.0151
  130SOL    HW1  389   2.466   1.375   1.373  0.3515 -0.4190 -0.2660
  130SOL    HW2  390   2.406   1.524   1.422 -0.6472 -1.9838  0.1519
  131SOL     OW  391   2.708   0.808   2.952  0.4416  0.0563 -0.1355
  131SOL    HW1  392   2.783   0.872   2.977  0.6852  2.4244  0.9417
  131SOL    HW2  393   2.740   0.713   2.928 -0.1893  0.2585  1.0185
  132SOL     OW  394   2.668   2.209   1.939  0.7888 -0.0763 -0.2461
  132SOL    HW1  395   2.572   2.177   1.966 -0.1324  0.1474  2.3625
  132SOL    HW2  396   2.742   2.136   1.957  2.2637 -1.2261  1.0829
  133SOL     OW  397   0.328   1.119   0.974  0.1388 -0.2713  0.1930
  133SOL    HW1  398   0.303   1.172   0.892  2.5851  0.7082 -1.0642
  133SOL    HW2  399   0.377   1.180   1.036  0.6442 -0.5482 -2.0318
  134SOL     OW  400   0.383   1.336   0.081 -0.6500 -0.3912 -0.4642
  134SOL    HW1  401   0.326   1.420   0.108 -0.6626 -1.5325 -1.7775
  134SOL    HW2  402   0.341   1.279   0.008 -2.5981  0.4096 -0.0975
  135SOL     OW  403   2.133   1.588   1.225  0.5453 -0.4336  0.0836
  135SOL    HW1  404   2.180   1.499   1.244  1.5103  1.4617 -0.1440
  135SOL    HW2  405   2.067   1.572   1.149  0.8459  0.6493 -1.2543
  136SOL     OW  406   2.643   0.932   0.666 -0.2681  0.2149  0.2624
  136SOL    HW1  407   2.668   0.981   0.581 -1.1289 -2.6324  2.7988
  136SOL    HW2  408   2.557   0.880   0.644  1.2065 -0.2794  0.0566
  137SOL     OW  409   2.679   1.653   1.016  0.2768  0.1953  0.3383
  137SOL    HW1  410   2.667   1.729   1.085  2.6817 -1.1312  0.3849
  137SOL    HW2  411   2.595   1.595   1.008 -0.9814  0.0661 -2.2849
  138SOL     OW  412   1.699   0.530   1.365  0.2810  0.2454 -0.3152
  138SOL    HW1  413   1.738   0.442   1.363 -0.1440  3.9654  3.7236
  138SOL    HW2  414   1.681   0.547   1.463 -0.7141  0.4735 -2.1056
  139SOL     OW  415   2.238   0.190   2.773  0.0570  0.4779  0.4446
  139SOL    HW1  416   2.172   0.265   2.800 -1.2241  0.1741  2.7744
  139SOL    HW2  417   2.231   0.114   2.838 -0.4251  1.9839 -1.3259
  140SOL     OW  418   1.709   1.762   2.128 -0.4297  0.4052  0.0056
  140SOL    HW1  419   1.782   1.784   2.193 -0.8804 -2.1744 -0.0422
  140SOL    HW2  420   1.748   1.714   2.049 -1.8241  0.9557 -1.1738
  141SOL     OW  421   1.946   1.912   0.956  0.3860  0.1079 -0.9611
  141SOL    HW1  422   1.990   1.972   1.027  1.5552  2.6436  1.1942
  141SOL    HW2  423   1.868   1.865   1.003 -0.5694  1.8414 -1.0886
  142SOL     OW  424   3.043   0.729   0.078  0.2210 -0.0460 -0.0145
  142SOL    HW1  425   3.084   0.655   0.029  1.0482  1.8247 -0.0885
  142SOL    HW2  426   3.084   0.733   0.171 -0.4468  0.2731  0.1748
  143SOL     OW  427   0.280   2.146   2.966  0.0473  0.4414 -0.2300
  143SOL    HW1  428   0.297   2.058   3.011 -0.5023  0.4518 -1.0925
  143SOL    HW2  429   0.346   2.165   2.891  0.5400 -3.1123 -0.4309
  144SOL     OW  430   0.883   2.920   1.860 -0.2403  0.3081  0.0493
  144SOL    HW1  431   0.926   2.954   1.773  2.0620  2.6712 -1.5029
  144SOL    HW2  432   0.934   2.842   1.898 -2.4141  1.4936 -1.5351
  145SOL     OW  433   2.190   1.411   0.308 -0.3658 -0.2218  0.4915
  145SOL    HW1  434   2.125   1.487   0.288  2.4951 -1.0414  0.4234
  145SOL    HW2  435   2.267   1.414   0.234 -1.5219 -2.3447 -1.2964
  146SOL     OW  436   2.447   2.653   2.988 -0.0883 -0.1402  0.0068
  146SOL    HW1  437   2.542   2.668   2.955 -1.6096  1.3358  1.5102
  146SOL    HW2  438   2.375   2.653   2.911  1.1560 -2.0747 -0.2283
  147SOL     OW  439   2.683   2.804   1.112  0.3380  0.5524 -0.9094
  147SOL    HW1  440   2.700   2.873   1.185 -0.8122 -0.0870 -0.5412
  147SOL    HW2  441   2.593   2.823   1.070  0.1256  1.4159  1.2540
  148SOL     OW  442   1.586   2.944   2.462 -0.2320 -0.7345 -0.0613
  148SOL    HW1  443   1.668   2.892   2.489 -2.4619  0.6061 -1.0072
  148SOL    HW2  444   1.537   2.981   2.540  1.9557 -0.5751 -1.2721
  149SOL     OW  445   1.127   0.411   2.494 -0.3972  0.2435 -0.6587
  149SOL    HW1  446   1.209   0.362   2.454  0.4836 -0.9419  0.7489
  149SOL    HW2  447   1.039   0.367   2.467 -1.2550  0.1211 -1.4642
  150SOL     OW  448   0.961   2.817   0.735  0.1133  0.0458  0.3738
  150SOL    HW1  449   0.879   2.850   0.785 -1.1433 -0.7301  0.7553
  150SOL    HW2  450   1.050   2.857   0.777  3.2479 -0.5450 -0.1583
  151SOL     OW  451   2.923   1.775   0.205 -0.1397  1.3502  0.3238
  151SOL    HW1  452   2.828   1.792   0.176 -0.6003 -0.2017  0.7471
  151SOL    HW2  453   2.980   1.717   0.145  0.0072  2.2747 -0.5149
  152SOL     OW  454   0.127   1.014   0.555  1.5931  0.7292 -0.6472
  152SOL    HW1  455   0.195   1.078   0.521 -1.2238 -1.0924 -1.2050
  152SOL    HW2  456   0.173   0.929   0.590  0.0689 -3.5099  1.5299
  153SOL     OW  457   2.232   3.088   0.363 -0.2025 -0.3383  0.1919
  153SOL    HW1  458   2.247   0.097   0.381 -1.0361  1.7384 -0.6567
  153SOL    HW2  459   2.136   3.064   0.332 -0.1011  0.3618 -0.7867
  154SOL     OW  460   0.783   0.672   1.467  0.9603 -0.3873 -0.1448
  154SOL    HW1  461   0.782   0.729   1.382 -2.5784 -1.0577  0.8707
  154SOL    HW2  462   0.732   0.718   1.539  1.4488 -0.5871 -0.7604
  155SOL     OW  463   3.001   1.943   1.045  0.1335 -0.0688 -0.4975
  155SOL    HW1  464   2.953   1.855   1.060  0.3046  0.4041 -2.8181
  155SOL    HW2  465   2.992   1.966   0.944  1.0482 -0.0523 -0.7140
  156SOL     OW  466   2.270   2.083   0.122  0.5661  0.3638 -0.1708
  156SOL    HW1  467   2.315   2.070   0.213 -1.5518 -2.7900 -0.9018
  156SOL    HW2  468   2.341   2.084   0.046  1.9955 -0.9489 -2.1505
  157SOL     OW  469   1.067   2.848   1.060 -0.1440  0.1914  0.2858
  157SOL    HW1  470   0.976   2.815   1.079  0.7180  0.5372 -1.9700
  157SOL    HW2  471   1.140   2.780   1.091  2.3566 -0.8554  4.0537
  158SOL     OW  472   2.430   0.671   2.626  0.7035  0.0726  0.4652
  158SOL    HW1  473   2.339   0.689   2.581  4.2194  0.6508 -0.5034
  158SOL    HW2  474   2.493   0.737   2.590 -1.8346 -2.3343  1.1912
  159SOL     OW  475   0.607   0.318   0.173  0.7019 -0.6052  0.1968
  159SOL    HW1  476   0.525   0.362   0.131 -1.6872  0.4071 -0.7951
  159SOL    HW2  477   0.676   0.282   0.102 -1.1913  0.2672  0.1576
  160SOL     OW  478   1.216   1.920   0.113 -0.0645  0.0047  0.0133
  160SOL    HW1  479   1.255   1.967   0.028 -0.3053  1.6290 -3.2320
  160SOL    HW2  480   1.228   1.982   0.192 -1.6007 -0.7671 -1.2357
  161SOL     OW  481   2.976   1.889   2.800 -0.6511  0.0098  0.2015
  161SOL    HW1  482   3.044   1.961   2.773 -0.1467 -0.2555  1.6261
  161SOL    HW2  483   2.924   1.920   2.884 -1.9430 -0.1780 -0.7987
  162SOL     OW  484   0.367   2.835   1.438 -0.2662 -0.5668  0.3347
  162SOL    HW1  485   0.343   2.749   1.482  0.8563 -0.3009 -1.7281
  162SOL    HW2  486   0.301   2.860   1.364  1.6848  0.3743 -2.4202
  163SOL     OW  487   2.092   0.413   2.828  0.1197  0.4794  0.4933
  163SOL    HW1  488   2.178   0.461   2.843 -2.2924 -0.6723  0.8820
  163SOL    HW2  489   2.038   0.450   2.749 -0.7037 -1.1415  0.2402
  164SOL     OW  490   2.932   2.093   0.788  0.1732  0.0279  0.3221
  164SOL    HW1  491   3.027   2.079   0.749  2.3052  0.4553  2.1755
  164SOL    HW2  492   2.915   2.194   0.804  1.8543  1.1298 -1.0576
  165SOL     OW  493   2.679   3.068   1.684  0.2728  0.1808  0.2897
  165SOL    HW1  494   2.745   0.052   1.652  4.0437  2.4345 -3.1146
  165SOL    HW2  495   2.610   3.050   1.611  1.7383  0.8731  1.3991
  166SOL     OW  496   2.342   0.304   0.670  0.1993 -0.0122 -0.3043
  166SOL    HW1  497   2.305   0.396   0.693 -0.3113 -0.5707  0.5329
  166SOL    HW2  498   2.348   0.249   0.757 -2.5518  0.4155 -0.6923
  167SOL     OW  499   0.496   0.499   0.970  0.2752  0.4126 -0.1415
  167SOL    HW1  500   0.576   0.523   1.030  1.5998  0.3598 -2.3017
  167SOL    HW2  501   0.536   0.438   0.897  0.3711 -0.9800  0.6980
  168SOL     OW  502   2.021   3.016   1.985  0.2606 -0.3722  0.1550
  168SOL    HW1  503   1.939   2.968   2.025 -2.1581 -3.3344  1.2336
  168SOL    HW2  504   2.111   2.973   2.005 -3.2766  1.9107  2.1894
  169SOL     OW  505   0.345   1.238   0.711 -0.0557 -0.1898 -0.8351
  169SOL    HW1  506   0.364   1.332   0.748 -1.7107  0.2986  1.9008
  169SOL    HW2  507   0.327   1.243   0.609 -0.1756  1.9647 -3.5501
  170SOL     OW  508   2.563   0.947   1.137  0.0004  0.3710  0.5032
  170SOL    HW1  509   2.539   0.941   1.035 -1.7858 -0.9858 -0.1933
  170SOL    HW2  510   2.480   0.939   1.195 -1.8045  0.0468  2.0451
  171SOL     OW  511   1.136   2.456   1.662  0.2219  0.4779  0.4682
  171SOL    HW1  512   1.139   2.357   1.627  0.9866  0.1294  1.5827
  171SOL    HW2  513   1.090   2.512   1.589  2.2454  1.5532 -0.3752
  172SOL     OW  514   0.185   2.606   1.341  0.3456 -0.2928  0.2987
  172SOL    HW1  515   0.212   2.514   1.374  1.1769 -0.6323 -0.7048
  172SOL    HW2  516   0.088   2.624   1.365  0.4983  2.8595 -2.1089
  173SOL     OW  517   1.232   0.230   2.994  0.6184 -0.3752  0.4482
  173SOL    HW1  518   1.236   0.168   2.915  0.8732  0.4739  0.9235
  173SOL    HW2  519   1.248   0.323   2.955 -1.3667  0.0492 -3.2436
  174SOL     OW  520   1.427   2.928   2.702 -0.2018 -0.3685  0.0799
  174SOL    HW1  521   1.322   2.924   2.702 -2.5296  1.2868 -0.1918
  174SOL    HW2  522   1.456   2.976   2.787  1.1375 -1.3348 -1.7461
  175SOL     OW  523   1.673   2.742   3.079 -0.1992  0.6688 -0.2915
  175SOL    HW1  524   1.660   2.845   3.084  0.0396  0.7157 -0.8212
  175SOL    HW2  525   1.604   2.697   0.045 -0.5002  0.0337  2.0699
  176SOL     OW  526   1.633   0.183   2.754  0.2079  0.1918  0.2780
  176SOL    HW1  527   1.702   0.119   2.715 -0.8321 -0.2243 -2.3479
  176SOL    HW2  528   1.537   0.152   2.723 -2.5141 -0.6502  0.2682
  177SOL     OW  529   0.929   1.486   0.522  0.2728 -0.3074  0.0391
  177SOL    HW1  530   0.838   1.532   0.509  0.1500  0.6583 -0.0152
  177SOL    HW2  531   0.978   1.542   0.594 -0.5949  1.2505 -0.1450
  178SOL     OW  532   3.083   1.507   2.365 -0.1817 -0.0124  0.4528
  178SOL    HW1  533   0.022   1.476   2.272 -0.0274  1.6389  1.7491
  178SOL    HW2  534   3.013   1.449   2.404  1.1591  2.2250 -0.2775
  179SOL     OW  535   0.698   2.468   2.833 -0.1251  0.0026  0.6075
  179SOL    HW1  536   0.729   2.420   2.752 -2.5486 -0.0298 -0.3131
  179SOL    HW2  537   0.679   2.570   2.817 -1.2848  0.1500  0.5277
  180SOL     OW  538   1.915   1.831   1.662 -0.5823 -0.1837 -0.0942
  180SOL    HW1  539   1.922   1.793   1.755  0.2269  0.6686 -0.6611
  180SOL    HW2  540   1.822   1.856   1.635  1.6243 -0.6232  0.4980
  181SOL     OW  541   1.250   1.154   2.328  0.4085 -0.1806  0.1236
  181SOL    HW1  542   1.302   1.094   2.388  1.8443  1.1535 -3.6579
  181SOL    HW2  543   1.249   1.255   2.358 -1.0765 -1.4640 -1.7442
  182SOL     OW  544   2.938   0.211   2.654 -0.0701 -0.4253 -0.0409
  182SOL    HW1  545   2.856   0.158   2.680 -0.6176  1.3229  0.3580
  182SOL    HW2  546   3.025   0.163   2.652 -3.0248  2.7945  1.1972
  183SOL     OW  547   1.102   0.453   2.789  0.0717 -0.0121 -0.3336
  183SOL    HW1  548   1.094   0.461   2.685  0.3573  0.3076 -1.6296
  183SOL    HW2  549   1.192   0.488   2.818  0.5824 -2.1068 -1.1531
  184SOL     OW  550   0.941   1.213   1.375 -0.2199 -0.0908 -0.2072
  184SOL    HW1  551   0.895   1.133   1.415 -0.3835  2.2809 -0.6594
  184SOL    HW2  552   0.913   1.222   1.273  0.1468  1.0248 -1.8946
  185SOL     OW  553   2.680   1.251   1.213 -0.3311 -0.6069  0.1591
  185SOL    HW1  554   2.761   1.263   1.274 -0.0425  1.2027  0.3204
  185SOL    HW2  555   2.606   1.199   1.259 -1.2781 -0.5378 -1.2424
  186SOL     OW  556   0.815   1.596   2.580 -0.2307 -0.3065 -0.2450
  186SOL    HW1  557   0.867   1.509   2.570 -0.4115  0.6573 -0.4697
  186SOL    HW2  558   0.729   1.596   2.524  0.3009 -0.7298 -1.7033
  187SOL     OW  559   2.430   1.405   0.155 -0.4583 -0.1537  0.1169
  187SOL    HW1  560   2.378   1.364   0.080 -1.3362  0.2259  2.2500
  187SOL    HW2  561   2.492   1.332   0.194  1.5630  1.5389 -1.1517
  188SOL     OW  562   0.060   2.048   0.638 -0.1458  0.4891  0.8942
  188SOL    HW1  563   0.148   2.099   0.632 -0.3439 -1.7098 -1.8777
  188SOL    HW2  564   0.069   1.950   0.605 -0.3225  2.6572 -1.6640
  189SOL     OW  565   2.534   0.720   0.153 -0.3672  0.6078  0.6749
  189SOL    HW1  566   2.632   0.692   0.150 -0.7319 -2.5634 -0.7843
  189SOL    HW2  567   2.493   0.724   0.054 -0.9330 -0.0722 -3.6358
  190SOL     OW  568   1.163   1.413   2.323 -0.2314  0.2876 -0.2535
  190SOL    HW1  569   1.247   1.435   2.269 -2.4580 -1.2626  1.0334
  190SOL    HW2  570   1.108   1.501   2.338  0.7202  0.3280 -0.6978
  191SOL     OW  571   2.281   0.257   1.908 -0.1728 -0.0048 -0.5259
  191SOL    HW1  572   2.375   0.295   1.927  3.5880  0.8579  1.8144
  191SOL    HW2  573   2.283   0.203   1.824  0.4674  0.2418  1.8209
  192SOL     OW  574   1.675   0.530   1.627 -0.5739  0.2545 -0.2181
  192SOL    HW1  575   1.757   0.516   1.687  1.1684  2.4608  2.2781
  192SOL    HW2  576   1.617   0.449   1.641  3.0540 -0.1719  1.1821
  193SOL     OW  577   0.706   0.658   0.608 -0.1033  0.4321  0.3665
  193SOL    HW1  578   0.706   0.665   0.711  0.4698  2.3031  0.3025
  193SOL    HW2  579   0.724   0.744   0.560 -2.5681 -1.7089  2.4809
  194SOL     OW  580   1.576   2.892   1.093 -0.5442 -0.1322 -0.2783
  194SOL    HW1  581   1.536   2.862   1.008 -0.4691  0.0552  0.1953
  194SOL    HW2  582   1.530   2.851   1.177 -0.1695  1.0591  1.2744
  195SOL     OW  583   2.338   0.703   0.358  0.1414 -0.6211 -0.7431
  195SOL    HW1  584   2.285   0.619   0.380  3.9551  0.0384 -0.8263
  195SOL    HW2  585   2.394   0.683   0.275  1.1782 -1.6441 -1.1978
  196SOL     OW  586   1.094   1.754   1.498  0.3158 -0.1453  0.0659
  196SOL    HW1  587   1.154   1.685   1.450 -2.2440  2.0171  1.0563
  196SOL    HW2  588   1.143   1.808   1.572  2.3351 -0.6037 -0.6218
  197SOL     OW  589   0.295   2.888   0.082  0.4998 -0.5180  0.1927
  197SOL    HW1  590   0.194   2.892   0.094  0.3451  2.0671  1.4304
  197SOL    HW2  591   0.337   2.808   0.128  1.1420  0.2411  0.1413
  198SOL     OW  592   0.967   1.325   0.779 -0.5050  0.1300 -0.2358
  198SOL    HW1  593   0.938   1.330   0.683 -1.9373 -1.8401  1.7462
  198SOL    HW2  594   0.915   1.391   0.843 -1.0453  1.5785  2.4476
  199SOL     OW  595   3.020   0.405   1.821  0.0395 -0.3448  0.1740
  199SOL    HW1  596   2.920   0.428   1.800  0.3533  1.6383  1.9256
  199SOL    HW2  597   3.076   0.413   1.734  1.4109  1.3125  0.7192
  200SOL     OW  598   2.165   2.201   2.685 -0.4760 -0.2429 -0.1524
  200SOL    HW1  599   2.175   2.130   2.765  1.3230 -3.1468  1.7004
  200SOL    HW2  600   2.112   2.281   2.710  1.1795 -1.1344  0.0498
  201SOL     OW  601   2.619   2.973   0.720 -0.3111  0.1768 -0.0922
  201SOL    HW1  602   2.634   3.071   0.740  0.8957  2.0751  0.8306
  201SOL    HW2  603   2.688   2.929   0.656  3.3857 -1.9594 -0.3720
  202SOL     OW  604   2.786   0.633   0.138 -0.1858  0.5769 -0.3547
  202SOL    HW1  605   2.855   0.704   0.116 -1.9010 -2.2568  0.9219
  202SOL    HW2  606   2.809   0.544   0.087  0.4181  0.0406 -1.2380
  203SOL     OW  607   1.399   1.452   2.179 -0.5562  0.1838  0.3703
  203SOL    HW1  608   1.439   1.396   2.103 -0.4426  0.1427 -1.2193
  203SOL    HW2  609   1.435   1.419   2.264 -1.4187  1.3505 -1.0278
  204SOL     OW  610   0.876   1.562   2.108 -0.3532 -0.0960 -0.5169
  204SOL    HW1  611   0.887   1.464   2.105 -3.1394  1.6316  1.3351
  204SOL    HW2  612   0.782   1.579   2.093  0.9763  1.1980 -0.5142
  205SOL     OW  613   1.277   2.050   1.479  0.1440  0.4629  0.6686
  205SOL    HW1  614   1.290   1.986   1.558 -2.5918  0.5489 -1.6338
  205SOL    HW2  615   1.361   2.097   1.446 -2.0403 -0.9044 -0.5110
  206SOL     OW  616   0.072   0.565   2.700 -0.7051  0.0062  0.1732
  206SOL    HW1  617   0.096   0.466   2.692 -1.6663  1.1698 -0.8887
  206SOL    HW2  618   0.088   0.618   2.617 -2.2599 -0.6760  0.8155
  207SOL     OW  619   1.798   2.855   2.077  0.3365 -0.1889  0.5625
  207SOL    HW1  620   1.749   2.771   2.044 -0.5240 -0.2900 -0.6686
  207SOL    HW2  621   1.856   2.833   2.154 -0.8076  1.7773 -3.2643
  208SOL     OW  622   0.298   2.317   1.842 -0.1338  0.2225 -0.2351
  208SOL    HW1  623   0.292   2.250   1.766  0.5965 -0.3546 -0.6702
  208SOL    HW2  624   0.366   2.388   1.812 -1.1643 -0.9479 -0.0919
  209SOL     OW  625   1.864   0.920   2.699  0.4326  0.3926 -0.5048
  209SOL    HW1  626   1.794   0.968   2.639 -0.2562  1.0896 -1.1094
  209SOL    HW2  627   1.825   0.837   2.742  2.9073 -0.1376  1.4709
  210SOL     OW  628   2.611   0.590   0.754 -0.6857 -0.9141 -0.4044
  210SOL    HW1  629   2.563   0.681   0.742  1.2358  1.1907  0.3071
  210SOL    HW2  630   2.610   0.533   0.671  0.4622  2.0095  1.1153
  211SOL     OW  631   0.754   0.708   0.872 -0.0831 -0.3116  0.3966
  211SOL    HW1  632   0.829   0.773   0.898  0.4161 -0.7655 -1.0439
  211SOL    HW2  633   0.749   0.633   0.937 -2.0690 -1.8342 -2.5602
  212SOL     OW  634   1.263   1.576   0.419 -0.0193 -0.2629 -0.5005
  212SOL    HW1  635   1.201   1.496   0.396 -0.6514  0.3095  3.3501
  212SOL    HW2  636   1.301   1.621   0.335  0.8836 -0.0444  1.9471
  213SOL     OW  637   1.276   2.930   1.722  0.2063  0.1083 -0.4697
  213SOL    HW1  638   1.354   2.982   1.679  1.7216  1.6170 -0.0633
  213SOL    HW2  639   1.204   2.986   1.762 -1.2160 -1.4740 -3.4478
  214SOL     OW  640   1.503   1.332   2.394  1.0514 -0.1935  0.1567
  214SOL    HW1  641   1.477   1.281   2.477 -2.7588  2.3555 -0.3117
  214SOL    HW2  642   1.595   1.375   2.401 -1.4787  0.0306  2.1695
  215SOL     OW  643   0.374   1.677   1.066  0.7379  0.0500 -0.6468
  215SOL    HW1  644   0.316   1.598   1.094  2.2172 -0.6570 -1.6755
  215SOL    HW2  645   0.364   1.688   0.965  2.5956  2.7015 -2.9098
  216SOL     OW  646   0.636   2.874   2.416 -0.0487 -0.0750  0.2352
  216SOL    HW1  647   0.609   2.933   2.335  1.9865  2.3146 -1.9597
  216SOL    HW2  648   0.693   2.929   2.481 -0.0629 -0.8283 -0.8479
  217SOL     OW  649   2.410   0.788   3.011  0.4719 -0.6185  0.2974
  217SOL    HW1  650   2.354   0.729   2.950 -1.3378 -0.8320  0.1908
  217SOL    HW2  651   2.495   0.827   2.970  0.7005 -0.0503  0.3160
  218SOL     OW  652   2.197   1.709   2.167 -0.1474 -0.0487 -0.5488
  218SOL    HW1  653   2.206   1.702   2.268 -1.4115  4.4617  2.2520
  218SOL    HW2  654   2.282   1.745   2.128  2.2699  1.0546 -0.4618
  219SOL     OW  655   1.596   1.098   0.259  0.0674 -0.1920 -0.1027
  219SOL    HW1  656   1.634   1.091   0.171 -1.0294  1.5216  3.1300
  219SOL    HW2  657   1.619   1.191   0.300  2.1686 -2.2017  1.9270
  220SOL     OW  658   1.521   1.782   0.948  0.1750 -0.4451  0.3633
  220SOL    HW1  659   1.502   1.848   0.875 -0.5693 -0.2972 -0.7446
  220SOL    HW2  660   1.433   1.748   0.986  2.0595 -0.5317 -0.9050
  221SOL     OW  661   0.173   0.648   2.931 -0.2025 -0.3075  0.4148
  221SOL    HW1  662   0.274   0.650   2.912  1.1663  2.9373  1.3849
  221SOL    HW2  663   0.120   0.623   2.850  2.1101 -0.9609  1.1975
  222SOL     OW  664   1.117   2.165   1.650  0.5152 -0.0742 -0.0493
  222SOL    HW1  665   1.165   2.110   1.575  2.4409 -2.9099 -1.9930
  222SOL    HW2  666   1.181   2.188   1.727 -1.7803  0.0799 -1.8510
  223SOL     OW  667   1.505   2.648   2.635  0.4650  0.7610 -0.0496
  223SOL    HW1  668   1.550   2.605   2.716 -1.5286  2.1264  1.9621
  223SOL    HW2  669   1.493   2.747   2.643 -2.2910 -1.8844 -1.9105
  224SOL     OW  670   2.608   1.281   0.967  0.3829 -0.3519 -0.0372
  224SOL    HW1  671   2.644   1.280   1.061 -0.6627 -0.3509 -0.9460
  224SOL    HW2  672   2.614   1.185   0.925 -0.7067 -2.0802 -0.1977
  225SOL     OW  673   1.220   1.305   1.344  0.0028  0.2617 -0.1605
  225SOL    HW1  674   1.121   1.274   1.345 -1.9637  1.2615  1.2534
  225SOL    HW2  675   1.274   1.240   1.396 -1.4531  0.5320  0.7894
  226SOL     OW  676   1.659   2.590   2.849  0.0068 -0.0231  0.1075
  226SOL    HW1  677   1.663   2.641   2.934 -2.6192  0.8297  0.3856
  226SOL    HW2  678   1.620   2.496   2.867  1.4571 -2.6520 -1.1345
  227SOL     OW  679   0.806   2.151   0.986 -0.1297  0.0617 -0.3833
  227SOL    HW1  680   0.713   2.135   1.019  1.2168 -1.0926 -1.7874
  227SOL    HW2  681   0.850   2.220   1.048 -1.1150  3.8190 -1.4590
  228SOL     OW  682   0.231   2.177   1.289 -0.2281 -0.1835 -0.4133
  228SOL    HW1  683   0.139   2.211   1.319  0.8023  0.0383 -1.3276
  228SOL    HW2  684   0.225   2.109   1.213 -1.7013  0.8138 -3.3504
  229SOL     OW  685   2.087   0.859   3.063  0.1253 -0.3181 -0.1697
  229SOL    HW1  686   2.162   0.918   0.007 -1.5722  2.3648 -1.3678
  229SOL    HW2  687   2.032   0.813   0.045  0.0431 -1.0679  1.7875
  230SOL     OW  688   1.025   1.148   1.924 -0.3574  0.1515 -0.2772
  230SOL    HW1  689   0.974   1.227   1.967  0.4732  2.8824  1.2784
  230SOL    HW2  690   1.052   1.080   1.997 -1.9319  1.6502  0.0503
  231SOL     OW  691   1.578   1.980   2.005  0.1747 -0.1267 -0.0639
  231SOL    HW1  692   1.643   1.917   2.045  0.2979  1.8623 -0.9824
  231SOL    HW2  693   1.483   1.961   2.043 -3.5677  0.1678  1.0578
  232SOL     OW  694   2.078   2.233   1.391  0.0063  0.1084  0.2599
  232SOL    HW1  695   2.058   2.200   1.481  0.0204  0.0352 -5.2422
  232SOL    HW2  696   2.011   2.303   1.363 -1.1532 -1.6290  0.6219
  233SOL     OW  697   1.822   2.496   2.383  0.6132  0.5012  0.3606
  233SOL    HW1  698   1.812   2.547   2.472  1.2319  0.5088  0.7381
  233SOL    HW2  699   1.920   2.512   2.350  1.5153  0.2041 -1.6381
  234SOL     OW  700   1.110   0.034   2.835 -0.1073 -0.1885 -0.5688
  234SOL    HW1  701   1.122   3.059   2.762 -0.2132  2.8524  0.5408
  234SOL    HW2  702   1.086   3.079   2.923 -0.8465  0.7838 -1.4519
  235SOL     OW  703   2.349   2.898   3.072  0.5289 -0.4394 -0.1742
  235SOL    HW1  704   2.420   2.825   3.062  1.7062  0.4607 -1.4093
  235SOL    HW2  705   2.383   2.963   0.053  3.8386 -0.1358  2.3297
  236SOL     OW  706   2.189   2.841   2.447 -0.1533 -0.1550 -0.4283
  236SOL    HW1  707   2.250   2.768   2.412 -0.8164  1.1470 -0.4745
  236SOL    HW2  708   2.235   2.910   2.505 -0.3384 -0.7763 -3.3966
  237SOL     OW  709   1.500   1.042   1.709  0.7760 -0.2648  0.3785
  237SOL    HW1  710   1.485   0.941   1.712 -1.5701  0.9267 -1.8740
  237SOL    HW2  711   1.453   1.086   1.634 -2.9237  0.3533 -1.4072
  238SOL     OW  712   2.256   0.105   2.171  0.1236 -0.1215 -0.2403
  238SOL    HW1  713   2.267   0.156   2.081  1.7610 -2.7532 -2.8858
  238SOL    HW2  714   2.282   0.007   2.166  0.7834 -0.5200  2.2928
  239SOL     OW  715   0.587   1.586   2.097 -0.3097  0.9687 -0.0788
  239SOL    HW1  716   0.504   1.555   2.049 -1.5267  0.6040  0.7937
  239SOL    HW2  717   0.578   1.686   2.112 -0.1894 -0.6949 -1.0612
  240SOL     OW  718   3.072   2.551   0.653 -0.5027  0.2405 -0.0818
  240SOL    HW1  719   0.046   2.493   0.709 -2.5041 -0.8694 -0.1201
  240SOL    HW2  720   2.977   2.523   0.673  0.7463  1.2015  0.8846
  241SOL     OW  721   1.684   2.089   0.780  0.1960 -0.3762  0.0733
  241SOL    HW1  722   1.737   2.009   0.804 -1.8749  0.2951  1.5316
  241SOL    HW2  723   1.693   2.101   0.681  0.9100 -1.0629 -0.5595
  242SOL     OW  724   1.337   1.712   2.930 -0.1768  0.1307  0.3495
  242SOL    HW1  725   1.403   1.682   3.003  1.2079 -0.1047 -1.4780
  242SOL    HW2  726   1.319   1.812   2.937  0.5176 -0.0973  0.5216
  243SOL     OW  727   0.968   2.724   2.275 -0.1958  0.0059 -0.0669
  243SOL    HW1  728   0.908   2.736   2.352  0.7310 -2.3497 -1.6189
  243SOL    HW2  729   0.980   2.625   2.254 -2.0351  0.1301  1.0679
  244SOL     OW  730   1.824   0.008   2.647  0.1575 -0.1952 -0.5594
  244SOL    HW1  731   1.854   3.004   2.618 -0.7664  0.4506  0.4811
  244SOL    HW2  732   1.899   0.074   2.624 -2.7229 -3.1584 -1.4135
  245SOL     OW  733   1.376   2.883   0.656  0.2568 -0.3599  0.1329
  245SOL    HW1  734   1.355   2.846   0.561  1.6181  3.4115 -0.8304
  245SOL    HW2  735   1.293   2.887   0.713 -0.4226  3.0907 -1.7935
  246SOL     OW  736   1.051   2.976   3.032  0.8920 -0.3504 -0.4012
  246SOL    HW1  737   0.956   2.944   3.019  0.1495  0.8195 -1.0363
  246SOL    HW2  738   1.064   2.972   0.041 -1.8389 -2.2730  2.7947
  247SOL     OW  739   0.116   0.552   1.946  0.4391 -0.2571  0.5186
  247SOL    HW1  740   0.042   0.486   1.916 -1.3281 -0.9931 -3.2479
  247SOL    HW2  741   0.202   0.501   1.956 -1.4382 -0.0184 -0.9252
  248SOL     OW  742   0.661   1.121   2.021 -0.2018  0.1640  0.2398
  248SOL    HW1  743   0.695   1.035   2.064 -0.3981 -2.3660  1.9602
  248SOL    HW2  744   0.601   1.174   2.086 -0.7854  1.2241 -0.6912
  249SOL     OW  745   2.245   0.509   0.143 -0.2993 -0.1893 -0.1700
  249SOL    HW1  746   2.162   0.452   0.115 -3.7078  0.3256 -2.2762
  249SOL    HW2  747   2.252   0.587   0.079  0.1532 -0.4926 -1.7326
  250SOL     OW  748   0.539   0.142   0.583  0.2846 -0.3673 -0.0588
  250SOL    HW1  749   0.534   0.044   0.611 -2.1480  1.2961  0.7216
  250SOL    HW2  750   0.597   0.162   0.504 -1.9197 -1.4779 -0.0673
  251SOL     OW  751   1.373   0.160   2.673  0.0269  0.1620  0.0248
  251SOL    HW1  752   1.285   0.133   2.721 -2.2830  1.8005  0.3727
  251SOL    HW2  753   1.359   0.189   2.574 -1.0850 -0.8251 -2.2648
  252SOL     OW  754   1.747   1.428   2.351  0.4316  0.3355 -0.8752
  252SOL    HW1  755   1.794   1.342   2.374  1.1176  1.2970  0.9369
  252SOL    HW2  756   1.817   1.491   2.321 -3.0777  0.7984  0.8713
  253SOL     OW  757   2.276   2.318   1.993 -0.2129 -0.1590 -0.0756
  253SOL    HW1  758   2.330   2.397   2.025 -1.6271 -2.5410 -1.2729
  253SOL    HW2  759   2.241   2.329   1.896  1.3621  2.2756 -1.1942
  254SOL     OW  760   0.895   2.016   1.668 -0.6062 -0.4355 -0.0025
  254SOL    HW1  761   0.862   1.993   1.571 -2.8603 -0.4845 -0.0221
  254SOL    HW2  762   0.978   2.082   1.672  1.4337  1.2110 -0.7577
  255SOL     OW  763   1.078   1.105   0.853  0.3009 -0.2396  0.2763
  255SOL    HW1  764   1.142   1.148   0.921  1.3612 -1.9210 -1.7069
  255SOL    HW2  765   1.017   1.183   0.822 -2.3848  2.0083 -2.0903
  256SOL     OW  766   1.856   1.948   2.278  0.5838 -0.5936  0.3642
  256SOL    HW1  767   1.920   1.991   2.207  3.5680 -1.7321 -2.2890
  256SOL    HW2  768   1.912   1.902   2.349 -1.0883  0.2887  1.0599
  257SOL     OW  769   0.577   2.315   3.025  0.2153 -0.2921  0.3781
  257SOL    HW1  770   0.612   2.380   2.954 -1.2355  1.0425 -0.6911
  257SOL    HW2  771   0.488   2.343   3.066 -0.1297  3.1901  1.0526
  258SOL     OW  772   0.662   0.224   2.133  0.1894 -0.1862 -0.0716
  258SOL    HW1  773   0.764   0.206   2.141  1.8498 -1.3705 -2.0497
  258SOL    HW2  774   0.652   0.292   2.057 -1.7689 -1.4231 -2.2332
  259SOL     OW  775   0.932   0.237   2.185 -0.1791  0.1912  0.1575
  259SOL    HW1  776   0.988   0.168   2.137 -0.7510  2.6202  0.4980
  259SOL    HW2  777   0.973   0.332   2.173  1.3840 -1.0032  1.8875
  260SOL     OW  778   1.464   0.752   0.997 -0.1921  0.1145  0.2940
  260SOL    HW1  779   1.539   0.806   0.956  0.6129 -2.3301  0.4358
  260SOL    HW2  780   1.379   0.794   0.964  2.3557  1.9701  4.1787
  261SOL     OW  781   0.596   0.011   2.773 -0.0299 -0.2464 -0.1604
  261SOL    HW1  782   0.582   3.088   2.876 -0.9065 -2.4814  3.3762
  261SOL    HW2  783   0.554   0.097   2.733 -0.9032  0.1699  0.0538
  262SOL     OW  784   2.401   2.934   2.259  0.3068  0.3755  1.0764
  262SOL    HW1  785   2.465   2.979   2.190 -0.4761 -1.6638  1.2200
  262SOL    HW2  786   2.370   3.003   2.326 -1.8175 -0.1360 -0.0715
  263SOL     OW  787   0.423   2.002   2.499 -0.5184 -0.2536 -0.1034
  263SOL    HW1  788   0.412   2.085   2.554  0.3001  1.3834 -0.1344
  263SOL    HW2  789   0.368   1.930   2.545  1.6063 -0.6816  1.9111
  264SOL     OW  790   0.787   1.257   1.164  0.0694 -0.2516 -0.5626
  264SOL    HW1  791   0.807   1.352   1.149 -1.1515  1.8100  1.4092
  264SOL    HW2  792   0.771   1.205   1.076  0.7180  0.1345  1.1772
  265SOL     OW  793   0.323   1.928   0.015  0.8663  0.2874 -0.6087
  265SOL    HW1  794   0.296   1.847   3.051 -2.1758 -1.2826 -2.9378
  265SOL    HW2  795   0.419   1.906   0.038  1.5043  0.5001 -0.7640
  266SOL     OW  796   1.190   1.141   0.361 -0.0175  0.2640 -0.4663
  266SOL    HW1  797   1.280   1.161   0.414  0.1466  2.2800  0.4279
  266SOL    HW2  798   1.123   1.098   0.426  2.4443 -1.6714  0.8653
  267SOL     OW  799   2.656   0.966   0.164  0.1159  0.2583  0.1344
  267SOL    HW1  800   2.739   0.989   0.107  0.6239  1.9391  2.7469
  267SOL    HW2  801   2.609   0.877   0.136  1.1005 -1.1727  3.2369
  268SOL     OW  802   2.463   0.226   2.642  0.2232  0.1663  0.0941
  268SOL    HW1  803   2.415   0.204   2.556  3.3107 -0.9668  2.1343
  268SOL    HW2  804   2.390   0.224   2.713 -0.0988 -0.2395  2.6074
  269SOL     OW  805   1.608   0.556   2.512  0.3564  0.0299 -0.2862
  269SOL    HW1  806   1.619   0.486   2.444  1.9110  0.6308 -1.9904
  269SOL    HW2  807   1.562   0.640   2.471  1.0258  2.0803 -0.7714
  270SOL     OW  808   0.943   1.349   2.588 -0.5298 -0.7302 -0.2444
  270SOL    HW1  809   0.896   1.329   2.677 -0.9111 -0.2661 -1.4397
  270SOL    HW2  810   1.046   1.348   2.596  1.4924 -2.7719  0.6070
  271SOL     OW  811   2.673   1.227   0.133  0.7521  0.2326 -0.0513
  271SOL    HW1  812   2.643   1.132   0.141  2.2159  0.6124  0.9983
  271SOL    HW2  813   2.744   1.253   0.200 -0.9602 -1.7149 -1.6213
  272SOL     OW  814   2.878   1.482   2.758 -0.8047 -0.4399  0.2111
  272SOL    HW1  815   2.859   1.580   2.759 -0.0248 -1.3779  1.1446
  272SOL    HW2  816   2.975   1.458   2.772 -0.3482 -1.8974 -3.2226
  273SOL     OW  817   1.980   0.315   0.307  0.0858  0.5569  0.1020
  273SOL    HW1  818   1.915   0.389   0.324  4.0531 -2.5439  1.5022
  273SOL    HW2  819   1.998   0.321   0.207  1.6482 -0.3948  2.5188
  274SOL     OW  820   0.282   2.543   1.098 -0.5461  0.0699 -0.2212
  274SOL    HW1  821   0.335   2.456   1.100 -0.5140  2.2742 -1.5295
  274SOL    HW2  822   0.254   2.574   1.191  1.8171 -1.1302 -0.5893
  275SOL     OW  823   2.234   1.408   0.582 -0.5951  0.3617  0.2608
  275SOL    HW1  824   2.222   1.396   0.481 -0.4404 -2.9594 -1.6458
  275SOL    HW2  825   2.304   1.475   0.605  0.3969 -2.4735  1.2799
  276SOL     OW  826   0.066   1.165   2.387  0.3189 -0.1859  0.3377
  276SOL    HW1  827   3.068   1.212   2.397  3.7946 -0.5516  0.8324
  276SOL    HW2  828   0.091   1.132   2.294 -1.2992 -0.9033 -1.1694
  277SOL     OW  829   1.914   2.731   1.554 -0.5825 -0.1183  0.0193
  277SOL    HW1  830   1.985   2.680   1.610 -0.3186 -0.3325  1.2481
  277SOL    HW2  831   1.955   2.741   1.462  0.8458  2.7371 -1.2519
  278SOL     OW  832   1.028   0.034   1.994 -0.5720 -0.1174  0.2380
  278SOL    HW1  833   0.976   3.057   1.938 -0.8932 -1.0152 -0.6434
  278SOL    HW2  834   1.122   3.091   2.014  1.2351  0.4057 -1.3726
  279SOL     OW  835   1.678   1.594   0.485 -0.1547 -0.1542 -0.0882
  279SOL    HW1  836   1.622   1.580   0.567 -2.5693 -1.4405  2.6961
  279SOL    HW2  837   1.737   1.673   0.491 -0.4094 -0.2368  0.0739
  280SOL     OW  838   0.661   1.747   0.770  0.2428 -0.0113  0.4558
  280SOL    HW1  839   0.693   1.805   0.687 -0.1890  0.3758 -3.3473
  280SOL    HW2  840   0.560   1.759   0.770  2.2648 -0.1950 -1.2069
  281SOL     OW  841   2.826   0.438   2.540  0.4830 -0.1324  0.0687
  281SOL    HW1  842   2.767   0.484   2.610  1.7778  0.0265  0.7049
  281SOL    HW2  843   2.857   0.353   2.583 -1.2284  2.7326 -2.3295
  282SOL     OW  844   0.463   0.984   0.662  0.4064 -0.0363  0.5015
  282SOL    HW1  845   0.395   0.906   0.657  0.4389 -1.3873 -0.7499
  282SOL    HW2  846   0.422   1.078   0.690  0.5472  0.8035  0.7957
  283SOL     OW  847   2.036   1.928   0.174  0.1456  0.6955 -0.2499
  283SOL    HW1  848   1.968   1.961   0.109  0.5083 -1.8850 -0.3675
  283SOL    HW2  849   2.124   1.972   0.156 -1.8369  0.7900 -0.9153
  284SOL     OW  850   1.304   1.049   0.133 -0.0784  0.5784  0.4650
  284SOL    HW1  851   1.259   1.069   0.225 -1.8965 -1.1413  1.1298
  284SOL    HW2  852   1.364   1.122   0.100 -0.5037 -0.4071 -1.8558
  285SOL     OW  853   2.172   0.704   2.593 -0.7017 -0.6068  0.2211
  285SOL    HW1  854   2.151   0.759   2.678  0.2621  0.0248 -0.8184
  285SOL    HW2  855   2.087   0.662   2.555 -0.9621 -1.7310  2.1770
  286SOL     OW  856   1.619   2.579   1.460  0.1269  0.0192 -0.3984
  286SOL    HW1  857   1.589   2.510   1.533 -2.3204  0.4815  2.1604
  286SOL    HW2  858   1.717   2.605   1.461 -1.0215  1.8639 -2.4097
  287SOL     OW  859   1.251   1.242   1.040 -0.3646  0.0789 -0.6209
  287SOL    HW1  860   1.329   1.182   1.008  1.2005 -0.6757  0.1763
  287SOL    HW2  861   1.255   1.268   1.139  2.9020 -2.5591  0.0330
  288SOL     OW  862   1.012   2.729   2.826 -0.2322  0.2205  0.0308
  288SOL    HW1  863   1.094   2.764   2.873  0.8284  4.2127  1.5624
  288SOL    HW2  864   1.044   2.688   2.739 -0.1037  1.3843  0.5496
  289SOL     OW  865   0.387   1.566   1.892 -0.3745  0.4086 -0.4160
  289SOL    HW1  866   0.472   1.580   1.835 -0.8034  3.5903  2.7161
  289SOL    HW2  867   0.308   1.618   1.852 -0.7973 -0.5198  0.8648
  290SOL     OW  868   1.713   2.223   1.023 -0.2562  0.7949 -0.1414
  290SOL    HW1  869   1.665   2.195   0.942 -0.5860  0.1986  0.3905
  290SOL    HW2  870   1.805   2.263   0.995  3.1826 -0.2531  0.3234
  291SOL     OW  871   2.018   2.433   2.854  0.2249  0.2425  0.1564
  291SOL    HW1  872   1.965   2.516   2.883  0.8227 -0.3753  3.7943
  291SOL    HW2  873   2.119   2.455   2.870 -1.8666  1.1168 -1.6630
  292SOL     OW  874   0.958   0.913   1.773 -0.2252  0.4966 -0.1735
  292SOL    HW1  875   0.984   1.000   1.817 -2.9675 -1.9400 -3.5981
  292SOL    HW2  876   1.005   0.902   1.684 -0.5177 -0.5325  1.6097
  293SOL     OW  877   2.046   2.550   0.842  0.7933  0.6391  0.0673
  293SOL    HW1  878   2.003   2.638   0.867 -0.4648  1.3709  0.0576
  293SOL    HW2  879   2.142   2.567   0.814 -2.3340 -2.7326 -0.2950
  294SOL     OW  880   0.583   0.624   2.503  0.3440  0.2601 -0.4468
  294SOL    HW1  881   0.512   0.585   2.565  2.9947  3.0098 -0.9453
  294SOL    HW2  882   0.669   0.611   2.555 -2.8127  0.6175 -0.2927
  295SOL     OW  883   1.419   1.479   0.621  0.0788  0.4802 -0.1637
  295SOL    HW1  884   1.378   1.479   0.715 -0.6773  1.1430  0.7412
  295SOL    HW2  885   1.360   1.506   0.542  1.6724  0.8262 -1.9560
  296SOL     OW  886   2.422   2.079   0.341  0.5511  0.3384 -0.3445
  296SOL    HW1  887   2.512   2.122   0.313  4.0983 -0.0354  0.2624
  296SOL    HW2  888   2.420   1.979   0.366  0.4770 -3.0632 -0.9139
  297SOL     OW  889   2.106   0.091   0.067 -0.2323 -0.5326  0.4856
  297SOL    HW1  890   2.201   0.124   0.102  1.4473  1.6070 -0.0450
  297SOL    HW2  891   2.063   0.036   0.139 -1.2997 -2.0385 -0.4030
  298SOL     OW  892   1.469   2.206   2.407 -0.1248 -0.1764  0.0610
  298SOL    HW1  893   1.551   2.148   2.429  1.2826 -0.0491 -2.8615
  298SOL    HW2  894   1.498   2.299   2.369  3.2633 -0.2077  0.4026
  299SOL     OW  895   1.353   2.585   2.416  0.4979 -0.1063  0.1693
  299SOL    HW1  896   1.412   2.613   2.496  0.7908  1.6421 -1.5421
  299SOL    HW2  897   1.413   2.541   2.346 -0.5726  3.5105  1.7107
  300SOL     OW  898   2.062   0.137   2.548 -0.1008  0.6314  0.0376
  300SOL    HW1  899   2.010   0.221   2.546 -2.6450  0.0195  0.4146
  300SOL    HW2  900   2.141   0.141   2.615 -0.6412  0.9214  0.0984
  301SOL     OW  901   1.340   0.937   1.954  0.1146 -0.0033 -0.2019
  301SOL    HW1  902   1.437   0.907   1.971 -0.0344 -0.1056 -0.0056
  301SOL    HW2  903   1.339   1.021   1.898 -1.8850 -0.2717  2.3448
  302SOL     OW  904   2.721   2.363   0.028  0.0788 -0.4522  0.2206
  302SOL    HW1  905   2.740   2.450   3.063 -0.6540  2.5676 -0.2785
  302SOL    HW2  906   2.800   2.305   0.038 -1.3025 -0.3230 -1.6886
  303SOL     OW  907   2.769   2.235   2.336  0.1842  0.2052  0.0571
  303SOL    HW1  908   2.762   2.274   2.428 -2.0260  1.2340 -2.0198
  303SOL    HW2  909   2.799   2.138   2.336 -1.4610 -0.6755  1.0570
  304SOL     OW  910   2.781   0.512   1.761 -0.5459  0.0730 -0.2174
  304SOL    HW1  911   2.832   0.587   1.710 -2.6157 -0.0800  0.9959
  304SOL    HW2  912   2.770   0.547   1.858  0.2957 -0.4028  2.9865
  305SOL     OW  913   0.611   2.242   1.824  0.0913  0.0443  1.1185
  305SOL    HW1  914   0.695   2.295   1.798 -0.5704 -0.7426  0.8104
  305SOL    HW2  915   0.550   2.300   1.888 -0.4500 -0.3763 -0.3603
  306SOL     OW  916   2.616   0.843   1.629 -0.2327  0.3014  0.1725
  306SOL    HW1  917   2.521   0.815   1.606 -1.1086 -2.2763  1.1999
  306SOL    HW2  918   2.628   0.839   1.728 -0.0031  0.1611  1.5802
  307SOL     OW  919   1.580   0.810   1.929 -0.0726  0.1444 -0.1803
  307SOL    HW1  920   1.670   0.765   1.947  2.2729  0.6007 -1.1136
  307SOL    HW2  921   1.547   0.793   1.831 -1.0739 -0.0948 -0.8222
  308SOL     OW  922   2.950   1.678   1.115  0.0856  0.6872 -0.1703
  308SOL    HW1  923   3.008   1.593   1.120 -0.7562 -2.3262  0.2173
  308SOL    HW2  924   2.860   1.653   1.072  0.0255 -0.4002 -1.6808
  309SOL     OW  925   2.437   1.495   1.074  0.5724 -0.1754 -0.2990
  309SOL    HW1  926   2.449   1.494   1.179  0.4010  0.3300 -2.8880
  309SOL    HW2  927   2.492   1.420   1.040  1.2250  1.2485  0.4462
  310SOL     OW  928   2.813   1.785   2.608  0.4553  0.1242  0.1907
  310SOL    HW1  929   2.711   1.799   2.609 -3.5420  1.5354  0.4514
  310SOL    HW2  930   2.852   1.834   2.688  1.7930 -0.0695  2.8242
  311SOL     OW  931   0.120   2.582   0.192  0.5079 -0.3384  0.5547
  311SOL    HW1  932   0.029   2.624   0.192  3.6258 -0.5835 -0.9248
  311SOL    HW2  933   0.121   2.478   0.206 -0.0548 -3.9023 -0.2307
  312SOL     OW  934   2.040   1.486   0.775 -0.3630 -0.4011  0.6139
  312SOL    HW1  935   2.007   1.582   0.763  0.5651  0.1952 -0.2538
  312SOL    HW2  936   2.089   1.456   0.690  0.2415  2.5412 -0.8159
  313SOL     OW  937   2.533   0.165   0.917 -0.3563 -0.2315  0.1826
  313SOL    HW1  938   2.544   0.249   0.974  2.5067  3.6964  0.6397
  313SOL    HW2  939   2.572   0.178   0.824  0.3958  0.4356 -0.5930
  314SOL     OW  940   1.323   1.672   0.175 -0.2037 -0.0785 -0.4304
  314SOL    HW1  941   1.402   1.654   0.117 -2.6869 -0.9690  0.5436
  314SOL    HW2  942   1.277   1.762   0.152  0.0952  2.5383  0.3570
  315SOL     OW  943   1.133   2.258   2.130 -0.2478  0.4139 -0.2477
  315SOL    HW1  944   1.212   2.289   2.072 -0.6989 -0.8346 -1.4271
  315SOL    HW2  945   1.091   2.177   2.083  1.4793  0.7296  0.1127
  316SOL     OW  946   3.035   1.112   0.385  0.1773  0.3107  0.3310
  316SOL    HW1  947   0.006   1.149   0.313 -0.0276 -0.6587 -2.7899
  316SOL    HW2  948   3.090   1.064   0.458 -0.2177  0.2107  1.5848
  317SOL     OW  949   0.575   2.949   0.691  0.1063  0.2046 -0.1297
  317SOL    HW1  950   0.621   2.901   0.615  0.3948 -2.5584 -2.6155
  317SOL    HW2  951   0.628   2.942   0.776  0.1530  0.6482 -2.1412
  318SOL     OW  952   2.786   2.342   0.412 -0.4996 -0.1847  0.2417
  318SOL    HW1  953   2.721   2.288   0.471 -1.8179  0.3853 -0.2958
  318SOL    HW2  954   2.880   2.304   0.414  0.9241  2.1094 -0.0905
  319SOL     OW  955   0.783   1.279   2.800  0.0843 -0.0183  0.4670
  319SOL    HW1  956   0.699   1.316   2.758  0.7950 -0.8930 -1.4341
  319SOL    HW2  957   0.770   1.261   2.898 -1.6238 -0.1385  0.6343
  320SOL     OW  958   0.802   2.449   1.750  0.1544 -0.3644  0.6386
  320SOL    HW1  959   0.764   2.543   1.726  1.2929 -0.3288 -0.3937
  320SOL    HW2  960   0.860   2.443   1.840  0.4902  0.7411  2.2433
  321SOL     OW  961   1.584   2.130   3.017  0.2282 -0.3529  0.2517
  321SOL    HW1  962   1.664   2.168   3.076  0.8985 -2.6597  1.8156
  321SOL    HW2  963   1.607   2.153   2.920 -3.2813  0.5285  0.8815
  322SOL     OW  964   2.928   1.330   2.056 -0.3037  0.3350  0.4053
  322SOL    HW1  965   2.887   1.285   2.137 -1.7232 -0.9320 -2.1929
  322SOL    HW2  966   2.934   1.268   1.975 -0.7332  2.2721 -0.9293
  323SOL     OW  967   2.429   1.196   0.478  0.6124  0.0660  0.5999
  323SOL    HW1  968   2.528   1.203   0.453 -2.2165 -0.0921 -0.0406
  323SOL    HW2  969   2.383   1.124   0.417 -0.8854  1.0006 -0.8625
  324SOL     OW  970   0.117   2.817   2.901  0.9805  0.0072 -0.5773
  324SOL    HW1  971   0.082   2.807   2.994  1.5650  1.0972 -1.9501
  324SOL    HW2  972   0.127   2.729   2.854  2.4395  0.9106  1.9360
  325SOL     OW  973   1.583   0.367   2.307 -0.3166 -0.4039 -0.0382
  325SOL    HW1  974   1.595   0.434   2.223 -0.3327 -0.2069 -0.8116
  325SOL    HW2  975   1.632   0.281   2.293  1.1651 -0.1478  2.0949
  326SOL     OW  976   2.343   2.487   1.486  0.0870  0.6434 -0.5330
  326SOL    HW1  977   2.432   2.509   1.526 -1.5805 -1.6313 -1.7413
  326SOL    HW2  978   2.353   2.411   1.418  1.5282 -0.6933 -0.2046
  327SOL     OW  979   1.747   0.356   3.013  0.7587 -0.1535  0.1217
  327SOL    HW1  980   1.826   0.292   3.006 -2.6041 -0.3797  0.5368
  327SOL    HW2  981   1.694   0.364   2.927 -0.3924 -2.3616 -3.5259
  328SOL     OW  982   2.840   0.735   2.261  0.6002  0.4068 -0.2888
  328SOL    HW1  983   2.892   0.816   2.238 -0.7324 -2.7705 -1.5713
  328SOL    HW2  984   2.761   0.760   2.318  2.1194 -1.3217 -0.3821
  329SOL     OW  985   1.304   2.996   2.046 -0.6059  0.3899  0.0809
  329SOL    HW1  986   1.376   2.981   2.118 -1.3236  2.5909 -0.6690
  329SOL    HW2  987   1.313   2.926   1.974 -1.9173  0.4360 -0.6157
  330SOL     OW  988   2.837   1.796   1.426 -0.6248 -0.2356 -0.3070
  330SOL    HW1  989   2.936   1.814   1.426 -2.0051 -2.4768  0.8844
  330SOL    HW2  990   2.810   1.706   1.390  1.3670  0.3935 -0.0282
  331SOL     OW  991   0.487   1.418   2.311 -0.0784 -0.1006 -0.2006
  331SOL    HW1  992   0.470   1.335   2.255 -0.6190 -0.9754  0.4460
  331SOL    HW2  993   0.545   1.488   2.263  1.7555 -0.6117  0.9461
  332SOL     OW  994   0.228   2.978   1.732  0.3213  0.1721  0.7161
  332SOL    HW1  995   0.321   3.007   1.767  0.7180  2.3325  0.7209
  332SOL    HW2  996   0.162   3.053   1.743  1.7205  2.8713  0.7025
  333SOL     OW  997   2.596   2.529   1.563 -1.1325  0.2731 -0.7652
  333SOL    HW1  998   2.658   2.456   1.597 -1.4589  1.6753  1.3780
  333SOL    HW2  999   2.647   2.616   1.581 -1.9139 -0.7125 -0.8573
  334SOL     OW 1000   1.040   2.126   0.807  0.5719  0.0692 -0.6526
  334SOL    HW1 1001   0.969   2.112   0.881 -2.1902 -0.0824 -0.5417
  334SOL    HW2 1002   1.127   2.170   0.841  0.0095  0.8029  1.5566
  335SOL     OW 1003   0.760   2.161   0.061  0.3831 -0.3338 -0.9197
  335SOL    HW1 1004   0.686   2.207   0.011  3.3798 -2.3610  1.8924
  335SOL    HW2 1005   0.836   2.225   0.085 -0.2428 -0.4472  1.0217
  336SOL     OW 1006   0.236   0.074   2.053 -0.1059 -0.0317  0.0514
  336SOL    HW1 1007   0.160   0.142   2.048  2.0258  0.3149  1.1008
  336SOL    HW2 1008   0.250   0.021   1.968  1.2357 -2.3689 -0.9670
  337SOL     OW 1009   2.832   1.962   3.045 -0.1172 -0.2668  0.1922
  337SOL    HW1 1010   2.784   1.927   0.033 -0.0943 -0.6581  0.7824
  337SOL    HW2 1011   2.877   2.051   3.072 -0.1072 -1.1560  2.2296
  338SOL     OW 1012   1.030   1.757   1.109 -0.6862 -0.3893 -0.3448
  338SOL    HW1 1013   1.034   1.809   1.193  1.5169 -3.3310 -1.7962
  338SOL    HW2 1014   0.946   1.768   1.055 -0.0840  0.6600  0.6422
  339SOL     OW 1015   0.024   0.238   2.014 -0.6056  0.1094 -0.0861
  339SOL    HW1 1016   3.083   0.299   1.939 -2.0312 -1.2205 -0.4229
  339SOL    HW2 1017   0.044   0.290   2.103 -1.2028 -1.6565  2.8374
  340SOL     OW 1018   1.621   2.600   0.462  0.5900  0.5591 -0.0790
  340SOL    HW1 1019   1.621   2.520   0.401 -1.6657  3.3942  0.7085
  340SOL    HW2 1020   1.599   2.571   0.559  1.7448 -0.5650  2.2033
  341SOL     OW 1021   1.960   1.543   1.041 -0.1706 -0.5600 -0.5376
  341SOL    HW1 1022   1.879   1.480   1.057 -0.5304  1.3776  0.1122
  341SOL    HW2 1023   1.992   1.535   0.945 -0.6866 -1.6872  0.2042
  342SOL     OW 1024   0.065   1.816   0.519  0.1804  0.7123  0.3464
  342SOL    HW1 1025   3.062   1.791   0.489 -0.6242 -0.7673 -1.5260
  342SOL    HW2 1026   0.138   1.764   0.478 -0.4004  3.1670  1.1066
  343SOL     OW 1027   1.434   2.498   1.223 -0.2215  0.0048 -0.4190
  343SOL    HW1 1028   1.494   2.532   1.297  2.0267  3.7061 -2.8673
  343SOL    HW2 1029   1.368   2.427   1.262 -2.5412  0.2727  2.8073
  344SOL     OW 1030   2.389   2.864   0.782 -0.1683 -0.1714 -0.2747
  344SOL    HW1 1031   2.321   2.889   0.707  1.1493  1.3964  0.7693
  344SOL    HW2 1032   2.484   2.897   0.753  1.4883 -0.6293 -0.4500
  345SOL     OW 1033   2.653   2.209   2.777  0.4060 -0.2036 -0.9224
  345SOL    HW1 1034   2.597   2.284   2.821 -2.4446 -1.2433 -2.2261
  345SOL    HW2 1035   2.747   2.246   2.767 -1.8453  1.0832  1.3547
  346SOL     OW 1036   0.392   1.748   0.775  0.3634  0.2146 -0.2581
  346SOL    HW1 1037   0.293   1.712   0.767  0.5078  0.8198  0.1479
  346SOL    HW2 1038   0.396   1.847   0.793  1.0952 -0.6127 -0.0900
  347SOL     OW 1039   1.914   2.411   1.238  0.1666  0.0509  0.4420
  347SOL    HW1 1040   1.924   2.513   1.250 -0.6990 -1.9660  2.1794
  347SOL    HW2 1041   1.916   2.390   1.139  1.1803  0.6156 -0.1073
  348SOL     OW 1042   1.309   1.600   2.676  0.0427 -0.4188  0.3428
  348SOL    HW1 1043   1.299   1.658   2.759  2.0578 -0.2084  0.6084
  348SOL    HW2 1044   1.313   1.655   2.591 -0.2288 -0.7396  1.7673
  349SOL     OW 1045   2.453   0.934   2.244 -0.0198 -0.4104 -0.4082
  349SOL    HW1 1046   2.426   1.011   2.307  1.2038 -1.4468  0.6840
  349SOL    HW2 1047   2.366   0.909   2.193  1.8285  1.8348 -0.2041
  350SOL     OW 1048   2.961   2.493   1.361 -0.0384 -0.1695  0.3417
  350SOL    HW1 1049   2.992   2.589   1.382  0.3984  1.6838 -2.0019
  350SOL    HW2 1050   2.893   2.498   1.289  0.5712  0.1460  0.0927
  351SOL     OW 1051   0.503   0.351   2.893 -0.2233 -0.8835 -0.1249
  351SOL    HW1 1052   0.523   0.339   2.797  1.5477 -1.6374 -0.4365
  351SOL    HW2 1053   0.580   0.321   2.947  0.4843  0.1282 -1.9215
  352SOL     OW 1054   0.593   2.456   1.374 -0.3235  0.3126  0.0423
  352SOL    HW1 1055   0.634   2.396   1.448  2.4497 -1.5154  4.2074
  352SOL    HW2 1056   0.494   2.474   1.395 -0.3473 -2.7226 -1.2924
  353SOL     OW 1057   0.942   1.193   2.350 -0.8978 -0.1033 -0.1244
  353SOL    HW1 1058   0.936   1.263   2.428  1.5949 -2.2685  0.8218
  353SOL    HW2 1059   1.044   1.171   2.327  3.9268  2.0910 -0.9894
  354SOL     OW 1060   1.646   0.942   0.466 -0.2260 -0.3557 -0.2421
  354SOL    HW1 1061   1.562   0.953   0.526 -2.0280  0.2110  0.4119
  354SOL    HW2 1062   1.626   1.000   0.381  0.6006  0.7611 -0.1732
  355SOL     OW 1063   2.663   0.460   0.483  0.4946  0.3915  0.3541
  355SOL    HW1 1064   2.608   0.486   0.402 -0.7973 -2.3294  2.0450
  355SOL    HW2 1065   2.760   0.474   0.464 -1.6957 -0.0193  1.7732
  356SOL     OW 1066   2.713   0.997   2.572  0.1558 -0.1354 -0.5008
  356SOL    HW1 1067   2.815   1.012   2.580  2.5041 -0.9330  1.3634
  356SOL    HW2 1068   2.668   1.014   2.667 -2.8802  0.4454  2.3190
  357SOL     OW 1069   0.692   2.695   1.701  0.0430 -0.0412 -0.3665
  357SOL    HW1 1070   0.755   2.736   1.630 -0.4004  1.7436  1.8389
  357SOL    HW2 1071   0.677   2.768   1.771 -2.2103  1.1191 -0.9736
  358SOL     OW 1072   2.313   1.217   2.075 -0.1126  0.1113 -0.1160
  358SOL    HW1 1073   2.294   1.318   2.091  0.4325  2.3407 -1.3934
  358SOL    HW2 1074   2.410   1.207   2.049 -1.2201  0.2843 -0.4693
  359SOL     OW 1075   2.246   2.575   2.788  0.1315 -0.0806  0.4241
  359SOL    HW1 1076   2.187   2.646   2.745  0.3959 -0.4332 -0.8004
  359SOL    HW2 1077   2.325   2.542   2.729  3.6794 -0.3805 -0.3043
  360SOL     OW 1078   2.259   0.581   0.692  0.0192  0.2752 -0.3263
  360SOL    HW1 1079   2.239   0.617   0.782 -0.7704  0.2660 -0.3077
  360SOL    HW2 1080   2.322   0.645   0.644 -0.3024 -2.1085 -3.6841
  361SOL     OW 1081   1.952   2.935   1.122 -0.5510  0.1000 -0.0258
  361SOL    HW1 1082   1.917   3.029   1.093  0.0117  1.3688 -1.7377
  361SOL    HW2 1083   1.964   2.885   1.037 -1.5587 -1.1162  0.0416
  362SOL     OW 1084   1.417   1.227   0.509  0.5578 -0.5469  0.2859
  362SOL    HW1 1085   1.432   1.309   0.567 -1.7448  0.0691 -1.0403
  362SOL    HW2 1086   1.454   1.139   0.552 -1.5244 -1.6667  0.4168
  363SOL     OW 1087   2.579   1.607   2.458  0.5986 -0.3467 -0.1250
  363SOL    HW1 1088   2.603   1.559   2.370 -2.0324 -1.3493 -1.7810
  363SOL    HW2 1089   2.536   1.534   2.519  0.1405 -1.4394  4.6402
  364SOL     OW 1090   1.212   0.719   1.365  0.0847  0.1096  0.2164
  364SOL    HW1 1091   1.231   0.629   1.403 -0.8826 -0.3006 -0.4573
  364SOL    HW2 1092   1.173   0.722   1.272 -0.9701  0.3125  0.9098
  365SOL     OW 1093   0.013   3.033   1.025 -0.2744  0.1029 -0.2318
  365SOL    HW1 1094   0.105   3.023   0.992 -2.3340  1.3274  2.0653
  365SOL    HW2 1095   3.045   3.056   0.950  0.7286 -0.8233  2.1923
  366SOL     OW 1096   2.843   1.288   0.331 -0.8575 -0.5900  0.4625
  366SOL    HW1 1097   2.843   1.364   0.395  0.5815 -1.5461  1.6791
  366SOL    HW2 1098   2.918   1.216   0.350 -0.7423 -0.9546  2.1220
  367SOL     OW 1099   2.972   2.182   0.012 -0.1461  0.2125  0.3484
  367SOL    HW1 1100   3.015   2.259   3.052  1.1918  2.2852 -1.4723
  367SOL    HW2 1101   3.026   2.165   0.097 -1.3765  3.7316 -0.3283
  368SOL     OW 1102   0.072   2.311   0.992  0.2167  0.2429  0.2313
  368SOL    HW1 1103   0.125   2.350   0.917 -1.6365  0.0320  1.2331
  368SOL    HW2 1104   3.089   2.370   1.011 -0.6125 -2.8872 -2.2785
  369SOL     OW 1105   0.368   0.309   0.461  0.2864 -0.3751 -0.6011
  369SOL    HW1 1106   0.278   0.325   0.503  3.0313  0.4116  1.5632
  369SOL    HW2 1107   0.414   0.229   0.508 -0.0703 -0.3039  0.2681
  370SOL     OW 1108   0.257   0.894   1.639 -0.0711 -0.4276  0.8916
  370SOL    HW1 1109   0.268   0.996   1.644  0.0351  0.2264  1.3744
  370SOL    HW2 1110   0.314   0.855   1.555 -1.0393 -0.9969 -2.6016
  371SOL     OW 1111   2.175   2.203   0.979  0.0378 -0.0686 -0.5164
  371SOL    HW1 1112   2.138   2.160   1.063 -1.7142 -0.2290 -0.8925
  371SOL    HW2 1113   2.239   2.135   0.936  1.1435 -1.8217 -1.6112
  372SOL     OW 1114   2.983   0.983   2.646 -0.0645  0.7586 -0.1679
  372SOL    HW1 1115   2.971   0.894   2.692  1.1593 -0.7972 -0.3629
  372SOL    HW2 1116   3.073   0.991   2.605 -1.0630  0.8982 -0.2186
  373SOL     OW 1117   2.825   1.483   0.536  0.0956  0.0427 -0.2389
  373SOL    HW1 1118   2.862   1.578   0.518 -2.1274  0.5061  2.5790
  373SOL    HW2 1119   2.745   1.490   0.598 -3.9062 -1.9492  0.8291
  374SOL     OW 1120   0.490   2.306   0.249 -0.0146 -0.1661  0.1240
  374SOL    HW1 1121   0.572   2.367   0.226  1.3369 -0.7198  1.2504
  374SOL    HW2 1122   0.417   2.307   0.173 -0.7527  0.8748  0.1630
  375SOL     OW 1123   0.695   0.167   0.367  0.0538  0.0683  0.3354
  375SOL    HW1 1124   0.791   0.145   0.338 -0.0265  0.5301 -0.5765
  375SOL    HW2 1125   0.640   0.234   0.304 -2.1190 -0.1580 -2.3520
  376SOL     OW 1126   0.279   3.061   2.318 -0.0560 -0.5878  0.1758
  376SOL    HW1 1127   0.258   3.084   2.219 -0.6106 -1.3522 -1.6871
  376SOL    HW2 1128   0.238   2.967   2.335 -1.4662 -2.7443 -1.3890
  377SOL     OW 1129   0.738   2.028   2.194  0.2116  0.1612  0.8607
  377SOL    HW1 1130   0.772   2.052   2.289 -1.1701  0.4014  0.7129
  377SOL    HW2 1131   0.810   2.036   2.122 -3.1504 -0.4857  1.3560
  378SOL     OW 1132   1.049   0.984   0.558  0.1487  0.2948  0.0068
  378SOL    HW1 1133   1.056   1.030   0.651  0.1752  2.7345 -0.6450
  378SOL    HW2 1134   0.960   0.934   0.542  0.7793  1.7164 -0.1519
  379SOL     OW 1135   1.118   1.570   2.984  0.2427 -0.5282 -0.7983
  379SOL    HW1 1136   1.129   1.495   3.049 -1.7815 -0.2419  0.0004
  379SOL    HW2 1137   1.206   1.607   2.948 -0.6812 -2.0792  1.5010
  380SOL     OW 1138   0.046   1.861   1.753  0.7554  0.3323 -0.2981
  380SOL    HW1 1139   3.050   1.859   1.803 -1.8372 -1.9482  0.1073
  380SOL    HW2 1140   0.053   1.938   1.683  1.2429  0.0471  0.5620
  381SOL     OW 1141   2.954   0.871   1.939 -0.2413  0.0342 -0.1627
  381SOL    HW1 1142   3.029   0.835   1.883  1.6447  0.1861  2.8775
  381SOL    HW2 1143   2.897   0.795   1.974 -0.4052  0.2681 -0.7830
  382SOL     OW 1144   2.516   2.369   2.966  0.3022 -0.7815 -0.2625
  382SOL    HW1 1145   2.501   2.466   2.936 -0.4306  0.0985 -1.6032
  382SOL    HW2 1146   2.594   2.357   3.040  4.9606 -1.2878  0.6088
  383SOL     OW 1147   2.386   1.967   2.257 -0.0555  0.5609  0.4661
  383SOL    HW1 1148   2.457   1.923   2.313 -2.5211 -1.1156 -1.4823
  383SOL    HW2 1149   2.319   2.015   2.320 -0.9386 -3.2334  0.3089
  384SOL     OW 1150   0.671   2.335   2.098  0.0483 -0.0884 -0.0964
  384SOL    HW1 1151   0.630   2.241   2.112 -3.3999  0.5561  1.3168
  384SOL    HW2 1152   0.626   2.411   2.151  0.3606  0.2305 -0.3116
  385SOL     OW 1153   2.694   1.984   0.900  0.0602 -0.1608  0.0800
  385SOL    HW1 1154   2.789   2.012   0.867 -1.3628  2.7782  2.3980
  385SOL    HW2 1155   2.693   1.960   1.000  1.5632 -0.1941 -0.2831
  386SOL     OW 1156   1.758   0.696   2.824  0.4007 -0.0220  0.1263
  386SOL    HW1 1157   1.688   0.626   2.801  0.7899 -1.2239  0.2382
  386SOL    HW2 1158   1.781   0.691   2.922  0.7317 -1.1830 -0.7749
  387SOL     OW 1159   0.375   0.465   1.958  0.0969 -0.6707 -0.0009
  387SOL    HW1 1160   0.381   0.555   1.908 -0.0111  0.9539 -1.8747
  387SOL    HW2 1161   0.401   0.391   1.896 -0.2119  1.7836  0.5932
  388SOL     OW 1162   2.677   1.076   1.494 -0.2303  0.5398  0.3828
  388SOL    HW1 1163   2.658   0.995   1.554  0.9392 -1.4649  1.6096
  388SOL    HW2 1164   2.777   1.093   1.484 -1.4028  1.7185  0.4619
  389SOL     OW 1165   1.635   0.844   2.219 -0.8680 -0.4728 -1.2566
  389SOL    HW1 1166   1.623   0.948   2.235 -3.1611  2.1085 -1.2005
  389SOL    HW2 1167   1.633   0.827   2.118 -2.2746 -1.7099 -0.0621
  390SOL     OW 1168   1.978   2.233   0.496 -0.4386  0.1602 -0.5448
  390SOL    HW1 1169   2.081   2.216   0.489  1.8512  0.7141 -0.2102
  390SOL    HW2 1170   1.955   2.300   0.571  0.1504  1.2486  0.0924
  391SOL     OW 1171   1.941   2.838   0.852 -0.5602  0.1346  0.5729
  391SOL    HW1 1172   1.940   2.894   0.765  0.9204  0.3851 -3.2719
  391SOL    HW2 1173   1.849   2.825   0.889  2.7601  0.6066 -0.4085
  392SOL     OW 1174   2.744   2.740   1.555  0.0690  0.3681 -0.2546
  392SOL    HW1 1175   2.767   2.817   1.493  0.9413  0.3572 -1.0547
  392SOL    HW2 1176   2.821   2.737   1.626  0.7629  1.5204 -1.0214
  393SOL     OW 1177   1.945   1.778   2.844 -0.2832 -0.3654 -0.0567
  393SOL    HW1 1178   1.948   1.869   2.894  2.0685 -1.1361 -0.0963
  393SOL    HW2 1179   1.987   1.707   2.904  1.5369  1.5295 -0.2310
  394SOL     OW 1180   0.385   2.692   2.882  0.2332 -0.7949  0.2276
  394SOL    HW1 1181   0.390   2.736   2.787  0.9726 -0.4711 -2.7752
  394SOL    HW2 1182   0.313   2.740   2.937 -1.2357  1.8805  1.1995
  395SOL     OW 1183   1.284   1.459   0.850  0.1097 -0.1496 -0.2369
  395SOL    HW1 1184   1.197   1.508   0.813 -0.1891 -1.2738  0.2103
  395SOL    HW2 1185   1.263   1.374   0.902  2.2301 -1.6561 -3.8889
  396SOL     OW 1186   2.113   0.859   2.794  0.2083 -0.5385 -0.3730
  396SOL    HW1 1187   2.023   0.879   2.749  2.3439 -0.5260  1.9548
  396SOL    HW2 1188   2.090   0.852   2.896 -0.7703 -0.6223  0.8028
  397SOL     OW 1189   0.125   0.703   2.474  0.0078  0.3976  0.2106
  397SOL    HW1 1190   0.053   0.682   2.407  1.3615 -3.0323 -3.5559
  397SOL    HW2 1191   0.147   0.801   2.480 -0.2876 -2.5050  1.0765
  398SOL     OW 1192   1.052   0.624   0.477 -0.1812  0.9570 -0.0372
  398SOL    HW1 1193   1.098   0.543   0.434 -1.0241 -2.3013  1.9524
  398SOL    HW2 1194   0.976   0.661   0.424  0.5178  0.9049  0.8403
  399SOL     OW 1195   1.856   0.044   1.826  0.9110  0.0290  0.2813
  399SOL    HW1 1196   1.936   0.030   1.884  0.2960 -0.7699 -0.4540
  399SOL    HW2 1197   1.824   3.049   1.787 -0.3265 -2.3339 -0.6055
  400SOL     OW 1198   0.048   1.975   2.378  0.0666 -0.2047  0.3828
  400SOL    HW1 1199   0.087   1.992   2.285 -0.3250  1.9617  0.1201
  400SOL    HW2 1200   0.088   1.893   2.420 -1.2084  0.1614  0.6651
  401SOL     OW 1201   0.551   3.056   0.223 -0.1955  0.1791 -0.1587
  401SOL    HW1 1202   0.611   0.037   0.261  0.2491  0.7802 -3.0638
  401SOL    HW2 1203   0.514   2.999   0.301  0.5139 -1.0565  1.2284
  402SOL     OW 1204   0.329   2.385   1.423  0.0811 -0.4293  0.0439
  402SOL    HW1 1205   0.294   2.294   1.393 -2.5370  2.1431  0.1534
  402SOL    HW2 1206   0.350   2.389   1.523 -1.0866 -0.0723 -1.2452
  403SOL     OW 1207   0.166   1.509   1.213  0.0541  0.0971 -0.3611
  403SOL    HW1 1208   0.092   1.442   1.183  0.7690 -2.2687 -1.3727
  403SOL    HW2 1209   0.147   1.557   1.300 -1.8829 -1.5403  0.6441
  404SOL     OW 1210   0.085   2.695   2.008  0.0539  0.3159 -0.1892
  404SOL    HW1 1211   3.085   2.664   1.985  1.3204  0.8324 -1.5120
  404SOL    HW2 1212   0.083   2.763   2.082 -0.0517  0.3408 -1.7923
  405SOL     OW 1213   2.849   0.397   2.141  0.0695  0.0512  0.5837
  405SOL    HW1 1214   2.770   0.439   2.182  2.4597 -1.3249 -3.0077
  405SOL    HW2 1215   2.898   0.330   2.199  1.1643  0.2998 -1.5118
  406SOL     OW 1216   2.003   2.527   0.130 -0.0266 -0.0045  0.1501
  406SOL    HW1 1217   2.019   2.429   0.125  2.3215 -1.3578 -0.0270
  406SOL    HW2 1218   2.012   2.552   0.228  1.9325 -1.8373 -0.4601
  407SOL     OW 1219   1.908   1.730   0.757  0.2585 -0.0074 -0.5072
  407SOL    HW1 1220   1.944   1.794   0.836  2.1347  0.1412  3.1911
  407SOL    HW2 1221   1.901   1.772   0.664  3.6796  0.4786  1.0967
  408SOL     OW 1222   0.543   0.364   2.365 -0.2323  1.0905  0.0459
  408SOL    HW1 1223   0.578   0.457   2.390 -0.1965 -0.1222  1.4193
  408SOL    HW2 1224   0.596   0.314   2.291 -1.9420  0.6484 -0.8475
  409SOL     OW 1225   2.607   1.758   0.765  0.0800  0.1394 -0.0692
  409SOL    HW1 1226   2.662   1.707   0.837  1.7573 -2.7597  0.1306
  409SOL    HW2 1227   2.584   1.855   0.797 -1.2116 -1.1126  1.8046
  410SOL     OW 1228   2.245   1.392   0.937 -0.2819 -0.4808  0.4940
  410SOL    HW1 1229   2.193   1.457   0.881  2.0860 -1.3335  2.5671
  410SOL    HW2 1230   2.316   1.437   1.001 -0.2339  0.3370 -0.0707
  411SOL     OW 1231   0.098   0.744   0.325  0.2828  0.1726 -0.8810
  411SOL    HW1 1232   0.166   0.682   0.378  2.0414 -2.3368  1.4883
  411SOL    HW2 1233   0.033   0.793   0.381  2.3004 -0.1895 -1.5228
  412SOL     OW 1234   1.402   0.470   0.232  0.2004 -0.1757  0.5263
  412SOL    HW1 1235   1.334   0.535   0.186 -0.2766  2.0377  2.3918
  412SOL    HW2 1236   1.456   0.519   0.299  0.0376  2.1097  1.3913
  413SOL     OW 1237   0.823   0.816   1.195 -0.8632 -0.3843  0.1241
  413SOL    HW1 1238   0.728   0.785   1.176  1.0027 -1.3896 -1.3225
  413SOL    HW2 1239   0.854   0.881   1.118  0.4386  0.3365  0.1020
  414SOL     OW 1240   0.119   1.352   2.832 -0.3737  0.4378 -0.2154
  414SOL    HW1 1241   0.121   1.412   2.749 -0.3421  1.1983 -1.9332
  414SOL    HW2 1242   0.206   1.294   2.841  0.1030  0.1820 -1.4284
  415SOL     OW 1243   0.283   1.716   2.929  0.5330 -0.1659 -0.2602
  415SOL    HW1 1244   0.362   1.688   2.869 -0.5851 -2.2866 -3.4831
  415SOL    HW2 1245   0.198   1.692   2.875 -0.7116  1.0549 -0.7486
  416SOL     OW 1246   1.435   0.812   0.176 -0.0793  0.4942 -0.7069
  416SOL    HW1 1247   1.527   0.800   0.225  1.1556 -1.6761  3.2469
  416SOL    HW2 1248   1.417   0.915   0.170  0.2920  2.5891 -1.5650
  417SOL     OW 1249   0.115   0.522   0.932  0.7072  0.1261  0.5487
  417SOL    HW1 1250   0.198   0.579   0.928  1.0718  0.8745  1.9284
  417SOL    HW2 1251   0.045   0.552   0.865  1.0824  0.6682  2.4414
  418SOL     OW 1252   2.295   1.029   2.710 -0.3225  0.1351 -0.6041
  418SOL    HW1 1253   2.227   0.952   2.733 -2.7459 -0.3663  2.9420
  418SOL    HW2 1254   2.385   1.006   2.747  0.0188  0.1240 -3.0704
  419SOL     OW 1255   0.521   0.549   0.429 -0.1156  0.2765  0.3389
  419SOL    HW1 1256   0.578   0.575   0.511  0.3913  0.2206 -0.2855
  419SOL    HW2 1257   0.479   0.459   0.435 -0.9094  0.4403 -1.3864
  420SOL     OW 1258   0.601   1.429   0.974 -0.0518  0.5716  0.9113
  420SOL    HW1 1259   0.531   1.404   1.038  2.3479  1.9856  1.0663
  420SOL    HW2 1260   0.561   1.464   0.890 -1.7365 -2.0701  3.3649
  421SOL     OW 1261   0.205   2.028   0.237 -0.5874  0.0038  0.1718
  421SOL    HW1 1262   0.241   1.993   0.147 -0.3756  0.0368  3.8670
  421SOL    HW2 1263   0.264   2.003   0.313 -1.3250 -2.3604  1.7951
  422SOL     OW 1264   2.459   0.298   1.397 -0.4269 -0.7235 -0.3166
  422SOL    HW1 1265   2.513   0.308   1.311  2.0776  2.6899 -2.0529
  422SOL    HW2 1266   2.506   0.352   1.467 -0.8862  1.4279 -1.0299
  423SOL     OW 1267   1.975   1.195   0.817 -0.2233 -0.4885 -0.4988
  423SOL    HW1 1268   2.003   1.290   0.808  2.5390  0.0162 -0.7091
  423SOL    HW2 1269   1.997   1.155   0.907  1.5797  0.2662  0.5398
  424SOL     OW 1270   1.814   1.349   0.078  0.2507 -0.0041  0.1302
  424SOL    HW1 1271   1.879   1.378   0.006 -1.5781  0.4952  2.0681
  424SOL    HW2 1272   1.763   1.266   0.049  4.1771  2.1498 -0.2448
  425SOL     OW 1273   0.087   2.860   2.213 -0.6084 -0.1297  0.6210
  425SOL    HW1 1274   0.051   2.818   2.297  1.2462  0.9007  0.3884
  425SOL    HW2 1275   0.031   2.946   2.203  1.8012  2.4771 -1.6326
  426SOL     OW 1276   2.570   2.925   2.577  0.0503 -0.1500 -0.1918
  426SOL    HW1 1277   2.484   2.970   2.556  1.4695 -0.4926 -0.3965
  426SOL    HW2 1278   2.575   2.828   2.546  0.1301  2.8066 -0.6806
  427SOL     OW 1279   0.683   0.812   2.194 -0.4046  0.5887  0.1954
  427SOL    HW1 1280   0.606   0.756   2.215 -1.4872  0.7499 -2.5251
  427SOL    HW2 1281   0.703   0.859   2.280  0.6097  1.6005 -1.0733
  428SOL     OW 1282   2.215   0.835   2.103  0.3559  0.1489 -0.2261
  428SOL    HW1 1283   2.250   0.827   2.007  0.5682  0.2658 -1.0029
  428SOL    HW2 1284   2.171   0.927   2.118 -0.3445 -0.5461 -0.5209
  429SOL     OW 1285   2.384   0.221   0.409 -0.0209  0.0313  0.0202
  429SOL    HW1 1286   2.460   0.155   0.430 -0.0925  0.6379  0.4911
  429SOL    HW2 1287   2.361   0.264   0.502  1.1695  1.3939  4.8667
  430SOL     OW 1288   1.855   1.189   2.096 -0.0491  0.2401  0.5516
  430SOL    HW1 1289   1.932   1.120   2.099  0.0802  2.4749  1.5733
  430SOL    HW2 1290   1.788   1.171   2.019 -3.8465  0.2854 -1.3432
  431SOL     OW 1291   2.721   2.046   1.452  0.2878 -0.5104 -0.0048
  431SOL    HW1 1292   2.749   1.950   1.448 -0.1419  1.7059 -0.4743
  431SOL    HW2 1293   2.755   2.105   1.376  1.4885  1.9032  0.6812
  432SOL     OW 1294   1.225   2.611   1.880  0.3575 -0.3621  0.6598
  432SOL    HW1 1295   1.139   2.650   1.922  0.1729  1.2215  1.1909
  432SOL    HW2 1296   1.203   2.559   1.795 -2.2108 -0.5711  1.4565
  433SOL     OW 1297   1.617   3.049   1.344  0.2129 -0.4025 -0.6407
  433SOL    HW1 1298   1.665   3.067   1.258 -0.2890  0.8468 -0.0011
  433SOL    HW2 1299   1.565   2.957   1.345 -1.7481 -3.5642 -1.7552
  434SOL     OW 1300   0.149   2.395   2.350 -0.2104  0.2454  0.0288
  434SOL    HW1 1301   0.148   2.420   2.251  1.0696  0.0724  1.5504
  434SOL    HW2 1302   0.243   2.418   2.383 -1.9495 -2.2966 -0.0519
  435SOL     OW 1303   0.250   1.611   0.161  0.0169 -0.2725 -0.3215
  435SOL    HW1 1304   0.154   1.602   0.132 -1.2887 -0.9292 -0.0154
  435SOL    HW2 1305   0.308   1.664   0.094  1.3327  0.8811 -1.5476
  436SOL     OW 1306   0.583   1.157   1.765 -0.4546 -0.5534  0.2721
  436SOL    HW1 1307   0.628   1.243   1.731  0.5866 -0.6902  0.5990
  436SOL    HW2 1308   0.595   1.144   1.866  3.0264  0.4712 -0.6884
  437SOL     OW 1309   1.008   0.643   3.035  0.0138 -0.1865 -0.1687
  437SOL    HW1 1310   1.061   0.639   0.033  5.3210 -2.9783  0.9425
  437SOL    HW2 1311   1.052   0.586   2.967  0.5038  1.7178  1.3267
  438SOL     OW 1312   0.472   2.000   1.538  0.3916  0.1927  0.1499
  438SOL    HW1 1313   0.518   1.989   1.446 -0.0496  0.6197 -0.5541
  438SOL    HW2 1314   0.508   1.936   1.610  1.2679 -1.7576 -0.4863
  439SOL     OW 1315   2.043   1.572   3.005 -0.5083  0.1413 -0.4285
  439SOL    HW1 1316   2.030   1.470   2.992  2.4733 -0.7145 -1.7049
  439SOL    HW2 1317   2.054   1.585   0.016  0.7584 -0.3333  3.4915
  440SOL     OW 1318   1.374   0.562   0.520 -0.0491 -0.2394 -0.2961
  440SOL    HW1 1319   1.336   0.483   0.571 -0.6488  0.5025  0.2681
  440SOL    HW2 1320   1.351   0.650   0.564  0.9347 -1.3528 -0.4950
  441SOL     OW 1321   0.442   2.529   1.744 -0.3341  0.0221 -0.6645
  441SOL    HW1 1322   0.537   2.567   1.718  0.2252  4.5519  0.6688
  441SOL    HW2 1323   0.364   2.593   1.734  1.5657  3.1160 -3.5362
  442SOL     OW 1324   2.385   2.391   0.935 -0.9318  1.1685 -0.6414
  442SOL    HW1 1325   2.304   2.338   0.968 -0.5349  1.7038 -0.1949
  442SOL    HW2 1326   2.361   2.477   0.887  3.8329  1.5698 -1.5500
  443SOL     OW 1327   2.605   1.184   2.401 -0.5331  0.3291 -0.9773
  443SOL    HW1 1328   2.505   1.169   2.410 -1.7251  0.4268  0.7022
  443SOL    HW2 1329   2.648   1.120   2.464 -0.2797  0.1862  1.7734
  444SOL     OW 1330   1.463   0.752   2.400  0.9803  0.2385 -0.4404
  444SOL    HW1 1331   1.535   0.782   2.332  0.3679  0.9562 -0.0024
  444SOL    HW2 1332   1.396   0.684   2.356 -1.3873 -2.2174  0.2512
  445SOL     OW 1333   2.714   2.308   1.695  0.1639 -0.2480  0.1742
  445SOL    HW1 1334   2.654   2.252   1.636 -0.5360 -1.7705  0.9413
  445SOL    HW2 1335   2.718   2.258   1.780 -0.1175  3.7773 -1.5280
  446SOL     OW 1336   0.108   1.371   0.313 -0.3464 -0.1220 -0.1881
  446SOL    HW1 1337   0.136   1.455   0.260 -1.1155 -1.9332 -3.1200
  446SOL    HW2 1338   0.126   1.290   0.248  4.3301 -4.8333 -1.1004
  447SOL     OW 1339   0.996   2.317   1.119  0.4775 -0.0796 -0.1370
  447SOL    HW1 1340   0.943   2.372   1.185 -0.2084  1.3337 -1.7153
  447SOL    HW2 1341   1.063   2.369   1.058 -1.9244 -1.8021 -1.6245
  448SOL     OW 1342   1.667   1.566   1.684  0.2655  0.3742 -0.3055
  448SOL    HW1 1343   1.691   1.536   1.780  1.2158  1.7688  0.6803
  448SOL    HW2 1344   1.738   1.545   1.613  0.2280 -0.3057  1.1609
  449SOL     OW 1345   0.784   1.920   2.839  0.1380  0.0257 -0.0134
  449SOL    HW1 1346   0.776   1.927   2.942  0.0991  2.3416  1.6692
  449SOL    HW2 1347   0.832   1.832   2.809 -1.2882  4.4413 -2.9565
  450SOL     OW 1348   3.056   1.739   2.505 -0.1606  0.1083  0.1745
  450SOL    HW1 1349   3.053   1.667   2.428 -1.1088 -4.7089  1.4990
  450SOL    HW2 1350   2.966   1.754   2.551 -2.6335 -1.9881  0.7368
  451SOL     OW 1351   2.000   0.486   1.427 -0.1779 -0.9262 -0.4382
  451SOL    HW1 1352   1.938   0.404   1.426 -1.8843  1.1243  1.8149
  451SOL    HW2 1353   1.974   0.541   1.507 -1.9825 -0.7009 -0.9455
  452SOL     OW 1354   1.079   2.566   1.400 -0.0850 -0.5626 -0.2652
  452SOL    HW1 1355   1.143   2.490   1.392  1.8765 -1.9738 -1.3143
  452SOL    HW2 1356   0.990   2.534   1.362 -0.4628  0.1619  3.5425
  453SOL     OW 1357   1.131   1.877   0.795 -0.3111 -0.3662 -0.0618
  453SOL    HW1 1358   1.193   1.881   0.874  1.1971  1.7746  0.2276
  453SOL    HW2 1359   1.088   1.969   0.791  2.1682 -2.8694  2.8986
  454SOL     OW 1360   0.005   1.067   0.803 -0.2298 -0.6569 -0.4927
  454SOL    HW1 1361   0.065   1.065   0.724 -3.3708 -0.3240  2.3048
  454SOL    HW2 1362   3.059   1.163   0.817 -3.2674 -0.3592 -0.3010
  455SOL     OW 1363   0.685   1.116   0.634  0.4235  0.4711 -0.2671
  455SOL    HW1 1364   0.671   1.185   0.559 -2.1351  2.1560  2.5414
  455SOL    HW2 1365   0.609   1.046   0.639  0.0829 -0.8192  0.2459
  456SOL     OW 1366   1.941   2.338   0.953  0.2104 -0.2533  0.0317
  456SOL    HW1 1367   2.024   2.280   0.946  3.0283  2.3728  1.8466
  456SOL    HW2 1368   1.970   2.428   0.911  0.6667 -1.3618  1.9635
  457SOL     OW 1369   1.455   2.654   0.117 -0.1866  0.5998  0.0776
  457SOL    HW1 1370   1.363   2.698   0.106 -1.8213 -0.2527 -2.1394
  457SOL    HW2 1371   1.457   2.553   0.103 -0.0174 -1.2776 -0.2394
  458SOL     OW 1372   2.796   0.189   2.966  0.3058  0.2521  0.0280
  458SOL    HW1 1373   2.765   0.171   2.868 -0.0767  0.8632  1.6839
  458SOL    HW2 1374   2.864   0.119   2.993 -2.5156 -0.6434 -1.1188
  459SOL     OW 1375   2.201   0.033   1.753  0.1854 -0.0965 -0.1153
  459SOL    HW1 1376   2.213   3.039   1.696 -1.3185  0.3051  0.2478
  459SOL    HW2 1377   2.114   0.018   1.804 -0.6700  1.2287  1.9335
  460SOL     OW 1378   2.887   0.429   3.084 -0.4072 -0.2017  0.0146
  460SOL    HW1 1379   2.985   0.448   0.014 -0.9659  0.1900  0.2591
  460SOL    HW2 1380   2.884   0.344   3.024  1.7869  1.4611 -1.4328
  461SOL     OW 1381   0.189   2.074   1.037  0.1305  0.0902 -0.0379
  461SOL    HW1 1382   0.119   2.007   1.071 -3.5991  0.5616  1.4302
  461SOL    HW2 1383   0.152   2.170   1.029  1.7813  1.8350  2.2501
  462SOL     OW 1384   2.941   3.039   0.813  0.3592  0.0205 -0.3259
  462SOL    HW1 1385   2.953   3.016   0.710 -1.7130 -2.4226 -0.2123
  462SOL    HW2 1386   2.919   0.043   0.827  0.8092 -1.2035 -0.1688
  463SOL     OW 1387   2.300   1.277   3.057 -0.6873  0.4078 -0.3351
  463SOL    HW1 1388   2.320   1.177   3.088  0.4742  1.0949 -0.0811
  463SOL    HW2 1389   2.307   1.285   2.954  1.9703  1.5372  1.8845
  464SOL     OW 1390   0.664   3.072   1.226 -0.4097 -0.4052 -0.1828
  464SOL    HW1 1391   0.629   2.985   1.274  0.5896 -2.7278  0.5222
  464SOL    HW2 1392   0.756   3.047   1.186  2.3495 -0.6453  0.1867
  465SOL     OW 1393   1.070   0.699   1.123  0.5355 -0.3387  0.6554
  465SOL    HW1 1394   0.998   0.740   1.182  1.4722  1.0367 -2.5463
  465SOL    HW2 1395   1.033   0.614   1.077  1.5741 -2.2954  0.7251
  466SOL     OW 1396   1.354   2.345   1.984 -0.1304  0.4969 -0.3455
  466SOL    HW1 1397   1.330   2.442   1.983 -0.6178  0.3246 -1.0820
  466SOL    HW2 1398   1.436   2.331   2.044  5.9110  1.8594 -0.4348
  467SOL     OW 1399   0.628   2.916   1.965 -0.1582 -0.4245 -0.4095
  467SOL    HW1 1400   0.602   2.953   2.056  2.4766  0.1259 -0.7852
  467SOL    HW2 1401   0.726   2.910   1.942  1.0278  0.2990  0.9405
  468SOL     OW 1402   0.095   1.404   2.108 -0.2359  0.1745  0.5860
  468SOL    HW1 1403   3.092   1.380   2.075  1.9738  2.6273  2.1725
  468SOL    HW2 1404   0.114   1.506   2.096 -1.8125 -0.5272  0.1550
  469SOL     OW 1405   1.224   2.305   0.648  0.6774 -0.0736 -0.6626
  469SOL    HW1 1406   1.125   2.305   0.631 -2.6630  1.4386  0.2139
  469SOL    HW2 1407   1.250   2.267   0.738 -0.8504  0.7027  0.5666
  470SOL     OW 1408   2.076   1.041   2.190 -0.4719 -0.4589 -0.1659
  470SOL    HW1 1409   2.149   1.117   2.183  0.3173  1.4012  0.8545
  470SOL    HW2 1410   2.057   1.028   2.292  0.6600 -1.2586  1.5287
  471SOL     OW 1411   0.960   2.338   0.103  0.0081  0.3498 -0.7021
  471SOL    HW1 1412   1.039   2.353   0.166  0.5969  0.8583  2.2360
  471SOL    HW2 1413   0.959   2.396   0.018  1.4977 -2.8197 -0.6699
  472SOL     OW 1414   2.963   2.530   2.299 -0.1401  0.1476 -0.0165
  472SOL    HW1 1415   2.994   2.434   2.284 -0.4294 -2.9027 -1.7999
  472SOL    HW2 1416   3.035   2.585   2.347 -1.8285 -2.2828  1.8199
  473SOL     OW 1417   0.580   3.027   3.030 -0.1923  0.1877 -0.2122
  473SOL    HW1 1418   0.599   2.929   3.002  0.3401  0.2368  0.5167
  473SOL    HW2 1419   0.524   3.030   0.021 -0.1443 -0.1011 -0.8672
  474SOL     OW 1420   1.594   0.339   0.651 -0.1244 -0.5240 -0.4043
  474SOL    HW1 1421   1.598   0.334   0.550  0.9866 -1.0168  1.1420
  474SOL    HW2 1422   1.560   0.430   0.684 -2.5613  0.5846  0.1217
  475SOL     OW 1423   1.428   0.235   1.392  0.0322 -0.0077  0.0472
  475SOL    HW1 1424   1.352   0.281   1.346  1.1883  1.5248 -3.4866
  475SOL    HW2 1425   1.497   0.211   1.319  1.0095  1.5874  1.1350
  476SOL     OW 1426   0.127   1.115   1.187 -0.0304  0.2198 -0.0501
  476SOL    HW1 1427   0.148   1.037   1.248  0.2184  0.3863 -3.4946
  476SOL    HW2 1428   0.210   1.144   1.141  0.0999  2.0740  1.0619
  477SOL     OW 1429   1.010   2.070   0.539  0.2881  0.5329  0.2450
  477SOL    HW1 1430   1.060   1.989   0.502 -3.4577  1.9157 -1.4578
  477SOL    HW2 1431   1.021   2.084   0.640  3.2465  2.3482 -1.8570
  478SOL     OW 1432   0.271   2.602   2.561  0.1790 -0.0482  0.3342
  478SOL    HW1 1433   0.327   2.558   2.489 -0.2631  1.9809 -0.7154
  478SOL    HW2 1434   0.314   2.694   2.582 -0.1876 -0.6952  1.4670
  479SOL     OW 1435   2.925   0.395   1.485 -0.5815 -0.4083 -0.9018
  479SOL    HW1 1436   2.880   0.480   1.468  0.1070 -1.7278  1.4682
  479SOL    HW2 1437   3.014   0.414   1.536 -0.9556 -1.2004  3.1122
  480SOL     OW 1438   2.780   2.597   3.031  0.0800  0.0772  0.8058
  480SOL    HW1 1439   2.872   2.550   3.018  1.6439 -0.6533 -0.4633
  480SOL    HW2 1440   2.794   2.685   3.081  0.9405  2.0627 -0.5058
  481SOL     OW 1441   2.367   2.017   1.721 -0.1064  0.0928 -0.0567
  481SOL    HW1 1442   2.407   2.090   1.661  1.8840  0.0357 -0.4918
  481SOL    HW2 1443   2.361   2.053   1.818 -1.3753 -1.2776  1.0829
  482SOL     OW 1444   1.559   1.782   2.526  0.4074 -0.5578 -0.6121
  482SOL    HW1 1445   1.538   1.758   2.431 -2.9209  0.1066  3.8549
  482SOL    HW2 1446   1.485   1.813   2.581  3.8239 -2.8328 -2.1259
  483SOL     OW 1447   0.942   1.629   1.675 -0.0251  0.2857  0.0259
  483SOL    HW1 1448   0.991   1.690   1.605  0.0202  1.9304  1.9194
  483SOL    HW2 1449   0.956   1.531   1.644 -3.2784  0.3627 -0.2730
  484SOL     OW 1450   0.346   0.560   1.514  0.4679 -0.2536  0.0592
  484SOL    HW1 1451   0.259   0.608   1.495  1.1853  2.5341  3.4209
  484SOL    HW2 1452   0.338   0.498   1.596 -1.7165 -1.3253  0.3282
  485SOL     OW 1453   2.324   1.024   0.032  0.7170 -0.2546  0.2936
  485SOL    HW1 1454   2.358   0.946   3.072  1.4293  0.1517 -0.1043
  485SOL    HW2 1455   2.309   0.985   0.129  0.3291  0.8235  0.3679
  486SOL     OW 1456   1.176   0.087   1.652 -0.0138  0.1175  0.3919
  486SOL    HW1 1457   1.275   0.066   1.660  0.3690  1.8308 -1.7008
  486SOL    HW2 1458   1.158   0.165   1.591 -1.1104 -1.2871  0.2285
  487SOL     OW 1459   0.709   2.273   1.566  0.1111 -0.1027  0.2262
  487SOL    HW1 1460   0.775   2.333   1.617  1.8912 -1.2212 -1.7198
  487SOL    HW2 1461   0.651   2.219   1.629 -1.3429 -0.6331 -0.4643
  488SOL     OW 1462   2.644   1.933   2.854  0.3191  0.3448  0.1312
  488SOL    HW1 1463   2.641   2.026   2.816 -1.2727  1.7787 -0.0544
  488SOL    HW2 1464   2.715   1.934   2.931  2.3763 -1.9887  2.5837
  489SOL     OW 1465   2.196   2.948   0.607  0.2294 -0.6934 -0.8464
  489SOL    HW1 1466   2.096   2.949   0.602 -0.3492 -1.5646 -2.5276
  489SOL    HW2 1467   2.242   2.993   0.527 -0.8468  1.0512  1.9489
  490SOL     OW 1468   1.427   2.376   0.007 -0.1235  0.0695  0.0686
  490SOL    HW1 1469   1.388   2.420   3.018  2.5856  3.2713  1.2502
  490SOL    HW2 1470   1.486   2.302   3.072  2.0393  0.6023 -0.0658
  491SOL     OW 1471   0.710   1.383   1.721  0.0400 -0.3965 -0.0802
  491SOL    HW1 1472   0.672   1.469   1.758  1.6654  2.3873  0.2602
  491SOL    HW2 1473   0.813   1.399   1.708  1.6252  0.4314  1.0250
  492SOL     OW 1474   1.022   0.648   1.870  0.2648  0.6301  0.8770
  492SOL    HW1 1475   1.010   0.731   1.815  0.6504  3.8065 -0.3875
  492SOL    HW2 1476   1.115   0.646   1.914  0.1504  1.6090 -3.3750
  493SOL     OW 1477   2.230   1.798   0.726 -0.0678 -0.2673  0.4453
  493SOL    HW1 1478   2.152   1.819   0.661  0.5760  0.6964 -2.7587
  493SOL    HW2 1479   2.202   1.796   0.821  0.6094  2.7726 -1.0574
  494SOL     OW 1480   0.854   1.570   0.888 -0.0321  0.0898  0.0365
  494SOL    HW1 1481   0.838   1.559   0.988  1.4125  0.5514  0.1510
  494SOL    HW2 1482   0.787   1.623   0.832  1.9093  2.4363 -2.6530
  495SOL     OW 1483   2.288   2.505   0.493  0.6577  0.3607 -0.2386
  495SOL    HW1 1484   2.339   2.541   0.408 -0.9986 -0.3858 -1.7983
  495SOL    HW2 1485   2.277   2.405   0.480 -0.2948  0.5288 -1.6036
  496SOL     OW 1486   2.729   2.945   1.386  0.2146 -0.1552  0.0005
  496SOL    HW1 1487   2.775   3.027   1.349 -1.4781 -1.1179 -0.2164
  496SOL    HW2 1488   2.633   2.963   1.405  2.4048  0.4356 -1.4951
  497SOL     OW 1489   2.336   1.103   2.442 -0.0276  0.1040 -0.3762
  497SOL    HW1 1490   2.267   1.179   2.427 -1.0706 -1.3198  0.8150
  497SOL    HW2 1491   2.335   1.069   2.540  0.7772  0.0140  1.1638
  498SOL     OW 1492   3.083   2.248   1.363 -0.5386 -0.1345  0.3999
  498SOL    HW1 1493   3.011   2.195   1.318 -1.6331  0.0290  0.1264
  498SOL    HW2 1494   3.059   2.343   1.385 -0.1184  1.2746  0.0315
  499SOL     OW 1495   0.921   2.418   1.987  0.0798 -0.2602  0.3179
  499SOL    HW1 1496   0.838   2.399   2.038  0.4860  0.5517  0.2546
  499SOL    HW2 1497   0.995   2.358   2.022 -0.8250 -3.4408 -0.2447
  500SOL     OW 1498   0.645   2.080   0.359 -0.2677  0.4192 -0.1846
  500SOL    HW1 1499   0.721   2.067   0.287  1.3034  0.8740 -2.9284
  500SOL    HW2 1500   0.593   2.162   0.330 -2.3539  0.0427  0.6487
  501SOL     OW 1501   1.848   0.007   1.510  0.1010 -0.1060 -0.7496
  501SOL    HW1 1502   1.778   3.090   1.441  5.3374 -0.0044  3.7437
  501SOL    HW2 1503   1.833   3.033   1.586 -0.6131  2.4730 -0.4030
  502SOL     OW 1504   2.532   0.502   1.626 -0.1601  0.0814  0.6320
  502SOL    HW1 1505   2.486   0.590   1.609  1.0099 -3.0848  1.9496
  502SOL    HW2 1506   2.621   0.502   1.672 -3.4108 -0.5278 -1.6863
  503SOL     OW 1507   2.582   1.270   1.996  0.8863  0.0119  0.1209
  503SOL    HW1 1508   2.558   1.369   2.002 -1.4777  0.6870  1.5613
  503SOL    HW2 1509   2.608   1.252   1.897  1.2943  1.2280 -1.2683
  504SOL     OW 1510   1.516   0.769   1.653  0.3950 -0.2313  0.2672
  504SOL    HW1 1511   1.560   0.679   1.649 -1.1420 -1.3591  1.1701
  504SOL    HW2 1512   1.533   0.815   1.560 -1.0322 -0.7859 -1.8694
  505SOL     OW 1513   0.484   3.084   1.794  0.3185  0.1492  0.2365
  505SOL    HW1 1514   0.539   3.027   1.864  0.3092 -1.4567  0.0972
  505SOL    HW2 1515   0.516   3.062   1.699 -0.7440  0.8156 -0.6546
  506SOL     OW 1516   0.255   0.452   0.236 -0.2010  0.4863  0.2012
  506SOL    HW1 1517   0.313   0.455   0.151  0.1905 -1.0814  0.8792
  506SOL    HW2 1518   0.307   0.410   0.316  2.1521 -0.5710  1.8517
  507SOL     OW 1519   2.339   0.189   0.133 -0.4027  0.0472  0.0033
  507SOL    HW1 1520   2.406   0.127   0.086 -0.1516  2.3234 -0.9172
  507SOL    HW2 1521   2.370   0.193   0.229  0.4424  1.4681  1.3718
  508SOL     OW 1522   1.193   0.344   2.000 -0.2534  0.1334 -0.2991
  508SOL    HW1 1523   1.112   0.398   2.016  3.1734 -0.2202  0.7567
  508SOL    HW2 1524   1.251   0.395   1.929  0.5938  2.1446  0.3738
  509SOL     OW 1525   1.770   1.745   1.107 -0.4664 -0.0606  0.5683
  509SOL    HW1 1526   1.694   1.743   1.042  1.8073 -0.0300  1.5324
  509SOL    HW2 1527   1.824   1.659   1.107  2.4230 -0.4283 -1.4405
  510SOL     OW 1528   2.453   1.208   1.403 -1.0428 -0.4686  0.1355
  510SOL    HW1 1529   2.532   1.185   1.467  2.2568  0.9668  1.9048
  510SOL    HW2 1530   2.416   1.129   1.354  0.3801 -0.6708 -3.4191
  511SOL     OW 1531   1.631   1.894   1.291 -0.1364  0.1570  0.5698
  511SOL    HW1 1532   1.688   1.844   1.217 -0.7392  0.0309 -1.6353
  511SOL    HW2 1533   1.685   1.976   1.319 -0.0814 -1.1147 -0.3321
  512SOL     OW 1534   0.015   1.463   0.597  0.1661 -0.1457 -0.0929
  512SOL    HW1 1535   0.060   1.430   0.505 -0.4241 -0.1755 -0.4058
  512SOL    HW2 1536   3.010   1.481   0.581 -1.9941  1.5829 -1.4049
  513SOL     OW 1537   0.007   1.635   0.018  0.4172 -0.0275  0.0957
  513SOL    HW1 1538   0.042   1.676   3.023 -0.1960  1.4189 -3.4174
  513SOL    HW2 1539   3.083   1.533   0.009  1.4777 -0.0736  0.6107
  514SOL     OW 1540   2.861   1.981   2.390  0.0800  0.2694  0.3981
  514SOL    HW1 1541   2.964   1.981   2.381  1.0739  0.2786 -0.3147
  514SOL    HW2 1542   2.829   1.918   2.463 -1.1421 -0.9621 -1.4220
  515SOL     OW 1543   2.245   0.966   0.677 -0.6054 -0.3211  0.7219
  515SOL    HW1 1544   2.274   1.062   0.700 -3.1540  1.9634 -2.1300
  515SOL    HW2 1545   2.151   0.945   0.710  0.6847 -1.3204 -1.6364
  516SOL     OW 1546   2.140   2.778   0.148 -0.4133  0.3291 -0.0397
  516SOL    HW1 1547   2.205   2.806   0.073 -0.1645 -1.0485 -0.0950
  516SOL    HW2 1548   2.102   2.684   0.135 -1.7719 -0.3691  1.4019
  517SOL     OW 1549   1.171   1.949   2.578 -0.2398 -0.5516 -0.3885
  517SOL    HW1 1550   1.181   2.029   2.514  2.8285  0.0752 -1.1223
  517SOL    HW2 1551   1.202   1.864   2.528 -1.1872  0.4770  0.7513
  518SOL     OW 1552   0.179   0.185   2.435 -0.6049  0.0824  0.1710
  518SOL    HW1 1553   0.228   0.117   2.373  1.4711  0.5306 -3.4526
  518SOL    HW2 1554   0.134   0.261   2.377  0.6688  1.5951 -0.4069
  519SOL     OW 1555   0.591   1.484   3.073  0.1635  0.3880 -0.0977
  519SOL    HW1 1556   0.528   1.433   0.040  2.9633  1.5186  1.0262
  519SOL    HW2 1557   0.646   1.422   3.017  0.4856  0.7481 -0.1328
  520SOL     OW 1558   2.847   2.050   2.087 -0.5846 -0.7268 -0.0122
  520SOL    HW1 1559   2.836   2.007   2.179  2.1172  3.4289  0.7989
  520SOL    HW2 1560   2.892   2.140   2.107  2.2063 -1.0223 -1.2812
  521SOL     OW 1561   0.704   2.391   2.499 -0.1392  0.2330  0.0541
  521SOL    HW1 1562   0.703   2.309   2.439  0.5818  0.9317  1.2352
  521SOL    HW2 1563   0.628   2.456   2.478 -1.3152  1.8235 -0.0376
  522SOL     OW 1564   1.634   2.664   1.931  0.3390  0.6809 -0.6598
  522SOL    HW1 1565   1.559   2.666   1.999  1.8338 -3.3967  2.5686
  522SOL    HW2 1566   1.603   2.703   1.841  1.7883 -2.6050  2.7792
  523SOL     OW 1567   2.024   1.793   1.941  0.1319  0.5466  0.5114
  523SOL    HW1 1568   2.114   1.752   1.971 -1.0187 -0.3229 -2.8134
  523SOL    HW2 1569   2.013   1.893   1.964 -1.4024 -1.3904  1.2853
  524SOL     OW 1570   0.708   2.699   0.513 -0.2227 -0.2092 -0.1318
  524SOL    HW1 1571   0.647   2.721   0.438 -0.6652  0.7383  0.1224
  524SOL    HW2 1572   0.805   2.701   0.486 -0.3291  2.7912  0.6778
  525SOL     OW 1573   0.235   0.594   0.535  0.0578  0.0238 -0.3958
  525SOL    HW1 1574   0.335   0.572   0.519  3.2819 -1.1866 -0.7725
  525SOL    HW2 1575   0.183   0.513   0.570 -0.3977  2.4799 -0.7040
  526SOL     OW 1576   0.739   2.927   0.917  0.1251  0.2920  0.4635
  526SOL    HW1 1577   0.682   2.874   0.981  0.8336  2.0526  0.0636
  526SOL    HW2 1578   0.746   3.025   0.953 -0.3824  0.8320  0.4651
  527SOL     OW 1579   2.191   1.759   0.995  0.1059  1.3672  0.1016
  527SOL    HW1 1580   2.245   1.706   1.065  1.4034  0.3986  0.7500
  527SOL    HW2 1581   2.095   1.752   1.029  3.3220 -2.0164 -0.1004
  528SOL     OW 1582   2.753   2.512   2.492  0.5527  0.5570  0.3680
  528SOL    HW1 1583   2.686   2.583   2.473  1.9421 -2.4423 -0.3912
  528SOL    HW2 1584   2.809   2.488   2.411 -0.8755 -0.0877  1.1962
  529SOL     OW 1585   1.457   1.712   2.246  0.1048 -0.0880 -0.2029
  529SOL    HW1 1586   1.423   1.621   2.212 -3.3144 -0.1588 -3.6545
  529SOL    HW2 1587   1.554   1.722   2.214  1.2084  0.9371  2.1271
  530SOL     OW 1588   1.577   1.379   2.926  0.2505  0.1114 -0.5712
  530SOL    HW1 1589   1.552   1.438   2.847  2.0621 -0.7859  0.1609
  530SOL    HW2 1590   1.591   1.283   2.903 -0.5172 -1.6477  1.8533
  531SOL     OW 1591   0.582   1.081   0.020 -0.4359  0.0226 -0.2136
  531SOL    HW1 1592   0.517   1.043   3.047  0.7407 -0.6201 -0.2323
  531SOL    HW2 1593   0.629   1.004   0.065 -2.2692 -2.1956 -2.6935
  532SOL     OW 1594   1.773   1.255   0.443  0.5674 -0.3317  0.3207
  532SOL    HW1 1595   1.761   1.189   0.521  1.8954  0.3299 -0.2060
  532SOL    HW2 1596   1.871   1.250   0.406 -0.4670 -1.7172 -1.7807
  533SOL     OW 1597   0.567   0.278   2.635 -0.0783 -0.2094 -0.0335
  533SOL    HW1 1598   0.535   0.294   2.539 -2.7137 -0.8227 -0.4367
  533SOL    HW2 1599   0.669   0.269   2.638 -0.6977 -4.4888 -0.1222
  534SOL     OW 1600   0.912   2.510   2.988 -0.5525  0.5593 -0.0845
  534SOL    HW1 1601   0.833   2.487   2.928 -1.0517  1.4254 -1.4243
  534SOL    HW2 1602   0.938   2.605   2.963 -1.8662 -0.4592 -0.3276
  535SOL     OW 1603   0.056   0.181   0.091  0.7451 -0.3506  0.0216
  535SOL    HW1 1604   0.143   0.153   0.138  1.1127 -2.4928 -1.3105
  535SOL    HW2 1605   0.064   0.279   0.071  0.8730 -2.3155  1.1060
  536SOL     OW 1606   3.039   0.923   2.181  0.4224  0.5964  0.0239
  536SOL    HW1 1607   3.030   0.927   2.078  0.5926 -0.1827 -0.1704
  536SOL    HW2 1608   0.026   0.860   2.202  2.9742  0.1545 -1.0791
  537SOL     OW 1609   1.038   0.150   1.358  0.2549 -0.3239 -0.2161
  537SOL    HW1 1610   0.951   0.202   1.360 -3.1704  0.9952  0.6572
  537SOL    HW2 1611   1.120   0.207   1.325  2.6882 -0.2682 -4.0115
  538SOL     OW 1612   0.303   1.688   0.428  0.5880  0.4782 -0.0899
  538SOL    HW1 1613   0.300   1.657   0.331  1.0879 -0.3480  1.9979
  538SOL    HW2 1614   0.341   1.610   0.484  0.4708 -2.4587 -1.4663
  539SOL     OW 1615   2.643   1.020   2.050 -0.4231 -0.0567 -0.4888
  539SOL    HW1 1616   2.583   0.971   2.118 -0.3952 -0.2772  2.0882
  539SOL    HW2 1617   2.615   1.122   2.043  2.2360  2.8985 -0.5157
  540SOL     OW 1618   1.946   1.438   2.110 -0.4270 -0.0951 -0.2213
  540SOL    HW1 1619   1.898   1.350   2.119 -1.2261 -0.6747  0.9800
  540SOL    HW2 1620   2.046   1.431   2.105  2.0846 -0.9700  1.0470
  541SOL     OW 1621   0.994   1.387   1.604  0.1390  0.4869 -0.2528
  541SOL    HW1 1622   1.071   1.324   1.626 -0.2203 -0.6747  0.7255
  541SOL    HW2 1623   0.955   1.343   1.522  0.2788 -1.2474 -2.4254
  542SOL     OW 1624   1.720   0.422   2.047  0.1668  0.3564 -0.1637
  542SOL    HW1 1625   1.795   0.400   2.113 -0.0438 -0.8354  0.7063
  542SOL    HW2 1626   1.691   0.336   1.999 -0.5497 -0.2940  0.7308
  543SOL     OW 1627   0.881   0.254   0.559 -0.2911  0.5202 -0.2206
  543SOL    HW1 1628   0.949   0.182   0.539  0.9758 -0.5458  2.0242
  543SOL    HW2 1629   0.796   0.228   0.507 -0.5220 -1.3454 -2.7761
  544SOL     OW 1630   2.568   1.869   2.416 -0.3380  0.1691 -0.3922
  544SOL    HW1 1631   2.595   1.769   2.411  1.2395 -2.2738 -2.3406
  544SOL    HW2 1632   2.650   1.924   2.408  0.5976 -0.0632  1.6568
  545SOL     OW 1633   1.991   2.056   2.011 -0.0696  0.2881 -0.0181
  545SOL    HW1 1634   2.053   2.122   2.056 -0.5116  1.1486 -1.1173
  545SOL    HW2 1635   1.929   2.108   1.949 -0.6427  0.3234 -1.0277
  546SOL     OW 1636   0.295   0.054   0.155 -0.2611  0.1991  0.0125
  546SOL    HW1 1637   0.365   0.061   0.228 -0.4869  0.1550 -1.5425
  546SOL    HW2 1638   0.284   3.048   0.117  0.1863 -1.9806  1.3275
  547SOL     OW 1639   1.975   0.742   0.175 -0.3603  0.3728 -0.3345
  547SOL    HW1 1640   1.983   0.645   0.211  0.1082  0.4092  0.7611
  547SOL    HW2 1641   2.003   0.815   0.242  1.0199 -0.3756 -1.1914
  548SOL     OW 1642   2.285   1.643   2.461 -0.2306 -0.5521 -0.2230
  548SOL    HW1 1643   2.283   1.542   2.482  0.3595 -2.2883  1.4618
  548SOL    HW2 1644   2.383   1.676   2.458  2.6167 -0.0384  0.8788
  549SOL     OW 1645   1.990   0.492   0.628 -0.6029  0.7544  0.3822
  549SOL    HW1 1646   2.089   0.529   0.627  0.3423  0.9072  1.3102
  549SOL    HW2 1647   1.985   0.387   0.631  0.2702 -4.5507 -0.1580
  550SOL     OW 1648   2.410   2.225   0.713  0.4476  0.1746 -0.1555
  550SOL    HW1 1649   2.396   2.137   0.767  1.8952 -1.8514  1.8881
  550SOL    HW2 1650   2.408   2.305   0.770  1.4984 -3.0052 -2.1731
  551SOL     OW 1651   0.986   2.986   1.605  0.5771 -0.3046 -0.3107
  551SOL    HW1 1652   1.067   3.043   1.626  0.1878 -1.3871  2.1255
  551SOL    HW2 1653   0.911   3.045   1.565  0.7498 -0.8844  1.6665
  552SOL     OW 1654   2.922   2.267   2.723 -0.7102  0.3623 -0.1494
  552SOL    HW1 1655   2.921   2.368   2.711  0.0875  1.6815 -1.3385
  552SOL    HW2 1656   2.994   2.227   2.663  0.7527 -1.4912 -0.4584
  553SOL     OW 1657   0.308   2.886   0.653  0.3384  0.0218 -0.4642
  553SOL    HW1 1658   0.398   2.931   0.677 -0.1581 -1.1784  0.7525
  553SOL    HW2 1659   0.315   2.782   0.655  2.2241 -2.8668  0.7249
  554SOL     OW 1660   2.217   2.351   1.727 -0.1792 -0.3108  0.4250
  554SOL    HW1 1661   2.169   2.264   1.714  3.6383  1.9671 -0.1707
  554SOL    HW2 1662   2.273   2.375   1.644 -0.1954  1.3592 -3.8504
  555SOL     OW 1663   0.997   2.073   1.976 -0.2926 -0.0753  0.3882
  555SOL    HW1 1664   0.929   2.097   1.905 -1.0299  0.2027 -0.7832
  555SOL    HW2 1665   1.055   1.994   1.942 -2.2467 -1.7368  0.1905
  556SOL     OW 1666   1.458   1.696   1.258 -0.6225  0.5402  0.6286
  556SOL    HW1 1667   1.412   1.684   1.166 -0.0337 -1.5977 -1.6357
  556SOL    HW2 1668   1.511   1.781   1.261  2.9759 -1.0682 -0.2170
  557SOL     OW 1669   2.127   2.230   2.188 -0.7944  0.1281 -0.2855
  557SOL    HW1 1670   2.197   2.248   2.120 -1.9281 -0.4835  0.4253
  557SOL    HW2 1671   2.172   2.180   2.263  2.2828  1.4799 -1.4933
  558SOL     OW 1672   0.562   3.062   2.215  0.3864 -0.0530  0.3341
  558SOL    HW1 1673   0.464   3.083   2.238 -3.2262 -1.3225  0.7736
  558SOL    HW2 1674   0.606   0.056   2.196  0.5098 -0.9086  1.9581
  559SOL     OW 1675   2.258   2.701   1.286  0.2745 -0.4697 -0.4741
  559SOL    HW1 1676   2.311   2.630   1.337  2.2534 -1.9737 -0.2136
  559SOL    HW2 1677   2.296   2.722   1.196  0.0948  2.3939 -3.4002
  560SOL     OW 1678   0.970   2.461   0.441  0.4286  0.5719 -0.1179
  560SOL    HW1 1679   0.961   2.554   0.477  1.0968 -2.5031  0.5454
  560SOL    HW2 1680   0.902   2.391   0.475  1.2068 -0.1701 -0.2861
  561SOL     OW 1681   0.888   0.480   0.102 -0.4168  0.1678 -0.7689
  561SOL    HW1 1682   0.909   0.558   0.039  1.0266  0.2501  0.6647
  561SOL    HW2 1683   0.823   0.517   0.176  1.9229  1.6288 -4.0109
  562SOL     OW 1684   0.698   0.215   3.018 -0.2642  0.3563  0.2123
  562SOL    HW1 1685   0.668   0.119   3.011  1.2535  0.3911 -0.1175
  562SOL    HW2 1686   0.778   0.233   2.965 -3.2058 -0.3212  2.2373
  563SOL     OW 1687   1.670   1.735   2.883 -0.1892 -0.9570 -0.1764
  563SOL    HW1 1688   1.623   1.680   2.810 -1.3777  0.7666 -1.8179
  563SOL    HW2 1689   1.768   1.748   2.866  0.5585  0.1551 -1.3426
  564SOL     OW 1690   2.755   1.173   0.734 -0.7314  0.3876  0.2921
  564SOL    HW1 1691   2.700   1.097   0.697 -0.6497  0.9343 -0.7190
  564SOL    HW2 1692   2.711   1.261   0.719  0.0866  1.2270  1.0544
  565SOL     OW 1693   0.942   0.235   2.881  0.0972  0.0481 -0.8313
  565SOL    HW1 1694   0.996   0.150   2.888 -0.4568  1.6091  0.0146
  565SOL    HW2 1695   1.003   0.317   2.853 -0.5265 -0.1381 -1.3335
  566SOL     OW 1696   1.277   0.155   2.175 -0.6261  0.5297 -0.3357
  566SOL    HW1 1697   1.257   0.237   2.111  0.3079  1.1538 -0.5620
  566SOL    HW2 1698   1.299   0.074   2.116  0.7603 -0.2765 -1.0713
  567SOL     OW 1699   2.358   1.198   0.745 -0.2803  0.3954 -0.2563
  567SOL    HW1 1700   2.369   1.223   0.645  0.7801  0.0937  2.7547
  567SOL    HW2 1701   2.325   1.272   0.809 -4.4974 -1.2757 -0.2535
  568SOL     OW 1702   1.870   1.826   0.517  0.0255  0.2025 -0.0789
  568SOL    HW1 1703   1.967   1.843   0.490  0.0044  0.3332  4.2075
  568SOL    HW2 1704   1.826   1.914   0.492 -1.2308 -1.6258 -0.6475
  569SOL     OW 1705   2.020   1.294   2.999 -0.5171  0.4067  0.0900
  569SOL    HW1 1706   1.991   1.199   3.004  2.1125  1.4868 -1.2791
  569SOL    HW2 1707   2.119   1.292   3.026  0.5811  1.7400 -1.9333
  570SOL     OW 1708   0.243   2.715   1.790  0.2500 -0.3797 -0.3825
  570SOL    HW1 1709   0.190   2.714   1.875  2.2446 -1.0699  1.4368
  570SOL    HW2 1710   0.261   2.809   1.758  1.3640 -1.8904  1.6125
  571SOL     OW 1711   0.076   0.381   2.235  0.6793 -0.1523  0.4321
  571SOL    HW1 1712   0.171   0.419   2.237 -1.6619  0.6985 -0.0821
  571SOL    HW2 1713   0.000   0.443   2.268 -0.8320  0.1200 -1.2633
  572SOL     OW 1714   1.049   1.640   0.717  0.3076  0.0018 -0.4331
  572SOL    HW1 1715   0.985   1.590   0.780  0.0126  0.7671  2.3344
  572SOL    HW2 1716   1.061   1.735   0.754  0.1557  1.0342  0.6366
  573SOL     OW 1717   1.361   2.348   0.280  0.6201 -0.4312  0.1114
  573SOL    HW1 1718   1.386   2.378   0.186 -2.2680 -0.5092  3.8455
  573SOL    HW2 1719   1.441   2.323   0.334 -1.8126  2.8703  1.5637
  574SOL     OW 1720   0.965   0.143   0.966 -0.1295 -0.1132  0.4295
  574SOL    HW1 1721   0.956   0.089   1.054 -0.3956 -1.1564  0.1826
  574SOL    HW2 1722   0.872   0.144   0.923  0.0862 -0.8872  1.2650
  575SOL     OW 1723   3.022   0.851   1.408 -0.3495  0.1932 -0.8017
  575SOL    HW1 1724   2.955   0.850   1.332 -0.8213  0.6922  0.7581
  575SOL    HW2 1725   3.020   0.945   1.447 -0.8775 -1.1082 -0.0755
  576SOL     OW 1726   1.497   3.027   1.611 -0.0794 -0.1821  0.5188
  576SOL    HW1 1727   1.486   3.073   1.520 -1.7645 -1.0133  4.1451
  576SOL    HW2 1728   1.578   2.961   1.607  0.3886 -0.5258 -0.8640
  577SOL     OW 1729   0.498   0.872   2.004 -0.2476 -0.1973  0.1151
  577SOL    HW1 1730   0.513   0.953   1.949 -2.8611  0.8639  0.6851
  577SOL    HW2 1731   0.571   0.873   2.076  0.2688  0.6567  0.0614
  578SOL     OW 1732   1.882   0.362   2.547  0.1041  0.2003 -0.0789
  578SOL    HW1 1733   1.884   0.463   2.550 -0.7847 -2.0402  1.1135
  578SOL    HW2 1734   1.793   0.335   2.595 -1.3723  1.0862  1.0250
  579SOL     OW 1735   2.392   1.783   1.974  0.3248 -0.1895 -0.0084
  579SOL    HW1 1736   2.427   1.778   1.879  0.0169 -0.0255 -1.6442
  579SOL    HW2 1737   2.407   1.876   2.017 -1.2367  2.1018  2.0419
  580SOL     OW 1738   1.917   1.221   2.470  0.1342 -0.6395  0.4396
  580SOL    HW1 1739   1.895   1.250   2.563 -1.3138 -0.7540 -1.4738
  580SOL    HW2 1740   1.929   1.118   2.467 -2.1090  0.9776  3.6308
  581SOL     OW 1741   1.509   1.120   2.870  0.6181  0.0775 -0.1055
  581SOL    HW1 1742   1.465   1.023   2.871 -2.0435  0.1597 -0.7135
  581SOL    HW2 1743   1.480   1.171   2.787 -0.6064  1.6544  1.5686
  582SOL     OW 1744   0.835   1.668   1.419  0.1654  0.3823 -0.3505
  582SOL    HW1 1745   0.811   1.598   1.494 -1.0357  1.1173  4.5486
  582SOL    HW2 1746   0.921   1.723   1.447  0.4460  0.5555  0.3924
  583SOL     OW 1747   1.670   1.189   1.323  0.5321 -0.4914 -0.0264
  583SOL    HW1 1748   1.709   1.139   1.246 -0.5591  1.0127  0.7772
  583SOL    HW2 1749   1.674   1.293   1.319  0.9797 -0.0564  0.9005
  584SOL     OW 1750   1.894   2.468   0.646  0.3139  0.3726  0.2329
  584SOL    HW1 1751   1.795   2.492   0.658 -0.0996  1.2427  0.5352
  584SOL    HW2 1752   1.951   2.493   0.727 -0.5958  1.7496  2.7453
  585SOL     OW 1753   1.964   2.903   2.869 -0.2890 -0.1840  0.1937
  585SOL    HW1 1754   1.868   2.920   2.848  2.3258 -3.0464 -0.7758
  585SOL    HW2 1755   1.963   2.817   2.923 -1.6141 -1.0770 -1.7927
  586SOL     OW 1756   2.827   2.328   0.869  0.1914 -0.6610 -0.1705
  586SOL    HW1 1757   2.806   2.404   0.798  0.3786  1.5522 -0.3463
  586SOL    HW2 1758   2.749   2.319   0.936 -2.6948 -1.4733 -4.2358
  587SOL     OW 1759   1.003   1.781   0.080  0.1233  0.5147  0.2047
  587SOL    HW1 1760   1.084   1.828   0.111 -1.6325  0.5471 -1.2245
  587SOL    HW2 1761   1.033   1.696   0.021  1.0751 -0.9236  3.1394
  588SOL     OW 1762   0.455   0.086   1.084  0.0706  0.1112 -0.2552
  588SOL    HW1 1763   0.525   0.061   1.157  0.3546 -2.2165  2.5769
  588SOL    HW2 1764   0.415   0.178   1.084  1.9225 -0.3776  1.4688
  589SOL     OW 1765   1.259   0.800   0.635 -0.5018 -0.8145  0.1259
  589SOL    HW1 1766   1.252   0.747   0.720 -1.5646 -0.5300 -0.8655
  589SOL    HW2 1767   1.162   0.819   0.596 -2.6337 -1.2043  0.7193
  590SOL     OW 1768   1.913   2.675   3.019  0.2786  0.5614 -0.3956
  590SOL    HW1 1769   1.951   2.619   3.091 -0.1420  3.3057 -0.7215
  590SOL    HW2 1770   1.824   2.720   3.053  0.9223  1.7883  1.5658
  591SOL     OW 1771   0.363   2.459   2.772 -0.0760  0.1052  0.6308
  591SOL    HW1 1772   0.389   2.544   2.820 -0.1240  0.3387 -0.7391
  591SOL    HW2 1773   0.317   2.475   2.680 -0.0527  0.6131 -1.7843
  592SOL     OW 1774   2.845   1.577   1.965 -0.2271  0.2219 -0.5425
  592SOL    HW1 1775   2.873   1.484   2.007 -1.1749 -3.2637 -1.0998
  592SOL    HW2 1776   2.761   1.560   1.912 -0.0065  1.4297  3.1468
  593SOL     OW 1777   1.845   1.465   1.484  0.0053  0.1691  0.1794
  593SOL    HW1 1778   1.825   1.370   1.517 -0.2234 -1.3656 -3.1134
  593SOL    HW2 1779   1.788   1.490   1.404 -1.4079  1.8788  1.8161
  594SOL     OW 1780   2.568   1.223   2.964  0.2288 -0.0054 -0.4212
  594SOL    HW1 1781   2.559   1.322   2.938  0.1299  0.7630 -2.8939
  594SOL    HW2 1782   2.599   1.213   3.059 -1.2473 -1.1628  0.8555
  595SOL     OW 1783   0.770   0.893   0.514 -0.2273  0.1101  0.0526
  595SOL    HW1 1784   0.750   0.976   0.567  2.1401  1.0658  0.3374
  595SOL    HW2 1785   0.792   0.921   0.419 -2.6200 -1.6091 -1.4638
  596SOL     OW 1786   2.927   1.361   1.333 -0.4176 -0.1261  0.4496
  596SOL    HW1 1787   2.973   1.351   1.243 -0.2930  0.0615  0.7006
  596SOL    HW2 1788   2.982   1.412   1.404  0.1182 -1.9828 -0.1262
  597SOL     OW 1789   0.799   2.073   1.418  0.1412 -0.2521 -0.3586
  597SOL    HW1 1790   0.774   2.160   1.465  3.5631 -0.2859 -0.0940
  597SOL    HW2 1791   0.710   2.042   1.376 -0.4600  1.8183  0.6415
  598SOL     OW 1792   2.651   2.718   2.002 -0.3815 -0.3451 -0.3598
  598SOL    HW1 1793   2.671   2.793   1.934 -0.1890  2.4266 -1.9419
  598SOL    HW2 1794   2.585   2.656   1.958 -0.4411 -0.4781  0.2054
  599SOL     OW 1795   0.496   1.348   2.734 -0.0435  0.4280 -0.1860
  599SOL    HW1 1796   0.479   1.446   2.748  0.3991  0.4153  1.5048
  599SOL    HW2 1797   0.447   1.317   2.652 -0.1046 -1.7886 -0.4954
  600SOL     OW 1798   0.665   0.833   0.076  0.0802  0.6151  0.1992
  600SOL    HW1 1799   0.694   0.771   3.092 -2.2300  1.7215  1.4269
  600SOL    HW2 1800   0.586   0.783   0.121 -0.0929  0.3512  0.4037
  601SOL     OW 1801   0.705   0.843   1.712  0.2720 -0.7450  0.6165
  601SOL    HW1 1802   0.789   0.893   1.733  0.2247 -1.3103  0.9220
  601SOL    HW2 1803   0.712   0.767   1.782  1.8950 -2.1434  1.1928
  602SOL     OW 1804   0.485   2.865   0.406  0.0028 -0.0081  0.1774
  602SOL    HW1 1805   0.413   2.885   0.470 -0.2612 -1.8826 -1.4832
  602SOL    HW2 1806   0.468   2.777   0.353  1.2505  4.1037 -0.9509
  603SOL     OW 1807   1.235   2.785   2.257  0.5971  0.8005  0.3910
  603SOL    HW1 1808   1.282   2.715   2.323  2.4594 -0.0311 -2.4790
  603SOL    HW2 1809   1.138   2.776   2.255  1.5341 -1.8717 -0.4422
  604SOL     OW 1810   0.330   2.376   0.017 -0.3506  0.3567 -0.6960
  604SOL    HW1 1811   0.301   2.290   3.055 -1.4618 -4.1006 -0.9250
  604SOL    HW2 1812   0.275   2.458   3.087 -1.2416 -0.2367  1.3630
  605SOL     OW 1813   2.091   1.008   1.406 -0.4748 -0.1116 -0.2014
  605SOL    HW1 1814   2.030   0.928   1.419 -0.1701 -0.7707 -0.7781
  605SOL    HW2 1815   2.054   1.092   1.457  0.2234  0.1190 -0.9781
  606SOL     OW 1816   0.739   0.988   2.641 -0.3295 -0.2393  0.0518
  606SOL    HW1 1817   0.794   1.067   2.682  0.4376  1.5269  0.5577
  606SOL    HW2 1818   0.741   0.906   2.697 -2.1493  2.7784  0.1277
  607SOL     OW 1819   0.744   0.531   1.078 -0.2775 -0.5762 -0.4350
  607SOL    HW1 1820   0.719   0.520   1.176  0.3726  0.7919  0.4158
  607SOL    HW2 1821   0.834   0.490   1.059  0.0602  0.9627 -2.0022
  608SOL     OW 1822   2.917   1.857   1.882 -0.3590  0.2038 -0.2722
  608SOL    HW1 1823   2.921   1.763   1.925 -1.0983 -1.0962 -2.7332
  608SOL    HW2 1824   2.898   1.928   1.956 -1.2537 -1.6027  0.4721
  609SOL     OW 1825   2.488   0.418   0.244 -0.5277  0.3073  0.4665
  609SOL    HW1 1826   2.430   0.449   0.165  1.7931  0.4679  1.2444
  609SOL    HW2 1827   2.429   0.360   0.308  0.8664  0.4492 -2.7613
  610SOL     OW 1828   3.052   2.732   1.394  0.3002 -0.2098 -0.1054
  610SOL    HW1 1829   3.066   2.807   1.464 -0.8730  3.2436 -0.0645
  610SOL    HW2 1830   3.021   2.771   1.302 -0.0063  2.2628  0.6114
  611SOL     OW 1831   1.758   2.207   0.120  0.0182  0.2180 -0.5319
  611SOL    HW1 1832   1.843   2.249   0.152 -1.9951  1.4829  2.2684
  611SOL    HW2 1833   1.725   2.140   0.186  0.0511 -0.5749 -3.5429
  612SOL     OW 1834   0.679   0.401   1.898 -0.0541 -0.5038 -0.3602
  612SOL    HW1 1835   0.769   0.364   1.868  0.5135 -1.7468 -0.3490
  612SOL    HW2 1836   0.702   0.500   1.926  1.3057  0.9928  1.0267
  613SOL     OW 1837   0.391   2.007   0.844  0.0380 -0.1579 -0.0122
  613SOL    HW1 1838   0.324   2.014   0.913  1.5521 -0.3290 -0.4580
  613SOL    HW2 1839   0.366   2.062   0.765  0.8920 -0.2742  0.1843
  614SOL     OW 1840   1.445   0.094   1.834  0.0857  0.1268 -0.3893
  614SOL    HW1 1841   1.510   0.114   1.910  1.4509  0.5993  0.9482
  614SOL    HW2 1842   1.473   0.018   1.772  0.3286 -1.4367 -0.7396
  615SOL     OW 1843   1.609   1.290   0.823 -0.2850 -0.2667  0.8360
  615SOL    HW1 1844   1.684   1.227   0.781  0.5238 -2.8807  0.1468
  615SOL    HW2 1845   1.604   1.388   0.793  0.2073 -1.8767 -0.5243
  616SOL     OW 1846   2.045   1.604   0.178  0.3884  0.0461 -0.2556
  616SOL    HW1 1847   1.949   1.607   0.217 -1.0101 -0.8380  1.4073
  616SOL    HW2 1848   2.089   1.692   0.185 -2.6489  1.1715  1.4242
  617SOL     OW 1849   1.518   0.649   3.054  0.0614 -0.3451  0.2785
  617SOL    HW1 1850   1.490   0.715   0.035  0.4457  2.7856 -1.6115
  617SOL    HW2 1851   1.622   0.661   3.050 -1.2885 -2.0471 -2.2655
  618SOL     OW 1852   0.434   0.711   2.297 -0.1257  0.0114  0.4011
  618SOL    HW1 1853   0.485   0.692   2.383  1.6978 -2.1289 -1.2214
  618SOL    HW2 1854   0.391   0.621   2.264  0.0303 -1.2153  0.7703
  619SOL     OW 1855   3.091   1.554   1.457 -0.6793  0.0068  0.0474
  619SOL    HW1 1856   0.073   1.541   1.521  0.1939 -0.6672  0.9720
  619SOL    HW2 1857   3.077   1.650   1.443 -1.3823 -5.2579  0.9529
  620SOL     OW 1858   2.326   3.022   2.589  0.4319 -0.0510  0.2780
  620SOL    HW1 1859   2.335   0.021   2.558  0.6512 -0.3204  3.6443
  620SOL    HW2 1860   2.307   3.016   2.690  0.8093 -2.8455 -0.4971
  621SOL     OW 1861   2.660   1.903   0.164 -0.3170  0.4250  0.3975
  621SOL    HW1 1862   2.616   1.814   0.166  1.2006 -0.4127 -2.1590
  621SOL    HW2 1863   2.595   1.984   0.179 -1.4749 -0.9855 -2.3376
  622SOL     OW 1864   1.361   0.251   2.401  0.4773 -0.6471  0.1762
  622SOL    HW1 1865   1.326   0.189   2.326 -1.4100  1.1468 -1.4655
  622SOL    HW2 1866   1.453   0.289   2.371 -0.0554 -1.2459  0.8098
  623SOL     OW 1867   0.582   1.981   1.283  0.0017  0.4808 -0.0300
  623SOL    HW1 1868   0.623   1.889   1.255  0.2987  1.5293 -0.6752
  623SOL    HW2 1869   0.559   2.044   1.208 -0.6538 -0.7754  2.2498
  624SOL     OW 1870   2.913   2.950   2.962  0.1598 -0.2860  0.0304
  624SOL    HW1 1871   2.874   2.911   2.875 -0.2429 -0.6429  1.4296
  624SOL    HW2 1872   2.965   3.035   2.943  0.5649  1.4512  1.6332
  625SOL     OW 1873   0.805   2.251   0.516 -0.1445  0.4477 -0.6751
  625SOL    HW1 1874   0.894   2.199   0.518 -1.4564  0.2385  0.3551
  625SOL    HW2 1875   0.740   2.198   0.452  0.7453 -1.0008  1.1998
  626SOL     OW 1876   2.958   0.742   2.807  0.7370 -0.1368 -0.6123
  626SOL    HW1 1877   3.039   0.691   2.776  0.4099 -1.4806  0.5806
  626SOL    HW2 1878   2.880   0.675   2.811 -1.4763 -3.7716 -1.4668
  627SOL     OW 1879   1.333   1.978   2.969 -0.4250  0.5029  0.2479
  627SOL    HW1 1880   1.428   2.023   2.968  0.4068 -0.4348  0.1627
  627SOL    HW2 1881   1.261   2.035   2.922 -0.2891 -0.0382 -0.5038
  628SOL     OW 1882   3.047   2.553   3.032 -0.3853 -0.1758  0.1931
  628SOL    HW1 1883   0.007   2.568   2.943 -0.9440  3.0312 -2.2678
  628SOL    HW2 1884   0.007   2.582   0.022 -0.2798 -1.0392  0.2254
  629SOL     OW 1885   0.753   2.764   2.762  0.0242  0.2306 -0.1267
  629SOL    HW1 1886   0.848   2.732   2.782  0.6006 -0.9708 -0.2901
  629SOL    HW2 1887   0.754   2.819   2.674  0.0314 -0.5098  1.6869
  630SOL     OW 1888   1.021   0.438   1.704 -0.4709  1.1141 -0.1934
  630SOL    HW1 1889   0.987   0.349   1.746 -1.6446  0.0231  1.6923
  630SOL    HW2 1890   1.029   0.508   1.770 -0.9931 -3.6039 -1.4669
  631SOL     OW 1891   2.036   0.961   0.334 -0.3778  0.1905 -0.0256
  631SOL    HW1 1892   2.029   1.059   0.304  1.5002  1.3707 -2.1380
  631SOL    HW2 1893   2.009   0.946   0.433 -1.0698 -0.6984  3.5970
  632SOL     OW 1894   2.518   0.373   1.880 -0.1214  0.1268  0.2421
  632SOL    HW1 1895   2.495   0.428   1.794  0.2285  1.6466  2.1463
  632SOL    HW2 1896   2.584   0.300   1.868 -2.4255  2.2561  2.1790
  633SOL     OW 1897   1.073   1.383   0.317  0.0622  0.2657  0.2053
  633SOL    HW1 1898   1.028   1.427   0.397  0.4241 -1.0748 -2.1597
  633SOL    HW2 1899   1.103   1.287   0.329 -0.1754  0.3398 -0.4382
  634SOL     OW 1900   2.561   2.699   2.407  0.4427  0.3044 -0.0994
  634SOL    HW1 1901   2.469   2.709   2.361 -0.1631  0.1294  1.2168
  634SOL    HW2 1902   2.630   2.744   2.343  0.1827 -0.7690 -0.1358
  635SOL     OW 1903   1.827   0.532   0.384 -0.0081  0.0593 -0.4214
  635SOL    HW1 1904   1.737   0.584   0.380 -1.8903 -0.6895  0.6549
  635SOL    HW2 1905   1.879   0.550   0.473  0.7005 -1.0173 -0.2039
  636SOL     OW 1906   0.675   1.180   0.907 -0.3308 -0.0853  0.0380
  636SOL    HW1 1907   0.645   1.277   0.926 -2.3424 -1.2869 -0.4892
  636SOL    HW2 1908   0.688   1.165   0.807 -0.4385 -0.0937  3.2348
  637SOL     OW 1909   2.638   2.211   0.242 -0.0609 -0.2724  0.7355
  637SOL    HW1 1910   2.693   2.254   0.315 -0.3886  1.2613  0.7827
  637SOL    HW2 1911   2.643   2.263   0.153  3.4680  0.3809  0.4254
  638SOL     OW 1912   1.556   2.434   2.296  0.4812  0.9263 -0.8521
  638SOL    HW1 1913   1.575   2.396   2.206 -3.3226  1.3881  0.2484
  638SOL    HW2 1914   1.635   2.494   2.335  3.1145 -1.2879  3.8923
  639SOL     OW 1915   1.389   1.979   0.517  0.1393  0.2801  0.4596
  639SOL    HW1 1916   1.305   1.999   0.466  1.0673  1.2279  0.9372
  639SOL    HW2 1917   1.356   1.950   0.610  0.7691  0.2260 -1.7340
  640SOL     OW 1918   1.986   0.213   0.555 -0.4778 -0.5805  0.3462
  640SOL    HW1 1919   2.003   0.110   0.567 -1.8522 -1.8011  0.2921
  640SOL    HW2 1920   2.009   0.248   0.461 -3.0718 -0.8224  0.1168
  641SOL     OW 1921   2.901   0.052   0.183  0.4021 -0.4794  1.3400
  641SOL    HW1 1922   2.997   0.087   0.174  1.1057  0.7645  0.7908
  641SOL    HW2 1923   2.831   0.130   0.192 -2.0997  0.9250  0.7870
  642SOL     OW 1924   0.535   0.791   1.212 -0.3987  0.3539  0.6144
  642SOL    HW1 1925   0.501   0.818   1.116 -1.5408 -2.7971 -0.1203
  642SOL    HW2 1926   0.463   0.800   1.282 -0.5751  1.0813 -3.6109
  643SOL     OW 1927   0.855   1.287   2.089  0.2838 -0.4437 -0.4029
  643SOL    HW1 1928   0.884   1.247   2.180  1.9019 -2.2418  0.7920
  643SOL    HW2 1929   0.787   1.232   2.036  3.3759  1.1884  0.0525
  644SOL     OW 1930   1.468   2.274   0.536  0.3767 -0.0852 -0.2665
  644SOL    HW1 1931   1.485   2.179   0.511 -3.4482 -0.4741  0.0330
  644SOL    HW2 1932   1.372   2.284   0.571  2.7047  2.2475  1.1238
  645SOL     OW 1933   1.629   2.016   0.295 -0.2489  0.6418  0.4215
  645SOL    HW1 1934   1.632   1.944   0.223 -1.0172 -2.8995  1.2649
  645SOL    HW2 1935   1.562   1.985   0.364 -2.4905  1.2642 -2.3974
  646SOL     OW 1936   0.038   1.668   2.814  0.0501 -0.0179  0.2232
  646SOL    HW1 1937   3.057   1.743   2.812 -0.2873  1.7698 -1.3955
  646SOL    HW2 1938   0.057   1.626   2.721  1.5960  0.1008  0.9741
  647SOL     OW 1939   0.987   0.449   0.991 -0.2567  0.0058  0.3016
  647SOL    HW1 1940   1.031   0.357   1.002  0.0352 -1.5217 -0.4246
  647SOL    HW2 1941   0.934   0.459   0.901  0.3560 -0.1540  0.9293
  648SOL     OW 1942   1.458   0.579   1.204  0.2638 -0.1631  0.4465
  648SOL    HW1 1943   1.466   0.638   1.125 -0.5654  1.4118  3.8669
  648SOL    HW2 1944   1.556   0.559   1.236 -0.5127  0.5590 -2.4683
  649SOL     OW 1945   0.903   1.708   0.312  0.5840  0.0532  0.1689
  649SOL    HW1 1946   0.921   1.731   0.212  0.8208 -0.4190  2.9221
  649SOL    HW2 1947   0.981   1.733   0.367 -0.6407 -0.9374 -0.1184
  650SOL     OW 1948   2.515   1.531   1.988  0.6130 -0.5410 -0.4478
  650SOL    HW1 1949   2.456   1.615   2.010  0.0018 -0.3428  1.6090
  650SOL    HW2 1950   2.561   1.541   1.892  0.2149 -1.8324 -2.2939
  651SOL     OW 1951   1.618   2.314   2.829  0.4676 -0.1646 -0.3380
  651SOL    HW1 1952   1.718   2.301   2.803  4.2390 -0.9878 -3.5388
  651SOL    HW2 1953   1.554   2.290   2.750  0.3897  0.0559 -2.5009
  652SOL     OW 1954   2.482   1.667   0.165 -0.3986 -0.1670  0.0298
  652SOL    HW1 1955   2.488   1.706   0.071 -2.1313  3.2786 -0.3700
  652SOL    HW2 1956   2.460   1.567   0.164  1.0141 -1.4385 -3.2345
  653SOL     OW 1957   0.136   0.151   0.796 -0.2580 -0.3400  0.1111
  653SOL    HW1 1958   0.136   0.204   0.882 -1.7198 -0.7090  1.4792
  653SOL    HW2 1959   0.178   0.066   0.817 -1.0134  0.3657  1.5215
  654SOL     OW 1960   2.548   0.017   2.123 -0.2833  0.0857  0.1852
  654SOL    HW1 1961   2.570   0.114   2.162  0.0351  2.1327 -2.5816
  654SOL    HW2 1962   2.520   0.028   2.026  1.6588  1.4576  0.1477
  655SOL     OW 1963   0.607   2.746   1.068  0.5678 -0.0962  0.3044
  655SOL    HW1 1964   0.506   2.732   1.051  3.5023 -0.1605  1.7520
  655SOL    HW2 1965   0.636   2.745   1.167  1.9771  1.2456  2.3492
  656SOL     OW 1966   3.011   2.950   2.521  0.2308 -0.5188 -0.0264
  656SOL    HW1 1967   2.938   2.998   2.459  0.9892  2.4859  0.7866
  656SOL    HW2 1968   3.079   3.011   2.569  2.3523 -0.1704  3.0072
  657SOL     OW 1969   2.905   0.973   3.075 -0.2009 -0.4791  0.6710
  657SOL    HW1 1970   2.965   1.015   3.007  0.5147 -0.7872 -3.7575
  657SOL    HW2 1971   2.947   0.887   0.017  1.4626  1.1352  1.1577
  658SOL     OW 1972   2.404   1.974   1.170 -0.4516  0.2919 -0.0820
  658SOL    HW1 1973   2.390   2.059   1.228 -0.0320 -0.0645 -0.8421
  658SOL    HW2 1974   2.331   1.902   1.194 -0.9346  1.7590 -1.5656
  659SOL     OW 1975   1.841   2.771   0.433  0.0386  0.1879 -0.4739
  659SOL    HW1 1976   1.930   2.721   0.429  1.2362 -0.7848 -1.0701
  659SOL    HW2 1977   1.761   2.709   0.444  0.3317  0.6035 -0.1391
  660SOL     OW 1978   1.653   0.985   2.533 -0.5617  0.6314  0.0126
  660SOL    HW1 1979   1.663   1.013   2.438  0.9474 -0.2542  2.1656
  660SOL    HW2 1980   1.572   0.928   2.548  1.6363 -0.0458 -1.7461
  661SOL     OW 1981   2.865   2.133   1.216 -0.4788 -0.2254  0.9085
  661SOL    HW1 1982   2.791   2.194   1.178  0.6769  0.0980 -1.7259
  661SOL    HW2 1983   2.903   2.079   1.140  0.7181 -1.2036 -2.8120
  662SOL     OW 1984   0.492   0.668   0.204  0.7079 -0.9403 -0.2087
  662SOL    HW1 1985   0.420   0.743   0.217  1.7297  1.5450  1.5593
  662SOL    HW2 1986   0.506   0.616   0.289 -1.2907 -0.5661  0.8760
  663SOL     OW 1987   2.029   2.065   1.175  0.3348  0.1940  0.1349
  663SOL    HW1 1988   1.992   2.121   1.250  0.7084 -0.7985  0.3349
  663SOL    HW2 1989   2.096   1.991   1.208 -2.2776  0.2958 -1.5976
  664SOL     OW 1990   0.920   1.509   1.168 -0.4995  0.0893 -0.2778
  664SOL    HW1 1991   1.004   1.568   1.155  0.7259  0.1875 -0.5697
  664SOL    HW2 1992   0.876   1.525   1.259 -0.6042  1.6097 -1.8091
  665SOL     OW 1993   1.812   2.446   1.924 -0.2934  0.2824  0.3234
  665SOL    HW1 1994   1.764   2.539   1.929 -1.1964  0.9005  0.6341
  665SOL    HW2 1995   1.844   2.404   2.012  0.0816 -2.6919  2.1259
  666SOL     OW 1996   2.985   2.702   0.260 -0.1561  0.0080 -0.1582
  666SOL    HW1 1997   2.886   2.686   0.271 -1.4247  1.1979  2.7672
  666SOL    HW2 1998   3.031   2.721   0.346  0.8821  2.0410 -2.3670
  667SOL     OW 1999   2.661   1.519   1.770  0.6807 -0.1405  0.4101
  667SOL    HW1 2000   2.703   1.606   1.726  0.8543  2.9895  0.2038
  667SOL    HW2 2001   2.677   1.437   1.711 -0.7175  1.7769 -2.8609
  668SOL     OW 2002   0.362   0.557   2.623 -0.6058  0.4368  0.2639
  668SOL    HW1 2003   0.326   0.463   2.637 -0.4899 -0.5480  0.6172
  668SOL    HW2 2004   0.298   0.614   2.571  1.1957 -2.2960 -0.1831
  669SOL     OW 2005   2.156   2.028   2.899 -0.0818 -0.7555 -0.1971
  669SOL    HW1 2006   2.078   2.040   2.968 -1.6221  1.6762  3.8834
  669SOL    HW2 2007   2.247   2.039   2.945 -0.1166 -0.4990 -0.2250
  670SOL     OW 2008   2.643   1.418   2.268 -0.3234  0.6197  0.4283
  670SOL    HW1 2009   2.624   1.326   2.303 -0.7467  1.4782  1.3377
  670SOL    HW2 2010   2.658   1.417   2.166  1.9112  1.3545 -1.1521
  671SOL     OW 2011   0.157   1.641   0.747 -0.0706 -0.4051  0.0193
  671SOL    HW1 2012   0.112   1.721   0.700 -1.7289 -3.1205 -1.0088
  671SOL    HW2 2013   0.123   1.555   0.701 -1.2845 -1.0802  0.9493
  672SOL     OW 2014   2.368   0.727   1.868 -0.2732  0.3358  0.6588
  672SOL    HW1 2015   2.320   0.771   1.787 -1.0241  0.4306 -0.2565
  672SOL    HW2 2016   2.469   0.740   1.867 -1.5262  0.5571 -1.5181
  673SOL     OW 2017   2.420   2.534   2.081 -0.2376 -0.1547  0.3463
  673SOL    HW1 2018   2.489   2.472   2.132  2.2095 -1.1353 -0.2890
  673SOL    HW2 2019   2.449   2.554   1.983  0.5917  0.6229 -0.4466
  674SOL     OW 2020   1.559   2.426   1.688 -0.0644 -0.1298  0.4117
  674SOL    HW1 2021   1.482   2.356   1.681  0.5728  0.2336  0.3326
  674SOL    HW2 2022   1.599   2.434   1.782  1.3925 -0.6015  0.2424
  675SOL     OW 2023   0.468   0.914   0.965 -0.0568 -0.0079 -0.3336
  675SOL    HW1 2024   0.402   0.994   0.960  0.8583  0.9553 -2.2644
  675SOL    HW2 2025   0.533   0.923   0.888 -1.3071  0.7271  0.2818
  676SOL     OW 2026   1.793   1.077   0.679 -0.1992 -0.2521 -0.2010
  676SOL    HW1 2027   1.840   1.001   0.631  1.2754  3.3171  0.3563
  676SOL    HW2 2028   1.858   1.132   0.739  1.7031  2.9211 -0.1556
  677SOL     OW 2029   2.917   1.271   2.413  0.2509 -0.6830 -0.4737
  677SOL    HW1 2030   2.859   1.306   2.489  0.3553 -1.3270  2.2422
  677SOL    HW2 2031   2.873   1.204   2.352 -1.1943  0.7319  3.2364
  678SOL     OW 2032   2.656   1.891   1.142 -0.2554  0.5341 -0.9103
  678SOL    HW1 2033   2.720   1.921   1.216  1.1129 -2.0172  0.7940
  678SOL    HW2 2034   2.562   1.934   1.150 -1.5124  2.0336  0.9631
  679SOL     OW 2035   2.020   2.552   0.414  0.1640  0.3121 -0.1440
  679SOL    HW1 2036   2.114   2.540   0.439 -3.6014 -1.2690 -2.0163
  679SOL    HW2 2037   1.962   2.547   0.499 -2.3804 -0.8643 -0.0568
  680SOL     OW 2038   3.033   2.252   2.099  0.4129 -0.0062 -0.0311
  680SOL    HW1 2039   3.000   2.272   2.009  1.4960 -0.1483  2.9651
  680SOL    HW2 2040   0.012   2.316   2.126 -2.8999 -1.7856 -1.1533
  681SOL     OW 2041   0.030   1.247   1.689 -0.5132  0.0898  0.3140
  681SOL    HW1 2042   0.127   1.237   1.723  0.3452  0.7800  0.2244
  681SOL    HW2 2043   0.009   1.344   1.706  1.6314  0.0904  1.4223
  682SOL     OW 2044   1.161   2.463   0.970 -0.1997  0.0402  0.4360
  682SOL    HW1 2045   1.205   2.540   1.015 -1.8116 -0.2756  0.9719
  682SOL    HW2 2046   1.103   2.498   0.894 -1.4650  1.5645  0.9965
  683SOL     OW 2047   2.161   1.189   1.114  0.0363 -0.4827 -0.3589
  683SOL    HW1 2048   2.186   1.245   1.033 -0.7274 -0.1279 -0.3639
  683SOL    HW2 2049   2.149   1.250   1.193  0.6642 -3.2424  0.8615
  684SOL     OW 2050   0.614   1.844   2.641 -0.2457  0.1275 -0.3106
  684SOL    HW1 2051   0.653   1.884   2.726 -0.1428  1.0960 -0.6617
  684SOL    HW2 2052   0.558   1.910   2.589  2.0844  0.4753  1.3386
  685SOL     OW 2053   1.534   1.604   0.011 -0.2268 -0.0830  0.0947
  685SOL    HW1 2054   1.583   1.536   0.066 -0.2350 -1.3602 -1.1048
  685SOL    HW2 2055   1.579   1.615   3.011  0.2270  0.4172 -0.7410
  686SOL     OW 2056   2.798   0.516   1.198 -0.3453  0.3233  0.3128
  686SOL    HW1 2057   2.746   0.555   1.276  0.1400  0.8220  0.5892
  686SOL    HW2 2058   2.876   0.576   1.166 -1.3184  0.8354 -2.9836
  687SOL     OW 2059   1.134   2.359   2.782  0.2777  0.6965 -0.5209
  687SOL    HW1 2060   1.185   2.419   2.846  0.5792 -0.1444  2.1422
  687SOL    HW2 2061   1.110   2.272   2.830 -1.0369 -2.9547 -1.6602
  688SOL     OW 2062   0.129   2.042   2.116  0.4498  0.1964 -0.0744
  688SOL    HW1 2063   0.177   2.040   2.025 -0.2779 -0.5155  2.9878
  688SOL    HW2 2064   0.046   2.094   2.102  1.7974 -1.5739 -1.7216
  689SOL     OW 2065   1.926   0.547   1.745  0.0067  0.2538 -0.2621
  689SOL    HW1 2066   1.889   0.571   1.839 -1.1010  2.3001  0.4595
  689SOL    HW2 2067   1.975   0.458   1.744 -1.0076  2.4044  2.7253
  690SOL     OW 2068   2.224   0.677   0.940 -0.2149  0.3104 -0.4062
  690SOL    HW1 2069   2.183   0.611   1.009  0.5961  0.8832  1.6108
  690SOL    HW2 2070   2.230   0.769   0.982  0.3621 -0.5577  0.9191
  691SOL     OW 2071   0.751   1.798   1.830  0.3418  0.2722  0.0845
  691SOL    HW1 2072   0.821   1.725   1.826  1.1108  0.3096 -0.1659
  691SOL    HW2 2073   0.784   1.881   1.773  1.1245 -0.1974 -2.6657
  692SOL     OW 2074   1.815   0.276   1.421 -0.3518  0.3251  0.2404
  692SOL    HW1 2075   1.828   0.188   1.469 -0.0459  1.8844  1.7901
  692SOL    HW2 2076   1.842   0.262   1.322 -3.9205  1.1505  1.8363
  693SOL     OW 2077   0.419   0.989   2.336 -0.1402 -0.0867 -0.1697
  693SOL    HW1 2078   0.436   0.978   2.439 -1.7125  1.0325 -1.1826
  693SOL    HW2 2079   0.415   0.898   2.290  3.7990  1.0128 -2.3846
  694SOL     OW 2080   1.556   0.077   1.071 -0.3591  0.3539  0.4055
  694SOL    HW1 2081   1.507   0.106   0.986  1.5462 -0.2524  1.5785
  694SOL    HW2 2082   1.540   3.075   1.098 -1.9277  2.4384 -1.8572
  695SOL     OW 2083   1.159   1.189   1.681  0.2054  0.0574 -0.2751
  695SOL    HW1 2084   1.163   1.097   1.631  2.1263 -1.1409  0.9202
  695SOL    HW2 2085   1.113   1.164   1.773  1.4300  0.4669 -2.1452
  696SOL     OW 2086   1.282   3.019   0.340 -0.0466  0.5793  0.3027
  696SOL    HW1 2087   1.327   2.928   0.363 -1.1126  1.0923 -0.4721
  696SOL    HW2 2088   1.323   3.062   0.254 -1.2727 -1.6130 -0.8039
  697SOL     OW 2089   0.900   0.446   0.736  0.2906  0.1632 -0.8136
  697SOL    HW1 2090   0.890   0.540   0.696  2.6600  0.3527 -1.7693
  697SOL    HW2 2091   0.905   0.374   0.661 -2.4955  2.1645  0.0738
  698SOL     OW 2092   1.400   1.200   2.624  0.0391  0.3537 -0.3816
  698SOL    HW1 2093   1.331   1.274   2.633 -1.4992  0.5363 -0.2494
  698SOL    HW2 2094   1.359   1.120   2.570 -0.8513 -1.8914 -3.0571
  699SOL     OW 2095   1.644   1.475   1.295 -0.4067  0.3557 -0.2851
  699SOL    HW1 2096   1.572   1.545   1.297 -0.3938 -0.3127  0.1759
  699SOL    HW2 2097   1.684   1.453   1.202  2.2599 -3.6124  0.8562
  700SOL     OW 2098   1.639   0.014   0.575  0.4244  0.1427  0.4385
  700SOL    HW1 2099   1.545   3.066   0.580 -0.8118 -0.0559 -1.4827
  700SOL    HW2 2100   1.646   0.082   0.496 -0.2275  2.2129  0.8430
  701SOL     OW 2101   2.889   0.210   2.345 -0.1944  0.0282  0.8867
  701SOL    HW1 2102   2.947   0.146   2.292  0.8157 -0.6025 -0.2684
  701SOL    HW2 2103   2.928   0.235   2.434 -1.1453  1.2155 -1.9038
  702SOL     OW 2104   1.063   0.263   0.112  0.5560  0.4358  0.6320
  702SOL    HW1 2105   0.999   0.339   0.111  2.3594 -2.1777  0.9352
  702SOL    HW2 2106   1.113   0.260   0.019 -0.9107 -0.4033 -3.6216
  703SOL     OW 2107   2.217   2.864   2.067 -0.2837  0.1391 -0.4196
  703SOL    HW1 2108   2.160   2.786   2.070  0.4377  2.8961  1.4478
  703SOL    HW2 2109   2.299   2.851   2.131 -1.2483  0.5016  0.1924
  704SOL     OW 2110   0.547   2.116   1.058  0.1426  0.0170  0.3311
  704SOL    HW1 2111   0.493   2.067   0.990 -0.4910  0.6400 -0.3354
  704SOL    HW2 2112   0.506   2.205   1.100  0.0502  3.2459  2.0849
  705SOL     OW 2113   2.810   0.208   1.911  0.2034 -0.0189  0.0564
  705SOL    HW1 2114   2.826   0.297   1.966  0.7687  2.8919  1.3734
  705SOL    HW2 2115   2.816   0.123   1.965 -1.7885  2.1776  1.3698
  706SOL     OW 2116   1.719   0.165   0.324  0.1581 -0.4832  0.1444
  706SOL    HW1 2117   1.817   0.189   0.311 -2.5951 -1.7182 -1.1455
  706SOL    HW2 2118   1.656   0.224   0.269 -0.6587  2.9394  1.9357
  707SOL     OW 2119   1.344   1.943   2.154  0.0813  0.0096 -0.0378
  707SOL    HW1 2120   1.388   1.858   2.187 -0.4782  1.2327 -1.8579
  707SOL    HW2 2121   1.294   1.991   2.225 -0.8927 -2.2779 -3.6398
  708SOL     OW 2122   0.013   2.289   1.799 -0.3206 -0.1574  0.1145
  708SOL    HW1 2123   0.105   2.321   1.781 -1.4142  0.1118  0.6080
  708SOL    HW2 2124   3.038   2.345   1.746  0.7183  2.7853  0.3220
  709SOL     OW 2125   1.679   0.151   2.004  0.0653  0.0268 -0.2093
  709SOL    HW1 2126   1.682   0.094   2.089 -1.1388 -1.6351  0.2338
  709SOL    HW2 2127   1.741   0.113   1.934  1.7850  0.2043 -0.6013
  710SOL     OW 2128   2.281   0.519   1.361 -0.0652 -0.3298 -0.0845
  710SOL    HW1 2129   2.188   0.495   1.394 -0.1308 -1.3029 -0.3145
  710SOL    HW2 2130   2.343   0.438   1.385  2.7546 -5.3504  0.3061
  711SOL     OW 2131   0.382   1.950   0.436  0.8537 -0.0138  0.2981
  711SOL    HW1 2132   0.362   1.855   0.459  0.1872  3.9517 -2.4233
  711SOL    HW2 2133   0.484   1.958   0.410  2.9708  0.5531  0.3182
  712SOL     OW 2134   0.586   2.632   2.257  0.2840 -0.3855 -0.2913
  712SOL    HW1 2135   0.548   2.643   2.163  1.8300 -0.2737  0.4369
  712SOL    HW2 2136   0.613   2.724   2.289 -2.8542 -1.3550  3.2807
  713SOL     OW 2137   1.934   1.053   2.962 -0.0751  0.4872  0.4511
  713SOL    HW1 2138   1.905   1.009   2.874 -0.8341 -1.5201 -0.5596
  713SOL    HW2 2139   1.982   0.987   3.027  0.8970  2.5771 -0.9450
  714SOL     OW 2140   0.775   1.857   0.990  0.0181  0.2550  0.0254
  714SOL    HW1 2141   0.713   1.832   0.912 -0.5620  1.8975 -3.6731
  714SOL    HW2 2142   0.793   1.952   0.999  1.2293  0.2353 -0.2571
  715SOL     OW 2143   1.954   0.108   2.930  0.3234  0.1317  0.1064
  715SOL    HW1 2144   2.018   0.093   3.006 -0.9466 -0.1150 -1.5282
  715SOL    HW2 2145   1.954   0.031   2.862 -3.3937  3.4673 -0.5959
  716SOL     OW 2146   0.110   0.118   1.777 -0.1968  0.4276  0.4294
  716SOL    HW1 2147   0.143   0.176   1.697 -0.1942  4.4872 -0.9533
  716SOL    HW2 2148   0.084   0.179   1.853 -0.7227 -0.6506 -0.2747
  717SOL     OW 2149   0.414   1.105   0.270 -0.0858 -0.0580  0.3627
  717SOL    HW1 2150   0.393   1.003   0.276 -1.2691 -0.9390 -0.1390
  717SOL    HW2 2151   0.426   1.138   0.175 -0.3949 -1.2593  3.6249
  718SOL     OW 2152   1.312   0.959   2.503  0.1006  0.7311  0.4164
  718SOL    HW1 2153   1.246   0.940   2.582 -1.2506  0.8881  0.7668
  718SOL    HW2 2154   1.373   0.876   2.484  2.7037  0.1340  2.3484
  719SOL     OW 2155   2.823   1.401   3.054  0.3334  0.1268  0.1621
  719SOL    HW1 2156   2.781   1.325   0.013  0.7005  0.7921  0.0680
  719SOL    HW2 2157   2.769   1.432   2.972 -1.4353 -1.6104 -0.4913
  720SOL     OW 2158   1.207   0.876   0.979 -0.0521 -0.2348  0.5058
  720SOL    HW1 2159   1.149   0.817   1.037  3.0958  0.3145 -1.7217
  720SOL    HW2 2160   1.152   0.948   0.932 -0.3334  2.1895 -0.7085
  721SOL     OW 2161   2.710   1.063   0.439  0.4283 -0.3480  0.0067
  721SOL    HW1 2162   2.687   1.013   0.352  0.2455 -1.1763 -1.0577
  721SOL    HW2 2163   2.760   1.153   0.417 -0.5954  0.4230 -2.2086
  722SOL     OW 2164   1.430   0.869   2.848 -0.0799 -0.1510  0.3817
  722SOL    HW1 2165   1.430   0.780   2.896  1.7336 -0.2065  1.3462
  722SOL    HW2 2166   1.353   0.868   2.779  1.6653  3.0465  2.6391
  723SOL     OW 2167   0.264   1.216   0.460  0.0493  0.0289 -0.1949
  723SOL    HW1 2168   0.191   1.277   0.420  0.4615 -0.4402  1.7569
  723SOL    HW2 2169   0.343   1.200   0.395 -2.0716  0.6523  0.8557
  724SOL     OW 2170   0.544   1.839   2.174 -0.3727 -0.0355 -0.1231
  724SOL    HW1 2171   0.454   1.864   2.207  0.5138  2.0936 -0.1596
  724SOL    HW2 2172   0.613   1.919   2.163  2.2154  1.8850  1.5868
  725SOL     OW 2173   2.366   0.950   1.334  0.5956 -0.3927 -0.2572
  725SOL    HW1 2174   2.265   0.967   1.341 -2.1615 -4.0152  1.0239
  725SOL    HW2 2175   2.401   0.876   1.395  1.4097 -0.6054 -2.1011
  726SOL     OW 2176   1.903   3.008   0.546 -0.1236 -0.6623 -0.1049
  726SOL    HW1 2177   1.891   2.921   0.501  1.9189  2.8917  2.0715
  726SOL    HW2 2178   1.814   3.042   0.583  0.8613  0.3801  3.6370
  727SOL     OW 2179   1.135   0.994   2.117 -0.2549 -0.0785 -0.3460
  727SOL    HW1 2180   1.176   1.052   2.187  1.4709 -0.0610 -1.7501
  727SOL    HW2 2181   1.210   0.955   2.058 -0.2615 -1.3631  0.0297
  728SOL     OW 2182   1.289   2.698   1.088  0.5388  0.8359 -0.4447
  728SOL    HW1 2183   1.329   2.693   0.999 -0.3945 -1.3691  1.7217
  728SOL    HW2 2184   1.354   2.670   1.162 -1.0759 -0.6407 -0.9597
  729SOL     OW 2185   1.930   0.896   0.988  0.2713 -0.4140  0.1223
  729SOL    HW1 2186   2.029   0.898   0.972  1.0307 -1.2172 -3.0818
  729SOL    HW2 2187   1.905   0.812   1.041 -0.2061 -0.2664 -0.4998
  730SOL     OW 2188   0.768   1.818   2.401  0.3090 -0.5742  0.3034
  730SOL    HW1 2189   0.705   1.822   2.323  2.9186  0.6864  2.0350
  730SOL    HW2 2190   0.721   1.790   2.487 -0.5161 -1.8822 -1.2410
  731SOL     OW 2191   0.626   0.341   0.769  0.1367  0.7523 -0.1759
  731SOL    HW1 2192   0.584   0.265   0.721  0.2744  3.2838  3.0814
  731SOL    HW2 2193   0.719   0.370   0.732  1.0062  0.1172 -0.6021
  732SOL     OW 2194   0.838   0.957   0.275 -0.3780 -0.5102  0.4248
  732SOL    HW1 2195   0.768   0.948   0.202 -0.8733  1.8746 -0.0038
  732SOL    HW2 2196   0.934   0.949   0.232 -0.8440  1.5398  0.5053
  733SOL     OW 2197   0.752   2.329   0.779  0.3054 -0.1843  0.6216
  733SOL    HW1 2198   0.772   2.286   0.687 -0.2143 -2.6654 -2.1823
  733SOL    HW2 2199   0.763   2.260   0.854 -0.8229 -3.9854  2.6119
  734SOL     OW 2200   0.123   2.057   2.751  0.3440 -0.5804 -0.5119
  734SOL    HW1 2201   0.104   2.121   2.673  1.2265  0.4312 -2.4618
  734SOL    HW2 2202   0.162   2.105   2.829  0.2999  0.6652 -2.2677
  735SOL     OW 2203   0.929   3.051   1.188 -0.1807  0.2864  0.6692
  735SOL    HW1 2204   0.978   0.015   1.252 -1.5474 -1.6917  1.0216
  735SOL    HW2 2205   0.988   2.980   1.141  0.7131 -3.2056 -1.6363
  736SOL     OW 2206   1.729   3.081   3.037 -0.0083  0.1870 -0.0208
  736SOL    HW1 2207   1.718   3.072   0.047  0.6726 -0.3816  0.9908
  736SOL    HW2 2208   1.805   0.047   3.004  0.1216 -1.1794 -0.2369
  737SOL     OW 2209   2.993   0.433   0.570 -0.0583 -0.5610 -0.1896
  737SOL    HW1 2210   2.965   0.481   0.484  0.2258  0.9676 -1.5261
  737SOL    HW2 2211   2.977   0.484   0.654 -0.2121  0.9780 -0.3124
  738SOL     OW 2212   2.418   2.858   1.053 -0.2531 -0.1690 -0.2974
  738SOL    HW1 2213   2.451   2.949   1.091  0.4991 -0.5223  0.7577
  738SOL    HW2 2214   2.393   2.858   0.956  0.9267  0.1020 -2.5138
  739SOL     OW 2215   1.635   2.433   0.232 -0.1550 -0.1534 -0.1068
  739SOL    HW1 2216   1.668   2.350   0.185 -0.5908  2.9156 -0.8376
  739SOL    HW2 2217   1.692   2.515   0.216  3.2087 -1.5893  0.8312
  740SOL     OW 2218   1.431   0.216   0.883 -0.0250  0.3355  0.0127
  740SOL    HW1 2219   1.346   0.180   0.843  1.8050 -3.3276  0.0626
  740SOL    HW2 2220   1.500   0.235   0.811  2.1475 -1.1701 -0.4285
  741SOL     OW 2221   2.437   0.786   0.605 -0.1407 -0.4655 -0.0159
  741SOL    HW1 2222   2.356   0.851   0.623 -1.9899  0.1655 -0.2043
  741SOL    HW2 2223   2.435   0.762   0.506  3.3858 -1.2852 -0.8643
  742SOL     OW 2224   1.240   2.115   2.337 -0.7912 -0.1785 -0.3252
  742SOL    HW1 2225   1.326   2.153   2.374 -0.0399 -2.2096  0.6034
  742SOL    HW2 2226   1.197   2.181   2.277  1.0662  0.2589 -0.2120
  743SOL     OW 2227   2.003   0.292   1.720  0.3124 -0.3500  0.7035
  743SOL    HW1 2228   2.094   0.253   1.726  0.4973 -1.3566  0.3923
  743SOL    HW2 2229   1.937   0.218   1.730  0.9261  0.8288 -1.7631
  744SOL     OW 2230   2.151   0.271   1.073 -0.5431  0.0950  0.3020
  744SOL    HW1 2231   2.198   0.221   0.994 -0.6406  0.1185 -0.1426
  744SOL    HW2 2232   2.199   0.246   1.158 -0.4518  0.4353 -1.4665
  745SOL     OW 2233   1.777   1.199   1.616  0.3880 -0.0140  0.5596
  745SOL    HW1 2234   1.734   1.193   1.710 -1.9241 -2.3411 -1.5212
  745SOL    HW2 2235   1.727   1.139   1.552 -0.5648 -2.6454 -0.2374
  746SOL     OW 2236   1.743   1.379   1.063  0.4009  0.7260  0.6028
  746SOL    HW1 2237   1.701   1.394   0.971  1.3462  1.6261 -0.4221
  746SOL    HW2 2238   1.784   1.287   1.074  0.4230  1.4528 -2.9743
  747SOL     OW 2239   1.871   1.131   1.108  0.0248 -0.7368 -0.1125
  747SOL    HW1 2240   1.926   1.129   1.194  1.4251 -0.1538 -1.1060
  747SOL    HW2 2241   1.876   1.042   1.055  0.8623 -0.6817  0.4461
  748SOL     OW 2242   0.208   2.387   0.776 -0.0553  0.0258  0.3477
  748SOL    HW1 2243   0.271   2.469   0.774  2.3002  0.7079  1.8840
  748SOL    HW2 2244   0.265   2.310   0.741  0.1975 -1.2570  0.9695
  749SOL     OW 2245   2.794   3.024   2.381 -0.3273  0.4989  0.0308
  749SOL    HW1 2246   2.735   0.002   2.336 -1.0012  2.5987 -0.0346
  749SOL    HW2 2247   2.760   2.932   2.349 -2.7626  1.4548  0.7171
  750SOL     OW 2248   2.463   0.590   1.003 -0.5765 -0.6690  0.3221
  750SOL    HW1 2249   2.513   0.624   0.922  0.6970 -1.4688 -0.7308
  750SOL    HW2 2250   2.374   0.637   1.015  2.5168  0.8129  1.0200
  751SOL     OW 2251   2.715   0.265   0.192 -0.9906  0.3051  0.0827
  751SOL    HW1 2252   2.747   0.320   0.114 -0.0931 -2.5692  1.7497
  751SOL    HW2 2253   2.640   0.311   0.240  2.2461 -1.7212 -1.0018
  752SOL     OW 2254   0.357   2.760   0.940 -0.1207 -0.1261 -0.0585
  752SOL    HW1 2255   0.318   2.694   1.009 -0.1439  1.5601  2.5160
  752SOL    HW2 2256   0.347   2.728   0.845 -2.9797 -1.0130 -1.6217
  753SOL     OW 2257   1.275   0.666   1.965 -0.2540 -0.3612 -0.0036
  753SOL    HW1 2258   1.322   0.757   1.957  1.3767  1.4406  0.9962
  753SOL    HW2 2259   1.298   0.607   1.887  0.3459 -0.7574 -0.3858
  754SOL     OW 2260   1.810   2.171   1.820 -0.3697  0.0023 -0.3136
  754SOL    HW1 2261   1.777   2.262   1.845 -1.4197  1.7740 -2.5448
  754SOL    HW2 2262   1.735   2.105   1.809  0.0604  1.2245  0.2582
  755SOL     OW 2263   2.878   0.595   0.383 -0.5390 -0.7119 -0.0179
  755SOL    HW1 2264   2.897   0.693   0.423  0.1258 -0.7775  2.6105
  755SOL    HW2 2265   2.847   0.597   0.286  2.7834 -0.6818  0.2644
  756SOL     OW 2266   1.587   1.550   2.699 -0.0752 -0.0668  0.0070
  756SOL    HW1 2267   1.488   1.572   2.681 -0.6757 -1.2119 -0.2158
  756SOL    HW2 2268   1.636   1.536   2.613 -0.4950  3.0358  3.4509
  757SOL     OW 2269   1.596   2.921   0.795 -0.0458  0.4001 -0.0237
  757SOL    HW1 2270   1.510   2.908   0.741  1.5459 -0.3655 -0.7666
  757SOL    HW2 2271   1.640   3.006   0.767  0.9840  1.2006 -1.7069
  758SOL     OW 2272   0.311   0.119   1.364  0.2760  0.7212 -0.3386
  758SOL    HW1 2273   0.258   0.037   1.344  1.2877  0.5939  0.3486
  758SOL    HW2 2274   0.295   0.190   1.294  0.4262 -0.5662 -0.7413
  759SOL     OW 2275   0.178   0.883   1.294  0.7626 -0.2366  0.0206
  759SOL    HW1 2276   0.203   0.815   1.225  2.8641  0.0980  0.4207
  759SOL    HW2 2277   0.107   0.849   1.359 -0.1837  2.8344  2.3209
  760SOL     OW 2278   2.223   0.951   1.001  0.0021 -0.2009 -0.1753
  760SOL    HW1 2279   2.300   0.974   0.941  0.7444 -0.7636 -2.8799
  760SOL    HW2 2280   2.192   1.027   1.060 -1.3851  1.6733  1.3608
  761SOL     OW 2281   1.457   0.997   0.649  0.7239  0.0573 -0.5343
  761SOL    HW1 2282   1.373   0.937   0.649 -1.5570 -0.3768  0.8617
  761SOL    HW2 2283   1.467   1.048   0.738 -1.7643  2.8839 -2.4156
  762SOL     OW 2284   2.345   2.198   1.327  0.1131 -0.6242 -0.0417
  762SOL    HW1 2285   2.247   2.212   1.353  1.8594 -2.8487  2.1018
  762SOL    HW2 2286   2.386   2.279   1.277 -0.5042 -2.0965 -1.6941
  763SOL     OW 2287   1.524   1.349   1.953  0.2827 -0.0040  0.5562
  763SOL    HW1 2288   1.561   1.269   1.896  1.1430 -0.2414 -3.6687
  763SOL    HW2 2289   1.433   1.373   1.911 -1.9461 -0.9016 -1.4222
  764SOL     OW 2290   0.210   1.846   2.597 -0.0508  0.0834  0.6648
  764SOL    HW1 2291   0.133   1.784   2.567 -2.4192 -1.5678  0.1641
  764SOL    HW2 2292   0.185   1.926   2.654  0.3756 -0.6333 -0.4503
  765SOL     OW 2293   0.847   2.496   1.277  0.3030 -0.4682  0.1955
  765SOL    HW1 2294   0.758   2.510   1.316  5.7729  4.1797  1.1080
  765SOL    HW2 2295   0.863   2.557   1.199  2.1191 -2.3420  2.9430
  766SOL     OW 2296   0.788   2.106   2.480  0.3329 -0.2908 -0.4811
  766SOL    HW1 2297   0.805   2.007   2.475 -0.0477 -0.0425 -0.9725
  766SOL    HW2 2298   0.773   2.144   2.576  0.4071 -0.8494 -1.0059
  767SOL     OW 2299   1.909   0.395   2.241  0.0313 -0.2342  0.1622
  767SOL    HW1 2300   2.008   0.402   2.218 -0.0946 -1.1568 -0.1234
  767SOL    HW2 2301   1.897   0.401   2.342  0.7930  0.5679 -0.7996
  768SOL     OW 2302   1.330   2.521   2.865 -0.6240 -0.2655  0.1605
  768SOL    HW1 2303   1.349   2.508   2.763 -1.8455 -1.2633 -1.8956
  768SOL    HW2 2304   1.322   2.621   2.893  0.1469 -0.4508 -3.4189
  769SOL     OW 2305   0.057   2.628   0.965  0.5115 -0.2634 -0.7169
  769SOL    HW1 2306   3.064   2.615   1.010  2.4648  1.1672 -1.7192
  769SOL    HW2 2307   0.138   2.606   1.026  0.5902 -0.4361  0.0373
  770SOL     OW 2308   0.642   2.736   3.022 -0.1140 -0.7927 -0.0190
  770SOL    HW1 2309   0.549   2.699   3.010  0.9869  0.2949 -1.5016
  770SOL    HW2 2310   0.683   2.747   2.925  0.1053 -0.3230 -3.0008
  771SOL     OW 2311   0.982   2.411   2.540 -0.1173  0.1889  0.4296
  771SOL    HW1 2312   1.018   2.383   2.627 -0.0736  1.4964 -0.6497
  771SOL    HW2 2313   0.878   2.405   2.541 -3.2270 -0.2808  0.5974
  772SOL     OW 2314   2.467   3.087   1.873 -0.5890 -0.3477  0.2300
  772SOL    HW1 2315   2.374   0.008   1.834  3.6898  1.0526  0.2239
  772SOL    HW2 2316   2.537   3.066   1.799  0.5655 -0.8968 -0.0521
  773SOL     OW 2317   0.985   2.692   1.986 -0.1778  0.2441  0.1591
  773SOL    HW1 2318   0.948   2.610   1.946  0.1874  2.6404  1.5849
  773SOL    HW2 2319   0.958   2.702   2.084  0.7772 -1.3007  3.0278
  774SOL     OW 2320   1.333   0.597   2.236  0.2393  0.4139 -0.4667
  774SOL    HW1 2321   1.387   0.512   2.251  0.0051 -0.4669  0.0122
  774SOL    HW2 2322   1.331   0.632   2.135 -1.1213 -1.1212 -3.4467
  775SOL     OW 2323   2.010   2.994   0.243 -0.7229  0.2579  0.2330
  775SOL    HW1 2324   2.061   2.904   0.222  0.2293 -2.6018  0.6989
  775SOL    HW2 2325   1.907   2.986   0.235 -1.9711 -0.0697  0.4510
  776SOL     OW 2326   2.223   0.875   1.676 -0.2197  0.3425 -0.4305
  776SOL    HW1 2327   2.127   0.841   1.678  2.4078  1.3589  2.6497
  776SOL    HW2 2328   2.231   0.930   1.756  3.2073 -0.8416 -1.9662
  777SOL     OW 2329   2.861   1.109   2.214 -0.2726 -0.3521  0.0727
  777SOL    HW1 2330   2.950   1.057   2.204 -0.3642 -1.3667 -1.5286
  777SOL    HW2 2331   2.783   1.057   2.173 -1.7815 -0.4986  1.2384
  778SOL     OW 2332   2.417   0.544   2.057 -0.1413  0.0173  0.2123
  778SOL    HW1 2333   2.358   0.612   2.012  1.0003 -2.6855  1.1519
  778SOL    HW2 2334   2.467   0.477   1.996 -1.4728  1.9014 -0.1486
  779SOL     OW 2335   3.069   0.071   2.940  0.0819 -0.2223 -0.1750
  779SOL    HW1 2336   0.028   0.116   2.864 -0.3699  1.7987 -2.0380
  779SOL    HW2 2337   0.011   0.108   3.027  0.0426  0.1127  0.3647
  780SOL     OW 2338   1.994   0.075   2.290  0.1267 -0.4097 -0.1277
  780SOL    HW1 2339   2.058   0.114   2.221 -1.7925 -2.3341  0.9592
  780SOL    HW2 2340   2.031   0.092   2.385  1.7798 -0.0060  3.1028
  781SOL     OW 2341   0.051   0.780   1.799  0.0400 -0.2445 -0.0659
  781SOL    HW1 2342   0.124   0.826   1.745 -1.5821  0.8493 -0.8319
  781SOL    HW2 2343   0.085   0.686   1.826  0.6583 -3.0942  0.9261
  782SOL     OW 2344   2.004   2.280   0.225 -0.4634  0.1250  0.0557
  782SOL    HW1 2345   2.092   2.235   0.195  0.7860  0.3500  1.7798
  782SOL    HW2 2346   1.985   2.270   0.323  0.2343  0.1992 -1.9129
  783SOL     OW 2347   0.680   1.750   1.224  0.0647  0.2253  0.0216
  783SOL    HW1 2348   0.714   1.783   1.129  0.9535  0.2775 -2.9259
  783SOL    HW2 2349   0.754   1.701   1.280  0.4465  0.7930 -0.0215
  784SOL     OW 2350   2.014   0.648   2.127  0.4825 -0.4560 -0.4395
  784SOL    HW1 2351   2.053   0.557   2.114  1.0306  0.9394  2.5000
  784SOL    HW2 2352   2.078   0.720   2.110  2.2127 -2.0357  0.7080
  785SOL     OW 2353   0.094   0.276   1.034 -0.0667 -0.0980  0.2384
  785SOL    HW1 2354   0.097   0.371   1.004  0.2561 -1.7821 -2.1846
  785SOL    HW2 2355   0.007   0.256   1.082  0.0523  1.1586 -0.9914
  786SOL     OW 2356   1.737   3.010   0.243 -0.2188 -0.1084  0.0822
  786SOL    HW1 2357   1.728   0.014   0.270  2.0850 -2.5088 -0.7471
  786SOL    HW2 2358   1.750   2.950   0.323 -0.7480  2.2780  0.3316
  787SOL     OW 2359   1.155   0.121   0.772  0.2500  0.4101  0.8375
  787SOL    HW1 2360   1.166   0.214   0.731  2.4790 -2.2987 -1.5327
  787SOL    HW2 2361   1.102   0.127   0.860  0.8243 -2.2613 -3.0597
  788SOL     OW 2362   0.024   1.801   1.328  0.2609  0.3095  0.3189
  788SOL    HW1 2363   3.057   1.811   1.241 -0.9855  0.1877 -3.1297
  788SOL    HW2 2364   0.118   1.837   1.318  0.2823 -1.0530  3.0499
  789SOL     OW 2365   2.798   0.620   2.017  0.1530  0.3144 -0.1488
  789SOL    HW1 2366   2.856   0.538   2.043 -1.1328 -2.5455 -0.2570
  789SOL    HW2 2367   2.741   0.643   2.098  1.4754 -0.2819 -0.4319
  790SOL     OW 2368   0.718   0.748   2.787 -0.2739  0.2836  0.6345
  790SOL    HW1 2369   0.758   0.675   2.727  2.2017 -1.0216 -2.4014
  790SOL    HW2 2370   0.797   0.786   2.838 -2.8478  0.5704  0.0587
  791SOL     OW 2371   2.503   0.383   3.033  0.0996 -0.5277 -0.1215
  791SOL    HW1 2372   2.472   0.319   0.014  0.7727 -0.3431  2.0063
  791SOL    HW2 2373   2.596   0.370   3.008  0.3585 -1.2780  1.0067
  792SOL     OW 2374   1.366   0.920   1.250  0.2272  0.3589  0.5979
  792SOL    HW1 2375   1.334   0.934   1.157  2.7675 -1.8919 -0.2741
  792SOL    HW2 2376   1.326   0.834   1.289 -0.0528 -1.0778 -0.9215
  793SOL     OW 2377   2.845   0.185   1.632 -0.1724 -0.3427  0.3552
  793SOL    HW1 2378   2.852   0.208   1.732 -0.4977 -3.4236 -1.6592
  793SOL    HW2 2379   2.875   0.265   1.576 -0.8677  3.9806  1.0380
  794SOL     OW 2380   3.015   0.048   2.165 -0.1920 -0.0566  0.2989
  794SOL    HW1 2381   3.061   0.092   2.087  0.4617  0.0834  0.0759
  794SOL    HW2 2382   2.924   0.012   2.140 -3.4413  1.0386  0.7195
  795SOL     OW 2383   0.742   2.189   2.732 -0.7396  0.5210  0.0390
  795SOL    HW1 2384   0.699   2.228   2.814 -0.2791  0.2273 -1.3035
  795SOL    HW2 2385   0.796   2.105   2.765 -0.3408 -0.4280  1.5446
  796SOL     OW 2386   1.912   0.625   2.572 -0.1206  0.2193  0.2562
  796SOL    HW1 2387   1.899   0.676   2.484  2.1305 -1.3741  1.4843
  796SOL    HW2 2388   1.870   0.672   2.653  2.3281  0.9328  3.0096
  797SOL     OW 2389   2.402   2.128   2.979 -0.2199  0.0562 -0.6063
  797SOL    HW1 2390   2.438   2.225   2.993  1.2527  2.6385  1.9048
  797SOL    HW2 2391   2.471   2.076   2.925  2.2697  2.0795  2.0455
  798SOL     OW 2392   0.105   0.636   1.418 -0.1280 -0.0500  0.5516
  798SOL    HW1 2393   0.024   0.699   1.408 -0.4863 -1.3733 -0.2112
  798SOL    HW2 2394   0.138   0.613   1.325  1.6414  0.3170 -2.7587
  799SOL     OW 2395   0.463   0.262   1.785  0.1481  0.0304 -0.3038
  799SOL    HW1 2396   0.556   0.297   1.817  1.0935  0.0591  0.5388
  799SOL    HW2 2397   0.462   0.164   1.796  1.3698  0.3994 -2.9732
  800SOL     OW 2398   0.115   2.296   0.236  0.3680 -0.1058 -0.3184
  800SOL    HW1 2399   0.070   2.297   0.327  0.1705  0.1930  0.1351
  800SOL    HW2 2400   0.170   2.213   0.215 -0.3922 -0.9491 -2.8911
  801SOL     OW 2401   1.678   1.577   0.789 -0.2093 -0.4389 -0.0598
  801SOL    HW1 2402   1.614   1.641   0.840  1.2458 -0.3806  3.2689
  801SOL    HW2 2403   1.761   1.629   0.757  0.2045  1.4081 -2.1567
  802SOL     OW 2404   0.799   0.618   0.327 -0.4921 -0.2583  0.1361
  802SOL    HW1 2405   0.771   0.581   0.420  0.4362  0.1673 -0.0365
  802SOL    HW2 2406   0.774   0.716   0.326 -1.5933  2.8926  3.6043
  803SOL     OW 2407   1.264   1.405   1.831  0.8079  0.3451 -0.1997
  803SOL    HW1 2408   1.178   1.428   1.879 -1.4448  1.6033 -0.1891
  803SOL    HW2 2409   1.244   1.329   1.763 -0.7527  0.3708 -0.1126
  804SOL     OW 2410   1.737   2.189   1.307 -0.3039 -0.1104  0.8719
  804SOL    HW1 2411   1.805   2.265   1.316  3.3126  0.8547  0.5114
  804SOL    HW2 2412   1.708   2.178   1.209 -2.4014  0.1219  0.3112
  805SOL     OW 2413   0.050   2.205   2.529 -0.2736  0.5154 -0.5708
  805SOL    HW1 2414   0.066   2.117   2.474  2.3372  0.8272 -1.9849
  805SOL    HW2 2415   0.078   2.287   2.474  1.2540 -0.0859 -0.3326
  806SOL     OW 2416   0.977   2.907   0.216  0.2348  0.1922 -0.2149
  806SOL    HW1 2417   0.891   2.854   0.210  2.0393  0.5526  0.3860
  806SOL    HW2 2418   0.951   3.001   0.247 -0.3437 -1.9627 -1.3741
  807SOL     OW 2419   2.565   1.010   2.798 -0.7015 -0.7750  0.3310
  807SOL    HW1 2420   2.548   1.098   2.850  0.9322 -1.9655  0.6553
  807SOL    HW2 2421   2.609   0.948   2.867  1.6746 -0.6530 -0.8592
  808SOL     OW 2422   1.417   2.004   0.811  0.5182  0.3501  0.3227
  808SOL    HW1 2423   1.506   2.036   0.779 -1.2285  0.0873 -1.2787
  808SOL    HW2 2424   1.365   2.078   0.858 -2.1658 -0.8769 -0.4458
  809SOL     OW 2425   0.137   0.319   0.575 -0.6201  0.6251 -0.2143
  809SOL    HW1 2426   0.043   0.348   0.553  0.6158  0.4277  0.6305
  809SOL    HW2 2427   0.139   0.251   0.649 -1.3660  2.1515 -1.6116
  810SOL     OW 2428   1.441   1.332   0.085 -0.1401 -0.3809  0.7656
  810SOL    HW1 2429   1.495   1.366   0.010 -0.6698 -2.2499  3.2334
  810SOL    HW2 2430   1.485   1.353   0.175 -1.0042  0.6199  0.9899
  811SOL     OW 2431   1.501   2.808   1.336  0.1238 -0.3065 -0.0965
  811SOL    HW1 2432   1.550   2.727   1.368  1.7468 -0.3721 -2.5278
  811SOL    HW2 2433   1.415   2.832   1.392 -3.3850 -1.5459  0.8565
  812SOL     OW 2434   1.197   0.353   0.653 -0.2514  0.0236  0.1266
  812SOL    HW1 2435   1.153   0.350   0.561  0.2517 -0.1741  2.8628
  812SOL    HW2 2436   1.182   0.440   0.700 -1.5200 -1.8917  0.9111
  813SOL     OW 2437   1.150   3.061   2.341 -0.3396 -0.0057 -0.3362
  813SOL    HW1 2438   1.187   2.973   2.306  0.5465  2.9716 -1.0085
  813SOL    HW2 2439   1.169   0.049   2.285 -3.5466  1.4367  2.4741
  814SOL     OW 2440   1.264   2.803   1.464  0.5703  0.0947  0.6042
  814SOL    HW1 2441   1.189   2.732   1.451 -2.2192  0.6608 -1.0599
  814SOL    HW2 2442   1.244   2.862   1.546  0.1474 -1.1956  1.8865
  815SOL     OW 2443   0.023   2.844   0.056 -0.0641  0.6760 -0.6672
  815SOL    HW1 2444   3.055   2.919   0.023  1.5114 -3.8878  0.7874
  815SOL    HW2 2445   3.069   2.790   0.129 -0.0267 -1.5787 -1.1907
  816SOL     OW 2446   2.282   1.309   2.777 -0.0709  0.0927  0.8526
  816SOL    HW1 2447   2.213   1.372   2.738  1.6135  3.4744  0.2151
  816SOL    HW2 2448   2.265   1.219   2.739  2.9058  3.0673 -0.8567
  817SOL     OW 2449   2.188   2.068   2.409 -0.3058  0.5237  0.5713
  817SOL    HW1 2450   2.141   1.979   2.416  1.4853  2.6031  0.7444
  817SOL    HW2 2451   2.201   2.118   2.497  1.2790 -1.1029  2.9601
  818SOL     OW 2452   1.037   1.003   0.079 -0.7952 -0.0100  0.2031
  818SOL    HW1 2453   1.139   0.981   0.081  1.1738 -0.4504 -0.0211
  818SOL    HW2 2454   1.022   1.072   0.001 -0.5243 -1.1976 -4.5514
  819SOL     OW 2455   1.767   1.615   0.215  0.4111  0.1783 -0.0124
  819SOL    HW1 2456   1.783   1.521   0.170 -1.0830 -4.8595  0.1463
  819SOL    HW2 2457   1.746   1.592   0.314 -0.5692 -0.3255 -1.2327
  820SOL     OW 2458   0.221   0.805   0.691 -0.0064  0.4025 -0.2394
  820SOL    HW1 2459   0.231   0.787   0.794  0.5770 -1.3609 -0.1295
  820SOL    HW2 2460   0.223   0.727   0.630  1.0023  1.8829  1.2125
  821SOL     OW 2461   0.519   3.048   1.531 -0.5031 -0.1592  0.1392
  821SOL    HW1 2462   0.501   0.032   1.470 -1.5306 -3.2856 -0.2921
  821SOL    HW2 2463   0.460   2.967   1.504 -2.1076 -1.2764  1.5558
  822SOL     OW 2464   1.870   2.199   2.851  0.0910  0.0631 -0.4092
  822SOL    HW1 2465   1.941   2.265   2.875 -0.2335 -3.3757  1.3193
  822SOL    HW2 2466   1.853   2.193   2.749  1.1034 -2.4527  0.4040
  823SOL     OW 2467   0.786   0.638   1.987  0.2781  0.1255  0.4377
  823SOL    HW1 2468   0.877   0.629   1.939 -0.0993 -1.7338 -3.7159
  823SOL    HW2 2469   0.785   0.704   2.070  1.4267  1.2076 -1.5946
  824SOL     OW 2470   2.499   3.064   1.479  0.0883 -0.1721  0.2749
  824SOL    HW1 2471   2.466   0.063   1.450 -0.7569  0.9572  1.8648
  824SOL    HW2 2472   2.419   3.006   1.504  2.5496  2.8114 -0.4145
  825SOL     OW 2473   0.327   1.350   2.519 -0.7668 -0.6505 -0.2869
  825SOL    HW1 2474   0.384   1.395   2.447 -1.0555  0.2908  0.0039
  825SOL    HW2 2475   0.274   1.277   2.480 -0.0202  1.5399  1.3856
  826SOL     OW 2476   1.600   0.458   2.776 -0.3426 -0.0224 -0.2882
  826SOL    HW1 2477   1.589   0.503   2.686  0.7219  0.5087  1.0900
  826SOL    HW2 2478   1.611   0.357   2.770  3.2560  0.8602  1.4073
  827SOL     OW 2479   0.419   2.456   2.376  0.7845  0.0918  0.5526
  827SOL    HW1 2480   0.447   2.359   2.374 -0.8809  0.0308 -0.2893
  827SOL    HW2 2481   0.481   2.525   2.331  0.4137 -0.4841 -1.2542
  828SOL     OW 2482   3.084   3.001   1.519 -0.9340  0.1323 -0.4441
  828SOL    HW1 2483   0.064   3.030   1.589 -0.6887  0.0325  0.1539
  828SOL    HW2 2484   2.996   3.045   1.535  3.6724  0.6986 -0.6389
  829SOL     OW 2485   1.398   1.652   1.718 -0.0297  0.1062 -0.2099
  829SOL    HW1 2486   1.474   1.595   1.701 -0.3671  1.9807  2.3757
  829SOL    HW2 2487   1.325   1.603   1.762  2.0275  1.8092 -1.8755
  830SOL     OW 2488   0.839   0.964   1.435 -0.0339 -0.6127 -0.0555
  830SOL    HW1 2489   0.817   0.932   1.341  2.5267 -1.0314  1.3743
  830SOL    HW2 2490   0.755   0.988   1.483  0.5624 -2.5034 -1.4679
  831SOL     OW 2491   2.899   1.740   0.472  0.1012 -0.0693 -0.6190
  831SOL    HW1 2492   2.911   1.759   0.376 -0.8280  2.5622 -2.5844
  831SOL    HW2 2493   2.853   1.818   0.512 -0.9150 -4.2711 -1.1841
  832SOL     OW 2494   1.178   2.730   0.139 -0.2224 -0.3891  0.5072
  832SOL    HW1 2495   1.118   2.803   0.176 -0.9795  0.4017  0.8494
  832SOL    HW2 2496   1.163   2.641   0.182 -1.2054 -1.4570  0.4379
  833SOL     OW 2497   0.059   0.428   1.599 -0.6663 -0.0068  0.0422
  833SOL    HW1 2498   0.123   0.349   1.597  0.5964  0.6654 -0.9425
  833SOL    HW2 2499   0.084   0.502   1.532  1.9973  2.1098 -0.1959
  834SOL     OW 2500   3.064   0.657   1.132  0.1608  0.7845  0.1717
  834SOL    HW1 2501   0.027   0.613   1.060  1.5191  3.1614  0.6445
  834SOL    HW2 2502   3.050   0.756   1.105 -0.7933 -1.3776  0.8887
  835SOL     OW 2503   2.586   0.054   0.407 -0.0789 -0.4838  0.0566
  835SOL    HW1 2504   2.631   0.060   0.501 -1.4000  0.0380  0.0379
  835SOL    HW2 2505   2.650   0.042   0.327  3.1628  0.1965  0.6882
  836SOL     OW 2506   1.108   2.086   2.828  0.4826  0.2709 -0.1342
  836SOL    HW1 2507   1.032   2.039   2.880 -2.7147  1.5013 -1.8012
  836SOL    HW2 2508   1.122   2.036   2.740 -1.9030 -0.4138  1.4152
  837SOL     OW 2509   1.730   1.847   0.080 -0.1520 -0.2407  0.2062
  837SOL    HW1 2510   1.743   1.771   0.148 -1.0147 -1.2149 -1.2931
  837SOL    HW2 2511   1.676   1.812   0.002  0.1070  3.6031 -2.6768
  838SOL     OW 2512   2.637   0.808   2.383  0.0242 -0.6452  0.1292
  838SOL    HW1 2513   2.669   0.858   2.464  0.3881 -1.3757 -2.1288
  838SOL    HW2 2514   2.557   0.865   2.343 -0.8728  1.4964 -0.2099
  839SOL     OW 2515   0.824   0.947   2.390  0.4461 -0.0294  0.6107
  839SOL    HW1 2516   0.871   1.033   2.357  1.4721  2.1215 -2.4642
  839SOL    HW2 2517   0.788   0.952   2.483 -1.5686 -0.5628 -0.4116
  840SOL     OW 2518   0.958   0.899   2.882  0.1647  0.2101 -0.2872
  840SOL    HW1 2519   0.970   0.999   2.915 -0.8702  4.3121  3.1312
  840SOL    HW2 2520   1.005   0.837   2.947  1.1175 -0.2414 -1.0370
  841SOL     OW 2521   0.959   2.546   0.810  0.4058  0.1677 -0.2268
  841SOL    HW1 2522   0.946   2.638   0.767  0.0870 -2.5323 -1.4985
  841SOL    HW2 2523   0.902   2.468   0.780 -2.1670  0.6461  0.3819
  842SOL     OW 2524   0.311   0.699   0.933  0.0987  0.1310 -0.7681
  842SOL    HW1 2525   0.359   0.791   0.944  0.1728  0.7840 -0.8688
  842SOL    HW2 2526   0.388   0.626   0.926  3.6182 -0.2652 -1.1073
  843SOL     OW 2527   0.557   1.078   1.518 -0.2282  0.5202 -0.0952
  843SOL    HW1 2528   0.545   0.980   1.503 -0.8149  2.3444  1.1329
  843SOL    HW2 2529   0.576   1.095   1.616  1.5793  1.0582 -0.7244
  844SOL     OW 2530   2.071   2.747   2.669 -0.5483 -0.1007  0.3201
  844SOL    HW1 2531   2.044   2.836   2.718 -1.5451 -0.6448  0.1117
  844SOL    HW2 2532   2.114   2.766   2.575  1.1993 -0.6045 -0.0720
  845SOL     OW 2533   2.247   2.948   1.557  0.1851  0.2586  0.2386
  845SOL    HW1 2534   2.194   2.980   1.477  0.4460  3.2990 -0.0634
  845SOL    HW2 2535   2.215   2.853   1.578 -1.1145 -1.1097  2.0459
  846SOL     OW 2536   2.024   0.970   2.449  0.0136 -0.2086 -0.0664
  846SOL    HW1 2537   1.966   0.899   2.407  0.6578 -0.1799 -0.0717
  846SOL    HW2 2538   2.083   0.941   2.529  1.3449  1.6634 -1.2250
  847SOL     OW 2539   2.472   2.602   1.829  0.3019  0.4299 -0.1898
  847SOL    HW1 2540   2.408   2.675   1.808  2.7176  0.1832 -2.0970
  847SOL    HW2 2541   2.523   2.574   1.752 -1.0420  0.6301  1.9785
  848SOL     OW 2542   2.672   2.909   0.009 -0.3245 -0.7136  0.3116
  848SOL    HW1 2543   2.688   2.897   0.111 -1.2055 -0.9599  1.4893
  848SOL    HW2 2544   2.759   2.938   3.055  2.3500 -1.3834 -0.1588
  849SOL     OW 2545   0.281   3.027   0.919  0.0425 -0.2332  0.7200
  849SOL    HW1 2546   0.299   2.927   0.914 -0.0808  0.9724  0.6294
  849SOL    HW2 2547   0.364   3.068   0.962  0.9138 -1.4722 -1.7852
  850SOL     OW 2548   0.312   2.141   0.628 -0.0838 -0.5445 -0.2897
  850SOL    HW1 2549   0.343   2.227   0.574  0.5733 -1.6429 -0.7915
  850SOL    HW2 2550   0.321   2.057   0.568 -0.8098 -1.0246  0.6788
  851SOL     OW 2551   2.029   0.377   0.034  0.3609 -0.3005  0.0803
  851SOL    HW1 2552   2.024   0.419   3.032 -0.0228  2.3406 -2.1194
  851SOL    HW2 2553   2.098   0.297   0.039  0.6212 -0.8576 -0.5062
  852SOL     OW 2554   1.826   2.220   2.595  0.4958  0.3033  0.7490
  852SOL    HW1 2555   1.762   2.155   2.547 -0.5419  1.1162  2.4107
  852SOL    HW2 2556   1.833   2.312   2.545  0.6918  1.0904 -0.9770
  853SOL     OW 2557   3.024   2.020   0.264 -0.4551  0.0596  0.4983
  853SOL    HW1 2558   2.974   1.930   0.248 -0.7271 -2.0991  2.0859
  853SOL    HW2 2559   0.032   2.005   0.248  2.1977  0.4108 -1.1145
  854SOL     OW 2560   1.798   0.675   1.967  0.1201  0.0575  0.0370
  854SOL    HW1 2561   1.743   0.587   1.982 -0.8208 -1.2264 -2.3568
  854SOL    HW2 2562   1.875   0.673   2.034 -1.9640  1.0630  1.2209
  855SOL     OW 2563   0.380   2.633   0.300  0.5670 -0.4455 -0.1106
  855SOL    HW1 2564   0.428   2.544   0.323  1.7727 -1.0980  2.4531
  855SOL    HW2 2565   0.289   2.619   0.258 -0.0166  1.2586  1.6674
  856SOL     OW 2566   0.428   2.821   2.585  0.1834  0.4863 -0.4466
  856SOL    HW1 2567   0.396   2.904   2.635  1.6080  1.2084 -0.3211
  856SOL    HW2 2568   0.517   2.841   2.542  3.8792  0.9488 -0.3064
  857SOL     OW 2569   0.737   0.076   1.622  0.3093 -0.0549 -0.0089
  857SOL    HW1 2570   0.750   0.141   1.540  0.4792  2.3553 -4.0600
  857SOL    HW2 2571   0.661   0.011   1.604  0.3202 -3.3697  1.7958
  858SOL     OW 2572   0.404   2.185   2.062  0.5919  0.3861  0.0921
  858SOL    HW1 2573   0.419   2.099   2.005  1.9437  1.0708  3.2084
  858SOL    HW2 2574   0.334   2.242   2.011  0.2574  0.9752 -0.7018
  859SOL     OW 2575   2.015   2.542   1.774 -0.3433  0.4490 -0.3336
  859SOL    HW1 2576   1.934   2.512   1.828  1.1971  1.1007  2.3780
  859SOL    HW2 2577   2.076   2.458   1.753 -1.6709  0.1747  0.3909
  860SOL     OW 2578   1.591   0.676   0.400  0.1921 -0.0945  0.2419
  860SOL    HW1 2579   1.510   0.637   0.450 -1.0453 -0.9259  1.2167
  860SOL    HW2 2580   1.621   0.761   0.441 -1.9305 -2.3141 -1.3242
  861SOL     OW 2581   2.981   0.596   0.776 -0.4309  0.4105  0.4855
  861SOL    HW1 2582   2.968   0.697   0.773  3.0761  0.1380  0.7535
  861SOL    HW2 2583   2.908   0.542   0.816  0.7806  0.9690 -3.8882
  862SOL     OW 2584   1.874   0.794   1.407  0.3737  0.3750  0.0864
  862SOL    HW1 2585   1.773   0.812   1.399 -1.8142 -1.5205 -4.5132
  862SOL    HW2 2586   1.893   0.721   1.342 -2.5559  3.6502 -3.8285
  863SOL     OW 2587   0.589   1.315   1.338  0.6305  0.3305  0.3313
  863SOL    HW1 2588   0.561   1.247   1.408  1.9479  0.5224  0.7469
  863SOL    HW2 2589   0.663   1.281   1.280 -4.5894 -0.6036  1.1515
  864SOL     OW 2590   2.770   2.775   2.266 -0.1576 -0.0847  0.0965
  864SOL    HW1 2591   2.837   2.703   2.290 -0.5233  1.0749  2.9662
  864SOL    HW2 2592   2.761   2.779   2.167  1.9727  0.0538  3.6449
  865SOL     OW 2593   1.066   0.487   2.195 -0.1757  0.4430  0.7701
  865SOL    HW1 2594   1.024   0.579   2.207 -0.3941  0.9256  0.1682
  865SOL    HW2 2595   1.162   0.500   2.217  1.9362  0.6870  3.3665
  866SOL     OW 2596   2.442   2.909   0.265 -0.3042 -0.3675  0.5280
  866SOL    HW1 2597   2.356   2.951   0.295  0.7037  2.3497 -1.3885
  866SOL    HW2 2598   2.523   2.958   0.308  0.4392 -2.6613  5.3532
  867SOL     OW 2599   2.794   2.857   0.517 -0.0739 -0.1780  0.2723
  867SOL    HW1 2600   2.733   2.782   0.510  3.2185  4.7125 -1.6921
  867SOL    HW2 2601   2.884   2.821   0.503 -1.2396 -1.3540 -0.4328
  868SOL     OW 2602   1.831   1.373   2.725 -0.2644  0.4338  0.0049
  868SOL    HW1 2603   1.842   1.313   2.805  0.4732 -1.5165  1.1044
  868SOL    HW2 2604   1.755   1.440   2.733 -0.3863  0.7613  1.0664
  869SOL     OW 2605   2.690   2.598   0.455  0.2418  0.0762  0.2638
  869SOL    HW1 2606   2.729   2.506   0.422 -0.3339 -1.3111 -1.2136
  869SOL    HW2 2607   2.601   2.617   0.406  0.8022 -0.4911 -1.8717
  870SOL     OW 2608   2.628   2.184   0.574 -0.8599 -0.6706  0.5132
  870SOL    HW1 2609   2.549   2.207   0.629  2.5073  1.2876  0.7497
  870SOL    HW2 2610   2.659   2.088   0.586  0.6428 -1.8077  3.3360
  871SOL     OW 2611   0.377   1.315   1.163  0.0534  0.5816 -0.1544
  871SOL    HW1 2612   0.449   1.298   1.231  2.1822 -1.4553  0.4504
  871SOL    HW2 2613   0.298   1.373   1.189  2.2323  0.1620  0.2101
  872SOL     OW 2614   1.252   1.742   2.430  0.3329  0.6254 -0.6507
  872SOL    HW1 2615   1.161   1.704   2.405 -1.3648  3.3588  0.9056
  872SOL    HW2 2616   1.321   1.720   2.356  3.2243  1.0847 -4.2608
  873SOL     OW 2617   0.506   2.661   2.007 -0.0624  0.3414 -0.3738
  873SOL    HW1 2618   0.508   2.767   2.000  0.7202  0.5280  1.7866
  873SOL    HW2 2619   0.465   2.610   1.928 -2.3087  0.0464  1.3407
  874SOL     OW 2620   0.621   0.456   1.360 -0.1163 -0.2718 -0.2235
  874SOL    HW1 2621   0.526   0.446   1.400  0.4625  0.3376  1.8987
  874SOL    HW2 2622   0.680   0.524   1.404 -4.2989 -1.1645 -1.6586
  875SOL     OW 2623   2.945   0.297   1.166  0.2955 -0.1157  0.5832
  875SOL    HW1 2624   2.894   0.371   1.210  1.1994 -2.5248 -0.9600
  875SOL    HW2 2625   2.955   0.217   1.228 -0.6621 -3.7058  0.7541
  876SOL     OW 2626   0.673   1.233   0.404 -0.4361  0.2181  0.3578
  876SOL    HW1 2627   0.603   1.183   0.345  1.4849 -0.7685 -1.8520
  876SOL    HW2 2628   0.741   1.274   0.336 -1.0489  2.0125  0.9456
  877SOL     OW 2629   1.084   0.919   1.541  0.2038  0.1007 -0.1062
  877SOL    HW1 2630   1.138   0.851   1.485 -1.5863 -2.4949 -0.6027
  877SOL    HW2 2631   0.994   0.939   1.498 -1.6815  3.6384  2.7396
  878SOL     OW 2632   2.256   2.239   0.485  0.2206  0.0922 -0.7387
  878SOL    HW1 2633   2.316   2.179   0.424  0.0129  0.3217 -1.8311
  878SOL    HW2 2634   2.300   2.248   0.576 -1.7590 -1.2421  0.2644
  879SOL     OW 2635   2.730   1.811   1.697  0.2741  0.1441 -0.0939
  879SOL    HW1 2636   2.808   1.838   1.762  1.4551 -0.7684 -0.6908
  879SOL    HW2 2637   2.750   1.833   1.600 -0.1295 -1.0649  2.1708
  880SOL     OW 2638   1.607   2.458   0.679 -0.6901 -0.1796 -0.1532
  880SOL    HW1 2639   1.600   2.435   0.780  0.4131 -2.2060 -0.1932
  880SOL    HW2 2640   1.552   2.392   0.623  0.1660  0.2844  0.5467
  881SOL     OW 2641   0.404   2.341   0.489  0.3442  0.6354  0.0333
  881SOL    HW1 2642   0.427   2.333   0.393  0.2784 -1.0302  1.6819
  881SOL    HW2 2643   0.469   2.398   0.542  0.6982  2.0951  0.1128
  882SOL     OW 2644   1.820   0.650   0.776  0.5500  0.5824  0.2222
  882SOL    HW1 2645   1.887   0.604   0.714  0.1824 -1.2229  0.7498
  882SOL    HW2 2646   1.847   0.659   0.873  1.1775 -2.1920 -0.1599
  883SOL     OW 2647   1.601   0.817   1.389  0.6488 -0.2452  0.0204
  883SOL    HW1 2648   1.612   0.718   1.375  1.2728  0.7484  0.5841
  883SOL    HW2 2649   1.511   0.852   1.339 -1.4671  1.2501 -4.3079
  884SOL     OW 2650   2.525   0.044   0.009  0.1510  0.4834 -0.3932
  884SOL    HW1 2651   2.586   3.053   0.010  0.1176 -0.6644  0.8586
  884SOL    HW2 2652   2.538   0.090   3.011 -0.4417  1.2134  2.7018
  885SOL     OW 2653   1.192   1.359   2.665 -0.2745 -0.7358 -0.6807
  885SOL    HW1 2654   1.194   1.310   2.754  0.7875 -0.6432  3.2783
  885SOL    HW2 2655   1.257   1.439   2.664 -0.7360  2.7968  2.5074
  886SOL     OW 2656   1.414   1.953   2.664  0.3356 -0.0666 -0.3324
  886SOL    HW1 2657   1.312   1.939   2.654  0.1532 -2.6394 -0.6081
  886SOL    HW2 2658   1.435   2.050   2.670  1.1432 -0.5603 -0.3448
  887SOL     OW 2659   1.220   0.392   1.324  0.2447  0.2559  0.2839
  887SOL    HW1 2660   1.254   0.452   1.253 -2.4602 -2.5648  2.4158
  887SOL    HW2 2661   1.143   0.438   1.375  0.0065 -2.7046 -1.9321
  888SOL     OW 2662   2.397   0.736   1.514 -0.6345 -0.0427  0.2636
  888SOL    HW1 2663   2.320   0.791   1.552 -3.6376 -1.1963  1.3773
  888SOL    HW2 2664   2.366   0.674   1.436  2.1060 -0.3239  0.6581
  889SOL     OW 2665   0.359   2.610   0.684 -0.0221 -0.1543 -0.5591
  889SOL    HW1 2666   0.453   2.571   0.690 -0.8673 -1.1477 -1.7721
  889SOL    HW2 2667   0.318   2.583   0.595 -2.1980  1.6188 -0.7177
  890SOL     OW 2668   1.762   2.076   0.507  0.1991 -0.8996 -0.4483
  890SOL    HW1 2669   1.827   2.154   0.501  1.4062  1.2339  0.2308
  890SOL    HW2 2670   1.709   2.064   0.415 -1.4752 -0.4847 -1.5157
  891SOL     OW 2671   0.140   0.938   3.053 -0.3416  0.3925  0.0133
  891SOL    HW1 2672   0.113   0.840   3.041 -1.0909 -0.0223  0.9592
  891SOL    HW2 2673   0.098   0.995   2.980 -0.8178 -0.3323  0.4353
  892SOL     OW 2674   2.903   2.535   1.072 -0.0173 -0.7357 -0.3342
  892SOL    HW1 2675   2.900   2.459   1.006  0.0707  1.4611  3.5962
  892SOL    HW2 2676   2.815   2.557   1.119 -0.2636 -1.4157  0.2505
  893SOL     OW 2677   1.315   0.437   1.020 -0.2304  0.1839 -0.2690
  893SOL    HW1 2678   1.351   0.348   0.994 -1.8122 -0.5260  0.4836
  893SOL    HW2 2679   1.370   0.470   1.097 -1.3993  0.3580 -0.4413
  894SOL     OW 2680   2.780   0.445   0.908  0.3064  0.1818  0.0670
  894SOL    HW1 2681   2.718   0.510   0.855  0.6664  1.1081 -1.7728
  894SOL    HW2 2682   2.757   0.449   1.009 -1.5609  0.2210 -0.0709
  895SOL     OW 2683   1.633   1.092   2.268  0.1122 -0.1125 -0.4061
  895SOL    HW1 2684   1.561   1.158   2.282  3.8946  1.0655  0.2655
  895SOL    HW2 2685   1.712   1.139   2.220  0.4627  0.2489  0.4675
  896SOL     OW 2686   1.511   0.315   1.662  0.4794 -0.1959 -0.2298
  896SOL    HW1 2687   1.512   0.228   1.716  1.4866  0.8283  0.9623
  896SOL    HW2 2688   1.495   0.299   1.562 -2.6189  1.2487  1.9134
  897SOL     OW 2689   0.581   1.635   1.711 -0.2734  0.3839 -0.0017
  897SOL    HW1 2690   0.561   1.646   1.612  0.8134  0.3106 -1.1722
  897SOL    HW2 2691   0.625   1.715   1.756 -1.6605  0.3874  1.9547
  898SOL     OW 2692   2.070   2.491   2.290  0.1815  0.1126 -0.1126
  898SOL    HW1 2693   2.089   2.398   2.257  0.7369 -0.5740  0.1633
  898SOL    HW2 2694   2.156   2.533   2.331  0.3048 -1.6931 -0.8618
  899SOL     OW 2695   1.292   1.674   1.043  0.4355 -0.3569  0.0688
  899SOL    HW1 2696   1.301   1.584   0.990  1.6456 -0.9785  1.1363
  899SOL    HW2 2697   1.197   1.687   1.074 -1.5383  1.6366  2.7144
  900SOL     OW 2698   1.425   2.230   2.661  0.0094  0.0001 -0.2843
  900SOL    HW1 2699   1.334   2.256   2.702  0.4864  3.5693 -0.4656
  900SOL    HW2 2700   1.420   2.243   2.561 -0.8639  0.3466 -2.7759
  901SOL     OW 2701   1.015   1.639   2.323  0.4317 -0.2124 -0.1123
  901SOL    HW1 2702   0.967   1.607   2.242 -1.1248 -0.4115  2.5128
  901SOL    HW2 2703   0.938   1.686   2.375  3.4597 -0.4311 -0.2297
  902SOL     OW 2704   2.378   1.789   0.379 -0.4630 -0.4685  0.3998
  902SOL    HW1 2705   2.414   1.751   0.293  1.0123  1.1452  2.5496
  902SOL    HW2 2706   2.406   1.735   0.461  0.8351  1.5244  2.4573
  903SOL     OW 2707   2.127   1.885   0.449 -0.3937  0.5208  0.4021
  903SOL    HW1 2708   2.223   1.842   0.441  0.0676  0.6407  0.6607
  903SOL    HW2 2709   2.107   1.942   0.367 -1.0339  0.3368 -0.6283
  904SOL     OW 2710   0.985   0.769   2.213  0.4114  0.2293  0.7447
  904SOL    HW1 2711   1.061   0.840   2.191  0.4317  1.0745  2.6812
  904SOL    HW2 2712   0.913   0.821   2.258  2.1828  1.7976 -1.5390
  905SOL     OW 2713   2.927   0.228   0.867 -0.2687 -0.1621 -0.1984
  905SOL    HW1 2714   2.879   0.312   0.905  1.7005 -0.4670  2.5066
  905SOL    HW2 2715   3.022   0.228   0.904 -0.3189  0.9117 -0.8298
  906SOL     OW 2716   2.739   1.948   0.592 -0.6633  0.4401 -0.0031
  906SOL    HW1 2717   2.800   2.006   0.652  0.9224  2.3168  0.2790
  906SOL    HW2 2718   2.691   1.874   0.647  0.4947  1.7614 -2.7595
  907SOL     OW 2719   1.153   0.387   0.359 -0.4379 -0.0151  0.3236
  907SOL    HW1 2720   1.247   0.402   0.320 -0.5027  0.7366 -1.2983
  907SOL    HW2 2721   1.096   0.338   0.292 -0.6011 -2.7511 -1.3739
  908SOL     OW 2722   1.763   2.927   1.692  0.3404 -0.0444 -0.1111
  908SOL    HW1 2723   1.810   2.846   1.650  1.7199 -1.8158 -0.9911
  908SOL    HW2 2724   1.703   2.894   1.765  0.4130 -0.0871 -0.3319
  909SOL     OW 2725   2.732   0.682   1.427 -0.2116 -0.2241  0.5910
  909SOL    HW1 2726   2.692   0.719   1.509  1.7051 -1.4429 -0.6855
  909SOL    HW2 2727   2.759   0.761   1.369 -0.0130 -2.5927 -0.3965
  910SOL     OW 2728   1.173   2.914   2.637 -0.0912  0.1743  0.9807
  910SOL    HW1 2729   1.134   2.824   2.629  2.4970 -1.5925  1.7664
  910SOL    HW2 2730   1.200   2.946   2.546  1.8182  0.9784  3.5332
  911SOL     OW 2731   2.223   1.108   1.820 -0.5954  0.2136 -0.4108
  911SOL    HW1 2732   2.245   1.126   1.921  1.6602  0.6415  0.6932
  911SOL    HW2 2733   2.241   1.192   1.769 -1.8958 -1.8115 -1.1800
  912SOL     OW 2734   2.513   2.158   1.558 -0.0250 -0.4673  0.5909
  912SOL    HW1 2735   2.596   2.103   1.520 -0.7838  1.1187 -0.0972
  912SOL    HW2 2736   2.442   2.176   1.486  0.8354 -1.1197 -0.6013
  913SOL     OW 2737   2.668   2.563   1.286  0.3474 -0.0751  0.1837
  913SOL    HW1 2738   2.634   2.581   1.380  1.4255  0.2816  2.4437
  913SOL    HW2 2739   2.663   2.643   1.225 -3.0305 -2.0309  0.9380
  914SOL     OW 2740   2.173   1.846   1.272  0.4937 -0.0197  0.0795
  914SOL    HW1 2741   2.150   1.747   1.271  1.0077 -2.0915  0.5967
  914SOL    HW2 2742   2.179   1.878   1.370  0.3452  0.2291  2.0387
  915SOL     OW 2743   1.050   2.003   1.300  0.4515  0.2590  0.2008
  915SOL    HW1 2744   0.952   2.028   1.330 -0.8173 -1.5423  0.5730
  915SOL    HW2 2745   1.096   1.935   1.365  0.5033 -0.6253  1.0477
  916SOL     OW 2746   2.950   2.814   1.163  0.1931  0.5215  0.1179
  916SOL    HW1 2747   2.994   2.890   1.120 -1.6069 -0.4954 -1.9945
  916SOL    HW2 2748   2.859   2.795   1.112 -0.4591 -2.3437  0.2678
  917SOL     OW 2749   2.508   1.416   2.660 -0.0814  0.3077  0.0222
  917SOL    HW1 2750   2.586   1.354   2.644  0.4142  2.2258  0.0870
  917SOL    HW2 2751   2.437   1.372   2.725 -1.3168 -1.9706  2.4158
  918SOL     OW 2752   1.687   2.048   2.456 -0.3741 -0.3687 -0.1559
  918SOL    HW1 2753   1.754   2.016   2.384  1.6808  1.4809  1.9582
  918SOL    HW2 2754   1.631   1.974   2.491  1.8017  0.1183 -0.9947
  919SOL     OW 2755   1.606   2.032   1.759 -0.1554  0.6328 -0.9596
  919SOL    HW1 2756   1.587   1.989   1.852 -2.0303  1.3735  0.9242
  919SOL    HW2 2757   1.598   1.956   1.687  0.8572 -1.4829 -1.1121
  920SOL     OW 2758   0.322   0.152   2.956  0.1654 -0.0990 -0.1655
  920SOL    HW1 2759   0.392   0.225   2.941  0.2337 -0.0262  0.4623
  920SOL    HW2 2760   0.322   0.120   3.054 -0.0576 -1.1301  0.1801
  921SOL     OW 2761   2.631   0.243   2.260 -0.3335 -0.5087  0.2702
  921SOL    HW1 2762   2.723   0.236   2.301 -0.4320 -0.9348  2.7518
  921SOL    HW2 2763   2.610   0.344   2.264  1.9961  0.8449 -0.4844
  922SOL     OW 2764   2.331   1.585   1.563 -0.6024  0.3095 -0.1324
  922SOL    HW1 2765   2.394   1.633   1.627 -0.5020 -0.6939 -1.6973
  922SOL    HW2 2766   2.233   1.609   1.583  3.3563 -0.8245 -2.5009
  923SOL     OW 2767   0.728   1.874   0.524  0.2522 -0.3155 -0.2185
  923SOL    HW1 2768   0.682   1.954   0.486  1.2682 -0.7992  0.8768
  923SOL    HW2 2769   0.802   1.836   0.470 -4.1230  0.0033 -1.5227
  924SOL     OW 2770   1.358   0.485   2.902  0.4163 -0.2146 -0.7597
  924SOL    HW1 2771   1.390   0.545   2.981  1.1808 -0.8419 -1.7841
  924SOL    HW2 2772   1.439   0.471   2.844 -1.9154  1.9243  3.1542
  925SOL     OW 2773   2.631   1.425   0.734 -0.0510 -0.4081 -0.1509
  925SOL    HW1 2774   2.538   1.462   0.720  0.9253 -1.3923  1.3099
  925SOL    HW2 2775   2.631   1.390   0.832 -0.1916  1.4829  0.9977
  926SOL     OW 2776   2.932   0.856   0.750  0.3877 -0.2251 -0.5617
  926SOL    HW1 2777   2.979   0.948   0.757  0.1972  4.1159  1.0335
  926SOL    HW2 2778   2.835   0.854   0.724  0.0380 -0.9532 -0.4942
  927SOL     OW 2779   0.605   1.480   0.499  0.3389  0.1380 -0.1973
  927SOL    HW1 2780   0.634   1.390   0.465 -1.2468  0.1941 -0.8071
  927SOL    HW2 2781   0.603   1.545   0.419 -0.1938 -1.2201  1.0681
  928SOL     OW 2782   0.058   0.044   2.631  0.0012 -0.6365  0.4749
  928SOL    HW1 2783   0.122   3.077   2.685  0.8783  2.1866 -0.3099
  928SOL    HW2 2784   0.101   0.086   2.551 -0.2848  0.6045 -0.7707
  929SOL     OW 2785   2.781   0.054   1.224  0.3292  0.2034 -0.0159
  929SOL    HW1 2786   2.679   0.039   1.220  2.1225 -0.0108 -3.0686
  929SOL    HW2 2787   2.825   0.082   1.136  1.0409  1.0964 -1.7118
  930SOL     OW 2788   2.040   2.152   1.675 -0.3750  0.1826 -0.3721
  930SOL    HW1 2789   1.943   2.163   1.715 -1.3385  1.8518 -1.7582
  930SOL    HW2 2790   2.058   2.054   1.643  0.9860  1.8107  0.1237
  931SOL     OW 2791   1.681   0.922   0.904 -0.3493 -0.2231  0.1945
  931SOL    HW1 2792   1.684   0.958   0.811 -2.3859 -0.4888  3.5451
  931SOL    HW2 2793   1.777   0.909   0.935  1.7217  2.8452 -2.3878
  932SOL     OW 2794   2.833   0.901   1.232  0.8512  0.3026 -0.0241
  932SOL    HW1 2795   2.734   0.912   1.207 -1.2925 -1.7477 -0.8634
  932SOL    HW2 2796   2.895   0.939   1.162 -2.3580 -0.7131 -0.1105
  933SOL     OW 2797   2.478   1.770   1.703 -0.3957 -0.0558 -0.3928
  933SOL    HW1 2798   2.442   1.866   1.688  0.9122  2.0820  0.5396
  933SOL    HW2 2799   2.580   1.773   1.716 -0.1704 -0.5377  1.3098
  934SOL     OW 2800   1.822   0.038   1.006 -0.2134  0.0796  0.1419
  934SOL    HW1 2801   1.721   0.039   1.018  2.2876 -0.6570  0.5273
  934SOL    HW2 2802   1.842   0.083   0.917 -0.9793  2.8060 -0.6055
  935SOL     OW 2803   3.071   1.338   1.107 -0.5166  0.0371  0.1279
  935SOL    HW1 2804   3.031   1.324   1.011 -0.2269 -0.1355 -3.1578
  935SOL    HW2 2805   0.021   1.252   1.143 -2.5587  0.5426 -2.8547
  936SOL     OW 2806   3.059   0.910   1.063 -0.3673 -0.9008  0.6333
  936SOL    HW1 2807   3.044   0.945   0.968  1.2771 -0.8731 -0.8051
  936SOL    HW2 2808   0.032   0.975   1.111  0.1028  0.6721  0.4345
  937SOL     OW 2809   1.410   2.647   0.858 -0.1695 -0.5794 -0.0779
  937SOL    HW1 2810   1.439   2.677   0.765  1.6677 -2.9219 -2.2931
  937SOL    HW2 2811   1.454   2.558   0.890  1.2751 -1.9399  2.9559
  938SOL     OW 2812   2.807   2.524   0.706  0.1148 -0.0855  0.1018
  938SOL    HW1 2813   2.767   2.549   0.616 -0.6894 -2.2017 -0.6913
  938SOL    HW2 2814   2.849   2.601   0.754 -2.0025 -1.7048 -1.3280
  939SOL     OW 2815   0.754   1.893   0.017  0.0036 -0.0679  0.2988
  939SOL    HW1 2816   0.842   1.842   0.028  0.1897  0.0653 -1.1030
  939SOL    HW2 2817   0.767   1.991   0.027 -0.8435 -1.8397  2.3928
  940SOL     OW 2818   2.804   2.868   2.715 -0.1335  0.3656  0.0254
  940SOL    HW1 2819   2.877   2.892   2.646  1.1161 -1.2308  1.4853
  940SOL    HW2 2820   2.716   2.889   2.668 -1.7059 -1.4819  0.6129
  941SOL     OW 2821   1.271   2.777   2.956 -0.2001  0.4520 -0.2974
  941SOL    HW1 2822   1.244   2.734   3.044 -0.5773  0.9069 -0.4281
  941SOL    HW2 2823   1.312   2.871   2.968  0.7263  0.9090 -1.3230
  942SOL     OW 2824   1.627   1.829   1.583 -0.0163 -0.0585  0.1202
  942SOL    HW1 2825   1.626   1.734   1.616  2.3411  2.5313  0.3619
  942SOL    HW2 2826   1.589   1.840   1.487  0.8018  0.0142 -2.1789
  943SOL     OW 2827   2.198   1.319   1.364  0.0662 -0.2286  0.1275
  943SOL    HW1 2828   2.295   1.286   1.391  0.1745  1.7340  2.1485
  943SOL    HW2 2829   2.135   1.286   1.439  0.3614  0.1181  1.1939
  944SOL     OW 2830   1.923   0.827   1.670 -0.0526  0.1840  0.7059
  944SOL    HW1 2831   1.901   0.826   1.572 -1.0526  1.4643 -0.8229
  944SOL    HW2 2832   1.902   0.737   1.716  0.0837  0.1760  0.5836
  945SOL     OW 2833   0.154   3.000   1.309 -0.6067 -0.3707 -0.0419
  945SOL    HW1 2834   0.075   3.006   1.372 -0.1572  0.3963 -2.8231
  945SOL    HW2 2835   0.121   3.007   1.216 -0.3431 -1.9291  0.7455
  946SOL     OW 2836   0.361   0.701   1.828 -0.0205 -0.4373 -0.8999
  946SOL    HW1 2837   0.333   0.770   1.755 -0.9761 -0.8148 -1.5031
  946SOL    HW2 2838   0.398   0.753   1.908 -0.1417  1.2061 -0.2445
  947SOL     OW 2839   0.587   2.494   0.627 -0.1434 -0.0323 -0.0065
  947SOL    HW1 2840   0.628   2.577   0.586 -1.7314 -2.7825  2.4869
  947SOL    HW2 2841   0.654   2.449   0.687  0.0720  0.6037 -0.6502
  948SOL     OW 2842   2.931   1.142   1.856 -0.0852 -0.0425 -0.5868
  948SOL    HW1 2843   3.002   1.166   1.790  1.1539  1.0187  1.7964
  948SOL    HW2 2844   2.935   1.041   1.881  1.1491 -3.6669  0.4065
  949SOL     OW 2845   0.157   0.770   2.163  0.3840  0.3378 -0.5015
  949SOL    HW1 2846   0.258   0.763   2.177  2.1131  1.0348 -3.6611
  949SOL    HW2 2847   0.127   0.690   2.106 -0.9159  0.2192  0.5507
  950SOL     OW 2848   0.873   0.945   0.972 -0.3617 -0.3795 -0.1667
  950SOL    HW1 2849   0.955   1.001   0.946  0.8689 -0.9477 -0.4647
  950SOL    HW2 2850   0.790   0.996   0.948 -0.2234  0.0121  3.3029
  951SOL     OW 2851   1.190   1.888   1.924  0.7783 -0.2832 -0.2468
  951SOL    HW1 2852   1.245   1.927   2.001 -0.0004  2.2157  0.7882
  951SOL    HW2 2853   1.146   1.797   1.945 -0.0301  2.9538 -0.8476
  952SOL     OW 2854   0.935   1.716   2.794 -0.4634 -0.3261  0.1110
  952SOL    HW1 2855   1.015   1.659   2.822  0.9193  1.2721 -0.2231
  952SOL    HW2 2856   0.890   1.681   2.708 -0.0724  2.4330 -1.3999
  953SOL     OW 2857   1.535   2.953   2.192  0.2571 -0.3363 -0.2542
  953SOL    HW1 2858   1.537   2.966   2.291  0.2755 -2.0215 -2.1633
  953SOL    HW2 2859   1.628   2.929   2.158 -0.3204 -3.8303 -0.2727
  954SOL     OW 2860   2.014   1.211   0.278 -0.1510  0.4282  0.2468
  954SOL    HW1 2861   2.103   1.261   0.277 -2.2080 -0.2522  1.8483
  954SOL    HW2 2862   1.936   1.258   0.224 -1.7504  2.8077 -3.2330
  955SOL     OW 2863   0.480   2.205   2.322 -0.2726 -0.9655 -0.3479
  955SOL    HW1 2864   0.504   2.118   2.367 -1.6907  0.6958  1.8440
  955SOL    HW2 2865   0.436   2.189   2.231  1.1198  0.9725 -0.9575
  956SOL     OW 2866   1.410   1.119   1.419 -0.6752 -0.4002  0.0333
  956SOL    HW1 2867   1.384   1.041   1.356  0.4407 -1.2714  2.1544
  956SOL    HW2 2868   1.496   1.167   1.390 -0.8740  0.9796  0.5299
  957SOL     OW 2869   2.171   1.308   2.460 -0.5911  0.1455 -0.6487
  957SOL    HW1 2870   2.149   1.371   2.540 -1.3795 -1.6660 -0.2719
  957SOL    HW2 2871   2.078   1.275   2.433  0.4306 -2.5472  0.8086
  958SOL     OW 2872   1.563   2.442   0.975  0.1396  0.0288  0.2075
  958SOL    HW1 2873   1.502   2.479   1.050  0.2241 -0.6968 -0.9871
  958SOL    HW2 2874   1.620   2.366   1.010  0.1456  0.8439 -1.1879
  959SOL     OW 2875   1.828   1.790   2.582 -0.6338  0.0483  0.3834
  959SOL    HW1 2876   1.730   1.820   2.578 -1.2202  1.1383 -1.0499
  959SOL    HW2 2877   1.854   1.760   2.679 -1.1217 -2.1803  3.1411
  960SOL     OW 2878   0.407   0.473   0.016 -0.3842 -0.2027 -0.1618
  960SOL    HW1 2879   0.454   0.551   0.064  0.6501  1.8602  0.5874
  960SOL    HW2 2880   0.439   0.454   3.014  0.5904 -0.0765 -0.0982
  961SOL     OW 2881   0.332   0.473   2.224 -0.4233 -0.0323 -0.3865
  961SOL    HW1 2882   0.351   0.473   2.122  2.3535  1.3890  3.4659
  961SOL    HW2 2883   0.401   0.416   2.275  0.9564 -1.9225  1.2828
  962SOL     OW 2884   1.183   1.387   0.068  0.1837  0.1958  0.1335
  962SOL    HW1 2885   1.284   1.367   0.083 -0.1703 -1.8755  0.6639
  962SOL    HW2 2886   1.141   1.385   0.163  1.1182  1.1319 -1.3742
  963SOL     OW 2887   1.909   1.981   3.018 -0.1405 -0.3090  0.2840
  963SOL    HW1 2888   1.885   2.068   2.974  1.8928 -2.8541 -1.9272
  963SOL    HW2 2889   1.836   1.944   3.076  0.8258  1.3727 -2.1559
  964SOL     OW 2890   1.182   2.944   0.827  0.0574 -0.3301  0.2727
  964SOL    HW1 2891   1.172   3.040   0.821 -1.1411 -5.2632 -0.5166
  964SOL    HW2 2892   1.157   2.905   0.919  0.8800  0.8211  1.9032
  965SOL     OW 2893   0.857   2.639   1.048 -0.4306 -0.1253  0.2989
  965SOL    HW1 2894   0.905   2.602   0.966  2.6529 -0.2438  0.3805
  965SOL    HW2 2895   0.754   2.645   1.048 -2.6060  0.0661  0.1550
  966SOL     OW 2896   3.091   1.346   3.070 -0.3533 -0.4914 -0.3528
  966SOL    HW1 2897   0.038   1.343   2.975 -1.0031  0.8416 -0.5838
  966SOL    HW2 2898   2.991   1.371   3.074 -2.5619  3.9174  0.9245
  967SOL     OW 2899   1.523   2.776   1.696  0.3057 -0.2600 -1.0760
  967SOL    HW1 2900   1.513   2.700   1.627  0.6995 -0.6491 -1.0807
  967SOL    HW2 2901   1.430   2.804   1.732 -1.6991 -1.0905  1.3198
  968SOL     OW 2902   1.882   0.853   0.560 -0.8189  0.1444 -0.3474
  968SOL    HW1 2903   1.811   0.888   0.494 -3.3707 -0.3682  2.8929
  968SOL    HW2 2904   1.837   0.795   0.635 -0.2649  1.5838 -0.0994
  969SOL     OW 2905   0.303   1.903   2.263  0.0677 -0.1658 -0.2765
  969SOL    HW1 2906   0.260   1.973   2.205 -0.0627 -1.2740  1.2786
  969SOL    HW2 2907   0.346   1.941   2.350 -0.5169 -0.9043  0.5340
  970SOL     OW 2908   2.729   1.565   1.320 -0.0829  0.2478 -0.5356
  970SOL    HW1 2909   2.791   1.490   1.298 -1.2397  0.1342  0.9430
  970SOL    HW2 2910   2.633   1.535   1.310  2.3467  1.7759  0.3781
  971SOL     OW 2911   1.016   0.489   1.457 -0.3992 -0.1659  0.5959
  971SOL    HW1 2912   0.956   0.568   1.470  1.9317  1.1643 -0.1882
  971SOL    HW2 2913   1.011   0.439   1.545  0.2312  1.7324  2.5134
  972SOL     OW 2914   0.849   0.297   2.628  0.5877  0.3326  0.3562
  972SOL    HW1 2915   0.864   0.265   2.725 -0.1246 -0.7231 -0.8903
  972SOL    HW2 2916   0.889   0.227   2.566 -0.7200 -1.4963  1.9110
  973SOL     OW 2917   2.949   1.301   0.860  0.3673  0.0007 -0.1076
  973SOL    HW1 2918   2.871   1.246   0.822  0.7969  1.9434 -1.9518
  973SOL    HW2 2919   2.989   1.360   0.786 -0.2527 -1.3417 -1.3229
  974SOL     OW 2920   1.940   1.049   1.831  0.6169  0.1543  0.8235
  974SOL    HW1 2921   2.029   1.089   1.840 -2.3577  0.3633 -1.0351
  974SOL    HW2 2922   1.948   0.969   1.759 -2.0724  0.0280 -2.5003
  975SOL     OW 2923   2.762   2.946   0.263 -0.3747 -0.5549  0.5514
  975SOL    HW1 2924   2.774   2.930   0.361  0.2062 -1.1184  0.3413
  975SOL    HW2 2925   2.824   3.022   0.236 -1.3074  2.4664  0.9507
  976SOL     OW 2926   0.172   1.610   1.727  0.9676 -0.3552  0.1198
  976SOL    HW1 2927   0.228   1.618   1.640 -0.2931  0.9139  0.1731
  976SOL    HW2 2928   0.110   1.691   1.731  0.6836 -1.7057 -1.8003
  977SOL     OW 2929   0.695   2.826   0.186 -0.4333 -0.2736  0.0267
  977SOL    HW1 2930   0.622   2.892   0.209  0.3644  1.8696  1.0793
  977SOL    HW2 2931   0.692   2.798   0.091  1.6466 -0.2906 -0.6063
  978SOL     OW 2932   0.527   1.733   0.057 -0.5322  0.1595 -0.2386
  978SOL    HW1 2933   0.541   1.635   0.025 -0.4070 -1.0475 -0.9489
  978SOL    HW2 2934   0.604   1.795   0.031 -0.2584  0.5803 -0.5012
  979SOL     OW 2935   1.231   2.038   1.086 -0.0835  0.0802  0.1735
  979SOL    HW1 2936   1.325   2.004   1.120  1.5792 -2.6587 -0.0250
  979SOL    HW2 2937   1.155   2.018   1.153  0.6300 -0.0946 -0.3326
  980SOL     OW 2938   0.456   1.200   2.153  0.2883 -0.2848 -0.3095
  980SOL    HW1 2939   0.436   1.136   2.231 -0.2388 -1.0140 -0.9050
  980SOL    HW2 2940   0.382   1.203   2.081  0.8005  1.7153 -0.5539
  981SOL     OW 2941   0.089   1.166   0.140  0.4422 -0.0827 -0.1286
  981SOL    HW1 2942   0.089   1.075   0.096  3.3216  1.8458  2.2937
  981SOL    HW2 2943   0.045   1.236   0.072 -2.6927  0.0392 -1.8035
  982SOL     OW 2944   2.230   3.005   2.847  0.1132 -0.8474 -0.4825
  982SOL    HW1 2945   2.296   2.963   2.920  1.2867 -0.6162 -0.4240
  982SOL    HW2 2946   2.135   2.968   2.862 -1.4210  2.2933 -3.3309
  983SOL     OW 2947   2.117   0.538   1.138 -0.7654 -0.1652 -0.6092
  983SOL    HW1 2948   2.163   0.558   1.228  0.5512 -1.4093  0.1601
  983SOL    HW2 2949   2.140   0.442   1.110  3.2670 -0.6294  2.6309
  984SOL     OW 2950   0.958   0.122   2.463  0.5438  0.4388 -0.0762
  984SOL    HW1 2951   0.908   0.160   2.379 -3.6395  0.7918  2.9744
  984SOL    HW2 2952   1.035   0.070   2.425 -2.2530 -0.7292  0.7826
  985SOL     OW 2953   1.623   2.247   2.101 -0.0262 -0.4654  0.2301
  985SOL    HW1 2954   1.609   2.151   2.064  2.3362 -2.9143 -2.4963
  985SOL    HW2 2955   1.722   2.260   2.126 -0.1475 -0.4055 -0.2088
  986SOL     OW 2956   1.688   0.088   2.317 -0.2697 -0.0103 -0.1594
  986SOL    HW1 2957   1.647   0.009   2.361  0.3344 -1.1866 -1.5065
  986SOL    HW2 2958   1.792   0.094   2.332  2.1926 -0.7638 -1.7690
  987SOL     OW 2959   2.167   0.415   2.107  0.2435 -0.0886  0.2319
  987SOL    HW1 2960   2.165   0.359   2.019  0.8366 -0.6734 -1.5908
  987SOL    HW2 2961   2.260   0.454   2.118  1.8164  1.1335 -3.3896
  988SOL     OW 2962   2.592   0.515   2.256 -0.2401  0.1764 -0.5544
  988SOL    HW1 2963   2.599   0.598   2.316  0.7224 -1.3661 -1.8600
  988SOL    HW2 2964   2.516   0.532   2.190  0.6728 -1.1280 -0.1283
  989SOL     OW 2965   2.467   2.507   2.635  0.3999 -0.3055 -0.1190
  989SOL    HW1 2966   2.524   2.562   2.578 -1.3667  2.8332  0.4317
  989SOL    HW2 2967   2.458   2.410   2.603 -1.0841 -1.8102 -0.6550
  990SOL     OW 2968   0.296   0.854   0.195  0.2542  0.4018 -0.4205
  990SOL    HW1 2969   0.213   0.822   0.247 -1.2484 -0.5527  0.6082
  990SOL    HW2 2970   0.257   0.907   0.115 -1.6055  3.5526 -1.0065
  991SOL     OW 2971   0.455   0.741   2.784  0.3628 -0.5057  0.0609
  991SOL    HW1 2972   0.416   0.663   2.728 -1.8650 -0.1663 -1.9718
  991SOL    HW2 2973   0.558   0.741   2.773  0.6507 -1.1293  0.2250
  992SOL     OW 2974   0.136   1.667   2.111  0.7190 -0.2428  0.1969
  992SOL    HW1 2975   0.190   1.715   2.178 -0.5092 -0.0324 -3.4922
  992SOL    HW2 2976   0.162   1.706   2.018  0.8746  0.8828 -3.0515
  993SOL     OW 2977   0.693   0.131   0.952  0.3276 -0.7448  0.0303
  993SOL    HW1 2978   0.678   0.214   0.889  1.8606  0.2736  0.3698
  993SOL    HW2 2979   0.607   0.114   1.008  1.8175  1.6515 -1.6825
  994SOL     OW 2980   0.282   2.167   1.617 -0.1579  0.1683  0.5764
  994SOL    HW1 2981   0.190   2.117   1.606  2.5830  0.1592 -0.9643
  994SOL    HW2 2982   0.357   2.117   1.568 -2.4591  0.8781 -0.9171
  995SOL     OW 2983   2.501   1.745   3.006  0.6098  0.7985  0.1135
  995SOL    HW1 2984   2.546   1.829   2.974  1.5591 -1.2527  0.9179
  995SOL    HW2 2985   2.403   1.739   2.975 -4.2635 -0.5606 -0.2030
  996SOL     OW 2986   2.085   1.485   2.671 -0.5819 -0.3000  0.7901
  996SOL    HW1 2987   2.003   1.454   2.719  2.4287 -0.9930  0.4056
  996SOL    HW2 2988   2.088   1.591   2.676  0.5686  1.6740  0.0875
  997SOL     OW 2989   1.687   1.111   1.900  0.4092 -0.2936  0.2292
  997SOL    HW1 2990   1.780   1.097   1.858  0.9065  2.8425  0.3497
  997SOL    HW2 2991   1.608   1.078   1.845  0.3039 -1.2525  0.2557
  998SOL     OW 2992   2.368   2.018   0.871  0.1162  0.0737 -0.0987
  998SOL    HW1 2993   2.392   1.986   0.961 -1.5034 -3.2964 -0.9550
  998SOL    HW2 2994   2.361   1.938   0.805  0.1288  0.1264 -1.5088
  999SOL     OW 2995   2.499   2.651   0.277 -0.1328 -0.2494  0.3761
  999SOL    HW1 2996   2.467   2.747   0.255 -2.2534 -1.3415 -1.2470
  999SOL    HW2 2997   2.516   2.596   0.193 -1.6708  0.8493 -1.2488
 1000SOL     OW 2998   0.796   3.003   2.603  0.6923 -0.1910  0.1457
 1000SOL    HW1 2999   0.737   3.043   2.677  0.5645  2.9039  2.3112
 1000SOL    HW2 3000   0.872   3.065   2.588  0.0371  0.7948  3.8570
   3.09282   3.09282   3.09282
