1000 SPC/Fw water molecules t=   4.00000 step= 4000
 3000
    1SOL     OW    1   1.359   2.750   0.253 -0.6243  0.1642  0.1227
    1SOL    HW1    2   1.349   2.849   0.227 -2.4314 -2.1472  1.5805
    1SOL    HW2    3   1.291   2.730   0.329 -1.1033 -2.2142 -0.6678
    2SOL     OW    4   1.529   0.826   1.602 -0.7013  0.8708  0.0512
    2SOL    HW1    5   1.585   0.777   1.534  1.5261  1.3996  1.3593
    2SOL    HW2    6   1.549   0.925   1.598  1.2839 -2.0333 -1.6622
    3SOL     OW    7   0.775   0.215   2.613  0.4049  0.0061 -0.0644
    3SOL    HW1    8   0.760   0.303   2.557  2.2774  0.1447 -1.9130
    3SOL    HW2    9   0.690   0.193   2.662  0.3862 -0.0940 -0.2092
    4SOL     OW   10   1.346   1.668   3.016  0.3172  0.2589  0.7117
    4SOL    HW1   11   1.382   1.765   3.013  1.1095 -0.0114  0.5541
    4SOL    HW2   12   1.333   1.640   0.013 -0.7091 -0.2579 -0.1900
    5SOL     OW   13   0.841   1.080   2.089  0.2811  0.0376 -0.2025
    5SOL    HW1   14   0.862   1.005   2.154  0.5856  0.4754 -0.2238
    5SOL    HW2   15   0.895   1.164   2.108  1.6683  3.1461  1.1087
    6SOL     OW   16   2.459   1.120   2.195 -0.5073 -0.0021 -0.1221
    6SOL    HW1   17   2.501   1.045   2.250 -1.2096 -0.1214  1.7290
    6SOL    HW2   18   2.397   1.088   2.121  1.6168  2.4476  2.3000
    7SOL     OW   19   0.100   0.887   1.250 -0.3976 -0.9138 -0.0500
    7SOL    HW1   20   0.055   0.973   1.286  1.2626  2.9625 -2.9654
    7SOL    HW2   21   0.123   0.894   1.149  0.7545 -2.1058 -1.5360
    8SOL     OW   22   2.318   2.591   2.068 -0.1186 -0.0757 -0.5285
    8SOL    HW1   23   2.324   2.621   1.971 -1.3739 -1.3192  1.0264
    8SOL    HW2   24   2.373   2.661   2.129  1.1701  1.9133  0.6713
    9SOL     OW   25   0.076   2.592   0.364 -0.0245 -0.4176  0.1731
    9SOL    HW1   26   0.005   2.531   0.404  3.8658  2.6375  0.3168
    9SOL    HW2   27   0.170   2.554   0.361 -3.2779 -3.6365 -0.8599
   10SOL     OW   28   0.021   2.463   2.531 -0.1524  0.2942 -0.1531
   10SOL    HW1   29   0.092   2.487   2.461 -0.6782 -0.3262 -0.3694
   10SOL    HW2   30   0.053   2.386   2.592 -2.0315  0.8986  2.6681
   11SOL     OW   31   0.168   1.700   0.093 -0.3420 -0.3186 -0.2243
   11SOL    HW1   32   0.202   1.633   0.023  0.0600  0.4389  1.8218
   11SOL    HW2   33   0.241   1.744   0.146  0.3242 -0.0504  1.4682
   12SOL     OW   34   2.310   3.066   0.487 -0.7595  0.1150  0.9517
   12SOL    HW1   35   2.388   0.032   0.482  2.4927 -3.7716  1.4610
   12SOL    HW2   36   2.339   2.978   0.444 -2.1373 -0.1350 -2.1566
   13SOL     OW   37   0.260   0.405   2.633 -0.4987 -0.0498  0.7338
   13SOL    HW1   38   0.216   0.312   2.614 -3.0017  0.5537  1.6585
   13SOL    HW2   39   0.191   0.478   2.642 -1.2037  2.3883  0.5451
   14SOL     OW   40   1.259   0.744   1.301  0.4042  0.0159 -0.0243
   14SOL    HW1   41   1.345   0.772   1.339 -1.6731 -0.7686 -2.4084
   14SOL    HW2   42   1.231   0.808   1.230  0.3893 -3.1212  2.0907
   15SOL     OW   43   0.732   1.435   2.234  0.1583  0.1305  0.2345
   15SOL    HW1   44   0.643   1.441   2.182  0.9298 -1.0283 -1.9665
   15SOL    HW2   45   0.804   1.401   2.170  1.0748 -0.2321 -0.2163
   16SOL     OW   46   1.757   1.235   2.714 -0.1835  0.5995 -0.2819
   16SOL    HW1   47   1.696   1.166   2.681  0.6855 -1.4085 -0.0755
   16SOL    HW2   48   1.799   1.292   2.638  3.7600  3.4962 -0.2138
   17SOL     OW   49   0.176   2.199   2.087 -0.0745 -0.4029  0.1692
   17SOL    HW1   50   0.162   2.294   2.110  2.6728 -3.5690 -1.8743
   17SOL    HW2   51   0.189   2.191   1.986 -2.2760 -0.2159 -2.1299
   18SOL     OW   52   1.490   1.292   0.692 -0.5833  0.2641  0.5488
   18SOL    HW1   53   1.528   1.199   0.693  0.0241 -1.7814 -1.6680
   18SOL    HW2   54   1.396   1.289   0.722  0.8056 -0.8754  0.2567
   19SOL     OW   55   0.093   1.155   1.985  0.0669 -0.2962 -0.0239
   19SOL    HW1   56   0.134   1.236   1.944 -0.0787 -0.9063  0.4742
   19SOL    HW2   57   0.123   1.072   1.936 -1.7719  0.1310  1.2975
   20SOL     OW   58   1.750   2.094   2.958 -0.3396 -0.0615  0.8005
   20SOL    HW1   59   1.765   2.195   2.964  0.0108 -0.3912 -2.9187
   20SOL    HW2   60   1.801   2.045   3.033  3.5646  0.9740  3.9692
   21SOL     OW   61   1.784   1.653   1.104 -0.1723  0.4820  0.0360
   21SOL    HW1   62   1.731   1.692   1.179  0.6030  0.3613 -1.7317
   21SOL    HW2   63   1.811   1.556   1.122  0.2493  0.4347 -2.2855
   22SOL     OW   64   2.061   2.195   1.476  0.2227  0.1749  1.0047
   22SOL    HW1   65   1.964   2.169   1.499 -1.7099 -0.8839  3.2385
   22SOL    HW2   66   2.073   2.275   1.410  0.1138  4.5633 -3.7121
   23SOL     OW   67   2.859   1.079   1.315 -0.4085  0.0794 -0.1293
   23SOL    HW1   68   2.820   1.000   1.376 -0.4087 -2.3732  1.1116
   23SOL    HW2   69   2.790   1.106   1.245  1.9762 -0.0809 -1.8680
   24SOL     OW   70   2.020   1.300   1.630  0.6395 -0.4627  0.5970
   24SOL    HW1   71   1.935   1.330   1.674  0.4321  0.1446 -1.5867
   24SOL    HW2   72   2.062   1.219   1.675  1.6725  1.0429  0.7520
   25SOL     OW   73   1.716   0.075   2.464  0.0901 -0.5118 -0.7322
   25SOL    HW1   74   1.725   0.168   2.421  2.2704 -1.6860  0.6262
   25SOL    HW2   75   1.617   0.049   2.450  1.3814  2.1387  0.3776
   26SOL     OW   76   0.589   2.803   0.750  0.2547 -0.0955  0.0858
   26SOL    HW1   77   0.645   2.877   0.790 -1.8443  0.4622 -1.1334
   26SOL    HW2   78   0.654   2.752   0.693 -0.3773 -0.6270 -0.5746
   27SOL     OW   79   1.220   1.298   0.810 -0.2059  0.8329 -0.0570
   27SOL    HW1   80   1.232   1.236   0.887 -0.6245  0.0423 -1.3356
   27SOL    HW2   81   1.146   1.366   0.832 -0.1083 -1.4180 -0.6158
   28SOL     OW   82   2.083   2.394   1.261  0.6410 -0.2793 -0.4387
   28SOL    HW1   83   2.112   2.467   1.202 -1.6860 -1.3241  3.6970
   28SOL    HW2   84   1.992   2.411   1.306 -0.9780  0.0809  0.2779
   29SOL     OW   85   2.148   2.802   2.385 -0.6123 -0.3227  0.1846
   29SOL    HW1   86   2.121   2.706   2.394  0.0527  1.0389  1.3650
   29SOL    HW2   87   2.147   2.840   2.479 -1.2656 -1.4620  0.7762
   30SOL     OW   88   0.049   2.703   1.843 -1.0396 -0.0149 -0.1807
   30SOL    HW1   89   0.029   2.605   1.852 -2.2295  1.2007  0.8840
   30SOL    HW2   90   0.087   2.741   1.930 -0.4068 -0.7925 -2.4580
   31SOL     OW   91   2.989   1.799   2.431  0.0899 -0.4013 -0.2371
   31SOL    HW1   92   2.970   1.898   2.451 -0.5401  0.0906 -1.1270
   31SOL    HW2   93   3.051   1.789   2.354 -0.7567  0.2279  1.4298
   32SOL     OW   94   1.008   2.358   2.290 -0.2546 -0.3081  0.2732
   32SOL    HW1   95   0.948   2.382   2.369 -1.6879 -4.3140  2.4689
   32SOL    HW2   96   1.110   2.368   2.304 -0.0881 -0.9201 -1.2116
   33SOL     OW   97   0.216   0.455   3.017  0.3692 -0.0041  0.2209
   33SOL    HW1   98   0.185   0.542   2.986  1.1089 -2.6931  0.8333
   33SOL    HW2   99   0.287   0.416   2.953 -0.2101 -1.4350  1.5561
   34SOL     OW  100   2.872   0.230   3.047 -0.0282 -0.0713  0.5132
   34SOL    HW1  101   2.910   0.147   3.100  0.4814 -0.7180  1.5242
   34SOL    HW2  102   2.796   0.205   2.991  0.8872 -0.4385  1.9343
   35SOL     OW  103   2.948   2.722   1.675 -0.3339 -0.2092  0.1906
   35SOL    HW1  104   3.014   2.710   1.752  0.1338 -2.4232 -1.3052
   35SOL    HW2  105   2.963   2.812   1.637  1.8824 -0.6670  4.1470
   36SOL     OW  106   2.340   3.079   2.640 -0.2945 -0.2982 -0.0779
   36SOL    HW1  107   2.280   0.031   2.574  0.1060 -1.0649  1.5342
   36SOL    HW2  108   2.306   2.984   2.651  1.1184  0.1446  1.1277
   37SOL     OW  109   1.738   2.800   0.091 -0.6406 -0.6273  0.4286
   37SOL    HW1  110   1.705   2.757   0.008  0.4180  1.1577  1.3100
   37SOL    HW2  111   1.705   2.754   0.173 -0.9460  3.9606 -1.3578
   38SOL     OW  112   0.441   0.076   0.652 -0.1015 -0.2981 -0.1156
   38SOL    HW1  113   0.371   0.132   0.608  2.5488 -1.0931  1.4210
   38SOL    HW2  114   0.531   0.074   0.599  1.8566  1.9243 -1.6336
   39SOL     OW  115   1.004   1.923   2.135 -0.2690  0.1690  0.4689
   39SOL    HW1  116   0.935   1.968   2.197 -1.0447  1.6007  4.3696
   39SOL    HW2  117   1.097   1.942   2.171  0.4814 -1.4386  1.2397
   40SOL     OW  118   0.005   0.835   0.031  0.4787  0.2069  0.0723
   40SOL    HW1  119   3.030   0.899   0.011  1.4393  1.3433 -1.6250
   40SOL    HW2  120   0.080   0.880   0.083 -1.1287  1.2504 -1.8559
   41SOL     OW  121   1.643   0.238   2.097  0.0292 -0.1135 -0.0808
   41SOL    HW1  122   1.569   0.289   2.054 -0.6404 -0.6940 -1.3767
   41SOL    HW2  123   1.621   0.140   2.083 -0.5041  0.4810 -0.1391
   42SOL     OW  124   2.489   0.111   1.119  0.1225  0.6548 -0.0594
   42SOL    HW1  125   2.506   0.119   1.019 -2.3790 -0.2234  1.7606
   42SOL    HW2  126   2.488   0.015   1.148 -0.0868  0.1295 -1.6880
   43SOL     OW  127   1.629   0.397   1.329  0.0654  0.2890 -0.7066
   43SOL    HW1  128   1.644   0.344   1.417 -1.8494 -2.5453  3.3025
   43SOL    HW2  129   1.540   0.382   1.291  3.5038  2.9390 -0.6513
   44SOL     OW  130   0.409   0.894   2.986  0.1666 -0.1137  0.1665
   44SOL    HW1  131   0.478   0.844   2.929 -0.3708  1.9767 -0.8985
   44SOL    HW2  132   0.444   0.924   3.080 -1.3626  2.1476  1.7508
   45SOL     OW  133   0.620   1.431   1.760  0.4527 -0.3779 -0.4673
   45SOL    HW1  134   0.673   1.427   1.675 -1.5140 -1.0152 -0.2959
   45SOL    HW2  135   0.622   1.343   1.809  0.0994 -1.4482 -1.2755
   46SOL     OW  136   2.190   2.360   1.685 -0.1092 -0.3749  0.5062
   46SOL    HW1  137   2.187   2.278   1.744  0.4272 -2.4855  2.6780
   46SOL    HW2  138   2.157   2.333   1.597 -1.3473 -1.2926  0.8722
   47SOL     OW  139   0.373   1.804   1.561 -0.3973  0.0153  0.7654
   47SOL    HW1  140   0.378   1.848   1.470  0.1827 -0.5003  2.4162
   47SOL    HW2  141   0.402   1.875   1.627 -0.6602 -2.5222 -1.9390
   48SOL     OW  142   0.949   2.588   2.876  0.2581  0.4695 -0.2968
   48SOL    HW1  143   0.978   2.577   2.779 -2.1304  2.0150  3.6496
   48SOL    HW2  144   0.869   2.650   2.879  1.4414  0.1144  0.5834
   49SOL     OW  145   2.733   1.569   1.878 -0.4694  0.1639  0.2085
   49SOL    HW1  146   2.789   1.629   1.813  1.6054  3.8952 -3.4388
   49SOL    HW2  147   2.756   1.472   1.864  0.8548  1.6143  2.3435
   50SOL     OW  148   0.922   2.993   0.510 -0.0365 -0.4479  0.2681
   50SOL    HW1  149   1.011   2.961   0.552 -3.3293  0.1293 -1.9882
   50SOL    HW2  150   0.933   2.984   0.409 -1.1799  0.6652  0.1198
   51SOL     OW  151   1.421   0.276   1.160 -0.3426 -0.3186  0.1532
   51SOL    HW1  152   1.496   0.229   1.116 -3.0466  1.2662  2.4581
   51SOL    HW2  153   1.342   0.212   1.167 -2.0140 -0.4068 -0.9583
   52SOL     OW  154   0.080   0.854   0.530 -0.4969 -0.0414 -0.2851
   52SOL    HW1  155   0.099   0.822   0.435 -1.3728  2.4095 -1.9465
   52SOL    HW2  156   0.157   0.912   0.563  0.3638  2.2676 -1.0867
   53SOL     OW  157   1.195   0.091   2.755  0.1564  0.1844 -0.2775
   53SOL    HW1  158   1.234   0.016   2.700 -1.9271  0.3939 -1.4611
   53SOL    HW2  159   1.155   0.057   2.841  0.2208  1.5169 -1.1255
   54SOL     OW  160   2.253   0.661   2.140 -0.2235  0.3265  0.7007
   54SOL    HW1  161   2.226   0.648   2.237  0.9208  2.4129 -0.9825
   54SOL    HW2  162   2.205   0.593   2.076 -1.1674 -3.1536 -2.2978
   55SOL     OW  163   2.670   2.996   0.139  0.2306 -0.4600 -0.7902
   55SOL    HW1  164   2.660   2.987   0.238  0.6723 -0.4194  0.8490
   55SOL    HW2  165   2.733   2.925   0.104  0.2498  0.7336 -1.7007
   56SOL     OW  166   0.878   0.330   2.181 -0.0378  1.2067  0.0257
   56SOL    HW1  167   0.808   0.281   2.127  0.2713  1.0866  0.9816
   56SOL    HW2  168   0.916   0.267   2.255  2.6779 -1.4948 -1.1254
   57SOL     OW  169   1.855   0.972   2.365 -0.5294  0.5081  0.6867
   57SOL    HW1  170   1.793   1.053   2.355 -1.2405 -1.0185  0.2971
   57SOL    HW2  171   1.913   0.949   2.283  1.4751 -2.8483 -2.0419
   58SOL     OW  172   0.162   0.925   1.833  0.1912 -0.2503 -0.2909
   58SOL    HW1  173   0.227   0.870   1.780 -2.9027 -2.2551 -1.3842
   58SOL    HW2  174   0.095   0.872   1.887  0.4734 -0.4854 -1.7762
   59SOL     OW  175   0.745   2.700   1.925  0.8757 -0.6366 -0.5789
   59SOL    HW1  176   0.670   2.766   1.902 -1.2935  1.7194  1.2260
   59SOL    HW2  177   0.810   2.745   1.991 -0.7585 -0.0834 -0.1077
   60SOL     OW  178   2.128   2.883   0.295 -0.6725 -0.4731  0.3934
   60SOL    HW1  179   2.073   2.846   0.374 -0.2769  2.8109 -1.0905
   60SOL    HW2  180   2.225   2.880   0.319 -0.3386 -2.0573 -0.1398
   61SOL     OW  181   1.540   2.400   0.288  0.1745 -0.3688 -0.1609
   61SOL    HW1  182   1.521   2.361   0.382  0.0310  0.5227 -1.2304
   61SOL    HW2  183   1.460   2.404   0.226  1.7710 -3.1246 -0.1243
   62SOL     OW  184   2.009   2.570   2.971 -0.2500 -0.0824  0.0138
   62SOL    HW1  185   1.933   2.502   2.966 -1.1810 -0.4279 -0.6480
   62SOL    HW2  186   2.012   2.610   3.065 -4.6364  0.0046  0.9190
   63SOL     OW  187   2.492   0.779   0.505 -0.0236 -0.0638 -0.2337
   63SOL    HW1  188   2.519   0.875   0.492  2.3619  0.3416  0.8990
   63SOL    HW2  189   2.462   0.731   0.419 -1.0411 -1.5839  1.0241
   64SOL     OW  190   1.617   0.987   0.020 -0.3087  0.1031  0.5749
   64SOL    HW1  191   1.635   1.067   0.079 -0.1185  0.3027  0.3881
   64SOL    HW2  192   1.520   0.983   0.002 -0.1433 -0.9225  2.1787
   65SOL     OW  193   0.569   2.192   1.552  0.1416 -0.2447  0.2916
   65SOL    HW1  194   0.526   2.206   1.460  0.8496 -0.6220  1.3589
   65SOL    HW2  195   0.556   2.269   1.614  0.3405 -2.8054 -2.8280
   66SOL     OW  196   1.042   1.171   1.297 -0.6961 -0.0221  0.3284
   66SOL    HW1  197   1.040   1.075   1.264  1.5168  1.7105 -0.4741
   66SOL    HW2  198   0.967   1.220   1.248 -0.0833 -2.3377 -1.5330
   67SOL     OW  199   2.336   1.894   1.959 -0.2129  0.0740 -0.9417
   67SOL    HW1  200   2.416   1.857   1.910  1.2656  2.1418  2.0434
   67SOL    HW2  201   2.329   1.856   2.050 -0.3315  0.4569  0.0432
   68SOL     OW  202   1.182   1.645   1.829 -0.1683  0.2211 -0.2111
   68SOL    HW1  203   1.181   1.585   1.748  0.6382 -0.4526 -1.3420
   68SOL    HW2  204   1.100   1.628   1.889  1.6823 -1.5115 -0.8806
   69SOL     OW  205   2.797   0.439   0.103 -0.6521  0.4918 -0.7336
   69SOL    HW1  206   2.771   0.405   0.191  1.5198  0.2765  0.5063
   69SOL    HW2  207   2.829   0.359   0.044  0.3803 -1.0229  0.0502
   70SOL     OW  208   2.209   1.219   2.277 -0.3533 -0.5817  0.1326
   70SOL    HW1  209   2.304   1.187   2.254 -1.6612  1.0022  0.3898
   70SOL    HW2  210   2.177   1.195   2.373  3.8785  1.3227  2.0562
   71SOL     OW  211   0.943   2.112   0.731  0.3055 -0.0587  0.6611
   71SOL    HW1  212   0.920   2.169   0.649  0.4104 -0.8621  3.6963
   71SOL    HW2  213   1.029   2.141   0.778  0.1796 -1.9688  2.0253
   72SOL     OW  214   2.335   1.923   0.439  0.5008  0.4776  1.3166
   72SOL    HW1  215   2.348   1.982   0.524  1.2775 -0.2987 -2.3295
   72SOL    HW2  216   2.236   1.925   0.412  0.4823 -1.7434 -2.5178
   73SOL     OW  217   1.070   0.876   0.805  0.1020 -0.4425  0.4078
   73SOL    HW1  218   1.036   0.971   0.814  0.1599  3.0193  0.3066
   73SOL    HW2  219   1.046   0.841   0.711  0.1693 -0.9632  0.8190
   74SOL     OW  220   2.676   2.029   2.229 -0.5810  0.1227  0.1402
   74SOL    HW1  221   2.702   1.932   2.254 -0.3520 -1.3350  1.8457
   74SOL    HW2  222   2.677   2.036   2.123  1.0542  1.9721 -2.5625
   75SOL     OW  223   1.639   1.712   2.039 -0.0866  0.0155  0.5987
   75SOL    HW1  224   1.559   1.657   2.004  2.0370 -1.6575  0.6108
   75SOL    HW2  225   1.696   1.650   2.101  0.6900 -0.3216 -0.0183
   76SOL     OW  226   1.134   1.527   1.078  0.6166 -0.2177  0.3185
   76SOL    HW1  227   1.052   1.560   1.028 -0.0858 -0.1439  0.1244
   76SOL    HW2  228   1.224   1.566   1.046 -0.0672  1.4956 -2.8635
   77SOL     OW  229   2.446   1.039   1.597  0.1497 -0.5270  0.3659
   77SOL    HW1  230   2.355   1.073   1.573 -2.4903  0.8762  2.4176
   77SOL    HW2  231   2.428   0.945   1.621 -1.6631  2.4434 -2.4292
   78SOL     OW  232   1.650   0.653   0.414  0.1348 -0.0688  0.1217
   78SOL    HW1  233   1.689   0.676   0.322 -3.4129  2.1098 -2.3829
   78SOL    HW2  234   1.555   0.682   0.419 -1.7867 -1.4703  1.4448
   79SOL     OW  235   0.993   1.615   2.034 -0.0169 -0.1779  0.4535
   79SOL    HW1  236   0.993   1.670   2.122 -1.7025  1.3889  2.4087
   79SOL    HW2  237   0.895   1.610   2.006 -1.6991 -4.0489  1.6188
   80SOL     OW  238   1.066   0.325   1.344 -0.4149  0.1372 -0.3496
   80SOL    HW1  239   1.054   0.424   1.330  0.7228  2.9861 -1.3991
   80SOL    HW2  240   1.123   0.305   1.427 -0.5528  0.6395 -2.4906
   81SOL     OW  241   0.331   2.498   0.359 -0.2436 -0.4341  0.7685
   81SOL    HW1  242   0.414   2.516   0.296  2.9017  0.3750 -1.1149
   81SOL    HW2  243   0.357   2.505   0.457 -0.2065  0.0807 -2.2914
   82SOL     OW  244   1.163   0.210   1.575  0.1124  0.2048 -0.2987
   82SOL    HW1  245   1.172   0.223   1.679  1.1913 -1.0605  2.4844
   82SOL    HW2  246   1.255   0.177   1.537 -1.2667  0.0011 -0.8598
   83SOL     OW  247   0.423   2.245   1.061 -0.0540 -0.1460 -0.2671
   83SOL    HW1  248   0.391   2.339   1.028 -3.2899  2.2832 -0.3546
   83SOL    HW2  249   0.371   2.171   1.012 -0.3370  0.3348 -2.3311
   84SOL     OW  250   2.576   1.307   0.936 -0.1387  0.2908 -0.0512
   84SOL    HW1  251   2.606   1.240   1.008  1.2210  0.2821 -1.1984
   84SOL    HW2  252   2.656   1.343   0.887 -1.0620  2.4310  2.4714
   85SOL     OW  253   2.229   1.980   1.233 -0.2784 -0.1583 -0.0985
   85SOL    HW1  254   2.178   1.962   1.320 -1.8589 -0.2618 -0.0747
   85SOL    HW2  255   2.283   1.899   1.205  0.0207 -1.4343  3.6783
   86SOL     OW  256   1.289   2.204   2.120  0.1745 -0.5692 -0.1963
   86SOL    HW1  257   1.214   2.172   2.054 -0.9182  1.3313 -0.6213
   86SOL    HW2  258   1.377   2.208   2.068 -2.1855 -0.8696  0.5568
   87SOL     OW  259   2.305   1.296   0.826  0.2719  0.0474  0.7389
   87SOL    HW1  260   2.304   1.331   0.731 -2.4843 -0.9437  0.4281
   87SOL    HW2  261   2.397   1.296   0.868 -2.6667 -0.3385 -0.6763
   88SOL     OW  262   0.467   2.969   1.053 -0.0415 -0.5788 -0.4717
   88SOL    HW1  263   0.391   2.995   0.994  0.2404 -1.1370  2.6792
   88SOL    HW2  264   0.536   3.041   1.060  0.2048 -4.0858 -1.2380
   89SOL     OW  265   0.611   0.993   1.587  0.0839  0.0576  0.2885
   89SOL    HW1  266   0.703   1.032   1.585  1.2154  0.4306 -1.1378
   89SOL    HW2  267   0.594   0.940   1.506  2.2143 -0.4077  1.3536
   90SOL     OW  268   2.739   1.962   0.283 -0.1368 -0.2319  0.1221
   90SOL    HW1  269   2.701   2.043   0.337 -1.7696  0.5901  1.2891
   90SOL    HW2  270   2.812   1.911   0.336  2.2600 -0.4612  0.7652
   91SOL     OW  271   0.710   1.945   1.019  0.4035 -0.5717  0.1361
   91SOL    HW1  272   0.705   2.048   1.015 -2.2761  2.5764 -1.6473
   91SOL    HW2  273   0.669   1.913   1.107 -1.5191  0.5752  2.0305
   92SOL     OW  274   2.168   2.951   1.940  0.0724  0.1378  0.3643
   92SOL    HW1  275   2.249   3.015   1.940 -2.8007 -0.9557 -2.7293
   92SOL    HW2  276   2.146   2.935   2.037  1.5858 -0.7119  2.7035
   93SOL     OW  277   0.377   1.895   2.925  0.4194 -0.1769 -0.3453
   93SOL    HW1  278   0.458   1.848   2.965 -1.2765  0.4977 -1.6633
   93SOL    HW2  279   0.323   1.832   2.863  1.1048 -0.0491 -0.1199
   94SOL     OW  280   2.406   3.062   2.117  0.6795 -0.4688 -0.2520
   94SOL    HW1  281   2.384   0.041   2.183 -2.0498  0.7718 -0.7495
   94SOL    HW2  282   2.492   3.069   2.067 -2.4889  0.7830  1.0398
   95SOL     OW  283   1.911   3.062   1.887  0.3213 -0.5008 -0.0700
   95SOL    HW1  284   2.003   3.021   1.905 -0.4184  2.0496  2.6137
   95SOL    HW2  285   1.835   3.007   1.924 -1.6528  0.8794 -0.5558
   96SOL     OW  286   0.582   0.661   2.124  0.2231 -0.9867 -0.3410
   96SOL    HW1  287   0.506   0.674   2.196 -1.0717  0.0941  0.5124
   96SOL    HW2  288   0.555   0.717   2.045  0.2816 -0.3825  0.1621
   97SOL     OW  289   2.003   2.926   1.486 -0.1479 -0.4058 -0.1377
   97SOL    HW1  290   1.994   3.022   1.510 -0.1642 -1.6077 -0.2425
   97SOL    HW2  291   1.931   2.897   1.421  1.3532  0.3412  0.5491
   98SOL     OW  292   1.835   2.165   1.632  0.6061  0.1750  0.1889
   98SOL    HW1  293   1.856   2.202   1.719 -1.2290 -2.7259 -3.1316
   98SOL    HW2  294   1.817   2.063   1.647  0.8422 -1.4010 -1.0277
   99SOL     OW  295   0.308   0.641   1.073  0.2308  0.2051 -0.0365
   99SOL    HW1  296   0.277   0.734   1.078  0.7647 -1.2765  0.6090
   99SOL    HW2  297   0.363   0.626   0.986  2.5206  1.5522 -1.3134
  100SOL     OW  298   2.938   1.902   2.012 -0.9349  0.0948  0.3999
  100SOL    HW1  299   2.917   1.806   2.040 -0.3723  1.9199 -1.2642
  100SOL    HW2  300   3.008   1.943   2.081  0.5745  0.9733 -1.9983
  101SOL     OW  301   1.470   0.241   3.061 -0.4487  0.0119 -0.3060
  101SOL    HW1  302   1.472   0.343   3.059 -0.7060  0.9971 -0.1374
  101SOL    HW2  303   1.563   0.208   3.040 -1.1185  0.5589  1.2945
  102SOL     OW  304   2.867   0.076   1.200  0.4106  0.4994  0.2463
  102SOL    HW1  305   2.885   0.166   1.164  0.7536 -0.5769  1.3854
  102SOL    HW2  306   2.819   0.083   1.290  2.0327 -0.3132  0.3030
  103SOL     OW  307   0.175   2.892   2.363 -0.5188  0.1218  0.1890
  103SOL    HW1  308   0.236   2.967   2.379  1.8586 -3.8443  3.5992
  103SOL    HW2  309   0.085   2.930   2.325 -2.2402  1.2845 -1.1847
  104SOL     OW  310   0.427   2.315   1.347  0.0740  0.1114  0.5400
  104SOL    HW1  311   0.448   2.412   1.375  0.9454  1.3810 -0.7699
  104SOL    HW2  312   0.388   2.313   1.253 -1.1244 -2.9561 -0.3425
  105SOL     OW  313   0.545   1.734   2.032  0.2979 -0.3727 -0.4112
  105SOL    HW1  314   0.448   1.733   1.993 -4.6242  1.4228 -0.5032
  105SOL    HW2  315   0.556   1.783   2.120  1.8861 -1.0061 -2.0996
  106SOL     OW  316   2.599   2.820   0.552  0.4871 -0.4685  0.3527
  106SOL    HW1  317   2.596   2.772   0.642  0.0852  1.1600 -2.6014
  106SOL    HW2  318   2.640   2.912   0.559  1.7941  1.5474 -1.2829
  107SOL     OW  319   0.615   1.199   0.949 -0.0935  0.0158 -0.1972
  107SOL    HW1  320   0.562   1.273   0.989  1.2239 -3.6590 -2.9486
  107SOL    HW2  321   0.660   1.139   1.015 -2.4265  0.9523 -5.7192
  108SOL     OW  322   2.927   1.115   2.065 -0.3493  0.0970 -0.9468
  108SOL    HW1  323   2.887   1.204   2.040 -0.3676 -0.8239 -0.8171
  108SOL    HW2  324   3.028   1.110   2.042  1.5134  0.7814  3.2880
  109SOL     OW  325   2.029   2.704   0.112  0.3240  0.7162  0.2450
  109SOL    HW1  326   2.078   2.767   0.180  1.1729  3.5168  1.1995
  109SOL    HW2  327   1.940   2.742   0.085 -0.9407  0.6489  0.1326
  110SOL     OW  328   0.179   2.058   3.030 -0.0078  0.5167  0.3047
  110SOL    HW1  329   0.261   2.011   2.997  1.2472  2.2793  0.9043
  110SOL    HW2  330   0.106   1.987   3.041 -2.4475  1.2054  0.4621
  111SOL     OW  331   2.932   0.848   2.552 -0.0514  0.1655 -0.8028
  111SOL    HW1  332   2.840   0.810   2.513 -5.9164 -0.5639  0.2775
  111SOL    HW2  333   2.986   0.867   2.472 -2.6838 -0.3564  2.9493
  112SOL     OW  334   2.304   2.590   1.774 -0.0130  0.5501 -0.2834
  112SOL    HW1  335   2.265   2.674   1.735  2.0930  1.4049 -1.0860
  112SOL    HW2  336   2.259   2.499   1.748 -0.1334 -1.4815 -1.3655
  113SOL     OW  337   2.229   1.868   2.705  0.2687  0.1516 -0.0132
  113SOL    HW1  338   2.251   1.782   2.752  0.4594 -1.7071  0.2793
  113SOL    HW2  339   2.124   1.879   2.705 -0.6251 -0.9015  1.1940
  114SOL     OW  340   0.722   0.079   0.535  0.2517 -0.3573 -0.8040
  114SOL    HW1  341   0.794   0.006   0.533 -0.4419  1.3261  0.6264
  114SOL    HW2  342   0.754   0.172   0.564 -2.1964 -3.1664 -0.6589
  115SOL     OW  343   3.048   1.705   2.843 -0.1820  0.3275 -0.6122
  115SOL    HW1  344   2.950   1.675   2.844  1.5176  3.3398 -0.1780
  115SOL    HW2  345   3.063   1.765   2.925  0.0790 -1.2142  1.3424
  116SOL     OW  346   0.019   1.379   1.735 -0.1317  0.0602  0.1226
  116SOL    HW1  347   0.106   1.377   1.790  0.9993  2.0098 -0.6249
  116SOL    HW2  348   3.098   1.472   1.708 -0.6047  0.4341 -0.7438
  117SOL     OW  349   2.018   0.124   1.516  0.3866  0.4764  0.0417
  117SOL    HW1  350   1.930   0.078   1.539 -1.3702 -1.0488  2.7540
  117SOL    HW2  351   1.996   0.206   1.463 -1.2214 -0.8329  1.2977
  118SOL     OW  352   2.900   2.275   2.083 -0.2993  0.3284 -0.4438
  118SOL    HW1  353   2.839   2.238   2.014 -0.1399  0.8179  0.0506
  118SOL    HW2  354   2.921   2.372   2.064  0.5775 -0.5131  0.2463
  119SOL     OW  355   0.390   1.593   1.787 -0.0880  0.7608 -0.5626
  119SOL    HW1  356   0.382   1.662   1.716  1.4588 -0.1413 -0.0667
  119SOL    HW2  357   0.468   1.531   1.769 -0.0456 -2.0313 -1.0496
  120SOL     OW  358   0.269   1.338   1.855  0.5507  0.1234  0.2364
  120SOL    HW1  359   0.334   1.268   1.825  0.8951 -0.3431 -1.9997
  120SOL    HW2  360   0.302   1.430   1.821 -1.2597 -1.2747 -0.1639
  121SOL     OW  361   1.551   1.029   0.713  0.1427 -0.0165  0.2372
  121SOL    HW1  362   1.478   0.963   0.735 -2.9530  0.3940  1.2827
  121SOL    HW2  363   1.609   0.991   0.641 -1.8342  1.0272  0.4575
  122SOL     OW  364   2.347   2.390   2.750  0.1136  0.2879 -0.1328
  122SOL    HW1  365   2.329   2.450   2.672  5.2738 -0.4790  2.9685
  122SOL    HW2  366   2.274   2.324   2.755  2.6211  1.7828 -0.1743
  123SOL     OW  367   0.045   0.346   0.414  0.1360  0.0967  0.3571
  123SOL    HW1  368   3.078   0.384   0.477  1.8369 -2.0465 -0.2286
  123SOL    HW2  369   0.015   0.260   0.378  0.0682 -0.0967  1.4589
  124SOL     OW  370   1.621   1.274   0.083  0.0651  0.1129 -0.0055
  124SOL    HW1  371   1.609   1.279   3.082  0.3551 -1.4513 -1.9948
  124SOL    HW2  372   1.719   1.282   0.105  0.9784  0.4435  0.8367
  125SOL     OW  373   3.009   0.715   2.236 -0.5294  0.1140  0.2701
  125SOL    HW1  374   3.013   0.619   2.267 -0.9341  0.6035 -0.6987
  125SOL    HW2  375   3.100   0.741   2.191  4.7379  0.5079 -0.7355
  126SOL     OW  376   2.902   2.845   0.054 -0.0407 -0.1506  0.2200
  126SOL    HW1  377   2.952   2.817   3.071  0.3411  1.5857 -0.7552
  126SOL    HW2  378   2.915   2.778   0.132 -1.2747  1.3137  2.2011
  127SOL     OW  379   2.601   1.807   0.123  0.0512  0.7194 -0.3674
  127SOL    HW1  380   2.657   1.856   0.192  1.9982 -0.5761  1.2600
  127SOL    HW2  381   2.603   1.869   0.043  1.2143 -0.7973 -0.4838
  128SOL     OW  382   0.917   1.128   0.861  0.1058  0.1339  0.0167
  128SOL    HW1  383   0.943   1.226   0.872 -0.2805 -1.6050  0.8901
  128SOL    HW2  384   0.877   1.091   0.949 -2.0749 -2.7876 -0.4757
  129SOL     OW  385   2.196   2.173   1.060 -0.5753 -0.0164 -0.8402
  129SOL    HW1  386   2.211   2.087   1.117  2.0340 -1.4996  2.0223
  129SOL    HW2  387   2.179   2.246   1.124  1.3703 -1.4962 -1.5962
  130SOL     OW  388   1.937   0.824   0.152 -0.0632  0.1467  0.4926
  130SOL    HW1  389   1.974   0.810   0.057 -0.4123  1.5043 -0.6969
  130SOL    HW2  390   1.843   0.783   0.160  1.1856  0.5733 -2.5796
  131SOL     OW  391   0.024   1.588   2.554 -0.2131 -0.5744  0.1282
  131SOL    HW1  392   3.067   1.657   2.507 -0.0850 -0.6128 -1.7778
  131SOL    HW2  393   0.004   1.582   2.655 -0.7200  0.1453 -0.2233
  132SOL     OW  394   1.189   1.186   1.759 -0.5685  0.0565 -0.1389
  132SOL    HW1  395   1.178   1.131   1.675  1.5234  0.9056 -0.8864
  132SOL    HW2  396   1.099   1.214   1.799 -1.1084 -0.4329 -0.2944
  133SOL     OW  397   0.372   1.080   0.880 -0.3756 -0.1373  0.3923
  133SOL    HW1  398   0.474   1.090   0.865  0.9187  2.2127 -0.6694
  133SOL    HW2  399   0.335   1.144   0.944  3.1668  0.1410 -1.1775
  134SOL     OW  400   2.924   1.528   0.068 -0.3359  0.2174  0.4625
  134SOL    HW1  401   2.995   1.580   0.118  0.9915 -0.8150 -0.0839
  134SOL    HW2  402   2.961   1.462   3.100 -0.2840 -1.7289  2.1776
  135SOL     OW  403   1.679   0.755   0.144 -0.6691  0.2464  0.5154
  135SOL    HW1  404   1.650   0.841   0.105 -4.0327 -0.0657 -0.9992
  135SOL    HW2  405   1.616   0.679   0.129 -1.4882 -0.8834  0.4358
  136SOL     OW  406   2.148   1.912   1.499  0.2022 -0.2496 -0.1071
  136SOL    HW1  407   2.180   1.859   1.582  0.5204 -0.0454 -0.5577
  136SOL    HW2  408   2.157   2.013   1.525 -0.6345  5.1666 -0.4043
  137SOL     OW  409   2.233   2.546   0.720 -0.1026  0.0510  0.0325
  137SOL    HW1  410   2.226   2.617   0.794  1.5365 -2.1154  0.3499
  137SOL    HW2  411   2.171   2.555   0.638  0.6107 -1.2193 -0.8008
  138SOL     OW  412   2.350   0.251   1.849 -0.1820  0.4604  0.1087
  138SOL    HW1  413   2.276   0.227   1.917  0.9023 -1.6254 -1.1691
  138SOL    HW2  414   2.341   0.197   1.762  0.7147  1.4533  0.6645
  139SOL     OW  415   2.824   2.430   2.830  0.2762  0.0021 -0.0542
  139SOL    HW1  416   2.743   2.380   2.788 -0.2244 -2.0806 -0.7998
  139SOL    HW2  417   2.871   2.487   2.758 -0.3539 -0.2699  1.1672
  140SOL     OW  418   1.554   1.912   2.697 -0.0652 -0.3137  0.2351
  140SOL    HW1  419   1.603   2.000   2.672  0.5980  1.7789  2.2509
  140SOL    HW2  420   1.569   1.841   2.620 -0.2457 -4.7073 -1.4454
  141SOL     OW  421   1.236   1.317   2.487 -0.2224 -0.1473  0.4898
  141SOL    HW1  422   1.185   1.268   2.560  4.2068  1.6229 -1.0931
  141SOL    HW2  423   1.332   1.343   2.521 -1.1477  1.3214  1.6732
  142SOL     OW  424   2.067   2.528   2.179  0.0945  0.2660  0.1410
  142SOL    HW1  425   2.063   2.430   2.156 -1.7872 -0.9394  0.2646
  142SOL    HW2  426   2.148   2.568   2.131  2.3779  3.4512 -1.8384
  143SOL     OW  427   0.876   2.475   0.487 -0.2176 -0.0853  0.0326
  143SOL    HW1  428   0.942   2.511   0.554  0.7223  2.5533 -2.0935
  143SOL    HW2  429   0.873   2.373   0.484  2.2848  1.5913 -2.0960
  144SOL     OW  430   0.779   2.725   0.568  0.0018 -0.0616  0.5176
  144SOL    HW1  431   0.758   2.812   0.517  1.5062  1.8509 -0.4648
  144SOL    HW2  432   0.795   2.644   0.503  2.6092 -0.2909  0.4635
  145SOL     OW  433   1.813   2.364   3.010  0.4676  0.1550  0.3625
  145SOL    HW1  434   1.738   2.398   2.946 -1.2178 -1.0766 -0.7426
  145SOL    HW2  435   1.769   2.332   3.100 -2.3604 -1.2441 -3.2038
  146SOL     OW  436   2.063   2.470   0.278  0.0441  0.1579  0.0102
  146SOL    HW1  437   2.064   2.561   0.231  0.1725 -0.1417 -0.1017
  146SOL    HW2  438   2.117   2.404   0.224 -1.7297  2.0483  0.8174
  147SOL     OW  439   0.225   1.757   1.978  0.2421 -0.1438  0.2795
  147SOL    HW1  440   0.273   1.690   1.920 -1.1862  1.9551  2.2522
  147SOL    HW2  441   0.155   1.812   1.928 -3.1648 -0.9173 -0.8723
  148SOL     OW  442   1.357   3.018   0.186  0.4501 -0.4516  0.3621
  148SOL    HW1  443   1.402   3.096   0.235 -0.8530  0.3426  1.5946
  148SOL    HW2  444   1.309   3.051   0.103  0.5709  3.2220  0.4317
  149SOL     OW  445   0.515   2.096   0.104  0.1717  0.6270  0.4781
  149SOL    HW1  446   0.582   2.109   0.027  0.5496  0.2807 -1.1426
  149SOL    HW2  447   0.462   2.180   0.120 -0.9867  2.2751  0.0581
  150SOL     OW  448   0.454   2.574   1.379 -0.0644 -0.0174 -0.2577
  150SOL    HW1  449   0.554   2.581   1.399  0.4238 -0.5569  0.6806
  150SOL    HW2  450   0.417   2.649   1.317 -0.2647  0.4706  0.1638
  151SOL     OW  451   0.241   1.501   3.020 -0.4453 -0.3221  0.4223
  151SOL    HW1  452   0.272   1.461   2.929 -1.7542 -2.0528 -0.8101
  151SOL    HW2  453   0.304   1.480   3.095 -0.3350 -2.0554  0.5878
  152SOL     OW  454   2.975   2.102   0.874 -0.0503  0.2626  0.0004
  152SOL    HW1  455   2.935   2.016   0.841  3.0425  3.0105  1.6528
  152SOL    HW2  456   2.917   2.186   0.856 -0.9937 -0.9301 -1.6855
  153SOL     OW  457   1.499   2.245   0.521  0.0709  0.0957 -0.2500
  153SOL    HW1  458   1.586   2.191   0.525  0.6999 -0.6369 -1.0979
  153SOL    HW2  459   1.422   2.192   0.562  2.9169  0.3825 -0.1101
  154SOL     OW  460   0.754   2.984   1.537  0.3975  0.1712 -0.0920
  154SOL    HW1  461   0.759   2.906   1.473 -0.1323  3.1492  0.1090
  154SOL    HW2  462   0.662   3.022   1.539  1.0756 -2.2140 -2.1632
  155SOL     OW  463   2.624   2.138   0.449 -0.1989 -0.5105 -0.6998
  155SOL    HW1  464   2.673   2.225   0.479  0.1745  2.9274 -2.0957
  155SOL    HW2  465   2.530   2.164   0.414 -0.3750  0.0058 -0.9389
  156SOL     OW  466   2.360   1.999   0.152  0.1768 -0.3121  0.7207
  156SOL    HW1  467   2.441   2.007   0.089  1.5098  1.2471 -0.6894
  156SOL    HW2  468   2.396   1.985   0.248  2.0888  0.3315 -0.3366
  157SOL     OW  469   0.667   3.059   1.973  0.3750  0.6285  0.3474
  157SOL    HW1  470   0.680   0.059   1.986 -0.6582  3.9008  0.9293
  157SOL    HW2  471   0.613   3.026   2.056 -1.0837 -1.0493  1.6335
  158SOL     OW  472   0.922   0.538   1.113 -0.1405  0.9946  0.3525
  158SOL    HW1  473   0.997   0.533   1.040 -1.1347  1.4226 -0.9330
  158SOL    HW2  474   0.970   0.563   1.203  1.4835  0.1764  0.4455
  159SOL     OW  475   1.808   0.992   2.860 -0.5575  0.0918  0.3130
  159SOL    HW1  476   1.801   1.086   2.822 -0.1432 -2.8974 -0.0129
  159SOL    HW2  477   1.739   0.983   2.933  0.8238  0.8118  2.9568
  160SOL     OW  478   1.155   1.909   0.546  0.3020  0.4639 -0.2157
  160SOL    HW1  479   1.054   1.896   0.564 -2.9615  1.5969  0.8793
  160SOL    HW2  480   1.189   1.837   0.479 -0.8247 -0.5149  0.7561
  161SOL     OW  481   2.701   2.094   2.567 -0.0272  0.2817  0.1074
  161SOL    HW1  482   2.793   2.096   2.519 -1.0458 -2.7045  1.0317
  161SOL    HW2  483   2.629   2.064   2.497  1.1272  1.0333  0.6201
  162SOL     OW  484   0.084   2.352   1.145 -0.4004  0.6410 -0.1111
  162SOL    HW1  485   0.082   2.414   1.228 -0.3877  1.6178  1.8739
  162SOL    HW2  486   0.055   2.256   1.169 -2.4700 -1.1129  2.4245
  163SOL     OW  487   0.506   0.884   2.665  0.3995  0.0935 -0.0898
  163SOL    HW1  488   0.518   0.973   2.712 -0.4666 -2.4011  1.4764
  163SOL    HW2  489   0.583   0.823   2.682 -3.2746  3.5007  0.2274
  164SOL     OW  490   0.388   2.642   2.789 -0.3241 -0.1394 -0.1810
  164SOL    HW1  491   0.337   2.670   2.872  0.1735 -0.5234  0.9312
  164SOL    HW2  492   0.345   2.689   2.706  2.3646  2.9008 -0.9629
  165SOL     OW  493   2.513   0.989   1.314  1.0828 -0.0841  0.2894
  165SOL    HW1  494   2.446   1.026   1.381  0.3724  0.4900 -3.8623
  165SOL    HW2  495   2.463   0.957   1.228  0.5454 -2.6896 -0.1732
  166SOL     OW  496   2.034   1.666   1.420  0.5794  0.3296 -0.0444
  166SOL    HW1  497   2.068   1.760   1.447  0.9521 -0.1764 -0.1839
  166SOL    HW2  498   2.096   1.593   1.453 -1.7791 -1.5563  1.5692
  167SOL     OW  499   0.169   0.713   2.951 -0.3155 -0.3302  0.4455
  167SOL    HW1  500   0.095   0.743   3.019 -2.1830  1.7953 -0.1636
  167SOL    HW2  501   0.258   0.757   2.987  2.8716 -1.6307 -1.3199
  168SOL     OW  502   1.988   0.300   2.630 -0.1341  0.2886 -0.3533
  168SOL    HW1  503   1.975   0.401   2.613 -0.9011  1.9432 -1.3272
  168SOL    HW2  504   1.971   0.287   2.732 -2.1748 -0.7967  2.4675
  169SOL     OW  505   0.444   1.216   3.024 -0.3713  0.0057  0.0382
  169SOL    HW1  506   0.452   1.292   3.091  0.8921 -1.3056 -1.4283
  169SOL    HW2  507   0.351   1.181   3.030  0.6546  0.8687 -1.2031
  170SOL     OW  508   1.184   1.004   1.562  0.3724 -0.0618 -0.2365
  170SOL    HW1  509   1.179   0.903   1.573 -2.1240 -1.9851 -1.3084
  170SOL    HW2  510   1.251   1.028   1.491 -0.4999 -1.5585 -2.1321
  171SOL     OW  511   1.600   2.623   1.030  0.0346 -0.0515  0.3164
  171SOL    HW1  512   1.655   2.551   1.079  0.5745  1.1295 -0.1444
  171SOL    HW2  513   1.504   2.619   1.060 -0.2914 -1.4266  0.7055
  172SOL     OW  514   1.103   0.011   1.872 -0.3226  0.0373  0.2922
  172SOL    HW1  515   1.009   0.017   1.842 -0.7544 -0.5212  2.1548
  172SOL    HW2  516   1.136   3.013   1.864 -1.9703 -4.0001 -0.1808
  173SOL     OW  517   0.774   2.466   0.855  0.3212  0.4297 -0.2154
  173SOL    HW1  518   0.836   2.543   0.838 -0.6149 -1.1007 -1.7140
  173SOL    HW2  519   0.688   2.499   0.887  0.9804 -0.6018 -2.0074
  174SOL     OW  520   2.274   0.109   0.249  0.0680 -0.2197 -0.5067
  174SOL    HW1  521   2.178   0.087   0.222 -0.4641 -2.4206  1.0999
  174SOL    HW2  522   2.292   0.061   0.338  0.4814 -1.7473  2.2903
  175SOL     OW  523   0.994   1.435   0.792 -0.6899 -0.2775 -0.1078
  175SOL    HW1  524   1.021   1.528   0.765 -2.8140  0.1951 -1.3279
  175SOL    HW2  525   0.898   1.425   0.767  3.0471  2.9629 -0.1487
  176SOL     OW  526   0.965   1.787   1.028  0.0137 -0.8043  0.2518
  176SOL    HW1  527   1.032   1.859   1.013  0.9994 -3.5773  2.3621
  176SOL    HW2  528   0.879   1.831   1.057 -0.9120 -0.1514 -0.3697
  177SOL     OW  529   1.448   0.905   1.094  0.9485  0.4362  0.1036
  177SOL    HW1  530   1.503   0.823   1.079 -1.8080  2.4051  0.6314
  177SOL    HW2  531   1.512   0.979   1.132  1.3248  2.2612  2.7101
  178SOL     OW  532   2.218   1.391   0.590 -0.3121  0.4713 -0.0818
  178SOL    HW1  533   2.180   1.480   0.624 -0.0587  0.5927 -2.4678
  178SOL    HW2  534   2.140   1.332   0.561 -2.0759 -0.4030 -0.1963
  179SOL     OW  535   1.141   2.825   3.096 -0.1602  0.3766 -0.5975
  179SOL    HW1  536   1.088   2.853   0.074  1.4373  2.3898  0.7259
  179SOL    HW2  537   1.136   2.726   3.075  0.1923  0.9394  3.1144
  180SOL     OW  538   1.861   1.279   1.393  0.3339 -0.2269 -0.0989
  180SOL    HW1  539   1.784   1.318   1.449  1.4639  0.6938  0.4111
  180SOL    HW2  540   1.943   1.275   1.448 -0.1549  0.4279 -2.0526
  181SOL     OW  541   0.901   1.015   1.579 -0.1066 -0.2463  0.1352
  181SOL    HW1  542   0.988   1.044   1.544 -0.8334  0.5691 -0.3201
  181SOL    HW2  543   0.904   0.999   1.678 -1.1683  0.4388 -2.3062
  182SOL     OW  544   2.924   1.037   0.034  0.5491 -0.4338 -0.4616
  182SOL    HW1  545   2.939   1.063   3.040  0.1076 -0.6744 -2.4162
  182SOL    HW2  546   2.918   1.124   0.091  0.4418  0.4121 -1.4868
  183SOL     OW  547   1.874   0.230   1.941 -0.0550  0.3474  0.4070
  183SOL    HW1  548   1.882   0.137   1.901  1.8022 -2.2298 -1.3892
  183SOL    HW2  549   1.801   0.236   2.006  1.3402 -0.3474 -1.6993
  184SOL     OW  550   0.814   0.752   1.004 -0.1292 -0.0746  0.4410
  184SOL    HW1  551   0.861   0.666   1.042 -2.2145 -1.3880 -0.5022
  184SOL    HW2  552   0.729   0.734   0.953  1.6456 -0.8145  0.6105
  185SOL     OW  553   2.184   1.030   0.464 -0.1552  0.3399  0.5694
  185SOL    HW1  554   2.180   1.054   0.562  1.0633 -0.0371  1.2299
  185SOL    HW2  555   2.248   1.085   0.409  1.8984  0.8462  2.0991
  186SOL     OW  556   0.272   2.138   0.504  0.5240  0.0534 -0.1190
  186SOL    HW1  557   0.372   2.143   0.522 -0.9884  0.9334 -0.8188
  186SOL    HW2  558   0.249   2.161   0.410  0.2617  0.2321 -0.1357
  187SOL     OW  559   1.924   1.873   2.734  0.2652  0.2919  0.3762
  187SOL    HW1  560   1.867   1.955   2.699 -0.5176 -1.0483 -1.4556
  187SOL    HW2  561   1.930   1.812   2.655  0.0218  2.2286 -1.5404
  188SOL     OW  562   1.351   2.637   1.460  0.2110  0.0854 -0.2150
  188SOL    HW1  563   1.254   2.670   1.456 -0.5628 -1.1634  1.2468
  188SOL    HW2  564   1.369   2.607   1.555 -0.3393  1.0830  0.3452
  189SOL     OW  565   2.757   1.315   2.645  0.0520 -0.7973 -0.0872
  189SOL    HW1  566   2.728   1.412   2.623 -1.4314  0.8688 -0.9213
  189SOL    HW2  567   2.856   1.319   2.672 -0.3235  1.3492  1.1072
  190SOL     OW  568   0.940   2.803   2.102  0.0466  0.0066  0.0934
  190SOL    HW1  569   0.991   2.717   2.108 -1.1338  2.4509  1.6048
  190SOL    HW2  570   0.995   2.880   2.140  0.9549  0.8182 -2.6227
  191SOL     OW  571   2.357   1.038   1.078 -0.1808 -0.0927  0.2558
  191SOL    HW1  572   2.410   1.056   0.991 -0.3821  0.3201 -0.0970
  191SOL    HW2  573   2.266   1.079   1.078 -0.1030  1.0026  1.3911
  192SOL     OW  574   2.119   0.358   1.078  0.4528  0.2367 -0.2794
  192SOL    HW1  575   2.140   0.421   1.157  1.0759  1.8746  3.0948
  192SOL    HW2  576   2.017   0.370   1.054 -1.0590 -0.4792 -0.0076
  193SOL     OW  577   1.076   0.170   0.291 -0.2988 -0.1025  0.1344
  193SOL    HW1  578   1.094   0.228   0.209 -0.0582  1.7127 -0.3469
  193SOL    HW2  579   1.077   0.230   0.373  1.5596 -1.8932 -2.0351
  194SOL     OW  580   1.616   2.281   0.972 -0.4659  0.1716  0.1553
  194SOL    HW1  581   1.584   2.337   0.890 -0.8476  1.5129 -3.3824
  194SOL    HW2  582   1.614   2.181   0.958  2.7964 -0.0644  0.7304
  195SOL     OW  583   2.464   0.966   0.745  0.5137  0.0704  0.2615
  195SOL    HW1  584   2.472   0.867   0.745  0.4675  4.5738  0.1359
  195SOL    HW2  585   2.363   0.990   0.731 -2.1091 -1.5109 -0.6822
  196SOL     OW  586   0.720   2.513   1.753  0.3042 -0.3098 -0.6753
  196SOL    HW1  587   0.724   2.592   1.816  0.6788  1.6749 -3.5933
  196SOL    HW2  588   0.627   2.471   1.758  2.4876  0.5535  0.2592
  197SOL     OW  589   2.685   0.316   2.433 -0.9041  0.3023 -0.1869
  197SOL    HW1  590   2.629   0.378   2.380  2.3493 -3.5945 -0.8507
  197SOL    HW2  591   2.639   0.224   2.453  2.8841 -2.2165 -0.3239
  198SOL     OW  592   1.949   1.582   0.269  0.3212 -0.1746 -0.2220
  198SOL    HW1  593   2.038   1.561   0.225 -2.4136 -1.5520  0.3740
  198SOL    HW2  594   1.894   1.644   0.209 -1.0462  1.5358 -3.5927
  199SOL     OW  595   2.381   0.535   1.786 -0.3841 -0.5111  0.2470
  199SOL    HW1  596   2.439   0.584   1.855  0.9613  2.3239 -1.2719
  199SOL    HW2  597   2.371   0.436   1.810 -0.8671  0.2951 -2.4124
  200SOL     OW  598   1.568   0.017   2.846 -0.0214 -0.2012 -0.0944
  200SOL    HW1  599   1.625   0.062   2.918 -2.7828 -2.0639 -3.6956
  200SOL    HW2  600   1.541   3.024   2.861 -2.0986 -0.6649 -1.5438
  201SOL     OW  601   2.704   0.133   1.427 -0.1279 -0.0732 -0.1341
  201SOL    HW1  602   2.627   0.067   1.420  0.2018 -1.2061 -0.6217
  201SOL    HW2  603   2.674   0.230   1.408  1.4661 -0.2203  0.6213
  202SOL     OW  604   2.739   3.066   0.581  0.0277  0.1448 -0.0530
  202SOL    HW1  605   2.755   0.012   0.668  1.2226  1.4124 -1.3104
  202SOL    HW2  606   2.829   3.024   0.549 -0.6527 -2.3619 -1.1201
  203SOL     OW  607   1.635   1.774   0.565 -0.6294 -0.0928 -0.2796
  203SOL    HW1  608   1.559   1.821   0.602  3.0719 -0.2735  0.6479
  203SOL    HW2  609   1.714   1.802   0.627 -2.1784  1.3795  1.2839
  204SOL     OW  610   0.111   1.828   2.218  0.1021  0.3165  0.3182
  204SOL    HW1  611   0.091   1.924   2.236 -0.3333 -3.5456 -0.7714
  204SOL    HW2  612   0.180   1.825   2.143  0.5584  2.2584  1.1590
  205SOL     OW  613   0.494   0.594   0.843 -0.0119 -0.0223  0.1560
  205SOL    HW1  614   0.564   0.524   0.849  0.2743 -0.0579 -1.1019
  205SOL    HW2  615   0.480   0.626   0.746  0.6510  0.6346  1.8714
  206SOL     OW  616   0.299   1.023   2.558 -0.3401 -0.1489 -0.0938
  206SOL    HW1  617   0.329   1.090   2.483  1.1538  2.4487 -2.5634
  206SOL    HW2  618   0.377   0.961   2.582  2.0437 -0.2443 -2.2572
  207SOL     OW  619   1.210   2.359   1.829 -0.1241  0.2509 -0.1101
  207SOL    HW1  620   1.204   2.257   1.845 -1.0441 -0.9156 -2.6819
  207SOL    HW2  621   1.122   2.388   1.784 -0.4560 -1.7037  1.2884
  208SOL     OW  622   2.234   0.139   1.204 -0.1155  0.4970 -0.4673
  208SOL    HW1  623   2.329   0.135   1.177 -0.6019  0.6368  0.7603
  208SOL    HW2  624   2.186   0.216   1.159 -1.0307  1.2224  0.0081
  209SOL     OW  625   1.951   1.004   0.770  0.5234  0.1137 -0.3070
  209SOL    HW1  626   1.892   1.003   0.858 -1.2003 -1.5368  1.7859
  209SOL    HW2  627   1.912   0.961   0.687  0.4855 -1.3152 -1.0119
  210SOL     OW  628   2.205   1.063   0.741 -0.2109  0.2370  0.0903
  210SOL    HW1  629   2.109   1.035   0.761 -0.9359  0.6186  0.6452
  210SOL    HW2  630   2.229   1.151   0.784 -3.0310 -2.1306 -1.0444
  211SOL     OW  631   1.099   3.071   2.975  0.0692 -0.1722 -0.5715
  211SOL    HW1  632   1.003   0.002   2.978  0.3689  1.8827  1.1052
  211SOL    HW2  633   1.110   2.986   3.024  0.9889  2.1352  0.6253
  212SOL     OW  634   1.851   1.906   0.673  0.3865 -0.0831 -0.4902
  212SOL    HW1  635   1.896   1.982   0.725  0.3735  0.9109 -1.6447
  212SOL    HW2  636   1.925   1.862   0.617  4.2722 -1.7532  0.1096
  213SOL     OW  637   2.414   2.871   0.108 -0.2853 -0.1717 -0.1096
  213SOL    HW1  638   2.495   2.904   0.055 -0.0117 -1.0246  0.2075
  213SOL    HW2  639   2.335   2.894   0.050 -0.9608  1.3953  2.9036
  214SOL     OW  640   1.321   2.414   2.288  0.2826 -0.1660 -0.4445
  214SOL    HW1  641   1.328   2.504   2.243 -1.1991 -1.8777  2.9175
  214SOL    HW2  642   1.315   2.332   2.226 -1.5332 -1.9021 -0.7411
  215SOL     OW  643   0.267   1.298   1.014 -0.2830  0.2137 -0.3157
  215SOL    HW1  644   0.192   1.306   1.084  0.5267 -0.5318  2.0126
  215SOL    HW2  645   0.261   1.360   0.932 -0.1012  0.6899 -0.8762
  216SOL     OW  646   0.374   0.022   2.393  0.4621 -0.0352 -0.1747
  216SOL    HW1  647   0.404   3.089   2.485 -0.4177  0.6080 -1.7276
  216SOL    HW2  648   0.303   0.096   2.408  0.5328  0.7078  1.1381
  217SOL     OW  649   2.811   1.557   1.463 -0.2157 -0.1781 -0.0183
  217SOL    HW1  650   2.893   1.586   1.412  0.7047  1.0135 -2.7441
  217SOL    HW2  651   2.811   1.458   1.479  0.9113  4.1289  0.2651
  218SOL     OW  652   0.817   2.169   1.629  0.1335 -0.1790  0.6768
  218SOL    HW1  653   0.718   2.175   1.592 -1.3237 -2.2747  0.6319
  218SOL    HW2  654   0.823   2.177   1.731  0.0193 -2.0984  0.7684
  219SOL     OW  655   2.127   1.896   0.118 -0.0235  0.4937  0.4154
  219SOL    HW1  656   2.210   1.950   0.099 -1.1102  1.6522  0.8642
  219SOL    HW2  657   2.140   1.804   0.076  1.4114 -0.1378  0.6709
  220SOL     OW  658   1.730   0.140   3.020  0.3142 -1.0632  0.3172
  220SOL    HW1  659   1.817   0.169   2.974  0.0183  1.1448  0.1895
  220SOL    HW2  660   1.743   0.065   3.090 -0.6006 -0.4098 -0.2409
  221SOL     OW  661   2.768   0.848   0.148  0.4522  0.0326  0.0007
  221SOL    HW1  662   2.831   0.770   0.171 -0.5045 -0.5327 -0.3056
  221SOL    HW2  663   2.823   0.918   0.105  0.9470  1.5562 -1.5647
  222SOL     OW  664   1.520   1.542   0.795  0.5274 -0.2277  0.1361
  222SOL    HW1  665   1.511   1.446   0.762  0.0017  2.2174 -2.0553
  222SOL    HW2  666   1.608   1.585   0.770 -1.1205  0.5378  1.4825
  223SOL     OW  667   0.943   0.278   2.936  0.7059  0.1945  0.2281
  223SOL    HW1  668   0.997   0.320   2.859 -0.4589  0.1473  0.0092
  223SOL    HW2  669   0.909   0.356   2.992 -2.1838 -1.0795  1.0380
  224SOL     OW  670   1.093   2.808   1.088 -0.3146 -0.5807 -0.5796
  224SOL    HW1  671   1.066   2.891   1.141  0.8249 -0.5004 -0.6610
  224SOL    HW2  672   1.015   2.743   1.095  0.6454  0.8267 -1.6538
  225SOL     OW  673   1.079   3.019   2.221  0.5522  0.1724  0.0221
  225SOL    HW1  674   1.161   3.049   2.176 -3.8338 -0.7686  0.6753
  225SOL    HW2  675   1.019   3.094   2.241 -0.2258 -1.5808  0.8039
  226SOL     OW  676   1.318   1.712   0.716 -0.1646  0.6992 -0.5899
  226SOL    HW1  677   1.366   1.804   0.727 -0.6425 -1.2176 -2.8120
  226SOL    HW2  678   1.369   1.634   0.759 -0.2771 -2.9045 -0.2419
  227SOL     OW  679   0.244   2.102   1.430 -0.6425  0.1715  0.1192
  227SOL    HW1  680   0.312   2.172   1.451  0.6386 -1.0919  0.6177
  227SOL    HW2  681   0.288   2.015   1.394  2.3468 -4.3319  1.9379
  228SOL     OW  682   3.099   1.896   0.488  0.0782 -0.5548  0.2443
  228SOL    HW1  683   0.048   1.906   0.401 -2.9935 -2.4550 -0.6260
  228SOL    HW2  684   0.045   1.948   0.563 -1.0621 -0.1694 -1.7984
  229SOL     OW  685   2.664   0.152   2.800 -0.1368 -0.6355  0.2471
  229SOL    HW1  686   2.608   0.217   2.741 -0.7092 -1.2429 -1.4882
  229SOL    HW2  687   2.614   0.067   2.813  1.9772  1.8793 -0.8349
  230SOL     OW  688   2.355   0.607   0.304 -0.3163  0.2867 -0.0081
  230SOL    HW1  689   2.411   0.651   0.232  0.3585 -1.3680  0.2233
  230SOL    HW2  690   2.292   0.665   0.351  2.7942 -1.3413 -0.0519
  231SOL     OW  691   1.735   1.698   0.128 -0.3645  0.1870 -0.0307
  231SOL    HW1  692   1.694   1.662   0.040 -5.1645  0.2463  0.1544
  231SOL    HW2  693   1.757   1.795   0.110 -1.0976 -0.6853  0.8908
  232SOL     OW  694   1.807   1.923   0.980 -0.3636  0.0590  0.0326
  232SOL    HW1  695   1.856   1.839   1.009  0.4812  1.0788 -2.3733
  232SOL    HW2  696   1.873   1.986   0.928  0.7283  0.3064 -1.5658
  233SOL     OW  697   0.502   2.865   1.801 -0.2809 -0.1206  0.2063
  233SOL    HW1  698   0.556   2.953   1.795  1.2865  3.4026  1.9838
  233SOL    HW2  699   0.492   2.815   1.710  1.4021 -2.8576 -2.2096
  234SOL     OW  700   0.714   0.465   2.530  0.1809 -0.3173 -0.4888
  234SOL    HW1  701   0.737   0.513   2.441  1.9886  1.1933  0.0225
  234SOL    HW2  702   0.768   0.505   2.604 -0.9028 -0.3375 -0.4714
  235SOL     OW  703   2.669   1.124   1.709  0.2282  0.3801 -0.7924
  235SOL    HW1  704   2.717   1.053   1.766 -0.5497 -1.9979  0.8797
  235SOL    HW2  705   2.595   1.084   1.655 -2.2399  0.6286 -0.3775
  236SOL     OW  706   1.557   2.791   1.302 -0.1650  0.0555 -0.3109
  236SOL    HW1  707   1.519   2.820   1.213  0.1899  1.3229 -0.1346
  236SOL    HW2  708   1.494   2.726   1.340  0.5341  2.8848 -2.4908
  237SOL     OW  709   0.499   1.590   2.676 -0.0768 -0.3386 -0.0344
  237SOL    HW1  710   0.551   1.566   2.588  2.4663 -1.4379  1.1381
  237SOL    HW2  711   0.521   1.683   2.714  0.4227  0.5266  0.0324
  238SOL     OW  712   0.919   0.857   2.213 -0.0126 -0.0260 -0.4296
  238SOL    HW1  713   0.843   0.790   2.213  1.8489  0.6150  0.2799
  238SOL    HW2  714   0.997   0.827   2.155  2.0098 -1.8178 -0.7951
  239SOL     OW  715   0.863   1.751   2.552 -0.4142  0.1550 -0.1761
  239SOL    HW1  716   0.792   1.773   2.618  1.4266 -0.2810 -3.0574
  239SOL    HW2  717   0.925   1.833   2.530 -0.9822  0.9824  0.3617
  240SOL     OW  718   2.402   2.834   0.376 -0.0099  0.1358  0.5970
  240SOL    HW1  719   2.410   2.845   0.270 -2.8246  1.9252 -4.3858
  240SOL    HW2  720   2.485   2.816   0.427 -0.2303  0.7873  0.4180
  241SOL     OW  721   0.407   1.115   0.283 -0.1805  0.0272 -0.1158
  241SOL    HW1  722   0.469   1.078   0.357  0.4354  2.0865  0.9922
  241SOL    HW2  723   0.377   1.208   0.314  0.2409 -0.2844  0.8560
  242SOL     OW  724   1.512   2.589   1.684 -0.5744  0.5124  0.0240
  242SOL    HW1  725   1.517   2.482   1.681  0.0970 -2.8565  1.0043
  242SOL    HW2  726   1.602   2.630   1.699 -1.9571  0.9493  0.6024
  243SOL     OW  727   0.986   2.475   1.729  0.1094  0.3153  0.0412
  243SOL    HW1  728   0.997   2.576   1.716 -0.9465 -0.1713 -0.1763
  243SOL    HW2  729   0.891   2.460   1.772 -0.4460 -0.5077 -0.5514
  244SOL     OW  730   2.241   0.678   2.460  0.2572 -0.3519  0.4135
  244SOL    HW1  731   2.220   0.773   2.422 -1.4792 -2.5738  0.9326
  244SOL    HW2  732   2.330   0.675   2.501 -3.3663  0.4199  0.5557
  245SOL     OW  733   1.592   2.365   1.221  0.7282  0.3699 -1.0053
  245SOL    HW1  734   1.612   2.307   1.301  0.0911 -2.7424 -0.8775
  245SOL    HW2  735   1.609   2.328   1.130 -1.4878  0.3936  3.0807
  246SOL     OW  736   1.512   0.127   0.211 -0.2398 -0.0242  0.1073
  246SOL    HW1  737   1.525   0.195   0.281  2.0917 -1.5270 -0.0939
  246SOL    HW2  738   1.464   0.168   0.132 -2.2621  0.5453 -0.5680
  247SOL     OW  739   1.833   0.459   1.817  0.1889 -0.0226 -0.7251
  247SOL    HW1  740   1.914   0.488   1.763 -0.9205 -0.5686  0.9781
  247SOL    HW2  741   1.856   0.368   1.869  0.8148 -1.7870  1.8685
  248SOL     OW  742   3.097   2.081   1.565  0.2696 -0.0947  0.5025
  248SOL    HW1  743   0.092   2.079   1.541 -0.7946  1.9151  0.6275
  248SOL    HW2  744   3.050   2.030   1.496  1.7835 -0.7957  1.1207
  249SOL     OW  745   0.401   0.319   0.340  0.0400  0.1456 -0.0622
  249SOL    HW1  746   0.344   0.294   0.420 -0.3863 -0.4462  2.7626
  249SOL    HW2  747   0.373   0.259   0.265  0.5266  0.4482 -0.6872
  250SOL     OW  748   2.376   0.239   2.244 -0.9302  0.1174  0.7043
  250SOL    HW1  749   2.323   0.316   2.283 -0.2238 -1.4613 -2.1882
  250SOL    HW2  750   2.403   0.259   2.147 -0.0435  2.5882 -1.3874
  251SOL     OW  751   1.294   0.682   3.087 -0.0127  0.2720 -0.2227
  251SOL    HW1  752   1.268   0.638   0.074 -2.2880 -0.4598 -0.3226
  251SOL    HW2  753   1.213   0.669   3.024  1.6679 -1.0884  1.5784
  252SOL     OW  754   1.353   2.639   2.158 -0.2727 -0.2855  0.0145
  252SOL    HW1  755   1.439   2.660   2.205 -1.5230 -0.7087  2.0359
  252SOL    HW2  756   1.377   2.599   2.069 -2.1034 -3.4952  1.8719
  253SOL     OW  757   2.783   2.634   0.475 -0.2390 -0.0955  0.3359
  253SOL    HW1  758   2.697   2.677   0.507  2.3566 -0.6637 -0.2421
  253SOL    HW2  759   2.843   2.620   0.557  2.4909 -1.1072  1.3138
  254SOL     OW  760   2.255   1.077   1.419  0.4037 -0.0401 -0.6069
  254SOL    HW1  761   2.230   1.163   1.369  0.8810 -0.1600  1.9158
  254SOL    HW2  762   2.189   1.005   1.389  2.6770  0.6037 -1.0566
  255SOL     OW  763   0.768   2.789   1.341  0.0091  0.0169  0.4901
  255SOL    HW1  764   0.790   2.773   1.240 -0.7268 -1.7776 -0.2281
  255SOL    HW2  765   0.720   2.707   1.379 -1.2272 -2.7198  0.5682
  256SOL     OW  766   2.199   1.755   1.744  0.2364 -0.4497  0.0794
  256SOL    HW1  767   2.270   1.697   1.707  2.5156 -0.0562 -0.4610
  256SOL    HW2  768   2.235   1.818   1.819  2.2984  0.5226  2.2848
  257SOL     OW  769   0.416   2.412   2.682  0.4979  0.4563  0.5664
  257SOL    HW1  770   0.427   2.359   2.769  2.0417 -0.2313  1.6197
  257SOL    HW2  771   0.396   2.508   2.707 -0.5776  3.5351 -2.7194
  258SOL     OW  772   0.582   2.621   0.967  0.5504  0.8287 -0.4156
  258SOL    HW1  773   0.492   2.594   1.006 -0.2686 -1.1385  2.1893
  258SOL    HW2  774   0.572   2.696   0.900  0.1243  0.8571  2.0569
  259SOL     OW  775   1.394   0.767   2.565 -0.2680 -0.4105 -0.6115
  259SOL    HW1  776   1.494   0.759   2.573 -1.7030 -1.0417 -1.3810
  259SOL    HW2  777   1.361   0.861   2.571  0.3296  3.1364 -1.0252
  260SOL     OW  778   0.386   0.363   1.407  0.1753 -0.1160 -0.3959
  260SOL    HW1  779   0.411   0.270   1.367  0.9427  0.3529 -2.8125
  260SOL    HW2  780   0.415   0.440   1.347  2.6791 -0.1112  2.5700
  261SOL     OW  781   1.031   0.203   2.373 -0.0793 -0.3733  0.9772
  261SOL    HW1  782   1.022   0.118   2.430 -1.8336 -2.4219  1.1120
  261SOL    HW2  783   1.109   0.256   2.406 -0.1097  0.1284 -2.0881
  262SOL     OW  784   1.216   2.839   1.889 -0.5919  0.2732  0.3635
  262SOL    HW1  785   1.205   2.799   1.984 -1.6110 -0.5165 -0.6793
  262SOL    HW2  786   1.165   2.789   1.818  0.2086  1.8092 -0.3239
  263SOL     OW  787   0.702   2.172   3.016 -0.1725  0.1641  0.0886
  263SOL    HW1  788   0.742   2.259   3.056 -1.1031  0.9663  1.3675
  263SOL    HW2  789   0.777   2.114   2.976  2.7409 -1.4250 -2.0896
  264SOL     OW  790   1.399   1.588   1.024 -0.2203 -0.5685  0.4849
  264SOL    HW1  791   1.381   1.686   1.048 -1.3649  1.8918 -0.5865
  264SOL    HW2  792   1.464   1.578   0.950 -2.9122  0.3660  0.3731
  265SOL     OW  793   0.855   2.191   0.469 -0.1458 -0.6940  0.1486
  265SOL    HW1  794   0.943   2.180   0.414  1.9111  0.5941 -1.9197
  265SOL    HW2  795   0.775   2.191   0.407  2.3031 -0.9327  2.7945
  266SOL     OW  796   2.782   0.875   0.999 -0.1130 -0.4878 -0.2925
  266SOL    HW1  797   2.703   0.812   0.992 -2.6269 -0.4359  2.0077
  266SOL    HW2  798   2.839   0.851   1.081 -1.4911  2.4440 -0.3407
  267SOL     OW  799   0.013   1.566   0.294  0.2587 -0.0991  0.2907
  267SOL    HW1  800   0.057   1.510   0.361 -0.4332  0.7888  2.6260
  267SOL    HW2  801   0.079   1.606   0.227 -0.1849  0.5027  0.5643
  268SOL     OW  802   1.306   0.507   0.415  0.4516 -0.1149  0.1513
  268SOL    HW1  803   1.239   0.507   0.339 -0.5303  0.3490  1.2819
  268SOL    HW2  804   1.341   0.600   0.436  3.1596  0.6550  2.4355
  269SOL     OW  805   2.659   0.744   2.185 -0.1925 -0.3998  0.0173
  269SOL    HW1  806   2.650   0.828   2.243  1.8297  3.1138 -0.0899
  269SOL    HW2  807   2.729   0.751   2.111  0.4329 -0.5936 -0.8028
  270SOL     OW  808   2.615   1.115   0.581  0.5809  0.1271  0.0486
  270SOL    HW1  809   2.547   1.068   0.637 -0.0768 -2.4224 -0.8562
  270SOL    HW2  810   2.600   1.092   0.479  0.8636 -1.8539 -0.9543
  271SOL     OW  811   0.107   1.188   2.262  0.3057 -0.2984 -0.1223
  271SOL    HW1  812   0.079   1.239   2.181 -0.5544 -1.4224 -0.1914
  271SOL    HW2  813   0.199   1.147   2.245 -2.2516  4.1510 -3.3402
  272SOL     OW  814   2.559   2.228   1.794 -0.7151 -0.0359  0.3519
  272SOL    HW1  815   2.513   2.268   1.878 -1.5164  1.5000 -1.8642
  272SOL    HW2  816   2.636   2.163   1.833  2.6494 -2.9796  1.9420
  273SOL     OW  817   0.200   2.583   3.030  0.5391 -0.2595  0.4857
  273SOL    HW1  818   0.264   2.501   3.041  1.3458  1.0705  0.4110
  273SOL    HW2  819   0.121   2.560   2.969 -1.4860 -0.7113  0.9090
  274SOL     OW  820   0.781   2.192   0.937  0.0523 -0.3054 -0.1183
  274SOL    HW1  821   0.793   2.295   0.916 -0.7674  3.1304 -2.7299
  274SOL    HW2  822   0.829   2.139   0.864 -0.6068  0.0290  3.0460
  275SOL     OW  823   1.270   1.919   2.701  0.1190 -0.6271  0.2520
  275SOL    HW1  824   1.226   1.998   2.651 -1.9645 -1.3391 -1.4745
  275SOL    HW2  825   1.366   1.933   2.713 -1.7198 -0.0326  1.7907
  276SOL     OW  826   2.875   1.652   2.095  0.1818  0.3462 -0.3163
  276SOL    HW1  827   2.848   1.636   1.999  1.0592 -1.0863  1.4619
  276SOL    HW2  828   2.794   1.683   2.148  0.3851  0.9070 -0.5543
  277SOL     OW  829   2.146   0.185   0.789 -0.1275  0.2440 -0.3191
  277SOL    HW1  830   2.204   0.244   0.725  0.3337 -0.0183  0.8306
  277SOL    HW2  831   2.056   0.221   0.815 -1.8703 -0.3576  2.0295
  278SOL     OW  832   1.302   0.255   2.429 -0.1077 -0.1455  0.1673
  278SOL    HW1  833   1.307   0.353   2.421  1.3448 -1.0946  0.7605
  278SOL    HW2  834   1.376   0.219   2.489 -1.7782  0.6435 -2.3462
  279SOL     OW  835   1.324   2.670   1.066  0.4884 -0.0076  0.3961
  279SOL    HW1  836   1.322   2.573   1.105 -0.6296 -0.7779  0.9476
  279SOL    HW2  837   1.233   2.719   1.068 -0.1181 -0.5737  2.6472
  280SOL     OW  838   1.167   1.271   0.532  0.3956 -0.1638 -0.2712
  280SOL    HW1  839   1.177   1.168   0.528  3.1467 -0.4524 -2.2456
  280SOL    HW2  840   1.172   1.292   0.635 -0.6369 -1.0723  1.7806
  281SOL     OW  841   2.000   1.761   0.486 -0.3472  0.0900 -0.2313
  281SOL    HW1  842   2.061   1.707   0.548 -0.5429  1.6700 -0.7526
  281SOL    HW2  843   1.969   1.701   0.411 -0.4451  0.0111  0.1718
  282SOL     OW  844   2.696   1.410   0.618 -0.1403  0.2736  0.2607
  282SOL    HW1  845   2.628   1.333   0.609 -0.5738 -1.6088  0.3345
  282SOL    HW2  846   2.771   1.410   0.543  0.4541  1.7907  0.4556
  283SOL     OW  847   1.636   2.715   2.959  0.0764 -0.3808 -0.0058
  283SOL    HW1  848   1.635   2.626   2.918  0.8615  1.9794 -0.3457
  283SOL    HW2  849   1.549   2.772   2.955 -2.1250  1.3488 -0.0387
  284SOL     OW  850   0.457   0.432   2.462  0.0002 -0.0633 -0.6231
  284SOL    HW1  851   0.549   0.453   2.508 -2.8250 -2.0643  0.5466
  284SOL    HW2  852   0.386   0.419   2.535  3.1049 -1.1947 -2.2009
  285SOL     OW  853   1.664   1.618   2.983 -0.0775 -0.1841 -0.3456
  285SOL    HW1  854   1.595   1.695   2.992 -1.5692  1.2062 -0.7352
  285SOL    HW2  855   1.756   1.661   2.972  0.7250  1.0710  0.6385
  286SOL     OW  856   1.189   1.898   1.735 -0.2496  0.2464 -0.3409
  286SOL    HW1  857   1.169   1.799   1.769 -0.1622 -4.6706 -0.4732
  286SOL    HW2  858   1.181   1.902   1.632  0.6517  1.9488  0.5787
  287SOL     OW  859   1.821   2.873   1.283 -0.4997  0.0530  0.1265
  287SOL    HW1  860   1.728   2.840   1.301  0.9391  0.1113  0.3247
  287SOL    HW2  861   1.813   2.967   1.246  1.1638  0.2210 -0.0587
  288SOL     OW  862   0.648   2.527   2.133 -0.5222 -0.3710  0.0565
  288SOL    HW1  863   0.561   2.575   2.155  0.2414 -1.5724 -1.0315
  288SOL    HW2  864   0.698   2.568   2.056 -0.0520  1.2372 -1.8518
  289SOL     OW  865   3.052   1.792   0.782 -0.6298 -0.7335 -0.1330
  289SOL    HW1  866   2.951   1.802   0.772  3.2470 -0.2747  0.3807
  289SOL    HW2  867   3.081   1.741   0.865  0.7949  1.3707 -0.7863
  290SOL     OW  868   0.878   2.140   1.895  0.2068 -0.4562 -0.4476
  290SOL    HW1  869   0.865   2.043   1.879  0.3831 -2.4434  1.0834
  290SOL    HW2  870   0.804   2.181   1.957 -0.0661  1.4352 -1.4182
  291SOL     OW  871   1.853   0.234   0.320 -0.8232  0.2231  0.2893
  291SOL    HW1  872   1.790   0.285   0.264  1.7525  0.1859  2.0322
  291SOL    HW2  873   1.912   0.178   0.260 -0.1972  0.8014  1.6335
  292SOL     OW  874   0.655   0.221   1.571 -0.6723  0.6503  0.2816
  292SOL    HW1  875   0.605   0.159   1.635  0.8517 -3.0976  2.6628
  292SOL    HW2  876   0.732   0.264   1.625  1.0947  0.8291 -1.5677
  293SOL     OW  877   2.250   1.452   1.060  0.0186  0.0970  0.1429
  293SOL    HW1  878   2.341   1.491   1.067 -4.9658  0.6585 -3.0348
  293SOL    HW2  879   2.248   1.409   0.966  0.2711 -0.1612 -0.9425
  294SOL     OW  880   0.520   0.234   2.283  0.3230  0.0410  0.0320
  294SOL    HW1  881   0.451   0.165   2.317 -1.2204 -0.8452 -0.4107
  294SOL    HW2  882   0.503   0.314   2.341 -1.4238 -2.1004 -0.7956
  295SOL     OW  883   1.020   1.570   0.376 -0.3898  1.1874  0.5453
  295SOL    HW1  884   1.119   1.566   0.363 -2.3054 -0.1700 -0.5749
  295SOL    HW2  885   0.972   1.547   0.290 -3.3032  0.2764  1.4363
  296SOL     OW  886   2.083   1.105   1.105  0.0444  0.2017  0.1760
  296SOL    HW1  887   2.016   1.151   1.046 -1.7132  1.7926 -0.5426
  296SOL    HW2  888   2.103   1.170   1.173 -1.9185 -2.5683 -5.0185
  297SOL     OW  889   1.918   0.831   2.585  0.5976 -0.0940 -0.2038
  297SOL    HW1  890   1.933   0.890   2.668  1.1057  0.0339 -0.2005
  297SOL    HW2  891   1.902   0.885   2.497 -1.5694  1.0599 -2.5760
  298SOL     OW  892   0.931   0.564   2.670 -0.2866  0.2519  0.1390
  298SOL    HW1  893   0.980   0.474   2.691 -1.0123  0.3773 -1.6590
  298SOL    HW2  894   0.983   0.603   2.590 -0.0215  2.9087 -2.2004
  299SOL     OW  895   1.410   0.314   1.972  0.3861 -0.2818 -0.5297
  299SOL    HW1  896   1.326   0.296   1.911  0.3969 -1.2511 -0.7632
  299SOL    HW2  897   1.412   0.411   2.015 -0.5562  3.3779 -0.5016
  300SOL     OW  898   2.517   3.089   1.864  0.0958 -0.1962 -0.0919
  300SOL    HW1  899   2.493   3.031   1.787 -1.3917 -2.4594 -0.2242
  300SOL    HW2  900   2.607   0.044   1.850  2.6987  2.1289  0.3011
  301SOL     OW  901   1.960   0.805   1.586  0.2706  0.4533  0.4293
  301SOL    HW1  902   1.871   0.774   1.537 -3.2799 -0.6113 -0.8178
  301SOL    HW2  903   1.946   0.841   1.679  0.6021 -0.5027 -1.6072
  302SOL     OW  904   0.603   2.779   2.531 -0.1721  0.1082 -0.2319
  302SOL    HW1  905   0.576   2.686   2.521  0.1457  2.1591 -0.2177
  302SOL    HW2  906   0.681   2.800   2.467 -0.0793 -0.7933 -0.2380
  303SOL     OW  907   1.750   1.905   1.708  0.0877 -0.2365  0.3757
  303SOL    HW1  908   1.793   1.828   1.658 -0.0682  0.6124 -0.7216
  303SOL    HW2  909   1.650   1.891   1.719 -0.5857 -0.0674  2.2399
  304SOL     OW  910   0.292   2.767   0.765  0.0082  0.3663 -0.0831
  304SOL    HW1  911   0.376   2.812   0.739 -1.1946 -3.1510 -0.1491
  304SOL    HW2  912   0.299   2.728   0.863 -3.3429 -2.8067  2.4322
  305SOL     OW  913   1.418   0.749   0.460 -0.3642  0.6548  0.3156
  305SOL    HW1  914   1.413   0.851   0.454  0.1937 -1.9630 -0.5203
  305SOL    HW2  915   1.403   0.711   0.553 -2.4273 -0.0203 -0.1868
  306SOL     OW  916   0.470   1.445   0.092  0.2950 -0.1290 -0.4239
  306SOL    HW1  917   0.526   1.536   0.096  1.7044 -0.7315  0.0126
  306SOL    HW2  918   0.450   1.410   0.186 -0.3871  3.0484 -0.1334
  307SOL     OW  919   0.684   0.787   1.778 -0.5059  0.8337 -0.0096
  307SOL    HW1  920   0.774   0.795   1.824 -1.3357 -0.2760  0.1544
  307SOL    HW2  921   0.677   0.846   1.698  1.2553 -3.0490 -0.3688
  308SOL     OW  922   0.668   0.073   1.122 -0.1383 -0.2217  0.3451
  308SOL    HW1  923   0.644   0.130   1.036 -0.0501  0.1374 -1.2228
  308SOL    HW2  924   0.747   0.108   1.179  1.9784 -0.8521 -0.0541
  309SOL     OW  925   1.992   0.806   2.993 -0.7117  0.1225  0.3371
  309SOL    HW1  926   2.090   0.827   2.967 -0.0870 -2.1859  0.6102
  309SOL    HW2  927   1.930   0.870   2.947 -0.3165  1.6367  1.0632
  310SOL     OW  928   1.158   1.149   0.057 -0.0270  0.3640 -0.1034
  310SOL    HW1  929   1.116   1.194   3.085  1.2572 -1.4432  0.7683
  310SOL    HW2  930   1.169   1.218   0.128 -0.6858 -0.5141 -2.1726
  311SOL     OW  931   1.651   2.487   2.559  0.0905 -0.4412 -0.1852
  311SOL    HW1  932   1.666   2.439   2.467 -0.8531 -1.0272  0.0806
  311SOL    HW2  933   1.685   2.586   2.548  0.2031  0.4595 -0.8929
  312SOL     OW  934   1.968   3.021   2.839 -0.0492  0.5620  0.1159
  312SOL    HW1  935   1.993   0.007   2.888  0.7562 -0.1272  3.5016
  312SOL    HW2  936   1.888   3.024   2.776 -2.8177 -1.6088  1.1487
  313SOL     OW  937   0.449   0.641   0.570  0.1849 -0.1666 -0.1594
  313SOL    HW1  938   0.354   0.614   0.543  4.1991 -0.6838 -0.1783
  313SOL    HW2  939   0.512   0.566   0.542  1.6481  1.1016  0.7228
  314SOL     OW  940   2.433   1.424   3.031  0.6399  0.2113 -0.1937
  314SOL    HW1  941   2.425   1.413   2.930 -1.2983  1.7685  0.1622
  314SOL    HW2  942   2.509   1.486   3.057  0.6772  2.2749  1.5924
  315SOL     OW  943   1.950   0.939   1.832 -0.4433 -0.2715  0.2663
  315SOL    HW1  944   1.960   0.866   1.904 -0.6006 -1.1443  0.1036
  315SOL    HW2  945   1.885   1.005   1.878  1.2420 -1.8210  0.1262
  316SOL     OW  946   0.006   0.790   0.803 -0.0387  0.0575  0.0570
  316SOL    HW1  947   3.069   0.883   0.823 -0.8036 -0.1850  0.8383
  316SOL    HW2  948   0.040   0.795   0.709  2.8247  2.3951 -0.0058
  317SOL     OW  949   0.705   0.365   0.184  0.8817  0.0365 -0.5712
  317SOL    HW1  950   0.627   0.397   0.123  1.1231 -0.2720 -4.3056
  317SOL    HW2  951   0.692   0.264   0.201 -0.7205 -1.1858  0.3134
  318SOL     OW  952   2.672   2.891   1.351  0.1934 -0.6758 -0.2589
  318SOL    HW1  953   2.771   2.886   1.327  0.0774  3.9197 -1.3122
  318SOL    HW2  954   2.644   2.829   1.425  0.7171 -0.1003 -1.0471
  319SOL     OW  955   1.261   1.559   0.485 -0.0062 -0.7529  0.4085
  319SOL    HW1  956   1.246   1.459   0.502  0.4074 -0.1488  1.0263
  319SOL    HW2  957   1.282   1.604   0.573 -1.2262 -1.4912  0.2969
  320SOL     OW  958   0.656   2.272   1.144  0.1021  0.2763 -0.5043
  320SOL    HW1  959   0.555   2.260   1.127  1.6264  0.3481 -0.8839
  320SOL    HW2  960   0.701   2.248   1.059 -1.2319 -0.7627  0.7991
  321SOL     OW  961   2.048   2.471   2.502 -0.0983 -0.0929 -0.0429
  321SOL    HW1  962   2.063   2.514   2.593 -1.4883 -0.0462 -2.2878
  321SOL    HW2  963   1.978   2.517   2.443  0.9960 -0.4566 -0.1965
  322SOL     OW  964   2.887   2.557   2.425 -0.8080  0.3691 -0.0150
  322SOL    HW1  965   2.965   2.493   2.452  0.6916  0.0756 -3.8768
  322SOL    HW2  966   2.854   2.604   2.511  0.5657  1.1098  0.0693
  323SOL     OW  967   2.744   0.499   0.855 -0.1032 -0.3128  0.2047
  323SOL    HW1  968   2.834   0.521   0.891  1.6409  1.5173 -1.4418
  323SOL    HW2  969   2.719   0.559   0.775  0.3124  1.7695 -1.5999
  324SOL     OW  970   2.448   1.928   2.532  0.3707  0.5419  0.3282
  324SOL    HW1  971   2.424   1.870   2.449 -0.2177  1.3954  0.3847
  324SOL    HW2  972   2.382   1.905   2.603 -1.8828 -0.2520 -0.2848
  325SOL     OW  973   1.713   0.588   2.335 -0.4535 -0.4150  0.3756
  325SOL    HW1  974   1.655   0.669   2.366  1.0057 -2.1866 -0.8912
  325SOL    HW2  975   1.737   0.595   2.234  0.8359  1.0987  0.4552
  326SOL     OW  976   2.792   2.351   0.506  0.7472 -0.0051  0.0357
  326SOL    HW1  977   2.760   2.450   0.505 -0.2424  2.3516  0.9947
  326SOL    HW2  978   2.895   2.346   0.496 -1.3354 -0.6021 -1.3844
  327SOL     OW  979   2.467   3.044   2.908 -0.4922 -0.2414  0.2457
  327SOL    HW1  980   2.383   3.021   2.955 -1.7591  0.0438 -1.1082
  327SOL    HW2  981   2.534   2.962   2.906  1.6447 -2.0411  0.3306
  328SOL     OW  982   0.921   0.471   0.788 -0.4708  0.1404 -0.0228
  328SOL    HW1  983   0.872   0.544   0.740  2.5699 -4.2785  2.8491
  328SOL    HW2  984   0.997   0.517   0.841  0.8523  2.3722 -0.2469
  329SOL     OW  985   2.134   0.840   1.376 -0.3182 -0.2330 -0.3118
  329SOL    HW1  986   2.066   0.829   1.452  0.1249  1.0993  0.9195
  329SOL    HW2  987   2.218   0.782   1.382 -1.5826  0.6734  0.5498
  330SOL     OW  988   1.154   0.306   0.687 -0.4163  0.1313  0.5385
  330SOL    HW1  989   1.075   0.365   0.709  1.4615  0.7461 -0.6370
  330SOL    HW2  990   1.233   0.368   0.679  0.9144  1.0268 -2.7531
  331SOL     OW  991   0.566   2.128   1.949  0.4627  0.1184 -0.0853
  331SOL    HW1  992   0.574   2.054   2.023  0.1890  0.0487  1.1523
  331SOL    HW2  993   0.525   2.213   1.988 -0.1775 -4.6209  1.5538
  332SOL     OW  994   2.383   2.134   1.561 -0.0799  0.2622 -0.2212
  332SOL    HW1  995   2.386   2.188   1.642 -1.5416 -0.6107 -0.9380
  332SOL    HW2  996   2.443   2.053   1.579 -1.0603 -0.8319 -0.9362
  333SOL     OW  997   2.817   3.050   0.984 -0.4629  0.6963 -0.2167
  333SOL    HW1  998   2.827   0.004   1.071  2.1930  0.3220  0.4526
  333SOL    HW2  999   2.741   3.083   0.921 -1.5440 -1.4787 -2.5505
  334SOL     OW 1000   2.885   1.488   1.118  0.4728  0.2089 -0.0205
  334SOL    HW1 1001   2.948   1.565   1.128 -1.5318 -1.6618  1.2407
  334SOL    HW2 1002   2.859   1.468   1.023  1.5228 -0.3075 -2.3104
  335SOL     OW 1003   0.436   2.978   2.625  0.0128  0.4497 -0.0451
  335SOL    HW1 1004   0.351   2.929   2.656  0.3823  0.0250 -2.0123
  335SOL    HW2 1005   0.492   2.902   2.580 -0.8485 -3.6328  0.2605
  336SOL     OW 1006   0.195   2.831   1.654  0.1611  0.6745  0.0467
  336SOL    HW1 1007   0.183   2.930   1.638  2.9424  0.6542  1.3116
  336SOL    HW2 1008   0.114   2.799   1.711  0.1837 -0.2236  0.5449
  337SOL     OW 1009   1.023   1.969   2.484 -0.0769  0.2999  0.3244
  337SOL    HW1 1010   1.117   1.971   2.441  0.3761 -0.7064 -0.5405
  337SOL    HW2 1011   0.989   2.051   2.527 -1.0398 -4.9833  0.6527
  338SOL     OW 1012   0.993   2.863   2.477  0.5152  0.2930 -0.3779
  338SOL    HW1 1013   1.060   2.860   2.403  0.6318  0.6248 -1.0187
  338SOL    HW2 1014   0.995   2.958   2.519  0.5144  1.1655 -0.7272
  339SOL     OW 1015   3.065   1.398   2.989  0.2608  0.2764 -0.0642
  339SOL    HW1 1016   3.051   1.364   2.893  1.9752  1.6264 -2.1609
  339SOL    HW2 1017   0.044   1.458   2.993 -3.1018 -1.7204 -1.3590
  340SOL     OW 1018   2.081   0.506   1.331  0.1514 -0.2953 -0.0443
  340SOL    HW1 1019   2.053   0.605   1.323 -2.0023  0.8920 -3.1848
  340SOL    HW2 1020   2.151   0.488   1.399 -3.5010  2.0563 -2.7334
  341SOL     OW 1021   1.951   1.245   0.918  0.4682 -0.5122  0.0549
  341SOL    HW1 1022   1.972   1.340   0.881  0.9293 -1.2854  1.1805
  341SOL    HW2 1023   1.986   1.180   0.850 -0.0072  1.2554  1.2008
  342SOL     OW 1024   2.027   2.221   2.582 -0.4052  0.1602 -0.0293
  342SOL    HW1 1025   2.070   2.157   2.515 -0.0125  2.1997 -1.0987
  342SOL    HW2 1026   2.034   2.319   2.549  2.5505  1.8970 -0.8842
  343SOL     OW 1027   3.000   2.649   1.079  0.0533 -0.3321 -0.3267
  343SOL    HW1 1028   3.062   2.606   1.007 -0.8626 -1.9332 -1.1086
  343SOL    HW2 1029   2.956   2.575   1.138  0.2307 -3.2764  1.9074
  344SOL     OW 1030   2.605   2.683   0.807 -0.4003 -0.0673  0.2492
  344SOL    HW1 1031   2.538   2.732   0.874 -0.1535  2.9964  0.6228
  344SOL    HW2 1032   2.700   2.716   0.826 -1.0036  2.3971  2.2847
  345SOL     OW 1033   2.397   2.240   0.356 -0.1107  0.2205 -0.1927
  345SOL    HW1 1034   2.321   2.225   0.422  1.2267  2.5369 -0.0155
  345SOL    HW2 1035   2.394   2.345   0.340  0.6350  0.5065  0.4768
  346SOL     OW 1036   1.156   2.117   1.896  0.7975  0.5619 -0.9612
  346SOL    HW1 1037   1.051   2.116   1.903 -1.5430  0.9406  0.2286
  346SOL    HW2 1038   1.183   2.040   1.837 -0.7823  1.3902 -0.2321
  347SOL     OW 1039   1.505   1.899   2.213  0.0857 -0.2903  0.4212
  347SOL    HW1 1040   1.542   1.834   2.139  0.1062 -0.4087 -1.0948
  347SOL    HW2 1041   1.559   1.989   2.214  1.1445  1.2286  1.6457
  348SOL     OW 1042   0.394   1.926   1.314  0.2510  0.0882 -0.2080
  348SOL    HW1 1043   0.350   1.895   1.230  1.0248 -3.1511  2.0187
  348SOL    HW2 1044   0.492   1.960   1.298  0.4349  1.7285  1.4135
  349SOL     OW 1045   1.642   1.373   1.538 -0.1752  0.2526 -0.3624
  349SOL    HW1 1046   1.663   1.464   1.575 -0.8416 -1.2299 -1.2421
  349SOL    HW2 1047   1.555   1.374   1.480  0.7707 -0.6203  0.3994
  350SOL     OW 1048   2.298   2.276   0.821  0.3812 -0.1004 -0.7530
  350SOL    HW1 1049   2.238   2.252   0.899 -0.7629  0.3434 -0.6257
  350SOL    HW2 1050   2.276   2.369   0.785 -1.6479  1.2244  1.3135
  351SOL     OW 1051   0.492   0.089   1.766 -0.0228  0.0022  0.7989
  351SOL    HW1 1052   0.516   0.051   1.857 -1.2490 -0.1383  0.2027
  351SOL    HW2 1053   0.399   0.131   1.765  1.4024 -2.9257 -1.3511
  352SOL     OW 1054   0.743   1.148   0.303 -0.3525 -0.5236 -0.1951
  352SOL    HW1 1055   0.670   1.134   0.366  0.8339 -3.9402 -3.2067
  352SOL    HW2 1056   0.712   1.150   0.210  2.1481  0.2701  0.8430
  353SOL     OW 1057   0.673   1.551   2.897 -0.6722  0.4628  0.0319
  353SOL    HW1 1058   0.770   1.548   2.864 -0.9378 -3.0199 -1.7744
  353SOL    HW2 1059   0.611   1.535   2.820  1.4066  1.7912  1.4841
  354SOL     OW 1060   1.845   2.337   1.882  0.0667  0.2069  0.1847
  354SOL    HW1 1061   1.895   2.407   1.822  0.5583  0.7678  0.7718
  354SOL    HW2 1062   1.903   2.303   1.954 -0.5064  2.5820 -0.2862
  355SOL     OW 1063   1.932   0.566   2.913  0.9556 -0.0505 -0.0139
  355SOL    HW1 1064   1.961   0.567   2.816 -2.2088 -0.5774  0.0853
  355SOL    HW2 1065   1.938   0.659   2.958 -2.0808  2.3666  0.2336
  356SOL     OW 1066   0.652   2.039   1.276 -0.1313  0.1178 -0.0724
  356SOL    HW1 1067   0.654   2.124   1.220 -0.0338 -1.5115 -0.5023
  356SOL    HW2 1068   0.749   2.010   1.289 -0.7753 -0.5142 -1.1524
  357SOL     OW 1069   0.205   0.123   1.808  0.1745 -0.2476  0.4247
  357SOL    HW1 1070   0.153   0.086   1.886 -0.8097 -2.7558  0.4786
  357SOL    HW2 1071   0.206   0.225   1.825  1.6144  1.4657  2.6925
  358SOL     OW 1072   2.562   1.848   1.564 -0.4998 -0.7115  0.1858
  358SOL    HW1 1073   2.524   1.787   1.489 -2.1368  1.1653  0.8926
  358SOL    HW2 1074   2.619   1.926   1.530 -1.0338  2.0491  1.4553
  359SOL     OW 1075   2.078   1.958   2.323  0.0668  0.4470  0.6033
  359SOL    HW1 1076   2.007   1.985   2.250 -0.8687  1.9528 -0.1700
  359SOL    HW2 1077   2.153   2.022   2.344 -3.3489 -0.7600  0.9093
  360SOL     OW 1078   1.355   2.623   0.798 -0.3249  0.2624 -0.3451
  360SOL    HW1 1079   1.334   2.655   0.891 -0.0852 -2.0237 -0.4727
  360SOL    HW2 1080   1.413   2.692   0.743  0.7848  0.4870 -0.2835
  361SOL     OW 1081   2.017   0.018   0.213  0.3232 -0.8449 -0.5668
  361SOL    HW1 1082   1.920   0.003   0.186 -0.3984  0.5999 -1.4744
  361SOL    HW2 1083   2.060   3.035   0.240  0.0789  0.1691 -1.4949
  362SOL     OW 1084   1.758   0.760   1.400 -0.3409 -0.2917  0.2752
  362SOL    HW1 1085   1.783   0.849   1.361  0.5911 -5.0507  2.4474
  362SOL    HW2 1086   1.749   0.691   1.321 -1.1081 -1.0927 -1.5872
  363SOL     OW 1087   1.816   1.503   2.223  0.2881  0.7811 -0.0354
  363SOL    HW1 1088   1.735   1.505   2.279  0.4465 -0.4704 -1.9623
  363SOL    HW2 1089   1.903   1.534   2.272 -1.0081  1.2589  2.2958
  364SOL     OW 1090   0.663   0.497   1.479  0.0277  0.1863 -0.1562
  364SOL    HW1 1091   0.649   0.395   1.492 -0.4628 -1.4643 -0.9189
  364SOL    HW2 1092   0.619   0.527   1.389  0.2961  1.0973 -0.2308
  365SOL     OW 1093   0.758   0.773   2.712 -0.3575  0.3991  0.0076
  365SOL    HW1 1094   0.835   0.708   2.704 -0.4466  1.8237 -1.4484
  365SOL    HW2 1095   0.783   0.870   2.683 -0.5109 -0.7989  1.4093
  366SOL     OW 1096   2.129   1.276   2.778  0.0809 -0.2589  0.2798
  366SOL    HW1 1097   2.111   1.228   2.864  2.0814 -1.3154  0.6885
  366SOL    HW2 1098   2.071   1.359   2.770  1.0733 -0.9131 -0.8591
  367SOL     OW 1099   3.025   2.638   2.191  0.1455  0.2348 -0.1816
  367SOL    HW1 1100   2.961   2.620   2.269  1.9163  1.2333 -1.3360
  367SOL    HW2 1101   2.976   2.680   2.118 -0.5820 -1.0347  4.1263
  368SOL     OW 1102   0.017   1.116   1.384 -0.1949  0.3615 -0.1775
  368SOL    HW1 1103   0.038   1.128   1.483  0.4394 -0.6285  1.8908
  368SOL    HW2 1104   3.021   1.094   1.369 -0.9611 -1.8938 -0.4315
  369SOL     OW 1105   0.414   2.817   2.062 -0.2513  0.1212  0.2110
  369SOL    HW1 1106   0.435   2.847   1.967 -0.4264 -1.6620  0.8914
  369SOL    HW2 1107   0.451   2.886   2.133 -0.6252  4.2531  2.3747
  370SOL     OW 1108   2.846   0.279   0.529 -0.3112 -0.2463 -0.1283
  370SOL    HW1 1109   2.763   0.275   0.468  0.7905 -1.2247 -0.0015
  370SOL    HW2 1110   2.872   0.374   0.561  5.1867  2.9140  1.2509
  371SOL     OW 1111   0.969   2.337   1.478  0.2817  0.9759  0.6720
  371SOL    HW1 1112   0.961   2.383   1.572  2.2831  2.0824  3.2572
  371SOL    HW2 1113   0.943   2.242   1.498 -2.0534  1.0685 -0.7940
  372SOL     OW 1114   2.155   0.386   2.409  0.4071  0.1503  0.0838
  372SOL    HW1 1115   2.169   0.487   2.413 -0.5594 -1.1385 -0.1295
  372SOL    HW2 1116   2.140   0.340   2.501 -1.1287 -1.7009 -0.2030
  373SOL     OW 1117   0.113   2.009   0.740 -0.0608  0.3072 -0.3430
  373SOL    HW1 1118   0.056   2.090   0.754  1.2884 -0.5475  1.4045
  373SOL    HW2 1119   0.059   1.925   0.761 -2.0319 -1.4081 -0.4028
  374SOL     OW 1120   2.903   0.316   2.234 -0.1165  0.3804 -0.1145
  374SOL    HW1 1121   2.817   0.299   2.292 -0.9578 -0.1163  3.7846
  374SOL    HW2 1122   2.974   0.363   2.287  0.1977  0.6970  0.0288
  375SOL     OW 1123   0.646   0.531   2.857  0.2216 -0.0030 -0.2899
  375SOL    HW1 1124   0.659   0.592   2.775 -0.2082  1.8607  2.1155
  375SOL    HW2 1125   0.735   0.494   2.893  0.0356  1.3216 -0.4398
  376SOL     OW 1126   3.067   2.336   1.630  0.2420 -0.0857 -0.1538
  376SOL    HW1 1127   2.995   2.393   1.586 -4.1900  2.5407 -0.2243
  376SOL    HW2 1128   3.066   2.234   1.603 -0.4879 -3.3030  0.2067
  377SOL     OW 1129   1.117   0.346   2.736  0.2109 -0.5668  0.0352
  377SOL    HW1 1130   1.151   0.252   2.738 -0.8861  0.8383  0.8287
  377SOL    HW2 1131   1.184   0.412   2.699 -3.3607  0.8110 -0.6995
  378SOL     OW 1132   3.019   0.973   2.797  0.4778 -0.3666 -0.1825
  378SOL    HW1 1133   0.012   0.944   2.815  0.1457  1.5266  0.7104
  378SOL    HW2 1134   2.979   0.937   2.708  0.4317 -1.3451  0.6454
  379SOL     OW 1135   1.068   0.858   2.826 -0.0810 -0.6724  0.3529
  379SOL    HW1 1136   0.996   0.926   2.796 -0.0716  2.5133 -1.6844
  379SOL    HW2 1137   1.158   0.869   2.786 -4.3154 -0.0984  0.1928
  380SOL     OW 1138   0.030   1.911   1.827 -0.0751 -0.1852  0.4621
  380SOL    HW1 1139   0.073   2.002   1.840 -2.0156 -1.2580  1.0813
  380SOL    HW2 1140   3.050   1.903   1.890  0.3511 -3.6010  1.9975
  381SOL     OW 1141   3.035   1.280   2.744 -0.5127  0.3009  0.4424
  381SOL    HW1 1142   3.096   1.290   2.658  1.5042  0.1219  0.9066
  381SOL    HW2 1143   3.033   1.182   2.755  0.1315  1.4388 -1.3938
  382SOL     OW 1144   1.904   2.290   0.645 -0.1122 -0.3333  0.1138
  382SOL    HW1 1145   1.818   2.270   0.600 -1.5841 -0.1960  0.4398
  382SOL    HW2 1146   1.891   2.301   0.745  1.2097  1.3940  0.5525
  383SOL     OW 1147   0.594   1.658   0.210 -0.1158 -0.2300 -0.3621
  383SOL    HW1 1148   0.666   1.728   0.227  0.0152 -0.5166 -1.2194
  383SOL    HW2 1149   0.595   1.589   0.284 -0.0922  1.5477 -1.4934
  384SOL     OW 1150   0.848   2.425   2.511 -0.0043 -0.9466  0.1528
  384SOL    HW1 1151   0.750   2.453   2.507 -0.4303  0.0236 -0.0978
  384SOL    HW2 1152   0.851   2.322   2.537  0.7003 -1.0155  0.9966
  385SOL     OW 1153   2.404   2.053   0.672  0.2530 -0.1598  0.1600
  385SOL    HW1 1154   2.366   2.140   0.697  0.6758 -1.5368 -0.4988
  385SOL    HW2 1155   2.494   2.061   0.623  0.3784 -0.4130 -0.8759
  386SOL     OW 1156   2.294   0.623   1.154  0.2841  0.1308 -0.2158
  386SOL    HW1 1157   2.315   0.552   1.083 -0.3151 -1.2018 -0.7191
  386SOL    HW2 1158   2.228   0.687   1.114  1.2991 -0.6261  0.0508
  387SOL     OW 1159   0.479   0.843   1.959 -0.1371 -0.2830 -0.2736
  387SOL    HW1 1160   0.486   0.924   2.021  0.1447 -1.9164  1.0981
  387SOL    HW2 1161   0.545   0.839   1.879  0.2437  0.3051 -2.3264
  388SOL     OW 1162   0.893   1.630   2.324  0.7602  0.0067 -0.7522
  388SOL    HW1 1163   0.869   1.677   2.411 -3.1442 -1.0696  1.2172
  388SOL    HW2 1164   0.820   1.566   2.296  0.9855 -0.9916 -1.7797
  389SOL     OW 1165   0.946   1.293   1.806 -0.5523  0.3424 -0.3625
  389SOL    HW1 1166   0.854   1.291   1.847 -1.6073  0.0899 -0.7415
  389SOL    HW2 1167   0.935   1.290   1.708 -2.2404 -0.7832  0.0561
  390SOL     OW 1168   3.097   3.046   1.025 -0.4446  0.3624 -0.7458
  390SOL    HW1 1169   3.000   3.043   0.999  1.4792 -0.3769  0.5256
  390SOL    HW2 1170   0.033   0.018   0.966  0.8078 -0.0548 -0.2016
  391SOL     OW 1171   1.563   1.339   1.068 -0.2805 -0.0132 -0.3163
  391SOL    HW1 1172   1.544   1.388   0.984  2.3302  3.5323  1.8938
  391SOL    HW2 1173   1.658   1.366   1.099  1.5304 -2.4509  0.2591
  392SOL     OW 1174   2.981   0.030   0.087  0.2685  0.0179 -0.3040
  392SOL    HW1 1175   3.067   0.021   0.032 -1.6904 -0.7677  2.7855
  392SOL    HW2 1176   2.932   3.043   0.103  0.5831 -0.4474  3.4165
  393SOL     OW 1177   1.507   2.183   2.871 -0.1310  0.3072 -0.5540
  393SOL    HW1 1178   1.589   2.126   2.875 -0.8202  1.4805 -0.3234
  393SOL    HW2 1179   1.446   2.151   2.947  0.1676 -0.7098 -1.5280
  394SOL     OW 1180   0.010   2.487   2.813  0.6458  0.8481 -0.8598
  394SOL    HW1 1181   0.012   2.483   2.709 -2.2218 -0.6693  0.2770
  394SOL    HW2 1182   3.087   2.392   2.854  1.0817 -3.5362 -0.8157
  395SOL     OW 1183   0.107   0.175   0.866  0.0541  0.0881 -0.4149
  395SOL    HW1 1184   0.126   0.277   0.863  0.7149 -1.1238  0.6991
  395SOL    HW2 1185   0.189   0.114   0.843  3.1145  0.3200 -0.2430
  396SOL     OW 1186   2.266   0.371   0.637  0.2905  0.2231  0.0455
  396SOL    HW1 1187   2.192   0.406   0.577 -0.2199 -0.9066  0.6447
  396SOL    HW2 1188   2.354   0.373   0.591 -0.6577  0.1396  0.2103
  397SOL     OW 1189   0.138   0.672   2.449  0.1249  0.1009  0.3650
  397SOL    HW1 1190   0.102   0.644   2.538 -0.3093  0.7738 -3.3617
  397SOL    HW2 1191   0.093   0.759   2.414 -1.5069 -0.0675 -1.4470
  398SOL     OW 1192   0.825   0.042   2.919  0.2874 -0.6150 -0.3867
  398SOL    HW1 1193   0.752   0.059   2.851 -1.0811  1.7000 -0.1221
  398SOL    HW2 1194   0.871   0.133   2.934  1.4211  1.3588 -1.3369
  399SOL     OW 1195   2.147   0.231   2.021  0.2397  0.2730 -0.0549
  399SOL    HW1 1196   2.149   0.214   2.119  2.6243  2.5532  1.5122
  399SOL    HW2 1197   2.047   0.233   1.990 -0.4627  0.1249 -1.4421
  400SOL     OW 1198   1.009   2.282   2.825  0.0856 -0.3959  0.2743
  400SOL    HW1 1199   1.095   2.256   2.775  1.8620  1.5447  2.1368
  400SOL    HW2 1200   1.019   2.368   2.882 -1.8263  0.7067  1.1752
  401SOL     OW 1201   0.341   1.345   2.482 -0.8192  0.0591  0.4529
  401SOL    HW1 1202   0.321   1.303   2.397  0.7521  0.5979 -1.2861
  401SOL    HW2 1203   0.257   1.379   2.523  0.7002  0.8256  0.4140
  402SOL     OW 1204   0.176   3.009   0.222 -0.1700  0.4294  0.2579
  402SOL    HW1 1205   0.196   2.909   0.212 -2.1232 -1.8595 -1.4947
  402SOL    HW2 1206   0.104   3.035   0.289  0.1919 -1.1148 -2.5549
  403SOL     OW 1207   0.441   1.145   1.743  0.1435  0.0852  0.3434
  403SOL    HW1 1208   0.496   1.065   1.720  0.6296  1.0342  2.6636
  403SOL    HW2 1209   0.381   1.170   1.663 -0.0105 -1.4347 -0.1649
  404SOL     OW 1210   2.348   2.495   2.478 -0.3642  0.7057  0.2487
  404SOL    HW1 1211   2.246   2.480   2.466  2.1235 -0.0214 -1.7680
  404SOL    HW2 1212   2.402   2.456   2.401 -1.1537 -0.5890 -0.2566
  405SOL     OW 1213   0.116   0.469   1.936  0.6251  0.0058  0.6996
  405SOL    HW1 1214   0.080   0.390   1.985 -2.1949  0.0299 -1.3010
  405SOL    HW2 1215   0.208   0.458   1.896 -0.7234 -0.9581  0.9849
  406SOL     OW 1216   1.192   1.531   2.855 -0.3432  0.1596 -0.1463
  406SOL    HW1 1217   1.203   1.577   2.761 -1.2414  0.5622 -5.2499
  406SOL    HW2 1218   1.251   1.575   2.926 -0.4912  0.8542  0.0358
  407SOL     OW 1219   2.006   0.572   2.629 -0.1640 -0.6447  0.3177
  407SOL    HW1 1220   1.958   0.665   2.621 -0.0430  1.3076 -0.6534
  407SOL    HW2 1221   2.085   0.572   2.563  3.1482  2.4333 -0.6432
  408SOL     OW 1222   0.384   2.579   2.203  0.0321  0.2215 -1.0324
  408SOL    HW1 1223   0.292   2.568   2.248  1.0835 -1.8214 -0.9954
  408SOL    HW2 1224   0.388   2.647   2.130  0.7950 -0.6480 -0.0794
  409SOL     OW 1225   0.092   2.500   1.359  0.5958 -0.3769 -0.1887
  409SOL    HW1 1226   0.057   2.459   1.445 -3.9012  0.7913  0.8445
  409SOL    HW2 1227   0.066   2.600   1.345  3.8090  3.3945 -3.2737
  410SOL     OW 1228   2.847   1.796   0.447 -0.4966 -0.5380 -0.2922
  410SOL    HW1 1229   2.944   1.816   0.478  1.0186  1.0871 -0.0417
  410SOL    HW2 1230   2.829   1.699   0.460  3.2225  1.0207 -0.7472
  411SOL     OW 1231   2.446   0.011   1.445  0.2770  0.1282  0.3388
  411SOL    HW1 1232   2.378   3.102   1.372  0.6860 -0.7920 -1.3068
  411SOL    HW2 1233   2.429   3.053   1.527  0.5246 -0.3697  0.4137
  412SOL     OW 1234   2.274   0.191   1.567  0.3510  0.1366  0.0353
  412SOL    HW1 1235   2.347   0.128   1.534 -2.4085 -1.7244  0.6444
  412SOL    HW2 1236   2.180   0.157   1.546 -0.6790 -2.2083  1.2947
  413SOL     OW 1237   3.096   0.462   2.367 -0.4463 -0.2679  0.4938
  413SOL    HW1 1238   0.052   0.544   2.381  0.7265  2.8742 -0.3813
  413SOL    HW2 1239   0.058   0.378   2.383  0.3075  0.4640 -1.6161
  414SOL     OW 1240   2.637   1.375   0.242  0.2134 -0.0511 -0.1930
  414SOL    HW1 1241   2.625   1.436   0.164 -1.4533 -1.7464  2.3915
  414SOL    HW2 1242   2.546   1.379   0.290 -2.6360 -1.0593  2.0349
  415SOL     OW 1243   0.831   2.560   0.225 -0.2288 -0.6836  0.2234
  415SOL    HW1 1244   0.891   2.636   0.232 -0.7062 -0.8136  1.2195
  415SOL    HW2 1245   0.847   2.506   0.310  1.4851  0.8356 -1.5929
  416SOL     OW 1246   1.483   2.773   2.677  0.2448  0.3048  0.2169
  416SOL    HW1 1247   1.432   2.703   2.731  0.8630  1.0765 -0.3464
  416SOL    HW2 1248   1.567   2.732   2.632 -0.9265 -2.9252 -3.1459
  417SOL     OW 1249   0.391   1.019   1.351  0.0023 -0.5419  0.3967
  417SOL    HW1 1250   0.303   0.976   1.329  1.2526  3.2546 -1.3498
  417SOL    HW2 1251   0.467   0.950   1.330 -0.2206 -1.8585  1.0245
  418SOL     OW 1252   2.618   0.033   0.841  0.0217  0.1368 -0.2494
  418SOL    HW1 1253   2.537   3.088   0.807  1.1763  1.5618  1.2684
  418SOL    HW2 1254   2.605   0.135   0.851  0.0419  0.3059  1.6325
  419SOL     OW 1255   0.359   0.106   0.163  0.4825  0.5711  0.1658
  419SOL    HW1 1256   0.296   0.033   0.198  1.8223 -0.6927  1.1512
  419SOL    HW2 1257   0.445   0.087   0.199 -4.4369 -0.2964 -1.9638
  420SOL     OW 1258   0.308   1.195   1.528  0.5431  0.5195  0.0911
  420SOL    HW1 1259   0.355   1.133   1.456 -0.0780 -1.8913 -2.1469
  420SOL    HW2 1260   0.212   1.162   1.551 -3.4731 -0.4477 -1.0654
  421SOL     OW 1261   1.740   2.597   0.682  0.0826 -0.4155  0.4531
  421SOL    HW1 1262   1.811   2.564   0.615  1.2933 -0.1378  0.1942
  421SOL    HW2 1263   1.666   2.531   0.702 -0.4535  1.0920 -1.0849
  422SOL     OW 1264   0.166   0.393   1.547  0.4087 -0.0022 -0.0312
  422SOL    HW1 1265   0.241   0.373   1.483 -0.9944 -0.2631 -3.0602
  422SOL    HW2 1266   0.104   0.456   1.501  0.6824 -1.0524 -1.1684
  423SOL     OW 1267   0.963   1.346   2.088  0.2210  0.1932 -0.3734
  423SOL    HW1 1268   0.971   1.307   1.994 -0.4426 -1.3749 -0.0716
  423SOL    HW2 1269   0.990   1.444   2.078 -2.1819 -0.0201  0.1515
  424SOL     OW 1270   1.731   2.113   0.519  0.4193 -0.2017 -0.7751
  424SOL    HW1 1271   1.673   2.062   0.447 -0.4951 -1.2944 -4.3175
  424SOL    HW2 1272   1.769   2.039   0.573 -0.5046 -0.2814  0.4480
  425SOL     OW 1273   2.818   2.832   2.122 -0.1863  0.1311 -0.4784
  425SOL    HW1 1274   2.736   2.831   2.181 -1.5916  1.7957 -1.5592
  425SOL    HW2 1275   2.813   2.887   2.040 -0.9011  0.4872  0.2185
  426SOL     OW 1276   0.213   2.809   2.644 -0.3090  0.2355 -0.2265
  426SOL    HW1 1277   0.157   2.836   2.727 -2.1787  1.7131  0.7341
  426SOL    HW2 1278   0.174   2.830   2.551  0.9151  0.5852  0.4436
  427SOL     OW 1279   0.960   3.006   0.221 -0.0176  0.4266  0.0835
  427SOL    HW1 1280   1.022   3.085   0.227  0.4143 -0.6571 -1.2416
  427SOL    HW2 1281   0.887   3.014   0.150 -1.2111  2.4739 -0.3032
  428SOL     OW 1282   2.856   0.458   1.579 -0.1006  0.9204  0.0494
  428SOL    HW1 1283   2.847   0.359   1.610 -0.8712 -0.8854  2.1330
  428SOL    HW2 1284   2.778   0.490   1.528  1.0719  0.1197  0.1631
  429SOL     OW 1285   2.060   3.048   0.584  0.7145  0.3993  0.0913
  429SOL    HW1 1286   2.040   2.953   0.550  2.7348  1.2732 -1.9831
  429SOL    HW2 1287   2.146   3.080   0.542 -0.7007 -0.5207  0.5530
  430SOL     OW 1288   0.915   1.529   2.754 -0.6137  0.4227  0.4621
  430SOL    HW1 1289   1.010   1.489   2.774  2.6273 -3.4582  0.8748
  430SOL    HW2 1290   0.918   1.612   2.695  1.3308 -1.8840  0.4591
  431SOL     OW 1291   2.912   2.240   1.196  0.8869  0.0236  0.2510
  431SOL    HW1 1292   2.912   2.242   1.096 -1.5310 -0.9092  0.1941
  431SOL    HW2 1293   2.841   2.172   1.228  1.4310 -1.9293 -0.0581
  432SOL     OW 1294   1.609   2.429   2.824 -0.2504 -0.0892  0.2744
  432SOL    HW1 1295   1.632   2.428   2.722  1.3607  1.5970 -0.2477
  432SOL    HW2 1296   1.577   2.334   2.842  1.9836 -0.0290 -1.0815
  433SOL     OW 1297   1.306   0.535   2.416  0.0846 -0.0413 -0.5773
  433SOL    HW1 1298   1.207   0.550   2.434 -2.4780  0.2797 -0.9800
  433SOL    HW2 1299   1.368   0.608   2.459  2.4646  3.9093  0.9201
  434SOL     OW 1300   1.092   2.563   2.117 -0.3164  0.0240 -0.7431
  434SOL    HW1 1301   1.066   2.467   2.137  0.7270 -0.6833 -1.2306
  434SOL    HW2 1302   1.193   2.586   2.136  2.5342  1.1777 -0.2894
  435SOL     OW 1303   0.397   0.134   3.000 -0.4421 -0.0052 -0.5334
  435SOL    HW1 1304   0.406   0.145   3.101  1.2093  0.6440 -1.4628
  435SOL    HW2 1305   0.399   0.222   2.953  1.7173 -2.1138  1.5578
  436SOL     OW 1306   0.601   1.459   2.462 -0.4809  0.5167  0.2223
  436SOL    HW1 1307   0.513   1.406   2.448  0.6097 -1.2086 -0.8078
  436SOL    HW2 1308   0.650   1.452   2.373  1.0550 -0.5271  0.8786
  437SOL     OW 1309   1.226   2.480   2.553 -0.5139 -0.3031  0.0269
  437SOL    HW1 1310   1.248   2.465   2.457  0.0673 -0.6668  0.2825
  437SOL    HW2 1311   1.161   2.558   2.570  0.1627  1.7266  2.7831
  438SOL     OW 1312   0.740   1.028   0.685 -0.4680 -0.1838  0.2097
  438SOL    HW1 1313   0.822   1.073   0.735 -3.7506 -0.3588  2.1706
  438SOL    HW2 1314   0.742   0.930   0.705  2.0846 -0.2614  0.2635
  439SOL     OW 1315   3.004   1.448   2.242 -0.2829 -0.1360 -0.0975
  439SOL    HW1 1316   2.949   1.392   2.307 -0.6140 -0.0134  2.8369
  439SOL    HW2 1317   2.944   1.517   2.196 -1.2259 -2.1197  0.4342
  440SOL     OW 1318   2.893   0.640   2.743 -0.0182  0.0650 -0.0985
  440SOL    HW1 1319   2.880   0.571   2.672 -0.1020 -1.9628  1.4911
  440SOL    HW2 1320   2.927   0.726   2.710 -0.1070 -4.5505  2.2559
  441SOL     OW 1321   0.668   1.770   1.495  0.2487 -0.3705 -0.4504
  441SOL    HW1 1322   0.574   1.783   1.539 -0.4391  0.7620  2.0282
  441SOL    HW2 1323   0.741   1.813   1.556  1.6983  0.1559  2.7722
  442SOL     OW 1324   1.922   1.470   0.758  0.3573 -0.1433 -0.3652
  442SOL    HW1 1325   1.905   1.433   0.661  0.7037  0.4118  0.4612
  442SOL    HW2 1326   1.860   1.551   0.779  1.2094 -1.4129  3.4616
  443SOL     OW 1327   2.566   2.005   3.029  0.0549  0.6262 -0.1486
  443SOL    HW1 1328   2.551   2.103   3.031  0.1917 -0.7836  0.2536
  443SOL    HW2 1329   2.619   1.974   2.949 -0.3116  0.2859  1.9151
  444SOL     OW 1330   1.575   1.335   2.920 -0.4933 -0.2424 -0.6140
  444SOL    HW1 1331   1.647   1.319   2.849 -2.1817  0.4582  2.1815
  444SOL    HW2 1332   1.574   1.432   2.941 -1.0178  0.0920  2.0920
  445SOL     OW 1333   0.433   2.350   2.021 -0.2778 -0.1241  0.4209
  445SOL    HW1 1334   0.462   2.435   2.065 -0.6627  0.3854  0.6138
  445SOL    HW2 1335   0.349   2.312   2.056  2.6859 -2.1887 -0.9173
  446SOL     OW 1336   0.898   0.927   1.871  0.6357 -0.1934  0.4366
  446SOL    HW1 1337   0.988   0.881   1.899  2.6057  0.3273  0.9035
  446SOL    HW2 1338   0.863   0.987   1.947 -2.5631  2.4052  1.8860
  447SOL     OW 1339   1.073   0.743   0.544 -0.0616  0.1733 -0.8387
  447SOL    HW1 1340   1.096   0.831   0.494 -0.4219  1.4461  0.6002
  447SOL    HW2 1341   1.129   0.671   0.510  1.8688  3.2331  4.5006
  448SOL     OW 1342   1.327   1.092   1.981  1.0122 -0.0890 -0.2113
  448SOL    HW1 1343   1.269   1.129   1.903 -1.6800 -1.6417 -0.0044
  448SOL    HW2 1344   1.425   1.082   1.958 -1.6703  2.0381  0.3256
  449SOL     OW 1345   0.237   1.726   2.434  0.3306 -0.4680  0.2511
  449SOL    HW1 1346   0.179   1.649   2.476 -0.6133 -0.9316 -2.8227
  449SOL    HW2 1347   0.205   1.751   2.342  1.1865 -3.9618  1.6972
  450SOL     OW 1348   2.210   1.374   1.884  0.0358 -0.4008  0.5141
  450SOL    HW1 1349   2.183   1.463   1.918  0.3821  0.5565  0.1902
  450SOL    HW2 1350   2.306   1.365   1.856 -0.5624  0.4555  0.5625
  451SOL     OW 1351   2.551   1.389   1.359  0.1627 -0.0130 -0.4451
  451SOL    HW1 1352   2.580   1.382   1.458  0.1371 -1.1270  2.5727
  451SOL    HW2 1353   2.563   1.303   1.308 -0.3689 -1.3644 -0.4143
  452SOL     OW 1354   0.865   0.899   1.337  0.5812 -0.1206  0.1481
  452SOL    HW1 1355   0.870   0.934   1.434 -2.0283  2.1735  1.2728
  452SOL    HW2 1356   0.944   0.846   1.303  0.6612  0.3007 -3.6228
  453SOL     OW 1357   0.290   1.904   1.068 -0.0782  0.7648  0.4305
  453SOL    HW1 1358   0.202   1.950   1.082  0.6022 -1.5461 -2.3636
  453SOL    HW2 1359   0.344   1.942   0.993 -1.4712 -0.4395 -0.0559
  454SOL     OW 1360   1.158   1.336   0.269 -0.4088 -0.2493 -0.4078
  454SOL    HW1 1361   1.245   1.393   0.261 -0.0789  0.9411  2.1914
  454SOL    HW2 1362   1.145   1.313   0.368 -0.2607 -0.1723  2.0551
  455SOL     OW 1363   1.854   0.510   0.970  0.1078  0.4389  0.4362
  455SOL    HW1 1364   1.870   0.424   0.916 -0.3319  1.0546  1.9249
  455SOL    HW2 1365   1.920   0.583   0.938 -1.5776 -0.1508  0.9591
  456SOL     OW 1366   1.733   2.858   0.457 -0.0933 -0.0183 -0.1850
  456SOL    HW1 1367   1.705   2.778   0.394  0.0762  0.6295 -2.8965
  456SOL    HW2 1368   1.656   2.923   0.474  0.0130 -1.3679 -1.0626
  457SOL     OW 1369   2.076   1.203   2.041  0.2800 -0.0192 -0.2025
  457SOL    HW1 1370   2.125   1.242   1.960 -0.7895  2.7325 -0.9435
  457SOL    HW2 1371   2.105   1.239   2.132 -1.1041  4.1912 -0.7874
  458SOL     OW 1372   2.528   0.496   2.280 -0.9309 -0.3808 -0.2901
  458SOL    HW1 1373   2.567   0.591   2.275 -1.5482  0.7823 -1.9028
  458SOL    HW2 1374   2.516   0.458   2.185  0.3380  0.4464 -0.3975
  459SOL     OW 1375   2.524   1.551   2.431 -0.0624  0.2168 -0.5883
  459SOL    HW1 1376   2.561   1.472   2.384 -1.1011  5.0849 -0.8503
  459SOL    HW2 1377   2.578   1.576   2.520  0.5562  2.7158  3.2119
  460SOL     OW 1378   0.845   1.031   2.660  0.0793  0.2438  0.1100
  460SOL    HW1 1379   0.892   1.006   2.574  2.8007  0.7913  0.3677
  460SOL    HW2 1380   0.788   1.117   2.644 -1.5562  0.1290 -1.8491
  461SOL     OW 1381   0.240   2.233   0.244  0.0185  0.7034 -0.7283
  461SOL    HW1 1382   0.270   2.327   0.229  2.5400 -0.5936 -1.4184
  461SOL    HW2 1383   0.162   2.207   0.179 -0.0069 -0.6972 -0.9852
  462SOL     OW 1384   1.259   2.853   2.367 -0.5050 -0.8741 -0.7549
  462SOL    HW1 1385   1.349   2.834   2.331 -1.4586 -0.8046 -1.0950
  462SOL    HW2 1386   1.205   2.925   2.318 -1.1457  0.9317  3.2087
  463SOL     OW 1387   2.039   2.251   2.052 -0.2274 -0.3525 -0.2145
  463SOL    HW1 1388   1.992   2.185   2.121 -2.0414 -1.0799  0.9473
  463SOL    HW2 1389   2.096   2.196   1.986  1.5587 -1.6126  1.9597
  464SOL     OW 1390   2.498   2.516   0.634 -0.6614 -0.1810  0.4966
  464SOL    HW1 1391   2.404   2.506   0.655 -0.1070 -3.0364 -0.1422
  464SOL    HW2 1392   2.549   2.571   0.705  1.2615 -1.4531 -2.5411
  465SOL     OW 1393   0.002   0.182   1.476  0.0014  0.5382  0.4594
  465SOL    HW1 1394   0.051   0.153   1.385  1.0041  2.2565 -3.7841
  465SOL    HW2 1395   0.045   0.264   1.510 -0.8531 -0.0204 -2.5882
  466SOL     OW 1396   1.366   2.566   2.794  0.1103 -0.8207 -0.3293
  466SOL    HW1 1397   1.446   2.509   2.801 -0.9263 -0.0859 -1.6289
  466SOL    HW2 1398   1.329   2.558   2.702  0.7078  0.4883  2.4439
  467SOL     OW 1399   3.033   2.232   0.200 -0.1365 -0.6549  0.6116
  467SOL    HW1 1400   3.007   2.139   0.178 -0.4779  0.1437 -0.0587
  467SOL    HW2 1401   2.962   2.299   0.174  2.1577 -1.3778 -0.9267
  468SOL     OW 1402   2.171   2.153   2.801  0.1370  0.0922  0.0155
  468SOL    HW1 1403   2.114   2.166   2.720 -0.6687 -0.8039  0.9407
  468SOL    HW2 1404   2.207   2.058   2.797 -1.4787 -1.3842  0.7521
  469SOL     OW 1405   0.693   1.915   0.760  0.3694 -0.0511  0.2722
  469SOL    HW1 1406   0.678   1.952   0.854 -1.7288  0.8758  0.7587
  469SOL    HW2 1407   0.782   1.948   0.727 -0.1342 -0.1186 -1.4869
  470SOL     OW 1408   2.016   0.686   0.875  0.0394 -0.1598 -0.5024
  470SOL    HW1 1409   2.068   0.722   0.793 -0.0459  1.1449 -2.2382
  470SOL    HW2 1410   2.048   0.742   0.957  0.7631 -1.6820  0.2861
  471SOL     OW 1411   0.331   1.852   0.466  0.0677 -0.4786 -0.4337
  471SOL    HW1 1412   0.365   1.852   0.368 -1.2576 -1.1060 -0.9507
  471SOL    HW2 1413   0.325   1.949   0.501  0.2787  1.8804 -0.6586
  472SOL     OW 1414   2.720   1.933   2.814 -0.0133 -0.4118  0.3779
  472SOL    HW1 1415   2.782   2.011   2.802  1.3768  0.5094 -0.2067
  472SOL    HW2 1416   2.673   1.908   2.726  0.4470 -1.4014  0.3675
  473SOL     OW 1417   1.468   1.935   0.737  0.5865  0.7625 -0.7116
  473SOL    HW1 1418   1.408   2.003   0.697  0.3292 -2.2315  2.9245
  473SOL    HW2 1419   1.493   1.972   0.827 -2.2072 -0.2924 -2.0929
  474SOL     OW 1420   2.616   0.343   1.217 -0.2918 -0.4269 -0.3566
  474SOL    HW1 1421   2.551   0.274   1.184  0.4663  2.2747  0.5243
  474SOL    HW2 1422   2.706   0.321   1.175  3.1935  0.2293  0.6678
  475SOL     OW 1423   2.906   3.001   1.875 -0.1854  0.7437 -0.4238
  475SOL    HW1 1424   2.889   2.971   1.779  0.3438  2.3414 -1.3560
  475SOL    HW2 1425   2.850   3.083   1.896 -0.5438 -2.4029  0.1567
  476SOL     OW 1426   0.587   0.149   0.869  0.2782  0.0959  0.1335
  476SOL    HW1 1427   0.604   0.253   0.871  1.5160  3.2300  1.8211
  476SOL    HW2 1428   0.519   0.117   0.795 -0.7685 -1.5417 -2.0588
  477SOL     OW 1429   1.330   2.453   1.251 -0.0352 -0.1549  0.6566
  477SOL    HW1 1430   1.319   2.516   1.331 -1.6202 -0.1595 -1.0926
  477SOL    HW2 1431   1.431   2.422   1.253 -0.2441  1.2983  3.4408
  478SOL     OW 1432   1.343   2.505   0.121  0.3238  0.4691 -0.1750
  478SOL    HW1 1433   1.290   2.512   0.037 -1.1632  0.7253  2.7621
  478SOL    HW2 1434   1.351   2.594   0.169  0.0209 -0.1660 -0.3516
  479SOL     OW 1435   2.492   1.250   1.868 -0.0124  0.2472 -0.2661
  479SOL    HW1 1436   2.457   1.175   1.922 -0.8480 -0.8831 -0.6197
  479SOL    HW2 1437   2.563   1.208   1.808 -1.1299 -0.4664  1.3380
  480SOL     OW 1438   2.613   2.272   2.764 -0.0612 -0.2997 -0.9347
  480SOL    HW1 1439   2.653   2.204   2.696 -1.6419  0.5309 -1.5061
  480SOL    HW2 1440   2.527   2.316   2.729  1.9667 -1.8230  0.5154
  481SOL     OW 1441   1.622   2.909   1.564  0.4482  0.3824 -0.2069
  481SOL    HW1 1442   1.656   2.823   1.594 -1.3542  2.1681 -2.8592
  481SOL    HW2 1443   1.608   2.905   1.468 -1.1006  2.2160  2.6241
  482SOL     OW 1444   1.620   2.384   2.317  0.3343 -0.3770  0.0177
  482SOL    HW1 1445   1.643   2.401   2.216  1.6225  2.7426 -1.6513
  482SOL    HW2 1446   1.517   2.390   2.327 -1.7090  2.0787  1.1752
  483SOL     OW 1447   1.187   2.563   3.015  0.5142  0.0116  0.1197
  483SOL    HW1 1448   1.094   2.548   2.966 -2.4526 -0.7689 -0.6056
  483SOL    HW2 1449   1.259   2.562   2.943 -0.2893 -0.6063 -1.3205
  484SOL     OW 1450   2.432   2.911   1.654  0.1874 -0.2889  0.1999
  484SOL    HW1 1451   2.347   2.854   1.666  0.1068  0.1322 -1.0905
  484SOL    HW2 1452   2.489   2.866   1.585 -0.5409 -0.2950 -0.3634
  485SOL     OW 1453   2.096   0.519   0.485 -0.5785  0.3088  0.8339
  485SOL    HW1 1454   2.104   0.622   0.466  0.2653  0.8129  0.1843
  485SOL    HW2 1455   1.999   0.489   0.484  2.0247 -0.9329 -0.8237
  486SOL     OW 1456   2.541   2.640   2.585 -0.3940  0.0340  0.7625
  486SOL    HW1 1457   2.502   2.710   2.652 -1.1002  1.3373  0.4376
  486SOL    HW2 1458   2.467   2.586   2.533 -1.4384 -1.4218 -1.2863
  487SOL     OW 1459   1.351   0.879   0.809 -0.1871  0.4126 -0.3616
  487SOL    HW1 1460   1.254   0.873   0.815 -0.0076 -0.1923  1.4418
  487SOL    HW2 1461   1.402   0.883   0.897  0.2947 -1.7707 -0.6255
  488SOL     OW 1462   2.718   3.034   2.447 -0.7718  0.2727  0.2851
  488SOL    HW1 1463   2.691   2.947   2.399  0.8615 -2.0195  1.6500
  488SOL    HW2 1464   2.634   3.094   2.439 -0.9752 -1.3669 -2.1602
  489SOL     OW 1465   1.159   2.730   0.476 -0.0585  0.1722  0.3715
  489SOL    HW1 1466   1.180   2.827   0.505 -1.4372  2.0693  1.0926
  489SOL    HW2 1467   1.171   2.657   0.549 -2.7369 -0.9108  0.3533
  490SOL     OW 1468   1.495   0.504   3.073 -0.0577 -0.4789  0.7232
  490SOL    HW1 1469   1.566   0.515   3.002  1.0491 -1.5580  2.4704
  490SOL    HW2 1470   1.420   0.576   3.063 -1.7517  1.5215 -1.7491
  491SOL     OW 1471   0.962   2.991   1.230 -0.0095 -0.6870 -0.2607
  491SOL    HW1 1472   0.865   2.962   1.225  1.6446 -0.2638 -1.1647
  491SOL    HW2 1473   0.984   3.042   1.313 -1.4339 -1.6986 -1.8317
  492SOL     OW 1474   1.617   2.662   0.304 -0.1526  0.3624 -0.8529
  492SOL    HW1 1475   1.615   2.558   0.303 -1.6526 -0.0007  0.4503
  492SOL    HW2 1476   1.519   2.697   0.308 -1.1326  2.1309 -0.7543
  493SOL     OW 1477   0.941   2.054   2.952  0.3041  0.3186 -0.0642
  493SOL    HW1 1478   1.008   1.978   2.929 -0.7411 -3.7388  1.3763
  493SOL    HW2 1479   0.975   2.144   2.922 -1.2873 -2.0668 -0.6994
  494SOL     OW 1480   0.810   0.679   0.629  0.3491  0.4739  0.1173
  494SOL    HW1 1481   0.741   0.665   0.554  1.6827 -0.2225 -0.3631
  494SOL    HW2 1482   0.903   0.692   0.593  0.2171 -2.7144  0.7342
  495SOL     OW 1483   2.759   0.137   1.855  0.4565 -0.0677  0.2692
  495SOL    HW1 1484   2.813   0.139   1.765  3.2529  0.9249 -0.5132
  495SOL    HW2 1485   2.764   0.220   1.908  0.7017 -0.4862  0.0254
  496SOL     OW 1486   2.259   2.121   2.403 -0.4122 -0.4953  1.2484
  496SOL    HW1 1487   2.307   2.194   2.352  0.7731 -0.2333 -2.1504
  496SOL    HW2 1488   2.331   2.086   2.469  3.0400  0.6426  0.4716
  497SOL     OW 1489   1.503   1.337   2.556  0.1047  0.4400 -0.2603
  497SOL    HW1 1490   1.543   1.248   2.589  1.8891 -1.8515  0.2777
  497SOL    HW2 1491   1.525   1.413   2.617 -1.9212  2.5766  1.1028
  498SOL     OW 1492   0.856   2.660   1.101  0.8077 -0.9245  0.1346
  498SOL    HW1 1493   0.774   2.666   1.044  2.3361 -2.4022  1.0061
  498SOL    HW2 1494   0.874   2.565   1.131 -1.3254 -0.7670 -2.3052
  499SOL     OW 1495   0.030   2.003   1.077  0.4296 -0.6951 -0.1977
  499SOL    HW1 1496   3.101   2.059   1.000 -1.3733 -1.3030  0.0445
  499SOL    HW2 1497   3.061   1.990   1.145  0.0294 -1.3215 -1.8719
  500SOL     OW 1498   0.676   2.704   2.830  0.2040 -0.0578  0.0623
  500SOL    HW1 1499   0.597   2.637   2.823 -1.5712 -0.2359  0.4983
  500SOL    HW2 1500   0.666   2.762   2.748  0.9490 -1.8463  2.8875
  501SOL     OW 1501   1.736   3.090   0.133 -0.4983 -0.8284  0.0751
  501SOL    HW1 1502   1.721   2.988   0.135 -0.5429 -0.1324 -0.4349
  501SOL    HW2 1503   1.655   0.035   0.177  0.5770 -0.0074 -1.6928
  502SOL     OW 1504   2.969   0.106   0.727  0.1309  0.2432  0.0172
  502SOL    HW1 1505   2.922   0.169   0.663  1.2254 -2.0447  0.6310
  502SOL    HW2 1506   3.037   0.157   0.783 -2.1684 -3.1688  0.4175
  503SOL     OW 1507   2.018   2.917   2.174 -0.1717 -0.1660  0.4714
  503SOL    HW1 1508   2.052   2.867   2.256 -0.5345  0.4259  0.3741
  503SOL    HW2 1509   1.926   2.951   2.200  2.0567 -2.8415  1.1977
  504SOL     OW 1510   2.481   1.498   1.943  0.6033 -0.0616  0.4218
  504SOL    HW1 1511   2.570   1.529   1.979 -2.2903  0.5970 -3.0748
  504SOL    HW2 1512   2.488   1.398   1.923  1.1016  0.9342  1.2734
  505SOL     OW 1513   1.743   2.963   2.238  0.2905  0.3014 -0.2876
  505SOL    HW1 1514   1.733   3.008   2.329  1.0903  0.7324 -1.8893
  505SOL    HW2 1515   1.690   3.010   2.162  0.6481 -1.4994 -2.2067
  506SOL     OW 1516   0.142   0.718   2.074  0.0307 -0.6966  0.0874
  506SOL    HW1 1517   0.108   0.636   2.024 -0.4455 -1.5316  1.8365
  506SOL    HW2 1518   0.233   0.746   2.042 -0.6598  1.8570  0.2879
  507SOL     OW 1519   1.829   0.472   0.505  0.2490  0.4191 -0.4815
  507SOL    HW1 1520   1.752   0.530   0.470  2.4719 -0.8356  0.3241
  507SOL    HW2 1521   1.850   0.397   0.437  1.3209 -0.9225 -1.5337
  508SOL     OW 1522   2.118   0.500   1.982 -0.7234 -0.3182  0.1394
  508SOL    HW1 1523   2.122   0.511   1.882 -0.4884 -0.5424  0.7750
  508SOL    HW2 1524   2.112   0.401   2.006  2.2181  0.9977  1.0773
  509SOL     OW 1525   0.661   1.803   2.997  0.6006 -0.6458 -0.1271
  509SOL    HW1 1526   0.732   1.822   3.066  1.3209 -2.5242  0.4959
  509SOL    HW2 1527   0.650   1.700   2.981 -0.7502 -0.7014  2.2000
  510SOL     OW 1528   0.185   0.905   0.992 -0.4909  0.1912  0.5836
  510SOL    HW1 1529   0.120   0.854   0.929 -1.6860 -1.4786 -4.9088
  510SOL    HW2 1530   0.256   0.955   0.940  0.4372 -1.7515  2.7153
  511SOL     OW 1531   1.598   1.087   1.214 -0.4394  0.2052  0.1414
  511SOL    HW1 1532   1.660   1.101   1.291  0.0037 -1.0468 -2.7583
  511SOL    HW2 1533   1.603   1.166   1.150 -0.6217 -1.7766  3.0061
  512SOL     OW 1534   0.351   2.077   0.856 -0.1361  0.5300 -0.1480
  512SOL    HW1 1535   0.264   2.048   0.817  0.7439  2.6853 -0.5354
  512SOL    HW2 1536   0.385   2.141   0.789 -0.8881 -0.7063  1.2846
  513SOL     OW 1537   0.292   2.583   0.995 -0.7866 -0.3909 -0.3297
  513SOL    HW1 1538   0.203   2.542   0.983  1.8496  0.8091 -1.8195
  513SOL    HW2 1539   0.316   2.631   1.080  0.7790 -0.5210 -1.9208
  514SOL     OW 1540   0.536   2.098   0.598  0.4022 -0.6063 -0.1249
  514SOL    HW1 1541   0.575   2.090   0.503 -3.0031  1.2963  1.3369
  514SOL    HW2 1542   0.578   2.031   0.659  1.7303  2.1391 -1.5110
  515SOL     OW 1543   0.002   0.296   2.903  0.1816 -0.2959 -0.0994
  515SOL    HW1 1544   3.029   0.295   2.978 -0.4261 -0.3099  1.3050
  515SOL    HW2 1545   0.086   0.340   2.943  1.2050 -0.6656  1.9300
  516SOL     OW 1546   2.231   2.998   1.333  0.3252 -0.4017 -0.1768
  516SOL    HW1 1547   2.148   2.955   1.375  1.8036  0.9463 -1.4553
  516SOL    HW2 1548   2.206   3.091   1.305 -1.8891 -0.9889  0.0961
  517SOL     OW 1549   1.777   1.685   0.825  0.0407  0.2116 -0.2613
  517SOL    HW1 1550   1.825   1.773   0.803  2.3144 -1.5728 -0.4362
  517SOL    HW2 1551   1.765   1.673   0.926  0.2117 -0.8253  1.4210
  518SOL     OW 1552   1.732   2.791   0.858  0.2008  0.0961  0.5619
  518SOL    HW1 1553   1.688   2.751   0.937 -0.5793 -1.5552 -0.6458
  518SOL    HW2 1554   1.749   2.720   0.782 -0.9691 -3.6982 -1.2718
  519SOL     OW 1555   2.937   2.633   0.241  0.1820 -0.0116  0.5302
  519SOL    HW1 1556   3.030   2.631   0.288  1.1805 -1.0104  0.7100
  519SOL    HW2 1557   2.860   2.628   0.312  1.5696 -0.5520  0.3514
  520SOL     OW 1558   2.190   1.735   2.203 -0.1811 -0.8848 -0.4246
  520SOL    HW1 1559   2.156   1.813   2.261 -0.0051  0.2572 -1.7719
  520SOL    HW2 1560   2.195   1.647   2.253 -0.9826 -1.7322  2.1378
  521SOL     OW 1561   1.464   2.919   1.867  0.3702  0.8989  0.1160
  521SOL    HW1 1562   1.482   2.880   1.775  1.2608 -0.3750 -0.9975
  521SOL    HW2 1563   1.367   2.892   1.888  0.2343  0.4705 -2.5426
  522SOL     OW 1564   0.473   2.379   1.733  0.2837  0.0554  0.2492
  522SOL    HW1 1565   0.388   2.425   1.699  0.1760  1.4795  0.3235
  522SOL    HW2 1566   0.452   2.342   1.826 -1.4767 -0.1101 -1.0517
  523SOL     OW 1567   0.762   2.266   2.183 -0.1259  0.2152 -0.3757
  523SOL    HW1 1568   0.706   2.346   2.158  1.1310 -1.1079 -0.5188
  523SOL    HW2 1569   0.853   2.304   2.220  1.5508  2.2172  3.0334
  524SOL     OW 1570   2.177   2.219   0.537  0.7819 -0.2457 -0.1308
  524SOL    HW1 1571   2.142   2.154   0.467 -1.6793  1.9908 -0.8821
  524SOL    HW2 1572   2.098   2.256   0.591  1.6779 -2.1058  4.6587
  525SOL     OW 1573   2.673   0.730   2.490 -0.1016 -0.3292 -0.4264
  525SOL    HW1 1574   2.711   0.637   2.476 -1.8321  0.6824  0.6794
  525SOL    HW2 1575   2.577   0.731   2.529 -1.9278 -0.0427 -1.1064
  526SOL     OW 1576   0.368   2.544   0.637  0.5554 -0.6974 -0.2407
  526SOL    HW1 1577   0.457   2.500   0.666  3.1511  0.7182 -2.0797
  526SOL    HW2 1578   0.353   2.632   0.689  0.5297  2.7101 -0.4078
  527SOL     OW 1579   2.950   1.015   0.822  0.4362  0.4033  0.1131
  527SOL    HW1 1580   2.916   1.050   0.729  2.4388 -0.6447 -3.9020
  527SOL    HW2 1581   2.880   0.972   0.880  0.7378  0.9232 -2.2211
  528SOL     OW 1582   1.056   1.208   2.304 -0.3263  0.1024  0.6097
  528SOL    HW1 1583   1.143   1.243   2.342  0.9499 -1.3637 -0.3481
  528SOL    HW2 1584   1.014   1.265   2.230  1.5361 -2.1114  4.7656
  529SOL     OW 1585   0.917   1.461   0.146 -0.7043 -0.3505  0.3591
  529SOL    HW1 1586   0.998   1.409   0.180 -1.1899 -0.2605 -1.5760
  529SOL    HW2 1587   0.875   1.416   0.065 -0.7459 -0.0079  3.3026
  530SOL     OW 1588   1.386   0.691   1.815 -0.2406 -0.4852  0.0995
  530SOL    HW1 1589   1.440   0.748   1.747  0.9897  3.1076 -3.5160
  530SOL    HW2 1590   1.418   0.596   1.822 -0.8098  1.7193 -0.3091
  531SOL     OW 1591   1.076   2.167   0.313  0.0474 -0.3739  0.2976
  531SOL    HW1 1592   1.078   2.216   0.224  0.4746  0.6626 -1.5033
  531SOL    HW2 1593   1.171   2.133   0.330 -1.6038 -0.9847  0.3601
  532SOL     OW 1594   2.618   0.987   2.374  0.2785  0.0837  0.4634
  532SOL    HW1 1595   2.599   0.919   2.450 -0.9018  1.4703 -0.2164
  532SOL    HW2 1596   2.722   1.005   2.360  2.7374  2.1459 -1.4198
  533SOL     OW 1597   3.088   0.233   2.050  0.2390  0.0785 -0.2066
  533SOL    HW1 1598   3.036   0.234   2.140  0.0631 -1.3404  3.3481
  533SOL    HW2 1599   3.098   0.137   2.022 -2.0089 -0.2254  3.6052
  534SOL     OW 1600   2.224   0.111   2.885  0.1388 -0.4028 -1.3442
  534SOL    HW1 1601   2.307   0.151   2.934  3.5347  2.5337  3.3138
  534SOL    HW2 1602   2.262   0.067   2.802 -2.0395 -1.7928  4.5572
  535SOL     OW 1603   0.527   0.500   0.020  0.1053 -0.4718 -0.4554
  535SOL    HW1 1604   0.425   0.492   0.000 -3.3310 -0.8900 -1.7590
  535SOL    HW2 1605   0.583   0.499   3.036  1.3715 -0.2830 -0.1742
  536SOL     OW 1606   1.128   2.008   1.117  0.2855  0.1558  0.0821
  536SOL    HW1 1607   1.063   1.995   1.197  1.8350  0.8597  0.6561
  536SOL    HW2 1608   1.141   2.110   1.110 -0.2509  3.1163  1.5106
  537SOL     OW 1609   2.878   2.516   1.543 -0.1477  0.4952  0.1666
  537SOL    HW1 1610   2.904   2.595   1.596 -0.1107 -0.6033 -1.5966
  537SOL    HW2 1611   2.790   2.472   1.576  2.9123  1.8291 -0.1671
  538SOL     OW 1612   0.604   2.370   0.630 -0.1451  0.2267  0.3206
  538SOL    HW1 1613   0.606   2.271   0.646 -1.9807 -1.1939  0.1082
  538SOL    HW2 1614   0.696   2.416   0.633 -2.2043 -0.8491  1.4650
  539SOL     OW 1615   1.847   1.275   2.444 -0.3899  0.0504 -0.2098
  539SOL    HW1 1616   1.769   1.275   2.375 -0.7462  0.0198 -0.7351
  539SOL    HW2 1617   1.891   1.366   2.442  2.5923 -0.5080 -1.9709
  540SOL     OW 1618   1.644   0.531   2.864 -0.4349 -0.4553  0.6605
  540SOL    HW1 1619   1.655   0.460   2.793  1.8324 -0.8391  1.1300
  540SOL    HW2 1620   1.733   0.576   2.884 -0.4641 -1.4140  1.1391
  541SOL     OW 1621   1.022   0.987   2.458  0.3959  0.0044 -0.4574
  541SOL    HW1 1622   1.002   0.903   2.399  0.0702 -1.3785 -1.7461
  541SOL    HW2 1623   1.059   1.065   2.407 -2.3006 -0.4313  2.3774
  542SOL     OW 1624   1.403   2.511   1.933 -0.3464  0.4720  0.2571
  542SOL    HW1 1625   1.328   2.455   1.894 -1.6202 -2.4402 -0.6642
  542SOL    HW2 1626   1.438   2.566   1.851  0.7592  0.3238  0.2608
  543SOL     OW 1627   0.571   2.770   3.064  0.0813 -0.7959  0.5602
  543SOL    HW1 1628   0.615   2.765   2.972  2.9938 -0.3685  0.5408
  543SOL    HW2 1629   0.492   2.833   3.055  0.1009 -1.6351 -0.7477
  544SOL     OW 1630   3.072   2.065   2.203 -0.2785 -0.2866  0.2066
  544SOL    HW1 1631   2.994   2.124   2.171  0.7354 -2.2374  0.7885
  544SOL    HW2 1632   0.063   2.111   2.189  1.5105  0.5191  1.1403
  545SOL     OW 1633   1.505   1.797   1.765  0.4274  0.0146  0.4641
  545SOL    HW1 1634   1.424   1.845   1.718 -5.1072  0.7966 -0.7014
  545SOL    HW2 1635   1.467   1.723   1.823  0.4561 -1.0496 -2.3550
  546SOL     OW 1636   2.870   0.477   2.528  0.7807  0.4040 -0.3037
  546SOL    HW1 1637   2.798   0.406   2.506 -0.6737 -0.0095  0.3327
  546SOL    HW2 1638   2.939   0.489   2.454 -0.9768 -0.2151 -1.7714
  547SOL     OW 1639   1.705   3.055   0.878  0.4824 -0.2305 -0.1012
  547SOL    HW1 1640   1.680   3.084   0.974 -0.8843  0.4230 -1.1384
  547SOL    HW2 1641   1.731   2.958   0.878  1.0049 -0.2342  1.6582
  548SOL     OW 1642   1.317   2.127   3.049 -0.0466 -0.0737  0.5679
  548SOL    HW1 1643   1.276   2.047   3.019  2.1663  2.7086  0.3194
  548SOL    HW2 1644   1.248   2.187   3.087  2.6625 -0.0415 -1.2242
  549SOL     OW 1645   1.976   0.412   0.043  0.6685  0.0271  0.5060
  549SOL    HW1 1646   2.057   0.398   0.097 -2.2583  0.5987 -1.1455
  549SOL    HW2 1647   1.987   0.470   3.059  0.8244  0.1874 -0.0783
  550SOL     OW 1648   2.429   1.904   0.892  0.2971 -0.3648 -0.1777
  550SOL    HW1 1649   2.407   1.965   0.811 -0.1904 -1.7123 -0.5057
  550SOL    HW2 1650   2.494   1.833   0.861  0.0428  2.7960 -0.2406
  551SOL     OW 1651   1.220   0.121   1.196  0.2449  0.4675  0.3392
  551SOL    HW1 1652   1.162   0.193   1.241  0.4424  1.4247  0.0856
  551SOL    HW2 1653   1.191   0.110   1.095  1.6239 -1.8753 -2.4843
  552SOL     OW 1654   0.218   1.757   2.760  0.0352  0.3277  0.2522
  552SOL    HW1 1655   0.253   1.677   2.709 -1.4491  1.1131  0.1254
  552SOL    HW2 1656   0.130   1.725   2.805 -3.5388 -1.6050  2.1099
  553SOL     OW 1657   2.555   2.403   0.103 -0.8654 -0.0671 -0.2294
  553SOL    HW1 1658   2.500   2.329   0.061  0.4653 -0.3780 -2.8161
  553SOL    HW2 1659   2.531   2.417   0.198  0.7690 -0.8164 -2.7821
  554SOL     OW 1660   2.216   1.452   1.510 -0.1210 -0.0653  0.1324
  554SOL    HW1 1661   2.294   1.510   1.541 -1.2081 -0.2393  1.0991
  554SOL    HW2 1662   2.177   1.392   1.584 -2.3322  3.1272 -0.5124
  555SOL     OW 1663   0.550   2.513   2.476  0.4262 -0.2200 -0.1082
  555SOL    HW1 1664   0.488   2.470   2.542  2.8077  2.9915 -2.4560
  555SOL    HW2 1665   0.536   2.469   2.390 -1.3442 -2.6269  0.7921
  556SOL     OW 1666   1.372   1.139   1.379 -0.7160  0.0276 -0.4622
  556SOL    HW1 1667   1.439   1.139   1.305  0.4857  0.5170 -0.0322
  556SOL    HW2 1668   1.300   1.204   1.355  0.9152 -1.0927 -0.9132
  557SOL     OW 1669   1.423   2.967   1.125  1.0204  0.0880 -0.6285
  557SOL    HW1 1670   1.373   2.888   1.086 -1.6011  2.8267  0.0561
  557SOL    HW2 1671   1.380   2.984   1.218  0.6401 -0.9784  2.2367
  558SOL     OW 1672   0.515   0.851   2.384  0.2091 -0.5795  0.1327
  558SOL    HW1 1673   0.456   0.776   2.339 -0.8229 -1.1833  0.7883
  558SOL    HW2 1674   0.512   0.843   2.488 -2.0380 -0.5706  5.6919
  559SOL     OW 1675   0.992   2.761   0.258  0.0909  0.4095  0.0502
  559SOL    HW1 1676   0.970   2.864   0.269 -1.5373 -0.0713  3.5326
  559SOL    HW2 1677   1.042   2.731   0.337 -1.8711 -0.2522 -1.8124
  560SOL     OW 1678   1.576   1.960   0.356 -0.3379 -0.0898 -0.2838
  560SOL    HW1 1679   1.601   1.873   0.400  0.9501 -0.0008 -0.8508
  560SOL    HW2 1680   1.591   1.956   0.253  0.7675 -1.6813 -3.8265
  561SOL     OW 1681   1.183   2.958   0.596 -0.0361 -0.1753 -0.4016
  561SOL    HW1 1682   1.201   3.051   0.557 -0.9044  2.3463 -0.9201
  561SOL    HW2 1683   1.234   2.946   0.685  3.1432 -2.1891  3.2166
  562SOL     OW 1684   0.584   0.997   2.170 -0.3696  0.0307  0.3637
  562SOL    HW1 1685   0.674   1.048   2.164 -2.9041  2.5506 -0.0363
  562SOL    HW2 1686   0.561   0.941   2.254  0.8717 -0.4817 -0.7848
  563SOL     OW 1687   1.266   1.987   2.307  0.0267  0.3353 -0.2364
  563SOL    HW1 1688   1.257   2.071   2.255  4.6411 -2.5232  1.2274
  563SOL    HW2 1689   1.350   1.939   2.274 -0.2322  1.1491 -0.0496
  564SOL     OW 1690   2.410   0.732   1.380 -0.2992  0.7257 -0.4311
  564SOL    HW1 1691   2.382   0.686   1.293 -2.5797 -0.2997  1.8944
  564SOL    HW2 1692   2.485   0.800   1.368  2.9222 -0.1878  3.0257
  565SOL     OW 1693   1.404   1.020   0.315  0.0140  0.5526 -0.3991
  565SOL    HW1 1694   1.375   1.004   0.221  2.9583 -0.1285 -2.0967
  565SOL    HW2 1695   1.499   1.058   0.319  2.5545 -0.6615  0.6439
  566SOL     OW 1696   2.292   2.636   2.994  0.4164  0.2084 -0.1867
  566SOL    HW1 1697   2.350   2.579   3.052 -0.0528 -2.3018 -1.6612
  566SOL    HW2 1698   2.201   2.594   2.982  1.0212 -2.3851  0.4460
  567SOL     OW 1699   1.801   0.976   0.997 -0.3087  0.4032  0.1610
  567SOL    HW1 1700   1.707   1.011   1.007  0.3133 -0.1105 -0.9693
  567SOL    HW2 1701   1.798   0.873   1.004 -1.3258 -0.7393  0.3914
  568SOL     OW 1702   1.085   1.214   2.719 -0.8990  0.5516  0.3360
  568SOL    HW1 1703   1.095   1.233   2.817  1.7172 -4.0451 -1.8572
  568SOL    HW2 1704   0.987   1.203   2.693 -1.5355 -0.2897 -1.4699
  569SOL     OW 1705   2.114   1.649   0.711  0.1299 -0.0077 -0.0930
  569SOL    HW1 1706   2.044   1.580   0.742  0.7660 -0.9706  1.7695
  569SOL    HW2 1707   2.133   1.720   0.784  2.8020  2.5482  3.9713
  570SOL     OW 1708   2.698   2.428   2.281  0.2432 -0.2560 -0.0136
  570SOL    HW1 1709   2.770   2.384   2.221  1.3604 -0.2360 -0.3215
  570SOL    HW2 1710   2.750   2.478   2.355 -0.5539 -0.7698  0.1554
  571SOL     OW 1711   2.842   2.001   1.683  0.2234 -0.6584 -0.3031
  571SOL    HW1 1712   2.936   2.037   1.704  0.0874 -0.8190  0.2333
  571SOL    HW2 1713   2.801   2.047   1.603  3.7104  1.9770 -0.9815
  572SOL     OW 1714   1.231   2.240   2.676 -0.1573  0.7638  0.2059
  572SOL    HW1 1715   1.232   2.319   2.609  2.9100 -0.6876 -3.1456
  572SOL    HW2 1716   1.300   2.253   2.752  2.5440  0.8802  0.7967
  573SOL     OW 1717   1.639   2.224   1.450 -0.4832 -0.3195 -0.1539
  573SOL    HW1 1718   1.543   2.196   1.476 -1.4929 -1.0959  0.5298
  573SOL    HW2 1719   1.712   2.203   1.521  3.5447 -0.3012  2.0751
  574SOL     OW 1720   1.130   2.773   1.442 -0.1285  0.7305  0.5348
  574SOL    HW1 1721   1.194   2.846   1.424  1.7327 -2.5835  2.4044
  574SOL    HW2 1722   1.062   2.759   1.368  0.5222 -1.7719  0.6453
  575SOL     OW 1723   0.684   0.413   0.896 -0.1302  0.3053 -0.1791
  575SOL    HW1 1724   0.777   0.402   0.854 -0.3377 -2.8588 -0.8982
  575SOL    HW2 1725   0.679   0.416   0.997 -1.7637 -0.9657  0.9831
  576SOL     OW 1726   2.257   0.448   1.547 -0.2825  0.3712 -0.0369
  576SOL    HW1 1727   2.301   0.495   1.619 -3.7238 -0.6930 -2.7465
  576SOL    HW2 1728   2.280   0.349   1.548  1.1002 -1.7717 -1.0410
  577SOL     OW 1729   1.988   0.215   2.930  0.0012 -0.1021  0.0919
  577SOL    HW1 1730   2.079   0.179   2.900 -0.7204  0.5028 -1.5761
  577SOL    HW2 1731   1.995   0.277   3.009 -0.2450  0.6655 -0.9354
  578SOL     OW 1732   1.765   1.954   1.974 -0.1524 -0.3594  0.0165
  578SOL    HW1 1733   1.730   1.867   2.009  0.8050  0.6339  0.6105
  578SOL    HW2 1734   1.755   1.947   1.873 -2.1929  0.0945  1.4899
  579SOL     OW 1735   0.712   1.542   1.092 -0.0332  0.1451  0.6568
  579SOL    HW1 1736   0.682   1.586   0.999 -1.4193 -1.8535 -2.5428
  579SOL    HW2 1737   0.640   1.478   1.126  0.5092  0.5806 -0.3416
  580SOL     OW 1738   1.384   2.858   2.943 -0.1460  0.2409  0.2517
  580SOL    HW1 1739   1.324   2.872   2.861  1.8491 -0.4769 -0.7323
  580SOL    HW2 1740   1.329   2.854   3.029  1.0271  3.5951  1.8178
  581SOL     OW 1741   1.153   0.829   1.993  0.6044 -0.3662 -0.3872
  581SOL    HW1 1742   1.190   0.922   1.983 -0.1156  1.1034 -0.7293
  581SOL    HW2 1743   1.229   0.764   1.984 -1.9406  3.5032  1.5203
  582SOL     OW 1744   0.177   0.430   0.802  0.2103 -0.1347 -0.3912
  582SOL    HW1 1745   0.148   0.506   0.743 -0.4804  0.2887  1.7470
  582SOL    HW2 1746   0.241   0.458   0.876 -3.8862  0.8082 -0.3651
  583SOL     OW 1747   0.880   1.844   1.899 -0.0305  0.2771 -0.4904
  583SOL    HW1 1748   0.817   1.766   1.921 -2.2671 -0.0193 -0.8625
  583SOL    HW2 1749   0.919   1.878   1.987 -3.1354 -0.7708 -1.0116
  584SOL     OW 1750   2.432   2.515   0.356 -0.0262  0.3038  0.0604
  584SOL    HW1 1751   2.490   2.511   0.441  2.4638 -0.2428 -1.4761
  584SOL    HW2 1752   2.403   2.611   0.336  1.2041 -2.2901 -0.5471
  585SOL     OW 1753   2.302   0.509   2.774 -0.2130  0.2686 -0.7843
  585SOL    HW1 1754   2.310   0.496   2.873  1.2739  1.5801 -0.0390
  585SOL    HW2 1755   2.224   0.565   2.749  0.5628  1.3107  0.0753
  586SOL     OW 1756   0.362   1.379   0.336 -0.1877  0.1639  0.2625
  586SOL    HW1 1757   0.443   1.419   0.387 -1.7548  0.3137 -0.3112
  586SOL    HW2 1758   0.277   1.418   0.373 -0.8370  0.6041  1.3157
  587SOL     OW 1759   1.544   2.013   0.977 -0.4583  0.0948  0.4280
  587SOL    HW1 1760   1.637   1.966   0.972  2.5645 -1.5600  2.0013
  587SOL    HW2 1761   1.481   1.965   1.039  0.0359 -1.2311 -0.5753
  588SOL     OW 1762   0.499   0.538   1.253  1.0874 -0.4102 -0.8052
  588SOL    HW1 1763   0.553   0.470   1.203  3.1709 -1.5161 -2.7426
  588SOL    HW2 1764   0.417   0.557   1.195  0.2278 -0.3402 -0.2773
  589SOL     OW 1765   2.019   2.951   0.836 -0.3800 -0.0591 -0.6368
  589SOL    HW1 1766   2.038   3.010   0.754  0.2594 -0.0554 -0.8939
  589SOL    HW2 1767   1.926   2.909   0.829  1.3432  0.9051  1.1468
  590SOL     OW 1768   1.683   1.081   0.382 -0.3838  0.2632  0.2578
  590SOL    HW1 1769   1.773   1.068   0.339  1.6299  2.0298  2.7181
  590SOL    HW2 1770   1.667   1.181   0.401  0.2910 -1.6664  3.4411
  591SOL     OW 1771   2.233   2.137   1.874 -0.0573  0.1371  0.0526
  591SOL    HW1 1772   2.261   2.052   1.924 -1.4347 -0.9407  1.1585
  591SOL    HW2 1773   2.298   2.212   1.899 -2.0080  1.2624  1.2084
  592SOL     OW 1774   1.373   1.854   1.127  0.0394  0.3337  0.0801
  592SOL    HW1 1775   1.375   1.810   1.220  1.6491  1.8065 -0.4096
  592SOL    HW2 1776   1.287   1.902   1.110 -1.0085  0.0283 -1.4836
  593SOL     OW 1777   0.747   3.001   0.848  0.3367  0.1172 -0.0960
  593SOL    HW1 1778   0.847   3.009   0.858  0.3800  1.3749 -0.7643
  593SOL    HW2 1779   0.697   3.089   0.870  0.2045  0.9149 -0.3924
  594SOL     OW 1780   2.859   0.961   2.266  0.3765 -0.1868  0.5067
  594SOL    HW1 1781   2.913   1.015   2.199 -3.7862 -0.4317 -1.2452
  594SOL    HW2 1782   2.861   0.861   2.242  0.5142  1.7918 -1.8100
  595SOL     OW 1783   2.994   3.004   0.529  0.7269 -0.2811  0.3650
  595SOL    HW1 1784   3.059   2.934   0.546 -1.3970 -0.0576 -2.9680
  595SOL    HW2 1785   3.003   3.073   0.604  1.4073  0.2880  1.9417
  596SOL     OW 1786   3.075   0.566   1.447 -0.0323  0.4232  0.4793
  596SOL    HW1 1787   0.016   0.645   1.497  0.4550 -0.9883 -2.3628
  596SOL    HW2 1788   2.992   0.530   1.490 -1.6602 -2.3914  1.1147
  597SOL     OW 1789   2.528   1.008   0.339 -0.7293  0.4275 -0.1905
  597SOL    HW1 1790   2.531   0.945   0.262 -1.9147 -0.5229 -2.1371
  597SOL    HW2 1791   2.456   1.074   0.313 -1.8647  0.6707  0.5744
  598SOL     OW 1792   0.642   0.224   2.037 -0.0842  0.4201 -0.1865
  598SOL    HW1 1793   0.643   0.312   1.992  2.8856 -1.2410 -1.1575
  598SOL    HW2 1794   0.583   0.220   2.119  0.3465  0.1699  2.3672
  599SOL     OW 1795   2.405   1.707   0.281 -0.2002 -0.5988 -0.0397
  599SOL    HW1 1796   2.346   1.783   0.321 -0.2745 -0.5463  0.0598
  599SOL    HW2 1797   2.463   1.742   0.204 -2.5769 -2.3566  1.1269
  600SOL     OW 1798   0.980   1.010   0.232 -0.2375 -0.3081 -0.1921
  600SOL    HW1 1799   1.048   1.052   0.168 -0.5891  1.9822 -0.2144
  600SOL    HW2 1800   0.894   1.065   0.242 -2.1542 -0.6014  0.0282
  601SOL     OW 1801   1.352   0.934   0.060 -0.5261 -0.1097  0.4096
  601SOL    HW1 1802   1.263   0.986   0.061 -0.7859  0.9122 -3.7805
  601SOL    HW2 1803   1.348   0.834   0.038  0.6434 -1.0721  1.5700
  602SOL     OW 1804   1.001   3.089   1.472 -0.0222  0.2095  0.6133
  602SOL    HW1 1805   1.045   0.072   1.509  1.3097  0.8649 -0.1631
  602SOL    HW2 1806   0.910   3.075   1.512 -1.0242  1.0902 -1.1420
  603SOL     OW 1807   0.772   2.885   2.319  0.2522 -0.0584  0.5388
  603SOL    HW1 1808   0.853   2.879   2.384  1.5425 -0.0863 -2.5535
  603SOL    HW2 1809   0.810   2.872   2.226 -0.2617 -1.1076  3.7752
  604SOL     OW 1810   0.043   3.080   1.989  0.1666  0.1802  0.0957
  604SOL    HW1 1811   0.076   2.995   2.036  3.0349 -3.5486 -1.9274
  604SOL    HW2 1812   3.057   3.052   1.943  0.5556 -1.8962  1.5646
  605SOL     OW 1813   2.667   2.747   1.583 -0.0192  0.2876 -0.0189
  605SOL    HW1 1814   2.628   2.681   1.653 -1.1798  2.5930  0.4178
  605SOL    HW2 1815   2.749   2.791   1.613  1.7058  0.8141  1.3695
  606SOL     OW 1816   0.028   2.176   2.664 -0.4922 -0.3008 -0.0912
  606SOL    HW1 1817   0.002   2.198   2.761  0.8109  1.5097  1.6997
  606SOL    HW2 1818   0.119   2.137   2.662 -2.6328  1.4132  0.2919
  607SOL     OW 1819   0.805   0.340   0.589  0.2269 -0.0121  0.1346
  607SOL    HW1 1820   0.728   0.402   0.555  0.2699  3.8992 -0.7657
  607SOL    HW2 1821   0.854   0.384   0.671  2.2705 -0.3728  3.3812
  608SOL     OW 1822   1.635   1.793   2.463 -0.0631 -0.0384  0.5901
  608SOL    HW1 1823   1.605   1.701   2.430 -0.5165 -0.0277 -0.9970
  608SOL    HW2 1824   1.592   1.870   2.418  1.7060 -1.3272  1.0585
  609SOL     OW 1825   2.864   0.329   1.121  0.5007  0.4200  0.2037
  609SOL    HW1 1826   2.926   0.385   1.179  0.4266  0.7564 -0.6181
  609SOL    HW2 1827   2.870   0.362   1.027  3.2505  0.2063 -1.9038
  610SOL     OW 1828   0.862   2.406   3.086  0.1635 -0.0498  0.0922
  610SOL    HW1 1829   0.860   2.468   3.005  0.5940  2.5696  3.3130
  610SOL    HW2 1830   0.825   2.456   0.065  0.8613  3.9897 -2.1246
  611SOL     OW 1831   1.913   1.424   0.489  0.3282 -0.1076 -0.0588
  611SOL    HW1 1832   1.928   1.480   0.403 -1.4529  4.5789 -0.8818
  611SOL    HW2 1833   1.826   1.371   0.492  1.2788  1.2859  1.7551
  612SOL     OW 1834   1.006   2.617   2.599  0.0680 -0.2702  0.2917
  612SOL    HW1 1835   0.997   2.716   2.570  2.6355  1.1502  3.5850
  612SOL    HW2 1836   0.948   2.556   2.540  1.0636  2.8812  0.7706
  613SOL     OW 1837   1.195   1.894   0.247 -0.0705 -0.4789 -0.7944
  613SOL    HW1 1838   1.257   1.974   0.275  2.3541 -0.5400  0.6887
  613SOL    HW2 1839   1.102   1.908   0.224  0.9079 -4.0189  0.7503
  614SOL     OW 1840   2.668   2.373   1.591 -0.3949 -0.4809 -0.4006
  614SOL    HW1 1841   2.656   2.337   1.499  1.7833 -1.5494  2.3872
  614SOL    HW2 1842   2.630   2.302   1.658 -2.8879 -3.7982  0.6051
  615SOL     OW 1843   2.241   1.272   0.035 -0.0339  0.2507  0.1595
  615SOL    HW1 1844   2.314   1.316   3.081  0.2570  1.0914 -2.6837
  615SOL    HW2 1845   2.184   1.207   3.078 -0.1026 -1.1291 -0.8491
  616SOL     OW 1846   1.631   0.128   0.686  0.2780 -0.3901  0.4438
  616SOL    HW1 1847   1.644   0.069   0.770 -1.2685  1.5282  0.8805
  616SOL    HW2 1848   1.708   0.144   0.624 -0.3387 -0.2620  1.9197
  617SOL     OW 1849   0.294   1.404   2.745 -0.3015 -0.0705 -0.0460
  617SOL    HW1 1850   0.372   1.455   2.698 -1.0141  4.2963 -0.3392
  617SOL    HW2 1851   0.299   1.307   2.722  0.0776  1.2944 -0.1138
  618SOL     OW 1852   0.534   0.574   1.697 -0.1730 -0.8474  0.2690
  618SOL    HW1 1853   0.562   0.670   1.722  0.0357  0.1212 -0.7112
  618SOL    HW2 1854   0.589   0.544   1.614  2.8006  0.0397 -1.2723
  619SOL     OW 1855   2.848   0.928   1.858 -0.0746  0.0201  0.1041
  619SOL    HW1 1856   2.877   1.002   1.924 -2.3149  1.4669  0.8451
  619SOL    HW2 1857   2.843   0.834   1.901  1.6155 -0.7862 -0.5657
  620SOL     OW 1858   2.008   1.150   3.035  0.4776  0.0021 -0.2867
  620SOL    HW1 1859   1.978   1.055   3.039 -0.6370 -0.9568 -2.6483
  620SOL    HW2 1860   1.958   1.211   0.003 -1.3392  0.6681  2.8979
  621SOL     OW 1861   2.461   2.941   1.199 -0.3046  0.0788 -0.3542
  621SOL    HW1 1862   2.548   2.909   1.245  1.0911  0.6940  0.6935
  621SOL    HW2 1863   2.379   2.940   1.256 -2.6397 -1.0772 -0.4670
  622SOL     OW 1864   1.750   0.618   2.050  0.3475  0.2657 -0.2047
  622SOL    HW1 1865   1.794   0.574   1.973  0.8992  3.2552 -1.0660
  622SOL    HW2 1866   1.660   0.659   2.028  1.0557  0.2622 -0.8853
  623SOL     OW 1867   1.381   1.018   2.420 -0.5910  0.0950  0.1203
  623SOL    HW1 1868   1.397   1.084   2.344  0.0609 -0.1728  0.3674
  623SOL    HW2 1869   1.312   1.052   2.490 -0.4968  0.3610  0.7094
  624SOL     OW 1870   1.862   0.160   0.574 -0.1300 -0.2384 -0.2577
  624SOL    HW1 1871   1.853   0.196   0.477 -0.4831 -0.2830  0.0438
  624SOL    HW2 1872   1.928   0.085   0.585 -1.3100 -1.3507 -1.6346
  625SOL     OW 1873   0.573   1.509   0.445 -0.4218  0.2503  0.2442
  625SOL    HW1 1874   0.663   1.463   0.466 -0.9255  3.1794 -0.5732
  625SOL    HW2 1875   0.563   1.593   0.504  0.5682 -3.0219 -0.9150
  626SOL     OW 1876   1.673   1.173   2.267  0.0899 -0.0032  0.4290
  626SOL    HW1 1877   1.714   1.181   2.170 -1.3352 -2.9254 -3.0182
  626SOL    HW2 1878   1.572   1.192   2.260 -0.3453  1.3017  3.0797
  627SOL     OW 1879   0.905   0.589   1.815 -0.2243  0.1756 -0.3533
  627SOL    HW1 1880   0.967   0.585   1.897 -0.2214 -0.1483 -1.9892
  627SOL    HW2 1881   0.809   0.557   1.835  0.7349 -1.3278  0.2433
  628SOL     OW 1882   2.075   0.956   2.187 -0.8783  0.0983 -0.2935
  628SOL    HW1 1883   2.067   0.875   2.121  1.5855 -2.1216 -3.5283
  628SOL    HW2 1884   2.101   1.040   2.134 -0.8310 -0.4205 -2.0555
  629SOL     OW 1885   0.795   1.340   3.047  0.1166  0.0098  0.6084
  629SOL    HW1 1886   0.728   1.405   3.002 -1.9286  2.0858  1.0613
  629SOL    HW2 1887   0.734   1.263   3.087 -3.2160 -3.3532 -0.9517
  630SOL     OW 1888   1.410   0.527   2.127  0.2886 -0.0081  0.1250
  630SOL    HW1 1889   1.438   0.622   2.102 -2.9179  0.8228  0.7010
  630SOL    HW2 1890   1.381   0.529   2.223 -2.7355 -0.7504 -2.8821
  631SOL     OW 1891   2.574   0.694   1.014 -0.4085  0.5488 -0.0683
  631SOL    HW1 1892   2.578   0.616   0.950 -2.3131 -1.4497 -2.9887
  631SOL    HW2 1893   2.488   0.702   1.064  6.1762  1.0196 -2.4542
  632SOL     OW 1894   2.614   1.636   0.751 -0.5282  0.0653 -0.7651
  632SOL    HW1 1895   2.642   1.554   0.698  0.5324  0.8106  0.6207
  632SOL    HW2 1896   2.620   1.724   0.699 -3.6626 -0.0058 -0.1358
  633SOL     OW 1897   0.733   1.378   0.748 -0.0058  0.0680 -0.5782
  633SOL    HW1 1898   0.698   1.302   0.812  0.1481 -1.0907  1.8145
  633SOL    HW2 1899   0.761   1.346   0.653  0.1815  0.1916  1.0871
  634SOL     OW 1900   1.484   3.058   0.527  0.0848  0.1129 -0.0963
  634SOL    HW1 1901   1.415   0.013   0.481  2.5281  0.3296 -2.5514
  634SOL    HW2 1902   1.554   0.014   0.564 -2.7781 -2.8048 -3.1309
  635SOL     OW 1903   2.058   0.537   1.705  0.3091  0.3410 -0.5017
  635SOL    HW1 1904   2.115   0.484   1.640  0.8310  0.3091  1.9279
  635SOL    HW2 1905   2.066   0.636   1.678 -0.2253  3.4204  0.2077
  636SOL     OW 1906   1.358   0.608   0.700 -0.4333 -0.5338  0.3169
  636SOL    HW1 1907   1.366   0.650   0.788 -0.3675 -1.2318 -0.9473
  636SOL    HW2 1908   1.393   0.512   0.688  1.7349 -0.0995 -2.6818
  637SOL     OW 1909   1.922   1.732   2.977  0.0523  0.1456  0.0274
  637SOL    HW1 1910   1.926   1.796   2.895 -2.1064  2.5084 -0.4619
  637SOL    HW2 1911   2.015   1.715   3.023 -0.0871 -4.3311 -2.3716
  638SOL     OW 1912   0.996   0.027   2.576 -0.3092 -0.1833 -0.2749
  638SOL    HW1 1913   1.064   0.078   2.631 -2.5650 -1.8812  0.3024
  638SOL    HW2 1914   0.907   0.058   2.606  1.5173  1.1502 -0.1894
  639SOL     OW 1915   1.244   1.907   1.454 -0.0807 -0.2905 -0.0711
  639SOL    HW1 1916   1.151   1.894   1.414  3.3583  0.1587 -0.8964
  639SOL    HW2 1917   1.296   1.820   1.451 -0.5957 -1.0467 -0.7898
  640SOL     OW 1918   0.588   0.095   2.757 -0.0843 -0.0598 -0.3400
  640SOL    HW1 1919   0.528   0.107   2.842 -1.4565  1.1762  0.3540
  640SOL    HW2 1920   0.551   0.014   2.705  0.6458 -2.3917  0.7343
  641SOL     OW 1921   0.479   0.792   0.332 -0.5487 -0.0374  0.4392
  641SOL    HW1 1922   0.387   0.758   0.357  0.7821 -0.1777 -0.6123
  641SOL    HW2 1923   0.513   0.849   0.414  0.2384 -0.9606  1.6566
  642SOL     OW 1924   0.268   1.625   1.087 -0.1373  0.3042 -0.1520
  642SOL    HW1 1925   0.317   1.711   1.076 -0.4930 -0.6682  1.1438
  642SOL    HW2 1926   0.292   1.555   1.016  1.6762  0.6469 -0.5192
  643SOL     OW 1927   0.680   1.845   2.733  0.1794  0.3306  0.1168
  643SOL    HW1 1928   0.668   1.937   2.685 -0.3655  0.9079 -0.3246
  643SOL    HW2 1929   0.694   1.851   2.838  3.3238  0.6392  2.3016
  644SOL     OW 1930   1.706   2.270   0.120  0.3328  0.0748 -0.7063
  644SOL    HW1 1931   1.789   2.258   0.180  1.5781 -1.4451 -0.3904
  644SOL    HW2 1932   1.642   2.324   0.173  0.0622 -0.6557 -2.3907
  645SOL     OW 1933   1.387   2.133   1.433  0.1651 -0.3037  0.2382
  645SOL    HW1 1934   1.332   2.050   1.460  2.3045 -1.6108 -0.5090
  645SOL    HW2 1935   1.339   2.184   1.360 -0.1969 -1.9487 -0.3294
  646SOL     OW 1936   0.567   2.558   0.192  0.5314  0.1929 -0.2353
  646SOL    HW1 1937   0.664   2.541   0.221 -0.2871  0.4509 -4.0326
  646SOL    HW2 1938   0.568   2.630   0.121 -0.6596 -1.1658  0.1665
  647SOL     OW 1939   0.131   2.843   2.083 -0.3713  0.1401  0.4795
  647SOL    HW1 1940   0.086   2.816   2.169 -0.3427  1.0226  0.6247
  647SOL    HW2 1941   0.235   2.834   2.091 -1.3197 -2.4706 -1.4299
  648SOL     OW 1942   2.652   1.099   1.117 -0.3998 -0.1705 -0.3340
  648SOL    HW1 1943   2.658   1.036   1.040 -1.0859  2.0509 -1.5999
  648SOL    HW2 1944   2.604   1.051   1.200  2.3236 -1.6419  0.4868
  649SOL     OW 1945   2.056   2.643   2.705  0.0225 -0.4089  0.5807
  649SOL    HW1 1946   2.024   2.633   2.801 -0.4930 -1.6059 -0.5356
  649SOL    HW2 1947   2.054   2.745   2.688  1.1387 -0.9415  0.3933
  650SOL     OW 1948   2.696   2.052   1.958  0.3800  0.4461 -0.1334
  650SOL    HW1 1949   2.626   1.984   1.931  1.4393  1.8653 -1.6546
  650SOL    HW2 1950   2.789   2.010   1.942  2.5401 -1.9831 -0.7041
  651SOL     OW 1951   1.173   1.898   2.946 -0.0630  0.8824 -0.1505
  651SOL    HW1 1952   1.203   1.894   2.847  2.2208  0.7309  1.4816
  651SOL    HW2 1953   1.163   1.806   2.980 -0.8258 -0.0275  0.6239
  652SOL     OW 1954   0.537   2.999   2.206 -0.3976 -0.1138 -0.4458
  652SOL    HW1 1955   0.487   3.043   2.278  2.8607 -0.9941 -0.7412
  652SOL    HW2 1956   0.632   2.973   2.244 -0.8651  2.0278  1.8790
  653SOL     OW 1957   2.149   1.844   0.897 -0.0600 -0.5506 -0.5667
  653SOL    HW1 1958   2.127   1.780   0.974  2.8780  1.1593 -0.3840
  653SOL    HW2 1959   2.254   1.856   0.899  0.0814 -1.3226  0.6730
  654SOL     OW 1960   2.374   2.805   2.222 -0.2251 -0.3688 -0.0325
  654SOL    HW1 1961   2.308   2.778   2.292  2.1800 -2.5041 -0.8268
  654SOL    HW2 1962   2.357   2.897   2.184 -1.0606 -6.0813  0.6299
  655SOL     OW 1963   2.581   2.338   0.928  0.1880  0.1516 -0.2165
  655SOL    HW1 1964   2.611   2.426   0.970  0.4656  2.8217 -1.3822
  655SOL    HW2 1965   2.494   2.347   0.872 -3.3698 -0.1181  1.4559
  656SOL     OW 1966   2.770   1.655   2.847  0.5004  0.4679 -0.2578
  656SOL    HW1 1967   2.735   1.748   2.864  0.1122 -4.1436  2.1342
  656SOL    HW2 1968   2.725   1.593   2.916  2.1483  0.2098  0.2082
  657SOL     OW 1969   0.055   1.210   0.611 -0.3693  0.3431  0.1148
  657SOL    HW1 1970   3.066   1.205   0.569  0.5926 -3.4947  2.0317
  657SOL    HW2 1971   0.048   1.212   0.716 -2.1961 -2.5599  1.2133
  658SOL     OW 1972   1.116   1.665   1.323 -0.0604 -0.3173  0.1949
  658SOL    HW1 1973   1.142   1.609   1.241  0.4774  0.9932  0.8825
  658SOL    HW2 1974   1.019   1.687   1.324  0.4915 -1.1942 -0.6719
  659SOL     OW 1975   1.249   3.020   1.355 -0.6594  0.0515 -0.1281
  659SOL    HW1 1976   1.228   3.086   1.281 -0.4456  3.1332  0.8236
  659SOL    HW2 1977   1.188   3.042   1.436  2.8300  0.8034  1.4066
  660SOL     OW 1978   2.339   0.427   0.923  0.1382 -0.2201  0.5479
  660SOL    HW1 1979   2.316   0.426   0.824 -1.4873  2.7435  1.0063
  660SOL    HW2 1980   2.259   0.397   0.973  0.4702 -0.6831 -0.5637
  661SOL     OW 1981   0.413   1.855   0.195  0.5500  0.7229 -0.5830
  661SOL    HW1 1982   0.494   1.793   0.192  1.4994 -2.1058 -0.7634
  661SOL    HW2 1983   0.434   1.949   0.152 -1.7090  3.0691  0.1622
  662SOL     OW 1984   2.356   1.009   1.958  0.2727  0.3229  0.0347
  662SOL    HW1 1985   2.384   0.912   1.948 -0.7507 -1.9400  0.4590
  662SOL    HW2 1986   2.314   1.033   1.866 -1.0495  0.3746 -0.5017
  663SOL     OW 1987   1.818   1.378   1.125  0.4942  1.1597 -0.3249
  663SOL    HW1 1988   1.867   1.312   1.063  1.5343 -1.5975  2.0150
  663SOL    HW2 1989   1.837   1.354   1.224 -0.3645  1.1572 -0.6629
  664SOL     OW 1990   0.424   0.078   1.307 -0.1270 -0.5488  0.5653
  664SOL    HW1 1991   0.504   0.058   1.246  0.6585 -0.1080  0.7726
  664SOL    HW2 1992   0.441   0.037   1.401  1.7605 -2.3651  0.8858
  665SOL     OW 1993   1.301   0.552   2.706  0.1126  0.1789  0.4790
  665SOL    HW1 1994   1.379   0.498   2.746 -1.3042 -1.4168 -2.7582
  665SOL    HW2 1995   1.337   0.631   2.651  2.0883  0.3406  0.7390
  666SOL     OW 1996   0.789   0.562   2.282 -0.2009  0.1225  0.4884
  666SOL    HW1 1997   0.824   0.472   2.253 -1.2679  0.7938  2.2883
  666SOL    HW2 1998   0.724   0.606   2.219 -0.0275 -2.7097  0.8986
  667SOL     OW 1999   1.412   1.442   1.430  0.2492  0.2822 -0.0056
  667SOL    HW1 2000   1.325   1.456   1.481  1.5615 -0.5012 -0.4830
  667SOL    HW2 2001   1.385   1.407   1.336  2.0377 -3.5025 -1.2722
  668SOL     OW 2002   0.377   1.152   2.230  0.8026 -0.0214  0.0662
  668SOL    HW1 2003   0.462   1.099   2.212  0.2385  3.9301 -1.4152
  668SOL    HW2 2004   0.401   1.250   2.199 -0.7026  3.5877 -0.8510
  669SOL     OW 2005   2.650   2.567   2.993 -0.3167  0.3914  0.0602
  669SOL    HW1 2006   2.719   2.515   2.932  2.2445  0.4650 -0.4992
  669SOL    HW2 2007   2.618   2.521   3.077  0.1184  1.3805 -1.5876
  670SOL     OW 2008   2.861   1.305   1.857 -0.5061 -0.4099  0.1814
  670SOL    HW1 2009   2.960   1.297   1.830  0.4481  1.5561  0.8204
  670SOL    HW2 2010   2.789   1.287   1.788 -2.5203 -0.8610 -2.4824
  671SOL     OW 2011   2.617   1.861   0.563 -0.3194  0.1274  0.2362
  671SOL    HW1 2012   2.542   1.873   0.495 -1.8626 -1.7290 -0.1113
  671SOL    HW2 2013   2.705   1.853   0.515  3.5015  0.0551  3.1486
  672SOL     OW 2014   1.596   0.986   1.909  0.3034  0.4998 -0.1905
  672SOL    HW1 2015   1.682   1.029   1.942  2.3287  1.6916 -1.2494
  672SOL    HW2 2016   1.600   0.988   1.805 -2.4410  1.0068 -2.4295
  673SOL     OW 2017   2.700   2.066   1.437 -0.4144 -0.7651  0.0273
  673SOL    HW1 2018   2.677   2.161   1.407 -0.1905 -0.3022 -3.9794
  673SOL    HW2 2019   2.707   1.998   1.363  1.0922 -0.0503  2.3889
  674SOL     OW 2020   0.887   1.899   1.615  0.1107  0.1174 -0.6219
  674SOL    HW1 2021   0.910   1.851   1.702  0.4416  0.7312  1.2850
  674SOL    HW2 2022   0.882   2.001   1.629  2.1822  4.9511 -0.7480
  675SOL     OW 2023   2.956   0.750   1.191  0.1982 -0.4519 -0.2282
  675SOL    HW1 2024   3.039   0.793   1.233 -4.1982  0.5919  2.5728
  675SOL    HW2 2025   2.978   0.660   1.159  2.3709  1.3222  0.1267
  676SOL     OW 2026   2.901   0.919   1.586 -0.2361 -0.1567  0.7338
  676SOL    HW1 2027   2.872   0.917   1.684 -1.6222  2.0038 -1.3761
  676SOL    HW2 2028   2.846   0.860   1.524  2.0188  1.8081 -0.6999
  677SOL     OW 2029   2.085   1.195   2.529  0.0658 -0.2348  0.2812
  677SOL    HW1 2030   1.985   1.197   2.502  0.5231 -0.2306  0.8753
  677SOL    HW2 2031   2.094   1.212   2.629 -0.0715 -1.9742 -0.9499
  678SOL     OW 2032   2.512   1.561   1.069 -0.3669  0.3303 -0.2627
  678SOL    HW1 2033   2.537   1.483   1.011  0.2650 -0.8094  1.0193
  678SOL    HW2 2034   2.595   1.611   1.108  0.5212 -1.0744  0.0822
  679SOL     OW 2035   0.171   2.749   0.138 -0.1189  0.2022  0.0648
  679SOL    HW1 2036   0.209   2.691   0.062  0.8071  0.3897 -1.3671
  679SOL    HW2 2037   0.170   2.694   0.228  1.2621 -1.2728  2.7037
  680SOL     OW 2038   3.096   1.709   1.044 -0.3889 -0.4108  0.1461
  680SOL    HW1 2039   0.088   1.672   1.066 -2.4519 -0.7983  0.5886
  680SOL    HW2 2040   3.089   1.807   1.077 -1.8733  5.4369  0.3500
  681SOL     OW 2041   1.196   0.102   0.921 -0.6901  0.0795 -0.0592
  681SOL    HW1 2042   1.176   0.178   0.851 -0.2044  1.1423  3.0011
  681SOL    HW2 2043   1.275   0.047   0.887 -0.2152  2.3860  0.2639
  682SOL     OW 2044   1.918   2.503   1.688  0.4388 -0.8962  0.0456
  682SOL    HW1 2045   2.015   2.519   1.681 -0.0478  0.2533 -0.4901
  682SOL    HW2 2046   1.869   2.485   1.602  1.8590  1.0138  2.4350
  683SOL     OW 2047   2.565   1.802   1.848 -0.0629  0.0455 -0.4472
  683SOL    HW1 2048   2.583   1.829   1.753  0.9981  0.3596  1.6140
  683SOL    HW2 2049   2.624   1.724   1.873  1.9264  1.5412  1.9785
  684SOL     OW 2050   0.006   1.653   1.694  0.1709 -0.8000  0.0532
  684SOL    HW1 2051   3.014   1.693   1.674  1.8342  1.9158  0.3695
  684SOL    HW2 2052   0.071   1.723   1.730  0.5236  0.7098  2.4781
  685SOL     OW 2053   1.439   1.402   0.260 -0.3164 -0.4350 -0.0366
  685SOL    HW1 2054   1.499   1.473   0.299 -0.8826 -1.2165 -1.9955
  685SOL    HW2 2055   1.497   1.337   0.208 -2.2746 -0.0927 -0.4451
  686SOL     OW 2056   2.983   0.525   1.836  0.0895  0.3129 -0.0463
  686SOL    HW1 2057   3.074   0.500   1.870 -0.9234  1.1008  0.6220
  686SOL    HW2 2058   2.970   0.533   1.735 -2.0069 -2.1326 -0.8259
  687SOL     OW 2059   1.448   0.202   2.680  0.1484 -0.0449  0.3117
  687SOL    HW1 2060   1.522   0.146   2.721 -2.4530  0.7506 -0.2259
  687SOL    HW2 2061   1.365   0.203   2.734  2.4649  0.2322  1.1300
  688SOL     OW 2062   1.246   1.653   2.617  0.2973  0.4790  0.2158
  688SOL    HW1 2063   1.224   1.610   2.526  1.0278 -1.0414  1.1340
  688SOL    HW2 2064   1.244   1.754   2.617 -0.8484  1.0006 -1.9758
  689SOL     OW 2065   2.407   1.576   1.684 -0.5725 -0.6111 -0.9231
  689SOL    HW1 2066   2.439   1.561   1.781 -1.3573  1.9335  0.7830
  689SOL    HW2 2067   2.479   1.608   1.620 -0.0127 -0.2871  1.8031
  690SOL     OW 2068   2.343   2.206   1.309 -0.3801 -0.2464 -0.1942
  690SOL    HW1 2069   2.345   2.205   1.410  0.4147 -0.5207 -3.7901
  690SOL    HW2 2070   2.305   2.117   1.278 -0.2356  0.3178 -1.1859
  691SOL     OW 2071   0.205   1.677   0.637  0.6192 -0.0425  0.5348
  691SOL    HW1 2072   0.254   1.738   0.568  2.6974  2.2721 -2.3665
  691SOL    HW2 2073   0.138   1.730   0.691  0.9769 -1.2005  1.4826
  692SOL     OW 2074   2.816   2.958   2.689 -0.1818 -0.1042  0.2195
  692SOL    HW1 2075   2.861   3.038   2.735  1.6155 -0.5336  2.8303
  692SOL    HW2 2076   2.785   2.998   2.600 -2.6742  2.8197 -2.9709
  693SOL     OW 2077   0.391   1.386   2.117  0.3414  0.3912  0.0495
  693SOL    HW1 2078   0.360   1.372   2.020  1.3007 -1.1572  1.4217
  693SOL    HW2 2079   0.326   1.445   2.163  3.0616 -3.0252 -3.4711
  694SOL     OW 2080   2.535   0.382   2.034  0.2246 -0.2191 -0.0797
  694SOL    HW1 2081   2.633   0.365   2.002  1.7919 -0.7967  0.5392
  694SOL    HW2 2082   2.474   0.332   1.967  1.7822 -0.7070  1.1422
  695SOL     OW 2083   1.500   0.787   2.086  0.6527 -0.2000  0.3831
  695SOL    HW1 2084   1.508   0.808   2.186 -0.6022  2.2839 -1.1413
  695SOL    HW2 2085   1.527   0.869   2.030 -2.0793  1.5929  0.4650
  696SOL     OW 2086   2.174   2.804   1.703 -0.0248  0.1135  0.0181
  696SOL    HW1 2087   2.165   2.844   1.792  2.0778  0.7318 -0.9712
  696SOL    HW2 2088   2.108   2.839   1.630  1.2800  0.0176 -0.2118
  697SOL     OW 2089   1.070   0.458   2.031 -0.1301 -0.0909  0.5976
  697SOL    HW1 2090   1.004   0.417   2.098  1.6821  1.9255  1.1474
  697SOL    HW2 2091   1.138   0.511   2.086  0.9492  1.4149  2.0149
  698SOL     OW 2092   2.247   1.611   2.807 -0.7484  0.4507  0.1446
  698SOL    HW1 2093   2.303   1.529   2.810 -0.9738  3.0789 -0.5395
  698SOL    HW2 2094   2.155   1.590   2.764 -0.8562  1.8752  0.5094
  699SOL     OW 2095   2.128   0.777   0.382  0.1296 -0.2869  0.4555
  699SOL    HW1 2096   2.068   0.782   0.296 -4.2289  1.0156 -3.1364
  699SOL    HW2 2097   2.161   0.866   0.416  0.0275 -2.0549  0.1580
  700SOL     OW 2098   1.379   3.038   0.818 -0.5030  0.4244 -0.1222
  700SOL    HW1 2099   1.395   3.095   0.736 -0.1787  0.3317 -0.4869
  700SOL    HW2 2100   1.463   3.021   0.872 -1.0282  0.0403 -0.4544
  701SOL     OW 2101   3.022   0.508   0.627 -0.6816 -0.0225  0.7378
  701SOL    HW1 2102   2.994   0.589   0.573  1.9607 -1.4875  0.9021
  701SOL    HW2 2103   2.998   0.520   0.723  0.5578  0.6696 -0.7248
  702SOL     OW 2104   1.834   2.451   1.428 -0.3008 -1.0892  0.3148
  702SOL    HW1 2105   1.771   2.374   1.413  0.9270  2.5214 -0.2672
  702SOL    HW2 2106   1.839   2.519   1.347 -0.3549 -1.0211 -0.2485
  703SOL     OW 2107   0.008   0.524   1.176  0.1694 -0.4065 -0.1895
  703SOL    HW1 2108   3.085   0.540   1.273  0.6118 -0.2075 -1.5563
  703SOL    HW2 2109   0.103   0.550   1.168  0.0538  1.8296 -0.2792
  704SOL     OW 2110   1.021   2.741   1.690 -0.0875 -0.6284 -0.1786
  704SOL    HW1 2111   1.055   2.730   1.594 -0.9420  3.0914 -0.0863
  704SOL    HW2 2112   0.927   2.781   1.691  2.5797  0.7795  1.0576
  705SOL     OW 2113   3.097   1.851   3.061  0.1132  0.0216  0.3564
  705SOL    HW1 2114   0.052   1.791   0.016  1.6840 -1.4348  0.7317
  705SOL    HW2 2115   3.034   1.915   0.010  0.6993 -0.6308  0.9090
  706SOL     OW 2116   0.069   0.518   0.163 -0.3462 -0.0949 -0.2624
  706SOL    HW1 2117   0.119   0.485   0.081  1.2027  1.0641  1.4340
  706SOL    HW2 2118   0.077   0.446   0.236  3.5176  1.1018 -1.5478
  707SOL     OW 2119   1.740   2.861   1.970  0.6898  0.0546  0.4821
  707SOL    HW1 2120   1.647   2.870   1.931  1.5023  0.1677 -0.8896
  707SOL    HW2 2121   1.739   2.846   2.069  0.8464  0.9825 -2.9166
  708SOL     OW 2122   0.496   3.053   1.547 -0.2541  0.2424 -0.0925
  708SOL    HW1 2123   0.438   2.970   1.539 -2.7049 -1.1786  1.1039
  708SOL    HW2 2124   0.491   0.000   1.632 -1.1307 -0.0544 -3.0267
  709SOL     OW 2125   0.305   0.731   1.717  0.3920 -0.0807  0.0632
  709SOL    HW1 2126   0.254   0.719   1.634  1.0154  1.7184  2.4308
  709SOL    HW2 2127   0.369   0.655   1.745  2.9083 -1.8928  0.6049
  710SOL     OW 2128   0.198   0.565   0.531  0.3859  0.0763 -0.2280
  710SOL    HW1 2129   0.169   0.487   0.475 -0.3928  3.1163  1.5396
  710SOL    HW2 2130   0.151   0.642   0.492 -0.4369  0.0448  0.3697
  711SOL     OW 2131   2.416   2.326   2.014 -0.0885 -0.2092 -0.0530
  711SOL    HW1 2132   2.443   2.291   2.105  0.2443 -0.3159 -1.4244
  711SOL    HW2 2133   2.399   2.427   2.022  1.1241  0.2386 -1.1342
  712SOL     OW 2134   0.143   2.623   2.347  0.5713  0.0530  0.4454
  712SOL    HW1 2135   0.173   2.720   2.363  0.1238  1.0152  1.6953
  712SOL    HW2 2136   0.048   2.627   2.310 -0.6874  0.9043 -0.7732
  713SOL     OW 2137   2.517   0.130   0.496  0.5006  0.4380  0.3168
  713SOL    HW1 2138   2.566   0.213   0.457  1.4896  0.1695 -2.2484
  713SOL    HW2 2139   2.589   0.062   0.514  0.5626 -1.2342 -0.9859
  714SOL     OW 2140   1.752   1.571   2.673  0.3266 -0.1284 -0.4062
  714SOL    HW1 2141   1.655   1.564   2.705 -2.7766 -1.2156 -2.2503
  714SOL    HW2 2142   1.762   1.638   2.595  1.7726 -0.4127  0.0486
  715SOL     OW 2143   3.008   0.572   0.913  0.0907 -0.3785  0.2717
  715SOL    HW1 2144   3.064   0.540   0.992 -1.2376 -0.8267  0.0998
  715SOL    HW2 2145   3.043   0.667   0.879 -0.2858 -0.0035  1.2334
  716SOL     OW 2146   0.876   0.626   1.552 -0.0971 -0.2091 -0.0009
  716SOL    HW1 2147   0.801   0.573   1.504  0.4858 -0.3260  0.7453
  716SOL    HW2 2148   0.889   0.609   1.653  0.2451 -0.4549  3.4475
  717SOL     OW 2149   1.219   0.795   2.283  0.9184  0.6416 -0.9562
  717SOL    HW1 2150   1.251   0.858   2.357  0.7560 -1.4247  0.5037
  717SOL    HW2 2151   1.223   0.842   2.190 -2.3098  1.7655 -0.4897
  718SOL     OW 2152   1.236   0.100   0.492 -0.2640  0.2881 -0.4875
  718SOL    HW1 2153   1.207   0.158   0.569  0.3772 -0.9231  0.1193
  718SOL    HW2 2154   1.189   0.118   0.404  2.1177 -0.4102 -4.4521
  719SOL     OW 2155   3.021   2.769   2.840  0.3880  0.4382  0.2697
  719SOL    HW1 2156   2.959   2.803   2.767  3.1847  1.8716  0.6541
  719SOL    HW2 2157   3.014   2.667   2.856 -0.6970  3.6661  0.7621
  720SOL     OW 2158   1.565   0.490   1.810  0.1169  0.2789 -0.0372
  720SOL    HW1 2159   1.540   0.393   1.833 -2.0369  0.0247 -1.7365
  720SOL    HW2 2160   1.659   0.492   1.776 -1.8364 -1.4055 -0.7466
  721SOL     OW 2161   0.086   2.826   1.166 -0.3192 -0.1765  0.0764
  721SOL    HW1 2162   0.084   2.918   1.117 -1.2433  0.4069 -2.2975
  721SOL    HW2 2163   0.019   2.766   1.120  1.4405 -0.1532 -0.1064
  722SOL     OW 2164   0.495   1.135   2.764  0.0809 -0.0559  0.4744
  722SOL    HW1 2165   0.569   1.202   2.753 -2.0748  0.3075  0.9822
  722SOL    HW2 2166   0.452   1.146   2.860  0.1919  1.5422  0.4309
  723SOL     OW 2167   2.176   1.297   1.293  0.3143  0.3930 -0.2007
  723SOL    HW1 2168   2.186   1.364   1.215  2.1783 -0.4068  2.1004
  723SOL    HW2 2169   2.173   1.345   1.381  0.0671 -3.0321 -2.3555
  724SOL     OW 2170   0.795   1.843   0.296  0.7735  0.5967  0.2167
  724SOL    HW1 2171   0.844   1.822   0.381 -0.7693  0.8077 -0.4864
  724SOL    HW2 2172   0.860   1.881   0.233  0.3527  0.9436  2.7347
  725SOL     OW 2173   0.067   0.806   1.543  0.6826  0.3515  0.4683
  725SOL    HW1 2174   0.110   0.867   1.472  0.0686  0.8719 -0.4943
  725SOL    HW2 2175   3.098   0.852   1.591  1.9725 -0.0453 -1.4937
  726SOL     OW 2176   2.253   0.900   2.899 -0.2687 -0.6286  0.0497
  726SOL    HW1 2177   2.290   0.923   2.808  1.9573 -2.0290  1.9206
  726SOL    HW2 2178   2.314   0.836   2.945 -1.1935  1.0772 -1.7337
  727SOL     OW 2179   2.199   0.953   2.427 -0.3324  0.3152 -0.2005
  727SOL    HW1 2180   2.143   1.022   2.481 -0.0128  3.4444 -2.2456
  727SOL    HW2 2181   2.156   0.954   2.334  0.0512 -0.0975  0.5206
  728SOL     OW 2182   1.724   1.984   1.271 -0.7766 -0.2149  0.2832
  728SOL    HW1 2183   1.693   2.072   1.301  5.2646 -1.5031 -2.2886
  728SOL    HW2 2184   1.772   1.991   1.179  1.2638  1.3613  1.1823
  729SOL     OW 2185   1.820   1.128   1.984  0.3402  0.3990  0.3314
  729SOL    HW1 2186   1.762   1.215   1.968 -1.9840  1.2564 -0.5265
  729SOL    HW2 2187   1.917   1.152   2.003 -2.5206  0.6906 -1.3927
  730SOL     OW 2188   1.646   0.746   1.002 -0.0583 -0.1053 -0.8933
  730SOL    HW1 2189   1.694   0.679   1.059 -0.0500  0.2133 -2.0821
  730SOL    HW2 2190   1.661   0.704   0.911  0.7442 -1.6162  2.5771
  731SOL     OW 2191   0.675   0.820   3.018  0.3718  0.1898  0.5606
  731SOL    HW1 2192   0.738   0.797   2.945 -1.6157  1.0370 -0.0207
  731SOL    HW2 2193   0.691   0.766   3.101 -1.7652  0.5819 -0.9611
  732SOL     OW 2194   0.570   1.048   0.490  0.3162  0.8618 -0.4817
  732SOL    HW1 2195   0.651   1.054   0.550  1.1121  1.0966 -1.9697
  732SOL    HW2 2196   0.482   1.046   0.541 -0.3363 -3.1922 -1.4309
  733SOL     OW 2197   1.421   1.481   2.179  0.3210  0.2379  0.9715
  733SOL    HW1 2198   1.330   1.513   2.223  2.7221 -0.2564  1.5701
  733SOL    HW2 2199   1.417   1.505   2.076 -2.0019 -0.9901 -3.5273
  734SOL     OW 2200   0.309   2.337   3.022 -0.0575 -0.0278 -0.2422
  734SOL    HW1 2201   0.219   2.297   3.041 -0.1301 -1.9826  0.3537
  734SOL    HW2 2202   0.361   2.274   2.957 -0.7612  2.0152  0.4484
  735SOL     OW 2203   2.562   0.289   0.877  0.0214 -0.4208  0.7617
  735SOL    HW1 2204   2.477   0.337   0.908  1.1360 -2.0666 -1.8522
  735SOL    HW2 2205   2.642   0.356   0.871  0.2126  1.8520  1.4420
  736SOL     OW 2206   1.987   1.528   2.432  0.2607 -0.2275 -0.2833
  736SOL    HW1 2207   2.083   1.506   2.402  1.5697 -0.3770 -0.7979
  736SOL    HW2 2208   1.974   1.623   2.473 -0.2840  2.0054 -0.7970
  737SOL     OW 2209   0.181   0.751   0.290  0.2318 -0.0906 -0.2658
  737SOL    HW1 2210   0.196   0.843   0.248 -1.8212  0.5324 -1.1750
  737SOL    HW2 2211   0.156   0.675   0.225  1.7584 -1.8954  0.5157
  738SOL     OW 2212   0.960   1.939   1.328  0.0035 -0.3307 -0.7793
  738SOL    HW1 2213   0.910   1.854   1.295 -1.2917 -2.5284 -1.0617
  738SOL    HW2 2214   0.955   1.941   1.431  0.4817  2.3622  1.5627
  739SOL     OW 2215   1.534   2.780   2.325 -0.5149  0.5512  0.6978
  739SOL    HW1 2216   1.555   2.741   2.415 -1.1083  2.4029 -1.7081
  739SOL    HW2 2217   1.604   2.852   2.297  1.6299 -0.2221  0.1691
  740SOL     OW 2218   2.358   2.468   1.236  0.6697  0.4457  0.2474
  740SOL    HW1 2219   2.343   2.368   1.274  0.0327 -1.9812  1.4456
  740SOL    HW2 2220   2.455   2.487   1.214  0.5904 -0.8084  2.4528
  741SOL     OW 2221   2.296   0.452   3.055  0.0249 -0.4314 -0.0410
  741SOL    HW1 2222   2.354   0.372   3.035  0.4515  2.1464  3.6099
  741SOL    HW2 2223   2.255   0.431   0.045  1.2570  1.4815 -0.7850
  742SOL     OW 2224   1.087   2.314   0.099 -0.0390 -0.0937 -0.1732
  742SOL    HW1 2225   0.993   2.324   0.057 -0.5761  0.1086 -1.4998
  742SOL    HW2 2226   1.145   2.395   0.070  0.4611  0.3636 -1.0923
  743SOL     OW 2227   2.610   1.309   2.319 -0.0940 -0.0851  0.4850
  743SOL    HW1 2228   2.702   1.274   2.336  1.5813 -0.5532  1.3402
  743SOL    HW2 2229   2.561   1.247   2.256  1.2394  0.2413 -1.1654
  744SOL     OW 2230   3.096   0.090   0.329 -0.6928  0.5381  0.3013
  744SOL    HW1 2231   3.048   0.039   0.404 -1.6380 -0.8527  1.1670
  744SOL    HW2 2232   3.041   0.088   0.239 -1.1358  2.7539 -3.0907
  745SOL     OW 2233   2.473   1.655   1.395  0.2759  0.0878  0.1701
  745SOL    HW1 2234   2.496   1.554   1.379 -2.3066 -2.8269 -1.4142
  745SOL    HW2 2235   2.423   1.689   1.316 -0.7717  2.3709  0.0335
  746SOL     OW 2236   0.926   1.763   0.528 -0.1176  0.1770 -0.8363
  746SOL    HW1 2237   0.968   1.743   0.621  1.7615 -1.6328  0.6336
  746SOL    HW2 2238   0.941   1.681   0.470 -3.7167 -1.7175  3.1294
  747SOL     OW 2239   1.143   1.545   1.570  0.1838  0.0175  0.1634
  747SOL    HW1 2240   1.132   1.598   1.482  2.8921  2.5842 -0.9524
  747SOL    HW2 2241   1.093   1.458   1.562 -1.8098  2.1908 -3.0763
  748SOL     OW 2242   0.388   2.935   2.999  0.1016  0.1701  0.2218
  748SOL    HW1 2243   0.320   2.888   2.936  0.5665 -1.9468 -0.2254
  748SOL    HW2 2244   0.395   3.037   2.981 -1.1664 -1.9922 -0.3548
  749SOL     OW 2245   0.200   0.993   2.801 -0.2929  0.1746 -0.1932
  749SOL    HW1 2246   0.282   0.964   2.855 -0.7578 -0.7201 -1.0632
  749SOL    HW2 2247   0.232   1.006   2.704 -0.8501 -0.5012  1.3349
  750SOL     OW 2248   1.564   1.096   1.560 -0.2191  0.7842 -0.2715
  750SOL    HW1 2249   1.485   1.107   1.492 -1.0159 -1.9297  1.1602
  750SOL    HW2 2250   1.616   1.184   1.567  1.0551  2.0402 -1.1335
  751SOL     OW 2251   2.916   0.723   0.480  0.3015 -0.0265 -0.2113
  751SOL    HW1 2252   2.897   0.689   0.386 -0.0485 -1.7216  4.3086
  751SOL    HW2 2253   2.984   0.797   0.481 -1.0443  1.2638  0.4154
  752SOL     OW 2254   2.812   2.791   0.944 -0.0138 -0.2968  0.9353
  752SOL    HW1 2255   2.816   2.894   0.946 -0.4136 -0.7493  0.9220
  752SOL    HW2 2256   2.890   2.748   0.995  0.4018  1.9280  1.2592
  753SOL     OW 2257   0.900   2.401   1.224  0.1651 -0.5610 -0.7012
  753SOL    HW1 2258   0.927   2.388   1.324  0.8996  0.9027  2.4067
  753SOL    HW2 2259   0.805   2.378   1.203 -0.8932 -0.3768  0.8555
  754SOL     OW 2260   0.126   2.463   2.087  0.6793  0.2391 -0.6598
  754SOL    HW1 2261   0.079   2.540   2.133 -0.0587  2.3884  2.3951
  754SOL    HW2 2262   0.079   2.447   1.994 -1.4668  0.3065 -1.9261
  755SOL     OW 2263   2.412   0.690   2.989  0.5545  0.1111  0.3978
  755SOL    HW1 2264   2.510   0.660   2.977 -2.8782 -1.6179 -0.1049
  755SOL    HW2 2265   2.348   0.615   3.005  1.2114 -2.3058  0.7941
  756SOL     OW 2266   1.916   2.231   0.275  0.5286 -0.1950 -0.6777
  756SOL    HW1 2267   1.954   2.326   0.281  3.3352  0.6803  0.7702
  756SOL    HW2 2268   1.957   2.177   0.351 -1.7863 -1.5995  0.4386
  757SOL     OW 2269   2.496   0.435   0.474  0.4786  0.0933  1.0270
  757SOL    HW1 2270   2.433   0.498   0.424  2.4128  1.9264  1.2159
  757SOL    HW2 2271   2.577   0.485   0.522  1.2319  1.8698  0.9281
  758SOL     OW 2272   2.159   1.065   1.732  0.1490 -0.2469 -0.5555
  758SOL    HW1 2273   2.091   1.017   1.793  0.2908 -1.0235  1.7857
  758SOL    HW2 2274   2.178   1.012   1.650  1.7184  1.6985  1.3199
  759SOL     OW 2275   2.608   0.522   1.423 -0.1054  0.0479 -0.2225
  759SOL    HW1 2276   2.530   0.581   1.406 -0.0945 -1.4804  0.5893
  759SOL    HW2 2277   2.610   0.445   1.353 -1.3929 -2.7178  0.2760
  760SOL     OW 2278   0.473   1.429   1.444  0.1012  0.3267  0.4299
  760SOL    HW1 2279   0.417   1.513   1.439 -0.6948 -3.2160 -0.4608
  760SOL    HW2 2280   0.411   1.350   1.464 -0.0847  0.9613  1.8751
  761SOL     OW 2281   0.931   0.732   0.153  0.7284  0.5871 -0.0098
  761SOL    HW1 2282   0.829   0.701   0.172 -1.1572  0.4430  1.0399
  761SOL    HW2 2283   0.938   0.827   0.174 -1.7894 -1.9075 -2.5404
  762SOL     OW 2284   0.849   1.687   1.279 -0.5779 -0.1893  0.3144
  762SOL    HW1 2285   0.818   1.616   1.209 -0.2130  2.0159 -1.4282
  762SOL    HW2 2286   0.773   1.708   1.344  0.0487  2.5469 -1.1615
  763SOL     OW 2287   1.126   0.753   1.648 -0.5519  0.0439  0.3566
  763SOL    HW1 2288   1.194   0.721   1.715 -1.2400  3.2467 -0.2642
  763SOL    HW2 2289   1.044   0.694   1.638 -0.1250 -1.0314  1.2167
  764SOL     OW 2290   0.100   2.976   2.855  0.1857 -0.8284  0.0566
  764SOL    HW1 2291   0.105   3.047   2.929 -0.6350 -0.9053  0.5244
  764SOL    HW2 2292   0.021   2.917   2.868  0.5436  2.5233 -1.0921
  765SOL     OW 2293   0.867   3.074   1.762  0.0203  0.0130 -0.2030
  765SOL    HW1 2294   0.802   3.065   1.839  0.2423 -0.6279 -2.2941
  765SOL    HW2 2295   0.850   3.011   1.679 -1.0882 -3.8475 -3.1467
  766SOL     OW 2296   2.692   1.764   2.262  0.5110 -0.5518 -0.1240
  766SOL    HW1 2297   2.589   1.762   2.279 -4.1155  2.6973  1.0751
  766SOL    HW2 2298   2.747   1.779   2.347 -0.3902 -0.0383  1.6169
  767SOL     OW 2299   1.421   1.195   2.225 -0.2336 -0.1448  0.5734
  767SOL    HW1 2300   1.427   1.300   2.227  0.6407 -0.1120  1.7856
  767SOL    HW2 2301   1.379   1.175   2.133  1.2812  0.8936 -1.7909
  768SOL     OW 2302   1.628   1.587   0.364 -0.2743  0.6288 -0.2905
  768SOL    HW1 2303   1.612   1.653   0.441 -1.5167 -0.4435  3.4120
  768SOL    HW2 2304   1.652   1.636   0.270  0.2945  1.6080 -3.8683
  769SOL     OW 2305   0.388   1.486   0.852 -0.1870  0.4826 -0.6529
  769SOL    HW1 2306   0.352   1.542   0.773  0.6830  0.8581  1.0354
  769SOL    HW2 2307   0.486   1.500   0.866 -0.7099  1.5310 -1.9424
  770SOL     OW 2308   1.574   0.846   2.347  0.2559 -0.1741 -0.4092
  770SOL    HW1 2309   1.663   0.879   2.384 -1.0133  1.0715 -0.6967
  770SOL    HW2 2310   1.498   0.907   2.389 -2.5933  0.8142  2.1313
  771SOL     OW 2311   2.514   0.102   2.439 -0.4240  0.3004  0.1293
  771SOL    HW1 2312   2.453   0.145   2.365 -1.8404 -0.1646 -3.5579
  771SOL    HW2 2313   2.462   0.064   2.514 -2.5352 -0.9600 -1.9550
  772SOL     OW 2314   2.429   1.754   2.295  0.3536  0.3787 -0.1865
  772SOL    HW1 2315   2.341   1.741   2.250  2.2143  0.6009  0.0362
  772SOL    HW2 2316   2.463   1.667   2.333  1.8540  1.5042 -2.3565
  773SOL     OW 2317   0.976   1.343   1.512  1.2339 -0.3909 -0.0295
  773SOL    HW1 2318   0.982   1.280   1.436  1.4472 -1.0845 -0.5509
  773SOL    HW2 2319   0.906   1.414   1.501  1.0204 -1.9905  2.5168
  774SOL     OW 2320   1.102   0.589   2.931 -0.0733 -0.9606  0.0201
  774SOL    HW1 2321   1.075   0.676   2.890  0.0692  0.5538 -0.7966
  774SOL    HW2 2322   1.152   0.535   2.862  0.2796  0.8429 -1.6013
  775SOL     OW 2323   1.531   2.056   0.090  0.0997  0.2722 -0.1119
  775SOL    HW1 2324   1.586   2.140   0.096  1.7872 -1.5952 -1.5853
  775SOL    HW2 2325   1.440   2.089   0.063  1.3354  3.6595  1.8113
  776SOL     OW 2326   0.088   1.120   1.655 -0.1605 -0.0225  0.0325
  776SOL    HW1 2327   0.109   1.050   1.724 -0.5991  1.6261 -1.0429
  776SOL    HW2 2328   0.062   1.210   1.691  3.5175 -4.9241 -0.4622
  777SOL     OW 2329   2.502   2.239   2.278 -0.2172  0.4157  0.1031
  777SOL    HW1 2330   2.572   2.311   2.301  0.6263 -0.6664 -0.6056
  777SOL    HW2 2331   2.551   2.151   2.266 -0.5356 -0.8059  3.2605
  778SOL     OW 2332   1.662   1.321   1.952 -0.6335 -0.5096  0.2794
  778SOL    HW1 2333   1.580   1.329   1.896  1.8898 -0.5290  0.6219
  778SOL    HW2 2334   1.718   1.402   1.937  1.5100  2.5689  0.5301
  779SOL     OW 2335   2.880   1.192   0.518 -0.2831 -0.2744 -0.7709
  779SOL    HW1 2336   2.794   1.153   0.553  2.9242  0.9903  1.1487
  779SOL    HW2 2337   2.874   1.249   0.436 -0.2895 -0.7376  1.1696
  780SOL     OW 2338   2.115   2.933   2.628  0.1123  0.5130 -0.3978
  780SOL    HW1 2339   2.096   3.015   2.571  0.8016 -0.6411 -0.9700
  780SOL    HW2 2340   2.067   2.955   2.717  1.7827 -0.3710  0.5329
  781SOL     OW 2341   2.707   1.673   1.215 -0.0098 -0.2016  0.1712
  781SOL    HW1 2342   2.766   1.594   1.192 -2.3810  0.2024  1.7163
  781SOL    HW2 2343   2.675   1.667   1.309  2.1869 -0.6227 -1.2377
  782SOL     OW 2344   2.820   2.187   3.008 -0.2494  0.1440  0.1490
  782SOL    HW1 2345   2.834   2.258   3.081  1.0370  2.5585 -0.1524
  782SOL    HW2 2346   2.754   2.228   2.943 -1.7293 -0.2510  0.3236
  783SOL     OW 2347   0.636   1.642   0.859 -0.2644  0.3433 -0.1971
  783SOL    HW1 2348   0.682   1.577   0.788  0.2243  1.1369 -2.0500
  783SOL    HW2 2349   0.629   1.736   0.817 -0.4308  3.4934 -2.7585
  784SOL     OW 2350   2.317   1.187   0.278 -0.0650 -0.0192 -0.0763
  784SOL    HW1 2351   2.289   1.203   0.179 -2.6919 -0.7702 -0.5546
  784SOL    HW2 2352   2.347   1.270   0.327  0.0511  0.6568 -2.5007
  785SOL     OW 2353   2.003   2.794   0.502  0.2369  0.6786  0.2433
  785SOL    HW1 2354   1.912   2.833   0.506  2.2867  3.0641  1.4565
  785SOL    HW2 2355   1.997   2.699   0.537  1.0801 -0.9796 -0.4298
  786SOL     OW 2356   0.613   2.098   2.616 -1.0099 -0.1109  0.3675
  786SOL    HW1 2357   0.558   2.045   2.550  0.9054 -0.2173 -1.5152
  786SOL    HW2 2358   0.552   2.142   2.684  0.5631  1.3581  1.5874
  787SOL     OW 2359   1.758   0.595   1.201 -0.2107  0.0291 -0.7192
  787SOL    HW1 2360   1.706   0.523   1.248 -0.0306 -0.6235 -0.0713
  787SOL    HW2 2361   1.794   0.546   1.116 -1.3399 -0.9117 -2.4628
  788SOL     OW 2362   0.684   1.109   0.036  0.0270 -0.1050  0.2602
  788SOL    HW1 2363   0.709   1.009   0.035  0.8472 -0.8802 -0.1925
  788SOL    HW2 2364   0.592   1.121   3.100  1.1410  1.4968 -0.1277
  789SOL     OW 2365   2.737   1.924   1.204  0.2859  0.0569  0.0250
  789SOL    HW1 2366   2.705   1.828   1.192 -0.7584  1.9217 -0.7863
  789SOL    HW2 2367   2.714   1.980   1.126  2.2447 -0.7067  0.8971
  790SOL     OW 2368   1.341   0.116   2.202  0.3208  0.0657 -0.1371
  790SOL    HW1 2369   1.314   0.154   2.291  0.4858 -1.8744  0.5264
  790SOL    HW2 2370   1.357   0.186   2.131 -1.0796  0.2365 -2.1979
  791SOL     OW 2371   1.132   0.557   0.206 -0.2552  0.8507 -0.2216
  791SOL    HW1 2372   1.118   0.476   0.147 -2.5455  1.5704 -1.2445
  791SOL    HW2 2373   1.051   0.622   0.197  1.1348  1.1240  0.2622
  792SOL     OW 2374   1.419   0.142   1.459  0.0491 -0.0117  0.4459
  792SOL    HW1 2375   1.404   0.045   1.422  3.0966  0.0720 -1.5669
  792SOL    HW2 2376   1.519   0.155   1.491  0.9008  2.2063  2.6873
  793SOL     OW 2377   1.032   2.985   0.872  0.2071 -0.4836 -0.4973
  793SOL    HW1 2378   1.075   3.076   0.884 -2.4499  0.4408  0.4643
  793SOL    HW2 2379   1.068   2.912   0.929  0.2935 -0.5123 -0.4556
  794SOL     OW 2380   0.657   1.204   1.901  0.7029 -0.4848  0.6851
  794SOL    HW1 2381   0.694   1.154   1.979  0.7049  2.4911 -0.5848
  794SOL    HW2 2382   0.572   1.163   1.861 -0.9546  0.7812  0.0256
  795SOL     OW 2383   0.151   1.537   2.228  0.0261 -0.2999  0.2551
  795SOL    HW1 2384   0.064   1.493   2.235  0.2625 -0.6543 -1.1723
  795SOL    HW2 2385   0.147   1.626   2.179 -1.1606  0.8435 -2.5611
  796SOL     OW 2386   1.836   1.514   1.961  0.1427 -0.0581 -0.1853
  796SOL    HW1 2387   1.928   1.553   1.940  1.8040  1.9909  1.3115
  796SOL    HW2 2388   1.825   1.494   2.061 -0.9860 -0.3265 -0.7996
  797SOL     OW 2389   0.105   0.197   2.467  0.0303  0.1265  0.0294
  797SOL    HW1 2390   0.007   0.173   2.432 -1.4033 -0.6362  0.6102
  797SOL    HW2 2391   0.120   0.151   2.560 -0.4638 -0.4651  0.6928
  798SOL     OW 2392   0.177   2.172   1.807  0.4520 -0.1547  0.1751
  798SOL    HW1 2393   0.151   2.237   1.734 -0.7233  0.7414 -0.6377
  798SOL    HW2 2394   0.261   2.124   1.780 -1.7537  0.9549  1.6542
  799SOL     OW 2395   2.827   2.389   0.083 -0.3267  0.2446  0.7200
  799SOL    HW1 2396   2.875   2.479   0.098  1.3699  0.2861 -0.4081
  799SOL    HW2 2397   2.728   2.402   0.083  1.3256 -1.2596  0.2336
  800SOL     OW 2398   1.045   1.709   0.770  0.6147  0.4340 -0.3642
  800SOL    HW1 2399   1.011   1.741   0.863 -0.4479 -1.3330  1.3942
  800SOL    HW2 2400   1.145   1.735   0.753  0.8793 -0.0056  1.1041
  801SOL     OW 2401   2.696   0.610   0.589  0.8799 -0.3178  0.4731
  801SOL    HW1 2402   2.772   0.645   0.532  1.2628 -1.1022 -0.7333
  801SOL    HW2 2403   2.626   0.683   0.576  1.9044  1.4237  1.6980
  802SOL     OW 2404   2.406   1.449   0.383  0.3968 -0.4943  0.1480
  802SOL    HW1 2405   2.416   1.538   0.338 -0.0407  1.8425  0.7560
  802SOL    HW2 2406   2.350   1.462   0.464  3.3630  1.2429  1.4036
  803SOL     OW 2407   1.533   1.864   2.998  0.3053 -0.1921 -0.1668
  803SOL    HW1 2408   1.553   1.894   2.909 -1.6500 -0.8011  3.2649
  803SOL    HW2 2409   1.558   1.930   3.075 -0.8994  0.9510 -1.8221
  804SOL     OW 2410   2.064   2.002   0.372  0.0061  0.3015 -0.4526
  804SOL    HW1 2411   2.038   1.916   0.417  0.9112 -0.2815  2.7757
  804SOL    HW2 2412   2.063   1.974   0.272  0.2112 -0.2404  0.1498
  805SOL     OW 2413   2.758   1.628   2.588 -0.3763 -0.3548 -0.7088
  805SOL    HW1 2414   2.766   1.626   2.691 -0.3381 -0.4731 -0.5153
  805SOL    HW2 2415   2.826   1.692   2.558 -0.8976 -2.3035  0.6298
  806SOL     OW 2416   0.249   0.247   0.570 -0.2114  0.2045 -0.6066
  806SOL    HW1 2417   0.252   0.296   0.657  1.2246  1.4070 -2.6390
  806SOL    HW2 2418   0.161   0.263   0.528  2.1226  2.8927  0.3195
  807SOL     OW 2419   2.388   1.359   2.778  0.1166  0.2798  0.2293
  807SOL    HW1 2420   2.299   1.310   2.760  1.8280  0.5624  1.1590
  807SOL    HW2 2421   2.462   1.302   2.738 -3.2696  0.6710 -0.5955
  808SOL     OW 2422   0.168   1.445   0.495 -0.2778  0.2403  0.1983
  808SOL    HW1 2423   0.155   1.356   0.548  0.9451  1.3072  2.3079
  808SOL    HW2 2424   0.187   1.525   0.556 -0.5085  2.3287  2.2039
  809SOL     OW 2425   2.457   0.694   2.628  0.1999  0.8676 -0.2404
  809SOL    HW1 2426   2.440   0.632   2.709  0.9843 -3.3548  1.2609
  809SOL    HW2 2427   2.417   0.789   2.631  0.2337  1.9543  0.8555
  810SOL     OW 2428   1.155   0.983   0.449  1.1004 -0.4337 -0.0947
  810SOL    HW1 2429   1.252   0.989   0.418  0.5695 -2.0201 -0.0037
  810SOL    HW2 2430   1.087   0.993   0.372 -0.9468  0.0237 -2.9853
  811SOL     OW 2431   1.532   2.420   0.762 -0.0551 -0.7468 -0.3934
  811SOL    HW1 2432   1.463   2.492   0.785  0.6828  3.4378  1.1934
  811SOL    HW2 2433   1.509   2.372   0.676  2.6452  0.3790 -0.1044
  812SOL     OW 2434   0.706   2.546   1.472 -0.1963 -0.1821  0.0183
  812SOL    HW1 2435   0.742   2.458   1.446 -1.8927  0.3066  2.7144
  812SOL    HW2 2436   0.715   2.557   1.574  0.7241  1.3396 -0.8278
  813SOL     OW 2437   1.177   0.264   1.840  0.3372 -0.3963  0.4900
  813SOL    HW1 2438   1.152   0.168   1.857  0.7346  0.0693  4.6669
  813SOL    HW2 2439   1.117   0.327   1.902 -5.4202  1.5998  0.9058
  814SOL     OW 2440   1.304   2.965   2.601 -0.2109  0.3245  0.0594
  814SOL    HW1 2441   1.274   2.917   2.518 -1.3915  0.5204 -0.4845
  814SOL    HW2 2442   1.390   2.917   2.633 -2.0946  0.1234 -0.0501
  815SOL     OW 2443   0.639   0.474   1.937 -0.3320  0.3968 -0.0122
  815SOL    HW1 2444   0.606   0.526   1.856 -2.1741  0.8228 -3.7232
  815SOL    HW2 2445   0.613   0.529   2.022 -1.3762 -0.8377 -1.2282
  816SOL     OW 2446   2.442   0.257   3.006  0.3610  0.0809  0.0179
  816SOL    HW1 2447   2.480   0.194   3.075 -0.8956  1.7866 -2.6946
  816SOL    HW2 2448   2.498   0.257   2.921  1.8660  0.8943 -1.6553
  817SOL     OW 2449   1.636   0.383   2.622  0.2386 -0.1956  0.1187
  817SOL    HW1 2450   1.667   0.405   2.528 -0.2990  0.6337  0.8892
  817SOL    HW2 2451   1.549   0.327   2.633 -0.4160 -1.2731 -1.3961
  818SOL     OW 2452   2.203   0.385   0.213  0.3682  0.1977  0.4363
  818SOL    HW1 2453   2.237   0.291   0.247  1.9319 -2.2404  0.6376
  818SOL    HW2 2454   2.163   0.432   0.296  0.8301  0.2975 -1.3552
  819SOL     OW 2455   2.197   1.512   0.182  0.4194 -0.2329 -0.4643
  819SOL    HW1 2456   2.269   1.559   0.239 -2.0002  0.1104  1.9362
  819SOL    HW2 2457   2.225   1.424   0.143 -0.3346 -0.0550 -1.6726
  820SOL     OW 2458   2.913   2.010   0.084 -0.3500  0.3051  0.0440
  820SOL    HW1 2459   2.879   2.067   0.003  0.5493 -0.6423  0.4394
  820SOL    HW2 2460   2.837   1.990   0.148  1.9234  0.1381 -0.6136
  821SOL     OW 2461   0.289   2.531   1.640  0.3521  0.5500  0.4028
  821SOL    HW1 2462   0.213   2.595   1.672 -0.3828 -0.9150  0.7885
  821SOL    HW2 2463   0.325   2.556   1.550  1.7360  0.0809  3.2683
  822SOL     OW 2464   2.795   2.679   2.663  0.2572  0.5467  0.1612
  822SOL    HW1 2465   2.786   2.779   2.659 -0.3129 -0.9452 -0.4078
  822SOL    HW2 2466   2.702   2.639   2.641  0.9823  1.4666  1.3398
  823SOL     OW 2467   1.473   0.000   2.444  0.5208  0.2533  0.4793
  823SOL    HW1 2468   1.409   3.068   2.515  0.8642 -2.1129 -0.3805
  823SOL    HW2 2469   1.425   0.047   2.364  0.5593  1.9601  1.9527
  824SOL     OW 2470   2.387   1.783   1.156 -0.0559  0.4808 -0.3819
  824SOL    HW1 2471   2.379   1.835   1.071  0.9504  0.3800  0.9740
  824SOL    HW2 2472   2.425   1.689   1.139 -1.0685 -2.1959 -0.3846
  825SOL     OW 2473   2.964   2.057   2.477 -0.3291 -0.1557  0.0630
  825SOL    HW1 2474   3.012   2.052   2.388  1.0632  1.9886  1.4437
  825SOL    HW2 2475   3.019   2.094   2.555 -3.4887  2.2987  0.2804
  826SOL     OW 2476   2.867   1.240   2.399 -0.7397  0.1172  0.5744
  826SOL    HW1 2477   2.822   1.252   2.487 -0.7366 -0.3636  0.9016
  826SOL    HW2 2478   2.926   1.157   2.411 -3.2642 -1.7301  1.6999
  827SOL     OW 2479   2.584   2.540   1.776 -0.3659 -0.0509  0.3319
  827SOL    HW1 2480   2.608   2.472   1.707 -0.5447  0.4052  0.3240
  827SOL    HW2 2481   2.482   2.549   1.783 -0.7109  0.2117 -1.7694
  828SOL     OW 2482   2.863   2.962   1.577 -0.5166  0.0171 -0.5946
  828SOL    HW1 2483   2.765   2.995   1.564  0.3968 -2.6455 -0.9718
  828SOL    HW2 2484   2.911   2.989   1.492  0.2441  3.1182  1.5812
  829SOL     OW 2485   1.690   2.145   2.391 -0.3957 -0.1153 -0.3255
  829SOL    HW1 2486   1.665   2.242   2.362 -1.9504  1.1513  1.5196
  829SOL    HW2 2487   1.713   2.152   2.491 -1.0476  1.9258  2.2259
  830SOL     OW 2488   1.713   0.597   0.762  0.7460 -0.7524 -0.7169
  830SOL    HW1 2489   1.772   0.587   0.838 -0.8978  2.7076 -2.7437
  830SOL    HW2 2490   1.747   0.543   0.679  0.6840 -1.6874  1.6081
  831SOL     OW 2491   2.824   1.374   0.850 -0.1457  0.5608 -0.6454
  831SOL    HW1 2492   2.921   1.358   0.850 -1.2986  0.4294  0.2710
  831SOL    HW2 2493   2.802   1.392   0.752 -1.0173  1.0652  0.8096
  832SOL     OW 2494   1.648   2.454   2.050  0.4056  0.3328 -0.5124
  832SOL    HW1 2495   1.556   2.474   1.999  3.1173  1.3288 -1.5173
  832SOL    HW2 2496   1.723   2.441   1.984  2.0930  1.7171  1.8812
  833SOL     OW 2497   3.027   2.990   2.298  0.2983  0.0961 -0.0698
  833SOL    HW1 2498   2.952   2.944   2.252  0.8765  2.5328  0.4447
  833SOL    HW2 2499   3.000   3.063   2.362  1.6944 -1.3159  1.6610
  834SOL     OW 2500   1.076   0.896   1.130 -0.0472 -0.3835  0.2378
  834SOL    HW1 2501   1.115   0.974   1.079  3.3855  1.2273 -0.3290
  834SOL    HW2 2502   0.996   0.855   1.078 -3.9197 -3.1180  0.6655
  835SOL     OW 2503   0.069   0.616   2.704 -0.2339 -0.4682 -0.0255
  835SOL    HW1 2504   3.074   0.615   2.724  1.5896  1.4348 -1.4186
  835SOL    HW2 2505   0.128   0.655   2.784  1.1614  4.3186  2.4533
  836SOL     OW 2506   1.133   2.326   1.113  0.1798 -0.7855  0.1023
  836SOL    HW1 2507   1.047   2.365   1.151  2.5873  1.6009 -0.6001
  836SOL    HW2 2508   1.215   2.368   1.158  1.1265 -1.3781  0.6049
  837SOL     OW 2509   2.085   0.832   1.105  0.2485  0.6198 -0.0084
  837SOL    HW1 2510   2.098   0.931   1.078  1.4333  0.6203  0.7914
  837SOL    HW2 2511   2.104   0.835   1.203  2.7017  2.9203  1.7134
  838SOL     OW 2512   1.476   1.594   2.722 -0.8130  0.2973 -0.2321
  838SOL    HW1 2513   1.463   1.601   2.823 -0.8797 -2.9164 -1.7644
  838SOL    HW2 2514   1.389   1.610   2.675  0.6093  0.2309  0.3959
  839SOL     OW 2515   0.461   2.193   2.871  0.2473 -0.6886  0.3438
  839SOL    HW1 2516   0.443   2.096   2.883  2.4429  0.6692 -1.1036
  839SOL    HW2 2517   0.547   2.225   2.915  0.0102  0.5594 -0.8844
  840SOL     OW 2518   0.546   2.480   3.018 -0.0574  0.2918 -0.1623
  840SOL    HW1 2519   0.451   2.441   3.013 -0.3857  1.5019 -0.5617
  840SOL    HW2 2520   0.537   2.579   3.017 -0.3447 -1.1364 -0.8730
  841SOL     OW 2521   1.839   1.991   0.085 -0.2451 -0.2481  1.0510
  841SOL    HW1 2522   1.937   1.974   0.085  1.3191  1.6474 -2.1549
  841SOL    HW2 2523   1.810   2.069   0.140 -1.7111 -1.2433  2.6603
  842SOL     OW 2524   1.575   1.057   2.675  0.4846  0.2231 -0.1804
  842SOL    HW1 2525   1.617   0.963   2.674  0.8062 -1.4199  1.4539
  842SOL    HW2 2526   1.471   1.047   2.669 -3.6172 -3.3088 -0.9415
  843SOL     OW 2527   1.488   2.812   0.663  0.0007  0.0402 -0.1618
  843SOL    HW1 2528   1.583   2.807   0.688 -0.3469 -1.7047  3.3651
  843SOL    HW2 2529   1.476   2.900   0.612  0.2706 -0.3066 -0.5731
  844SOL     OW 2530   2.384   2.796   2.740  0.0856 -0.6607  0.0904
  844SOL    HW1 2531   2.325   2.741   2.803 -1.0098  1.7702 -1.2100
  844SOL    HW2 2532   2.432   2.869   2.792  2.9708 -0.0129 -1.1132
  845SOL     OW 2533   2.955   2.941   1.305 -0.2949  0.1771  0.2583
  845SOL    HW1 2534   3.013   2.882   1.245  1.7334  0.8399  0.0145
  845SOL    HW2 2535   2.949   3.033   1.268 -0.7421 -0.6740  0.7754
  846SOL     OW 2536   0.395   2.145   2.251  0.3308  0.1233  0.5018
  846SOL    HW1 2537   0.317   2.161   2.188 -0.0989 -0.6043 -0.1323
  846SOL    HW2 2538   0.380   2.175   2.350 -1.4747 -0.6020 -0.3746
  847SOL     OW 2539   1.652   0.253   1.553 -0.1308 -0.4259  0.1402
  847SOL    HW1 2540   1.619   0.318   1.625  0.8922  0.4880  2.2165
  847SOL    HW2 2541   1.726   0.192   1.587 -0.5376  1.6654 -0.8870
  848SOL     OW 2542   2.931   0.639   0.209 -0.4955  0.0759  0.3415
  848SOL    HW1 2543   3.035   0.638   0.199  1.8334 -1.9595 -1.8994
  848SOL    HW2 2544   2.887   0.565   0.150  2.1150 -0.6329 -1.0130
  849SOL     OW 2545   0.678   0.692   0.184  0.6241 -0.0566 -0.5076
  849SOL    HW1 2546   0.604   0.744   0.233 -1.6495  0.1907 -1.6303
  849SOL    HW2 2547   0.637   0.620   0.128  0.6157  0.7711 -0.0949
  850SOL     OW 2548   0.353   2.758   1.200  0.1761  0.1222  0.4583
  850SOL    HW1 2549   0.262   2.794   1.208  0.1945 -2.3713 -2.3955
  850SOL    HW2 2550   0.415   2.836   1.170 -0.6034 -1.7381 -1.1555
  851SOL     OW 2551   1.984   0.227   2.267 -0.6934 -0.1825 -0.2044
  851SOL    HW1 2552   1.890   0.221   2.304  4.0250 -0.4198 -0.5808
  851SOL    HW2 2553   2.035   0.304   2.316 -1.7092  1.6129  0.0744
  852SOL     OW 2554   1.604   1.531   2.373 -0.4980  0.6822 -0.3827
  852SOL    HW1 2555   1.565   1.450   2.424  0.8294 -2.8498 -1.3469
  852SOL    HW2 2556   1.557   1.536   2.282 -1.5808  0.4720 -0.5754
  853SOL     OW 2557   0.061   2.787   0.594  0.3496  0.0091  0.2926
  853SOL    HW1 2558   0.075   2.718   0.524 -1.0802 -0.9346  2.2527
  853SOL    HW2 2559   0.138   2.782   0.657 -1.4252 -1.6186 -0.2601
  854SOL     OW 2560   2.314   3.064   0.799  0.6089  0.0937 -0.2037
  854SOL    HW1 2561   2.267   0.051   0.833 -2.2230  0.5219 -0.1236
  854SOL    HW2 2562   2.294   3.053   0.701 -0.6978  1.1384  4.6436
  855SOL     OW 2563   1.296   2.122   0.655 -0.1851 -0.7264  0.3280
  855SOL    HW1 2564   1.223   2.061   0.611  1.7683  0.2703 -1.0534
  855SOL    HW2 2565   1.252   2.181   0.730 -0.8360 -0.4585  0.8472
  856SOL     OW 2566   2.667   0.278   0.308  0.0818  0.2741  0.4361
  856SOL    HW1 2567   2.634   0.208   0.242 -0.9296 -1.4619  0.5220
  856SOL    HW2 2568   2.598   0.347   0.324  2.6519  0.6802 -3.3630
  857SOL     OW 2569   1.751   2.703   1.741 -0.1805 -0.5612 -0.3845
  857SOL    HW1 2570   1.773   2.772   1.812  0.8099  2.7944 -1.6868
  857SOL    HW2 2571   1.828   2.638   1.736 -0.3403  0.1873 -1.6545
  858SOL     OW 2572   2.598   2.292   1.322 -0.4003 -0.3497  0.0233
  858SOL    HW1 2573   2.630   2.354   1.246 -0.2061 -0.1234  0.7384
  858SOL    HW2 2574   2.508   2.257   1.295  4.0621  0.4806  2.4218
  859SOL     OW 2575   1.112   2.551   0.692  0.3156 -0.1824  0.5742
  859SOL    HW1 2576   1.047   2.623   0.718  2.2491 -1.9551  0.0708
  859SOL    HW2 2577   1.199   2.576   0.735  1.1918 -0.4699 -0.7639
  860SOL     OW 2578   2.226   2.284   0.138 -0.1515  0.1702 -0.0184
  860SOL    HW1 2579   2.291   2.265   0.211 -0.0055 -2.1531 -2.6130
  860SOL    HW2 2580   2.261   2.241   0.052  1.3521 -0.9838 -4.0860
  861SOL     OW 2581   2.157   2.614   1.118 -0.2724  0.2323  0.2081
  861SOL    HW1 2582   2.179   2.663   1.030  1.3430  2.1321 -2.8978
  861SOL    HW2 2583   2.239   2.565   1.154  1.8719 -2.3548 -0.2204
  862SOL     OW 2584   1.777   3.003   2.650  0.6812 -0.7150  0.4567
  862SOL    HW1 2585   1.767   3.085   2.588 -1.0680  3.5391  1.5649
  862SOL    HW2 2586   1.702   3.007   2.712 -0.9960  0.8073  0.1645
  863SOL     OW 2587   0.646   0.089   0.250  0.2934  0.3248  0.0653
  863SOL    HW1 2588   0.668   0.070   0.349  1.6225 -1.1662 -2.9407
  863SOL    HW2 2589   0.678   0.020   0.186  1.0218 -1.9943  0.0814
  864SOL     OW 2590   2.791   2.535   1.967 -0.1933 -0.0883 -0.7043
  864SOL    HW1 2591   2.784   2.624   2.021 -1.0826  0.4111  0.9960
  864SOL    HW2 2592   2.712   2.519   1.909  3.6243  2.9566  0.4994
  865SOL     OW 2593   3.083   2.216   2.913 -0.1463  0.5520  0.2050
  865SOL    HW1 2594   0.058   2.182   2.965 -2.1041  1.2442 -2.0468
  865SOL    HW2 2595   2.991   2.202   2.957  0.5847 -1.3332 -0.4178
  866SOL     OW 2596   2.507   0.347   2.680  0.4777  0.0453  0.8387
  866SOL    HW1 2597   2.537   0.408   2.600 -0.6617  2.6528 -3.3159
  866SOL    HW2 2598   2.426   0.381   2.724 -0.2296 -1.5425 -2.3302
  867SOL     OW 2599   2.931   0.109   2.455 -0.6049 -0.1421  0.2001
  867SOL    HW1 2600   2.853   0.050   2.439  1.5491  2.6235 -0.6673
  867SOL    HW2 2601   2.921   0.144   2.552  0.7919  1.1002  1.1322
  868SOL     OW 2602   0.929   2.725   0.784 -0.2086 -0.3107  0.1896
  868SOL    HW1 2603   0.949   2.816   0.821 -2.0108  3.6029  2.5625
  868SOL    HW2 2604   0.869   2.734   0.701 -0.8809  2.2287 -2.1910
  869SOL     OW 2605   1.329   1.341   1.187 -0.2219 -0.0299 -0.0936
  869SOL    HW1 2606   1.262   1.400   1.143  1.4915 -2.1986  2.7604
  869SOL    HW2 2607   1.423   1.359   1.148  1.3537  1.7286  2.5054
  870SOL     OW 2608   1.727   1.730   1.374  0.0570 -0.5728  0.3525
  870SOL    HW1 2609   1.829   1.709   1.393  4.1724 -0.2255 -0.2236
  870SOL    HW2 2610   1.725   1.828   1.337 -0.2999 -0.3833  2.2710
  871SOL     OW 2611   0.874   1.325   1.164 -0.1583  0.0158  0.2592
  871SOL    HW1 2612   0.949   1.377   1.119 -2.0809  1.1195 -0.4858
  871SOL    HW2 2613   0.791   1.380   1.156  0.4637  1.1850  1.0121
  872SOL     OW 2614   1.099   0.628   0.920  0.0403  0.2845 -0.1016
  872SOL    HW1 2615   1.095   0.731   0.899  1.7187  1.8760 -0.4105
  872SOL    HW2 2616   1.171   0.610   0.989  0.6644 -1.0170 -0.2874
  873SOL     OW 2617   1.657   0.786   2.640 -0.2687  0.1062  0.4723
  873SOL    HW1 2618   1.643   0.755   2.737 -0.3310  0.3254  4.1233
  873SOL    HW2 2619   1.759   0.785   2.613  1.1356  1.5658  1.5208
  874SOL     OW 2620   0.503   1.368   1.151  0.0490 -0.6208 -0.4175
  874SOL    HW1 2621   0.484   1.412   1.241 -0.1126 -1.4775  0.9633
  874SOL    HW2 2622   0.418   1.330   1.107  0.4693 -0.5814  1.2168
  875SOL     OW 2623   2.621   2.831   2.948  0.4313 -0.1533 -0.1358
  875SOL    HW1 2624   2.615   2.729   2.971 -2.0874 -1.1353 -0.6996
  875SOL    HW2 2625   2.716   2.858   2.923  0.3470  0.2715  0.0169
  876SOL     OW 2626   0.831   0.481   3.075  0.2692  0.0998 -0.0405
  876SOL    HW1 2627   0.797   0.433   0.056  0.0303 -0.2192  0.6723
  876SOL    HW2 2628   0.909   0.541   3.097 -1.9497 -0.5480  1.4564
  877SOL     OW 2629   0.140   3.079   1.600 -0.0877  0.0976 -0.0069
  877SOL    HW1 2630   0.174   0.030   1.683 -0.9721 -0.3263 -1.1855
  877SOL    HW2 2631   0.072   0.030   1.547 -0.5832 -0.3460 -1.2745
  878SOL     OW 2632   1.789   2.118   2.670  0.0562  0.5369 -0.2978
  878SOL    HW1 2633   1.758   2.128   2.765 -0.2886  0.6402  0.6974
  878SOL    HW2 2634   1.878   2.155   2.645 -1.1114 -0.8304 -0.6074
  879SOL     OW 2635   2.112   1.630   1.964 -0.2731 -0.2529 -0.1033
  879SOL    HW1 2636   2.127   1.677   2.051 -2.0656 -0.3349  2.3253
  879SOL    HW2 2637   2.137   1.678   1.874 -0.4618  2.1947 -3.5660
  880SOL     OW 2638   0.793   1.065   1.106  0.3096 -0.4981 -0.3507
  880SOL    HW1 2639   0.825   1.159   1.131 -3.4509 -1.6456 -2.3178
  880SOL    HW2 2640   0.797   1.003   1.191  0.3967  1.4831  0.7820
  881SOL     OW 2641   1.280   1.644   0.167 -0.4971  0.6283 -0.7614
  881SOL    HW1 2642   1.272   1.734   0.212 -1.7763  1.6318  1.7571
  881SOL    HW2 2643   1.319   1.575   0.232 -0.5026 -0.5969  2.8169
  882SOL     OW 2644   1.832   0.052   1.258  0.1348  0.1563  0.4267
  882SOL    HW1 2645   1.857   0.152   1.282  0.3115  3.3936  1.2601
  882SOL    HW2 2646   1.893   0.028   1.182  0.6279 -1.4834  1.2156
  883SOL     OW 2647   1.979   0.754   2.023 -0.0962  0.4392  0.0191
  883SOL    HW1 2648   1.878   0.734   2.029  3.1875  0.3223  0.8894
  883SOL    HW2 2649   2.028   0.666   2.010  1.0349  0.1671 -0.2311
  884SOL     OW 2650   2.673   0.601   2.994  0.0273  0.1849 -0.2063
  884SOL    HW1 2651   2.738   0.620   2.920  0.2539  1.8224 -2.4261
  884SOL    HW2 2652   2.717   0.552   3.066 -3.6525  1.3218 -3.5405
  885SOL     OW 2653   1.165   2.313   0.828  0.7875 -0.4316 -0.0071
  885SOL    HW1 2654   1.154   2.381   0.754 -0.7970  1.6217 -2.1717
  885SOL    HW2 2655   1.192   2.349   0.918 -0.1498 -1.6286  0.6560
  886SOL     OW 2656   1.292   1.013   2.685 -0.0877  0.1493  0.2171
  886SOL    HW1 2657   1.318   1.048   2.779 -0.5835 -2.0090 -0.4982
  886SOL    HW2 2658   1.203   1.053   2.651 -2.7494  0.2181 -0.3262
  887SOL     OW 2659   1.801   0.020   1.641 -0.3095 -0.4746  0.1368
  887SOL    HW1 2660   1.833   3.092   1.733  2.0684  0.2658  0.7041
  887SOL    HW2 2661   1.757   3.042   1.596  1.5834  3.0814 -0.5500
  888SOL     OW 2662   2.845   1.731   1.696  0.5582  0.4890  0.2833
  888SOL    HW1 2663   2.824   1.830   1.683 -1.3824  0.1225  0.1354
  888SOL    HW2 2664   2.811   1.669   1.624  1.2347  1.1139 -1.5975
  889SOL     OW 2665   2.931   2.549   0.697 -0.2020  0.2675 -0.2934
  889SOL    HW1 2666   3.032   2.574   0.706  2.1226 -0.9826 -1.6994
  889SOL    HW2 2667   2.894   2.499   0.781 -0.0716  2.6805 -1.8897
  890SOL     OW 2668   0.568   1.953   2.198  0.1426 -0.3569  0.0602
  890SOL    HW1 2669   0.661   1.971   2.232 -1.8095  0.6291  3.0421
  890SOL    HW2 2670   0.510   2.037   2.209  2.0369  2.2078 -1.0844
  891SOL     OW 2671   0.558   1.737   0.584 -0.7426 -0.6136  0.0053
  891SOL    HW1 2672   0.603   1.809   0.635  2.0708 -2.3574 -0.1646
  891SOL    HW2 2673   0.465   1.772   0.559  0.0514 -0.7257 -0.5664
  892SOL     OW 2674   2.868   2.510   1.274 -0.0317 -0.1668  0.0173
  892SOL    HW1 2675   2.854   2.524   1.374  0.9198  1.1787  2.5209
  892SOL    HW2 2676   2.906   2.417   1.260 -0.5345 -1.1832  2.2386
  893SOL     OW 2677   0.326   0.421   1.771 -0.7367  0.1035  0.3150
  893SOL    HW1 2678   0.266   0.413   1.692  0.7123  1.0903  1.6639
  893SOL    HW2 2679   0.416   0.457   1.747  0.4173 -0.1130  1.8269
  894SOL     OW 2680   2.802   1.904   0.774  0.1786 -0.0162 -0.5393
  894SOL    HW1 2681   2.739   1.880   0.693 -2.7805  0.5324  0.6648
  894SOL    HW2 2682   2.759   1.972   0.838 -1.5281  1.7209  2.1105
  895SOL     OW 2683   1.439   2.337   1.662 -0.1816  0.0296  0.3086
  895SOL    HW1 2684   1.346   2.324   1.707 -0.8518 -0.4972 -1.4175
  895SOL    HW2 2685   1.454   2.278   1.582  0.5064  1.1029  0.7989
  896SOL     OW 2686   0.813   0.197   1.337  0.8755 -0.3560 -0.0244
  896SOL    HW1 2687   0.774   0.196   1.430  0.8119  0.2037  0.6339
  896SOL    HW2 2688   0.903   0.242   1.335 -1.6412 -1.4696  3.1747
  897SOL     OW 2689   1.237   1.112   1.035 -0.3989  0.5225  0.2297
  897SOL    HW1 2690   1.283   1.173   1.103  0.4336  1.9485  0.9430
  897SOL    HW2 2691   1.299   1.031   1.023  1.4531 -0.1128 -1.2768
  898SOL     OW 2692   0.880   0.257   1.715  0.2266  0.0633 -0.3740
  898SOL    HW1 2693   0.975   0.292   1.720  0.1836 -0.4775  1.1868
  898SOL    HW2 2694   0.873   0.157   1.729 -0.3190 -2.3492  0.0251
  899SOL     OW 2695   1.529   0.378   0.372  0.0064  0.1929  0.7094
  899SOL    HW1 2696   1.597   0.417   0.308 -1.3137 -0.5591 -0.4762
  899SOL    HW2 2697   1.444   0.427   0.373  1.6829 -0.7395  0.7283
  900SOL     OW 2698   1.034   0.631   2.440 -0.2155 -0.3184 -0.2440
  900SOL    HW1 2699   1.088   0.691   2.381 -2.1932 -2.8578 -0.2960
  900SOL    HW2 2700   0.944   0.603   2.402  3.1355  2.4356  3.1890
  901SOL     OW 2701   0.630   2.092   0.357  0.2725 -0.4119 -0.1768
  901SOL    HW1 2702   0.701   2.021   0.353 -0.1471  3.2550  2.3283
  901SOL    HW2 2703   0.601   2.120   0.266  1.3821 -0.7527  0.2391
  902SOL     OW 2704   1.873   0.258   0.868  1.0954  0.4031  0.5906
  902SOL    HW1 2705   1.839   0.263   0.769  0.5115 -2.1983 -1.9535
  902SOL    HW2 2706   1.841   0.175   0.913  3.1726 -0.7215 -0.7198
  903SOL     OW 2707   0.048   1.335   2.503 -0.1522 -0.5695 -0.2889
  903SOL    HW1 2708   0.023   1.434   2.512 -1.2549  3.4216  0.2130
  903SOL    HW2 2709   0.051   1.299   2.406  1.1512 -1.6948 -2.4082
  904SOL     OW 2710   1.651   1.333   0.474 -0.0111 -0.2786  0.0101
  904SOL    HW1 2711   1.646   1.433   0.447 -0.2142  0.3760 -2.4247
  904SOL    HW2 2712   1.598   1.317   0.562 -0.1923  2.2661  0.7003
  905SOL     OW 2713   1.884   2.617   1.220 -0.2450  0.3540  0.4229
  905SOL    HW1 2714   1.863   2.718   1.222  1.8016  0.3636 -0.7619
  905SOL    HW2 2715   1.970   2.596   1.168  0.2889 -0.6013 -1.9364
  906SOL     OW 2716   2.196   2.754   0.887  0.2675 -0.0455  0.5333
  906SOL    HW1 2717   2.137   2.833   0.878  1.2284 -2.3796  0.9380
  906SOL    HW2 2718   2.292   2.791   0.904  2.0160  1.5575  0.5731
  907SOL     OW 2719   1.946   1.075   0.307 -0.1191  0.0434  0.1658
  907SOL    HW1 2720   1.932   0.980   0.268 -1.0330 -4.6261 -0.9658
  907SOL    HW2 2721   2.026   1.071   0.370 -0.5719  0.1319 -1.0757
  908SOL     OW 2722   1.894   0.302   1.344 -0.0333  0.5063  0.5157
  908SOL    HW1 2723   1.955   0.387   1.328 -1.6264  4.2760  1.2598
  908SOL    HW2 2724   1.798   0.329   1.328  2.0398 -0.7933  1.8289
  909SOL     OW 2725   2.436   2.848   0.922 -0.2692  0.4174 -0.0457
  909SOL    HW1 2726   2.401   2.933   0.878 -0.5108  0.2890 -1.7721
  909SOL    HW2 2727   2.442   2.865   1.021 -1.2864  0.9523 -1.3298
  910SOL     OW 2728   2.458   0.697   1.982 -0.2494  0.5042  0.0121
  910SOL    HW1 2729   2.385   0.668   2.043 -0.4263  1.0271  1.1399
  910SOL    HW2 2730   2.546   0.691   2.030 -2.0115 -1.6257  0.8550
  911SOL     OW 2731   2.063   0.043   2.482 -0.1741 -0.0471  0.1915
  911SOL    HW1 2732   2.053   0.129   2.534  0.1113  2.9840 -0.3076
  911SOL    HW2 2733   2.039   0.055   2.386 -2.6213  0.7500  0.8449
  912SOL     OW 2734   0.598   0.850   1.302 -0.0660  0.2393  0.0886
  912SOL    HW1 2735   0.699   0.836   1.300  1.0304 -1.5221 -1.5707
  912SOL    HW2 2736   0.553   0.766   1.268 -0.2315 -1.0826 -0.8491
  913SOL     OW 2737   2.673   2.542   1.104  0.1406 -0.6548  0.0300
  913SOL    HW1 2738   2.688   2.626   1.046  1.5598  0.6563  2.5254
  913SOL    HW2 2739   2.727   2.545   1.190  0.1090  1.2257  0.6932
  914SOL     OW 2740   1.263   0.516   1.094 -0.3550 -0.4041 -0.3100
  914SOL    HW1 2741   1.297   0.577   1.166  0.1175 -1.4232 -0.7343
  914SOL    HW2 2742   1.302   0.426   1.117 -0.3125 -0.1680 -0.7729
  915SOL     OW 2743   0.290   1.611   1.360  0.1790 -0.9981  0.0445
  915SOL    HW1 2744   0.281   1.598   1.257 -0.7446  1.4811 -1.7204
  915SOL    HW2 2745   0.243   1.698   1.391 -1.6390  0.4938  1.6100
  916SOL     OW 2746   1.884   2.360   0.924 -0.1407  0.0375  0.0882
  916SOL    HW1 2747   1.933   2.370   1.010 -2.2144  1.6804 -2.4024
  916SOL    HW2 2748   1.785   2.360   0.940  1.8846  3.6756 -0.5202
  917SOL     OW 2749   1.871   2.643   2.313 -0.0594  0.0551  0.3604
  917SOL    HW1 2750   1.948   2.595   2.264  1.7277  0.0049 -0.2553
  917SOL    HW2 2751   1.797   2.674   2.246  1.1424 -0.8398 -0.1305
  918SOL     OW 2752   1.911   1.793   2.470  0.2690  0.0749 -0.1088
  918SOL    HW1 2753   1.965   1.847   2.405  0.0519 -3.1287 -0.6228
  918SOL    HW2 2754   1.821   1.837   2.496 -1.4609  2.9810 -0.4061
  919SOL     OW 2755   0.710   0.402   1.173  0.0442  0.0465 -0.4403
  919SOL    HW1 2756   0.740   0.321   1.223 -1.1887 -0.6224  0.4188
  919SOL    HW2 2757   0.789   0.456   1.146 -1.3661  2.5643 -0.0867
  920SOL     OW 2758   2.849   0.696   2.013  0.3050 -0.6921 -0.4672
  920SOL    HW1 2759   2.887   0.621   1.953 -0.9557  2.0077  0.6944
  920SOL    HW2 2760   2.915   0.733   2.087  1.4391  1.4964  1.1990
  921SOL     OW 2761   2.765   1.298   1.519  0.1592 -0.2849 -0.0091
  921SOL    HW1 2762   2.811   1.242   1.448  1.4129  2.9030  1.3611
  921SOL    HW2 2763   2.724   1.244   1.593  1.1670 -1.9744  1.8483
  922SOL     OW 2764   2.820   2.308   0.787  0.1969  0.0805 -0.3119
  922SOL    HW1 2765   2.727   2.319   0.824 -0.3127  1.0899 -1.8973
  922SOL    HW2 2766   2.814   2.324   0.683  0.5932  2.2072 -2.3641
  923SOL     OW 2767   0.150   2.330   0.644 -0.5431 -0.2301 -0.3743
  923SOL    HW1 2768   0.198   2.256   0.589 -0.9381  0.6142 -0.1104
  923SOL    HW2 2769   0.220   2.402   0.666  1.7646 -1.2638 -1.5643
  924SOL     OW 2770   1.065   1.311   2.975  0.3097 -0.0701  0.1152
  924SOL    HW1 2771   1.116   1.382   2.922  1.5609  1.4219  2.2711
  924SOL    HW2 2772   0.966   1.337   2.985  0.2184  0.4235 -0.2815
  925SOL     OW 2773   3.101   1.245   0.881  0.2178  0.0192 -0.1001
  925SOL    HW1 2774   0.025   1.281   0.973  0.1401  0.7745  0.0235
  925SOL    HW2 2775   3.035   1.167   0.888 -1.4512  0.2819 -1.0800
  926SOL     OW 2776   0.122   0.076   1.271 -0.3986  0.2710  0.1838
  926SOL    HW1 2777   0.215   0.049   1.283 -0.0423  1.0843 -2.2616
  926SOL    HW2 2778   0.082   0.040   1.184  0.0422 -0.8429 -1.1781
  927SOL     OW 2779   0.444   1.900   2.453  0.1578  0.1868 -0.5484
  927SOL    HW1 2780   0.377   1.826   2.432  1.5773  3.0627 -3.1747
  927SOL    HW2 2781   0.491   1.922   2.371 -1.1834  1.5186 -1.5799
  928SOL     OW 2782   0.362   0.645   2.312  0.1113  0.2001  0.4828
  928SOL    HW1 2783   0.397   0.563   2.365 -0.2915 -0.6507  0.0701
  928SOL    HW2 2784   0.268   0.667   2.358 -1.1461  1.2711 -1.5596
  929SOL     OW 2785   2.653   2.058   0.997 -0.4133 -0.3924 -0.2095
  929SOL    HW1 2786   2.624   2.154   0.983  0.8959 -5.8436 -1.2002
  929SOL    HW2 2787   2.580   2.002   0.967  2.7479  2.9626  0.4716
  930SOL     OW 2788   1.703   0.317   2.334 -0.3890 -0.0534 -0.0915
  930SOL    HW1 2789   1.704   0.296   2.236  0.6732  0.3288  1.0703
  930SOL    HW2 2790   1.693   0.419   2.344  0.5284  0.7956  1.6192
  931SOL     OW 2791   2.378   0.959   2.666 -0.2168 -0.5487  0.1784
  931SOL    HW1 2792   2.317   0.983   2.588 -0.6661  0.3580 -0.5436
  931SOL    HW2 2793   2.452   1.035   2.673 -1.6416 -1.2605  0.7940
  932SOL     OW 2794   1.762   0.838   0.611  0.2234 -0.2367 -0.4860
  932SOL    HW1 2795   1.721   0.792   0.528 -1.3903  1.0868  2.0154
  932SOL    HW2 2796   1.757   0.776   0.692 -2.7636  0.0780 -0.9397
  933SOL     OW 2797   2.248   0.736   0.690  0.4642 -0.4632  0.3701
  933SOL    HW1 2798   2.251   0.640   0.662  1.1068  2.7465  0.1712
  933SOL    HW2 2799   2.308   0.787   0.629  0.7426  2.8686  0.9950
  934SOL     OW 2800   2.541   1.163   2.634 -0.6537  0.2394 -0.5058
  934SOL    HW1 2801   2.634   1.205   2.661  3.0018  2.7524 -0.2113
  934SOL    HW2 2802   2.532   1.142   2.534 -1.9601 -0.2254 -0.3955
  935SOL     OW 2803   0.015   1.306   1.137  0.1644 -0.1944  0.3266
  935SOL    HW1 2804   3.028   1.353   1.145  1.1467 -0.8907  1.8191
  935SOL    HW2 2805   0.008   1.231   1.207 -1.0952 -0.5299  2.3038
  936SOL     OW 2806   0.117   0.019   3.076  0.1417  0.4939  0.3371
  936SOL    HW1 2807   0.120   3.061   0.054 -0.5660  1.7940  1.8524
  936SOL    HW2 2808   0.204   0.070   3.070 -1.1714  0.0467 -0.4881
  937SOL     OW 2809   3.042   2.456   1.861 -0.0380  0.1023 -0.0691
  937SOL    HW1 2810   2.939   2.450   1.886 -1.4585 -1.0128 -1.0326
  937SOL    HW2 2811   3.048   2.409   1.771 -2.1994 -0.7147  1.6041
  938SOL     OW 2812   2.397   2.245   3.003  0.0269 -0.0559  0.0120
  938SOL    HW1 2813   2.451   2.315   2.954 -2.2637  0.1995  0.7443
  938SOL    HW2 2814   2.323   2.215   2.938 -2.4385 -0.6517  0.9819
  939SOL     OW 2815   1.037   0.595   1.346 -0.7496  0.1108 -0.6996
  939SOL    HW1 2816   1.126   0.654   1.348  3.7783  1.1696 -0.2582
  939SOL    HW2 2817   0.983   0.613   1.434  0.8599  4.4691  0.7552
  940SOL     OW 2818   2.243   2.897   2.994 -0.1988 -0.3707 -0.0852
  940SOL    HW1 2819   2.153   2.929   2.966  0.9090 -0.3310  2.1318
  940SOL    HW2 2820   2.251   2.797   3.000  0.2697  1.2571 -0.1928
  941SOL     OW 2821   2.625   2.813   2.306  0.1005 -0.6759  0.1773
  941SOL    HW1 2822   2.527   2.828   2.274 -3.1869 -0.5099 -1.5863
  941SOL    HW2 2823   2.629   2.741   2.380 -0.0411 -1.0856 -1.7492
  942SOL     OW 2824   1.615   0.075   1.107 -0.0374 -0.7184  0.1902
  942SOL    HW1 2825   1.543   0.002   1.112 -0.2652  1.2400  0.7337
  942SOL    HW2 2826   1.697   0.073   1.173  1.3617 -0.1428 -0.0284
  943SOL     OW 2827   1.190   1.523   2.317 -0.0879 -0.0688  0.5800
  943SOL    HW1 2828   1.190   1.444   2.389  0.0407 -3.7677 -0.6748
  943SOL    HW2 2829   1.097   1.564   2.304 -1.7269  2.0454  0.2559
  944SOL     OW 2830   2.781   0.765   1.405  0.3566 -0.6961  0.7184
  944SOL    HW1 2831   2.858   0.750   1.337 -0.4309  0.0158 -3.4309
  944SOL    HW2 2832   2.724   0.679   1.416  0.1841 -0.9426 -0.6055
  945SOL     OW 2833   2.921   0.105   2.742  0.1514  0.1202  0.2006
  945SOL    HW1 2834   2.824   0.140   2.753  0.0288  1.1152 -0.2233
  945SOL    HW2 2835   2.987   0.170   2.772 -0.2036 -2.1496 -4.1637
  946SOL     OW 2836   3.082   1.622   1.411 -0.1545  0.0899  0.0238
  946SOL    HW1 2837   0.058   1.632   1.350 -1.2386 -2.2055 -1.3928
  946SOL    HW2 2838   0.001   1.615   1.513 -1.4178 -2.5928  1.6865
  947SOL     OW 2839   0.398   0.362   2.859 -0.5852 -0.4188 -0.3654
  947SOL    HW1 2840   0.483   0.414   2.839 -0.1946  0.8595 -2.4280
  947SOL    HW2 2841   0.357   0.354   2.765  0.5283 -1.3471 -0.7697
  948SOL     OW 2842   2.087   1.664   1.108  0.2733 -0.4614 -0.4693
  948SOL    HW1 2843   2.082   1.686   1.213 -0.3757  1.3316  2.9198
  948SOL    HW2 2844   2.146   1.585   1.090 -0.4489 -0.0378  0.5407
  949SOL     OW 2845   0.139   1.141   3.032 -0.2171  0.2983  0.0361
  949SOL    HW1 2846   0.099   1.232   3.018 -1.4161  0.9091  3.6762
  949SOL    HW2 2847   0.147   1.089   2.947 -0.9280  0.4341 -0.3046
  950SOL     OW 2848   0.432   2.791   1.539 -0.4783  0.2394 -0.3075
  950SOL    HW1 2849   0.335   2.799   1.565  1.5697  0.7783  0.2852
  950SOL    HW2 2850   0.442   2.715   1.474 -0.2932  2.3678  0.7777
  951SOL     OW 2851   0.890   2.165   2.602 -0.3009 -0.2703 -0.0780
  951SOL    HW1 2852   0.791   2.139   2.598  0.6394 -0.2321  0.5984
  951SOL    HW2 2853   0.927   2.174   2.696 -0.5548  0.0332  0.7622
  952SOL     OW 2854   0.797   1.373   0.485 -0.0191 -0.2529 -0.6140
  952SOL    HW1 2855   0.817   1.275   0.456 -1.3801  1.2944 -0.2491
  952SOL    HW2 2856   0.867   1.432   0.440  0.0768  0.8643 -2.5407
  953SOL     OW 2857   2.174   1.678   3.063  0.9413 -0.4295 -0.1281
  953SOL    HW1 2858   2.218   1.665   2.974 -0.5644  1.4874  0.5331
  953SOL    HW2 2859   2.172   1.589   0.009  0.5758  1.4798 -0.4137
  954SOL     OW 2860   1.443   0.355   0.657 -0.5073 -0.0601  0.2683
  954SOL    HW1 2861   1.462   0.351   0.557 -1.0106 -0.2617  2.4826
  954SOL    HW2 2862   1.518   0.304   0.706  1.9359 -0.6542 -1.3398
  955SOL     OW 2863   1.047   1.701   0.041 -0.0114 -0.3167  0.0698
  955SOL    HW1 2864   0.979   1.629   0.050  1.7348  4.0774 -0.1040
  955SOL    HW2 2865   1.135   1.672   0.076 -0.4788 -0.0566  0.3874
  956SOL     OW 2866   2.792   0.359   1.978 -0.6631  0.7045  0.1485
  956SOL    HW1 2867   2.863   0.406   1.919  0.9984 -1.8167 -2.0501
  956SOL    HW2 2868   2.832   0.343   2.070 -0.0225  0.9503 -1.7887
  957SOL     OW 2869   1.880   2.081   2.193  0.3986 -0.1284 -0.3562
  957SOL    HW1 2870   1.829   2.038   2.120  0.7575  0.9265  0.1130
  957SOL    HW2 2871   1.820   2.104   2.274 -1.2060  2.1917  1.0403
  958SOL     OW 2872   1.864   0.976   1.301  0.1332 -0.1012 -0.1687
  958SOL    HW1 2873   1.899   1.070   1.321 -1.0412 -0.8734 -3.4844
  958SOL    HW2 2874   1.874   0.954   1.201 -0.5242  1.9617 -2.6530
  959SOL     OW 2875   1.582   2.169   2.047 -0.7510 -0.2390 -0.3889
  959SOL    HW1 2876   1.627   2.097   1.991  0.7873  1.8364 -0.4334
  959SOL    HW2 2877   1.646   2.252   2.046  0.0178 -1.6852 -1.6710
  960SOL     OW 2878   0.766   1.305   2.639  0.7424 -0.2395  0.1050
  960SOL    HW1 2879   0.817   1.382   2.685 -2.1868 -0.6706 -0.6233
  960SOL    HW2 2880   0.734   1.342   2.551 -1.1056 -4.1857 -2.3291
  961SOL     OW 2881   2.878   1.264   0.178  0.0600 -0.3947  0.1803
  961SOL    HW1 2882   2.922   1.348   0.163 -3.5397 -0.2496 -0.5478
  961SOL    HW2 2883   2.785   1.286   0.210  2.0929 -1.6438 -0.2609
  962SOL     OW 2884   0.958   1.942   0.107 -0.0212  0.1221  0.5535
  962SOL    HW1 2885   0.995   1.848   0.085  0.7998  2.1607 -2.1580
  962SOL    HW2 2886   0.944   1.987   0.015  1.0153  0.7872 -0.7119
  963SOL     OW 2887   2.658   1.556   0.051 -0.4321 -0.4047 -0.4109
  963SOL    HW1 2888   2.756   1.527   0.052  0.1294 -1.7398  0.6303
  963SOL    HW2 2889   2.638   1.656   0.069  0.6201  3.1127 -1.2925
  964SOL     OW 2890   0.801   2.016   2.300 -0.5242 -0.1423 -0.2771
  964SOL    HW1 2891   0.860   1.992   2.378  0.9887 -0.5032  0.5320
  964SOL    HW2 2892   0.805   2.115   2.280 -2.5699 -0.4814  2.7951
  965SOL     OW 2893   1.446   1.723   1.349 -0.4894  0.1126  0.0101
  965SOL    HW1 2894   1.547   1.736   1.355 -1.4077 -1.6585 -2.4810
  965SOL    HW2 2895   1.430   1.626   1.380 -2.8131  0.9257  2.7099
  966SOL     OW 2896   2.858   1.498   0.400 -0.1951  0.6740 -0.2134
  966SOL    HW1 2897   2.950   1.499   0.354 -0.9216 -2.5203 -0.9609
  966SOL    HW2 2898   2.789   1.479   0.328  0.8445 -0.1170 -1.8103
  967SOL     OW 2899   1.725   2.746   2.534 -0.7653  0.0053  0.2083
  967SOL    HW1 2900   1.746   2.839   2.576  1.4354  2.5026 -0.3654
  967SOL    HW2 2901   1.792   2.724   2.457  0.6453  1.7811  0.0402
  968SOL     OW 2902   1.396   1.131   2.920  0.4050 -0.4393 -0.3679
  968SOL    HW1 2903   1.377   1.103   3.014 -2.2728 -1.7733  1.8519
  968SOL    HW2 2904   1.469   1.204   2.914 -1.1770 -1.8594  0.4246
  969SOL     OW 2905   0.058   0.925   2.427  0.0473  0.4561  0.1071
  969SOL    HW1 2906   0.032   0.998   2.367  0.0645 -4.6706  1.1390
  969SOL    HW2 2907   0.126   0.959   2.495  0.3804  0.4925 -2.3177
  970SOL     OW 2908   2.506   0.113   0.127 -0.1285 -0.3360  0.6837
  970SOL    HW1 2909   2.421   0.090   0.177  0.3188 -0.9750  4.6535
  970SOL    HW2 2910   2.562   0.033   0.107 -1.7565 -0.4080 -1.3718
  971SOL     OW 2911   1.989   2.063   0.845  0.1290  0.1539 -0.2205
  971SOL    HW1 2912   1.997   2.147   0.900 -0.2783  1.4820 -1.5772
  971SOL    HW2 2913   2.070   2.008   0.848 -1.3529  2.9033  0.8477
  972SOL     OW 2914   0.267   2.015   2.621 -0.0322  0.9394 -0.3802
  972SOL    HW1 2915   0.337   1.979   2.555  1.6112  3.0931  1.6219
  972SOL    HW2 2916   0.238   1.934   2.678 -2.0455 -0.6081  1.6544
  973SOL     OW 2917   0.613   0.458   0.421 -0.0936 -0.5944 -0.1633
  973SOL    HW1 2918   0.683   0.445   0.346  4.3740 -2.8394  0.0491
  973SOL    HW2 2919   0.527   0.413   0.388 -1.1487  0.9297  2.7803
  974SOL     OW 2920   2.381   0.779   1.660  0.0804 -0.4581 -0.0810
  974SOL    HW1 2921   2.370   0.739   1.565 -0.8557  0.2300  1.0062
  974SOL    HW2 2922   2.377   0.698   1.724 -1.7897  1.9429 -2.3260
  975SOL     OW 2923   0.288   3.079   0.847  0.2638  0.1151  0.2286
  975SOL    HW1 2924   0.236   2.991   0.827 -0.6856 -0.1405 -0.8727
  975SOL    HW2 2925   0.355   0.001   0.768  0.1561  1.1161 -2.8434
  976SOL     OW 2926   0.738   1.507   1.512 -0.2147 -0.1676 -0.3277
  976SOL    HW1 2927   0.646   1.484   1.473 -0.2884 -0.9609 -1.2138
  976SOL    HW2 2928   0.739   1.605   1.510  0.7350  0.5701 -2.4673
  977SOL     OW 2929   1.345   2.117   0.317  0.4437 -0.1764 -0.1009
  977SOL    HW1 2930   1.411   2.056   0.360  1.8118  1.8969 -0.8561
  977SOL    HW2 2931   1.370   2.216   0.333 -0.2132 -2.1849 -3.1035
  978SOL     OW 2932   0.191   0.996   0.152 -0.1867  0.2488  0.0261
  978SOL    HW1 2933   0.171   1.049   0.067 -0.9598 -0.2722 -0.4305
  978SOL    HW2 2934   0.280   1.014   0.198 -0.3883  0.1693 -1.9949
  979SOL     OW 2935   1.885   1.302   0.150 -0.2072 -0.5134 -0.1235
  979SOL    HW1 2936   1.892   1.398   0.174  2.0936 -1.4339  1.2856
  979SOL    HW2 2937   1.918   1.234   0.219 -0.5141 -0.1551 -3.0159
  980SOL     OW 2938   0.748   1.614   1.938  0.4635 -0.1947  0.2191
  980SOL    HW1 2939   0.723   1.563   1.857  1.0000  1.9540  0.0465
  980SOL    HW2 2940   0.670   1.659   1.984 -0.8643 -2.2001 -1.8289
  981SOL     OW 2941   2.245   1.504   2.354  0.1559 -0.2987  0.1616
  981SOL    HW1 2942   2.335   1.511   2.403  3.9097  1.5154 -0.9272
  981SOL    HW2 2943   2.235   1.413   2.309  0.2487 -1.4793 -0.4552
  982SOL     OW 2944   0.422   2.050   1.736 -0.4796  0.0870  0.4213
  982SOL    HW1 2945   0.467   2.081   1.648 -1.4456  0.2755 -2.1646
  982SOL    HW2 2946   0.480   2.080   1.815 -2.4339  1.8404  2.8522
  983SOL     OW 2947   1.539   3.072   2.074  0.1112 -0.2341 -0.0293
  983SOL    HW1 2948   1.526   3.009   1.994 -0.3966 -0.7560  1.5495
  983SOL    HW2 2949   1.450   3.094   2.119  1.0466 -1.3868 -0.4516
  984SOL     OW 2950   0.142   0.120   2.738 -0.5976 -0.0137  0.3299
  984SOL    HW1 2951   0.076   0.170   2.797  0.2666 -0.4470 -0.7024
  984SOL    HW2 2952   0.138   0.024   2.757 -0.0059  1.1677 -2.0275
  985SOL     OW 2953   1.433   1.365   1.768  0.5535 -0.3186 -0.6218
  985SOL    HW1 2954   1.500   1.360   1.692 -1.2370 -0.2651 -1.7226
  985SOL    HW2 2955   1.357   1.296   1.764 -2.2502 -1.6933 -2.2964
  986SOL     OW 2956   1.733   0.428   0.175 -0.3104 -0.3102 -0.0811
  986SOL    HW1 2957   1.826   0.425   0.134 -1.1429 -1.7550 -1.1386
  986SOL    HW2 2958   1.668   0.465   0.109  1.7330  1.4865  2.6185
  987SOL     OW 2959   0.331   2.232   2.501 -0.1582  0.3733 -0.3974
  987SOL    HW1 2960   0.355   2.315   2.554 -0.8900  0.7496 -0.0209
  987SOL    HW2 2961   0.286   2.162   2.565 -4.7243 -1.4445  1.0442
  988SOL     OW 2962   2.881   0.172   1.622  0.4068  0.2450 -0.2523
  988SOL    HW1 2963   2.972   0.167   1.576 -0.8299  1.0875  1.0907
  988SOL    HW2 2964   2.803   0.167   1.548 -3.1329 -1.7280 -4.9169
  989SOL     OW 2965   2.001   3.092   1.072 -0.5683 -0.1871 -0.0255
  989SOL    HW1 2966   2.015   3.034   0.989  3.0300 -2.5279  0.9810
  989SOL    HW2 2967   2.085   0.035   1.099 -1.9959 -1.0707 -1.5460
  990SOL     OW 2968   2.503   0.794   0.155 -0.3979 -0.1623  0.5198
  990SOL    HW1 2969   2.470   0.773   0.063 -0.8009  1.1298  3.7250
  990SOL    HW2 2970   2.602   0.810   0.156  0.1527 -1.2046 -2.4305
  991SOL     OW 2971   0.286   1.043   0.598 -0.4749  0.4645  0.2451
  991SOL    HW1 2972   0.225   1.121   0.576  3.6928  0.2530  0.3104
  991SOL    HW2 2973   0.308   1.055   0.697  0.2191  4.2908  0.7940
  992SOL     OW 2974   1.691   1.599   1.724  0.3545  0.6851  0.0326
  992SOL    HW1 2975   1.637   1.671   1.765  0.2598 -1.3949  2.8562
  992SOL    HW2 2976   1.763   1.564   1.786  1.6677 -0.1945 -0.7504
  993SOL     OW 2977   0.017   2.455   0.904  0.0738 -0.2901 -0.1639
  993SOL    HW1 2978   0.043   2.408   0.990 -0.1647 -0.6151 -0.3290
  993SOL    HW2 2979   0.062   2.411   0.818  2.3839  1.6221 -1.6639
  994SOL     OW 2980   2.975   1.868   1.323  0.4261 -0.1474 -0.5508
  994SOL    HW1 2981   2.890   1.876   1.272  2.1855  0.8537  0.8177
  994SOL    HW2 2982   2.992   1.779   1.372 -0.0444  0.8413  3.4727
  995SOL     OW 2983   1.979   1.493   2.799  0.5386 -0.0605 -0.2636
  995SOL    HW1 2984   1.896   1.504   2.740 -2.9040  1.6600 -0.7891
  995SOL    HW2 2985   1.954   1.507   2.897 -0.5773 -0.5445  0.8982
  996SOL     OW 2986   2.005   2.540   0.560 -0.1713 -0.2739 -0.8134
  996SOL    HW1 2987   2.006   2.534   0.458 -2.4045 -1.2036  0.8973
  996SOL    HW2 2988   1.967   2.453   0.600  1.2071  1.5376 -0.5377
  997SOL     OW 2989   1.427   1.591   1.919  0.2950  0.2469 -0.0744
  997SOL    HW1 2990   1.326   1.614   1.899  1.3718  0.3501  1.8809
  997SOL    HW2 2991   1.447   1.507   1.856 -1.8907  0.4870 -1.0440
  998SOL     OW 2992   3.058   2.350   0.468 -0.1409  0.1180 -0.4618
  998SOL    HW1 2993   3.070   2.294   0.383 -2.1965  0.0675 -1.7022
  998SOL    HW2 2994   0.037   2.341   0.527 -1.2714 -0.2358  0.1752
  999SOL     OW 2995   0.735   3.027   0.051 -0.5411 -0.3736  1.1164
  999SOL    HW1 2996   0.678   2.944   0.038  1.0178 -0.4456 -2.8481
  999SOL    HW2 2997   0.761   3.068   3.061  3.4943  2.0721 -0.1385
 1000SOL     OW 2998   1.191   0.314   0.049 -0.6893  0.2712  0.0023
 1000SOL    HW1 2999   1.287   0.282   0.023  3.0104 -2.3477  0.5927
 1000SOL    HW2 3000   1.128   0.275   3.078 -1.4675 -1.1847 -1.2846
   3.10178   3.10178   3.10178
