1000 SPC/Fw water molecules t= 403.00000 step= 403000
 3000
    1SOL     OW    1   0.152   3.011   1.599  0.2707 -0.1662 -0.2167
    1SOL    HW1    2   0.124   3.054   1.691 -0.7660  0.2365  2.6289
    1SOL    HW2    3   0.214   3.073   1.544  1.8131  1.5958  1.7462
    2SOL     OW    4   2.396   2.495   0.335 -0.1624 -0.0079 -0.1929
    2SOL    HW1    5   2.455   2.470   0.254 -1.0227  2.2263 -1.4595
    2SOL    HW2    6   2.415   2.590   0.360  2.7076  0.1662  2.2563
    3SOL     OW    7   1.471   2.707   0.121 -0.1242 -0.0705 -0.2282
    3SOL    HW1    8   1.471   2.796   0.170 -1.7214  0.2391 -2.0198
    3SOL    HW2    9   1.405   2.696   0.049 -0.6439 -2.6395 -0.5463
    4SOL     OW   10   1.127   3.028   2.361 -0.2518 -0.5550 -0.1243
    4SOL    HW1   11   1.197   2.958   2.381  2.0672 -0.4653  3.7780
    4SOL    HW2   12   1.071   3.013   2.279  2.7652  1.5746 -1.8338
    5SOL     OW   13   2.149   0.038   1.633 -0.3152 -0.2668  0.2976
    5SOL    HW1   14   2.165   0.029   1.732  0.6280 -0.7387  1.5759
    5SOL    HW2   15   2.239   0.058   1.584 -2.2948  1.4450  1.0649
    6SOL     OW   16   2.416   1.886   0.616 -0.1544  0.4973  0.2249
    6SOL    HW1   17   2.364   1.936   0.684 -0.8253 -1.5055 -0.6029
    6SOL    HW2   18   2.447   1.798   0.659 -0.0240 -2.5089  2.2505
    7SOL     OW   19   2.272   1.326   0.803 -0.3458  0.1908  0.1062
    7SOL    HW1   20   2.340   1.266   0.756  3.5234  1.6131  0.3768
    7SOL    HW2   21   2.246   1.408   0.747 -0.4814 -0.8661  1.4515
    8SOL     OW   22   0.401   1.355   0.931  0.0999  0.1243 -0.3888
    8SOL    HW1   23   0.457   1.389   1.009  0.6600  1.2691 -0.1486
    8SOL    HW2   24   0.465   1.301   0.871 -0.6081  1.4146  1.4609
    9SOL     OW   25   0.236   2.753   1.639 -0.1631  0.3013 -0.8439
    9SOL    HW1   26   0.210   2.853   1.627  1.1353 -3.4952 -2.3598
    9SOL    HW2   27   0.219   2.712   1.548 -0.2810 -1.1132  1.1126
   10SOL     OW   28   1.088   2.441   0.391 -0.1916 -0.3629 -0.1277
   10SOL    HW1   29   1.111   2.351   0.427  0.2943  1.0218 -2.3498
   10SOL    HW2   30   1.146   2.513   0.437  1.2416  2.2321  1.5404
   11SOL     OW   31   1.583   2.040   0.990  0.5040 -0.2009  0.5103
   11SOL    HW1   32   1.672   2.000   0.955  4.4844 -1.8475 -0.3911
   11SOL    HW2   33   1.597   2.085   1.080 -1.1141  2.5027  0.8663
   12SOL     OW   34   2.771   0.430   2.149 -0.1861  0.1336  0.6888
   12SOL    HW1   35   2.829   0.486   2.208  0.1149 -2.0395 -1.6698
   12SOL    HW2   36   2.717   0.368   2.210 -0.3044  2.7069  1.2357
   13SOL     OW   37   2.742   2.901   0.208 -0.2108 -0.5574 -0.1126
   13SOL    HW1   38   2.792   2.814   0.218 -0.5749 -0.0502 -4.1003
   13SOL    HW2   39   2.660   2.887   0.149  1.1128  0.5936 -0.9941
   14SOL     OW   40   1.860   1.437   3.063  0.0864  0.0101  0.0813
   14SOL    HW1   41   1.811   1.365   3.017  3.1583  0.3871  0.2746
   14SOL    HW2   42   1.823   1.457   0.039 -0.3196  1.7817  0.2753
   15SOL     OW   43   2.878   2.537   1.762 -0.2764 -0.1799 -0.3231
   15SOL    HW1   44   2.853   2.445   1.787  0.9933  1.8697  0.5605
   15SOL    HW2   45   2.977   2.548   1.779 -1.9638  1.2364  0.2028
   16SOL     OW   46   2.883   2.850   0.828  0.2701  0.1341 -0.7780
   16SOL    HW1   47   2.856   2.949   0.857 -2.9441  2.4149  1.0412
   16SOL    HW2   48   2.804   2.793   0.849  2.3018  2.3126 -0.5205
   17SOL     OW   49   1.264   0.149   0.941 -0.1281 -0.4752  0.3194
   17SOL    HW1   50   1.223   0.095   0.865  0.7373 -0.9938 -0.8737
   17SOL    HW2   51   1.191   0.191   1.001  0.3175  0.7923  1.1669
   18SOL     OW   52   1.551   3.070   0.920  0.1837  0.7220  0.0945
   18SOL    HW1   53   1.651   3.070   0.887  3.5743 -0.5138 -0.8728
   18SOL    HW2   54   1.528   0.037   0.971 -0.0155 -1.5763 -1.7987
   19SOL     OW   55   2.290   1.403   0.386  0.3489  0.0610 -0.2415
   19SOL    HW1   56   2.270   1.386   0.283  1.1446 -0.2736 -2.8030
   19SOL    HW2   57   2.373   1.464   0.389 -2.8901  0.3376 -0.0753
   20SOL     OW   58   2.317   1.598   2.605  0.7991 -0.4194  0.2241
   20SOL    HW1   59   2.364   1.685   2.588 -0.8144 -0.2205  0.1903
   20SOL    HW2   60   2.228   1.610   2.658 -3.8709 -0.4058  0.0922
   21SOL     OW   61   1.482   2.940   0.279 -0.7718  0.0638  0.0088
   21SOL    HW1   62   1.579   2.950   0.314  1.2332  0.1012 -0.3739
   21SOL    HW2   63   1.409   2.965   0.339  1.4590 -3.4134 -1.3806
   22SOL     OW   64   2.894   0.919   0.962 -0.1943 -0.3768  0.3707
   22SOL    HW1   65   2.911   0.900   1.060 -0.5354  1.4476  1.8492
   22SOL    HW2   66   2.800   0.903   0.930  2.5278  1.6258 -0.0977
   23SOL     OW   67   0.720   3.075   1.915  0.3218  0.2620  0.0360
   23SOL    HW1   68   0.724   0.030   1.843  1.9913  1.3468  0.5348
   23SOL    HW2   69   0.627   3.028   1.911 -3.6081 -0.4501  1.6324
   24SOL     OW   70   2.363   2.580   0.767  0.1828 -0.2458  0.0809
   24SOL    HW1   71   2.426   2.559   0.692 -1.7515  0.3747  1.0066
   24SOL    HW2   72   2.352   2.497   0.825 -0.1569 -1.0510 -2.1620
   25SOL     OW   73   1.953   3.081   2.794 -1.1135  0.5052 -0.3131
   25SOL    HW1   74   2.033   0.024   2.815  0.8921 -0.9192 -0.2443
   25SOL    HW2   75   1.877   0.019   2.763  2.6536  0.0482 -0.4967
   26SOL     OW   76   1.446   2.296   3.094 -0.0038  0.3803 -0.5593
   26SOL    HW1   77   1.487   2.300   0.070 -0.1754 -0.9420 -1.4267
   26SOL    HW2   78   1.342   2.278   3.106 -2.6003  0.1309  0.7839
   27SOL     OW   79   1.510   0.613   1.074  0.1710  0.2327  0.4633
   27SOL    HW1   80   1.418   0.586   1.105  0.3416 -0.1649  0.8284
   27SOL    HW2   81   1.507   0.702   1.027  0.6246  0.2762 -1.2656
   28SOL     OW   82   0.988   1.370   0.507  0.1759  0.0790  0.3173
   28SOL    HW1   83   0.984   1.277   0.547  2.3030  0.1833  0.4483
   28SOL    HW2   84   1.058   1.429   0.543 -2.8445  0.8065  1.2279
   29SOL     OW   85   2.628   0.454   1.472 -0.0466 -0.1332  0.3558
   29SOL    HW1   86   2.605   0.397   1.550  1.8980 -1.9890 -3.1045
   29SOL    HW2   87   2.605   0.548   1.493 -0.9632 -1.3522 -1.4331
   30SOL     OW   88   1.219   2.613   1.489  0.3134  0.0462 -0.3516
   30SOL    HW1   89   1.276   2.631   1.573  2.1840  1.6699  0.7460
   30SOL    HW2   90   1.278   2.561   1.422  1.2092  1.3852  1.5799
   31SOL     OW   91   1.729   2.948   1.620  0.3318 -0.4191 -0.0400
   31SOL    HW1   92   1.725   3.045   1.654  0.6679  2.6903 -2.3577
   31SOL    HW2   93   1.829   2.924   1.616  2.4452  1.1019  0.0503
   32SOL     OW   94   1.855   1.657   2.533  0.2310  0.2891 -0.0106
   32SOL    HW1   95   1.850   1.631   2.437 -0.8669  0.6386 -0.0791
   32SOL    HW2   96   1.836   1.579   2.596  1.4087 -3.6580 -1.1244
   33SOL     OW   97   2.446   0.722   2.448  0.5965 -0.4874  0.2645
   33SOL    HW1   98   2.373   0.688   2.511  1.8632  0.9556 -1.0348
   33SOL    HW2   99   2.430   0.691   2.352 -1.2051 -1.8532  0.5210
   34SOL     OW  100   1.660   0.359   0.522 -0.5151  0.1476 -0.0948
   34SOL    HW1  101   1.619   0.368   0.616 -0.3675 -0.3340  1.9564
   34SOL    HW2  102   1.756   0.389   0.516 -1.8284 -2.7254 -0.8844
   35SOL     OW  103   0.004   2.295   2.132  0.0608  0.0618 -0.0663
   35SOL    HW1  104   3.023   2.296   2.122  3.4380 -1.1189  2.4339
   35SOL    HW2  105   0.034   2.283   2.231 -0.4758 -1.8736  0.3443
   36SOL     OW  106   2.572   1.711   3.054  1.0416  0.0061 -0.0351
   36SOL    HW1  107   2.582   1.662   2.966  1.2352  2.8423  2.6550
   36SOL    HW2  108   2.580   1.813   3.033 -0.0175  1.0885  2.3078
   37SOL     OW  109   1.929   0.253   1.583  0.0070  0.8179 -0.3493
   37SOL    HW1  110   1.908   0.350   1.607  1.2380 -1.9644  2.0780
   37SOL    HW2  111   2.019   0.231   1.622 -1.2254  3.4966  3.3623
   38SOL     OW  112   0.339   0.659   2.580 -0.0127 -0.0437  0.0375
   38SOL    HW1  113   0.382   0.596   2.509 -0.0929  2.1783 -0.3984
   38SOL    HW2  114   0.406   0.694   2.651 -1.8183  0.0196 -0.6389
   39SOL     OW  115   1.980   1.277   1.368  0.2478 -0.3751 -0.3400
   39SOL    HW1  116   1.912   1.198   1.379 -3.8117 -2.0324 -0.5900
   39SOL    HW2  117   1.999   1.304   1.272 -0.0477 -0.3238 -2.6243
   40SOL     OW  118   1.029   2.054   0.864 -0.1538  0.0521  0.1301
   40SOL    HW1  119   0.934   2.027   0.872 -0.0491  0.6484  1.5262
   40SOL    HW2  120   1.091   1.979   0.894 -1.3159  2.9150 -0.0624
   41SOL     OW  121   1.918   2.205   0.920  0.0141 -0.2972  0.4271
   41SOL    HW1  122   1.869   2.122   0.898  0.6925  2.5372  0.0504
   41SOL    HW2  123   1.958   2.205   1.018 -1.7427 -1.0964 -0.1588
   42SOL     OW  124   2.668   0.714   1.207  0.3355  0.0701 -0.2390
   42SOL    HW1  125   2.751   0.653   1.189  1.2715  0.0363 -0.4541
   42SOL    HW2  126   2.702   0.809   1.226 -0.0548 -2.1301 -1.8319
   43SOL     OW  127   0.700   1.508   2.711  0.0641  0.2113  0.3550
   43SOL    HW1  128   0.734   1.519   2.615  0.3117  1.9080 -0.9310
   43SOL    HW2  129   0.600   1.527   2.717 -0.0280  1.5849 -2.5212
   44SOL     OW  130   1.582   2.499   1.380  0.5731  0.6289  0.0400
   44SOL    HW1  131   1.635   2.588   1.399  2.6072  2.5313  2.9770
   44SOL    HW2  132   1.490   2.529   1.346 -2.8065  2.0287  2.1306
   45SOL     OW  133   0.872   2.930   2.477 -0.1430  0.0361  0.4865
   45SOL    HW1  134   0.957   2.974   2.452  0.1093 -0.1374  1.4880
   45SOL    HW2  135   0.889   2.833   2.506 -4.1863 -1.2378  1.2045
   46SOL     OW  136   0.982   2.529   2.325  0.4996  0.4567  0.0638
   46SOL    HW1  137   1.036   2.454   2.284 -0.6552  1.7333  1.9157
   46SOL    HW2  138   0.915   2.568   2.260  2.1145  0.8297  0.6346
   47SOL     OW  139   0.829   2.134   1.227 -0.1969 -0.1135 -0.3320
   47SOL    HW1  140   0.774   2.212   1.225  1.3463 -6.1136 -1.1317
   47SOL    HW2  141   0.778   2.048   1.208  1.1474 -1.3302 -2.2532
   48SOL     OW  142   0.778   2.414   1.447 -0.1044  0.2431 -0.1793
   48SOL    HW1  143   0.766   2.402   1.348 -0.9379  0.4281 -0.6944
   48SOL    HW2  144   0.876   2.412   1.467 -0.0118 -0.0411  0.0418
   49SOL     OW  145   2.387   0.066   3.069 -0.5284 -0.3898 -0.4676
   49SOL    HW1  146   2.409   0.159   3.106 -1.5397 -1.7318  1.1059
   49SOL    HW2  147   2.439   0.042   2.984 -3.1318  0.1673 -2.6727
   50SOL     OW  148   1.702   0.885   0.300 -0.1001  0.9190  0.0887
   50SOL    HW1  149   1.794   0.883   0.258  1.1263 -0.1718 -3.1452
   50SOL    HW2  150   1.706   0.948   0.378 -0.3980  1.5474 -1.7529
   51SOL     OW  151   2.139   0.783   0.879 -0.0163  0.0744  0.1169
   51SOL    HW1  152   2.114   0.790   0.977  0.9388  1.0705  0.0313
   51SOL    HW2  153   2.159   0.684   0.854 -1.3324 -0.3244 -1.0376
   52SOL     OW  154   0.680   1.505   0.268  0.0039 -0.1367 -0.2124
   52SOL    HW1  155   0.681   1.473   0.176  1.7247  1.4202  2.7675
   52SOL    HW2  156   0.624   1.434   0.320  0.3139 -2.3173  0.4476
   53SOL     OW  157   0.364   1.174   2.943 -0.4014  0.3932  0.0817
   53SOL    HW1  158   0.264   1.168   2.930  3.7083  0.7961  0.5771
   53SOL    HW2  159   0.393   1.142   3.036  0.7305 -0.2846 -2.9118
   54SOL     OW  160   2.030   1.455   2.295 -0.2276  0.1012 -0.4251
   54SOL    HW1  161   2.131   1.471   2.289  0.9697  0.8526 -1.8793
   54SOL    HW2  162   1.978   1.532   2.263 -1.6807 -3.6003  0.3267
   55SOL     OW  163   2.589   2.257   0.795  0.2676  0.4196  0.4296
   55SOL    HW1  164   2.553   2.331   0.730 -0.0470 -1.2003 -1.1268
   55SOL    HW2  165   2.518   2.221   0.863 -2.1831 -3.7109  0.2454
   56SOL     OW  166   1.950   2.847   1.297  0.0557 -0.1212  0.4010
   56SOL    HW1  167   1.968   2.860   1.396 -2.7194  3.0896  2.0728
   56SOL    HW2  168   1.855   2.821   1.286 -0.0451  0.0980 -0.2048
   57SOL     OW  169   1.924   1.364   0.378  0.1745 -0.2434 -0.2483
   57SOL    HW1  170   1.979   1.291   0.417  0.6015  2.6997 -0.2110
   57SOL    HW2  171   1.932   1.451   0.428 -0.0141 -1.9535  1.6943
   58SOL     OW  172   2.358   0.262   1.379  0.4570 -0.6944 -0.0567
   58SOL    HW1  173   2.298   0.191   1.341 -0.1870  1.4144  1.1435
   58SOL    HW2  174   2.457   0.244   1.361  0.2738  0.2862 -2.4273
   59SOL     OW  175   1.177   2.659   2.727 -0.3422 -0.1863  0.7091
   59SOL    HW1  176   1.253   2.667   2.660  0.9421  1.5516  2.7305
   59SOL    HW2  177   1.167   2.750   2.766 -1.1177 -2.6013  0.0961
   60SOL     OW  178   0.023   2.629   2.738 -0.5048 -0.4536 -0.1725
   60SOL    HW1  179   0.024   2.645   2.837 -1.8123  0.7414 -2.5593
   60SOL    HW2  180   3.045   2.650   2.701 -0.6857 -0.7690 -3.5227
   61SOL     OW  181   0.710   2.429   1.177  0.3142  0.0513 -0.6259
   61SOL    HW1  182   0.750   2.512   1.138 -1.6520 -3.5682 -1.3687
   61SOL    HW2  183   0.609   2.435   1.159  1.3369 -1.3350  0.9243
   62SOL     OW  184   1.578   1.892   1.870 -0.3323  0.4633  0.1447
   62SOL    HW1  185   1.631   1.918   1.954  4.3136 -0.1205  0.7141
   62SOL    HW2  186   1.617   1.808   1.826  2.7436 -0.1014 -0.1941
   63SOL     OW  187   1.920   1.698   0.315  1.0219 -0.4555  0.0440
   63SOL    HW1  188   2.015   1.676   0.289  0.6903 -2.0042  0.6829
   63SOL    HW2  189   1.896   1.800   0.314  2.0324  2.3426  2.6170
   64SOL     OW  190   1.769   1.233   0.185 -0.4780  0.3083 -0.1122
   64SOL    HW1  191   1.799   1.274   0.272 -0.3438  2.6833 -4.1822
   64SOL    HW2  192   1.670   1.209   0.192  0.4048 -0.3335  0.8459
   65SOL     OW  193   1.906   2.274   2.335  0.5900 -0.6079  0.6637
   65SOL    HW1  194   1.809   2.249   2.364  1.6987  3.0464 -0.7781
   65SOL    HW2  195   1.909   2.302   2.236  1.5282  2.7170 -0.3673
   66SOL     OW  196   0.282   1.011   1.507  0.6560  0.3622 -0.2145
   66SOL    HW1  197   0.318   0.946   1.442 -1.1525 -0.3703 -0.2748
   66SOL    HW2  198   0.321   1.102   1.486  0.0423  0.3784  0.1385
   67SOL     OW  199   2.119   2.896   0.328  0.3052 -0.6203  0.2628
   67SOL    HW1  200   2.195   2.944   0.381 -2.3753  0.3973  1.5949
   67SOL    HW2  201   2.091   2.949   0.241 -1.5753  3.2821 -4.6699
   68SOL     OW  202   1.915   2.491   1.211  0.4288  0.2162 -0.1625
   68SOL    HW1  203   1.996   2.480   1.154  1.8744 -0.5711  0.9834
   68SOL    HW2  204   1.850   2.556   1.161 -2.0309  1.6850 -1.1717
   69SOL     OW  205   2.664   1.994   3.036  0.1199 -0.3722  0.3272
   69SOL    HW1  206   2.681   2.068   2.968  0.5889 -0.3092  2.0022
   69SOL    HW2  207   2.727   2.007   3.116  2.7668  0.2230 -2.4869
   70SOL     OW  208   0.336   1.014   2.383 -0.0463 -0.0637 -0.5689
   70SOL    HW1  209   0.393   1.043   2.310 -2.7845  1.4962  2.1577
   70SOL    HW2  210   0.248   1.065   2.384  1.4043 -1.4084 -3.5574
   71SOL     OW  211   0.876   1.032   2.433  0.1568  0.0202  0.2633
   71SOL    HW1  212   0.804   1.054   2.363 -0.3009 -2.4138  0.1879
   71SOL    HW2  213   0.876   0.937   2.466 -0.2533  0.1606 -0.0006
   72SOL     OW  214   2.489   1.460   2.079 -0.2882  0.1156  0.5952
   72SOL    HW1  215   2.396   1.472   2.038 -3.3081  1.5171  0.0823
   72SOL    HW2  216   2.532   1.380   2.036 -0.2803 -0.8224 -0.6052
   73SOL     OW  217   1.166   1.921   2.750 -0.2902 -0.1083 -0.4347
   73SOL    HW1  218   1.162   1.863   2.837 -1.3217  0.5683  2.4847
   73SOL    HW2  219   1.251   1.968   2.742 -2.5936 -2.9042  0.2069
   74SOL     OW  220   2.179   2.887   2.479 -0.1841  0.4029 -0.3747
   74SOL    HW1  221   2.084   2.891   2.522  0.1655 -1.1597 -1.5261
   74SOL    HW2  222   2.216   2.982   2.459  0.5307 -0.1582 -1.1669
   75SOL     OW  223   1.544   2.577   0.899  0.2185 -0.2504  0.6713
   75SOL    HW1  224   1.466   2.578   0.964  0.1676  0.4304  0.4420
   75SOL    HW2  225   1.593   2.491   0.897  0.3298  0.3610  1.4316
   76SOL     OW  226   2.834   1.736   2.843  0.2124  0.1886 -0.1004
   76SOL    HW1  227   2.745   1.696   2.851  2.8699  2.0939  0.6996
   76SOL    HW2  228   2.899   1.718   2.922  2.5932 -0.2776  0.2219
   77SOL     OW  229   3.016   2.550   1.411  0.1605  0.8339  0.1631
   77SOL    HW1  230   2.915   2.561   1.426 -1.5555  1.2172  1.9810
   77SOL    HW2  231   3.057   2.514   1.495  1.9519  1.5526  2.4653
   78SOL     OW  232   2.520   0.882   3.011  0.7072 -0.7676  0.3814
   78SOL    HW1  233   2.563   0.960   3.056  2.0069  0.4235 -0.4762
   78SOL    HW2  234   2.429   0.907   2.984 -0.5760 -0.6143  2.3479
   79SOL     OW  235   0.239   1.777   2.528  0.0242 -0.3671  1.1447
   79SOL    HW1  236   0.265   1.737   2.436  0.2432  0.5638  1.7883
   79SOL    HW2  237   0.149   1.735   2.556  0.1926  1.3965  1.1806
   80SOL     OW  238   1.584   1.464   2.027 -0.3054  0.3997 -0.1256
   80SOL    HW1  239   1.532   1.459   1.936 -1.9682  1.6156 -3.2214
   80SOL    HW2  240   1.559   1.391   2.091 -1.4576  1.7679 -1.3430
   81SOL     OW  241   2.300   1.157   2.281 -0.4260  0.3732  0.1926
   81SOL    HW1  242   2.206   1.128   2.260  0.6155 -2.1099  0.4431
   81SOL    HW2  243   2.299   1.251   2.314 -4.8377 -1.1977  2.1409
   82SOL     OW  244   1.477   1.456   1.755 -0.3633  0.3167  0.4384
   82SOL    HW1  245   1.403   1.512   1.712 -1.9141 -1.3318  1.3249
   82SOL    HW2  246   1.546   1.416   1.685  0.6586 -0.4732 -1.9303
   83SOL     OW  247   0.003   0.370   3.062  0.0674 -0.2704 -0.2235
   83SOL    HW1  248   0.046   0.362   0.037  0.1975 -0.1316 -0.4768
   83SOL    HW2  249   3.024   0.400   3.061  0.3360 -0.6099 -0.0619
   84SOL     OW  250   3.091   0.791   0.034 -0.2792 -0.0469 -0.5082
   84SOL    HW1  251   2.997   0.835   0.024 -0.9827 -0.4126 -0.4832
   84SOL    HW2  252   0.005   0.795   0.130  0.9363 -0.0269 -0.7896
   85SOL     OW  253   2.181   2.179   1.843 -0.0884 -0.8169 -0.0264
   85SOL    HW1  254   2.244   2.148   1.914 -2.6100 -1.5137  0.8490
   85SOL    HW2  255   2.159   2.277   1.844 -0.7700  0.3623 -1.9509
   86SOL     OW  256   0.348   0.411   1.171  0.4776 -0.3261 -0.2990
   86SOL    HW1  257   0.347   0.515   1.161 -0.8440 -1.7958 -1.2300
   86SOL    HW2  258   0.422   0.373   1.114  1.8227  0.4625  3.6600
   87SOL     OW  259   2.919   1.927   2.024 -0.0335 -0.6864  0.2821
   87SOL    HW1  260   2.952   2.014   1.982 -0.5695 -0.2261  0.5011
   87SOL    HW2  261   2.900   1.937   2.122  1.0927 -0.3264 -0.8884
   88SOL     OW  262   0.444   2.061   0.054  0.1193  0.2908  0.3440
   88SOL    HW1  263   0.477   2.017   0.140  0.7682  0.1118  0.4900
   88SOL    HW2  264   0.445   1.985   3.105 -2.1918  1.8418  0.3431
   89SOL     OW  265   1.491   0.809   0.125  0.0593 -0.4725 -0.9143
   89SOL    HW1  266   1.444   0.901   0.110 -3.3763  2.6272  0.0205
   89SOL    HW2  267   1.564   0.822   0.200 -0.0914 -1.1041  1.7822
   90SOL     OW  268   3.041   1.540   2.388  0.0475  0.1080 -0.0825
   90SOL    HW1  269   2.947   1.522   2.419 -0.1493 -0.9379 -1.5538
   90SOL    HW2  270   3.049   1.616   2.323 -1.5291 -1.0648  2.9207
   91SOL     OW  271   2.066   3.051   1.150  0.1146  0.3935  0.0551
   91SOL    HW1  272   2.019   2.971   1.195  0.7993 -0.9675 -0.7742
   91SOL    HW2  273   2.123   3.014   1.073  1.2369  1.5140 -0.7187
   92SOL     OW  274   2.264   1.498   1.530 -0.1115 -0.1078  0.0917
   92SOL    HW1  275   2.301   1.467   1.442 -0.9446 -0.4780  0.3287
   92SOL    HW2  276   2.315   1.460   1.606 -1.5688  1.9434 -1.0803
   93SOL     OW  277   3.057   1.074   0.186  0.3255  0.1492 -0.3306
   93SOL    HW1  278   3.067   0.977   0.211  1.0223  0.7723  1.2780
   93SOL    HW2  279   0.032   1.110   0.168 -3.1536 -2.4572 -1.6685
   94SOL     OW  280   1.322   2.324   2.051  0.0034  0.2270 -0.2631
   94SOL    HW1  281   1.314   2.267   2.135 -0.6504  1.8642  0.3739
   94SOL    HW2  282   1.415   2.361   2.058 -1.0285 -1.0604 -3.4028
   95SOL     OW  283   0.149   0.538   0.989 -0.2673 -0.0647 -0.4926
   95SOL    HW1  284   0.201   0.453   1.022  3.7935 -3.0530 -1.1326
   95SOL    HW2  285   0.194   0.576   0.907  1.4351 -0.7647 -1.1468
   96SOL     OW  286   2.981   3.060   1.535 -0.5998 -0.1069  0.4321
   96SOL    HW1  287   3.078   3.050   1.539 -2.2226  2.4308  0.2298
   96SOL    HW2  288   2.937   2.971   1.514 -0.1960 -0.4986  0.9791
   97SOL     OW  289   2.515   0.709   1.557 -0.5205  0.4403  0.4704
   97SOL    HW1  290   2.537   0.790   1.502 -1.0769 -0.5095 -0.6364
   97SOL    HW2  291   2.534   0.723   1.657  0.5484  1.2260  0.4099
   98SOL     OW  292   2.235   2.449   1.447  0.3403 -0.5331 -0.0635
   98SOL    HW1  293   2.244   2.350   1.470 -2.4832 -0.7145 -0.9319
   98SOL    HW2  294   2.228   2.462   1.344  0.2085  1.6044 -0.8747
   99SOL     OW  295   0.545   0.356   1.962 -0.3381 -0.2323  0.3125
   99SOL    HW1  296   0.469   0.425   1.965 -0.4813  2.0789 -0.3492
   99SOL    HW2  297   0.593   0.359   1.868 -1.0234  3.1155 -1.5150
  100SOL     OW  298   2.186   0.137   2.208  0.4306 -0.1517  0.0246
  100SOL    HW1  299   2.202   0.088   2.122  0.7640 -0.6599  2.1150
  100SOL    HW2  300   2.096   0.183   2.225 -2.1039 -1.4999 -0.6571
  101SOL     OW  301   0.040   0.059   2.558  0.1564 -0.1276  0.0742
  101SOL    HW1  302   0.121   0.017   2.512  0.8163  1.0624  0.0927
  101SOL    HW2  303   0.061   0.112   2.638 -3.6504  0.3239  0.6699
  102SOL     OW  304   0.651   0.400   1.718  0.7160  0.3490  0.2115
  102SOL    HW1  305   0.599   0.462   1.653 -0.2517 -1.3981 -0.5960
  102SOL    HW2  306   0.749   0.432   1.724 -2.4607 -0.2968 -0.1360
  103SOL     OW  307   0.972   0.678   2.769  0.1950 -0.0007  0.0900
  103SOL    HW1  308   1.039   0.640   2.836  2.0046 -0.9777 -1.7586
  103SOL    HW2  309   0.924   0.766   2.800  0.4512 -0.7744  1.8040
  104SOL     OW  310   0.083   0.648   2.185 -0.1744  0.3543 -0.4072
  104SOL    HW1  311   0.165   0.707   2.213 -2.9730  1.8173  0.6143
  104SOL    HW2  312   0.010   0.717   2.162 -0.1608  1.3176 -0.5166
  105SOL     OW  313   2.470   2.100   1.255  0.7800  0.6514  0.3198
  105SOL    HW1  314   2.437   2.183   1.291 -1.6462 -2.3497 -0.8111
  105SOL    HW2  315   2.446   2.024   1.318 -1.6224 -0.3663  2.2910
  106SOL     OW  316   1.788   0.083   0.524 -0.0640  0.2039 -0.4755
  106SOL    HW1  317   1.881   0.110   0.561  1.0833 -1.4335 -1.3816
  106SOL    HW2  318   1.746   0.164   0.487  2.5827 -1.0554  0.8175
  107SOL     OW  319   2.123   2.266   0.736 -0.2336  0.3784  0.3102
  107SOL    HW1  320   2.108   2.271   0.636  0.0655 -0.8584  0.1456
  107SOL    HW2  321   2.040   2.254   0.788  0.6856  1.7566 -2.6605
  108SOL     OW  322   3.038   2.592   1.129  0.0692  0.2675 -0.6655
  108SOL    HW1  323   3.044   2.501   1.086 -0.6465  1.8615  1.8116
  108SOL    HW2  324   3.044   2.572   1.225  0.2821  2.1217 -2.0587
  109SOL     OW  325   1.762   2.424   0.871  0.1302  0.6566  0.0978
  109SOL    HW1  326   1.823   2.500   0.890 -0.5834  0.4628  0.8828
  109SOL    HW2  327   1.808   2.335   0.896  1.0127 -1.8699 -3.4871
  110SOL     OW  328   1.844   1.510   1.426  0.0633 -0.7368  0.5959
  110SOL    HW1  329   1.906   1.433   1.410 -1.0174  1.4774  2.2316
  110SOL    HW2  330   1.776   1.476   1.496 -1.9478  0.9004  1.6914
  111SOL     OW  331   1.770   2.313   2.065  0.1976 -0.1899 -0.3040
  111SOL    HW1  332   1.784   2.325   1.965  0.5855  1.5496  2.2087
  111SOL    HW2  333   1.690   2.367   2.096 -3.0906 -0.1365  1.8763
  112SOL     OW  334   1.780   2.069   2.781 -0.3818  0.7279 -0.4189
  112SOL    HW1  335   1.721   2.113   2.850 -2.8531  0.6486 -0.2132
  112SOL    HW2  336   1.729   2.016   2.721  1.8029  4.8772  1.6297
  113SOL     OW  337   1.969   1.975   1.854 -0.2341  0.2123 -0.0495
  113SOL    HW1  338   2.041   2.048   1.864 -0.9378  0.4760 -0.4491
  113SOL    HW2  339   1.981   1.910   1.933  2.6707  0.1363  0.0946
  114SOL     OW  340   3.076   1.462   1.599  0.7969 -0.0183  0.4066
  114SOL    HW1  341   0.007   1.410   1.675  1.9724 -1.4359  1.8860
  114SOL    HW2  342   0.026   1.512   1.542 -0.0049  1.1493 -2.3775
  115SOL     OW  343   0.011   0.821   0.329 -0.2997  0.2051 -0.0017
  115SOL    HW1  344   3.040   0.797   0.376 -1.2270 -1.0777 -0.5211
  115SOL    HW2  345   0.060   0.883   0.394 -1.4136 -1.5333 -0.3221
  116SOL     OW  346   2.840   1.011   2.771 -0.5526  0.1887  0.2721
  116SOL    HW1  347   2.749   1.047   2.739 -0.3303 -0.3365 -0.2408
  116SOL    HW2  348   2.840   0.910   2.778 -3.6272 -2.6093  0.1432
  117SOL     OW  349   2.919   2.483   0.101  0.5852  0.4773  0.2121
  117SOL    HW1  350   2.861   2.399   0.111 -0.5584 -0.5320 -0.1836
  117SOL    HW2  351   2.911   2.518   0.004 -1.1982 -3.2642 -0.8693
  118SOL     OW  352   0.678   2.128   2.879  0.5507 -0.1984  0.6197
  118SOL    HW1  353   0.725   2.216   2.858  0.4151  0.4927  1.6077
  118SOL    HW2  354   0.628   2.093   2.799  0.6463 -0.1831  0.1106
  119SOL     OW  355   0.468   2.372   0.805 -0.5154 -0.0031 -0.5363
  119SOL    HW1  356   0.556   2.357   0.763 -3.2311 -2.8182  0.7389
  119SOL    HW2  357   0.480   2.386   0.906  0.6815 -0.5455  0.5223
  120SOL     OW  358   1.367   0.603   0.258  0.1650 -0.0346 -0.1573
  120SOL    HW1  359   1.413   0.679   0.212 -2.7099  0.5911 -0.0205
  120SOL    HW2  360   1.269   0.610   0.229 -2.9081 -3.3904  0.0750
  121SOL     OW  361   1.328   2.597   1.067  0.2240 -0.0980 -0.1288
  121SOL    HW1  362   1.330   2.698   1.072 -0.2001 -1.1732  1.8210
  121SOL    HW2  363   1.235   2.564   1.030 -1.4796 -0.5776 -2.6585
  122SOL     OW  364   2.523   1.694   2.371  0.0865  0.3446  0.8664
  122SOL    HW1  365   2.608   1.660   2.318  2.3970  0.1895 -1.1239
  122SOL    HW2  366   2.442   1.704   2.308 -0.5258 -1.9684 -0.5115
  123SOL     OW  367   0.922   1.487   0.880  0.8035  0.4170  0.1460
  123SOL    HW1  368   0.920   1.514   0.978 -2.0171 -3.0802 -1.5404
  123SOL    HW2  369   0.945   1.563   0.819  0.7184 -2.3260  0.4489
  124SOL     OW  370   0.173   0.535   2.950  0.2685 -0.2673 -0.0420
  124SOL    HW1  371   0.094   0.471   2.970 -1.0014 -3.2859  1.8272
  124SOL    HW2  372   0.169   0.559   2.851 -0.8467  0.7298  0.4269
  125SOL     OW  373   0.500   0.457   0.098  0.0083  0.0413 -0.2792
  125SOL    HW1  374   0.426   0.525   0.090  3.1653 -1.0647 -0.9712
  125SOL    HW2  375   0.470   0.362   0.062  1.5169 -1.2982  0.6293
  126SOL     OW  376   0.266   1.671   0.640  0.6275  0.6632  0.4855
  126SOL    HW1  377   0.359   1.637   0.623 -2.5351 -2.0825 -1.3844
  126SOL    HW2  378   0.196   1.614   0.597 -1.7385 -0.8244 -0.1144
  127SOL     OW  379   1.004   2.465   1.744  0.1676  0.4644 -0.0777
  127SOL    HW1  380   0.923   2.524   1.735  1.0768 -2.8472 -0.6187
  127SOL    HW2  381   1.021   2.426   1.651 -2.8801 -1.0493  0.4345
  128SOL     OW  382   1.278   1.577   0.137  0.4442 -0.2314  0.5189
  128SOL    HW1  383   1.198   1.637   0.134  2.7808 -1.7559  0.5029
  128SOL    HW2  384   1.310   1.556   0.044  0.0024  1.3053 -2.0197
  129SOL     OW  385   1.776   2.110   1.719 -0.8402  0.2666 -0.6626
  129SOL    HW1  386   1.723   2.031   1.689  0.7731  0.9762 -2.1169
  129SOL    HW2  387   1.853   2.078   1.781  0.9243 -1.2618 -0.1948
  130SOL     OW  388   1.710   2.357   1.779  0.2940  0.2393 -0.1737
  130SOL    HW1  389   1.736   2.267   1.733 -0.9611  0.3653  0.9673
  130SOL    HW2  390   1.622   2.379   1.732 -0.4299  1.2881  0.5661
  131SOL     OW  391   2.912   2.398   2.396 -0.1802 -0.1281 -0.3257
  131SOL    HW1  392   2.990   2.352   2.447  2.6141 -1.0463  1.5625
  131SOL    HW2  393   2.919   2.502   2.393 -0.0100 -0.7643 -1.8808
  132SOL     OW  394   2.978   1.866   0.783 -0.0119  0.8060 -0.1412
  132SOL    HW1  395   3.079   1.875   0.768  0.2517 -1.4662  0.3664
  132SOL    HW2  396   2.946   1.923   0.861  1.3199  0.3105  0.4423
  133SOL     OW  397   0.870   0.516   1.968 -0.4951  0.2037 -0.1132
  133SOL    HW1  398   0.907   0.471   1.884 -0.0343  0.2218 -0.0084
  133SOL    HW2  399   0.939   0.587   1.998  0.8742  1.4312 -1.0499
  134SOL     OW  400   2.808   1.705   0.077 -0.6492  0.5718  0.4399
  134SOL    HW1  401   2.810   1.703   0.179  1.5921 -1.1119 -0.1519
  134SOL    HW2  402   2.714   1.732   0.040 -3.1135  0.6957  1.7533
  135SOL     OW  403   1.734   1.075   2.461 -0.0634 -0.3478 -0.2761
  135SOL    HW1  404   1.811   1.016   2.494 -0.1164  1.4692  1.1340
  135SOL    HW2  405   1.668   1.087   2.536 -0.2057 -0.7235 -0.2707
  136SOL     OW  406   2.622   1.710   1.158 -0.2298  0.3333 -0.4441
  136SOL    HW1  407   2.668   1.636   1.109  0.0771  0.8101  1.3005
  136SOL    HW2  408   2.645   1.803   1.123 -0.0546 -1.2626 -0.5941
  137SOL     OW  409   2.972   1.584   0.759  0.3032 -0.9914 -0.0912
  137SOL    HW1  410   2.998   1.544   0.848  1.0934  1.2535 -1.5294
  137SOL    HW2  411   2.981   1.688   0.763 -2.7968  1.8585 -1.2586
  138SOL     OW  412   2.792   0.545   0.860  0.9981 -0.2457 -0.2713
  138SOL    HW1  413   2.886   0.522   0.893  0.4098  1.6043 -0.4218
  138SOL    HW2  414   2.733   0.572   0.943  0.4107  2.2130  0.6303
  139SOL     OW  415   3.115   2.797   2.985  0.2930  0.1910 -0.2881
  139SOL    HW1  416   3.104   2.871   2.913  0.9680  1.4558 -0.5415
  139SOL    HW2  417   0.033   2.840   3.071  1.3937  0.1497 -2.9974
  140SOL     OW  418   0.705   1.404   1.537 -0.5014  0.6744 -0.1103
  140SOL    HW1  419   0.734   1.326   1.480  2.2312  2.9175  2.2390
  140SOL    HW2  420   0.732   1.394   1.636  1.6168  0.4481  1.1895
  141SOL     OW  421   1.169   1.825   0.924 -0.4232  0.5754  0.0010
  141SOL    HW1  422   1.169   1.801   1.023  0.1268 -2.7742  0.7452
  141SOL    HW2  423   1.264   1.802   0.890  2.2879  2.7199  2.5850
  142SOL     OW  424   0.853   0.754   0.855 -0.5075  0.0910 -0.3168
  142SOL    HW1  425   0.800   0.672   0.887  0.5216 -1.2272 -0.3679
  142SOL    HW2  426   0.871   0.752   0.756 -0.5780 -1.3536  1.0638
  143SOL     OW  427   0.597   1.315   2.443 -0.2412 -0.2995  0.0616
  143SOL    HW1  428   0.526   1.389   2.424 -1.4009  1.1603  0.0454
  143SOL    HW2  429   0.584   1.253   2.523  1.4861 -1.8010 -0.3236
  144SOL     OW  430   2.453   0.010   0.697 -0.1200 -0.6455 -0.1511
  144SOL    HW1  431   2.501   0.098   0.676  2.2933  0.3985 -0.7033
  144SOL    HW2  432   2.505   3.062   0.753 -0.5281  4.7236 -0.9313
  145SOL     OW  433   2.365   0.174   2.679 -0.2968  0.0108  0.0675
  145SOL    HW1  434   2.317   0.118   2.747  2.0678  1.6938 -3.7416
  145SOL    HW2  435   2.456   0.202   2.716 -0.3305 -2.1935  0.3206
  146SOL     OW  436   3.094   2.755   0.367  0.2595  0.1772  0.2560
  146SOL    HW1  437   0.056   2.807   0.332  3.3053 -0.5230  0.1666
  146SOL    HW2  438   3.080   2.774   0.466 -2.3999 -2.3706 -2.5939
  147SOL     OW  439   0.929   1.139   2.655 -0.5608 -0.1831 -0.3477
  147SOL    HW1  440   0.916   1.117   2.559 -0.1411  1.7656  0.1639
  147SOL    HW2  441   1.004   1.207   2.664 -0.1666  3.5708 -0.7133
  148SOL     OW  442   1.748   0.134   2.801 -0.1185 -0.1138 -0.5368
  148SOL    HW1  443   1.703   0.135   2.894 -2.1899 -0.3126 -1.5292
  148SOL    HW2  444   1.679   0.123   2.729 -0.0803  0.4636  1.2746
  149SOL     OW  445   1.524   0.140   1.781  0.3255 -0.2867  0.0445
  149SOL    HW1  446   1.484   0.067   1.842 -1.9687  0.8796 -0.5426
  149SOL    HW2  447   1.503   0.222   1.828  0.2936 -2.3200  0.5611
  150SOL     OW  448   2.272   2.669   3.065  0.2748  0.1322 -0.2806
  150SOL    HW1  449   2.353   2.624   3.026  0.0637  1.7887 -2.2495
  150SOL    HW2  450   2.194   2.610   3.096  1.4080 -1.3713  0.3786
  151SOL     OW  451   0.659   1.396   0.012 -0.0171 -0.0158 -0.0705
  151SOL    HW1  452   0.587   1.429   3.061  1.5794  0.1563 -3.0583
  151SOL    HW2  453   0.751   1.394   3.088  1.7488 -0.2595  1.3177
  152SOL     OW  454   0.446   3.057   1.652 -0.7266  0.0845 -0.3356
  152SOL    HW1  455   0.363   3.114   1.641  0.1818 -1.1301  0.5891
  152SOL    HW2  456   0.463   3.021   1.746  0.5013 -1.9230 -3.1752
  153SOL     OW  457   2.555   2.893   1.682  0.2613  0.3630 -0.6196
  153SOL    HW1  458   2.623   2.913   1.612 -1.4891 -0.9016  2.7279
  153SOL    HW2  459   2.581   2.915   1.779 -1.4479 -0.1464  2.1708
  154SOL     OW  460   2.494   2.990   2.601  0.0617  0.4760  0.5888
  154SOL    HW1  461   2.425   3.044   2.549 -0.5930  0.3136  0.1223
  154SOL    HW2  462   2.570   2.971   2.532  0.2550  1.6643 -0.6083
  155SOL     OW  463   2.934   1.161   0.516 -0.1049  0.0664  0.3377
  155SOL    HW1  464   3.020   1.174   0.464 -1.0841 -0.3737 -0.3611
  155SOL    HW2  465   2.890   1.250   0.535 -0.4834  0.7497 -0.6846
  156SOL     OW  466   3.071   1.509   0.474 -0.1517  0.1951  0.6731
  156SOL    HW1  467   3.024   1.562   0.547  1.6493 -1.5664  0.0354
  156SOL    HW2  468   0.004   1.568   0.407  0.1320 -2.6381  0.2777
  157SOL     OW  469   0.993   0.429   0.504 -0.0629  0.4231  0.3186
  157SOL    HW1  470   1.028   0.520   0.483 -1.2445  1.6592 -0.7618
  157SOL    HW2  471   1.068   0.359   0.506 -1.1165  1.3091 -1.3288
  158SOL     OW  472   1.714   1.225   1.112 -0.7493 -0.0543  0.3529
  158SOL    HW1  473   1.792   1.158   1.107  4.5644 -0.0289  0.0007
  158SOL    HW2  474   1.725   1.317   1.074  1.8232  1.0391  0.5234
  159SOL     OW  475   0.151   0.319   0.172 -0.2271  0.3094  0.3876
  159SOL    HW1  476   0.188   0.401   0.207 -2.8915  1.3706 -1.4809
  159SOL    HW2  477   0.222   0.248   0.159 -0.4985 -1.7108 -0.1016
  160SOL     OW  478   2.080   2.466   1.871 -0.2295  0.3501 -0.1869
  160SOL    HW1  479   2.081   2.517   1.960 -1.0056  2.1049 -0.9176
  160SOL    HW2  480   1.991   2.448   1.831  2.1195 -0.6360  0.7565
  161SOL     OW  481   0.406   0.851   2.966  0.7643 -0.1657  0.0738
  161SOL    HW1  482   0.331   0.796   3.004  3.4882 -2.5636 -0.6815
  161SOL    HW2  483   0.442   0.921   3.032 -1.1964  1.0294  1.7801
  162SOL     OW  484   0.779   0.150   1.731  0.4594  0.1826  0.6764
  162SOL    HW1  485   0.869   0.184   1.754 -3.5797 -2.0122 -0.9188
  162SOL    HW2  486   0.716   0.223   1.699 -1.0027  3.0453 -4.7765
  163SOL     OW  487   2.683   2.932   2.436  0.2102 -0.2778  0.5359
  163SOL    HW1  488   2.730   2.957   2.349  1.8765  0.0306 -0.7852
  163SOL    HW2  489   2.669   2.831   2.443 -1.5398 -0.1144  0.8342
  164SOL     OW  490   2.228   1.892   0.417 -0.3250  0.6981 -0.1997
  164SOL    HW1  491   2.234   1.820   0.343  0.6470 -1.1898  4.5550
  164SOL    HW2  492   2.303   1.881   0.489 -0.1324 -1.6668 -0.1872
  165SOL     OW  493   0.290   0.120   1.501  0.2729  0.6517  0.6537
  165SOL    HW1  494   0.250   0.207   1.480  1.6266 -2.1197 -0.6124
  165SOL    HW2  495   0.359   0.094   1.431 -1.8159 -1.4335 -1.8790
  166SOL     OW  496   2.061   0.795   0.600 -0.1331 -0.1561  0.3522
  166SOL    HW1  497   2.000   0.724   0.628  2.3692 -0.3465 -1.2161
  166SOL    HW2  498   2.108   0.822   0.689 -0.4879 -0.8568 -0.2618
  167SOL     OW  499   2.239   0.903   0.138 -0.3994  0.1770 -0.1069
  167SOL    HW1  500   2.170   0.941   0.197  1.2055 -1.4921 -0.7057
  167SOL    HW2  501   2.241   0.799   0.151  1.6165 -0.2471 -0.2908
  168SOL     OW  502   1.752   0.104   2.504 -0.5143  0.0154  0.2178
  168SOL    HW1  503   1.779   0.008   2.488  1.1459  2.8137 -1.4111
  168SOL    HW2  504   1.829   0.149   2.560 -0.5019  0.5895  1.0311
  169SOL     OW  505   0.693   1.961   0.897 -0.0966 -0.2448 -0.0949
  169SOL    HW1  506   0.592   1.960   0.882  1.7203  0.1399 -0.5842
  169SOL    HW2  507   0.722   1.936   0.993  0.3363 -0.0146 -0.8525
  170SOL     OW  508   3.036   0.888   1.406 -0.1549  0.0991  0.3758
  170SOL    HW1  509   3.071   0.917   1.318 -0.2039  1.9284  3.8523
  170SOL    HW2  510   3.090   0.926   1.480 -2.5752  0.0430  0.0521
  171SOL     OW  511   2.761   1.508   2.439  0.3920  0.2277 -0.1091
  171SOL    HW1  512   2.700   1.565   2.498 -0.1619 -0.7281  0.3552
  171SOL    HW2  513   2.757   1.541   2.344  0.1293  0.9415  1.1015
  172SOL     OW  514   0.727   1.677   1.493  0.0555  0.8983 -0.1052
  172SOL    HW1  515   0.645   1.723   1.530 -0.3813 -1.3746  1.3590
  172SOL    HW2  516   0.730   1.574   1.506  0.6706  0.5103 -1.8000
  173SOL     OW  517   1.934   1.670   2.969 -0.0478 -0.1230 -0.4506
  173SOL    HW1  518   1.892   1.590   3.014  0.2829 -0.0969  3.2662
  173SOL    HW2  519   1.914   1.756   3.019 -2.7685 -4.0484 -0.6666
  174SOL     OW  520   1.735   0.606   2.805 -0.5620  0.1803 -0.1910
  174SOL    HW1  521   1.777   0.513   2.805  1.0727  1.2875  0.4328
  174SOL    HW2  522   1.736   0.642   2.901 -0.0345  0.1676 -1.5332
  175SOL     OW  523   0.937   1.523   1.161 -0.5654 -0.7826 -0.4850
  175SOL    HW1  524   1.003   1.598   1.168 -2.0887 -2.9004 -2.3557
  175SOL    HW2  525   0.955   1.455   1.229 -1.4255  1.4818 -0.7489
  176SOL     OW  526   1.227   0.164   0.320  0.5138 -0.4289  0.2587
  176SOL    HW1  527   1.250   0.086   0.386  1.0271 -0.5636  0.4215
  176SOL    HW2  528   1.307   0.224   0.304 -1.2785 -2.0033 -0.2092
  177SOL     OW  529   0.205   1.137   0.184 -0.0720  0.3890 -0.5077
  177SOL    HW1  530   0.224   1.227   0.225  0.7108  1.8262  3.3193
  177SOL    HW2  531   0.283   1.074   0.198 -1.7133  0.8492  0.9557
  178SOL     OW  532   2.978   2.268   2.683 -0.6181  0.6516  0.0144
  178SOL    HW1  533   2.945   2.311   2.772  1.1395 -0.0731 -0.6126
  178SOL    HW2  534   3.079   2.281   2.680  1.7883  0.9868  0.0290
  179SOL     OW  535   2.614   2.667   2.413 -0.3214  0.1532  0.2143
  179SOL    HW1  536   2.518   2.684   2.432  2.5972  0.2194 -0.0353
  179SOL    HW2  537   2.632   2.576   2.441 -2.0436  4.3839  1.1939
  180SOL     OW  538   2.065   0.796   1.154  0.5791  0.2610  0.3438
  180SOL    HW1  539   1.996   0.726   1.186 -1.6603  0.7070 -0.0423
  180SOL    HW2  540   2.129   0.820   1.229 -1.6312  2.0843 -1.7904
  181SOL     OW  541   2.248   0.371   2.541 -0.0386 -0.2957 -0.0514
  181SOL    HW1  542   2.304   0.315   2.606  1.5726  1.1151  0.6187
  181SOL    HW2  543   2.296   0.390   2.455  1.1301  2.6951  1.5251
  182SOL     OW  544   2.700   2.391   2.256  0.0517  0.4198  0.2040
  182SOL    HW1  545   2.677   2.478   2.210 -2.7869  1.5226 -0.2301
  182SOL    HW2  546   2.793   2.394   2.304 -2.3386 -0.1336  0.1103
  183SOL     OW  547   2.061   0.907   1.755  0.3134  0.0818  0.3390
  183SOL    HW1  548   2.163   0.908   1.775  1.8469 -0.0090 -0.7397
  183SOL    HW2  549   2.046   0.907   1.655  0.0184 -0.5563  0.0134
  184SOL     OW  550   0.151   1.678   0.998 -0.1411  0.0696 -0.0164
  184SOL    HW1  551   0.142   1.581   0.963  0.3137 -2.5843 -0.9489
  184SOL    HW2  552   0.149   1.753   0.929 -0.1345 -0.7361 -1.4155
  185SOL     OW  553   3.040   0.210   0.659  0.0933 -0.3734 -0.2835
  185SOL    HW1  554   2.953   0.233   0.705  0.8345 -1.1283  1.5652
  185SOL    HW2  555   3.096   0.288   0.630  1.0593 -1.9803  0.7212
  186SOL     OW  556   2.187   2.447   2.546 -0.4485 -0.2416 -0.2083
  186SOL    HW1  557   2.091   2.469   2.574  0.3538 -0.4704 -1.0104
  186SOL    HW2  558   2.253   2.518   2.576 -0.9788 -1.4062  1.6020
  187SOL     OW  559   0.621   1.454   0.599 -0.1512  0.2991  0.2521
  187SOL    HW1  560   0.626   1.373   0.661  1.6095  0.9150 -0.0237
  187SOL    HW2  561   0.623   1.544   0.651  0.8250 -0.2568  0.0799
  188SOL     OW  562   2.333   1.346   1.084 -0.0417  0.0848  0.8275
  188SOL    HW1  563   2.370   1.254   1.098 -2.2892  1.9729 -1.6323
  188SOL    HW2  564   2.312   1.345   0.982  1.3356  2.2275  0.5140
  189SOL     OW  565   3.101   1.344   2.717  0.4287 -0.2989  0.3630
  189SOL    HW1  566   0.037   1.291   2.785  1.1349 -0.5721  1.1002
  189SOL    HW2  567   3.060   1.291   2.633  0.5877  0.3830 -0.3491
  190SOL     OW  568   2.402   0.326   2.273 -0.1343  0.3865 -0.2620
  190SOL    HW1  569   2.330   0.254   2.267 -0.4543  0.1443  0.2820
  190SOL    HW2  570   2.488   0.285   2.311  1.8661 -2.7101 -2.2623
  191SOL     OW  571   1.264   0.242   2.121 -0.3537  0.3988 -0.0630
  191SOL    HW1  572   1.262   0.317   2.053  2.4875  0.0087 -1.6879
  191SOL    HW2  573   1.166   0.210   2.148 -3.1106 -1.4968  0.8664
  192SOL     OW  574   1.027   1.546   1.596 -0.5123 -0.3838 -0.1290
  192SOL    HW1  575   1.127   1.577   1.610 -1.0552  1.3349 -0.7449
  192SOL    HW2  576   0.964   1.598   1.654 -0.2812 -3.0000 -1.3683
  193SOL     OW  577   1.210   2.822   0.853  0.0288 -0.3024  0.3245
  193SOL    HW1  578   1.173   2.844   0.944  1.0633  2.4426 -2.2215
  193SOL    HW2  579   1.221   2.721   0.830  2.1386  0.4232 -1.4345
  194SOL     OW  580   0.525   1.910   2.033  0.0849 -0.2290 -0.6215
  194SOL    HW1  581   0.448   1.973   2.014  1.0218 -3.3951 -0.9241
  194SOL    HW2  582   0.615   1.948   2.012 -1.5430 -1.7608 -2.1437
  195SOL     OW  583   1.644   0.668   0.703  0.2639 -0.3266  0.1274
  195SOL    HW1  584   1.593   0.671   0.619 -0.2706 -0.4712  0.1433
  195SOL    HW2  585   1.667   0.763   0.724 -1.2906 -0.5132 -0.3400
  196SOL     OW  586   1.184   1.470   1.897  0.7917 -0.2140  0.0462
  196SOL    HW1  587   1.209   1.376   1.921 -1.2321 -2.0750  0.6105
  196SOL    HW2  588   1.216   1.490   1.803 -1.2061 -3.3295 -0.0002
  197SOL     OW  589   0.065   0.529   1.921  0.3722  0.0551 -0.0783
  197SOL    HW1  590   0.053   0.575   2.010 -1.3980 -0.5274 -0.1985
  197SOL    HW2  591   0.064   0.594   1.846  0.2499  0.0649  1.5686
  198SOL     OW  592   0.427   0.672   1.138  0.1460  0.8662  0.4971
  198SOL    HW1  593   0.418   0.697   1.041  0.7756 -2.0427  0.3296
  198SOL    HW2  594   0.492   0.740   1.182  3.4499  2.9635 -1.0537
  199SOL     OW  595   0.173   2.661   1.381 -0.4428 -0.5654 -0.0554
  199SOL    HW1  596   0.220   2.673   1.293  1.6385 -1.3969  1.3000
  199SOL    HW2  597   0.075   2.656   1.369 -1.8274 -1.2084 -0.3667
  200SOL     OW  598   1.509   1.494   2.626 -0.4903  0.1683  0.2905
  200SOL    HW1  599   1.427   1.437   2.647  1.7657 -2.0053 -0.0266
  200SOL    HW2  600   1.543   1.553   2.704  3.3004  0.0418 -0.1044
  201SOL     OW  601   0.482   2.410   1.854 -0.5412  0.3910 -0.6730
  201SOL    HW1  602   0.552   2.420   1.781  1.2841 -0.8220 -0.7731
  201SOL    HW2  603   0.387   2.378   1.824  1.5386 -2.2000 -1.3272
  202SOL     OW  604   1.383   2.884   2.901  0.4006 -0.2453  0.3062
  202SOL    HW1  605   1.306   2.900   2.837  0.4376  0.0554  1.9415
  202SOL    HW2  606   1.385   2.945   2.986  1.1342  1.0820  2.2449
  203SOL     OW  607   1.690   0.671   2.244 -0.0545 -0.4523 -0.1747
  203SOL    HW1  608   1.705   0.572   2.222 -2.3256 -0.7289  1.3567
  203SOL    HW2  609   1.636   0.674   2.332  0.6238  1.1770 -3.1749
  204SOL     OW  610   0.720   1.058   1.598 -0.0970  0.1271 -0.0632
  204SOL    HW1  611   0.742   1.128   1.669  2.7788 -0.9477 -0.3375
  204SOL    HW2  612   0.676   0.973   1.644 -0.8658  1.6943 -1.2891
  205SOL     OW  613   2.211   0.880   2.629  0.4117  0.0182 -0.3774
  205SOL    HW1  614   2.218   0.781   2.608 -0.8444  0.3000 -0.7134
  205SOL    HW2  615   2.273   0.933   2.569 -2.0871 -0.7485  1.0675
  206SOL     OW  616   0.524   1.887   2.930  0.1145  0.3442 -0.8307
  206SOL    HW1  617   0.464   1.900   2.852  1.2208 -2.1730  2.1493
  206SOL    HW2  618   0.586   1.968   2.932  1.3288  2.0754  1.1567
  207SOL     OW  619   0.593   0.118   2.125  0.0358  0.1527 -0.3684
  207SOL    HW1  620   0.643   0.053   2.066  2.0718  0.0640 -2.0180
  207SOL    HW2  621   0.555   0.194   2.062 -2.4720  3.4692 -3.5739
  208SOL     OW  622   0.591   2.531   1.596  0.3762  0.0967 -0.2515
  208SOL    HW1  623   0.545   2.606   1.551  2.6699 -3.0037  2.7853
  208SOL    HW2  624   0.656   2.488   1.529 -1.2857 -0.8568  1.6886
  209SOL     OW  625   1.162   2.734   0.112  0.3204 -0.3645  0.4275
  209SOL    HW1  626   1.197   2.740   0.205 -1.6621  0.3921 -1.1749
  209SOL    HW2  627   1.126   2.831   0.089 -2.2308 -0.0861 -0.5831
  210SOL     OW  628   2.847   1.546   1.703  0.2960  0.7007  0.5452
  210SOL    HW1  629   2.763   1.533   1.646 -3.0633  0.8185 -0.1943
  210SOL    HW2  630   2.925   1.500   1.654  0.5512 -1.2293 -1.3575
  211SOL     OW  631   1.200   0.358   1.574  0.2165 -0.3870  0.4281
  211SOL    HW1  632   1.190   0.457   1.553 -2.7380 -0.2119 -3.9240
  211SOL    HW2  633   1.299   0.331   1.547  1.4402  2.7951 -0.1767
  212SOL     OW  634   1.101   2.130   1.738 -0.2242  0.2642  0.0365
  212SOL    HW1  635   1.027   2.164   1.803  2.3147  0.5840  0.2945
  212SOL    HW2  636   1.190   2.171   1.763  0.5788 -0.1933  0.8191
  213SOL     OW  637   2.588   0.333   1.767  0.3084 -0.3354  0.1262
  213SOL    HW1  638   2.505   0.294   1.810 -0.3217 -1.3315 -0.4856
  213SOL    HW2  639   2.667   0.270   1.753  0.4343  0.6832 -0.5090
  214SOL     OW  640   0.738   1.995   1.754  0.3688 -0.0289 -0.2120
  214SOL    HW1  641   0.740   2.039   1.844  0.3938  2.3971 -1.0823
  214SOL    HW2  642   0.755   2.069   1.692  2.7504  0.6563  0.4542
  215SOL     OW  643   2.711   2.010   1.161 -0.4782 -0.1926  0.0345
  215SOL    HW1  644   2.612   2.032   1.169  0.5881  0.6202 -1.9282
  215SOL    HW2  645   2.745   1.981   1.253 -2.8522 -2.2537  0.4756
  216SOL     OW  646   0.054   0.965   1.621 -0.0354  0.8811  0.1711
  216SOL    HW1  647   0.148   0.991   1.591  0.9149 -2.6660 -0.3726
  216SOL    HW2  648   0.055   0.892   1.691 -1.5212  1.7761 -1.8087
  217SOL     OW  649   2.600   0.290   1.232  0.0076  0.1614  0.1018
  217SOL    HW1  650   2.668   0.241   1.170  3.3868  1.2521 -2.3143
  217SOL    HW2  651   2.645   0.354   1.298  1.8808  0.1972 -2.2379
  218SOL     OW  652   1.322   2.226   1.141  0.1594  0.0471  0.5416
  218SOL    HW1  653   1.410   2.182   1.173  4.7378 -1.0516  0.4795
  218SOL    HW2  654   1.312   2.225   1.041 -1.7831 -1.7027 -1.5277
  219SOL     OW  655   1.588   2.256   0.212  0.2887  0.5396 -0.1784
  219SOL    HW1  656   1.675   2.235   0.162 -0.0735  0.0146 -0.8117
  219SOL    HW2  657   1.598   2.345   0.267 -1.8711  1.7130 -0.8159
  220SOL     OW  658   1.842   2.256   0.072 -0.0725 -0.1504 -0.3910
  220SOL    HW1  659   1.844   2.348   0.112 -0.3035 -1.7228 -0.2315
  220SOL    HW2  660   1.932   2.214   0.090  0.0440  0.9089 -2.2002
  221SOL     OW  661   2.928   2.026   1.018  0.6335 -0.1449 -0.5278
  221SOL    HW1  662   3.006   2.021   1.078 -1.0418 -1.2446 -1.9037
  221SOL    HW2  663   2.838   2.026   1.071  0.4737 -1.9622  1.5328
  222SOL     OW  664   1.161   2.279   0.796  0.2721 -0.2884  0.3740
  222SOL    HW1  665   1.259   2.257   0.809 -0.9372  2.1283 -0.7730
  222SOL    HW2  666   1.099   2.201   0.827  0.2426 -1.8898 -3.0243
  223SOL     OW  667   0.604   2.893   2.364 -0.2076 -0.0415  0.6143
  223SOL    HW1  668   0.549   2.957   2.311  1.0076 -1.3031 -0.0834
  223SOL    HW2  669   0.694   2.930   2.389  2.3373 -0.2340 -1.3478
  224SOL     OW  670   2.900   1.340   1.085 -0.1197  0.0796  0.1738
  224SOL    HW1  671   2.811   1.389   1.102  2.0405  0.9631  3.5119
  224SOL    HW2  672   2.966   1.361   1.161  0.4073  0.7639  1.1793
  225SOL     OW  673   2.350   1.700   1.020  0.2915  0.2058 -0.1118
  225SOL    HW1  674   2.433   1.711   1.079  2.0832  2.5398 -3.2632
  225SOL    HW2  675   2.374   1.668   0.928 -0.4501  0.2303 -1.0505
  226SOL     OW  676   1.245   2.580   0.554  0.5798  0.5110  0.1699
  226SOL    HW1  677   1.344   2.600   0.559 -0.4690 -0.0062  0.0767
  226SOL    HW2  678   1.198   2.589   0.647  1.6290 -1.5060  3.7856
  227SOL     OW  679   1.360   1.114   1.403 -0.3680  0.1448 -0.1084
  227SOL    HW1  680   1.296   1.143   1.329 -1.6271  0.0373 -0.5930
  227SOL    HW2  681   1.440   1.176   1.400  0.6799  0.0543  1.8016
  228SOL     OW  682   1.364   0.676   2.125 -0.0104  0.1703 -0.2900
  228SOL    HW1  683   1.375   0.748   2.054 -1.9427  0.1332  2.8173
  228SOL    HW2  684   1.455   0.645   2.163  3.0765  1.1416  1.2205
  229SOL     OW  685   2.754   0.743   2.776 -0.5288 -0.6429 -0.4799
  229SOL    HW1  686   2.840   0.681   2.782  1.4952 -0.2515 -3.2660
  229SOL    HW2  687   2.711   0.730   2.869  1.2165 -0.7868 -1.4421
  230SOL     OW  688   1.085   1.066   0.916 -0.0753  0.4489  0.1949
  230SOL    HW1  689   1.122   0.972   0.909  3.0222 -0.5290 -0.0766
  230SOL    HW2  690   1.148   1.132   0.957 -1.4813 -0.8078 -0.4403
  231SOL     OW  691   2.569   2.959   1.960  0.4575 -0.0724 -0.5104
  231SOL    HW1  692   2.645   2.892   1.960 -1.5820 -0.6827  3.8786
  231SOL    HW2  693   2.483   2.905   1.963  2.3143 -0.8494  0.7204
  232SOL     OW  694   0.577   1.926   0.262 -0.3191  0.2815  0.1668
  232SOL    HW1  695   0.610   1.836   0.297 -1.3998  0.7152  2.4852
  232SOL    HW2  696   0.652   1.996   0.259 -0.5818  0.2400 -2.6109
  233SOL     OW  697   1.359   2.399   2.452 -0.2844  0.6539  0.2151
  233SOL    HW1  698   1.393   2.354   2.533 -2.4262  1.6916 -0.9042
  233SOL    HW2  699   1.341   2.330   2.374 -3.1901 -3.6352 -1.7344
  234SOL     OW  700   1.058   1.262   1.674  0.3618  0.0443 -0.5727
  234SOL    HW1  701   1.062   1.361   1.643 -0.3734  0.5346  0.6575
  234SOL    HW2  702   0.974   1.243   1.732 -2.3059 -0.0568  1.1225
  235SOL     OW  703   0.548   1.834   1.655 -0.0253  0.1979 -0.2195
  235SOL    HW1  704   0.630   1.877   1.697 -1.3214  0.1425 -1.2513
  235SOL    HW2  705   0.485   1.907   1.627  0.7869  0.2888  0.5652
  236SOL     OW  706   1.935   2.893   2.566  0.0325 -0.0500 -0.4531
  236SOL    HW1  707   1.838   2.893   2.532  1.0935 -1.5368  0.2981
  236SOL    HW2  708   1.960   2.957   2.642  2.3635  0.7547 -1.2052
  237SOL     OW  709   1.348   3.036   0.742 -0.3002  0.0083 -0.0043
  237SOL    HW1  710   1.279   2.964   0.766  0.2349 -0.1926 -1.1509
  237SOL    HW2  711   1.423   3.031   0.808 -3.4241 -2.3815  1.1276
  238SOL     OW  712   1.313   0.769   2.780 -0.7916 -0.3834  0.0137
  238SOL    HW1  713   1.382   0.811   2.716  0.9883  0.8121 -2.8562
  238SOL    HW2  714   1.310   0.669   2.774  1.9752 -2.0206 -1.6229
  239SOL     OW  715   0.804   0.312   2.140 -0.3452  0.1484  0.2837
  239SOL    HW1  716   0.702   0.288   2.131  0.3961  2.7044 -1.1761
  239SOL    HW2  717   0.821   0.394   2.078 -1.0136  0.5050  1.2500
  240SOL     OW  718   2.150   2.751   0.791 -0.6997 -0.2179 -0.3338
  240SOL    HW1  719   2.221   2.681   0.759  1.2514 -0.4522 -3.5838
  240SOL    HW2  720   2.060   2.715   0.815  3.0877  0.0387 -1.4475
  241SOL     OW  721   1.311   1.430   1.445  0.7316 -0.0566  0.3789
  241SOL    HW1  722   1.219   1.408   1.407 -2.3151 -0.4125  0.8069
  241SOL    HW2  723   1.329   1.530   1.452 -0.6317 -1.6298 -2.0279
  242SOL     OW  724   0.176   0.689   0.756  0.0002  0.5221 -0.4074
  242SOL    HW1  725   0.087   0.732   0.768 -2.2866 -0.2375 -0.9152
  242SOL    HW2  726   0.213   0.709   0.665  0.3444 -0.0588  2.1444
  243SOL     OW  727   0.531   0.592   1.564 -0.4777 -0.3397 -0.4383
  243SOL    HW1  728   0.447   0.640   1.529  0.1584  0.5183  1.0127
  243SOL    HW2  729   0.582   0.546   1.490  0.5845  0.2905 -1.3100
  244SOL     OW  730   1.133   0.535   2.964  0.0743 -0.1527 -0.2523
  244SOL    HW1  731   1.065   0.505   3.035 -1.2496  1.6632  1.0800
  244SOL    HW2  732   1.217   0.583   3.008  3.0906 -0.8875  2.7441
  245SOL     OW  733   2.236   0.372   2.949 -0.7141  0.4756  0.0955
  245SOL    HW1  734   2.324   0.381   2.897 -1.2252 -3.3852  1.2262
  245SOL    HW2  735   2.177   0.455   2.929 -3.3693  0.2296  0.9891
  246SOL     OW  736   0.445   1.019   1.875 -0.4731  0.3673 -0.1845
  246SOL    HW1  737   0.372   0.951   1.848 -1.0621  2.9190  0.2530
  246SOL    HW2  738   0.532   0.999   1.825  2.6671 -2.2315  0.5897
  247SOL     OW  739   0.478   0.047   2.367 -0.2918  0.2145  0.4776
  247SOL    HW1  740   0.519   0.086   2.279  0.5598  0.2074 -2.0585
  247SOL    HW2  741   0.548   0.044   2.443  3.2358 -2.4704  0.9363
  248SOL     OW  742   0.305   1.720   2.272  0.7190 -0.6156 -0.5321
  248SOL    HW1  743   0.395   1.711   2.231 -1.3396  1.2823  1.4737
  248SOL    HW2  744   0.237   1.749   2.202  2.6256  0.8905  0.5911
  249SOL     OW  745   0.332   0.136   2.908  0.7241  0.4540  0.6401
  249SOL    HW1  746   0.421   0.186   2.909  0.9293  2.0852  0.2060
  249SOL    HW2  747   0.347   0.052   2.850 -0.3853 -1.4885  1.8265
  250SOL     OW  748   3.040   3.031   2.871 -0.6469  0.0467  0.2736
  250SOL    HW1  749   3.081   3.090   2.942 -0.4614  2.0195  2.3675
  250SOL    HW2  750   3.004   3.083   2.791  0.8081  4.0261  0.6296
  251SOL     OW  751   0.150   1.437   0.897  0.4697 -0.2204  0.2392
  251SOL    HW1  752   0.114   1.355   0.843 -0.2525  2.3186 -2.2797
  251SOL    HW2  753   0.247   1.418   0.918 -0.8008  0.6534  0.1522
  252SOL     OW  754   1.523   2.818   2.266 -0.0129 -0.6403  0.1586
  252SOL    HW1  755   1.421   2.804   2.286 -3.4581 -1.0670  0.3713
  252SOL    HW2  756   1.577   2.738   2.298  1.3417  0.2204  0.8535
  253SOL     OW  757   2.012   1.982   2.697  0.5735 -0.4313 -0.2825
  253SOL    HW1  758   1.934   2.030   2.744  1.3704 -3.7431 -0.8413
  253SOL    HW2  759   2.019   1.887   2.727 -1.3416  0.7706 -2.2063
  254SOL     OW  760   0.441   1.463   1.854  0.3307 -0.0958 -0.6964
  254SOL    HW1  761   0.409   1.377   1.809 -0.4820  1.6950  1.3487
  254SOL    HW2  762   0.538   1.461   1.884  1.7561 -0.8982 -0.9239
  255SOL     OW  763   1.059   0.238   1.783 -0.2063  0.1813 -0.2083
  255SOL    HW1  764   1.115   0.154   1.800 -1.2637  2.0129  0.8860
  255SOL    HW2  765   1.099   0.273   1.696 -1.2861 -0.2368  0.4586
  256SOL     OW  766   2.903   2.224   1.347  0.4375  0.1180  0.3097
  256SOL    HW1  767   2.833   2.205   1.419 -0.2676  0.4613 -1.3583
  256SOL    HW2  768   2.865   2.272   1.269  0.2018 -2.0569 -0.1196
  257SOL     OW  769   0.458   2.717   0.416 -0.3020 -0.3198 -0.0241
  257SOL    HW1  770   0.454   2.720   0.517  0.0413 -0.8065  1.4859
  257SOL    HW2  771   0.367   2.713   0.371 -0.9121 -0.8339 -1.1629
  258SOL     OW  772   0.950   1.872   2.146 -0.0241  0.0262  0.2377
  258SOL    HW1  773   0.974   1.777   2.113 -1.6828 -1.3051 -0.5015
  258SOL    HW2  774   0.914   1.926   2.066  1.3638 -0.0613 -0.7304
  259SOL     OW  775   1.018   1.772   2.573 -0.0318  0.5652  0.1117
  259SOL    HW1  776   0.925   1.818   2.575  0.6227  0.6565 -0.6360
  259SOL    HW2  777   1.093   1.825   2.623  0.6713 -1.6379  0.8625
  260SOL     OW  778   2.400   0.625   2.197  0.0729  0.8968 -0.1239
  260SOL    HW1  779   2.305   0.634   2.160 -2.8148  2.9510 -0.1350
  260SOL    HW2  780   2.413   0.525   2.224 -0.0971 -3.4112 -0.3474
  261SOL     OW  781   1.135   0.813   0.984 -0.3729 -0.3355 -0.1291
  261SOL    HW1  782   1.049   0.792   0.946  1.4731  0.1444  0.6512
  261SOL    HW2  783   1.129   0.847   1.081 -1.5419  0.1899 -1.0496
  262SOL     OW  784   1.920   2.464   2.535  0.2194 -0.5851  0.4606
  262SOL    HW1  785   1.921   2.397   2.457  1.1138  1.2968  1.4527
  262SOL    HW2  786   1.846   2.437   2.600  0.0975  1.3617  0.6952
  263SOL     OW  787   0.489   2.285   0.454 -0.1935 -0.1861 -0.3519
  263SOL    HW1  788   0.456   2.193   0.491 -0.3888 -2.0846 -1.1535
  263SOL    HW2  789   0.557   2.325   0.516 -2.6990 -0.0022  2.4131
  264SOL     OW  790   0.213   2.274   0.735 -0.3095 -0.3968 -0.0953
  264SOL    HW1  791   0.182   2.232   0.825 -3.5253 -1.2214 -0.6750
  264SOL    HW2  792   0.303   2.317   0.749 -0.0099  0.5944  0.4444
  265SOL     OW  793   0.499   1.344   0.399 -0.3996 -0.5412  0.5899
  265SOL    HW1  794   0.554   1.381   0.474 -0.8742 -4.2037 -1.6635
  265SOL    HW2  795   0.544   1.258   0.363 -0.8834 -1.1497 -0.8139
  266SOL     OW  796   0.779   1.757   2.314 -0.6214  0.5762  0.2687
  266SOL    HW1  797   0.767   1.826   2.383  1.5824 -0.2672 -3.4272
  266SOL    HW2  798   0.850   1.798   2.250  2.3644  0.4119  0.4614
  267SOL     OW  799   1.716   0.617   2.529 -0.2659 -0.1159 -0.0132
  267SOL    HW1  800   1.723   0.614   2.632  0.9670  1.9477  2.6612
  267SOL    HW2  801   1.801   0.597   2.488 -2.0596  0.1886  1.0718
  268SOL     OW  802   0.461   1.054   0.049  0.3319 -0.2679 -0.3427
  268SOL    HW1  803   0.431   0.972   0.099  2.6208 -0.1280 -1.2854
  268SOL    HW2  804   0.533   1.101   0.099 -1.0565  0.1193  0.0728
  269SOL     OW  805   2.530   2.208   2.383  0.6939  0.1433 -0.0778
  269SOL    HW1  806   2.563   2.120   2.409 -3.3402  0.4698 -1.4193
  269SOL    HW2  807   2.592   2.260   2.323 -4.1250 -0.1099  1.0566
  270SOL     OW  808   1.600   1.655   2.853 -0.0880  0.5223  0.6290
  270SOL    HW1  809   1.595   1.732   2.781 -0.0129  1.0659 -1.8216
  270SOL    HW2  810   1.694   1.625   2.873 -0.6040  0.2500  1.0874
  271SOL     OW  811   0.376   0.206   0.054  0.2751 -0.3258  0.2007
  271SOL    HW1  812   0.465   0.166   0.063 -1.8006  1.3790 -1.6397
  271SOL    HW2  813   0.354   0.206   3.070  0.3486 -0.4679 -0.7243
  272SOL     OW  814   2.688   0.513   0.378  0.1026  0.4788  0.2763
  272SOL    HW1  815   2.753   0.514   0.454  0.0216  0.5694 -0.7007
  272SOL    HW2  816   2.603   0.567   0.393 -1.6487  2.0825 -3.3991
  273SOL     OW  817   0.441   2.974   1.910 -0.0112 -0.1920 -0.1159
  273SOL    HW1  818   0.380   3.037   1.964 -1.9929 -0.2286 -1.7940
  273SOL    HW2  819   0.413   2.877   1.933 -0.0388 -0.3989 -1.2884
  274SOL     OW  820   0.034   0.712   1.748  0.0928  0.4411 -0.0340
  274SOL    HW1  821   3.052   0.708   1.781 -1.0963  0.5857  0.9028
  274SOL    HW2  822   0.049   0.689   1.650 -1.3929 -0.0409  1.2464
  275SOL     OW  823   0.679   1.722   0.745 -0.0381  0.5934  0.1592
  275SOL    HW1  824   0.739   1.652   0.791 -1.1079  1.7026  1.2479
  275SOL    HW2  825   0.686   1.810   0.795  0.2073 -0.7085 -1.8431
  276SOL     OW  826   0.655   0.838   2.167  0.2510  0.1227 -0.4873
  276SOL    HW1  827   0.715   0.917   2.157 -1.3322 -0.4752  1.1959
  276SOL    HW2  828   0.663   0.796   2.258 -2.5671  1.6395 -0.6755
  277SOL     OW  829   1.185   2.525   1.943  0.2557  0.4050 -0.4406
  277SOL    HW1  830   1.110   2.492   1.882 -0.2546  0.2555 -1.5460
  277SOL    HW2  831   1.218   2.447   2.004 -0.3518 -1.5863 -0.7112
  278SOL     OW  832   1.698   2.853   2.039 -0.3112  0.3762  0.1607
  278SOL    HW1  833   1.621   2.845   2.105  0.6759 -0.4064 -2.3122
  278SOL    HW2  834   1.773   2.908   2.086 -1.0576 -1.2768  0.9721
  279SOL     OW  835   1.314   1.479   0.383  0.3170  0.1228  0.2426
  279SOL    HW1  836   1.290   1.520   0.293  0.6969  0.5087  0.3696
  279SOL    HW2  837   1.376   1.397   0.366 -1.5660 -2.1757 -2.1705
  280SOL     OW  838   0.938   1.230   0.275 -0.0589 -0.7275  0.4724
  280SOL    HW1  839   0.985   1.283   0.198  0.6361 -0.4198 -3.3281
  280SOL    HW2  840   0.936   1.277   0.362  0.8087  0.7993  1.3425
  281SOL     OW  841   0.242   0.404   1.525  0.0354 -0.2231 -0.1509
  281SOL    HW1  842   0.189   0.470   1.476  1.4973 -0.1210  1.5387
  281SOL    HW2  843   0.340   0.394   1.488 -2.3114  0.3221  0.4850
  282SOL     OW  844   0.059   2.422   0.567 -0.2438 -0.2514  0.1883
  282SOL    HW1  845   0.030   2.420   0.471 -0.0406  0.6836  4.1464
  282SOL    HW2  846   0.135   2.366   0.603 -0.7662  2.7505 -1.6349
  283SOL     OW  847   1.284   2.190   2.281  0.3591  0.0027 -0.3736
  283SOL    HW1  848   1.210   2.155   2.341  3.4041 -1.3018  2.1709
  283SOL    HW2  849   1.369   2.131   2.295 -0.5893 -0.0433 -0.2926
  284SOL     OW  850   2.604   2.937   1.011  0.7608  0.1004 -0.1698
  284SOL    HW1  851   2.525   2.996   1.049 -0.2866  0.3166  3.1488
  284SOL    HW2  852   2.568   2.842   1.010 -0.5781 -0.8060 -0.8836
  285SOL     OW  853   0.516   2.252   2.468 -0.3794 -0.0245 -0.2671
  285SOL    HW1  854   0.449   2.306   2.412 -0.3069  0.5653 -1.2411
  285SOL    HW2  855   0.568   2.324   2.518 -0.2468  2.4075  4.0790
  286SOL     OW  856   3.068   2.850   0.629  0.1270  0.0662 -0.6344
  286SOL    HW1  857   3.016   2.849   0.717 -1.3226  0.3848  0.1881
  286SOL    HW2  858   3.087   2.949   0.600  0.4752 -0.2428 -0.2267
  287SOL     OW  859   0.782   1.008   0.645  0.0658  0.3985  0.3123
  287SOL    HW1  860   0.855   0.978   0.581 -2.0559  0.4994  0.5291
  287SOL    HW2  861   0.790   1.105   0.663 -0.3099 -2.0308 -1.0792
  288SOL     OW  862   2.253   2.078   2.796 -0.0465  0.0898 -0.4610
  288SOL    HW1  863   2.170   2.040   2.752  1.1766  2.7916  0.0528
  288SOL    HW2  864   2.300   2.142   2.730 -0.2869  0.3661 -0.1473
  289SOL     OW  865   0.046   1.925   2.886  0.2095  0.3276  0.5903
  289SOL    HW1  866   0.022   1.850   2.947  0.4797  2.5642  0.1914
  289SOL    HW2  867   3.113   1.920   2.795 -0.9342 -1.1515 -1.8105
  290SOL     OW  868   1.379   1.705   1.424 -0.0882  0.2909 -0.5441
  290SOL    HW1  869   1.400   1.687   1.328  0.4386 -0.0478  2.6943
  290SOL    HW2  870   1.396   1.802   1.447  0.0927 -0.1262 -1.4369
  291SOL     OW  871   1.407   1.332   2.969 -0.2406  0.5245 -0.5465
  291SOL    HW1  872   1.370   1.428   2.973 -0.5855  0.1870 -0.9943
  291SOL    HW2  873   1.351   1.264   3.026  0.4764 -0.0417  3.4168
  292SOL     OW  874   0.915   1.577   0.349 -0.6282 -0.4440  0.0532
  292SOL    HW1  875   0.940   1.500   0.411 -2.3592  2.3995 -1.3881
  292SOL    HW2  876   0.827   1.548   0.306 -0.6126 -0.9715 -0.4165
  293SOL     OW  877   1.426   2.900   1.081 -0.0766 -0.1723  0.4546
  293SOL    HW1  878   1.336   2.938   1.107  1.6643  2.5830 -0.3585
  293SOL    HW2  879   1.464   2.950   1.004 -0.8184  0.3127  1.6906
  294SOL     OW  880   2.075   1.341   2.748  0.2124 -0.0586 -0.3273
  294SOL    HW1  881   2.062   1.303   2.656  0.6958  0.6102  1.6680
  294SOL    HW2  882   1.990   1.390   2.777 -0.2529 -2.1388  1.8432
  295SOL     OW  883   1.850   1.878   0.030 -0.3276 -0.1485 -0.0060
  295SOL    HW1  884   1.782   1.839   0.095  0.0758 -0.4870 -0.5116
  295SOL    HW2  885   1.869   1.974   0.044 -0.4904  0.5466 -0.5357
  296SOL     OW  886   1.604   0.643   1.797 -0.2894 -0.8787 -0.1656
  296SOL    HW1  887   1.601   0.634   1.694  0.6595  1.0315 -2.4621
  296SOL    HW2  888   1.689   0.689   1.836  0.1067  0.7209  0.9824
  297SOL     OW  889   3.024   0.839   2.127 -0.0844 -0.3223 -0.0869
  297SOL    HW1  890   2.937   0.848   2.069  0.3690  2.4615 -1.9374
  297SOL    HW2  891   3.063   0.932   2.130  0.8418  3.3311  0.2223
  298SOL     OW  892   0.900   1.702   1.792 -0.1203  0.1820  0.2478
  298SOL    HW1  893   0.984   1.732   1.841  1.3284  0.5527 -1.3630
  298SOL    HW2  894   0.840   1.784   1.788  0.1278 -0.1098  0.3843
  299SOL     OW  895   1.218   0.134   2.527 -0.7210  0.3923 -0.1383
  299SOL    HW1  896   1.319   0.145   2.511 -1.2579 -2.1225  1.3978
  299SOL    HW2  897   1.175   0.061   2.469  0.6401 -0.7732 -0.8757
  300SOL     OW  898   2.953   1.135   3.012 -0.2148  0.2915 -0.4644
  300SOL    HW1  899   2.920   1.039   2.990 -0.5685 -1.0555 -1.1569
  300SOL    HW2  900   3.005   1.133   3.103 -0.2656  0.6031  2.3533
  301SOL     OW  901   1.986   0.698   2.442 -0.3678  0.1499  0.0015
  301SOL    HW1  902   1.983   0.678   2.338 -0.4853  0.0950 -1.7481
  301SOL    HW2  903   1.967   0.796   2.460  4.5333 -1.9777 -0.7269
  302SOL     OW  904   2.439   1.897   2.803 -0.1132  0.0556 -0.1271
  302SOL    HW1  905   2.380   1.980   2.796 -0.2873  0.1839 -0.9633
  302SOL    HW2  906   2.524   1.905   2.744 -0.6266 -1.3645 -1.3685
  303SOL     OW  907   0.484   2.464   2.869  0.6037  0.2470 -0.5306
  303SOL    HW1  908   0.469   2.564   2.889 -0.5500  0.1716 -2.5694
  303SOL    HW2  909   0.470   2.404   2.951 -0.9027  0.4835 -2.0403
  304SOL     OW  910   0.167   1.640   1.467  0.8846 -0.4101  0.5586
  304SOL    HW1  911   0.113   1.727   1.482 -0.1310 -1.6639 -1.7912
  304SOL    HW2  912   0.245   1.633   1.528 -0.3364 -0.3180 -2.5188
  305SOL     OW  913   2.517   0.692   1.824 -0.5828 -0.8617 -0.1020
  305SOL    HW1  914   2.435   0.630   1.833  0.5318 -0.9408 -1.9086
  305SOL    HW2  915   2.601   0.655   1.873  2.2233 -0.8490  1.1407
  306SOL     OW  916   2.020   1.399   1.654  0.0246  0.4273  0.3972
  306SOL    HW1  917   2.090   1.407   1.582 -0.7556  1.3057 -1.6656
  306SOL    HW2  918   1.949   1.330   1.630 -1.0356  1.4801 -3.2102
  307SOL     OW  919   2.800   0.021   0.941  0.2824  0.9827 -0.1539
  307SOL    HW1  920   2.726   3.076   0.971 -2.6299 -0.4154  0.6101
  307SOL    HW2  921   2.829   0.079   1.015 -1.3154  0.3591 -2.1509
  308SOL     OW  922   3.065   1.735   1.696 -0.3344  0.1376 -0.4521
  308SOL    HW1  923   3.111   1.761   1.784 -1.6725  0.6460 -1.2471
  308SOL    HW2  924   3.036   1.635   1.695  0.9826  0.3859  1.7746
  309SOL     OW  925   2.360   2.433   1.886  0.4472 -0.2737  0.6309
  309SOL    HW1  926   2.386   2.517   1.833 -0.0910  2.0226  0.7785
  309SOL    HW2  927   2.259   2.442   1.906  0.2302  0.1263 -0.7177
  310SOL     OW  928   2.302   1.421   2.894 -0.7080 -0.3441  0.8415
  310SOL    HW1  929   2.293   1.524   2.894 -3.6584  1.7816  3.0362
  310SOL    HW2  930   2.223   1.383   2.843 -2.2397 -3.7504 -0.9785
  311SOL     OW  931   1.671   1.260   2.931 -0.3115  0.6174 -0.3672
  311SOL    HW1  932   1.581   1.299   2.946  0.3867 -1.3060 -2.0561
  311SOL    HW2  933   1.672   1.166   2.970 -0.2068  1.1312  0.8913
  312SOL     OW  934   1.074   2.124   2.431 -0.3609  0.6880  0.2720
  312SOL    HW1  935   1.100   2.029   2.397 -0.3088  0.7742 -1.8175
  312SOL    HW2  936   1.105   2.135   2.531  0.4880 -0.8282  1.5353
  313SOL     OW  937   0.132   0.177   0.829  0.4450 -0.0360 -0.2692
  313SOL    HW1  938   0.043   0.189   0.777 -0.3971  2.0790 -0.1535
  313SOL    HW2  939   0.126   0.211   0.925 -3.7434 -0.0032 -2.8942
  314SOL     OW  940   0.427   1.932   1.264 -0.0441 -0.7290  0.2410
  314SOL    HW1  941   0.437   1.953   1.364 -0.1549 -0.8383  0.6236
  314SOL    HW2  942   0.380   1.842   1.254  0.9242 -0.8052  0.8892
  315SOL     OW  943   0.343   2.108   1.967 -0.2193 -0.4368  0.0464
  315SOL    HW1  944   0.248   2.086   1.939 -1.1213  0.2288 -4.1522
  315SOL    HW2  945   0.361   2.209   1.961  1.5997  2.8116 -0.9378
  316SOL     OW  946   0.218   2.502   0.978 -0.5636  0.1595 -0.2102
  316SOL    HW1  947   0.135   2.443   1.004 -0.4957  0.1064  2.4953
  316SOL    HW2  948   0.202   2.554   0.892  1.3546  0.3549 -0.6197
  317SOL     OW  949   2.659   0.014   1.540 -0.2398  0.0426 -0.0656
  317SOL    HW1  950   2.704   0.059   1.621 -0.3140 -1.4726 -2.0141
  317SOL    HW2  951   2.731   3.091   1.482 -2.2779  0.4579  1.7159
  318SOL     OW  952   2.285   2.374   0.054 -0.1732 -0.2841 -0.4821
  318SOL    HW1  953   2.288   2.278   0.016  0.9270 -1.4986  0.0385
  318SOL    HW2  954   2.371   2.399   0.101 -0.9041  3.7425  1.9780
  319SOL     OW  955   1.359   1.275   2.699 -0.0720 -0.4530 -0.1493
  319SOL    HW1  956   1.368   1.311   2.792 -2.0389  0.8568  0.3277
  319SOL    HW2  957   1.421   1.191   2.677 -1.4698 -2.1095 -0.9065
  320SOL     OW  958   0.349   2.382   2.293  0.5221  0.1424 -0.4655
  320SOL    HW1  959   0.252   2.365   2.326 -3.3985  0.6668 -2.8578
  320SOL    HW2  960   0.358   2.386   2.191 -1.9997  1.5105 -0.9826
  321SOL     OW  961   0.804   2.418   0.141  0.2528 -0.4788  0.0685
  321SOL    HW1  962   0.905   2.404   0.144 -2.5244  0.9708  3.6400
  321SOL    HW2  963   0.771   2.434   0.051  1.6613 -1.4209  2.1830
  322SOL     OW  964   2.654   0.254   2.342  0.0539  0.0779 -0.1451
  322SOL    HW1  965   2.664   0.174   2.286 -0.5429  0.8401  1.9444
  322SOL    HW2  966   2.718   0.253   2.420 -1.8365  0.1145 -2.1653
  323SOL     OW  967   2.906   1.186   0.868 -0.1906  0.3296  0.2243
  323SOL    HW1  968   2.892   1.232   0.957  1.5612  3.6765 -0.2377
  323SOL    HW2  969   2.870   1.091   0.865 -2.7901 -0.1548 -2.1259
  324SOL     OW  970   0.261   0.793   1.860  0.5962 -0.1805 -0.4056
  324SOL    HW1  971   0.321   0.721   1.896  2.6805 -0.3804 -3.3409
  324SOL    HW2  972   0.177   0.745   1.828  1.1114 -1.7329  2.4526
  325SOL     OW  973   0.271   0.037   2.051  0.0532 -0.5079  0.0982
  325SOL    HW1  974   0.233   0.071   1.967  1.5895  1.1364 -1.1166
  325SOL    HW2  975   0.296   0.122   2.104 -0.5223  3.0978 -2.4115
  326SOL     OW  976   2.059   2.521   0.040  0.1893  0.3819 -0.0616
  326SOL    HW1  977   2.003   2.523   0.122  1.0718 -0.3104  1.8618
  326SOL    HW2  978   2.137   2.453   0.052  1.1189 -0.0403  1.1288
  327SOL     OW  979   2.189   1.517   0.618 -0.1912 -0.0888 -0.1789
  327SOL    HW1  980   2.156   1.610   0.589 -2.1665  2.1256  1.5840
  327SOL    HW2  981   2.244   1.467   0.551 -0.5587 -1.6376 -1.7269
  328SOL     OW  982   2.987   2.042   2.514 -0.3047 -0.1545 -0.5895
  328SOL    HW1  983   3.009   1.958   2.570 -0.7838  0.6073  2.7574
  328SOL    HW2  984   2.962   2.123   2.573 -0.5081  1.4345 -0.1613
  329SOL     OW  985   0.237   2.273   1.737  0.2127  0.2389 -0.0313
  329SOL    HW1  986   0.202   2.330   1.662  0.3525  1.7157  2.2705
  329SOL    HW2  987   0.224   2.174   1.720 -2.7082 -2.0019  2.3583
  330SOL     OW  988   2.617   1.123   2.639  0.3367 -0.2988 -0.5065
  330SOL    HW1  989   2.560   1.170   2.709 -2.7848 -1.9026 -1.4250
  330SOL    HW2  990   2.556   1.076   2.573  0.1728 -0.5506  2.3823
  331SOL     OW  991   2.463   2.713   1.007 -0.5533 -0.4421 -0.1241
  331SOL    HW1  992   2.402   2.714   1.089  0.0458 -3.4579  1.4353
  331SOL    HW2  993   2.408   2.710   0.919  0.4302  1.0246  0.5131
  332SOL     OW  994   0.477   2.989   0.822 -0.0078  0.1549  0.0319
  332SOL    HW1  995   0.375   2.992   0.826  1.8585 -0.7877 -0.5389
  332SOL    HW2  996   0.520   2.924   0.886 -0.0225  0.3438  0.6158
  333SOL     OW  997   2.363   2.256   2.627  0.5723  0.7240 -0.2382
  333SOL    HW1  998   2.298   2.324   2.587 -2.1754  2.2467  0.2634
  333SOL    HW2  999   2.412   2.217   2.548  1.8753 -0.8406 -0.7184
  334SOL     OW 1000   0.620   1.245   0.788  1.0180  0.7012  0.1178
  334SOL    HW1 1001   0.582   1.149   0.794  0.1807  2.4167  1.6071
  334SOL    HW2 1002   0.719   1.239   0.820 -0.2196 -1.2869  1.9635
  335SOL     OW 1003   2.838   1.982   2.268  0.4829 -0.4544 -0.7050
  335SOL    HW1 1004   2.916   1.996   2.330  1.2341 -1.7171  0.3921
  335SOL    HW2 1005   2.751   1.960   2.312 -0.4595 -0.7681 -2.1996
  336SOL     OW 1006   2.305   2.886   1.972  0.2612 -0.0787 -0.4642
  336SOL    HW1 1007   2.337   2.802   2.015 -1.7396  0.9127 -0.0380
  336SOL    HW2 1008   2.275   2.876   1.874  0.2211 -0.3217  0.7452
  337SOL     OW 1009   0.787   0.983   0.974  0.1024 -0.3063 -0.1588
  337SOL    HW1 1010   0.804   0.893   0.921  0.1844 -0.8504 -0.9473
  337SOL    HW2 1011   0.830   1.069   0.938  1.7899  0.8871  0.3204
  338SOL     OW 1012   1.087   1.755   1.209 -0.3714  0.3908 -0.7540
  338SOL    HW1 1013   1.162   1.738   1.280  1.7700  1.9956  1.0525
  338SOL    HW2 1014   1.011   1.794   1.256 -0.0014 -0.9220 -3.1748
  339SOL     OW 1015   0.020   1.865   1.479 -0.0634  0.8741  0.4128
  339SOL    HW1 1016   3.116   1.962   1.462  0.1845 -1.3524  3.5101
  339SOL    HW2 1017   3.102   1.838   1.568  1.3985  1.2806 -1.3953
  340SOL     OW 1018   1.348   2.610   1.733  0.7244 -0.4752  0.1512
  340SOL    HW1 1019   1.363   2.711   1.753  2.5281  2.8377  1.7954
  340SOL    HW2 1020   1.291   2.575   1.811  0.7905 -0.2973  1.6435
  341SOL     OW 1021   1.528   1.711   1.149  0.3340 -0.3322  0.0381
  341SOL    HW1 1022   1.488   1.724   1.056 -2.4935 -0.9902  2.1437
  341SOL    HW2 1023   1.598   1.779   1.165 -3.6129  1.1195  0.6388
  342SOL     OW 1024   2.621   1.413   1.075  0.2729 -0.1460  0.8896
  342SOL    HW1 1025   2.531   1.426   1.117  0.8885 -0.9114 -1.0680
  342SOL    HW2 1026   2.614   1.404   0.974 -0.5755 -2.0816  0.5542
  343SOL     OW 1027   2.398   0.663   1.202  0.5927 -0.1544 -0.1245
  343SOL    HW1 1028   2.501   0.670   1.205  0.9229  1.9498 -1.3148
  343SOL    HW2 1029   2.363   0.622   1.286  0.1792  0.7737  0.5987
  344SOL     OW 1030   2.185   0.298   0.658  0.4067 -0.1420  0.4538
  344SOL    HW1 1031   2.282   0.276   0.629  1.5648  1.2946  1.5063
  344SOL    HW2 1032   2.135   0.210   0.671 -0.9088 -1.2889  1.0526
  345SOL     OW 1033   0.944   2.752   1.925  0.7357  0.7435 -0.3660
  345SOL    HW1 1034   1.037   2.728   1.891  2.4851  0.6330  0.5703
  345SOL    HW2 1035   0.865   2.716   1.868  0.0218 -2.3160 -2.8075
  346SOL     OW 1036   2.857   2.192   0.785  0.0189  0.1862 -0.5518
  346SOL    HW1 1037   2.888   2.130   0.861  0.4813 -1.8793 -1.1864
  346SOL    HW2 1038   2.758   2.220   0.791 -1.3137  0.5249  2.0239
  347SOL     OW 1039   2.087   0.128   1.348  0.0538 -0.3342 -0.0333
  347SOL    HW1 1040   2.081   0.061   1.422 -0.1912  1.4956  1.1291
  347SOL    HW2 1041   2.085   0.077   1.264  3.7558 -1.7377  2.1187
  348SOL     OW 1042   0.935   1.053   1.200  0.4650 -0.0490 -0.1804
  348SOL    HW1 1043   0.879   1.033   1.119  0.5740  1.3319 -2.3594
  348SOL    HW2 1044   1.020   0.997   1.205  0.4160  0.2893  0.6908
  349SOL     OW 1045   2.301   0.517   1.830 -0.0574 -0.1238 -0.1754
  349SOL    HW1 1046   2.240   0.541   1.909  1.2273 -0.9353 -0.3031
  349SOL    HW2 1047   2.352   0.428   1.835  2.7770  0.0185 -0.0598
  350SOL     OW 1048   2.094   2.593   0.386  0.3208  0.0208  0.0892
  350SOL    HW1 1049   2.172   2.565   0.326  1.8362 -0.3914 -0.7154
  350SOL    HW2 1050   2.076   2.694   0.376 -1.7322 -0.7062  1.2095
  351SOL     OW 1051   1.273   0.469   2.742  0.4366  0.0814 -0.3145
  351SOL    HW1 1052   1.346   0.407   2.764 -0.5754 -0.7700  0.5336
  351SOL    HW2 1053   1.194   0.449   2.805  0.9045  2.2596  0.5850
  352SOL     OW 1054   2.020   2.653   2.102  0.1003  0.0142  0.2173
  352SOL    HW1 1055   1.992   2.667   2.199  0.3147  0.1583  1.3228
  352SOL    HW2 1056   1.981   2.730   2.048  0.3454  2.2037 -2.8904
  353SOL     OW 1057   0.540   0.941   2.532  0.1675 -0.0408  0.0540
  353SOL    HW1 1058   0.469   0.989   2.475  1.1621  1.8153 -1.3913
  353SOL    HW2 1059   0.578   0.859   2.486 -2.5002  1.7124  2.2813
  354SOL     OW 1060   0.545   2.841   2.760 -0.1871 -0.2562 -0.1594
  354SOL    HW1 1061   0.516   2.786   2.677 -0.8278  0.0737 -2.4045
  354SOL    HW2 1062   0.537   2.785   2.850 -0.6736 -1.9290  4.0658
  355SOL     OW 1063   2.220   2.739   1.195  0.2832  0.2209  0.1270
  355SOL    HW1 1064   2.289   2.801   1.239 -1.5933  0.3573  1.9888
  355SOL    HW2 1065   2.124   2.772   1.219 -0.9088  1.1940 -0.8269
  356SOL     OW 1066   2.465   0.658   0.420  0.0253  0.3554  0.1539
  356SOL    HW1 1067   2.416   0.748   0.419  2.9017  0.0986 -1.8302
  356SOL    HW2 1068   2.394   0.589   0.415  1.5732 -0.8654 -0.7548
  357SOL     OW 1069   0.107   0.068   1.797 -0.4644 -0.4095 -0.2253
  357SOL    HW1 1070   0.141   0.159   1.773  0.7766  0.7807 -0.3455
  357SOL    HW2 1071   0.037   0.077   1.872 -1.1144 -0.8964  0.3037
  358SOL     OW 1072   3.050   1.422   1.304 -0.1094 -0.0160  0.3331
  358SOL    HW1 1073   0.025   1.415   1.268  1.0608  3.7940 -1.1818
  358SOL    HW2 1074   3.032   1.517   1.340 -1.7399 -0.6054  1.2732
  359SOL     OW 1075   2.519   3.103   2.863 -0.5328 -0.2848  0.4984
  359SOL    HW1 1076   2.505   3.060   2.773  2.1724  0.0558  1.9919
  359SOL    HW2 1077   2.615   3.096   2.898  0.0120 -1.7499 -2.7115
  360SOL     OW 1078   1.179   0.621   1.498 -0.9873  0.1234 -0.3479
  360SOL    HW1 1079   1.123   0.594   1.420  0.1884  1.5801  0.7833
  360SOL    HW2 1080   1.224   0.712   1.482 -0.1855 -2.4747 -0.1316
  361SOL     OW 1081   2.716   2.640   1.578 -0.2878  0.7181 -0.1257
  361SOL    HW1 1082   2.787   2.592   1.633 -1.5235  1.7850 -0.0751
  361SOL    HW2 1083   2.629   2.580   1.573 -1.8395 -0.1643 -2.0237
  362SOL     OW 1084   1.391   0.329   0.752 -0.2983  0.2625 -0.2033
  362SOL    HW1 1085   1.486   0.354   0.777  2.4672  2.0507  2.0733
  362SOL    HW2 1086   1.340   0.296   0.834 -0.0403 -3.6795  0.2396
  363SOL     OW 1087   1.954   1.576   1.039  0.2565 -0.2019  1.0239
  363SOL    HW1 1088   1.947   1.591   0.936  0.9614  0.6188  0.7328
  363SOL    HW2 1089   1.866   1.576   1.084  2.1342 -3.3820 -1.4975
  364SOL     OW 1090   0.623   0.835   1.715  0.1273 -0.5254 -0.2909
  364SOL    HW1 1091   0.647   0.800   1.810  2.6616  0.9197 -1.2183
  364SOL    HW2 1092   0.601   0.765   1.648  1.4180  1.7142 -0.7243
  365SOL     OW 1093   3.001   0.458   1.007  0.2781 -0.0505  0.0752
  365SOL    HW1 1094   3.100   0.475   0.991 -2.2503  1.2532 -0.3713
  365SOL    HW2 1095   2.971   0.505   1.089  0.9322 -1.1737 -1.5397
  366SOL     OW 1096   2.734   0.990   0.571  0.2992 -0.7691 -0.5697
  366SOL    HW1 1097   2.679   1.032   0.497 -0.6525  0.6253 -2.3790
  366SOL    HW2 1098   2.809   1.053   0.583 -2.1596  0.1176 -1.7402
  367SOL     OW 1099   2.299   2.094   2.302 -0.5145  0.0046  0.2282
  367SOL    HW1 1100   2.236   2.093   2.382 -2.8235 -0.5195 -1.3674
  367SOL    HW2 1101   2.385   2.149   2.312  1.2476  0.2606  0.7055
  368SOL     OW 1102   2.439   2.161   1.009  0.0707 -0.1039  0.0953
  368SOL    HW1 1103   2.447   2.136   1.110  0.7927 -0.6525  4.3263
  368SOL    HW2 1104   2.408   2.077   0.952  0.8592 -0.9605 -0.6867
  369SOL     OW 1105   2.150   0.126   2.897 -0.2822  0.2701  0.0642
  369SOL    HW1 1106   2.142   0.229   2.919 -1.9400  2.3376  2.4839
  369SOL    HW2 1107   2.231   0.089   2.952 -0.3010  1.6174  3.9259
  370SOL     OW 1108   0.844   0.370   1.041  0.2316 -0.1765  0.1511
  370SOL    HW1 1109   0.809   0.395   0.945  1.8926  1.1837 -4.3419
  370SOL    HW2 1110   0.799   0.429   1.110  2.8158 -0.9166  0.2963
  371SOL     OW 1111   0.369   1.711   0.249  0.1694 -0.3511  0.8702
  371SOL    HW1 1112   0.385   1.712   0.148  0.9845  1.7840  0.0075
  371SOL    HW2 1113   0.457   1.735   0.297  0.4934 -0.7537 -0.6772
  372SOL     OW 1114   0.661   0.694   2.428  0.3561 -0.3123 -0.0297
  372SOL    HW1 1115   0.657   0.601   2.388 -3.2907  0.3142  2.4032
  372SOL    HW2 1116   0.755   0.721   2.471  0.2941 -0.1467 -1.0356
  373SOL     OW 1117   1.154   2.943   2.791 -0.7483 -0.3603  0.1034
  373SOL    HW1 1118   1.079   2.939   2.854 -0.0250  1.5343 -0.9278
  373SOL    HW2 1119   1.163   3.043   2.760 -0.4596  0.3423 -0.3433
  374SOL     OW 1120   0.902   1.790   0.522  0.1846 -0.2146  0.4634
  374SOL    HW1 1121   0.947   1.745   0.601 -2.6109 -1.4165 -4.3061
  374SOL    HW2 1122   0.909   1.720   0.446 -0.1420  0.5432 -3.6712
  375SOL     OW 1123   0.639   0.690   1.936  0.0297  0.6121 -0.6835
  375SOL    HW1 1124   0.635   0.754   2.019 -2.1253  3.2662 -1.1485
  375SOL    HW2 1125   0.702   0.610   1.948 -1.5126  3.4289  1.8903
  376SOL     OW 1126   0.069   2.535   1.679 -0.6386 -0.4477  0.7683
  376SOL    HW1 1127   0.143   2.603   1.671 -2.2284 -1.6389  1.9321
  376SOL    HW2 1128   0.060   2.493   1.773  0.3067  1.1269  0.4000
  377SOL     OW 1129   2.603   1.551   2.818  1.0521 -0.1378 -0.0491
  377SOL    HW1 1130   2.501   1.535   2.827 -0.3630 -0.4080 -0.5293
  377SOL    HW2 1131   2.655   1.466   2.821  0.3955  1.0241 -0.1429
  378SOL     OW 1132   2.185   2.849   2.873  0.2286 -0.6142 -0.4094
  378SOL    HW1 1133   2.206   2.784   2.950  1.9431  0.9262  0.5438
  378SOL    HW2 1134   2.120   2.922   2.896  2.0796 -0.1916  1.1749
  379SOL     OW 1135   1.908   0.608   0.720 -0.3370 -0.2436 -0.0411
  379SOL    HW1 1136   1.930   0.552   0.801 -1.1697  1.6448  1.1917
  379SOL    HW2 1137   1.809   0.626   0.717 -1.0754 -1.4518  2.3084
  380SOL     OW 1138   2.562   1.966   1.771 -0.6016  0.3703 -0.0351
  380SOL    HW1 1139   2.520   1.916   1.854  0.2030 -1.1939  1.6630
  380SOL    HW2 1140   2.660   1.936   1.748  0.4955  0.4963 -0.9534
  381SOL     OW 1141   2.331   1.436   2.375  0.4492 -0.3403  0.1625
  381SOL    HW1 1142   2.410   1.462   2.313 -1.3767  2.1575  0.6397
  381SOL    HW2 1143   2.321   1.486   2.465 -1.6961  0.3343  1.9846
  382SOL     OW 1144   2.873   2.742   2.694  0.0685  0.0800  0.4757
  382SOL    HW1 1145   2.823   2.748   2.782  1.5642  0.1330  1.7611
  382SOL    HW2 1146   2.879   2.832   2.650 -2.3212 -0.8006  1.5451
  383SOL     OW 1147   1.073   1.346   0.060 -0.3817 -0.0833  0.1275
  383SOL    HW1 1148   0.994   1.358   3.114 -1.5415 -0.1354 -0.7766
  383SOL    HW2 1149   1.132   1.428   0.052  0.6286  0.2980  0.6498
  384SOL     OW 1150   1.391   1.965   1.682  0.1585  0.1505  0.1762
  384SOL    HW1 1151   1.351   2.055   1.694 -1.6861  0.8346 -0.1075
  384SOL    HW2 1152   1.449   1.944   1.765 -2.3100 -0.3231  0.2046
  385SOL     OW 1153   1.761   2.775   0.549 -0.0036 -0.4633  0.6204
  385SOL    HW1 1154   1.697   2.852   0.571  0.3140 -2.1385  0.8729
  385SOL    HW2 1155   1.862   2.792   0.571  2.1839  0.8927 -0.2413
  386SOL     OW 1156   1.914   1.604   0.759 -0.3468  0.4485  0.5471
  386SOL    HW1 1157   2.002   1.634   0.721 -0.0439 -1.3191  1.0165
  386SOL    HW2 1158   1.835   1.641   0.700 -2.6915 -0.5558 -1.2900
  387SOL     OW 1159   2.734   2.225   1.552 -0.1848 -0.4424 -0.4992
  387SOL    HW1 1160   2.760   2.264   1.645  1.4405  2.1569  2.0649
  387SOL    HW2 1161   2.641   2.182   1.562 -0.8951  0.8684 -0.8869
  388SOL     OW 1162   2.996   1.203   1.710 -0.2754 -0.4235 -0.2209
  388SOL    HW1 1163   3.059   1.271   1.758  1.7818 -0.1386 -1.8445
  388SOL    HW2 1164   3.041   1.112   1.683 -1.1401 -0.2832 -1.1838
  389SOL     OW 1165   2.010   0.266   0.259  0.3993  0.3925 -0.0651
  389SOL    HW1 1166   2.075   0.202   0.212  1.8351  2.2295 -2.5497
  389SOL    HW2 1167   2.005   0.269   0.360 -1.0784 -0.3910 -0.5730
  390SOL     OW 1168   1.091   1.766   2.962  0.6614 -0.2609  0.5380
  390SOL    HW1 1169   1.068   1.787   3.060  1.0049 -1.4776  0.3532
  390SOL    HW2 1170   1.021   1.697   2.931 -0.3147 -2.3990  0.9384
  391SOL     OW 1171   1.275   2.019   0.059  0.6785  0.1814 -0.8587
  391SOL    HW1 1172   1.246   2.103   0.018  2.2118 -0.9251 -1.2171
  391SOL    HW2 1173   1.354   1.977   0.013  0.2915 -1.0322  1.5098
  392SOL     OW 1174   0.041   2.505   1.946  0.1900 -0.0595  0.2180
  392SOL    HW1 1175   0.064   2.592   1.992  0.3512  0.5300  3.5594
  392SOL    HW2 1176   0.013   2.432   2.011 -0.4443  0.4132  1.0094
  393SOL     OW 1177   1.404   2.034   0.312 -0.2439 -0.3040 -0.5012
  393SOL    HW1 1178   1.478   2.099   0.277 -0.9774  0.6546 -0.1582
  393SOL    HW2 1179   1.333   2.033   0.242 -1.4982  2.2098  2.6699
  394SOL     OW 1180   0.648   0.419   2.361 -0.2263 -0.5911 -0.0699
  394SOL    HW1 1181   0.723   0.397   2.300 -2.8763 -0.8746  0.2659
  394SOL    HW2 1182   0.656   0.364   2.449  1.7991 -2.0275  0.9608
  395SOL     OW 1183   0.545   1.163   1.251 -0.0364  0.0283 -0.3375
  395SOL    HW1 1184   0.585   1.183   1.341 -4.1676  0.4409 -1.0540
  395SOL    HW2 1185   0.562   1.240   1.190 -0.4808 -1.1872  0.3904
  396SOL     OW 1186   2.021   1.212   2.215  0.0597  0.5044 -0.1843
  396SOL    HW1 1187   1.920   1.200   2.215  0.6387 -1.2368 -1.9621
  396SOL    HW2 1188   2.034   1.315   2.221 -2.8379  1.8394 -0.7627
  397SOL     OW 1189   0.724   0.572   0.003 -0.0955  0.2721 -0.0540
  397SOL    HW1 1190   0.704   0.591   3.021 -2.6191 -1.2311  0.3864
  397SOL    HW2 1191   0.645   0.529   0.051  0.0618  2.1414  1.3009
  398SOL     OW 1192   1.165   2.265   3.091 -0.3249  0.4714  0.1114
  398SOL    HW1 1193   1.088   2.230   3.042  0.1501 -0.8636  0.3852
  398SOL    HW2 1194   1.133   2.341   0.033 -0.1674  0.1391 -0.0832
  399SOL     OW 1195   1.507   2.045   2.291 -0.3580 -0.2257 -0.4071
  399SOL    HW1 1196   1.493   1.954   2.336  1.2671 -1.1814  1.1681
  399SOL    HW2 1197   1.593   2.050   2.231  3.0162  1.1024 -0.9429
  400SOL     OW 1198   2.173   1.754   1.466 -0.4400  0.3370 -0.2290
  400SOL    HW1 1199   2.155   1.737   1.365 -1.8596  3.0114  2.3139
  400SOL    HW2 1200   2.203   1.665   1.514 -1.3303 -0.0872  0.0884
  401SOL     OW 1201   1.210   1.371   0.998  0.3159 -0.3841  0.4781
  401SOL    HW1 1202   1.130   1.414   0.953 -0.5018 -1.0968 -2.8507
  401SOL    HW2 1203   1.292   1.412   0.955 -2.0358 -0.3677  0.1761
  402SOL     OW 1204   0.062   2.671   2.326  0.0285 -0.7470  0.9313
  402SOL    HW1 1205   0.119   2.724   2.391 -0.0608  1.3200  0.5235
  402SOL    HW2 1206   0.124   2.639   2.253 -1.0155 -1.3334  0.6622
  403SOL     OW 1207   2.812   1.890   1.712  0.1263  0.4142  0.2566
  403SOL    HW1 1208   2.861   1.982   1.720 -1.3534  3.2953 -0.4332
  403SOL    HW2 1209   2.879   1.812   1.696  1.5622  1.9961  4.2023
  404SOL     OW 1210   2.065   2.234   1.150 -0.0988 -0.5335  0.4606
  404SOL    HW1 1211   2.142   2.298   1.149 -4.6327  0.3186  1.2555
  404SOL    HW2 1212   2.065   2.193   1.241  3.0012 -0.5472 -3.3013
  405SOL     OW 1213   2.623   0.283   2.756 -0.5111 -0.4809  0.5322
  405SOL    HW1 1214   2.662   0.227   2.832 -0.9669  0.0232  0.9429
  405SOL    HW2 1215   2.684   0.293   2.676 -0.1676  0.3328 -0.8390
  406SOL     OW 1216   0.851   1.549   2.463  0.5435  0.3870 -0.3439
  406SOL    HW1 1217   0.834   1.601   2.377  0.3618  1.6155 -1.4452
  406SOL    HW2 1218   0.941   1.574   2.504  0.6282  1.5692  1.8765
  407SOL     OW 1219   1.881   2.479   0.237 -0.2815 -0.5288 -0.3014
  407SOL    HW1 1220   1.945   2.503   0.318  2.5603  0.8228  2.1651
  407SOL    HW2 1221   1.785   2.503   0.258  1.7759 -0.6982  0.6657
  408SOL     OW 1222   0.204   3.032   0.865  0.4615 -0.2432 -0.0267
  408SOL    HW1 1223   0.176   0.008   0.839  0.6796  0.5130 -0.6669
  408SOL    HW2 1224   0.142   2.994   0.930  1.6762 -1.2468 -1.1212
  409SOL     OW 1225   2.275   1.998   0.815  0.1874  0.3917  0.4578
  409SOL    HW1 1226   2.254   1.919   0.879  0.5797 -0.5299 -0.4971
  409SOL    HW2 1227   2.200   2.068   0.813  0.3839  2.4926 -0.3229
  410SOL     OW 1228   2.432   2.127   3.017 -0.4069  0.3849 -0.3590
  410SOL    HW1 1229   2.507   2.061   2.997 -0.3614  3.2589 -1.9157
  410SOL    HW2 1230   2.378   2.134   2.932  1.6697 -0.5209  0.7205
  411SOL     OW 1231   0.144   2.987   0.341  0.1758  0.0791  0.5942
  411SOL    HW1 1232   0.238   2.991   0.377 -0.9861 -0.3096 -1.4280
  411SOL    HW2 1233   0.074   3.033   0.398 -0.0312 -1.9702 -2.5377
  412SOL     OW 1234   1.586   2.537   0.292  0.0911  0.0056  0.0182
  412SOL    HW1 1235   1.551   2.593   0.217 -0.1620  0.4523 -1.0746
  412SOL    HW2 1236   1.542   2.561   0.379 -0.2929 -0.1415 -1.3206
  413SOL     OW 1237   1.964   0.511   2.167 -0.0496  0.0218  0.0748
  413SOL    HW1 1238   1.874   0.490   2.122  0.0120 -3.5075  1.6493
  413SOL    HW2 1239   1.990   0.431   2.227 -0.8642  0.7901  1.0185
  414SOL     OW 1240   0.047   0.436   0.575 -0.0625  0.0746 -0.3355
  414SOL    HW1 1241   0.097   0.481   0.652 -1.5131 -0.0662  0.1252
  414SOL    HW2 1242   0.088   0.453   0.485 -1.1432 -1.1239 -0.3281
  415SOL     OW 1243   0.301   1.679   1.234 -0.0751 -0.4948 -0.4552
  415SOL    HW1 1244   0.250   1.697   1.142 -0.5027 -0.3405 -2.2230
  415SOL    HW2 1245   0.234   1.661   1.308  0.3933 -0.7174  0.3065
  416SOL     OW 1246   0.071   2.976   0.072  0.1951 -0.3598 -0.2755
  416SOL    HW1 1247   0.065   3.070   0.023 -0.0793 -0.6082 -1.7578
  416SOL    HW2 1248   0.091   2.975   0.173 -0.9783 -0.9409 -2.3175
  417SOL     OW 1249   2.373   3.106   1.082 -0.0266  0.0984  0.0934
  417SOL    HW1 1250   2.304   3.068   1.014 -0.5651 -2.3978  3.0803
  417SOL    HW2 1251   2.364   0.089   1.086  0.8339 -1.8737 -0.9109
  418SOL     OW 1252   0.643   0.316   2.621  0.3192 -0.8833  0.2551
  418SOL    HW1 1253   0.726   0.349   2.668  1.4584  0.9801  0.0186
  418SOL    HW2 1254   0.578   0.272   2.686  0.5646 -0.0514 -0.2309
  419SOL     OW 1255   0.465   1.033   0.801 -0.1668  0.3016  0.0836
  419SOL    HW1 1256   0.495   0.942   0.781  1.7397  1.6678  0.5682
  419SOL    HW2 1257   0.367   1.035   0.827  1.2997 -0.6379 -1.6058
  420SOL     OW 1258   1.810   1.958   0.863 -0.5758 -0.1313  0.2999
  420SOL    HW1 1259   1.815   1.939   0.762 -1.5346 -1.4684  1.7706
  420SOL    HW2 1260   1.875   1.896   0.910 -1.1924  2.4096  0.0074
  421SOL     OW 1261   1.675   1.843   2.634 -0.1684  0.5533  0.0849
  421SOL    HW1 1262   1.589   1.849   2.578  1.8088 -1.7225  1.7883
  421SOL    HW2 1263   1.743   1.780   2.590 -6.8059  4.0983 -0.0227
  422SOL     OW 1264   2.836   0.453   3.052  0.0137  0.1671  0.0611
  422SOL    HW1 1265   2.879   0.506   2.975 -1.0675 -0.2676  0.9632
  422SOL    HW2 1266   2.804   0.512   0.006  0.9671 -2.2093 -0.8184
  423SOL     OW 1267   1.463   1.778   0.886 -0.2779 -0.0973  0.0688
  423SOL    HW1 1268   1.502   1.872   0.899 -3.0290 -0.9679 -2.6363
  423SOL    HW2 1269   1.510   1.729   0.809 -3.8712  1.3849 -1.3581
  424SOL     OW 1270   0.383   1.618   1.616  0.0340  0.0363 -0.0062
  424SOL    HW1 1271   0.385   1.557   1.700 -0.1780  0.9149  2.2833
  424SOL    HW2 1272   0.446   1.694   1.636  1.3294 -2.9197 -0.5413
  425SOL     OW 1273   2.771   2.770   1.911 -0.6922 -0.1620  0.2356
  425SOL    HW1 1274   2.814   2.713   1.831 -1.5511 -1.8463 -1.5361
  425SOL    HW2 1275   2.746   2.705   1.986  1.2543  2.6660  2.8417
  426SOL     OW 1276   2.005   2.890   0.589 -0.0759  0.1437 -0.2113
  426SOL    HW1 1277   2.052   2.824   0.652 -0.7274 -0.6457  1.8393
  426SOL    HW2 1278   2.047   2.903   0.505 -2.8678 -0.2570  2.3104
  427SOL     OW 1279   0.534   0.778   2.745  0.4041 -0.0325  0.8136
  427SOL    HW1 1280   0.554   0.856   2.680 -0.2842 -2.0183  1.2426
  427SOL    HW2 1281   0.498   0.814   2.833  1.3243 -0.8470 -0.9985
  428SOL     OW 1282   2.048   1.177   0.195 -0.2402 -0.0975  0.0034
  428SOL    HW1 1283   1.945   1.184   0.183 -2.4053  0.3196  0.2816
  428SOL    HW2 1284   2.094   1.264   0.167  4.3666  2.2779 -0.8410
  429SOL     OW 1285   3.024   0.186   0.264 -0.5154  0.0663 -0.3598
  429SOL    HW1 1286   3.038   0.121   0.342  1.2029 -2.0484 -0.1361
  429SOL    HW2 1287   3.110   0.233   0.234 -1.9880  0.6943  1.9619
  430SOL     OW 1288   0.980   3.009   2.056 -0.7063  0.1691  0.1529
  430SOL    HW1 1289   0.912   3.051   1.991 -1.8967  0.5682 -0.0497
  430SOL    HW2 1290   0.986   2.909   2.037  1.7757  2.2549  2.0970
  431SOL     OW 1291   2.962   1.677   1.360  0.4434  0.5655  0.1420
  431SOL    HW1 1292   2.871   1.661   1.391  1.6205 -1.8256 -2.9753
  431SOL    HW2 1293   3.007   1.759   1.405  0.5355 -3.2846  0.3068
  432SOL     OW 1294   2.158   2.785   1.748  0.0598 -0.2443  0.4692
  432SOL    HW1 1295   2.239   2.725   1.739 -1.1368  2.3331  0.7782
  432SOL    HW2 1296   2.084   2.745   1.809 -2.1701 -1.1867  3.0365
  433SOL     OW 1297   1.034   1.686   0.127  0.6270  0.1152  0.1478
  433SOL    HW1 1298   0.985   1.642   0.206 -2.3089 -0.2881  0.9124
  433SOL    HW2 1299   1.016   1.788   0.125 -0.2464  0.6124  1.4927
  434SOL     OW 1300   0.084   2.268   2.402 -0.2636 -0.1959  0.3855
  434SOL    HW1 1301   0.132   2.181   2.401 -0.5166  0.7351 -0.7558
  434SOL    HW2 1302   0.098   2.316   2.488 -0.1197  1.0914 -1.1758
  435SOL     OW 1303   0.349   0.590   0.540 -0.0109  0.2538  0.0771
  435SOL    HW1 1304   0.362   0.512   0.598  0.5252  1.3305 -0.9070
  435SOL    HW2 1305   0.439   0.630   0.511 -0.0060 -0.4496  0.4869
  436SOL     OW 1306   0.369   2.679   1.870 -0.0971 -0.2151  0.1257
  436SOL    HW1 1307   0.424   2.594   1.863 -0.2566 -2.0685 -0.7334
  436SOL    HW2 1308   0.331   2.707   1.780 -2.3858  2.8281  3.2858
  437SOL     OW 1309   0.966   2.083   1.499  0.2692 -0.5126 -0.1218
  437SOL    HW1 1310   1.027   2.106   1.576  0.4339  0.9342  0.7774
  437SOL    HW2 1311   1.006   2.116   1.411 -0.1561  1.2827  0.5282
  438SOL     OW 1312   0.009   2.087   0.652  0.3947 -0.1649 -0.0775
  438SOL    HW1 1313   3.033   2.124   0.660  1.9624  1.0670  1.1216
  438SOL    HW2 1314   0.075   2.156   0.686  2.6553  1.3644  2.9451
  439SOL     OW 1315   0.158   0.244   1.089  0.4757 -0.2079  0.1805
  439SOL    HW1 1316   0.087   0.196   1.142  2.9299  0.2335  2.5492
  439SOL    HW2 1317   0.231   0.274   1.154 -1.1214 -2.8224  0.3334
  440SOL     OW 1318   2.782   2.834   2.184  0.1343  0.3639 -0.0809
  440SOL    HW1 1319   2.860   2.874   2.128 -0.8576  0.6121 -1.9558
  440SOL    HW2 1320   2.814   2.772   2.256 -2.9733  1.2598 -1.0026
  441SOL     OW 1321   2.856   0.706   1.786 -0.1649  0.2137  0.0128
  441SOL    HW1 1322   2.800   0.625   1.820  1.1393 -0.1467  0.6870
  441SOL    HW2 1323   2.844   0.789   1.842  0.4823  0.0672 -0.6582
  442SOL     OW 1324   1.682   2.227   2.966 -0.2930 -0.2639 -0.5518
  442SOL    HW1 1325   1.765   2.256   3.015 -0.8981 -0.3345 -0.4231
  442SOL    HW2 1326   1.598   2.253   3.011  0.9350 -2.5403 -0.9263
  443SOL     OW 1327   0.416   0.828   0.188  0.7356  0.0065 -0.4953
  443SOL    HW1 1328   0.365   0.754   0.136 -1.2316 -0.0177 -1.8431
  443SOL    HW2 1329   0.429   0.804   0.288 -1.6531  0.6039 -1.3074
  444SOL     OW 1330   1.336   1.597   2.108 -0.4805 -0.0879 -0.0962
  444SOL    HW1 1331   1.427   1.569   2.073 -1.4515  1.5856 -1.4248
  444SOL    HW2 1332   1.261   1.547   2.060 -2.0711 -1.0014 -2.3526
  445SOL     OW 1333   0.042   2.813   0.970  0.3563  0.4751  0.4251
  445SOL    HW1 1334   0.001   2.724   1.001 -0.3611  1.1363 -0.5572
  445SOL    HW2 1335   0.029   2.822   0.870 -4.6106  0.3246  0.8316
  446SOL     OW 1336   2.242   1.176   1.427  0.3683 -0.1802 -0.7746
  446SOL    HW1 1337   2.149   1.209   1.395 -1.5644 -0.3051  1.5284
  446SOL    HW2 1338   2.319   1.238   1.392  0.7461  1.6713  0.2373
  447SOL     OW 1339   0.283   0.643   0.044 -0.3041  0.2736 -0.0825
  447SOL    HW1 1340   0.228   0.626   0.134 -1.1502 -0.8332  0.7170
  447SOL    HW2 1341   0.248   0.598   3.080 -0.8387  0.6404  1.5186
  448SOL     OW 1342   1.332   2.256   1.787 -0.0040 -0.1341  0.3155
  448SOL    HW1 1343   1.395   2.314   1.729 -0.9983  0.8154 -0.0391
  448SOL    HW2 1344   1.339   2.286   1.885 -0.6371 -1.1476  0.8614
  449SOL     OW 1345   1.193   1.508   0.629 -0.2730 -0.2008 -0.5360
  449SOL    HW1 1346   1.236   1.487   0.717 -1.6896  1.5669  0.7438
  449SOL    HW2 1347   1.256   1.507   0.547  0.3989 -0.8537 -0.1139
  450SOL     OW 1348   2.539   1.743   1.959 -0.3123  0.0894  0.2158
  450SOL    HW1 1349   2.494   1.718   2.047  1.2433  0.8701 -0.9146
  450SOL    HW2 1350   2.629   1.702   1.950 -0.2928 -2.4141  2.3380
  451SOL     OW 1351   2.820   1.338   2.903  0.1405  0.2902  0.1496
  451SOL    HW1 1352   2.873   1.377   2.824  0.4750 -2.9957 -3.5140
  451SOL    HW2 1353   2.874   1.265   2.948 -0.7287  0.4387 -1.6354
  452SOL     OW 1354   1.470   1.106   1.053  0.3365 -0.1627 -0.0711
  452SOL    HW1 1355   1.388   1.130   1.104  0.0439  0.1030 -0.3187
  452SOL    HW2 1356   1.550   1.151   1.088 -2.1801 -2.7058 -2.5501
  453SOL     OW 1357   1.929   1.040   1.033  0.0577  0.3409 -0.3957
  453SOL    HW1 1358   1.955   0.941   1.023 -0.5954 -2.6309  0.3714
  453SOL    HW2 1359   1.982   1.095   1.098 -1.5230  1.4314 -0.4485
  454SOL     OW 1360   2.890   0.779   0.477  0.1813  0.1686 -0.2436
  454SOL    HW1 1361   2.854   0.697   0.532  1.5070 -0.4532  0.9525
  454SOL    HW2 1362   2.831   0.863   0.492 -2.1445 -0.4125 -1.1101
  455SOL     OW 1363   2.691   2.567   0.982 -0.4267 -0.3276 -0.0405
  455SOL    HW1 1364   2.696   2.585   0.880  0.1840 -1.2623  0.0328
  455SOL    HW2 1365   2.606   2.605   1.020  2.8397  1.0483 -2.9113
  456SOL     OW 1366   0.659   2.956   1.225 -0.6540 -0.1209  0.6172
  456SOL    HW1 1367   0.602   2.912   1.156 -1.2506 -0.7234 -1.0233
  456SOL    HW2 1368   0.708   2.887   1.286  1.6688  1.0117  1.1947
  457SOL     OW 1369   1.807   0.022   1.038  0.1317 -0.0292  0.0705
  457SOL    HW1 1370   1.842   0.092   0.970  1.5781 -0.5635 -0.8403
  457SOL    HW2 1371   1.888   3.111   1.092  1.3535  1.0280 -2.2499
  458SOL     OW 1372   2.790   0.246   0.771  0.4269 -0.2992 -0.1471
  458SOL    HW1 1373   2.800   0.174   0.845  0.6907 -3.6466  0.4167
  458SOL    HW2 1374   2.785   0.337   0.820 -2.4009  0.2133  5.0622
  459SOL     OW 1375   2.061   0.677   0.009  0.0151 -0.0653  0.4943
  459SOL    HW1 1376   2.097   0.675   3.030 -3.3126 -0.8647 -0.4517
  459SOL    HW2 1377   2.132   0.655   0.079 -0.6307 -0.9649  0.2277
  460SOL     OW 1378   2.923   2.352   2.925 -0.3187  0.6064 -0.1605
  460SOL    HW1 1379   2.919   2.453   2.941  1.8765 -0.1670  0.2837
  460SOL    HW2 1380   2.996   2.306   2.977  0.8138 -0.4883 -0.0093
  461SOL     OW 1381   0.630   1.724   0.452 -0.2447  0.1407  0.8475
  461SOL    HW1 1382   0.665   1.730   0.549  2.6906 -0.1094 -0.8001
  461SOL    HW2 1383   0.662   1.636   0.413  1.0776  0.7836  0.5986
  462SOL     OW 1384   2.512   2.421   0.576 -0.5303 -0.4969 -0.1645
  462SOL    HW1 1385   2.604   2.417   0.526  2.7181  0.2781  1.8028
  462SOL    HW2 1386   2.431   2.414   0.514  0.9631 -1.7711  0.2236
  463SOL     OW 1387   2.849   0.528   0.600 -0.9497  0.9582  0.1708
  463SOL    HW1 1388   2.828   0.538   0.694  1.3528 -0.0094 -2.3119
  463SOL    HW2 1389   2.934   0.472   0.590  2.1370  1.1736  1.6388
  464SOL     OW 1390   1.175   2.815   0.374  0.4386  0.1270  0.1188
  464SOL    HW1 1391   1.076   2.807   0.356 -0.7204  1.7297 -1.0382
  464SOL    HW2 1392   1.214   2.729   0.415  0.2786  0.3530 -3.2425
  465SOL     OW 1393   2.313   0.876   0.476  0.5408 -0.2468  1.0492
  465SOL    HW1 1394   2.227   0.855   0.524  0.5265 -0.0447 -1.2851
  465SOL    HW2 1395   2.308   0.963   0.424  2.8434 -0.2252  2.2046
  466SOL     OW 1396   2.467   2.881   0.078 -0.1653 -0.3353 -0.6528
  466SOL    HW1 1397   2.449   2.977   0.050 -0.8118  0.7515 -0.0203
  466SOL    HW2 1398   2.410   2.812   0.027 -2.8577  0.4879  2.1717
  467SOL     OW 1399   1.114   0.638   1.763 -0.0960  0.0054 -0.1227
  467SOL    HW1 1400   1.162   0.710   1.818  3.5704 -0.3094 -2.3290
  467SOL    HW2 1401   1.135   0.648   1.666  0.5037 -0.0685 -1.0501
  468SOL     OW 1402   0.400   0.504   2.349 -0.4140 -0.2834 -0.4154
  468SOL    HW1 1403   0.503   0.490   2.341 -0.1643  0.4472  2.5072
  468SOL    HW2 1404   0.369   0.599   2.311 -1.3107 -0.3353 -0.4250
  469SOL     OW 1405   0.765   2.967   2.727  0.0583 -0.4182 -0.2288
  469SOL    HW1 1406   0.673   2.915   2.741 -2.1035 -0.2065 -0.0732
  469SOL    HW2 1407   0.806   2.954   2.637 -0.2072  0.1085  3.2537
  470SOL     OW 1408   1.939   1.298   2.511  0.3701 -0.1360  0.2008
  470SOL    HW1 1409   1.951   1.355   2.428 -1.3578 -1.8874  3.4350
  470SOL    HW2 1410   1.919   1.202   2.479 -0.3697  2.2351 -3.0326
  471SOL     OW 1411   2.954   1.167   2.580 -0.1434  0.9896 -0.6531
  471SOL    HW1 1412   2.875   1.179   2.521  0.2861 -0.8018 -0.0119
  471SOL    HW2 1413   2.931   1.113   2.660 -0.3667 -0.5531 -0.4982
  472SOL     OW 1414   0.451   2.445   0.237 -0.3254 -0.0493  0.3368
  472SOL    HW1 1415   0.407   2.535   0.238 -0.3714 -3.1700 -0.1973
  472SOL    HW2 1416   0.428   2.396   0.324  3.5817 -0.5618 -0.5718
  473SOL     OW 1417   0.745   0.090   2.933  0.3126 -0.2227 -1.0636
  473SOL    HW1 1418   0.741   0.005   2.879 -0.1291  1.2324  2.3863
  473SOL    HW2 1419   0.719   0.063   3.028 -0.4384 -0.9177 -2.6323
  474SOL     OW 1420   1.712   0.390   2.102 -0.0844  0.1410 -0.0720
  474SOL    HW1 1421   1.735   0.300   2.132 -3.5022  2.8264 -0.5171
  474SOL    HW2 1422   1.654   0.382   2.015  0.1772 -2.4470 -2.3714
  475SOL     OW 1423   0.866   2.896   0.275  0.4287  0.4486  0.2026
  475SOL    HW1 1424   0.882   2.968   0.346 -0.5838 -0.5271 -1.6318
  475SOL    HW2 1425   0.907   2.915   0.185  0.5857 -1.4011  1.1306
  476SOL     OW 1426   0.339   1.023   1.136  0.4357 -0.2181  0.4383
  476SOL    HW1 1427   0.428   1.002   1.177 -2.3872 -2.0370 -1.5313
  476SOL    HW2 1428   0.348   1.039   1.031  0.3410  0.3856 -2.3837
  477SOL     OW 1429   1.569   2.139   1.262  0.0829 -0.0720  0.1006
  477SOL    HW1 1430   1.644   2.201   1.291 -0.0135 -1.3155 -0.5414
  477SOL    HW2 1431   1.555   2.067   1.326  2.9174 -0.9907 -3.0310
  478SOL     OW 1432   0.929   1.379   2.247  0.7008 -0.6663  0.9319
  478SOL    HW1 1433   1.016   1.332   2.242 -0.3031  0.8443  1.6799
  478SOL    HW2 1434   0.903   1.393   2.343 -3.1793 -2.7522  0.3958
  479SOL     OW 1435   0.551   0.259   1.077 -0.1934  0.1814 -0.0920
  479SOL    HW1 1436   0.503   0.197   1.145 -0.5220 -0.8200  0.4377
  479SOL    HW2 1437   0.590   0.206   0.998 -1.1679 -0.6547  1.1793
  480SOL     OW 1438   2.551   2.456   0.124 -0.0233 -0.1542  0.8167
  480SOL    HW1 1439   2.612   2.373   0.128  4.3587 -3.2223 -0.3366
  480SOL    HW2 1440   2.538   2.488   0.031  0.7225 -0.0977  2.2370
  481SOL     OW 1441   2.875   0.242   1.120  0.3042  0.5912 -0.2712
  481SOL    HW1 1442   2.930   0.311   1.067 -0.5364  2.4519  1.1121
  481SOL    HW2 1443   2.931   0.206   1.193 -2.8354  0.0090 -1.3193
  482SOL     OW 1444   1.557   2.458   2.109 -0.1280 -0.0251 -0.3376
  482SOL    HW1 1445   1.578   2.516   2.190  0.1037 -1.8059 -0.0622
  482SOL    HW2 1446   1.573   2.507   2.020  0.2463  0.4357 -1.7962
  483SOL     OW 1447   0.428   1.474   2.712  0.4215 -0.2366  0.0838
  483SOL    HW1 1448   0.440   1.376   2.697 -1.4743 -2.1294  0.8178
  483SOL    HW2 1449   0.394   1.519   2.627  0.2441 -0.7606  0.1785
  484SOL     OW 1450   1.009   1.604   2.083 -0.2717 -0.0031 -1.0796
  484SOL    HW1 1451   1.078   1.571   2.016  0.2504 -1.6902  1.5634
  484SOL    HW2 1452   0.969   1.529   2.145 -1.5473 -0.1763  1.7911
  485SOL     OW 1453   2.744   0.210   3.003 -0.2588 -0.1759 -0.1133
  485SOL    HW1 1454   2.769   0.304   3.035 -1.3677 -0.8360 -0.4877
  485SOL    HW2 1455   2.733   0.154   3.085 -1.1158  0.4455 -1.7320
  486SOL     OW 1456   1.622   2.991   0.630 -0.4464 -0.1379  0.2030
  486SOL    HW1 1457   1.672   3.071   0.587  1.8291 -0.8753  2.5729
  486SOL    HW2 1458   1.523   3.002   0.644  2.5285 -0.3004  0.1860
  487SOL     OW 1459   1.130   2.562   0.810  0.7384 -0.0198 -0.2997
  487SOL    HW1 1460   1.145   2.463   0.801  1.4445  0.6409  0.2621
  487SOL    HW2 1461   1.032   2.592   0.806  2.3278  0.2951 -0.2861
  488SOL     OW 1462   2.235   1.138   0.393  0.5408 -0.6391 -0.0954
  488SOL    HW1 1463   2.269   1.230   0.415 -1.3837 -2.6768 -1.6778
  488SOL    HW2 1464   2.163   1.142   0.319  0.5632  0.1715 -1.5796
  489SOL     OW 1465   1.176   2.879   1.375 -0.2543 -0.0231  0.1919
  489SOL    HW1 1466   1.181   2.801   1.439  0.7818 -0.2205  1.1981
  489SOL    HW2 1467   1.201   2.965   1.426 -1.5629  1.1404  1.2129
  490SOL     OW 1468   0.788   0.874   0.317 -0.4814  0.0167 -0.3689
  490SOL    HW1 1469   0.866   0.888   0.379 -0.3311  0.4393 -2.2784
  490SOL    HW2 1470   0.818   0.842   0.225  4.1462 -1.1836  1.9714
  491SOL     OW 1471   1.299   3.054   0.469 -0.0353  0.3692 -0.0773
  491SOL    HW1 1472   1.340   3.052   0.561 -1.6837 -0.9911 -0.0965
  491SOL    HW2 1473   1.242   2.967   0.454  1.0745 -1.9833 -1.7090
  492SOL     OW 1474   1.161   1.267   2.202 -0.1624  0.0608 -0.1410
  492SOL    HW1 1475   1.175   1.220   2.115 -0.6654  1.4379  2.0979
  492SOL    HW2 1476   1.149   1.195   2.270 -1.8624 -0.5720 -1.1835
  493SOL     OW 1477   0.169   2.169   0.129  0.1765  0.6157  0.3202
  493SOL    HW1 1478   0.147   2.133   0.222 -0.5072  0.4096 -0.2251
  493SOL    HW2 1479   0.267   2.154   0.100 -0.3325  0.4550  0.3110
  494SOL     OW 1480   2.176   1.638   0.283 -0.0023 -0.6104 -0.2433
  494SOL    HW1 1481   2.241   1.580   0.333  1.3291 -0.3841 -0.4072
  494SOL    HW2 1482   2.179   1.623   0.183 -1.3489  2.5196  0.2324
  495SOL     OW 1483   3.082   0.782   2.884  1.2449  0.0939 -0.5184
  495SOL    HW1 1484   3.105   0.872   2.843 -4.1277  0.4130  2.8965
  495SOL    HW2 1485   3.109   0.772   2.986  1.1068 -2.4349  0.5387
  496SOL     OW 1486   3.032   2.925   2.106 -0.1210  0.2534  0.2388
  496SOL    HW1 1487   0.003   2.927   2.161  2.5505 -0.7702  2.7625
  496SOL    HW2 1488   3.020   3.019   2.072 -0.9268  1.2661 -2.2865
  497SOL     OW 1489   2.651   0.833   0.902  0.0838  0.2072  0.2118
  497SOL    HW1 1490   2.606   0.819   0.992 -0.8676  0.9287 -1.0250
  497SOL    HW2 1491   2.592   0.839   0.819  0.5413 -2.3178 -1.8859
  498SOL     OW 1492   0.471   2.331   3.102  0.3032 -0.2044 -0.3151
  498SOL    HW1 1493   0.476   2.230   3.104 -0.0384  0.2395 -3.2965
  498SOL    HW2 1494   0.493   2.364   0.076 -1.0243 -0.4072 -0.6980
  499SOL     OW 1495   0.698   2.303   0.662 -0.0504 -0.0564 -0.1301
  499SOL    HW1 1496   0.757   2.351   0.597  0.3667 -0.4308 -1.2329
  499SOL    HW2 1497   0.731   2.206   0.676 -0.4395 -2.7646  0.2013
  500SOL     OW 1498   1.081   0.305   2.390 -0.3048 -0.2882 -0.0013
  500SOL    HW1 1499   1.152   0.243   2.431  4.0759 -0.0289  2.0427
  500SOL    HW2 1500   1.017   0.250   2.335  2.1914 -1.3016  3.4463
  501SOL     OW 1501   1.051   0.095   1.357  0.9372 -0.0502 -0.2856
  501SOL    HW1 1502   1.128   0.065   1.419  3.4520 -0.8407 -1.7822
  501SOL    HW2 1503   1.029   0.193   1.385  0.0908 -0.0143 -0.3400
  502SOL     OW 1504   0.094   0.405   2.305 -0.7976  0.4962  0.3470
  502SOL    HW1 1505   0.179   0.347   2.290 -1.1442  0.7325  1.7525
  502SOL    HW2 1506   0.101   0.491   2.251  0.1894  2.4675  0.2826
  503SOL     OW 1507   2.107   2.093   2.473  0.1393  0.1060 -0.7210
  503SOL    HW1 1508   2.051   2.165   2.429 -2.6901 -0.4256  2.3618
  503SOL    HW2 1509   2.058   2.052   2.552 -1.1132  2.4287  1.6424
  504SOL     OW 1510   1.891   0.513   1.658 -0.0054 -0.4123 -0.1899
  504SOL    HW1 1511   1.852   0.548   1.747  0.6308  3.3317  1.3110
  504SOL    HW2 1512   1.979   0.563   1.640 -2.0082 -0.0533  2.4043
  505SOL     OW 1513   2.748   1.110   1.764  0.0098  0.1961  0.5918
  505SOL    HW1 1514   2.832   1.163   1.761 -0.5188 -0.7400  1.8713
  505SOL    HW2 1515   2.745   1.047   1.682 -2.5507 -0.3265 -1.1768
  506SOL     OW 1516   0.385   1.510   2.403  0.3797  0.0191  0.1622
  506SOL    HW1 1517   0.296   1.452   2.415 -3.2666 -0.1938 -0.0839
  506SOL    HW2 1518   0.366   1.594   2.352  0.8972 -0.6436 -2.1094
  507SOL     OW 1519   0.244   3.025   2.444 -0.6332  0.7709  0.3973
  507SOL    HW1 1520   0.321   3.088   2.416  1.2705 -1.9116  3.4269
  507SOL    HW2 1521   0.287   2.949   2.494 -1.1291 -1.0156  1.2026
  508SOL     OW 1522   1.317   0.835   1.437  0.1745  0.6452 -0.0601
  508SOL    HW1 1523   1.320   0.935   1.449  0.2536 -3.2008  1.4261
  508SOL    HW2 1524   1.406   0.786   1.465  1.5353 -2.8412 -0.7326
  509SOL     OW 1525   0.879   1.850   1.368  0.5472 -0.0432 -0.0077
  509SOL    HW1 1526   0.917   1.927   1.425  0.8474 -1.8986 -2.0053
  509SOL    HW2 1527   0.826   1.775   1.417 -1.7106 -0.8504  2.5698
  510SOL     OW 1528   2.703   0.743   2.514  0.7574  0.2244  0.4135
  510SOL    HW1 1529   2.727   0.734   2.611 -0.0242 -0.8241 -0.5245
  510SOL    HW2 1530   2.606   0.719   2.499  2.2329 -0.7585 -0.9734
  511SOL     OW 1531   0.477   1.475   1.350 -0.3570 -0.6088 -0.1797
  511SOL    HW1 1532   0.431   1.552   1.303  0.4274 -2.2255 -0.4956
  511SOL    HW2 1533   0.534   1.499   1.429 -0.6683  0.6886 -0.0356
  512SOL     OW 1534   2.782   2.325   1.120  0.2587 -0.3183  0.3695
  512SOL    HW1 1535   2.704   2.262   1.135  0.9571  1.5740 -0.7230
  512SOL    HW2 1536   2.749   2.407   1.069  0.7427 -2.1077 -1.1752
  513SOL     OW 1537   0.442   1.439   2.962 -0.2400 -0.0331 -0.5866
  513SOL    HW1 1538   0.431   1.339   2.964 -0.9476  0.3745  0.1602
  513SOL    HW2 1539   0.427   1.471   2.867 -0.6873  0.9524 -0.2866
  514SOL     OW 1540   0.261   2.537   3.101  0.0422 -0.4597 -0.0757
  514SOL    HW1 1541   0.186   2.512   0.048 -1.3492 -1.0667  0.1242
  514SOL    HW2 1542   0.308   2.457   3.061  2.3546 -0.3453  2.1030
  515SOL     OW 1543   1.731   1.113   2.204  0.2219  0.2345 -0.7174
  515SOL    HW1 1544   1.648   1.170   2.176 -2.1318  1.8903  1.1094
  515SOL    HW2 1545   1.733   1.090   2.306  2.1213 -4.5081  0.1150
  516SOL     OW 1546   2.248   2.147   0.320  0.4390 -0.0461  0.1566
  516SOL    HW1 1547   2.217   2.064   0.369 -1.2164  0.8184 -0.3481
  516SOL    HW2 1548   2.326   2.125   0.258  0.4233  1.1921  2.1016
  517SOL     OW 1549   1.492   1.211   0.369  0.3548  0.2058  0.5770
  517SOL    HW1 1550   1.410   1.196   0.424  1.9139  2.3432 -1.7658
  517SOL    HW2 1551   1.570   1.189   0.437  0.6371 -0.8542  2.3426
  518SOL     OW 1552   2.321   2.676   2.143 -0.2894 -0.5652 -0.0361
  518SOL    HW1 1553   2.323   2.578   2.164  0.7852  1.4602 -0.2835
  518SOL    HW2 1554   2.231   2.712   2.167  2.9140  1.5826 -0.8769
  519SOL     OW 1555   1.772   2.284   1.328 -0.4034 -0.3416  0.3891
  519SOL    HW1 1556   1.856   2.336   1.292  2.6359  2.0752  0.1842
  519SOL    HW2 1557   1.699   2.346   1.352  1.7635 -3.3678  1.2968
  520SOL     OW 1558   2.552   2.401   2.793 -0.4798 -0.2892  0.4714
  520SOL    HW1 1559   2.628   2.438   2.735  0.1609  0.3230 -0.3169
  520SOL    HW2 1560   2.481   2.357   2.734 -1.4551 -1.3118 -0.2887
  521SOL     OW 1561   0.246   1.320   2.063  0.0130 -0.1312 -0.6485
  521SOL    HW1 1562   0.319   1.375   2.021 -1.2193  1.3411  3.5091
  521SOL    HW2 1563   0.160   1.374   2.078  0.0967  2.2910 -2.9443
  522SOL     OW 1564   1.194   0.422   1.936  0.3071 -0.4184  0.3366
  522SOL    HW1 1565   1.202   0.516   1.900  2.2203  0.5337 -1.8410
  522SOL    HW2 1566   1.125   0.372   1.880 -2.5364  1.5743  0.6364
  523SOL     OW 1567   0.464   2.395   1.071 -0.2593 -0.5055 -0.2563
  523SOL    HW1 1568   0.461   2.295   1.057 -0.6095  0.8117  3.1672
  523SOL    HW2 1569   0.377   2.438   1.053  4.3848 -2.6944 -2.2210
  524SOL     OW 1570   1.527   2.628   0.596  0.7575 -0.3422  0.2499
  524SOL    HW1 1571   1.603   2.681   0.553 -0.4483 -1.0269 -1.6086
  524SOL    HW2 1572   1.539   2.617   0.698  1.8862 -1.2806 -3.0153
  525SOL     OW 1573   2.228   0.911   1.353  0.4271  0.1360 -1.1590
  525SOL    HW1 1574   2.238   1.013   1.375  3.1820 -0.4859 -0.7734
  525SOL    HW2 1575   2.320   0.872   1.326 -0.5734 -1.0158  0.1282
  526SOL     OW 1576   0.897   2.674   0.786  1.1332 -0.6417 -0.0025
  526SOL    HW1 1577   0.813   2.631   0.740 -1.1277  0.2134 -0.1255
  526SOL    HW2 1578   0.910   2.766   0.739  1.9342  0.1805 -0.9680
  527SOL     OW 1579   2.648   2.203   0.350  0.0009 -0.1043  0.0906
  527SOL    HW1 1580   2.695   2.292   0.365  0.6872 -1.3335  1.2163
  527SOL    HW2 1581   2.644   2.148   0.436  0.5226  0.0958 -1.7069
  528SOL     OW 1582   1.953   0.407   0.563 -0.4881 -0.1095 -0.8195
  528SOL    HW1 1583   2.048   0.384   0.595  0.9849 -1.5297 -1.9712
  528SOL    HW2 1584   1.927   0.500   0.578 -2.7529 -4.1496 -0.3510
  529SOL     OW 1585   1.570   1.323   2.425  0.4764  0.5214  0.1214
  529SOL    HW1 1586   1.525   1.376   2.502 -2.4549 -1.1613  0.6249
  529SOL    HW2 1587   1.657   1.279   2.461 -0.8799  0.7202 -0.2023
  530SOL     OW 1588   2.460   0.603   3.092 -0.0225  0.2428 -0.2389
  530SOL    HW1 1589   2.468   0.549   3.005  0.6690 -0.8625 -0.7294
  530SOL    HW2 1590   2.467   0.703   3.070  2.8976 -2.5639  0.1724
  531SOL     OW 1591   1.246   1.148   3.104  0.3751 -0.4094 -0.1213
  531SOL    HW1 1592   1.164   1.202   0.021 -2.6703  0.8304 -0.4377
  531SOL    HW2 1593   1.218   1.082   3.036 -0.3380  0.3505  1.0615
  532SOL     OW 1594   1.651   0.427   0.819 -0.2513 -0.1573 -0.2640
  532SOL    HW1 1595   1.664   0.431   0.920  0.1566 -0.4368  1.7600
  532SOL    HW2 1596   1.638   0.524   0.784  0.4251 -0.7478  0.8874
  533SOL     OW 1597   1.060   0.937   2.073  0.1842 -0.0654 -0.8054
  533SOL    HW1 1598   1.124   0.953   2.154  0.4989  0.9442 -1.4342
  533SOL    HW2 1599   1.103   0.912   1.982 -0.6938  1.0649  0.4303
  534SOL     OW 1600   1.988   0.252   2.588 -0.6563  0.0825 -0.2370
  534SOL    HW1 1601   2.086   0.274   2.583 -1.1046  0.3852 -0.9006
  534SOL    HW2 1602   1.950   0.293   2.676 -2.4875  3.1493  0.5003
  535SOL     OW 1603   0.535   0.418   0.360 -0.0572  0.0922  0.3858
  535SOL    HW1 1604   0.523   0.422   0.260 -1.3586 -0.6275  0.9748
  535SOL    HW2 1605   0.531   0.316   0.388 -1.3766 -0.8252  0.1174
  536SOL     OW 1606   0.978   2.924   0.725 -0.3194 -0.2304 -0.0032
  536SOL    HW1 1607   1.060   2.875   0.762 -0.7103  1.3240  2.8528
  536SOL    HW2 1608   0.953   3.002   0.783  0.8545 -0.7844 -0.7426
  537SOL     OW 1609   1.532   1.203   0.796 -0.3026  0.3878 -0.5026
  537SOL    HW1 1610   1.521   1.160   0.893 -2.7928 -3.8503 -0.5945
  537SOL    HW2 1611   1.630   1.233   0.798  2.0760 -1.5527 -0.4526
  538SOL     OW 1612   2.912   2.028   0.096  0.0005  0.4544 -0.0099
  538SOL    HW1 1613   2.937   1.958   0.169 -1.7453 -2.9035  2.2974
  538SOL    HW2 1614   2.995   2.076   0.063 -1.5978  0.6214 -0.9630
  539SOL     OW 1615   2.445   1.782   0.180 -0.4740 -0.2451 -0.0275
  539SOL    HW1 1616   2.470   1.759   0.082  0.1241 -0.6246  0.5006
  539SOL    HW2 1617   2.436   1.883   0.194  1.2472  0.9389  2.7148
  540SOL     OW 1618   0.487   2.749   1.435 -0.3833  0.0503  0.4091
  540SOL    HW1 1619   0.476   2.748   1.335 -0.1270 -0.7509  1.3964
  540SOL    HW2 1620   0.397   2.754   1.483  0.1511 -0.2670  3.1744
  541SOL     OW 1621   2.205   0.035   1.934 -0.1285 -0.4081  0.0671
  541SOL    HW1 1622   2.264   3.068   1.947  0.3434 -1.5064 -1.9122
  541SOL    HW2 1623   2.109   0.005   1.914  0.1739  0.4187  0.1187
  542SOL     OW 1624   2.835   0.273   2.562 -0.1643 -0.3537 -0.3275
  542SOL    HW1 1625   2.882   0.233   2.642 -1.4077  1.0835 -0.2909
  542SOL    HW2 1626   2.894   0.300   2.484  1.2469  1.0811 -3.3694
  543SOL     OW 1627   0.452   0.703   0.872  0.7576  0.0220  0.3808
  543SOL    HW1 1628   0.372   0.669   0.823  1.0238  0.6683 -1.0773
  543SOL    HW2 1629   0.522   0.733   0.804  0.0139 -0.8508  1.8924
  544SOL     OW 1630   3.034   2.971   1.152  0.9068  0.1232 -0.0034
  544SOL    HW1 1631   3.092   2.926   1.075  2.0341 -2.5188  0.2297
  544SOL    HW2 1632   2.950   2.914   1.173 -0.8911 -0.3665 -0.2705
  545SOL     OW 1633   1.390   2.173   0.871  0.9132 -0.2668  0.3054
  545SOL    HW1 1634   1.404   2.158   0.771 -0.2411  1.3192 -2.5858
  545SOL    HW2 1635   1.462   2.122   0.922  1.4200 -0.1200 -0.3131
  546SOL     OW 1636   1.940   3.055   1.874 -0.5532  0.3707  0.0573
  546SOL    HW1 1637   1.896   3.108   1.804  4.4309  0.7312  0.6437
  546SOL    HW2 1638   1.939   2.953   1.853 -2.4831  0.3904 -3.8585
  547SOL     OW 1639   0.311   0.253   2.260  0.1120  0.2995  0.1096
  547SOL    HW1 1640   0.343   0.174   2.321 -0.0575 -0.9585  0.5435
  547SOL    HW2 1641   0.351   0.342   2.290 -0.4985  0.8543 -0.5505
  548SOL     OW 1642   2.065   1.686   2.729  0.1746 -0.0726  0.1297
  548SOL    HW1 1643   2.008   1.666   2.812 -0.2902  0.9114  1.9661
  548SOL    HW2 1644   2.007   1.668   2.643 -3.1093 -0.0982 -0.5103
  549SOL     OW 1645   3.076   0.818   0.771 -0.0135 -0.1086  0.0978
  549SOL    HW1 1646   3.042   0.823   0.673 -1.3049 -1.9960 -1.3281
  549SOL    HW2 1647   3.002   0.838   0.834 -0.4358  0.0207 -0.9762
  550SOL     OW 1648   1.807   1.919   0.603 -0.4550  0.3515  0.5317
  550SOL    HW1 1649   1.746   1.854   0.553 -0.8346 -1.1444 -1.4684
  550SOL    HW2 1650   1.805   2.014   0.568 -0.5323 -1.1808 -1.8678
  551SOL     OW 1651   1.084   0.286   1.122 -0.1646 -0.2914 -0.4399
  551SOL    HW1 1652   0.989   0.312   1.093  1.5496  1.0265 -1.4693
  551SOL    HW2 1653   1.077   0.228   1.205  2.7010  1.4144 -0.0924
  552SOL     OW 1654   2.638   2.615   2.105  0.3749 -0.3435  0.2859
  552SOL    HW1 1655   2.675   2.706   2.141  1.1985  2.2274 -2.8823
  552SOL    HW2 1656   2.536   2.602   2.120 -1.3026  0.7326 -1.3637
  553SOL     OW 1657   2.938   2.974   2.569  0.5736 -0.2229  0.1606
  553SOL    HW1 1658   3.005   3.039   2.537 -2.2975 -1.7309 -0.2833
  553SOL    HW2 1659   2.843   2.996   2.534 -1.7263 -1.2573  0.3034
  554SOL     OW 1660   0.930   2.761   1.298 -0.1358  0.2743 -0.7096
  554SOL    HW1 1661   0.870   2.774   1.381 -1.3141 -0.1181 -0.6760
  554SOL    HW2 1662   1.019   2.797   1.320 -1.6845  2.3461  0.2201
  555SOL     OW 1663   2.415   2.669   1.737  0.6138  0.5382  0.0454
  555SOL    HW1 1664   2.434   2.595   1.672  0.4951  1.0366 -1.0205
  555SOL    HW2 1665   2.487   2.742   1.734 -1.4500  3.1872 -1.6253
  556SOL     OW 1666   1.179   0.127   2.810  0.0760 -0.1794 -0.3941
  556SOL    HW1 1667   1.256   0.180   2.853  0.1351  2.6466  0.5206
  556SOL    HW2 1668   1.176   0.135   2.707  0.5780 -0.3349 -0.7671
  557SOL     OW 1669   0.027   1.977   2.279 -0.3768  0.1448  0.2871
  557SOL    HW1 1670   3.100   2.030   2.354 -1.6583  0.5518 -0.6034
  557SOL    HW2 1671   0.128   2.002   2.272  0.7333  1.8705  0.6063
  558SOL     OW 1672   2.427   1.014   2.483  0.3846 -0.3549  0.1640
  558SOL    HW1 1673   2.446   0.914   2.479  0.2894  3.8102  0.5542
  558SOL    HW2 1674   2.381   1.056   2.405  0.7807  2.0193 -0.5977
  559SOL     OW 1675   2.589   2.315   1.993 -0.0928  0.6897 -0.6695
  559SOL    HW1 1676   2.638   2.381   2.056  2.1218  3.8174  2.9976
  559SOL    HW2 1677   2.516   2.360   1.945  4.9616 -0.2593  0.5364
  560SOL     OW 1678   2.861   0.675   2.300  0.6138 -0.6594  0.0670
  560SOL    HW1 1679   2.776   0.690   2.355  0.9902 -0.2152  0.7759
  560SOL    HW2 1680   2.892   0.761   2.255  1.2381  0.8771  1.4109
  561SOL     OW 1681   0.725   0.427   0.563  0.3189 -0.4230  0.4582
  561SOL    HW1 1682   0.664   0.437   0.479 -1.7586  0.0853 -2.3506
  561SOL    HW2 1683   0.823   0.436   0.542 -0.0174 -1.8882  0.9410
  562SOL     OW 1684   1.007   1.368   1.382 -0.3048 -0.2198  0.0385
  562SOL    HW1 1685   1.002   1.440   1.456  0.5644 -2.9732  0.3096
  562SOL    HW2 1686   0.937   1.292   1.389  0.4518  0.6035 -0.8773
  563SOL     OW 1687   1.636   2.739   2.954 -0.1387 -0.8689  0.5837
  563SOL    HW1 1688   1.631   2.691   3.042  1.6087 -2.0595 -1.6225
  563SOL    HW2 1689   1.536   2.769   2.929 -0.1308 -0.2440  2.0088
  564SOL     OW 1690   0.167   2.172   0.987 -0.4211 -0.6535 -0.3790
  564SOL    HW1 1691   0.123   2.085   1.022 -0.9625 -2.1186 -0.4396
  564SOL    HW2 1692   0.267   2.163   0.996  0.1167 -0.2602  1.2286
  565SOL     OW 1693   0.674   2.159   2.258  0.2840 -0.0795 -0.6096
  565SOL    HW1 1694   0.600   2.170   2.328 -1.5295  0.4354  2.1098
  565SOL    HW2 1695   0.677   2.238   2.195 -1.9317  0.2319 -1.7810
  566SOL     OW 1696   0.948   2.684   2.551 -0.1902  0.0457  0.0439
  566SOL    HW1 1697   1.033   2.674   2.609 -1.6646  3.2415  1.4537
  566SOL    HW2 1698   0.949   2.622   2.474  2.4974  0.6825  0.0813
  567SOL     OW 1699   2.283   2.360   0.927  0.1623  0.2680  0.1110
  567SOL    HW1 1700   2.355   2.292   0.954 -0.3840  0.7465  0.6273
  567SOL    HW2 1701   2.236   2.323   0.842 -0.5236  0.2020 -3.2548
  568SOL     OW 1702   1.986   0.927   0.363  0.3055  0.0691  0.4524
  568SOL    HW1 1703   2.005   1.010   0.415 -0.5378 -1.1510 -3.0712
  568SOL    HW2 1704   1.998   0.853   0.433 -0.3217  0.9269 -1.5144
  569SOL     OW 1705   0.043   1.602   2.618  0.0168  0.2648 -0.0634
  569SOL    HW1 1706   0.010   1.596   2.520 -1.8345 -1.6817 -0.0884
  569SOL    HW2 1707   0.027   1.517   2.673  0.4308  0.9687  2.2451
  570SOL     OW 1708   3.078   0.127   1.256  1.3991 -0.2008  0.1618
  570SOL    HW1 1709   3.099   0.128   1.357 -1.9132 -1.1046 -1.2184
  570SOL    HW2 1710   3.068   0.028   1.230  0.9546 -0.6226  0.4776
  571SOL     OW 1711   0.055   0.637   1.479 -0.0349  0.0667 -0.0583
  571SOL    HW1 1712   0.011   0.724   1.447 -0.8645  2.0546 -2.9461
  571SOL    HW2 1713   3.116   0.557   1.452 -1.6478 -1.4538  1.7554
  572SOL     OW 1714   2.921   2.429   0.681  0.3989  0.2849 -0.3520
  572SOL    HW1 1715   2.896   2.353   0.748 -0.4853 -0.9826  1.2839
  572SOL    HW2 1716   3.017   2.420   0.656 -0.5297 -2.8147  0.6025
  573SOL     OW 1717   0.820   0.852   0.026  0.2975  0.1023  0.2547
  573SOL    HW1 1718   0.780   0.755   0.010 -2.1932  0.4197 -0.3894
  573SOL    HW2 1719   0.786   0.921   3.079  1.4676  0.8555  0.6267
  574SOL     OW 1720   2.909   2.617   2.988  0.0096  0.0381 -0.2927
  574SOL    HW1 1721   2.824   2.671   2.961 -1.8524 -0.8115 -2.0706
  574SOL    HW2 1722   2.996   2.671   2.990 -0.5118 -1.0160  1.8620
  575SOL     OW 1723   1.070   2.234   1.287 -0.0571 -0.3900  0.1793
  575SOL    HW1 1724   0.978   2.211   1.250  1.4593  2.2554 -2.0364
  575SOL    HW2 1725   1.150   2.219   1.221  2.9640 -0.3627 -3.1426
  576SOL     OW 1726   0.440   0.026   1.253  0.4236 -0.4487  0.4480
  576SOL    HW1 1727   0.522   3.088   1.258  2.6617 -2.5876  2.8073
  576SOL    HW2 1728   0.359   3.078   1.255 -1.9775 -3.8052 -0.4963
  577SOL     OW 1729   2.138   1.729   1.192 -0.5035  0.2931  0.5850
  577SOL    HW1 1730   2.055   1.687   1.146  0.6462 -0.0580 -3.9119
  577SOL    HW2 1731   2.213   1.708   1.129 -1.6188  2.1874 -0.7536
  578SOL     OW 1732   1.453   0.336   0.287 -0.0671  0.0464 -0.2554
  578SOL    HW1 1733   1.396   0.420   0.268 -0.5406 -1.9467 -1.1569
  578SOL    HW2 1734   1.518   0.351   0.365  1.2983 -0.5522  0.4211
  579SOL     OW 1735   2.717   1.231   2.420  0.2919 -0.8972 -0.6306
  579SOL    HW1 1736   2.711   1.334   2.423  1.5343 -2.5270  0.9610
  579SOL    HW2 1737   2.677   1.192   2.502  1.0621  0.2755 -2.0741
  580SOL     OW 1738   1.698   0.935   1.611 -0.0102  0.0381  0.2535
  580SOL    HW1 1739   1.795   0.903   1.596  2.4200  0.3253  3.8718
  580SOL    HW2 1740   1.636   0.867   1.567 -2.2102 -2.5780  2.1986
  581SOL     OW 1741   0.813   1.184   1.402  0.1063  0.4812  0.0571
  581SOL    HW1 1742   0.779   1.127   1.479  0.3950  1.6501 -2.3584
  581SOL    HW2 1743   0.851   1.132   1.323  0.6013 -0.3177  1.0261
  582SOL     OW 1744   3.005   0.059   1.969 -0.4017  0.4153  0.1127
  582SOL    HW1 1745   2.942   0.008   1.904 -2.4516  0.0996 -1.6370
  582SOL    HW2 1746   2.982   0.159   1.967  1.3775 -1.9352 -1.3896
  583SOL     OW 1747   2.139   0.613   1.626 -0.4698  0.2535 -0.0605
  583SOL    HW1 1748   2.208   0.600   1.700  1.8218 -2.2465  0.6156
  583SOL    HW2 1749   2.196   0.622   1.538  2.1404  2.0986 -2.8228
  584SOL     OW 1750   1.424   1.990   2.697 -0.0891 -0.6610  0.5450
  584SOL    HW1 1751   1.462   1.943   2.778 -0.7171 -0.6824 -1.7601
  584SOL    HW2 1752   1.445   1.937   2.611  0.7145 -1.6454 -1.2118
  585SOL     OW 1753   0.426   3.022   0.387  0.1824 -0.1116  0.3187
  585SOL    HW1 1754   0.483   2.962   0.446  0.8835 -1.3268 -0.8377
  585SOL    HW2 1755   0.435   2.990   0.293  2.3179  1.2193  1.4429
  586SOL     OW 1756   1.662   2.232   2.429  0.0625 -0.1977 -0.4601
  586SOL    HW1 1757   1.621   2.258   2.521 -1.2311 -1.3986  1.9127
  586SOL    HW2 1758   1.612   2.152   2.398  2.0007 -0.9168  0.4421
  587SOL     OW 1759   2.632   2.057   0.575  0.2539 -0.0369 -0.3041
  587SOL    HW1 1760   2.549   1.999   0.583  1.4392 -1.0443  0.5817
  587SOL    HW2 1761   2.628   2.130   0.651 -0.9163  1.1470 -0.2230
  588SOL     OW 1762   2.365   0.264   1.105  0.3503 -0.3592 -0.1405
  588SOL    HW1 1763   2.442   0.287   1.168  0.4045 -0.3991  1.7867
  588SOL    HW2 1764   2.298   0.340   1.094  2.7807  0.7435 -0.8687
  589SOL     OW 1765   0.689   0.497   0.826  0.3381  0.3328 -0.1023
  589SOL    HW1 1766   0.589   0.487   0.841  2.9927 -0.3603 -1.5812
  589SOL    HW2 1767   0.704   0.479   0.729  0.4831  0.8958  1.8883
  590SOL     OW 1768   2.503   1.629   0.789  0.5472  0.2907  0.4366
  590SOL    HW1 1769   2.572   1.685   0.747 -1.6701  0.3557 -0.0003
  590SOL    HW2 1770   2.506   1.528   0.764  0.5409  0.7232 -1.2957
  591SOL     OW 1771   0.314   2.701   1.157  0.0913  0.6292 -0.8033
  591SOL    HW1 1772   0.293   2.793   1.119 -1.0239  0.3336  1.3572
  591SOL    HW2 1773   0.274   2.628   1.097  1.8893  1.1782  1.3281
  592SOL     OW 1774   1.092   0.858   1.277  0.0840  0.7729 -0.2435
  592SOL    HW1 1775   1.032   0.883   1.349 -1.0216  3.9477 -1.0196
  592SOL    HW2 1776   1.189   0.851   1.308  2.4146  0.1563  2.3638
  593SOL     OW 1777   0.630   1.389   1.139 -0.1198 -0.3195  0.0632
  593SOL    HW1 1778   0.708   1.452   1.119 -0.2677 -0.2025 -0.0761
  593SOL    HW2 1779   0.591   1.410   1.232 -0.2245  1.0973  3.4403
  594SOL     OW 1780   0.962   2.033   0.368 -0.1263  0.2428 -0.1886
  594SOL    HW1 1781   0.888   2.101   0.369 -1.4896 -1.9650 -0.3412
  594SOL    HW2 1782   0.951   1.962   0.444  0.2287  0.3853  2.3206
  595SOL     OW 1783   1.505   0.177   1.055 -0.1814 -0.1661 -0.1979
  595SOL    HW1 1784   1.414   0.162   1.013  0.1257  1.4253  2.7944
  595SOL    HW2 1785   1.548   0.265   1.030 -1.0552 -2.2347  2.7947
  596SOL     OW 1786   2.972   1.639   1.081  0.1576 -0.2039  0.2228
  596SOL    HW1 1787   2.958   1.665   1.179 -1.3179  1.4599 -0.8792
  596SOL    HW2 1788   3.061   1.663   1.041  0.4233  1.1586  0.0208
  597SOL     OW 1789   0.120   2.403   2.634 -0.4545 -0.0250 -0.2139
  597SOL    HW1 1790   0.186   2.362   2.696 -0.9657  0.3008  1.9030
  597SOL    HW2 1791   0.077   2.481   2.683  0.0695  1.5041  0.8483
  598SOL     OW 1792   2.866   2.216   2.129 -0.0566  0.3807 -0.3850
  598SOL    HW1 1793   2.849   2.128   2.178  1.2471  1.6394 -0.5223
  598SOL    HW2 1794   2.792   2.281   2.158  1.6369 -1.0683  2.4909
  599SOL     OW 1795   0.942   0.417   0.015  0.1783  0.2449  0.0988
  599SOL    HW1 1796   0.851   0.459   0.016 -1.5048 -0.2030  2.2665
  599SOL    HW2 1797   0.942   0.351   3.055  0.9513 -2.5010  1.9721
  600SOL     OW 1798   0.667   2.729   0.220  0.0542 -0.7008  0.4506
  600SOL    HW1 1799   0.730   2.805   0.245  1.8490  1.2161  1.0903
  600SOL    HW2 1800   0.620   2.691   0.301  3.7911  2.1312 -0.3676
  601SOL     OW 1801   0.321   0.717   1.413 -0.0041  0.3951 -0.4987
  601SOL    HW1 1802   0.332   0.700   1.313 -0.6461 -0.1091 -2.7365
  601SOL    HW2 1803   0.226   0.688   1.437  0.2564  1.2515 -0.4576
  602SOL     OW 1804   0.555   2.781   1.019 -0.8505  0.6765 -0.1877
  602SOL    HW1 1805   0.654   2.744   1.034  1.1106 -0.8506 -0.0436
  602SOL    HW2 1806   0.491   2.705   1.002 -1.2441 -1.1302  1.9038
  603SOL     OW 1807   1.003   0.142   2.181 -0.1879 -0.0513 -0.0102
  603SOL    HW1 1808   0.998   0.058   2.122  1.7867  0.4723  3.4425
  603SOL    HW2 1809   0.934   0.213   2.158  2.2639 -0.2213  1.1282
  604SOL     OW 1810   0.817   2.644   1.678  0.2475 -0.0981  0.1307
  604SOL    HW1 1811   0.827   2.730   1.619  0.5639  0.6171  0.5953
  604SOL    HW2 1812   0.738   2.578   1.658 -1.3016 -1.2362 -0.1588
  605SOL     OW 1813   1.862   0.717   1.869 -0.4096  0.2366  0.3179
  605SOL    HW1 1814   1.937   0.778   1.836  0.0015 -0.1315  0.1021
  605SOL    HW2 1815   1.824   0.745   1.956  0.1958 -1.3148  1.5796
  606SOL     OW 1816   2.456   2.806   2.801 -0.4207  0.0978 -0.6049
  606SOL    HW1 1817   2.357   2.781   2.823 -2.5897  1.5367  1.7177
  606SOL    HW2 1818   2.463   2.888   2.740 -1.5919 -2.1985  1.9136
  607SOL     OW 1819   0.755   0.745   1.381 -0.2799 -0.0636  0.1231
  607SOL    HW1 1820   0.679   0.801   1.348 -1.4865 -0.0856 -1.2273
  607SOL    HW2 1821   0.812   0.796   1.450 -0.4577 -1.6921  1.9566
  608SOL     OW 1822   0.294   1.944   2.755  0.1014  0.1161  0.0325
  608SOL    HW1 1823   0.203   1.959   2.803 -2.1475  0.1520  0.3567
  608SOL    HW2 1824   0.280   1.880   2.678  1.7058  0.4336  1.5743
  609SOL     OW 1825   1.473   1.087   0.130  0.3626  0.0849  0.7407
  609SOL    HW1 1826   1.476   1.118   0.232  1.6449 -0.3010  1.9255
  609SOL    HW2 1827   1.384   1.117   0.095  1.4476 -0.7971  1.4381
  610SOL     OW 1828   0.480   0.363   1.401  0.0928  0.2566  0.5471
  610SOL    HW1 1829   0.571   0.315   1.390  0.3304 -2.0185  0.7391
  610SOL    HW2 1830   0.442   0.390   1.310  0.7212  1.0226 -0.8129
  611SOL     OW 1831   1.519   0.845   0.958 -0.5499  0.0913 -0.8491
  611SOL    HW1 1832   1.450   0.850   0.886  1.3762 -0.3411 -0.3700
  611SOL    HW2 1833   1.515   0.937   1.003 -1.5676 -1.6596  0.2128
  612SOL     OW 1834   1.670   1.005   3.056 -0.3796  0.3414 -0.2147
  612SOL    HW1 1835   1.590   0.992   3.117  2.1869 -1.1119 -1.9300
  612SOL    HW2 1836   1.759   0.986   3.103  1.4532  2.4651 -0.1547
  613SOL     OW 1837   2.285   0.451   0.375 -0.5314 -0.4116 -0.2442
  613SOL    HW1 1838   2.236   0.449   0.461  2.4312 -0.2777 -1.5390
  613SOL    HW2 1839   2.307   0.356   0.350 -1.2102 -1.5487 -0.8161
  614SOL     OW 1840   2.851   3.113   2.301  0.0673 -0.0453 -0.2752
  614SOL    HW1 1841   2.912   3.033   2.276 -0.0249 -0.6087 -0.2621
  614SOL    HW2 1842   2.887   0.058   2.371 -1.6851 -1.4216  0.4426
  615SOL     OW 1843   0.687   1.877   1.159  0.6066  0.5107  0.0252
  615SOL    HW1 1844   0.755   1.840   1.222 -4.3465 -0.7031 -2.2216
  615SOL    HW2 1845   0.598   1.875   1.207  2.0399 -1.5417 -1.2627
  616SOL     OW 1846   1.800   1.453   2.694  0.4000  0.0902 -0.4537
  616SOL    HW1 1847   1.848   1.390   2.631  2.6081  0.6477 -1.3103
  616SOL    HW2 1848   1.732   1.406   2.755  1.9331 -0.4990  1.2587
  617SOL     OW 1849   1.400   0.222   2.898 -0.1244  0.0762  0.3273
  617SOL    HW1 1850   1.437   0.317   2.928  0.2946  2.0651  0.1319
  617SOL    HW2 1851   1.459   0.144   2.932 -2.6409  0.5287  1.7689
  618SOL     OW 1852   1.171   2.189   2.665 -0.5784  0.1836  0.0157
  618SOL    HW1 1853   1.118   2.123   2.721 -2.3552  0.3167  1.6425
  618SOL    HW2 1854   1.173   2.280   2.706  1.0732  0.2625 -0.5104
  619SOL     OW 1855   2.590   1.366   0.804 -0.1025 -0.0529  0.6283
  619SOL    HW1 1856   2.677   1.361   0.751  1.1473 -0.1756 -0.4166
  619SOL    HW2 1857   2.541   1.280   0.782  0.4834  0.6269  1.1895
  620SOL     OW 1858   2.136   2.906   2.186  0.3950 -0.4306  0.2693
  620SOL    HW1 1859   2.169   2.886   2.278  2.4769  0.7903 -1.6009
  620SOL    HW2 1860   2.215   2.892   2.119 -0.0225 -0.4690 -0.5661
  621SOL     OW 1861   2.831   1.367   0.680 -0.4280  0.1852  0.2502
  621SOL    HW1 1862   2.871   1.301   0.744  1.1773  2.4256  0.0243
  621SOL    HW2 1863   2.874   1.458   0.693 -0.5664 -4.6259  1.2066
  622SOL     OW 1864   1.405   1.857   2.453  0.0155  0.2686  0.1330
  622SOL    HW1 1865   1.319   1.893   2.422  0.1503  1.4127  1.0113
  622SOL    HW2 1866   1.391   1.765   2.492  1.8698 -1.3803  0.8882
  623SOL     OW 1867   0.476   2.708   2.545  0.1786  0.8167  0.0650
  623SOL    HW1 1868   0.531   2.776   2.493  0.7586  1.3522  1.4828
  623SOL    HW2 1869   0.519   2.616   2.544  0.8266 -0.1473  1.9591
  624SOL     OW 1870   0.788   2.689   3.085 -0.3112 -0.1793 -0.0976
  624SOL    HW1 1871   0.783   2.594   3.042 -0.3058 -2.6900  1.2277
  624SOL    HW2 1872   0.760   2.695   0.068  0.0474  2.2428  4.1689
  625SOL     OW 1873   0.063   2.143   1.925 -0.1496  0.6326 -0.4977
  625SOL    HW1 1874   0.112   2.214   1.867 -1.1702  1.8012 -0.2669
  625SOL    HW2 1875   0.029   2.184   2.010  0.7649 -2.4299 -1.9882
  626SOL     OW 1876   0.065   0.087   3.045 -0.3483 -0.2988  0.0548
  626SOL    HW1 1877   0.029   0.181   3.042  0.3262 -2.7557 -0.9126
  626SOL    HW2 1878   0.153   0.085   2.995 -2.2752 -3.9662 -0.2050
  627SOL     OW 1879   2.167   1.594   0.025  0.2060  0.9535 -0.0672
  627SOL    HW1 1880   2.229   1.640   3.072  0.4037 -0.4152 -3.2280
  627SOL    HW2 1881   2.072   1.580   3.106  1.6823  0.8844 -0.9183
  628SOL     OW 1882   1.575   1.726   0.084  0.2407 -1.3521 -0.3719
  628SOL    HW1 1883   1.617   1.640   0.100  0.2956  2.1669  1.3213
  628SOL    HW2 1884   1.512   1.761   0.158 -0.3440  2.1339  1.2140
  629SOL     OW 1885   0.178   0.314   1.785 -0.4165  0.5336  0.6071
  629SOL    HW1 1886   0.156   0.397   1.841 -1.9939 -1.2902 -0.2678
  629SOL    HW2 1887   0.223   0.346   1.698 -0.3947  1.9544 -0.2278
  630SOL     OW 1888   2.408   1.050   1.606  0.7767  0.1377  0.2722
  630SOL    HW1 1889   2.344   1.091   1.536  1.2491 -0.3922  0.8515
  630SOL    HW2 1890   2.362   0.986   1.670 -0.1345 -1.0571 -1.5951
  631SOL     OW 1891   2.041   0.050   0.661  0.2732  0.6095  0.3119
  631SOL    HW1 1892   2.037   3.065   0.644 -0.9897 -2.4153 -1.3885
  631SOL    HW2 1893   2.005   0.073   0.749  0.2182  1.5048 -0.1235
  632SOL     OW 1894   2.798   0.904   1.982  0.0731 -0.2888 -0.0306
  632SOL    HW1 1895   2.792   0.980   1.912 -0.2681  0.9222  1.0940
  632SOL    HW2 1896   2.711   0.901   2.034 -0.3202  0.3125 -0.4614
  633SOL     OW 1897   0.866   0.427   2.717  0.0813  0.2126  0.3147
  633SOL    HW1 1898   0.905   0.346   2.767  0.9857 -1.4007  0.8441
  633SOL    HW2 1899   0.926   0.507   2.735 -0.2138 -1.7542  0.6708
  634SOL     OW 1900   0.527   2.694   2.983  0.5257  0.2333 -0.2778
  634SOL    HW1 1901   0.622   2.675   3.005 -3.2983  0.6122  0.9985
  634SOL    HW2 1902   0.472   2.752   3.048  2.2130  2.7634 -0.0909
  635SOL     OW 1903   0.190   1.280   1.208 -0.5868  0.0658  0.1056
  635SOL    HW1 1904   0.188   1.311   1.113  1.4602 -0.3345  0.4606
  635SOL    HW2 1905   0.257   1.209   1.222 -3.2239  1.2333 -0.3863
  636SOL     OW 1906   0.131   1.604   0.015 -0.1238 -0.1267 -0.7148
  636SOL    HW1 1907   0.134   1.507   3.104  2.1737  0.4261  0.2971
  636SOL    HW2 1908   0.195   1.658   3.074  1.8525  0.9116 -1.4274
  637SOL     OW 1909   0.254   2.660   0.222  0.4593 -0.1735  0.4673
  637SOL    HW1 1910   0.291   2.652   0.126  0.6687  1.1119  1.0847
  637SOL    HW2 1911   0.166   2.609   0.218 -0.6511 -0.9366 -1.5269
  638SOL     OW 1912   2.775   2.411   0.462  0.1768 -0.0326  0.0442
  638SOL    HW1 1913   2.794   2.492   0.405  0.7460 -0.1982  2.8626
  638SOL    HW2 1914   2.847   2.410   0.538  3.9772  0.1284 -0.3614
  639SOL     OW 1915   1.137   1.035   0.271 -0.3947  0.4161 -0.6157
  639SOL    HW1 1916   1.059   1.092   0.265  2.3766 -2.1024  0.0878
  639SOL    HW2 1917   1.132   0.965   0.197 -0.1535 -1.0323  2.2569
  640SOL     OW 1918   1.846   2.582   1.705  0.4916 -0.1577 -0.8053
  640SOL    HW1 1919   1.796   2.498   1.732 -0.5348 -1.9713  2.2911
  640SOL    HW2 1920   1.900   2.573   1.619 -1.4408 -1.4552 -0.0758
  641SOL     OW 1921   3.060   3.111   0.490  0.3558 -0.1161  0.1742
  641SOL    HW1 1922   2.965   3.072   0.467 -2.4496 -1.5004 -1.8352
  641SOL    HW2 1923   3.061   0.066   0.562  1.2829  0.8410  0.0763
  642SOL     OW 1924   1.222   0.887   1.855  0.6706 -0.2230 -0.0509
  642SOL    HW1 1925   1.316   0.883   1.893 -3.1613 -1.5253  0.5911
  642SOL    HW2 1926   1.217   0.955   1.778 -1.3488 -0.6699 -1.8775
  643SOL     OW 1927   0.778   1.922   2.537 -0.7336  0.0786  0.4027
  643SOL    HW1 1928   0.791   2.020   2.530 -0.9488 -0.6668  2.6189
  643SOL    HW2 1929   0.695   1.900   2.584  1.1772 -0.0148 -2.4704
  644SOL     OW 1930   1.145   2.407   2.829 -0.2912  0.2780  0.2009
  644SOL    HW1 1931   1.158   2.414   2.931 -0.2911 -1.2134 -0.0773
  644SOL    HW2 1932   1.163   2.496   2.782 -0.8106 -1.2623 -2.7724
  645SOL     OW 1933   1.685   1.357   1.610 -0.0516 -0.0424  0.2429
  645SOL    HW1 1934   1.706   1.285   1.684  0.3469 -1.1079 -0.2916
  645SOL    HW2 1935   1.647   1.308   1.534 -0.1385  0.2433  0.0892
  646SOL     OW 1936   0.904   2.912   2.949  0.5304 -0.1564  1.2309
  646SOL    HW1 1937   0.850   2.845   3.003 -0.9216  1.7138  0.1187
  646SOL    HW2 1938   0.863   2.942   2.859  0.3298  0.3584 -1.8050
  647SOL     OW 1939   0.881   3.039   0.499 -0.2367  0.0458 -0.2418
  647SOL    HW1 1940   0.787   3.006   0.523 -2.9486  0.2355  1.8220
  647SOL    HW2 1941   0.946   3.025   0.578  2.4952 -0.1544 -1.1620
  648SOL     OW 1942   2.827   2.856   1.478  0.0552  0.1530 -0.1181
  648SOL    HW1 1943   2.826   2.868   1.376  0.8285  0.6745  0.5302
  648SOL    HW2 1944   2.780   2.772   1.509  1.2743 -2.4573 -0.9108
  649SOL     OW 1945   0.749   2.438   2.976 -0.2306 -0.2289  0.3124
  649SOL    HW1 1946   0.807   2.400   2.902 -1.3332  1.1735 -0.6213
  649SOL    HW2 1947   0.654   2.400   2.973 -0.4940 -1.4632  3.5919
  650SOL     OW 1948   2.381   2.113   2.032  0.5099 -0.4234  0.1087
  650SOL    HW1 1949   2.353   2.081   2.119 -2.0367  4.0843 -1.6779
  650SOL    HW2 1950   2.467   2.161   2.032 -1.3054 -0.0624 -0.1686
  651SOL     OW 1951   2.916   2.667   2.377 -0.0583  0.1277 -0.1077
  651SOL    HW1 1952   3.010   2.667   2.334  0.3238 -0.3164  0.1917
  651SOL    HW2 1953   2.913   2.719   2.467  0.7810 -1.2099  1.0483
  652SOL     OW 1954   2.872   1.918   0.532 -0.6750 -0.2912  0.1568
  652SOL    HW1 1955   2.893   1.902   0.628 -3.7171  0.7123  2.0034
  652SOL    HW2 1956   2.785   1.975   0.514 -4.6775  0.9800  0.0236
  653SOL     OW 1957   2.421   1.067   1.157 -0.2910  0.2345 -0.4795
  653SOL    HW1 1958   2.473   1.033   1.235 -2.5602  0.3429  1.6823
  653SOL    HW2 1959   2.401   0.990   1.092  1.5794 -1.3456  0.0345
  654SOL     OW 1960   0.956   0.261   2.900  0.0863  0.5012 -0.0783
  654SOL    HW1 1961   1.044   0.220   2.873  0.8028 -0.3536  1.2254
  654SOL    HW2 1962   0.887   0.194   2.918  1.1436  0.9004 -0.2027
  655SOL     OW 1963   0.933   0.327   1.414  0.4787 -0.2135 -0.9173
  655SOL    HW1 1964   0.955   0.411   1.363  2.6408 -0.8543  1.1016
  655SOL    HW2 1965   0.840   0.291   1.390  1.3963 -2.9563  0.7403
  656SOL     OW 1966   0.233   2.670   2.108  0.2145  0.9609 -0.6298
  656SOL    HW1 1967   0.300   2.665   2.027 -1.8677 -1.2770 -1.5584
  656SOL    HW2 1968   0.202   2.766   2.118  0.3471 -1.4751  2.3647
  657SOL     OW 1969   2.261   0.623   0.167 -0.3712 -0.3941 -0.0344
  657SOL    HW1 1970   2.258   0.560   0.250  1.8472 -0.7361  2.0424
  657SOL    HW2 1971   2.330   0.604   0.094  2.5265 -0.7341 -0.6988
  658SOL     OW 1972   2.012   1.950   1.097  0.2664  0.0412 -0.3290
  658SOL    HW1 1973   2.032   2.046   1.133 -0.8622  0.2516 -0.6156
  658SOL    HW2 1974   2.064   1.879   1.148  2.1392  0.1932  0.4041
  659SOL     OW 1975   2.730   2.181   2.845 -0.0904  0.1654 -0.0641
  659SOL    HW1 1976   2.648   2.242   2.831 -2.4408  0.2033 -0.4345
  659SOL    HW2 1977   2.799   2.225   2.903 -0.6186  0.4001 -1.2021
  660SOL     OW 1978   1.409   3.031   0.015  0.6099 -0.1246 -0.3256
  660SOL    HW1 1979   1.422   3.014   0.114 -1.5830 -0.2352 -0.0498
  660SOL    HW2 1980   1.473   3.106   3.109 -2.3422  0.5869  0.4547
  661SOL     OW 1981   2.171   0.032   0.130  0.2830  0.0204  0.3590
  661SOL    HW1 1982   2.072   0.003   0.115 -1.3752 -0.8384  2.8185
  661SOL    HW2 1983   2.227   0.029   0.048 -0.0372 -1.2225  1.0573
  662SOL     OW 1984   0.622   0.112   0.864  0.4642 -0.0396 -0.0412
  662SOL    HW1 1985   0.637   0.162   0.776  0.0146 -0.5579  2.5651
  662SOL    HW2 1986   0.555   0.039   0.855  1.5321  0.3254 -0.4286
  663SOL     OW 1987   1.416   0.385   2.320 -0.2337  0.6825  0.2512
  663SOL    HW1 1988   1.379   0.329   2.244  1.2285 -0.7852 -0.6954
  663SOL    HW2 1989   1.351   0.452   2.351  0.1494 -0.3176 -0.0852
  664SOL     OW 1990   0.742   2.852   1.470 -0.1411 -0.4967 -0.4025
  664SOL    HW1 1991   0.642   2.823   1.478 -1.6176 -0.0509  1.6480
  664SOL    HW2 1992   0.742   2.956   1.475 -1.8232  1.7101 -0.0442
  665SOL     OW 1993   0.936   2.269   1.917  0.2541  0.2088 -0.1569
  665SOL    HW1 1994   0.958   2.340   1.845  2.4670  0.5702 -0.0597
  665SOL    HW2 1995   0.967   2.304   2.007 -1.4922  0.0601 -2.1904
  666SOL     OW 1996   0.348   3.029   2.746  0.4051  0.0552 -0.0702
  666SOL    HW1 1997   0.423   2.959   2.758  0.3324  0.8614  3.0384
  666SOL    HW2 1998   0.258   2.981   2.732  0.8536  1.1246 -1.5308
  667SOL     OW 1999   1.789   1.781   1.442 -0.4763  0.5322  0.4738
  667SOL    HW1 2000   1.827   1.686   1.429  1.9376 -1.2771 -1.0320
  667SOL    HW2 2001   1.850   1.837   1.506  0.8018 -0.0274 -3.0882
  668SOL     OW 2002   1.609   0.467   1.531 -0.0243 -0.0022  0.2571
  668SOL    HW1 2003   1.704   0.451   1.570  2.0290 -2.1274 -1.2694
  668SOL    HW2 2004   1.564   0.374   1.517  1.5155  0.0032 -0.2965
  669SOL     OW 2005   2.485   2.463   1.580 -0.8391 -0.3690  0.3111
  669SOL    HW1 2006   2.469   2.372   1.629 -0.0461 -3.0004  0.7939
  669SOL    HW2 2007   2.410   2.489   1.514  0.6258  0.5951  0.1860
  670SOL     OW 2008   1.467   2.265   2.660 -0.0608 -0.5745  0.3778
  670SOL    HW1 2009   1.457   2.165   2.667  0.0045 -0.3714 -0.6634
  670SOL    HW2 2010   1.413   2.302   2.735 -2.8754 -0.5316 -0.0462
  671SOL     OW 2011   1.161   1.116   0.521  0.2680  0.2627 -0.0977
  671SOL    HW1 2012   1.254   1.108   0.564  0.9820  0.2775 -1.1284
  671SOL    HW2 2013   1.163   1.080   0.427 -0.0509 -0.1984  0.9129
  672SOL     OW 2014   0.074   1.082   2.455  0.2666 -0.3506  0.2558
  672SOL    HW1 2015   3.106   1.129   2.495 -2.3164  2.0658 -1.2683
  672SOL    HW2 2016   0.070   0.981   2.468 -2.6943 -0.0078  0.4535
  673SOL     OW 2017   2.781   1.933   1.417  0.1725 -0.5788 -0.4906
  673SOL    HW1 2018   2.749   2.003   1.486  0.8110  1.6192 -0.3303
  673SOL    HW2 2019   2.754   1.842   1.449 -3.2722  3.3241  0.1414
  674SOL     OW 2020   0.644   2.383   2.105 -0.3965  0.1793  0.4674
  674SOL    HW1 2021   0.594   2.374   2.018  0.7127 -1.4077  0.7391
  674SOL    HW2 2022   0.671   2.482   2.113  1.9291  1.1156 -2.9522
  675SOL     OW 2023   0.950   0.892   1.547 -0.0323  0.0232  0.2590
  675SOL    HW1 2024   0.980   0.848   1.632 -2.0455 -1.7322 -1.7785
  675SOL    HW2 2025   0.895   0.977   1.562 -2.9529 -0.8221 -2.4187
  676SOL     OW 2026   2.217   0.511   1.032 -0.1354  0.1409 -0.2398
  676SOL    HW1 2027   2.257   0.512   0.938  0.9764 -0.1233 -2.7234
  676SOL    HW2 2028   2.266   0.563   1.105 -2.2140 -1.2615  1.1457
  677SOL     OW 2029   2.483   1.215   2.878 -0.1355 -0.1794  0.1435
  677SOL    HW1 2030   2.416   1.147   2.907 -1.2597  1.2875 -0.5842
  677SOL    HW2 2031   2.441   1.306   2.876  0.0509  1.4549 -4.0393
  678SOL     OW 2032   2.782   0.959   1.255 -0.2796 -0.4635 -0.5110
  678SOL    HW1 2033   2.828   0.907   1.330 -0.5609 -0.4688  0.6597
  678SOL    HW2 2034   2.818   1.053   1.251 -2.4277  0.5260 -1.8345
  679SOL     OW 2035   2.473   0.315   0.065  0.1469  0.2197  0.5484
  679SOL    HW1 2036   2.549   0.313   0.132 -0.0318 -1.8648 -4.9188
  679SOL    HW2 2037   2.454   0.408   0.033  1.6075 -2.7014  0.3655
  680SOL     OW 2038   0.125   1.834   1.876 -0.2962  0.8783 -0.3132
  680SOL    HW1 2039   0.095   1.896   1.951  0.2906  0.7066  0.1748
  680SOL    HW2 2040   0.202   1.774   1.906 -0.2182  2.0991 -0.6076
  681SOL     OW 2041   1.992   2.123   1.380 -0.2680 -0.6641  0.3434
  681SOL    HW1 2042   1.979   2.057   1.453  1.1946 -0.5791  0.9549
  681SOL    HW2 2043   1.906   2.179   1.361  0.0507 -0.2651  0.9688
  682SOL     OW 2044   0.388   1.706   3.080 -0.6368  0.0949 -0.6891
  682SOL    HW1 2045   0.414   1.782   3.014  0.9600  1.6636 -0.8868
  682SOL    HW2 2046   0.437   1.619   3.054 -1.3264 -0.7492 -0.2001
  683SOL     OW 2047   0.027   2.151   1.442  0.1934 -0.3451 -0.7420
  683SOL    HW1 2048   0.096   2.226   1.449 -0.4329 -2.3116 -1.1541
  683SOL    HW2 2049   3.051   2.181   1.404 -1.9926  1.3346  1.3031
  684SOL     OW 2050   2.839   1.320   2.100 -0.4776 -0.0648 -0.6243
  684SOL    HW1 2051   2.774   1.274   2.037 -0.4481 -1.5976 -1.3600
  684SOL    HW2 2052   2.796   1.336   2.194 -0.6292  0.5435  0.8970
  685SOL     OW 2053   1.404   1.058   0.606 -0.1359 -0.6032  0.0195
  685SOL    HW1 2054   1.459   1.116   0.671  1.5337  1.0468 -2.2894
  685SOL    HW2 2055   1.387   0.964   0.648  0.4587 -3.4817  2.1352
  686SOL     OW 2056   0.577   0.213   0.629  0.1999  0.0348 -0.7232
  686SOL    HW1 2057   0.646   0.286   0.607  0.6855 -1.4782  0.7120
  686SOL    HW2 2058   0.549   0.171   0.545  1.5313 -0.3696  4.4611
  687SOL     OW 2059   0.956   2.087   2.996 -0.0395  0.2700 -0.3217
  687SOL    HW1 2060   0.982   2.017   3.070  3.3185 -3.6825  0.6798
  687SOL    HW2 2061   0.856   2.086   2.979 -1.1294  0.7416 -0.3032
  688SOL     OW 2062   1.796   1.069   1.367 -0.6235  0.3416  0.0781
  688SOL    HW1 2063   1.697   1.048   1.367  0.2187 -0.4608 -1.3266
  688SOL    HW2 2064   1.837   0.991   1.414 -1.4022 -1.9812  1.5526
  689SOL     OW 2065   1.882   0.188   0.828 -0.4259  0.1539 -0.0145
  689SOL    HW1 2066   1.929   0.272   0.853  2.6045 -2.0088  0.6084
  689SOL    HW2 2067   1.799   0.208   0.767 -5.0382  1.6515  2.9603
  690SOL     OW 2068   0.055   1.207   0.772  0.5938  0.1851  0.3932
  690SOL    HW1 2069   3.076   1.192   0.806 -4.5376 -0.5033 -0.4029
  690SOL    HW2 2070   0.060   1.196   0.671 -0.6144 -0.5202  0.9770
  691SOL     OW 2071   0.196   2.347   1.490  0.1165 -0.2715  0.0706
  691SOL    HW1 2072   0.295   2.368   1.459  3.6950 -0.8618 -0.7082
  691SOL    HW2 2073   0.139   2.430   1.495  3.7272  0.7128  1.3597
  692SOL     OW 2074   1.776   0.263   1.321  0.2534 -0.5419 -0.0486
  692SOL    HW1 2075   1.821   0.212   1.394 -0.4834 -1.9223 -1.3899
  692SOL    HW2 2076   1.842   0.296   1.252 -0.5251 -2.7074 -1.9217
  693SOL     OW 2077   0.571   1.674   2.159 -0.2324  0.2033  0.2622
  693SOL    HW1 2078   0.567   1.753   2.094  3.0428 -2.1549  2.1858
  693SOL    HW2 2079   0.621   1.704   2.238  0.2837 -1.6829 -2.5717
  694SOL     OW 2080   2.064   1.328   1.118  0.2588 -1.0185  0.6697
  694SOL    HW1 2081   2.012   1.407   1.081 -1.1429 -2.4763 -0.5293
  694SOL    HW2 2082   2.165   1.349   1.107 -0.9867  1.0932  1.1542
  695SOL     OW 2083   1.336   0.848   0.770 -0.1652  0.1665 -0.5485
  695SOL    HW1 2084   1.323   0.786   0.689 -3.1917  1.6178 -0.4276
  695SOL    HW2 2085   1.273   0.821   0.848  0.1543 -1.8809 -1.0543
  696SOL     OW 2086   0.547   0.148   0.377  0.0505  0.3499  0.9075
  696SOL    HW1 2087   0.494   0.059   0.373  1.4334  0.4533 -1.4522
  696SOL    HW2 2088   0.644   0.121   0.359  0.7601  0.2432 -0.0981
  697SOL     OW 2089   1.955   0.435   0.935  0.0127 -0.6043  0.0271
  697SOL    HW1 2090   1.868   0.425   0.986 -0.8012 -2.9624 -2.9341
  697SOL    HW2 2091   2.034   0.476   0.988 -0.1631  3.3253  0.2308
  698SOL     OW 2092   1.472   1.258   2.177  0.6326 -0.2587 -0.8131
  698SOL    HW1 2093   1.379   1.299   2.172  1.5863  1.3189 -2.6071
  698SOL    HW2 2094   1.505   1.264   2.274  0.4862 -0.1441  0.1130
  699SOL     OW 2095   2.715   0.519   1.892 -0.2178  0.7339 -0.4760
  699SOL    HW1 2096   2.742   0.493   1.988  0.0740  1.6069  0.5165
  699SOL    HW2 2097   2.649   0.453   1.849  0.6207 -0.0851 -1.7165
  700SOL     OW 2098   1.671   2.381   0.588  0.4785 -0.1874 -0.0772
  700SOL    HW1 2099   1.694   2.365   0.690 -1.3466  2.3447  3.1996
  700SOL    HW2 2100   1.632   2.473   0.575  0.6412 -0.6444  1.7338
  701SOL     OW 2101   2.621   1.937   2.436 -0.0702  0.1016  0.3614
  701SOL    HW1 2102   2.584   1.844   2.440  0.8337  1.5684 -0.1697
  701SOL    HW2 2103   2.667   1.955   2.524  0.3166 -0.2999 -2.8310
  702SOL     OW 2104   0.617   2.914   0.572  0.6967  0.2111 -0.5742
  702SOL    HW1 2105   0.594   2.952   0.665 -1.3797  0.8846  0.8338
  702SOL    HW2 2106   0.650   2.815   0.580 -1.1663  0.2765 -0.2494
  703SOL     OW 2107   1.891   3.009   2.149  0.2063 -0.2112  0.1654
  703SOL    HW1 2108   1.917   3.024   2.051 -0.5381 -1.2389 -0.7766
  703SOL    HW2 2109   1.967   2.967   2.205  1.3441  0.4457  2.4694
  704SOL     OW 2110   2.781   2.257   0.129  0.0450 -0.2724 -0.1178
  704SOL    HW1 2111   2.739   2.232   0.218 -2.2427  1.0082  0.5491
  704SOL    HW2 2112   2.834   2.177   0.101 -1.2269 -0.9423  0.8245
  705SOL     OW 2113   2.661   2.419   2.540 -0.1749  0.0132  0.4803
  705SOL    HW1 2114   2.759   2.410   2.544 -2.1806  2.1681  2.8906
  705SOL    HW2 2115   2.615   2.355   2.479  0.4734  2.2608 -2.2317
  706SOL     OW 2116   2.600   0.125   0.348  0.5006  0.2128  0.1931
  706SOL    HW1 2117   2.653   0.184   0.282  1.4665 -0.5219  0.7107
  706SOL    HW2 2118   2.652   0.044   0.371  1.3546  4.3458  0.8832
  707SOL     OW 2119   1.234   0.537   2.459  0.1192 -0.2940  0.0369
  707SOL    HW1 2120   1.151   0.479   2.443 -2.7600 -3.6042 -0.5778
  707SOL    HW2 2121   1.270   0.520   2.550 -1.2278 -1.1114  0.4103
  708SOL     OW 2122   0.170   1.994   1.687  0.3418  0.0763  0.4608
  708SOL    HW1 2123   0.150   1.923   1.756  2.6880  1.5795 -1.3777
  708SOL    HW2 2124   0.154   1.961   1.591  3.0151 -1.1399  1.7422
  709SOL     OW 2125   1.447   2.866   1.759 -0.2823 -0.4084 -0.1666
  709SOL    HW1 2126   1.530   2.810   1.775 -2.8559 -0.0160  1.3790
  709SOL    HW2 2127   1.464   2.931   1.682  0.6926 -1.8234 -1.2796
  710SOL     OW 2128   1.411   2.651   2.568 -0.5341 -0.0802  0.4565
  710SOL    HW1 2129   1.413   2.564   2.514  2.3631 -0.7017 -1.4214
  710SOL    HW2 2130   1.465   2.626   2.654 -1.3871 -1.2974 -2.5632
  711SOL     OW 2131   0.867   2.361   2.739 -0.7146 -0.2906  0.0584
  711SOL    HW1 2132   0.874   2.307   2.654  4.8981  3.0137  1.3311
  711SOL    HW2 2133   0.960   2.386   2.775 -0.9691  2.0910  1.9921
  712SOL     OW 2134   1.025   1.943   0.109 -0.0127  0.4655  0.2026
  712SOL    HW1 2135   0.987   1.991   0.191  0.8442  0.3180  0.4943
  712SOL    HW2 2136   1.126   1.958   0.100 -0.5579 -0.3096  0.1312
  713SOL     OW 2137   2.099   1.304   1.892  0.3480  0.6961  0.1573
  713SOL    HW1 2138   2.084   1.341   1.799  1.4617  0.2009  1.2774
  713SOL    HW2 2139   2.029   1.246   1.931 -1.3274  2.2528 -1.5895
  714SOL     OW 2140   0.817   1.068   2.040 -0.8205 -0.5868  0.0860
  714SOL    HW1 2141   0.771   1.106   2.120  2.5375 -1.4211  0.1346
  714SOL    HW2 2142   0.906   1.028   2.068 -1.2149 -0.2971  1.7855
  715SOL     OW 2143   2.761   0.323   0.211 -0.3784 -0.0173 -0.1006
  715SOL    HW1 2144   2.850   0.274   0.224 -2.2809  0.3216 -1.4697
  715SOL    HW2 2145   2.748   0.396   0.278  0.3935 -1.8322 -0.8016
  716SOL     OW 2146   0.216   2.977   1.288  0.4010  0.3146 -0.2374
  716SOL    HW1 2147   0.184   2.947   1.381 -1.3510  1.7937 -0.2674
  716SOL    HW2 2148   0.128   3.006   1.238 -1.6385  2.4798 -1.4632
  717SOL     OW 2149   2.370   0.853   1.002  0.3390 -0.5451  0.1857
  717SOL    HW1 2150   2.314   0.844   0.919 -2.9137  2.1834  0.6987
  717SOL    HW2 2151   2.355   0.770   1.067  1.4067 -1.1120  2.8741
  718SOL     OW 2152   1.552   1.292   1.375 -0.3394 -0.3629  0.0905
  718SOL    HW1 2153   1.469   1.349   1.388 -3.4785  2.0520 -2.3502
  718SOL    HW2 2154   1.612   1.328   1.304  0.9360  3.3237  0.8929
  719SOL     OW 2155   2.687   2.779   2.916  0.2243 -0.3690 -0.2594
  719SOL    HW1 2156   2.697   2.874   2.952  1.0709 -1.1090 -1.1636
  719SOL    HW2 2157   2.599   2.782   2.862 -0.7495 -0.2685  0.6358
  720SOL     OW 2158   1.102   0.502   0.873 -0.2720 -0.1521  0.0761
  720SOL    HW1 2159   1.063   0.408   0.872  0.5172 -3.5513 -2.6701
  720SOL    HW2 2160   1.139   0.541   0.959  0.9229  2.9520 -1.7612
  721SOL     OW 2161   2.269   0.549   0.778  0.3036  0.4603  0.0390
  721SOL    HW1 2162   2.367   0.543   0.742  0.3951 -2.5531  0.2925
  721SOL    HW2 2163   2.212   0.469   0.744 -0.1869 -1.1089  0.0593
  722SOL     OW 2164   0.754   2.079   2.015  0.3217 -0.5570  0.5966
  722SOL    HW1 2165   0.738   2.091   2.115 -0.3625 -0.8861 -0.8133
  722SOL    HW2 2166   0.817   2.153   1.983  0.0917 -1.0787  0.3295
  723SOL     OW 2167   1.229   3.096   1.536 -0.4903  0.1324  0.2410
  723SOL    HW1 2168   1.332   3.089   1.540  2.0176  1.1624 -0.6047
  723SOL    HW2 2169   1.200   3.108   1.631  1.3066 -1.6570 -0.6113
  724SOL     OW 2170   1.536   1.937   1.453  0.6212  0.4248 -0.4691
  724SOL    HW1 2171   1.486   1.965   1.540 -0.1934  0.2813  2.2276
  724SOL    HW2 2172   1.602   1.863   1.460  1.2930  2.4087 -1.0513
  725SOL     OW 2173   1.333   2.455   1.288  0.4628 -0.4689 -0.0723
  725SOL    HW1 2174   1.330   2.355   1.264 -0.5455 -0.8601  0.0077
  725SOL    HW2 2175   1.340   2.512   1.204 -1.5192  2.5353 -1.5762
  726SOL     OW 2176   1.661   0.201   0.173 -0.6527 -0.0793 -0.5930
  726SOL    HW1 2177   1.734   0.268   0.186 -0.4839  1.9856 -0.0049
  726SOL    HW2 2178   1.575   0.232   0.222 -0.4917  0.5689  0.1762
  727SOL     OW 2179   1.717   1.671   0.483 -0.3903  0.1802  0.1129
  727SOL    HW1 2180   1.635   1.704   0.431 -2.1653  0.0758  1.5809
  727SOL    HW2 2181   1.800   1.678   0.416  2.6242  0.9820 -1.2341
  728SOL     OW 2182   1.883   2.782   1.862 -0.0613  0.1596  0.2412
  728SOL    HW1 2183   1.849   2.706   1.800  0.2652  1.6141  1.3766
  728SOL    HW2 2184   1.806   2.816   1.924 -0.2535  0.3559  1.6311
  729SOL     OW 2185   1.992   2.569   1.482  0.0244 -0.3894 -0.4390
  729SOL    HW1 2186   1.974   2.540   1.387  1.0624  0.2650 -2.1524
  729SOL    HW2 2187   2.092   2.557   1.504  0.1324 -0.1773  1.1368
  730SOL     OW 2188   1.557   1.057   2.680  0.6856  0.5871 -0.4302
  730SOL    HW1 2189   1.609   1.014   2.761 -0.4505 -2.3360 -0.7555
  730SOL    HW2 2190   1.520   0.979   2.624 -0.4425  0.9927 -1.3201
  731SOL     OW 2191   0.681   0.211   1.346 -1.0802 -0.2842 -0.5448
  731SOL    HW1 2192   0.693   0.192   1.245  1.3995  1.6077  2.2266
  731SOL    HW2 2193   0.681   0.120   1.395 -1.7087 -0.7320 -0.6501
  732SOL     OW 2194   1.145   2.911   1.096  0.3230 -0.5565  0.3130
  732SOL    HW1 2195   1.150   2.886   1.196  0.5578 -1.5370  0.6234
  732SOL    HW2 2196   1.082   2.992   1.089  0.6951 -2.0888  0.0943
  733SOL     OW 2197   1.208   1.194   1.200  0.0174 -0.3340  0.7374
  733SOL    HW1 2198   1.213   1.270   1.129 -2.7645 -0.6729 -0.0032
  733SOL    HW2 2199   1.118   1.184   1.241  0.6143  0.8920  0.8908
  734SOL     OW 2200   2.454   2.074   0.169 -0.1953  0.2530 -0.0771
  734SOL    HW1 2201   2.465   2.092   0.069  1.6567 -0.8805 -2.1733
  734SOL    HW2 2202   2.535   2.112   0.224  1.4905 -1.1284  0.0453
  735SOL     OW 2203   0.997   0.243   0.805  0.0160  0.4448 -0.5792
  735SOL    HW1 2204   0.942   0.156   0.809  1.1035  0.9598  0.8516
  735SOL    HW2 2205   1.024   0.265   0.707 -0.9844 -0.3369 -2.1074
  736SOL     OW 2206   1.766   2.390   2.749 -0.0881 -0.4360 -0.2721
  736SOL    HW1 2207   1.852   2.402   2.803  0.5539  2.2401 -2.8823
  736SOL    HW2 2208   1.713   2.316   2.786  0.8326 -0.0639 -2.0259
  737SOL     OW 2209   0.791   2.675   1.074 -0.2552  0.4842 -0.8122
  737SOL    HW1 2210   0.850   2.685   0.989  0.8534 -0.0954 -1.5604
  737SOL    HW2 2211   0.839   2.696   1.164 -1.6705 -0.9019  0.2718
  738SOL     OW 2212   1.766   0.141   2.194 -0.0382 -0.6572  0.4473
  738SOL    HW1 2213   1.723   0.118   2.284  0.4034  0.8739 -0.8438
  738SOL    HW2 2214   1.794   0.058   2.141  1.1628 -1.8583  0.7384
  739SOL     OW 2215   1.046   2.287   2.158  0.4504  0.3713 -0.9311
  739SOL    HW1 2216   1.142   2.257   2.187 -0.5075 -0.0829 -0.2775
  739SOL    HW2 2217   0.977   2.273   2.235  2.1205  0.2148 -2.1875
  740SOL     OW 2218   1.489   2.417   1.619  0.3166  0.0854 -0.6659
  740SOL    HW1 2219   1.439   2.494   1.655  0.2410 -2.0897 -2.5588
  740SOL    HW2 2220   1.524   2.433   1.524 -1.4317  1.4594 -1.1571
  741SOL     OW 2221   2.658   1.098   3.090 -0.2242  0.2741 -0.2000
  741SOL    HW1 2222   2.717   1.150   0.037 -3.0268 -0.4182 -0.9115
  741SOL    HW2 2223   2.628   1.151   3.013 -1.3978 -1.6821  0.2282
  742SOL     OW 2224   0.700   1.445   2.070 -0.6408  0.0891 -0.0188
  742SOL    HW1 2225   0.649   1.514   2.123  0.1202  0.4743 -0.3606
  742SOL    HW2 2226   0.756   1.385   2.135  1.6275 -0.8572  1.9158
  743SOL     OW 2227   0.109   0.806   2.517  0.1248  0.1698  0.4450
  743SOL    HW1 2228   0.203   0.767   2.502  0.2192 -1.4114  0.3307
  743SOL    HW2 2229   0.034   0.741   2.491  0.4844  0.6094 -0.2895
  744SOL     OW 2230   2.245   2.187   1.460 -0.2740  0.1322  0.0874
  744SOL    HW1 2231   2.158   2.151   1.416  1.1381 -1.5574 -1.2987
  744SOL    HW2 2232   2.272   2.119   1.534  1.6734 -0.9509  2.9858
  745SOL     OW 2233   2.411   1.873   1.416 -0.8006 -0.2657 -0.0899
  745SOL    HW1 2234   2.323   1.836   1.439  0.4705 -0.9407  1.5331
  745SOL    HW2 2235   2.494   1.857   1.472 -0.6220  2.7946 -0.7094
  746SOL     OW 2236   2.510   0.894   0.687 -0.7126  0.1153 -0.0353
  746SOL    HW1 2237   2.447   0.863   0.615  1.1360  0.0988  0.4555
  746SOL    HW2 2238   2.607   0.901   0.649  1.0969  0.4115 -0.1103
  747SOL     OW 2239   1.854   2.170   0.494  0.4195 -0.2610  0.2994
  747SOL    HW1 2240   1.947   2.214   0.506  2.1061 -0.2311  0.5425
  747SOL    HW2 2241   1.777   2.229   0.526 -0.6953 -2.2486 -0.8675
  748SOL     OW 2242   1.162   2.201   0.537  0.2970  0.0944 -0.1809
  748SOL    HW1 2243   1.087   2.147   0.494  1.0265 -1.7573 -0.2143
  748SOL    HW2 2244   1.135   2.238   0.628  1.5616  2.5327 -0.0949
  749SOL     OW 2245   3.042   0.195   2.373  0.3751 -0.2505  0.4433
  749SOL    HW1 2246   3.096   0.268   2.321  2.4739  3.0883 -0.7451
  749SOL    HW2 2247   3.086   0.142   2.449 -2.2418 -0.4475  0.8905
  750SOL     OW 2248   1.559   0.092   1.314 -0.2187  0.3448 -0.1088
  750SOL    HW1 2249   1.643   0.149   1.318  0.8823 -1.1877 -3.8527
  750SOL    HW2 2250   1.511   0.100   1.225 -2.9947  0.1910 -0.3396
  751SOL     OW 2251   1.553   2.583   2.771 -0.7500  0.1555 -0.4695
  751SOL    HW1 2252   1.588   2.636   2.847 -1.9317  0.7681 -2.2611
  751SOL    HW2 2253   1.630   2.527   2.736 -1.4759 -2.4268 -2.3498
  752SOL     OW 2254   1.863   1.962   0.305  0.0404 -0.0640  0.1605
  752SOL    HW1 2255   1.848   2.026   0.383 -1.6843 -0.1188 -0.6185
  752SOL    HW2 2256   1.924   2.016   0.244 -2.7333  0.7398  2.8932
  753SOL     OW 2257   1.741   0.860   2.058 -0.2907  0.0935  0.2759
  753SOL    HW1 2258   1.749   0.954   2.094  0.2553  0.5157 -0.7535
  753SOL    HW2 2259   1.743   0.789   2.129  2.0664 -0.3632 -1.7779
  754SOL     OW 2260   0.139   2.632   0.709 -0.7068 -0.6870 -0.6367
  754SOL    HW1 2261   0.103   2.560   0.649  1.5942  4.2165  0.4669
  754SOL    HW2 2262   0.078   2.718   0.704 -3.7597  4.8118  0.3030
  755SOL     OW 2263   2.087   0.427   1.323  0.2744  0.3307  0.2990
  755SOL    HW1 2264   2.135   0.473   1.399 -0.4055  0.8405  2.4746
  755SOL    HW2 2265   2.087   0.328   1.347  0.6794  2.5557  1.1329
  756SOL     OW 2266   1.127   1.328   2.552 -0.4682 -0.2433  0.2384
  756SOL    HW1 2267   1.208   1.312   2.613  0.8318  1.4918 -1.4527
  756SOL    HW2 2268   1.147   1.399   2.483  1.9000 -0.5163 -0.9395
  757SOL     OW 2269   2.797   2.832   1.185  0.3774 -0.0697 -0.4884
  757SOL    HW1 2270   2.809   2.738   1.144 -1.0361 -1.7123 -1.5646
  757SOL    HW2 2271   2.712   2.876   1.148 -1.7673  0.1410 -1.7975
  758SOL     OW 2272   0.689   0.000   1.528  0.4049  0.4873  0.4977
  758SOL    HW1 2273   0.592   3.113   1.559 -1.6437 -3.9796  0.3505
  758SOL    HW2 2274   0.747   0.044   1.597  2.1841  1.1053 -0.4997
  759SOL     OW 2275   2.475   1.182   0.644 -0.3766 -0.2352  0.2319
  759SOL    HW1 2276   2.538   1.185   0.565  1.7115 -1.0888 -0.5395
  759SOL    HW2 2277   2.466   1.084   0.659 -1.1970 -0.4503  0.6179
  760SOL     OW 2278   1.881   0.599   1.283 -0.4253  0.1376 -0.6583
  760SOL    HW1 2279   1.814   0.561   1.227  4.3326 -0.7464  2.1427
  760SOL    HW2 2280   1.953   0.532   1.295 -0.2938  1.5574 -1.3494
  761SOL     OW 2281   1.928   3.028   0.114  0.3534  0.3921  0.3944
  761SOL    HW1 2282   1.859   3.043   0.188 -0.9860 -0.1027  1.0899
  761SOL    HW2 2283   1.892   2.980   0.033  0.5004  1.1865  1.0888
  762SOL     OW 2284   2.061   2.094   0.141  0.2355 -0.3491 -0.1726
  762SOL    HW1 2285   2.145   2.094   0.197 -0.0197  1.5055  0.4974
  762SOL    HW2 2286   2.080   2.108   0.040  0.2986  2.1550 -1.7971
  763SOL     OW 2287   0.619   0.919   1.191 -0.1049  0.0952 -0.0595
  763SOL    HW1 2288   0.657   0.920   1.096 -2.0585  0.8123  0.2586
  763SOL    HW2 2289   0.599   1.012   1.233 -0.6753 -3.0017  3.5848
  764SOL     OW 2290   2.512   2.576   2.988 -0.2429  0.5027 -0.2415
  764SOL    HW1 2291   2.561   2.664   2.979  1.4953 -0.8679  0.4833
  764SOL    HW2 2292   2.544   2.513   2.916 -1.6944  1.5012 -1.5382
  765SOL     OW 2293   0.952   0.551   2.343 -0.2682  0.2570  0.2625
  765SOL    HW1 2294   0.977   0.455   2.341  1.0218  0.2321  1.7150
  765SOL    HW2 2295   0.942   0.589   2.253 -0.6053 -1.7703  2.3488
  766SOL     OW 2296   0.159   1.362   2.449  0.8775  0.2440  0.2541
  766SOL    HW1 2297   0.149   1.267   2.481  1.3654 -1.3366 -2.1470
  766SOL    HW2 2298   0.072   1.420   2.450 -3.5170  1.2026 -0.3360
  767SOL     OW 2299   3.076   1.726   2.188  0.0110  0.2397  0.1935
  767SOL    HW1 2300   3.097   1.822   2.217 -1.2762  0.0562  0.8413
  767SOL    HW2 2301   3.016   1.734   2.105 -1.9823 -1.7858 -3.4583
  768SOL     OW 2302   0.889   0.938   2.811  0.1843  0.1071  0.1678
  768SOL    HW1 2303   0.803   0.947   2.867  1.7721  0.8176 -1.0470
  768SOL    HW2 2304   0.905   1.024   2.756  1.4343  0.8201 -0.4952
  769SOL     OW 2305   1.793   2.958   2.995  0.2118  0.2960  0.0363
  769SOL    HW1 2306   1.739   2.872   2.979 -1.0137  2.0811  1.7411
  769SOL    HW2 2307   1.847   2.980   2.912  0.1845 -0.3923 -1.0284
  770SOL     OW 2308   3.054   0.576   2.479 -0.1163  0.0246 -0.3593
  770SOL    HW1 2309   2.968   0.608   2.432 -1.8946 -1.8831  1.2850
  770SOL    HW2 2310   3.097   0.497   2.436  1.0771  1.8394  1.5309
  771SOL     OW 2311   0.724   2.157   1.523 -0.0197  0.3880  0.5613
  771SOL    HW1 2312   0.824   2.122   1.509  1.2751  0.8974 -1.0857
  771SOL    HW2 2313   0.721   2.248   1.488 -1.3210 -2.6886  0.9692
  772SOL     OW 2314   0.672   0.562   2.856 -0.5765 -0.3838 -0.6231
  772SOL    HW1 2315   0.744   0.534   2.781 -0.0045 -0.8613 -2.5402
  772SOL    HW2 2316   0.604   0.627   2.817 -0.0731  2.4285 -2.1151
  773SOL     OW 2317   2.409   1.320   1.720  0.5302 -0.2473  0.3485
  773SOL    HW1 2318   2.416   1.326   1.822 -0.4353  1.8694  0.4888
  773SOL    HW2 2319   2.438   1.230   1.682 -1.1565  1.4694  1.7528
  774SOL     OW 2320   1.104   0.667   0.458 -0.0512  0.5164 -0.4376
  774SOL    HW1 2321   1.127   0.665   0.357  1.2287  0.0152 -1.7922
  774SOL    HW2 2322   1.185   0.642   0.516  1.6435  1.4756 -2.8269
  775SOL     OW 2323   2.005   2.404   2.893 -0.2043  0.7273 -0.2156
  775SOL    HW1 2324   2.028   2.485   2.840  0.6950 -0.4857  1.5003
  775SOL    HW2 2325   2.004   2.433   2.990  1.0893  0.8051 -3.6711
  776SOL     OW 2326   2.378   0.258   1.922 -0.0016  0.2600  0.4864
  776SOL    HW1 2327   2.299   0.193   1.908 -0.8651  3.2248  2.1557
  776SOL    HW2 2328   2.421   0.253   2.015  1.2372 -1.6740 -1.5440
  777SOL     OW 2329   0.469   1.202   2.676 -0.0491  0.2647  0.0951
  777SOL    HW1 2330   0.463   1.112   2.635  0.1081  2.1087  0.6495
  777SOL    HW2 2331   0.462   1.198   2.774  1.7009 -1.0493 -1.1734
  778SOL     OW 2332   0.784   0.109   0.277  0.1363 -0.7597  0.8408
  778SOL    HW1 2333   0.861   0.145   0.221  0.0683  0.2033  0.2810
  778SOL    HW2 2334   0.821   0.037   0.331 -4.7081  2.2122 -0.5414
  779SOL     OW 2335   0.097   1.155   2.861  0.9617  0.3226 -0.1376
  779SOL    HW1 2336   0.001   1.136   2.901  0.8705 -0.7583 -0.2525
  779SOL    HW2 2337   0.136   1.074   2.818  2.1720  1.1619  3.1386
  780SOL     OW 2338   2.210   0.623   2.572  0.3319 -0.0503  0.5225
  780SOL    HW1 2339   2.230   0.526   2.585 -0.4064  0.5482 -0.1256
  780SOL    HW2 2340   2.122   0.637   2.520 -0.8193  2.0878  1.5372
  781SOL     OW 2341   2.236   1.514   1.999 -0.5799  0.1772  0.3813
  781SOL    HW1 2342   2.186   1.426   1.980  3.2961  6.1259 -1.1318
  781SOL    HW2 2343   2.245   1.570   1.910  1.2158  0.0818 -0.2231
  782SOL     OW 2344   1.156   1.863   2.350  0.6690 -0.3328  0.2972
  782SOL    HW1 2345   1.102   1.849   2.264 -1.4637  0.4249  0.4437
  782SOL    HW2 2346   1.108   1.820   2.426  2.2667  3.3123 -2.4201
  783SOL     OW 2347   0.922   3.092   1.139 -0.6026 -0.3342 -0.0313
  783SOL    HW1 2348   0.961   0.010   1.230 -1.4344 -0.0118  2.3853
  783SOL    HW2 2349   0.839   3.031   1.155 -0.9441 -0.2148  0.5730
  784SOL     OW 2350   1.353   0.668   3.043 -0.0110 -0.3803  0.3753
  784SOL    HW1 2351   1.351   0.722   2.956 -1.4753 -0.2874 -1.5605
  784SOL    HW2 2352   1.399   0.714   0.002 -1.1891  1.1286 -2.9677
  785SOL     OW 2353   1.512   0.445   2.955  0.7256  0.1166 -0.4955
  785SOL    HW1 2354   1.480   0.497   3.039  2.6410  0.2930 -2.2424
  785SOL    HW2 2355   1.572   0.502   2.904 -2.4296  1.8604  0.0403
  786SOL     OW 2356   0.087   1.280   0.479  0.2577 -0.2809  0.7673
  786SOL    HW1 2357   0.160   1.306   0.414 -0.7963  2.4905  2.0950
  786SOL    HW2 2358   0.017   1.357   0.473 -0.8721  0.9488 -0.0010
  787SOL     OW 2359   1.742   1.527   0.193  0.1712 -0.0061 -0.3579
  787SOL    HW1 2360   1.809   1.599   0.216 -1.2228  0.4563  2.1128
  787SOL    HW2 2361   1.768   1.440   0.228 -0.5306  1.5768 -0.8530
  788SOL     OW 2362   1.787   1.807   1.179 -0.0940 -0.1261  0.9446
  788SOL    HW1 2363   1.792   1.807   1.283  2.6683 -1.0493  0.6749
  788SOL    HW2 2364   1.845   1.876   1.136  2.0940 -2.5731 -0.9439
  789SOL     OW 2365   3.099   1.422   2.070 -0.3527 -0.2011  0.0246
  789SOL    HW1 2366   3.092   1.497   2.135  2.5278 -2.0116 -3.8481
  789SOL    HW2 2367   3.005   1.376   2.055  0.0202 -0.7867 -2.7481
  790SOL     OW 2368   0.630   0.058   0.069 -0.2201 -0.3328  0.4298
  790SOL    HW1 2369   0.585   3.088   0.097  0.2072 -0.8425 -1.4360
  790SOL    HW2 2370   0.676   0.097   0.150 -1.4163  0.5383  1.7867
  791SOL     OW 2371   0.695   0.066   2.557  0.1244  0.0145  1.0118
  791SOL    HW1 2372   0.696   0.161   2.589 -0.4602 -2.4610 -3.4251
  791SOL    HW2 2373   0.714   0.001   2.627 -3.2490  0.6140 -4.0774
  792SOL     OW 2374   1.964   0.273   2.323 -0.4034  0.4457 -0.6853
  792SOL    HW1 2375   1.951   0.262   2.422 -0.9214 -0.7063 -0.0115
  792SOL    HW2 2376   1.895   0.223   2.266 -0.4296 -1.7269 -1.7700
  793SOL     OW 2377   2.919   0.588   1.221 -0.1463  0.0466  0.4103
  793SOL    HW1 2378   2.918   0.541   1.313 -0.7720 -1.2151  3.6984
  793SOL    HW2 2379   2.999   0.652   1.212  1.6587  1.5474 -0.6529
  794SOL     OW 2380   0.397   0.575   1.996 -0.4488 -0.1944  0.4643
  794SOL    HW1 2381   0.383   0.584   2.094  3.6592  0.6384  1.1946
  794SOL    HW2 2382   0.485   0.624   1.968 -0.4197  1.1155 -0.3001
  795SOL     OW 2383   2.808   1.259   0.225  0.0786 -0.7564  0.2947
  795SOL    HW1 2384   2.776   1.335   0.163  0.2873  2.1351  0.6422
  795SOL    HW2 2385   2.903   1.226   0.205 -0.0736 -2.2951  2.0544
  796SOL     OW 2386   2.854   2.642   0.304 -0.2647  0.2683  0.0082
  796SOL    HW1 2387   2.936   2.697   0.320 -1.8706 -2.2136  0.1803
  796SOL    HW2 2388   2.879   2.586   0.223  2.4231 -2.7885 -0.6636
  797SOL     OW 2389   1.954   2.681   2.368 -0.5382 -0.0758 -0.0198
  797SOL    HW1 2390   1.952   2.610   2.441 -2.0132  1.0039  0.9631
  797SOL    HW2 2391   1.973   2.774   2.410  0.4562 -0.6790 -1.5690
  798SOL     OW 2392   0.196   1.005   0.863 -0.8136 -0.3563  0.1323
  798SOL    HW1 2393   0.134   0.930   0.884 -2.1500  1.1402 -1.3844
  798SOL    HW2 2394   0.142   1.082   0.827  1.1876 -0.6482 -0.4233
  799SOL     OW 2395   2.966   0.573   2.796  0.6544  0.5255  0.7726
  799SOL    HW1 2396   3.013   0.523   2.720  2.4147  1.2870 -2.0708
  799SOL    HW2 2397   3.019   0.653   2.827 -1.5044 -1.3900 -0.2079
  800SOL     OW 2398   2.981   1.854   0.288 -1.1133 -0.0144  0.2586
  800SOL    HW1 2399   3.067   1.798   0.284 -0.6267 -0.4232  0.0415
  800SOL    HW2 2400   2.940   1.847   0.384 -0.0028 -1.4485  1.2823
  801SOL     OW 2401   1.714   1.509   1.170 -0.0116  0.6448 -0.1288
  801SOL    HW1 2402   1.764   1.508   1.257  0.8511  0.8369  0.5208
  801SOL    HW2 2403   1.656   1.593   1.165 -0.1060 -0.9939 -2.4367
  802SOL     OW 2404   1.111   1.859   1.848 -0.0554 -0.1553 -0.3200
  802SOL    HW1 2405   1.186   1.869   1.917  0.6454 -0.6106 -0.7647
  802SOL    HW2 2406   1.117   1.941   1.787 -0.6462  2.6596 -1.2897
  803SOL     OW 2407   0.149   1.865   0.783 -0.1776 -0.6138  0.1523
  803SOL    HW1 2408   0.187   1.784   0.731  3.7673  0.4703  1.8980
  803SOL    HW2 2409   0.142   1.946   0.720  0.6103  0.8881  0.1101
  804SOL     OW 2410   1.026   2.402   1.492 -0.3167  0.2819  0.1643
  804SOL    HW1 2411   1.055   2.335   1.423  0.5466  2.4188  1.3770
  804SOL    HW2 2412   1.082   2.487   1.485  2.9060 -1.2250  0.4290
  805SOL     OW 2413   2.233   1.371   0.112  0.3108 -0.1458 -0.2324
  805SOL    HW1 2414   2.196   1.460   0.079  1.6919 -1.8203  0.5100
  805SOL    HW2 2415   2.297   1.323   0.050 -0.1894  0.2637  0.8643
  806SOL     OW 2416   1.688   2.912   1.156  0.0119 -0.4578  0.4246
  806SOL    HW1 2417   1.718   3.006   1.119  0.8942 -1.3278 -1.5657
  806SOL    HW2 2418   1.586   2.903   1.154 -0.5567 -0.9301  2.5055
  807SOL     OW 2419   2.462   0.469   2.853 -0.4755 -0.3292  0.2330
  807SOL    HW1 2420   2.467   0.561   2.809  0.1995 -0.2045  0.4519
  807SOL    HW2 2421   2.545   0.413   2.820  1.8252 -2.4035 -3.0724
  808SOL     OW 2422   0.133   1.005   0.533  0.0257  0.5804 -0.2618
  808SOL    HW1 2423   0.233   1.009   0.543  0.2559 -1.7639 -1.6717
  808SOL    HW2 2424   0.096   1.097   0.500  1.0808 -0.4641 -1.4402
  809SOL     OW 2425   2.678   0.953   2.314  0.0037 -0.2127 -0.1570
  809SOL    HW1 2426   2.693   1.051   2.332  0.6396 -3.0601 -0.9021
  809SOL    HW2 2427   2.715   0.892   2.387  0.6018 -0.5517 -0.8157
  810SOL     OW 2428   1.573   0.732   1.483  0.1966  0.1412 -0.0866
  810SOL    HW1 2429   1.551   0.634   1.504 -4.0778  2.2017  0.1814
  810SOL    HW2 2430   1.628   0.737   1.399 -2.2700 -0.6316 -2.6642
  811SOL     OW 2431   2.006   2.921   1.580  0.3771  0.4185 -1.2217
  811SOL    HW1 2432   2.051   2.857   1.646  0.0421 -2.9145  2.2602
  811SOL    HW2 2433   2.055   3.007   1.570 -0.4428  1.4739 -0.7402
  812SOL     OW 2434   1.613   0.077   3.040  0.3269 -0.3118 -0.3437
  812SOL    HW1 2435   1.621   0.137   0.002  0.1532 -3.6277  2.6819
  812SOL    HW2 2436   1.690   0.012   3.047 -1.6621  3.1668 -0.6711
  813SOL     OW 2437   1.934   1.084   1.941  0.5239  0.2971 -0.2709
  813SOL    HW1 2438   1.949   1.069   2.040  0.6586  0.1319 -1.4105
  813SOL    HW2 2439   1.988   1.016   1.883  2.6030  1.3874 -0.6640
  814SOL     OW 2440   1.498   1.131   1.912 -0.3471  0.3890  0.2924
  814SOL    HW1 2441   1.578   1.153   1.852  0.8718  2.5928 -1.6666
  814SOL    HW2 2442   1.517   1.188   1.998  1.6831  1.3061  0.9034
  815SOL     OW 2443   0.585   0.723   0.399 -0.1603 -0.1518 -0.0334
  815SOL    HW1 2444   0.661   0.786   0.379 -0.0202  1.0527 -0.7983
  815SOL    HW2 2445   0.593   0.631   0.354  1.5263 -2.9540  0.0751
  816SOL     OW 2446   2.300   1.697   2.898  0.0146  0.6806 -0.0872
  816SOL    HW1 2447   2.214   1.716   2.849  0.5475 -0.2911  0.6850
  816SOL    HW2 2448   2.362   1.772   2.875  1.0978 -2.1316 -1.3566
  817SOL     OW 2449   0.404   2.620   0.696 -0.1757  0.0054 -0.0116
  817SOL    HW1 2450   0.410   2.522   0.726  0.3297  0.7602 -3.8851
  817SOL    HW2 2451   0.304   2.647   0.693 -1.1346 -0.8249  0.5956
  818SOL     OW 2452   1.889   0.366   2.864  0.1725  0.2919 -0.8119
  818SOL    HW1 2453   1.920   0.366   2.965  0.8538 -0.3563  1.1324
  818SOL    HW2 2454   1.838   0.278   2.849 -2.0546  1.6797  2.5356
  819SOL     OW 2455   1.543   0.702   0.440  0.3597  0.3287 -0.5819
  819SOL    HW1 2456   1.479   0.663   0.377  0.2401  2.3331  2.3986
  819SOL    HW2 2457   1.609   0.774   0.400  1.8544  3.2956  2.0548
  820SOL     OW 2458   1.737   1.039   0.525 -0.5064  0.3428  0.2627
  820SOL    HW1 2459   1.712   1.002   0.616  0.8648 -2.6556  2.6285
  820SOL    HW2 2460   1.835   1.077   0.523  0.4990  1.0273 -0.7705
  821SOL     OW 2461   2.447   2.812   0.361  0.2628 -1.1571 -0.1981
  821SOL    HW1 2462   2.403   2.888   0.411  1.2189 -0.0340  1.7024
  821SOL    HW2 2463   2.439   2.826   0.261  2.9615 -1.7268 -0.4631
  822SOL     OW 2464   0.173   2.952   2.188  0.1114  0.2045 -0.1628
  822SOL    HW1 2465   0.164   2.975   2.289 -0.9791  0.4968 -1.5169
  822SOL    HW2 2466   0.217   3.027   2.134  0.5763 -1.3540 -0.1793
  823SOL     OW 2467   2.477   2.213   1.703  0.1378 -0.0295  0.7085
  823SOL    HW1 2468   2.446   2.249   1.790  1.2814  1.3608  1.2427
  823SOL    HW2 2469   2.519   2.123   1.724 -0.5050 -0.6712  1.1685
  824SOL     OW 2470   1.275   2.771   2.387 -0.0482 -0.3012 -0.1471
  824SOL    HW1 2471   1.192   2.717   2.380  1.1207  0.3545 -3.1308
  824SOL    HW2 2472   1.336   2.733   2.459 -1.3799  0.8522 -4.4249
  825SOL     OW 2473   1.596   1.595   0.736  0.3986  0.0723 -0.0648
  825SOL    HW1 2474   1.659   1.525   0.781 -0.2343 -3.0096  1.5452
  825SOL    HW2 2475   1.625   1.606   0.637 -1.1381 -0.9776 -1.7231
  826SOL     OW 2476   1.927   0.953   0.046 -0.3846 -0.4771  0.0204
  826SOL    HW1 2477   1.971   1.001   0.128 -0.2169  0.5482 -1.7405
  826SOL    HW2 2478   1.980   0.870   0.022  0.4866  1.5248  1.2949
  827SOL     OW 2479   0.329   1.285   1.458  0.3242  0.5433 -0.0606
  827SOL    HW1 2480   0.242   1.295   1.400 -2.2860 -0.6569 -1.6199
  827SOL    HW2 2481   0.389   1.362   1.430 -4.8006 -1.9082  2.2820
  828SOL     OW 2482   1.869   1.554   2.068  0.4955 -0.3862  0.0094
  828SOL    HW1 2483   1.774   1.550   2.032  0.1908  1.2703 -0.0567
  828SOL    HW2 2484   1.938   1.558   1.991  2.6825 -0.0844  0.9888
  829SOL     OW 2485   0.074   1.677   0.287 -0.7677  0.1373  0.2053
  829SOL    HW1 2486   0.111   1.654   0.195 -0.5474  1.6711 -2.9942
  829SOL    HW2 2487   0.144   1.737   0.329 -0.6164 -1.4290 -0.2581
  830SOL     OW 2488   1.259   0.580   0.658 -0.4258  0.1523  0.0957
  830SOL    HW1 2489   1.318   0.500   0.666  0.4699  3.6438  0.2406
  830SOL    HW2 2490   1.179   0.566   0.717 -1.3199 -3.2856 -1.3858
  831SOL     OW 2491   2.719   1.419   0.025 -0.4860  0.1204 -0.5058
  831SOL    HW1 2492   2.730   1.385   3.047  0.7521 -1.4725  1.9192
  831SOL    HW2 2493   2.721   1.519   0.038 -0.2562 -1.6770 -1.1513
  832SOL     OW 2494   1.016   2.964   0.063  0.2597 -0.3051  0.1906
  832SOL    HW1 2495   0.980   2.954   3.087 -2.8793 -0.0383  0.4835
  832SOL    HW2 2496   1.079   3.046   0.069  4.1245  2.9471 -0.6396
  833SOL     OW 2497   1.051   0.658   2.098 -0.1718 -0.1749 -0.1093
  833SOL    HW1 2498   1.138   0.606   2.112  4.1012 -1.6595  0.4915
  833SOL    HW2 2499   1.061   0.759   2.089 -2.2962  0.1650  0.0194
  834SOL     OW 2500   0.037   0.726   1.171 -0.1744  0.6141  0.0998
  834SOL    HW1 2501   0.076   0.819   1.171 -1.3651 -4.1106 -0.6757
  834SOL    HW2 2502   0.074   0.657   1.098  2.4390  1.3879 -0.2103
  835SOL     OW 2503   2.961   0.443   1.453  0.3945 -0.1134  0.3335
  835SOL    HW1 2504   2.865   0.427   1.477 -0.3698 -0.9433  0.2569
  835SOL    HW2 2505   3.008   0.359   1.486 -1.2164  0.8143  1.1107
  836SOL     OW 2506   0.494   2.023   0.533 -0.7952  0.1075 -0.3180
  836SOL    HW1 2507   0.491   1.945   0.465  0.7567 -1.6794 -0.2951
  836SOL    HW2 2508   0.591   2.044   0.564  1.7773 -1.3015 -1.9561
  837SOL     OW 2509   2.139   1.860   2.281 -0.0536 -0.6512 -0.0479
  837SOL    HW1 2510   2.207   1.931   2.251  1.2239 -0.3129 -0.8391
  837SOL    HW2 2511   2.104   1.877   2.378 -0.5610 -2.7466  1.2114
  838SOL     OW 2512   0.079   1.357   1.817  0.4653 -0.2021 -0.1335
  838SOL    HW1 2513   0.164   1.302   1.816 -1.6857  1.0097 -2.1852
  838SOL    HW2 2514   0.054   1.401   1.907  0.2270  1.5738  0.7883
  839SOL     OW 2515   0.360   0.345   0.718  0.1626  0.6077 -0.5073
  839SOL    HW1 2516   0.294   0.274   0.749 -0.6443 -0.5934  0.7144
  839SOL    HW2 2517   0.442   0.301   0.680 -1.5047 -0.2684  0.4183
  840SOL     OW 2518   2.984   0.189   2.779 -0.1239 -0.0259  0.3526
  840SOL    HW1 2519   3.081   0.215   2.774  1.8374  1.6133  2.2659
  840SOL    HW2 2520   2.938   0.231   2.859 -0.5264 -1.0772 -2.0863
  841SOL     OW 2521   0.497   2.928   0.138 -0.2521 -0.0827 -0.0701
  841SOL    HW1 2522   0.419   2.894   0.077 -1.4673  0.0369 -0.1511
  841SOL    HW2 2523   0.558   2.846   0.158  1.9418  0.8611 -1.6108
  842SOL     OW 2524   0.864   0.015   0.886  0.0939  0.0532  0.2819
  842SOL    HW1 2525   0.775   0.065   0.886  0.5398 -0.3648  0.6755
  842SOL    HW2 2526   0.895   3.113   0.980 -2.0446  4.1109 -1.4831
  843SOL     OW 2527   0.210   0.942   2.742  0.2243 -0.1293 -0.0473
  843SOL    HW1 2528   0.177   0.890   2.664  1.0367 -2.9444  0.2831
  843SOL    HW2 2529   0.291   0.894   2.782 -1.9523 -2.4482 -3.3226
  844SOL     OW 2530   0.812   2.211   2.504  0.0976 -0.5399  0.3675
  844SOL    HW1 2531   0.746   2.218   2.423 -3.4796  0.9629 -1.2845
  844SOL    HW2 2532   0.908   2.186   2.470  1.4313 -0.4711  1.6985
  845SOL     OW 2533   2.321   2.660   2.569 -0.3500 -0.7237 -0.2612
  845SOL    HW1 2534   2.371   2.707   2.642 -0.3995 -2.6423 -0.9970
  845SOL    HW2 2535   2.266   2.728   2.520  1.6823  0.0147 -2.0317
  846SOL     OW 2536   1.753   1.571   2.298 -0.1968  0.1923 -0.1958
  846SOL    HW1 2537   1.800   1.557   2.205 -0.1983  1.7542 -1.8102
  846SOL    HW2 2538   1.694   1.482   2.321  0.0782 -3.9194 -0.4483
  847SOL     OW 2539   2.780   3.030   2.973  0.6160 -0.3629  0.6705
  847SOL    HW1 2540   2.866   3.016   2.925 -1.6568  1.3685  0.4643
  847SOL    HW2 2541   2.796   3.078   3.062  2.3194  2.7651 -0.0970
  848SOL     OW 2542   0.182   0.602   0.333  0.1319 -0.4264 -0.1081
  848SOL    HW1 2543   0.126   0.687   0.337 -1.8262  0.7528 -2.4340
  848SOL    HW2 2544   0.246   0.591   0.412  4.1837  0.6378 -1.1658
  849SOL     OW 2545   1.386   3.108   2.045 -0.5641  0.3919 -0.0989
  849SOL    HW1 2546   1.342   3.014   2.072 -0.1322  0.4999 -1.1884
  849SOL    HW2 2547   1.349   0.069   2.100 -2.1506  0.7783  2.1431
  850SOL     OW 2548   0.588   0.809   0.660 -0.1121 -0.1349  0.6777
  850SOL    HW1 2549   0.575   0.774   0.565  1.9489  0.0946 -1.3044
  850SOL    HW2 2550   0.660   0.882   0.656  1.0525 -2.2246  2.5421
  851SOL     OW 2551   0.256   1.390   0.289 -0.0484  0.9705  0.3936
  851SOL    HW1 2552   0.265   1.482   0.247  0.1763 -0.2025  0.0874
  851SOL    HW2 2553   0.349   1.362   0.331 -0.6319 -0.1171  0.0226
  852SOL     OW 2554   1.469   0.875   1.965 -0.0768  0.1912 -0.0954
  852SOL    HW1 2555   1.481   0.974   1.941 -1.9428  3.4411  2.2028
  852SOL    HW2 2556   1.551   0.843   2.014  1.7144  1.1347 -0.8678
  853SOL     OW 2557   2.734   1.496   0.437 -0.3298 -0.1843  0.5115
  853SOL    HW1 2558   2.751   1.458   0.532 -1.3115 -0.8021  0.2990
  853SOL    HW2 2559   2.749   1.425   0.361  0.4801  0.2735 -3.0181
  854SOL     OW 2560   1.145   1.021   2.334 -0.2924 -0.4085 -0.3471
  854SOL    HW1 2561   1.053   1.012   2.377 -1.3420  1.9141 -0.2000
  854SOL    HW2 2562   1.217   0.971   2.390 -2.2706  0.1945 -1.8432
  855SOL     OW 2563   0.293   2.833   3.096 -0.3472  0.5487 -0.1679
  855SOL    HW1 2564   0.209   2.889   0.006 -0.4576  1.1450  1.3075
  855SOL    HW2 2565   0.265   2.739   3.065 -1.0906  2.3203 -0.6020
  856SOL     OW 2566   1.346   0.787   2.363  0.1199 -0.1067 -0.5164
  856SOL    HW1 2567   1.346   0.766   2.265 -1.2608 -1.0269  2.4449
  856SOL    HW2 2568   1.299   0.704   2.408 -1.1931  0.1425 -0.7366
  857SOL     OW 2569   1.493   0.821   2.577 -0.0796  0.1837  0.7979
  857SOL    HW1 2570   1.579   0.764   2.560  1.7079  1.1099 -1.1361
  857SOL    HW2 2571   1.432   0.822   2.494 -1.4406 -1.5483  1.7418
  858SOL     OW 2572   0.063   1.057   2.189  0.2153 -0.2781 -0.1972
  858SOL    HW1 2573   0.099   1.137   2.135  2.2048  0.8774 -2.2252
  858SOL    HW2 2574   0.053   1.079   2.291  0.2629  0.0181  1.4762
  859SOL     OW 2575   2.576   0.234   0.605  0.2107  0.1188  0.2142
  859SOL    HW1 2576   2.660   0.235   0.657 -1.8655  0.4164  0.5152
  859SOL    HW2 2577   2.588   0.201   0.508 -0.4236 -0.9917 -1.2359
  860SOL     OW 2578   1.750   2.969   0.332  0.0494  0.4411  0.6077
  860SOL    HW1 2579   1.788   3.035   0.399 -0.4722  0.5095  0.1605
  860SOL    HW2 2580   1.773   2.877   0.357 -0.7269 -0.3911 -0.6493
  861SOL     OW 2581   1.238   0.510   1.120  0.6915  0.4452 -0.2654
  861SOL    HW1 2582   1.170   0.544   1.185  3.1249 -0.9212  0.8555
  861SOL    HW2 2583   1.206   0.419   1.088 -0.8417  0.3136  0.1651
  862SOL     OW 2584   1.488   0.169   2.478  0.2883 -0.1810 -0.1152
  862SOL    HW1 2585   1.588   0.142   2.473  2.2429  2.2801 -1.4903
  862SOL    HW2 2586   1.463   0.253   2.423 -0.1957  0.3231 -0.8516
  863SOL     OW 2587   2.714   2.607   0.717 -0.2288 -0.4636  0.3630
  863SOL    HW1 2588   2.705   2.666   0.633  2.2038 -1.7543  1.2753
  863SOL    HW2 2589   2.777   2.531   0.693 -0.1990  0.9844  1.5889
  864SOL     OW 2590   2.614   0.032   2.154  0.2942 -0.5261  0.3246
  864SOL    HW1 2591   2.610   3.091   2.070  1.8902  0.5985  0.2209
  864SOL    HW2 2592   2.698   0.020   2.212  2.0310 -0.1099  1.9779
  865SOL     OW 2593   1.232   1.182   1.934 -0.0648  0.0491  0.7445
  865SOL    HW1 2594   1.180   1.139   1.860  0.7990  0.9279 -3.3251
  865SOL    HW2 2595   1.332   1.169   1.917  2.3749 -0.0928 -0.5717
  866SOL     OW 2596   1.864   2.703   0.817 -0.5617 -0.1410 -0.1065
  866SOL    HW1 2597   1.775   2.695   0.769  1.0792 -0.4073  0.5897
  866SOL    HW2 2598   1.846   2.723   0.916  1.3639  1.1374  1.1210
  867SOL     OW 2599   2.322   3.044   0.456 -0.7765 -0.3631 -0.5771
  867SOL    HW1 2600   2.354   3.079   0.552  1.1835  1.6190  1.7616
  867SOL    HW2 2601   2.313   0.009   0.398 -1.5324  2.3759  1.6640
  868SOL     OW 2602   2.985   2.104   1.716 -0.1955 -0.1508  0.2508
  868SOL    HW1 2603   3.019   2.105   1.619  3.2449  1.1910  0.5592
  868SOL    HW2 2604   3.064   2.102   1.781  0.8657 -2.5104  3.3967
  869SOL     OW 2605   2.191   2.439   2.252  0.6970  0.6937 -0.5301
  869SOL    HW1 2606   2.092   2.428   2.227 -1.9312 -0.0924 -0.1262
  869SOL    HW2 2607   2.206   2.426   2.353 -0.7121  0.1769  3.5943
  870SOL     OW 2608   1.391   1.435   0.816 -0.0350 -0.1009  0.0879
  870SOL    HW1 2609   1.446   1.519   0.786  0.0024  0.3164 -0.8106
  870SOL    HW2 2610   1.444   1.349   0.817 -0.6981 -0.1175  1.5937
  871SOL     OW 2611   2.856   1.677   1.982 -0.6085 -0.1038  0.6731
  871SOL    HW1 2612   2.873   1.778   1.983 -0.2047 -1.1467 -0.3137
  871SOL    HW2 2613   2.863   1.642   1.889 -0.0079 -1.3506 -0.4753
  872SOL     OW 2614   0.938   1.610   2.798  0.1440 -0.2421  0.4114
  872SOL    HW1 2615   0.995   1.663   2.731 -0.7005 -0.2939  1.8510
  872SOL    HW2 2616   0.841   1.605   2.770  0.8804 -1.4209 -2.1830
  873SOL     OW 2617   0.812   1.208   1.803 -1.1234 -0.2874  0.0109
  873SOL    HW1 2618   0.805   1.303   1.830  1.5130 -2.2248 -0.1547
  873SOL    HW2 2619   0.817   1.143   1.886  0.2555 -1.8638  2.2042
  874SOL     OW 2620   1.736   1.153   1.762  0.2409 -0.3837  0.2295
  874SOL    HW1 2621   1.712   1.069   1.711 -1.4566 -0.9222  0.0981
  874SOL    HW2 2622   1.809   1.132   1.830 -1.5064 -0.5443  2.1581
  875SOL     OW 2623   2.839   0.048   0.097  0.1951 -0.3160  0.5251
  875SOL    HW1 2624   2.828   3.072   0.145  1.4189 -2.9522  2.6464
  875SOL    HW2 2625   2.907   0.103   0.147 -1.7145  0.5417  2.9022
  876SOL     OW 2626   0.665   1.128   0.263 -0.1219  0.7748 -0.3678
  876SOL    HW1 2627   0.686   1.031   0.272  0.7108 -0.9373  0.4243
  876SOL    HW2 2628   0.753   1.179   0.277 -1.3808 -0.1459  3.8818
  877SOL     OW 2629   2.676   2.748   0.483 -0.0869  0.4340  1.0395
  877SOL    HW1 2630   2.586   2.771   0.440  0.4799  1.5194 -0.0184
  877SOL    HW2 2631   2.726   2.694   0.415  0.0099 -0.6627  1.7758
  878SOL     OW 2632   2.068   1.781   0.603 -0.5626  0.2500 -0.0733
  878SOL    HW1 2633   2.118   1.824   0.518 -0.4130 -0.7297 -1.2158
  878SOL    HW2 2634   1.974   1.819   0.611  0.9478  0.9787 -0.3595
  879SOL     OW 2635   2.694   1.664   1.435 -0.2557 -0.0857 -0.3737
  879SOL    HW1 2636   2.661   1.570   1.456 -0.6452 -0.8530  1.4206
  879SOL    HW2 2637   2.658   1.706   1.349  1.2635  0.4019 -1.0543
  880SOL     OW 2638   0.436   2.108   1.035  0.6454 -0.2199 -0.4705
  880SOL    HW1 2639   0.442   2.061   1.121 -0.5798  1.5523 -1.4790
  880SOL    HW2 2640   0.446   2.041   0.963 -0.8807  1.1830  1.9391
  881SOL     OW 2641   0.712   0.540   1.220 -0.0410 -0.1412  0.0395
  881SOL    HW1 2642   0.727   0.627   1.269  1.8447 -0.1401  0.0146
  881SOL    HW2 2643   0.622   0.538   1.173 -0.8292 -0.8615  0.7981
  882SOL     OW 2644   2.414   1.368   1.326  0.3733 -0.0342 -0.1670
  882SOL    HW1 2645   2.373   1.364   1.231 -1.1801  0.5209 -2.2020
  882SOL    HW2 2646   2.515   1.364   1.323 -0.4354  0.8580 -0.0866
  883SOL     OW 2647   1.445   0.238   1.534  0.2137 -0.0539 -0.0800
  883SOL    HW1 2648   1.483   0.197   1.620 -0.6656  1.8878  1.1289
  883SOL    HW2 2649   1.453   0.167   1.457 -0.2068 -1.8912 -0.7955
  884SOL     OW 2650   2.988   0.331   1.839 -0.1365 -0.1296  0.5520
  884SOL    HW1 2651   3.073   0.386   1.869  0.8781  6.1626 -0.5205
  884SOL    HW2 2652   2.912   0.394   1.833  3.6252 -0.0466  1.2163
  885SOL     OW 2653   1.360   1.598   2.981  0.1183 -0.0606  0.2843
  885SOL    HW1 2654   1.302   1.673   2.949 -0.9895 -0.4013  2.0493
  885SOL    HW2 2655   1.458   1.599   2.945  0.1616 -1.0783  0.0149
  886SOL     OW 2656   2.012   0.335   3.102 -0.4852  0.1334 -0.7825
  886SOL    HW1 2657   1.994   0.310   0.083 -0.7760  0.4403  1.1167
  886SOL    HW2 2658   2.102   0.381   3.091 -0.7497  3.1146 -1.4400
  887SOL     OW 2659   1.500   3.034   1.520 -0.0038 -0.4587  0.2881
  887SOL    HW1 2660   1.531   3.080   1.432  2.9531 -1.1378  1.4430
  887SOL    HW2 2661   1.581   2.986   1.552 -2.8175  3.3251 -2.6314
  888SOL     OW 2662   1.933   1.832   2.088  0.3211 -0.2782 -0.6656
  888SOL    HW1 2663   1.899   1.736   2.094  2.4108  2.6551 -0.4726
  888SOL    HW2 2664   1.997   1.849   2.168  1.0612  1.5683 -1.5833
  889SOL     OW 2665   2.078   2.319   0.471 -0.3224 -0.2435  0.2506
  889SOL    HW1 2666   2.148   2.266   0.418  1.5421 -0.6198 -2.7709
  889SOL    HW2 2667   2.081   2.417   0.456  1.8021 -0.1604  0.6067
  890SOL     OW 2668   1.404   2.113   0.608  0.3864  0.3808  0.8409
  890SOL    HW1 2669   1.314   2.158   0.609  1.0977 -0.6498  0.7032
  890SOL    HW2 2670   1.429   2.083   0.512  2.5137 -1.6260 -0.2547
  891SOL     OW 2671   2.839   0.884   0.002 -0.6043  0.2379  0.5244
  891SOL    HW1 2672   2.801   0.800   0.041  1.0287  0.0842 -0.2377
  891SOL    HW2 2673   2.764   0.954   3.111  0.4507  1.5313 -1.9316
  892SOL     OW 2674   2.086   0.604   2.863 -0.3864  0.3987 -0.2975
  892SOL    HW1 2675   2.069   0.637   2.769 -1.1646  0.8946 -1.2051
  892SOL    HW2 2676   2.008   0.549   2.899 -2.7514  1.4633  0.2720
  893SOL     OW 2677   1.714   2.726   1.431 -0.1073 -0.1565 -0.1250
  893SOL    HW1 2678   1.706   2.813   1.480  1.1310  2.0297 -2.1828
  893SOL    HW2 2679   1.789   2.663   1.455  0.2232  0.7794 -0.2087
  894SOL     OW 2680   2.833   3.014   0.437  0.4309 -0.0274  0.0512
  894SOL    HW1 2681   2.808   2.969   0.348  1.3122  1.4644  0.9239
  894SOL    HW2 2682   2.803   2.957   0.511  0.5812 -1.8495 -1.7545
  895SOL     OW 2683   2.088   2.135   3.001 -0.1980  0.5140 -0.1964
  895SOL    HW1 2684   2.168   2.111   2.943 -0.1447 -0.0269  0.7817
  895SOL    HW2 2685   2.033   2.215   2.963  1.3858 -1.8299  0.3450
  896SOL     OW 2686   2.267   0.017   2.468 -0.0943  0.3891 -0.4500
  896SOL    HW1 2687   2.270   0.091   2.535  1.7059 -3.9882  0.1856
  896SOL    HW2 2688   2.239   0.052   2.375  2.0049 -0.1237 -1.4905
  897SOL     OW 2689   0.337   1.696   1.962 -0.3358  0.3790 -0.6192
  897SOL    HW1 2690   0.356   1.600   1.933 -1.2977 -1.9615 -2.0307
  897SOL    HW2 2691   0.417   1.758   1.970  0.3717  1.4182 -2.7727
  898SOL     OW 2692   2.316   1.736   1.801  0.1365  0.0103  0.4145
  898SOL    HW1 2693   2.322   1.802   1.723  1.7234 -0.1945 -3.3032
  898SOL    HW2 2694   2.407   1.733   1.851  1.5581 -0.1323  0.1442
  899SOL     OW 2695   1.737   2.672   1.059 -0.1848 -0.3518 -0.4599
  899SOL    HW1 2696   1.662   2.641   0.995  0.1775  0.7917 -2.3515
  899SOL    HW2 2697   1.718   2.769   1.091 -1.2731  4.0114 -0.0538
  900SOL     OW 2698   1.082   0.895   0.051 -0.5236  0.7380  0.5263
  900SOL    HW1 2699   1.103   0.912   3.069 -0.7978  2.9482  0.1104
  900SOL    HW2 2700   0.979   0.884   0.065 -1.7531  1.6199  2.7341
  901SOL     OW 2701   1.198   1.543   2.348 -0.0811  0.3936  0.5503
  901SOL    HW1 2702   1.108   1.551   2.314  5.0279 -0.8966  1.1704
  901SOL    HW2 2703   1.268   1.569   2.277 -1.1079  0.2273 -2.3481
  902SOL     OW 2704   0.078   2.451   0.157 -0.1294 -0.2978  0.0746
  902SOL    HW1 2705   0.120   2.358   0.157 -0.1140 -2.0225 -1.6496
  902SOL    HW2 2706   3.092   2.453   0.161  1.0188 -1.1644  2.2538
  903SOL     OW 2707   2.341   0.907   1.831 -0.0455 -0.2703 -0.1274
  903SOL    HW1 2708   2.404   0.828   1.827 -2.5061  2.9923  0.9033
  903SOL    HW2 2709   2.370   0.972   1.905 -0.3017 -0.1724  0.0912
  904SOL     OW 2710   1.699   0.678   3.052 -0.4141  0.0094 -0.0079
  904SOL    HW1 2711   1.638   0.754   3.080  1.7723 -0.9529 -2.2488
  904SOL    HW2 2712   1.760   0.644   0.010 -0.0256 -1.1256  0.8536
  905SOL     OW 2713   2.200   2.468   1.150  0.3482  0.1178 -0.4034
  905SOL    HW1 2714   2.195   2.570   1.155 -1.8445  0.3554 -0.1964
  905SOL    HW2 2715   2.246   2.431   1.070 -1.6055 -1.2594 -0.3919
  906SOL     OW 2716   1.494   1.911   3.014 -0.1136  0.6086 -0.2439
  906SOL    HW1 2717   1.527   1.835   3.079 -2.5547  1.2211  2.7722
  906SOL    HW2 2718   1.562   1.987   3.023  0.8549  0.7093  0.7633
  907SOL     OW 2719   0.677   2.651   0.642  0.0876  0.2823 -0.6760
  907SOL    HW1 2720   0.581   2.621   0.655  0.2365  0.9540 -4.2758
  907SOL    HW2 2721   0.722   2.595   0.570 -0.9490  1.4383 -2.6744
  908SOL     OW 2722   1.243   2.815   1.952  0.5773  0.0274  0.1419
  908SOL    HW1 2723   1.229   2.714   1.954  0.5165  2.0935 -0.3064
  908SOL    HW2 2724   1.312   2.844   1.884 -0.1703 -2.2871 -0.3755
  909SOL     OW 2725   1.712   0.443   1.105 -0.0450  0.2540  0.0126
  909SOL    HW1 2726   1.692   0.362   1.169 -0.5993 -2.0195 -0.0244
  909SOL    HW2 2727   1.630   0.504   1.088  1.5220  0.7140  1.8653
  910SOL     OW 2728   1.152   0.958   2.911  0.2043  0.4496 -0.0026
  910SOL    HW1 2729   1.061   0.960   2.866  1.1588 -0.9148  2.2949
  910SOL    HW2 2730   1.218   0.907   2.854  1.3725  1.7217 -0.4997
  911SOL     OW 2731   2.696   0.664   0.100  0.1531  0.2391  0.6134
  911SOL    HW1 2732   2.596   0.673   0.080  0.1849  0.6750 -0.1678
  911SOL    HW2 2733   2.715   0.623   0.196  1.9529 -2.0247  3.4399
  912SOL     OW 2734   3.096   2.155   3.042  0.4367  0.3451  0.3000
  912SOL    HW1 2735   0.009   2.071   2.992  1.9473  2.0428  2.7438
  912SOL    HW2 2736   0.043   2.175   3.117 -0.9104  1.2484  2.0950
  913SOL     OW 2737   2.689   1.955   2.694 -0.1567  0.1904  0.2288
  913SOL    HW1 2738   2.729   2.034   2.741 -1.0039 -2.3391  1.3936
  913SOL    HW2 2739   2.733   1.866   2.725 -0.4854  1.2600  1.0868
  914SOL     OW 2740   1.269   1.632   1.667 -0.0954 -0.4487 -0.0384
  914SOL    HW1 2741   1.302   1.681   1.583 -1.7606  0.7692 -0.9124
  914SOL    HW2 2742   1.250   1.695   1.745  0.2844  4.0884 -0.2032
  915SOL     OW 2743   0.780   2.622   2.144 -0.0337  0.4215 -0.4806
  915SOL    HW1 2744   0.851   2.671   2.091  0.0259  2.8052  3.0213
  915SOL    HW2 2745   0.737   2.691   2.207  0.4368  0.2376 -1.7715
  916SOL     OW 2746   0.337   1.260   1.736 -0.0955 -0.3566  0.1508
  916SOL    HW1 2747   0.385   1.171   1.754 -1.8026  1.0835  1.2688
  916SOL    HW2 2748   0.311   1.271   1.634  1.2095  1.0876 -0.6728
  917SOL     OW 2749   2.318   0.163   0.326 -0.2851 -1.1073  0.2138
  917SOL    HW1 2750   2.268   0.127   0.245  1.9143  0.3777 -0.0362
  917SOL    HW2 2751   2.414   0.137   0.326  0.7666  1.0844  1.6466
  918SOL     OW 2752   1.680   2.594   2.316 -0.1813  0.2408 -0.2924
  918SOL    HW1 2753   1.768   2.642   2.333 -2.0450  1.2793  1.1983
  918SOL    HW2 2754   1.679   2.510   2.373  2.5647 -3.2026 -0.6539
  919SOL     OW 2755   1.611   2.623   1.888  0.4932 -0.1285  0.1638
  919SOL    HW1 2756   1.640   2.694   1.954  0.5214  0.2321  1.3216
  919SOL    HW2 2757   1.694   2.589   1.831 -0.2165 -1.4490 -1.3898
  920SOL     OW 2758   0.684   1.045   2.952 -0.4751  0.0232  0.0235
  920SOL    HW1 2759   0.704   1.133   2.916 -2.7044 -2.3772  1.5340
  920SOL    HW2 2760   0.589   1.041   2.983  2.2555  0.5770 -0.0682
  921SOL     OW 2761   0.112   0.532   2.679 -0.1025 -0.4037 -0.0300
  921SOL    HW1 2762   0.046   0.575   2.612 -0.2511  0.8571 -0.4316
  921SOL    HW2 2763   0.201   0.580   2.657 -0.8584  3.0253  1.7961
  922SOL     OW 2764   0.760   2.034   0.639 -0.3327  0.1969 -0.7518
  922SOL    HW1 2765   0.786   1.945   0.592 -0.1024 -1.5486 -1.9974
  922SOL    HW2 2766   0.747   2.016   0.738  2.2118 -2.7424 -1.0489
  923SOL     OW 2767   0.422   1.127   2.147 -0.0834 -0.6078  0.8528
  923SOL    HW1 2768   0.446   1.083   2.059 -1.2389 -1.7676 -0.2025
  923SOL    HW2 2769   0.348   1.198   2.128  0.4055  1.3247 -0.3554
  924SOL     OW 2770   1.493   3.009   2.667 -0.0818  0.1760 -0.1667
  924SOL    HW1 2771   1.420   3.077   2.671  2.4277 -0.4561 -1.2323
  924SOL    HW2 2772   1.489   2.959   2.761 -0.0231 -0.7556  4.2497
  925SOL     OW 2773   2.627   1.429   1.543  0.3330  0.0037 -0.4082
  925SOL    HW1 2774   2.550   1.389   1.599 -2.6669 -2.8931 -1.8692
  925SOL    HW2 2775   2.658   1.355   1.479 -0.4460 -1.0620 -1.4221
  926SOL     OW 2776   1.974   0.865   1.495  0.3175 -0.4398  0.1818
  926SOL    HW1 2777   2.049   0.883   1.432 -0.6789 -1.2327 -0.0002
  926SOL    HW2 2778   1.954   0.763   1.497  1.9671 -3.8528 -2.3363
  927SOL     OW 2779   2.357   2.949   1.298  0.4515  0.6426  0.3799
  927SOL    HW1 2780   2.338   2.984   1.390 -1.2695  0.9650  0.2145
  927SOL    HW2 2781   2.338   3.014   1.224 -1.4121 -2.5872  1.0720
  928SOL     OW 2782   0.317   0.782   2.209  0.1234 -0.3363  0.4985
  928SOL    HW1 2783   0.314   0.860   2.276  0.9751 -0.4928 -2.0443
  928SOL    HW2 2784   0.329   0.822   2.115  1.1771  1.9470 -0.2017
  929SOL     OW 2785   2.519   0.484   0.724 -0.3253 -0.4645 -0.8190
  929SOL    HW1 2786   2.545   0.413   0.654  0.0840 -3.5348 -1.9019
  929SOL    HW2 2787   2.603   0.526   0.763  3.0216 -1.4177  1.9093
  930SOL     OW 2788   2.882   2.996   1.796  0.0449  0.2148 -0.5179
  930SOL    HW1 2789   2.870   2.910   1.845  2.1760  1.3923 -1.1822
  930SOL    HW2 2790   2.872   2.980   1.699 -0.3665 -0.4986  1.1905
  931SOL     OW 2791   2.007   1.156   0.536  0.0528 -0.1795  0.6531
  931SOL    HW1 2792   1.998   1.150   0.634  0.8355  0.7015 -1.8706
  931SOL    HW2 2793   2.101   1.132   0.505 -0.7825 -1.2188 -0.4886
  932SOL     OW 2794   2.603   1.225   1.940  0.2101 -0.0544 -0.4402
  932SOL    HW1 2795   2.523   1.169   1.972  2.3118  1.3325 -0.8921
  932SOL    HW2 2796   2.634   1.186   1.849  1.3448  2.8937 -2.6947
  933SOL     OW 2797   2.790   2.279   1.832  0.2975  0.0452  0.4956
  933SOL    HW1 2798   2.692   2.280   1.861  1.3366 -1.2729 -0.5321
  933SOL    HW2 2799   2.833   2.204   1.884 -2.0097  0.8189 -0.9263
  934SOL     OW 2800   0.454   2.069   1.521 -1.0465 -0.5359 -0.5811
  934SOL    HW1 2801   0.552   2.109   1.515 -1.4887  0.2521 -1.6570
  934SOL    HW2 2802   0.390   2.116   1.584 -0.3344  1.6112 -1.8220
  935SOL     OW 2803   2.691   1.598   2.192  0.2519  0.0447 -0.5675
  935SOL    HW1 2804   2.758   1.631   2.121 -0.8678 -1.5191  1.2571
  935SOL    HW2 2805   2.610   1.550   2.154 -0.1946  3.7006 -0.8674
  936SOL     OW 2806   2.334   1.702   2.170  0.0475 -0.6117 -0.3896
  936SOL    HW1 2807   2.291   1.632   2.109  2.7426 -0.9830 -0.6644
  936SOL    HW2 2808   2.264   1.766   2.219  0.1902  3.0343  1.7101
  937SOL     OW 2809   2.034   1.618   1.815  0.4127 -0.7785  0.2905
  937SOL    HW1 2810   2.024   1.537   1.752 -1.1398 -0.1604 -1.1576
  937SOL    HW2 2811   2.112   1.681   1.793  1.8471  1.9905  1.6650
  938SOL     OW 2812   0.607   2.470   2.632 -1.0186 -0.6392  0.8765
  938SOL    HW1 2813   0.708   2.480   2.639  1.6313  0.1994  0.2935
  938SOL    HW2 2814   0.554   2.444   2.716  0.0413  0.8006  0.1006
  939SOL     OW 2815   2.286   1.046   3.025 -0.5514 -0.4303 -0.3775
  939SOL    HW1 2816   2.195   1.085   2.999 -1.8046  0.7701 -1.3871
  939SOL    HW2 2817   2.275   1.012   0.003  0.2114 -0.7531 -1.3221
  940SOL     OW 2818   1.032   1.684   0.748  0.4380  0.8087  0.3838
  940SOL    HW1 2819   1.104   1.625   0.708 -0.2774  1.1581  2.4552
  940SOL    HW2 2820   1.071   1.735   0.834  1.2823  0.9489  1.1000
  941SOL     OW 2821   1.685   2.921   2.465  0.2150 -0.2859  0.0049
  941SOL    HW1 2822   1.621   2.946   2.540 -0.9896  1.2621 -0.1837
  941SOL    HW2 2823   1.638   2.900   2.377 -1.0335  1.7658  0.1886
  942SOL     OW 2824   0.808   2.472   0.470  0.0081  0.6089  0.0438
  942SOL    HW1 2825   0.788   2.442   0.374 -1.6076  1.9291  1.0743
  942SOL    HW2 2826   0.910   2.477   0.475 -0.0314  0.5039  2.6279
  943SOL     OW 2827   1.780   0.081   1.698  0.3035 -0.0085  0.4006
  943SOL    HW1 2828   1.686   0.110   1.712  0.0902  0.0636 -0.1774
  943SOL    HW2 2829   1.837   0.154   1.653  0.8060  2.2638  2.3668
  944SOL     OW 2830   0.883   1.427   2.983 -0.5216  0.0857 -0.3753
  944SOL    HW1 2831   0.916   1.483   2.903  0.8952  3.0897 -1.0781
  944SOL    HW2 2832   0.854   1.337   2.948 -0.4139  2.1707 -0.0255
  945SOL     OW 2833   3.078   2.348   1.032  0.7736  0.4047  0.3071
  945SOL    HW1 2834   2.986   2.305   1.039  1.4088  1.9184 -1.3515
  945SOL    HW2 2835   0.031   2.277   0.999  1.8243 -0.1970 -0.3182
  946SOL     OW 2836   0.761   1.262   2.822  0.1160 -0.8257  0.9152
  946SOL    HW1 2837   0.807   1.227   2.738  1.1740 -0.0379  0.5899
  946SOL    HW2 2838   0.732   1.356   2.800 -0.6246  1.3283  1.3013
  947SOL     OW 2839   2.813   0.153   1.747 -1.6091  0.0393 -0.2455
  947SOL    HW1 2840   2.893   0.212   1.774  3.8899 -2.4457  0.2080
  947SOL    HW2 2841   2.835   0.053   1.756  0.3418 -3.0045  1.0225
  948SOL     OW 2842   0.058   2.019   1.205  0.5515 -0.7181  0.7267
  948SOL    HW1 2843   0.026   1.926   1.225  0.6062  0.7724  1.8889
  948SOL    HW2 2844   0.070   2.071   1.292 -0.4902 -0.3762 -0.7833
  949SOL     OW 2845   1.244   1.082   1.663 -0.1636  0.0510 -0.8922
  949SOL    HW1 2846   1.316   1.095   1.589 -0.6430 -1.2359  1.2132
  949SOL    HW2 2847   1.179   1.163   1.667  1.5327 -0.9690  0.3517
  950SOL     OW 2848   0.085   1.002   1.208  0.1129 -0.1161 -0.5186
  950SOL    HW1 2849   0.044   1.095   1.196  1.2616 -0.7253  0.7449
  950SOL    HW2 2850   0.187   1.005   1.187 -1.2636  1.6925 -1.0990
  951SOL     OW 2851   0.274   2.047   2.361  0.3233 -0.1879 -0.1569
  951SOL    HW1 2852   0.278   1.950   2.388 -0.1038 -0.3075  1.3082
  951SOL    HW2 2853   0.363   2.074   2.317  3.7736 -3.2937  1.0885
  952SOL     OW 2854   1.483   1.767   0.345  0.0208 -0.7416  0.1932
  952SOL    HW1 2855   1.462   1.867   0.353 -1.3161  0.6756  1.5184
  952SOL    HW2 2856   1.399   1.711   0.341 -0.7451 -0.7447  0.0668
  953SOL     OW 2857   1.117   0.604   0.161  0.2259 -0.3525  0.8804
  953SOL    HW1 2858   1.052   0.528   0.171  0.1162  1.1259  2.1788
  953SOL    HW2 2859   1.089   0.674   0.093 -0.6590  2.7245 -1.0455
  954SOL     OW 2860   2.002   1.164   0.810  0.0949 -0.3386  0.6713
  954SOL    HW1 2861   2.085   1.222   0.821 -1.0444  0.4145  0.5839
  954SOL    HW2 2862   1.977   1.118   0.897  1.1812  0.7981 -0.1102
  955SOL     OW 2863   2.489   1.597   0.373 -0.1244 -0.0634  0.2542
  955SOL    HW1 2864   2.473   1.669   0.306  2.3695  2.4232 -0.7001
  955SOL    HW2 2865   2.588   1.578   0.382 -0.4017 -1.4682  1.0461
  956SOL     OW 2866   0.897   0.470   1.705 -0.1062 -0.5211 -0.1050
  956SOL    HW1 2867   0.946   0.563   1.710  0.2839  0.9610 -0.9002
  956SOL    HW2 2868   0.939   0.411   1.634  0.2405  0.0649  2.6246
  957SOL     OW 2869   1.724   0.912   0.798  0.4741 -0.0006 -0.2888
  957SOL    HW1 2870   1.821   0.907   0.816  0.2109  0.4232 -0.8891
  957SOL    HW2 2871   1.667   0.877   0.873  1.5224 -0.1112 -0.2325
  958SOL     OW 2872   0.419   1.967   0.792 -0.9599  0.6751  0.3235
  958SOL    HW1 2873   0.368   1.881   0.787  0.8908 -1.0723 -1.5646
  958SOL    HW2 2874   0.439   1.996   0.698  0.4050  0.3783 -0.1905
  959SOL     OW 2875   1.991   1.921   1.578 -0.2245 -0.4322  0.0713
  959SOL    HW1 2876   2.000   1.953   1.677  2.7444 -1.4608 -0.2387
  959SOL    HW2 2877   2.066   1.859   1.555  0.2199  1.5215 -0.2145
  960SOL     OW 2878   3.026   1.830   2.661  0.3165  0.3544 -0.4565
  960SOL    HW1 2879   2.958   1.812   2.737 -2.7215 -2.2233 -1.5915
  960SOL    HW2 2880   3.076   1.740   2.645 -2.7339  0.1900 -0.2265
  961SOL     OW 2881   0.885   1.229   0.845 -0.4085 -0.1095 -0.4261
  961SOL    HW1 2882   0.901   1.329   0.847  0.3964 -2.8436 -1.8243
  961SOL    HW2 2883   0.974   1.171   0.838  2.2097 -2.7627 -0.8227
  962SOL     OW 2884   0.990   0.908   0.515  0.0388  0.5276  0.4348
  962SOL    HW1 2885   1.042   0.822   0.504  1.7395 -1.0179 -2.3864
  962SOL    HW2 2886   1.054   0.985   0.524 -4.0026 -0.8636 -3.5404
  963SOL     OW 2887   1.333   1.847   1.984 -0.5962 -0.1918 -0.4361
  963SOL    HW1 2888   1.341   1.762   2.043  1.6363 -1.5527  1.2447
  963SOL    HW2 2889   1.423   1.889   1.963 -1.6567  2.4260  2.7601
  964SOL     OW 2890   0.209   2.750   2.574 -0.1026 -0.0508 -0.0638
  964SOL    HW1 2891   0.306   2.727   2.564 -1.2421 -0.2868 -2.1537
  964SOL    HW2 2892   0.161   2.698   2.647 -0.8158  3.9036  1.5356
  965SOL     OW 2893   0.710   2.181   0.264 -0.4981 -0.8017  0.5448
  965SOL    HW1 2894   0.735   2.259   0.204 -1.2378  1.1822  1.3988
  965SOL    HW2 2895   0.620   2.197   0.312 -1.7604  0.7786  0.5120
  966SOL     OW 2896   3.034   1.730   3.052  0.8463 -0.4326 -0.1551
  966SOL    HW1 2897   2.958   1.737   0.002 -0.2493 -0.8124  0.5322
  966SOL    HW2 2898   0.000   1.689   3.090  0.0717 -0.2631 -3.2844
  967SOL     OW 2899   2.055   2.635   2.758  0.0000 -0.7575 -0.2173
  967SOL    HW1 2900   1.985   2.655   2.686  1.4510  2.5095  1.8345
  967SOL    HW2 2901   2.088   2.718   2.806  0.4354 -2.2025  1.4194
  968SOL     OW 2902   2.239   2.991   0.880  0.7247  0.2298  0.2417
  968SOL    HW1 2903   2.276   3.027   0.792  0.4356  1.1661 -2.1200
  968SOL    HW2 2904   2.206   2.896   0.864  1.1203  2.5531 -0.2653
  969SOL     OW 2905   0.676   1.140   2.247  0.5841 -0.1178  0.0052
  969SOL    HW1 2906   0.670   1.224   2.303  0.7116  0.4159 -3.4857
  969SOL    HW2 2907   0.595   1.131   2.183  0.9408 -0.8570 -0.1215
  970SOL     OW 2908   1.786   1.371   0.803 -0.0480 -0.3625  0.7574
  970SOL    HW1 2909   1.843   1.454   0.779  2.2957 -0.8183 -0.3416
  970SOL    HW2 2910   1.851   1.291   0.808  2.1895  1.1318  0.3491
  971SOL     OW 2911   2.394   3.079   1.538 -0.7299 -0.0749  0.0221
  971SOL    HW1 2912   2.417   3.014   1.610  2.5985  0.7150 -1.6977
  971SOL    HW2 2913   2.484   3.111   1.499  1.5288 -3.4947 -0.0801
  972SOL     OW 2914   3.062   0.218   1.567 -0.5084  0.2045 -0.0912
  972SOL    HW1 2915   3.061   0.117   1.553 -1.6912 -0.4744 -0.4962
  972SOL    HW2 2916   3.026   0.242   1.657 -0.2798 -2.0958 -0.2853
  973SOL     OW 2917   0.138   0.226   2.749 -0.1862 -0.5755 -0.4207
  973SOL    HW1 2918   0.212   0.193   2.817 -1.1890  2.5891  3.7742
  973SOL    HW2 2919   0.142   0.325   2.726 -2.9002  1.5183 -0.5558
  974SOL     OW 2920   2.416   1.074   2.053 -0.2293 -0.2416 -0.4099
  974SOL    HW1 2921   2.366   1.123   2.129  0.1195 -0.2149  1.3110
  974SOL    HW2 2922   2.454   0.983   2.086 -0.7803  1.5456 -1.0640
  975SOL     OW 2923   1.005   0.578   1.263 -0.1100 -0.8039  0.1137
  975SOL    HW1 2924   0.909   0.550   1.239 -2.3460 -0.4097 -0.8489
  975SOL    HW2 2925   1.012   0.676   1.257 -0.3375 -4.3174  1.7759
  976SOL     OW 2926   0.785   1.465   1.823 -0.2682  0.4069 -0.1089
  976SOL    HW1 2927   0.781   1.477   1.928  0.8661  2.0026  2.0793
  976SOL    HW2 2928   0.820   1.550   1.788 -0.8330 -2.8763  2.3409
  977SOL     OW 2929   1.092   0.119   0.086  0.0652  0.1311  0.2260
  977SOL    HW1 2930   1.087   0.208   0.035 -0.9094  2.6875 -1.2529
  977SOL    HW2 2931   1.143   0.127   0.172  0.0094  0.3996  0.7001
  978SOL     OW 2932   2.524   0.853   2.128  0.3939  0.2207  0.6441
  978SOL    HW1 2933   2.468   0.771   2.152 -1.0200 -0.3820 -1.4709
  978SOL    HW2 2934   2.575   0.898   2.207 -1.0173 -0.3161  0.4538
  979SOL     OW 2935   1.501   0.407   1.893  0.2242  0.1642  0.7329
  979SOL    HW1 2936   1.399   0.395   1.890 -0.8068 -2.2719  2.8335
  979SOL    HW2 2937   1.530   0.506   1.866  0.5655  4.1340 -0.9340
  980SOL     OW 2938   1.659   1.645   1.768  0.0237  0.3046 -0.6752
  980SOL    HW1 2939   1.611   1.558   1.754  0.8523  0.6429  1.8089
  980SOL    HW2 2940   1.754   1.639   1.749 -2.8301 -1.3246 -0.9741
  981SOL     OW 2941   2.531   0.969   1.390  0.2079  0.7467  0.1901
  981SOL    HW1 2942   2.632   0.970   1.368 -0.7944 -2.3329 -0.2192
  981SOL    HW2 2943   2.511   1.008   1.481  0.4573 -0.4496 -1.9247
  982SOL     OW 2944   0.547   0.284   2.897 -0.4743  0.2300  0.2342
  982SOL    HW1 2945   0.580   0.381   2.892 -0.2503 -3.1454  2.2454
  982SOL    HW2 2946   0.625   0.236   2.936 -3.4817  1.0553 -1.0083
  983SOL     OW 2947   2.449   0.742   2.788 -0.1446 -0.2249 -0.5590
  983SOL    HW1 2948   2.360   0.786   2.773  0.6577  2.4149  0.3598
  983SOL    HW2 2949   2.517   0.799   2.837 -2.4565 -0.9224  0.8602
  984SOL     OW 2950   1.213   0.020   1.828 -0.3743 -0.2911 -0.1189
  984SOL    HW1 2951   1.287   0.047   1.894 -2.7549 -1.7842  1.5300
  984SOL    HW2 2952   1.164   3.054   1.857  1.7931  4.0756 -0.8577
  985SOL     OW 2953   1.732   2.009   2.079 -0.3733  0.2139 -0.0254
  985SOL    HW1 2954   1.807   1.941   2.078 -1.7182  1.7996 -0.3231
  985SOL    HW2 2955   1.761   2.103   2.054 -2.7194 -3.0877  0.9854
  986SOL     OW 2956   2.332   0.549   1.452  0.2950 -0.2708  0.0134
  986SOL    HW1 2957   2.409   0.606   1.492 -3.4757 -1.3290  2.2036
  986SOL    HW2 2958   2.351   0.450   1.450  0.5860  0.6276  0.8081
  987SOL     OW 2959   2.699   1.269   1.335 -0.0515 -0.6218 -0.7000
  987SOL    HW1 2960   2.720   1.273   1.234 -0.6670  1.5415  1.1941
  987SOL    HW2 2961   2.780   1.234   1.383 -1.2451 -1.0319 -1.9077
  988SOL     OW 2962   2.296   1.997   1.662 -0.1025  0.2529  0.3515
  988SOL    HW1 2963   2.251   2.071   1.718  0.7875  3.8518  1.0879
  988SOL    HW2 2964   2.399   2.001   1.675 -1.6219  1.6036 -1.7980
  989SOL     OW 2965   1.075   2.470   0.117 -0.0281  0.3498  0.6548
  989SOL    HW1 2966   1.089   2.571   0.117 -0.4745 -0.5219  0.2977
  989SOL    HW2 2967   1.095   2.444   0.211  1.3844 -1.5467 -0.6050
  990SOL     OW 2968   1.775   0.917   2.826 -0.3616  0.0189  0.6919
  990SOL    HW1 2969   1.758   0.946   2.921 -0.5647 -0.8275 -0.4526
  990SOL    HW2 2970   1.773   0.813   2.818 -0.4062 -1.9037  0.0264
  991SOL     OW 2971   1.187   0.256   0.564 -0.0633  0.0199  0.2240
  991SOL    HW1 2972   1.195   0.206   0.475 -2.0160 -0.3345 -3.4447
  991SOL    HW2 2973   1.269   0.236   0.615 -2.3257 -0.9576 -1.8282
  992SOL     OW 2974   2.932   1.218   1.465 -0.1522  0.3125 -0.2909
  992SOL    HW1 2975   2.994   1.289   1.433 -0.5213  0.0615 -0.3743
  992SOL    HW2 2976   2.949   1.206   1.564  1.1353 -2.5551  0.2921
  993SOL     OW 2977   2.813   0.909   1.571  0.4649  0.2298 -0.2257
  993SOL    HW1 2978   2.831   0.841   1.648  1.4553 -0.1094  0.1463
  993SOL    HW2 2979   2.885   0.912   1.508 -2.6975  0.6031  3.6520
  994SOL     OW 2980   0.536   2.037   2.640  0.2131  0.2561 -0.7611
  994SOL    HW1 2981   0.539   2.112   2.570  1.0263 -0.6041  0.8578
  994SOL    HW2 2982   0.437   2.017   2.668 -0.8281 -1.1209 -0.4239
  995SOL     OW 2983   1.944   0.952   2.571 -0.1366 -0.1224 -0.1318
  995SOL    HW1 2984   2.040   0.945   2.605 -0.3093 -1.3460  2.5111
  995SOL    HW2 2985   1.883   0.948   2.654 -0.2848 -0.2359  1.5264
  996SOL     OW 2986   2.703   1.774   0.699 -0.2578 -0.0768  0.6957
  996SOL    HW1 2987   2.780   1.792   0.763  0.1215 -0.9995 -1.0113
  996SOL    HW2 2988   2.735   1.793   0.608  0.5062  0.4017  0.5014
  997SOL     OW 2989   2.171   0.642   2.071 -0.3061  0.2716 -0.7001
  997SOL    HW1 2990   2.120   0.724   2.051  3.4072 -2.7260  2.2521
  997SOL    HW2 2991   2.104   0.576   2.118 -0.1668 -0.9748 -0.2239
  998SOL     OW 2992   2.623   1.180   0.405  0.3258 -0.2702  0.3898
  998SOL    HW1 2993   2.532   1.195   0.363 -0.2120  0.0773  1.2773
  998SOL    HW2 2994   2.687   1.176   0.330 -2.6609 -0.4434  0.5521
  999SOL     OW 2995   0.031   2.072   0.363  0.7682 -0.4478  0.4111
  999SOL    HW1 2996   3.093   2.000   0.319  1.6671 -0.2302 -0.4645
  999SOL    HW2 2997   0.028   2.057   0.468 -0.4230 -2.0877  3.5831
 1000SOL     OW 2998   0.933   0.771   2.505 -0.2101 -0.0533  0.0049
 1000SOL    HW1 2999   0.969   0.747   2.600  1.1414  0.7778  0.2028
 1000SOL    HW2 3000   0.942   0.690   2.441 -1.2816  2.4687 -0.0299
   3.11749   3.11749   3.11749
