1000 SPC/Fw water molecules t=  94.00000 step= 94000
 3000
    1SOL     OW    1   1.830   2.747   0.778 -0.3410  0.6279  0.8092
    1SOL    HW1    2   1.864   2.655   0.745  0.9581 -3.5186 -2.9001
    1SOL    HW2    3   1.879   2.782   0.862 -1.6792 -1.0159 -0.9791
    2SOL     OW    4   1.109   1.203   2.050  0.3867  0.3696  0.3192
    2SOL    HW1    5   1.190   1.201   1.983  2.7233 -0.6433  1.7936
    2SOL    HW2    6   1.138   1.197   2.148  1.6303 -0.2894 -0.7059
    3SOL     OW    7   1.335   2.427   2.493  0.3298 -0.4338  0.0050
    3SOL    HW1    8   1.434   2.415   2.503 -0.1892 -0.3193 -2.4705
    3SOL    HW2    9   1.284   2.352   2.537 -0.0733  0.3172  1.1974
    4SOL     OW   10   1.317   1.821   2.641 -0.5568  0.3693 -0.1998
    4SOL    HW1   11   1.397   1.799   2.704  0.8215  0.9924  1.6533
    4SOL    HW2   12   1.337   1.909   2.589 -0.7870  1.3550  0.5750
    5SOL     OW   13   0.495   0.791   1.787  0.3843 -0.5784  0.6677
    5SOL    HW1   14   0.553   0.855   1.837 -0.1484  0.4872  0.5636
    5SOL    HW2   15   0.544   0.761   1.705 -2.4760  0.5817  2.8387
    6SOL     OW   16   1.862   0.680   2.638  0.2378 -0.1117  0.1685
    6SOL    HW1   17   1.880   0.751   2.565  0.2016 -1.9197 -1.5782
    6SOL    HW2   18   1.955   0.649   2.677 -0.9229 -2.7456  0.4317
    7SOL     OW   19   0.569   0.469   1.695 -0.1497  0.0265 -0.1058
    7SOL    HW1   20   0.579   0.533   1.775  0.4341  1.8257 -0.8846
    7SOL    HW2   21   0.516   0.504   1.620 -0.4405 -1.5199 -0.1662
    8SOL     OW   22   1.820   2.959   1.971 -0.4196  0.2906  0.0318
    8SOL    HW1   23   1.899   3.023   1.965  1.5183  1.7443  0.4919
    8SOL    HW2   24   1.824   2.884   1.903  1.4841 -1.3080 -0.8171
    9SOL     OW   25   0.287   0.424   0.518  0.1478  0.1510  0.6072
    9SOL    HW1   26   0.274   0.376   0.612 -0.1975 -2.0315  2.7682
    9SOL    HW2   27   0.274   0.525   0.530 -0.4730  0.7901 -0.0128
   10SOL     OW   28   0.524   2.045   2.329  0.0984  0.0586  0.3879
   10SOL    HW1   29   0.498   2.072   2.234 -1.7969 -1.1117 -1.6407
   10SOL    HW2   30   0.588   2.114   2.368  0.8702 -0.6973  1.0848
   11SOL     OW   31   0.718   1.680   0.174 -0.0784  0.3859 -0.2851
   11SOL    HW1   32   0.759   1.664   0.084  2.9308  0.1077  2.0141
   11SOL    HW2   33   0.695   1.593   0.219  0.9009 -1.8401 -2.6983
   12SOL     OW   34   0.044   2.902   1.382  0.2482 -0.2972  0.2324
   12SOL    HW1   35   3.090   2.986   1.400 -0.1306  0.7158 -2.0914
   12SOL    HW2   36   0.108   2.915   1.302 -3.3553  0.5514  0.2856
   13SOL     OW   37   0.904   3.037   0.411  0.1319  0.2780 -0.1027
   13SOL    HW1   38   0.964   3.034   0.490  0.3975  2.9719  1.3444
   13SOL    HW2   39   0.903   0.024   0.358 -1.6952 -0.2721  2.3804
   14SOL     OW   40   1.468   1.597   0.925 -0.3294  0.6132  0.6105
   14SOL    HW1   41   1.387   1.628   0.984 -1.7806 -0.4893  2.0646
   14SOL    HW2   42   1.528   1.535   0.981 -1.7372  3.0391 -1.7976
   15SOL     OW   43   2.868   1.573   2.507 -0.3447  0.0224  0.0922
   15SOL    HW1   44   2.801   1.545   2.587 -1.2954 -0.0398 -0.9839
   15SOL    HW2   45   2.915   1.658   2.537 -2.1996  0.7325 -1.5347
   16SOL     OW   46   1.491   0.398   2.610 -0.3114  0.5171  0.1441
   16SOL    HW1   47   1.466   0.465   2.687 -2.8210  2.9562  0.4781
   16SOL    HW2   48   1.594   0.399   2.603 -0.0697  0.3304 -1.2921
   17SOL     OW   49   0.221   2.211   2.236 -0.0204  0.0972 -0.1566
   17SOL    HW1   50   0.228   2.128   2.295 -3.4278 -1.3290  0.4554
   17SOL    HW2   51   0.129   2.212   2.192 -0.2058 -2.8794 -0.3781
   18SOL     OW   52   1.115   1.363   0.454 -0.4099  0.1013 -0.0583
   18SOL    HW1   53   1.167   1.401   0.534 -2.0900 -1.8887  1.8022
   18SOL    HW2   54   1.165   1.288   0.405 -0.4919 -0.4766  0.6743
   19SOL     OW   55   2.474   1.452   2.544  0.0997 -0.5093 -0.2952
   19SOL    HW1   56   2.517   1.466   2.636  0.4995 -1.6253  0.4927
   19SOL    HW2   57   2.375   1.466   2.554  1.5343 -1.0763  1.0317
   20SOL     OW   58   2.394   2.229   2.468 -0.7584  0.4742  0.2635
   20SOL    HW1   59   2.383   2.191   2.373  1.3089 -1.4490 -0.5392
   20SOL    HW2   60   2.476   2.294   2.471  0.3373 -0.4952 -0.9551
   21SOL     OW   61   0.959   2.267   0.370 -0.5102  0.3609  0.3712
   21SOL    HW1   62   1.040   2.231   0.314  0.1272 -2.7488  1.3841
   21SOL    HW2   63   0.960   2.215   0.458 -1.5904  1.3264 -1.9769
   22SOL     OW   64   2.275   2.225   1.402  0.5462 -0.6743  0.2956
   22SOL    HW1   65   2.273   2.324   1.395 -0.2998 -1.2686 -1.6931
   22SOL    HW2   66   2.191   2.183   1.357 -2.2817  1.4488 -0.2532
   23SOL     OW   67   0.271   1.212   1.481  0.2329 -0.5390 -0.2703
   23SOL    HW1   68   0.298   1.227   1.580  0.3523  0.0115 -0.1593
   23SOL    HW2   69   0.220   1.124   1.472  0.9333  0.1781 -0.7122
   24SOL     OW   70   2.130   1.691   2.229 -0.0527 -0.0611 -0.3612
   24SOL    HW1   71   2.104   1.591   2.252 -0.8438 -3.4815  0.8387
   24SOL    HW2   72   2.227   1.690   2.211 -2.6513  0.7210 -0.3386
   25SOL     OW   73   2.053   0.417   2.296  0.0963 -0.3097  0.1457
   25SOL    HW1   74   2.024   0.412   2.197 -1.0042  1.0856 -1.8201
   25SOL    HW2   75   2.058   0.325   2.339 -0.3212 -1.5526  0.4237
   26SOL     OW   76   1.479   0.247   0.472 -0.0172 -0.0757  0.1949
   26SOL    HW1   77   1.471   0.341   0.438 -0.5645 -1.3380  2.0956
   26SOL    HW2   78   1.568   0.226   0.519 -0.1019  1.0977  0.4325
   27SOL     OW   79   0.857   1.894   0.579  0.1318 -0.4827 -0.6299
   27SOL    HW1   80   0.806   1.904   0.488 -1.0841 -1.5540  1.5626
   27SOL    HW2   81   0.797   1.859   0.657 -0.5244 -0.6058 -1.3253
   28SOL     OW   82   2.527   1.792   0.979  0.6381 -0.1425  0.0109
   28SOL    HW1   83   2.520   1.725   1.061  0.2235 -1.7738  1.6775
   28SOL    HW2   84   2.453   1.862   0.985 -0.3667  1.8108 -1.2587
   29SOL     OW   85   2.308   3.011   1.675  0.0532  0.0372  0.1178
   29SOL    HW1   86   2.214   3.008   1.713 -0.8834  0.1653 -0.6935
   29SOL    HW2   87   2.375   2.958   1.733 -1.8178 -1.1965  0.2768
   30SOL     OW   88   0.838   0.148   1.269  0.0938  0.0608  0.0653
   30SOL    HW1   89   0.883   0.063   1.301 -2.0637 -0.5698  0.2104
   30SOL    HW2   90   0.886   0.224   1.319 -1.6616 -0.9702 -1.1866
   31SOL     OW   91   2.957   2.275   1.739 -0.6332 -0.2992  0.1852
   31SOL    HW1   92   3.032   2.257   1.802  0.9239 -1.7602 -1.1880
   31SOL    HW2   93   2.961   2.377   1.716 -1.9644  0.4074 -2.4660
   32SOL     OW   94   1.410   1.527   1.992  0.4735  0.2302 -0.2510
   32SOL    HW1   95   1.409   1.549   1.892 -0.7416  1.1266  2.5322
   32SOL    HW2   96   1.452   1.611   2.033  1.4130  1.8187  1.6445
   33SOL     OW   97   0.247   0.290   3.078  0.0551  0.2680  0.1583
   33SOL    HW1   98   0.341   0.326   3.075 -4.0288 -0.2722  1.2260
   33SOL    HW2   99   0.242   0.213   0.049  0.0071  1.1529  1.0212
   34SOL     OW  100   2.392   0.154   0.656 -0.5159  0.4588 -0.6544
   34SOL    HW1  101   2.439   0.083   0.710  0.1919  1.1754 -0.4642
   34SOL    HW2  102   2.364   0.230   0.717  0.3130  0.0533 -0.4756
   35SOL     OW  103   2.626   0.199   1.381  0.2719  0.6379 -0.2292
   35SOL    HW1  104   2.606   0.099   1.401 -0.6558 -1.7817  0.3608
   35SOL    HW2  105   2.704   0.231   1.444  0.0314  2.4152 -0.2875
   36SOL     OW  106   2.793   2.650   2.663  0.4651  0.3184  0.0631
   36SOL    HW1  107   2.781   2.748   2.633  1.6200  3.1905  1.8326
   36SOL    HW2  108   2.881   2.622   2.620 -1.2840  0.0715 -0.5228
   37SOL     OW  109   1.175   2.826   3.030  0.0941  0.0450  0.1931
   37SOL    HW1  110   1.259   2.868   2.990 -0.0556 -1.3964  0.3781
   37SOL    HW2  111   1.192   2.811   0.028 -0.3725  2.2113 -0.3588
   38SOL     OW  112   2.708   1.141   2.853 -0.0923 -0.5727 -0.5631
   38SOL    HW1  113   2.741   1.136   2.949 -0.6537 -2.4054 -1.0574
   38SOL    HW2  114   2.682   1.044   2.817  0.2580 -2.7411 -4.3724
   39SOL     OW  115   2.187   2.076   2.099  0.4109  0.1450  0.8236
   39SOL    HW1  116   2.111   2.011   2.112 -0.2417  0.5750 -0.6920
   39SOL    HW2  117   2.152   2.169   2.082  2.1829 -0.4388  2.3982
   40SOL     OW  118   0.415   0.169   2.604  0.4255  0.2304  0.4147
   40SOL    HW1  119   0.438   0.134   2.701  1.4305  1.3350  1.1356
   40SOL    HW2  120   0.495   0.217   2.569 -0.2279  0.2378  0.7324
   41SOL     OW  121   1.508   1.158   1.478  0.1036  0.5666 -0.5854
   41SOL    HW1  122   1.507   1.056   1.489  0.1101 -0.8642 -5.0320
   41SOL    HW2  123   1.579   1.202   1.538 -2.8449 -1.5420 -1.7097
   42SOL     OW  124   0.034   0.279   1.857  0.0107 -0.0011 -0.0405
   42SOL    HW1  125   3.091   0.339   1.786  1.9801  0.0975  1.4407
   42SOL    HW2  126   3.078   0.246   1.934  0.5647 -1.7172 -0.8770
   43SOL     OW  127   1.500   1.322   2.164  0.3976  0.2193 -0.2750
   43SOL    HW1  128   1.592   1.304   2.122  0.1241 -0.0862  0.7709
   43SOL    HW2  129   1.456   1.405   2.115 -1.6023 -0.1282 -0.1240
   44SOL     OW  130   3.024   0.126   0.075  0.3760 -0.6285 -0.0318
   44SOL    HW1  131   3.067   0.076   3.097  0.8562  0.0461  2.0219
   44SOL    HW2  132   3.092   0.139   0.148  1.6622 -0.4639  0.1578
   45SOL     OW  133   0.504   2.031   1.133  0.1063  0.4280  0.0234
   45SOL    HW1  134   0.518   2.065   1.228 -0.0358  0.5226 -0.6074
   45SOL    HW2  135   0.459   1.940   1.141 -0.5924 -0.4953  1.7041
   46SOL     OW  136   2.397   2.658   1.839  0.5978  0.0626 -0.4674
   46SOL    HW1  137   2.447   2.744   1.864 -0.0600  0.0434 -0.5536
   46SOL    HW2  138   2.448   2.592   1.781  1.0320 -1.1366 -2.7023
   47SOL     OW  139   0.900   1.782   1.256  0.0667  0.4135 -0.1167
   47SOL    HW1  140   0.921   1.737   1.344  1.0531  1.0882  0.8464
   47SOL    HW2  141   0.802   1.812   1.251 -1.1698  1.5446 -0.4157
   48SOL     OW  142   0.441   2.554   0.238 -0.9418 -0.5918  0.0169
   48SOL    HW1  143   0.426   2.461   0.274  1.4893  0.8421  0.5491
   48SOL    HW2  144   0.355   2.606   0.248  0.2677 -0.8864  0.3613
   49SOL     OW  145   2.839   1.606   1.967  0.1781  0.1214 -0.1488
   49SOL    HW1  146   2.826   1.599   2.070  2.3644 -0.8427 -0.5754
   49SOL    HW2  147   2.749   1.597   1.920  3.4095 -0.4933 -0.1383
   50SOL     OW  148   2.097   0.966   0.630 -0.1310  0.2369  0.4583
   50SOL    HW1  149   2.042   0.909   0.562  0.7928  2.2418  1.9295
   50SOL    HW2  150   2.074   0.939   0.724  0.8533 -0.1363  1.0353
   51SOL     OW  151   1.165   0.939   0.965  0.1437 -0.3622 -0.0438
   51SOL    HW1  152   1.145   1.029   1.010  0.7254 -1.0502 -0.3285
   51SOL    HW2  153   1.081   0.897   0.929  1.3793 -1.6440  0.5546
   52SOL     OW  154   1.008   1.516   0.243  0.1811  0.2804 -0.4617
   52SOL    HW1  155   1.013   1.458   0.331 -0.8361 -2.3144  1.2324
   52SOL    HW2  156   0.935   1.586   0.262 -4.1660  0.4494  1.8402
   53SOL     OW  157   1.003   2.521   2.716 -0.0437  0.5033  0.4289
   53SOL    HW1  158   1.009   2.418   2.695 -1.1571 -1.6972  0.3087
   53SOL    HW2  159   1.082   2.572   2.683 -2.8750 -1.9177  0.8052
   54SOL     OW  160   1.725   0.694   1.597  0.2521  0.2021 -0.2630
   54SOL    HW1  161   1.659   0.621   1.618 -2.0849 -0.2478 -0.0740
   54SOL    HW2  162   1.749   0.692   1.495  2.8597  0.5816 -1.9718
   55SOL     OW  163   2.618   2.561   0.066 -0.1467  0.7936 -1.2731
   55SOL    HW1  164   2.643   2.557   3.072  0.4798  1.5984 -2.5274
   55SOL    HW2  165   2.568   2.649   0.083 -0.8990 -1.6900 -1.4777
   56SOL     OW  166   0.808   2.421   1.740 -0.1395 -0.0960 -0.0397
   56SOL    HW1  167   0.713   2.394   1.773  0.8925 -2.1758 -0.8898
   56SOL    HW2  168   0.821   2.523   1.724 -2.2993  1.7688  0.0344
   57SOL     OW  169   1.547   0.768   2.386  0.0202 -0.1075 -0.0003
   57SOL    HW1  170   1.647   0.745   2.375 -0.4153 -1.3982  0.3151
   57SOL    HW2  171   1.526   0.783   2.484 -0.3979 -1.3186 -1.3947
   58SOL     OW  172   3.046   1.057   1.997  0.1605  0.4355 -0.7463
   58SOL    HW1  173   0.048   1.055   1.994  1.5724 -0.6073 -0.9482
   58SOL    HW2  174   3.014   1.135   1.934 -0.0070  4.0008  1.0124
   59SOL     OW  175   0.548   2.899   2.407  0.0061 -0.6451 -0.1724
   59SOL    HW1  176   0.629   2.896   2.346 -2.6820 -2.8143  1.0106
   59SOL    HW2  177   0.481   2.827   2.379  3.1226 -2.9338  0.5001
   60SOL     OW  178   2.652   2.330   0.374  0.6289 -0.3788  0.0371
   60SOL    HW1  179   2.684   2.236   0.367  0.3380  4.2032 -0.0724
   60SOL    HW2  180   2.664   2.383   0.288 -3.5687 -0.0296  2.4259
   61SOL     OW  181   0.684   2.843   0.447 -0.6262  0.1528  0.0440
   61SOL    HW1  182   0.681   2.756   0.391 -0.1174  2.0216  0.8641
   61SOL    HW2  183   0.764   2.897   0.416 -0.1418  0.9794 -0.8806
   62SOL     OW  184   1.955   2.558   2.622 -0.1027 -0.2803  0.3123
   62SOL    HW1  185   1.914   2.544   2.529 -0.5770 -0.8401 -1.6113
   62SOL    HW2  186   1.991   2.649   2.632 -1.3663 -3.8818 -1.6631
   63SOL     OW  187   2.078   0.481   0.040  0.0448  0.2696 -0.5806
   63SOL    HW1  188   2.084   0.389   3.095  3.5152  1.6128  0.0519
   63SOL    HW2  189   2.112   0.476   0.135 -0.6712 -0.7427  0.1348
   64SOL     OW  190   0.867   1.179   2.777  0.0921  0.3143  0.4400
   64SOL    HW1  191   0.962   1.170   2.816  0.6812 -2.4233  0.0549
   64SOL    HW2  192   0.803   1.125   2.836  0.1292 -0.8151  1.4712
   65SOL     OW  193   1.352   3.014   1.005  0.2664 -0.3919  0.2813
   65SOL    HW1  194   1.453   2.998   1.027 -0.8884 -1.5352 -0.8356
   65SOL    HW2  195   1.342   0.008   0.963  0.3759  2.2269 -0.1261
   66SOL     OW  196   0.636   1.540   1.660 -0.0262  0.0513  0.2539
   66SOL    HW1  197   0.718   1.561   1.604 -1.7041  0.4474  0.3701
   66SOL    HW2  198   0.616   1.607   1.737  2.2757 -0.3846 -0.4791
   67SOL     OW  199   2.257   2.915   2.299 -0.0246 -0.6883  0.4150
   67SOL    HW1  200   2.292   2.820   2.306 -0.1273  2.1744  1.4791
   67SOL    HW2  201   2.296   2.956   2.216  0.4106 -0.5811  1.9635
   68SOL     OW  202   0.731   0.738   1.597 -0.6615  0.1483 -0.0201
   68SOL    HW1  203   0.785   0.823   1.611 -2.2254  0.8395  0.0843
   68SOL    HW2  204   0.699   0.730   1.501  1.2697  1.9272  0.5070
   69SOL     OW  205   2.219   2.537   0.101 -0.0859 -0.5204  0.3239
   69SOL    HW1  206   2.240   2.599   0.177  1.7777 -1.1297  1.0529
   69SOL    HW2  207   2.303   2.480   0.090 -1.5595  0.5256  2.2741
   70SOL     OW  208   2.410   0.706   2.718  0.1759 -0.1275 -0.5160
   70SOL    HW1  209   2.465   0.779   2.763  0.4007  0.6411  1.8048
   70SOL    HW2  210   2.405   0.622   2.774 -0.4683  2.5811  2.7539
   71SOL     OW  211   2.980   2.266   0.292 -0.1289  0.1959 -0.0945
   71SOL    HW1  212   2.985   2.190   0.361  0.0105  1.7763  1.5896
   71SOL    HW2  213   2.900   2.258   0.231  1.5445 -1.1892  0.3234
   72SOL     OW  214   3.004   1.936   0.385  1.0827  0.1962 -0.1869
   72SOL    HW1  215   3.010   2.018   0.451  0.5811  2.9710  0.5112
   72SOL    HW2  216   2.969   1.854   0.438 -1.2993 -0.6637  1.3495
   73SOL     OW  217   1.042   0.808   0.593 -0.3733 -0.1131 -0.1248
   73SOL    HW1  218   0.944   0.784   0.575  1.4697 -1.5656 -1.1397
   73SOL    HW2  219   1.047   0.900   0.639 -0.2646 -0.3237 -0.3512
   74SOL     OW  220   0.190   1.741   1.979  0.7292 -0.3513 -0.0142
   74SOL    HW1  221   0.182   1.737   2.081  1.6302 -2.6590 -1.6005
   74SOL    HW2  222   0.276   1.793   1.956 -1.7335  1.0363  0.7976
   75SOL     OW  223   1.646   1.642   1.394  0.1364 -0.4264 -0.2301
   75SOL    HW1  224   1.749   1.638   1.407  1.3318  3.6791 -1.4857
   75SOL    HW2  225   1.594   1.613   1.477 -3.5401  0.8531  0.4613
   76SOL     OW  226   1.680   2.018   1.049  0.8357  0.5987 -0.1924
   76SOL    HW1  227   1.603   2.084   1.044  1.2807  2.8079  0.0675
   76SOL    HW2  228   1.668   1.973   1.140  0.4277  1.6648 -0.3740
   77SOL     OW  229   2.395   1.672   1.927  0.3463 -0.5291  0.1461
   77SOL    HW1  230   2.391   1.679   2.028 -0.3283 -0.2285 -1.6220
   77SOL    HW2  231   2.391   1.766   1.888 -0.9436  0.0649 -0.8646
   78SOL     OW  232   1.516   0.702   0.668  0.5296 -0.2254  0.0348
   78SOL    HW1  233   1.476   0.668   0.581 -0.3635  1.6681 -0.9866
   78SOL    HW2  234   1.513   0.620   0.732 -0.5254 -2.2779 -0.1605
   79SOL     OW  235   2.221   1.895   1.666  0.0814 -0.8648 -0.2582
   79SOL    HW1  236   2.270   1.856   1.585 -0.0907  0.4949  1.0866
   79SOL    HW2  237   2.198   1.998   1.661 -1.5165  1.6127 -1.1884
   80SOL     OW  238   1.037   0.332   1.364  0.2196  0.2007  0.6316
   80SOL    HW1  239   1.018   0.350   1.459  0.6483  0.1091 -0.3807
   80SOL    HW2  240   1.133   0.293   1.354 -1.0170 -2.1405  2.9291
   81SOL     OW  241   0.321   2.362   0.644  0.0513  0.4210 -0.4420
   81SOL    HW1  242   0.350   2.276   0.689 -0.1537  0.4951 -1.4102
   81SOL    HW2  243   0.404   2.410   0.604 -0.4254  1.7993 -1.7939
   82SOL     OW  244   1.375   0.228   1.699 -0.1619  0.3980  0.2568
   82SOL    HW1  245   1.286   0.203   1.734  2.1658  1.0010 -3.0154
   82SOL    HW2  246   1.364   0.314   1.648 -3.2329 -0.0354  1.0922
   83SOL     OW  247   0.603   1.697   0.543  0.5320 -0.3350  0.6124
   83SOL    HW1  248   0.661   1.731   0.623  1.4467  0.8463  1.1034
   83SOL    HW2  249   0.651   1.710   0.455 -0.4224  1.0144  1.1487
   84SOL     OW  250   2.660   1.265   0.261 -0.0357 -0.2271  0.1566
   84SOL    HW1  251   2.667   1.332   0.187 -1.8827  1.3969 -0.6920
   84SOL    HW2  252   2.644   1.170   0.228 -2.3164  0.6271  0.6199
   85SOL     OW  253   3.096   2.623   1.312 -0.0545  0.1385 -0.1547
   85SOL    HW1  254   3.075   2.718   1.341 -0.1627 -0.2823  2.4999
   85SOL    HW2  255   3.023   2.565   1.353 -0.6461  0.1390 -2.0689
   86SOL     OW  256   1.922   2.560   1.039 -0.0963  0.4226  0.2672
   86SOL    HW1  257   1.869   2.502   1.101 -0.2149 -0.1624  0.7169
   86SOL    HW2  258   1.885   2.540   0.946  1.3293 -2.0103  1.1506
   87SOL     OW  259   2.957   1.707   0.582 -0.6507  0.0626 -0.2262
   87SOL    HW1  260   2.892   1.634   0.606 -0.0212 -0.7775 -1.4424
   87SOL    HW2  261   3.053   1.676   0.572  1.3537  1.2847 -0.4259
   88SOL     OW  262   0.950   0.852   1.237 -0.0819  0.1021  0.6282
   88SOL    HW1  263   0.964   0.755   1.218 -1.6990 -1.4356 -1.5029
   88SOL    HW2  264   1.030   0.906   1.202  2.4077  0.0600  0.5328
   89SOL     OW  265   0.817   2.752   2.037  0.2687 -0.1575  0.4307
   89SOL    HW1  266   0.844   2.825   1.972 -2.5190  2.4300  2.0102
   89SOL    HW2  267   0.728   2.715   2.004  0.3014 -2.5448 -1.6613
   90SOL     OW  268   2.971   1.704   1.226  0.4658 -0.3860 -0.0126
   90SOL    HW1  269   3.034   1.692   1.149 -1.2911  1.3621  2.4952
   90SOL    HW2  270   2.943   1.799   1.243  2.6125  1.4743  0.8960
   91SOL     OW  271   1.091   2.113   0.948  0.3003 -0.3030  0.4596
   91SOL    HW1  272   1.179   2.158   0.923 -0.6207  0.8807 -0.3183
   91SOL    HW2  273   1.074   2.023   0.905 -1.1552 -2.3548 -0.4031
   92SOL     OW  274   2.901   2.809   1.695 -0.4541 -0.1017 -0.4717
   92SOL    HW1  275   2.994   2.857   1.688  1.5738  1.0277  1.8780
   92SOL    HW2  276   2.844   2.858   1.767 -1.0722 -0.4186  1.6736
   93SOL     OW  277   2.991   1.257   3.049  0.4389 -0.4892 -0.9317
   93SOL    HW1  278   3.035   1.232   2.961 -2.6672 -0.8061 -0.3998
   93SOL    HW2  279   2.943   1.174   3.083 -1.7593  2.1446 -3.3665
   94SOL     OW  280   2.480   2.914   1.876  0.6932  0.4623  0.5186
   94SOL    HW1  281   2.582   2.920   1.882  0.3197 -1.8915  1.0353
   94SOL    HW2  282   2.432   2.967   1.946  3.2603 -4.2149 -3.0769
   95SOL     OW  283   1.574   0.566   1.836  0.1528  0.0195  0.1475
   95SOL    HW1  284   1.476   0.556   1.863  0.9350 -0.3322  0.8643
   95SOL    HW2  285   1.609   0.474   1.810 -1.5198  1.3208  2.2469
   96SOL     OW  286   2.479   0.477   1.694 -0.1142 -0.0483 -0.8396
   96SOL    HW1  287   2.524   0.552   1.751  1.6116  3.1668  1.8935
   96SOL    HW2  288   2.528   0.450   1.610  0.4695  0.4915 -0.6673
   97SOL     OW  289   2.517   3.041   1.498  0.2058 -0.1774  0.0203
   97SOL    HW1  290   2.572   2.953   1.510  1.9473 -2.6737  2.6353
   97SOL    HW2  291   2.434   3.059   1.560 -1.3052  1.3076  1.7589
   98SOL     OW  292   2.073   2.758   1.419 -0.2158  0.1927 -0.6106
   98SOL    HW1  293   2.126   2.717   1.496 -0.8424  1.9630  1.6203
   98SOL    HW2  294   1.979   2.717   1.418 -3.6833 -2.6610 -0.5629
   99SOL     OW  295   2.764   0.346   1.775  0.0267  0.1725  0.2053
   99SOL    HW1  296   2.821   0.410   1.822  0.5561 -1.2999 -1.6228
   99SOL    HW2  297   2.697   0.388   1.715 -0.2873 -2.6393  1.4578
  100SOL     OW  298   1.979   1.433   1.864 -0.1153  0.4644  0.0248
  100SOL    HW1  299   1.939   1.473   1.949 -0.7713  1.2890  1.3711
  100SOL    HW2  300   1.989   1.330   1.874 -0.1043  0.2443  0.5027
  101SOL     OW  301   2.059   0.201   0.435 -0.2540 -0.5689  0.1554
  101SOL    HW1  302   2.049   0.161   0.528  0.0465  0.9004  0.6359
  101SOL    HW2  303   2.139   0.269   0.435 -1.2950  2.0781  0.0420
  102SOL     OW  304   0.396   0.568   1.352  0.5203  0.1032  0.4791
  102SOL    HW1  305   0.303   0.591   1.314  0.7068 -1.1048  0.5160
  102SOL    HW2  306   0.431   0.478   1.318 -0.3432  0.1171  0.0868
  103SOL     OW  307   2.529   0.053   2.557  0.2034 -0.4330  0.0832
  103SOL    HW1  308   2.591   0.117   2.605  2.3194 -0.1266 -0.2420
  103SOL    HW2  309   2.450   0.027   2.614 -1.6702  2.5898 -0.4762
  104SOL     OW  310   0.058   2.899   1.714 -0.2468 -0.3402  0.5587
  104SOL    HW1  311   0.116   2.842   1.778 -3.2379 -0.7885 -0.4949
  104SOL    HW2  312   0.105   2.934   1.630 -0.0258  2.0268 -0.1260
  105SOL     OW  313   1.644   0.783   1.998 -0.7012  0.0800 -0.1443
  105SOL    HW1  314   1.559   0.833   2.013  2.1757 -4.0865 -0.9485
  105SOL    HW2  315   1.619   0.711   1.927  0.0025 -0.6235 -1.4152
  106SOL     OW  316   1.603   0.233   0.833 -0.3214 -0.0621  0.4149
  106SOL    HW1  317   1.674   0.223   0.906 -0.9523  2.3441  0.6649
  106SOL    HW2  318   1.644   0.218   0.741 -1.0733 -0.3168  2.2636
  107SOL     OW  319   0.631   1.153   1.194  0.6981  0.0192  0.3707
  107SOL    HW1  320   0.617   1.173   1.291  1.4145 -1.1897 -1.6918
  107SOL    HW2  321   0.647   1.053   1.185 -1.0425  1.4083  1.3462
  108SOL     OW  322   2.981   0.419   2.628  0.2089 -0.5817 -0.1489
  108SOL    HW1  323   3.007   0.326   2.602  2.2379  2.7733 -1.1117
  108SOL    HW2  324   2.982   0.435   2.728  0.9981  1.0082 -0.2112
  109SOL     OW  325   2.092   0.101   0.168 -0.2690 -0.0292 -0.8833
  109SOL    HW1  326   2.064   0.007   0.171  0.5456  0.3369 -0.2664
  109SOL    HW2  327   2.081   0.148   0.255  2.4886 -3.4446 -3.6788
  110SOL     OW  328   0.030   1.846   2.832  0.1905  0.1102 -0.5431
  110SOL    HW1  329   0.025   1.931   2.893  0.2145  2.9404  0.0983
  110SOL    HW2  330   0.070   1.763   2.882 -0.5175 -3.9971  1.1373
  111SOL     OW  331   2.486   0.212   2.338 -0.3058  0.5718 -0.4284
  111SOL    HW1  332   2.524   0.155   2.258  1.4522 -2.5905 -3.3610
  111SOL    HW2  333   2.514   0.164   2.426 -1.2102  0.7077  1.2282
  112SOL     OW  334   2.507   3.001   1.203  0.6922  0.5895 -0.3554
  112SOL    HW1  335   2.492   2.908   1.174 -0.4274  3.8131 -0.1752
  112SOL    HW2  336   2.506   3.012   1.305  0.6392  0.9382 -1.5266
  113SOL     OW  337   2.583   2.377   1.891 -0.2416 -0.2616 -0.2329
  113SOL    HW1  338   2.546   2.329   1.811  0.1822  3.2738 -2.8997
  113SOL    HW2  339   2.513   2.411   1.955  0.8172  0.0587  0.8130
  114SOL     OW  340   2.660   0.076   0.546  0.5736 -0.3322  0.5937
  114SOL    HW1  341   2.634   0.008   0.619 -1.4928 -1.8363  0.0911
  114SOL    HW2  342   2.686   0.166   0.578 -0.0579 -0.5310 -0.3366
  115SOL     OW  343   2.805   1.861   0.209  0.0697 -0.1138 -0.4107
  115SOL    HW1  344   2.884   1.913   0.245 -1.7709  0.5646 -3.9927
  115SOL    HW2  345   2.827   1.769   0.245  1.7069 -0.6276  2.5683
  116SOL     OW  346   0.103   1.478   1.918 -0.5677 -0.2995 -0.1580
  116SOL    HW1  347   0.153   1.561   1.961  0.4248  3.2541  2.4637
  116SOL    HW2  348   0.026   1.508   1.862 -0.3097  0.6264 -1.7839
  117SOL     OW  349   2.381   2.751   1.118  0.0991  0.7385  0.1865
  117SOL    HW1  350   2.414   2.704   1.033  0.6735  2.7153 -1.5935
  117SOL    HW2  351   2.276   2.738   1.122 -0.5986 -2.4935 -1.3350
  118SOL     OW  352   0.301   2.117   1.729  0.5332  0.2992  0.0745
  118SOL    HW1  353   0.249   2.074   1.651 -0.4129 -0.1526  0.0001
  118SOL    HW2  354   0.344   2.201   1.692 -1.7138 -0.8032  1.6395
  119SOL     OW  355   1.163   2.199   1.368 -0.3785 -0.0022 -0.1612
  119SOL    HW1  356   1.077   2.236   1.410 -2.3186 -1.3792 -2.8126
  119SOL    HW2  357   1.139   2.115   1.315  1.5435  1.5808  1.4000
  120SOL     OW  358   0.191   1.956   1.528 -0.1214  0.4723  0.1283
  120SOL    HW1  359   0.111   1.901   1.561 -1.1244 -2.6345  0.1487
  120SOL    HW2  360   0.272   1.891   1.528 -0.3589  0.8176  1.8802
  121SOL     OW  361   2.521   1.489   0.898 -0.1991  0.5070  0.0125
  121SOL    HW1  362   2.528   1.531   0.988 -0.2045  0.3380 -3.0790
  121SOL    HW2  363   2.437   1.525   0.855  2.1288 -4.3115  1.7384
  122SOL     OW  364   2.196   1.804   2.625 -0.0571 -0.6111  0.1018
  122SOL    HW1  365   2.114   1.757   2.671 -0.3040 -0.8735  1.0156
  122SOL    HW2  366   2.175   1.903   2.608 -2.4529  0.7569 -0.3175
  123SOL     OW  367   2.555   2.653   0.542 -0.0216  0.2299 -0.2142
  123SOL    HW1  368   2.634   2.589   0.569 -0.0547  1.1370  0.6935
  123SOL    HW2  369   2.484   2.588   0.501 -1.3660 -2.1704 -0.5194
  124SOL     OW  370   1.459   1.249   3.000 -0.3386  0.1488  0.0982
  124SOL    HW1  371   1.393   1.201   3.064 -1.2803 -0.6809 -0.5654
  124SOL    HW2  372   1.507   1.177   2.949 -1.2371  2.2130  0.2596
  125SOL     OW  373   0.238   1.439   2.817  0.3534  0.4439 -0.2978
  125SOL    HW1  374   0.263   1.468   2.723 -1.3701  1.1771  0.3400
  125SOL    HW2  375   0.312   1.374   2.856  1.1949 -0.8449  3.8165
  126SOL     OW  376   0.095   2.384   0.182 -0.1124  0.4539 -0.0718
  126SOL    HW1  377   0.186   2.371   0.230  0.0604 -2.1283  0.3477
  126SOL    HW2  378   0.020   2.326   0.226 -0.2919 -0.3455  0.0712
  127SOL     OW  379   0.156   1.564   0.772  0.4782 -0.5676  0.0789
  127SOL    HW1  380   0.175   1.465   0.780  0.7103  1.5624 -0.0431
  127SOL    HW2  381   0.133   1.586   0.675 -1.7844 -0.2527 -1.5953
  128SOL     OW  382   1.278   1.187   0.099 -0.1732 -0.2806 -0.1025
  128SOL    HW1  383   1.301   1.192   0.201  2.4859 -0.6506  0.0038
  128SOL    HW2  384   1.230   1.099   0.075 -1.3960 -2.7981 -3.8356
  129SOL     OW  385   2.195   1.883   1.262  0.1629 -0.7955 -0.2034
  129SOL    HW1  386   2.148   1.961   1.303 -1.9784 -1.5970  0.6075
  129SOL    HW2  387   2.261   1.845   1.332  0.8720 -0.0701  0.2106
  130SOL     OW  388   1.835   1.006   0.446 -0.2235 -0.1005  0.0610
  130SOL    HW1  389   1.803   1.047   0.535 -1.7068  0.0499  1.9901
  130SOL    HW2  390   1.874   0.910   0.453  0.8647 -1.2992 -0.7819
  131SOL     OW  391   2.815   1.274   2.654  0.2845 -0.0925 -0.4595
  131SOL    HW1  392   2.767   1.200   2.706 -2.0027  2.6215  0.2465
  131SOL    HW2  393   2.784   1.367   2.683  1.3724 -0.3366 -3.0079
  132SOL     OW  394   1.750   1.757   2.079 -0.8710 -0.4559 -0.4430
  132SOL    HW1  395   1.710   1.768   1.982 -1.7626 -2.3606  0.0230
  132SOL    HW2  396   1.836   1.809   2.106 -1.4491 -1.5030 -0.1963
  133SOL     OW  397   0.015   1.475   0.080 -0.2814  0.4956 -0.5304
  133SOL    HW1  398   3.054   1.414   0.029  0.9047  0.2349 -1.1391
  133SOL    HW2  399   0.044   1.419   0.165 -0.4384  0.8658  0.8578
  134SOL     OW  400   2.713   1.068   0.531  0.1229 -0.0318 -0.4567
  134SOL    HW1  401   2.635   1.131   0.524  0.7947  2.5443  0.4824
  134SOL    HW2  402   2.786   1.120   0.576 -0.5811 -0.5174 -2.1401
  135SOL     OW  403   2.401   0.950   0.177  0.5812  0.0554 -0.0276
  135SOL    HW1  404   2.355   1.014   0.239  3.6085 -2.7263 -2.0120
  135SOL    HW2  405   2.376   0.955   0.078  1.0749 -0.1167 -1.7661
  136SOL     OW  406   1.925   1.896   1.683  0.3443  0.2223  0.2945
  136SOL    HW1  407   1.906   1.948   1.773  1.1387  2.3382  1.8704
  136SOL    HW2  408   2.025   1.882   1.672 -1.8014 -0.0638 -1.4396
  137SOL     OW  409   2.355   2.498   0.474 -0.5121  0.0030 -0.3824
  137SOL    HW1  410   2.364   2.405   0.433  0.1626  1.4288 -1.8953
  137SOL    HW2  411   2.349   2.493   0.578  0.9810  0.4092  0.2635
  138SOL     OW  412   2.001   0.319   1.699  0.0409  0.2985  0.5259
  138SOL    HW1  413   2.001   0.402   1.756 -0.6208 -3.1350 -1.2849
  138SOL    HW2  414   2.082   0.262   1.724 -1.3797  1.9011 -1.4149
  139SOL     OW  415   2.690   0.187   2.715  0.5450  0.2350  0.3001
  139SOL    HW1  416   2.678   0.137   2.808 -1.2730  1.8738  1.2521
  139SOL    HW2  417   2.728   0.280   2.716  0.5850  0.5980 -1.0519
  140SOL     OW  418   1.367   1.388   2.550 -0.1942  0.3252 -0.0170
  140SOL    HW1  419   1.444   1.422   2.495 -0.3962  1.0202  1.3049
  140SOL    HW2  420   1.291   1.456   2.557 -1.0161  0.8207 -1.3783
  141SOL     OW  421   0.653   0.579   2.034  0.4845 -0.3236  0.7601
  141SOL    HW1  422   0.595   0.508   1.996 -2.0539  1.4864  0.2851
  141SOL    HW2  423   0.587   0.645   2.074 -2.8717  0.5263  4.3915
  142SOL     OW  424   2.460   2.857   2.986  0.1917 -0.1629 -0.6425
  142SOL    HW1  425   2.398   2.936   3.001 -1.8964  0.1587  0.8753
  142SOL    HW2  426   2.485   2.856   2.884 -1.5872  0.5768 -1.9936
  143SOL     OW  427   0.922   2.178   0.639  0.2374 -0.0880  0.3783
  143SOL    HW1  428   0.823   2.192   0.649  2.0919  0.3785  1.1032
  143SOL    HW2  429   0.957   2.090   0.684  3.3505 -0.6631 -0.2760
  144SOL     OW  430   1.100   2.660   0.414  0.2371  0.3067 -0.6402
  144SOL    HW1  431   1.057   2.585   0.463  1.1977  0.5168 -0.3911
  144SOL    HW2  432   1.043   2.691   0.339  0.7621  0.8300  1.7970
  145SOL     OW  433   1.579   2.115   2.579  0.6305  0.2650 -1.0467
  145SOL    HW1  434   1.658   2.092   2.646  1.0595  2.1991  0.1634
  145SOL    HW2  435   1.571   2.029   2.520 -0.0658 -2.0560  1.6006
  146SOL     OW  436   2.834   2.680   2.925 -0.5833  0.3129 -0.0757
  146SOL    HW1  437   2.810   2.771   2.957  0.4865  0.4960 -0.6832
  146SOL    HW2  438   2.804   2.665   2.828 -0.2378  0.1519 -0.5387
  147SOL     OW  439   3.060   1.331   1.300 -0.6485  0.2449  0.1240
  147SOL    HW1  440   0.047   1.382   1.328  3.5829  0.1482 -0.5831
  147SOL    HW2  441   2.983   1.390   1.323 -0.6423 -0.1575  0.0383
  148SOL     OW  442   1.924   2.851   0.105 -0.2698  0.6884 -0.0049
  148SOL    HW1  443   1.837   2.850   0.155 -0.6806  1.1920  0.8503
  148SOL    HW2  444   1.916   2.908   0.018 -2.1583 -0.5450 -0.0565
  149SOL     OW  445   0.749   1.840   2.705  0.0033  0.2249 -0.1815
  149SOL    HW1  446   0.660   1.787   2.712 -2.1112  1.0027  0.3559
  149SOL    HW2  447   0.769   1.892   2.791  1.5271  0.0903  0.6212
  150SOL     OW  448   0.315   2.311   0.341  0.4155 -0.3177 -0.4408
  150SOL    HW1  449   0.398   2.257   0.353  0.1101 -1.4111 -1.4636
  150SOL    HW2  450   0.274   2.342   0.432 -4.3347 -0.2834  2.2070
  151SOL     OW  451   0.447   1.347   0.307  0.4157  0.1020  0.7748
  151SOL    HW1  452   0.449   1.244   0.329  2.5445 -0.8596  2.0611
  151SOL    HW2  453   0.372   1.379   0.249 -1.1553  1.1362 -0.0383
  152SOL     OW  454   2.566   1.997   0.600 -0.2555 -0.6498  0.1915
  152SOL    HW1  455   2.463   2.018   0.611  1.0394  1.2308  1.1267
  152SOL    HW2  456   2.607   2.020   0.510  1.2596  0.0420  0.0302
  153SOL     OW  457   1.946   2.309   0.516  0.9413  0.2122 -0.4689
  153SOL    HW1  458   1.906   2.295   0.421  1.5349  0.8871 -2.3864
  153SOL    HW2  459   1.910   2.391   0.564 -1.9751  1.8118 -2.0601
  154SOL     OW  460   0.767   2.745   0.939 -0.1507  0.3020 -0.0534
  154SOL    HW1  461   0.727   2.746   0.848  2.0362 -0.2022  1.1003
  154SOL    HW2  462   0.721   2.814   0.997  0.5823  0.6498 -2.0939
  155SOL     OW  463   2.962   1.796   0.855  0.0621  0.2847  0.2849
  155SOL    HW1  464   2.967   1.783   0.758  0.2165 -1.6021  0.3437
  155SOL    HW2  465   3.049   1.779   0.908 -1.2011  0.7098  0.0743
  156SOL     OW  466   2.435   2.373   0.062 -0.2276 -0.0104 -0.3325
  156SOL    HW1  467   2.461   2.279   0.059  0.4354  2.1038  0.2614
  156SOL    HW2  468   2.513   2.431   0.095 -0.7173  0.8365  2.1080
  157SOL     OW  469   0.445   1.873   1.471  0.3417 -0.7034  0.1494
  157SOL    HW1  470   0.490   1.945   1.534  1.3637 -1.0360  0.5182
  157SOL    HW2  471   0.521   1.842   1.406  0.5413 -1.1721  0.5555
  158SOL     OW  472   1.743   0.842   0.150  0.1280 -0.2816  0.3341
  158SOL    HW1  473   1.656   0.787   0.156 -3.7967 -0.8819 -0.1311
  158SOL    HW2  474   1.827   0.785   0.162 -1.1519 -0.6826 -0.3124
  159SOL     OW  475   1.095   0.948   3.099 -0.2595 -0.2963  0.1417
  159SOL    HW1  476   1.030   1.003   0.059 -1.7743  3.5961  1.1491
  159SOL    HW2  477   1.081   0.848   0.021 -0.1988 -0.5810  0.8963
  160SOL     OW  478   0.861   1.376   0.496  0.0852  0.2120  0.4890
  160SOL    HW1  479   0.818   1.422   0.574 -0.6897 -1.3291  0.9366
  160SOL    HW2  480   0.966   1.378   0.496 -0.3065  0.4358  0.0912
  161SOL     OW  481   0.174   2.178   2.562  0.0841 -0.6119  0.0305
  161SOL    HW1  482   0.075   2.199   2.566  0.2257  1.1375 -0.4043
  161SOL    HW2  483   0.208   2.138   2.652  0.5811  0.2125 -2.4590
  162SOL     OW  484   3.054   2.323   1.004 -0.4764  0.3647 -0.1366
  162SOL    HW1  485   3.067   2.219   1.013  0.4156 -0.3607  2.3565
  162SOL    HW2  486   0.035   2.371   1.038  0.9517 -0.5406  0.6498
  163SOL     OW  487   2.859   0.694   2.836  0.6119  0.4069  0.2318
  163SOL    HW1  488   2.924   0.718   2.763 -1.0676 -1.0093  1.8957
  163SOL    HW2  489   2.886   0.712   2.931  0.8573 -0.4918  2.2878
  164SOL     OW  490   0.534   0.029   2.829  0.1058  0.5137  0.3358
  164SOL    HW1  491   0.470   3.063   2.870  3.0639  0.1362  0.6115
  164SOL    HW2  492   0.584   3.086   2.750 -0.2992  0.2310  1.1596
  165SOL     OW  493   2.341   0.283   1.877 -0.1843 -0.1579 -0.6610
  165SOL    HW1  494   2.374   0.376   1.911  1.2312  1.3969  1.4602
  165SOL    HW2  495   2.396   0.262   1.791  0.0343  0.9581 -1.2439
  166SOL     OW  496   1.972   2.511   1.781  0.7296 -0.0164  0.3401
  166SOL    HW1  497   1.992   2.413   1.805 -2.1337  2.0844 -2.3981
  166SOL    HW2  498   1.938   2.572   1.860  1.8978  0.2018 -0.6758
  167SOL     OW  499   1.145   0.853   2.226 -0.0128 -0.5543  0.5549
  167SOL    HW1  500   1.160   0.921   2.299  0.0630  0.1002  1.0094
  167SOL    HW2  501   1.215   0.780   2.229  1.5723  0.2277  0.1635
  168SOL     OW  502   2.348   3.045   2.066  0.0509 -0.3415 -0.1926
  168SOL    HW1  503   2.271   3.097   2.019  0.4223  0.6547  0.1212
  168SOL    HW2  504   2.433   3.100   2.073 -1.1852 -0.3016 -0.6822
  169SOL     OW  505   0.417   1.086   0.374 -0.0076 -0.6146  0.1598
  169SOL    HW1  506   0.344   1.079   0.442 -2.6216 -0.7713 -1.8973
  169SOL    HW2  507   0.383   1.042   0.286 -0.0283 -2.6704  0.6711
  170SOL     OW  508   2.962   1.509   1.754  0.0298 -0.5632 -0.2922
  170SOL    HW1  509   2.931   1.559   1.666 -2.3036  0.9154  1.6878
  170SOL    HW2  510   2.913   1.552   1.835  0.6189 -1.1929  0.5079
  171SOL     OW  511   1.109   2.286   2.160 -0.4459  0.0041 -0.8685
  171SOL    HW1  512   1.011   2.300   2.139  1.3850 -0.5594  0.1739
  171SOL    HW2  513   1.121   2.225   2.241  1.4900  1.7197 -0.6236
  172SOL     OW  514   0.883   2.388   2.011 -0.3664  0.2053  0.0919
  172SOL    HW1  515   0.856   2.414   1.917  1.3156 -0.5434 -1.3799
  172SOL    HW2  516   0.947   2.456   2.051 -3.2689 -2.6721 -0.5335
  173SOL     OW  517   1.350   2.581   0.922 -0.1869  1.0506 -0.0181
  173SOL    HW1  518   1.447   2.603   0.927 -3.4765  1.0672 -2.9649
  173SOL    HW2  519   1.302   2.671   0.915  1.0982 -1.2714  0.5744
  174SOL     OW  520   2.177   0.416   0.584  0.1018  0.4734  0.6215
  174SOL    HW1  521   2.273   0.418   0.626  0.5060 -1.1239  1.5781
  174SOL    HW2  522   2.108   0.464   0.644  1.1984  0.2642 -0.3295
  175SOL     OW  523   1.006   1.795   0.328 -0.2040  0.2991 -0.3318
  175SOL    HW1  524   1.069   1.731   0.370  0.4815  1.3702  1.7104
  175SOL    HW2  525   0.947   1.831   0.395  0.2389 -4.7345  1.6043
  176SOL     OW  526   0.783   1.521   0.703  0.4495 -0.6077 -0.1794
  176SOL    HW1  527   0.843   1.475   0.768  1.3609  2.3051 -1.7095
  176SOL    HW2  528   0.688   1.534   0.737 -1.9783  0.2244  0.6247
  177SOL     OW  529   1.283   0.890   1.313 -0.0188  0.0562 -0.5615
  177SOL    HW1  530   1.300   0.894   1.212 -1.2658  1.8912  1.2566
  177SOL    HW2  531   1.371   0.866   1.358  1.9009 -0.3448 -1.6508
  178SOL     OW  532   2.515   1.577   0.328  0.4466  0.6873  0.3373
  178SOL    HW1  533   2.579   1.563   0.409  4.6750 -1.4208 -0.3963
  178SOL    HW2  534   2.450   1.497   0.321 -0.5885  0.4388 -2.1639
  179SOL     OW  535   0.796   2.340   3.004 -0.0749  0.2410 -0.2627
  179SOL    HW1  536   0.790   2.436   3.045  3.4277  2.2724  3.0240
  179SOL    HW2  537   0.729   2.268   3.042  1.7427  0.8680  0.0299
  180SOL     OW  538   1.808   1.522   1.681  0.1413  0.1033  0.0528
  180SOL    HW1  539   1.885   1.502   1.749  3.6170  1.2232  0.1097
  180SOL    HW2  540   1.843   1.544   1.588 -1.5835 -0.2920 -1.4528
  181SOL     OW  541   0.799   1.120   2.312  0.3292 -0.1033  0.1909
  181SOL    HW1  542   0.765   1.092   2.220 -1.0777  0.2451  4.5656
  181SOL    HW2  543   0.890   1.075   2.331 -1.2484  0.8618  1.0223
  182SOL     OW  544   2.873   1.038   2.324 -0.0129 -0.6026 -0.1624
  182SOL    HW1  545   2.797   1.095   2.353 -0.7563  3.2600  0.0413
  182SOL    HW2  546   2.856   1.014   2.227 -0.0338  0.4135 -0.5742
  183SOL     OW  547   1.588   0.409   2.221 -0.2085  0.0909  0.0652
  183SOL    HW1  548   1.617   0.400   2.121  2.1889 -1.8699  0.7906
  183SOL    HW2  549   1.491   0.391   2.235 -1.2770  0.9776  1.2701
  184SOL     OW  550   0.261   0.622   1.784 -0.0976 -0.2620  0.0197
  184SOL    HW1  551   0.239   0.557   1.860 -0.9101 -1.8298 -0.8093
  184SOL    HW2  552   0.354   0.664   1.795 -0.2640  2.7808 -1.5067
  185SOL     OW  553   2.271   1.972   0.602  0.6584 -0.0889  0.5021
  185SOL    HW1  554   2.294   1.886   0.546 -1.3536 -4.2446  0.0983
  185SOL    HW2  555   2.227   1.943   0.691  1.3769  0.9234  0.9640
  186SOL     OW  556   0.500   1.856   2.950 -0.1602  0.1450  0.2159
  186SOL    HW1  557   0.602   1.881   2.950  1.5264 -1.7447 -1.6895
  186SOL    HW2  558   0.472   1.820   3.041 -1.6375 -1.4855 -0.2139
  187SOL     OW  559   2.455   1.813   3.078  0.1355  0.4009  0.1576
  187SOL    HW1  560   2.428   1.750   3.000  0.1145 -3.2340 -2.5477
  187SOL    HW2  561   2.556   1.829   3.074  2.0673 -1.6301 -0.2053
  188SOL     OW  562   0.852   2.512   1.012  0.5339  0.3489  0.5262
  188SOL    HW1  563   0.935   2.525   1.068 -2.6755  1.4437 -2.5806
  188SOL    HW2  564   0.812   2.606   0.990 -0.7501 -0.5179  1.4057
  189SOL     OW  565   1.908   0.895   2.451 -0.2191  0.2314 -1.0598
  189SOL    HW1  566   1.872   0.886   2.359 -0.2152 -1.9481  0.5843
  189SOL    HW2  567   1.978   0.974   2.451  2.1757  1.4177 -1.3739
  190SOL     OW  568   0.842   1.971   2.281 -0.3299  0.0977 -0.2941
  190SOL    HW1  569   0.819   1.873   2.282  0.8061  2.3660  2.3665
  190SOL    HW2  570   0.821   2.021   2.370  0.4446  2.2446 -1.4702
  191SOL     OW  571   2.417   0.629   1.413 -0.7405  0.1729  0.2379
  191SOL    HW1  572   2.349   0.591   1.482 -0.7684 -1.3919  1.9969
  191SOL    HW2  573   2.509   0.581   1.428  0.8779 -2.0869  1.1800
  192SOL     OW  574   2.488   0.488   2.291 -0.0938 -0.3769  0.2102
  192SOL    HW1  575   2.517   0.532   2.379 -0.8289  0.2889 -1.6647
  192SOL    HW2  576   2.483   0.389   2.297 -0.6727 -1.1967  1.3877
  193SOL     OW  577   0.823   0.343   0.825 -0.5029 -0.2991 -0.8262
  193SOL    HW1  578   0.831   0.310   0.728 -0.8983 -1.8578  1.7124
  193SOL    HW2  579   0.808   0.261   0.884 -1.9555 -1.5416  0.6058
  194SOL     OW  580   1.312   2.464   1.657 -0.1338 -0.3985 -0.7968
  194SOL    HW1  581   1.228   2.520   1.635  0.2960 -2.5225 -3.5425
  194SOL    HW2  582   1.298   2.398   1.732  4.6534 -1.2003 -1.3931
  195SOL     OW  583   2.728   0.892   0.801 -0.0197 -0.0149 -0.6698
  195SOL    HW1  584   2.659   0.923   0.873 -2.2137  1.9591 -0.9689
  195SOL    HW2  585   2.695   0.928   0.714  0.3080  0.3398 -0.4585
  196SOL     OW  586   1.217   1.845   1.804 -0.0301  0.4437  0.2493
  196SOL    HW1  587   1.183   1.885   1.716  0.0830  0.7986 -0.1405
  196SOL    HW2  588   1.143   1.851   1.875  1.6955  1.1964  0.1115
  197SOL     OW  589   0.431   0.805   2.393  0.0521  0.7387  0.0416
  197SOL    HW1  590   0.445   0.793   2.289  0.7261  0.3502 -0.3867
  197SOL    HW2  591   0.359   0.739   2.421  0.8057  0.7017 -0.5761
  198SOL     OW  592   1.565   1.045   0.294 -0.1762 -0.1088 -0.4841
  198SOL    HW1  593   1.650   1.012   0.343  3.3387  0.7739 -1.9467
  198SOL    HW2  594   1.586   1.132   0.239  0.1635  2.4116 -3.6999
  199SOL     OW  595   2.691   0.598   2.146 -0.0340  0.6685  0.2514
  199SOL    HW1  596   2.614   0.541   2.190  0.9845 -0.9074  1.5754
  199SOL    HW2  597   2.666   0.694   2.162 -0.8360  1.1343  0.5165
  200SOL     OW  598   2.360   2.648   2.544  0.7983 -0.4375 -0.5600
  200SOL    HW1  599   2.455   2.626   2.509  0.4834 -3.0433 -0.5412
  200SOL    HW2  600   2.314   2.562   2.586  1.0510 -1.7428  0.0036
  201SOL     OW  601   2.141   0.210   1.468 -0.0870  0.4311 -0.3729
  201SOL    HW1  602   2.086   0.275   1.522  1.8223 -1.9812 -3.4651
  201SOL    HW2  603   2.086   0.129   1.435  2.4663  1.5587 -0.4518
  202SOL     OW  604   2.312   3.079   3.052  0.0787  0.5902  0.3025
  202SOL    HW1  605   2.297   3.081   0.050  0.9846  1.4068  0.8405
  202SOL    HW2  606   2.234   3.048   2.994 -1.4835  2.2327 -1.6989
  203SOL     OW  607   0.787   2.069   2.524 -0.2536 -0.0625  0.3635
  203SOL    HW1  608   0.756   1.983   2.575 -0.8641 -0.8425 -0.1878
  203SOL    HW2  609   0.783   2.150   2.586 -1.0755 -2.4231  1.5277
  204SOL     OW  610   0.829   1.423   2.644  0.4677  0.5259 -0.2842
  204SOL    HW1  611   0.764   1.465   2.713  0.4707 -0.4497 -0.6937
  204SOL    HW2  612   0.858   1.333   2.677  0.9242 -0.1630 -2.1918
  205SOL     OW  613   0.895   1.078   1.394 -0.3833 -0.5121 -0.2287
  205SOL    HW1  614   0.907   0.979   1.361  3.1253 -1.7722  1.7934
  205SOL    HW2  615   0.984   1.129   1.387 -2.0670  1.1807 -1.3280
  206SOL     OW  616   0.189   0.730   2.673 -0.7317 -0.5168 -0.3374
  206SOL    HW1  617   0.263   0.799   2.698  1.5002 -1.2607  0.3723
  206SOL    HW2  618   0.217   0.689   2.581  0.7056  1.6869  0.5863
  207SOL     OW  619   1.820   2.394   2.051  0.3734 -0.4463  0.4487
  207SOL    HW1  620   1.838   2.495   2.056  1.6292  1.2956 -2.1258
  207SOL    HW2  621   1.765   2.366   1.968 -0.7967 -0.1754 -0.4074
  208SOL     OW  622   0.898   2.822   1.256 -0.1028 -0.0453 -0.5798
  208SOL    HW1  623   0.801   2.793   1.263 -1.6340 -0.5944  0.9394
  208SOL    HW2  624   0.948   2.765   1.190 -0.6152  1.0744 -0.3339
  209SOL     OW  625   1.303   1.409   2.880 -0.5265  0.0306 -0.1000
  209SOL    HW1  626   1.341   1.338   2.941  1.8967  1.4183 -2.1542
  209SOL    HW2  627   1.333   1.392   2.784 -0.9862  0.4579 -2.3389
  210SOL     OW  628   2.341   0.872   0.893 -0.0360  0.5444 -0.1490
  210SOL    HW1  629   2.417   0.907   0.953 -0.0119 -0.9475  1.2957
  210SOL    HW2  630   2.341   0.924   0.804  0.4490 -1.8816  0.1232
  211SOL     OW  631   1.250   2.809   0.631 -0.2208 -0.8074  0.5557
  211SOL    HW1  632   1.346   2.774   0.630 -1.6318  1.0772 -0.9154
  211SOL    HW2  633   1.189   2.750   0.570 -1.3197 -0.8600  0.1597
  212SOL     OW  634   2.211   2.232   0.670  0.5114  0.7569  0.1060
  212SOL    HW1  635   2.243   2.139   0.641 -0.1309  1.5542 -1.7874
  212SOL    HW2  636   2.135   2.266   0.611 -0.0585 -2.3848  0.0204
  213SOL     OW  637   1.703   0.738   2.841  0.0070 -0.6649 -0.6096
  213SOL    HW1  638   1.711   0.658   2.902  0.7291  1.3290 -0.3450
  213SOL    HW2  639   1.763   0.721   2.761  2.6396  1.0538 -1.0544
  214SOL     OW  640   1.028   1.853   2.003 -0.0323  0.0964  0.3639
  214SOL    HW1  641   0.943   1.866   1.954  0.1802  1.0468  0.3996
  214SOL    HW2  642   1.035   1.750   2.019  1.3767  1.5078  0.9906
  215SOL     OW  643   0.468   1.448   0.576 -0.2621 -0.2173  0.1981
  215SOL    HW1  644   0.469   1.398   0.484  1.0521 -2.1149 -2.4966
  215SOL    HW2  645   0.512   1.535   0.572 -2.3491 -3.8565 -0.1015
  216SOL     OW  646   0.110   2.965   2.370  0.0328 -0.5636 -0.3794
  216SOL    HW1  647   0.205   3.003   2.360  1.9725 -0.1343 -1.1999
  216SOL    HW2  648   0.078   2.916   2.285 -1.3511 -3.1997 -1.4088
  217SOL     OW  649   2.483   0.912   1.339 -0.3316 -0.6687  0.1696
  217SOL    HW1  650   2.466   0.809   1.362 -0.9465 -1.5970  0.2464
  217SOL    HW2  651   2.575   0.929   1.298  0.7398 -0.9262  1.6710
  218SOL     OW  652   1.352   1.774   2.125 -0.8450  0.5473 -0.3768
  218SOL    HW1  653   1.374   1.827   2.042  1.1620 -2.1081 -1.2008
  218SOL    HW2  654   1.274   1.805   2.176 -0.0734 -1.2454 -0.2113
  219SOL     OW  655   1.755   1.599   0.035 -0.2294  0.3391 -0.4193
  219SOL    HW1  656   1.810   1.565   0.114 -1.5235  1.1430  1.1686
  219SOL    HW2  657   1.684   1.665   0.073  2.5913  0.0989 -0.2760
  220SOL     OW  658   2.038   0.800   0.173 -0.5265  0.3465 -0.8743
  220SOL    HW1  659   2.054   0.900   0.156  1.1297 -0.9959 -0.1368
  220SOL    HW2  660   2.070   0.744   0.094 -0.0521 -1.4669 -0.5025
  221SOL     OW  661   0.097   0.501   0.108 -0.1984  0.4540  0.0199
  221SOL    HW1  662   0.129   0.452   0.023 -1.7132 -0.0543 -2.5704
  221SOL    HW2  663   0.100   0.603   0.096  0.1295  0.8566  0.7151
  222SOL     OW  664   1.451   1.834   0.516  0.3114 -0.0896 -0.6268
  222SOL    HW1  665   1.492   1.774   0.592 -0.7092 -0.0579  0.7124
  222SOL    HW2  666   1.413   1.920   0.557 -1.9831  1.1859  1.2839
  223SOL     OW  667   0.872   0.044   3.025  0.0924  0.4031  0.0868
  223SOL    HW1  668   0.963   0.066   3.070  2.8091 -0.4233 -0.8765
  223SOL    HW2  669   0.891   3.081   2.949 -1.3350  1.5272  3.2807
  224SOL     OW  670   1.839   0.038   1.215  0.0521 -0.1381 -0.5270
  224SOL    HW1  671   1.813   0.013   1.310  0.8307  1.9268 -3.9288
  224SOL    HW2  672   1.930   0.002   1.199  1.4555  3.0082  0.3708
  225SOL     OW  673   0.358   2.397   1.281 -0.4017 -0.2250  0.3660
  225SOL    HW1  674   0.415   2.481   1.273  2.5771 -1.1823 -0.4918
  225SOL    HW2  675   0.289   2.401   1.204 -2.0765  1.0571  2.1970
  226SOL     OW  676   0.978   1.831   0.069  0.0446  0.0650  0.2865
  226SOL    HW1  677   1.014   1.910   0.015 -0.5810  1.6828  1.6500
  226SOL    HW2  678   1.012   1.836   0.168 -0.2027  3.0525 -1.2697
  227SOL     OW  679   0.804   1.695   1.019 -0.3353  0.5599 -0.3191
  227SOL    HW1  680   0.727   1.637   1.020  2.0555 -0.8702  1.9798
  227SOL    HW2  681   0.842   1.705   1.112 -0.2078  1.2735 -0.4462
  228SOL     OW  682   0.141   1.665   0.529  0.2791 -0.1618  0.1153
  228SOL    HW1  683   0.115   1.672   0.429  0.7488 -3.3402  0.0200
  228SOL    HW2  684   0.178   1.758   0.564 -1.3705 -2.4594  0.4010
  229SOL     OW  685   1.885   0.226   2.765  0.4361 -0.1833 -0.6334
  229SOL    HW1  686   1.974   0.233   2.717 -0.1813 -0.6295 -0.1104
  229SOL    HW2  687   1.838   0.137   2.744  2.3012  0.6072 -0.3348
  230SOL     OW  688   1.877   1.138   2.924 -0.2027  0.0041  0.0477
  230SOL    HW1  689   1.869   1.239   2.892 -2.1361  4.3554  0.1525
  230SOL    HW2  690   1.809   1.113   2.993  1.0963 -1.3431  0.4089
  231SOL     OW  691   1.190   1.623   2.503 -0.2008  0.1143  0.0595
  231SOL    HW1  692   1.091   1.635   2.532  0.3701  1.0082  2.5256
  231SOL    HW2  693   1.243   1.701   2.542 -1.3783 -3.0479 -1.6900
  232SOL     OW  694   2.397   2.251   0.401 -0.2782  0.2888  0.2829
  232SOL    HW1  695   2.492   2.286   0.392  1.2336  2.8985  0.3206
  232SOL    HW2  696   2.395   2.156   0.361 -1.3003  0.3804  2.4820
  233SOL     OW  697   2.959   2.519   0.379 -0.1320  0.1382 -0.1981
  233SOL    HW1  698   2.993   2.421   0.364 -0.6231 -0.2494 -1.3811
  233SOL    HW2  699   2.945   2.566   0.295  1.3737 -1.0470  1.8902
  234SOL     OW  700   0.609   0.742   2.782  0.3456 -0.1782  0.4170
  234SOL    HW1  701   0.628   0.754   2.681  2.2414  0.7343 -1.8937
  234SOL    HW2  702   0.683   0.758   2.849 -1.0361 -1.2606  0.0764
  235SOL     OW  703   2.751   0.452   2.472 -0.4592  0.0872  0.7110
  235SOL    HW1  704   2.691   0.531   2.505  1.4845  0.1090 -0.0565
  235SOL    HW2  705   2.817   0.414   2.538  2.7654 -4.1073  0.3963
  236SOL     OW  706   1.787   2.415   1.265  0.5275  0.1245  0.2623
  236SOL    HW1  707   1.828   2.427   1.359 -2.5955  0.4380 -0.9656
  236SOL    HW2  708   1.823   2.323   1.227 -1.4227 -2.7187 -1.5157
  237SOL     OW  709   0.799   1.704   2.346  0.4761 -0.1067 -0.1593
  237SOL    HW1  710   0.846   1.631   2.292 -1.6665 -1.6916  0.7178
  237SOL    HW2  711   0.840   1.708   2.437 -0.1916  4.3994 -1.1623
  238SOL     OW  712   1.175   0.221   2.342  0.0485  0.3168  0.4828
  238SOL    HW1  713   1.161   0.162   2.421 -0.5127 -0.0848 -0.5350
  238SOL    HW2  714   1.245   0.183   2.278  0.4484  2.5492  0.6988
  239SOL     OW  715   0.406   1.915   1.877 -0.3300  0.3487  0.3275
  239SOL    HW1  716   0.452   1.983   1.942 -2.4475 -1.0168  0.3830
  239SOL    HW2  717   0.353   1.967   1.803 -1.4529 -1.1166  0.2180
  240SOL     OW  718   2.507   2.786   0.167 -0.1019  0.5162 -0.5588
  240SOL    HW1  719   2.426   2.761   0.229 -0.8495  2.3531  2.0527
  240SOL    HW2  720   2.564   2.853   0.215 -0.9028 -4.1223  1.2549
  241SOL     OW  721   2.587   0.978   0.993  0.4694 -0.1699 -0.2811
  241SOL    HW1  722   2.645   0.951   1.077 -0.2192 -2.4515  1.9259
  241SOL    HW2  723   2.532   1.069   1.005 -0.0313  0.9611  0.9986
  242SOL     OW  724   2.370   2.429   2.089 -0.4354 -0.0802 -0.1151
  242SOL    HW1  725   2.274   2.397   2.113  0.6222  1.1582 -1.0336
  242SOL    HW2  726   2.369   2.522   2.059 -0.8856 -4.6956  2.5486
  243SOL     OW  727   0.853   2.692   1.692 -0.5183 -0.1149 -0.6646
  243SOL    HW1  728   0.784   2.717   1.626  4.0518 -0.7036 -0.0096
  243SOL    HW2  729   0.885   2.777   1.745 -0.2260  0.0170 -1.7341
  244SOL     OW  730   2.153   0.303   2.667 -0.4305 -0.2061 -0.0723
  244SOL    HW1  731   2.188   0.244   2.589  0.6505 -1.7561 -0.2239
  244SOL    HW2  732   2.147   0.399   2.650 -1.1563 -2.8848 -1.1425
  245SOL     OW  733   1.523   0.385   1.340 -0.1683 -0.9471 -0.0563
  245SOL    HW1  734   1.472   0.432   1.416  2.2612 -0.1575 -2.2591
  245SOL    HW2  735   1.466   0.331   1.274 -1.3714  0.6883  1.2169
  246SOL     OW  736   1.765   2.436   3.048 -0.3746 -0.1035 -0.2193
  246SOL    HW1  737   1.857   2.404   3.008 -0.6419 -2.5656  2.1637
  246SOL    HW2  738   1.721   2.510   2.996 -1.0404 -0.4060  2.2451
  247SOL     OW  739   1.342   0.657   2.227 -0.3458  0.1667 -0.4633
  247SOL    HW1  740   1.330   0.569   2.285 -0.3715 -0.6075 -0.6251
  247SOL    HW2  741   1.423   0.714   2.261  2.7255  2.5992 -0.9121
  248SOL     OW  742   0.545   1.698   1.843 -0.2479  0.0647  0.0115
  248SOL    HW1  743   0.521   1.640   1.925  2.5460 -0.8461 -2.6442
  248SOL    HW2  744   0.495   1.788   1.850  1.7815 -1.0313  2.5994
  249SOL     OW  745   2.515   0.327   0.465  0.4049  0.6306 -0.5967
  249SOL    HW1  746   2.465   0.315   0.375 -1.5147  0.0359 -1.0604
  249SOL    HW2  747   2.473   0.261   0.529  1.9667 -0.7900  0.2984
  250SOL     OW  748   2.720   0.477   2.930 -0.3850 -0.3537  0.0341
  250SOL    HW1  749   2.783   0.446   3.007  2.5888 -3.5424  1.3527
  250SOL    HW2  750   2.766   0.556   2.885  0.1586  0.8001 -0.6553
  251SOL     OW  751   1.341   0.708   0.039  0.1157 -0.6345  0.0819
  251SOL    HW1  752   1.344   0.770   3.055  0.5804  1.8730 -1.5350
  251SOL    HW2  753   1.243   0.680   0.063 -3.5782 -1.5591  0.3410
  252SOL     OW  754   1.884   2.024   1.911  0.2400 -0.5829  0.0092
  252SOL    HW1  755   1.785   2.038   1.926  2.0273 -0.9971 -2.0821
  252SOL    HW2  756   1.925   1.958   1.974 -3.0388  2.0013  0.4560
  253SOL     OW  757   2.303   2.437   1.097  0.3671 -0.0454  0.4659
  253SOL    HW1  758   2.304   2.533   1.057 -0.4595 -1.3564 -3.1907
  253SOL    HW2  759   2.275   2.435   1.198  0.2932  1.9075 -2.0889
  254SOL     OW  760   2.668   1.358   0.671  0.1289 -0.2114 -0.2151
  254SOL    HW1  761   2.680   1.447   0.620  0.4680  1.5612  2.8939
  254SOL    HW2  762   2.640   1.374   0.766 -0.3014 -1.1326 -1.8406
  255SOL     OW  763   1.386   0.233   1.182 -0.1550 -0.1887 -0.3156
  255SOL    HW1  764   1.328   0.189   1.253 -0.2531  0.7046 -4.4524
  255SOL    HW2  765   1.364   0.204   1.089 -3.2642 -1.2364  2.1711
  256SOL     OW  766   1.390   2.305   1.453 -0.2219 -0.2653 -0.3069
  256SOL    HW1  767   1.350   2.353   1.535  2.5975  0.6670 -0.7795
  256SOL    HW2  768   1.316   2.249   1.408 -0.5283 -0.4566  1.1727
  257SOL     OW  769   0.654   3.030   2.625  0.2374  0.0367  0.1777
  257SOL    HW1  770   0.746   3.072   2.596  2.2394 -0.3365  0.3450
  257SOL    HW2  771   0.607   2.980   2.549  0.4447 -1.1496 -0.9582
  258SOL     OW  772   0.762   2.445   0.710 -0.1201 -0.0406  0.1451
  258SOL    HW1  773   0.824   2.443   0.792 -1.8291 -0.7479 -0.2610
  258SOL    HW2  774   0.799   2.468   0.618  0.2859  1.7147  1.6160
  259SOL     OW  775   1.519   0.142   2.736 -0.3404  0.5155 -0.4839
  259SOL    HW1  776   1.442   0.100   2.786  1.3623  0.9696 -1.0304
  259SOL    HW2  777   1.495   0.220   2.672 -1.4502  1.0162  0.9340
  260SOL     OW  778   2.369   0.313   1.324  0.2663  0.3237  0.1397
  260SOL    HW1  779   2.296   0.283   1.388  1.4099  0.9274  0.3320
  260SOL    HW2  780   2.461   0.276   1.358  3.3787 -0.5147  0.5537
  261SOL     OW  781   0.777   0.552   2.662  0.0565  0.2286 -0.8223
  261SOL    HW1  782   0.716   0.608   2.727  0.7199  2.2196 -0.0966
  261SOL    HW2  783   0.852   0.610   2.625  2.2424  2.4343  0.4069
  262SOL     OW  784   0.505   2.552   2.184 -0.2955 -0.3118  0.3086
  262SOL    HW1  785   0.462   2.460   2.160 -1.6120 -2.0598 -0.1900
  262SOL    HW2  786   0.525   2.604   2.101  0.3537  0.2130  0.0637
  263SOL     OW  787   0.306   1.543   2.587  0.2145  0.4144 -0.1204
  263SOL    HW1  788   0.237   1.554   2.513  1.3945 -0.5109  0.0301
  263SOL    HW2  789   0.402   1.536   2.553 -0.7626 -0.7682 -0.4742
  264SOL     OW  790   1.188   1.501   0.689  0.1211  0.5074  0.1561
  264SOL    HW1  791   1.237   1.447   0.762 -1.1771 -0.4951  1.1451
  264SOL    HW2  792   1.143   1.580   0.732  4.3063 -1.0881 -1.2303
  265SOL     OW  793   1.530   2.785   0.619 -0.0439  0.3164 -0.0371
  265SOL    HW1  794   1.576   2.703   0.644  0.3282  1.1857 -0.0559
  265SOL    HW2  795   1.559   2.857   0.686  1.4970 -1.0614  0.9769
  266SOL     OW  796   1.828   0.629   1.345 -0.0729 -0.5393 -0.2441
  266SOL    HW1  797   1.784   0.588   1.261  0.0417 -0.9116  0.7204
  266SOL    HW2  798   1.927   0.606   1.360  2.3763 -1.7188  0.0633
  267SOL     OW  799   2.510   1.326   2.839  0.1932 -0.7536 -0.0195
  267SOL    HW1  800   2.431   1.275   2.801  1.4944  1.5670  0.0341
  267SOL    HW2  801   2.594   1.265   2.856  0.8808  0.1552 -0.7294
  268SOL     OW  802   1.363   0.258   0.009  0.3141  0.4281  0.2697
  268SOL    HW1  803   1.430   0.217   0.076 -1.8397 -0.0710  0.7518
  268SOL    HW2  804   1.291   0.316   0.053 -1.1315 -2.3240 -0.7651
  269SOL     OW  805   2.761   0.857   2.499 -0.3182  0.6112  0.1624
  269SOL    HW1  806   2.844   0.831   2.557  2.1145 -1.1153  0.3988
  269SOL    HW2  807   2.792   0.897   2.412  1.8782 -0.6802  0.2773
  270SOL     OW  808   0.029   1.664   0.263  0.4705 -0.0274  0.4864
  270SOL    HW1  809   0.011   1.608   0.182  1.0524  1.8988  1.5159
  270SOL    HW2  810   0.108   1.725   0.241 -1.9884 -1.2690  2.7178
  271SOL     OW  811   2.322   0.950   2.996  0.4513 -0.4806  0.3610
  271SOL    HW1  812   2.334   0.975   2.896 -0.7021  0.4607  0.6581
  271SOL    HW2  813   2.287   0.856   2.998 -0.2892  2.9202  0.9070
  272SOL     OW  814   3.031   2.470   2.326 -0.6191 -0.1369 -0.3260
  272SOL    HW1  815   0.012   2.414   2.342  0.8644 -0.1549 -0.0928
  272SOL    HW2  816   2.955   2.410   2.300 -0.7501 -0.1229  0.8991
  273SOL     OW  817   0.182   2.959   0.480  0.2049 -0.1041 -0.3241
  273SOL    HW1  818   0.141   2.882   0.425 -1.7893  0.8150 -0.7952
  273SOL    HW2  819   0.144   3.050   0.458  2.0021 -1.6687 -0.0438
  274SOL     OW  820   0.658   2.055   0.900  0.2025  0.2688  0.3410
  274SOL    HW1  821   0.593   2.051   0.981 -0.9852 -1.8502  1.2214
  274SOL    HW2  822   0.737   2.123   0.914 -0.2277  3.4026 -2.0536
  275SOL     OW  823   2.369   0.995   0.614 -0.7689 -0.2359 -0.7613
  275SOL    HW1  824   2.266   0.992   0.608 -0.0000 -0.4467  1.4287
  275SOL    HW2  825   2.401   1.087   0.575 -3.0925 -0.9900  0.4867
  276SOL     OW  826   2.420   1.527   1.427  0.3829  0.2357  0.0520
  276SOL    HW1  827   2.375   1.460   1.369 -1.6251  0.1302  1.6610
  276SOL    HW2  828   2.472   1.483   1.502 -1.4041  1.3259  0.4621
  277SOL     OW  829   2.449   3.030   0.811 -0.6996  0.0645  0.9516
  277SOL    HW1  830   2.404   3.039   0.905  4.1797  0.6505 -1.7931
  277SOL    HW2  831   2.551   3.025   0.821 -0.3223 -1.1408  2.2006
  278SOL     OW  832   1.599   3.086   2.335  0.1249  1.2411 -0.3901
  278SOL    HW1  833   1.598   3.003   2.397 -0.9665 -3.3050 -0.1393
  278SOL    HW2  834   1.622   0.070   2.388 -0.5404 -2.5401  2.1527
  279SOL     OW  835   1.639   2.618   0.917  0.6512  0.1761 -0.9714
  279SOL    HW1  836   1.699   2.666   0.849 -0.8424 -0.7255 -0.5784
  279SOL    HW2  837   1.652   2.515   0.925  0.7781  0.2507  1.1035
  280SOL     OW  838   0.794   1.151   0.797 -0.2905  0.3295  0.3592
  280SOL    HW1  839   0.850   1.234   0.829  3.4585  1.1047  1.0427
  280SOL    HW2  840   0.699   1.180   0.771 -0.4941 -0.1637  0.8661
  281SOL     OW  841   2.462   1.548   2.963 -0.4752  0.1482 -0.5764
  281SOL    HW1  842   2.477   1.461   2.913 -1.6169  0.3488 -1.1581
  281SOL    HW2  843   2.454   1.617   2.888  1.3238 -2.3014  0.7489
  282SOL     OW  844   0.041   1.350   0.326  0.1012 -0.0679 -0.1996
  282SOL    HW1  845   3.062   1.282   0.335 -1.8418  1.5443 -1.9441
  282SOL    HW2  846   0.108   1.349   0.404  1.2983  1.1784  1.4439
  283SOL     OW  847   1.707   2.698   2.695  0.5751  0.5860 -0.2387
  283SOL    HW1  848   1.667   2.756   2.621 -2.2633 -1.4080 -0.2325
  283SOL    HW2  849   1.791   2.647   2.658  0.4757  1.3691 -0.0627
  284SOL     OW  850   1.078   0.107   0.058 -0.3980  0.0708 -0.3686
  284SOL    HW1  851   1.153   0.038   0.037 -0.3480 -1.8733 -2.3907
  284SOL    HW2  852   1.127   0.199   0.069 -0.6047  1.5617  0.0615
  285SOL     OW  853   2.199   1.537   2.524 -0.2055  0.4573  0.0311
  285SOL    HW1  854   2.195   1.631   2.561  2.0731 -2.3322  0.1034
  285SOL    HW2  855   2.149   1.530   2.438  0.7457  0.2513 -0.2085
  286SOL     OW  856   1.685   2.354   0.954  0.3633  0.0343  0.2250
  286SOL    HW1  857   1.591   2.322   0.983 -0.9483 -1.9266  1.1430
  286SOL    HW2  858   1.694   2.347   0.854 -0.0756  0.3501  1.4181
  287SOL     OW  859   1.573   0.890   0.842 -0.0091  0.0499  0.4806
  287SOL    HW1  860   1.626   0.971   0.813  0.5445  0.3926 -1.9165
  287SOL    HW2  861   1.570   0.823   0.764  1.7410 -1.3471 -0.2715
  288SOL     OW  862   0.946   2.905   2.482  0.0728  0.3453 -0.4142
  288SOL    HW1  863   0.930   2.850   2.567  2.8842 -1.7380 -0.8730
  288SOL    HW2  864   0.872   2.889   2.414  0.7644  1.2372  3.0722
  289SOL     OW  865   0.110   1.295   0.795  0.4950 -0.0872 -0.1470
  289SOL    HW1  866   0.155   1.223   0.848  2.4516 -0.5695 -0.4363
  289SOL    HW2  867   0.018   1.307   0.840 -1.0032 -2.3325  1.2703
  290SOL     OW  868   1.329   2.300   0.877  0.2669  0.1298  0.1776
  290SOL    HW1  869   1.341   2.402   0.882  0.7560  3.0435  1.7026
  290SOL    HW2  870   1.296   2.272   0.786  1.2754  1.2657 -1.1425
  291SOL     OW  871   1.531   3.000   0.441  0.1893  0.0345 -0.3445
  291SOL    HW1  872   1.552   3.084   0.496  2.2235 -0.6011  2.4121
  291SOL    HW2  873   1.518   2.911   0.500 -2.2176 -1.0693  4.1729
  292SOL     OW  874   0.476   0.372   2.295 -0.2453  0.1655  0.1809
  292SOL    HW1  875   0.396   0.363   2.360 -0.1035  0.5103  1.3246
  292SOL    HW2  876   0.556   0.400   2.348 -2.1751 -0.3295 -0.5369
  293SOL     OW  877   2.586   1.758   0.718 -0.3443  0.8560  0.1829
  293SOL    HW1  878   2.591   1.853   0.673 -2.2253 -0.0620  0.9785
  293SOL    HW2  879   2.555   1.761   0.815  0.6297 -0.4901 -0.9895
  294SOL     OW  880   0.780   0.183   2.247 -0.2215  0.1340  0.3205
  294SOL    HW1  881   0.688   0.139   2.239 -0.5474 -1.0699  1.0012
  294SOL    HW2  882   0.855   0.116   2.220 -0.2542 -0.3943  1.2763
  295SOL     OW  883   1.109   1.692   0.897 -0.0245  0.2795  0.0231
  295SOL    HW1  884   1.180   1.677   0.968 -1.4340  0.9496 -0.9913
  295SOL    HW2  885   1.015   1.692   0.937  1.2104  2.0023  2.5644
  296SOL     OW  886   2.350   1.769   0.415 -0.3793 -0.5817  0.1179
  296SOL    HW1  887   2.335   1.800   0.318 -1.7583 -1.2832 -0.3449
  296SOL    HW2  888   2.427   1.703   0.412 -0.2509  2.5783  0.2614
  297SOL     OW  889   2.606   0.018   2.917  0.6864  0.6283 -0.0130
  297SOL    HW1  890   2.526   3.091   2.971 -1.3073  2.0622 -1.4531
  297SOL    HW2  891   2.671   3.047   2.936 -0.8316  0.9520  2.0714
  298SOL     OW  892   1.033   0.145   2.773 -0.4697 -0.1861  0.6151
  298SOL    HW1  893   0.967   0.221   2.769 -0.4021 -0.8848 -1.4382
  298SOL    HW2  894   0.984   0.060   2.792 -1.5909  3.6146 -0.4583
  299SOL     OW  895   1.017   2.598   2.131  0.0588 -0.2009 -0.0937
  299SOL    HW1  896   0.941   2.662   2.110  1.6375  0.8474  1.4550
  299SOL    HW2  897   1.024   2.583   2.233  1.6477 -1.3138 -0.5799
  300SOL     OW  898   2.743   2.936   1.890 -0.3160  0.0954 -0.3705
  300SOL    HW1  899   2.775   2.915   1.988 -0.4399 -0.6709  0.2703
  300SOL    HW2  900   2.765   3.034   1.878 -1.6722  0.6499  0.7859
  301SOL     OW  901   1.639   0.317   1.740 -0.1401 -0.1199  0.8840
  301SOL    HW1  902   1.545   0.277   1.746 -1.2489  1.8127 -1.1603
  301SOL    HW2  903   1.677   0.302   1.647  2.6261 -1.1595  2.8226
  302SOL     OW  904   0.419   2.415   3.074 -0.5336 -0.1184 -0.1766
  302SOL    HW1  905   0.459   2.450   0.061 -2.5458  0.6915 -0.0008
  302SOL    HW2  906   0.472   2.448   2.995 -0.0914 -1.3018  0.2894
  303SOL     OW  907   1.863   2.449   1.522  0.0544  0.2423 -0.2330
  303SOL    HW1  908   1.787   2.383   1.542  0.0063 -0.4426  0.5851
  303SOL    HW2  909   1.899   2.481   1.612  0.2724  0.2289  2.1884
  304SOL     OW  910   2.748   0.946   1.219  0.0846 -0.3329  0.3225
  304SOL    HW1  911   2.801   0.872   1.172  1.6809  0.7653  3.0736
  304SOL    HW2  912   2.806   0.989   1.293  2.0897  2.0039  0.0200
  305SOL     OW  913   0.540   1.256   0.757 -0.0435 -0.1225 -0.5218
  305SOL    HW1  914   0.505   1.289   0.849 -1.8828  2.0843 -0.7059
  305SOL    HW2  915   0.509   1.321   0.684 -0.0480 -2.4128  1.0927
  306SOL     OW  916   0.450   1.283   2.883  0.1164  0.7701  0.1246
  306SOL    HW1  917   0.497   1.210   2.938  0.5238 -3.1687 -0.0794
  306SOL    HW2  918   0.421   1.246   2.791 -2.1636 -0.0917 -2.6874
  307SOL     OW  919   1.015   3.087   1.647  0.0260  0.4441  0.6299
  307SOL    HW1  920   1.110   3.048   1.637 -0.1693  2.0364  0.5750
  307SOL    HW2  921   1.021   0.086   1.671  0.4147 -0.1047  0.7931
  308SOL     OW  922   0.306   0.904   1.017 -0.4202 -0.0341  0.0318
  308SOL    HW1  923   0.358   0.823   1.062  0.6480 -0.9487  2.1496
  308SOL    HW2  924   0.312   0.891   0.915 -0.4900  0.4555  0.5378
  309SOL     OW  925   2.454   1.221   0.994 -0.4052 -0.1615 -0.1451
  309SOL    HW1  926   2.359   1.219   1.034  0.4010 -0.9000 -0.7643
  309SOL    HW2  927   2.470   1.314   0.952 -1.7339  0.8639 -1.4665
  310SOL     OW  928   0.478   1.691   2.738 -0.3959 -1.1015 -0.2684
  310SOL    HW1  929   0.399   1.639   2.699 -1.8735 -5.3073  0.6268
  310SOL    HW2  930   0.451   1.763   2.806 -1.6163  0.7754 -0.2376
  311SOL     OW  931   2.602   2.661   2.414 -0.3792  0.3920  0.2277
  311SOL    HW1  932   2.627   2.678   2.318 -0.2232 -1.4537 -0.5372
  311SOL    HW2  933   2.650   2.730   2.475 -0.8116  0.0133  2.7472
  312SOL     OW  934   2.155   2.069   2.984  0.1039 -0.2399  0.1676
  312SOL    HW1  935   2.119   1.974   3.015  1.3042  1.2509  2.2538
  312SOL    HW2  936   2.242   2.064   2.932  2.4579  0.1124  0.9345
  313SOL     OW  937   0.517   0.122   0.653 -0.2260  0.2939 -0.2060
  313SOL    HW1  938   0.590   0.175   0.607 -0.4872  0.4964  1.6296
  313SOL    HW2  939   0.507   0.035   0.602  0.1952  1.2195 -1.1870
  314SOL     OW  940   2.164   1.293   2.637 -0.4912 -0.0426 -0.1556
  314SOL    HW1  941   2.169   1.336   2.728  1.1670 -2.3163 -0.0968
  314SOL    HW2  942   2.166   1.373   2.576 -0.9794  0.9968  2.0339
  315SOL     OW  943   1.713   0.255   2.415  0.1835  0.2779 -0.2826
  315SOL    HW1  944   1.729   0.309   2.500 -2.4450  0.3722 -0.5544
  315SOL    HW2  945   1.679   0.317   2.340 -0.2473 -0.3797  0.5228
  316SOL     OW  946   3.064   0.947   0.644  0.3783 -0.2600  0.4184
  316SOL    HW1  947   3.060   0.852   0.602 -2.1652 -1.4657 -1.0983
  316SOL    HW2  948   3.030   0.957   0.739  0.8683 -0.1505 -1.6122
  317SOL     OW  949   0.594   2.801   3.057 -0.1489 -0.1141  0.4741
  317SOL    HW1  950   0.509   2.865   3.034 -2.7241  0.6438 -0.1496
  317SOL    HW2  951   0.660   2.865   0.005  0.7790 -1.1922 -1.1005
  318SOL     OW  952   2.424   2.627   0.893 -0.7497  0.4753 -0.2156
  318SOL    HW1  953   2.416   2.549   0.826  1.3661 -0.4146  2.2170
  318SOL    HW2  954   2.521   2.656   0.889 -3.0907  2.4274 -1.3250
  319SOL     OW  955   1.048   1.641   2.975  0.2479 -0.0763  0.1468
  319SOL    HW1  956   1.041   1.697   3.060  1.1361 -0.8923 -1.3096
  319SOL    HW2  957   1.112   1.564   2.993  1.3721  3.9431  1.0985
  320SOL     OW  958   0.618   1.763   1.309  0.2567 -0.1490  0.3828
  320SOL    HW1  959   0.665   1.672   1.305  0.4524 -3.6927 -0.7198
  320SOL    HW2  960   0.541   1.761   1.245 -0.0877  0.3640  0.5375
  321SOL     OW  961   1.153   2.689   1.925  0.1397  0.3978  0.2964
  321SOL    HW1  962   1.100   2.700   2.014 -2.1016  1.1531 -1.0663
  321SOL    HW2  963   1.242   2.734   1.944 -3.9378  0.4116  1.4707
  322SOL     OW  964   2.404   1.720   2.189  0.2846 -0.2753  0.4203
  322SOL    HW1  965   2.457   1.638   2.223 -0.5340 -1.1860 -0.5930
  322SOL    HW2  966   2.460   1.802   2.197  0.6841 -2.7235 -0.2209
  323SOL     OW  967   2.877   0.324   0.679 -0.0542  0.7055  0.7778
  323SOL    HW1  968   2.930   0.401   0.716 -1.2364 -1.9903 -1.1969
  323SOL    HW2  969   2.845   0.260   0.759  0.8576  0.3482  3.3518
  324SOL     OW  970   3.035   2.628   2.542  0.2384 -0.1996  0.1117
  324SOL    HW1  971   3.095   2.573   2.603  0.8318 -1.0116  0.5623
  324SOL    HW2  972   3.034   2.595   2.447  0.0304  0.1608  3.1886
  325SOL     OW  973   1.320   0.445   2.387  0.0450  0.0486  0.2710
  325SOL    HW1  974   1.267   0.360   2.388 -1.1570 -1.3478 -1.2359
  325SOL    HW2  975   1.380   0.443   2.473  0.4920  0.7358  0.1920
  326SOL     OW  976   2.178   2.651   1.636  0.0685  0.2681  0.4013
  326SOL    HW1  977   2.267   2.669   1.680 -1.8323  1.4696 -0.2705
  326SOL    HW2  978   2.114   2.611   1.703 -0.5529  0.9920  0.9776
  327SOL     OW  979   2.347   0.012   0.243 -0.3697  0.3621  0.0951
  327SOL    HW1  980   2.323   0.109   0.233 -3.2825 -2.8961 -1.1364
  327SOL    HW2  981   2.335   3.076   0.340  2.5205 -2.7688 -0.0776
  328SOL     OW  982   0.155   1.265   1.751  0.5781  0.0361 -0.1113
  328SOL    HW1  983   0.178   1.198   1.828  0.6108  1.0549  2.4732
  328SOL    HW2  984   0.126   1.351   1.797  0.2122  0.8653 -0.2269
  329SOL     OW  985   2.221   0.549   1.584  0.7727 -0.0123 -0.1025
  329SOL    HW1  986   2.131   0.545   1.633  0.2546  2.0168  1.8344
  329SOL    HW2  987   2.297   0.502   1.634  1.1617  1.8517 -1.5960
  330SOL     OW  988   0.064   0.900   1.199  0.0917 -0.0995  0.4010
  330SOL    HW1  989   3.076   0.925   1.174  1.3217  2.3815  1.3341
  330SOL    HW2  990   0.127   0.877   1.123  0.5829  0.5048  1.9268
  331SOL     OW  991   0.722   1.429   2.110  0.1451  0.0278 -0.7715
  331SOL    HW1  992   0.786   1.413   2.032  0.4855 -0.3221 -2.4851
  331SOL    HW2  993   0.762   1.430   2.206 -1.4055 -0.0524 -0.2256
  332SOL     OW  994   0.174   2.596   1.523 -0.1065  0.0799 -0.6957
  332SOL    HW1  995   0.127   2.636   1.441  0.0984  0.7222  0.0220
  332SOL    HW2  996   0.147   2.498   1.540 -2.5441 -2.0313  0.9281
  333SOL     OW  997   2.725   3.041   0.821 -0.2139  0.3635 -0.3287
  333SOL    HW1  998   2.750   0.030   0.860 -2.1626 -1.8330  0.8345
  333SOL    HW2  999   2.798   2.971   0.832  2.7809  1.3173  2.1330
  334SOL     OW 1000   0.216   1.334   0.544 -0.3634 -0.3407  0.2985
  334SOL    HW1 1001   0.298   1.389   0.549 -0.2084 -1.4195 -0.8773
  334SOL    HW2 1002   0.178   1.326   0.633 -0.0935  0.1603 -3.2362
  335SOL     OW 1003   0.318   2.601   2.764 -0.1309 -0.6884  0.2505
  335SOL    HW1 1004   0.278   2.692   2.786 -1.3168  1.0987 -1.4558
  335SOL    HW2 1005   0.407   2.587   2.810 -1.9369  0.1488  0.3914
  336SOL     OW 1006   3.043   2.612   2.060 -0.5043  0.3533  0.0031
  336SOL    HW1 1007   3.030   2.559   2.152 -1.5898 -0.7656  3.5948
  336SOL    HW2 1008   2.970   2.579   1.994 -1.1025  0.8307 -1.6839
  337SOL     OW 1009   2.010   2.247   1.829 -0.4133 -0.3692  0.1653
  337SOL    HW1 1010   1.952   2.169   1.860  0.2903 -1.2710  0.4452
  337SOL    HW2 1011   2.085   2.212   1.763  2.5727  1.0798 -3.1839
  338SOL     OW 1012   0.859   0.363   2.813  0.2774 -0.2886  0.0262
  338SOL    HW1 1013   0.781   0.312   2.856 -0.8104  0.8215 -1.3343
  338SOL    HW2 1014   0.832   0.437   2.748  1.7767 -0.9958 -1.3796
  339SOL     OW 1015   0.490   1.220   2.033 -0.2708  0.1350 -0.0019
  339SOL    HW1 1016   0.454   1.263   2.123 -0.4466 -1.5973  3.5357
  339SOL    HW2 1017   0.551   1.286   1.982 -2.1896 -1.9467  0.8224
  340SOL     OW 1018   2.035   2.967   0.718 -0.3824 -0.1684  0.1297
  340SOL    HW1 1019   2.132   2.938   0.699  0.6435  0.9233  0.1356
  340SOL    HW2 1020   1.978   2.886   0.752 -1.0613 -0.0010  4.2563
  341SOL     OW 1021   1.984   1.199   0.982 -0.1526 -0.0402  0.0763
  341SOL    HW1 1022   1.991   1.219   0.881  0.2459  1.6611  0.8034
  341SOL    HW2 1023   2.073   1.170   1.020 -0.5929  2.0132  0.9368
  342SOL     OW 1024   2.093   2.715   3.040  0.0062 -0.4670  0.1821
  342SOL    HW1 1025   2.155   2.650   3.090  3.1085 -2.1952 -2.5255
  342SOL    HW2 1026   2.049   2.774   0.005  2.3113 -3.5563 -2.9800
  343SOL     OW 1027   0.766   2.080   1.477  0.0560  0.2705 -0.0779
  343SOL    HW1 1028   0.842   2.140   1.507 -0.3986 -0.0535  2.7940
  343SOL    HW2 1029   0.767   2.069   1.377 -1.6490  1.1524  1.0959
  344SOL     OW 1030   2.238   2.493   1.371  0.3584  0.2201 -0.4589
  344SOL    HW1 1031   2.170   2.516   1.442  1.6814 -0.3951 -1.5736
  344SOL    HW2 1032   2.307   2.563   1.369 -1.4358  1.8196 -1.3006
  345SOL     OW 1033   2.703   1.882   3.063 -0.0822 -0.3376 -0.2351
  345SOL    HW1 1034   2.769   1.871   2.986  2.1643  0.3993 -0.3639
  345SOL    HW2 1035   2.747   1.863   0.056 -1.4680 -4.0417  6.1493
  346SOL     OW 1036   1.920   2.176   1.092 -0.4465 -0.6540 -0.8416
  346SOL    HW1 1037   1.978   2.233   1.025 -0.5254  1.8120 -0.9926
  346SOL    HW2 1038   1.831   2.144   1.053  0.3518  0.1511  0.9155
  347SOL     OW 1039   1.358   1.984   1.270 -0.1047 -0.5015 -0.4616
  347SOL    HW1 1040   1.405   2.047   1.204 -0.2146  1.6484 -4.0269
  347SOL    HW2 1041   1.257   1.984   1.239 -1.0907  0.0765 -1.1698
  348SOL     OW 1042   0.534   1.778   2.291  0.1259 -0.0952 -0.0011
  348SOL    HW1 1043   0.520   1.880   2.304 -0.3151  1.2356  1.2051
  348SOL    HW2 1044   0.634   1.760   2.292  1.8556 -2.9002 -2.2535
  349SOL     OW 1045   1.805   1.692   0.761 -0.2165  0.6237 -0.2562
  349SOL    HW1 1046   1.824   1.783   0.799  1.6751 -1.2706 -2.0319
  349SOL    HW2 1047   1.844   1.615   0.823 -2.3750 -0.3720  1.3247
  350SOL     OW 1048   2.767   2.486   0.563  0.0452 -0.2882  0.1812
  350SOL    HW1 1049   2.703   2.418   0.522  1.3986 -3.2049 -0.4224
  350SOL    HW2 1050   2.842   2.520   0.500 -0.8146  0.7866 -1.7034
  351SOL     OW 1051   0.655   2.781   1.542  0.1095  0.2230 -0.2606
  351SOL    HW1 1052   0.700   2.869   1.513  1.1740  0.3347 -1.2659
  351SOL    HW2 1053   0.574   2.761   1.493  0.6526  0.5635  2.2877
  352SOL     OW 1054   0.272   1.543   1.114  0.2354 -0.1182  0.1157
  352SOL    HW1 1055   0.342   1.473   1.082 -2.6160  0.4258  0.5427
  352SOL    HW2 1056   0.229   1.518   1.207 -0.1301 -1.8454  1.6196
  353SOL     OW 1057   1.081   1.548   2.284  0.1022  0.2339  0.4133
  353SOL    HW1 1058   1.009   1.479   2.316 -2.2952  1.2759  3.0284
  353SOL    HW2 1059   1.141   1.588   2.360  3.4019 -1.0369  0.3434
  354SOL     OW 1060   1.441   3.084   1.841  0.0919 -0.1806 -0.1831
  354SOL    HW1 1061   1.421   0.061   1.777  2.3751  2.4991 -0.2995
  354SOL    HW2 1062   1.518   0.010   1.905 -2.8887  1.6619 -0.5230
  355SOL     OW 1063   2.489   1.228   0.513 -0.0316  0.1613  0.2367
  355SOL    HW1 1064   2.560   1.272   0.576 -0.7682  3.0879  2.0952
  355SOL    HW2 1065   2.502   1.256   0.414 -0.9406 -0.4116 -1.5082
  356SOL     OW 1066   2.867   1.655   1.531  0.6740 -0.1510  0.2065
  356SOL    HW1 1067   2.792   1.727   1.533 -1.2745  2.0361  3.3994
  356SOL    HW2 1068   2.899   1.630   1.439 -1.3539  0.4182  1.0931
  357SOL     OW 1069   0.415   2.714   1.415  0.3141  0.0551  0.0829
  357SOL    HW1 1070   0.350   2.647   1.454  2.8694  0.6492 -5.3857
  357SOL    HW2 1071   0.377   2.806   1.391  0.1884 -0.3717  0.7319
  358SOL     OW 1072   2.617   1.511   1.851 -0.2726 -0.2792  0.2171
  358SOL    HW1 1073   2.600   1.450   1.772 -0.6423  3.7718 -0.3292
  358SOL    HW2 1074   2.538   1.572   1.880  1.0920  0.5429  0.5575
  359SOL     OW 1075   2.501   2.831   2.712  0.1675 -0.2398  0.4069
  359SOL    HW1 1076   2.454   2.751   2.674  0.2874 -1.6006 -0.3893
  359SOL    HW2 1077   2.447   2.915   2.687  0.8571  0.0734  2.5881
  360SOL     OW 1078   1.019   0.474   0.947  0.5199  0.2870  0.2519
  360SOL    HW1 1079   1.099   0.425   0.909 -0.0648  0.5127 -1.3373
  360SOL    HW2 1080   0.936   0.426   0.910 -0.9016 -1.1049 -0.7218
  361SOL     OW 1081   2.047   0.302   0.874  0.1737 -0.1959 -0.3956
  361SOL    HW1 1082   2.040   0.405   0.867 -0.8316 -2.2424  0.7469
  361SOL    HW2 1083   2.115   0.282   0.951 -0.1870  0.9687  0.4409
  362SOL     OW 1084   1.839   1.116   1.207  0.1190 -0.2711  0.5768
  362SOL    HW1 1085   1.867   1.159   1.122 -2.1351  0.2872 -0.2617
  362SOL    HW2 1086   1.910   1.057   1.250 -0.9161 -0.7039  0.5813
  363SOL     OW 1087   2.111   1.207   2.252 -0.3879  0.2303 -0.2800
  363SOL    HW1 1088   2.073   1.298   2.277 -0.3763  0.1643 -3.3826
  363SOL    HW2 1089   2.201   1.223   2.208 -0.1185  0.2039  0.5912
  364SOL     OW 1090   0.328   0.174   1.167 -0.7365  0.0715 -0.1851
  364SOL    HW1 1091   0.289   0.219   1.253 -2.6672  0.5541  2.4467
  364SOL    HW2 1092   0.274   0.094   1.144  0.1896  1.2443  0.5750
  365SOL     OW 1093   0.678   0.223   2.957 -0.1044 -0.1418 -0.3131
  365SOL    HW1 1094   0.614   0.164   2.906  2.7007  3.3127  2.5511
  365SOL    HW2 1095   0.737   0.171   3.023  1.5920  0.6858  0.6834
  366SOL     OW 1096   1.999   2.478   2.873  0.0164 -0.7348 -0.2022
  366SOL    HW1 1097   1.971   2.505   2.775 -1.4651 -0.0443 -1.7801
  366SOL    HW2 1098   2.023   2.564   2.924  1.7781  1.5208  0.3678
  367SOL     OW 1099   2.935   2.438   3.025 -0.4049 -0.4759 -0.2684
  367SOL    HW1 1100   2.890   2.520   2.982  0.3766 -0.0811  0.9043
  367SOL    HW2 1101   3.037   2.453   3.022  2.1822 -1.3460 -2.6540
  368SOL     OW 1102   3.081   1.183   1.557 -0.0903 -0.2097  0.6258
  368SOL    HW1 1103   3.061   1.220   1.461  1.1450 -1.3849 -0.8958
  368SOL    HW2 1104   0.050   1.242   1.611  4.6427  3.8296  0.2649
  369SOL     OW 1105   0.975   2.978   2.853  0.3444  0.2690  0.3268
  369SOL    HW1 1106   1.042   2.942   2.923  1.7775  1.0253  1.2996
  369SOL    HW2 1107   0.905   2.908   2.825 -0.3377 -1.4792 -0.2657
  370SOL     OW 1108   2.786   0.693   0.414 -0.6558 -0.1120  0.3030
  370SOL    HW1 1109   2.707   0.694   0.473  1.4378  0.2691 -2.0910
  370SOL    HW2 1110   2.828   0.601   0.417  1.7788  0.7930  0.2596
  371SOL     OW 1111   1.606   2.248   0.691 -0.2061  0.2011 -0.2932
  371SOL    HW1 1112   1.512   2.208   0.688  0.6175  0.4314 -1.1038
  371SOL    HW2 1113   1.672   2.186   0.636  1.6961  2.0767 -1.6081
  372SOL     OW 1114   3.037   0.842   2.620 -0.5457 -0.0935  0.0458
  372SOL    HW1 1115   0.026   0.813   2.639 -3.8161  0.2136 -1.0035
  372SOL    HW2 1116   3.032   0.947   2.621 -1.5739  2.8834  2.2649
  373SOL     OW 1117   2.790   1.476   1.205  0.0552  0.0133 -0.2706
  373SOL    HW1 1118   2.845   1.561   1.223  0.3365 -1.5285  0.0674
  373SOL    HW2 1119   2.808   1.438   1.112  0.2436  0.4181 -0.4692
  374SOL     OW 1120   0.747   2.986   0.089  0.2901  0.5068  0.1855
  374SOL    HW1 1121   0.692   3.038   0.160 -0.8233 -0.1921  2.2935
  374SOL    HW2 1122   0.799   3.041   0.022 -3.0914  0.1904 -1.3458
  375SOL     OW 1123   0.208   3.038   0.108 -0.0417  0.4465 -0.0455
  375SOL    HW1 1124   0.245   0.008   0.169 -2.0172  0.0768  0.4074
  375SOL    HW2 1125   0.128   2.982   0.143 -0.4261  0.9996  1.6692
  376SOL     OW 1126   3.026   2.242   1.358  0.1739  0.1641 -0.4635
  376SOL    HW1 1127   2.999   2.146   1.383  0.4825 -1.5046  0.2896
  376SOL    HW2 1128   3.075   2.241   1.266 -0.6564 -1.2146  0.8704
  377SOL     OW 1129   1.594   2.382   2.592 -0.0598  0.1626  0.3911
  377SOL    HW1 1130   1.653   2.427   2.522 -1.9379 -0.5264 -0.7738
  377SOL    HW2 1131   1.597   2.279   2.586  0.3840  1.2081  1.1584
  378SOL     OW 1132   0.509   0.379   3.082 -0.3568 -0.2894 -0.0815
  378SOL    HW1 1133   0.506   0.475   3.043  0.6325 -0.4703  3.1223
  378SOL    HW2 1134   0.577   0.330   3.027 -0.5910 -1.8473 -0.5735
  379SOL     OW 1135   0.655   0.964   0.462  0.5302 -0.2171  0.0435
  379SOL    HW1 1136   0.742   1.011   0.439 -2.8059  1.0789  0.8624
  379SOL    HW2 1137   0.573   1.022   0.446  2.4273  0.7380  3.1098
  380SOL     OW 1138   3.024   1.786   1.931 -0.5167 -0.7639  0.3091
  380SOL    HW1 1139   2.959   1.710   1.941  1.3631  0.5277  0.5917
  380SOL    HW2 1140   0.025   1.768   1.932 -1.8891 -0.1778 -0.7690
  381SOL     OW 1141   0.258   1.061   1.956 -0.1819 -0.8817 -0.6662
  381SOL    HW1 1142   0.336   1.123   1.987  0.9161  0.7789  0.4330
  381SOL    HW2 1143   0.302   0.996   1.890  1.7625  1.6307  2.9077
  382SOL     OW 1144   2.410   2.050   0.228 -0.1764  0.2523  0.5475
  382SOL    HW1 1145   2.335   1.978   0.217 -2.7578 -5.1588 -1.8896
  382SOL    HW2 1146   2.470   2.066   0.144  0.0181 -0.5755 -0.7255
  383SOL     OW 1147   2.872   1.917   2.836 -0.5179  0.4362  0.1481
  383SOL    HW1 1148   2.964   1.875   2.836 -1.7572  3.7568  0.7516
  383SOL    HW2 1149   2.876   2.019   2.858 -0.3775  0.5039 -0.4529
  384SOL     OW 1150   0.672   2.418   2.459 -0.1718  0.2686  0.8601
  384SOL    HW1 1151   0.596   2.354   2.492 -1.0638  0.3653 -0.7927
  384SOL    HW2 1152   0.637   2.480   2.389 -0.9613  0.6595  0.5793
  385SOL     OW 1153   3.061   1.183   1.081  0.2796 -0.9903  0.3573
  385SOL    HW1 1154   3.071   1.250   1.159  0.5618  0.4957  1.5365
  385SOL    HW2 1155   2.990   1.218   1.014  2.3139 -0.6563 -1.1758
  386SOL     OW 1156   1.930   1.619   1.425 -0.4549  0.1237  0.2154
  386SOL    HW1 1157   1.956   1.517   1.424 -1.9530 -1.1115 -1.5447
  386SOL    HW2 1158   1.970   1.660   1.346 -0.7070 -1.4337  1.5617
  387SOL     OW 1159   2.659   1.176   1.913 -0.0113 -0.2345  0.3290
  387SOL    HW1 1160   2.742   1.217   1.874 -2.8178 -2.2521 -1.4083
  387SOL    HW2 1161   2.584   1.177   1.847  0.1213 -0.9535  0.6807
  388SOL     OW 1162   2.569   1.273   2.174 -0.7452 -0.0542  0.2868
  388SOL    HW1 1163   2.607   1.234   2.263  0.1836 -0.6067 -0.4253
  388SOL    HW2 1164   2.600   1.215   2.095 -0.7257 -1.8672 -1.2772
  389SOL     OW 1165   2.028   1.161   1.839 -0.0912 -0.3996 -0.2873
  389SOL    HW1 1166   1.985   1.135   1.927  2.4814  0.9037  2.0795
  389SOL    HW2 1167   2.131   1.171   1.858  2.7541  0.2933  0.8519
  390SOL     OW 1168   1.625   2.619   0.318 -0.2443  0.0207 -0.1839
  390SOL    HW1 1169   1.701   2.561   0.280  0.3325  0.6962  1.7123
  390SOL    HW2 1170   1.599   2.595   0.410  1.1341  1.1379  0.7890
  391SOL     OW 1171   2.160   1.874   0.849 -0.2051 -0.5825 -0.4637
  391SOL    HW1 1172   2.208   1.934   0.918  0.6169 -0.6067  1.4346
  391SOL    HW2 1173   2.062   1.894   0.841  0.9334 -1.6704 -0.0929
  392SOL     OW 1174   2.858   2.479   1.110 -0.3937  0.0650 -0.2813
  392SOL    HW1 1175   2.923   2.410   1.069  0.4765  0.6612 -0.0808
  392SOL    HW2 1176   2.905   2.564   1.140  0.2308 -2.5432 -0.4907
  393SOL     OW 1177   1.815   1.820   2.918 -0.4771 -0.3207  0.1143
  393SOL    HW1 1178   1.722   1.783   2.923  1.1938 -0.5219  0.0074
  393SOL    HW2 1179   1.864   1.824   3.008  1.6384  2.4262  2.1378
  394SOL     OW 1180   0.101   0.198   2.871  0.0703 -0.2575  0.2829
  394SOL    HW1 1181   0.077   0.102   2.902  0.8848  3.8059 -0.4221
  394SOL    HW2 1182   0.171   0.228   2.937 -1.5418 -2.1959  0.4210
  395SOL     OW 1183   0.754   0.896   0.864 -0.2294 -0.4259  0.4272
  395SOL    HW1 1184   0.839   0.842   0.854 -1.9145 -0.0307 -1.0735
  395SOL    HW2 1185   0.763   0.995   0.824 -3.0382  1.9800  2.1373
  396SOL     OW 1186   1.259   1.117   0.388  0.0518 -0.6927  0.1659
  396SOL    HW1 1187   1.272   1.020   0.357 -0.1158  1.3152 -0.8194
  396SOL    HW2 1188   1.338   1.157   0.429 -2.5993  0.6430 -3.1685
  397SOL     OW 1189   0.464   0.776   2.133  0.5977 -0.7461 -0.1238
  397SOL    HW1 1190   0.380   0.739   2.091  0.1319 -0.3982  0.5197
  397SOL    HW2 1191   0.508   0.849   2.076 -0.2697 -2.2085  1.9109
  398SOL     OW 1192   1.231   0.214   0.554  0.1780 -0.1141  0.1928
  398SOL    HW1 1193   1.334   0.218   0.537 -0.0258  0.0713 -1.3021
  398SOL    HW2 1194   1.197   0.120   0.572  0.0594 -0.5508  1.1141
  399SOL     OW 1195   2.017   3.040   1.741  0.4183 -0.0877  0.3971
  399SOL    HW1 1196   1.982   2.945   1.741  0.0198 -1.6204 -1.0534
  399SOL    HW2 1197   1.956   3.098   1.683  2.7618 -0.0853  0.8601
  400SOL     OW 1198   1.097   1.596   2.024 -0.2751 -0.0220 -0.4350
  400SOL    HW1 1199   1.194   1.635   2.006  3.7025  0.5696  1.4617
  400SOL    HW2 1200   1.086   1.572   2.125  2.2535 -1.4760  2.0925
  401SOL     OW 1201   0.697   1.021   2.911 -0.0106  0.0306  0.0539
  401SOL    HW1 1202   0.719   0.924   2.926  1.4366  5.4929  1.5473
  401SOL    HW2 1203   0.638   1.069   2.980 -1.1837  1.0722 -1.0543
  402SOL     OW 1204   2.783   1.944   0.994 -0.6039 -0.3550 -0.0905
  402SOL    HW1 1205   2.858   1.892   0.950 -3.3565 -0.4460  1.5609
  402SOL    HW2 1206   2.698   1.888   1.001 -0.4702  1.0763 -1.7248
  403SOL     OW 1207   0.138   0.892   2.197  0.3023 -0.0586 -0.3673
  403SOL    HW1 1208   0.080   0.936   2.268 -1.9934 -1.0998  2.3227
  403SOL    HW2 1209   0.153   0.947   2.113  1.7445 -2.3170  0.8823
  404SOL     OW 1210   0.248   2.696   1.761 -0.3344  0.2756 -0.3235
  404SOL    HW1 1211   0.331   2.758   1.749  0.5840 -0.1534 -0.4440
  404SOL    HW2 1212   0.202   2.671   1.674  0.4036 -0.0445 -1.1369
  405SOL     OW 1213   0.468   0.394   2.024  0.0050  0.4308 -0.4232
  405SOL    HW1 1214   0.368   0.395   2.001  0.2270  0.0487  1.1074
  405SOL    HW2 1215   0.479   0.395   2.126  0.5128 -2.2840  1.6762
  406SOL     OW 1216   1.628   2.103   2.292 -0.3443  0.2041 -0.4914
  406SOL    HW1 1217   1.612   2.074   2.200  1.9411  0.1915  1.9198
  406SOL    HW2 1218   1.601   2.031   2.361 -0.5240  2.5257  1.4509
  407SOL     OW 1219   1.234   1.215   2.302  0.1081  0.2548 -0.1472
  407SOL    HW1 1220   1.278   1.308   2.290  0.5887  3.9046 -0.8553
  407SOL    HW2 1221   1.301   1.138   2.304 -1.2466  0.6548 -0.6405
  408SOL     OW 1222   0.880   0.101   2.511 -0.2299  0.2581 -0.2200
  408SOL    HW1 1223   0.852   0.095   2.411  0.1674  0.5580 -1.8942
  408SOL    HW2 1224   0.982   0.103   2.516  0.6137 -2.5871  1.4392
  409SOL     OW 1225   0.470   1.940   0.556 -0.0917 -0.1986 -0.3528
  409SOL    HW1 1226   0.504   1.848   0.539  2.2824  0.8439 -0.4606
  409SOL    HW2 1227   0.511   2.007   0.494  0.3537 -2.3584  0.9943
  410SOL     OW 1228   2.941   1.170   0.328 -0.0624 -0.0242  0.6829
  410SOL    HW1 1229   2.962   1.067   0.328  0.8762 -3.4612  0.6666
  410SOL    HW2 1230   2.841   1.192   0.308 -2.1225  1.0307 -0.0150
  411SOL     OW 1231   0.114   3.088   1.084  0.2509  0.2519  0.3789
  411SOL    HW1 1232   0.119   0.047   0.998  0.9051  0.4709 -3.2049
  411SOL    HW2 1233   0.032   0.013   1.141  0.3343 -0.6322  0.4670
  412SOL     OW 1234   1.497   0.893   1.489 -0.1522  0.1440 -0.2441
  412SOL    HW1 1235   1.549   0.895   1.397  0.8152  0.8810 -1.8991
  412SOL    HW2 1236   1.524   0.813   1.547  0.2380 -1.6917 -0.9678
  413SOL     OW 1237   0.657   0.027   1.601 -0.6146 -0.5521 -0.4322
  413SOL    HW1 1238   0.681   0.126   1.602  0.4020  3.4679 -2.3716
  413SOL    HW2 1239   0.713   3.081   1.528 -0.5835 -2.5752  2.6099
  414SOL     OW 1240   2.736   1.528   2.734  0.0545  0.3745 -0.3083
  414SOL    HW1 1241   2.722   1.628   2.714 -0.9573 -1.9097 -3.3527
  414SOL    HW2 1242   2.768   1.516   2.830 -2.4337  2.9568  0.6444
  415SOL     OW 1243   0.550   2.582   2.879 -0.1218  0.2767  0.0891
  415SOL    HW1 1244   0.616   2.535   2.816  2.7162 -0.6583  0.7203
  415SOL    HW2 1245   0.590   2.663   2.922 -0.7883 -0.1114 -0.4863
  416SOL     OW 1246   2.039   2.797   0.352  0.3138 -0.2550 -0.0435
  416SOL    HW1 1247   2.020   2.833   0.261 -2.4314  1.6062  1.6057
  416SOL    HW2 1248   2.006   2.861   0.424  0.9453  3.1996 -0.5307
  417SOL     OW 1249   0.328   0.609   0.795  0.0578  0.2855  0.2585
  417SOL    HW1 1250   0.407   0.676   0.805  1.4413 -0.4077  1.5491
  417SOL    HW2 1251   0.326   0.551   0.879  1.1629 -0.7009  0.8816
  418SOL     OW 1252   2.402   0.547   1.112  1.1282 -0.0194  0.9403
  418SOL    HW1 1253   2.319   0.602   1.088  0.1384  1.2704 -1.2601
  418SOL    HW2 1254   2.396   0.501   1.205  0.8699  1.2226  0.1237
  419SOL     OW 1255   0.044   0.119   0.400 -0.2803  0.9112 -0.3305
  419SOL    HW1 1256   0.027   0.221   0.387  1.1489  2.3621 -1.4752
  419SOL    HW2 1257   0.011   0.089   0.495 -1.4425  1.2152  2.2312
  420SOL     OW 1258   0.421   1.604   1.502  0.4362 -0.1362  0.2895
  420SOL    HW1 1259   0.428   1.709   1.495 -0.4755  3.2662  2.8110
  420SOL    HW2 1260   0.487   1.572   1.568  1.1630  3.1273 -4.0037
  421SOL     OW 1261   1.093   3.058   0.627  0.0618  0.7073 -0.0695
  421SOL    HW1 1262   1.040   3.049   0.717  0.4673  0.3259 -0.4843
  421SOL    HW2 1263   1.155   2.976   0.622  1.1211 -4.7893 -0.4765
  422SOL     OW 1264   0.231   0.491   1.562  0.3580 -0.2406  0.1413
  422SOL    HW1 1265   0.239   0.547   1.646 -0.7068 -2.5010  0.9451
  422SOL    HW2 1266   0.285   0.540   1.490  0.5155  0.4806 -2.2571
  423SOL     OW 1267   1.170   1.124   1.397 -0.3140 -0.2802  0.8932
  423SOL    HW1 1268   1.196   1.164   1.487 -2.5765 -1.2686  2.2710
  423SOL    HW2 1269   1.214   1.034   1.377 -2.6701 -1.0438 -1.0359
  424SOL     OW 1270   2.098   1.446   2.848 -0.1929  0.3519 -0.1726
  424SOL    HW1 1271   2.119   1.505   2.926  1.0133 -0.0741  0.2589
  424SOL    HW2 1272   1.998   1.421   2.847 -2.1724 -1.9044  2.0328
  425SOL     OW 1273   2.991   0.285   2.176  0.0331 -0.8126  0.1201
  425SOL    HW1 1274   3.066   0.246   2.238 -1.0769  0.6692  1.7222
  425SOL    HW2 1275   2.969   0.381   2.205  1.9483 -1.2389 -0.1755
  426SOL     OW 1276   0.365   2.960   2.968  0.3749 -0.8290 -0.3552
  426SOL    HW1 1277   0.339   2.990   3.064  1.3398  2.5563  2.4169
  426SOL    HW2 1278   0.285   2.938   2.912 -0.0333 -1.7383  1.4795
  427SOL     OW 1279   1.226   1.035   2.721  0.3515  0.0347  0.1789
  427SOL    HW1 1280   1.306   1.083   2.681 -1.0745  1.3059 -0.0129
  427SOL    HW2 1281   1.182   1.092   2.795  0.6126  1.3526  0.5176
  428SOL     OW 1282   2.444   1.116   1.563 -0.1578  1.0698  0.4422
  428SOL    HW1 1283   2.484   1.025   1.588  1.0862  0.8117 -0.2612
  428SOL    HW2 1284   2.444   1.119   1.461 -0.4328 -0.2275 -1.7560
  429SOL     OW 1285   2.207   2.717   0.749 -0.1408  0.3351 -0.4133
  429SOL    HW1 1286   2.223   2.790   0.681 -1.2280 -3.1120 -1.2396
  429SOL    HW2 1287   2.298   2.698   0.801  1.0526  1.4244  1.0756
  430SOL     OW 1288   0.845   1.387   2.359 -0.1519 -0.1167 -0.0251
  430SOL    HW1 1289   0.834   1.284   2.351  0.7790 -0.9645  0.7275
  430SOL    HW2 1290   0.841   1.416   2.462  1.0066  3.1141  2.0019
  431SOL     OW 1291   2.540   1.376   1.625  0.3970  0.0292  0.4220
  431SOL    HW1 1292   2.622   1.391   1.569 -4.0622 -2.9787  2.3222
  431SOL    HW2 1293   2.511   1.278   1.604 -1.3098 -0.5292 -1.3423
  432SOL     OW 1294   1.141   2.596   2.385 -0.1040 -0.5645 -0.0838
  432SOL    HW1 1295   1.185   2.686   2.373  0.0813  1.1044 -0.8475
  432SOL    HW2 1296   1.214   2.525   2.400  0.8952 -0.4018 -1.3172
  433SOL     OW 1297   2.197   0.105   2.445  0.1524 -0.3824 -0.0981
  433SOL    HW1 1298   2.282   0.131   2.401  3.4036 -2.6289  0.2592
  433SOL    HW2 1299   2.171   0.014   2.419  2.2122  0.5937  0.8797
  434SOL     OW 1300   0.374   2.706   2.346  0.0609 -0.1107  0.6984
  434SOL    HW1 1301   0.300   2.652   2.390  0.4298 -1.0070 -0.7039
  434SOL    HW2 1302   0.431   2.646   2.286  3.0084  2.6784 -1.2898
  435SOL     OW 1303   0.030   2.718   0.483 -0.4166 -0.2051 -0.1348
  435SOL    HW1 1304   3.078   2.778   0.541  0.1448 -0.2911 -2.0508
  435SOL    HW2 1305   3.083   2.627   0.472 -1.3827 -4.7832  0.1187
  436SOL     OW 1306   0.906   0.513   2.014  0.2619 -0.6348  0.0391
  436SOL    HW1 1307   0.809   0.544   2.018 -1.7040 -2.5820  1.2856
  436SOL    HW2 1308   0.941   0.466   2.100  1.6195 -2.0507  3.4268
  437SOL     OW 1309   0.225   2.510   2.456 -0.5716  0.3283 -0.4786
  437SOL    HW1 1310   0.230   2.438   2.386  0.3249  0.0652 -1.3306
  437SOL    HW2 1311   0.188   2.482   2.544  0.9943 -0.4310 -0.4781
  438SOL     OW 1312   0.671   1.311   1.819 -0.8645 -0.5814 -0.3703
  438SOL    HW1 1313   0.655   1.401   1.771 -2.0928 -3.2338  2.3813
  438SOL    HW2 1314   0.768   1.273   1.804  3.0744  0.3561  1.0256
  439SOL     OW 1315   2.345   0.959   2.173  0.0678  0.4997 -0.1641
  439SOL    HW1 1316   2.301   0.930   2.264 -0.0565 -2.8833 -0.3179
  439SOL    HW2 1317   2.329   1.056   2.146  0.2631  0.0598  2.2932
  440SOL     OW 1318   0.466   0.719   0.410 -0.2272 -0.2952 -0.5898
  440SOL    HW1 1319   0.481   0.681   0.318 -0.3255 -1.2757  0.0553
  440SOL    HW2 1320   0.534   0.787   0.422 -1.8620 -2.7470  0.5749
  441SOL     OW 1321   0.732   2.437   1.318 -0.0590 -0.1838  0.4582
  441SOL    HW1 1322   0.778   2.476   1.405  0.7410 -0.6455  1.9952
  441SOL    HW2 1323   0.700   2.509   1.252  3.7405  1.2026  0.8516
  442SOL     OW 1324   2.233   1.391   0.614  0.2289 -0.5258 -0.3952
  442SOL    HW1 1325   2.194   1.453   0.536 -0.8795 -0.0160 -1.9893
  442SOL    HW2 1326   2.317   1.338   0.588  1.0161  2.3385 -1.7584
  443SOL     OW 1327   2.685   1.806   2.399 -0.1114  0.0279 -0.5432
  443SOL    HW1 1328   2.640   1.852   2.319  1.4323  0.4985 -0.2596
  443SOL    HW2 1329   2.716   1.710   2.376 -1.8606 -1.5433 -1.7844
  444SOL     OW 1330   1.625   1.473   2.962 -0.3427  0.2729  0.2408
  444SOL    HW1 1331   1.683   1.518   3.033 -1.5571 -0.2337  1.0306
  444SOL    HW2 1332   1.580   1.391   2.995  1.6499  1.9744  0.6607
  445SOL     OW 1333   2.678   2.654   2.136  0.0975 -0.4045 -0.4806
  445SOL    HW1 1334   2.722   2.588   2.072 -2.6826  1.1683  2.2104
  445SOL    HW2 1335   2.723   2.749   2.133  2.1506 -0.1572  1.9698
  446SOL     OW 1336   0.405   0.903   1.507 -0.0577 -0.2696  0.2370
  446SOL    HW1 1337   0.470   0.846   1.459 -0.3403  1.1163  2.1171
  446SOL    HW2 1338   0.459   0.976   1.555 -1.9806  1.2255 -1.2964
  447SOL     OW 1339   0.926   1.376   0.892 -0.0280 -0.1744  0.2236
  447SOL    HW1 1340   1.027   1.385   0.872  1.7579  0.2727 -2.8402
  447SOL    HW2 1341   0.895   1.411   0.984 -0.1250  0.9408  1.3069
  448SOL     OW 1342   1.158   1.196   1.672 -0.2997  0.0978 -0.5165
  448SOL    HW1 1343   1.229   1.232   1.739  0.4518  2.8781  1.8548
  448SOL    HW2 1344   1.111   1.113   1.715 -2.1933 -1.7861  0.2850
  449SOL     OW 1345   3.079   1.910   2.227  0.3026 -0.4686  0.2582
  449SOL    HW1 1346   3.099   2.000   2.185 -0.9277  0.2677  0.2144
  449SOL    HW2 1347   0.039   1.845   2.188 -1.5060 -0.5312  0.7002
  450SOL     OW 1348   2.794   1.934   1.962 -0.0855  0.3157  0.2275
  450SOL    HW1 1349   2.804   2.032   1.989  1.7832 -0.4357 -1.0388
  450SOL    HW2 1350   2.885   1.889   1.957 -2.5359  0.0724 -2.5391
  451SOL     OW 1351   2.240   1.025   1.318  0.1951 -0.3387 -0.0200
  451SOL    HW1 1352   2.154   0.991   1.362 -0.2994  1.6647  0.6824
  451SOL    HW2 1353   2.319   0.966   1.342  0.4976 -1.8173 -0.0392
  452SOL     OW 1354   0.555   1.259   1.428 -0.2880 -0.9000 -0.0084
  452SOL    HW1 1355   0.587   1.214   1.519 -2.8872 -0.9090 -0.3175
  452SOL    HW2 1356   0.453   1.258   1.422 -0.3527 -0.6293 -0.4033
  453SOL     OW 1357   0.454   1.331   1.071 -0.0455  0.4456  0.1001
  453SOL    HW1 1358   0.368   1.274   1.061 -0.0480  0.2936 -2.0714
  453SOL    HW2 1359   0.518   1.279   1.129 -1.9660 -1.0430 -0.0724
  454SOL     OW 1360   0.461   1.741   0.082 -0.1658 -0.0116  0.1656
  454SOL    HW1 1361   0.551   1.729   0.133 -0.4561  0.3470 -0.4547
  454SOL    HW2 1362   0.427   1.650   0.052 -3.5486  2.5817 -1.0136
  455SOL     OW 1363   1.983   0.889   0.944  0.4465  0.0705  0.3022
  455SOL    HW1 1364   2.004   0.975   0.995 -2.3897 -1.5335  0.5179
  455SOL    HW2 1365   1.889   0.864   0.976  2.5864 -0.0157 -1.4694
  456SOL     OW 1366   1.978   2.508   0.761  0.6722 -0.0948 -0.1514
  456SOL    HW1 1367   2.052   2.577   0.764  2.7877  3.1655  2.9325
  456SOL    HW2 1368   1.999   2.428   0.820  1.5306 -3.6577  1.9193
  457SOL     OW 1369   1.953   2.981   2.748  0.0297  0.4424  0.3328
  457SOL    HW1 1370   1.875   3.029   2.704  1.8862  3.0498  2.1958
  457SOL    HW2 1371   1.999   2.911   2.686  1.7281  0.0384 -0.4045
  458SOL     OW 1372   2.364   0.302   0.204  0.3424 -0.2408  0.5779
  458SOL    HW1 1373   2.408   0.300   0.111  2.1153  1.0130 -1.6477
  458SOL    HW2 1374   2.291   0.373   0.205  0.9225 -0.9320 -2.1854
  459SOL     OW 1375   0.032   1.128   2.352 -0.2148  0.4630 -0.4758
  459SOL    HW1 1376   3.037   1.097   2.345  2.8332  2.5141 -0.7726
  459SOL    HW2 1377   0.055   1.195   2.283 -3.5542 -0.6454  0.3328
  460SOL     OW 1378   0.138   0.777   3.077  0.4335  0.4188  0.2421
  460SOL    HW1 1379   0.152   0.698   3.010  4.3546 -2.1047 -1.3879
  460SOL    HW2 1380   0.187   0.862   3.042  0.8841  0.3083 -0.2169
  461SOL     OW 1381   2.636   2.386   0.850  0.0064 -0.0835  0.1511
  461SOL    HW1 1382   2.658   2.480   0.885  1.2091  1.4534  1.0707
  461SOL    HW2 1383   2.722   2.340   0.812 -2.5296 -0.3542 -1.3550
  462SOL     OW 1384   0.404   3.077   1.594 -0.2623  0.2870  0.1444
  462SOL    HW1 1385   0.502   0.005   1.601  0.0623 -2.2819 -0.4505
  462SOL    HW2 1386   0.391   3.023   1.505 -1.7246  0.3778 -3.6704
  463SOL     OW 1387   2.111   2.353   2.070  0.3005  0.4977  0.0607
  463SOL    HW1 1388   2.027   2.393   2.113 -0.4465  1.2914  1.7406
  463SOL    HW2 1389   2.092   2.366   1.968 -0.6396 -0.5241 -2.3965
  464SOL     OW 1390   0.424   2.972   1.362 -0.5292  0.4154 -0.2121
  464SOL    HW1 1391   0.495   3.039   1.330 -1.3900 -1.4097  0.0937
  464SOL    HW2 1392   0.362   2.949   1.285 -0.0143 -0.0162  1.6167
  465SOL     OW 1393   0.746   0.287   1.570  0.3576  0.1893  0.1060
  465SOL    HW1 1394   0.838   0.329   1.583 -0.4497 -0.0747  0.3348
  465SOL    HW2 1395   0.675   0.348   1.607 -0.5147 -0.2555 -1.2842
  466SOL     OW 1396   1.494   1.876   1.852 -0.2856 -0.4618  0.3732
  466SOL    HW1 1397   1.556   1.821   1.794 -0.1652  0.6625  1.0624
  466SOL    HW2 1398   1.401   1.887   1.807 -0.2768 -0.4287  1.2615
  467SOL     OW 1399   0.046   1.662   1.004 -0.2483  0.1478 -0.0859
  467SOL    HW1 1400   0.126   1.638   1.063 -1.3068  1.1225 -2.5874
  467SOL    HW2 1401   0.068   1.623   0.913  0.8812 -1.1980 -0.4388
  468SOL     OW 1402   2.301   2.163   2.734  0.1179 -0.2764 -0.1516
  468SOL    HW1 1403   2.355   2.185   2.650  1.2216  0.4750 -2.2949
  468SOL    HW2 1404   2.208   2.127   2.715  0.8888  2.1590  0.5646
  469SOL     OW 1405   1.210   2.269   0.609  0.4413  0.3207 -0.0884
  469SOL    HW1 1406   1.109   2.276   0.626  1.5786  0.4047 -0.8238
  469SOL    HW2 1407   1.250   2.341   0.549  2.2020 -2.0353 -2.5995
  470SOL     OW 1408   2.021   1.684   1.171  0.1636  0.1659 -0.3490
  470SOL    HW1 1409   2.079   1.761   1.190 -0.0426  1.3470 -1.4116
  470SOL    HW2 1410   1.983   1.691   1.078 -1.2705  1.3440 -0.0833
  471SOL     OW 1411   0.700   2.640   0.263 -0.1471  0.0388  0.2806
  471SOL    HW1 1412   0.602   2.620   0.242  1.8101  1.7120 -2.2065
  471SOL    HW2 1413   0.754   2.635   0.178  2.5292  1.4159 -1.1031
  472SOL     OW 1414   2.585   1.947   2.172  0.3921  0.2680 -0.3596
  472SOL    HW1 1415   2.639   1.936   2.085  0.2933 -1.7451 -2.0244
  472SOL    HW2 1416   2.540   2.042   2.182 -2.1540  1.8168  0.8737
  473SOL     OW 1417   1.217   2.814   0.891 -0.2531 -0.0532  0.0191
  473SOL    HW1 1418   1.239   2.813   0.793 -0.2745 -0.5738 -2.4924
  473SOL    HW2 1419   1.269   2.890   0.941 -1.3664 -2.8333  0.1859
  474SOL     OW 1420   3.013   0.049   1.242 -0.0786 -0.0326 -0.0171
  474SOL    HW1 1421   2.919   0.024   1.232  1.2354 -0.8251 -1.7832
  474SOL    HW2 1422   3.033   0.068   1.342  1.3816  1.0822  1.5999
  475SOL     OW 1423   1.683   2.692   1.867 -0.2342 -0.1120 -0.5930
  475SOL    HW1 1424   1.698   2.633   1.948 -0.2898 -0.4332 -0.4775
  475SOL    HW2 1425   1.619   2.652   1.795  1.1718  1.0984 -0.7949
  476SOL     OW 1426   0.377   0.385   0.981 -0.1168  0.0788 -0.1160
  476SOL    HW1 1427   0.478   0.398   0.983 -0.8019  0.5172 -0.5838
  476SOL    HW2 1428   0.350   0.316   1.054 -1.2130  2.7247  0.1341
  477SOL     OW 1429   0.831   2.234   0.951  0.2139  0.0534  0.1033
  477SOL    HW1 1430   0.927   2.196   0.948 -2.6940  0.1851  1.5220
  477SOL    HW2 1431   0.837   2.331   0.977 -1.2298 -1.1927  3.8421
  478SOL     OW 1432   0.772   2.815   2.754  0.0613 -0.6516 -0.0697
  478SOL    HW1 1433   0.741   2.718   2.750  1.2866  1.7366  0.7130
  478SOL    HW2 1434   0.710   2.882   2.706  0.9988  0.1653 -2.5338
  479SOL     OW 1435   0.214   0.419   1.998 -0.3331 -0.1157  0.8893
  479SOL    HW1 1436   0.175   0.480   2.073 -1.7113 -0.0372  2.3923
  479SOL    HW2 1437   0.128   0.374   1.954 -0.8413  0.2888 -0.8407
  480SOL     OW 1438   0.012   2.054   3.021 -0.3058  0.6150 -0.0760
  480SOL    HW1 1439   0.077   2.039   0.003  4.7408 -0.8809 -1.0441
  480SOL    HW2 1440   3.100   2.157   3.006 -2.2843  0.2014 -0.6155
  481SOL     OW 1441   1.513   2.544   2.106 -0.2733 -0.2542  0.7393
  481SOL    HW1 1442   1.550   2.476   2.171  0.2153 -2.6299  2.2007
  481SOL    HW2 1443   1.426   2.507   2.069 -0.0374  2.0263  0.6395
  482SOL     OW 1444   1.476   2.104   2.883  0.0968  0.2465  0.1991
  482SOL    HW1 1445   1.409   2.164   2.843  0.4592  0.1745  3.0182
  482SOL    HW2 1446   1.533   2.054   2.817  1.3614 -1.1608  0.7916
  483SOL     OW 1447   0.724   2.536   2.681  0.1630  0.5864  0.1477
  483SOL    HW1 1448   0.706   2.478   2.595 -1.8251  0.2555 -1.1282
  483SOL    HW2 1449   0.821   2.530   2.703 -3.0220  1.4868 -4.1282
  484SOL     OW 1450   0.414   2.962   0.896  0.0627  0.0020  0.0996
  484SOL    HW1 1451   0.447   3.058   0.914  0.5489 -1.5942 -1.6744
  484SOL    HW2 1452   0.326   2.949   0.843 -0.5482  0.0967 -1.3258
  485SOL     OW 1453   1.997   0.590   0.744 -0.2164  0.0084 -0.0590
  485SOL    HW1 1454   1.937   0.591   0.831 -3.3324  0.9195  1.2364
  485SOL    HW2 1455   2.086   0.640   0.756  0.5119  1.6110  2.6168
  486SOL     OW 1456   1.933   2.649   2.011  0.3399  0.3406  0.1017
  486SOL    HW1 1457   2.014   2.699   1.970  2.7938  2.5370 -0.6029
  486SOL    HW2 1458   1.892   2.705   2.082 -0.0079 -0.7080  2.4841
  487SOL     OW 1459   1.379   2.027   0.701  0.0356 -0.3773  0.4413
  487SOL    HW1 1460   1.292   2.062   0.666  3.0407 -0.4636  1.4950
  487SOL    HW2 1461   1.365   1.983   0.789 -0.9774 -0.2834 -0.0373
  488SOL     OW 1462   1.833   0.536   0.180  0.4651  0.2921  0.1671
  488SOL    HW1 1463   1.854   0.550   0.281  1.9812 -2.9487 -0.4951
  488SOL    HW2 1464   1.912   0.508   0.117 -0.2012 -1.9340 -0.9103
  489SOL     OW 1465   2.271   3.078   0.492 -0.6197 -0.0658 -0.0487
  489SOL    HW1 1466   2.284   0.035   0.574  1.9269 -0.1306 -2.3291
  489SOL    HW2 1467   2.320   2.987   0.501  0.0340 -2.4747  0.6083
  490SOL     OW 1468   1.611   2.638   2.935  0.3009  0.3151  0.0719
  490SOL    HW1 1469   1.592   2.716   2.991  2.5655  1.0243 -1.8990
  490SOL    HW2 1470   1.656   2.665   2.849 -0.7048 -0.7153  4.0930
  491SOL     OW 1471   0.987   0.541   1.210 -0.4540  0.1185  0.0043
  491SOL    HW1 1472   1.001   0.526   1.112 -1.2078 -1.3686  2.2138
  491SOL    HW2 1473   1.006   0.451   1.261  2.2084 -3.5535  1.0071
  492SOL     OW 1474   1.803   0.249   0.215  0.0703  0.2356 -0.3856
  492SOL    HW1 1475   1.881   0.215   0.163  0.3110  0.6933  5.0931
  492SOL    HW2 1476   1.798   0.349   0.209 -0.2025  1.5177  0.2134
  493SOL     OW 1477   1.961   2.213   2.880  0.2719  0.5052  0.2601
  493SOL    HW1 1478   2.000   2.304   2.870  0.3568 -1.5263  1.0221
  493SOL    HW2 1479   2.028   2.158   2.932 -0.2192 -0.3634  0.5809
  494SOL     OW 1480   0.227   1.169   1.017 -0.0760 -0.1970 -0.1563
  494SOL    HW1 1481   0.257   1.069   1.025 -2.3502  1.1713  0.8106
  494SOL    HW2 1482   0.128   1.178   1.039  1.3466  2.1208 -2.3530
  495SOL     OW 1483   3.022   0.046   1.513 -0.5579  0.0957  0.0703
  495SOL    HW1 1484   2.957   0.121   1.519  0.1284 -2.0620  1.5516
  495SOL    HW2 1485   3.099   0.068   1.578  0.1847 -0.2259 -0.6644
  496SOL     OW 1486   2.823   2.524   1.897 -0.0743  0.4109  0.2376
  496SOL    HW1 1487   2.867   2.545   1.807 -1.2404 -0.0921  0.5558
  496SOL    HW2 1488   2.737   2.470   1.891  1.0867  0.5912  0.5816
  497SOL     OW 1489   1.677   1.889   2.468  0.0357 -0.7975  0.2015
  497SOL    HW1 1490   1.633   1.805   2.437 -2.5625 -1.4014 -1.0415
  497SOL    HW2 1491   1.778   1.872   2.463  0.1195 -1.0225 -2.0625
  498SOL     OW 1492   0.370   1.737   0.854  0.4816  0.1113 -0.1562
  498SOL    HW1 1493   0.285   1.680   0.852 -2.8360 -1.9436 -0.1194
  498SOL    HW2 1494   0.403   1.758   0.763 -0.6827 -2.3046  1.5007
  499SOL     OW 1495   0.209   1.442   1.359 -0.0308 -0.2506  0.2626
  499SOL    HW1 1496   0.248   1.353   1.387 -1.5266  0.8464  0.2608
  499SOL    HW2 1497   0.265   1.511   1.406 -3.3323 -3.7348  0.9704
  500SOL     OW 1498   1.277   2.457   0.431  0.0660  0.0500  0.4746
  500SOL    HW1 1499   1.330   2.427   0.348 -1.1229 -2.4985  0.9947
  500SOL    HW2 1500   1.215   2.535   0.397  1.1053 -1.0251 -3.3829
  501SOL     OW 1501   2.123   2.299   0.937 -0.3982 -0.1375 -0.4455
  501SOL    HW1 1502   2.183   2.366   0.985  0.3977 -0.9352  4.4055
  501SOL    HW2 1503   2.165   2.262   0.856 -1.4057  1.0768  3.1095
  502SOL     OW 1504   0.087   0.806   1.706  0.2163  0.4094  0.1005
  502SOL    HW1 1505   0.105   0.838   1.612 -1.1518 -0.2016  1.9668
  502SOL    HW2 1506   0.162   0.738   1.730  0.8788  0.6143  0.4664
  503SOL     OW 1507   2.162   0.087   1.916  0.1936 -0.0474  0.0431
  503SOL    HW1 1508   2.113   0.039   1.841  0.7870  0.2287  1.3283
  503SOL    HW2 1509   2.231   0.159   1.880 -1.6342  4.3240 -0.2374
  504SOL     OW 1510   2.027   0.726   1.973  0.4594  0.7117  0.1857
  504SOL    HW1 1511   1.975   0.762   2.053  3.8649  3.0209 -0.8776
  504SOL    HW2 1512   2.126   0.743   1.986 -0.3360  0.8496  0.6104
  505SOL     OW 1513   1.199   2.857   2.418 -0.2121  0.0752 -0.4480
  505SOL    HW1 1514   1.241   2.888   2.508 -0.5721 -1.0302  2.0609
  505SOL    HW2 1515   1.101   2.849   2.431  0.0226  1.4035  1.1677
  506SOL     OW 1516   0.509   0.181   1.833 -0.1644 -0.2616 -0.7252
  506SOL    HW1 1517   0.491   0.256   1.900  2.1946 -0.6266 -0.4162
  506SOL    HW2 1518   0.480   0.202   1.736  0.5523  1.3029 -2.9278
  507SOL     OW 1519   1.595   0.327   2.940  0.1571 -0.3914 -0.1370
  507SOL    HW1 1520   1.564   0.293   2.848 -0.6561  1.3063 -3.7230
  507SOL    HW2 1521   1.519   0.309   3.007 -0.6331  2.4682 -0.9812
  508SOL     OW 1522   2.549   0.640   2.503 -0.0041 -0.5622 -0.3866
  508SOL    HW1 1523   2.506   0.673   2.588 -2.5775 -0.6470 -2.2811
  508SOL    HW2 1524   2.570   0.713   2.434 -0.4309  1.4199 -0.1264
  509SOL     OW 1525   0.938   1.404   1.942  0.3256 -0.6690  0.6939
  509SOL    HW1 1526   0.979   1.332   2.001 -1.4219  2.7047 -0.4194
  509SOL    HW2 1527   0.985   1.493   1.962 -1.0252  3.3938  0.1717
  510SOL     OW 1528   3.026   0.558   0.790 -0.2122  0.0228 -0.0825
  510SOL    HW1 1529   3.058   0.608   0.706  3.2948 -2.2183 -0.3677
  510SOL    HW2 1530   2.929   0.585   0.814  0.2622 -0.1523 -0.9258
  511SOL     OW 1531   1.564   1.308   0.732  0.2304 -0.1972 -0.4227
  511SOL    HW1 1532   1.475   1.269   0.701 -1.0565  0.8340 -0.0577
  511SOL    HW2 1533   1.558   1.408   0.709  1.6786 -0.7672 -2.3761
  512SOL     OW 1534   0.684   1.443   0.281  0.2498  0.0913  0.4089
  512SOL    HW1 1535   0.586   1.425   0.309  3.4065  3.4492 -0.4803
  512SOL    HW2 1536   0.746   1.428   0.358  2.0604  1.4668 -3.6114
  513SOL     OW 1537   0.364   2.639   0.747  0.2986 -0.3260  0.2580
  513SOL    HW1 1538   0.453   2.667   0.708  0.8768  0.4055  1.6910
  513SOL    HW2 1539   0.346   2.545   0.725 -2.2913  1.5082  0.4242
  514SOL     OW 1540   0.360   2.156   3.046  0.4849  0.0135  0.4055
  514SOL    HW1 1541   0.383   2.258   3.046  2.2118  1.0266  3.3479
  514SOL    HW2 1542   0.295   2.127   0.025 -1.9404  0.9610  3.4558
  515SOL     OW 1543   2.716   0.320   0.227  0.2765  0.3984 -0.2425
  515SOL    HW1 1544   2.678   0.231   0.257  1.7029 -1.4543 -0.4326
  515SOL    HW2 1545   2.757   0.366   0.305 -1.9672  1.3408  0.9625
  516SOL     OW 1546   2.120   2.703   1.174 -0.3737  0.0166 -0.0250
  516SOL    HW1 1547   2.110   2.730   1.276  0.9465 -0.9809  2.5773
  516SOL    HW2 1548   2.046   2.649   1.137  0.3540 -2.0163  2.7646
  517SOL     OW 1549   1.356   1.638   3.049 -0.1570 -0.3433 -0.1768
  517SOL    HW1 1550   1.306   1.636   0.038 -1.0466  3.3058  0.2324
  517SOL    HW2 1551   1.339   1.558   2.994  0.3690  0.3199  1.8338
  518SOL     OW 1552   1.344   0.476   1.532  0.2745 -0.3590  0.0701
  518SOL    HW1 1553   1.313   0.496   1.436  0.6149  2.2476 -0.6848
  518SOL    HW2 1554   1.294   0.531   1.601  0.6297 -0.6741 -0.2529
  519SOL     OW 1555   2.964   2.152   0.562 -0.5737  0.6463 -0.3140
  519SOL    HW1 1556   3.017   2.231   0.588  2.1042 -4.3192 -1.7514
  519SOL    HW2 1557   2.884   2.134   0.625 -1.6766  0.7546 -2.3229
  520SOL     OW 1558   2.293   2.360   1.806 -0.0932 -0.5961 -0.3683
  520SOL    HW1 1559   2.241   2.438   1.776 -2.6347 -0.5345  0.0538
  520SOL    HW2 1560   2.338   2.379   1.893 -0.4200 -1.2633 -1.4789
  521SOL     OW 1561   1.331   2.875   2.671  0.2245  1.3181  0.5421
  521SOL    HW1 1562   1.299   2.780   2.681 -0.5034  3.1396 -1.7734
  521SOL    HW2 1563   1.341   2.910   2.769 -2.1556 -0.7718 -2.2434
  522SOL     OW 1564   2.789   0.107   1.910 -0.1873  0.1327 -0.3270
  522SOL    HW1 1565   2.884   0.081   1.941  2.7392  0.2379 -0.9412
  522SOL    HW2 1566   2.787   0.183   1.837  0.1164  3.2598  1.5658
  523SOL     OW 1567   1.177   2.127   1.722  0.4615  0.3725  0.4075
  523SOL    HW1 1568   1.163   2.096   1.817  0.4738 -2.2404 -4.6022
  523SOL    HW2 1569   1.169   2.046   1.654  1.7823  0.5940 -0.2107
  524SOL     OW 1570   2.112   2.233   0.132  0.3372 -0.3836 -0.6901
  524SOL    HW1 1571   2.167   2.318   0.144  0.0725 -2.2406 -0.0925
  524SOL    HW2 1572   2.128   2.188   0.046 -1.4696  2.4589  0.1561
  525SOL     OW 1573   2.952   0.903   0.346 -0.0858  0.7076 -0.2049
  525SOL    HW1 1574   3.033   0.851   0.303  2.5916 -2.0492  0.8277
  525SOL    HW2 1575   2.884   0.829   0.372 -0.7319  0.3238  0.4344
  526SOL     OW 1576   1.061   3.049   1.197 -0.1408 -0.2716  0.4821
  526SOL    HW1 1577   1.134   3.048   1.128 -0.2945  1.4428 -3.2835
  526SOL    HW2 1578   1.015   2.957   1.201  0.6334  0.4651 -0.1931
  527SOL     OW 1579   2.682   1.593   0.539  0.1710 -0.0470 -0.0638
  527SOL    HW1 1580   2.645   1.668   0.591  0.7593 -1.0691 -0.9057
  527SOL    HW2 1581   2.750   1.628   0.468  1.8513 -0.3214 -2.2161
  528SOL     OW 1582   0.662   0.831   2.531 -0.2032 -0.3040 -0.0580
  528SOL    HW1 1583   0.668   0.932   2.534 -0.3749  0.2551 -2.0542
  528SOL    HW2 1584   0.589   0.803   2.464  1.1576  0.0334 -0.9366
  529SOL     OW 1585   0.779   1.610   3.027  0.1193 -0.8750 -0.3591
  529SOL    HW1 1586   0.874   1.610   2.987 -2.3234 -1.5939  0.4570
  529SOL    HW2 1587   0.713   1.544   2.979 -2.5561 -1.7610  0.1456
  530SOL     OW 1588   1.734   1.264   2.017  0.3181 -0.1226  0.9442
  530SOL    HW1 1589   1.678   1.236   1.933 -2.0226 -1.1778 -0.6309
  530SOL    HW2 1590   1.812   1.198   2.035 -0.3595 -2.3495 -0.0733
  531SOL     OW 1591   0.809   2.218   2.764  0.2062  0.1784  0.3722
  531SOL    HW1 1592   0.725   2.162   2.783 -0.6403 -0.1408 -0.4216
  531SOL    HW2 1593   0.818   2.288   2.837  2.2001  0.2437 -1.4518
  532SOL     OW 1594   2.377   0.672   0.281 -0.5081  0.0883  0.5932
  532SOL    HW1 1595   2.397   0.765   0.240 -0.3841  2.4642  0.5311
  532SOL    HW2 1596   2.419   0.599   0.223 -0.3631  0.7322 -0.3773
  533SOL     OW 1597   3.053   0.447   1.649  0.3339 -0.5130  0.2218
  533SOL    HW1 1598   0.031   0.498   1.619 -3.4794 -1.9976  0.1971
  533SOL    HW2 1599   2.972   0.506   1.650  2.9010  2.3710  1.2161
  534SOL     OW 1600   1.740   0.534   3.010 -0.4364  0.5106  0.1427
  534SOL    HW1 1601   1.685   0.450   2.977 -2.5425 -1.4822  0.8138
  534SOL    HW2 1602   1.764   0.526   0.005 -0.2180  0.9396 -0.9297
  535SOL     OW 1603   0.856   0.165   0.253  0.1006  0.1432  0.7342
  535SOL    HW1 1604   0.907   0.140   0.166  1.5407 -1.7935 -1.2968
  535SOL    HW2 1605   0.767   0.117   0.255 -3.1534 -0.7433  4.2717
  536SOL     OW 1606   0.522   1.595   2.083 -0.4025  0.0653 -0.0887
  536SOL    HW1 1607   0.514   1.666   2.157  0.0714 -0.9786  0.6296
  536SOL    HW2 1608   0.593   1.528   2.101 -1.2221  0.2453  0.5167
  537SOL     OW 1609   0.547   2.382   1.823 -0.0696  0.3905 -0.3018
  537SOL    HW1 1610   0.496   2.360   1.734 -0.5378  0.4330 -2.7815
  537SOL    HW2 1611   0.475   2.379   1.899 -2.8333  0.1253  0.1287
  538SOL     OW 1612   0.198   2.056   0.138 -0.0040 -0.2912 -0.3858
  538SOL    HW1 1613   0.207   1.955   0.143 -4.3303 -0.1403  2.3684
  538SOL    HW2 1614   0.243   2.108   0.216  2.3319  0.3796 -1.6061
  539SOL     OW 1615   2.443   0.488   2.852  0.1361 -0.2615 -0.7193
  539SOL    HW1 1616   2.397   0.416   2.905 -2.4848  0.6788 -0.9601
  539SOL    HW2 1617   2.546   0.481   2.870  0.4226 -1.5798  2.0679
  540SOL     OW 1618   1.340   0.862   2.901  0.0563  0.2315 -0.5321
  540SOL    HW1 1619   1.291   0.907   2.826 -0.1826 -2.0573  2.6300
  540SOL    HW2 1620   1.434   0.896   2.914 -2.5475 -0.9626  0.2732
  541SOL     OW 1621   0.948   0.605   1.745  0.0853  0.0713  0.0955
  541SOL    HW1 1622   0.934   0.595   1.844 -2.1951 -0.4399  0.1984
  541SOL    HW2 1623   0.862   0.626   1.698  1.2421 -1.8108  0.7390
  542SOL     OW 1624   1.816   2.557   2.383  0.4183 -0.8439  0.4225
  542SOL    HW1 1625   1.753   2.495   2.338 -0.5232  2.7247  4.2435
  542SOL    HW2 1626   1.828   2.644   2.326  1.0378  0.9668 -1.2033
  543SOL     OW 1627   0.618   2.919   1.072  0.2217 -0.1475  0.0624
  543SOL    HW1 1628   0.532   2.924   1.022 -1.2355 -1.1569 -1.2072
  543SOL    HW2 1629   0.630   3.010   1.123 -0.7807  0.7909  0.7577
  544SOL     OW 1630   2.786   1.561   2.240  0.0374 -0.2843 -0.3048
  544SOL    HW1 1631   2.690   1.530   2.249  3.0934  1.6531 -0.2897
  544SOL    HW2 1632   2.824   1.566   2.332 -1.9296  0.4149 -2.5656
  545SOL     OW 1633   1.814   2.089   1.474  0.4841  0.6141 -0.4187
  545SOL    HW1 1634   1.871   2.041   1.541  0.2292 -0.2907  1.5371
  545SOL    HW2 1635   1.744   2.030   1.428 -0.8692  0.0177 -0.4085
  546SOL     OW 1636   0.249   0.323   2.452  0.3675 -0.3743 -0.6288
  546SOL    HW1 1637   0.163   0.285   2.413 -0.2595  1.7486 -0.7147
  546SOL    HW2 1638   0.305   0.250   2.497 -0.8534 -0.6028 -1.1265
  547SOL     OW 1639   1.466   0.506   0.838 -0.1506  0.1434  0.0336
  547SOL    HW1 1640   1.526   0.424   0.837  0.4085  1.4227  1.3670
  547SOL    HW2 1641   1.452   0.533   0.933  1.2382  1.5982 -2.1924
  548SOL     OW 1642   1.242   2.291   2.906 -0.3004  0.0761  0.2628
  548SOL    HW1 1643   1.188   2.319   2.984  1.5507 -0.8358 -1.3199
  548SOL    HW2 1644   1.329   2.343   2.899  0.5294  0.0417  1.6989
  549SOL     OW 1645   2.150   0.611   2.620 -0.1292 -0.3717 -0.5234
  549SOL    HW1 1646   2.220   0.663   2.675  1.5691  1.8076  0.5369
  549SOL    HW2 1647   2.165   0.629   2.526  2.1110 -2.2639  1.5045
  550SOL     OW 1648   2.650   2.042   0.349 -0.1116  0.3779 -0.2169
  550SOL    HW1 1649   2.562   2.031   0.307 -1.2958 -1.1142  2.5020
  550SOL    HW2 1650   2.722   1.973   0.318 -1.2817  0.9738 -0.8691
  551SOL     OW 1651   1.225   2.984   2.165 -0.4951 -0.3662 -0.7148
  551SOL    HW1 1652   1.274   2.935   2.090  0.5469  1.3534 -0.8992
  551SOL    HW2 1653   1.225   2.935   2.258 -1.7690  0.0145  0.0931
  552SOL     OW 1654   3.005   2.203   2.607 -0.4681  0.1218 -0.3614
  552SOL    HW1 1655   2.968   2.151   2.524 -1.5184 -1.5441 -3.5515
  552SOL    HW2 1656   2.951   2.198   2.691  1.3529  0.8933 -2.1271
  553SOL     OW 1657   0.166   2.488   1.120 -0.0163 -0.4442  0.0920
  553SOL    HW1 1658   0.222   2.553   1.064  0.5239 -2.2225  0.0676
  553SOL    HW2 1659   0.111   2.541   1.191 -3.8548  0.4306  1.5930
  554SOL     OW 1660   2.357   1.938   1.886  0.1468 -0.2789 -0.1099
  554SOL    HW1 1661   2.310   1.975   1.975 -3.2394  2.9988  3.1810
  554SOL    HW2 1662   2.288   1.926   1.813  1.5037 -3.4790 -0.5822
  555SOL     OW 1663   1.621   2.081   2.010 -0.4527  0.1178  0.0342
  555SOL    HW1 1664   1.554   2.017   1.963  1.4125  0.5317  0.0780
  555SOL    HW2 1665   1.631   2.172   1.963  2.9492  0.8539  0.5059
  556SOL     OW 1666   1.283   1.675   1.098  0.7109 -0.1783  0.0898
  556SOL    HW1 1667   1.304   1.608   1.173 -1.8277 -0.8749 -0.0117
  556SOL    HW2 1668   1.290   1.771   1.133 -1.8787  1.9938 -2.7570
  557SOL     OW 1669   1.252   3.000   1.614 -0.4435  0.2930  0.1715
  557SOL    HW1 1670   1.333   3.012   1.678 -0.6186 -0.4486 -1.0813
  557SOL    HW2 1671   1.262   2.907   1.567  0.0745 -2.1392 -1.8600
  558SOL     OW 1672   0.657   3.096   1.944 -0.1428  0.0872 -0.0379
  558SOL    HW1 1673   0.620   3.078   2.039  2.5744 -1.6965 -0.8188
  558SOL    HW2 1674   0.596   0.058   1.889 -1.3433  1.4984 -3.7552
  559SOL     OW 1675   2.279   2.697   0.310 -0.3548 -0.3222  0.3322
  559SOL    HW1 1676   2.196   2.749   0.329 -0.2324  2.5234  2.9903
  559SOL    HW2 1677   2.301   2.626   0.384  1.9115 -0.2471  0.2516
  560SOL     OW 1678   1.530   2.501   0.575  0.3974  0.2093  0.1168
  560SOL    HW1 1679   1.427   2.508   0.549 -1.8366  2.1084  2.1537
  560SOL    HW2 1680   1.549   2.409   0.617 -1.6454 -1.7545  1.5391
  561SOL     OW 1681   1.138   0.375   0.097 -0.2229  0.1421 -0.0811
  561SOL    HW1 1682   1.084   0.418   0.021  2.4558  1.8959 -0.0013
  561SOL    HW2 1683   1.118   0.418   0.189  1.6166 -0.8570 -2.8943
  562SOL     OW 1684   0.408   1.311   2.280  0.1983  0.0380 -0.0293
  562SOL    HW1 1685   0.365   1.237   2.334  1.8261  2.8130 -1.4810
  562SOL    HW2 1686   0.452   1.383   2.339 -0.5256  1.0469 -0.2687
  563SOL     OW 1687   1.295   2.048   2.483 -0.4975 -0.2769 -0.5824
  563SOL    HW1 1688   1.218   2.115   2.478 -0.2952 -2.8243  2.8348
  563SOL    HW2 1689   1.373   2.112   2.484 -1.0484 -1.0041 -2.6032
  564SOL     OW 1690   2.963   0.936   0.918 -0.1669 -0.2294 -0.1045
  564SOL    HW1 1691   2.869   0.930   0.871 -2.7419 -2.3416  0.5071
  564SOL    HW2 1692   2.972   1.027   0.960  2.3790  1.9259 -1.7879
  565SOL     OW 1693   0.526   0.731   0.117  0.1787 -0.3533  0.4541
  565SOL    HW1 1694   0.493   0.701   0.026  1.2419 -1.2245 -0.2623
  565SOL    HW2 1695   0.627   0.746   0.118 -1.9245  0.5767  1.3383
  566SOL     OW 1696   2.717   2.891   2.559 -0.5132  0.6907  0.2822
  566SOL    HW1 1697   2.704   2.959   2.486 -3.5001 -0.4542  0.6786
  566SOL    HW2 1698   2.643   2.895   2.624 -0.4728  0.4382 -0.8047
  567SOL     OW 1699   1.448   1.255   0.982  0.5737 -0.3592  0.2707
  567SOL    HW1 1700   1.519   1.260   0.909 -0.2119 -2.3565 -0.0377
  567SOL    HW2 1701   1.498   1.246   1.069  1.6145  2.1730 -1.8339
  568SOL     OW 1702   1.489   1.689   2.824  0.1010  0.4404  0.3408
  568SOL    HW1 1703   1.428   1.698   2.904 -1.7646 -0.7199 -1.6373
  568SOL    HW2 1704   1.562   1.616   2.841  1.7236  1.3903 -1.5536
  569SOL     OW 1705   2.252   1.442   3.093 -0.3474  0.2739 -0.0609
  569SOL    HW1 1706   2.331   1.468   3.032  1.4668  0.0343 -0.5317
  569SOL    HW2 1707   2.211   1.355   3.058  0.4968  0.9848 -0.4767
  570SOL     OW 1708   0.110   2.252   1.871  0.6993  0.1722 -0.4143
  570SOL    HW1 1709   0.144   2.348   1.869  1.1989 -1.1108 -0.6567
  570SOL    HW2 1710   0.183   2.189   1.826  2.0562 -3.1781 -1.8295
  571SOL     OW 1711   2.672   1.841   1.538 -0.7525  0.7734  0.6076
  571SOL    HW1 1712   2.728   1.918   1.494 -1.4848  3.4868 -2.9177
  571SOL    HW2 1713   2.642   1.867   1.632  2.5246 -1.8952 -2.0736
  572SOL     OW 1714   1.877   2.256   0.266  0.1773  0.0110  0.1265
  572SOL    HW1 1715   1.852   2.352   0.249 -0.3304  1.5404  1.5036
  572SOL    HW2 1716   1.959   2.238   0.211 -0.5449  0.0628  0.3237
  573SOL     OW 1717   1.595   2.051   0.401  0.1614  0.2259  0.3509
  573SOL    HW1 1718   1.672   2.048   0.329 -0.7590 -2.0846  0.5829
  573SOL    HW2 1719   1.598   1.962   0.456  0.1941 -1.6310  1.1698
  574SOL     OW 1720   1.248   0.102   1.363  0.0217 -0.1245 -0.1622
  574SOL    HW1 1721   1.270   0.083   1.462 -0.1588 -0.5276 -0.0017
  574SOL    HW2 1722   1.173   0.045   1.324  0.6332  1.2475  1.4297
  575SOL     OW 1723   0.566   1.085   1.665 -0.7416  0.0236  0.5533
  575SOL    HW1 1724   0.556   1.132   1.754  1.3174 -3.0279 -2.1595
  575SOL    HW2 1725   0.650   1.025   1.665  3.5823 -0.3784 -1.4216
  576SOL     OW 1726   2.657   0.503   1.468  1.1853  0.6319  0.2588
  576SOL    HW1 1727   2.683   0.439   1.396  2.4829  0.9831  1.0888
  576SOL    HW2 1728   2.739   0.562   1.497  1.5757 -0.0090  0.0272
  577SOL     OW 1729   1.418   1.005   2.291 -0.2190  0.0551  0.1136
  577SOL    HW1 1730   1.448   0.915   2.338  0.8485 -0.5625  2.5128
  577SOL    HW2 1731   1.468   1.021   2.202 -0.4757 -1.5603  0.7011
  578SOL     OW 1732   2.090   1.083   2.481  0.4376  1.2381 -0.1729
  578SOL    HW1 1733   2.118   1.154   2.550 -1.8689 -0.1151 -0.5871
  578SOL    HW2 1734   2.098   1.119   2.385  1.4457  0.3906  0.1663
  579SOL     OW 1735   1.144   1.926   1.556  0.5223  0.3250 -0.7301
  579SOL    HW1 1736   1.046   1.890   1.562  0.2061  0.1265 -1.6864
  579SOL    HW2 1737   1.173   1.927   1.461 -0.9749  1.6408  1.5492
  580SOL     OW 1738   1.425   2.256   0.293  0.1594  0.1509 -0.5656
  580SOL    HW1 1739   1.465   2.297   0.211  1.7368 -0.1144 -0.7867
  580SOL    HW2 1740   1.480   2.184   0.335 -0.4704  0.5762  1.1085
  581SOL     OW 1741   1.005   0.801   1.995 -0.3446  0.0247  0.5993
  581SOL    HW1 1742   0.944   0.724   2.008  0.1359  2.4599  1.7013
  581SOL    HW2 1743   1.050   0.815   2.089  0.3702 -1.1580  1.3619
  582SOL     OW 1744   0.818   1.004   1.639  0.1200 -0.0083 -0.1758
  582SOL    HW1 1745   0.914   0.988   1.674 -3.2780 -1.0114  0.1424
  582SOL    HW2 1746   0.820   1.051   1.548 -1.0611 -0.4514  0.4474
  583SOL     OW 1747   0.906   1.045   2.026  0.1846 -0.2996  0.3666
  583SOL    HW1 1748   0.950   0.955   2.019  0.8484 -0.1840 -1.9884
  583SOL    HW2 1749   0.980   1.119   2.023  0.3290 -0.2727 -2.5289
  584SOL     OW 1750   2.392   2.439   0.722  0.7841  0.6096 -0.6243
  584SOL    HW1 1751   2.478   2.401   0.759 -0.4061 -1.1001 -2.9192
  584SOL    HW2 1752   2.331   2.357   0.691 -0.6324  2.0747  0.8925
  585SOL     OW 1753   1.815   0.194   3.017  0.0297  0.0882  0.0568
  585SOL    HW1 1754   1.718   0.222   3.033 -0.1590  1.3279 -0.9941
  585SOL    HW2 1755   1.851   0.222   2.923 -0.1313 -0.2255  0.2019
  586SOL     OW 1756   0.097   2.081   0.796  0.5027 -0.1784  0.2207
  586SOL    HW1 1757   0.015   2.080   0.742 -1.7778  1.0536  3.8188
  586SOL    HW2 1758   0.081   2.068   0.894 -3.3484 -0.5354  1.4463
  587SOL     OW 1759   1.788   2.034   0.143  0.4984  0.0186  0.0308
  587SOL    HW1 1760   1.821   2.126   0.182  1.3787 -1.9422  0.7775
  587SOL    HW2 1761   1.690   2.038   0.105 -1.1883  1.7836 -2.2808
  588SOL     OW 1762   0.096   0.172   0.864 -0.2725  0.5791  0.3457
  588SOL    HW1 1763   0.053   0.247   0.922  2.9769  0.1739  2.1130
  588SOL    HW2 1764   0.187   0.205   0.826 -0.3870  1.0544 -1.2848
  589SOL     OW 1765   1.387   0.834   1.047 -0.3669  0.1187 -0.4106
  589SOL    HW1 1766   1.300   0.866   1.004 -0.0129  2.8165 -1.1892
  589SOL    HW2 1767   1.462   0.857   0.980  0.0613  2.0539  1.2845
  590SOL     OW 1768   1.588   1.305   0.208  0.5903  0.0431 -0.4142
  590SOL    HW1 1769   1.600   1.398   0.247  0.1184 -0.4727  2.4698
  590SOL    HW2 1770   1.620   1.288   0.113 -0.7383  0.7537 -1.2687
  591SOL     OW 1771   2.607   2.387   2.459  0.3393  0.5272 -0.0830
  591SOL    HW1 1772   2.624   2.388   2.562 -2.4726  1.0490  2.0361
  591SOL    HW2 1773   2.606   2.484   2.425  0.3492 -1.4963  0.3238
  592SOL     OW 1774   1.652   2.281   1.561  1.2089 -0.3748  0.0735
  592SOL    HW1 1775   1.552   2.278   1.535 -2.1256  2.0727 -0.9940
  592SOL    HW2 1776   1.709   2.209   1.519  0.5907 -0.0254  0.1764
  593SOL     OW 1777   0.830   0.101   0.957 -0.4830 -0.1792 -0.3558
  593SOL    HW1 1778   0.860   0.133   1.046  0.8060 -2.1678 -1.7750
  593SOL    HW2 1779   0.890   0.028   0.923  1.1694  0.7417 -1.6018
  594SOL     OW 1780   3.014   0.627   2.464 -0.0021  0.4536 -0.1637
  594SOL    HW1 1781   3.016   0.717   2.515 -2.5343  1.4865  2.1192
  594SOL    HW2 1782   2.997   0.551   2.528  0.7916 -0.8907 -0.4690
  595SOL     OW 1783   0.633   2.718   1.252 -0.6831 -0.4700 -0.6248
  595SOL    HW1 1784   0.604   2.774   1.173 -0.8745 -1.1746 -1.5022
  595SOL    HW2 1785   0.558   2.702   1.318  0.6532 -0.1427 -2.0793
  596SOL     OW 1786   0.175   0.803   1.439 -0.3476 -0.2243 -0.0790
  596SOL    HW1 1787   0.129   0.862   1.371 -1.6864 -1.4172  2.2118
  596SOL    HW2 1788   0.270   0.837   1.462  3.4132  0.2651  0.6579
  597SOL     OW 1789   1.511   2.030   0.040 -0.1115  0.9563  0.2868
  597SOL    HW1 1790   1.506   2.070   3.050 -1.9209  1.3351  0.2656
  597SOL    HW2 1791   1.417   2.016   0.071  2.6977 -1.1836 -3.4428
  598SOL     OW 1792   0.472   2.861   1.744 -0.1087 -0.4198  0.0572
  598SOL    HW1 1793   0.550   2.824   1.694  0.1817 -0.1743  2.9581
  598SOL    HW2 1794   0.437   2.952   1.706  0.1885  2.2532 -1.0559
  599SOL     OW 1795   2.435   1.744   2.790  0.1332 -0.0134  0.1901
  599SOL    HW1 1796   2.361   1.762   2.724 -1.9505  2.5067  1.4920
  599SOL    HW2 1797   2.524   1.779   2.753 -2.2574  0.6888  1.7765
  600SOL     OW 1798   0.896   1.056   0.157  0.5312  0.2676  0.2012
  600SOL    HW1 1799   0.901   1.061   0.260 -2.2171  2.2592  1.9481
  600SOL    HW2 1800   0.865   1.141   0.115 -0.6387  0.9167  0.8762
  601SOL     OW 1801   0.506   0.793   0.836 -0.1957  0.2284 -0.5591
  601SOL    HW1 1802   0.479   0.876   0.786 -0.0421 -1.7145 -0.3346
  601SOL    HW2 1803   0.599   0.812   0.873  0.7404 -0.4172  1.8610
  602SOL     OW 1804   1.357   0.169   0.918 -0.4510  0.1354 -0.4690
  602SOL    HW1 1805   1.284   0.234   0.889  1.5752  1.0455 -3.0731
  602SOL    HW2 1806   1.445   0.191   0.868  0.5292 -1.2819  1.3076
  603SOL     OW 1807   0.789   2.906   2.256 -0.3620  0.2152  0.4225
  603SOL    HW1 1808   0.850   2.990   2.244 -0.5039 -1.2968  2.4564
  603SOL    HW2 1809   0.805   2.839   2.180 -0.0801  2.4356  1.3171
  604SOL     OW 1810   0.014   2.874   2.626  0.6747  0.0533  0.1816
  604SOL    HW1 1811   0.051   2.926   2.544  1.7548  0.6014 -2.7252
  604SOL    HW2 1812   3.078   2.784   2.596  1.8099  0.7274 -0.7207
  605SOL     OW 1813   2.515   1.571   1.169  0.0178  0.0230  0.1545
  605SOL    HW1 1814   2.460   1.587   1.254 -0.1006 -1.3150 -2.4088
  605SOL    HW2 1815   2.607   1.529   1.199  3.6271 -0.0503 -0.0824
  606SOL     OW 1816   0.624   1.480   2.821 -0.0259  0.2800 -0.3205
  606SOL    HW1 1817   0.589   1.570   2.789  1.9109  0.6614 -0.2481
  606SOL    HW2 1818   0.559   1.403   2.828 -0.0031 -1.2824 -1.1969
  607SOL     OW 1819   0.765   0.225   0.540 -0.3667  0.3964  0.4230
  607SOL    HW1 1820   0.822   0.214   0.456 -2.5310  1.2388 -0.3105
  607SOL    HW2 1821   0.710   0.311   0.533  0.8488 -0.5308  3.2380
  608SOL     OW 1822   1.868   1.497   2.088  0.5131 -1.2087 -0.0557
  608SOL    HW1 1823   1.796   1.423   2.061 -3.3635 -4.2485 -0.3681
  608SOL    HW2 1824   1.830   1.594   2.087  1.2651  3.3096 -0.5696
  609SOL     OW 1825   2.847   0.189   0.928 -0.3061 -0.0957 -0.3178
  609SOL    HW1 1826   2.793   0.180   1.018 -1.9769  2.1363  1.5442
  609SOL    HW2 1827   2.932   0.245   0.949  1.8265  1.1461  1.2809
  610SOL     OW 1828   0.609   2.795   0.733  0.1157  0.2613  1.0736
  610SOL    HW1 1829   0.626   2.805   0.631 -1.6916  2.0077  0.2861
  610SOL    HW2 1830   0.555   2.865   0.784 -0.1342 -1.2629  0.5601
  611SOL     OW 1831   1.604   0.959   2.946 -0.2670  0.0890 -0.0255
  611SOL    HW1 1832   1.648   0.996   3.033  1.9516  2.4821  2.5217
  611SOL    HW2 1833   1.649   0.878   2.909 -1.1013  4.1934  2.4509
  612SOL     OW 1834   0.790   2.082   2.022 -0.6663  0.5011  0.4522
  612SOL    HW1 1835   0.809   2.068   2.124 -0.3827  1.6584 -1.1230
  612SOL    HW2 1836   0.823   2.175   1.991 -0.3521 -1.7303 -1.5454
  613SOL     OW 1837   0.528   2.487   0.555  0.5505  0.2943 -0.0628
  613SOL    HW1 1838   0.617   2.510   0.606  2.9650  0.0817  1.2380
  613SOL    HW2 1839   0.521   2.543   0.473 -1.8964  2.7035 -2.8670
  614SOL     OW 1840   2.688   2.816   1.517  0.1837 -0.1772 -0.4391
  614SOL    HW1 1841   2.639   2.736   1.552 -1.3762 -0.6364  0.9434
  614SOL    HW2 1842   2.771   2.826   1.578 -0.5903 -2.0811  1.9944
  615SOL     OW 1843   1.931   1.176   0.263  0.2787 -0.1990  0.1246
  615SOL    HW1 1844   1.885   1.123   0.337 -0.0010 -0.6798  0.6414
  615SOL    HW2 1845   2.030   1.166   0.257 -2.0998  2.1529  3.8220
  616SOL     OW 1846   1.892   0.526   0.500  0.0604  0.8974  0.2974
  616SOL    HW1 1847   1.919   0.558   0.594  0.6029 -0.4554  1.8161
  616SOL    HW2 1848   1.868   0.430   0.503 -0.5560  1.9864  2.2693
  617SOL     OW 1849   1.104   1.168   2.923 -0.0924  0.6605  0.0565
  617SOL    HW1 1850   1.073   1.097   2.991  1.7458  0.6926  0.4696
  617SOL    HW2 1851   1.108   1.257   2.971 -0.7297 -0.1946 -2.3063
  618SOL     OW 1852   0.879   0.153   1.960  0.1753 -0.0350  0.1606
  618SOL    HW1 1853   0.802   0.095   1.930  0.2948  0.6551 -1.2417
  618SOL    HW2 1854   0.840   0.242   1.993  1.5852 -0.8837 -0.8401
  619SOL     OW 1855   2.866   1.046   1.444 -0.5228  0.2486  0.5353
  619SOL    HW1 1856   2.959   1.081   1.482  2.2451  1.2393  1.0489
  619SOL    HW2 1857   2.826   0.995   1.520  2.6938  0.4365 -0.8144
  620SOL     OW 1858   2.332   1.090   2.742 -0.0985  0.2705 -0.3261
  620SOL    HW1 1859   2.393   1.034   2.682 -0.4358 -1.1717 -1.6154
  620SOL    HW2 1860   2.263   1.144   2.690 -0.2014  1.1957 -1.0028
  621SOL     OW 1861   2.468   2.625   1.343 -0.3518 -0.2457 -0.4931
  621SOL    HW1 1862   2.443   2.686   1.266  0.7890 -1.2045  1.7420
  621SOL    HW2 1863   2.530   2.551   1.309 -0.8571  2.1992 -0.1305
  622SOL     OW 1864   1.046   0.764   2.828 -0.2168 -0.2142 -0.1175
  622SOL    HW1 1865   1.027   0.750   2.732 -0.4330  2.0409  0.6594
  622SOL    HW2 1866   1.101   0.847   2.838 -0.0520  0.8353  0.4491
  623SOL     OW 1867   1.009   0.528   2.989  0.0849 -0.0190 -0.5059
  623SOL    HW1 1868   0.941   0.463   2.946  1.1443  1.9369  2.8299
  623SOL    HW2 1869   1.033   0.610   2.934  1.2511  0.7986 -0.7387
  624SOL     OW 1870   2.143   0.732   3.038  0.4427  0.3380 -0.3250
  624SOL    HW1 1871   2.051   0.775   3.015 -1.7372  0.1399  0.5620
  624SOL    HW2 1872   2.128   0.632   3.057  0.4007  1.6388  1.5378
  625SOL     OW 1873   1.193   1.375   0.966 -0.1186  0.0935 -0.0342
  625SOL    HW1 1874   1.297   1.369   0.978  1.6228 -1.5545  2.5561
  625SOL    HW2 1875   1.146   1.315   1.039 -1.6335 -2.3439  1.0371
  626SOL     OW 1876   1.762   1.070   2.680 -0.2261 -0.5819 -0.3955
  626SOL    HW1 1877   1.821   1.024   2.612 -0.9442  2.5050 -3.4580
  626SOL    HW2 1878   1.803   1.065   2.772  1.2900  1.7962  2.5242
  627SOL     OW 1879   1.170   0.072   2.556  0.0603 -0.0992  0.1978
  627SOL    HW1 1880   1.225   3.096   2.583 -0.1622  0.7500 -1.3756
  627SOL    HW2 1881   1.121   0.111   2.638 -0.5566 -1.1757  2.1901
  628SOL     OW 1882   2.711   3.054   2.339  0.0567  0.4672 -0.1105
  628SOL    HW1 1883   2.629   3.097   2.392 -1.1236 -1.4619  1.8014
  628SOL    HW2 1884   2.777   0.028   2.333 -1.5983  1.3824  1.0469
  629SOL     OW 1885   0.793   0.756   2.967  0.0964  0.3892  0.2555
  629SOL    HW1 1886   0.887   0.764   2.929  4.7790  1.6569  1.3212
  629SOL    HW2 1887   0.792   0.753   3.069 -0.4851 -1.1680  0.8857
  630SOL     OW 1888   1.195   0.312   2.044  0.1895  0.1794  0.3225
  630SOL    HW1 1889   1.116   0.345   2.095 -0.6832  0.6782 -0.1286
  630SOL    HW2 1890   1.254   0.257   2.103 -0.6039 -0.7632 -2.4327
  631SOL     OW 1891   3.093   0.683   0.555  0.3396 -0.1801 -0.5130
  631SOL    HW1 1892   3.079   0.650   0.464 -0.3647  1.3377 -1.6048
  631SOL    HW2 1893   0.090   0.699   0.567 -3.6793 -0.9159 -1.1656
  632SOL     OW 1894   1.985   0.896   1.334  0.6326  0.1760  0.4145
  632SOL    HW1 1895   1.977   0.898   1.434 -0.3025 -0.0747 -0.0705
  632SOL    HW2 1896   2.047   0.817   1.307 -1.3100  2.9011 -0.7376
  633SOL     OW 1897   1.278   1.160   0.771 -0.6423  0.0182  0.7040
  633SOL    HW1 1898   1.335   1.090   0.728 -2.5101 -0.5926 -0.6090
  633SOL    HW2 1899   1.313   1.187   0.862 -1.7887 -2.6495  0.8784
  634SOL     OW 1900   1.911   2.867   1.007 -0.6545 -0.1432 -0.0234
  634SOL    HW1 1901   1.960   2.948   1.027 -0.6069 -1.2237 -2.4801
  634SOL    HW2 1902   1.953   2.788   1.052 -0.0715 -0.3760 -1.8784
  635SOL     OW 1903   1.745   0.794   1.050  0.2689  0.0948  1.0561
  635SOL    HW1 1904   1.678   0.820   0.978 -1.2800  1.7817 -3.8455
  635SOL    HW2 1905   1.705   0.826   1.140 -1.6628  1.3624  1.5052
  636SOL     OW 1906   1.048   1.044   0.710  0.1096  0.1253  0.0878
  636SOL    HW1 1907   0.962   1.079   0.750  1.3417 -1.4907 -2.3008
  636SOL    HW2 1908   1.131   1.099   0.739  1.7785  0.3732 -0.1333
  637SOL     OW 1909   2.587   2.128   0.007 -0.0745 -0.2042 -0.1232
  637SOL    HW1 1910   2.634   2.038   0.002  0.5829 -0.2111  0.1400
  637SOL    HW2 1911   2.561   2.153   3.011 -2.4439 -0.0780 -1.6075
  638SOL     OW 1912   1.266   2.620   2.700  0.0007 -0.7998  0.1190
  638SOL    HW1 1913   1.270   2.566   2.617  0.6465 -1.0497  1.0576
  638SOL    HW2 1914   1.310   2.569   2.779  1.3765 -0.2719 -4.1444
  639SOL     OW 1915   0.810   2.187   1.228  0.1458  0.1156 -0.1054
  639SOL    HW1 1916   0.805   2.285   1.261  0.9126  0.7737 -0.1806
  639SOL    HW2 1917   0.799   2.178   1.130  0.7623  0.4941  0.2769
  640SOL     OW 1918   2.707   2.835   0.394  0.4325  0.0519  0.1102
  640SOL    HW1 1919   2.731   2.922   0.440 -1.0891  0.0986  0.9193
  640SOL    HW2 1920   2.653   2.779   0.460  0.4940  1.6231 -1.3331
  641SOL     OW 1921   0.518   0.298   0.273 -0.3031  0.0035 -0.6182
  641SOL    HW1 1922   0.562   0.350   0.354 -2.4741  0.1202  1.6374
  641SOL    HW2 1923   0.513   0.354   0.188 -1.5012  0.7173  0.3298
  642SOL     OW 1924   2.904   0.739   1.116  0.6446 -0.0069 -0.1946
  642SOL    HW1 1925   2.838   0.673   1.077 -0.4473  2.3895  3.4499
  642SOL    HW2 1926   2.945   0.783   1.032 -0.1397  2.4104 -0.2798
  643SOL     OW 1927   0.770   1.865   1.868 -0.0742 -0.7369 -0.4761
  643SOL    HW1 1928   0.685   1.807   1.863 -0.5524  1.0578 -0.8528
  643SOL    HW2 1929   0.766   1.939   1.937 -0.2187  0.6464  0.3920
  644SOL     OW 1930   1.412   2.542   0.176  0.3168 -0.1307  0.2490
  644SOL    HW1 1931   1.434   2.480   0.096 -0.3166 -0.2710 -1.2267
  644SOL    HW2 1932   1.497   2.575   0.221 -0.2188  0.8561 -0.1324
  645SOL     OW 1933   1.808   2.101   0.595 -0.3897  0.1058 -0.3636
  645SOL    HW1 1934   1.852   2.028   0.537  0.2216  1.6713  1.1712
  645SOL    HW2 1935   1.862   2.190   0.572  0.7991  1.7839 -1.1465
  646SOL     OW 1936   1.282   2.796   0.170  0.5034  0.0897  0.5184
  646SOL    HW1 1937   1.202   2.813   0.227  2.5472 -0.3249 -1.4442
  646SOL    HW2 1938   1.316   2.701   0.178 -1.1440 -0.9869  1.9285
  647SOL     OW 1939   0.554   2.682   1.939 -0.3292  0.4138 -0.3692
  647SOL    HW1 1940   0.520   2.760   1.888  0.2836 -1.5240 -2.0774
  647SOL    HW2 1941   0.563   2.598   1.884  0.8510  3.8219  1.1596
  648SOL     OW 1942   1.693   0.869   1.288 -0.2666 -0.2334 -0.0379
  648SOL    HW1 1943   1.758   0.947   1.272 -1.7664 -0.8861 -2.5140
  648SOL    HW2 1944   1.750   0.788   1.308  0.1253  3.6389 -3.3451
  649SOL     OW 1945   1.461   2.440   2.825 -0.0728 -0.4069  0.0219
  649SOL    HW1 1946   1.512   2.423   2.738  2.0683  1.1870  1.9535
  649SOL    HW2 1947   1.504   2.522   2.868  1.9294 -1.5677 -1.6896
  650SOL     OW 1948   2.253   1.497   1.785 -0.6838 -0.2169 -0.1214
  650SOL    HW1 1949   2.314   1.564   1.829  1.2033 -0.1336  0.8430
  650SOL    HW2 1950   2.166   1.485   1.843 -1.9288 -0.3281  0.1826
  651SOL     OW 1951   1.140   2.162   0.210 -0.0321 -0.8578 -0.2046
  651SOL    HW1 1952   1.142   2.064   0.176 -2.5217  2.2758 -0.1914
  651SOL    HW2 1953   1.235   2.207   0.219 -0.7767  1.5389  0.6349
  652SOL     OW 1954   0.791   2.596   0.017  0.8119 -0.3215  0.1612
  652SOL    HW1 1955   0.872   2.611   3.056 -1.6297  0.5886 -0.5057
  652SOL    HW2 1956   0.723   2.670   0.001  0.8170  0.9738  1.5981
  653SOL     OW 1957   2.311   2.002   1.026  0.3393 -0.0574 -0.1906
  653SOL    HW1 1958   2.348   2.094   1.038 -1.8613 -5.8700  0.0856
  653SOL    HW2 1959   2.280   1.960   1.118 -0.6015 -1.4366  2.3319
  654SOL     OW 1960   2.945   2.548   1.673  0.4920 -0.6591  0.1028
  654SOL    HW1 1961   2.933   2.652   1.683  0.8322 -0.0960  2.1120
  654SOL    HW2 1962   2.958   2.531   1.572  0.3751  1.1316 -0.1767
  655SOL     OW 1963   2.914   1.999   1.216  0.4018 -0.3000  0.0977
  655SOL    HW1 1964   2.868   2.002   1.126  0.5533 -0.4641  0.5646
  655SOL    HW2 1965   2.850   2.027   1.295 -2.2805  1.1687 -1.4396
  656SOL     OW 1966   0.157   2.817   2.844 -0.8850 -0.9597 -0.2616
  656SOL    HW1 1967   0.110   2.851   2.759  1.5395 -0.7678 -0.4583
  656SOL    HW2 1968   0.093   2.796   2.920 -0.2815 -1.4427 -1.2798
  657SOL     OW 1969   0.073   0.767   0.252 -0.0127 -0.0782 -0.2432
  657SOL    HW1 1970   0.125   0.792   0.170 -0.6488 -1.5055  1.1419
  657SOL    HW2 1971   0.127   0.707   0.312 -2.7847  0.0010 -2.2957
  658SOL     OW 1972   1.889   1.950   0.833 -0.1895 -0.3856  0.7284
  658SOL    HW1 1973   1.818   1.968   0.899  0.0711  0.3839  1.5272
  658SOL    HW2 1974   1.867   2.007   0.752  2.0734 -4.0026  2.4319
  659SOL     OW 1975   1.725   0.421   1.152 -0.5715 -0.1055 -0.0281
  659SOL    HW1 1976   1.745   0.331   1.107 -0.9308 -0.8180 -0.3354
  659SOL    HW2 1977   1.658   0.414   1.227 -1.4200 -0.7025  1.7354
  660SOL     OW 1978   1.231   1.657   0.167 -0.1502  0.1898 -0.3823
  660SOL    HW1 1979   1.146   1.606   0.195 -1.6408 -0.9133 -1.0432
  660SOL    HW2 1980   1.291   1.679   0.249  2.2162 -1.2781 -3.2054
  661SOL     OW 1981   0.212   1.916   0.605  0.0169 -0.0465  0.4099
  661SOL    HW1 1982   0.310   1.928   0.574 -0.5083  0.0756  0.6178
  661SOL    HW2 1983   0.176   1.972   0.682 -1.4762 -1.4331  2.3101
  662SOL     OW 1984   0.112   0.627   2.156  0.7245  0.2851 -0.4154
  662SOL    HW1 1985   0.017   0.597   2.189  1.5213  1.0396 -0.2310
  662SOL    HW2 1986   0.113   0.730   2.169  2.3229  2.6233 -2.7439
  663SOL     OW 1987   2.086   1.429   1.196  0.0338 -0.6584 -0.4639
  663SOL    HW1 1988   2.040   1.388   1.112  0.9833 -2.1020 -1.2993
  663SOL    HW2 1989   2.081   1.532   1.188  0.1503 -0.6404 -2.0259
  664SOL     OW 1990   0.646   0.402   1.083  0.3759 -0.0881  0.0545
  664SOL    HW1 1991   0.733   0.443   1.070 -0.7608  0.0643 -0.0616
  664SOL    HW2 1992   0.625   0.378   1.181  1.7693  2.0239  0.0839
  665SOL     OW 1993   1.387   2.940   2.928 -0.4344 -0.6173  0.3362
  665SOL    HW1 1994   1.469   2.898   2.969 -0.9092 -1.3562 -1.5188
  665SOL    HW2 1995   1.362   3.033   2.967 -2.1370  3.0901  1.4098
  666SOL     OW 1996   0.251   0.618   2.421 -0.0275 -0.4017 -0.1322
  666SOL    HW1 1997   0.256   0.519   2.446  0.4811 -1.2797 -0.7646
  666SOL    HW2 1998   0.194   0.634   2.335 -0.2159 -1.2849 -0.4311
  667SOL     OW 1999   2.022   1.456   2.314  0.0448 -0.6196 -0.3354
  667SOL    HW1 2000   1.984   1.516   2.385 -0.5868 -2.0290 -0.6289
  667SOL    HW2 2001   1.969   1.463   2.229 -0.3873 -1.4679  1.1301
  668SOL     OW 2002   0.121   1.627   2.977 -0.0002  0.3920  0.1818
  668SOL    HW1 2003   0.156   1.559   2.902 -0.7909 -1.7771  0.6873
  668SOL    HW2 2004   0.073   1.576   3.055 -3.9199 -0.1110  2.7605
  669SOL     OW 2005   2.082   2.802   2.602 -0.3007 -0.5922 -0.3784
  669SOL    HW1 2006   2.043   2.841   2.516  0.0883  1.9102 -1.2640
  669SOL    HW2 2007   2.168   2.747   2.585  2.4092  0.0921 -3.5931
  670SOL     OW 2008   2.473   1.002   2.509  0.1997  0.0040 -0.0677
  670SOL    HW1 2009   2.562   0.947   2.505  0.7044  0.2998 -1.5834
  670SOL    HW2 2010   2.406   0.947   2.456 -0.1820  0.9885 -3.3621
  671SOL     OW 2011   2.292   1.406   0.274  0.0788 -0.3272  0.0939
  671SOL    HW1 2012   2.286   1.440   0.178  0.4717 -0.4564  0.1484
  671SOL    HW2 2013   2.241   1.470   0.337 -1.1276 -0.3828  1.5120
  672SOL     OW 2014   2.664   1.172   2.422 -0.3042 -0.0204 -0.0200
  672SOL    HW1 2015   2.722   1.217   2.496  3.0883 -0.7110 -0.1974
  672SOL    HW2 2016   2.591   1.112   2.459  3.8543  0.8040 -2.6164
  673SOL     OW 2017   2.728   1.350   1.438 -0.0615 -0.2629 -0.8911
  673SOL    HW1 2018   2.699   1.376   1.348 -0.2239 -0.6404  2.7327
  673SOL    HW2 2019   2.764   1.254   1.438 -1.2058 -2.9304  1.1134
  674SOL     OW 2020   1.702   1.749   1.736  0.2749 -0.2344 -0.1004
  674SOL    HW1 2021   1.784   1.806   1.717 -0.1843  0.2905  2.7380
  674SOL    HW2 2022   1.724   1.650   1.724 -1.0019  3.3727 -1.2550
  675SOL     OW 2023   3.051   0.362   0.982  0.1886 -0.1122  0.0119
  675SOL    HW1 2024   3.047   0.443   0.925  0.3492 -0.9709 -0.5863
  675SOL    HW2 2025   0.004   0.382   1.067 -0.5934 -0.6877  0.7511
  676SOL     OW 2026   2.211   1.104   1.060  0.0755  0.0323  1.0588
  676SOL    HW1 2027   2.210   1.080   1.160  2.0174  1.0073 -3.3114
  676SOL    HW2 2028   2.275   1.038   1.014  2.6189  0.2713  1.4765
  677SOL     OW 2029   1.569   1.680   2.256 -0.0970  0.0164 -0.2802
  677SOL    HW1 2030   1.480   1.719   2.231  2.4630 -1.9162 -0.7670
  677SOL    HW2 2031   1.649   1.705   2.189  2.3600  0.7380 -3.6268
  678SOL     OW 2032   2.793   1.565   0.890 -0.1022 -0.1549  0.4173
  678SOL    HW1 2033   2.856   1.648   0.886 -0.4804  1.3371  0.7472
  678SOL    HW2 2034   2.701   1.592   0.874  0.8838 -0.8639  2.0898
  679SOL     OW 2035   3.038   2.907   0.690 -0.2653  0.0091 -0.2679
  679SOL    HW1 2036   3.021   3.008   0.669 -1.4513 -0.9201  2.0906
  679SOL    HW2 2037   0.031   2.893   0.717 -0.7726  0.7203 -0.3102
  680SOL     OW 2038   0.055   2.060   1.073  0.5438 -0.2351  0.1720
  680SOL    HW1 2039   0.129   2.069   1.141 -0.2056  0.2994  0.1376
  680SOL    HW2 2040   3.076   2.023   1.128 -0.1079 -2.7545  0.7136
  681SOL     OW 2041   0.690   0.895   1.154  0.5895 -0.5120 -0.7075
  681SOL    HW1 2042   0.785   0.892   1.195 -0.0760  1.6334  0.9333
  681SOL    HW2 2043   0.679   0.898   1.057 -0.3404  3.8580  3.6493
  682SOL     OW 2044   1.627   2.983   0.752  0.0407 -0.0704 -0.3104
  682SOL    HW1 2045   1.619   3.058   0.824  2.2336  3.0868 -1.8839
  682SOL    HW2 2046   1.724   2.970   0.734 -1.9499  1.7111  0.0411
  683SOL     OW 2047   2.125   1.438   1.522 -0.3716 -0.0711 -0.1976
  683SOL    HW1 2048   2.143   1.475   1.615  0.1740  0.8674 -1.3845
  683SOL    HW2 2049   2.213   1.419   1.472  1.2009  1.6832 -0.1670
  684SOL     OW 2050   3.071   1.813   1.644  0.4508  0.2667  0.4004
  684SOL    HW1 2051   2.986   1.767   1.605  1.2582  0.2240 -2.2103
  684SOL    HW2 2052   3.068   1.825   1.744  0.0852  1.4663 -1.6812
  685SOL     OW 2053   2.283   1.809   0.157  0.1114 -0.8304 -0.0302
  685SOL    HW1 2054   2.213   1.740   0.136 -0.6163 -2.7246 -0.7462
  685SOL    HW2 2055   2.348   1.814   0.075  1.3141  0.5125 -3.5730
  686SOL     OW 2056   3.029   0.077   0.664  0.2221 -0.4052  0.2612
  686SOL    HW1 2057   2.955   0.144   0.640 -0.0017  0.0845  2.4341
  686SOL    HW2 2058   3.087   0.115   0.738 -1.4843 -2.6144 -0.7273
  687SOL     OW 2059   1.620   2.883   3.073 -1.0139 -0.5830  0.2087
  687SOL    HW1 2060   1.626   2.878   0.072  0.8768 -1.6894  1.5645
  687SOL    HW2 2061   1.685   2.951   3.034 -0.9673 -1.0379 -0.2775
  688SOL     OW 2062   1.970   1.887   2.145 -0.2624  0.0152 -0.7688
  688SOL    HW1 2063   2.037   1.821   2.190  1.6012  0.5671  1.6433
  688SOL    HW2 2064   1.936   1.938   2.225 -0.3124 -0.4354  1.3350
  689SOL     OW 2065   2.803   1.010   2.058 -0.2673  0.2146 -0.2170
  689SOL    HW1 2066   2.749   1.069   1.994  1.9819  0.6709 -0.3814
  689SOL    HW2 2067   2.904   1.017   2.037 -0.0226 -1.6527 -0.4682
  690SOL     OW 2068   1.865   1.498   0.937  0.1686  0.3344 -0.5554
  690SOL    HW1 2069   1.908   1.414   0.899 -0.8370 -1.3394 -0.2440
  690SOL    HW2 2070   1.800   1.472   1.011  0.0866 -0.7413  1.7910
  691SOL     OW 2071   1.081   1.159   1.126 -0.2603  0.1580  0.2820
  691SOL    HW1 2072   1.126   1.171   1.216  0.9241  1.6491  1.8475
  691SOL    HW2 2073   0.986   1.183   1.133  1.5537 -3.0098 -0.2681
  692SOL     OW 2074   1.905   0.066   2.348  0.5934 -0.0256  0.3129
  692SOL    HW1 2075   1.941   0.102   2.258  1.5084  2.4042 -1.2965
  692SOL    HW2 2076   1.854   0.144   2.392 -1.2510 -0.0974  1.7750
  693SOL     OW 2077   0.077   1.205   2.834  0.6894 -0.3094 -0.1457
  693SOL    HW1 2078   0.136   1.293   2.829 -0.8555  3.7085  3.3193
  693SOL    HW2 2079   0.048   1.168   2.748 -1.4257  0.3087 -1.7649
  694SOL     OW 2080   2.082   3.050   1.139  0.3001  0.4741  0.3459
  694SOL    HW1 2081   2.171   3.063   1.092  0.1533 -1.6989  1.1653
  694SOL    HW2 2082   2.102   3.037   1.241 -0.7042 -0.1526  1.3783
  695SOL     OW 2083   1.463   1.147   2.660  0.1467 -0.1930  1.0969
  695SOL    HW1 2084   1.565   1.134   2.671  1.3723 -1.7384  2.1468
  695SOL    HW2 2085   1.445   1.238   2.610  1.6766  2.4764 -0.2975
  696SOL     OW 2086   1.885   0.107   1.594  0.3782 -0.8162  0.0195
  696SOL    HW1 2087   1.802   0.145   1.546  0.1545 -0.6917 -1.5767
  696SOL    HW2 2088   1.935   0.180   1.647  0.0487 -1.5067  0.9412
  697SOL     OW 2089   1.744   0.280   1.986  0.4025  0.6861 -0.5244
  697SOL    HW1 2090   1.706   0.194   2.019  2.2703 -0.0928 -0.0551
  697SOL    HW2 2091   1.732   0.303   1.889  0.3194  0.6477  3.2112
  698SOL     OW 2092   1.762   1.345   2.543 -0.0641  0.9062 -0.3527
  698SOL    HW1 2093   1.750   1.240   2.526 -3.2353 -3.5725 -1.7622
  698SOL    HW2 2094   1.691   1.394   2.490 -0.3768 -2.0615 -0.7329
  699SOL     OW 2095   1.749   1.088   0.733  0.3546  0.0916  0.2873
  699SOL    HW1 2096   1.676   1.165   0.720 -4.8631  2.6738 -0.5385
  699SOL    HW2 2097   1.847   1.118   0.734 -0.3141 -0.0539  0.1718
  700SOL     OW 2098   1.663   2.869   0.246  0.3899 -0.7854 -0.0304
  700SOL    HW1 2099   1.645   2.771   0.262  0.3814  1.1814 -2.6015
  700SOL    HW2 2100   1.618   2.922   0.319 -0.3667 -1.2327  0.5521
  701SOL     OW 2101   0.231   0.253   1.417 -0.0258  0.0082  0.0302
  701SOL    HW1 2102   0.226   0.341   1.464  0.7541 -0.7184  0.1469
  701SOL    HW2 2103   0.209   0.179   1.482  0.3587 -0.7803 -1.7994
  702SOL     OW 2104   1.722   3.008   1.432 -0.1004  0.5401  0.1522
  702SOL    HW1 2105   1.806   2.995   1.489  0.6156  0.1450 -0.9648
  702SOL    HW2 2106   1.668   2.926   1.422 -1.3358 -0.5810 -0.5727
  703SOL     OW 2107   2.555   0.126   2.061  0.5706 -0.3741 -0.2344
  703SOL    HW1 2108   2.534   0.221   2.041  1.3208 -2.2333  0.0929
  703SOL    HW2 2109   2.653   0.107   2.048 -1.7310  0.2347 -0.5637
  704SOL     OW 2110   1.467   2.195   1.074  0.0522  0.3626  0.2345
  704SOL    HW1 2111   1.479   2.276   1.136  0.3234 -2.4307 -0.6352
  704SOL    HW2 2112   1.411   2.222   0.994 -1.8361  0.4571 -0.5591
  705SOL     OW 2113   0.218   1.764   2.257  0.5683  0.1062 -0.4453
  705SOL    HW1 2114   0.222   1.853   2.305 -1.0493 -0.1412  0.7186
  705SOL    HW2 2115   0.192   1.693   2.330 -0.0706 -0.7826  0.3227
  706SOL     OW 2116   2.225   0.257   2.942 -0.1861 -0.2453  0.3061
  706SOL    HW1 2117   2.196   0.264   2.845 -0.4522 -0.6758 -1.6198
  706SOL    HW2 2118   2.177   0.203   3.009  1.9787  0.0377 -0.0501
  707SOL     OW 2119   1.513   2.766   2.241  0.2646  0.1440  0.0870
  707SOL    HW1 2120   1.500   2.687   2.181 -1.5107  1.4169  0.5148
  707SOL    HW2 2121   1.433   2.829   2.237 -0.1928  1.2814 -1.6935
  708SOL     OW 2122   0.535   2.191   1.342 -0.1544 -0.4660  0.0171
  708SOL    HW1 2123   0.475   2.263   1.303 -3.3167  1.7478  0.9046
  708SOL    HW2 2124   0.629   2.228   1.370  1.9535  1.0939 -0.7060
  709SOL     OW 2125   2.596   0.659   1.846  0.2240 -0.0277 -0.3624
  709SOL    HW1 2126   2.539   0.597   1.907  0.6360 -2.5005  1.2661
  709SOL    HW2 2127   2.695   0.655   1.870  0.6763 -1.1878  0.6202
  710SOL     OW 2128   2.875   0.294   1.491 -0.5845 -0.0931  0.6673
  710SOL    HW1 2129   2.868   0.343   1.401 -1.2539 -1.8327 -0.3347
  710SOL    HW2 2130   2.916   0.353   1.560 -0.7021  0.1677 -1.5902
  711SOL     OW 2131   0.030   2.332   0.698 -0.6588  0.0594  0.1662
  711SOL    HW1 2132   0.033   2.376   0.789  1.9032 -0.9905 -3.2811
  711SOL    HW2 2133   0.125   2.327   0.662  1.7581 -0.5102  0.8121
  712SOL     OW 2134   0.354   0.007   2.384  0.1162  0.1752  0.2447
  712SOL    HW1 2135   0.329   0.051   2.470 -0.1781  0.5886  2.8561
  712SOL    HW2 2136   0.414   3.031   2.418 -1.4795  1.5855  0.0260
  713SOL     OW 2137   2.159   0.500   0.298  0.3664 -0.3073  0.2241
  713SOL    HW1 2138   2.094   0.488   0.374  1.0888  0.9631  0.2476
  713SOL    HW2 2139   2.209   0.589   0.317 -0.4943  0.9621  2.0351
  714SOL     OW 2140   1.553   1.755   0.109  0.4068  0.3020  0.8119
  714SOL    HW1 2141   1.534   1.858   0.106  1.4279  1.1723 -1.0110
  714SOL    HW2 2142   1.497   1.702   0.038  0.6687  0.8901  1.2374
  715SOL     OW 2143   0.054   0.391   0.354 -0.1176  0.0252  0.2258
  715SOL    HW1 2144   0.067   0.424   0.255  0.0814  0.4454 -1.0999
  715SOL    HW2 2145   0.142   0.400   0.407 -0.1810 -2.7439 -0.6179
  716SOL     OW 2146   0.960   3.082   2.148  0.0391  0.0897 -0.1075
  716SOL    HW1 2147   1.057   3.047   2.156  3.1935 -2.5384 -0.2596
  716SOL    HW2 2148   0.939   0.035   2.066 -1.9206  1.4899 -0.1292
  717SOL     OW 2149   0.174   0.582   2.886 -0.1500  0.9431  0.1104
  717SOL    HW1 2150   0.178   0.635   2.797 -0.3683  1.6903 -0.5670
  717SOL    HW2 2151   0.103   0.506   2.873 -1.5606 -2.0453  0.5017
  718SOL     OW 2152   1.478   0.518   0.414  0.0129  0.2871  0.8423
  718SOL    HW1 2153   1.524   0.550   0.330  2.1882 -0.7044  2.5081
  718SOL    HW2 2154   1.387   0.566   0.421  1.9955  1.6291 -1.9613
  719SOL     OW 2155   2.551   2.203   2.861  0.0338 -0.2936  0.1432
  719SOL    HW1 2156   2.463   2.168   2.823  1.0197 -2.0359  1.5387
  719SOL    HW2 2157   2.579   2.289   2.815 -0.4445 -0.7299 -0.0543
  720SOL     OW 2158   1.341   0.870   1.726 -0.3029 -0.3652 -0.1699
  720SOL    HW1 2159   1.377   0.910   1.638 -0.1820  0.3624 -1.9159
  720SOL    HW2 2160   1.349   0.768   1.726  1.2410 -1.3843 -0.7851
  721SOL     OW 2161   0.273   2.856   1.174 -0.3790 -0.3996  0.4147
  721SOL    HW1 2162   0.218   2.915   1.109 -0.8607  0.0168 -0.7273
  721SOL    HW2 2163   0.306   2.776   1.122  0.2916  0.2019 -2.6593
  722SOL     OW 2164   1.091   1.857   2.807  0.3345  0.0443  1.2396
  722SOL    HW1 2165   1.143   1.834   2.722 -1.1843 -1.9142 -1.0350
  722SOL    HW2 2166   1.070   1.774   2.859  2.7434  0.5556 -1.0969
  723SOL     OW 2167   1.718   0.168   0.560  0.2780  0.4322 -0.2205
  723SOL    HW1 2168   1.733   0.185   0.463 -0.8344  0.1320  0.6646
  723SOL    HW2 2169   1.808   0.164   0.612  1.5285 -0.3745  1.6671
  724SOL     OW 2170   0.565   2.092   2.763  0.0864  0.1359 -0.4327
  724SOL    HW1 2171   0.498   2.051   2.833 -3.1178  2.5874 -0.0039
  724SOL    HW2 2172   0.520   2.140   2.682 -2.0364  0.2647  1.3120
  725SOL     OW 2173   3.023   0.687   1.360  0.3437  0.0847 -0.1055
  725SOL    HW1 2174   2.975   0.712   1.271 -2.1657  2.1604 -1.1691
  725SOL    HW2 2175   0.001   0.743   1.389 -2.2341  1.6516 -0.9223
  726SOL     OW 2176   1.965   0.122   0.694  0.2194  0.3547  0.1089
  726SOL    HW1 2177   1.997   0.019   0.694 -1.5174  0.6323 -2.9709
  726SOL    HW2 2178   2.017   0.182   0.762  0.8102  2.2944  2.7121
  727SOL     OW 2179   1.919   1.077   2.076 -0.2105  0.1855 -0.3673
  727SOL    HW1 2180   1.881   0.986   2.105  0.1832 -0.5649  1.0749
  727SOL    HW2 2181   1.989   1.111   2.147 -1.9316 -2.3979 -0.1567
  728SOL     OW 2182   1.530   2.766   1.425 -0.0848  0.0289  0.5695
  728SOL    HW1 2183   1.433   2.764   1.461 -0.0599 -0.1560 -0.2758
  728SOL    HW2 2184   1.528   2.740   1.326 -0.9354  1.9762  1.4679
  729SOL     OW 2185   1.954   0.456   2.032  0.2574  0.1862  0.0998
  729SOL    HW1 2186   1.954   0.548   1.991 -2.9926  0.7332  0.3236
  729SOL    HW2 2187   1.881   0.397   1.997 -1.3610 -2.0005 -0.0116
  730SOL     OW 2188   0.601   0.737   1.363 -0.4177 -0.5928  0.6322
  730SOL    HW1 2189   0.529   0.664   1.354 -0.0493 -0.5837 -0.4623
  730SOL    HW2 2190   0.633   0.773   1.271  1.8377 -1.5915 -1.6173
  731SOL     OW 2191   0.284   0.188   0.246 -0.3264 -0.4865 -0.6409
  731SOL    HW1 2192   0.226   0.206   0.328  1.2667  0.3584  3.3386
  731SOL    HW2 2193   0.380   0.215   0.255 -2.9346 -0.4924 -2.0882
  732SOL     OW 2194   0.787   0.738   0.532  0.1933  0.1367 -0.3550
  732SOL    HW1 2195   0.742   0.670   0.592 -0.9833 -0.3348  2.2946
  732SOL    HW2 2196   0.730   0.828   0.529 -2.8117  0.5738  0.0690
  733SOL     OW 2197   1.574   1.449   2.398  0.1062 -0.3080  0.3672
  733SOL    HW1 2198   1.576   1.541   2.353 -2.9380 -1.2186 -0.9241
  733SOL    HW2 2199   1.536   1.382   2.327  0.3054 -1.6159 -0.7327
  734SOL     OW 2200   3.072   2.188   2.093 -0.1104 -0.3533 -0.0405
  734SOL    HW1 2201   0.018   2.209   2.006  0.0302  2.5923 -0.8107
  734SOL    HW2 2202   2.971   2.199   2.075 -0.3322 -1.5612  1.8879
  735SOL     OW 2203   1.811   0.204   1.007  0.0469  0.0672 -0.1895
  735SOL    HW1 2204   1.903   0.228   0.970 -0.3838  1.4603 -2.4468
  735SOL    HW2 2205   1.815   0.129   1.079 -0.5397 -1.8411  0.6289
  736SOL     OW 2206   1.095   1.376   0.034  0.6318  0.0720 -0.5712
  736SOL    HW1 2207   1.053   1.432   0.112  2.9541 -1.5903 -0.7288
  736SOL    HW2 2208   1.174   1.324   0.068 -0.6441  0.7833  0.5854
  737SOL     OW 2209   2.899   0.438   0.431 -0.0396  0.7090  0.3617
  737SOL    HW1 2210   2.992   0.418   0.401 -2.4666 -0.8696 -0.2790
  737SOL    HW2 2211   2.872   0.380   0.513  0.0391  1.9654 -0.7741
  738SOL     OW 2212   0.424   2.328   1.600 -0.1773 -0.6166 -0.1947
  738SOL    HW1 2213   0.336   2.357   1.555 -1.0440  3.0399 -1.3768
  738SOL    HW2 2214   0.483   2.273   1.536 -1.0035 -2.2482  0.1634
  739SOL     OW 2215   0.981   2.653   2.959 -0.8459 -0.3556  0.4312
  739SOL    HW1 2216   1.061   2.716   2.985 -0.0710 -0.1138 -1.1265
  739SOL    HW2 2217   1.000   2.583   2.887  0.5225 -0.1434 -0.0022
  740SOL     OW 2218   1.808   2.701   1.455  0.1637  0.4068  0.5402
  740SOL    HW1 2219   1.710   2.725   1.435  0.9628  2.5902 -0.5466
  740SOL    HW2 2220   1.815   2.603   1.478  1.7144  2.1593 -1.4646
  741SOL     OW 2221   2.295   0.644   0.765 -0.6106  0.0180 -0.1968
  741SOL    HW1 2222   2.348   0.668   0.681  0.5133  3.1863 -0.1117
  741SOL    HW2 2223   2.303   0.721   0.828  1.6212  3.0641  1.3454
  742SOL     OW 2224   1.070   2.193   2.428  0.1489  0.0786  0.8343
  742SOL    HW1 2225   1.068   2.212   2.529 -1.7931 -0.7159 -1.5471
  742SOL    HW2 2226   0.978   2.206   2.381 -2.9829  2.6790 -1.7288
  743SOL     OW 2227   2.521   0.848   1.680 -0.0701 -0.7658 -0.0845
  743SOL    HW1 2228   2.427   0.832   1.649 -1.4233 -1.1610  4.6040
  743SOL    HW2 2229   2.532   0.770   1.748  0.5687  0.0474  1.4368
  744SOL     OW 2230   2.371   0.382   0.819  0.0972 -0.3451 -0.0111
  744SOL    HW1 2231   2.345   0.475   0.786 -0.2054 -0.3582  1.8552
  744SOL    HW2 2232   2.469   0.373   0.829 -0.7103  3.0956 -1.9571
  745SOL     OW 2233   2.315   1.207   1.792 -0.2009 -0.1898 -0.2224
  745SOL    HW1 2234   2.321   1.310   1.783  0.1053 -0.0190  0.2756
  745SOL    HW2 2235   2.363   1.164   1.714  0.3994  0.0947 -2.2474
  746SOL     OW 2236   1.234   1.663   0.461  0.3668 -0.0410 -0.0862
  746SOL    HW1 2237   1.306   1.724   0.495 -0.3888 -2.0240  2.0817
  746SOL    HW2 2238   1.190   1.613   0.542 -1.1824  1.8496  3.2108
  747SOL     OW 2239   1.626   1.923   1.318 -0.4581  0.6749  0.2910
  747SOL    HW1 2240   1.523   1.938   1.324 -1.8086 -0.2811  0.4286
  747SOL    HW2 2241   1.645   1.833   1.366  0.8514 -3.1767  0.5975
  748SOL     OW 2242   0.226   2.712   0.286  0.3916  0.3280 -0.1604
  748SOL    HW1 2243   0.165   2.702   0.367  1.1207 -0.9084  0.7948
  748SOL    HW2 2244   0.174   2.763   0.216  2.2073 -1.7119  2.2147
  749SOL     OW 2245   0.328   1.088   2.388  0.3730  0.5122 -0.1339
  749SOL    HW1 2246   0.362   0.991   2.390 -0.6123  0.4576  0.5979
  749SOL    HW2 2247   0.229   1.088   2.354 -2.3308 -0.7763 -1.0585
  750SOL     OW 2248   1.365   2.857   1.961  0.1932  0.2208 -0.0639
  750SOL    HW1 2249   1.459   2.823   1.975 -1.6972  0.4528  0.0928
  750SOL    HW2 2250   1.378   2.950   1.912  0.8735 -1.3777 -1.7701
  751SOL     OW 2251   2.746   0.708   0.138 -0.6264 -0.4079  0.7665
  751SOL    HW1 2252   2.668   0.654   0.107  1.8093 -1.1308  0.1224
  751SOL    HW2 2253   2.748   0.714   0.238 -0.3229 -0.0547  0.7569
  752SOL     OW 2254   0.362   2.120   0.772 -0.8155  0.4392  0.1480
  752SOL    HW1 2255   0.403   2.029   0.740  1.0926  0.5308  4.4940
  752SOL    HW2 2256   0.264   2.098   0.800 -1.0307  0.6386  1.4190
  753SOL     OW 2257   0.977   2.980   0.861 -0.1584  0.0430  0.6921
  753SOL    HW1 2258   1.056   2.919   0.878 -1.0626  0.2931 -0.1814
  753SOL    HW2 2259   0.888   2.934   0.870 -1.8047  2.2648 -1.7741
  754SOL     OW 2260   0.518   0.058   2.169  0.1790  0.4919 -0.3727
  754SOL    HW1 2261   0.473   0.143   2.137  1.7838 -0.4029 -0.1263
  754SOL    HW2 2262   0.474   0.013   2.250  0.3286 -1.1912  0.8973
  755SOL     OW 2263   1.752   1.081   0.059 -0.4229 -0.3288 -0.9496
  755SOL    HW1 2264   1.806   1.138   0.123 -1.8018 -2.8385  1.6759
  755SOL    HW2 2265   1.742   0.993   0.101 -0.9054  3.3299 -2.9249
  756SOL     OW 2266   2.269   2.448   2.707 -0.3423 -0.6554  0.5220
  756SOL    HW1 2267   2.261   2.346   2.725  0.7518  0.6852 -0.4914
  756SOL    HW2 2268   2.295   2.502   2.789  0.6900  1.1194 -1.8413
  757SOL     OW 2269   1.969   0.779   0.440  0.0902  0.0989 -0.3556
  757SOL    HW1 2270   2.012   0.786   0.347 -0.2320 -0.2134  2.6032
  757SOL    HW2 2271   1.942   0.681   0.454 -1.9695 -2.5344 -0.3736
  758SOL     OW 2272   2.198   0.683   1.042  0.1327 -0.3613 -0.1307
  758SOL    HW1 2273   2.096   0.693   1.018 -4.2009  1.3864 -1.4190
  758SOL    HW2 2274   2.248   0.759   0.999 -0.0723 -3.2521  0.2932
  759SOL     OW 2275   2.660   0.593   1.063  0.3339  0.3773  0.2723
  759SOL    HW1 2276   2.559   0.576   1.077 -3.0303  1.3886 -1.5337
  759SOL    HW2 2277   2.678   0.601   0.961 -2.5563  1.8535 -0.8812
  760SOL     OW 2278   2.291   1.294   1.337  0.0916 -0.2151  0.2906
  760SOL    HW1 2279   2.223   1.343   1.281  0.8750  2.1588  1.6253
  760SOL    HW2 2280   2.278   1.193   1.339 -1.1331  4.9292 -0.0607
  761SOL     OW 2281   0.578   0.425   0.501 -0.3881 -0.4391  0.2433
  761SOL    HW1 2282   0.615   0.481   0.579  0.7490  2.3558  2.1611
  761SOL    HW2 2283   0.478   0.412   0.508  0.2847 -2.6122 -0.8518
  762SOL     OW 2284   1.086   1.986   1.214 -0.0241  0.1918 -0.1468
  762SOL    HW1 2285   1.060   2.060   1.148 -1.0929  0.2218  0.6214
  762SOL    HW2 2286   1.020   1.905   1.199 -3.3596 -1.8014 -1.7897
  763SOL     OW 2287   1.335   1.250   1.878  0.5075 -0.0288 -0.1707
  763SOL    HW1 2288   1.343   1.321   1.950 -0.5974 -2.6147  1.1717
  763SOL    HW2 2289   1.427   1.219   1.850  1.9221 -0.5460  2.1908
  764SOL     OW 2290   3.033   1.806   2.576 -0.1647 -0.1724 -0.0177
  764SOL    HW1 2291   2.983   1.892   2.544  0.7609  1.8550 -1.2182
  764SOL    HW2 2292   3.087   1.821   2.666  3.9963  0.7106  1.6530
  765SOL     OW 2293   1.318   2.589   1.251  0.3811 -0.4666 -0.0774
  765SOL    HW1 2294   1.364   2.498   1.265  0.6018 -2.1846 -1.8118
  765SOL    HW2 2295   1.383   2.647   1.199 -1.8934 -1.6859  0.6455
  766SOL     OW 2296   2.820   2.276   2.294 -0.0704  0.0423 -0.0940
  766SOL    HW1 2297   2.746   2.323   2.348 -0.9225 -0.7742 -0.5876
  766SOL    HW2 2298   2.831   2.182   2.332 -0.2522  0.5600 -0.0448
  767SOL     OW 2299   1.101   1.024   2.453  0.0989  0.9311 -0.1994
  767SOL    HW1 2300   1.136   1.013   2.550 -1.2873 -0.2167  0.2440
  767SOL    HW2 2301   1.140   1.107   2.405 -1.5988  0.0637 -1.4329
  768SOL     OW 2302   1.051   2.332   3.098  0.6844 -0.4456  0.0746
  768SOL    HW1 2303   1.065   2.285   0.081 -0.8789  3.3146 -1.0280
  768SOL    HW2 2304   0.953   2.353   3.081 -3.7808  1.4112 -4.1951
  769SOL     OW 2305   0.428   2.268   0.977 -0.0413  0.0405 -0.4390
  769SOL    HW1 2306   0.453   2.192   1.041 -0.3431 -4.2314  1.0661
  769SOL    HW2 2307   0.410   2.225   0.886  1.1174  3.3486  1.2761
  770SOL     OW 2308   1.500   0.861   2.635  0.5960 -0.1130  0.8225
  770SOL    HW1 2309   1.589   0.865   2.685  0.8187 -1.5506  1.7182
  770SOL    HW2 2310   1.463   0.955   2.634  1.0215 -0.9405 -0.0097
  771SOL     OW 2311   0.003   2.871   2.115 -0.2102 -0.4054  0.0659
  771SOL    HW1 2312   0.103   2.898   2.116 -0.0790  0.1861 -0.4622
  771SOL    HW2 2313   3.099   2.775   2.079  0.7445 -1.3595 -0.5278
  772SOL     OW 2314   2.138   2.814   1.967 -0.0615  0.2797  0.3052
  772SOL    HW1 2315   2.117   2.856   2.060 -2.1515  0.0128  0.7284
  772SOL    HW2 2316   2.218   2.859   1.921  0.7882  2.0706 -1.9670
  773SOL     OW 2317   0.874   1.852   1.622 -0.6610 -0.1386 -0.7451
  773SOL    HW1 2318   0.818   1.920   1.573 -0.3816 -1.0830  0.6148
  773SOL    HW2 2319   0.857   1.853   1.722 -0.0788  0.2024  3.3799
  774SOL     OW 2320   1.124   0.212   1.822  0.0255 -0.5200  0.0579
  774SOL    HW1 2321   1.162   0.277   1.893 -0.5246  1.4327  0.3001
  774SOL    HW2 2322   1.043   0.170   1.866  1.7628 -0.9710 -1.6958
  775SOL     OW 2323   1.860   3.033   3.018 -0.5019  0.2143 -0.0629
  775SOL    HW1 2324   1.823   0.028   2.998 -0.3685  1.0246 -1.8793
  775SOL    HW2 2325   1.887   2.987   2.933  2.3280  1.4684  2.5838
  776SOL     OW 2326   2.942   0.544   2.222  0.1921  0.1638  0.3713
  776SOL    HW1 2327   2.965   0.564   2.319 -2.1864 -1.7366 -1.4568
  776SOL    HW2 2328   2.846   0.559   2.199 -1.8017 -0.8696  0.8431
  777SOL     OW 2329   2.422   2.201   2.200 -0.0618 -0.5635 -0.3569
  777SOL    HW1 2330   2.350   2.150   2.148  0.1130 -1.6102  0.2551
  777SOL    HW2 2331   2.432   2.298   2.169 -1.6413  1.1473  0.5908
  778SOL     OW 2332   1.842   0.834   2.192 -0.4204  0.3948  0.3643
  778SOL    HW1 2333   1.857   0.758   2.255  2.4892 -2.3357 -1.5083
  778SOL    HW2 2334   1.749   0.824   2.155 -1.5278  0.0083  1.1280
  779SOL     OW 2335   2.625   0.534   0.596  0.0967 -0.0311  0.3494
  779SOL    HW1 2336   2.598   0.448   0.544 -1.0264 -1.4055 -1.7101
  779SOL    HW2 2337   2.556   0.604   0.572 -0.3706 -2.6290 -0.5454
  780SOL     OW 2338   2.457   0.271   3.058  0.8034  0.3439 -0.3460
  780SOL    HW1 2339   2.530   0.211   3.020  1.5061 -1.5293  1.7183
  780SOL    HW2 2340   2.370   0.253   3.004 -0.5199  2.0567  0.3877
  781SOL     OW 2341   0.164   2.324   1.466 -0.2778  0.2985  0.0813
  781SOL    HW1 2342   0.210   2.347   1.377 -2.4863 -0.0645 -0.2368
  781SOL    HW2 2343   0.067   2.293   1.458 -2.2518  2.2389  1.3237
  782SOL     OW 2344   2.439   2.551   2.916  0.1639 -0.2589  0.2847
  782SOL    HW1 2345   2.466   2.642   2.953  0.1767  2.3380 -0.3945
  782SOL    HW2 2346   2.423   2.479   2.985  0.2550  1.4167  0.8634
  783SOL     OW 2347   0.705   1.500   1.319  0.7721  0.1907  0.1755
  783SOL    HW1 2348   0.648   1.420   1.348 -2.6262 -3.2517  1.3838
  783SOL    HW2 2349   0.770   1.516   1.393 -2.2936 -0.5257 -1.6316
  784SOL     OW 2350   1.463   0.584   2.801 -0.4171 -0.0356 -0.1996
  784SOL    HW1 2351   1.535   0.654   2.806 -0.2903  0.5216 -1.0407
  784SOL    HW2 2352   1.376   0.624   2.815  2.8660 -2.7068 -1.7212
  785SOL     OW 2353   2.322   3.093   1.040 -0.1281 -0.3502  0.3163
  785SOL    HW1 2354   2.392   3.057   1.108 -0.5371  0.3176 -1.8741
  785SOL    HW2 2355   2.292   0.087   1.061  0.1707 -1.1353  0.2060
  786SOL     OW 2356   1.170   2.073   2.003 -0.1735 -0.9225 -0.0006
  786SOL    HW1 2357   1.119   1.998   2.047  0.3203 -0.3562  3.0183
  786SOL    HW2 2358   1.152   2.159   2.054  0.0595 -0.6705 -1.1019
  787SOL     OW 2359   1.418   0.544   1.092 -0.4624 -0.1934 -0.5316
  787SOL    HW1 2360   1.427   0.647   1.088 -0.7024  1.3010  2.4279
  787SOL    HW2 2361   1.472   0.504   1.170  0.0693 -0.4899  3.3362
  788SOL     OW 2362   0.242   0.689   0.557 -0.1530  0.4413 -0.1359
  788SOL    HW1 2363   0.271   0.684   0.655 -0.0079 -1.1284  4.2765
  788SOL    HW2 2364   0.322   0.714   0.498  1.7643  0.3800 -1.4128
  789SOL     OW 2365   0.211   2.080   1.270 -0.0603 -0.5146 -0.2291
  789SOL    HW1 2366   0.271   2.151   1.311 -2.2741 -1.6491 -0.9777
  789SOL    HW2 2367   0.199   2.005   1.341 -1.2268  0.3180 -0.2993
  790SOL     OW 2368   0.930   0.813   2.574  0.1015 -0.2587  0.4726
  790SOL    HW1 2369   0.986   0.863   2.505  1.4295 -0.5839 -0.9098
  790SOL    HW2 2370   0.828   0.828   2.567  1.0109 -0.0558  1.6263
  791SOL     OW 2371   1.909   0.578   1.013 -0.8100  0.0577 -0.2348
  791SOL    HW1 2372   1.858   0.663   1.032  1.1710 -1.3472  2.1048
  791SOL    HW2 2373   1.859   0.504   1.064  0.3427 -0.1440  0.9104
  792SOL     OW 2374   1.265   2.453   2.016  0.5467  0.1419 -0.2257
  792SOL    HW1 2375   1.228   2.544   1.988  1.7068 -0.7440 -2.1732
  792SOL    HW2 2376   1.198   2.402   2.080 -0.5327  0.5197  2.1212
  793SOL     OW 2377   1.255   0.686   0.437  0.3083  0.2652 -0.6616
  793SOL    HW1 2378   1.300   0.765   0.400  2.0361 -1.6727  0.8679
  793SOL    HW2 2379   1.187   0.719   0.502 -0.5290 -5.2254 -0.1518
  794SOL     OW 2380   0.600   0.977   1.981 -0.2049 -0.3448  0.3018
  794SOL    HW1 2381   0.557   1.066   2.001 -0.2471  0.0888  0.7743
  794SOL    HW2 2382   0.702   0.985   1.991 -1.7261 -2.7980  0.8194
  795SOL     OW 2383   0.272   1.998   2.386 -0.1572  0.7732  0.2967
  795SOL    HW1 2384   0.372   2.010   2.398  1.5896  2.5904 -0.0910
  795SOL    HW2 2385   0.222   2.052   2.457 -0.5637 -0.7356  1.6119
  796SOL     OW 2386   2.611   0.860   2.199  0.1844  0.1729  0.1684
  796SOL    HW1 2387   2.514   0.893   2.180  0.9321 -1.6090  0.2484
  796SOL    HW2 2388   2.689   0.907   2.147  1.4374 -1.7611 -1.9850
  797SOL     OW 2389   2.876   2.186   2.863 -0.1764 -0.1931  0.0298
  797SOL    HW1 2390   2.776   2.182   2.872  1.3316  0.4250  0.2240
  797SOL    HW2 2391   2.920   2.268   2.899 -1.1389 -1.8890  0.3712
  798SOL     OW 2392   0.369   2.351   2.059 -0.4069  0.2424  0.1411
  798SOL    HW1 2393   0.311   2.424   2.023 -0.7010 -2.6189  2.1952
  798SOL    HW2 2394   0.321   2.287   2.121 -1.3048 -1.4860 -1.2235
  799SOL     OW 2395   0.465   2.278   2.572  0.1213  0.0368 -0.4129
  799SOL    HW1 2396   0.373   2.244   2.545 -0.7998  0.4680  2.0325
  799SOL    HW2 2397   0.447   2.338   2.655 -2.0303  1.0714  0.1119
  800SOL     OW 2398   0.655   2.120   3.100  0.3683  0.1922 -1.0294
  800SOL    HW1 2399   0.559   2.095   3.073  0.2511 -2.2317  0.9575
  800SOL    HW2 2400   0.716   2.044   3.060  0.0919 -1.9565  0.0520
  801SOL     OW 2401   1.657   1.484   1.136  0.1592 -0.5724  0.1090
  801SOL    HW1 2402   1.623   1.396   1.185 -1.7219  1.2421 -1.8441
  801SOL    HW2 2403   1.662   1.560   1.203  2.3111  0.6424 -1.6681
  802SOL     OW 2404   2.949   1.211   0.606  0.1503  0.1412  0.3675
  802SOL    HW1 2405   2.937   1.254   0.514  1.4771 -0.5736 -0.2523
  802SOL    HW2 2406   3.020   1.134   0.599  0.6806  0.1014 -3.2114
  803SOL     OW 2407   1.135   1.892   2.310  0.1749 -0.0999 -0.2730
  803SOL    HW1 2408   1.153   1.971   2.370 -0.3711 -0.4487 -0.6124
  803SOL    HW2 2409   1.037   1.896   2.279  1.2988 -1.3564 -1.7379
  804SOL     OW 2410   1.524   1.576   0.371  0.0836  0.9655  0.3390
  804SOL    HW1 2411   1.555   1.635   0.299 -2.8677 -0.2404  0.9793
  804SOL    HW2 2412   1.525   1.615   0.465  1.1533  0.3875 -1.0108
  805SOL     OW 2413   2.646   1.485   0.077 -0.2633 -0.0456 -0.0904
  805SOL    HW1 2414   2.628   1.554   0.149 -0.3026  0.0927 -1.3495
  805SOL    HW2 2415   2.573   1.494   0.004 -0.9892  1.8947  0.8557
  806SOL     OW 2416   0.473   2.993   0.489 -0.1426 -0.6440  0.1210
  806SOL    HW1 2417   0.548   2.928   0.455 -1.7096 -1.2867 -0.1375
  806SOL    HW2 2418   0.379   2.952   0.489 -0.2329 -1.4171  1.5922
  807SOL     OW 2419   1.970   1.698   2.740  0.9406  0.8419 -0.2404
  807SOL    HW1 2420   1.905   1.748   2.802 -1.1138  0.1719 -1.5966
  807SOL    HW2 2421   2.003   1.614   2.788 -2.2643  0.4809  0.4647
  808SOL     OW 2422   0.575   1.556   0.981 -0.2066 -0.0114  0.2184
  808SOL    HW1 2423   0.540   1.468   1.012  2.5903  3.2267 -1.1372
  808SOL    HW2 2424   0.499   1.618   0.971  0.6778  1.1135 -0.8810
  809SOL     OW 2425   2.455   0.731   0.539  0.2120  0.2118  0.0173
  809SOL    HW1 2426   2.452   0.832   0.552  0.9158 -0.5375 -4.3239
  809SOL    HW2 2427   2.423   0.708   0.448  1.1026  1.2601  1.9789
  810SOL     OW 2428   0.901   1.105   0.421  0.4189 -0.2748  0.0456
  810SOL    HW1 2429   0.986   1.073   0.461 -0.9662 -0.1705 -1.1083
  810SOL    HW2 2430   0.878   1.199   0.444 -0.2975  0.0747  1.2505
  811SOL     OW 2431   1.518   2.406   1.231 -0.2066 -0.6386  0.1658
  811SOL    HW1 2432   1.619   2.423   1.224  2.1557  1.6432 -1.1380
  811SOL    HW2 2433   1.494   2.369   1.324 -0.6990  0.0677  2.1092
  812SOL     OW 2434   1.116   2.627   1.651  0.4204  0.0982  0.4310
  812SOL    HW1 2435   1.142   2.637   1.751  0.1768  1.7017  2.2778
  812SOL    HW2 2436   1.016   2.638   1.646  0.3571 -0.3498 -2.4403
  813SOL     OW 2437   0.887   2.934   1.824  0.4571 -0.7070  0.7220
  813SOL    HW1 2438   0.793   2.969   1.825  2.7461 -0.0072  0.5653
  813SOL    HW2 2439   0.943   2.988   1.747  4.5252 -0.2013 -3.2638
  814SOL     OW 2440   0.834   2.285   2.274  0.2458  0.4852 -0.2644
  814SOL    HW1 2441   0.834   2.329   2.184 -1.3240 -0.7377  1.6258
  814SOL    HW2 2442   0.781   2.334   2.348 -0.6460  1.8702 -0.0180
  815SOL     OW 2443   0.689   0.310   2.530 -0.0155 -0.1233 -0.0241
  815SOL    HW1 2444   0.746   0.226   2.554 -2.4974 -1.4113  0.1215
  815SOL    HW2 2445   0.736   0.394   2.568 -1.5182  1.1107  0.1720
  816SOL     OW 2446   2.324   3.042   2.669  0.1429  0.1957  0.0377
  816SOL    HW1 2447   2.276   0.014   2.621  2.4194 -4.2768  1.4864
  816SOL    HW2 2448   2.271   3.008   2.749  1.6594 -1.6456 -2.0022
  817SOL     OW 2449   1.971   0.145   2.098  0.0003  0.1632 -0.7217
  817SOL    HW1 2450   2.038   0.119   2.028 -4.4067 -2.2810  2.0847
  817SOL    HW2 2451   1.897   0.207   2.063  0.0141  2.2090  0.0738
  818SOL     OW 2452   1.575   0.608   0.159 -0.3192 -0.5381  0.1882
  818SOL    HW1 2453   1.524   0.637   0.075  1.9977 -0.8544  1.6323
  818SOL    HW2 2454   1.672   0.587   0.144 -0.4627  1.7170 -0.4025
  819SOL     OW 2455   1.868   1.597   2.503 -0.0937  0.3420  0.0084
  819SOL    HW1 2456   1.831   1.502   2.531  0.3263 -2.0850 -0.2803
  819SOL    HW2 2457   1.904   1.654   2.581  2.7287 -0.3062  1.2420
  820SOL     OW 2458   0.204   1.784   0.093 -0.5100  0.1593 -0.5051
  820SOL    HW1 2459   0.189   1.756   3.100  1.0666 -0.9068  0.0504
  820SOL    HW2 2460   0.305   1.789   0.109  0.4418 -1.4119 -0.1979
  821SOL     OW 2461   0.211   2.864   0.730 -0.2595 -0.3000  0.2084
  821SOL    HW1 2462   0.209   2.897   0.633 -0.7448  0.4689 -3.1942
  821SOL    HW2 2463   0.250   2.769   0.737 -0.8097 -2.5853  1.5839
  822SOL     OW 2464   2.625   2.446   2.729 -0.3220  0.9489 -0.5696
  822SOL    HW1 2465   2.549   2.491   2.789 -5.4366  2.0564 -0.1946
  822SOL    HW2 2466   2.692   2.512   2.689  1.6208 -1.8955 -0.9874
  823SOL     OW 2467   1.365   0.104   2.138  0.1827 -0.1838  0.3712
  823SOL    HW1 2468   1.316   0.016   2.155  0.3446 -2.4545  1.6874
  823SOL    HW2 2469   1.462   0.092   2.107  2.6544 -0.1385 -1.7981
  824SOL     OW 2470   2.784   2.210   2.050  0.0926  0.4132  0.8309
  824SOL    HW1 2471   2.801   2.227   2.151  0.1051 -1.9866 -0.2008
  824SOL    HW2 2472   2.736   2.290   2.008 -0.3791 -1.6303 -1.1394
  825SOL     OW 2473   2.901   2.016   2.393 -0.1010 -0.4775  0.3314
  825SOL    HW1 2474   2.818   1.954   2.385 -0.1225 -0.6027 -1.5012
  825SOL    HW2 2475   2.965   1.972   2.329  0.5372 -0.4012 -0.5763
  826SOL     OW 2476   2.267   0.873   2.408 -0.4148 -0.0032  0.1781
  826SOL    HW1 2477   2.228   0.783   2.373  1.1379 -0.7079  0.2933
  826SOL    HW2 2478   2.197   0.937   2.447  0.7738 -1.5114 -1.6914
  827SOL     OW 2479   2.527   2.196   1.300  0.1417 -0.0664 -0.4386
  827SOL    HW1 2480   2.518   2.192   1.200 -0.5339  1.6959  1.5669
  827SOL    HW2 2481   2.432   2.203   1.336  2.4335  3.5505  1.3419
  828SOL     OW 2482   0.151   0.108   1.647  0.0814 -0.0789  0.3231
  828SOL    HW1 2483   0.235   0.051   1.649  1.6019 -0.5021  2.3691
  828SOL    HW2 2484   0.148   0.174   1.724 -2.1274  2.6912  1.8315
  829SOL     OW 2485   1.090   2.241   2.695 -0.7376 -0.2211  0.1004
  829SOL    HW1 2486   1.157   2.249   2.774  2.1189  0.6015  1.1154
  829SOL    HW2 2487   1.003   2.194   2.718  1.5367 -0.7681  3.1729
  830SOL     OW 2488   0.978   0.725   0.862 -0.4956 -0.0307 -0.6792
  830SOL    HW1 2489   1.008   0.626   0.883  1.5681 -3.2372  0.1818
  830SOL    HW2 2490   1.014   0.752   0.770  0.7956 -1.2775 -0.2408
  831SOL     OW 2491   2.812   1.440   2.987 -0.3537  0.0656  0.0476
  831SOL    HW1 2492   2.738   1.441   3.061 -0.9518 -0.9896  1.4939
  831SOL    HW2 2493   2.874   1.357   3.009  3.4131 -3.6504 -1.1789
  832SOL     OW 2494   1.646   2.372   2.262 -0.3841 -0.7152  0.1540
  832SOL    HW1 2495   1.632   2.274   2.283 -0.3524 -0.5096 -1.0819
  832SOL    HW2 2496   1.713   2.381   2.180  4.2062  0.0548  1.6054
  833SOL     OW 2497   0.979   0.370   2.217 -0.2955  0.1924  0.2210
  833SOL    HW1 2498   1.051   0.337   2.281  1.5165  0.2094 -1.4512
  833SOL    HW2 2499   0.888   0.328   2.234 -0.2466  0.7009  1.1904
  834SOL     OW 2500   0.053   0.307   1.235 -0.0998  0.0773 -0.3553
  834SOL    HW1 2501   3.100   0.219   1.233  1.6907  0.5082 -0.0371
  834SOL    HW2 2502   0.131   0.295   1.302  0.7839  0.3264  1.4518
  835SOL     OW 2503   2.560   0.512   0.109  0.0979  0.0832 -0.2354
  835SOL    HW1 2504   2.519   0.477   0.024  2.1151  0.8924 -0.7677
  835SOL    HW2 2505   2.611   0.440   0.151 -2.4510  0.5753 -1.0233
  836SOL     OW 2506   1.254   1.942   0.066  0.5239 -0.6891  0.2558
  836SOL    HW1 2507   1.251   1.860   0.120  0.2674  1.1297  1.5226
  836SOL    HW2 2508   1.178   1.946   3.098  0.8914  0.5887 -1.3436
  837SOL     OW 2509   1.552   1.656   0.677 -0.3339  0.0855  0.0410
  837SOL    HW1 2510   1.502   1.648   0.768 -0.9011 -0.0501 -0.0200
  837SOL    HW2 2511   1.650   1.664   0.692 -2.7961  1.2110  3.0235
  838SOL     OW 2512   1.373   0.895   2.017  0.4864 -0.1741  0.1251
  838SOL    HW1 2513   1.341   0.925   1.925 -1.2655  1.5503 -0.2339
  838SOL    HW2 2514   1.292   0.907   2.080  1.2538 -0.2771 -0.3105
  839SOL     OW 2515   0.921   1.663   2.576 -0.1945  0.0991 -0.4229
  839SOL    HW1 2516   0.870   1.734   2.630  1.2895 -0.2548 -0.5911
  839SOL    HW2 2517   0.907   1.570   2.618 -0.5036  1.8647  1.0985
  840SOL     OW 2518   0.659   2.204   0.670  0.1242  0.8604  0.2554
  840SOL    HW1 2519   0.663   2.305   0.693  0.6558 -0.5092  0.7964
  840SOL    HW2 2520   0.636   2.146   0.750 -1.5875 -2.6277 -0.9206
  841SOL     OW 2521   1.868   2.534   0.200  0.9439  0.2736 -0.3089
  841SOL    HW1 2522   1.962   2.562   0.219 -0.0067 -0.2718 -1.2498
  841SOL    HW2 2523   1.864   2.518   0.099 -0.1206 -1.3242 -2.3662
  842SOL     OW 2524   0.422   0.612   2.973 -0.0451  0.1554  0.1179
  842SOL    HW1 2525   0.481   0.663   2.906  0.1048  3.3110 -1.5393
  842SOL    HW2 2526   0.337   0.573   2.944  1.0058  0.0377 -0.7870
  843SOL     OW 2527   1.220   0.390   0.801 -0.2891 -0.5171 -0.1262
  843SOL    HW1 2528   1.202   0.350   0.713  3.0984  0.3890  4.7978
  843SOL    HW2 2529   1.308   0.438   0.794 -1.6122 -1.3215  1.4447
  844SOL     OW 2530   2.930   3.047   2.733  0.2440  0.3082  0.0942
  844SOL    HW1 2531   2.837   3.028   2.704  0.0375  3.0539 -0.7645
  844SOL    HW2 2532   2.996   2.971   2.708 -0.1993  1.7569  0.8316
  845SOL     OW 2533   2.755   2.080   1.416  0.5947  0.2040 -0.1335
  845SOL    HW1 2534   2.666   2.123   1.391  0.0804  1.4395  2.5148
  845SOL    HW2 2535   2.777   2.113   1.509 -1.8008 -0.3955 -2.2407
  846SOL     OW 2536   2.528   1.504   2.293 -0.3492 -0.8039 -0.3720
  846SOL    HW1 2537   2.520   1.483   2.395 -1.2538  1.5726  2.8788
  846SOL    HW2 2538   2.532   1.418   2.236  1.0866  0.0801 -1.0131
  847SOL     OW 2539   1.214   0.596   1.741  0.5527 -0.0873 -0.1252
  847SOL    HW1 2540   1.243   0.580   1.840  2.2554 -0.7497 -0.0282
  847SOL    HW2 2541   1.112   0.597   1.730 -0.2921  0.0572 -1.2252
  848SOL     OW 2542   2.750   2.911   3.011 -0.4031 -0.4388 -0.2676
  848SOL    HW1 2543   2.656   2.887   3.029  1.7961  2.8307  0.8654
  848SOL    HW2 2544   2.786   2.954   3.094  0.2004 -0.1144 -1.4461
  849SOL     OW 2545   0.590   0.041   0.262 -0.0084  0.2391  0.5599
  849SOL    HW1 2546   0.528   0.001   0.338  1.6911  0.9057  0.4504
  849SOL    HW2 2547   0.572   0.141   0.253  0.9702  0.0933  1.5078
  850SOL     OW 2548   1.534   2.741   1.161  0.0437  0.0696 -0.5705
  850SOL    HW1 2549   1.533   2.839   1.123  0.2351  1.1161 -1.0431
  850SOL    HW2 2550   1.582   2.672   1.097 -0.3935  0.0586  1.2206
  851SOL     OW 2551   2.793   0.218   2.342  0.1305  0.0306 -0.2839
  851SOL    HW1 2552   2.869   0.224   2.274  2.1231  0.2566 -0.6826
  851SOL    HW2 2553   2.769   0.311   2.382 -0.7139 -0.4258  0.7608
  852SOL     OW 2554   1.798   0.598   2.313 -0.5079  0.2633  0.6726
  852SOL    HW1 2555   1.868   0.539   2.355 -2.3854  0.1688 -1.9925
  852SOL    HW2 2556   1.717   0.546   2.288  0.2927  3.9447  0.8064
  853SOL     OW 2557   2.843   3.054   0.146 -0.2564 -0.1375  0.1266
  853SOL    HW1 2558   2.766   3.080   0.208 -0.4334  2.0263  0.5811
  853SOL    HW2 2559   2.894   0.034   0.107  0.7653 -0.0270 -1.6155
  854SOL     OW 2560   2.345   1.212   2.063 -0.0765 -1.0601  0.3098
  854SOL    HW1 2561   2.438   1.247   2.094  1.1089  1.6692 -0.1654
  854SOL    HW2 2562   2.340   1.213   1.960  0.7194 -2.2509 -1.8108
  855SOL     OW 2563   1.001   2.835   0.242 -0.0427 -0.4358  0.4860
  855SOL    HW1 2564   0.981   2.910   0.313  0.4936 -0.6550  0.9390
  855SOL    HW2 2565   0.943   2.850   0.160 -1.1826 -1.3772 -1.9754
  856SOL     OW 2566   3.080   3.075   2.952  0.6545 -0.3309 -0.3589
  856SOL    HW1 2567   3.015   3.088   2.871 -0.1825  1.3183 -2.0911
  856SOL    HW2 2568   3.096   2.976   2.969  2.2205 -0.3465 -0.1834
  857SOL     OW 2569   1.263   2.761   1.470  0.2037  0.7297 -0.2554
  857SOL    HW1 2570   1.246   2.725   1.378  0.3620  1.1947  0.6292
  857SOL    HW2 2571   1.207   2.716   1.541  2.1041  0.1118 -1.5940
  858SOL     OW 2572   2.529   2.285   1.603  0.3421 -0.0558  0.4253
  858SOL    HW1 2573   2.597   2.226   1.652  0.3955 -1.5948  1.1216
  858SOL    HW2 2574   2.475   2.233   1.537 -0.2867  1.7148  0.3375
  859SOL     OW 2575   1.658   2.322   1.865  0.1288  0.6872 -0.3631
  859SOL    HW1 2576   1.662   2.294   1.771 -1.7533  3.4925  2.1104
  859SOL    HW2 2577   1.562   2.359   1.879  0.7172  1.8474 -1.6800
  860SOL     OW 2578   2.180   2.930   2.872 -0.6126  0.3947 -0.6614
  860SOL    HW1 2579   2.080   2.961   2.852 -0.1017 -0.4440  0.6932
  860SOL    HW2 2580   2.181   2.833   2.891 -0.3430 -0.8021 -0.8677
  861SOL     OW 2581   2.397   2.871   0.575 -0.2925 -0.1513 -0.3520
  861SOL    HW1 2582   2.452   2.784   0.571 -2.3646  0.7815  0.8397
  861SOL    HW2 2583   2.421   2.922   0.661  2.7592 -0.2220  1.2259
  862SOL     OW 2584   1.724   3.095   2.670  0.0282  0.0940 -0.3748
  862SOL    HW1 2585   1.702   3.052   2.582  1.7230 -1.3963  2.2598
  862SOL    HW2 2586   1.640   0.050   2.697 -0.1729  1.2095 -1.3641
  863SOL     OW 2587   0.160   0.591   1.213 -0.5662 -0.4683  0.1513
  863SOL    HW1 2588   0.140   0.496   1.191  0.4648  1.2611  0.9519
  863SOL    HW2 2589   0.070   0.637   1.223 -0.4824  0.5963 -1.3012
  864SOL     OW 2590   0.281   2.889   2.083 -0.1937 -0.1750 -0.1200
  864SOL    HW1 2591   0.352   2.948   2.047 -2.0351  1.0202  0.4939
  864SOL    HW2 2592   0.327   2.815   2.136  2.3390 -1.1822 -0.8869
  865SOL     OW 2593   0.565   1.154   3.091 -0.2027  0.1484 -0.0457
  865SOL    HW1 2594   0.614   1.243   3.090  0.5074 -2.5216  1.7861
  865SOL    HW2 2595   0.514   1.140   0.077 -1.0420  2.5601  0.7885
  866SOL     OW 2596   2.942   0.797   3.076  0.3553  0.0942 -0.6856
  866SOL    HW1 2597   3.036   0.784   0.013 -0.0274  1.2423  2.9062
  866SOL    HW2 2598   2.877   0.745   0.033  1.4120  0.0817 -0.0824
  867SOL     OW 2599   3.069   2.787   3.022 -0.1094  0.0615  0.0861
  867SOL    HW1 2600   3.099   2.723   3.100 -1.2095 -0.0202  0.6920
  867SOL    HW2 2601   2.989   2.740   2.978 -0.5467  0.8119  0.6945
  868SOL     OW 2602   1.523   0.116   0.181 -0.2055  0.1119 -0.1106
  868SOL    HW1 2603   1.497   0.053   0.254 -1.6647 -1.3107 -0.1753
  868SOL    HW2 2604   1.624   0.139   0.193  0.3314  1.8534  0.0864
  869SOL     OW 2605   2.148   1.569   0.443  0.1289 -0.4787  0.3092
  869SOL    HW1 2606   2.204   1.653   0.442  0.2551 -0.9381 -0.6186
  869SOL    HW2 2607   2.050   1.603   0.438  0.0261  0.4829  3.0890
  870SOL     OW 2608   1.873   1.650   0.500  0.1583 -0.1112 -0.9027
  870SOL    HW1 2609   1.848   1.640   0.600  1.5012 -0.9838  1.3600
  870SOL    HW2 2610   1.856   1.745   0.467 -0.3705 -0.3950  0.0388
  871SOL     OW 2611   1.395   1.503   1.282 -0.4549  0.2006  0.4898
  871SOL    HW1 2612   1.378   1.439   1.355 -0.2566  2.1227 -0.7361
  871SOL    HW2 2613   1.478   1.556   1.301 -1.3958 -0.5940  0.5756
  872SOL     OW 2614   1.318   1.588   1.737 -0.0238  0.1682 -0.1726
  872SOL    HW1 2615   1.232   1.533   1.733  0.6536 -0.2450 -0.0536
  872SOL    HW2 2616   1.286   1.684   1.751  1.1214  2.3662  1.0766
  873SOL     OW 2617   0.522   1.512   2.418  0.3440 -0.6504  0.0223
  873SOL    HW1 2618   0.625   1.506   2.414  4.1353  0.9088 -0.1313
  873SOL    HW2 2619   0.491   1.602   2.379  1.4135  0.0493  0.6124
  874SOL     OW 2620   0.843   1.343   1.163  0.3810 -0.7563 -0.0053
  874SOL    HW1 2621   0.794   1.415   1.212 -1.9868 -2.2453 -1.4495
  874SOL    HW2 2622   0.788   1.260   1.157 -0.5228  0.6588 -1.8232
  875SOL     OW 2623   2.262   0.280   1.067  0.1556 -0.7436 -0.1495
  875SOL    HW1 2624   2.323   0.341   1.008 -0.5659  0.9455 -0.8349
  875SOL    HW2 2625   2.273   0.304   1.168 -2.4722 -2.2415 -0.7111
  876SOL     OW 2626   0.784   0.792   0.129 -0.1467 -0.8430  0.4729
  876SOL    HW1 2627   0.822   0.729   0.198  1.5175 -2.3303 -0.9628
  876SOL    HW2 2628   0.835   0.879   0.141 -1.2480 -0.3339  1.4501
  877SOL     OW 2629   2.837   0.435   1.261 -0.2109  0.4031  0.2122
  877SOL    HW1 2630   2.754   0.476   1.218  2.5357 -3.3030  2.1368
  877SOL    HW2 2631   2.915   0.433   1.196 -3.7500 -0.4904 -1.5735
  878SOL     OW 2632   1.490   2.336   0.031  0.1295  0.0327  0.0709
  878SOL    HW1 2633   1.579   2.357   3.091 -2.8582  1.8019  0.2528
  878SOL    HW2 2634   1.472   2.237   0.020  1.2872  1.9242 -0.2650
  879SOL     OW 2635   2.208   2.155   1.662  0.2352 -0.4728 -0.1848
  879SOL    HW1 2636   2.247   2.156   1.566 -0.8976 -0.1316  0.8705
  879SOL    HW2 2637   2.261   2.225   1.716 -0.2663  2.6164  1.7216
  880SOL     OW 2638   0.840   2.993   1.461 -1.2785  0.1396 -0.2625
  880SOL    HW1 2639   0.918   3.005   1.526 -1.7567 -2.1863  1.1448
  880SOL    HW2 2640   0.876   2.949   1.375 -0.3825 -2.0429  2.5716
  881SOL     OW 2641   1.035   2.029   2.995 -0.4222  0.3421  0.0137
  881SOL    HW1 2642   1.068   1.979   2.908 -1.6175 -0.0240  0.6720
  881SOL    HW2 2643   1.044   2.132   2.988 -1.0987  0.6683 -0.0712
  882SOL     OW 2644   2.314   0.761   1.995 -0.3672  0.1166  0.8958
  882SOL    HW1 2645   2.331   0.829   2.071 -1.0853  1.0205  0.6262
  882SOL    HW2 2646   2.327   0.816   1.908  2.2733  0.0046  2.1541
  883SOL     OW 2647   1.322   0.556   1.980  0.0060  0.4018  0.0288
  883SOL    HW1 2648   1.353   0.611   2.061 -2.4567  2.7222  1.5286
  883SOL    HW2 2649   1.284   0.468   2.008 -0.3470 -1.2397  3.2467
  884SOL     OW 2650   2.904   0.354   0.025 -0.4293  0.3447  0.0222
  884SOL    HW1 2651   2.956   0.266   0.034 -4.3484  0.1782  1.7761
  884SOL    HW2 2652   2.829   0.358   0.093  0.2162  3.6138 -0.5104
  885SOL     OW 2653   0.539   2.186   0.432 -0.3862 -0.3454  0.2466
  885SOL    HW1 2654   0.581   2.202   0.523  3.1807  0.7489  0.7542
  885SOL    HW2 2655   0.615   2.184   0.361  1.5151 -1.7365 -0.1843
  886SOL     OW 2656   1.836   1.381   2.811  0.4160  0.5421 -0.1285
  886SOL    HW1 2657   1.820   1.355   2.714  1.2299 -2.0238 -1.3456
  886SOL    HW2 2658   1.756   1.429   2.854  0.7648 -0.9668 -0.6396
  887SOL     OW 2659   1.990   0.617   1.719  0.2684 -0.1064  0.2309
  887SOL    HW1 2660   1.986   0.675   1.799 -3.7542  0.7468  1.1375
  887SOL    HW2 2661   1.915   0.647   1.654  1.7059  0.5708 -2.8121
  888SOL     OW 2662   2.798   0.883   1.661 -0.4738  0.1472 -0.0693
  888SOL    HW1 2663   2.705   0.852   1.689 -0.5650 -0.2459  1.8157
  888SOL    HW2 2664   2.866   0.853   1.734  0.2025  0.3820  1.3361
  889SOL     OW 2665   2.832   2.735   0.760 -0.0530  0.0551 -0.3165
  889SOL    HW1 2666   2.825   2.667   0.686 -1.4752  1.3728  1.7534
  889SOL    HW2 2667   2.920   2.791   0.752  1.2492  2.1237  2.4110
  890SOL     OW 2668   0.089   2.489   2.703 -0.0204  0.5909  0.6555
  890SOL    HW1 2669   0.070   2.403   2.758 -2.9405 -2.0243  1.0383
  890SOL    HW2 2670   0.171   2.538   2.735 -0.8321 -1.5928 -0.7501
  891SOL     OW 2671   0.771   1.927   2.981 -0.6872 -0.1832 -0.1854
  891SOL    HW1 2672   0.864   1.961   2.966 -0.5863 -3.5120  1.2953
  891SOL    HW2 2673   0.782   1.838   3.031  2.8814 -1.2878  0.5524
  892SOL     OW 2674   0.348   2.641   1.018 -0.3223  0.5123  0.0232
  892SOL    HW1 2675   0.423   2.575   1.040 -0.5233 -1.9687 -0.7153
  892SOL    HW2 2676   0.349   2.656   0.917 -2.0275 -0.5133  2.8963
  893SOL     OW 2677   0.584   0.055   1.243  0.4179 -0.4891 -0.0924
  893SOL    HW1 2678   0.677   0.104   1.241 -0.7782 -0.1252  1.1115
  893SOL    HW2 2679   0.521   0.103   1.179  3.3682  0.6798 -1.0029
  894SOL     OW 2680   2.952   1.331   0.851 -0.0700 -0.0624  0.5539
  894SOL    HW1 2681   2.939   1.307   0.752 -0.2233  0.7447  0.8787
  894SOL    HW2 2682   2.897   1.417   0.868  0.0970  2.0145 -0.1982
  895SOL     OW 2683   2.491   2.554   1.606 -0.1373 -0.7071 -0.4052
  895SOL    HW1 2684   2.506   2.456   1.589  0.4999  2.8502  1.5641
  895SOL    HW2 2685   2.469   2.610   1.522  0.6993 -1.0711 -2.3481
  896SOL     OW 2686   0.995   0.365   1.635 -0.2222  0.1360 -0.4418
  896SOL    HW1 2687   1.049   0.316   1.703 -0.8160 -0.6060 -0.1194
  896SOL    HW2 2688   0.979   0.463   1.658 -2.0049  1.6898 -0.8066
  897SOL     OW 2689   0.885   1.610   1.524  0.0673  0.4342  0.2442
  897SOL    HW1 2690   0.945   1.542   1.573 -1.1467 -2.0822  1.7998
  897SOL    HW2 2691   0.886   1.701   1.574  0.2493  0.2120  2.1387
  898SOL     OW 2692   1.533   2.613   1.653  0.2139  0.4594 -0.0049
  898SOL    HW1 2693   1.457   2.548   1.643 -0.6387 -1.7871 -0.4179
  898SOL    HW2 2694   1.539   2.691   1.590  0.1873 -1.0769 -2.2700
  899SOL     OW 2695   0.953   0.632   0.325 -0.6630  0.0847 -0.2351
  899SOL    HW1 2696   0.904   0.666   0.404 -1.3040 -2.8431 -1.9332
  899SOL    HW2 2697   1.007   0.546   0.347 -0.3034  3.1688  0.9070
  900SOL     OW 2698   1.378   2.265   1.847 -0.1844 -0.2496  0.2736
  900SOL    HW1 2699   1.329   2.341   1.899 -1.9962  3.1520  0.0686
  900SOL    HW2 2700   1.319   2.187   1.817  0.0103 -0.3880 -0.8109
  901SOL     OW 2701   0.846   2.513   0.463  0.2320  0.2612  0.1992
  901SOL    HW1 2702   0.797   2.565   0.386 -1.2169  3.1432 -1.7748
  901SOL    HW2 2703   0.867   2.416   0.436  2.0767 -1.8875  2.0066
  902SOL     OW 2704   1.878   1.488   0.261 -0.4893  0.2706  0.5596
  902SOL    HW1 2705   1.860   1.532   0.351  1.1682 -1.2870 -1.8586
  902SOL    HW2 2706   1.879   1.386   0.264  3.3636  0.6155  1.4335
  903SOL     OW 2707   2.207   1.165   0.176  0.0991 -0.1441 -0.0609
  903SOL    HW1 2708   2.259   1.253   0.211 -0.9318  2.7810  0.0240
  903SOL    HW2 2709   2.188   1.165   0.078 -1.0430 -1.4425  2.4321
  904SOL     OW 2710   0.792   1.320   0.053  0.3379 -0.4485  0.1260
  904SOL    HW1 2711   0.874   1.373   0.025  0.5701 -2.3949 -0.5876
  904SOL    HW2 2712   0.747   1.359   0.136  1.5702  1.4138  1.0023
  905SOL     OW 2713   2.102   3.030   1.407 -0.5706  0.5719  0.0109
  905SOL    HW1 2714   2.188   3.039   1.462  1.5375  0.4634  1.4900
  905SOL    HW2 2715   2.087   2.928   1.404 -0.4220 -2.8515  0.3417
  906SOL     OW 2716   2.649   2.449   1.273 -0.1358  0.5392  0.8949
  906SOL    HW1 2717   2.720   2.456   1.199  0.5969 -1.5814  1.0837
  906SOL    HW2 2718   2.633   2.357   1.315  0.7363  0.4407  1.6943
  907SOL     OW 2719   1.369   0.874   0.269  0.2633  0.1834 -0.3808
  907SOL    HW1 2720   1.376   0.825   0.178 -0.3437  0.7165 -0.1407
  907SOL    HW2 2721   1.445   0.945   0.277 -0.0005  1.5343  0.9719
  908SOL     OW 2722   1.630   2.985   1.046  0.7829  0.2269 -0.1769
  908SOL    HW1 2723   1.700   2.927   1.003 -1.8534  1.0703  0.5687
  908SOL    HW2 2724   1.673   3.052   1.106  0.3948  2.3713  2.4740
  909SOL     OW 2725   1.979   1.215   1.555 -0.4683 -0.2257 -0.6633
  909SOL    HW1 2726   1.993   1.201   1.656 -1.2361 -2.5390  0.1904
  909SOL    HW2 2727   2.040   1.282   1.513 -2.3098 -0.9509  1.2602
  910SOL     OW 2728   1.630   0.038   2.072  0.6265  0.3560 -0.2533
  910SOL    HW1 2729   1.619   0.004   2.166 -0.2522  0.0694 -4.5436
  910SOL    HW2 2730   1.688   3.072   2.024 -2.8577 -1.8929 -0.7421
  911SOL     OW 2731   2.665   0.893   2.754  0.3882 -0.4296 -0.1618
  911SOL    HW1 2732   2.703   0.895   2.661  1.5157 -0.6663  1.5466
  911SOL    HW2 2733   2.716   0.822   2.805  1.1587  1.5972  1.2620
  912SOL     OW 2734   2.927   1.227   1.783 -0.1947  0.2679 -0.6115
  912SOL    HW1 2735   2.934   1.329   1.804  1.4040  1.2763  2.2497
  912SOL    HW2 2736   2.971   1.204   1.693 -1.4177  1.4169  1.0529
  913SOL     OW 2737   2.908   2.491   1.420 -0.0034 -0.0997  0.6985
  913SOL    HW1 2738   2.947   2.405   1.386  0.0083  1.3030  0.8270
  913SOL    HW2 2739   2.809   2.489   1.391  0.8257 -1.7951  0.7834
  914SOL     OW 2740   1.612   1.127   1.823 -0.3021 -0.2698  0.5111
  914SOL    HW1 2741   1.656   1.035   1.815  2.8911 -0.6617 -0.3699
  914SOL    HW2 2742   1.637   1.177   1.736  2.8715  0.4092 -1.2701
  915SOL     OW 2743   2.121   0.648   1.305  0.2089 -0.3455  0.2117
  915SOL    HW1 2744   2.201   0.635   1.365  1.3484  0.3298  1.0294
  915SOL    HW2 2745   2.151   0.648   1.206  1.3556 -2.5095 -1.3227
  916SOL     OW 2746   2.475   2.234   1.038  0.0443  0.3050  0.0912
  916SOL    HW1 2747   2.412   2.312   1.052  1.4246  0.7218 -0.6914
  916SOL    HW2 2748   2.548   2.263   0.968  0.5302  1.6945 -2.3110
  917SOL     OW 2749   1.795   2.031   2.741  0.2020  0.5017 -0.4493
  917SOL    HW1 2750   1.846   2.105   2.785 -0.7632 -1.9440  1.1499
  917SOL    HW2 2751   1.806   1.943   2.795 -1.0893 -0.7642  0.4659
  918SOL     OW 2752   1.790   2.785   2.208  0.2759  0.0165  0.1391
  918SOL    HW1 2753   1.815   2.876   2.248  1.1728  3.4904 -0.7841
  918SOL    HW2 2754   1.686   2.783   2.204 -0.7768 -1.5920  1.4613
  919SOL     OW 2755   1.101   2.653   1.094 -0.3927 -0.2550  0.0004
  919SOL    HW1 2756   1.145   2.700   1.012 -0.4096  0.8755 -3.0227
  919SOL    HW2 2757   1.173   2.604   1.154  0.0939  0.1274 -0.1498
  920SOL     OW 2758   0.051   0.154   2.370 -0.6502  0.1430 -0.0556
  920SOL    HW1 2759   0.055   0.055   2.355 -2.6165  0.7122 -0.3029
  920SOL    HW2 2760   0.037   0.168   2.469  1.9608  1.5552 -0.1114
  921SOL     OW 2761   2.975   0.823   1.853  0.6844  0.6784 -0.1717
  921SOL    HW1 2762   2.968   0.913   1.899  2.2649 -0.8688  0.4822
  921SOL    HW2 2763   3.063   0.813   1.797 -0.8393 -1.6021  0.1032
  922SOL     OW 2764   2.136   2.024   0.358  0.4400 -0.0368 -0.3457
  922SOL    HW1 2765   2.150   2.106   0.295 -1.4267  2.2510 -0.6392
  922SOL    HW2 2766   2.204   2.018   0.437  2.0131 -0.2202  1.4458
  923SOL     OW 2767   0.732   1.887   0.343 -0.4883  0.1674 -0.6589
  923SOL    HW1 2768   0.715   1.802   0.293  0.2086  0.6417 -0.2708
  923SOL    HW2 2769   0.721   1.972   0.288  1.8021 -0.9195  0.1593
  924SOL     OW 2770   1.069   0.686   0.102 -0.1242  0.3053 -0.3535
  924SOL    HW1 2771   1.027   0.651   0.189  0.2623 -1.6088 -2.1213
  924SOL    HW2 2772   1.039   0.627   0.025 -1.5573  0.6438  1.6434
  925SOL     OW 2773   2.778   0.629   0.813  0.1193  0.2748 -0.3334
  925SOL    HW1 2774   2.769   0.732   0.813  0.9017 -2.2374  2.3058
  925SOL    HW2 2775   2.727   0.585   0.739  3.8001 -0.0983  0.4592
  926SOL     OW 2776   0.575   0.328   1.342  0.3163 -0.5259  0.9427
  926SOL    HW1 2777   0.490   0.271   1.359 -2.0488  1.8541 -2.4789
  926SOL    HW2 2778   0.652   0.298   1.395 -2.0166 -2.9921  1.3346
  927SOL     OW 2779   0.084   1.587   2.430  0.1000 -0.5038 -0.1667
  927SOL    HW1 2780   0.040   1.654   2.492  0.0317  1.0489  1.1630
  927SOL    HW2 2781   0.018   1.519   2.402  1.9771 -0.0919 -1.4814
  928SOL     OW 2782   3.100   0.143   2.638 -0.2755 -0.2270 -0.0396
  928SOL    HW1 2783   3.040   0.068   2.674 -1.7915 -2.4820 -0.4614
  928SOL    HW2 2784   0.056   0.189   2.711 -2.5392  0.7076 -0.7207
  929SOL     OW 2785   2.628   0.165   1.096 -0.2022  0.6993  0.0036
  929SOL    HW1 2786   2.592   0.074   1.104 -0.9153 -1.0650 -0.9311
  929SOL    HW2 2787   2.608   0.220   1.180  0.7008 -0.9818 -0.5056
  930SOL     OW 2788   1.789   0.897   1.769 -0.4592 -0.7493 -0.4093
  930SOL    HW1 2789   1.759   0.834   1.698  0.3447 -0.4493  2.1182
  930SOL    HW2 2790   1.762   0.868   1.864 -1.0951  1.8898 -3.1433
  931SOL     OW 2791   2.145   1.203   3.008  0.0353  0.4972  0.2523
  931SOL    HW1 2792   2.212   1.126   2.994  0.5417  0.8833 -0.6011
  931SOL    HW2 2793   2.052   1.191   2.962  0.0167  0.6066 -1.7777
  932SOL     OW 2794   2.003   1.203   0.709  0.0217 -0.1044 -0.5534
  932SOL    HW1 2795   2.059   1.282   0.668 -0.3411 -1.2343 -1.1458
  932SOL    HW2 2796   2.033   1.114   0.663  1.2427 -2.3027 -2.8591
  933SOL     OW 2797   2.265   1.571   0.815  0.4320 -0.0454  0.1961
  933SOL    HW1 2798   2.248   1.510   0.737  1.1269 -1.1346  3.0423
  933SOL    HW2 2799   2.198   1.654   0.812 -2.4637  1.1652  0.5343
  934SOL     OW 2800   2.226   0.610   2.345  0.2559 -0.0261  0.1155
  934SOL    HW1 2801   2.317   0.585   2.314 -3.3600 -0.5844 -0.3861
  934SOL    HW2 2802   2.159   0.529   2.336 -0.4829 -1.8927 -2.9810
  935SOL     OW 2803   0.180   1.061   0.523 -0.4039  0.5978  0.3210
  935SOL    HW1 2804   0.167   1.159   0.514 -1.3487  1.5634  1.0715
  935SOL    HW2 2805   0.096   1.017   0.560  1.8853 -1.5354  0.8749
  936SOL     OW 2806   0.307   0.272   0.743 -0.0046 -0.2715  0.2115
  936SOL    HW1 2807   0.378   0.210   0.708  1.5612 -0.6190 -1.4945
  936SOL    HW2 2808   0.341   0.327   0.817  2.5714 -2.3017 -3.1534
  937SOL     OW 2809   3.023   0.011   1.969  0.2288  0.3959  0.0145
  937SOL    HW1 2810   3.044   3.040   2.037 -1.2390  1.9842 -2.5063
  937SOL    HW2 2811   3.094   0.002   1.891  0.1026 -0.3094  2.2891
  938SOL     OW 2812   0.118   2.448   3.021 -0.0471  0.1483  0.6387
  938SOL    HW1 2813   0.111   2.412   0.018 -0.3783  1.4410 -0.4070
  938SOL    HW2 2814   0.208   2.482   3.001 -0.0855  0.6906  0.5981
  939SOL     OW 2815   0.689   1.817   0.772 -0.1387  0.4137 -0.1998
  939SOL    HW1 2816   0.662   1.908   0.813  0.0675  0.3820 -0.3698
  939SOL    HW2 2817   0.714   1.749   0.848  0.0283 -1.8205  1.3472
  940SOL     OW 2818   3.066   0.422   2.916 -0.6027  0.5786  0.9859
  940SOL    HW1 2819   2.994   0.423   2.986  0.8214 -0.3510 -1.2288
  940SOL    HW2 2820   3.098   0.324   2.902  1.2071  0.4531 -0.9417
  941SOL     OW 2821   1.770   0.422   2.602 -0.6318 -0.6939 -0.6372
  941SOL    HW1 2822   1.825   0.368   2.669 -2.1023  0.0419 -0.7314
  941SOL    HW2 2823   1.785   0.521   2.609 -1.8432 -0.3881 -0.1034
  942SOL     OW 2824   1.244   0.541   1.303  0.2695  0.4670 -0.0184
  942SOL    HW1 2825   1.284   0.521   1.210  0.4963 -1.5219 -0.5865
  942SOL    HW2 2826   1.149   0.583   1.296  0.9653 -0.6130 -1.2796
  943SOL     OW 2827   1.060   0.924   1.757  0.4432 -0.2163  0.1764
  943SOL    HW1 2828   1.150   0.888   1.725  3.2594 -1.9470 -3.0068
  943SOL    HW2 2829   1.031   0.869   1.838 -0.1551  0.4977 -2.6616
  944SOL     OW 2830   2.006   0.954   1.597 -0.1451 -0.5892 -0.3616
  944SOL    HW1 2831   1.943   0.940   1.676  1.8914  0.0719  3.1747
  944SOL    HW2 2832   2.004   1.051   1.562  0.0134  1.4013  0.4258
  945SOL     OW 2833   2.618   0.056   0.289  0.2242  0.8329 -0.7947
  945SOL    HW1 2834   2.631   0.054   0.390  0.6080  2.6279 -0.8957
  945SOL    HW2 2835   2.521   0.037   0.267 -0.8697  0.3609  0.5570
  946SOL     OW 2836   2.837   0.594   1.911 -0.0680 -0.1075  0.1401
  946SOL    HW1 2837   2.822   0.578   2.009  1.8054  1.2770 -0.2991
  946SOL    HW2 2838   2.901   0.674   1.892  2.2598  1.4299 -0.6205
  947SOL     OW 2839   1.301   3.043   0.087 -0.2583 -0.4524  0.0185
  947SOL    HW1 2840   1.377   3.092   0.133 -0.9219 -1.4326 -1.3944
  947SOL    HW2 2841   1.300   2.948   0.119  0.7500  1.1209  0.7314
  948SOL     OW 2842   2.378   1.797   1.461  0.1546  0.0706 -0.1596
  948SOL    HW1 2843   2.469   1.829   1.479 -3.9516 -2.8659  0.4131
  948SOL    HW2 2844   2.390   1.697   1.447  1.4308 -0.3936 -1.6932
  949SOL     OW 2845   0.343   1.481   0.041  0.0172 -0.3383 -0.0867
  949SOL    HW1 2846   0.244   1.495   0.016  1.0986 -0.7314 -2.7864
  949SOL    HW2 2847   0.396   1.432   3.069 -1.3811  0.3234  1.6869
  950SOL     OW 2848   0.569   2.472   1.062 -0.5870  0.3369  0.3879
  950SOL    HW1 2849   0.666   2.488   1.030  2.6779  3.0808  0.3531
  950SOL    HW2 2850   0.522   2.391   1.023  1.8734 -2.4494 -0.3771
  951SOL     OW 2851   0.707   1.094   2.556  0.8343  0.2951 -0.0932
  951SOL    HW1 2852   0.768   1.104   2.635  0.3622 -1.0075  1.5155
  951SOL    HW2 2853   0.750   1.123   2.464  0.6847  1.3464 -1.9502
  952SOL     OW 2854   0.397   1.021   0.729  0.1210  0.4679  0.3253
  952SOL    HW1 2855   0.444   1.111   0.734 -1.1181 -1.3790 -2.0759
  952SOL    HW2 2856   0.309   1.022   0.678  0.2959  1.9574 -0.7085
  953SOL     OW 2857   2.811   2.889   2.142  0.3743  0.5100 -0.4317
  953SOL    HW1 2858   2.776   2.953   2.216  1.0126 -1.6779  0.0117
  953SOL    HW2 2859   2.911   2.867   2.157  1.1415 -0.1828 -0.1384
  954SOL     OW 2860   1.461   1.312   0.459  0.0889 -0.2655 -0.1040
  954SOL    HW1 2861   1.475   1.414   0.444  0.9542  0.7185 -0.4347
  954SOL    HW2 2862   1.503   1.264   0.379  1.5575 -0.0194  1.1926
  955SOL     OW 2863   0.743   2.152   0.244 -0.4792  0.5298 -0.2114
  955SOL    HW1 2864   0.823   2.208   0.278  2.8964 -1.2370 -0.8666
  955SOL    HW2 2865   0.731   2.154   0.143 -1.0765  1.6298 -1.8259
  956SOL     OW 2866   2.411   0.523   2.025 -0.3398 -0.0861  0.2688
  956SOL    HW1 2867   2.426   0.507   2.122  2.6153 -1.4826 -2.1660
  956SOL    HW2 2868   2.373   0.618   2.006 -1.1018  2.4793 -1.3046
  957SOL     OW 2869   2.129   2.269   2.402 -0.3069  0.3202 -0.4461
  957SOL    HW1 2870   2.117   2.368   2.413  0.0033  0.1365  2.1681
  957SOL    HW2 2871   2.227   2.260   2.441  2.6623  1.5597  0.8567
  958SOL     OW 2872   1.589   1.225   1.224  0.5983 -0.0638 -0.0488
  958SOL    HW1 2873   1.685   1.194   1.232 -0.2218 -1.3280  0.4010
  958SOL    HW2 2874   1.538   1.202   1.308  0.2531  0.4557  0.7463
  959SOL     OW 2875   1.890   2.052   2.352 -0.2109 -0.4615 -0.4813
  959SOL    HW1 2876   1.944   2.138   2.334  1.0722 -1.1489 -0.6023
  959SOL    HW2 2877   1.788   2.075   2.360  0.3914 -0.6676  0.2849
  960SOL     OW 2878   0.366   0.914   2.744  0.1605 -0.2099 -0.4706
  960SOL    HW1 2879   0.383   1.005   2.696 -1.4580  2.6547  0.3977
  960SOL    HW2 2880   0.456   0.878   2.768 -0.1728 -0.4959 -1.4556
  961SOL     OW 2881   0.216   1.006   2.974  0.2244  1.0390 -0.5854
  961SOL    HW1 2882   0.260   0.964   2.890 -0.8392  0.7793 -0.3261
  961SOL    HW2 2883   0.153   1.082   2.946  0.2117  2.1957  2.7127
  962SOL     OW 2884   0.430   1.164   2.639 -0.5455 -0.0981 -0.2728
  962SOL    HW1 2885   0.372   1.154   2.554 -0.5985 -0.2417 -0.1470
  962SOL    HW2 2886   0.526   1.138   2.614 -0.1162  0.4820  0.4503
  963SOL     OW 2887   2.787   2.277   0.105  0.3312 -0.1004 -0.2444
  963SOL    HW1 2888   2.847   2.335   0.040 -1.4958  0.3097 -1.0064
  963SOL    HW2 2889   2.714   2.235   0.048  0.1241 -1.8786  2.3934
  964SOL     OW 2890   0.970   2.266   1.588  0.5969 -0.2193  0.2727
  964SOL    HW1 2891   1.052   2.256   1.645  0.1096  2.0554  0.3844
  964SOL    HW2 2892   0.904   2.333   1.634  0.5485  0.0679 -0.6042
  965SOL     OW 2893   1.902   1.905   0.377 -0.0501  0.3333 -0.1090
  965SOL    HW1 2894   1.859   1.917   0.284 -1.5149  0.1130 -4.7608
  965SOL    HW2 2895   1.993   1.952   0.367 -0.2056 -1.9327 -0.2334
  966SOL     OW 2896   2.870   1.590   0.333 -0.1027  0.0881 -0.2402
  966SOL    HW1 2897   2.859   1.492   0.300 -2.7175 -1.9085 -0.1178
  966SOL    HW2 2898   2.967   1.621   0.332 -2.2734  0.2469 -0.2113
  967SOL     OW 2899   1.875   2.817   1.699  0.2153  0.0692  0.2083
  967SOL    HW1 2900   1.877   2.779   1.604  0.9810  2.2738 -0.6032
  967SOL    HW2 2901   1.801   2.760   1.748 -1.2352 -1.9677 -0.7227
  968SOL     OW 2902   1.141   0.455   0.346 -0.4511 -0.2565  0.1815
  968SOL    HW1 2903   1.187   0.390   0.409  1.9289 -0.7907  0.8120
  968SOL    HW2 2904   1.195   0.544   0.348 -0.6194  0.9916 -2.0552
  969SOL     OW 2905   0.130   1.353   2.159  0.2856 -0.5241 -0.5337
  969SOL    HW1 2906   0.228   1.361   2.183 -1.6875  1.3146  1.0186
  969SOL    HW2 2907   0.120   1.404   2.067 -1.0115  2.3112 -1.5427
  970SOL     OW 2908   2.029   2.085   1.309  0.1678 -0.6206  0.2269
  970SOL    HW1 2909   1.944   2.094   1.368  3.1100 -3.7833  0.4650
  970SOL    HW2 2910   2.011   2.130   1.216  0.4892 -0.3609  2.8137
  971SOL     OW 2911   2.685   2.620   0.956 -0.4688  0.5577 -0.4499
  971SOL    HW1 2912   2.743   2.562   1.018  1.7877 -1.7506  0.7781
  971SOL    HW2 2913   2.746   2.677   0.894  0.4524  0.0494 -0.5762
  972SOL     OW 2914   3.031   1.122   2.603 -0.1308 -0.6617  0.0411
  972SOL    HW1 2915   3.077   1.141   2.513  1.1911  0.0691 -0.0918
  972SOL    HW2 2916   2.946   1.179   2.610  3.9654 -0.8995  1.3742
  973SOL     OW 2917   0.683   0.544   0.720 -0.3624  0.1466 -0.7029
  973SOL    HW1 2918   0.637   0.601   0.791  0.9121 -1.1848  0.3243
  973SOL    HW2 2919   0.739   0.468   0.766  1.4690 -1.1272  5.3330
  974SOL     OW 2920   2.234   0.806   1.693  0.3545  0.0622  0.2013
  974SOL    HW1 2921   2.150   0.857   1.665  0.7724  1.0279  1.1140
  974SOL    HW2 2922   2.228   0.709   1.655  0.4812  0.7890  3.3865
  975SOL     OW 2923   3.083   2.882   0.236 -0.3615  0.5828 -0.3642
  975SOL    HW1 2924   2.999   2.929   0.193 -0.7777  0.5938  0.8794
  975SOL    HW2 2925   3.061   2.792   0.277  1.6616  0.6653  0.0380
  976SOL     OW 2926   0.426   1.763   1.117  0.3616 -0.1684  0.2852
  976SOL    HW1 2927   0.361   1.688   1.141 -0.3775  1.1833  1.0377
  976SOL    HW2 2928   0.427   1.782   1.017 -2.5374 -1.2260  2.9467
  977SOL     OW 2929   1.085   1.905   0.740 -0.0793  0.0147  0.1032
  977SOL    HW1 2930   1.011   1.877   0.678  0.7379  1.4377 -1.3662
  977SOL    HW2 2931   1.123   1.829   0.793  0.1792  1.9594  2.1506
  978SOL     OW 2932   0.370   0.984   0.127  0.2175 -0.2153  0.2983
  978SOL    HW1 2933   0.429   0.899   0.111  0.3619  0.7183  2.1259
  978SOL    HW2 2934   0.309   1.004   0.045 -0.7165  1.6365 -2.2381
  979SOL     OW 2935   2.066   1.617   0.106 -0.0178 -0.4543  0.2180
  979SOL    HW1 2936   2.122   1.558   0.049 -3.0984 -1.8457  1.6659
  979SOL    HW2 2937   2.004   1.554   0.158 -1.0223 -0.9714 -1.7688
  980SOL     OW 2938   0.513   2.097   2.048 -0.0662  0.1789 -0.3761
  980SOL    HW1 2939   0.609   2.106   2.019 -1.2503  0.6996 -0.6993
  980SOL    HW2 2940   0.476   2.191   2.070  2.2401  3.9559 -1.4322
  981SOL     OW 2941   2.701   1.015   0.248  0.0601 -0.0991 -0.1415
  981SOL    HW1 2942   2.730   1.007   0.343 -1.9437 -0.3622 -1.8458
  981SOL    HW2 2943   2.630   0.945   0.219  0.4455 -0.8647 -1.3713
  982SOL     OW 2944   0.186   2.523   1.952 -0.1059  0.4942  0.0450
  982SOL    HW1 2945   0.089   2.549   1.974 -0.7890  0.1059  0.2734
  982SOL    HW2 2946   0.227   2.582   1.879 -0.7939 -2.6499  0.6799
  983SOL     OW 2947   1.646   0.193   1.491  0.7959  0.1882  0.0492
  983SOL    HW1 2948   1.616   0.096   1.479  0.8752 -0.1211 -1.0983
  983SOL    HW2 2949   1.613   0.246   1.411  2.0973 -1.0921 -0.3906
  984SOL     OW 2950   1.564   2.867   2.508 -0.2458  0.0743 -0.4014
  984SOL    HW1 2951   1.550   2.833   2.414 -0.6242  1.9171 -1.4525
  984SOL    HW2 2952   1.482   2.873   2.566  0.8043 -1.7806  0.3833
  985SOL     OW 2953   1.492   1.448   1.560  0.0283  0.4379  0.2923
  985SOL    HW1 2954   1.472   1.354   1.547  0.8256  0.8567 -0.0573
  985SOL    HW2 2955   1.436   1.494   1.632  0.7590 -1.4105 -2.0268
  986SOL     OW 2956   2.001   2.920   2.368  0.3444 -0.5352  0.1497
  986SOL    HW1 2957   2.097   2.920   2.334  1.2137 -4.0182  2.7509
  986SOL    HW2 2958   1.955   3.014   2.357 -0.4421  3.2987 -0.1548
  987SOL     OW 2959   2.671   1.805   2.689  0.2557 -0.4401 -0.1443
  987SOL    HW1 2960   2.739   1.866   2.741  2.6062  1.1398 -2.5579
  987SOL    HW2 2961   2.674   1.817   2.588  1.5764 -0.5872  0.6634
  988SOL     OW 2962   2.872   0.627   1.557  0.8648 -0.1472  0.0377
  988SOL    HW1 2963   2.847   0.723   1.583  3.4281  0.7750 -0.8977
  988SOL    HW2 2964   2.926   0.632   1.471  1.2065  1.2600  0.9474
  989SOL     OW 2965   1.712   1.259   1.619  0.0588 -0.4217  0.4431
  989SOL    HW1 2966   1.690   1.357   1.627  0.5755 -2.4706  0.3034
  989SOL    HW2 2967   1.812   1.245   1.604  2.2714 -1.3942 -0.6063
  990SOL     OW 2968   2.839   1.045   0.026  0.4549  0.5209  0.1319
  990SOL    HW1 2969   2.790   1.051   0.116  2.0255  0.3746 -0.8802
  990SOL    HW2 2970   2.883   0.954   0.030 -2.2693 -1.0443  1.7306
  991SOL     OW 2971   0.258   2.106   2.800 -0.3507  0.6691 -0.4603
  991SOL    HW1 2972   0.203   2.022   2.816  2.3606 -2.7433  1.0671
  991SOL    HW2 2973   0.286   2.151   2.891  0.6245  0.8147  3.5914
  992SOL     OW 2974   2.594   1.897   1.788  0.0675 -0.3218  0.1330
  992SOL    HW1 2975   2.501   1.916   1.821  1.0486 -3.5413 -1.0513
  992SOL    HW2 2976   2.666   1.901   1.860 -2.2449 -1.5671 -1.2573
  993SOL     OW 2977   0.537   0.099   0.923  0.0929  0.2422  0.6203
  993SOL    HW1 2978   0.634   0.086   0.940 -0.3822  0.8152 -0.5918
  993SOL    HW2 2979   0.526   0.112   0.822 -0.9266  2.1178 -0.4564
  994SOL     OW 2980   2.757   2.100   1.680 -0.5287 -0.3210  0.2040
  994SOL    HW1 2981   2.839   2.160   1.705  0.2917  2.4480  0.4002
  994SOL    HW2 2982   2.749   2.008   1.726  2.3787  1.1332 -3.2451
  995SOL     OW 2983   2.082   2.060   2.595  0.0439 -0.1800  0.7458
  995SOL    HW1 2984   1.984   2.039   2.611  0.3088  0.7621 -0.4798
  995SOL    HW2 2985   2.082   2.129   2.519 -0.6049 -1.5048  1.4359
  996SOL     OW 2986   1.988   1.894   0.020 -0.0613 -0.2947  0.3207
  996SOL    HW1 2987   1.919   1.960   0.063  3.2022  1.7347 -0.2006
  996SOL    HW2 2988   2.001   1.820   0.080  0.3075  2.1851 -1.3206
  997SOL     OW 2989   1.049   1.454   1.691  0.0198 -0.2938  0.1888
  997SOL    HW1 2990   0.993   1.441   1.779  0.2273  1.2235 -0.7083
  997SOL    HW2 2991   1.081   1.361   1.662 -0.2365  0.4549 -0.8969
  998SOL     OW 2992   2.778   2.091   0.762 -0.2498 -0.6724 -0.3217
  998SOL    HW1 2993   2.705   2.067   0.698  1.1663 -2.4203  1.4159
  998SOL    HW2 2994   2.766   2.041   0.846  1.5533  1.4727 -0.4268
  999SOL     OW 2995   2.853   2.688   0.199 -0.2373  0.0532 -0.0543
  999SOL    HW1 2996   2.779   2.647   0.142  2.8030  1.0762  0.1814
  999SOL    HW2 2997   2.815   2.748   0.273 -0.4651  1.6492  1.6983
 1000SOL     OW 2998   1.285   0.100   2.892 -0.0393 -0.4366 -0.5462
 1000SOL    HW1 2999   1.307   0.159   2.972 -2.7707  0.3305 -1.2450
 1000SOL    HW2 3000   1.195   0.129   2.852  0.8349  0.2193  0.5109
   3.10152   3.10152   3.10152
