1000 SPC/Fw water molecules t=  78.00000 step= 78000
 3000
    1SOL     OW    1   1.880   2.704   0.725  0.1448  0.0995 -0.2299
    1SOL    HW1    2   1.940   2.642   0.676  0.4073 -2.1292  4.7520
    1SOL    HW2    3   1.882   2.796   0.678 -1.2701  3.3924 -1.4164
    2SOL     OW    4   0.607   1.350   2.139 -0.3218 -0.0818  0.1114
    2SOL    HW1    5   0.592   1.285   2.220 -1.4530 -1.4203  0.2187
    2SOL    HW2    6   0.659   1.436   2.164  2.7760  0.5152 -0.6168
    3SOL     OW    7   1.561   2.917   2.537  0.5418  0.6697 -0.2243
    3SOL    HW1    8   1.532   2.988   2.600 -0.1593  2.0738  2.0061
    3SOL    HW2    9   1.559   2.823   2.582 -0.6819 -1.2473  2.2974
    4SOL     OW   10   1.150   1.781   2.697 -0.1936  0.3899  0.2413
    4SOL    HW1   11   1.226   1.806   2.634  0.2708  3.5056  1.4665
    4SOL    HW2   12   1.191   1.744   2.785 -2.6769 -1.0917 -0.1927
    5SOL     OW   13   0.565   0.621   1.892  0.4583  0.0787 -0.3348
    5SOL    HW1   14   0.604   0.702   1.841  1.1731 -1.6403  1.8971
    5SOL    HW2   15   0.518   0.651   1.978  0.4566  0.7276  0.0079
    6SOL     OW   16   1.884   0.527   2.702  0.4275  0.2593  0.2517
    6SOL    HW1   17   1.900   0.584   2.620  0.9158  0.3160 -1.2748
    6SOL    HW2   18   1.787   0.502   2.703 -0.1210 -0.0580 -1.2895
    7SOL     OW   19   0.343   0.121   1.515 -0.7342  0.1013 -0.3340
    7SOL    HW1   20   0.319   0.220   1.498 -0.3024  2.5258 -2.9787
    7SOL    HW2   21   0.364   0.094   1.610 -0.0991  0.8323  0.1425
    8SOL     OW   22   1.820   0.025   1.726 -0.0027  0.0364  0.2613
    8SOL    HW1   23   1.894   0.036   1.797 -0.9813 -2.7359  3.1651
    8SOL    HW2   24   1.854   0.043   1.630  0.1731 -0.5595  0.7866
    9SOL     OW   25   0.368   0.060   0.628  0.2193  0.5274  0.4883
    9SOL    HW1   26   0.418   0.090   0.709  0.4547 -1.2781 -2.0037
    9SOL    HW2   27   0.269   0.055   0.661 -1.5661 -0.9506  3.2128
   10SOL     OW   28   0.530   2.298   2.445 -0.4167 -0.0951  0.8849
   10SOL    HW1   29   0.615   2.348   2.466  1.8620 -1.5274 -2.1702
   10SOL    HW2   30   0.515   2.296   2.344 -3.5754 -1.6766 -0.0635
   11SOL     OW   31   0.514   1.616   0.195 -0.0933 -0.3781 -0.0789
   11SOL    HW1   32   0.524   1.584   0.096 -1.0411 -0.0779 -1.4342
   11SOL    HW2   33   0.596   1.604   0.253  0.0016 -0.9560  0.8743
   12SOL     OW   34   2.985   2.905   1.337 -0.1093  0.2653 -0.7112
   12SOL    HW1   35   2.968   2.926   1.237  0.3187 -1.7003 -2.1795
   12SOL    HW2   36   3.060   2.835   1.349 -0.6538 -1.2212 -0.5055
   13SOL     OW   37   0.835   2.853   0.388 -0.4381 -0.4079  0.5535
   13SOL    HW1   38   0.830   2.804   0.298 -3.4186  2.4917  0.0167
   13SOL    HW2   39   0.833   2.955   0.375 -0.5121  0.7524  0.1133
   14SOL     OW   40   1.609   1.609   1.379  0.0329 -0.7032  0.0335
   14SOL    HW1   41   1.571   1.670   1.304  0.5211  0.6410  1.9995
   14SOL    HW2   42   1.548   1.534   1.414 -1.7124  0.0082  3.0660
   15SOL     OW   43   3.062   1.647   2.480 -0.1433 -0.5125 -0.2683
   15SOL    HW1   44   2.988   1.615   2.543  1.8732 -0.4179  2.2047
   15SOL    HW2   45   3.106   1.728   2.521  1.5340 -2.5354  1.7936
   16SOL     OW   46   1.548   0.672   2.671  0.1936 -0.2074  0.0400
   16SOL    HW1   47   1.557   0.755   2.606  0.3744  3.2481  0.9296
   16SOL    HW2   48   1.584   0.715   2.756  1.3887 -0.1923  0.2348
   17SOL     OW   49   3.059   2.432   2.424  0.2542 -0.3832 -0.3002
   17SOL    HW1   50   3.102   2.414   2.516  0.4900 -3.7433 -0.3155
   17SOL    HW2   51   0.009   2.418   2.347 -3.7883 -0.5895 -3.1493
   18SOL     OW   52   0.977   1.373   0.722  0.8238  0.2842 -0.6910
   18SOL    HW1   53   0.995   1.475   0.719  0.2204  2.1335  1.0706
   18SOL    HW2   54   1.023   1.328   0.798 -1.7222  5.1188 -0.5809
   19SOL     OW   55   2.732   1.873   2.410 -0.5328 -0.0329  0.7306
   19SOL    HW1   56   2.736   1.891   2.510  2.1626 -0.1317 -3.0179
   19SOL    HW2   57   2.635   1.849   2.388 -3.4487 -2.8331  0.8917
   20SOL     OW   58   2.310   2.153   2.565  0.3154 -0.1581 -0.7245
   20SOL    HW1   59   2.376   2.225   2.535  0.8905  1.2535  0.4051
   20SOL    HW2   60   2.218   2.201   2.576 -4.2939  0.6131 -0.5572
   21SOL     OW   61   1.344   1.791   0.252 -0.0315 -0.1353 -0.5334
   21SOL    HW1   62   1.329   1.698   0.284 -1.4819  2.9781  1.3221
   21SOL    HW2   63   1.348   1.851   0.335  1.7631  0.1634 -2.1507
   22SOL     OW   64   2.187   2.196   1.463 -0.3292  0.1315  0.4530
   22SOL    HW1   65   2.273   2.249   1.468  0.0677  0.3357  0.7601
   22SOL    HW2   66   2.115   2.251   1.508  0.2838 -1.2855 -0.4155
   23SOL     OW   67   0.198   1.146   1.198  0.2537  0.4509 -0.0657
   23SOL    HW1   68   0.228   1.076   1.126 -4.3167 -0.8267 -0.0680
   23SOL    HW2   69   0.224   1.122   1.293 -1.0477 -1.0790  1.9004
   24SOL     OW   70   2.385   1.585   2.256  0.2210 -0.7327 -0.0478
   24SOL    HW1   71   2.326   1.560   2.336  0.3646 -3.5901  1.1742
   24SOL    HW2   72   2.477   1.611   2.287 -1.8999  0.0277  0.2915
   25SOL     OW   73   1.897   0.335   2.379 -0.2181 -0.1058  0.2327
   25SOL    HW1   74   1.964   0.367   2.448  2.5514  1.0691 -1.3275
   25SOL    HW2   75   1.882   0.409   2.314  1.7794 -0.1542  1.1609
   26SOL     OW   76   1.158   0.031   0.596  0.0369  0.0817 -0.2454
   26SOL    HW1   77   1.136   0.061   0.504  0.0701 -0.6599  1.9366
   26SOL    HW2   78   1.198   0.102   0.656 -1.6571 -1.3526  0.4907
   27SOL     OW   79   0.715   1.573   0.411 -0.0959  0.2301  0.4948
   27SOL    HW1   80   0.664   1.646   0.461 -1.1185 -0.0511  1.2029
   27SOL    HW2   81   0.721   1.500   0.477  0.8052  0.6630 -4.1173
   28SOL     OW   82   2.372   2.004   1.075 -0.0953  0.8044  0.6709
   28SOL    HW1   83   2.395   1.944   1.151 -1.5730  0.6709 -0.6432
   28SOL    HW2   84   2.294   2.060   1.097  0.7474  0.5942 -1.7697
   29SOL     OW   85   2.255   2.935   1.706  0.3701 -0.0584  0.9743
   29SOL    HW1   86   2.171   2.875   1.699 -2.0087  1.6198  0.2663
   29SOL    HW2   87   2.322   2.902   1.776 -3.0010 -0.9481 -0.6641
   30SOL     OW   88   0.852   2.966   1.038  0.3296 -0.1584 -0.5826
   30SOL    HW1   89   0.885   2.885   0.999 -0.5340  2.7557  1.2812
   30SOL    HW2   90   0.788   2.954   1.116 -1.5010 -1.2238 -2.4932
   31SOL     OW   91   0.111   2.106   1.897 -0.3633  0.5022 -0.1963
   31SOL    HW1   92   0.156   2.016   1.868  2.8901 -2.3263  0.7590
   31SOL    HW2   93   0.064   2.087   1.984  1.1603 -0.2907 -0.8775
   32SOL     OW   94   1.421   1.571   1.821 -0.2349 -0.3632  0.6240
   32SOL    HW1   95   1.363   1.612   1.749  0.3403  0.4110  0.1334
   32SOL    HW2   96   1.439   1.643   1.891  3.2015  0.1043 -2.4151
   33SOL     OW   97   0.367   0.211   3.022 -0.0586  0.0275  0.2472
   33SOL    HW1   98   0.329   0.306   3.000 -0.8562  2.0099 -1.8187
   33SOL    HW2   99   0.356   0.139   2.949  1.3700 -1.4916 -0.4438
   34SOL     OW  100   2.473   0.015   0.518 -0.7002  0.8413 -0.5799
   34SOL    HW1  101   2.412   0.017   0.599 -0.2092 -0.2067  0.1497
   34SOL    HW2  102   2.489   3.034   0.496 -1.8104  2.5526  0.4111
   35SOL     OW  103   2.669   0.115   1.458 -0.0447  0.4450 -0.2454
   35SOL    HW1  104   2.707   0.176   1.529  1.2131  0.8237 -1.7248
   35SOL    HW2  105   2.568   0.122   1.448  2.3497 -0.3498  0.7217
   36SOL     OW  106   2.813   2.732   2.672  0.0217  0.2921  0.4828
   36SOL    HW1  107   2.834   2.792   2.748  0.3950 -0.4216  2.0744
   36SOL    HW2  108   2.874   2.752   2.593  2.2087  0.9200 -2.3820
   37SOL     OW  109   1.493   2.821   2.891 -0.0211 -0.3453  0.0535
   37SOL    HW1  110   1.582   2.819   2.936 -0.9573 -0.1288 -0.7165
   37SOL    HW2  111   1.437   2.738   2.912 -1.7386 -0.2405 -1.7809
   38SOL     OW  112   2.958   0.874   3.046 -0.5895  0.1395  0.0618
   38SOL    HW1  113   2.868   0.857   3.088  0.7359 -0.7641 -0.7937
   38SOL    HW2  114   2.998   0.971   3.062  0.3190  2.3708  1.3666
   39SOL     OW  115   1.759   1.763   2.037 -0.1509 -0.3860 -0.0539
   39SOL    HW1  116   1.777   1.839   2.105 -0.8854  0.0015  3.1769
   39SOL    HW2  117   1.815   1.676   2.054 -1.4601  1.0356  0.1219
   40SOL     OW  118   0.297   0.250   2.647 -0.6015  0.3533 -0.0411
   40SOL    HW1  119   0.282   0.155   2.688  0.8984 -3.2102  2.2762
   40SOL    HW2  120   0.372   0.294   2.702 -0.1221 -1.8974 -1.5107
   41SOL     OW  121   1.751   1.288   1.880 -0.5437  0.3065  0.0315
   41SOL    HW1  122   1.848   1.315   1.896  1.1563 -1.5563  1.4909
   41SOL    HW2  123   1.699   1.359   1.829  0.9397  2.5602 -1.4899
   42SOL     OW  124   0.092   0.191   1.778  0.6074 -0.3632 -0.1840
   42SOL    HW1  125   0.114   0.240   1.691 -1.7286  0.7124  1.2919
   42SOL    HW2  126   0.173   0.141   1.815 -1.3136 -0.1939 -2.3482
   43SOL     OW  127   1.381   1.338   2.016 -0.3183  0.6179 -0.1941
   43SOL    HW1  128   1.368   1.243   1.980 -1.2795 -1.7982 -0.3725
   43SOL    HW2  129   1.455   1.384   1.963  2.9589  0.0385 -1.1463
   44SOL     OW  130   3.082   0.183   3.063  0.7426 -0.0249 -0.5374
   44SOL    HW1  131   0.003   0.092   3.079 -1.5188  1.5536 -0.4838
   44SOL    HW2  132   2.987   0.189   3.105 -0.5437 -3.4309  2.3320
   45SOL     OW  133   0.227   2.042   0.872 -0.0115  0.2809  0.7343
   45SOL    HW1  134   0.279   2.128   0.879  1.0295  0.0072  1.0510
   45SOL    HW2  135   0.267   1.964   0.922 -0.1670  2.0642  0.2154
   46SOL     OW  136   2.453   2.617   1.733  0.2969 -0.3091 -0.0292
   46SOL    HW1  137   2.424   2.690   1.794  0.7883 -3.5947  1.1352
   46SOL    HW2  138   2.553   2.636   1.706 -0.0842 -1.4765 -2.4721
   47SOL     OW  139   0.765   1.775   1.214 -0.0948 -0.0574 -0.5161
   47SOL    HW1  140   0.788   1.682   1.194 -1.7601  3.0691 -2.8731
   47SOL    HW2  141   0.677   1.817   1.173 -3.9355  1.5660  0.0474
   48SOL     OW  142   0.498   2.669   0.255 -0.4435 -0.0848 -0.4743
   48SOL    HW1  143   0.526   2.723   0.342 -1.2842  4.9674  5.1906
   48SOL    HW2  144   0.549   2.707   0.177 -0.7411 -1.3431  6.1466
   49SOL     OW  145   3.042   1.667   1.727  0.1835 -0.1929  0.9326
   49SOL    HW1  146   2.943   1.675   1.764 -2.3588 -0.0432  1.1641
   49SOL    HW2  147   3.045   1.594   1.651  1.4252 -0.6445 -2.7606
   50SOL     OW  148   1.582   0.865   0.597 -0.3568 -0.5076  0.4156
   50SOL    HW1  149   1.578   0.767   0.571  1.0448  2.1652  2.4890
   50SOL    HW2  150   1.642   0.873   0.681 -1.2695  1.4861  0.3454
   51SOL     OW  151   1.068   0.639   1.018  0.0826  0.2318 -0.2405
   51SOL    HW1  152   1.121   0.702   1.076 -3.5810 -0.3939  0.4228
   51SOL    HW2  153   0.996   0.592   1.071  1.0373  0.1653  1.6678
   52SOL     OW  154   0.964   1.502   0.318  0.1181 -0.1257 -0.1393
   52SOL    HW1  155   0.986   1.402   0.319  0.1537 -0.2542 -0.9225
   52SOL    HW2  156   0.868   1.524   0.326  2.4686  0.0039  3.3423
   53SOL     OW  157   1.365   0.109   2.559  0.5028  0.4189  0.2958
   53SOL    HW1  158   1.379   0.059   2.647  1.8295  1.0852  2.8954
   53SOL    HW2  159   1.297   0.063   2.497 -0.4149  1.0433  1.6160
   54SOL     OW  160   1.728   0.853   1.697  0.1371 -0.1005 -0.0141
   54SOL    HW1  161   1.642   0.887   1.651 -0.0072  0.3487 -0.9735
   54SOL    HW2  162   1.802   0.866   1.628  1.8328  0.6465 -0.1021
   55SOL     OW  163   2.727   2.782   0.385 -0.4655 -0.4051 -0.0678
   55SOL    HW1  164   2.752   2.738   0.469 -2.7391  1.9734 -1.3965
   55SOL    HW2  165   2.640   2.831   0.399  0.2937 -0.0175  1.2365
   56SOL     OW  166   0.927   2.484   1.994 -0.1575 -0.1691 -0.3978
   56SOL    HW1  167   0.938   2.584   2.002 -1.3926 -1.1255 -1.9350
   56SOL    HW2  168   0.948   2.451   1.906  0.9715  0.9681  4.2365
   57SOL     OW  169   1.784   0.968   2.629 -0.3323 -0.2875  0.4653
   57SOL    HW1  170   1.785   0.977   2.733  1.8083 -1.0187 -2.4443
   57SOL    HW2  171   1.694   0.943   2.594  5.1124  1.5128  1.6650
   58SOL     OW  172   0.305   1.236   1.996  0.1284 -0.3146  0.2599
   58SOL    HW1  173   0.269   1.152   1.954 -0.8749  1.0143 -1.3115
   58SOL    HW2  174   0.338   1.302   1.925 -0.8875  3.5137  0.0639
   59SOL     OW  175   0.643   2.563   2.224  0.4046 -0.3978 -0.3706
   59SOL    HW1  176   0.690   2.611   2.152 -1.1361 -0.9550  0.8928
   59SOL    HW2  177   0.586   2.480   2.196 -3.0430 -1.7077 -0.0148
   60SOL     OW  178   2.480   2.456   0.308  0.1277 -0.2819  0.6448
   60SOL    HW1  179   2.579   2.479   0.318  0.0972  2.2364  0.7812
   60SOL    HW2  180   2.465   2.441   0.207  0.8261 -1.8868 -3.9533
   61SOL     OW  181   0.917   2.612   0.542  0.5230  0.2844 -0.4154
   61SOL    HW1  182   0.998   2.573   0.500 -0.4470 -1.1436  0.7977
   61SOL    HW2  183   0.898   2.706   0.498 -0.2488  1.9711  0.4490
   62SOL     OW  184   1.674   2.403   2.640 -0.2382  0.4581  0.0565
   62SOL    HW1  185   1.662   2.328   2.574 -1.1644  1.8950 -0.7286
   62SOL    HW2  186   1.587   2.457   2.645  1.4260  0.5425 -0.8483
   63SOL     OW  187   2.072   0.654   0.039  0.2600  0.0088  0.8529
   63SOL    HW1  188   2.086   0.631   3.054  0.6853 -0.4247 -0.6374
   63SOL    HW2  189   2.161   0.686   0.078 -0.6178 -1.7322 -0.1078
   64SOL     OW  190   0.899   1.525   2.846  0.4163 -0.3615 -0.3138
   64SOL    HW1  191   0.826   1.582   2.888  1.2299 -0.1068  0.4171
   64SOL    HW2  192   0.947   1.459   2.905  2.9733  0.1738  1.2669
   65SOL     OW  193   1.003   3.016   1.301  0.2685 -0.2625 -0.2432
   65SOL    HW1  194   1.106   3.002   1.288  2.6850 -1.2929 -1.0127
   65SOL    HW2  195   0.952   3.018   1.209  3.5866 -3.5638 -0.9358
   66SOL     OW  196   0.587   1.613   1.602 -0.6630  0.2509 -0.1099
   66SOL    HW1  197   0.606   1.523   1.558 -1.7828  0.8702 -1.7984
   66SOL    HW2  198   0.664   1.638   1.667 -0.0472  2.8495 -1.0072
   67SOL     OW  199   2.401   2.646   2.177 -0.5173 -0.2059  0.2533
   67SOL    HW1  200   2.465   2.635   2.252 -0.9192  2.5626 -0.4699
   67SOL    HW2  201   2.435   2.703   2.098  1.4570  1.6531 -2.5023
   68SOL     OW  202   0.908   0.903   1.828 -0.2384 -0.1253  0.3299
   68SOL    HW1  203   0.901   0.891   1.930 -1.0638  1.5500 -0.4011
   68SOL    HW2  204   0.827   0.872   1.779  2.0250  0.7972  1.4325
   69SOL     OW  205   2.616   2.518   0.045  0.2008  0.7714  0.6751
   69SOL    HW1  206   2.690   2.591   0.074  3.3679  2.3453 -0.6842
   69SOL    HW2  207   2.596   2.514   3.061 -1.9286 -0.2896  1.5294
   70SOL     OW  208   2.293   0.722   2.731  0.4054 -0.3982 -0.5027
   70SOL    HW1  209   2.351   0.684   2.659  0.4850  0.9983  2.7025
   70SOL    HW2  210   2.233   0.796   2.706 -0.0247  1.1315 -1.1940
   71SOL     OW  211   0.003   2.362   0.396 -0.5414  0.1067  0.2878
   71SOL    HW1  212   3.055   2.289   0.356 -1.1353 -2.9456 -0.0098
   71SOL    HW2  213   0.095   2.334   0.379 -0.2407  2.0224  0.8720
   72SOL     OW  214   2.812   1.828   0.512 -0.0418 -0.3939  0.3012
   72SOL    HW1  215   2.911   1.841   0.507  1.9151 -0.1878 -0.5374
   72SOL    HW2  216   2.774   1.835   0.607 -0.2925  1.7996  1.2668
   73SOL     OW  217   1.130   0.482   0.623 -0.0561 -0.6489 -0.0448
   73SOL    HW1  218   1.225   0.507   0.644 -0.1703  1.1887  0.9391
   73SOL    HW2  219   1.067   0.550   0.671  1.7720 -0.0250 -1.9242
   74SOL     OW  220   2.962   2.307   1.936 -0.6922 -0.5685  0.1998
   74SOL    HW1  221   3.038   2.271   2.000  2.6609 -0.4532  0.9415
   74SOL    HW2  222   3.007   2.376   1.865 -0.3759 -0.0422 -2.3468
   75SOL     OW  223   1.844   1.717   1.768  0.5535 -0.2959 -0.6438
   75SOL    HW1  224   1.823   1.748   1.860 -1.3849 -0.6523 -0.2273
   75SOL    HW2  225   1.769   1.743   1.705  0.2565 -0.2566  0.4124
   76SOL     OW  226   1.431   2.064   1.195  0.0232  0.8655 -0.5165
   76SOL    HW1  227   1.450   2.109   1.106  1.4101 -1.9748  1.9330
   76SOL    HW2  228   1.329   2.053   1.205  0.1304 -1.2120  0.7555
   77SOL     OW  229   2.752   1.704   1.851  0.1533  1.0254 -0.2304
   77SOL    HW1  230   2.762   1.619   1.908  2.0368 -2.0331  3.2236
   77SOL    HW2  231   2.756   1.783   1.916  0.0119  0.9549  2.1188
   78SOL     OW  232   1.685   0.554   0.886 -0.6461 -0.1637 -0.0101
   78SOL    HW1  233   1.714   0.457   0.914  0.8496  0.4721  1.0416
   78SOL    HW2  234   1.635   0.599   0.969  0.2318  2.8245 -0.1822
   79SOL     OW  235   2.023   1.378   1.915 -0.2133  0.1490 -0.2912
   79SOL    HW1  236   2.080   1.314   1.966 -0.8084  1.9090 -1.8707
   79SOL    HW2  237   2.026   1.356   1.818 -1.4496  1.4246  4.1703
   80SOL     OW  238   1.355   0.329   1.198 -0.2170 -0.2356  0.2402
   80SOL    HW1  239   1.406   0.242   1.185  0.4890  1.3524 -3.9982
   80SOL    HW2  240   1.270   0.310   1.248  0.8782  0.2009  0.1943
   81SOL     OW  241   0.685   2.445   0.583  0.1109 -0.0984  0.1944
   81SOL    HW1  242   0.773   2.496   0.572  1.0902 -1.5009  1.1110
   81SOL    HW2  243   0.695   2.364   0.648  1.2807  1.5289  1.0529
   82SOL     OW  244   1.356   0.515   1.820 -0.2404  0.2068  0.7771
   82SOL    HW1  245   1.395   0.553   1.730  1.3895  2.6688  1.8947
   82SOL    HW2  246   1.333   0.416   1.812 -2.0102  2.7267 -1.4700
   83SOL     OW  247   0.343   2.043   0.589  0.2855 -0.0652 -0.3381
   83SOL    HW1  248   0.342   2.055   0.486  1.2175  0.4447  0.1083
   83SOL    HW2  249   0.260   2.092   0.627 -3.6182  2.7009  2.8041
   84SOL     OW  250   2.653   1.312   0.073 -0.0946 -0.0485 -0.3591
   84SOL    HW1  251   2.730   1.357   0.018  1.8169 -0.4604 -0.5038
   84SOL    HW2  252   2.569   1.328   0.014 -0.4457  2.4309 -1.0563
   85SOL     OW  253   0.070   2.629   1.516  0.2260 -0.1385 -0.0308
   85SOL    HW1  254   0.085   2.695   1.439 -1.9026  0.2760 -0.0494
   85SOL    HW2  255   0.012   2.548   1.485  0.2595  2.1314  2.2685
   86SOL     OW  256   1.745   2.898   0.959 -0.2170  0.3208 -0.2816
   86SOL    HW1  257   1.837   2.881   0.994  0.4147  1.2819  0.1890
   86SOL    HW2  258   1.735   2.853   0.867  0.1577  0.0710 -1.5237
   87SOL     OW  259   2.772   1.389   0.509 -0.4386 -0.0665  0.1444
   87SOL    HW1  260   2.679   1.393   0.551  0.9242 -1.8924 -0.5549
   87SOL    HW2  261   2.827   1.345   0.577  0.7870 -0.2841 -0.4019
   88SOL     OW  262   0.902   0.527   1.208  0.2683  0.3125 -0.0731
   88SOL    HW1  263   0.919   0.494   1.302  2.1841 -0.8545  0.2345
   88SOL    HW2  264   0.852   0.458   1.152 -0.5522  2.4682  1.1369
   89SOL     OW  265   0.969   2.773   1.950  0.1699 -0.0651 -0.1895
   89SOL    HW1  266   0.931   2.824   1.866  0.8455 -1.4240 -0.3248
   89SOL    HW2  267   1.070   2.773   1.949 -1.1939 -0.9086 -0.5932
   90SOL     OW  268   3.078   1.700   1.185 -0.7182  0.1177  0.5800
   90SOL    HW1  269   2.989   1.674   1.150  2.2537  0.3422  1.4023
   90SOL    HW2  270   3.093   1.797   1.180 -1.9842 -0.5989  0.8317
   91SOL     OW  271   1.254   1.718   1.201 -0.1964  0.1497 -0.1691
   91SOL    HW1  272   1.234   1.684   1.294 -1.7635 -1.9422 -1.9116
   91SOL    HW2  273   1.292   1.641   1.146  0.5093  1.2221  1.2470
   92SOL     OW  274   2.742   2.746   1.923  0.1105  0.1254  0.3998
   92SOL    HW1  275   2.725   2.725   1.822 -0.1182 -0.4187 -1.7798
   92SOL    HW2  276   2.675   2.812   1.949  2.2457 -4.1846  1.2009
   93SOL     OW  277   3.012   1.317   2.830 -0.4301 -0.0363 -0.7128
   93SOL    HW1  278   2.949   1.244   2.795  1.5450 -3.2957 -0.2473
   93SOL    HW2  279   3.074   1.353   2.761 -1.8985  0.3443  1.1119
   94SOL     OW  280   2.414   2.863   1.933 -0.2421  0.0506 -0.0966
   94SOL    HW1  281   2.327   2.892   1.976 -0.5667  0.0535 -0.5121
   94SOL    HW2  282   2.492   2.917   1.977 -0.5670  2.3997  2.0842
   95SOL     OW  283   1.729   0.893   2.211 -0.1436 -0.0625 -0.1282
   95SOL    HW1  284   1.636   0.863   2.235 -0.5402 -2.0384  0.5288
   95SOL    HW2  285   1.728   0.922   2.115  2.8053 -0.8419 -0.4309
   96SOL     OW  286   2.592   0.841   1.614 -0.2105 -0.0830 -0.2773
   96SOL    HW1  287   2.663   0.867   1.680  1.0208 -0.8942 -0.2268
   96SOL    HW2  288   2.630   0.815   1.525 -0.7749 -0.8683  0.3096
   97SOL     OW  289   2.370   2.993   1.447 -0.3811 -0.4081  0.2436
   97SOL    HW1  290   2.430   2.907   1.432  1.9351 -1.5678 -0.9418
   97SOL    HW2  291   2.329   2.982   1.538  0.2091  1.1103 -1.5106
   98SOL     OW  292   2.148   2.665   1.311 -0.1413  0.2237 -0.3539
   98SOL    HW1  293   2.240   2.654   1.361  2.1869  2.1747  0.6101
   98SOL    HW2  294   2.081   2.612   1.360 -0.0955 -0.2420 -2.8122
   99SOL     OW  295   2.756   0.323   1.636  0.7014 -0.4884 -0.3062
   99SOL    HW1  296   2.708   0.372   1.714  0.5081  0.6615  0.0996
   99SOL    HW2  297   2.812   0.248   1.670  2.0569 -2.0939  0.1022
  100SOL     OW  298   2.350   1.742   2.038 -0.2431 -0.0278 -0.6218
  100SOL    HW1  299   2.371   1.678   2.117 -0.5268  1.9617  2.4554
  100SOL    HW2  300   2.251   1.760   2.043  1.6314  0.2625  1.5570
  101SOL     OW  301   2.087   0.030   0.178  0.5735 -0.3216 -0.1692
  101SOL    HW1  302   2.179   0.030   0.221  0.3582  1.2748  1.0003
  101SOL    HW2  303   2.053   0.124   0.159  0.7124 -1.2954 -3.5524
  102SOL     OW  304   0.510   0.631   1.318 -0.4077 -0.0608  0.3466
  102SOL    HW1  305   0.436   0.612   1.384 -0.2982 -1.4608 -0.0712
  102SOL    HW2  306   0.487   0.584   1.229 -1.2492  0.0371  2.4360
  103SOL     OW  307   2.583   3.064   2.613 -0.3334  0.2194 -0.3430
  103SOL    HW1  308   2.633   0.018   2.675  0.6555 -0.6603  1.5127
  103SOL    HW2  309   2.553   2.979   2.659  0.2301  0.2635 -2.6441
  104SOL     OW  310   2.997   2.860   1.840 -0.6943  0.1228  0.5954
  104SOL    HW1  311   3.052   2.786   1.887  1.1466 -0.6330  0.0676
  104SOL    HW2  312   2.899   2.838   1.857 -1.1072  1.7016 -0.7212
  105SOL     OW  313   1.265   0.953   2.119  0.6190  0.5279 -0.1662
  105SOL    HW1  314   1.174   1.000   2.139 -0.7770 -0.5452  1.0362
  105SOL    HW2  315   1.243   0.859   2.085  0.8424  0.3015 -0.0685
  106SOL     OW  316   1.938   0.662   0.750 -0.3679 -0.0441  0.7581
  106SOL    HW1  317   1.856   0.678   0.811 -1.7895 -1.2814  4.4383
  106SOL    HW2  318   1.914   0.640   0.653 -0.3551 -0.6024 -0.3851
  107SOL     OW  319   0.670   1.114   1.185  0.0804  0.1916  0.3626
  107SOL    HW1  320   0.599   1.041   1.193  0.0003 -1.2090 -3.0430
  107SOL    HW2  321   0.761   1.068   1.167 -0.5341 -2.3924 -1.7646
  108SOL     OW  322   3.032   0.409   2.293  0.0250  0.1993  0.4966
  108SOL    HW1  323   3.006   0.380   2.198 -0.8645  2.2411  0.5865
  108SOL    HW2  324   3.089   0.337   2.339  3.2456 -0.5171 -2.2556
  109SOL     OW  325   2.068   3.079   3.031  0.2171  0.1901 -0.3986
  109SOL    HW1  326   2.069   3.092   0.018  2.6481  0.5783 -1.3130
  109SOL    HW2  327   2.028   0.048   2.987  0.0835  5.1571 -0.8077
  110SOL     OW  328   3.051   1.622   2.853  0.0280 -0.0640  0.3036
  110SOL    HW1  329   3.055   1.589   2.950 -2.0171  0.9776  0.5454
  110SOL    HW2  330   3.046   1.726   2.852  1.0731  0.4875  0.8282
  111SOL     OW  331   2.527   0.171   2.439  0.3474 -0.1751  0.5185
  111SOL    HW1  332   2.557   0.244   2.503 -0.9635  1.2068  0.7789
  111SOL    HW2  333   2.503   0.088   2.494 -1.2055  0.2404  2.5981
  112SOL     OW  334   2.643   2.834   1.094  0.2273  0.0923  0.8801
  112SOL    HW1  335   2.697   2.761   1.048 -0.4897 -0.1266  3.0751
  112SOL    HW2  336   2.708   2.906   1.132 -0.2734  0.0046 -2.2569
  113SOL     OW  337   2.386   2.162   2.126  0.1206  0.2904 -0.4662
  113SOL    HW1  338   2.423   2.080   2.080  0.7813  0.7183  0.6928
  113SOL    HW2  339   2.328   2.134   2.207 -1.3344 -0.0431 -1.2898
  114SOL     OW  340   2.742   0.034   0.481 -0.4115 -0.4853 -0.0078
  114SOL    HW1  341   2.648   0.024   0.510  1.4679 -1.0483 -1.2932
  114SOL    HW2  342   2.805   0.052   0.561  1.5253  0.2689  1.2890
  115SOL     OW  343   2.877   1.747   0.226 -0.4038 -0.0461  0.1089
  115SOL    HW1  344   2.838   1.744   0.323  0.7227 -0.6615  2.1581
  115SOL    HW2  345   2.897   1.649   0.188  1.0725 -6.4548 -1.9547
  116SOL     OW  346   3.040   1.319   2.074 -0.2819  0.1485  0.9295
  116SOL    HW1  347   3.107   1.349   2.004  1.3974 -0.6031 -1.0499
  116SOL    HW2  348   3.067   1.352   2.166  0.8986  0.6382  1.4832
  117SOL     OW  349   2.194   0.200   0.942  0.1530 -0.0448 -0.5134
  117SOL    HW1  350   2.169   0.102   0.955 -0.5119  0.4446 -0.9619
  117SOL    HW2  351   2.264   0.232   1.011 -0.4340 -1.6152 -0.1018
  118SOL     OW  352   0.292   2.308   1.797  0.5576  0.1514  0.1726
  118SOL    HW1  353   0.213   2.256   1.831 -1.8797  0.8901 -2.1299
  118SOL    HW2  354   0.373   2.248   1.772 -0.1509  0.1899 -1.6158
  119SOL     OW  355   1.149   2.036   1.354 -0.3565  0.3989  0.1037
  119SOL    HW1  356   1.145   2.130   1.311 -0.0627  2.4128 -1.7355
  119SOL    HW2  357   1.066   2.010   1.407  1.5356  0.5365  0.6373
  120SOL     OW  358   0.295   1.917   1.391  0.6389 -0.1358  0.1914
  120SOL    HW1  359   0.268   1.913   1.485  1.7946  0.3550 -3.8779
  120SOL    HW2  360   0.397   1.893   1.382  0.1503  1.6760 -1.6058
  121SOL     OW  361   1.899   1.346   0.997 -0.2152 -0.5590  0.1207
  121SOL    HW1  362   1.827   1.413   1.001  1.0081  1.7944  0.6467
  121SOL    HW2  363   1.938   1.332   1.091 -0.5523  0.5431 -3.3853
  122SOL     OW  364   2.079   1.993   2.899  0.4905  0.1954 -0.0485
  122SOL    HW1  365   2.054   1.905   2.948  0.5771 -0.8151 -1.0539
  122SOL    HW2  366   2.165   1.977   2.852 -0.2392 -0.2199  3.6889
  123SOL     OW  367   2.953   2.955   0.368 -0.0437  0.1466  0.6936
  123SOL    HW1  368   2.891   3.022   0.408  0.1546  2.3501 -0.6026
  123SOL    HW2  369   2.906   2.865   0.360 -2.9788 -0.7833 -1.1485
  124SOL     OW  370   1.076   1.127   0.166  0.8484 -0.6206 -0.3808
  124SOL    HW1  371   1.005   1.200   0.161  2.2696  1.3720 -0.4195
  124SOL    HW2  372   1.083   1.081   0.075 -2.6167 -0.7214  2.5269
  125SOL     OW  373   3.107   1.429   2.313 -0.1171 -0.1679 -0.1276
  125SOL    HW1  374   3.108   1.516   2.361  0.4673 -1.6198 -2.0485
  125SOL    HW2  375   0.042   1.357   2.370 -2.0967  1.0653 -0.5187
  126SOL     OW  376   3.089   2.636   0.500 -1.1026  0.6801  0.2493
  126SOL    HW1  377   0.045   2.713   0.484  2.8734  0.3617 -0.2234
  126SOL    HW2  378   0.013   2.544   0.470  0.7299  1.1164  0.0926
  127SOL     OW  379   2.983   1.556   0.450 -0.2404 -0.5977  0.2858
  127SOL    HW1  380   2.890   1.517   0.471  3.0792 -0.0306  0.9650
  127SOL    HW2  381   3.048   1.488   0.410 -0.5262  0.8393  1.9550
  128SOL     OW  382   1.056   1.269   0.439 -0.5378  0.1848 -0.1138
  128SOL    HW1  383   1.033   1.278   0.537 -1.8830 -0.5115  1.1088
  128SOL    HW2  384   1.139   1.208   0.424 -0.7489 -1.3032 -0.1960
  129SOL     OW  385   1.997   1.994   1.449  0.2509  0.2538 -0.9064
  129SOL    HW1  386   2.059   2.066   1.470  2.1889 -0.7114 -1.3657
  129SOL    HW2  387   1.927   2.024   1.385  1.2853 -1.2056  4.2864
  130SOL     OW  388   2.024   0.973   0.719  0.4975 -0.3490  0.3795
  130SOL    HW1  389   1.938   0.937   0.760  1.9872  1.5078 -0.6249
  130SOL    HW2  390   2.049   1.058   0.765 -1.1544  0.4707  1.0788
  131SOL     OW  391   2.990   0.925   2.750 -0.0311  0.3117 -0.4547
  131SOL    HW1  392   2.983   0.901   2.852  0.8423  1.1506  2.6040
  131SOL    HW2  393   2.933   1.007   2.732 -0.7113  2.1013  1.6519
  132SOL     OW  394   1.777   1.190   2.224 -0.0367  0.3431 -0.5057
  132SOL    HW1  395   1.775   1.089   2.227  0.2334  0.7623 -2.3741
  132SOL    HW2  396   1.689   1.231   2.202  0.4544 -0.8980  1.3345
  133SOL     OW  397   3.061   1.123   3.100  0.4126  0.5256  0.5171
  133SOL    HW1  398   3.089   1.193   3.031 -3.6811 -1.4359 -2.4102
  133SOL    HW2  399   3.047   1.160   0.078 -0.4191  0.1441  1.3609
  134SOL     OW  400   2.847   0.643   0.803 -0.2265 -0.1441 -0.0733
  134SOL    HW1  401   2.856   0.729   0.853  2.8804 -1.7029 -0.6761
  134SOL    HW2  402   2.923   0.629   0.738 -1.8065  0.9137  0.3980
  135SOL     OW  403   1.996   0.969   0.016  0.4504  0.5465  0.1584
  135SOL    HW1  404   2.040   0.875   0.017  0.7473 -2.5657 -0.7208
  135SOL    HW2  405   2.002   1.024   0.098  0.9044  0.9664  0.5618
  136SOL     OW  406   1.880   2.084   1.728 -0.4217  0.1929 -0.2720
  136SOL    HW1  407   1.861   1.987   1.709  0.1058  1.1757 -0.9217
  136SOL    HW2  408   1.805   2.133   1.781  0.1403 -0.8872 -0.9641
  137SOL     OW  409   2.213   2.686   0.694  0.0538 -0.1856  0.1093
  137SOL    HW1  410   2.279   2.650   0.763  0.4325 -0.1620 -0.2232
  137SOL    HW2  411   2.244   2.663   0.601 -1.0472 -1.5181  0.9506
  138SOL     OW  412   2.342   0.276   1.643  0.4382  0.5020 -0.0109
  138SOL    HW1  413   2.259   0.219   1.667  1.7251  2.3291 -2.2660
  138SOL    HW2  414   2.345   0.366   1.692 -2.4025 -1.8306 -0.4315
  139SOL     OW  415   2.691   0.086   2.822  0.4525 -0.1902  0.7947
  139SOL    HW1  416   2.603   0.076   2.879 -0.8689  0.4896 -1.1150
  139SOL    HW2  417   2.736   0.176   2.841  0.0025 -0.1079  0.3243
  140SOL     OW  418   1.118   1.563   2.244  0.3356 -0.4705  0.1623
  140SOL    HW1  419   1.023   1.578   2.276  1.0067 -0.0243 -1.1765
  140SOL    HW2  420   1.177   1.532   2.322 -0.9947 -1.1008  1.8822
  141SOL     OW  421   0.775   0.546   2.353 -0.0631 -0.0929  0.0323
  141SOL    HW1  422   0.678   0.555   2.315  0.8232 -0.9272  1.6454
  141SOL    HW2  423   0.831   0.626   2.330 -0.6765 -1.6986  2.6167
  142SOL     OW  424   2.760   2.483   2.786 -0.0733 -0.4539 -0.2770
  142SOL    HW1  425   2.817   2.480   2.872  1.9732 -1.0276  1.5410
  142SOL    HW2  426   2.798   2.556   2.726  0.3051  1.1929  4.1238
  143SOL     OW  427   0.812   2.082   0.360 -0.0455 -0.2941  0.3096
  143SOL    HW1  428   0.741   2.155   0.347  0.3916  0.6634 -3.4499
  143SOL    HW2  429   0.867   2.110   0.439 -0.7176  0.4595 -2.2847
  144SOL     OW  430   1.359   2.594   2.935  0.1122 -0.3121 -0.7688
  144SOL    HW1  431   1.354   2.544   2.849  0.4798  1.6293  2.0214
  144SOL    HW2  432   1.359   2.530   3.019  1.5453  1.1888 -0.6637
  145SOL     OW  433   1.649   1.914   2.632 -0.0665  0.2682 -0.0508
  145SOL    HW1  434   1.726   1.954   2.691  1.4035 -0.8883  1.5869
  145SOL    HW2  435   1.682   1.849   2.557  0.6031  0.3304 -0.7326
  146SOL     OW  436   2.808   2.936   2.873 -0.0690  0.2807 -0.1137
  146SOL    HW1  437   2.835   2.945   2.970  1.7520 -0.4007 -1.0402
  146SOL    HW2  438   2.749   3.013   2.852  0.2551 -1.5011 -0.4047
  147SOL     OW  439   2.976   1.351   0.924  0.5655  0.5686  0.0296
  147SOL    HW1  440   3.067   1.387   0.913  0.5354 -3.0621  0.3034
  147SOL    HW2  441   2.916   1.420   0.967  3.8837 -2.5586  3.6570
  148SOL     OW  442   2.067   2.726   0.179 -0.4296 -0.1121  0.0029
  148SOL    HW1  443   1.993   2.666   0.215 -0.8979 -1.6410  0.7641
  148SOL    HW2  444   2.054   2.750   0.082  1.3338  0.4061 -0.1730
  149SOL     OW  445   0.404   1.898   2.720  0.6314 -0.0110 -0.1465
  149SOL    HW1  446   0.439   1.816   2.776 -3.5108  0.6058  1.1111
  149SOL    HW2  447   0.353   1.967   2.772  2.3205 -1.3106 -1.5912
  150SOL     OW  448   0.256   2.562   0.428  0.3967 -0.8672 -0.4099
  150SOL    HW1  449   0.302   2.592   0.338  1.9482  2.6130  0.3616
  150SOL    HW2  450   0.263   2.464   0.441 -1.1151 -1.1471  1.9382
  151SOL     OW  451   0.413   1.219   0.366 -0.8985  0.0320 -0.0190
  151SOL    HW1  452   0.383   1.137   0.311 -0.7343  1.4371  0.0306
  151SOL    HW2  453   0.403   1.202   0.465 -0.2112  1.4570 -1.3818
  152SOL     OW  454   2.639   1.957   0.339  0.1213  0.0664 -0.0065
  152SOL    HW1  455   2.678   1.898   0.415  1.2272  0.2231 -0.4972
  152SOL    HW2  456   2.549   1.920   0.303 -1.6816  1.3993  2.0646
  153SOL     OW  457   1.817   2.222   0.712  0.3052 -0.5473 -0.3002
  153SOL    HW1  458   1.904   2.251   0.756 -0.0204  1.3312 -0.9374
  153SOL    HW2  459   1.820   2.223   0.610  3.7994 -0.7024  0.1519
  154SOL     OW  460   0.909   2.502   0.809 -0.4425 -0.8056 -0.4814
  154SOL    HW1  461   0.914   2.563   0.725  1.5133 -1.0555  0.1134
  154SOL    HW2  462   0.816   2.495   0.843  0.0961  0.0669  0.9706
  155SOL     OW  463   2.790   1.756   0.801 -0.3869  0.9645 -0.6523
  155SOL    HW1  464   2.708   1.711   0.756 -0.9294  0.0695  0.0883
  155SOL    HW2  465   2.879   1.732   0.758 -1.2392 -0.4114  0.3868
  156SOL     OW  466   2.680   2.267   0.055  0.2042 -0.2385 -0.1957
  156SOL    HW1  467   2.623   2.183   0.042 -0.2533  0.4814  1.1336
  156SOL    HW2  468   2.638   2.356   0.060  1.6080  0.9873 -3.8904
  157SOL     OW  469   0.645   2.267   1.446 -0.3762 -0.0671  0.2992
  157SOL    HW1  470   0.730   2.259   1.388  0.8609 -0.9180 -2.3430
  157SOL    HW2  471   0.557   2.251   1.389 -1.1650  0.2281  0.9533
  158SOL     OW  472   1.411   0.579   0.423  0.2442 -0.2548  0.1306
  158SOL    HW1  473   1.413   0.568   0.523  2.3503  0.3048 -1.9419
  158SOL    HW2  474   1.506   0.569   0.383 -0.5167  0.8499  1.0999
  159SOL     OW  475   1.183   0.771   0.409 -0.3430  0.1357  0.6685
  159SOL    HW1  476   1.257   0.701   0.423 -0.2919 -4.9995  2.2088
  159SOL    HW2  477   1.126   0.744   0.326 -3.2676  0.4246 -0.3311
  160SOL     OW  478   0.738   1.403   0.603  0.0720  0.3786 -0.4453
  160SOL    HW1  479   0.668   1.420   0.676  1.0651  0.8646  0.6642
  160SOL    HW2  480   0.825   1.376   0.643  3.5587 -0.7172  0.1268
  161SOL     OW  481   0.069   2.377   2.648 -0.4717 -0.0479 -0.3406
  161SOL    HW1  482   0.025   2.318   2.715 -0.6737  2.4821 -3.6810
  161SOL    HW2  483   0.174   2.388   2.652  2.0402  1.5679  2.4777
  162SOL     OW  484   0.254   2.494   1.026  0.4757  0.0572 -0.2587
  162SOL    HW1  485   0.208   2.474   1.116  2.2865 -2.7378 -0.0359
  162SOL    HW2  486   0.192   2.527   0.955 -0.5860  0.4296 -0.0925
  163SOL     OW  487   3.038   0.406   2.686 -0.1529 -0.0970 -0.3684
  163SOL    HW1  488   3.002   0.494   2.655  0.3883 -1.1639  0.5835
  163SOL    HW2  489   3.077   0.411   2.782  1.6671 -0.5741  1.9569
  164SOL     OW  490   0.579   3.011   2.743 -0.4930  0.3083 -0.0500
  164SOL    HW1  491   0.496   2.976   2.780  1.7025  1.0994  0.5373
  164SOL    HW2  492   0.607   2.961   2.657  2.2714 -0.5239  0.0155
  165SOL     OW  493   2.426   0.616   1.751 -0.2562  0.1288  0.2500
  165SOL    HW1  494   2.337   0.641   1.792  0.8697 -1.9629 -2.7351
  165SOL    HW2  495   2.466   0.692   1.697  1.2184 -0.0464  0.9426
  166SOL     OW  496   1.961   2.353   1.631 -0.3829  0.1599  0.0364
  166SOL    HW1  497   1.970   2.419   1.714  2.0937  0.5905  3.6744
  166SOL    HW2  498   1.952   2.258   1.656 -0.0358  1.0291 -0.6427
  167SOL     OW  499   0.567   1.197   2.365  0.6151 -0.4289  0.5384
  167SOL    HW1  500   0.551   1.263   2.443  2.4163  1.8602  1.4900
  167SOL    HW2  501   0.624   1.125   2.409  2.3662 -0.0870 -0.2269
  168SOL     OW  502   2.295   3.093   2.421 -0.9998  0.3906  0.2617
  168SOL    HW1  503   2.253   0.069   2.424 -1.1708 -2.1883  0.5384
  168SOL    HW2  504   2.355   3.096   2.339 -2.3928  3.0620 -1.0878
  169SOL     OW  505   0.345   1.000   0.181 -0.1844 -0.4032  0.0453
  169SOL    HW1  506   0.371   0.909   0.215  0.9428 -0.8015 -0.2063
  169SOL    HW2  507   0.258   0.974   0.130 -3.1778 -0.9194 -2.4634
  170SOL     OW  508   0.116   1.466   1.831 -0.1325  0.7311  0.3677
  170SOL    HW1  509   0.050   1.538   1.799  1.0256  1.6426  4.0888
  170SOL    HW2  510   0.203   1.502   1.865 -0.0392  0.9458 -1.6087
  171SOL     OW  511   1.236   2.383   2.034  0.4159 -0.6921 -0.3058
  171SOL    HW1  512   1.254   2.408   1.935  1.4529  3.0343 -0.8891
  171SOL    HW2  513   1.317   2.359   2.086 -1.9555 -1.2240 -1.9301
  172SOL     OW  514   1.166   2.580   2.250 -0.1146 -0.1865 -0.0947
  172SOL    HW1  515   1.163   2.528   2.166  2.0027  1.7343  0.0010
  172SOL    HW2  516   1.256   2.622   2.263 -2.1762 -1.4509  1.1850
  173SOL     OW  517   1.440   2.382   0.626  0.3125  0.5785 -0.0265
  173SOL    HW1  518   1.405   2.303   0.675  1.3272  2.1204 -2.8939
  173SOL    HW2  519   1.409   2.473   0.661  0.6696 -4.3098 -3.1751
  174SOL     OW  520   2.327   0.080   0.288  0.6587  0.4263  0.0588
  174SOL    HW1  521   2.365   0.065   0.380 -1.2694  1.6117 -1.0907
  174SOL    HW2  522   2.353   0.173   0.252  2.1593 -0.0250  1.1122
  175SOL     OW  523   1.066   1.709   0.496  0.2062  0.1742  0.3987
  175SOL    HW1  524   1.070   1.776   0.421  1.3116 -0.5982  0.4464
  175SOL    HW2  525   1.019   1.629   0.454  0.9131  1.8340 -1.0690
  176SOL     OW  526   0.522   1.726   0.574 -0.0301  0.3374 -0.2853
  176SOL    HW1  527   0.554   1.808   0.626  0.0778 -0.2778  1.1463
  176SOL    HW2  528   0.435   1.743   0.518 -0.4544  0.8777 -2.4726
  177SOL     OW  529   1.124   1.148   1.520  0.2886 -0.0341 -0.3947
  177SOL    HW1  530   1.051   1.161   1.587  1.8999 -1.5256  0.2052
  177SOL    HW2  531   1.211   1.130   1.563  0.7130 -1.1277  0.1887
  178SOL     OW  532   2.400   1.780   0.489  0.2335  0.4636 -0.3401
  178SOL    HW1  533   2.298   1.792   0.481 -1.3861  0.2241  0.9065
  178SOL    HW2  534   2.433   1.733   0.401  1.6046 -0.0613 -0.8520
  179SOL     OW  535   1.132   2.397   2.922  0.0148  0.0112 -0.2123
  179SOL    HW1  536   1.178   2.337   2.855  0.3208 -1.0715 -2.9516
  179SOL    HW2  537   1.178   2.392   3.012  0.3789 -1.0801  1.1133
  180SOL     OW  538   1.972   1.577   2.100  0.0921 -0.3214  0.0369
  180SOL    HW1  539   2.019   1.667   2.078  0.4690  4.3122  1.0628
  180SOL    HW2  540   1.983   1.513   2.020  0.6864 -0.9972  1.2254
  181SOL     OW  541   0.690   0.996   2.525 -0.2954 -0.0779  0.0213
  181SOL    HW1  542   0.757   0.996   2.450 -0.3275 -0.4820  0.7181
  181SOL    HW2  543   0.734   1.006   2.616 -1.7206 -0.1356  0.1504
  182SOL     OW  544   2.885   0.989   2.412  0.1535 -0.0477  0.6871
  182SOL    HW1  545   2.809   0.995   2.478  0.5102 -0.6838  0.6391
  182SOL    HW2  546   2.970   0.957   2.454 -2.1828  2.9915 -2.3636
  183SOL     OW  547   1.443   0.820   2.269 -0.3202 -0.2625  0.0658
  183SOL    HW1  548   1.470   0.727   2.227 -0.7419 -0.5278 -0.1515
  183SOL    HW2  549   1.373   0.864   2.208  1.0271  0.6019  0.9956
  184SOL     OW  550   0.372   0.511   1.768 -0.3320 -0.6108  0.3915
  184SOL    HW1  551   0.458   0.551   1.806  0.3051  0.6123 -0.1124
  184SOL    HW2  552   0.289   0.538   1.818  3.6929 -2.1786 -2.7223
  185SOL     OW  553   1.984   1.877   0.835 -0.6215  0.3933 -0.7234
  185SOL    HW1  554   2.049   1.931   0.778 -1.8214  0.5933  2.3023
  185SOL    HW2  555   2.028   1.836   0.919 -0.0039 -0.0786 -0.2687
  186SOL     OW  556   0.193   2.006   0.290 -0.0276  0.3176 -0.0119
  186SOL    HW1  557   0.279   1.958   0.257 -0.6319 -1.9877  1.2021
  186SOL    HW2  558   0.115   1.944   0.305 -1.1199  3.4241  4.2482
  187SOL     OW  559   1.924   2.057   0.274  0.1433  0.1566 -0.6031
  187SOL    HW1  560   2.019   2.042   0.318  1.5634 -2.1219  1.0467
  187SOL    HW2  561   1.929   2.113   0.189 -0.1151 -1.8325  2.5933
  188SOL     OW  562   0.829   2.216   0.969  0.2302  0.6432 -0.3193
  188SOL    HW1  563   0.859   2.137   1.028  1.4939  1.5434  0.3250
  188SOL    HW2  564   0.884   2.295   0.997 -2.6655  0.5506 -1.2150
  189SOL     OW  565   1.913   1.269   2.704  0.2480  0.1621  0.5151
  189SOL    HW1  566   1.912   1.246   2.804 -1.9121 -1.7123 -0.5502
  189SOL    HW2  567   1.814   1.283   2.669 -1.3991  0.2646 -3.2694
  190SOL     OW  568   1.059   2.211   2.160  0.0191  0.0382 -0.2155
  190SOL    HW1  569   0.987   2.246   2.223  0.7569  1.1296 -0.4949
  190SOL    HW2  570   1.108   2.288   2.120  1.3094  1.7485  0.5127
  191SOL     OW  571   2.278   0.599   1.397  0.1620 -0.1350 -0.3620
  191SOL    HW1  572   2.238   0.583   1.488  0.4626 -0.6691  3.8575
  191SOL    HW2  573   2.364   0.552   1.400 -3.3188 -0.5447  0.6974
  192SOL     OW  574   2.625   0.441   1.850  0.2516  0.5744  0.4526
  192SOL    HW1  575   2.557   0.509   1.815 -0.0677  0.8908  0.4679
  192SOL    HW2  576   2.669   0.465   1.939  0.1200 -0.2138 -1.4673
  193SOL     OW  577   0.810   0.086   0.643  0.0712 -0.0242  0.0751
  193SOL    HW1  578   0.810   0.071   0.545  1.3045  2.2927  0.7306
  193SOL    HW2  579   0.788   0.004   0.700 -0.3606 -1.1906 -0.3242
  194SOL     OW  580   1.357   2.421   1.788  0.5065 -0.0062  0.0070
  194SOL    HW1  581   1.407   2.398   1.708 -0.4528  2.6272 -0.4019
  194SOL    HW2  582   1.307   2.509   1.770 -0.7613  0.7799 -1.6971
  195SOL     OW  583   2.687   1.032   0.773  0.2043 -0.6200  0.1594
  195SOL    HW1  584   2.620   1.112   0.768  0.1704 -1.5943 -1.1401
  195SOL    HW2  585   2.634   0.951   0.746  2.7482 -1.1708 -1.0101
  196SOL     OW  586   1.271   2.164   1.784  0.2352 -0.0714  0.1571
  196SOL    HW1  587   1.292   2.265   1.761 -1.3805 -1.5160  1.6885
  196SOL    HW2  588   1.181   2.165   1.840 -1.7147  2.1334  0.0689
  197SOL     OW  589   0.312   0.667   2.451  0.1453 -0.3539  0.1406
  197SOL    HW1  590   0.246   0.716   2.384  0.1246  2.0462 -0.4842
  197SOL    HW2  591   0.319   0.567   2.420  1.1438  2.0931  1.8030
  198SOL     OW  592   1.393   0.832   0.090 -0.7077 -0.1691 -0.2931
  198SOL    HW1  593   1.309   0.781   0.120 -1.4015  1.9971 -0.0910
  198SOL    HW2  594   1.376   0.935   0.091 -2.0925 -3.1069 -0.0277
  199SOL     OW  595   2.669   0.560   2.095 -0.1879  0.7002 -0.0113
  199SOL    HW1  596   2.706   0.511   2.182  1.1336 -2.6231  3.3239
  199SOL    HW2  597   2.590   0.615   2.114 -1.6229 -0.2897 -3.6732
  200SOL     OW  598   2.286   2.474   2.461  0.1625 -0.0076 -0.0571
  200SOL    HW1  599   2.309   2.546   2.526 -1.2881 -2.3571  1.7085
  200SOL    HW2  600   2.186   2.479   2.440  1.9273 -1.8701  0.1176
  201SOL     OW  601   2.391   0.148   1.405  0.5159 -0.1689  0.6817
  201SOL    HW1  602   2.371   0.191   1.497 -1.0666 -0.6449 -0.3923
  201SOL    HW2  603   2.379   0.049   1.406 -0.8446  0.0777  1.4842
  202SOL     OW  604   0.109   2.820   0.349  0.1731 -0.3320 -0.6251
  202SOL    HW1  605   0.019   2.866   0.338  1.3397 -0.2571  1.6575
  202SOL    HW2  606   0.179   2.882   0.394  0.4033  0.8598  1.8758
  203SOL     OW  607   1.086   2.023   2.767  0.3537 -0.5980  0.1493
  203SOL    HW1  608   1.010   2.088   2.742 -0.5203  0.6546  1.9783
  203SOL    HW2  609   1.091   1.930   2.729 -1.0259 -0.7000  0.2518
  204SOL     OW  610   0.548   1.928   2.488 -0.6377  0.4990 -0.5347
  204SOL    HW1  611   0.636   1.980   2.482  3.1297  0.6480 -2.0393
  204SOL    HW2  612   0.511   1.921   2.584  1.8696  1.2480 -0.0255
  205SOL     OW  613   0.900   0.965   1.092  0.0847 -0.1836  0.1685
  205SOL    HW1  614   0.848   0.879   1.093  1.0104  0.5353  0.3368
  205SOL    HW2  615   0.964   0.967   1.172 -0.1540 -1.1047 -0.1480
  206SOL     OW  616   0.199   0.660   2.715 -0.4070 -0.2202  0.4526
  206SOL    HW1  617   0.100   0.654   2.694  0.2719 -0.4319 -0.3038
  206SOL    HW2  618   0.250   0.657   2.627 -0.7428 -0.3506 -2.5335
  207SOL     OW  619   1.896   2.179   2.147  0.4931 -0.7480 -0.1993
  207SOL    HW1  620   1.986   2.153   2.107 -0.5607 -2.1499  0.4061
  207SOL    HW2  621   1.828   2.186   2.072  2.9756  0.9275 -0.2374
  208SOL     OW  622   0.928   2.739   1.313  0.1148 -0.2224  0.2677
  208SOL    HW1  623   0.854   2.705   1.251 -1.8226  1.2693  0.3535
  208SOL    HW2  624   0.920   2.840   1.321 -1.3383 -4.1603  1.5230
  209SOL     OW  625   1.269   1.497   3.094 -0.7702 -0.4066 -0.0916
  209SOL    HW1  626   1.265   1.539   0.075 -0.7588  2.0806  1.0141
  209SOL    HW2  627   1.362   1.462   3.074 -1.9763 -0.7750  0.3269
  210SOL     OW  628   2.373   0.543   0.964  0.3710 -0.3883 -0.2278
  210SOL    HW1  629   2.463   0.518   0.917 -1.4192 -1.4617 -0.0051
  210SOL    HW2  630   2.321   0.612   0.913 -0.5757 -1.3455  0.2810
  211SOL     OW  631   1.419   2.673   0.232  0.0279  0.1093 -0.0271
  211SOL    HW1  632   1.337   2.720   0.282 -3.2165  0.8936  2.4030
  211SOL    HW2  633   1.485   2.633   0.303 -2.2492  0.7831  1.3072
  212SOL     OW  634   2.038   2.259   0.875 -0.3441  0.4148 -0.0719
  212SOL    HW1  635   2.132   2.294   0.885 -1.8186  2.5626  0.1685
  212SOL    HW2  636   2.005   2.223   0.967 -0.6059  0.7830  0.0940
  213SOL     OW  637   1.665   0.765   2.906  0.0572  0.0384 -0.0710
  213SOL    HW1  638   1.679   0.716   2.994  0.1814 -1.7977  2.3334
  213SOL    HW2  639   1.713   0.854   2.915 -0.4309  1.1712  1.8619
  214SOL     OW  640   0.788   1.761   1.758 -0.3358 -0.1028 -0.1081
  214SOL    HW1  641   0.872   1.783   1.813  1.0309 -2.8718  0.6936
  214SOL    HW2  642   0.758   1.835   1.696  0.2795 -0.2824  0.7015
  215SOL     OW  643   0.058   1.387   0.377 -0.3073 -0.0063  0.2910
  215SOL    HW1  644   0.149   1.408   0.338 -1.5856 -1.0394  2.4559
  215SOL    HW2  645   0.070   1.363   0.476  0.5700  1.2449  0.5487
  216SOL     OW  646   0.209   2.784   2.434  0.2972  0.1330 -0.0786
  216SOL    HW1  647   0.307   2.769   2.416 -1.2803 -1.2995  1.0976
  216SOL    HW2  648   0.181   2.741   2.523  0.0968  2.3145 -0.8012
  217SOL     OW  649   2.571   1.245   1.362  0.4895  0.1447 -0.0300
  217SOL    HW1  650   2.542   1.201   1.452  0.9659 -0.4668  0.8417
  217SOL    HW2  651   2.667   1.276   1.362  0.9378 -1.7006 -0.3736
  218SOL     OW  652   1.238   1.782   2.129 -0.5089 -0.2469 -0.1893
  218SOL    HW1  653   1.323   1.761   2.079  1.5085 -1.6124 -0.3107
  218SOL    HW2  654   1.195   1.701   2.161  2.4589  2.6616 -0.9429
  219SOL     OW  655   2.141   1.489   0.327  0.3853  0.0627  0.5178
  219SOL    HW1  656   2.223   1.452   0.286 -0.8649  0.8538 -1.5140
  219SOL    HW2  657   2.062   1.426   0.341 -1.1524  1.2932  3.2310
  220SOL     OW  658   2.083   1.006   0.298 -0.3273  0.0011 -0.6182
  220SOL    HW1  659   2.177   1.033   0.275 -2.1112 -0.5115 -1.3526
  220SOL    HW2  660   2.077   0.933   0.373 -1.3864  0.4828 -0.5913
  221SOL     OW  661   0.157   0.382   0.142  0.1439  0.0886  0.3395
  221SOL    HW1  662   0.239   0.436   0.116 -0.9421  0.9154  0.1514
  221SOL    HW2  663   0.159   0.294   0.095  0.6228  0.2518 -3.3789
  222SOL     OW  664   1.329   1.479   0.677  0.3412 -0.5615  0.4477
  222SOL    HW1  665   1.392   1.558   0.656  0.0681 -0.0276 -3.7810
  222SOL    HW2  666   1.239   1.529   0.688 -1.5477 -0.4644  1.6782
  223SOL     OW  667   0.889   0.281   3.031 -0.1006 -0.7828 -0.2097
  223SOL    HW1  668   0.936   0.201   3.069 -1.2094  0.7356  2.4639
  223SOL    HW2  669   0.902   0.287   2.930  0.4548 -0.0018  2.6238
  224SOL     OW  670   1.775   0.104   1.299 -0.1608 -0.0308 -0.5498
  224SOL    HW1  671   1.734   0.018   1.330  1.5034  1.4689 -2.8703
  224SOL    HW2  672   1.797   0.094   1.202 -2.4447 -2.5091  0.9550
  225SOL     OW  673   0.509   2.527   1.390  0.0961  0.3004  0.1231
  225SOL    HW1  674   0.539   2.433   1.361  1.3768 -0.1870  0.1273
  225SOL    HW2  675   0.436   2.524   1.463 -1.4367  2.1167 -0.3280
  226SOL     OW  676   0.903   1.723   0.102 -0.2243 -0.0032  0.5920
  226SOL    HW1  677   0.906   1.646   0.168 -0.0958  0.8255 -1.1053
  226SOL    HW2  678   0.992   1.772   0.102  2.4960 -0.5743  1.6208
  227SOL     OW  679   0.922   1.670   0.967  0.6403  0.1952 -0.6770
  227SOL    HW1  680   0.850   1.722   0.918 -2.5352  1.7412 -0.0677
  227SOL    HW2  681   0.877   1.611   1.037  2.5472  1.3390 -2.5780
  228SOL     OW  682   0.277   1.721   0.454  0.1546  0.4157 -0.0294
  228SOL    HW1  683   0.210   1.791   0.429 -0.0305  1.1052  0.1775
  228SOL    HW2  684   0.267   1.640   0.393  0.3933  2.4999  0.9833
  229SOL     OW  685   2.329   0.373   2.753 -0.1639  0.0200 -0.6289
  229SOL    HW1  686   2.255   0.304   2.751  2.2933 -0.9080 -3.2764
  229SOL    HW2  687   2.368   0.386   2.847  4.5517  1.1531  0.6689
  230SOL     OW  688   1.759   1.278   0.510  0.0679  0.0028  0.2369
  230SOL    HW1  689   1.756   1.359   0.572 -0.0296 -2.9272  1.5314
  230SOL    HW2  690   1.672   1.219   0.519 -1.4530 -3.6154 -0.3143
  231SOL     OW  691   1.272   1.451   2.443  0.1741  0.3817 -0.2267
  231SOL    HW1  692   1.368   1.466   2.468 -3.3439  0.2329 -3.2356
  231SOL    HW2  693   1.253   1.357   2.403  0.6793 -3.4627 -2.4508
  232SOL     OW  694   2.557   2.224   0.703 -0.3667  0.0920 -0.4677
  232SOL    HW1  695   2.620   2.237   0.783 -0.0816  1.9459  0.3396
  232SOL    HW2  696   2.517   2.131   0.717 -3.5183 -0.4404  0.0437
  233SOL     OW  697   0.423   2.441   0.676 -0.1934 -0.4472 -0.3344
  233SOL    HW1  698   0.514   2.448   0.629  1.7848 -0.0203 -1.8686
  233SOL    HW2  699   0.351   2.489   0.624 -0.2459  4.2520  0.3765
  234SOL     OW  700   0.629   0.682   2.740 -0.2979 -0.1559 -0.0073
  234SOL    HW1  701   0.585   0.729   2.661  0.3580  0.6214 -0.3315
  234SOL    HW2  702   0.635   0.742   2.824 -2.2864 -0.7190  0.9769
  235SOL     OW  703   2.715   0.402   2.316 -0.3705 -0.3150 -0.1619
  235SOL    HW1  704   2.681   0.307   2.307 -0.3562 -0.3788 -1.5474
  235SOL    HW2  705   2.810   0.401   2.360  1.0801  1.4820 -1.0714
  236SOL     OW  706   1.742   2.777   1.295  0.0925  0.4761  0.0130
  236SOL    HW1  707   1.795   2.759   1.210 -1.8274  1.6827  0.5754
  236SOL    HW2  708   1.696   2.689   1.318 -0.0206 -0.2165 -0.5912
  237SOL     OW  709   0.913   1.892   2.235 -0.0149 -0.1870 -0.2499
  237SOL    HW1  710   0.868   1.977   2.247  0.7749 -2.4434  2.1056
  237SOL    HW2  711   0.973   1.872   2.315 -0.1656  4.5543 -1.0888
  238SOL     OW  712   1.137   0.266   2.368 -0.1998 -0.1829  0.1488
  238SOL    HW1  713   1.178   0.325   2.443 -0.3716  2.2248  0.3144
  238SOL    HW2  714   1.148   0.166   2.391 -0.9404 -1.4677  2.2820
  239SOL     OW  715   0.511   2.342   2.164  0.2936  0.3913 -0.3112
  239SOL    HW1  716   0.565   2.286   2.099  2.1144 -0.2991  0.7886
  239SOL    HW2  717   0.424   2.360   2.111 -0.4209  1.5905  0.1067
  240SOL     OW  718   2.482   2.853   0.454 -0.3080 -0.0397 -0.4926
  240SOL    HW1  719   2.508   2.830   0.553  0.0285 -0.3323  0.6255
  240SOL    HW2  720   2.394   2.800   0.427 -2.4366 -0.5413  2.4959
  241SOL     OW  721   2.549   1.290   0.742 -0.3440  0.1332  0.1508
  241SOL    HW1  722   2.490   1.357   0.796 -1.4902  3.5581  0.0715
  241SOL    HW2  723   2.494   1.248   0.664 -0.3661 -1.3755  1.6595
  242SOL     OW  724   2.049   2.503   1.855  0.6601  0.0491  0.5986
  242SOL    HW1  725   2.148   2.490   1.879 -0.6462  0.0826  2.0266
  242SOL    HW2  726   1.991   2.535   1.934 -2.1444  0.8021 -0.6090
  243SOL     OW  727   0.980   2.687   1.567 -0.8146  0.4540 -0.0834
  243SOL    HW1  728   0.960   2.678   1.466 -1.0307  2.3212 -1.3347
  243SOL    HW2  729   0.929   2.769   1.605 -1.9451  0.2437 -2.4144
  244SOL     OW  730   2.096   0.587   2.886 -0.2535 -0.0487 -0.1593
  244SOL    HW1  731   2.023   0.579   2.819  0.4771 -0.7515 -0.2116
  244SOL    HW2  732   2.179   0.621   2.841 -2.4231 -0.3862 -0.5992
  245SOL     OW  733   1.518   0.508   1.306  0.0082 -0.2526  0.6850
  245SOL    HW1  734   1.532   0.589   1.245 -0.0110 -2.6392  1.6263
  245SOL    HW2  735   1.447   0.443   1.267 -3.5481  0.0846 -0.5672
  246SOL     OW  736   1.780   2.518   3.082  0.2633 -0.6226 -0.5445
  246SOL    HW1  737   1.768   2.443   3.009  0.2869  0.6109 -0.9110
  246SOL    HW2  738   1.792   2.613   3.053 -0.8197 -2.3890 -0.3051
  247SOL     OW  739   0.970   0.943   2.469  0.6968 -0.4625  0.4211
  247SOL    HW1  740   1.007   0.887   2.539  0.1299 -0.7263 -3.0945
  247SOL    HW2  741   0.991   1.042   2.481  0.8704  1.6542 -0.3079
  248SOL     OW  742   0.472   2.058   1.790  0.6564  0.1113 -0.0559
  248SOL    HW1  743   0.463   2.065   1.893 -2.6381  0.2466  1.6306
  248SOL    HW2  744   0.571   2.060   1.764  2.3778 -1.3151  1.9723
  249SOL     OW  745   2.591   0.318   0.459 -0.2733 -0.3759  0.1018
  249SOL    HW1  746   2.538   0.325   0.372  2.8286 -0.3089  0.4528
  249SOL    HW2  747   2.586   0.223   0.495 -1.4328  1.0563  0.0034
  250SOL     OW  748   2.807   0.334   2.835  0.2719  0.5025 -0.1684
  250SOL    HW1  749   2.808   0.425   2.875 -2.0688 -1.5613 -1.6134
  250SOL    HW2  750   2.888   0.318   2.779 -1.8827  0.2127 -0.2159
  251SOL     OW  751   1.399   0.851   2.921 -0.6081  0.0701 -0.4564
  251SOL    HW1  752   1.408   0.889   3.017 -1.4899  1.2308  0.5147
  251SOL    HW2  753   1.486   0.809   2.892 -2.1711 -2.6812 -0.3981
  252SOL     OW  754   1.432   2.049   1.962  0.3636  0.0402 -0.0329
  252SOL    HW1  755   1.377   2.076   1.882  3.0860  1.2992  2.5739
  252SOL    HW2  756   1.380   2.076   2.042 -2.0744  1.1122 -3.0790
  253SOL     OW  757   2.340   2.590   0.907 -0.3166  0.2702  0.0463
  253SOL    HW1  758   2.393   2.682   0.900 -2.7540 -1.5397  1.6493
  253SOL    HW2  759   2.354   2.541   0.992  1.4623  0.4468 -0.9452
  254SOL     OW  760   2.199   1.257   0.566 -0.0005  0.4398 -0.7342
  254SOL    HW1  761   2.133   1.259   0.495 -0.6120  0.4699  3.1475
  254SOL    HW2  762   2.154   1.235   0.657 -1.7122 -1.6294  0.7884
  255SOL     OW  763   1.469   0.079   1.183  0.1488  0.8054 -0.2239
  255SOL    HW1  764   1.380   0.023   1.186 -1.8520 -3.4042  1.0905
  255SOL    HW2  765   1.534   0.033   1.241 -2.2916 -2.3404 -0.4862
  256SOL     OW  766   1.682   2.622   1.566  0.1053 -0.1831  0.2364
  256SOL    HW1  767   1.598   2.565   1.555  0.2280  1.3033 -0.0071
  256SOL    HW2  768   1.665   2.689   1.638 -0.0876 -0.3449  0.2985
  257SOL     OW  769   0.644   2.841   2.550 -0.2761  0.2989 -0.3553
  257SOL    HW1  770   0.671   2.858   2.455 -0.1735 -0.4345  1.0546
  257SOL    HW2  771   0.721   2.806   2.608  0.0377  1.8808  1.6549
  258SOL     OW  772   1.111   2.514   0.355 -0.7605  0.0694  0.0015
  258SOL    HW1  773   1.034   2.495   0.295  1.2504  0.4239  2.4352
  258SOL    HW2  774   1.159   2.432   0.385  0.5434  0.2199  0.2696
  259SOL     OW  775   1.526   0.180   2.860  0.6452 -0.1470  0.0788
  259SOL    HW1  776   1.574   0.168   2.951  0.2910 -4.0652  0.6717
  259SOL    HW2  777   1.551   0.255   2.805 -2.1329 -2.6971  1.5281
  260SOL     OW  778   2.513   0.432   1.384 -0.7934  0.6189 -0.0376
  260SOL    HW1  779   2.621   0.436   1.384  3.4299  2.3390  1.0877
  260SOL    HW2  780   2.492   0.344   1.424  3.7429  3.0615 -4.0072
  261SOL     OW  781   0.842   0.568   2.631 -0.2697 -0.7071  0.2207
  261SOL    HW1  782   0.772   0.597   2.698 -2.6106 -1.9551 -0.1293
  261SOL    HW2  783   0.812   0.589   2.534 -1.5134  2.4686  0.3483
  262SOL     OW  784   1.139   2.392   2.441  0.4465 -0.5167 -0.3713
  262SOL    HW1  785   1.051   2.342   2.432  0.9278  0.8833 -2.6740
  262SOL    HW2  786   1.140   2.465   2.369 -1.7416  1.1099 -1.5565
  263SOL     OW  787   0.172   1.983   2.915 -0.1610 -0.3994  0.1249
  263SOL    HW1  788   0.182   2.085   2.891  1.8867  1.9333  0.0998
  263SOL    HW2  789   0.075   1.957   2.910 -0.7347 -0.5182  0.5876
  264SOL     OW  790   1.113   1.616   0.754 -0.3215  0.0863  0.4204
  264SOL    HW1  791   1.055   1.645   0.833 -0.8926  2.0467  0.6775
  264SOL    HW2  792   1.082   1.654   0.666  0.8414 -0.4924  2.7667
  265SOL     OW  793   1.213   2.277   0.478 -0.0709  0.4096  1.1607
  265SOL    HW1  794   1.252   2.208   0.409  3.8262 -2.6652  0.4860
  265SOL    HW2  795   1.285   2.322   0.538  1.1222 -2.1860  1.3111
  266SOL     OW  796   1.927   0.764   1.020 -0.4180 -0.4854  0.3652
  266SOL    HW1  797   1.918   0.667   1.050 -0.6695  0.3066 -1.8171
  266SOL    HW2  798   2.021   0.800   1.030  1.4134  0.5712 -0.3343
  267SOL     OW  799   2.858   1.157   2.692  0.4616  0.5051 -0.2477
  267SOL    HW1  800   2.864   1.215   2.609  0.4319 -0.1359 -1.3829
  267SOL    HW2  801   2.767   1.118   2.718  2.8288  1.9154 -0.3145
  268SOL     OW  802   1.416   3.086   0.137 -0.1339 -0.2353  0.0294
  268SOL    HW1  803   1.446   3.068   0.235  0.7282  1.7787 -0.3989
  268SOL    HW2  804   1.356   0.056   0.123 -0.2444 -0.8458  1.6229
  269SOL     OW  805   2.732   0.634   2.589 -0.1613  0.0398 -0.0286
  269SOL    HW1  806   2.693   0.541   2.583  1.0438  1.4785  1.2399
  269SOL    HW2  807   2.764   0.668   2.499 -2.0508 -0.3907 -0.6545
  270SOL     OW  808   3.004   1.479   0.082 -0.0905 -0.4524 -0.2166
  270SOL    HW1  809   3.019   1.401   0.142 -3.4221  1.5992 -2.7795
  270SOL    HW2  810   3.088   1.540   0.068 -0.2357  0.3310  0.3556
  271SOL     OW  811   2.596   1.082   2.790  0.1842  0.0005  0.9406
  271SOL    HW1  812   2.538   1.167   2.775 -0.9904 -2.5316 -1.3413
  271SOL    HW2  813   2.571   1.037   2.873 -1.2363 -2.2351 -1.6865
  272SOL     OW  814   2.794   2.483   2.372  0.0747 -0.1155  0.6541
  272SOL    HW1  815   2.891   2.453   2.392  1.2818 -0.3016  1.7536
  272SOL    HW2  816   2.743   2.410   2.320 -1.0941  1.9699 -0.5334
  273SOL     OW  817   0.247   2.738   0.648 -0.2264 -0.1875  0.0904
  273SOL    HW1  818   0.339   2.753   0.689  0.1616 -1.2354  2.6402
  273SOL    HW2  819   0.262   2.687   0.561  1.4789 -3.1526 -1.0699
  274SOL     OW  820   0.754   2.209   0.711  0.2418 -0.4583  0.2195
  274SOL    HW1  821   0.833   2.193   0.651 -2.3261 -0.5887  0.9691
  274SOL    HW2  822   0.789   2.211   0.808  1.4138  0.2574 -0.7266
  275SOL     OW  823   2.479   1.406   0.466  0.1564  0.0961  0.4273
  275SOL    HW1  824   2.409   1.361   0.527 -1.9584  0.0811  1.1131
  275SOL    HW2  825   2.457   1.397   0.365 -3.2371  0.2751  0.3950
  276SOL     OW  826   2.635   1.562   1.222 -0.2045  0.4301  0.4015
  276SOL    HW1  827   2.672   1.594   1.313 -0.6276  4.3990  0.3709
  276SOL    HW2  828   2.546   1.521   1.237  2.9150  0.7284 -0.4846
  277SOL     OW  829   2.844   0.019   0.737  0.1917  0.3175  0.4169
  277SOL    HW1  830   2.747   0.024   0.767  0.4595 -3.3803 -0.2198
  277SOL    HW2  831   2.892   3.053   0.783  3.3516 -3.6529  0.9724
  278SOL     OW  832   1.621   0.218   2.493 -0.1970  0.0048 -0.1282
  278SOL    HW1  833   1.527   0.181   2.508  0.9598  0.8534  1.4755
  278SOL    HW2  834   1.668   0.169   2.418 -2.5447 -0.7272  0.2120
  279SOL     OW  835   1.474   2.857   1.048  0.5497  0.2595  0.0961
  279SOL    HW1  836   1.571   2.885   1.076  0.5837  1.2272  1.4224
  279SOL    HW2  837   1.458   2.877   0.948  1.5150 -1.3946 -0.2078
  280SOL     OW  838   0.803   0.975   0.609  0.2249 -0.8407 -0.1586
  280SOL    HW1  839   0.850   1.024   0.687  0.2181  0.5746 -1.7758
  280SOL    HW2  840   0.784   1.039   0.531 -0.1178 -0.4671  2.7182
  281SOL     OW  841   2.483   1.307   2.749  0.0624  0.0127 -0.3974
  281SOL    HW1  842   2.542   1.388   2.780  1.4914  1.8600  1.6322
  281SOL    HW2  843   2.461   1.314   2.652  0.6480  2.8873  0.4382
  282SOL     OW  844   3.013   1.219   0.235  0.3420 -0.6159 -0.4717
  282SOL    HW1  845   2.940   1.184   0.299  0.1770 -2.6923  0.6778
  282SOL    HW2  846   3.099   1.247   0.283  0.7800  0.0889 -1.1777
  283SOL     OW  847   1.855   2.675   2.623 -0.4322  0.7391 -0.2616
  283SOL    HW1  848   1.845   2.732   2.541  2.4589  2.8928 -1.0896
  283SOL    HW2  849   1.790   2.601   2.622 -1.3700 -0.6857  0.1373
  284SOL     OW  850   0.937   3.079   0.054  0.5520 -0.5852 -0.4582
  284SOL    HW1  851   0.992   3.008   0.105  0.1111 -2.8776 -0.3840
  284SOL    HW2  852   0.838   3.065   0.061  1.0430  1.7658 -0.8110
  285SOL     OW  853   2.353   1.600   2.552  0.1114  0.3509  0.2142
  285SOL    HW1  854   2.354   1.503   2.588 -0.7815  0.7732  2.8891
  285SOL    HW2  855   2.303   1.650   2.624 -0.1691 -2.8056  0.8349
  286SOL     OW  856   1.327   2.187   0.792 -0.0075 -0.5194  0.2994
  286SOL    HW1  857   1.293   2.093   0.782  0.3752  4.3074  0.2016
  286SOL    HW2  858   1.407   2.190   0.856 -1.3154  1.7054  0.7536
  287SOL     OW  859   1.773   0.301   0.986  0.3176  0.5794 -0.0059
  287SOL    HW1  860   1.839   0.366   1.034  1.4635  0.6038  1.7780
  287SOL    HW2  861   1.815   0.206   0.985  0.8219  0.1692  0.7882
  288SOL     OW  862   0.840   2.834   2.325 -0.3172  0.3019  0.0349
  288SOL    HW1  863   0.941   2.830   2.353  2.3740 -1.1622 -2.7566
  288SOL    HW2  864   0.822   2.752   2.267  1.4140 -1.8784  0.0773
  289SOL     OW  865   0.097   1.325   0.636 -0.1775  0.0859  0.1679
  289SOL    HW1  866   0.107   1.371   0.730 -0.1675  0.2257 -1.1248
  289SOL    HW2  867   0.061   1.232   0.645 -0.3657 -1.8128 -1.6754
  290SOL     OW  868   1.125   2.155   1.005  0.1678 -0.1883 -1.0924
  290SOL    HW1  869   1.199   2.182   0.938 -1.6422  0.6802  1.9469
  290SOL    HW2  870   1.106   2.054   0.995  0.9669 -0.4221 -1.1720
  291SOL     OW  871   1.685   2.825   0.478 -0.5472  0.0828 -0.1224
  291SOL    HW1  872   1.654   2.726   0.470  1.4555 -1.5594 -0.6152
  291SOL    HW2  873   1.788   2.838   0.492  5.4199  2.3632  0.9137
  292SOL     OW  874   0.658   0.114   2.269 -0.1257 -0.4731 -0.1227
  292SOL    HW1  875   0.728   0.182   2.301  1.7689  0.1009  0.0922
  292SOL    HW2  876   0.577   0.127   2.328 -0.6772  0.5131  0.2211
  293SOL     OW  877   2.425   1.983   0.800  0.1807  0.1795 -0.5543
  293SOL    HW1  878   2.418   1.884   0.772  0.4973  1.6073  0.6063
  293SOL    HW2  879   2.421   1.994   0.900 -0.6331 -0.1680  2.0745
  294SOL     OW  880   0.843   0.130   2.065 -0.9652  0.1861  0.1426
  294SOL    HW1  881   0.910   0.048   2.070  0.3996 -2.5620  0.4687
  294SOL    HW2  882   0.766   0.119   2.134 -1.2518 -1.1127  0.0650
  295SOL     OW  883   1.350   1.510   1.023 -0.4373 -0.2302 -0.6802
  295SOL    HW1  884   1.429   1.449   1.050  1.8202  0.1761  0.7584
  295SOL    HW2  885   1.269   1.453   1.004 -1.2580 -0.0699  0.0366
  296SOL     OW  886   2.156   2.045   0.722  0.1016 -0.4316 -0.6217
  296SOL    HW1  887   2.252   2.018   0.759  1.1553  2.1623  2.3571
  296SOL    HW2  888   2.121   2.130   0.765 -1.0390 -1.9640 -1.0629
  297SOL     OW  889   2.476   0.059   3.002  0.6937 -0.5470  0.2047
  297SOL    HW1  890   2.403   0.025   2.943  2.2554 -0.7163  0.0769
  297SOL    HW2  891   2.484   3.106   3.077  0.7287 -0.5128 -1.7497
  298SOL     OW  892   1.262   0.344   2.650 -0.5049 -0.4590  0.1494
  298SOL    HW1  893   1.164   0.330   2.671  1.0396 -2.2731  0.6025
  298SOL    HW2  894   1.309   0.261   2.621  0.8685  5.1653  0.1953
  299SOL     OW  895   1.243   2.869   1.890  0.0050  0.0522  0.3292
  299SOL    HW1  896   1.247   2.911   1.796 -3.9451 -4.0478  1.5358
  299SOL    HW2  897   1.280   2.929   1.963  1.1982  1.6404  3.5183
  300SOL     OW  898   2.609   2.991   2.045  0.1383 -0.1564 -0.3515
  300SOL    HW1  899   2.667   2.993   2.131  1.4553  0.8646  0.9964
  300SOL    HW2  900   2.610   3.084   2.001 -3.0960 -0.0881  2.1845
  301SOL     OW  901   2.111   0.372   2.070 -0.1057 -0.8704  0.6321
  301SOL    HW1  902   2.111   0.288   2.124 -0.6528  2.5038 -1.5902
  301SOL    HW2  903   2.102   0.354   1.968 -0.8141  0.5163 -0.1466
  302SOL     OW  904   0.262   2.469   0.010 -0.2147  0.1629  0.2747
  302SOL    HW1  905   0.216   2.399   3.067  2.4690  1.3597 -0.3945
  302SOL    HW2  906   0.199   2.530   0.064  2.1387 -1.3068 -1.2917
  303SOL     OW  907   1.742   2.318   1.458 -0.8579  0.5130  0.0996
  303SOL    HW1  908   1.741   2.231   1.407  2.8205  0.6499  0.3453
  303SOL    HW2  909   1.802   2.314   1.541 -1.5734 -1.3545 -0.7259
  304SOL     OW  910   2.902   0.954   1.386 -0.0349 -0.1385  0.4736
  304SOL    HW1  911   2.835   0.879   1.405 -0.1561  0.0416 -0.7351
  304SOL    HW2  912   2.857   1.029   1.336 -2.2060  1.3052 -0.1922
  305SOL     OW  913   0.573   0.883   0.731  0.3048 -0.4133  0.1408
  305SOL    HW1  914   0.604   0.812   0.789 -5.1450  0.5241 -2.8661
  305SOL    HW2  915   0.653   0.942   0.712  1.1170 -2.5750  0.9872
  306SOL     OW  916   0.198   1.132   2.848  0.2913 -0.5108 -0.8727
  306SOL    HW1  917   0.273   1.057   2.843  2.0593 -3.7522  1.3701
  306SOL    HW2  918   0.113   1.087   2.878 -0.7570 -0.4686  2.6831
  307SOL     OW  919   1.286   0.360   1.492 -0.2191  0.3877  0.4545
  307SOL    HW1  920   1.378   0.403   1.511  0.0308  1.9224 -0.0834
  307SOL    HW2  921   1.268   0.275   1.543  2.4200 -0.2097 -2.0329
  308SOL     OW  922   0.483   0.929   1.172 -0.1051  0.2071  0.2482
  308SOL    HW1  923   0.400   0.918   1.111 -1.2497 -1.4401 -0.8802
  308SOL    HW2  924   0.519   0.841   1.197  0.2923 -0.8492  1.7507
  309SOL     OW  925   2.419   0.860   1.050  0.8411 -0.4151 -0.0948
  309SOL    HW1  926   2.456   0.781   1.099 -1.5455  1.8699 -2.1510
  309SOL    HW2  927   2.462   0.880   0.957  0.4302  0.0473  0.4966
  310SOL     OW  928   0.720   1.642   3.015 -0.2770 -0.0922  0.1462
  310SOL    HW1  929   0.766   1.690   3.094  0.8198  0.6796  2.3657
  310SOL    HW2  930   0.648   1.577   3.048 -0.1836  0.0753 -0.5529
  311SOL     OW  931   2.418   2.701   2.586  0.6853  0.8078 -0.4488
  311SOL    HW1  932   2.490   2.671   2.517 -0.7451  1.1465 -1.9527
  311SOL    HW2  933   2.455   2.771   2.649 -1.4450  2.1790 -0.1131
  312SOL     OW  934   1.982   2.150   3.114 -0.4353  0.3570  0.2813
  312SOL    HW1  935   2.021   2.116   3.021  1.1776 -1.3221 -3.6204
  312SOL    HW2  936   2.013   2.242   0.020  0.2171 -1.5965  1.5942
  313SOL     OW  937   0.677   0.015   0.112  0.0935 -0.1109  0.5048
  313SOL    HW1  938   0.605   3.074   0.153  1.6440 -0.6071  1.2213
  313SOL    HW2  939   0.646   0.108   0.098 -0.6051  0.6240  1.3327
  314SOL     OW  940   2.216   1.282   2.915 -0.0788  0.5224 -0.1780
  314SOL    HW1  941   2.190   1.186   2.926 -2.0588 -1.5562  0.9382
  314SOL    HW2  942   2.247   1.300   2.818  2.7831 -0.3989 -2.9284
  315SOL     OW  943   1.636   0.398   2.693  0.1578 -0.3450  0.5675
  315SOL    HW1  944   1.642   0.338   2.611  2.0017 -0.9120 -2.5407
  315SOL    HW2  945   1.583   0.484   2.663 -2.8295  3.6501 -0.2959
  316SOL     OW  946   3.078   1.087   0.628 -0.1155  0.4465 -0.6462
  316SOL    HW1  947   2.998   1.147   0.656  1.0032  0.3739  0.0484
  316SOL    HW2  948   3.057   0.998   0.582  2.4828  0.6873 -0.7077
  317SOL     OW  949   0.630   2.759   0.021  0.6210 -0.4439 -0.5375
  317SOL    HW1  950   0.563   2.689   3.102  0.0230  1.6906  0.4737
  317SOL    HW2  951   0.646   2.825   3.061 -3.4510  0.1817 -0.1270
  318SOL     OW  952   2.407   2.858   0.977 -0.0219 -0.0611 -0.4352
  318SOL    HW1  953   2.351   2.887   1.054  0.9055 -1.5738 -1.8488
  318SOL    HW2  954   2.505   2.866   1.006  2.3418 -2.7875 -1.5358
  319SOL     OW  955   1.199   1.464   2.715  0.2083 -0.0106  0.1585
  319SOL    HW1  956   1.135   1.545   2.734 -0.7953  2.8008  3.8755
  319SOL    HW2  957   1.213   1.451   2.617  0.8439  0.6775  1.3559
  320SOL     OW  958   0.569   1.871   1.068 -0.0023 -0.3786  0.2334
  320SOL    HW1  959   0.476   1.836   1.059  0.0291 -0.3138 -0.7152
  320SOL    HW2  960   0.573   1.971   1.048 -1.0625  0.7279  0.2214
  321SOL     OW  961   1.406   2.691   2.257  0.2207 -0.6148  0.2594
  321SOL    HW1  962   1.491   2.631   2.267  0.6932 -0.0134 -1.9158
  321SOL    HW2  963   1.425   2.790   2.255 -0.1223  0.1485  1.1454
  322SOL     OW  964   2.259   2.017   2.322 -0.4310  0.3252 -0.2968
  322SOL    HW1  965   2.185   1.950   2.317 -0.2461  2.7608 -1.0371
  322SOL    HW2  966   2.275   2.047   2.417  0.9699 -0.2120 -0.3064
  323SOL     OW  967   2.938   0.292   0.751  0.1291  0.7720 -0.0070
  323SOL    HW1  968   2.891   0.205   0.781 -1.4891 -2.0907  0.3986
  323SOL    HW2  969   2.906   0.331   0.661  1.3266 -1.7557  0.6942
  324SOL     OW  970   2.974   2.723   2.469  0.6711  0.1304 -0.0089
  324SOL    HW1  971   3.067   2.713   2.506 -2.7250 -3.1913 -1.0722
  324SOL    HW2  972   2.937   2.630   2.442 -1.2959  2.6656  0.4379
  325SOL     OW  973   1.041   0.743   2.665  0.0111  0.5091 -0.4422
  325SOL    HW1  974   1.138   0.703   2.671  1.5388 -2.5008 -0.1236
  325SOL    HW2  975   0.982   0.663   2.670  0.4531  0.4065 -2.6598
  326SOL     OW  976   2.448   2.288   1.497 -0.1338 -0.3160 -0.3043
  326SOL    HW1  977   2.469   2.384   1.492  0.4819 -2.0443 -0.1499
  326SOL    HW2  978   2.516   2.232   1.451 -0.3668 -1.1580 -1.5593
  327SOL     OW  979   2.470   3.000   0.116 -0.4216  0.1320 -0.1191
  327SOL    HW1  980   2.391   3.056   0.152 -0.3991 -0.9859  0.1105
  327SOL    HW2  981   2.426   2.904   0.125  0.3584 -0.7721 -0.6193
  328SOL     OW  982   0.218   1.116   1.476 -0.1477 -0.2490 -0.6148
  328SOL    HW1  983   0.220   1.013   1.471 -0.1391 -1.8116  0.4980
  328SOL    HW2  984   0.287   1.155   1.539 -1.5327  0.0072  0.2867
  329SOL     OW  985   2.111   0.627   1.623  0.2003  0.3316 -0.2505
  329SOL    HW1  986   2.124   0.631   1.724 -3.2946 -0.4876 -2.4778
  329SOL    HW2  987   2.025   0.578   1.602 -0.6401 -1.4397 -0.6233
  330SOL     OW  988   0.238   0.966   1.013  0.2903 -0.3929  0.2531
  330SOL    HW1  989   0.288   1.017   0.941 -2.4294  0.4457  2.3459
  330SOL    HW2  990   0.149   0.923   0.972 -1.7888 -2.3651 -0.2327
  331SOL     OW  991   0.424   1.442   1.875 -0.1918 -0.3220  0.0512
  331SOL    HW1  992   0.493   1.466   1.945  1.1231 -1.6228 -1.3977
  331SOL    HW2  993   0.455   1.465   1.783 -1.1388 -2.3631  0.6675
  332SOL     OW  994   0.316   2.524   1.575  0.8116 -0.1809  0.2731
  332SOL    HW1  995   0.220   2.557   1.559  1.5110  3.1855 -0.2620
  332SOL    HW2  996   0.319   2.473   1.660  1.6252  1.3583  1.6518
  333SOL     OW  997   3.011   2.942   0.880  0.2636  0.6144  0.1938
  333SOL    HW1  998   3.087   2.962   0.813 -1.6534  1.1593  1.6166
  333SOL    HW2  999   3.032   2.859   0.935  0.4077  0.6029  1.3107
  334SOL     OW 1000   0.351   1.250   0.649 -0.0526  0.2946  0.2812
  334SOL    HW1 1001   0.269   1.307   0.646  3.5414  0.0344 -1.2157
  334SOL    HW2 1002   0.430   1.309   0.669 -1.6697 -0.5522 -2.4180
  335SOL     OW 1003   0.492   2.564   2.988  0.2209  0.5429  0.1649
  335SOL    HW1 1004   0.409   2.514   3.027 -2.5833 -0.1591  0.7899
  335SOL    HW2 1005   0.471   2.603   2.893 -0.9743  0.0248 -1.8272
  336SOL     OW 1006   2.971   2.576   2.166 -0.2847  0.1191  0.0084
  336SOL    HW1 1007   3.055   2.521   2.146 -0.2780 -1.2474 -0.5748
  336SOL    HW2 1008   2.924   2.541   2.247 -0.6857  3.5011 -2.3418
  337SOL     OW 1009   1.675   2.177   1.870  0.3627 -0.0264  0.0738
  337SOL    HW1 1010   1.667   2.280   1.883 -0.2255 -1.9030  2.2856
  337SOL    HW2 1011   1.587   2.126   1.895 -1.0793 -2.2324  1.4983
  338SOL     OW 1012   0.992   0.351   2.696  0.5312  0.4373  0.2585
  338SOL    HW1 1013   0.941   0.439   2.686 -1.9083  1.4980  0.8429
  338SOL    HW2 1014   0.939   0.272   2.662 -1.8970  1.2478  2.0554
  339SOL     OW 1015   0.319   1.087   2.265 -0.0005  0.5055 -0.4796
  339SOL    HW1 1016   0.308   1.129   2.174  0.8916 -1.0067  2.8699
  339SOL    HW2 1017   0.411   1.110   2.296 -0.6394  0.7469 -1.2026
  340SOL     OW 1018   1.975   0.309   0.796 -0.1107  0.2015  0.5070
  340SOL    HW1 1019   2.062   0.266   0.830 -0.1719 -0.6033 -2.4266
  340SOL    HW2 1020   1.936   0.382   0.853  1.9737  4.7470 -0.9878
  341SOL     OW 1021   2.085   1.210   0.810 -0.2048 -0.6784 -0.3090
  341SOL    HW1 1022   2.010   1.240   0.873  0.2192  0.1935  1.2614
  341SOL    HW2 1023   2.176   1.255   0.837  4.1592 -0.1902  0.4633
  342SOL     OW 1024   2.356   2.673   2.942 -0.4645 -0.2244  0.0031
  342SOL    HW1 1025   2.429   2.598   2.929  0.3456 -2.0886 -1.4331
  342SOL    HW2 1026   2.267   2.643   2.900 -1.3998 -0.9949 -0.7707
  343SOL     OW 1027   0.932   2.430   1.717  0.6131  0.2318  0.3791
  343SOL    HW1 1028   0.961   2.502   1.654 -2.5102 -1.9766  0.2299
  343SOL    HW2 1029   0.834   2.404   1.694 -0.0008  1.6501 -0.0976
  344SOL     OW 1030   2.355   2.583   1.446  0.0582  0.3351  0.3935
  344SOL    HW1 1031   2.362   2.560   1.544  0.0562  1.1222 -1.7396
  344SOL    HW2 1032   2.418   2.660   1.432 -0.0197 -0.0468 -1.3793
  345SOL     OW 1033   2.477   2.076   0.058  0.9105 -0.3314 -0.1529
  345SOL    HW1 1034   2.500   1.988   0.014 -0.0672 -3.0799 -1.2504
  345SOL    HW2 1035   2.436   2.065   0.151 -1.8465  0.8823 -2.0645
  346SOL     OW 1036   1.641   2.516   1.290  0.3113  0.0535  0.0125
  346SOL    HW1 1037   1.705   2.502   1.212  0.7066  1.3864  1.4884
  346SOL    HW2 1038   1.679   2.457   1.361 -2.1122 -1.6117 -4.1975
  347SOL     OW 1039   1.324   1.790   1.662 -0.4603 -0.1448  0.3858
  347SOL    HW1 1040   1.342   1.890   1.633  1.9507  0.0191 -0.2930
  347SOL    HW2 1041   1.226   1.779   1.697 -0.0339  1.8966 -1.2887
  348SOL     OW 1042   0.409   2.019   2.042  0.4903 -0.0086  0.0757
  348SOL    HW1 1043   0.350   2.030   2.129 -0.2646 -1.2398  0.3798
  348SOL    HW2 1044   0.454   1.928   2.048 -0.3864  1.8806 -0.9886
  349SOL     OW 1045   1.874   1.569   1.339  0.5747  0.0823 -0.1715
  349SOL    HW1 1046   1.778   1.574   1.365  2.6094 -2.2269 -0.5420
  349SOL    HW2 1047   1.924   1.617   1.413 -3.4246 -0.6237  0.2755
  350SOL     OW 1048   2.366   2.314   0.521  0.4602  0.4067  0.1444
  350SOL    HW1 1049   2.398   2.380   0.451 -0.9301 -1.5743 -1.1585
  350SOL    HW2 1050   2.442   2.267   0.572 -2.0046  0.1574 -0.9888
  351SOL     OW 1051   0.962   3.086   1.562  0.2902 -0.2148 -0.0025
  351SOL    HW1 1052   0.902   0.052   1.569 -1.3637 -2.3098  0.7331
  351SOL    HW2 1053   0.990   3.077   1.465 -1.1518 -0.8330 -1.6552
  352SOL     OW 1054   0.125   1.455   0.872  0.4426  0.0689  0.1514
  352SOL    HW1 1055   0.191   1.394   0.927  2.5974 -0.7202  2.0372
  352SOL    HW2 1056   0.155   1.548   0.857  0.8775 -0.9052  0.0775
  353SOL     OW 1057   1.147   1.482   1.991  0.2906 -0.3492  0.0527
  353SOL    HW1 1058   1.237   1.433   1.984 -0.1068 -0.1909 -0.2453
  353SOL    HW2 1059   1.150   1.536   2.080 -1.5885  2.3058  0.2090
  354SOL     OW 1060   1.791   2.838   2.081 -0.0427 -0.2986  0.2337
  354SOL    HW1 1061   1.787   2.937   2.108 -0.0849  0.4725 -3.4330
  354SOL    HW2 1062   1.699   2.801   2.055  1.0890  0.1078 -0.4984
  355SOL     OW 1063   2.356   1.362   0.198 -0.2275  0.2837 -0.4156
  355SOL    HW1 1064   2.338   1.264   0.191  2.1127  0.3133  0.8895
  355SOL    HW2 1065   2.374   1.396   0.104 -0.0685  2.5770  0.9924
  356SOL     OW 1066   3.068   1.975   1.398 -0.3681 -0.2323 -0.2569
  356SOL    HW1 1067   3.045   1.967   1.494  0.1598 -0.8297 -3.1985
  356SOL    HW2 1068   0.049   1.956   1.380  1.6093 -0.4035  0.0138
  357SOL     OW 1069   0.506   2.798   1.396 -0.1642 -0.5191  0.1683
  357SOL    HW1 1070   0.485   2.699   1.384 -0.2012 -1.3234 -2.2308
  357SOL    HW2 1071   0.429   2.861   1.402  1.8580  0.0463  2.3134
  358SOL     OW 1072   2.734   1.627   1.474  0.7305 -0.3650  0.5895
  358SOL    HW1 1073   2.692   1.672   1.556 -1.7755  1.1663 -1.7719
  358SOL    HW2 1074   2.821   1.577   1.494  2.6691 -0.1347  1.2883
  359SOL     OW 1075   2.270   3.058   2.859 -0.4460 -0.3400  0.5046
  359SOL    HW1 1076   2.239   3.057   2.761 -0.2600  1.0559  0.2532
  359SOL    HW2 1077   2.193   3.041   2.923 -0.3547 -1.3477 -0.7215
  360SOL     OW 1078   1.119   0.002   0.951 -0.0890 -0.1193  0.0379
  360SOL    HW1 1079   1.186   0.051   0.887 -1.0536 -0.5199  0.1232
  360SOL    HW2 1080   1.059   3.049   0.898  0.0069 -0.2023 -2.2256
  361SOL     OW 1081   2.162   0.422   0.362 -0.2144  0.0555 -0.2721
  361SOL    HW1 1082   2.080   0.385   0.415  1.3825 -0.6970 -0.0804
  361SOL    HW2 1083   2.189   0.510   0.412  0.8974  2.4351 -1.0887
  362SOL     OW 1084   1.692   1.122   0.949 -0.1394 -0.2510 -0.1884
  362SOL    HW1 1085   1.753   1.199   0.978 -1.7319  0.8441 -0.4740
  362SOL    HW2 1086   1.621   1.159   0.894  2.8824 -0.9282  2.1800
  363SOL     OW 1087   2.332   1.045   2.326 -0.0716  0.1572  0.1093
  363SOL    HW1 1088   2.233   1.047   2.366  0.9922 -1.7011  1.9545
  363SOL    HW2 1089   2.336   0.995   2.239 -0.9306 -1.9838 -0.9920
  364SOL     OW 1090   0.270   0.355   1.293  0.0700  0.0409 -0.8895
  364SOL    HW1 1091   0.195   0.420   1.284  2.4760 -2.7877 -0.9075
  364SOL    HW2 1092   0.245   0.270   1.251  0.4314  1.9406  0.2799
  365SOL     OW 1093   0.658   0.192   2.756  0.3579  0.0492  0.7070
  365SOL    HW1 1094   0.624   0.108   2.705 -0.0641 -0.4031  2.6085
  365SOL    HW2 1095   0.754   0.181   2.789  1.6012  0.2369 -0.1431
  366SOL     OW 1096   2.059   2.670   2.824 -0.4055 -0.3414 -0.1548
  366SOL    HW1 1097   2.003   2.672   2.739 -0.5081 -2.2554  0.0768
  366SOL    HW2 1098   2.089   2.573   2.855 -0.0574 -1.8866  0.3663
  367SOL     OW 1099   2.978   2.562   0.154  0.7123 -0.5657 -0.2995
  367SOL    HW1 1100   2.891   2.589   0.115 -2.1863  1.0663 -0.3337
  367SOL    HW2 1101   2.968   2.521   0.244 -0.2824  2.7534  0.2915
  368SOL     OW 1102   3.079   1.261   1.194  0.2595  0.3534  0.2755
  368SOL    HW1 1103   3.022   1.210   1.122  2.3957 -1.7311 -3.5475
  368SOL    HW2 1104   0.054   1.212   1.204  1.1651 -0.8706 -0.6368
  369SOL     OW 1105   0.917   0.081   2.727  0.6516 -0.5057  0.0200
  369SOL    HW1 1106   0.904   0.023   2.645 -0.4583  1.0231 -0.7805
  369SOL    HW2 1107   0.988   0.041   2.788  0.5815 -0.1235 -0.1982
  370SOL     OW 1108   2.867   0.418   0.458  0.4836  0.2603  0.1040
  370SOL    HW1 1109   2.769   0.395   0.469  4.8172  0.3437  0.0964
  370SOL    HW2 1110   2.900   0.362   0.384 -2.4837 -0.1560  1.7873
  371SOL     OW 1111   1.541   2.139   0.962  0.0924 -0.3376 -0.5866
  371SOL    HW1 1112   1.612   2.079   0.927 -1.2876  0.4151  0.3392
  371SOL    HW2 1113   1.583   2.228   0.957 -2.3139 -0.9997 -1.0287
  372SOL     OW 1114   3.038   0.699   2.641 -0.4544  0.3540  0.6309
  372SOL    HW1 1115   3.008   0.688   2.544  2.5346 -1.2954  1.2370
  372SOL    HW2 1116   3.007   0.782   2.693  1.5800 -3.8044  0.4645
  373SOL     OW 1117   2.838   1.588   1.013 -0.1114  0.1768 -0.6012
  373SOL    HW1 1118   2.814   1.633   0.925  0.3014  2.2937  0.6723
  373SOL    HW2 1119   2.749   1.560   1.053 -0.6127 -1.8536  1.5188
  374SOL     OW 1120   0.866   2.734   2.922 -0.3897 -0.3048 -0.3472
  374SOL    HW1 1121   0.833   2.826   2.952 -1.5553 -0.7145 -2.2271
  374SOL    HW2 1122   0.960   2.710   2.955  2.1978  0.2669 -1.2159
  375SOL     OW 1123   0.065   3.060   0.020  0.1725  0.7125  0.7478
  375SOL    HW1 1124   0.111   3.081   0.107  0.9904 -0.9936 -2.1737
  375SOL    HW2 1125   0.101   2.970   3.099 -2.1572  0.8753  0.9045
  376SOL     OW 1126   3.108   2.193   1.622  0.2873 -0.3661 -0.2004
  376SOL    HW1 1127   0.059   2.179   1.697  1.4748 -2.0699  1.1029
  376SOL    HW2 1128   3.054   2.113   1.605  2.0333  1.2888  0.9595
  377SOL     OW 1129   1.607   2.164   2.524 -0.4093  0.0539  0.0038
  377SOL    HW1 1130   1.627   2.073   2.561 -2.4810 -0.5187  0.6006
  377SOL    HW2 1131   1.558   2.148   2.438 -1.5553 -2.6674 -0.8804
  378SOL     OW 1132   0.495   0.411   2.756  0.5822  0.9178  0.1885
  378SOL    HW1 1133   0.544   0.497   2.736 -0.5499 -0.5715 -0.5223
  378SOL    HW2 1134   0.565   0.337   2.758 -3.0994 -2.4006  0.5710
  379SOL     OW 1135   0.552   0.644   0.456 -0.3046  0.1291 -0.0016
  379SOL    HW1 1136   0.474   0.711   0.467 -0.6049 -1.3654 -0.6474
  379SOL    HW2 1137   0.644   0.680   0.481 -1.6335 -1.1871 -1.7452
  380SOL     OW 1138   0.120   1.793   1.892  0.6917  0.0538 -0.5031
  380SOL    HW1 1139   0.051   1.758   1.828  1.2778  3.5479  2.4918
  380SOL    HW2 1140   0.176   1.718   1.937 -0.1822  0.1052 -1.0527
  381SOL     OW 1141   0.227   0.991   1.923  0.1974  0.3406 -0.0216
  381SOL    HW1 1142   0.226   0.890   1.931 -2.6212  0.5004  1.3570
  381SOL    HW2 1143   0.135   1.027   1.895  1.2812 -1.1321  1.9745
  382SOL     OW 1144   2.140   1.956   0.405 -0.3415  0.5147  0.5491
  382SOL    HW1 1145   2.087   1.873   0.399  0.0997 -0.7011 -2.3490
  382SOL    HW2 1146   2.136   1.993   0.498 -1.8795 -1.1503 -0.0047
  383SOL     OW 1147   3.005   1.907   2.887 -0.6930 -0.2438  0.6640
  383SOL    HW1 1148   2.954   1.928   2.973  0.8792 -0.5563  5.1651
  383SOL    HW2 1149   2.994   1.979   2.810 -1.3299  1.6071 -0.8135
  384SOL     OW 1150   0.814   2.208   2.759  0.2538  0.2208 -0.3766
  384SOL    HW1 1151   0.719   2.197   2.788  0.3890 -1.2957  0.1110
  384SOL    HW2 1152   0.868   2.263   2.827  2.3035 -1.3214  0.6292
  385SOL     OW 1153   2.580   1.651   0.652 -0.0563 -0.0620  0.5091
  385SOL    HW1 1154   2.577   1.555   0.615  0.4874 -1.9975  4.0905
  385SOL    HW2 1155   2.518   1.707   0.593  1.3495 -0.5019  2.3281
  386SOL     OW 1156   2.222   1.419   1.586 -0.5770  0.2144  0.4730
  386SOL    HW1 1157   2.228   1.443   1.485 -4.0761  3.6700 -1.8054
  386SOL    HW2 1158   2.197   1.504   1.636  2.6826  2.6748 -0.3380
  387SOL     OW 1159   2.594   1.282   2.062 -0.1498  0.3487  0.0034
  387SOL    HW1 1160   2.503   1.311   2.030  1.2346  1.5884 -0.1820
  387SOL    HW2 1161   2.601   1.273   2.165  2.0630 -1.2458  3.0472
  388SOL     OW 1162   2.788   1.494   2.047 -0.2330  0.0585 -0.4422
  388SOL    HW1 1163   2.705   1.436   2.063 -0.6619 -0.8927  1.2906
  388SOL    HW2 1164   2.867   1.433   2.072  0.3279 -0.7130 -0.2389
  389SOL     OW 1165   1.908   1.086   1.974  0.6159 -0.2661  0.1845
  389SOL    HW1 1166   1.998   1.122   2.011 -1.2755 -1.5110 -1.6037
  389SOL    HW2 1167   1.842   1.158   1.951  0.3658 -1.3803 -2.4510
  390SOL     OW 1168   1.823   0.028   0.687 -0.3310  0.1457 -0.1769
  390SOL    HW1 1169   1.854   0.041   0.784  2.9572  1.5473  0.2968
  390SOL    HW2 1170   1.839   0.108   0.626  2.2172 -2.1764  1.1584
  391SOL     OW 1171   2.223   1.827   1.281  0.7318  0.2450  0.8445
  391SOL    HW1 1172   2.297   1.846   1.345  0.9133 -0.5692 -2.3611
  391SOL    HW2 1173   2.147   1.778   1.327 -1.8914 -2.0184 -3.4214
  392SOL     OW 1174   2.557   2.797   0.711  0.5914 -0.4721 -0.0860
  392SOL    HW1 1175   2.534   2.862   0.787 -0.4287 -0.2153  1.6286
  392SOL    HW2 1176   2.640   2.743   0.728 -1.1007 -1.4304  0.5647
  393SOL     OW 1177   1.520   1.781   2.837  0.2052 -0.3214  0.3389
  393SOL    HW1 1178   1.551   1.683   2.835 -0.2327 -2.2175 -0.8354
  393SOL    HW2 1179   1.529   1.830   2.749  0.2994 -0.5016 -2.8675
  394SOL     OW 1180   0.272   0.033   2.819 -0.5068 -0.6136 -0.3973
  394SOL    HW1 1181   0.178   0.011   2.789  1.3673  2.2091 -1.2130
  394SOL    HW2 1182   0.336   3.066   2.830  4.2560 -1.9024 -1.9916
  395SOL     OW 1183   0.675   0.652   0.815  0.3105 -0.2495  0.5001
  395SOL    HW1 1184   0.628   0.561   0.807 -0.1623 -1.0821 -1.5771
  395SOL    HW2 1185   0.770   0.653   0.780  0.7740 -1.1909  1.4276
  396SOL     OW 1186   1.319   0.894   0.629  0.3099  0.9267  0.0625
  396SOL    HW1 1187   1.409   0.846   0.632 -1.7094 -0.5506  1.2414
  396SOL    HW2 1188   1.252   0.829   0.580 -2.5943  0.2309 -0.4266
  397SOL     OW 1189   0.543   0.562   2.256 -0.0456 -0.0242  0.0929
  397SOL    HW1 1190   0.467   0.513   2.298  1.4251  0.5476  0.0313
  397SOL    HW2 1191   0.508   0.639   2.198  0.7116 -1.8949  0.0245
  398SOL     OW 1192   1.086   0.136   0.345 -0.4994  0.0433  0.2376
  398SOL    HW1 1193   1.043   0.226   0.346 -0.2527 -1.4816 -2.8039
  398SOL    HW2 1194   1.143   0.131   0.261 -1.1774  0.1339 -0.0387
  399SOL     OW 1195   2.073   2.764   1.636  0.0667  1.0210  0.8152
  399SOL    HW1 1196   2.016   2.801   1.710  0.8572 -0.8138 -0.6057
  399SOL    HW2 1197   2.046   2.670   1.622  0.5715  1.3028 -0.3970
  400SOL     OW 1198   0.966   1.836   1.982  0.0641 -0.6456  0.2126
  400SOL    HW1 1199   0.951   1.873   2.076  1.2572 -0.3799 -3.4829
  400SOL    HW2 1200   1.044   1.775   1.982 -2.3133  1.9877 -1.2811
  401SOL     OW 1201   0.528   1.217   2.810 -0.3054 -0.2258 -0.4630
  401SOL    HW1 1202   0.591   1.213   2.893  3.3746 -1.6051 -0.4687
  401SOL    HW2 1203   0.474   1.131   2.802 -0.8842  0.6023  0.6314
  402SOL     OW 1204   2.879   2.008   0.905  0.5522 -0.0740 -0.6086
  402SOL    HW1 1205   2.832   1.917   0.898 -0.0798 -0.9821 -1.8463
  402SOL    HW2 1206   2.891   2.032   1.004  1.6641  1.3443 -1.0967
  403SOL     OW 1207   0.197   0.839   2.256  1.0254 -0.3506 -0.1856
  403SOL    HW1 1208   0.111   0.855   2.209  1.8434 -2.1255 -2.6761
  403SOL    HW2 1209   0.239   0.936   2.275  2.1416  1.7274 -2.3474
  404SOL     OW 1210   0.302   2.442   2.016  0.1955  0.0555 -0.0659
  404SOL    HW1 1211   0.306   2.399   1.922  0.4011 -2.5494 -1.9890
  404SOL    HW2 1212   0.316   2.540   2.008  0.6045 -1.7930 -0.4046
  405SOL     OW 1213   0.244   0.344   2.083  0.8970  0.6190  0.1031
  405SOL    HW1 1214   0.305   0.333   2.001  0.0021  2.0656  2.3950
  405SOL    HW2 1215   0.205   0.254   2.111 -0.9451  2.5763  0.0477
  406SOL     OW 1216   1.537   1.520   2.446 -0.3236 -1.1146 -0.6906
  406SOL    HW1 1217   1.608   1.483   2.512  0.6537 -0.7535  0.1132
  406SOL    HW2 1218   1.552   1.620   2.427  3.6347 -0.4956  0.6216
  407SOL     OW 1219   1.188   1.224   2.312 -0.2029 -0.2815 -0.0840
  407SOL    HW1 1220   1.122   1.203   2.237  1.0819  0.0024 -2.4208
  407SOL    HW2 1221   1.272   1.171   2.314 -0.4647  0.4344 -1.0172
  408SOL     OW 1222   0.867   3.051   2.488  0.2770  0.1732  0.1525
  408SOL    HW1 1223   0.825   0.016   2.443  0.5023 -1.5099 -2.0554
  408SOL    HW2 1224   0.860   2.964   2.432  2.6823 -3.9026 -1.7789
  409SOL     OW 1225   0.151   1.712   0.755 -0.4907  0.4767 -0.2196
  409SOL    HW1 1226   0.050   1.701   0.736 -0.1857 -0.1612 -0.6185
  409SOL    HW2 1227   0.203   1.723   0.671 -0.0578 -0.6761 -1.9413
  410SOL     OW 1228   2.629   1.102   0.232 -0.2096  0.5548  0.0695
  410SOL    HW1 1229   2.700   1.109   0.309 -0.8008  1.7070  1.6060
  410SOL    HW2 1230   2.640   1.178   0.163  0.9734  0.8226  0.1961
  411SOL     OW 1231   0.157   0.097   1.174  0.3010  0.2531 -0.6324
  411SOL    HW1 1232   0.090   0.090   1.247  0.5422 -1.0045  1.2364
  411SOL    HW2 1233   0.172   0.013   1.117  0.3323 -2.3970  2.1970
  412SOL     OW 1234   1.538   0.951   1.497  0.5604 -0.2628 -0.2712
  412SOL    HW1 1235   1.572   0.994   1.417 -1.3459 -0.5123  1.2220
  412SOL    HW2 1236   1.464   0.886   1.467 -0.7990  1.8429  1.7093
  413SOL     OW 1237   0.863   2.911   1.752  0.2166 -1.1676 -0.4006
  413SOL    HW1 1238   0.771   2.943   1.776 -1.4777  3.5385 -0.7991
  413SOL    HW2 1239   0.898   2.973   1.676 -1.3990 -1.8830  0.6915
  414SOL     OW 1240   2.846   1.533   2.590  0.1319 -0.2995  0.0770
  414SOL    HW1 1241   2.796   1.528   2.679 -1.3573 -1.8950  2.5236
  414SOL    HW2 1242   2.846   1.447   2.536  0.0378  1.2521  0.1335
  415SOL     OW 1243   0.732   2.449   2.978 -0.4614  0.3551 -0.1511
  415SOL    HW1 1244   0.640   2.485   3.002 -1.2253 -0.9088  0.1198
  415SOL    HW2 1245   0.805   2.522   2.990  0.4180  1.6957 -0.9521
  416SOL     OW 1246   1.986   2.955   0.315  0.0741  0.3635  0.0909
  416SOL    HW1 1247   2.032   2.877   0.261  1.2404  0.8062 -2.0458
  416SOL    HW2 1248   2.016   3.040   0.265 -0.4739 -1.6608 -3.6888
  417SOL     OW 1249   0.335   0.599   0.814 -0.4558 -0.0362  0.6067
  417SOL    HW1 1250   0.333   0.673   0.742 -0.1214 -3.9438  0.6114
  417SOL    HW2 1251   0.321   0.507   0.770 -3.3175 -0.3419 -0.4304
  418SOL     OW 1252   2.589   0.263   1.013 -0.2102  0.0866  0.4566
  418SOL    HW1 1253   2.500   0.274   1.068  1.2677 -0.6695 -1.0388
  418SOL    HW2 1254   2.614   0.333   0.944  1.8076  0.7976 -2.7444
  419SOL     OW 1255   0.119   2.962   0.728  0.1778  0.6623  0.3930
  419SOL    HW1 1256   0.082   3.008   0.642 -0.3971 -1.8298 -0.1979
  419SOL    HW2 1257   0.152   2.871   0.697  0.2166  1.5455 -0.1642
  420SOL     OW 1258   0.215   1.419   1.540 -0.2747 -0.3953  0.0857
  420SOL    HW1 1259   0.265   1.494   1.593  1.1446 -1.4112  1.3383
  420SOL    HW2 1260   0.146   1.463   1.478  1.1270  1.1478  2.6953
  421SOL     OW 1261   1.199   2.879   0.605 -0.4706 -0.1187  0.6309
  421SOL    HW1 1262   1.181   2.978   0.588 -0.8924  0.8647 -0.0516
  421SOL    HW2 1263   1.186   2.830   0.514 -1.6619 -0.2617  1.8920
  422SOL     OW 1264   0.316   0.564   1.496  0.0977 -0.0942  0.0738
  422SOL    HW1 1265   0.345   0.547   1.591 -1.0863  0.8612  0.0577
  422SOL    HW2 1266   0.254   0.487   1.461 -3.8157 -1.9999 -0.8083
  423SOL     OW 1267   0.921   1.161   1.740 -0.3675 -0.0792 -0.6609
  423SOL    HW1 1268   0.892   1.233   1.810 -1.6348  2.6418 -0.9012
  423SOL    HW2 1269   0.910   1.070   1.783 -0.6079  1.2814 -1.1758
  424SOL     OW 1270   2.131   1.625   0.093  0.4050 -0.2219  0.1281
  424SOL    HW1 1271   2.133   1.608   0.195 -0.0303  3.1326 -3.6004
  424SOL    HW2 1272   2.130   1.533   0.051 -1.9253  0.9427 -1.1336
  425SOL     OW 1273   0.138   0.106   2.158 -0.6001 -0.1529 -0.0490
  425SOL    HW1 1274   0.077   0.061   2.090 -1.8732  0.2948 -0.8870
  425SOL    HW2 1275   0.157   0.047   2.236 -0.0708 -0.0178 -0.8421
  426SOL     OW 1276   0.371   2.896   2.852 -0.5963 -0.1760 -0.2135
  426SOL    HW1 1277   0.317   2.865   2.937 -1.4076 -1.5437 -0.0239
  426SOL    HW2 1278   0.371   2.827   2.779 -0.1425 -1.7155  2.9080
  427SOL     OW 1279   0.861   0.934   2.745  0.1710 -0.0724 -0.1162
  427SOL    HW1 1280   0.897   1.030   2.754 -3.0058  0.4374 -0.4493
  427SOL    HW2 1281   0.928   0.869   2.706 -0.8787  3.8393 -1.7222
  428SOL     OW 1282   2.882   1.226   1.649 -0.2606 -0.7436 -0.3680
  428SOL    HW1 1283   2.793   1.225   1.695  0.2757  1.7022 -0.9471
  428SOL    HW2 1284   2.964   1.197   1.704  0.4156  0.8203 -0.4070
  429SOL     OW 1285   2.291   0.091   0.722 -0.1541  0.8264 -0.2308
  429SOL    HW1 1286   2.265   0.142   0.807 -0.4689  2.5230 -1.6026
  429SOL    HW2 1287   2.240   0.004   0.711  1.3519 -0.9069 -2.6459
  430SOL     OW 1288   0.732   1.565   2.233 -0.1387 -0.1053  0.2753
  430SOL    HW1 1289   0.659   1.629   2.277  0.0703 -0.8951  0.8923
  430SOL    HW2 1290   0.811   1.565   2.306  0.5390 -0.3581  0.9364
  431SOL     OW 1291   2.973   1.493   1.554 -0.2493 -0.0684 -0.1901
  431SOL    HW1 1292   3.022   1.498   1.461  0.5037 -1.1257 -2.6520
  431SOL    HW2 1293   2.959   1.398   1.589 -0.1389  1.0997  1.7112
  432SOL     OW 1294   1.079   2.818   2.428  0.2790  0.4345 -0.1426
  432SOL    HW1 1295   1.091   2.766   2.515  1.0809 -0.0101 -1.0123
  432SOL    HW2 1296   1.101   2.752   2.356  0.4955 -1.5622  1.7210
  433SOL     OW 1297   1.643   0.155   1.912 -0.1087  0.4384 -0.1479
  433SOL    HW1 1298   1.669   0.108   1.825  1.6166  0.1818 -1.3615
  433SOL    HW2 1299   1.695   0.236   1.928 -1.9666 -0.1563  0.4482
  434SOL     OW 1300   0.722   2.491   2.476 -0.0628  0.4190 -0.2376
  434SOL    HW1 1301   0.698   2.534   2.386  2.5165  1.7416  0.8194
  434SOL    HW2 1302   0.739   2.559   2.546  1.4899 -2.5971 -4.6058
  435SOL     OW 1303   0.360   2.971   0.141 -0.1637  0.3429  0.6164
  435SOL    HW1 1304   0.384   3.070   0.156 -3.8449 -0.6309  0.9982
  435SOL    HW2 1305   0.356   2.924   0.232 -1.4600 -1.5660  0.9681
  436SOL     OW 1306   0.770   0.430   1.868 -0.3833  0.8256 -0.4180
  436SOL    HW1 1307   0.706   0.506   1.888 -0.0833  2.6161 -0.9178
  436SOL    HW2 1308   0.727   0.351   1.911  0.8198  2.4519 -0.6699
  437SOL     OW 1309   0.373   2.409   2.626  0.3908 -0.0930 -0.4765
  437SOL    HW1 1310   0.413   2.377   2.538 -2.7392 -0.4773  0.1999
  437SOL    HW2 1311   0.396   2.342   2.699  3.1091  0.2622 -2.1749
  438SOL     OW 1312   0.876   1.398   1.503  0.7925  0.5125 -0.4574
  438SOL    HW1 1313   0.905   1.495   1.514  0.1806  1.5442  1.0374
  438SOL    HW2 1314   0.869   1.351   1.592 -1.8563  0.0176 -0.1948
  439SOL     OW 1315   2.496   0.856   2.388  0.2080  0.2120 -0.1154
  439SOL    HW1 1316   2.551   0.882   2.468 -0.2092 -0.1971  1.6407
  439SOL    HW2 1317   2.421   0.922   2.376 -2.4987 -1.3280 -0.5967
  440SOL     OW 1318   0.460   0.744   0.202  0.3623  0.0849  0.2068
  440SOL    HW1 1319   0.409   0.661   0.186  0.7017  3.7610 -0.7824
  440SOL    HW2 1320   0.543   0.741   0.268  1.2657  0.9840  1.8638
  441SOL     OW 1321   1.497   2.356   1.562  0.0999  0.2599 -0.1221
  441SOL    HW1 1322   1.595   2.334   1.573  1.1021  1.9935  0.8124
  441SOL    HW2 1323   1.448   2.280   1.514 -1.3288  0.1914 -2.4371
  442SOL     OW 1324   1.913   1.669   0.661 -0.0510 -0.5098  0.2453
  442SOL    HW1 1325   1.935   1.749   0.715 -2.1983 -0.3939 -1.5195
  442SOL    HW2 1326   1.991   1.600   0.665  1.3276 -0.4390  0.0106
  443SOL     OW 1327   2.637   1.970   2.660 -0.3730 -0.1617  0.5127
  443SOL    HW1 1328   2.635   2.073   2.661  0.5414 -2.1076 -0.9531
  443SOL    HW2 1329   2.568   1.914   2.611 -0.8122  0.4477  0.8097
  444SOL     OW 1330   1.559   1.492   2.847 -0.0717  0.0566 -0.4423
  444SOL    HW1 1331   1.563   1.495   2.953  0.9265 -1.5139  3.2802
  444SOL    HW2 1332   1.499   1.415   2.822 -0.8136  2.1919  0.2315
  445SOL     OW 1333   2.592   2.676   2.381  0.1841  0.5798 -0.4843
  445SOL    HW1 1334   2.676   2.623   2.359  0.6182  1.4368  2.6108
  445SOL    HW2 1335   2.603   2.779   2.380 -0.4687 -0.7539 -2.5429
  446SOL     OW 1336   0.669   0.815   1.703 -0.2690 -0.5490  0.1061
  446SOL    HW1 1337   0.617   0.890   1.659 -1.1083 -0.8119  0.7533
  446SOL    HW2 1338   0.677   0.737   1.638 -1.2060  0.5122 -0.8308
  447SOL     OW 1339   0.956   0.986   0.828  0.2603 -0.0575 -0.2489
  447SOL    HW1 1340   0.909   0.981   0.919 -0.7543 -0.8304 -2.6952
  447SOL    HW2 1341   1.049   1.024   0.840  0.5482  0.5722  1.7463
  448SOL     OW 1342   0.809   0.938   2.088 -0.1528  0.3267  0.5522
  448SOL    HW1 1343   0.721   0.978   2.069  1.3141 -0.0696  1.3869
  448SOL    HW2 1344   0.799   0.866   2.158  1.8394 -1.2689  0.4952
  449SOL     OW 1345   0.049   2.132   2.191 -0.4720  0.0675  0.4833
  449SOL    HW1 1346   3.090   2.085   2.239  2.2193  1.5072 -1.8424
  449SOL    HW2 1347   0.137   2.078   2.200  2.6023  0.1814  0.4851
  450SOL     OW 1348   2.499   1.954   1.985  0.9867 -0.2992 -0.6602
  450SOL    HW1 1349   2.590   1.923   2.002 -1.7594  2.3361 -1.2408
  450SOL    HW2 1350   2.430   1.880   2.006  1.5364 -0.1876  0.4190
  451SOL     OW 1351   2.398   1.247   1.156  0.3334 -0.7704 -0.3837
  451SOL    HW1 1352   2.328   1.177   1.161  0.7654 -1.7111  0.7817
  451SOL    HW2 1353   2.467   1.237   1.231 -0.1388  0.1576  1.0255
  452SOL     OW 1354   0.424   1.270   1.558 -0.7344 -0.3329 -0.5275
  452SOL    HW1 1355   0.331   1.319   1.549  2.2678  0.2496 -0.2851
  452SOL    HW2 1356   0.500   1.322   1.504  1.9708  0.1674 -0.0453
  453SOL     OW 1357   0.286   1.315   1.004 -0.2226  0.4181  0.0780
  453SOL    HW1 1358   0.327   1.234   0.958 -1.4866 -1.2888 -0.9064
  453SOL    HW2 1359   0.243   1.294   1.096  0.6892  1.7057  1.8006
  454SOL     OW 1360   0.329   1.461   0.296  0.7407 -0.1820 -0.3791
  454SOL    HW1 1361   0.396   1.516   0.242 -0.8847  0.3164  0.6575
  454SOL    HW2 1362   0.359   1.369   0.327  0.5420  0.0025 -0.6371
  455SOL     OW 1363   1.771   0.902   0.834 -0.3021  0.4206 -0.2508
  455SOL    HW1 1364   1.739   0.982   0.879  0.8316 -2.7637 -1.6254
  455SOL    HW2 1365   1.817   0.843   0.905  1.7519  1.1085  3.3755
  456SOL     OW 1366   1.677   2.401   0.895  0.4473 -0.5376 -0.3136
  456SOL    HW1 1367   1.600   2.459   0.863  1.4699  1.5413 -1.1582
  456SOL    HW2 1368   1.733   2.385   0.815 -2.0500  2.8775  1.0289
  457SOL     OW 1369   1.835   0.132   2.704  0.1523 -0.0617  0.4306
  457SOL    HW1 1370   1.838   0.030   2.713  0.1023  1.0444  1.3328
  457SOL    HW2 1371   1.760   0.164   2.641 -2.7165 -0.3405 -0.8880
  458SOL     OW 1372   2.500   0.519   0.065 -0.5236  0.5538  0.0271
  458SOL    HW1 1373   2.470   0.457   3.107  4.1037  4.0045  0.7006
  458SOL    HW2 1374   2.603   0.509   0.077  0.9502  0.9048  0.4711
  459SOL     OW 1375   2.952   1.053   2.172 -0.3363  0.2432  0.1834
  459SOL    HW1 1376   2.948   1.156   2.165  1.2998  2.8136 -0.6633
  459SOL    HW2 1377   2.947   1.022   2.268  1.3499  0.8368  1.7522
  460SOL     OW 1378   0.200   0.792   2.982 -0.5317 -0.2077  0.1549
  460SOL    HW1 1379   0.196   0.735   2.896  1.4072 -3.2319 -1.4953
  460SOL    HW2 1380   0.294   0.829   2.999 -0.9528  1.0911 -2.0401
  461SOL     OW 1381   0.004   2.355   0.683  0.3206 -0.2204  0.0896
  461SOL    HW1 1382   3.101   2.265   0.729 -3.0866 -2.8993  1.0427
  461SOL    HW2 1383   0.021   2.332   0.585  2.1914 -2.7275  1.5498
  462SOL     OW 1384   0.077   3.001   1.625  0.2640  0.4150 -0.4193
  462SOL    HW1 1385   0.007   2.937   1.669 -0.6555 -1.3797  0.1328
  462SOL    HW2 1386   0.032   3.081   1.589 -0.3726 -2.0156  2.0052
  463SOL     OW 1387   2.078   2.091   1.949 -0.1408  0.1319 -0.3759
  463SOL    HW1 1388   2.167   2.131   1.925  1.9466 -1.9846  2.5065
  463SOL    HW2 1389   2.019   2.077   1.868 -0.2994 -1.9349  2.0664
  464SOL     OW 1390   0.252   2.875   1.158  0.0456 -0.0380 -0.0316
  464SOL    HW1 1391   0.247   2.923   1.247 -1.0880  0.4592 -0.6889
  464SOL    HW2 1392   0.246   2.939   1.078 -0.1900  2.3060 -4.6468
  465SOL     OW 1393   0.595   0.047   1.385 -0.2181  0.2308 -0.1834
  465SOL    HW1 1394   0.680   0.080   1.435 -0.1640 -1.1856  0.4715
  465SOL    HW2 1395   0.521   0.050   1.453  0.3683  0.7533  0.3036
  466SOL     OW 1396   1.271   2.031   2.219  0.0734  0.7286  0.5068
  466SOL    HW1 1397   1.261   1.932   2.200  2.2587  0.7479  3.7335
  466SOL    HW2 1398   1.185   2.089   2.209 -0.6194  1.7086 -1.1135
  467SOL     OW 1399   3.012   1.620   0.727  0.0592 -0.2001 -0.3140
  467SOL    HW1 1400   3.017   1.552   0.800 -0.2701  2.1225 -1.2279
  467SOL    HW2 1401   3.023   1.577   0.636 -1.4663  1.8893 -1.5040
  468SOL     OW 1402   2.309   1.946   2.742 -0.4352  0.3891 -0.4797
  468SOL    HW1 1403   2.285   1.860   2.695 -2.0726  1.9476 -0.3270
  468SOL    HW2 1404   2.325   2.022   2.671  1.3280  1.3686 -3.5715
  469SOL     OW 1405   0.973   2.157   0.562  0.0494 -0.2673  0.3625
  469SOL    HW1 1406   1.060   2.198   0.532 -0.7553 -0.4969 -1.6985
  469SOL    HW2 1407   1.006   2.077   0.619 -0.1997 -2.4537 -0.5175
  470SOL     OW 1408   2.045   1.736   1.493 -0.1871 -0.0654  0.2074
  470SOL    HW1 1409   2.021   1.834   1.477  1.3456 -0.3069  0.6983
  470SOL    HW2 1410   2.080   1.727   1.587  0.3820  0.0941 -1.5880
  471SOL     OW 1411   0.448   2.414   0.206  0.4007  0.6396 -0.7548
  471SOL    HW1 1412   0.465   2.516   0.210 -1.3010 -1.0211 -3.1796
  471SOL    HW2 1413   0.381   2.397   0.132  2.8198 -1.4098 -0.2952
  472SOL     OW 1414   2.444   1.841   2.481 -0.2596 -0.1099  0.0563
  472SOL    HW1 1415   2.407   1.747   2.484 -2.5335  0.9786 -1.4181
  472SOL    HW2 1416   2.395   1.889   2.406 -2.0535 -0.0763 -1.3665
  473SOL     OW 1417   1.385   2.603   0.739  0.3920 -0.0282 -0.9295
  473SOL    HW1 1418   1.318   2.591   0.815 -2.6305  1.8333  2.6155
  473SOL    HW2 1419   1.411   2.699   0.737  0.0380 -2.1211  0.0728
  474SOL     OW 1420   2.901   3.071   1.524 -0.1537  0.2359  0.2972
  474SOL    HW1 1421   2.921   2.994   1.461 -1.1699  0.3559 -0.9961
  474SOL    HW2 1422   2.813   0.002   1.498 -2.6572 -0.6640 -0.6015
  475SOL     OW 1423   1.895   2.869   1.811 -0.3786 -0.4517  0.2115
  475SOL    HW1 1424   1.851   2.844   1.901 -0.1344  1.2450  0.7314
  475SOL    HW2 1425   1.840   2.939   1.761 -1.0427  2.3407  1.6508
  476SOL     OW 1426   0.377   0.497   1.051 -0.7854 -0.1932  0.0521
  476SOL    HW1 1427   0.297   0.520   1.106  0.7420 -2.0317 -0.7905
  476SOL    HW2 1428   0.371   0.535   0.952  1.3327  1.2316 -1.3805
  477SOL     OW 1429   0.577   2.145   1.031  0.6443 -0.3123 -0.2457
  477SOL    HW1 1430   0.494   2.177   0.982 -1.2670 -0.2015  2.7830
  477SOL    HW2 1431   0.660   2.186   0.989  1.4034 -1.7818 -1.0072
  478SOL     OW 1432   0.810   2.654   2.670  0.6613  0.1801 -0.3558
  478SOL    HW1 1433   0.907   2.623   2.662  2.6016  0.8957 -0.9196
  478SOL    HW2 1434   0.804   2.666   2.771  1.4075 -1.0848 -2.8958
  479SOL     OW 1435   0.159   0.562   1.937  0.2582  0.0744 -0.5009
  479SOL    HW1 1436   0.072   0.544   1.889  1.2626 -1.1003  1.8110
  479SOL    HW2 1437   0.185   0.484   2.000  0.7672  0.7196 -2.5197
  480SOL     OW 1438   0.158   2.271   2.983  0.1969 -0.2967  0.4158
  480SOL    HW1 1439   0.118   2.232   3.071 -1.4669 -3.7920  0.5484
  480SOL    HW2 1440   0.083   2.285   2.915 -3.1129  0.2051 -0.5593
  481SOL     OW 1441   1.683   3.083   2.159  0.1655 -0.2188 -0.1717
  481SOL    HW1 1442   1.748   0.022   2.217 -1.6511 -1.4436 -1.7634
  481SOL    HW2 1443   1.656   0.017   2.075  4.1323 -1.3655 -1.4755
  482SOL     OW 1444   1.708   1.843   3.052  0.1192  0.5309 -0.0493
  482SOL    HW1 1445   1.653   1.814   0.017 -0.8203  1.6515 -0.3865
  482SOL    HW2 1446   1.673   1.796   2.972  0.4256 -0.7746  1.9268
  483SOL     OW 1447   1.116   2.682   2.657 -0.2945 -0.2042 -0.1261
  483SOL    HW1 1448   1.189   2.613   2.689 -1.0943 -0.0086 -1.3055
  483SOL    HW2 1449   1.115   2.768   2.712  1.8644 -0.4553  0.3046
  484SOL     OW 1450   0.488   2.796   0.799 -0.1792  0.2000 -0.6331
  484SOL    HW1 1451   0.513   2.892   0.829 -1.3478 -1.2578  0.9468
  484SOL    HW2 1452   0.486   2.726   0.877  0.4689 -2.8843 -1.0679
  485SOL     OW 1453   2.214   0.736   0.769  0.3975 -0.1352  1.1404
  485SOL    HW1 1454   2.213   0.835   0.765  0.8299  1.1102  0.0882
  485SOL    HW2 1455   2.120   0.694   0.752 -3.3862 -0.9989  0.5694
  486SOL     OW 1456   1.917   2.593   2.085 -0.4002 -0.3343 -0.1756
  486SOL    HW1 1457   2.009   2.609   2.124  0.1179  2.4173 -0.0897
  486SOL    HW2 1458   1.870   2.685   2.091 -0.2178 -0.0190  1.1017
  487SOL     OW 1459   1.251   1.924   0.703  0.4529 -0.0196  0.4173
  487SOL    HW1 1460   1.151   1.918   0.711  1.8175 -2.7001  0.6475
  487SOL    HW2 1461   1.293   1.876   0.782 -1.2254 -1.7220  1.6580
  488SOL     OW 1462   2.032   0.292   0.157 -0.3857 -0.3263 -0.0119
  488SOL    HW1 1463   2.063   0.347   0.237 -1.3864  0.6020  1.3786
  488SOL    HW2 1464   2.082   0.316   0.073 -0.3957 -0.2307 -0.9574
  489SOL     OW 1465   1.939   2.926   0.578 -0.3112 -0.0192 -0.0426
  489SOL    HW1 1466   1.902   3.015   0.594  0.1254 -1.2974  2.1972
  489SOL    HW2 1467   1.957   2.921   0.477  1.7673 -1.9505 -2.1478
  490SOL     OW 1468   1.726   2.840   3.002  0.5248  0.6730 -0.2075
  490SOL    HW1 1469   1.829   2.853   2.999  0.4448  2.0701  0.3992
  490SOL    HW2 1470   1.699   2.853   3.101  0.0829  0.6168  1.6688
  491SOL     OW 1471   0.758   0.329   1.089 -0.2639  0.2122 -0.5704
  491SOL    HW1 1472   0.845   0.275   1.104  1.2920 -0.6527 -2.1695
  491SOL    HW2 1473   0.680   0.288   1.140 -0.5438 -0.7095 -3.9350
  492SOL     OW 1474   1.743   0.002   0.305 -0.3489 -0.3166  0.0171
  492SOL    HW1 1475   1.673   3.069   0.361 -2.8119 -0.0788  1.0031
  492SOL    HW2 1476   1.791   3.047   0.249  1.1808 -0.2964  0.0046
  493SOL     OW 1477   1.808   2.337   2.860  0.0305  0.1670 -0.8671
  493SOL    HW1 1478   1.733   2.357   2.793  2.1003 -0.0056  2.4917
  493SOL    HW2 1479   1.894   2.359   2.812 -1.5303  1.9252 -3.3274
  494SOL     OW 1480   0.448   1.107   0.872 -0.1202 -0.8814 -0.0337
  494SOL    HW1 1481   0.517   1.130   0.942  2.1758 -2.6042 -0.7918
  494SOL    HW2 1482   0.487   1.049   0.797 -1.9251 -1.2603 -2.0765
  495SOL     OW 1483   2.940   0.123   1.760  0.0808  0.2300  0.1173
  495SOL    HW1 1484   3.039   0.155   1.777  2.0678 -1.1197  1.6340
  495SOL    HW2 1485   2.935   0.064   1.679 -0.2331  3.1076 -1.0668
  496SOL     OW 1486   2.640   2.325   2.218  0.0136 -0.4750 -0.0764
  496SOL    HW1 1487   2.683   2.372   2.136 -0.0771  1.4744 -0.2519
  496SOL    HW2 1488   2.545   2.291   2.197 -0.5732 -1.0158  1.3954
  497SOL     OW 1489   1.501   1.185   2.526 -0.4014  0.8687  0.2602
  497SOL    HW1 1490   1.487   1.227   2.435  0.1213 -0.9248 -1.6221
  497SOL    HW2 1491   1.543   1.091   2.513  0.7186 -4.7471 -0.7291
  498SOL     OW 1492   0.721   1.823   0.828 -0.1099 -0.3448  0.0136
  498SOL    HW1 1493   0.660   1.812   0.909 -0.8415 -0.2763 -0.2842
  498SOL    HW2 1494   0.673   1.885   0.763  0.2793  0.0830 -0.2069
  499SOL     OW 1495   0.265   1.693   1.226  0.5307  0.0742  0.3308
  499SOL    HW1 1496   0.170   1.704   1.190 -0.7737 -0.6597 -1.4425
  499SOL    HW2 1497   0.281   1.749   1.306 -1.7072  1.9147 -0.4690
  500SOL     OW 1498   1.289   2.445   0.066 -0.3723  0.1790  0.2699
  500SOL    HW1 1499   1.285   2.520   0.138 -2.4385  2.3566  3.0893
  500SOL    HW2 1500   1.233   2.364   0.089 -0.7953 -1.6773  1.6848
  501SOL     OW 1501   2.032   2.576   0.903 -0.7624  0.0786 -0.2908
  501SOL    HW1 1502   2.128   2.591   0.865 -0.4302  0.8346  0.4019
  501SOL    HW2 1503   1.963   2.625   0.848 -1.1433  1.6733 -0.0105
  502SOL     OW 1504   0.203   0.830   1.483 -0.1040 -0.1318  0.5183
  502SOL    HW1 1505   0.160   0.818   1.388  0.2776  0.2400 -0.7144
  502SOL    HW2 1506   0.256   0.748   1.515  1.5246  1.7341  0.4074
  503SOL     OW 1507   2.158   0.065   1.690  0.1091 -0.1363  0.3593
  503SOL    HW1 1508   2.081   0.034   1.626 -2.1323 -1.1566  1.7840
  503SOL    HW2 1509   2.228   3.103   1.701 -1.1491 -0.5882  2.3876
  504SOL     OW 1510   2.030   0.827   1.940  0.2407  0.1330  0.0920
  504SOL    HW1 1511   2.018   0.799   2.034  3.0913  0.5097 -3.1951
  504SOL    HW2 1512   1.979   0.915   1.920  0.5037  1.8144 -0.0129
  505SOL     OW 1513   1.284   3.054   2.088  0.3542 -0.0689  0.3302
  505SOL    HW1 1514   1.299   0.031   2.052  1.1164 -0.1741 -0.5869
  505SOL    HW2 1515   1.347   3.021   2.160  1.1299 -1.3367 -3.7482
  506SOL     OW 1516   0.358   0.250   1.861  0.3131  0.1304 -0.1957
  506SOL    HW1 1517   0.384   0.342   1.812  3.0721  1.0251 -0.2080
  506SOL    HW2 1518   0.446   0.208   1.887  1.4345 -0.8255  0.0934
  507SOL     OW 1519   1.605   0.137   0.002 -0.3252 -0.2700 -0.1199
  507SOL    HW1 1520   1.671   0.198   0.047  1.4971 -1.0860 -2.6119
  507SOL    HW2 1521   1.567   0.071   0.067 -2.0791  0.3445 -0.8818
  508SOL     OW 1522   2.249   0.485   2.507 -0.4491 -0.5960  0.0202
  508SOL    HW1 1523   2.267   0.450   2.602  0.3155 -1.8233  0.2556
  508SOL    HW2 1524   2.337   0.513   2.458  1.5596  0.1876 -1.9998
  509SOL     OW 1525   0.679   1.579   1.952  0.3349  0.0748  0.0230
  509SOL    HW1 1526   0.712   1.586   2.047 -0.6758 -1.7824 -0.8154
  509SOL    HW2 1527   0.727   1.647   1.894 -1.9778 -0.3698  2.2219
  510SOL     OW 1528   2.992   0.408   1.011  0.4041 -0.3340  0.4501
  510SOL    HW1 1529   3.049   0.489   0.982 -0.4511  0.7698  1.1975
  510SOL    HW2 1530   2.951   0.365   0.928 -3.0352 -2.1622 -0.7921
  511SOL     OW 1531   1.706   1.534   1.104  0.3792 -0.1411 -0.1076
  511SOL    HW1 1532   1.709   1.611   1.040  0.6966 -2.0726  0.9482
  511SOL    HW2 1533   1.768   1.544   1.187  0.2082 -0.2041  0.0907
  512SOL     OW 1534   0.653   1.321   0.290  1.0206  0.0719  0.4092
  512SOL    HW1 1535   0.567   1.277   0.322  2.5605 -0.0101  0.2530
  512SOL    HW2 1536   0.662   1.413   0.331 -0.0241  1.1296 -0.5112
  513SOL     OW 1537   0.365   2.274   0.878  0.0205  0.0197  0.5767
  513SOL    HW1 1538   0.322   2.338   0.942  3.8561 -1.4409 -2.8067
  513SOL    HW2 1539   0.374   2.326   0.789  0.5474 -1.2343 -0.0303
  514SOL     OW 1540   0.054   2.149   0.111  0.3990  0.3871  0.2153
  514SOL    HW1 1541   3.074   2.138   0.151 -1.4622  0.7033 -0.0808
  514SOL    HW2 1542   0.125   2.089   0.153 -1.0492 -0.0958 -1.2427
  515SOL     OW 1543   2.845   0.209   0.105 -0.2272  0.1469 -0.3489
  515SOL    HW1 1544   2.786   0.129   0.131 -0.3356  1.1593  0.8325
  515SOL    HW2 1545   2.920   0.218   0.170 -1.3391  1.1151  1.7273
  516SOL     OW 1546   2.116   3.066   0.986  0.5776  0.3247 -0.2250
  516SOL    HW1 1547   2.125   3.002   1.064  0.8106  0.1823  2.0403
  516SOL    HW2 1548   2.134   3.019   0.900  3.3925 -0.0438 -1.5959
  517SOL     OW 1549   1.279   1.514   0.271 -0.2858 -0.2085 -0.2691
  517SOL    HW1 1550   1.353   1.465   0.320  3.0743  0.4762 -0.3182
  517SOL    HW2 1551   1.186   1.486   0.309 -0.8331 -0.1753  0.4268
  518SOL     OW 1552   1.321   0.780   1.474 -0.4583 -0.3286 -0.1625
  518SOL    HW1 1553   1.319   0.731   1.559  0.4274  0.9660 -0.3445
  518SOL    HW2 1554   1.229   0.806   1.447  1.8727 -0.0367  1.5239
  519SOL     OW 1555   2.788   2.387   0.314  0.2888  0.0648 -0.2530
  519SOL    HW1 1556   2.766   2.290   0.303 -0.5543  3.3612 -1.9079
  519SOL    HW2 1557   2.790   2.412   0.409  1.9135 -0.8384 -2.2902
  520SOL     OW 1558   2.300   2.132   1.741  0.1434 -0.6361 -0.3050
  520SOL    HW1 1559   2.359   2.098   1.666  0.9575  1.5448  0.7433
  520SOL    HW2 1560   2.304   2.238   1.742  1.3407  3.6456  1.7551
  521SOL     OW 1561   1.464   2.967   2.291  0.4320 -0.0941 -0.0540
  521SOL    HW1 1562   1.482   2.971   2.390  2.0699 -0.7810 -1.1425
  521SOL    HW2 1563   1.542   3.004   2.235 -1.2452  1.4639  0.5668
  522SOL     OW 1564   2.859   0.092   2.022 -0.1475 -0.4309 -0.0266
  522SOL    HW1 1565   2.929   0.170   2.030  2.6459  1.3856  2.7281
  522SOL    HW2 1566   2.865   0.052   1.931  0.2727  1.5497 -0.2118
  523SOL     OW 1567   1.329   2.047   1.553 -0.7886  0.3784 -0.4701
  523SOL    HW1 1568   1.281   2.094   1.631 -0.1256  1.8952 -1.4337
  523SOL    HW2 1569   1.269   2.032   1.476 -0.1635  1.9678  2.3091
  524SOL     OW 1570   2.164   2.415   2.883 -0.2845  0.0268 -0.1887
  524SOL    HW1 1571   2.260   2.378   2.882 -1.3820 -0.8334 -0.7878
  524SOL    HW2 1572   2.132   2.413   2.982  0.6386 -1.1607 -0.4163
  525SOL     OW 1573   2.926   0.884   0.484 -0.4540  0.3751 -0.5635
  525SOL    HW1 1574   2.981   0.858   0.402  1.2228 -0.5947 -1.0986
  525SOL    HW2 1575   2.843   0.827   0.485 -1.4559  0.4207  0.2666
  526SOL     OW 1576   1.067   2.857   0.842  0.0990  0.4234  0.1343
  526SOL    HW1 1577   1.142   2.875   0.776  0.5885  0.6305  0.1657
  526SOL    HW2 1578   1.054   2.757   0.858  1.1184 -5.2286  0.9469
  527SOL     OW 1579   2.167   1.537   0.616 -0.0504  0.6322 -0.3911
  527SOL    HW1 1580   2.165   1.434   0.607 -0.8910  2.4310  0.6329
  527SOL    HW2 1581   2.220   1.577   0.545 -1.1420  0.3748  1.9594
  528SOL     OW 1582   0.477   0.842   2.579 -0.4680  0.6494 -0.3401
  528SOL    HW1 1583   0.544   0.899   2.528 -0.1714 -1.9612 -0.8639
  528SOL    HW2 1584   0.411   0.787   2.524 -1.1699 -0.7092 -0.1522
  529SOL     OW 1585   0.534   1.459   3.068  0.3473  0.2879  0.3860
  529SOL    HW1 1586   0.450   1.477   3.009 -1.4897 -1.9767 -0.0612
  529SOL    HW2 1587   0.517   1.372   0.003 -0.6872  0.2806  0.9916
  530SOL     OW 1588   1.407   1.091   1.897 -0.1488 -0.0867  0.0573
  530SOL    HW1 1589   1.509   1.079   1.914  0.9459 -0.1702 -1.2136
  530SOL    HW2 1590   1.362   1.018   1.944  1.0463 -0.3045  3.7953
  531SOL     OW 1591   1.300   2.209   2.783  0.0532  0.5646 -0.5004
  531SOL    HW1 1592   1.220   2.150   2.759  0.4917  4.4377  0.0441
  531SOL    HW2 1593   1.339   2.190   2.873 -0.3231  2.6127  1.9694
  532SOL     OW 1594   2.332   0.726   0.129  0.4505 -0.4237  0.3136
  532SOL    HW1 1595   2.347   0.813   0.083  0.9994 -1.2950  1.3506
  532SOL    HW2 1596   2.397   0.657   0.094  0.6357  1.6542  0.5107
  533SOL     OW 1597   3.022   0.536   1.841  0.1330  0.0943  0.4602
  533SOL    HW1 1598   3.023   0.540   1.739  0.3983  0.6815 -3.8843
  533SOL    HW2 1599   2.953   0.596   1.882  3.2515 -0.5307  1.1529
  534SOL     OW 1600   1.763   0.251   0.191  0.1911 -0.3517 -0.1776
  534SOL    HW1 1601   1.766   0.152   0.204  1.0554  1.4263  1.7459
  534SOL    HW2 1602   1.862   0.287   0.187 -0.0477  0.0716 -1.0315
  535SOL     OW 1603   0.622   0.310   0.009  0.0367  0.1715  0.8216
  535SOL    HW1 1604   0.712   0.303   3.080 -2.8480  1.8753 -1.3261
  535SOL    HW2 1605   0.547   0.257   3.078 -1.0882 -0.5648  1.4326
  536SOL     OW 1606   0.328   1.655   1.671 -0.0273  0.0236 -0.3571
  536SOL    HW1 1607   0.305   1.757   1.669 -1.5749 -4.1097 -1.5854
  536SOL    HW2 1608   0.420   1.638   1.638  0.9801  1.1905 -1.1320
  537SOL     OW 1609   0.348   2.729   1.927  0.7259 -0.4532 -0.3028
  537SOL    HW1 1610   0.436   2.698   1.881  1.7417 -1.2451  0.8802
  537SOL    HW2 1611   0.345   2.824   1.964  0.3448 -0.8124  1.9830
  538SOL     OW 1612   2.911   2.125   0.172  0.5574  0.5067  0.5181
  538SOL    HW1 1613   2.845   2.204   0.157  0.9210  1.9463  1.0573
  538SOL    HW2 1614   2.877   2.037   0.130 -0.6486 -3.0648  2.5884
  539SOL     OW 1615   2.750   0.731   2.845 -0.6950 -0.3432  0.2307
  539SOL    HW1 1616   2.754   0.687   2.751 -1.2826 -0.5288 -0.7794
  539SOL    HW2 1617   2.811   0.685   2.904 -2.0329  1.0223 -1.7435
  540SOL     OW 1618   1.694   0.844   0.121 -1.1417 -0.5381 -0.0080
  540SOL    HW1 1619   1.746   0.933   0.133  0.4601  1.4079  1.8594
  540SOL    HW2 1620   1.593   0.850   0.118  1.4003 -1.6837 -0.0893
  541SOL     OW 1621   0.832   0.447   1.612  0.1559  0.6615  0.5651
  541SOL    HW1 1622   0.817   0.461   1.710  0.0333 -1.6993  2.5261
  541SOL    HW2 1623   0.783   0.517   1.560 -0.1974 -0.3303  3.3304
  542SOL     OW 1624   1.817   2.421   2.270  0.2446 -0.8612  0.1787
  542SOL    HW1 1625   1.845   2.484   2.192  0.5416  1.7772 -1.5001
  542SOL    HW2 1626   1.854   2.328   2.251 -1.0047 -0.9333  3.4417
  543SOL     OW 1627   0.810   2.930   0.718  0.3068  0.1512  0.5067
  543SOL    HW1 1628   0.817   2.910   0.616  2.3142 -0.0068 -2.8719
  543SOL    HW2 1629   0.905   2.947   0.752  0.0944 -0.0044  0.2713
  544SOL     OW 1630   2.677   1.605   2.294 -0.2430 -0.3884 -0.4252
  544SOL    HW1 1631   2.732   1.625   2.213 -0.7665 -0.3222  3.3816
  544SOL    HW2 1632   2.722   1.635   2.380  0.1692  1.9398 -0.9175
  545SOL     OW 1633   1.612   2.059   1.417 -0.4085  0.6722 -0.4182
  545SOL    HW1 1634   1.539   2.091   1.356  2.3567  0.8549  1.5382
  545SOL    HW2 1635   1.574   1.998   1.492 -0.0498 -0.0492 -0.1684
  546SOL     OW 1636   0.434   0.131   2.407  0.1234 -0.2369 -0.6140
  546SOL    HW1 1637   0.352   0.069   2.408 -0.7398 -2.5318  2.3231
  546SOL    HW2 1638   0.426   0.197   2.483 -0.3477  2.3190  0.2798
  547SOL     OW 1639   1.460   0.287   0.574  0.0959  0.2614 -0.0716
  547SOL    HW1 1640   1.406   0.363   0.535  0.6879 -1.2191 -0.0974
  547SOL    HW2 1641   1.422   0.261   0.665  0.3214  0.0161 -1.4235
  548SOL     OW 1642   1.361   2.151   3.045  0.2261 -0.1855  0.0246
  548SOL    HW1 1643   1.286   2.098   3.082 -0.4820 -0.4026 -0.7766
  548SOL    HW2 1644   1.403   2.197   0.009 -0.6697 -0.2270 -0.8856
  549SOL     OW 1645   1.762   1.129   0.255  0.2455  0.2355 -0.5344
  549SOL    HW1 1646   1.695   1.108   0.331  0.0241  0.1960 -1.0992
  549SOL    HW2 1647   1.862   1.153   0.277  2.0932 -0.6908  1.6207
  550SOL     OW 1648   2.367   2.059   0.298 -0.3830 -0.7102  0.5466
  550SOL    HW1 1649   2.283   2.007   0.333 -0.5896  2.2742  3.5690
  550SOL    HW2 1650   2.377   2.138   0.356 -0.8134  0.1036  0.3995
  551SOL     OW 1651   1.480   0.551   1.591 -0.1681 -0.0498 -0.2489
  551SOL    HW1 1652   1.482   0.568   1.486 -1.1160  0.5888  0.1678
  551SOL    HW2 1653   1.569   0.569   1.634 -0.1530  1.0510  0.4495
  552SOL     OW 1654   3.011   2.271   2.844 -0.3168 -0.2830 -0.0155
  552SOL    HW1 1655   2.961   2.195   2.804 -1.8719 -0.4092  2.6386
  552SOL    HW2 1656   2.955   2.322   2.910  2.4768 -0.5850 -2.2934
  553SOL     OW 1657   2.856   2.448   0.785  0.4878  0.0798 -0.1166
  553SOL    HW1 1658   2.941   2.409   0.741 -0.6929 -2.4666  2.4151
  553SOL    HW2 1659   2.812   2.381   0.855 -1.5912 -1.4518  3.2648
  554SOL     OW 1660   2.099   1.610   1.766  0.2495  0.1654  0.1054
  554SOL    HW1 1661   2.113   1.540   1.837  1.6476  0.9371  1.7301
  554SOL    HW2 1662   2.008   1.654   1.775  1.1783  1.0822  1.4933
  555SOL     OW 1663   1.530   2.116   2.262  0.0381 -0.3146  0.2979
  555SOL    HW1 1664   1.447   2.060   2.236 -2.1018 -0.4035  1.9132
  555SOL    HW2 1665   1.535   2.204   2.210 -1.0126  0.7031 -1.8981
  556SOL     OW 1666   1.283   1.611   1.453 -0.2981  0.0713 -0.1105
  556SOL    HW1 1667   1.318   1.672   1.526  1.0652 -0.6538 -0.1567
  556SOL    HW2 1668   1.335   1.517   1.454  0.2611  1.1546 -1.3720
  557SOL     OW 1669   1.571   3.037   1.639 -0.2223 -0.1409 -0.1823
  557SOL    HW1 1670   1.660   3.077   1.666 -0.9762 -1.4143  1.2670
  557SOL    HW2 1671   1.495   3.098   1.671  0.5526  1.1529  0.2345
  558SOL     OW 1672   0.575   2.998   2.152 -0.2287 -0.5094  0.0362
  558SOL    HW1 1673   0.475   3.002   2.119  1.4615 -0.4171 -2.1710
  558SOL    HW2 1674   0.590   3.072   2.216 -2.6124  0.7041  0.0520
  559SOL     OW 1675   2.063   2.417   0.025  0.0707  0.1111  0.5195
  559SOL    HW1 1676   1.961   2.437   0.020 -0.0530  0.5513 -1.9847
  559SOL    HW2 1677   2.097   2.449   0.110 -4.3235  0.2613  0.0340
  560SOL     OW 1678   1.301   2.113   0.250  0.2964  0.4292  0.1851
  560SOL    HW1 1679   1.293   2.031   0.318  0.0985 -1.8939 -0.5636
  560SOL    HW2 1680   1.403   2.130   0.229  0.1214  1.0500 -0.4433
  561SOL     OW 1681   1.258   0.205   2.966  0.0603  0.3326 -0.0046
  561SOL    HW1 1682   1.232   0.303   2.971  0.3803 -3.8663  2.4592
  561SOL    HW2 1683   1.354   0.204   2.928  0.2540  0.8662  1.1834
  562SOL     OW 1684   0.336   1.428   2.199  0.1171 -0.0359  0.5241
  562SOL    HW1 1685   0.320   1.366   2.118  0.1082 -1.2060 -0.8758
  562SOL    HW2 1686   0.425   1.412   2.248  0.7396 -1.5584  2.2857
  563SOL     OW 1687   1.323   1.916   2.538 -0.4895  0.1595  0.2611
  563SOL    HW1 1688   1.402   1.882   2.488  2.2012  0.3491  0.1245
  563SOL    HW2 1689   1.334   2.018   2.545  2.0078  1.7867 -2.7884
  564SOL     OW 1690   2.847   1.224   0.703  0.3741  0.1873 -0.6115
  564SOL    HW1 1691   2.776   1.153   0.726 -0.4312  2.2645 -0.2815
  564SOL    HW2 1692   2.870   1.272   0.791  1.3378 -0.4312 -1.0490
  565SOL     OW 1693   0.448   1.186   0.018 -1.0599 -0.3180  0.5048
  565SOL    HW1 1694   0.371   1.208   3.077  3.4741 -2.7883  2.5915
  565SOL    HW2 1695   0.421   1.120   0.094 -0.0452 -1.4808 -0.3825
  566SOL     OW 1696   2.536   2.865   2.812  0.3043 -0.2032 -0.0643
  566SOL    HW1 1697   2.635   2.853   2.823 -3.7295 -1.2009  0.4629
  566SOL    HW2 1698   2.481   2.808   2.878  0.0748  2.4486  3.1008
  567SOL     OW 1699   1.536   1.330   1.192 -0.4632 -0.5341  0.2732
  567SOL    HW1 1700   1.578   1.423   1.180 -3.2929  0.5700  2.0610
  567SOL    HW2 1701   1.606   1.256   1.196 -0.0005  0.2018  0.8136
  568SOL     OW 1702   1.389   1.284   2.784 -0.2667  0.1109 -0.1771
  568SOL    HW1 1703   1.303   1.337   2.779 -0.3703 -1.1993  0.1724
  568SOL    HW2 1704   1.401   1.232   2.700 -0.9358  0.6047  2.6508
  569SOL     OW 1705   2.314   1.670   3.000 -0.5621  0.2732  0.0844
  569SOL    HW1 1706   2.351   1.760   2.965  0.5554  0.4277  0.0484
  569SOL    HW2 1707   2.251   1.682   3.080  1.6314  1.3619 -1.4788
  570SOL     OW 1708   3.059   2.503   1.768 -0.2026  0.0105  0.2113
  570SOL    HW1 1709   3.073   2.549   1.679  1.1709  1.2125 -3.7050
  570SOL    HW2 1710   3.096   2.561   1.843 -1.7143  0.8057  0.3867
  571SOL     OW 1711   3.000   1.950   1.665 -0.3488  0.5070 -0.5374
  571SOL    HW1 1712   3.025   1.852   1.678  0.5474 -1.5987  0.1513
  571SOL    HW2 1713   2.953   1.979   1.748  1.1508  2.1714 -4.2400
  572SOL     OW 1714   1.772   2.187   0.442 -0.3615  0.0104  0.4799
  572SOL    HW1 1715   1.682   2.208   0.407 -0.2271  0.0741 -1.4539
  572SOL    HW2 1716   1.818   2.116   0.383  1.8415 -0.7435 -0.7274
  573SOL     OW 1717   1.344   1.942   0.459  0.5424  0.1150  0.5613
  573SOL    HW1 1718   1.442   1.964   0.488  2.1771  1.5448 -1.0491
  573SOL    HW2 1719   1.285   1.920   0.543 -0.7077 -0.8847  1.5022
  574SOL     OW 1720   1.604   2.999   1.368  0.0151  0.4364  0.1255
  574SOL    HW1 1721   1.652   2.907   1.349  1.9952 -1.6295 -1.3763
  574SOL    HW2 1722   1.568   3.001   1.457  3.3294  2.3122 -0.6829
  575SOL     OW 1723   0.614   1.391   1.413  0.5906  0.0722 -0.2650
  575SOL    HW1 1724   0.709   1.377   1.449 -2.1003 -0.7740  2.1378
  575SOL    HW2 1725   0.605   1.380   1.315 -2.0287 -0.2306  1.8177
  576SOL     OW 1726   2.689   0.706   1.394  0.0122  0.3489  0.0889
  576SOL    HW1 1727   2.743   0.620   1.425  3.0313 -1.8896  1.5010
  576SOL    HW2 1728   2.653   0.696   1.300 -2.3356  1.1611  3.1494
  577SOL     OW 1729   1.521   0.910   2.519 -0.2095  0.1131  0.0228
  577SOL    HW1 1730   1.441   0.921   2.578  1.4592 -0.6946 -3.2288
  577SOL    HW2 1731   1.504   0.862   2.434  1.3277  1.4346 -0.1331
  578SOL     OW 1732   2.198   1.357   2.619 -0.0376 -0.2916  0.3562
  578SOL    HW1 1733   2.121   1.311   2.659  3.4589  0.1995 -3.5900
  578SOL    HW2 1734   2.164   1.430   2.559  1.9115 -1.2027  1.2787
  579SOL     OW 1735   0.920   1.886   1.446  0.6905 -0.4407 -0.7913
  579SOL    HW1 1736   0.856   1.922   1.517  0.9969  0.4431  0.1759
  579SOL    HW2 1737   0.875   1.889   1.353  0.4452 -4.0932 -1.1438
  580SOL     OW 1738   1.533   2.196   0.169 -0.7179 -0.0737  0.8409
  580SOL    HW1 1739   1.562   2.292   0.172 -2.2565 -1.7158 -1.4783
  580SOL    HW2 1740   1.613   2.142   0.133  1.0381  2.1899  2.6573
  581SOL     OW 1741   1.028   0.507   1.941 -0.1972  0.1917 -0.1082
  581SOL    HW1 1742   0.933   0.475   1.922 -1.3193  1.1067 -1.1411
  581SOL    HW2 1743   1.073   0.432   1.995 -0.1228 -0.8075 -1.0714
  582SOL     OW 1744   0.993   1.334   1.245  0.6800  0.0974 -0.3363
  582SOL    HW1 1745   1.040   1.246   1.253  0.8816 -1.6852 -1.1129
  582SOL    HW2 1746   0.965   1.362   1.340 -2.0901  0.0757  0.0226
  583SOL     OW 1747   0.574   1.068   2.025 -0.0250 -0.3163  0.3229
  583SOL    HW1 1748   0.498   1.076   1.960 -0.4970  1.4949 -0.2140
  583SOL    HW2 1749   0.595   1.165   2.064 -0.3177  2.0554 -0.3106
  584SOL     OW 1750   1.994   2.498   0.355  0.2717 -0.2356 -0.3048
  584SOL    HW1 1751   2.036   2.466   0.446 -1.8825  0.4588  1.5155
  584SOL    HW2 1752   1.898   2.468   0.355  5.5126  1.1938 -0.0654
  585SOL     OW 1753   1.922   0.200   2.954 -0.4074 -0.4571  0.0228
  585SOL    HW1 1754   1.844   0.241   3.007  2.1156  0.6534  1.3277
  585SOL    HW2 1755   1.888   0.177   2.861 -1.5366  1.7740 -0.8292
  586SOL     OW 1756   3.042   2.047   0.471 -0.0181  0.3992  0.0701
  586SOL    HW1 1757   2.962   2.104   0.441 -4.4798 -1.5004 -1.5541
  586SOL    HW2 1758   3.066   2.061   0.567  3.4299 -1.2537 -1.7023
  587SOL     OW 1759   1.759   1.837   0.323 -0.7138  0.1817  0.8700
  587SOL    HW1 1760   1.823   1.758   0.352 -1.1738 -0.4424  0.8076
  587SOL    HW2 1761   1.807   1.916   0.275  1.0142 -1.4180 -2.3672
  588SOL     OW 1762   0.249   0.367   0.707 -0.9061 -0.3227  0.3476
  588SOL    HW1 1763   0.209   0.321   0.790 -1.7821 -2.9406  0.9392
  588SOL    HW2 1764   0.299   0.302   0.648 -0.9986 -0.2692 -2.3916
  589SOL     OW 1765   1.198   1.066   0.956 -0.5588  0.5765  0.0565
  589SOL    HW1 1766   1.276   1.039   0.900  0.4024  1.0850  0.4082
  589SOL    HW2 1767   1.172   0.994   1.021 -0.7367 -0.5345 -1.4304
  590SOL     OW 1768   1.373   1.090   0.055  0.6396 -0.0221  0.1607
  590SOL    HW1 1769   1.426   1.166   0.099 -1.9685 -1.0310 -0.6263
  590SOL    HW2 1770   1.281   1.128   0.033 -1.6753 -0.3723 -0.7869
  591SOL     OW 1771   2.501   2.321   2.494  0.1686 -0.0719  0.5077
  591SOL    HW1 1772   2.411   2.380   2.478 -0.9209  2.3978  1.1254
  591SOL    HW2 1773   2.569   2.351   2.425 -0.7179  0.2654  0.8230
  592SOL     OW 1774   1.811   2.032   1.266  0.0416  0.1028 -0.4032
  592SOL    HW1 1775   1.852   1.944   1.228 -0.2320 -0.2076 -0.8637
  592SOL    HW2 1776   1.739   2.010   1.334  0.3453  1.4481  1.6520
  593SOL     OW 1777   0.981   0.168   1.115  0.2218 -0.0733 -0.1639
  593SOL    HW1 1778   1.026   0.112   1.044  0.8560 -4.1616  0.8786
  593SOL    HW2 1779   0.982   0.118   1.203 -0.5076 -2.3208  1.8933
  594SOL     OW 1780   2.993   0.662   2.375  0.3513  0.1652 -0.0214
  594SOL    HW1 1781   3.010   0.719   2.292 -0.7675  0.1459 -0.4655
  594SOL    HW2 1782   3.011   0.564   2.352 -0.9216 -2.9457  1.9194
  595SOL     OW 1783   0.693   2.633   1.184  0.3302  0.4527 -0.1125
  595SOL    HW1 1784   0.614   2.655   1.128  1.0896  0.5731  0.4899
  595SOL    HW2 1785   0.662   2.605   1.282  0.6615  0.5351  1.7827
  596SOL     OW 1786   0.037   0.842   1.240  0.4760  0.8673 -0.1763
  596SOL    HW1 1787   0.052   0.862   1.140  0.7785  1.7837  1.5065
  596SOL    HW2 1788   3.064   0.887   1.263 -2.6789 -2.2589  0.8350
  597SOL     OW 1789   1.589   1.726   0.151 -0.2713 -0.2485 -0.3152
  597SOL    HW1 1790   1.498   1.762   0.179 -0.2165  0.4710  0.6559
  597SOL    HW2 1791   1.664   1.753   0.220  5.3906  2.0578 -1.3629
  598SOL     OW 1792   0.569   2.855   1.655  0.4741 -0.2048 -0.0826
  598SOL    HW1 1793   0.529   2.843   1.563  0.4091  0.0803 -2.5133
  598SOL    HW2 1794   0.600   2.769   1.690 -0.9867  1.2591 -2.3472
  599SOL     OW 1795   2.471   1.886   2.936  0.1725  0.0770 -0.2847
  599SOL    HW1 1796   2.413   1.931   2.865 -1.0519 -2.2923 -0.1782
  599SOL    HW2 1797   2.553   1.846   2.896 -2.4430  0.5297 -0.5855
  600SOL     OW 1798   0.855   0.848   0.251 -0.5780 -0.4689 -0.1230
  600SOL    HW1 1799   0.873   0.942   0.292  0.1935 -1.9220  2.8322
  600SOL    HW2 1800   0.861   0.775   0.319 -0.9539  1.5328 -2.1315
  601SOL     OW 1801   0.809   0.732   0.483  0.4184 -0.1079 -0.0673
  601SOL    HW1 1802   0.836   0.818   0.532  0.7447 -0.0111 -0.3627
  601SOL    HW2 1803   0.855   0.650   0.516 -1.1135  0.9174  0.3089
  602SOL     OW 1804   1.408   2.914   0.776 -0.1832 -0.0234  0.2758
  602SOL    HW1 1805   1.467   2.997   0.758 -0.5615 -0.4397 -1.4112
  602SOL    HW2 1806   1.330   2.906   0.713  0.3608 -2.0690  0.1229
  603SOL     OW 1807   0.712   2.766   2.055 -0.2403 -0.6587  0.1851
  603SOL    HW1 1808   0.669   2.850   2.091 -0.9242 -1.4301  0.5983
  603SOL    HW2 1809   0.802   2.785   2.015 -0.8072 -1.4504 -0.7128
  604SOL     OW 1810   2.892   2.954   2.339  0.2369  0.1362  0.6065
  604SOL    HW1 1811   2.956   2.998   2.275 -3.6412  1.4643  1.1889
  604SOL    HW2 1812   2.928   2.870   2.376 -2.7239  0.2420 -1.6128
  605SOL     OW 1813   2.658   2.137   1.335  0.1678 -0.3218  0.4291
  605SOL    HW1 1814   2.703   2.139   1.426  1.1685  1.3538  3.5151
  605SOL    HW2 1815   2.589   2.058   1.333 -2.8153  1.1200  1.8165
  606SOL     OW 1816   0.344   1.595   2.876  0.1422 -0.4384  0.2988
  606SOL    HW1 1817   0.313   1.674   2.934  1.6225 -1.7768 -0.2071
  606SOL    HW2 1818   0.276   1.564   2.804 -0.9969 -1.9499 -0.3966
  607SOL     OW 1819   0.837   0.002   0.374 -0.1537  0.2742  0.1491
  607SOL    HW1 1820   0.781   0.028   0.292  0.4225  0.3454 -1.9756
  607SOL    HW2 1821   0.931   0.047   0.369 -1.9159 -0.6946  1.3113
  608SOL     OW 1822   1.957   1.251   2.422 -0.2176  0.0664 -0.4171
  608SOL    HW1 1823   1.929   1.227   2.519 -1.3469  0.6150  1.6838
  608SOL    HW2 1824   1.884   1.239   2.349  0.4094 -0.8044  2.5851
  609SOL     OW 1825   0.115   0.243   0.938 -0.5388 -0.5537  0.0070
  609SOL    HW1 1826   0.143   0.174   1.007 -1.3344  1.2721 -0.4362
  609SOL    HW2 1827   0.036   0.296   0.975 -2.4674 -0.0017 -1.0977
  610SOL     OW 1828   0.568   2.756   0.539 -0.0220  0.0672  0.0275
  610SOL    HW1 1829   0.664   2.725   0.529 -1.8263 -0.4978  0.9157
  610SOL    HW2 1830   0.539   2.748   0.636 -1.6729  1.8407 -1.6392
  611SOL     OW 1831   1.785   1.010   2.906  0.0526  0.2126  0.4573
  611SOL    HW1 1832   1.853   1.021   2.983  0.6869 -1.0239  2.0888
  611SOL    HW2 1833   1.698   1.054   2.937 -0.6453  2.6752  1.9191
  612SOL     OW 1834   0.867   2.279   2.349 -0.0858 -0.3109  0.0123
  612SOL    HW1 1835   0.856   2.192   2.405 -1.3923 -0.7620 -0.1362
  612SOL    HW2 1836   0.827   2.365   2.392 -0.1847  1.8149  0.3048
  613SOL     OW 1837   0.911   2.407   0.181 -0.1236 -0.1199 -0.5550
  613SOL    HW1 1838   0.848   2.353   0.241  2.6140 -1.5486  0.6363
  613SOL    HW2 1839   0.985   2.355   0.142 -1.8778  0.1096  1.4806
  614SOL     OW 1840   2.786   2.743   1.428 -0.0528 -0.2680 -0.0298
  614SOL    HW1 1841   2.856   2.813   1.407  1.8157  1.4353 -0.4146
  614SOL    HW2 1842   2.799   2.665   1.368 -0.2117  2.7349 -0.6049
  615SOL     OW 1843   2.422   1.418   3.072 -0.1876  0.4132  0.7026
  615SOL    HW1 1844   2.421   1.511   3.038  1.3066 -2.9808 -0.3134
  615SOL    HW2 1845   2.365   1.360   3.009 -2.3321  0.4105 -0.7171
  616SOL     OW 1846   1.712   0.226   0.510  0.0673  0.0137 -0.2680
  616SOL    HW1 1847   1.714   0.178   0.417 -2.4464 -3.4417 -1.5345
  616SOL    HW2 1848   1.613   0.237   0.543 -1.2233 -0.5672  0.1876
  617SOL     OW 1849   1.077   0.993   3.058 -0.5235  0.3952  0.2190
  617SOL    HW1 1850   1.084   1.006   2.955 -1.3433  0.6248  1.6204
  617SOL    HW2 1851   1.019   0.911   3.069  2.5602  0.4003  0.9915
  618SOL     OW 1852   0.667   0.157   1.844 -0.2249 -0.1441 -0.1359
  618SOL    HW1 1853   0.734   0.129   1.915 -0.5456  1.9432  0.4523
  618SOL    HW2 1854   0.602   0.082   1.814  1.9281 -1.3240  0.7944
  619SOL     OW 1855   2.840   1.224   1.344  0.2499 -0.4549 -0.3305
  619SOL    HW1 1856   2.918   1.268   1.293 -0.3168 -2.0377  1.9007
  619SOL    HW2 1857   2.864   1.210   1.442  0.6498  1.6137 -2.4492
  620SOL     OW 1858   2.152   0.992   2.906  0.0843  0.2179  0.5524
  620SOL    HW1 1859   2.109   0.939   2.828 -0.0807  3.0289  0.7377
  620SOL    HW2 1860   2.102   0.988   2.995  0.9508 -0.8909 -2.2871
  621SOL     OW 1861   2.521   2.781   1.364  0.3014 -0.3263 -0.1674
  621SOL    HW1 1862   2.527   2.765   1.262  0.3083 -2.3063  0.4405
  621SOL    HW2 1863   2.613   2.765   1.404 -0.3947  0.8275 -1.4787
  622SOL     OW 1864   1.302   0.964   2.684  0.6949  0.2071  1.0826
  622SOL    HW1 1865   1.224   1.032   2.687 -2.9884  2.3208 -0.7612
  622SOL    HW2 1866   1.315   0.924   2.776 -2.4534  0.1537 -3.9093
  623SOL     OW 1867   1.238   0.471   2.987  0.7589 -0.5117 -0.5645
  623SOL    HW1 1868   1.320   0.508   3.038 -1.9316  1.2538  2.0501
  623SOL    HW2 1869   1.231   0.519   2.899 -1.5679  0.5606  1.9431
  624SOL     OW 1870   1.836   0.635   0.197  0.0710 -0.3294 -0.0573
  624SOL    HW1 1871   1.779   0.716   0.163  0.7801 -0.5810 -0.5989
  624SOL    HW2 1872   1.918   0.606   0.141  2.3292 -2.9599 -0.2760
  625SOL     OW 1873   1.148   1.330   0.988 -0.1512 -0.1993  0.9971
  625SOL    HW1 1874   1.172   1.231   0.963 -1.4253 -1.6807  2.3978
  625SOL    HW2 1875   1.074   1.332   1.052  0.1917 -1.1010 -3.2648
  626SOL     OW 1876   1.551   1.131   2.965 -0.1677  0.1320 -0.0524
  626SOL    HW1 1877   1.489   1.088   3.030  0.5637  1.8697  2.1319
  626SOL    HW2 1878   1.500   1.163   2.885  5.6784 -0.1051  2.4552
  627SOL     OW 1879   1.020   3.035   2.059 -0.5259 -0.0826 -0.6474
  627SOL    HW1 1880   1.006   2.938   2.027 -0.4831  1.3140 -1.2429
  627SOL    HW2 1881   1.121   3.058   2.062  1.0274  3.5198 -1.4430
  628SOL     OW 1882   2.413   0.116   2.198  0.8465 -0.1712  0.0373
  628SOL    HW1 1883   2.471   0.148   2.122 -0.7606  1.8115  1.3797
  628SOL    HW2 1884   2.468   0.129   2.283  2.3438 -0.8398 -0.1104
  629SOL     OW 1885   0.719   0.858   2.962  0.6220 -0.6400  0.5599
  629SOL    HW1 1886   0.763   0.863   2.876  0.4936 -0.3817  2.6979
  629SOL    HW2 1887   0.779   0.809   3.025 -2.6241 -0.1137 -3.9549
  630SOL     OW 1888   1.404   0.198   2.034  0.3770  0.6979  0.3584
  630SOL    HW1 1889   1.470   0.240   2.102 -0.4778  0.8027  2.2430
  630SOL    HW2 1890   1.456   0.167   1.949  3.4462 -0.4071 -4.1711
  631SOL     OW 1891   3.040   0.569   0.618 -0.5783 -0.8115 -0.1094
  631SOL    HW1 1892   2.975   0.524   0.554 -0.1873  1.4867  1.5326
  631SOL    HW2 1893   0.013   0.611   0.575  2.3872  1.2928 -0.9863
  632SOL     OW 1894   2.165   1.090   1.161  0.4056  0.1735  0.1066
  632SOL    HW1 1895   2.074   1.122   1.146  1.4963  0.6794  0.3691
  632SOL    HW2 1896   2.173   0.987   1.157  0.0212  2.4006  2.1406
  633SOL     OW 1897   1.629   0.700   1.153 -0.0438 -0.1634 -0.4035
  633SOL    HW1 1898   1.591   0.794   1.135 -0.5696 -1.2291  1.3784
  633SOL    HW2 1899   1.701   0.714   1.219 -2.3533 -1.1495  0.7837
  634SOL     OW 1900   1.858   0.041   1.025  0.2262  0.6050 -0.5093
  634SOL    HW1 1901   1.958   0.028   1.023 -0.6304  0.0896  0.2232
  634SOL    HW2 1902   1.810   3.070   0.988 -0.5892  0.1417  1.4684
  635SOL     OW 1903   1.485   0.962   1.104 -0.5866  0.1227 -0.0949
  635SOL    HW1 1904   1.491   0.989   1.007 -4.2859  0.4737  3.0833
  635SOL    HW2 1905   1.544   1.013   1.168 -0.5268  0.5131 -0.1370
  636SOL     OW 1906   0.944   0.667   0.765  0.0346  0.1795 -0.0555
  636SOL    HW1 1907   0.968   0.634   0.860 -2.8751  0.7509 -1.4237
  636SOL    HW2 1908   0.953   0.766   0.761  0.4899 -4.0477  2.9559
  637SOL     OW 1909   2.117   2.404   0.581  0.5485  0.7588 -0.2572
  637SOL    HW1 1910   2.207   2.365   0.554 -1.3279  0.9688  0.8269
  637SOL    HW2 1911   2.103   2.387   0.683 -0.4006  1.0219  0.7997
  638SOL     OW 1912   1.783   2.971   2.736  0.1244 -0.5046 -0.8023
  638SOL    HW1 1913   1.735   2.993   2.825  1.9337  0.8883  0.8508
  638SOL    HW2 1914   1.822   2.876   2.739 -0.7292  1.3407  2.0164
  639SOL     OW 1915   0.862   2.219   1.293 -0.6115  0.0506 -0.1007
  639SOL    HW1 1916   0.962   2.245   1.296 -2.1099 -0.3960  0.9737
  639SOL    HW2 1917   0.857   2.138   1.228 -2.2742 -1.4847  0.3023
  640SOL     OW 1918   2.815   2.668   0.625 -0.1485 -0.6692 -0.4091
  640SOL    HW1 1919   2.828   2.591   0.690  0.4556  0.5230 -3.0712
  640SOL    HW2 1920   2.900   2.685   0.574 -1.0087  0.3286  0.8989
  641SOL     OW 1921   0.376   0.504   0.067  0.1049  0.5377 -0.5175
  641SOL    HW1 1922   0.460   0.455   0.082 -1.5893  0.3631  0.6598
  641SOL    HW2 1923   0.372   0.545   3.088 -0.8654 -0.3540  2.0449
  642SOL     OW 1924   2.815   0.870   0.939  0.4941 -0.4634  0.7102
  642SOL    HW1 1925   2.762   0.875   1.024  0.2527 -0.3618  2.2207
  642SOL    HW2 1926   2.775   0.938   0.873  0.9828 -0.7441 -1.2261
  643SOL     OW 1927   0.506   1.767   2.054  0.0445 -0.1232 -0.1801
  643SOL    HW1 1928   0.556   1.694   2.002  2.5388 -0.1641 -1.6543
  643SOL    HW2 1929   0.530   1.755   2.150 -1.7946 -0.7394 -3.9468
  644SOL     OW 1930   1.603   2.498   0.437  0.0469 -0.1845  0.2707
  644SOL    HW1 1931   1.552   2.441   0.507 -2.0350 -0.0297 -0.0103
  644SOL    HW2 1932   1.605   2.456   0.344  1.5738 -0.7819  2.5416
  645SOL     OW 1933   1.834   2.515   1.081 -0.5456 -0.4536  0.0554
  645SOL    HW1 1934   1.928   2.536   1.037  0.5694  3.3272 -3.5666
  645SOL    HW2 1935   1.763   2.482   1.008 -0.3271 -0.8688 -3.8969
  646SOL     OW 1936   1.193   2.764   0.350  0.4730  0.2244  0.1244
  646SOL    HW1 1937   1.154   2.667   0.354 -1.1239 -2.6483 -1.9292
  646SOL    HW2 1938   1.145   2.822   0.281 -1.8542  1.2298 -1.1397
  647SOL     OW 1939   0.496   3.107   1.728  0.2518 -0.1889 -0.5711
  647SOL    HW1 1940   0.403   3.097   1.776 -2.9938  3.3002  2.5854
  647SOL    HW2 1941   0.535   3.018   1.707  0.3782 -0.3427 -3.3138
  648SOL     OW 1942   1.848   0.867   1.270  0.1814  0.6015  0.4914
  648SOL    HW1 1943   1.889   0.846   1.363 -0.3324 -0.3365 -0.2909
  648SOL    HW2 1944   1.893   0.820   1.198  1.4447 -0.4025  5.2670
  649SOL     OW 1945   1.857   2.043   2.764 -0.2341 -0.0674  0.2521
  649SOL    HW1 1946   1.934   1.997   2.810  0.8659  0.2446  0.2609
  649SOL    HW2 1947   1.842   2.127   2.817  2.3031 -2.1667 -2.8514
  650SOL     OW 1948   2.530   1.750   1.697  0.1452  0.3811 -0.5498
  650SOL    HW1 1949   2.607   1.741   1.765  2.3826  2.3260  0.1679
  650SOL    HW2 1950   2.451   1.797   1.734  3.3923 -1.9686 -0.0808
  651SOL     OW 1951   1.279   1.720   2.920  0.2983 -0.0460 -0.1539
  651SOL    HW1 1952   1.281   1.621   2.940 -1.4431  0.2775  0.1790
  651SOL    HW2 1953   1.373   1.758   2.904  1.1687 -0.9512  0.7695
  652SOL     OW 1954   1.128   2.733   3.005  0.2666  0.7191 -0.1772
  652SOL    HW1 1955   1.169   2.645   2.976 -2.2779  1.2762 -1.4731
  652SOL    HW2 1956   1.165   2.811   2.949  0.9156  0.8275 -0.4213
  653SOL     OW 1957   2.181   2.170   1.184  0.3214 -0.0934  0.5419
  653SOL    HW1 1958   2.089   2.209   1.186  0.6847  0.5762  1.1434
  653SOL    HW2 1959   2.218   2.144   1.273 -0.7487  0.7833 -1.9172
  654SOL     OW 1960   2.743   2.464   2.027  0.0539 -0.1682 -0.2016
  654SOL    HW1 1961   2.746   2.565   2.034 -1.4147  1.5946 -1.6220
  654SOL    HW2 1962   2.837   2.428   2.000  0.9333 -0.4377  0.4123
  655SOL     OW 1963   2.727   2.236   0.906  0.5267  0.3188 -0.5560
  655SOL    HW1 1964   2.787   2.152   0.911 -0.2070 -0.7176 -0.4865
  655SOL    HW2 1965   2.680   2.257   0.996  0.5372  0.6699  0.8678
  656SOL     OW 1966   0.441   2.661   2.707  0.1823 -0.2743  0.3326
  656SOL    HW1 1967   0.514   2.725   2.674  1.2668  1.4795  2.5842
  656SOL    HW2 1968   0.427   2.582   2.644 -0.7334  0.6683  0.9108
  657SOL     OW 1969   3.107   0.754   0.276  0.7729  0.4966  0.0683
  657SOL    HW1 1970   0.060   0.711   0.337 -0.5737  2.7090  0.2732
  657SOL    HW2 1971   0.039   0.819   0.213  0.1859  0.7581  0.7861
  658SOL     OW 1972   1.509   1.781   1.190  0.5926 -0.5054  0.2183
  658SOL    HW1 1973   1.412   1.759   1.212 -1.8599 -0.7497 -0.1971
  658SOL    HW2 1974   1.530   1.881   1.200 -0.4914 -0.9177 -0.5537
  659SOL     OW 1975   1.779   0.400   1.354  0.0456 -0.5013  0.3034
  659SOL    HW1 1976   1.775   0.306   1.318  2.4277 -2.0189  1.1176
  659SOL    HW2 1977   1.693   0.450   1.334 -1.3455 -0.5647  1.6904
  660SOL     OW 1978   1.422   1.348   0.463  0.1075 -0.0288  0.2046
  660SOL    HW1 1979   1.464   1.256   0.477  1.9379  0.5688  2.1235
  660SOL    HW2 1980   1.377   1.382   0.549 -1.2834 -2.2731  1.1506
  661SOL     OW 1981   0.033   1.815   0.372 -0.0078 -1.1027  0.0219
  661SOL    HW1 1982   3.087   1.734   0.362  0.4052  2.3296 -1.1234
  661SOL    HW2 1983   3.096   1.903   0.401 -1.7888 -1.3308  1.7892
  662SOL     OW 1984   3.034   0.797   2.138 -0.5022 -0.1877 -0.0935
  662SOL    HW1 1985   2.988   0.752   2.059  1.6660  2.1787 -0.7057
  662SOL    HW2 1986   2.996   0.894   2.151  2.2810 -0.5048  0.4864
  663SOL     OW 1987   1.953   1.334   1.250 -0.1582  0.0968  0.4128
  663SOL    HW1 1988   1.921   1.430   1.265  0.0614  0.8907 -1.7841
  663SOL    HW2 1989   1.920   1.266   1.319 -0.5297  1.3950 -3.2284
  664SOL     OW 1990   0.564   0.379   0.902 -0.1077  0.3453 -0.3243
  664SOL    HW1 1991   0.488   0.420   0.961 -1.2743 -0.0262 -0.8515
  664SOL    HW2 1992   0.645   0.338   0.956  1.3622 -0.8469 -0.3150
  665SOL     OW 1993   1.185   2.920   2.813 -0.2073  0.3404 -0.4403
  665SOL    HW1 1994   1.270   2.942   2.764 -1.7344 -1.0944  2.9066
  665SOL    HW2 1995   1.129   2.999   2.847 -0.9761  0.7379  1.7380
  666SOL     OW 1996   0.308   0.451   2.325 -0.2548 -0.1363  0.7732
  666SOL    HW1 1997   0.300   0.434   2.223 -0.8286 -1.8249 -3.7084
  666SOL    HW2 1998   0.233   0.392   2.362 -0.6998 -0.0310 -0.8936
  667SOL     OW 1999   2.145   1.440   2.326 -0.3739 -0.8474 -0.6748
  667SOL    HW1 2000   2.116   1.483   2.241 -0.1654  0.7440  1.2089
  667SOL    HW2 2001   2.117   1.340   2.327 -2.0865 -1.2206 -0.9014
  668SOL     OW 2002   0.158   1.540   2.707  0.3901  0.0681  0.4282
  668SOL    HW1 2003   0.150   1.443   2.678  3.2458  0.0603  1.5149
  668SOL    HW2 2004   0.071   1.574   2.744 -1.2541 -0.5167  2.1436
  669SOL     OW 2005   2.178   2.852   2.574 -0.0106  0.0428 -0.2006
  669SOL    HW1 2006   2.212   2.925   2.510  1.1533  0.1624  0.4099
  669SOL    HW2 2007   2.253   2.792   2.597 -0.2222  0.8997  1.7561
  670SOL     OW 2008   2.661   0.911   2.608 -0.0375  0.0066  0.3492
  670SOL    HW1 2009   2.673   0.813   2.636  0.1116 -0.5241  0.0828
  670SOL    HW2 2010   2.631   0.970   2.687 -1.4884  3.8543 -0.2244
  671SOL     OW 2011   2.454   1.673   0.250 -0.4109  0.1119 -0.7872
  671SOL    HW1 2012   2.547   1.638   0.272 -1.9329 -1.3462  0.4787
  671SOL    HW2 2013   2.420   1.627   0.167  1.7967  0.0125  0.4776
  672SOL     OW 2014   2.643   1.329   2.327 -0.1839 -0.2329 -0.1723
  672SOL    HW1 2015   2.555   1.321   2.384  0.0140 -1.7423  1.1328
  672SOL    HW2 2016   2.661   1.430   2.311 -0.3771 -2.3957 -1.9259
  673SOL     OW 2017   0.025   1.477   1.339  0.5215  0.0889 -0.0377
  673SOL    HW1 2018   3.108   1.554   1.280  0.4871  0.8774  0.0160
  673SOL    HW2 2019   0.016   1.385   1.293 -1.3539 -0.9035 -0.6993
  674SOL     OW 2020   1.473   1.784   1.981  0.0722 -0.3737  0.1601
  674SOL    HW1 2021   1.458   1.884   1.954  2.2023  0.0025  0.7990
  674SOL    HW2 2022   1.565   1.775   2.015 -1.1341 -0.1072 -1.4828
  675SOL     OW 2023   2.913   0.287   1.223  0.2946  0.0935  1.2541
  675SOL    HW1 2024   2.947   0.332   1.139 -1.4966 -0.7299  0.3187
  675SOL    HW2 2025   2.847   0.215   1.197  0.9887  1.7324  2.0969
  676SOL     OW 2026   2.433   1.124   0.572 -0.2248 -0.5801 -0.1155
  676SOL    HW1 2027   2.445   1.024   0.551  1.6041  0.6770  3.9375
  676SOL    HW2 2028   2.337   1.146   0.594 -0.3600 -1.0528 -0.9894
  677SOL     OW 2029   1.534   1.312   2.253  0.6067  0.4514 -0.1714
  677SOL    HW1 2030   1.543   1.406   2.286 -0.1588 -1.8457 -1.7383
  677SOL    HW2 2031   1.457   1.310   2.185 -0.1464  1.6305  2.3528
  678SOL     OW 2032   2.342   1.393   0.916 -0.6634 -0.4568 -0.0705
  678SOL    HW1 2033   2.360   1.351   1.006  2.6876 -1.8262  0.3329
  678SOL    HW2 2034   2.294   1.481   0.920 -0.5524  1.0599 -0.2979
  679SOL     OW 2035   0.449   2.683   1.054  0.3033  0.3554 -0.5214
  679SOL    HW1 2036   0.365   2.625   1.045  0.5795  1.3125  0.3960
  679SOL    HW2 2037   0.427   2.764   1.112  0.3255  0.6719  0.5751
  680SOL     OW 2038   2.902   2.075   1.168  0.0440  0.0337 -0.3183
  680SOL    HW1 2039   2.947   2.010   1.233  1.6441 -1.0434 -2.1502
  680SOL    HW2 2040   2.806   2.100   1.208 -1.3596  2.4115 -0.2294
  681SOL     OW 2041   0.740   0.744   1.075  0.0704  0.0122 -0.2404
  681SOL    HW1 2042   0.789   0.680   1.135  1.6358  0.2951  1.0524
  681SOL    HW2 2043   0.720   0.704   0.986  5.2481 -0.4162  1.4369
  682SOL     OW 2044   1.563   0.004   0.704 -0.5007 -0.2842  0.1431
  682SOL    HW1 2045   1.544   0.071   0.781  0.3895 -0.9705 -0.8551
  682SOL    HW2 2046   1.666   3.111   0.692  1.5936  1.2609  0.9173
  683SOL     OW 2047   2.434   1.488   1.736 -0.1452 -0.2906 -0.0718
  683SOL    HW1 2048   2.460   1.582   1.710 -0.1650  1.2808  1.1352
  683SOL    HW2 2049   2.373   1.443   1.665  1.6068 -0.1808 -0.6758
  684SOL     OW 2050   0.257   1.911   1.669  0.0136  0.2067  0.1953
  684SOL    HW1 2051   0.325   1.979   1.690  0.5804 -0.6980 -0.8415
  684SOL    HW2 2052   0.207   1.881   1.752 -2.8861  0.6578 -0.6613
  685SOL     OW 2053   2.011   1.717   0.425  0.0279  0.5094 -0.1814
  685SOL    HW1 2054   1.957   1.696   0.511 -1.8223  0.2985 -1.7931
  685SOL    HW2 2055   2.051   1.628   0.390 -0.8746 -0.0178  0.1242
  686SOL     OW 2056   0.020   0.247   0.540 -0.6271 -0.2041 -0.0529
  686SOL    HW1 2057   0.090   0.319   0.524  1.1037  1.2668 -0.2068
  686SOL    HW2 2058   3.089   0.266   0.631  1.5473  1.9050 -1.6860
  687SOL     OW 2059   1.431   3.049   2.744 -0.0064  0.7025  0.2722
  687SOL    HW1 2060   1.446   0.017   2.804 -1.4505  0.3930  1.4255
  687SOL    HW2 2061   1.456   2.967   2.804  0.4613 -2.2967  0.4448
  688SOL     OW 2062   1.706   1.784   2.408 -0.4997 -0.0455  0.1448
  688SOL    HW1 2063   1.793   1.733   2.414 -1.6048  0.1637  1.7978
  688SOL    HW2 2064   1.717   1.854   2.336 -0.0874 -1.5666  0.0880
  689SOL     OW 2065   2.698   1.032   2.067 -0.4054  0.1158 -0.4148
  689SOL    HW1 2066   2.673   1.130   2.081  0.8175 -0.1351  0.4473
  689SOL    HW2 2067   2.797   1.016   2.087  2.0583  1.3581  0.4147
  690SOL     OW 2068   1.912   1.778   1.191  0.1507 -0.4590  0.3549
  690SOL    HW1 2069   1.981   1.764   1.116  0.0050 -1.8601 -0.9323
  690SOL    HW2 2070   1.909   1.696   1.257 -1.9748  0.0991  1.4778
  691SOL     OW 2071   0.809   1.497   1.125  0.2752  0.8506 -0.0440
  691SOL    HW1 2072   0.860   1.425   1.171  0.9663 -3.7517  2.2738
  691SOL    HW2 2073   0.713   1.465   1.112 -0.8656  0.6574 -1.7679
  692SOL     OW 2074   2.179   2.919   2.061 -0.3737 -0.1005 -0.1499
  692SOL    HW1 2075   2.120   2.999   2.054  2.9623 -0.4194 -0.1940
  692SOL    HW2 2076   2.143   2.847   2.121  0.0739 -0.1108  0.9156
  693SOL     OW 2077   2.883   1.316   2.448  0.2176 -0.1426 -0.1368
  693SOL    HW1 2078   2.968   1.309   2.392 -1.6981 -0.8762  3.2301
  693SOL    HW2 2079   2.800   1.300   2.389 -1.2112 -1.8739 -1.3432
  694SOL     OW 2080   2.350   0.249   1.136 -0.1859 -0.3833  0.0684
  694SOL    HW1 2081   2.386   0.208   1.224  3.3071 -0.0156 -2.4501
  694SOL    HW2 2082   2.287   0.328   1.163  0.0201  0.5531 -0.0064
  695SOL     OW 2083   1.080   1.164   2.814  0.6887 -0.6824 -0.2914
  695SOL    HW1 2084   1.079   1.224   2.893  0.5606 -1.9887 -0.8058
  695SOL    HW2 2085   1.047   1.216   2.727  0.5066  1.2075 -1.2558
  696SOL     OW 2086   2.051   0.317   1.802  0.7207 -0.1730  0.5058
  696SOL    HW1 2087   1.998   0.371   1.731 -0.8857  2.5953 -0.1000
  696SOL    HW2 2088   2.056   0.220   1.765  2.0389  0.4169 -0.7998
  697SOL     OW 2089   1.613   0.369   2.188  0.0175  0.1735  0.2187
  697SOL    HW1 2090   1.678   0.372   2.107  2.4311 -0.5926 -2.3185
  697SOL    HW2 2091   1.662   0.349   2.275  0.4569  1.5763 -0.8054
  698SOL     OW 2092   1.928   1.633   2.434 -0.3204 -0.2213  0.1892
  698SOL    HW1 2093   1.911   1.598   2.529 -0.4233 -1.4076  0.1390
  698SOL    HW2 2094   1.974   1.572   2.373  2.0635  0.7903  1.0689
  699SOL     OW 2095   1.520   1.087   0.445 -0.7013  0.0387  0.1438
  699SOL    HW1 2096   1.419   1.077   0.424 -1.4810 -0.6127 -1.6997
  699SOL    HW2 2097   1.553   1.002   0.493  3.1186 -0.5548  0.5043
  700SOL     OW 2098   1.594   2.866   0.131 -0.4009 -0.4036  0.1975
  700SOL    HW1 2099   1.538   2.950   0.116 -0.2854  1.0600 -1.6360
  700SOL    HW2 2100   1.539   2.788   0.166 -1.5289  0.1381 -1.9856
  701SOL     OW 2101   0.121   0.588   1.198  0.4183 -0.3016 -0.5613
  701SOL    HW1 2102   0.091   0.591   1.101 -0.0631 -2.0100  3.4497
  701SOL    HW2 2103   0.087   0.667   1.247 -0.2393 -1.8825 -0.3412
  702SOL     OW 2104   1.967   0.016   1.475 -0.3267  0.1784 -0.5091
  702SOL    HW1 2105   1.921   0.084   1.416  0.7986 -0.5477  1.0974
  702SOL    HW2 2106   1.961   3.038   1.435 -0.6602  1.4378  1.0414
  703SOL     OW 2107   2.824   0.462   1.423 -0.3561 -0.3553 -0.0739
  703SOL    HW1 2108   2.815   0.409   1.510  0.0020  0.5314 -2.1183
  703SOL    HW2 2109   2.872   0.406   1.351 -0.0918  0.1463  0.1647
  704SOL     OW 2110   1.124   2.271   1.235  0.1313 -0.4903 -0.0843
  704SOL    HW1 2111   1.136   2.369   1.233 -0.7314 -4.7586  0.6072
  704SOL    HW2 2112   1.129   2.240   1.138  0.6546 -1.6559 -1.7150
  705SOL     OW 2113   0.023   1.783   2.215 -0.0750 -0.3785 -0.4852
  705SOL    HW1 2114   0.088   1.731   2.156  0.9371  1.6449 -1.0890
  705SOL    HW2 2115   3.110   1.733   2.298 -0.6235 -3.0251 -0.9384
  706SOL     OW 2116   2.592   0.322   2.666  0.9099  0.0198 -0.0715
  706SOL    HW1 2117   2.493   0.324   2.695 -0.0475 -0.0695  0.8007
  706SOL    HW2 2118   2.659   0.301   2.738 -1.9405 -2.6822 -3.6634
  707SOL     OW 2119   1.796   2.802   2.400  0.2788  0.0323 -0.1255
  707SOL    HW1 2120   1.839   2.849   2.320  0.1418  0.9382  0.7017
  707SOL    HW2 2121   1.727   2.865   2.445  1.3932  2.1882  0.0393
  708SOL     OW 2122   0.671   2.459   1.639 -0.2895 -0.1431 -0.0221
  708SOL    HW1 2123   0.612   2.535   1.620  1.3374 -2.8049  1.1042
  708SOL    HW2 2124   0.664   2.391   1.565  3.5254  0.1999  0.2362
  709SOL     OW 2125   2.821   0.901   1.750  0.1676  0.0477  0.1189
  709SOL    HW1 2126   2.850   0.956   1.829 -0.2907 -1.6645  0.3636
  709SOL    HW2 2127   2.895   0.893   1.683 -1.8621 -0.8027 -0.4289
  710SOL     OW 2128   0.098   0.336   1.552 -0.5411  0.0714 -0.1427
  710SOL    HW1 2129   0.049   0.273   1.491 -0.0866  3.1292  2.9111
  710SOL    HW2 2130   0.051   0.424   1.553 -0.9227 -2.9093 -4.4781
  711SOL     OW 2131   3.056   2.697   1.010  0.8204  0.0477 -0.3876
  711SOL    HW1 2132   3.101   2.698   1.100 -1.1521 -0.3046 -0.8101
  711SOL    HW2 2133   0.004   2.651   0.941 -0.3757  1.0383 -1.3111
  712SOL     OW 2134   0.432   2.744   2.248 -0.4661  0.2137  0.4240
  712SOL    HW1 2135   0.478   2.821   2.205  1.6721 -2.1004  1.0759
  712SOL    HW2 2136   0.489   2.662   2.252 -0.4446  0.3822 -1.1864
  713SOL     OW 2137   2.387   0.343   0.231  0.4934  0.1806 -0.3748
  713SOL    HW1 2138   2.301   0.388   0.265  1.0951  0.5504 -1.8043
  713SOL    HW2 2139   2.420   0.395   0.148 -0.0293 -1.6935 -1.7701
  714SOL     OW 2140   1.545   1.488   0.012 -0.2504  0.4086 -0.9781
  714SOL    HW1 2141   1.572   1.575   0.058 -2.5585  0.5864 -0.6872
  714SOL    HW2 2142   1.524   1.410   0.078  0.4142  0.8906  1.5627
  715SOL     OW 2143   0.235   0.396   0.394 -0.0315 -0.1004  0.0305
  715SOL    HW1 2144   0.200   0.382   0.298 -2.5934 -0.6354  1.3389
  715SOL    HW2 2145   0.328   0.354   0.400  1.6938  1.9374  0.1068
  716SOL     OW 2146   1.213   0.263   1.811 -0.0183  0.1886  0.4167
  716SOL    HW1 2147   1.213   0.248   1.915 -1.2104  0.2444  1.9860
  716SOL    HW2 2148   1.125   0.310   1.785 -1.8632  2.0330  2.4646
  717SOL     OW 2149   0.296   0.473   2.903 -0.3090 -0.0930 -0.4615
  717SOL    HW1 2150   0.367   0.438   2.838 -0.9460 -1.7075  2.9749
  717SOL    HW2 2151   0.250   0.557   2.867 -2.1246  1.0827  0.2090
  718SOL     OW 2152   1.242   0.437   0.238 -0.5273  0.1610  0.7388
  718SOL    HW1 2153   1.156   0.433   0.284  0.9723 -3.4549 -2.6498
  718SOL    HW2 2154   1.307   0.490   0.291  2.0617  0.8443  3.1545
  719SOL     OW 2155   2.392   2.212   2.935 -0.3713  0.7146  0.2522
  719SOL    HW1 2156   2.378   2.125   2.881  1.1991  3.7307 -0.2267
  719SOL    HW2 2157   2.424   2.190   3.032 -0.9957 -3.6965  1.6806
  720SOL     OW 2158   1.066   0.963   1.328 -0.8631  0.0852 -0.7334
  720SOL    HW1 2159   1.079   1.043   1.390 -1.4253  1.2323  1.1675
  720SOL    HW2 2160   1.019   0.892   1.377  3.6648  0.5570  0.0602
  721SOL     OW 2161   0.091   2.685   1.242  0.1040  0.2090  0.1635
  721SOL    HW1 2162   0.115   2.589   1.246  1.2834  0.4747  1.7202
  721SOL    HW2 2163   0.167   2.742   1.208  0.9272 -0.0431 -0.5831
  722SOL     OW 2164   0.679   1.804   2.828 -0.1228  0.0703  0.0834
  722SOL    HW1 2165   0.697   1.732   2.899  0.0153 -3.4314  0.1820
  722SOL    HW2 2166   0.664   1.885   2.872 -0.4677 -1.7175 -2.3361
  723SOL     OW 2167   1.942   0.355   0.525 -0.6303  0.2370 -0.0536
  723SOL    HW1 2168   1.852   0.315   0.502 -0.6131 -1.0555 -0.8007
  723SOL    HW2 2169   1.957   0.352   0.623 -0.1861 -1.3836 -4.2345
  724SOL     OW 2170   0.605   2.220   2.954  0.0834 -0.5685  0.1125
  724SOL    HW1 2171   0.641   2.144   3.017  0.9226  0.0439  0.0809
  724SOL    HW2 2172   0.656   2.310   2.968  0.8711  2.7356  1.6585
  725SOL     OW 2173   0.012   0.842   0.930 -0.1363  0.1210 -0.1044
  725SOL    HW1 2174   3.030   0.876   0.940  0.2267  0.8113  2.5152
  725SOL    HW2 2175   0.015   0.745   0.899 -0.2924 -1.8431 -0.1723
  726SOL     OW 2176   2.473   0.503   0.610 -0.3885  0.1999 -0.3976
  726SOL    HW1 2177   2.517   0.431   0.548 -0.3891 -1.1404  0.9821
  726SOL    HW2 2178   2.388   0.544   0.563 -2.0430  0.2885  1.2586
  727SOL     OW 2179   2.090   1.015   2.424 -0.0131 -0.3591 -0.0884
  727SOL    HW1 2180   2.038   1.106   2.418 -0.6129  1.8533  0.1227
  727SOL    HW2 2181   2.096   0.984   2.520 -1.5693  2.3634 -1.1353
  728SOL     OW 2182   1.956   2.877   1.416  0.1122 -0.2038  0.2582
  728SOL    HW1 2183   2.033   2.829   1.469 -0.5064  0.5744  0.5586
  728SOL    HW2 2184   1.897   2.809   1.374  0.1149 -0.6768  0.2863
  729SOL     OW 2185   2.494   0.587   2.397  0.2633  0.0084  0.4266
  729SOL    HW1 2186   2.559   0.534   2.338 -2.2256  0.9850  1.5735
  729SOL    HW2 2187   2.510   0.688   2.387 -2.5754  0.3175 -2.9722
  730SOL     OW 2188   0.710   0.653   1.485  0.7089 -0.6587  0.5807
  730SOL    HW1 2189   0.637   0.631   1.417  1.4450  0.6665 -0.5145
  730SOL    HW2 2190   0.779   0.715   1.444  0.1117  0.2927  0.1944
  731SOL     OW 2191   0.430   0.121   0.163 -0.0704 -0.2943 -0.4317
  731SOL    HW1 2192   0.467   0.199   0.215  2.6917  1.2983 -1.6531
  731SOL    HW2 2193   0.411   0.145   0.068 -2.2123  1.3135  1.5736
  732SOL     OW 2194   0.766   0.441   0.471  0.4741 -0.7042 -0.2354
  732SOL    HW1 2195   0.720   0.381   0.539 -0.7009 -0.1621  1.4952
  732SOL    HW2 2196   0.700   0.516   0.452  1.5269 -3.0386 -2.8863
  733SOL     OW 2197   1.674   1.365   2.640 -0.3775  0.2513 -0.2684
  733SOL    HW1 2198   1.602   1.299   2.620  2.1905 -0.2680  0.0448
  733SOL    HW2 2199   1.642   1.442   2.703 -0.9614  2.6362 -2.0229
  734SOL     OW 2200   2.930   1.940   2.236  0.3112  0.7247  0.0873
  734SOL    HW1 2201   3.005   1.872   2.233 -0.8813 -1.8967  0.6550
  734SOL    HW2 2202   2.872   1.940   2.317  0.6143 -0.6976  0.9780
  735SOL     OW 2203   1.929   0.478   1.135  0.3118 -0.2883 -0.5623
  735SOL    HW1 2204   2.033   0.468   1.137 -2.9376  3.5775  1.1672
  735SOL    HW2 2205   1.885   0.442   1.219 -1.5831 -0.7702  0.0225
  736SOL     OW 2206   1.057   1.355   3.005 -0.0282 -0.2568  0.0893
  736SOL    HW1 2207   0.981   1.340   3.067 -0.3463 -0.6504 -2.9762
  736SOL    HW2 2208   1.124   1.420   3.044 -1.6757  0.6501 -0.8910
  737SOL     OW 2209   3.038   0.299   0.284  0.3599  0.3777  0.0326
  737SOL    HW1 2210   0.005   0.340   0.239 -0.8322 -1.0019 -0.0679
  737SOL    HW2 2211   3.068   0.278   0.378 -1.3448 -2.1327  0.3608
  738SOL     OW 2212   0.598   2.643   1.834  0.3027 -0.0190 -0.1941
  738SOL    HW1 2213   0.650   2.560   1.802 -0.4395 -0.3200  2.4681
  738SOL    HW2 2214   0.640   2.679   1.922  1.8990 -2.2545  0.7455
  739SOL     OW 2215   1.139   0.002   2.451  0.1836  0.4522  0.2201
  739SOL    HW1 2216   1.166   3.029   2.408  0.2777  0.1098  0.0782
  739SOL    HW2 2217   1.038   3.114   2.462 -2.4506  0.8057 -1.3804
  740SOL     OW 2218   1.933   2.566   1.469 -0.3817 -0.0654 -0.2789
  740SOL    HW1 2219   1.845   2.605   1.493  2.6037 -1.1131 -1.6797
  740SOL    HW2 2220   1.950   2.480   1.529  0.1682 -2.5463  1.8170
  741SOL     OW 2221   2.294   0.646   0.454  0.1365  0.2125 -0.6262
  741SOL    HW1 2222   2.338   0.674   0.366  0.7432  0.4168 -0.2376
  741SOL    HW2 2223   2.220   0.713   0.478 -2.3889  2.2783 -2.8584
  742SOL     OW 2224   1.505   2.674   2.656  0.4730 -0.1141 -0.0882
  742SOL    HW1 2225   1.430   2.610   2.641  1.9386 -1.6206  1.3146
  742SOL    HW2 2226   1.475   2.736   2.731 -1.1031  0.5929 -1.3365
  743SOL     OW 2227   2.485   1.111   1.575 -0.0491  0.5545 -0.1585
  743SOL    HW1 2228   2.545   1.135   1.651  0.0998 -1.4488  1.1243
  743SOL    HW2 2229   2.501   1.009   1.548  0.9093 -2.3546  0.1379
  744SOL     OW 2230   2.608   0.501   0.838 -0.8219 -0.5871 -0.6480
  744SOL    HW1 2231   2.694   0.561   0.820  3.1194 -0.1943 -1.4449
  744SOL    HW2 2232   2.555   0.502   0.755  0.8484  2.0312  1.0398
  745SOL     OW 2233   2.628   1.273   1.755 -0.7027  0.2325 -0.5065
  745SOL    HW1 2234   2.575   1.357   1.752 -0.3285 -1.6340 -0.2925
  745SOL    HW2 2235   2.640   1.243   1.852 -1.4923  0.9975  1.5625
  746SOL     OW 2236   1.333   1.775   0.911  0.2726 -0.4975  0.2044
  746SOL    HW1 2237   1.261   1.839   0.950 -1.8572 -0.0463  1.7023
  746SOL    HW2 2238   1.325   1.688   0.957 -0.3861  0.2457  1.5899
  747SOL     OW 2239   1.625   1.768   1.611  0.7332 -0.0051 -0.0373
  747SOL    HW1 2240   1.531   1.757   1.651  1.9181 -0.2166  3.6705
  747SOL    HW2 2241   1.641   1.715   1.525 -3.3656  1.8275  1.4513
  748SOL     OW 2242   0.204   2.835   3.075  0.2489 -0.1091 -0.1524
  748SOL    HW1 2243   0.270   2.884   0.021 -0.1408  0.7828  3.5421
  748SOL    HW2 2244   0.190   2.742   0.003 -0.1500 -1.1742  0.0077
  749SOL     OW 2245   0.066   1.177   2.399  0.1958  0.0936  0.4726
  749SOL    HW1 2246   0.157   1.156   2.361 -0.7520 -0.5927 -2.2994
  749SOL    HW2 2247   0.013   1.095   2.427 -1.7276 -3.6111  1.4103
  750SOL     OW 2248   1.807   0.363   1.992 -0.3824 -0.2691  0.4849
  750SOL    HW1 2249   1.873   0.353   1.915  0.1794  0.4673  2.6735
  750SOL    HW2 2250   1.853   0.420   2.066  1.7625  1.2361 -1.8510
  751SOL     OW 2251   2.723   0.685   0.466  1.0269 -0.4039 -0.3682
  751SOL    HW1 2252   2.761   0.666   0.373 -0.6864  2.6735 -0.8349
  751SOL    HW2 2253   2.735   0.613   0.531  0.7331 -0.0102 -1.2433
  752SOL     OW 2254   3.099   2.089   0.758  0.3641  0.0095 -0.3058
  752SOL    HW1 2255   3.025   2.054   0.817  1.1412 -0.9620 -1.1768
  752SOL    HW2 2256   0.078   2.061   0.796 -1.1171  0.5630 -0.7803
  753SOL     OW 2257   1.136   2.565   0.923 -0.4191 -0.2406 -0.1870
  753SOL    HW1 2258   1.149   2.526   1.016  0.6959 -0.1743  1.5621
  753SOL    HW2 2259   1.053   2.528   0.877  0.1748  0.5208 -2.0249
  754SOL     OW 2260   0.253   3.064   1.819  0.0913  0.6673 -0.4501
  754SOL    HW1 2261   0.209   3.060   1.909  1.2072  0.9064  1.4088
  754SOL    HW2 2262   0.183   3.042   1.746 -0.2592 -2.3673  1.7203
  755SOL     OW 2263   2.099   0.842   0.506 -0.2458  0.3185 -0.2471
  755SOL    HW1 2264   2.042   0.755   0.497  1.6769 -0.7506  3.0773
  755SOL    HW2 2265   2.073   0.893   0.588 -2.0979  1.2611  0.0135
  756SOL     OW 2266   2.097   2.288   2.648 -0.3576 -0.3244 -0.1648
  756SOL    HW1 2267   2.137   2.335   2.727  0.5863 -2.5151  0.9907
  756SOL    HW2 2268   2.062   2.344   2.573 -0.9960  1.4825 -0.3017
  757SOL     OW 2269   1.937   0.617   0.450 -0.3897 -0.3241 -0.4182
  757SOL    HW1 2270   1.894   0.640   0.361  2.7045  2.1730  1.0996
  757SOL    HW2 2271   1.934   0.519   0.472 -0.3347  1.0741  1.2186
  758SOL     OW 2272   2.212   0.467   1.176  0.5256  0.5362 -0.5136
  758SOL    HW1 2273   2.250   0.495   1.268  0.8482  0.2112  2.8624
  758SOL    HW2 2274   2.267   0.511   1.105 -0.6780  0.2776 -0.8440
  759SOL     OW 2275   2.509   0.633   1.168  0.2262  0.1552  0.1715
  759SOL    HW1 2276   2.485   0.575   1.246 -0.7330  0.4212 -1.1458
  759SOL    HW2 2277   2.458   0.609   1.085  0.3729  0.2347  2.8808
  760SOL     OW 2278   2.215   1.427   1.301  0.5266  0.4125  0.3274
  760SOL    HW1 2279   2.126   1.387   1.271  1.0229 -2.2048 -1.9140
  760SOL    HW2 2280   2.290   1.425   1.232  0.0780  0.9606 -0.0480
  761SOL     OW 2281   0.504   0.284   0.378  0.1610  0.8429 -0.1837
  761SOL    HW1 2282   0.591   0.339   0.386  2.8998  0.7210  1.9087
  761SOL    HW2 2283   0.475   0.243   0.467 -0.1079 -0.1703  2.1224
  762SOL     OW 2284   0.884   1.999   1.133 -0.2156 -0.4169 -0.7674
  762SOL    HW1 2285   0.970   1.951   1.104 -1.7903 -1.0747 -0.6130
  762SOL    HW2 2286   0.814   1.934   1.162  1.7677 -1.4816  1.5540
  763SOL     OW 2287   1.422   1.160   1.641  0.2160 -0.2228  0.4971
  763SOL    HW1 2288   1.391   1.121   1.729  4.5088  1.8428 -1.5403
  763SOL    HW2 2289   1.468   1.092   1.586  1.6674  0.2517 -0.6281
  764SOL     OW 2290   0.141   1.822   2.660  0.2273 -0.2843  0.7198
  764SOL    HW1 2291   0.144   1.720   2.672  2.3086 -1.6179  1.0869
  764SOL    HW2 2292   0.231   1.864   2.678 -0.1301  0.5076  2.0593
  765SOL     OW 2293   1.155   2.538   1.220 -0.4824  0.4077  0.2154
  765SOL    HW1 2294   1.096   2.618   1.237 -2.4506  0.3574  1.0827
  765SOL    HW2 2295   1.254   2.552   1.224  0.4721  0.4989 -1.4033
  766SOL     OW 2296   2.683   2.233   2.651  0.5215  0.3172 -0.6865
  766SOL    HW1 2297   2.716   2.315   2.700  0.3261 -2.2455 -2.1942
  766SOL    HW2 2298   2.605   2.269   2.595 -1.3543  0.9256 -0.8154
  767SOL     OW 2299   0.827   1.376   2.630  0.0233  0.5594  0.1710
  767SOL    HW1 2300   0.840   1.438   2.709  0.7572 -1.4325  0.7641
  767SOL    HW2 2301   0.725   1.359   2.622 -3.3917 -1.4233  0.0304
  768SOL     OW 2302   1.184   1.852   0.036 -0.1378 -0.2988  0.4767
  768SOL    HW1 2303   1.235   1.807   3.069 -1.0307  1.2435  0.2922
  768SOL    HW2 2304   1.237   1.834   0.123 -0.4235 -0.3871  1.6455
  769SOL     OW 2305   0.472   2.267   1.256 -0.0556  0.9847  0.1902
  769SOL    HW1 2306   0.538   2.230   1.187  1.9991  0.4564  2.2877
  769SOL    HW2 2307   0.377   2.234   1.233 -0.1529 -1.0297 -0.4725
  770SOL     OW 2308   1.040   1.208   2.548  0.1926  0.5088  0.0539
  770SOL    HW1 2309   0.958   1.265   2.561 -0.1803 -1.6249 -1.8766
  770SOL    HW2 2310   1.096   1.232   2.467  0.0323  0.8556  1.7887
  771SOL     OW 2311   0.018   2.785   2.197  0.1410  0.3962 -0.1910
  771SOL    HW1 2312   0.082   2.766   2.274 -0.8860  1.3224 -3.3831
  771SOL    HW2 2313   3.057   2.713   2.194 -0.1352 -1.8083  0.8782
  772SOL     OW 2314   2.383   2.374   1.806 -0.4882  0.2118  0.0849
  772SOL    HW1 2315   2.338   2.390   1.898 -0.3130  3.3129  0.7206
  772SOL    HW2 2316   2.424   2.455   1.764 -0.0851 -0.0931 -1.3172
  773SOL     OW 2317   0.748   2.034   1.603 -0.1151  0.0866 -0.4332
  773SOL    HW1 2318   0.710   2.083   1.523  0.3005 -2.2265 -1.6225
  773SOL    HW2 2319   0.763   2.096   1.682 -1.9641  1.1220 -0.8110
  774SOL     OW 2320   1.466   0.582   2.108 -0.1592  0.3280 -0.2570
  774SOL    HW1 2321   1.464   0.548   2.012 -2.0188 -1.1893  2.9593
  774SOL    HW2 2322   1.517   0.510   2.158 -1.8476  0.3732  0.4575
  775SOL     OW 2323   1.994   2.817   3.023 -0.0371 -0.1349  0.1993
  775SOL    HW1 2324   2.037   2.905   3.031  0.1266 -1.7956 -2.6065
  775SOL    HW2 2325   2.034   2.763   2.945 -0.9407 -0.1783 -0.4408
  776SOL     OW 2326   3.019   0.326   2.027 -0.3364 -0.0346  0.0605
  776SOL    HW1 2327   2.984   0.402   1.960 -0.8290  0.9125 -0.8016
  776SOL    HW2 2328   0.004   0.314   2.009  2.9235  1.5886 -0.2077
  777SOL     OW 2329   2.580   2.158   1.803 -0.8441  0.4547  0.1463
  777SOL    HW1 2330   2.544   2.071   1.838 -0.8134  1.5697  0.6265
  777SOL    HW2 2331   2.509   2.232   1.814 -0.7632 -0.6451  0.2095
  778SOL     OW 2332   1.986   0.805   2.289 -0.1565  0.3037  0.2035
  778SOL    HW1 2333   2.038   0.886   2.314 -3.6057 -0.7169 -2.8751
  778SOL    HW2 2334   1.887   0.823   2.270  0.6815 -2.4817 -0.8437
  779SOL     OW 2335   2.484   0.861   0.733 -0.2792 -0.2839  0.1044
  779SOL    HW1 2336   2.445   0.772   0.755  4.2006 -0.3883  0.9483
  779SOL    HW2 2337   2.503   0.881   0.635  2.4169  0.7981  1.2938
  780SOL     OW 2338   2.407   0.321   3.023  0.7176  0.2115 -0.0378
  780SOL    HW1 2339   2.304   0.327   3.037 -3.5536  0.4380  1.4638
  780SOL    HW2 2340   2.445   0.225   3.016  0.0478 -0.6570 -0.6876
  781SOL     OW 2341   0.245   2.111   1.198 -0.1753 -0.4825  0.2482
  781SOL    HW1 2342   0.282   2.055   1.273  1.6521  0.0128 -0.1431
  781SOL    HW2 2343   0.196   2.056   1.128  3.3399  1.4196  1.5238
  782SOL     OW 2344   2.493   2.457   2.904 -0.2617 -0.3968 -0.3092
  782SOL    HW1 2345   2.585   2.471   2.853  0.6204  0.1848 -2.2461
  782SOL    HW2 2346   2.465   2.358   2.920 -0.9706 -0.3138 -0.5751
  783SOL     OW 2347   0.550   1.802   1.376  0.0282  0.2098  0.4152
  783SOL    HW1 2348   0.546   1.726   1.440 -4.2930  0.3353  0.8330
  783SOL    HW2 2349   0.642   1.805   1.333  2.1565 -1.5309 -1.4356
  784SOL     OW 2350   1.452   0.575   0.035  0.3163 -0.3400 -0.7574
  784SOL    HW1 2351   1.444   0.677   0.037  0.8438 -3.0049  0.5865
  784SOL    HW2 2352   1.486   0.534   0.127 -0.5351  0.5578  0.7192
  785SOL     OW 2353   2.590   0.048   0.843 -0.1031  0.4639  0.0569
  785SOL    HW1 2354   2.498   0.033   0.807  4.9519 -2.7019 -1.0886
  785SOL    HW2 2355   2.595   0.132   0.900 -0.4446 -0.9238 -1.7434
  786SOL     OW 2356   1.046   2.088   1.930  0.3669 -0.4459 -0.0655
  786SOL    HW1 2357   1.034   1.987   1.936 -0.6049 -0.1427  0.3830
  786SOL    HW2 2358   1.034   2.133   2.021 -0.3574  0.2598  1.1824
  787SOL     OW 2359   1.233   0.837   1.142  0.2025  0.4147  0.0797
  787SOL    HW1 2360   1.182   0.879   1.214 -0.0002 -2.7087 -0.6601
  787SOL    HW2 2361   1.328   0.870   1.140 -1.6838 -0.4410  2.7915
  788SOL     OW 2362   0.149   0.640   0.476 -0.1612  0.3141 -0.6591
  788SOL    HW1 2363   0.202   0.694   0.547 -1.8901 -0.7387 -1.9073
  788SOL    HW2 2364   0.179   0.545   0.451  0.8440 -2.3265 -1.3491
  789SOL     OW 2365   0.039   1.959   1.094 -0.6256  0.4114 -0.3656
  789SOL    HW1 2366   0.070   1.981   0.996 -0.6833 -0.9842 -1.0967
  789SOL    HW2 2367   3.075   2.019   1.128  0.3216 -0.3156  2.7651
  790SOL     OW 2368   0.957   0.733   2.280 -0.5859  0.0062 -0.5029
  790SOL    HW1 2369   1.036   0.725   2.219 -1.5640  0.1854  0.7647
  790SOL    HW2 2370   0.964   0.815   2.347 -1.6476  2.7866  0.4765
  791SOL     OW 2371   1.632   0.566   0.624 -0.3163 -0.3871  0.2084
  791SOL    HW1 2372   1.669   0.484   0.586  0.4136  1.3650  1.7034
  791SOL    HW2 2373   1.652   0.584   0.721 -1.2784 -0.5855 -3.7844
  792SOL     OW 2374   1.543   2.726   2.012 -0.0285  0.7510 -0.7482
  792SOL    HW1 2375   1.462   2.708   2.070  1.5613  0.9010  0.4642
  792SOL    HW2 2376   1.520   2.770   1.924  1.9115 -2.7116 -2.6520
  793SOL     OW 2377   1.378   0.524   0.703  0.2735  0.4884 -0.3090
  793SOL    HW1 2378   1.477   0.524   0.682  1.0530 -0.4406  0.4774
  793SOL    HW2 2379   1.358   0.516   0.801 -0.2526  1.1351 -0.4729
  794SOL     OW 2380   0.432   0.776   2.110  0.1637 -0.1876 -0.6684
  794SOL    HW1 2381   0.344   0.778   2.155  1.1747  1.9185 -0.3856
  794SOL    HW2 2382   0.471   0.869   2.110  0.0289  2.6455 -0.1478
  795SOL     OW 2383   0.303   2.040   2.305 -0.2878 -0.4852  0.0826
  795SOL    HW1 2384   0.290   2.093   2.390 -1.3789 -0.2532  0.7738
  795SOL    HW2 2385   0.318   1.945   2.335  1.7599 -0.9456  0.2534
  796SOL     OW 2386   2.547   0.815   2.118 -0.5504  0.2210 -0.2110
  796SOL    HW1 2387   2.537   0.828   2.221 -0.3398 -0.6562  5.3955
  796SOL    HW2 2388   2.605   0.889   2.079 -2.2451  1.8308 -0.3385
  797SOL     OW 2389   2.884   2.410   3.025  1.1043  0.5715  0.1038
  797SOL    HW1 2390   2.941   2.473   3.082  0.9371  0.9226  0.3080
  797SOL    HW2 2391   2.823   2.351   3.083 -0.8784 -0.7900 -1.6725
  798SOL     OW 2392   0.078   2.393   2.176 -0.3715 -0.2212  0.1806
  798SOL    HW1 2393   0.171   2.410   2.130  0.7401  0.6366  1.5224
  798SOL    HW2 2394   0.064   2.293   2.197 -0.1049  0.0441 -0.7226
  799SOL     OW 2395   0.375   2.210   2.804 -0.1071 -0.4960  0.6078
  799SOL    HW1 2396   0.466   2.216   2.853 -0.7050 -0.6605  0.7536
  799SOL    HW2 2397   0.302   2.245   2.862  0.1590  1.9313  2.5617
  800SOL     OW 2398   0.751   1.984   3.027 -0.0723  0.0695 -0.1791
  800SOL    HW1 2399   0.739   1.969   0.017  2.0180  1.8099  0.1884
  800SOL    HW2 2400   0.845   2.003   3.008  0.5262  0.5488  0.6476
  801SOL     OW 2401   1.773   1.264   1.525  0.3138 -0.2584  0.6151
  801SOL    HW1 2402   1.857   1.243   1.581  0.1634 -1.2308  0.3206
  801SOL    HW2 2403   1.720   1.340   1.566  1.5375  1.8568 -0.8121
  802SOL     OW 2404   2.833   1.131   0.416 -0.1270  0.4179 -0.0303
  802SOL    HW1 2405   2.831   1.186   0.501 -1.9692 -1.4415  1.1901
  802SOL    HW2 2406   2.858   1.034   0.447  0.9205  0.0855 -0.9795
  803SOL     OW 2407   0.873   1.791   2.640  0.1064  0.1353  0.3682
  803SOL    HW1 2408   0.803   1.793   2.718  0.6247  1.5031 -1.0476
  803SOL    HW2 2409   0.967   1.780   2.674 -1.7648 -0.7501 -1.5826
  804SOL     OW 2410   1.515   1.294   0.207  0.2022 -0.2160 -0.1265
  804SOL    HW1 2411   1.483   1.321   0.300 -0.3206 -0.7730 -1.0441
  804SOL    HW2 2412   1.608   1.251   0.215 -0.6723 -2.0347  2.0258
  805SOL     OW 2413   2.656   1.488   2.808 -0.4816  0.4750 -0.3446
  805SOL    HW1 2414   2.676   1.586   2.807  1.0861 -0.2894 -4.1457
  805SOL    HW2 2415   2.721   1.443   2.869  0.9360  0.7459  1.0913
  806SOL     OW 2416   0.373   2.938   0.441 -0.4536  0.2491  0.0253
  806SOL    HW1 2417   0.374   3.014   0.513  0.9079 -1.6564 -4.2317
  806SOL    HW2 2418   0.431   2.858   0.479  1.0229 -1.2703  1.1288
  807SOL     OW 2419   1.956   1.537   2.722  0.0887 -0.5158  0.1652
  807SOL    HW1 2420   1.923   1.577   2.811 -0.4310 -1.8819 -0.7564
  807SOL    HW2 2421   1.907   1.453   2.703  1.6038 -0.8272 -0.9474
  808SOL     OW 2422   0.507   1.470   0.762 -0.2174  0.2430  0.6328
  808SOL    HW1 2423   0.514   1.550   0.701  2.0649  1.4242 -0.8354
  808SOL    HW2 2424   0.478   1.495   0.855  0.4987 -0.2413  0.9107
  809SOL     OW 2425   2.552   0.897   0.484  0.0825  0.3782 -0.4745
  809SOL    HW1 2426   2.570   0.956   0.403 -1.2170  1.7868 -3.1670
  809SOL    HW2 2427   2.604   0.809   0.481  0.2373  0.6778 -0.5333
  810SOL     OW 2428   0.826   1.123   0.384  0.4185  0.0184  0.0742
  810SOL    HW1 2429   0.759   1.200   0.353 -1.1949  2.5104  0.1801
  810SOL    HW2 2430   0.922   1.153   0.402  0.2077 -2.8763 -0.6207
  811SOL     OW 2431   1.409   2.641   1.221  0.3256  0.5986  0.0870
  811SOL    HW1 2432   1.419   2.697   1.140  2.0794 -0.2411  3.7331
  811SOL    HW2 2433   1.486   2.582   1.247 -2.5627 -0.7160 -3.3664
  812SOL     OW 2434   1.232   2.655   1.730  0.1698 -0.1661 -0.4651
  812SOL    HW1 2435   1.239   2.738   1.788  1.3694  0.9747 -0.4011
  812SOL    HW2 2436   1.150   2.661   1.670  1.0252 -0.8360 -0.6360
  813SOL     OW 2437   1.355   0.101   1.680 -0.3205  0.5013 -0.3276
  813SOL    HW1 2438   1.302   0.174   1.738 -0.8395  1.3637  2.3446
  813SOL    HW2 2439   1.295   0.019   1.667 -0.0460 -2.7421 -2.3898
  814SOL     OW 2440   1.320   2.454   2.660 -0.2046  0.6494  0.4187
  814SOL    HW1 2441   1.265   2.437   2.578 -1.3021  0.2145  0.8781
  814SOL    HW2 2442   1.336   2.360   2.703 -0.5203 -0.0398  0.7432
  815SOL     OW 2443   0.852   0.293   2.351  0.6776  0.3456 -0.0174
  815SOL    HW1 2444   0.954   0.289   2.363  3.0283 -0.5367 -1.0349
  815SOL    HW2 2445   0.810   0.387   2.343 -0.1117  2.4626 -0.6001
  816SOL     OW 2446   2.145   0.343   3.004  0.3110  0.2781  0.0014
  816SOL    HW1 2447   2.133   0.437   2.972 -1.1374 -1.7902 -2.7300
  816SOL    HW2 2448   2.061   0.289   2.986  1.0025  0.2745 -2.5091
  817SOL     OW 2449   2.172   0.211   2.450 -0.2720  0.1103  0.3958
  817SOL    HW1 2450   2.128   0.244   2.535  0.5382  0.1722 -0.2541
  817SOL    HW2 2451   2.234   0.285   2.418  2.0361 -0.2226  1.1271
  818SOL     OW 2452   1.599   0.475   0.251 -0.2846 -0.4690  0.6630
  818SOL    HW1 2453   1.673   0.546   0.228  1.7148  0.5766  1.4523
  818SOL    HW2 2454   1.623   0.382   0.225 -1.5631  0.1086 -2.5281
  819SOL     OW 2455   2.200   1.678   2.748 -0.1403 -0.4027 -0.0113
  819SOL    HW1 2456   2.118   1.624   2.728  0.6773  0.1661 -0.6226
  819SOL    HW2 2457   2.227   1.671   2.843 -1.1990 -1.7701  1.4209
  820SOL     OW 2458   0.055   1.683   0.100  0.0773  0.6216  0.1936
  820SOL    HW1 2459   0.011   1.756   0.152 -1.4603 -2.8389 -2.5425
  820SOL    HW2 2460   0.135   1.714   0.046  0.5838 -0.2690  0.4752
  821SOL     OW 2461   0.218   3.046   0.975 -0.0723  0.3832 -0.0615
  821SOL    HW1 2462   0.287   0.001   0.967 -2.0719 -1.7402 -2.0206
  821SOL    HW2 2463   0.180   3.010   0.883  0.0505 -1.6103 -0.4391
  822SOL     OW 2464   2.785   2.730   0.119 -0.2750  0.0330 -0.1031
  822SOL    HW1 2465   2.750   2.755   0.214 -0.3573 -0.3949  1.5455
  822SOL    HW2 2466   2.808   2.814   0.066 -1.8064  1.2840  0.6092
  823SOL     OW 2467   1.279   0.609   2.678  0.4751  0.5242 -0.4480
  823SOL    HW1 2468   1.259   0.512   2.657 -1.2146 -0.5779  1.0461
  823SOL    HW2 2469   1.383   0.628   2.670  4.0264  1.5172  0.9748
  824SOL     OW 2470   2.845   2.073   1.850  0.1980  0.0309 -0.2898
  824SOL    HW1 2471   2.755   2.098   1.825  1.3885  0.9105  2.5997
  824SOL    HW2 2472   2.891   2.155   1.884 -1.9421 -1.3845 -1.0309
  825SOL     OW 2473   2.934   2.057   2.669  0.1164 -0.4987  0.1575
  825SOL    HW1 2474   2.846   2.107   2.659  0.9925 -1.1039 -0.4928
  825SOL    HW2 2475   2.996   2.055   2.588 -0.2319 -1.0338  2.0757
  826SOL     OW 2476   2.399   1.259   2.468  0.5892  0.0475  0.0944
  826SOL    HW1 2477   2.363   1.191   2.397 -1.1900 -1.2695 -0.5096
  826SOL    HW2 2478   2.327   1.297   2.523  1.8784 -0.3350 -0.9518
  827SOL     OW 2479   2.324   2.431   1.168  0.3799 -0.2762  0.3486
  827SOL    HW1 2480   2.265   2.349   1.152 -2.5088  0.3320 -0.3513
  827SOL    HW2 2481   2.287   2.474   1.257  0.7532  1.2346  0.6229
  828SOL     OW 2482   0.263   2.974   1.427 -0.0477 -0.4063  0.1140
  828SOL    HW1 2483   0.202   2.940   1.500  1.9770 -0.6938  1.3987
  828SOL    HW2 2484   0.270   3.078   1.427 -2.2231  0.5277 -0.0445
  829SOL     OW 2485   1.602   2.503   2.370  0.7478  0.0881 -0.4615
  829SOL    HW1 2486   1.687   2.471   2.320 -0.1027  0.3199 -2.6167
  829SOL    HW2 2487   1.624   2.568   2.443 -0.4664 -3.1940 -2.8369
  830SOL     OW 2488   1.019   0.413   0.389  0.4161 -0.6042 -0.4284
  830SOL    HW1 2489   0.917   0.411   0.400 -2.6952 -0.7809 -1.5547
  830SOL    HW2 2490   1.062   0.464   0.463 -1.0537 -0.9103  0.0734
  831SOL     OW 2491   2.833   1.399   3.005 -0.1885  0.0998  0.2096
  831SOL    HW1 2492   2.892   1.432   3.083  1.1783 -1.2430 -2.1044
  831SOL    HW2 2493   2.903   1.376   2.936  0.4193  1.0861 -0.4984
  832SOL     OW 2494   1.759   1.971   2.222  0.4539 -0.0356  0.3798
  832SOL    HW1 2495   1.664   2.010   2.217 -1.2473  1.2688  0.0193
  832SOL    HW2 2496   1.831   2.041   2.205 -0.5697 -0.8925  1.9644
  833SOL     OW 2497   1.101   0.280   2.084  0.0179  0.6557 -0.2790
  833SOL    HW1 2498   1.138   0.279   2.179 -0.5900 -2.4558 -0.5929
  833SOL    HW2 2499   1.011   0.237   2.088 -0.7734  0.3472  0.5970
  834SOL     OW 2500   0.508   1.013   1.615 -0.0646 -0.2592  0.1897
  834SOL    HW1 2501   0.417   0.967   1.616 -1.5118 -0.4744 -3.0251
  834SOL    HW2 2502   0.504   1.112   1.588  0.2724 -2.2714 -1.7805
  835SOL     OW 2503   2.731   0.898   0.086 -0.4645 -0.0160  0.0704
  835SOL    HW1 2504   2.778   0.821   0.133 -0.3427  1.3467 -1.9421
  835SOL    HW2 2505   2.697   0.971   0.147 -1.4077 -2.8501 -1.7204
  836SOL     OW 2506   1.044   1.899   0.313 -0.0857 -0.3261 -0.2094
  836SOL    HW1 2507   0.954   1.945   0.303  0.4037  1.8991 -1.3318
  836SOL    HW2 2508   1.113   1.955   0.266 -0.8377  2.4193 -2.5220
  837SOL     OW 2509   1.654   1.761   0.933 -0.5319  0.2693 -0.0664
  837SOL    HW1 2510   1.693   1.844   0.892 -1.0670 -2.0567  1.9529
  837SOL    HW2 2511   1.570   1.779   0.991 -0.8188  1.7732  0.3410
  838SOL     OW 2512   1.026   1.101   2.121 -0.2922  0.4729  0.3008
  838SOL    HW1 2513   0.949   1.031   2.126 -0.2499  0.0895  0.6940
  838SOL    HW2 2514   1.006   1.170   2.047 -1.2574 -1.0660 -1.8890
  839SOL     OW 2515   0.828   2.044   2.523  0.6454  0.4982 -0.0679
  839SOL    HW1 2516   0.832   1.944   2.545 -1.3201  0.4174  1.0574
  839SOL    HW2 2517   0.832   2.099   2.610  0.4409  0.4540 -0.6165
  840SOL     OW 2518   0.684   2.341   0.325 -0.3812 -0.0233 -0.6782
  840SOL    HW1 2519   0.596   2.373   0.276 -1.4405  2.7155  0.6745
  840SOL    HW2 2520   0.698   2.396   0.409  0.0382  1.2950  2.0765
  841SOL     OW 2521   1.604   2.472   0.174 -0.1769  0.3109  0.3551
  841SOL    HW1 2522   1.524   2.524   0.148  1.8085 -1.9166  0.5674
  841SOL    HW2 2523   1.677   2.489   0.105 -2.4636  0.8231 -0.4842
  842SOL     OW 2524   0.462   0.839   3.049 -0.3421 -0.2342  0.2407
  842SOL    HW1 2525   0.442   0.809   0.032 -0.2724  1.7971 -0.9567
  842SOL    HW2 2526   0.557   0.880   3.037 -0.7197  1.7547  0.3634
  843SOL     OW 2527   1.220   0.234   0.759 -0.5433 -0.5362  0.2352
  843SOL    HW1 2528   1.183   0.308   0.701 -1.1592 -0.7244  1.2126
  843SOL    HW2 2529   1.248   0.276   0.850  0.5760  0.3003  0.8660
  844SOL     OW 2530   2.974   0.027   2.542  0.2211  0.9546 -0.2028
  844SOL    HW1 2531   2.897   0.064   2.595 -0.9408 -0.5751  3.1970
  844SOL    HW2 2532   2.945   3.104   2.449 -0.4581  0.2547 -2.8657
  845SOL     OW 2533   2.598   2.310   1.144 -0.1935 -0.3205  0.3963
  845SOL    HW1 2534   2.507   2.349   1.142  1.8172 -0.8093 -1.8971
  845SOL    HW2 2535   2.599   2.228   1.208  2.1514 -1.1255 -0.7836
  846SOL     OW 2536   2.761   1.908   2.042 -0.3885 -0.6177  0.0497
  846SOL    HW1 2537   2.798   1.971   1.973  2.1832  1.6598 -0.9577
  846SOL    HW2 2538   2.818   1.921   2.127  0.2123 -1.2381 -0.7138
  847SOL     OW 2539   0.975   0.738   1.468  0.0019  0.2036  0.5727
  847SOL    HW1 2540   1.025   0.739   1.551 -0.4479  0.0156 -2.2606
  847SOL    HW2 2541   0.996   0.651   1.417  0.6550 -0.1674 -1.9932
  848SOL     OW 2542   2.919   2.968   0.001 -0.6221  0.0967  0.1668
  848SOL    HW1 2543   2.854   3.009   0.069  1.5335 -2.8387  1.0469
  848SOL    HW2 2544   3.013   3.005   0.018 -1.5490  2.6285 -2.2336
  849SOL     OW 2545   0.725   2.954   2.959  0.1107  0.3321  0.3853
  849SOL    HW1 2546   0.706   2.956   2.857 -0.8405 -0.3329  0.4610
  849SOL    HW2 2547   0.675   3.031   2.998 -1.5219  3.8677 -0.8223
  850SOL     OW 2548   1.256   2.975   1.175  0.8903  0.0807 -0.0701
  850SOL    HW1 2549   1.330   2.932   1.123 -0.6791  1.8458 -2.7300
  850SOL    HW2 2550   1.190   3.012   1.101  0.8795  0.3291 -1.7058
  851SOL     OW 2551   2.605   0.177   2.009 -0.3221 -0.3625  0.1149
  851SOL    HW1 2552   2.589   0.247   1.936  0.8217 -1.6979  2.0965
  851SOL    HW2 2553   2.706   0.164   2.030 -0.8206  0.1570 -1.8025
  852SOL     OW 2554   2.039   0.662   2.500  0.1475 -0.0975  0.7649
  852SOL    HW1 2555   2.030   0.713   2.406 -1.7982  3.1452 -1.9270
  852SOL    HW2 2556   2.118   0.599   2.498 -0.8617 -1.8254  0.3631
  853SOL     OW 2557   0.046   3.097   0.503  0.4352 -0.1581  0.5238
  853SOL    HW1 2558   0.025   0.076   0.535 -0.1616 -2.8524  2.3435
  853SOL    HW2 2559   3.088   3.064   0.439  0.9302  1.5924  2.1463
  854SOL     OW 2560   2.364   1.407   2.002 -0.0303  0.4409 -0.5346
  854SOL    HW1 2561   2.358   1.472   2.082  0.2922  0.6175 -1.6427
  854SOL    HW2 2562   2.383   1.449   1.914 -1.1511 -1.2974  2.1682
  855SOL     OW 2563   0.839   2.660   0.158  0.2813  0.0832  0.0935
  855SOL    HW1 2564   0.758   2.676   0.099 -0.0562  1.1023  1.9507
  855SOL    HW2 2565   0.867   2.561   0.159 -1.1857  0.6066  1.4517
  856SOL     OW 2566   3.104   3.073   2.773  0.5613 -0.3555  0.0188
  856SOL    HW1 2567   3.063   0.014   2.699  1.0606  0.6935 -2.1342
  856SOL    HW2 2568   3.066   3.086   2.865  0.4520 -0.8255  0.7803
  857SOL     OW 2569   1.210   2.964   1.640  0.1626  0.5075 -0.0113
  857SOL    HW1 2570   1.253   2.900   1.572  1.2687  0.7776 -1.2314
  857SOL    HW2 2571   1.115   2.993   1.623 -3.0301 -0.2917 -1.5986
  858SOL     OW 2572   2.802   2.413   1.680 -0.0617 -0.1366  0.0448
  858SOL    HW1 2573   2.749   2.334   1.714  1.7659  0.3899 -0.4933
  858SOL    HW2 2574   2.893   2.410   1.725  0.1792 -2.5728  0.6835
  859SOL     OW 2575   1.617   2.441   1.917  0.1284 -0.1748 -0.0349
  859SOL    HW1 2576   1.517   2.437   1.900 -2.1466  0.3288 -0.8392
  859SOL    HW2 2577   1.650   2.538   1.922 -0.8745 -0.5323  1.3252
  860SOL     OW 2578   2.353   2.764   0.087 -0.5467 -0.2270 -0.2386
  860SOL    HW1 2579   2.356   2.732   3.104  0.0866  0.8288  0.3723
  860SOL    HW2 2580   2.270   2.734   0.138  3.9464 -1.8058 -0.2596
  861SOL     OW 2581   2.163   2.967   0.716  0.2140 -0.4238 -0.3654
  861SOL    HW1 2582   2.086   2.964   0.650 -0.8995 -0.2618  0.7229
  861SOL    HW2 2583   2.194   2.874   0.739  2.9818  0.2897  1.0412
  862SOL     OW 2584   1.858   0.081   2.327 -0.2906  0.1216  0.0230
  862SOL    HW1 2585   1.900   0.021   2.394 -0.8078 -0.1627 -0.7661
  862SOL    HW2 2586   1.876   0.178   2.347  2.3223 -2.8258 -0.1370
  863SOL     OW 2587   0.055   0.573   0.885  0.0766 -0.4717  0.3286
  863SOL    HW1 2588   0.157   0.580   0.867  1.0076 -2.6467 -2.1522
  863SOL    HW2 2589   0.011   0.512   0.814 -2.0598  0.7938 -1.4334
  864SOL     OW 2590   0.308   2.943   2.101 -0.1331 -0.3757 -0.0014
  864SOL    HW1 2591   0.300   2.874   2.171  1.3953 -1.5634 -1.9625
  864SOL    HW2 2592   0.215   2.984   2.083 -0.4555 -0.6751 -0.7367
  865SOL     OW 2593   0.705   1.130   3.038 -0.0689  0.0803  0.7366
  865SOL    HW1 2594   0.717   1.041   2.993 -0.5879 -0.0435  0.1732
  865SOL    HW2 2595   0.624   1.124   3.100  0.1963 -0.1684 -1.7626
  866SOL     OW 2596   2.849   0.678   0.222  0.2627 -0.2311 -0.2733
  866SOL    HW1 2597   2.946   0.675   0.258  3.0817 -0.1130  1.7064
  866SOL    HW2 2598   2.834   0.599   0.161  1.5681  0.4217 -0.3216
  867SOL     OW 2599   3.083   2.799   2.842  0.1890 -0.8660  0.2952
  867SOL    HW1 2600   0.000   2.891   2.803  0.6636  1.0763 -2.0807
  867SOL    HW2 2601   3.005   2.797   2.909  0.0039 -1.5767  0.4594
  868SOL     OW 2602   1.512   3.034   0.407  0.2800  0.0200 -0.5978
  868SOL    HW1 2603   1.505   3.107   0.480 -1.1445 -0.6113  0.7660
  868SOL    HW2 2604   1.541   2.945   0.448  0.1959 -0.2055  0.7696
  869SOL     OW 2605   1.503   1.693   0.665 -0.3797  0.1668  0.0383
  869SOL    HW1 2606   1.511   1.719   0.763  2.4364 -1.9917  1.5356
  869SOL    HW2 2607   1.528   1.771   0.603  2.0905 -0.1105 -0.9769
  870SOL     OW 2608   1.743   1.991   0.813 -0.5708 -0.2685  0.1957
  870SOL    HW1 2609   1.835   1.944   0.832  0.5300 -0.2563  1.1481
  870SOL    HW2 2610   1.771   2.084   0.777  3.1651 -1.9755  2.3368
  871SOL     OW 2611   1.407   1.378   1.413  0.1373  0.0878  0.1986
  871SOL    HW1 2612   1.400   1.307   1.484 -3.6506 -1.1196 -0.1850
  871SOL    HW2 2613   1.453   1.343   1.327 -2.7653  0.8303 -1.8486
  872SOL     OW 2614   1.114   1.677   1.783  0.1357  0.7794 -0.0165
  872SOL    HW1 2615   1.061   1.648   1.696  0.9574  1.3604 -2.9803
  872SOL    HW2 2616   1.106   1.596   1.850 -1.1539 -2.7189  0.9048
  873SOL     OW 2617   0.910   1.580   2.425 -0.8525 -0.1365  0.1749
  873SOL    HW1 2618   0.916   1.511   2.499 -2.4712  0.2302  2.8690
  873SOL    HW2 2619   0.898   1.670   2.473  0.0373  1.2434  2.5792
  874SOL     OW 2620   0.576   1.358   1.096 -0.3948 -0.1733 -0.0510
  874SOL    HW1 2621   0.472   1.362   1.093 -1.2256  2.9984  0.0196
  874SOL    HW2 2622   0.608   1.265   1.118 -1.4436  5.7222  0.3925
  875SOL     OW 2623   2.727   0.097   1.185 -0.4864 -0.4022  0.2955
  875SOL    HW1 2624   2.653   0.144   1.129 -4.3565  2.9914 -3.1389
  875SOL    HW2 2625   2.705   0.102   1.282  0.3213  0.6614 -1.2030
  876SOL     OW 2626   0.926   0.776   0.008 -0.0997  0.5168  0.2250
  876SOL    HW1 2627   0.916   0.674   0.001  0.1983  1.9912 -1.4631
  876SOL    HW2 2628   0.906   0.801   0.105 -0.7315  0.7410 -0.5360
  877SOL     OW 2629   3.079   0.153   1.375 -0.4069  0.0763 -0.0707
  877SOL    HW1 2630   3.017   0.221   1.323 -0.5988  2.2208 -0.7356
  877SOL    HW2 2631   3.028   0.065   1.397  0.2056  1.3967 -2.4805
  878SOL     OW 2632   1.724   2.092   0.024  0.1187 -0.1649  0.4716
  878SOL    HW1 2633   1.820   2.116   0.015 -3.5840 -0.8025  2.7014
  878SOL    HW2 2634   1.704   2.010   3.087 -1.1098 -0.9841 -0.3955
  879SOL     OW 2635   2.331   1.951   1.511  0.1040  0.1025  0.1239
  879SOL    HW1 2636   2.269   2.032   1.491  1.8113  1.1981  1.2576
  879SOL    HW2 2637   2.307   1.906   1.598  0.8888 -1.3147 -0.0057
  880SOL     OW 2638   0.748   0.166   1.577  0.8207 -0.2629  0.4308
  880SOL    HW1 2639   0.695   0.142   1.658 -0.1592  2.5590 -0.9477
  880SOL    HW2 2640   0.773   0.266   1.578 -1.0283  0.4938 -4.8395
  881SOL     OW 2641   1.041   2.038   3.027 -0.5763 -0.1999 -0.2432
  881SOL    HW1 2642   1.062   2.018   2.930  1.8900 -2.6237  1.7564
  881SOL    HW2 2643   1.093   1.977   3.092  1.9219  0.1813  0.2817
  882SOL     OW 2644   2.216   1.179   2.017  0.0979  0.0898 -0.2542
  882SOL    HW1 2645   2.267   1.090   2.002  0.2435 -1.9980  0.1313
  882SOL    HW2 2646   2.283   1.255   2.005 -0.5430 -0.8390  0.4480
  883SOL     OW 2647   1.180   0.677   2.085 -0.5753 -0.1776  0.3125
  883SOL    HW1 2648   1.129   0.619   2.016  0.9999  0.3255  2.5965
  883SOL    HW2 2649   1.259   0.628   2.112 -1.7467  1.0564  1.8741
  884SOL     OW 2650   2.769   0.481   0.053  0.0680 -0.4417 -0.4416
  884SOL    HW1 2651   2.794   0.387   0.068 -0.7859  4.0178 -0.7923
  884SOL    HW2 2652   2.835   0.529   3.109 -1.2187  1.6880  2.7681
  885SOL     OW 2653   0.275   2.256   0.374 -0.1716 -0.9029 -0.3598
  885SOL    HW1 2654   0.239   2.174   0.335  1.4206  1.9316  2.7430
  885SOL    HW2 2655   0.354   2.293   0.317 -0.4211  0.1962  0.7243
  886SOL     OW 2656   2.050   1.365   3.105 -0.0893 -1.1829 -0.0932
  886SOL    HW1 2657   2.118   1.319   3.042 -1.1257  0.7006 -1.1284
  886SOL    HW2 2658   1.956   1.337   3.082  2.0055  3.5826  1.6753
  887SOL     OW 2659   1.676   0.609   1.772 -0.0525  0.7225  0.6386
  887SOL    HW1 2660   1.675   0.582   1.869 -0.7923 -0.2957  1.5272
  887SOL    HW2 2661   1.688   0.710   1.759  0.2302 -1.0691 -0.5329
  888SOL     OW 2662   2.994   1.106   1.873 -0.2381  0.4984 -0.1078
  888SOL    HW1 2663   3.075   1.137   1.816  2.1975  2.6729  2.0479
  888SOL    HW2 2664   2.999   1.137   1.973 -0.7216 -1.8755  3.3006
  889SOL     OW 2665   2.802   2.641   0.986  0.1394  0.2262  0.1872
  889SOL    HW1 2666   2.898   2.664   1.016  0.5284  2.7838  0.1993
  889SOL    HW2 2667   2.807   2.579   0.906 -1.5453  3.6232  0.3679
  890SOL     OW 2668   0.079   2.654   2.629 -0.4485  0.0406  0.1517
  890SOL    HW1 2669   0.088   2.551   2.639 -0.0674  0.7655  0.0502
  890SOL    HW2 2670   0.050   2.696   2.713 -2.3662 -0.7386  0.3038
  891SOL     OW 2671   0.402   1.872   0.177 -0.5710 -0.0242 -0.1698
  891SOL    HW1 2672   0.486   1.932   0.161  1.7776  0.5201  0.0834
  891SOL    HW2 2673   0.438   1.776   0.199  1.7125 -0.0730  1.1310
  892SOL     OW 2674   0.130   2.400   1.253 -0.3248  0.1244  0.5336
  892SOL    HW1 2675   0.162   2.309   1.236 -0.0783  4.9600 -0.0039
  892SOL    HW2 2676   0.060   2.401   1.327  0.7816  0.1692 -1.2993
  893SOL     OW 2677   0.702   2.953   1.241  0.1669  0.3654 -1.2003
  893SOL    HW1 2678   0.671   3.034   1.293 -0.5538 -1.6895 -2.4380
  893SOL    HW2 2679   0.637   2.878   1.276 -3.0288 -1.3992 -0.4011
  894SOL     OW 2680   2.300   1.659   0.833  0.1173  0.0335 -0.4638
  894SOL    HW1 2681   2.400   1.645   0.825 -1.4349 -0.0111  1.3232
  894SOL    HW2 2682   2.248   1.629   0.749 -1.8194  2.0109  0.7291
  895SOL     OW 2683   2.700   2.661   1.670 -0.4013  0.4980 -0.1081
  895SOL    HW1 2684   2.751   2.572   1.682  0.4157  0.9938  1.5488
  895SOL    HW2 2685   2.729   2.696   1.575  1.9185 -0.9914  0.3361
  896SOL     OW 2686   1.040   0.460   1.434  0.1460  0.2802  0.2995
  896SOL    HW1 2687   1.138   0.419   1.447  1.4465 -2.5920  0.9903
  896SOL    HW2 2688   0.985   0.455   1.515  1.1189  1.4346 -0.1434
  897SOL     OW 2689   1.023   1.631   1.527  0.6602 -0.0378 -0.0541
  897SOL    HW1 2690   0.975   1.715   1.494  0.3115 -0.3796 -1.1595
  897SOL    HW2 2691   1.112   1.617   1.479 -1.8142  1.1425  0.2951
  898SOL     OW 2692   1.514   2.783   1.740  0.4935  0.7814  0.0616
  898SOL    HW1 2693   1.537   2.865   1.687  1.7445 -1.3123 -0.0378
  898SOL    HW2 2694   1.418   2.753   1.731  2.0262 -1.4350 -0.1025
  899SOL     OW 2695   0.990   0.520   3.102 -0.6074 -0.0997 -0.7795
  899SOL    HW1 2696   1.085   0.500   3.081  1.1703  1.5926  2.2259
  899SOL    HW2 2697   0.926   0.440   3.083 -0.7178 -1.5829 -1.6644
  900SOL     OW 2698   1.483   2.376   2.152  0.6322  0.1993 -0.3115
  900SOL    HW1 2699   1.499   2.421   2.244 -3.8078  0.9857  1.7438
  900SOL    HW2 2700   1.558   2.393   2.090 -2.1894  0.5553  1.1358
  901SOL     OW 2701   1.110   2.246   0.089 -0.0829  0.1292  0.2990
  901SOL    HW1 2702   1.073   2.180   0.016 -0.0304  0.6785 -1.1880
  901SOL    HW2 2703   1.176   2.194   0.147 -1.7909 -0.4041 -1.9522
  902SOL     OW 2704   1.532   1.328   0.822  0.4828 -0.2087  0.2962
  902SOL    HW1 2705   1.438   1.364   0.805  0.2746 -0.2177  0.3654
  902SOL    HW2 2706   1.599   1.400   0.803  3.7390 -0.4708 -0.4054
  903SOL     OW 2707   2.326   1.092   0.213 -0.1341  0.0482  0.0406
  903SOL    HW1 2708   2.332   1.061   0.119  0.0230  0.6851  0.9551
  903SOL    HW2 2709   2.404   1.059   0.265 -1.9657  2.4691  1.2393
  904SOL     OW 2710   0.848   1.290   0.084 -0.0851  0.0112 -0.5773
  904SOL    HW1 2711   0.789   1.234   0.021  1.2552 -1.2166  0.5320
  904SOL    HW2 2712   0.793   1.303   0.171  0.6294 -0.2951  0.0604
  905SOL     OW 2713   2.253   2.904   1.212 -0.0916  0.0932  0.0772
  905SOL    HW1 2714   2.214   2.818   1.252 -1.2550  1.7291 -1.9898
  905SOL    HW2 2715   2.277   2.969   1.287 -1.0681 -0.7502  2.1046
  906SOL     OW 2716   2.782   2.544   1.229  0.1685 -0.7465 -0.0341
  906SOL    HW1 2717   2.796   2.584   1.135  0.5685  0.2801  1.0598
  906SOL    HW2 2718   2.737   2.452   1.225 -0.1454 -2.3526  1.6676
  907SOL     OW 2719   1.251   1.069   0.376 -0.4015 -0.1484  0.0538
  907SOL    HW1 2720   1.232   0.968   0.393  0.2107 -3.3392 -0.2673
  907SOL    HW2 2721   1.204   1.096   0.285 -1.4222  0.1439 -0.0894
  908SOL     OW 2722   1.548   0.167   0.923  0.1232  0.4752 -0.2603
  908SOL    HW1 2723   1.522   0.130   1.014  0.6840  0.4461 -1.6984
  908SOL    HW2 2724   1.630   0.221   0.937  0.3991 -0.3151 -0.7725
  909SOL     OW 2725   2.206   1.065   1.492  0.6361 -0.8892 -0.2423
  909SOL    HW1 2726   2.277   1.121   1.535 -3.8796  1.6442 -3.2709
  909SOL    HW2 2727   2.205   1.067   1.393 -1.1340  0.4501  1.0109
  910SOL     OW 2728   1.928   0.528   2.203 -0.3645  0.3052  0.1590
  910SOL    HW1 2729   1.954   0.623   2.224  2.7055  0.2343 -0.2832
  910SOL    HW2 2730   2.016   0.492   2.158  0.2375 -0.3704 -1.0432
  911SOL     OW 2731   2.565   0.863   2.988 -0.5275 -0.1303 -0.2292
  911SOL    HW1 2732   2.603   0.805   2.914  1.7681 -0.1308  1.4171
  911SOL    HW2 2733   2.636   0.888   3.055  0.7302  0.8760  1.6027
  912SOL     OW 2734   0.091   1.219   1.742 -0.0911 -0.0647 -0.5844
  912SOL    HW1 2735   0.093   1.228   1.644 -0.5760  0.9010 -0.6507
  912SOL    HW2 2736   0.104   1.307   1.783 -0.4457 -1.6573 -2.2340
  913SOL     OW 2737   3.023   2.426   1.458  0.1512  0.1964 -0.1318
  913SOL    HW1 2738   3.066   2.339   1.494  0.8818 -1.8340  1.0006
  913SOL    HW2 2739   2.921   2.419   1.491 -1.1577 -0.4541 -0.0053
  914SOL     OW 2740   1.641   0.982   1.945 -0.5739 -0.4443  0.4429
  914SOL    HW1 2741   1.713   1.056   1.955  2.9108  0.1325 -2.7064
  914SOL    HW2 2742   1.665   0.927   1.857  3.0649 -4.6726 -3.0474
  915SOL     OW 2743   2.186   0.820   1.163  0.1275  0.2437 -0.2353
  915SOL    HW1 2744   2.186   0.748   1.237 -1.8722 -0.1182 -1.3142
  915SOL    HW2 2745   2.277   0.834   1.118 -2.1609  1.7836  0.9815
  916SOL     OW 2746   1.933   2.269   1.166 -0.2690 -0.4041  0.1966
  916SOL    HW1 2747   1.874   2.350   1.138 -1.8269 -1.2195 -0.5079
  916SOL    HW2 2748   1.881   2.184   1.191 -0.1275  0.6339  2.4240
  917SOL     OW 2749   1.901   2.055   2.471  0.0023 -0.3078  0.3750
  917SOL    HW1 2750   1.811   2.092   2.435 -1.4708 -1.1170 -1.1907
  917SOL    HW2 2751   1.914   2.063   2.573  0.0654  0.4823  2.2810
  918SOL     OW 2752   2.003   2.491   2.486  0.3295  0.3396 -0.5507
  918SOL    HW1 2753   1.978   2.564   2.546 -0.2137  0.6195  0.5494
  918SOL    HW2 2754   1.925   2.447   2.434 -2.1030 -0.4242 -0.4401
  919SOL     OW 2755   1.298   2.825   1.428 -0.5426  0.2822  0.0385
  919SOL    HW1 2756   1.310   2.883   1.350  2.8012 -1.1951 -0.5126
  919SOL    HW2 2757   1.327   2.724   1.404  0.0415 -1.2415  1.3034
  920SOL     OW 2758   0.194   3.056   2.411 -0.2484 -0.2996  0.1619
  920SOL    HW1 2759   0.203   2.957   2.426  2.6528  1.2860 -0.1325
  920SOL    HW2 2760   0.128   3.105   2.472  1.4084  0.9738  1.6259
  921SOL     OW 2761   3.060   0.866   1.604  0.2836 -0.2511  0.4680
  921SOL    HW1 2762   3.015   0.906   1.518 -0.8255  1.0308 -0.9531
  921SOL    HW2 2763   0.046   0.874   1.597  0.6818  0.0558 -2.1028
  922SOL     OW 2764   2.282   2.648   0.414 -0.0358 -0.0248  0.5010
  922SOL    HW1 2765   2.194   2.633   0.366 -0.5100 -0.3537  2.5489
  922SOL    HW2 2766   2.358   2.588   0.378  0.5780  0.4835 -0.0225
  923SOL     OW 2767   0.600   2.008   0.656  0.2228 -0.3771 -0.8278
  923SOL    HW1 2768   0.652   2.089   0.677 -3.5262 -2.1781 -1.1440
  923SOL    HW2 2769   0.506   2.029   0.637 -0.1718 -0.1747  1.1598
  924SOL     OW 2770   1.184   0.682   0.137 -0.4461  0.0300 -0.0445
  924SOL    HW1 2771   1.111   0.708   0.073 -0.2727 -0.8454  0.1731
  924SOL    HW2 2772   1.215   0.589   0.124 -0.9223  1.6812  0.1446
  925SOL     OW 2773   2.654   1.053   1.111 -0.2338 -0.5405 -0.4084
  925SOL    HW1 2774   2.670   1.113   1.193 -1.2271  0.0113  2.8887
  925SOL    HW2 2775   2.562   1.073   1.072 -2.2990  2.5602 -0.6464
  926SOL     OW 2776   0.518   0.231   1.169 -0.6753  0.1759 -0.6094
  926SOL    HW1 2777   0.445   0.296   1.197  2.1122 -0.7421  2.3857
  926SOL    HW2 2778   0.536   0.168   1.245 -0.5665 -0.0322 -1.7111
  927SOL     OW 2779   0.292   1.601   2.425  0.2031  0.5495  0.0944
  927SOL    HW1 2780   0.222   1.591   2.500 -0.6017  1.1471 -0.0024
  927SOL    HW2 2781   0.280   1.526   2.356 -1.3996  0.8607  0.3691
  928SOL     OW 2782   0.112   0.314   2.471  0.1237  0.2146  0.5855
  928SOL    HW1 2783   0.042   0.352   2.529 -0.9362 -0.4346  1.0553
  928SOL    HW2 2784   0.187   0.277   2.531  1.8797 -0.0495 -1.3994
  929SOL     OW 2785   2.884   2.990   1.112  0.0560  0.2470  0.2135
  929SOL    HW1 2786   2.924   2.989   1.014  0.7283 -0.3774  0.7067
  929SOL    HW2 2787   2.824   3.073   1.125 -1.4743  0.4800  1.8218
  930SOL     OW 2788   2.202   0.622   1.882 -0.2712 -0.5441  0.6913
  930SOL    HW1 2789   2.214   0.554   1.957  2.1600  2.6579 -0.0085
  930SOL    HW2 2790   2.144   0.696   1.917 -0.7680 -0.5880 -3.4497
  931SOL     OW 2791   1.799   1.301   3.060  0.7514 -0.1761  0.4079
  931SOL    HW1 2792   1.720   1.249   3.027  0.6109  1.3150  0.0537
  931SOL    HW2 2793   1.782   1.346   0.032 -0.5290 -2.8650 -2.4970
  932SOL     OW 2794   1.997   1.237   0.377 -0.2881 -0.0484 -0.5829
  932SOL    HW1 2795   2.033   1.143   0.352  0.3355 -0.7611  0.5988
  932SOL    HW2 2796   1.922   1.225   0.442 -0.0929 -3.0057  3.0866
  933SOL     OW 2797   2.127   1.758   1.044 -0.6307  0.0227  0.0761
  933SOL    HW1 2798   2.190   1.701   0.989  1.1916  0.4915  3.8431
  933SOL    HW2 2799   2.180   1.790   1.124 -1.6186 -1.7252 -0.2405
  934SOL     OW 2800   2.040   0.879   2.673  0.4046  0.2631 -0.3515
  934SOL    HW1 2801   2.035   0.793   2.617 -3.3944  0.3207 -0.5355
  934SOL    HW2 2802   1.949   0.920   2.670  0.2088  0.4964 -1.1774
  935SOL     OW 2803   0.220   1.015   0.688 -0.0751 -0.3789 -0.2033
  935SOL    HW1 2804   0.275   1.102   0.696 -1.1779  0.4335  1.3936
  935SOL    HW2 2805   0.120   1.034   0.665  0.7235 -1.3307  1.4733
  936SOL     OW 2806   0.437   0.111   0.924 -0.2918  0.4943 -0.5503
  936SOL    HW1 2807   0.503   0.035   0.921 -0.2540 -0.8135 -1.1814
  936SOL    HW2 2808   0.469   0.182   0.997  2.8076 -0.3750  2.2346
  937SOL     OW 2809   0.034   3.000   2.042  0.0643 -0.0824  0.5821
  937SOL    HW1 2810   0.027   2.915   2.091  1.5561  1.8301 -1.1372
  937SOL    HW2 2811   3.096   2.993   1.953  0.1746  1.0458 -1.4372
  938SOL     OW 2812   0.119   2.633   0.157 -0.3070 -0.2617  0.5377
  938SOL    HW1 2813   0.025   2.595   0.134 -0.8005 -0.0702 -1.2052
  938SOL    HW2 2814   0.125   2.686   0.246 -1.8643  0.1223  0.2179
  939SOL     OW 2815   1.099   1.872   1.025  0.0070 -0.5227  0.6344
  939SOL    HW1 2816   1.031   1.804   0.989  0.5339 -2.4067 -1.6128
  939SOL    HW2 2817   1.150   1.826   1.102 -0.5088  0.5110 -0.0038
  940SOL     OW 2818   0.033   0.418   2.921  0.0017 -0.3186  0.2029
  940SOL    HW1 2819   0.018   0.328   2.968  2.5832 -0.8994 -0.5217
  940SOL    HW2 2820   0.134   0.435   2.926  2.8346 -1.5959 -0.3140
  941SOL     OW 2821   2.031   0.306   2.654  0.4332 -0.0207  0.1468
  941SOL    HW1 2822   1.984   0.389   2.683 -0.0975 -1.5461  1.2096
  941SOL    HW2 2823   1.972   0.226   2.661  0.3931 -0.4691 -0.0831
  942SOL     OW 2824   1.276   0.428   0.943  0.2183 -0.2251 -0.2043
  942SOL    HW1 2825   1.315   0.402   1.033 -2.7391 -0.4802 -1.9059
  942SOL    HW2 2826   1.191   0.481   0.956 -0.1242 -1.6076 -0.5955
  943SOL     OW 2827   1.096   0.731   1.726 -0.5215 -0.0298 -0.2108
  943SOL    HW1 2828   1.124   0.661   1.796 -1.0557 -2.1387 -1.0875
  943SOL    HW2 2829   1.031   0.799   1.775 -1.1611 -0.6796 -0.7804
  944SOL     OW 2830   1.972   0.884   1.498 -0.2629 -0.5000 -0.0943
  944SOL    HW1 2831   2.025   0.814   1.544  0.8315 -1.2907  0.8434
  944SOL    HW2 2832   2.031   0.965   1.488 -0.3404  1.0735 -1.4274
  945SOL     OW 2833   2.719   3.064   0.193 -0.1776  0.4093 -0.5081
  945SOL    HW1 2834   2.716   3.058   0.293  0.7244  3.2312  0.5552
  945SOL    HW2 2835   2.626   3.039   0.151 -0.8653 -0.2230  0.3088
  946SOL     OW 2836   2.850   0.704   1.928  0.3509  0.6298 -0.2480
  946SOL    HW1 2837   2.764   0.685   1.983 -0.2782 -0.9981  1.5368
  946SOL    HW2 2838   2.830   0.771   1.851 -0.5767  3.5492 -2.6048
  947SOL     OW 2839   1.040   2.823   0.130  0.1419 -0.4785  0.2605
  947SOL    HW1 2840   1.084   2.787   0.046 -1.3887 -1.8399 -0.2879
  947SOL    HW2 2841   0.958   2.765   0.146 -0.0828  2.4471  0.2931
  948SOL     OW 2842   2.508   1.912   1.319  0.0667  0.7550 -0.0921
  948SOL    HW1 2843   2.455   1.923   1.407 -1.1434  0.2201 -1.4515
  948SOL    HW2 2844   2.553   1.819   1.322  1.2445 -0.7960 -0.4168
  949SOL     OW 2845   0.242   1.325   3.014  0.1828  0.0005  0.4186
  949SOL    HW1 2846   0.212   1.254   2.946 -1.2275 -0.2887 -2.0381
  949SOL    HW2 2847   0.245   1.416   2.965  0.3778  0.9403 -1.0866
  950SOL     OW 2848   0.678   2.470   0.945 -0.2597 -0.0042 -0.1632
  950SOL    HW1 2849   0.683   2.504   1.045  1.7774 -0.4501  0.8633
  950SOL    HW2 2850   0.583   2.478   0.912  0.7945 -0.7812  1.5268
  951SOL     OW 2851   0.557   1.355   2.594  0.1978  0.6223 -0.2457
  951SOL    HW1 2852   0.537   1.449   2.614  4.7753 -1.6014  0.4971
  951SOL    HW2 2853   0.549   1.300   2.682  2.2973 -2.6006  0.9897
  952SOL     OW 2854   0.328   0.792   0.626  0.2383  0.4098 -0.0198
  952SOL    HW1 2855   0.431   0.801   0.648  1.1228  0.4026 -1.5413
  952SOL    HW2 2856   0.285   0.888   0.645 -0.1952  1.2756  1.7364
  953SOL     OW 2857   2.629   2.946   2.376  0.3121 -0.5142  0.7764
  953SOL    HW1 2858   2.606   2.998   2.461 -0.8510  2.7895 -0.8096
  953SOL    HW2 2859   2.730   2.944   2.352  0.0264  0.7516 -0.7916
  954SOL     OW 2860   1.428   1.056   0.811  0.0860  1.4397 -0.4391
  954SOL    HW1 2861   1.441   1.151   0.779 -1.3057 -3.4199  0.9624
  954SOL    HW2 2862   1.392   0.991   0.736 -2.9028 -3.2063 -0.3533
  955SOL     OW 2863   0.717   1.919   0.154 -0.7670 -0.1860  0.2174
  955SOL    HW1 2864   0.775   1.839   0.124 -0.7276 -0.5600 -2.3300
  955SOL    HW2 2865   0.757   1.981   0.223 -0.6383  1.4204  2.2594
  956SOL     OW 2866   2.130   0.130   2.184 -0.2107 -0.4265 -0.6369
  956SOL    HW1 2867   2.104   0.138   2.281  0.5783 -0.0878  0.4355
  956SOL    HW2 2868   2.230   0.107   2.183 -0.1230 -2.2973 -1.3237
  957SOL     OW 2869   2.283   2.406   2.062  0.3008 -0.4135 -0.4986
  957SOL    HW1 2870   2.319   2.477   2.124 -2.3336  3.1910 -3.6299
  957SOL    HW2 2871   2.312   2.314   2.098 -1.1261 -0.0653 -0.7410
  958SOL     OW 2872   1.677   1.093   1.306 -0.4123  0.6092  0.1148
  958SOL    HW1 2873   1.698   1.136   1.392 -0.8237  1.4672 -1.0918
  958SOL    HW2 2874   1.759   1.036   1.282 -0.1651 -1.2377 -1.6120
  959SOL     OW 2875   2.086   1.856   2.068  0.5552 -0.0935  0.2248
  959SOL    HW1 2876   2.078   1.941   2.019 -1.7482 -1.4557 -1.9856
  959SOL    HW2 2877   2.066   1.859   2.170  0.7342  1.7183  2.7489
  960SOL     OW 2878   0.413   0.972   2.826  0.6545 -0.0911  0.0751
  960SOL    HW1 2879   0.415   0.915   2.741  1.2325  0.3275  1.4575
  960SOL    HW2 2880   0.436   0.921   2.914  1.3197 -2.9689  0.0296
  961SOL     OW 2881   0.106   1.292   2.644  0.3879  0.7889 -0.3023
  961SOL    HW1 2882   0.136   1.231   2.720  2.0074 -0.9858  1.7029
  961SOL    HW2 2883   0.082   1.240   2.561  0.5046  1.7823  0.2084
  962SOL     OW 2884   0.525   1.718   2.342  0.1152  0.0337  0.3203
  962SOL    HW1 2885   0.433   1.676   2.375 -2.4541 -0.7767 -1.8673
  962SOL    HW2 2886   0.544   1.802   2.396  1.0608  0.2417  1.0292
  963SOL     OW 2887   2.799   1.887   0.015  0.1621 -0.4516  0.2410
  963SOL    HW1 2888   2.723   1.844   3.082  3.1113  1.1347  1.9620
  963SOL    HW2 2889   2.821   1.840   0.102 -4.1928  1.1862  2.6549
  964SOL     OW 2890   0.784   2.145   1.836 -0.1141 -0.0924  0.1672
  964SOL    HW1 2891   0.759   2.208   1.907  0.7188 -1.3616  0.3781
  964SOL    HW2 2892   0.882   2.123   1.838  2.9614  0.7340  1.3486
  965SOL     OW 2893   1.596   1.928   0.531 -0.4331  0.0641 -0.2201
  965SOL    HW1 2894   1.646   2.001   0.584 -0.4799 -0.1524 -0.2002
  965SOL    HW2 2895   1.656   1.891   0.460 -1.7284 -0.8164 -1.2048
  966SOL     OW 2896   2.699   1.489   0.270 -0.4005 -0.2747  0.5604
  966SOL    HW1 2897   2.679   1.422   0.191  0.5559 -0.5573  0.6895
  966SOL    HW2 2898   2.720   1.442   0.358 -0.1249 -0.4400  1.7385
  967SOL     OW 2899   2.021   0.033   1.967 -0.1252  0.1651 -0.8121
  967SOL    HW1 2900   2.052   0.087   2.047 -0.3006 -0.7351 -1.2132
  967SOL    HW2 2901   2.101   0.014   1.908 -1.2627  1.2808  0.1510
  968SOL     OW 2902   1.265   0.184   0.109  0.2197  0.5471  0.2620
  968SOL    HW1 2903   1.263   0.179   0.007  1.0882 -1.4569  0.8054
  968SOL    HW2 2904   1.275   0.277   0.149 -2.2318 -2.0476 -1.5715
  969SOL     OW 2905   0.244   1.651   2.078  0.4564 -0.0826  0.1779
  969SOL    HW1 2906   0.326   1.709   2.053  0.1317  0.4899 -0.3758
  969SOL    HW2 2907   0.268   1.576   2.146 -4.6841  2.4869 -1.5896
  970SOL     OW 2908   1.958   2.827   1.114 -0.1103 -0.1340 -0.2220
  970SOL    HW1 2909   1.998   2.873   1.196 -0.5341 -0.8850  1.7495
  970SOL    HW2 2910   2.007   2.742   1.096 -1.4190  0.2939 -0.1327
  971SOL     OW 2911   2.310   2.337   0.803  0.1971 -0.0292 -0.4339
  971SOL    HW1 2912   2.324   2.432   0.833  1.0236 -3.1423  0.1302
  971SOL    HW2 2913   2.369   2.318   0.724  1.1235  0.3999  0.9289
  972SOL     OW 2914   0.013   0.943   2.518  0.0657 -0.2185  0.3209
  972SOL    HW1 2915   0.042   0.848   2.493 -0.4390 -1.5940  2.6781
  972SOL    HW2 2916   3.093   0.934   2.613 -1.0118  0.0643 -2.1121
  973SOL     OW 2917   0.633   0.291   0.654  0.1700 -0.2087 -0.0350
  973SOL    HW1 2918   0.607   0.323   0.747  0.8101 -2.0349  1.5656
  973SOL    HW2 2919   0.698   0.212   0.660  0.2578 -0.5263 -0.9733
  974SOL     OW 2920   2.334   0.940   2.005  0.0995  0.2642  0.0672
  974SOL    HW1 2921   2.421   0.893   2.021 -0.6612 -1.7665  0.9799
  974SOL    HW2 2922   2.275   0.886   1.936  1.0669 -0.3845  0.5540
  975SOL     OW 2923   0.174   0.063   0.281  0.1644  0.2941  0.3235
  975SOL    HW1 2924   0.142   0.034   0.377  0.1514 -0.6235  1.8345
  975SOL    HW2 2925   0.277   0.067   0.277  1.1523 -1.9711 -1.1395
  976SOL     OW 2926   0.328   1.768   0.972  0.2345  0.2775  0.5129
  976SOL    HW1 2927   0.297   1.728   1.061 -1.8049  0.4625 -0.4332
  976SOL    HW2 2928   0.272   1.745   0.889 -1.2793  0.5320 -0.7610
  977SOL     OW 2929   0.977   1.912   0.683  0.9428 -0.3830  0.8658
  977SOL    HW1 2930   0.981   1.836   0.612 -1.0275 -0.5977 -0.0535
  977SOL    HW2 2931   0.880   1.919   0.720  0.1160  2.0194  0.2667
  978SOL     OW 2932   0.107   0.917   0.081 -0.0411  0.2463 -0.3926
  978SOL    HW1 2933   0.129   0.858   3.112  0.7101  1.1346 -1.1735
  978SOL    HW2 2934   0.044   0.995   0.058 -1.9738  1.3048  3.8869
  979SOL     OW 2935   1.702   1.499   0.693 -0.2622  0.3897 -0.0267
  979SOL    HW1 2936   1.787   1.552   0.684 -1.6862 -2.1844  0.3100
  979SOL    HW2 2937   1.617   1.555   0.678 -3.0560  0.6879  0.2928
  980SOL     OW 2938   0.745   2.289   2.049 -0.1380 -0.3201  0.5198
  980SOL    HW1 2939   0.825   2.354   2.038  2.9607  1.6630 -0.6331
  980SOL    HW2 2940   0.749   2.248   2.139  0.1672 -0.0899 -1.8744
  981SOL     OW 2941   2.344   0.953   3.089 -0.4441  0.0251  0.0013
  981SOL    HW1 2942   2.290   0.962   3.004  1.0054  2.2945 -2.3927
  981SOL    HW2 2943   2.434   0.921   3.056 -3.5550 -0.2622 -1.4457
  982SOL     OW 2944   0.082   2.665   1.942 -0.2174 -0.1664  0.1732
  982SOL    HW1 2945   0.070   2.691   2.039 -1.3195  1.6346  1.0059
  982SOL    HW2 2946   0.180   2.678   1.906  1.0205 -0.8755 -1.2778
  983SOL     OW 2947   1.879   0.457   1.620 -0.2788  0.5635  0.6718
  983SOL    HW1 2948   1.843   0.434   1.524  1.4685 -1.4451 -0.8302
  983SOL    HW2 2949   1.815   0.519   1.672  1.4856 -0.7589  0.2551
  984SOL     OW 2950   1.972   3.009   2.523  0.1000 -0.4900  0.1088
  984SOL    HW1 2951   2.052   2.955   2.545 -0.8141  1.6824 -2.2896
  984SOL    HW2 2952   1.895   2.972   2.577  0.5579  1.3863 -1.4861
  985SOL     OW 2953   1.573   1.407   1.663  0.1148 -0.1375 -0.3614
  985SOL    HW1 2954   1.509   1.330   1.672 -0.3959 -0.7369 -1.5374
  985SOL    HW2 2955   1.527   1.486   1.707  0.0968 -1.9411  0.4235
  986SOL     OW 2956   2.143   2.697   2.212  0.2633  0.0987 -0.4797
  986SOL    HW1 2957   2.235   2.656   2.213  0.7329 -1.3716  1.0042
  986SOL    HW2 2958   2.124   2.743   2.299  0.8033 -1.5408  2.0584
  987SOL     OW 2959   2.735   1.743   2.800  0.0930 -0.4845 -0.0601
  987SOL    HW1 2960   2.837   1.750   2.829  2.5822 -1.0843  0.7664
  987SOL    HW2 2961   2.709   1.828   2.749 -2.0160 -0.6480  1.4110
  988SOL     OW 2962   3.034   0.567   1.569 -0.0707 -0.3188 -0.1631
  988SOL    HW1 2963   3.064   0.666   1.588  0.1850  1.4155  2.3317
  988SOL    HW2 2964   2.953   0.562   1.507 -1.9539 -2.4690 -1.3815
  989SOL     OW 2965   2.018   1.243   1.671  0.1376 -0.5080  0.7983
  989SOL    HW1 2966   2.072   1.158   1.649  3.7402 -1.7308  0.8939
  989SOL    HW2 2967   2.073   1.328   1.642  1.6023  0.8604 -0.7257
  990SOL     OW 2968   2.957   0.601   2.999 -0.6487  0.4428 -0.3051
  990SOL    HW1 2969   3.037   0.543   2.970  1.7151 -2.4653 -1.0732
  990SOL    HW2 2970   2.974   0.703   2.992  1.0086  2.4315  1.2378
  991SOL     OW 2971   0.260   1.783   3.081  0.2744 -0.1911 -0.1787
  991SOL    HW1 2972   0.222   1.863   3.021 -2.6331  0.0507  1.1438
  991SOL    HW2 2973   0.310   1.816   0.054  0.1648 -1.9724 -0.0915
  992SOL     OW 2974   2.275   1.858   1.755  0.1301  0.3317 -0.4751
  992SOL    HW1 2975   2.213   1.792   1.803 -1.2486  0.3772 -0.4946
  992SOL    HW2 2976   2.265   1.951   1.793 -0.1009 -0.8586 -1.4871
  993SOL     OW 2977   0.612   3.037   0.892 -0.2513  0.3044  0.2170
  993SOL    HW1 2978   0.680   3.045   0.964 -3.1493  1.5649 -0.8035
  993SOL    HW2 2979   0.649   2.999   0.805 -0.7395 -0.8320 -0.3530
  994SOL     OW 2980   2.738   2.120   1.577 -0.0303  0.2597  0.0473
  994SOL    HW1 2981   2.812   2.064   1.613 -0.6393  1.9918  1.8520
  994SOL    HW2 2982   2.674   2.156   1.653 -0.8064  0.0095  4.5956
  995SOL     OW 2983   2.048   1.851   2.341  0.2506  0.3088 -0.1285
  995SOL    HW1 2984   2.003   1.931   2.381  1.1506 -1.4652 -0.2484
  995SOL    HW2 2985   2.026   1.759   2.382  1.0419 -2.1645  2.8306
  996SOL     OW 2986   1.986   1.765   3.013 -0.7339 -0.2871  0.4643
  996SOL    HW1 2987   1.893   1.799   3.038 -1.0719  0.3221  0.0369
  996SOL    HW2 2988   2.027   1.709   3.092 -0.0075  0.9788  1.8030
  997SOL     OW 2989   0.892   1.333   1.964  0.2365  0.1352 -0.0743
  997SOL    HW1 2990   0.816   1.357   2.030 -0.6279 -0.3012 -0.5308
  997SOL    HW2 2991   0.975   1.392   1.967  2.7459  1.2934  1.4813
  998SOL     OW 2992   2.722   2.170   0.482 -0.1868 -0.1694 -0.3837
  998SOL    HW1 2993   2.703   2.094   0.420  1.9960  2.5927  1.1059
  998SOL    HW2 2994   2.651   2.172   0.553 -0.9472  4.1328  2.6841
  999SOL     OW 2995   0.089   2.573   0.835 -0.2362  0.1550  0.2679
  999SOL    HW1 2996   0.042   2.491   0.791 -2.2253 -0.5238  0.8885
  999SOL    HW2 2997   0.137   2.627   0.765  0.0108 -1.0460  0.5847
 1000SOL     OW 2998   1.067   0.020   2.952  0.2154 -0.0591  0.8291
 1000SOL    HW1 2999   1.026   0.002   3.043 -2.0887  1.2299 -1.3210
 1000SOL    HW2 3000   1.137   0.096   2.954 -1.2410 -0.5198 -0.7362
   3.11440   3.11440   3.11440
