1000 SPC/Fw water molecules t= 483.00000 step= 483000
 3000
    1SOL     OW    1   2.778   3.066   1.310 -0.2782 -0.2551 -0.5161
    1SOL    HW1    2   2.793   0.046   1.270  0.4502 -4.0181  0.3087
    1SOL    HW2    3   2.684   3.045   1.336  1.0854  0.5540 -0.4584
    2SOL     OW    4   2.968   2.676   2.956 -0.1666 -0.0606 -0.2748
    2SOL    HW1    5   2.916   2.741   2.901  0.8375 -0.1154  1.5768
    2SOL    HW2    6   2.915   2.593   2.979  0.0378  2.5748  0.9895
    3SOL     OW    7   1.155   1.961   0.248  0.5784  0.2137  0.7273
    3SOL    HW1    8   1.149   2.034   0.172 -0.3248 -0.0097 -0.3248
    3SOL    HW2    9   1.245   1.951   0.290 -1.9332 -0.0185 -0.8200
    4SOL     OW   10   1.293   2.816   2.327  0.0723 -0.0488 -0.0689
    4SOL    HW1   11   1.229   2.804   2.251  2.6310  0.4337  0.4111
    4SOL    HW2   12   1.260   2.777   2.417  0.3539  0.1315 -1.6442
    5SOL     OW   13   1.957   0.199   3.058  0.5571 -0.2189  0.5014
    5SOL    HW1   14   1.879   0.133   3.049 -2.4771 -2.2118 -0.4135
    5SOL    HW2   15   1.944   0.258   0.028 -0.8695 -1.6520  3.1799
    6SOL     OW   16   0.244   1.588   1.061 -0.3327 -0.2206  0.3517
    6SOL    HW1   17   0.239   1.660   1.138 -0.8892 -0.3106  2.3113
    6SOL    HW2   18   0.250   1.623   0.965 -0.5201  0.2890 -5.8481
    7SOL     OW   19   1.287   1.804   0.619  0.3111  0.0813 -0.1394
    7SOL    HW1   20   1.214   1.738   0.642 -0.7346  2.1947 -0.1117
    7SOL    HW2   21   1.355   1.810   0.696 -1.2070 -1.4895 -0.7844
    8SOL     OW   22   0.405   0.461   0.422  0.5497 -0.1777 -0.7127
    8SOL    HW1   23   0.478   0.473   0.352 -1.4711 -0.9581  0.2232
    8SOL    HW2   24   0.376   0.549   0.464  1.4158 -1.2770  0.9678
    9SOL     OW   25   0.224   2.626   1.726  0.1994  0.2851  0.3647
    9SOL    HW1   26   0.315   2.595   1.742 -2.0839  1.6132 -2.3139
    9SOL    HW2   27   0.218   2.634   1.625  1.4995  0.9631  0.9512
   10SOL     OW   28   1.270   1.518   0.168  0.7122 -0.2918 -0.3608
   10SOL    HW1   29   1.328   1.521   0.081  1.3665  2.2795 -1.4364
   10SOL    HW2   30   1.218   1.430   0.167  1.2426  0.6477 -2.8594
   11SOL     OW   31   1.996   0.589   1.737 -0.0588  0.2882  0.1370
   11SOL    HW1   32   2.037   0.611   1.828 -0.2239  2.0478 -2.5599
   11SOL    HW2   33   1.893   0.603   1.739 -2.6605  2.3877 -0.6303
   12SOL     OW   34   0.392   0.782   2.198  0.4869 -0.4237 -0.3904
   12SOL    HW1   35   0.489   0.817   2.190  1.9566  1.5801  0.0028
   12SOL    HW2   36   0.382   0.683   2.220 -1.6460  0.5359 -0.7140
   13SOL     OW   37   2.010   0.235   0.402  0.1271 -0.0122 -0.2909
   13SOL    HW1   38   2.035   0.164   0.335  2.0118  0.5582 -0.0279
   13SOL    HW2   39   2.006   0.198   0.493 -2.6706  2.2684 -1.5369
   14SOL     OW   40   2.566   2.072   0.112  0.5403 -0.2403 -0.0741
   14SOL    HW1   41   2.470   2.113   0.131 -0.2735  0.1957 -0.5362
   14SOL    HW2   42   2.594   2.091   0.016  0.4776 -0.3467  0.5791
   15SOL     OW   43   2.859   3.073   3.002 -0.2809  0.1920  0.0308
   15SOL    HW1   44   2.855   3.028   2.909 -1.5277 -0.3786  0.4677
   15SOL    HW2   45   2.791   0.032   3.015  2.9284 -1.4288  0.0951
   16SOL     OW   46   3.078   0.845   1.092  0.6242 -0.2596  0.0731
   16SOL    HW1   47   3.109   0.748   1.086 -0.4527 -4.5257 -0.0418
   16SOL    HW2   48   3.049   0.884   1.004  0.9531 -1.0597  2.4110
   17SOL     OW   49   0.601   0.330   1.065 -0.2725  0.4187  0.0212
   17SOL    HW1   50   0.675   0.357   1.000 -2.6361  1.8965  0.4183
   17SOL    HW2   51   0.611   0.388   1.145  0.8921  0.3152 -1.2986
   18SOL     OW   52   2.896   0.168   0.636  0.2193 -0.0195 -0.3134
   18SOL    HW1   53   2.809   0.221   0.643  2.1705  2.3630  0.1129
   18SOL    HW2   54   2.969   0.214   0.689 -0.6309  2.7779 -2.4985
   19SOL     OW   55   2.217   1.683   0.974 -0.4344  0.0667  0.1228
   19SOL    HW1   56   2.315   1.696   0.992 -3.0918  2.6348 -1.4743
   19SOL    HW2   57   2.169   1.764   0.943  2.9653 -1.2136 -1.1027
   20SOL     OW   58   2.007   1.650   2.584  0.0054 -0.1518 -0.0435
   20SOL    HW1   59   1.935   1.686   2.521 -0.2664  1.2435 -0.6057
   20SOL    HW2   60   2.022   1.716   2.661 -1.3346 -0.9869  0.6087
   21SOL     OW   61   1.284   0.247   0.420 -0.6365 -0.2116 -0.5955
   21SOL    HW1   62   1.219   0.188   0.371  1.8166  0.1536  0.5100
   21SOL    HW2   63   1.375   0.200   0.433  0.4750  0.8729 -1.5845
   22SOL     OW   64   2.415   1.034   0.040  0.5154  0.4891  0.1720
   22SOL    HW1   65   2.504   1.084   0.046 -2.0639  0.5528 -0.0302
   22SOL    HW2   66   2.426   0.935   0.012 -1.2221 -1.1768 -0.8659
   23SOL     OW   67   0.485   0.140   2.449  0.2369  0.1922 -0.0808
   23SOL    HW1   68   0.429   0.127   2.360 -3.5311 -2.8159 -2.8209
   23SOL    HW2   69   0.572   0.188   2.427  0.5267  0.6814 -2.0819
   24SOL     OW   70   2.141   2.289   0.885  0.6660 -0.0031  0.5146
   24SOL    HW1   71   2.135   2.386   0.920  0.6025  0.5505  0.1193
   24SOL    HW2   72   2.105   2.287   0.787  0.4812  1.3309  0.4688
   25SOL     OW   73   1.476   0.405   0.186 -0.6762  0.5159  0.0777
   25SOL    HW1   74   1.466   0.307   0.155  0.7875 -0.7820 -0.2281
   25SOL    HW2   75   1.532   0.458   0.120  1.5940  0.5058  2.0813
   26SOL     OW   76   1.091   2.698   2.894 -0.0675  0.7607  0.5166
   26SOL    HW1   77   1.006   2.738   2.929  1.6364 -3.1172 -0.5789
   26SOL    HW2   78   1.125   2.620   2.952 -0.8998  1.3841 -1.6739
   27SOL     OW   79   1.047   0.695   1.454 -0.2689  0.0082 -0.8302
   27SOL    HW1   80   1.117   0.676   1.381  1.7194 -0.0547  0.6016
   27SOL    HW2   81   0.964   0.636   1.429  1.1387  1.0077 -1.8598
   28SOL     OW   82   0.895   2.001   1.278 -0.2622 -0.1178  0.1186
   28SOL    HW1   83   0.863   1.956   1.198  2.5710 -0.3836  1.3391
   28SOL    HW2   84   0.824   2.002   1.349 -0.1993  4.1108  2.0315
   29SOL     OW   85   2.854   0.671   0.746  0.2686  0.1747 -0.0537
   29SOL    HW1   86   2.752   0.687   0.735  1.5350  3.0478  0.8739
   29SOL    HW2   87   2.897   0.750   0.785 -0.7758 -0.9612  2.4778
   30SOL     OW   88   1.562   3.000   1.727 -0.2936  0.5552 -0.0273
   30SOL    HW1   89   1.536   3.023   1.630  1.2896  0.7912 -2.8420
   30SOL    HW2   90   1.482   2.957   1.774 -0.4468 -0.5466 -0.5230
   31SOL     OW   91   1.128   0.122   1.137 -0.4144  0.4471 -0.7256
   31SOL    HW1   92   1.213   0.091   1.185  1.8398  0.2338  0.7117
   31SOL    HW2   93   1.071   0.034   1.119  1.7076  0.4935 -3.1906
   32SOL     OW   94   2.397   1.234   2.213 -0.0407 -0.8179 -0.1966
   32SOL    HW1   95   2.500   1.249   2.216  0.1138  0.7292 -0.8930
   32SOL    HW2   96   2.370   1.182   2.129 -0.2197  2.0590  0.3731
   33SOL     OW   97   2.433   2.850   2.515  0.2123  0.1752  0.1525
   33SOL    HW1   98   2.410   2.824   2.418 -1.4113 -1.9369 -0.1638
   33SOL    HW2   99   2.528   2.861   2.534 -0.8350 -0.5247 -3.7413
   34SOL     OW  100   1.943   0.826   3.063  0.0344 -0.4014 -0.1007
   34SOL    HW1  101   1.990   0.830   0.041 -0.6179 -0.8548 -0.7053
   34SOL    HW2  102   1.840   0.803   3.076  0.2807 -0.5013 -0.8670
   35SOL     OW  103   3.018   1.340   1.245 -0.3852  0.7712  0.3092
   35SOL    HW1  104   0.009   1.332   1.217  4.1085 -2.4885  1.0173
   35SOL    HW2  105   2.968   1.263   1.207  1.9812  0.5114 -0.2675
   36SOL     OW  106   2.199   2.281   2.659 -0.3131  0.0721 -0.9262
   36SOL    HW1  107   2.289   2.273   2.611 -0.2084 -2.3888 -1.4828
   36SOL    HW2  108   2.198   2.366   2.715  1.5964  0.5832 -0.4790
   37SOL     OW  109   1.531   0.073   2.029  0.0867  0.3273  0.1497
   37SOL    HW1  110   1.454   0.127   1.997 -0.0177  1.5479  0.9297
   37SOL    HW2  111   1.610   0.085   1.962 -1.3698  1.1289  0.1460
   38SOL     OW  112   1.085   1.389   2.318  0.2302 -0.3380 -0.0403
   38SOL    HW1  113   1.028   1.441   2.254 -0.5655  0.1742 -0.4537
   38SOL    HW2  114   1.172   1.371   2.269  1.6231 -2.0793  0.6988
   39SOL     OW  115   1.644   0.396   1.740 -0.4619  0.3300  0.3563
   39SOL    HW1  116   1.553   0.389   1.690 -0.2185  0.3794  1.5381
   39SOL    HW2  117   1.667   0.303   1.779  2.0821  1.7197 -2.1682
   40SOL     OW  118   1.052   2.452   0.721  0.5515 -0.2792  0.4455
   40SOL    HW1  119   1.107   2.375   0.686 -1.4721  0.7823 -0.3097
   40SOL    HW2  120   1.110   2.528   0.733 -2.3407 -2.9907  1.5172
   41SOL     OW  121   2.457   2.174   1.185  0.3834 -0.0725 -0.2044
   41SOL    HW1  122   2.407   2.261   1.176 -0.2429  1.1203  1.1421
   41SOL    HW2  123   2.518   2.181   1.266 -1.8685  0.4928  0.2310
   42SOL     OW  124   2.547   3.095   0.441  0.7242 -0.0408 -0.0746
   42SOL    HW1  125   2.636   3.056   0.416 -1.3738  2.1544  1.0703
   42SOL    HW2  126   2.523   3.058   0.527 -0.1908  2.5620 -1.1673
   43SOL     OW  127   0.987   1.617   2.114  0.1267  0.2582 -0.6607
   43SOL    HW1  128   0.972   1.542   2.046 -1.0740 -0.6738 -0.0777
   43SOL    HW2  129   1.086   1.625   2.130  1.2093  0.0161 -2.1898
   44SOL     OW  130   1.898   2.956   1.117  0.1274  0.3859 -0.5744
   44SOL    HW1  131   1.826   3.029   1.111  0.0000  0.6367  2.2616
   44SOL    HW2  132   1.984   2.985   1.069 -2.8265 -1.4880 -0.2983
   45SOL     OW  133   0.148   2.251   2.448  0.4529 -0.1733 -0.4040
   45SOL    HW1  134   0.191   2.166   2.420 -0.2891 -1.3369  2.4238
   45SOL    HW2  135   0.218   2.318   2.469 -1.0186  1.2905 -0.5966
   46SOL     OW  136   0.666   2.634   1.984  0.2613 -0.0631 -0.6072
   46SOL    HW1  137   0.574   2.613   2.014  0.5181 -1.2018 -0.4423
   46SOL    HW2  138   0.728   2.584   2.040 -1.6969  1.8177 -1.9209
   47SOL     OW  139   0.351   1.774   0.558 -0.2442 -0.1435 -0.0801
   47SOL    HW1  140   0.393   1.867   0.537  0.1178  0.7024 -0.7048
   47SOL    HW2  141   0.312   1.721   0.481  0.3090 -0.5094  0.0255
   48SOL     OW  142   0.676   2.903   1.463  0.1390  0.1809 -0.3434
   48SOL    HW1  143   0.652   2.806   1.439  0.5381  0.2910 -3.1542
   48SOL    HW2  144   0.599   2.968   1.480  1.6399 -0.3957 -0.7658
   49SOL     OW  145   0.106   2.775   0.148  0.6088  0.0516 -0.2108
   49SOL    HW1  146   0.177   2.845   0.171 -2.6358  1.4444  1.1510
   49SOL    HW2  147   0.012   2.816   0.140  0.7362 -0.5004  2.1474
   50SOL     OW  148   1.699   0.825   0.575  0.2444  0.0864  0.1378
   50SOL    HW1  149   1.664   0.872   0.660  0.8235  1.1151  1.8526
   50SOL    HW2  150   1.779   0.876   0.534  0.1821 -0.6926 -1.7818
   51SOL     OW  151   1.739   0.103   0.594  0.1787  0.0348  0.4015
   51SOL    HW1  152   1.808   0.030   0.568  0.2509  0.7725  0.2188
   51SOL    HW2  153   1.707   0.081   0.689  0.1941 -0.8663 -0.0998
   52SOL     OW  154   0.542   1.743   1.039 -0.0454  0.1043 -0.0787
   52SOL    HW1  155   0.571   1.683   1.113 -0.4467 -0.7514 -0.7768
   52SOL    HW2  156   0.508   1.833   1.079  1.8192 -0.5019  1.1953
   53SOL     OW  157   0.359   1.128   2.739  0.4874 -0.3296  0.4851
   53SOL    HW1  158   0.374   1.178   2.827  1.6595 -1.2514 -1.1186
   53SOL    HW2  159   0.263   1.099   2.739  1.7383 -1.4676 -1.9943
   54SOL     OW  160   2.242   2.026   2.738  0.5170 -0.2910  0.3009
   54SOL    HW1  161   2.204   2.122   2.713  0.7022 -0.8720 -0.1464
   54SOL    HW2  162   2.246   2.012   2.836  1.4049 -0.8935 -2.1838
   55SOL     OW  163   2.700   2.252   1.346  0.1003  0.0728 -0.1048
   55SOL    HW1  164   2.732   2.352   1.336 -0.5161  1.3192 -0.8505
   55SOL    HW2  165   2.723   2.221   1.441 -1.6078 -0.6023  0.0893
   56SOL     OW  166   1.442   0.867   1.518  0.0332 -0.0547  0.8525
   56SOL    HW1  167   1.456   0.939   1.590 -0.4007  0.5607  1.0648
   56SOL    HW2  168   1.520   0.855   1.455 -3.3996  0.6782 -0.2268
   57SOL     OW  169   2.131   1.926   0.703 -0.2753  0.4330 -0.3672
   57SOL    HW1  170   2.119   1.968   0.797  0.8350 -0.1435  0.2362
   57SOL    HW2  171   2.219   1.881   0.695  1.1949 -1.6777 -1.1321
   58SOL     OW  172   2.010   0.277   2.292  0.0274 -0.0684 -0.2214
   58SOL    HW1  173   1.979   0.319   2.380  1.2943 -1.8455  1.7393
   58SOL    HW2  174   2.097   0.321   2.259 -3.3034  0.2714  0.2326
   59SOL     OW  175   1.449   0.199   2.771  0.1746  0.3685  0.2181
   59SOL    HW1  176   1.524   0.186   2.839 -3.4223  1.7639 -1.3504
   59SOL    HW2  177   1.421   0.114   2.722  1.7736  2.5096 -1.6989
   60SOL     OW  178   1.726   1.675   2.944 -0.3910  0.6369 -0.0012
   60SOL    HW1  179   1.745   1.715   3.036  0.0480 -0.8423  0.1051
   60SOL    HW2  180   1.723   1.743   2.864  0.5164  2.9226  1.0966
   61SOL     OW  181   0.457   2.258   3.046  0.3890 -0.2617 -0.0824
   61SOL    HW1  182   0.379   2.207   3.074  0.5724  1.4066 -0.4016
   61SOL    HW2  183   0.464   2.251   2.944 -0.1996  1.9340 -1.9038
   62SOL     OW  184   1.640   2.140   1.190 -0.5204  0.3901  0.1584
   62SOL    HW1  185   1.552   2.120   1.234 -0.1339 -0.1083  1.4400
   62SOL    HW2  186   1.671   2.050   1.162 -6.3292  0.3443 -1.3569
   63SOL     OW  187   1.082   1.999   0.643 -0.5154  0.0571 -0.2254
   63SOL    HW1  188   1.007   1.986   0.573 -1.7967  0.9469 -2.8982
   63SOL    HW2  189   1.159   1.937   0.633 -2.0026  0.4215 -1.2723
   64SOL     OW  190   1.794   1.747   2.454  0.1553 -0.2021 -0.4919
   64SOL    HW1  191   1.752   1.657   2.441 -2.2991 -0.2917 -1.1269
   64SOL    HW2  192   1.792   1.803   2.369 -1.4418 -2.7556  1.5248
   65SOL     OW  193   1.928   1.954   1.336  0.2536 -0.5436 -0.0619
   65SOL    HW1  194   2.015   1.989   1.297  0.1344 -0.6867 -1.0945
   65SOL    HW2  195   1.875   1.905   1.268  1.4663  0.8332  2.2689
   66SOL     OW  196   2.916   0.712   0.489 -0.4924 -0.0590 -0.5806
   66SOL    HW1  197   2.840   0.674   0.436 -0.6435 -0.6700  0.3540
   66SOL    HW2  198   2.908   0.695   0.588  0.6231  2.6996  0.9641
   67SOL     OW  199   2.143   2.568   0.992 -0.0488 -0.5869  0.2555
   67SOL    HW1  200   2.041   2.574   0.985 -0.0105  1.9400  1.3594
   67SOL    HW2  201   2.190   2.590   0.907  2.4701  4.0548  2.9482
   68SOL     OW  202   2.605   2.433   1.583  0.0313 -0.4606 -0.2951
   68SOL    HW1  203   2.556   2.446   1.491  1.2089 -3.0210 -4.6612
   68SOL    HW2  204   2.570   2.494   1.653  2.6657  0.0258 -1.4382
   69SOL     OW  205   2.803   2.877   2.795 -0.3475 -0.1407  0.1171
   69SOL    HW1  206   2.769   2.891   2.700  0.7867 -0.3374  1.6151
   69SOL    HW2  207   2.725   2.886   2.855  1.6906 -0.5154 -1.6105
   70SOL     OW  208   1.266   1.563   2.117 -0.4275 -0.1958  0.5399
   70SOL    HW1  209   1.308   1.551   2.024 -0.4904 -0.3825  2.8600
   70SOL    HW2  210   1.298   1.649   2.159 -0.8837 -0.0851 -2.0050
   71SOL     OW  211   0.927   1.834   1.858 -0.3296  0.3934 -0.2705
   71SOL    HW1  212   1.010   1.776   1.877 -1.7400 -2.0782 -2.0470
   71SOL    HW2  213   0.887   1.826   1.764  0.1473  1.1927  0.5020
   72SOL     OW  214   2.673   1.209   1.494 -0.8921 -0.2024  0.1889
   72SOL    HW1  215   2.655   1.209   1.596  0.1602  1.1478  2.1801
   72SOL    HW2  216   2.604   1.257   1.443  1.8621 -2.5514 -2.1786
   73SOL     OW  217   0.661   2.103   2.585  0.2750  0.0824 -0.1911
   73SOL    HW1  218   0.624   2.174   2.525  0.2851 -0.8586 -0.4871
   73SOL    HW2  219   0.713   2.154   2.658  1.5559 -3.2551  0.6398
   74SOL     OW  220   0.768   0.121   2.437  0.5338 -0.0479 -0.6328
   74SOL    HW1  221   0.757   0.044   2.377 -2.4017  0.4160 -0.5465
   74SOL    HW2  222   0.835   0.186   2.397  5.7580 -1.0952  0.6967
   75SOL     OW  223   0.882   2.966   0.550  0.2176 -0.1695  0.2027
   75SOL    HW1  224   0.856   2.907   0.627  0.2795 -0.8780  0.9251
   75SOL    HW2  225   0.954   3.033   0.582  0.4108  0.4352  1.9568
   76SOL     OW  226   0.582   1.070   2.623 -0.3221 -0.2789 -0.3055
   76SOL    HW1  227   0.491   1.077   2.661  1.7536 -0.0694 -4.1904
   76SOL    HW2  228   0.585   1.010   2.540  0.9057  0.8444  0.3513
   77SOL     OW  229   0.546   2.806   0.672  0.2835  0.2176  0.2714
   77SOL    HW1  230   0.513   2.727   0.618 -1.6850 -0.8238  2.3259
   77SOL    HW2  231   0.648   2.810   0.673  0.7969 -0.3091 -0.0252
   78SOL     OW  232   2.727   1.204   2.592 -0.2322 -0.2550  0.0173
   78SOL    HW1  233   2.710   1.267   2.511 -3.3462 -0.1005  0.5245
   78SOL    HW2  234   2.706   1.106   2.579  1.0443 -0.6643  1.6978
   79SOL     OW  235   1.107   1.530   2.541 -0.7427  0.0548 -0.0837
   79SOL    HW1  236   1.115   1.469   2.456  0.8847 -0.4347 -1.4366
   79SOL    HW2  237   1.013   1.564   2.564 -0.3154 -2.8555 -0.1832
   80SOL     OW  238   2.145   0.895   1.511 -0.0157 -0.4403  0.0298
   80SOL    HW1  239   2.084   0.978   1.501  0.8484  0.1107 -2.4656
   80SOL    HW2  240   2.241   0.931   1.525  2.3265  0.7110 -0.6846
   81SOL     OW  241   2.273   0.885   2.798  0.3382  0.4137 -0.5639
   81SOL    HW1  242   2.213   0.803   2.796  0.5199  2.9007 -0.9313
   81SOL    HW2  243   2.237   0.958   2.847  2.0758 -0.9140 -3.7742
   82SOL     OW  244   2.505   2.019   1.461  0.0582  0.3889 -0.6271
   82SOL    HW1  245   2.556   2.002   1.377 -1.4127 -1.0251  3.3319
   82SOL    HW2  246   2.481   1.931   1.507 -2.7466 -0.9279 -0.6581
   83SOL     OW  247   1.918   2.914   0.163  0.3471 -0.1251  0.0035
   83SOL    HW1  248   1.866   2.862   0.235 -1.1692 -1.9922  1.2912
   83SOL    HW2  249   1.882   2.888   0.073  2.5566 -1.1514 -0.5921
   84SOL     OW  250   0.800   0.866   0.727  0.1128  0.3274  0.0038
   84SOL    HW1  251   0.847   0.920   0.798  0.0426 -1.4746 -2.2378
   84SOL    HW2  252   0.762   0.773   0.758 -2.4479 -1.8609  2.9542
   85SOL     OW  253   2.156   1.517   1.376  0.2012  0.3296 -0.3717
   85SOL    HW1  254   2.161   1.454   1.296  1.0849 -0.8376  0.6991
   85SOL    HW2  255   2.217   1.596   1.354 -2.2935  0.5911  0.2831
   86SOL     OW  256   0.587   0.816   1.286 -0.2388  0.4510 -0.1574
   86SOL    HW1  257   0.556   0.888   1.222 -3.3252 -0.2046 -0.3293
   86SOL    HW2  258   0.614   0.855   1.378 -0.5619 -0.6088  2.6130
   87SOL     OW  259   3.059   2.389   2.323 -0.2144  0.0684 -0.3075
   87SOL    HW1  260   3.108   2.442   2.251 -0.6380 -1.3152 -0.0123
   87SOL    HW2  261   0.022   2.352   2.378 -1.2220  0.7337 -0.5808
   88SOL     OW  262   0.257   3.012   0.191  0.2161 -0.0092  0.5604
   88SOL    HW1  263   0.343   2.971   0.152  0.4687 -0.7824  0.6528
   88SOL    HW2  264   0.234   3.097   0.137  0.6194  0.0642  2.5218
   89SOL     OW  265   1.393   0.249   1.408  0.4023 -0.3811 -0.6801
   89SOL    HW1  266   1.376   0.148   1.389 -2.9807  0.3591  1.0246
   89SOL    HW2  267   1.397   0.261   1.508  0.3567 -2.5359 -3.7126
   90SOL     OW  268   0.005   1.238   2.015 -0.6998 -0.6964 -0.1768
   90SOL    HW1  269   3.099   1.323   2.070  1.9733  1.0477  0.0517
   90SOL    HW2  270   0.029   1.259   1.920 -0.5571 -0.2649 -0.4143
   91SOL     OW  271   1.921   2.743   0.736  0.1986 -0.3102  0.0902
   91SOL    HW1  272   1.948   2.664   0.674  0.5135  0.4875 -0.8211
   91SOL    HW2  273   1.911   2.708   0.831  1.6454 -0.8232 -1.9033
   92SOL     OW  274   1.862   1.919   0.655 -0.6625 -0.3838  0.2715
   92SOL    HW1  275   1.958   1.923   0.614 -0.8110 -0.0571 -1.5237
   92SOL    HW2  276   1.797   1.972   0.595 -0.2117  2.0252 -0.1256
   93SOL     OW  277   0.483   1.347   0.338  0.3362 -0.5802  0.0926
   93SOL    HW1  278   0.425   1.281   0.288  0.9597  1.5633  1.0493
   93SOL    HW2  279   0.569   1.301   0.368  1.1615 -1.1149 -1.6636
   94SOL     OW  280   0.754   2.302   0.956  0.1754 -0.7810  0.4760
   94SOL    HW1  281   0.846   2.341   0.970  0.9615 -3.1833 -0.8727
   94SOL    HW2  282   0.735   2.229   1.020 -1.7659  0.6559 -2.6611
   95SOL     OW  283   0.336   0.724   0.465 -0.0602  0.1395  0.8316
   95SOL    HW1  284   0.265   0.766   0.524 -0.3640  0.6235 -0.5750
   95SOL    HW2  285   0.419   0.776   0.455 -0.7733  2.0546  0.7771
   96SOL     OW  286   0.877   2.471   2.070 -0.2121 -0.2148  0.2059
   96SOL    HW1  287   0.977   2.478   2.094  0.6645 -0.2971 -0.4300
   96SOL    HW2  288   0.866   2.385   2.014  0.1186 -0.6131 -0.9180
   97SOL     OW  289   2.415   0.890   0.461  0.2928 -0.5386  0.6829
   97SOL    HW1  290   2.468   0.892   0.546  0.8429  0.6832 -2.5278
   97SOL    HW2  291   2.409   0.983   0.410 -2.8209 -0.2482 -0.6656
   98SOL     OW  292   0.248   1.960   1.973  0.0310 -0.2790 -0.4152
   98SOL    HW1  293   0.261   1.953   1.876 -2.0054 -0.2247  0.8358
   98SOL    HW2  294   0.156   2.000   2.011 -1.9156  1.4128  3.1467
   99SOL     OW  295   0.230   0.442   2.015 -0.3738 -0.7340  0.1891
   99SOL    HW1  296   0.286   0.467   1.935 -2.3304  0.4426  1.1223
   99SOL    HW2  297   0.212   0.342   2.018  0.8946  2.3268  0.5599
  100SOL     OW  298   2.055   0.594   2.501 -0.2824  0.3563 -0.3301
  100SOL    HW1  299   2.155   0.587   2.486 -1.6155  1.5558  0.2988
  100SOL    HW2  300   2.036   0.653   2.580  1.5607  1.5788 -0.3621
  101SOL     OW  301   1.212   3.059   1.800 -0.1825 -0.6667  0.5640
  101SOL    HW1  302   1.185   3.079   1.698 -1.3163  0.1351  0.7740
  101SOL    HW2  303   1.127   3.046   1.851  1.0578  1.4865 -0.5829
  102SOL     OW  304   0.371   0.639   1.667  0.6356  0.3873 -0.0437
  102SOL    HW1  305   0.312   0.684   1.593 -1.1188  0.8392 -1.6772
  102SOL    HW2  306   0.350   0.674   1.760  3.2907 -2.2215 -2.4212
  103SOL     OW  307   0.315   0.791   2.867  0.1659  0.3692  0.0527
  103SOL    HW1  308   0.300   0.725   2.949  0.8243  0.7759  0.0241
  103SOL    HW2  309   0.408   0.826   2.864  0.3312 -0.2493 -0.5514
  104SOL     OW  310   0.433   2.839   1.957  0.1363 -0.0615  0.0167
  104SOL    HW1  311   0.421   2.738   1.960  1.9275 -2.4333 -0.7840
  104SOL    HW2  312   0.495   2.871   2.026 -1.8722 -0.8439 -2.9936
  105SOL     OW  313   2.552   2.810   1.994 -0.0226  0.4016 -0.1849
  105SOL    HW1  314   2.572   2.867   1.910 -2.4797  0.4192  2.0772
  105SOL    HW2  315   2.471   2.839   2.042  1.6954 -3.4913 -0.4215
  106SOL     OW  316   0.529   3.045   0.820 -0.1196  0.2715  0.5858
  106SOL    HW1  317   0.583   0.008   0.772 -0.4377  1.0084 -0.7159
  106SOL    HW2  318   0.547   2.957   0.770 -1.2887  0.7138 -0.1148
  107SOL     OW  319   3.103   1.730   1.023 -0.7295  0.0312  0.9174
  107SOL    HW1  320   0.077   1.759   1.071 -0.6862  1.6977  0.0185
  107SOL    HW2  321   3.032   1.701   1.091  1.4931 -0.7207  1.5216
  108SOL     OW  322   0.425   2.279   0.949 -0.4708 -0.1028 -0.4589
  108SOL    HW1  323   0.415   2.357   0.888 -0.3631 -1.6721  2.2055
  108SOL    HW2  324   0.499   2.300   1.016  0.0393  2.2186  2.4557
  109SOL     OW  325   1.284   2.959   0.470  0.2506  0.2337  0.1569
  109SOL    HW1  326   1.320   2.990   0.562 -0.5010 -0.5770 -1.7298
  109SOL    HW2  327   1.343   2.999   0.391  1.6437 -0.8983 -3.0813
  110SOL     OW  328   1.687   1.883   0.349 -0.3094  0.2010  0.2308
  110SOL    HW1  329   1.734   1.875   0.261  1.7070  0.5642  0.4791
  110SOL    HW2  330   1.711   1.962   0.404 -2.4492 -2.9262 -0.1388
  111SOL     OW  331   1.778   2.843   2.156  0.5484  0.4193  0.4702
  111SOL    HW1  332   1.686   2.811   2.175  2.2030 -0.0961 -2.0601
  111SOL    HW2  333   1.779   2.947   2.146 -0.5227  0.1728 -0.4685
  112SOL     OW  334   1.961   2.641   2.728 -0.1907  0.2905  0.0347
  112SOL    HW1  335   2.048   2.589   2.734  3.1596 -2.5506  2.9742
  112SOL    HW2  336   1.945   2.707   2.802 -1.8139  2.1246 -0.5146
  113SOL     OW  337   2.280   2.177   2.023  1.0160 -0.4229 -0.1113
  113SOL    HW1  338   2.296   2.217   2.114 -0.3306  1.3303  0.1201
  113SOL    HW2  339   2.368   2.175   1.974  1.2704 -1.1173  2.5370
  114SOL     OW  340   0.114   1.276   1.745  0.2040 -0.0916 -0.0110
  114SOL    HW1  341   0.169   1.193   1.715 -1.8436 -0.4154 -2.0831
  114SOL    HW2  342   0.179   1.355   1.769  4.1157  1.6572  3.6152
  115SOL     OW  343   2.934   0.544   2.969 -0.2278  0.4533  0.2503
  115SOL    HW1  344   2.992   0.625   2.999 -0.8261  4.6504 -0.5222
  115SOL    HW2  345   2.837   0.567   2.961 -2.9852 -1.3129  1.9246
  116SOL     OW  346   2.916   0.342   0.031  0.3241  0.7349 -0.2515
  116SOL    HW1  347   2.953   0.386   3.056  0.2834 -1.7027 -1.6064
  116SOL    HW2  348   2.977   0.267   0.068 -3.1481 -1.6316  1.8211
  117SOL     OW  349   2.649   2.848   0.742  0.2004 -0.7561 -0.2017
  117SOL    HW1  350   2.702   2.779   0.687  1.3209 -0.1316  0.5568
  117SOL    HW2  351   2.646   2.831   0.847 -0.4284 -1.0368  2.2292
  118SOL     OW  352   1.038   2.059   1.954 -0.0238  0.6540 -0.0853
  118SOL    HW1  353   0.999   1.975   1.908 -1.3921  0.5618 -1.6723
  118SOL    HW2  354   1.094   2.033   2.035  0.4538 -0.7533 -2.6196
  119SOL     OW  355   0.737   2.474   0.123 -0.2989 -0.0916 -0.6151
  119SOL    HW1  356   0.634   2.477   0.107 -1.1721 -2.1736  1.6784
  119SOL    HW2  357   0.768   2.526   0.209 -2.8686  1.6840 -0.7500
  120SOL     OW  358   1.452   1.017   0.272 -0.0463  0.3627 -0.2266
  120SOL    HW1  359   1.430   0.931   0.324  0.2832  2.0946 -1.3365
  120SOL    HW2  360   1.371   1.056   0.229  2.3827  1.2328  1.6986
  121SOL     OW  361   1.471   0.967   1.191 -0.4173 -0.2362 -0.5798
  121SOL    HW1  362   1.530   0.915   1.249 -1.1471 -0.5781 -0.0946
  121SOL    HW2  363   1.518   1.054   1.184  2.1387 -1.7489  0.3072
  122SOL     OW  364   1.982   1.405   2.155 -0.5460  0.0771  0.3558
  122SOL    HW1  365   1.909   1.358   2.210  1.8120 -0.0877  0.5779
  122SOL    HW2  366   2.076   1.409   2.199 -1.3639  0.1566  0.8865
  123SOL     OW  367   0.359   1.048   0.629  0.1106 -0.5804 -0.4008
  123SOL    HW1  368   0.281   1.069   0.568  0.6617  0.3519  0.4328
  123SOL    HW2  369   0.332   0.971   0.694 -0.2298 -2.7335  0.9366
  124SOL     OW  370   0.799   0.106   2.875  0.5951  0.3194  0.0663
  124SOL    HW1  371   0.741   0.158   2.805 -2.3027  0.7551 -0.6369
  124SOL    HW2  372   0.846   0.171   2.939  0.5205 -1.3427  1.9693
  125SOL     OW  373   0.578   2.806   2.958  0.6229 -0.6263 -0.1884
  125SOL    HW1  374   0.519   2.724   2.922 -1.2495 -0.9768 -0.2817
  125SOL    HW2  375   0.552   2.894   2.911  1.6500 -0.0218 -0.1090
  126SOL     OW  376   0.622   1.334   2.794 -0.3665 -0.2016 -0.4356
  126SOL    HW1  377   0.634   1.268   2.714  2.0722 -0.0521 -2.6917
  126SOL    HW2  378   0.709   1.379   2.818 -2.0141  1.8003  1.4805
  127SOL     OW  379   1.199   2.945   0.925  0.0781  0.1346  0.8935
  127SOL    HW1  380   1.113   2.975   0.966  1.6422  0.2576 -1.5252
  127SOL    HW2  381   1.230   3.009   0.852  0.0486  1.3603  0.8331
  128SOL     OW  382   1.772   2.187   0.100 -0.5854  0.2868 -0.4606
  128SOL    HW1  383   1.690   2.148   0.052 -0.1804 -2.7463 -0.5971
  128SOL    HW2  384   1.854   2.141   0.061  0.6611  0.1976  0.4523
  129SOL     OW  385   1.877   1.590   1.333  0.1723 -0.0973  0.2987
  129SOL    HW1  386   1.975   1.574   1.327 -0.6455 -0.9405 -1.3207
  129SOL    HW2  387   1.836   1.638   1.255 -1.3113  1.2376  2.9267
  130SOL     OW  388   2.143   1.828   1.484 -0.2926  0.1447  0.2236
  130SOL    HW1  389   2.059   1.844   1.430 -1.5764  0.5476  0.3440
  130SOL    HW2  390   2.219   1.801   1.424 -1.8181  3.4746  0.4322
  131SOL     OW  391   0.849   2.821   1.862 -0.4060  0.0004 -0.2414
  131SOL    HW1  392   0.797   2.754   1.919 -3.2124 -0.1794 -0.2466
  131SOL    HW2  393   0.790   2.892   1.819  3.1294  0.5554 -1.3273
  132SOL     OW  394   2.616   1.360   0.781 -0.0532 -0.2893  0.3401
  132SOL    HW1  395   2.607   1.457   0.761  0.3692 -2.8567  1.3288
  132SOL    HW2  396   2.541   1.313   0.736  0.4097  1.7779 -0.5658
  133SOL     OW  397   0.690   1.605   1.701  0.3521 -0.9592 -0.2302
  133SOL    HW1  398   0.627   1.525   1.698 -1.9301  0.3300  2.0650
  133SOL    HW2  399   0.667   1.660   1.786 -0.1500  0.7807  0.7297
  134SOL     OW  400   0.189   1.204   0.929 -0.1220  0.2669 -0.2212
  134SOL    HW1  401   0.104   1.235   0.884 -0.3267  0.9204  2.1220
  134SOL    HW2  402   0.270   1.231   0.874 -2.1560 -1.8251 -0.2447
  135SOL     OW  403   2.054   1.818   3.062 -0.5295 -0.3230 -0.7005
  135SOL    HW1  404   2.075   1.724   3.103  1.9124 -5.1327 -0.6118
  135SOL    HW2  405   2.035   1.812   2.966 -0.7300  0.1667  2.1719
  136SOL     OW  406   2.919   1.618   1.195  0.1574 -0.2621 -0.0511
  136SOL    HW1  407   2.956   1.530   1.225 -0.5157  0.0460  0.8759
  136SOL    HW2  408   2.920   1.686   1.274  2.3075 -1.6734  1.9639
  137SOL     OW  409   2.716   1.381   2.810 -0.3897  0.2372  0.3121
  137SOL    HW1  410   2.714   1.316   2.727  0.5337 -2.3975  0.7325
  137SOL    HW2  411   2.653   1.351   2.883  1.8134  0.0036 -0.6648
  138SOL     OW  412   2.884   0.484   0.964  0.0325  0.4195  0.6838
  138SOL    HW1  413   2.809   0.417   0.974  2.5438  2.3544 -0.8948
  138SOL    HW2  414   2.861   0.547   0.887  0.7140  4.0729  0.4613
  139SOL     OW  415   1.948   2.200   2.878 -0.0385 -0.5036 -0.1730
  139SOL    HW1  416   1.890   2.283   2.882 -0.3880 -0.9519 -0.5355
  139SOL    HW2  417   1.936   2.144   2.792  3.2489  1.2882  0.9523
  140SOL     OW  418   1.018   1.605   0.819  0.1397  0.6451 -0.1850
  140SOL    HW1  419   0.920   1.616   0.824  1.5614  0.7752 -0.0111
  140SOL    HW2  420   1.040   1.593   0.721 -0.2717  1.3962 -0.3590
  141SOL     OW  421   1.543   1.634   1.098 -0.0190  0.4103  0.4153
  141SOL    HW1  422   1.450   1.608   1.106  2.3247  0.1356  1.3975
  141SOL    HW2  423   1.593   1.561   1.041  0.1053 -1.2803  1.9775
  142SOL     OW  424   1.101   0.801   1.081 -0.2922 -0.5001 -0.3121
  142SOL    HW1  425   1.003   0.784   1.070 -0.2920 -0.2857  0.4399
  142SOL    HW2  426   1.147   0.737   1.147 -1.4058  0.1874 -0.0657
  143SOL     OW  427   0.377   0.134   2.999 -0.0299  0.0800 -0.6516
  143SOL    HW1  428   0.377   0.214   2.935  0.9416 -0.6019  0.4426
  143SOL    HW2  429   0.340   0.158   3.089 -0.0438  1.5131 -1.5533
  144SOL     OW  430   2.298   0.275   0.276  0.0064 -0.2768  0.5615
  144SOL    HW1  431   2.376   0.264   0.336  0.1565  0.0919 -2.6280
  144SOL    HW2  432   2.222   0.315   0.329  0.4004 -2.1247  1.3092
  145SOL     OW  433   2.060   2.992   2.852  0.2894 -0.6560 -0.0716
  145SOL    HW1  434   2.085   2.981   2.753 -0.0671  2.6698  0.6676
  145SOL    HW2  435   2.132   2.956   2.917 -2.7086  0.2089 -2.7366
  146SOL     OW  436   2.860   2.734   0.400 -0.2971  0.1816  0.0424
  146SOL    HW1  437   2.821   2.820   0.372  0.3641 -4.0850  1.9511
  146SOL    HW2  438   2.854   2.659   0.327 -0.1579 -0.1204 -1.9600
  147SOL     OW  439   1.703   1.031   0.215 -0.4610  0.2208 -0.1983
  147SOL    HW1  440   1.608   1.038   0.248  3.9624  1.5650 -0.0690
  147SOL    HW2  441   1.716   0.962   0.142 -1.9057 -0.8654  0.6937
  148SOL     OW  442   0.977   0.064   0.122  0.4080  0.2983 -0.1594
  148SOL    HW1  443   0.903   0.127   0.093 -2.3407  1.3134  1.7225
  148SOL    HW2  444   1.036   0.105   0.197  0.2420  0.9009  1.7057
  149SOL     OW  445   1.316   0.625   2.544  0.0784 -0.2702 -0.0475
  149SOL    HW1  446   1.230   0.622   2.499  2.3100  0.8417  0.5418
  149SOL    HW2  447   1.331   0.537   2.598  0.8861 -2.6147  1.2117
  150SOL     OW  448   1.496   2.890   2.736 -0.3238 -0.1285 -1.0103
  150SOL    HW1  449   1.480   2.935   2.825 -1.1603 -0.4492  0.6884
  150SOL    HW2  450   1.501   2.790   2.756  1.4738  1.0401  1.7870
  151SOL     OW  451   0.200   1.068   0.038 -0.2905  0.3279 -0.0226
  151SOL    HW1  452   0.200   1.124   3.064 -0.2155  1.8696  0.0514
  151SOL    HW2  453   0.289   1.083   0.088  3.2453  0.6683  0.5847
  152SOL     OW  454   0.573   0.236   1.474  0.1056  0.5033  0.4365
  152SOL    HW1  455   0.508   0.312   1.462 -0.6029  1.4796  1.3005
  152SOL    HW2  456   0.651   0.277   1.522  3.0839  0.2777  0.8066
  153SOL     OW  457   2.534   2.978   1.383 -0.1045  0.0720 -0.2959
  153SOL    HW1  458   2.503   3.071   1.400 -1.7695 -0.5929 -1.2007
  153SOL    HW2  459   2.493   2.913   1.453  1.0533  1.0306  2.0309
  154SOL     OW  460   2.250   0.411   1.928  0.5506  0.3720 -0.4333
  154SOL    HW1  461   2.196   0.333   1.892 -1.4000 -1.6584 -0.0928
  154SOL    HW2  462   2.222   0.443   2.025 -0.5592 -1.5791 -0.2272
  155SOL     OW  463   0.363   1.049   0.251  0.5882  0.2711  0.2365
  155SOL    HW1  464   0.442   1.003   0.299  1.8469 -0.1955  5.7434
  155SOL    HW2  465   0.280   1.058   0.310  2.6276 -1.8400 -2.0762
  156SOL     OW  466   1.795   1.302   0.297 -0.6827 -0.1774 -0.0502
  156SOL    HW1  467   1.897   1.320   0.304  0.3947  0.4705  1.5833
  156SOL    HW2  468   1.779   1.206   0.272 -0.5328  2.2428 -0.3200
  157SOL     OW  469   1.035   2.110   0.044  0.0087 -0.3668  0.2373
  157SOL    HW1  470   1.109   2.125   3.084  2.5164 -0.0378 -2.5979
  157SOL    HW2  471   0.945   2.098   3.110  0.4214 -0.9628 -0.3171
  158SOL     OW  472   1.810   0.897   1.673  0.1772  0.2180  0.2124
  158SOL    HW1  473   1.755   0.812   1.698  0.6744  0.1057  0.5907
  158SOL    HW2  474   1.749   0.962   1.621 -0.0681  1.2121 -1.7171
  159SOL     OW  475   0.289   0.248   0.688  0.7320 -0.3934 -0.0053
  159SOL    HW1  476   0.281   0.146   0.678  0.8075  1.0201 -1.9937
  159SOL    HW2  477   0.252   0.287   0.601  1.3976 -0.4447  0.1618
  160SOL     OW  478   2.579   1.614   1.791  0.0530  0.0382  0.7371
  160SOL    HW1  479   2.635   1.553   1.851 -1.1046  0.2133 -2.5381
  160SOL    HW2  480   2.490   1.641   1.828  0.1945 -0.5120  1.0013
  161SOL     OW  481   0.064   3.019   0.363  0.1623  0.3134 -0.1362
  161SOL    HW1  482   0.078   2.937   0.421  1.1411 -0.2691  1.2531
  161SOL    HW2  483   0.137   3.023   0.294 -0.1105 -2.3641 -1.3568
  162SOL     OW  484   0.336   0.380   2.413 -0.0206 -0.0689  0.0499
  162SOL    HW1  485   0.292   0.411   2.495  1.9886 -1.7292 -2.0448
  162SOL    HW2  486   0.395   0.302   2.444  2.7946 -2.3410 -0.9716
  163SOL     OW  487   3.106   2.866   2.393 -0.0996  0.1497 -0.1050
  163SOL    HW1  488   3.097   2.967   2.377 -0.0768 -0.3166 -3.4609
  163SOL    HW2  489   3.017   2.821   2.377  0.8415  0.8164 -0.7767
  164SOL     OW  490   2.466   1.943   0.392  0.1918 -0.1323  0.4572
  164SOL    HW1  491   2.465   2.035   0.345 -0.9016  0.4179 -1.8522
  164SOL    HW2  492   2.436   1.867   0.329  0.0135  1.2969  0.8245
  165SOL     OW  493   0.745   0.368   1.619  0.6969  0.4021  0.4115
  165SOL    HW1  494   0.772   0.449   1.561  1.3353 -0.0806  0.4582
  165SOL    HW2  495   0.739   0.397   1.715  0.7231 -2.4007 -0.9063
  166SOL     OW  496   2.952   0.065   0.396  0.1739  0.9067  0.0920
  166SOL    HW1  497   3.034   0.008   0.399 -3.9488  2.0538 -0.1796
  166SOL    HW2  498   2.930   0.107   0.487  0.5162 -3.4205 -0.3326
  167SOL     OW  499   2.107   0.669   0.965  0.5995 -0.4417 -0.5202
  167SOL    HW1  500   2.153   0.760   0.974 -2.8785  1.2018 -2.3529
  167SOL    HW2  501   2.094   0.626   1.059  2.2651 -1.4652  2.5238
  168SOL     OW  502   1.047   0.332   2.401  0.1531 -0.0319  0.4544
  168SOL    HW1  503   1.131   0.277   2.378 -1.0161 -1.5173  0.8797
  168SOL    HW2  504   1.033   0.362   2.495 -3.6257 -0.4459 -0.5048
  169SOL     OW  505   1.148   1.949   1.222  0.1811  0.0658  0.4464
  169SOL    HW1  506   1.186   1.955   1.128 -1.8838  1.3491  2.4116
  169SOL    HW2  507   1.052   1.983   1.221  0.4211 -0.8241 -0.1967
  170SOL     OW  508   2.998   2.997   1.490  0.1444 -0.5061 -0.0902
  170SOL    HW1  509   3.027   2.901   1.508 -0.2220  1.6755 -1.7708
  170SOL    HW2  510   2.929   3.005   1.412 -0.1099 -2.4486 -2.1505
  171SOL     OW  511   2.706   0.491   2.349  0.2292 -0.1836  0.2474
  171SOL    HW1  512   2.681   0.454   2.255 -0.8241  0.9149  2.5164
  171SOL    HW2  513   2.634   0.557   2.378 -1.8097 -0.9045 -2.1345
  172SOL     OW  514   1.409   2.534   1.339 -0.6916 -0.0146 -0.1040
  172SOL    HW1  515   1.329   2.467   1.330 -0.1502 -1.1839  0.1188
  172SOL    HW2  516   1.445   2.553   1.245 -0.4172  1.9589 -0.3349
  173SOL     OW  517   2.693   2.441   2.855 -0.1319  0.0973 -0.4907
  173SOL    HW1  518   2.617   2.368   2.832 -3.4553 -2.1489 -0.2655
  173SOL    HW2  519   2.740   2.477   2.772  1.7365  2.7078  0.3835
  174SOL     OW  520   1.897   0.991   0.408  0.2042  0.3407 -0.1016
  174SOL    HW1  521   1.990   0.985   0.370  0.2333 -1.7155  3.0452
  174SOL    HW2  522   1.829   0.990   0.332  2.3545 -1.2038  1.0372
  175SOL     OW  523   0.963   1.573   1.319 -0.7140  0.1143  0.0206
  175SOL    HW1  524   0.905   1.538   1.395 -0.8496  0.5859 -3.4081
  175SOL    HW2  525   0.988   1.672   1.341  1.2038  1.1623  3.2001
  176SOL     OW  526   0.309   3.095   0.652 -0.1304 -0.0223  0.3033
  176SOL    HW1  527   0.384   3.070   0.715 -1.4657  0.3348  0.0798
  176SOL    HW2  528   0.238   3.026   0.639  1.1040  1.0391 -1.5733
  177SOL     OW  529   2.640   1.307   0.316 -0.4373 -0.1910  0.4061
  177SOL    HW1  530   2.739   1.315   0.335 -2.0504 -0.4393 -2.1927
  177SOL    HW2  531   2.594   1.397   0.331  0.5703  0.3896  1.8458
  178SOL     OW  532   2.631   2.582   2.122  0.1012 -0.2026 -0.7765
  178SOL    HW1  533   2.558   2.648   2.097 -0.7722 -2.3532 -0.5527
  178SOL    HW2  534   2.724   2.613   2.101 -3.0339  3.1675  2.7026
  179SOL     OW  535   2.360   3.083   0.250  0.1962  0.1812 -0.7034
  179SOL    HW1  536   2.433   3.086   0.320  0.4938 -0.0985 -0.4644
  179SOL    HW2  537   2.316   0.059   0.250  2.4714 -1.4997  1.0718
  180SOL     OW  538   2.113   0.489   0.767 -0.5644 -0.1909  0.2640
  180SOL    HW1  539   2.095   0.550   0.844  3.9502 -2.1358 -0.8989
  180SOL    HW2  540   2.068   0.520   0.680 -1.9374 -3.2252 -0.7744
  181SOL     OW  541   2.844   0.169   2.737 -0.2122  0.2721 -0.6261
  181SOL    HW1  542   2.907   0.088   2.732 -2.0093  0.9646  0.8902
  181SOL    HW2  543   2.811   0.196   2.644  1.4461 -1.2539 -2.7950
  182SOL     OW  544   2.622   2.019   2.504 -0.0309  1.0807  0.3574
  182SOL    HW1  545   2.530   1.978   2.524  1.2795 -0.3216  1.7756
  182SOL    HW2  546   2.666   2.003   2.413 -0.1373  1.4333 -2.5723
  183SOL     OW  547   0.278   1.001   1.617 -0.3521  0.1166  0.3425
  183SOL    HW1  548   0.302   1.016   1.520  1.1823  0.6796 -0.9363
  183SOL    HW2  549   0.350   0.961   1.678  1.5502  1.7221 -0.6394
  184SOL     OW  550   0.407   1.289   1.338  0.2517 -0.3905 -0.0176
  184SOL    HW1  551   0.317   1.301   1.291  1.3654 -2.1044 -1.1930
  184SOL    HW2  552   0.480   1.277   1.264  0.1026 -1.4869 -0.7343
  185SOL     OW  553   2.974   2.720   1.230  0.4453  0.1144  0.0428
  185SOL    HW1  554   3.006   2.687   1.142 -0.4547  1.6904  4.3065
  185SOL    HW2  555   3.001   2.816   1.246 -0.3706 -0.3340  1.9128
  186SOL     OW  556   2.005   2.902   2.580  0.0454 -0.0628 -0.2685
  186SOL    HW1  557   2.009   2.814   2.624  0.4226 -0.2194  1.6404
  186SOL    HW2  558   1.921   2.947   2.617 -0.2993  0.7081  0.9035
  187SOL     OW  559   0.157   1.300   0.585  0.4137  0.6633  0.3252
  187SOL    HW1  560   0.089   1.287   0.662 -3.0902 -2.7463  0.8406
  187SOL    HW2  561   0.236   1.359   0.608  2.7357  1.5655  0.3375
  188SOL     OW  562   1.786   1.788   0.070 -0.4687 -0.1566  0.4080
  188SOL    HW1  563   1.771   1.706   0.133 -0.7855 -1.9591  0.9958
  188SOL    HW2  564   1.888   1.803   0.063  4.1336 -1.1090  1.1021
  189SOL     OW  565   0.015   1.801   2.920 -0.1563  0.0258  0.1291
  189SOL    HW1  566   0.016   1.784   3.022  2.1831 -2.9522  1.2931
  189SOL    HW2  567   0.087   1.862   2.890 -2.0441 -2.0550 -0.4134
  190SOL     OW  568   2.444   0.879   2.210 -0.0908 -0.3357 -0.1423
  190SOL    HW1  569   2.533   0.928   2.201  0.3726 -0.3771 -0.3439
  190SOL    HW2  570   2.460   0.797   2.272 -2.4733 -0.1135 -0.7719
  191SOL     OW  571   0.730   1.234   2.101 -0.0635 -0.0803  0.3671
  191SOL    HW1  572   0.630   1.215   2.088  0.6867  1.9765 -1.5505
  191SOL    HW2  573   0.750   1.252   2.199  4.2582  0.9881 -1.2637
  192SOL     OW  574   2.010   1.297   1.903  0.3752 -0.4991  0.0000
  192SOL    HW1  575   2.015   1.357   1.981  0.1827 -2.4779  1.7190
  192SOL    HW2  576   2.088   1.311   1.842 -2.4644 -0.9410  1.6065
  193SOL     OW  577   0.721   0.136   0.713 -0.0659 -0.3253  0.0552
  193SOL    HW1  578   0.665   0.197   0.656 -2.6192  1.5198  0.3712
  193SOL    HW2  579   0.803   0.125   0.654  0.9157  1.5223  1.6087
  194SOL     OW  580   1.552   1.591   1.451 -0.0556  0.7065  0.3584
  194SOL    HW1  581   1.633   1.572   1.510  0.7313  1.9098 -0.9134
  194SOL    HW2  582   1.562   1.555   1.355 -2.2657  0.2219 -0.6768
  195SOL     OW  583   1.894   0.313   0.998  0.0095  0.2441 -0.0780
  195SOL    HW1  584   1.884   0.216   0.961 -2.0437 -0.7462 -2.7653
  195SOL    HW2  585   1.839   0.378   0.944  0.4086 -1.0633  2.5962
  196SOL     OW  586   1.174   1.678   1.759  0.0035  0.2208  0.2033
  196SOL    HW1  587   1.243   1.630   1.811 -0.1253  0.1977 -1.8836
  196SOL    HW2  588   1.112   1.603   1.720  0.6331  0.7002 -5.0018
  197SOL     OW  589   0.340   0.129   2.686 -0.0033 -0.0932  0.6571
  197SOL    HW1  590   0.411   0.100   2.620 -1.3570 -0.8520 -0.0599
  197SOL    HW2  591   0.354   0.223   2.720  0.5319 -1.7096  0.5845
  198SOL     OW  592   0.168   0.821   0.664  0.2765  0.1794 -0.4386
  198SOL    HW1  593   0.138   0.728   0.691 -0.2364 -0.4904 -0.0583
  198SOL    HW2  594   0.094   0.881   0.631 -0.5683  1.6617 -1.4314
  199SOL     OW  595   0.402   1.985   1.071 -0.1834  0.0679  0.1731
  199SOL    HW1  596   0.419   2.047   0.993  0.4078 -1.0739 -0.1157
  199SOL    HW2  597   0.419   2.030   1.161  0.4930  0.5564  2.3795
  200SOL     OW  598   2.473   1.816   3.013 -0.0669 -0.2367 -0.2363
  200SOL    HW1  599   2.563   1.761   3.030  3.0224 -4.5609  0.9881
  200SOL    HW2  600   2.425   1.760   2.943  1.6816  1.1749  1.1072
  201SOL     OW  601   0.978   2.663   1.357  0.0882  0.0860 -0.2711
  201SOL    HW1  602   1.014   2.615   1.275  0.8021 -0.9626  2.1550
  201SOL    HW2  603   0.896   2.623   1.403 -2.6096 -0.5513 -1.2781
  202SOL     OW  604   1.001   2.366   0.121  0.3978  0.2269  0.0757
  202SOL    HW1  605   1.009   2.262   0.122 -1.9425 -3.6550 -0.5481
  202SOL    HW2  606   0.902   2.386   0.116  0.2565  1.1220  1.8010
  203SOL     OW  607   1.433   2.986   3.022  0.2950 -0.3544 -0.0384
  203SOL    HW1  608   1.436   3.086   3.011  0.5514 -0.6644  0.7106
  203SOL    HW2  609   1.333   2.956   3.025  0.3887 -0.1902  0.3615
  204SOL     OW  610   0.445   1.666   1.380  0.0568 -0.2343  0.3425
  204SOL    HW1  611   0.518   1.626   1.326 -1.3866  0.3040  0.8359
  204SOL    HW2  612   0.430   1.599   1.454  0.6881  0.0401 -0.2383
  205SOL     OW  613   1.816   1.248   2.297 -0.6591 -0.3455 -0.0315
  205SOL    HW1  614   1.868   1.180   2.353 -1.6210  3.4932  1.2547
  205SOL    HW2  615   1.730   1.201   2.265  1.8693 -2.7656 -0.6228
  206SOL     OW  616   0.193   2.156   3.101 -0.4652 -0.3582 -0.0613
  206SOL    HW1  617   0.181   2.143   3.000  1.9785 -0.5212 -2.4929
  206SOL    HW2  618   0.123   2.100   0.035  0.1337  1.9891 -1.5763
  207SOL     OW  619   0.422   2.090   2.131 -0.5853 -0.6230 -0.2636
  207SOL    HW1  620   0.513   2.058   2.103 -1.0330 -1.2589  3.1982
  207SOL    HW2  621   0.360   2.037   2.071 -0.3218  1.2186 -0.9938
  208SOL     OW  622   0.233   2.564   1.163  0.7470  0.2191 -0.2537
  208SOL    HW1  623   0.329   2.589   1.150 -0.7480 -0.8613 -0.3406
  208SOL    HW2  624   0.169   2.613   1.102 -3.1705 -0.3607 -0.3240
  209SOL     OW  625   1.084   2.797   2.170  0.2529 -0.2761  0.5895
  209SOL    HW1  626   1.096   2.842   2.080 -1.1310 -1.4767 -0.1591
  209SOL    HW2  627   1.010   2.732   2.171  1.9311  1.0835 -1.2805
  210SOL     OW  628   2.699   1.197   1.789 -0.1545 -0.2642 -0.4549
  210SOL    HW1  629   2.800   1.174   1.769  2.2065  0.0752 -3.1946
  210SOL    HW2  630   2.641   1.116   1.816  0.3340 -0.7205  1.5443
  211SOL     OW  631   1.013   3.005   1.966  0.0434 -0.2029  0.2063
  211SOL    HW1  632   0.956   2.937   1.914  2.3188 -1.0829  1.6062
  211SOL    HW2  633   0.965   3.056   2.032  2.0456 -3.9324 -3.2062
  212SOL     OW  634   1.904   2.657   2.023 -0.2013 -0.0772 -0.1850
  212SOL    HW1  635   1.854   2.724   2.080  1.5176 -1.8804 -0.7380
  212SOL    HW2  636   1.970   2.599   2.072 -0.2502  1.2106  0.5653
  213SOL     OW  637   2.842   0.300   1.683 -0.4267 -0.7508  0.5430
  213SOL    HW1  638   2.806   0.367   1.612 -0.7283  0.4986 -3.3789
  213SOL    HW2  639   2.908   0.233   1.643  1.5281  0.6608  0.6538
  214SOL     OW  640   1.018   2.367   0.968 -0.6489  0.3833  0.2689
  214SOL    HW1  641   1.086   2.297   0.995 -0.4209  1.1241  0.8058
  214SOL    HW2  642   1.038   2.403   0.874  0.1708  2.1684  0.5284
  215SOL     OW  643   2.635   1.878   0.692  0.2075 -0.4346  0.9108
  215SOL    HW1  644   2.712   1.932   0.648  2.8596 -0.5928 -0.4101
  215SOL    HW2  645   2.545   1.932   0.682  1.3313  3.2865  1.9791
  216SOL     OW  646   2.924   0.974   1.966  0.4678 -0.7244  0.0206
  216SOL    HW1  647   2.928   1.041   1.888 -0.9245  1.6954  1.7301
  216SOL    HW2  648   2.976   0.889   1.943 -2.5691 -0.9648 -1.0779
  217SOL     OW  649   2.465   0.157   1.487 -0.0477 -0.5629  0.0063
  217SOL    HW1  650   2.374   0.159   1.444 -2.8994  2.6374  3.7527
  217SOL    HW2  651   2.530   0.228   1.446  2.0765 -1.4693  0.3165
  218SOL     OW  652   2.007   2.571   1.501  0.7545  0.0825 -0.0145
  218SOL    HW1  653   1.953   2.638   1.443 -1.7059 -2.0357  1.8810
  218SOL    HW2  654   1.998   2.601   1.599 -2.1919 -0.7895 -0.4778
  219SOL     OW  655   2.305   2.480   0.189 -0.1760  0.1601  0.4871
  219SOL    HW1  656   2.233   2.462   0.117 -0.5371  2.3902  1.2626
  219SOL    HW2  657   2.356   2.568   0.169  1.3372  0.8556 -2.0776
  220SOL     OW  658   1.424   3.057   0.241 -0.2088 -0.1169 -0.2160
  220SOL    HW1  659   1.469   0.019   0.188 -0.0540 -0.1821 -1.8765
  220SOL    HW2  660   1.474   2.975   0.201  0.7377 -0.1457 -0.6729
  221SOL     OW  661   0.047   2.031   1.563 -0.2016  0.0864  0.1571
  221SOL    HW1  662   0.082   2.121   1.528  2.2375 -1.2963  0.2601
  221SOL    HW2  663   3.058   2.029   1.578  1.1226  0.4187 -0.6756
  222SOL     OW  664   1.875   2.620   1.015  0.0015  0.0436 -0.7438
  222SOL    HW1  665   1.841   2.702   1.068 -1.1618  3.6178 -1.9693
  222SOL    HW2  666   1.843   2.529   1.050  1.1398 -0.5884  0.1288
  223SOL     OW  667   1.329   0.005   1.335 -0.5553 -0.5192 -0.3381
  223SOL    HW1  668   1.246   3.080   1.376 -1.2530  1.0044 -0.5941
  223SOL    HW2  669   1.411   3.080   1.385  1.3730 -4.0130 -1.4714
  224SOL     OW  670   3.075   2.501   1.426  0.1979  0.2815  0.0710
  224SOL    HW1  671   3.059   2.537   1.332 -2.8479 -2.4870 -0.4080
  224SOL    HW2  672   2.984   2.482   1.466 -0.1839  0.0655 -1.7296
  225SOL     OW  673   2.492   2.032   0.940  0.2635 -0.5381  0.5481
  225SOL    HW1  674   2.457   2.079   1.020  2.4064 -0.9574  3.3643
  225SOL    HW2  675   2.440   2.049   0.856  1.4443  0.2405  0.1537
  226SOL     OW  676   1.393   2.214   0.119  0.0229  0.4695  0.3690
  226SOL    HW1  677   1.421   2.304   0.155  0.7645 -0.2414  0.6738
  226SOL    HW2  678   1.449   2.141   0.157  1.3104 -2.5864  2.7110
  227SOL     OW  679   1.976   1.047   0.788  0.1057  0.0245 -0.5871
  227SOL    HW1  680   1.919   1.075   0.868  0.8405 -1.4746  0.5744
  227SOL    HW2  681   1.977   0.947   0.777  1.2808  0.6716 -0.8244
  228SOL     OW  682   1.467   0.781   0.441  0.2414  0.3254 -0.3261
  228SOL    HW1  683   1.480   0.679   0.434 -0.4631 -1.5384 -0.5018
  228SOL    HW2  684   1.553   0.822   0.472 -0.4400  2.4347 -2.0880
  229SOL     OW  685   2.680   0.991   2.232 -0.3877  0.3014  0.3285
  229SOL    HW1  686   2.694   0.927   2.152  1.4077  0.8168 -0.3653
  229SOL    HW2  687   2.758   1.059   2.229  0.1617 -0.7631 -1.3360
  230SOL     OW  688   0.576   1.210   1.118  0.3985  0.0845  0.1207
  230SOL    HW1  689   0.675   1.222   1.107  0.0879  2.4713 -1.2816
  230SOL    HW2  690   0.520   1.228   1.032 -1.9542  1.2467 -0.5190
  231SOL     OW  691   2.313   0.462   2.740  0.2828  0.5146 -0.0332
  231SOL    HW1  692   2.248   0.468   2.815  1.6772  0.5590 -3.5097
  231SOL    HW2  693   2.413   0.475   2.766  2.7293  1.9792  0.0543
  232SOL     OW  694   2.982   1.955   0.951  0.2197 -0.1541  0.5869
  232SOL    HW1  695   3.015   1.860   0.967 -1.0761  1.4541 -0.8810
  232SOL    HW2  696   3.029   2.029   1.005  1.9396  4.2054 -1.5459
  233SOL     OW  697   1.759   2.965   2.689 -0.8224 -0.1968 -0.2186
  233SOL    HW1  698   1.780   3.012   2.777 -0.1383 -0.0085 -1.9782
  233SOL    HW2  699   1.673   2.911   2.702 -0.7139 -1.3016  0.3643
  234SOL     OW  700   1.555   2.565   1.102 -0.0454  0.4862 -0.2940
  234SOL    HW1  701   1.596   2.657   1.090 -0.7936 -0.3089  1.9216
  234SOL    HW2  702   1.624   2.488   1.112  1.8608  3.2608 -0.1829
  235SOL     OW  703   0.864   1.778   1.605 -0.2297  0.0406  0.1823
  235SOL    HW1  704   0.806   1.697   1.634  1.1456 -1.5442  1.3375
  235SOL    HW2  705   0.950   1.753   1.557  0.9106 -2.2735  0.2049
  236SOL     OW  706   0.678   2.550   2.744  0.0912  0.1699  0.7151
  236SOL    HW1  707   0.723   2.506   2.821  0.3920  1.8488 -0.8465
  236SOL    HW2  708   0.581   2.580   2.774 -3.6679 -1.4272 -1.4075
  237SOL     OW  709   0.453   3.052   1.517  0.7092 -0.2183  1.0064
  237SOL    HW1  710   0.406   3.033   1.606 -0.4340  2.2274  0.5450
  237SOL    HW2  711   0.472   0.045   1.512  1.2655  0.7616  1.9008
  238SOL     OW  712   0.947   0.687   0.559  0.0253  0.3543  0.1529
  238SOL    HW1  713   1.044   0.713   0.546 -1.1711 -1.1959  1.7892
  238SOL    HW2  714   0.900   0.745   0.632  1.1044  1.9675  2.9159
  239SOL     OW  715   2.466   0.794   3.029 -0.0253  0.4109  0.3425
  239SOL    HW1  716   2.411   0.796   2.947  1.8272  0.0536  1.8616
  239SOL    HW2  717   2.557   0.812   2.989 -2.6213 -0.2426  2.4885
  240SOL     OW  718   2.690   2.227   0.845  0.0763 -0.5981 -0.4448
  240SOL    HW1  719   2.622   2.151   0.841 -0.6443 -1.4346 -0.4092
  240SOL    HW2  720   2.733   2.238   0.753 -2.3739  0.1775  1.1552
  241SOL     OW  721   1.248   1.630   0.944 -0.1517 -0.2481 -0.2361
  241SOL    HW1  722   1.313   1.603   0.868  0.6359 -1.4495  0.0931
  241SOL    HW2  723   1.156   1.610   0.909  1.9379 -1.6715 -0.6507
  242SOL     OW  724   0.852   0.447   1.001 -0.5762  0.5615 -0.0494
  242SOL    HW1  725   0.831   0.545   0.996 -1.2985 -1.3882 -0.2820
  242SOL    HW2  726   0.920   0.425   0.925  1.5574  1.3642 -0.7740
  243SOL     OW  727   0.269   0.599   1.214  0.0004 -0.1640 -1.2168
  243SOL    HW1  728   0.177   0.574   1.175 -0.7070 -3.6411 -1.2653
  243SOL    HW2  729   0.329   0.652   1.151 -1.1969 -1.7429 -1.3531
  244SOL     OW  730   0.700   0.027   0.437  0.1213  0.6346 -0.0738
  244SOL    HW1  731   0.612   3.088   0.420 -1.1568 -3.7046 -0.2559
  244SOL    HW2  732   0.781   3.073   0.440  1.8968 -1.5387  0.2751
  245SOL     OW  733   2.191   0.966   0.343 -0.2277 -0.0072  0.2263
  245SOL    HW1  734   2.206   0.903   0.424  1.7449  1.0781  3.2212
  245SOL    HW2  735   2.259   1.041   0.335 -2.1657 -0.9977  0.1709
  246SOL     OW  736   0.189   0.144   1.782 -0.5876  0.2400 -0.5049
  246SOL    HW1  737   0.218   0.049   1.761  2.5307 -0.6968 -1.4614
  246SOL    HW2  738   0.140   0.179   1.702  0.3327 -0.5031  0.0535
  247SOL     OW  739   0.858   0.130   1.728 -0.4137 -0.2061 -0.3659
  247SOL    HW1  740   0.828   0.216   1.687  1.1971  0.1762  3.6169
  247SOL    HW2  741   0.855   0.043   1.671  1.3491  1.1237 -0.2481
  248SOL     OW  742   0.540   1.714   2.131 -0.5426  0.3944  0.0544
  248SOL    HW1  743   0.538   1.768   2.216 -1.4485 -2.1546 -1.9923
  248SOL    HW2  744   0.598   1.745   2.058  1.2478 -1.8357  3.3743
  249SOL     OW  745   0.888   2.286   0.448 -0.0464  0.1174  0.2031
  249SOL    HW1  746   0.985   2.299   0.476 -2.6610  1.2715  0.8145
  249SOL    HW2  747   0.857   2.372   0.407  0.1465  0.3656  0.2942
  250SOL     OW  748   0.567   3.065   2.095  0.2014  0.2086  0.2365
  250SOL    HW1  749   0.496   0.008   2.147  0.3715  2.7554 -0.6137
  250SOL    HW2  750   0.638   0.015   2.050 -0.2529 -2.1937  1.0585
  251SOL     OW  751   2.898   2.032   1.600  0.3772  0.1295  0.2658
  251SOL    HW1  752   2.890   1.975   1.684  1.4739  1.3348 -0.1247
  251SOL    HW2  753   2.822   2.093   1.601  2.0381 -1.5311  0.7707
  252SOL     OW  754   1.304   0.190   1.970 -0.4703 -0.4942  0.5634
  252SOL    HW1  755   1.227   0.227   2.025 -0.2060  0.1536 -1.5261
  252SOL    HW2  756   1.277   0.124   1.895  0.4589 -0.6185  0.5669
  253SOL     OW  757   2.257   1.983   2.299  0.1614 -0.4257  0.2179
  253SOL    HW1  758   2.270   1.912   2.229  1.9483 -0.1099  0.9688
  253SOL    HW2  759   2.164   2.026   2.292  4.1533  2.7065 -3.2879
  254SOL     OW  760   0.682   1.440   0.910 -0.3332 -0.0975  0.1826
  254SOL    HW1  761   0.761   1.409   0.966 -1.3433 -0.0223 -1.0341
  254SOL    HW2  762   0.680   1.539   0.878 -1.5452 -0.1035 -0.7011
  255SOL     OW  763   0.052   2.714   1.911  0.1904 -0.3356  0.1840
  255SOL    HW1  764   3.074   2.708   1.864 -2.2400  0.8742 -3.9318
  255SOL    HW2  765   0.125   2.694   1.845 -0.8158  2.7427  2.0265
  256SOL     OW  766   0.339   2.711   0.477 -0.1883  0.4286  0.2146
  256SOL    HW1  767   0.402   2.784   0.441  1.5947  0.6016  0.9308
  256SOL    HW2  768   0.313   2.645   0.403 -0.8465  2.0232  2.4068
  257SOL     OW  769   1.168   2.525   2.465 -0.1996  0.2045 -0.8341
  257SOL    HW1  770   1.190   2.598   2.532 -1.5652 -0.2462 -1.2486
  257SOL    HW2  771   1.245   2.466   2.441 -0.6928  2.6064 -0.6135
  258SOL     OW  772   1.600   2.258   2.104  0.1628  0.0764 -0.0899
  258SOL    HW1  773   1.510   2.234   2.066 -0.3729 -1.3783  2.5537
  258SOL    HW2  774   1.681   2.224   2.050  0.0372 -2.2456 -1.0484
  259SOL     OW  775   0.730   0.620   2.193  0.2382  0.3516  0.3660
  259SOL    HW1  776   0.653   0.557   2.205  3.0441 -1.8503 -1.8138
  259SOL    HW2  777   0.706   0.710   2.149 -1.2424  1.7243 -1.9379
  260SOL     OW  778   2.702   0.878   2.919  0.5127  0.2828  0.5368
  260SOL    HW1  779   2.729   0.957   2.979  0.9652  1.5210 -0.5552
  260SOL    HW2  780   2.755   0.874   2.830 -1.1872 -1.2564  2.0691
  261SOL     OW  781   0.943   1.263   0.771 -0.3664  0.2213  0.2532
  261SOL    HW1  782   0.999   1.299   0.845 -0.4046 -2.1587 -0.8946
  261SOL    HW2  783   0.878   1.330   0.732 -2.0757  1.5398  0.7794
  262SOL     OW  784   1.967   2.257   2.497 -0.5381 -0.1866 -0.9901
  262SOL    HW1  785   1.973   2.326   2.420 -1.3164 -2.4622 -1.6768
  262SOL    HW2  786   2.051   2.269   2.555 -1.5785  0.9304 -1.7655
  263SOL     OW  787   0.840   2.744   1.014  0.6926 -0.0630  0.2069
  263SOL    HW1  788   0.915   2.684   1.052 -0.3036 -2.1509 -2.9004
  263SOL    HW2  789   0.817   2.813   1.083 -1.1503 -2.2703 -3.9480
  264SOL     OW  790   2.831   2.033   0.574 -0.2850  0.2021 -0.5112
  264SOL    HW1  791   2.849   2.133   0.588  0.7671 -1.3103  2.4310
  264SOL    HW2  792   2.855   2.008   0.479 -1.3648  1.1152 -0.9887
  265SOL     OW  793   1.939   1.165   2.694  0.3900  0.4030 -0.5878
  265SOL    HW1  794   2.003   1.100   2.639 -0.0432 -1.3778 -1.0265
  265SOL    HW2  795   1.977   1.259   2.705  2.5158 -0.1824  0.8281
  266SOL     OW  796   1.505   1.784   2.076 -0.5920 -0.4295  0.4762
  266SOL    HW1  797   1.572   1.716   2.109 -0.2063 -1.3719 -1.4890
  266SOL    HW2  798   1.436   1.813   2.147 -1.8349  0.6549  2.4287
  267SOL     OW  799   2.499   0.666   2.438  0.7558  0.2646 -0.0978
  267SOL    HW1  800   2.474   0.754   2.492 -4.2437 -0.7419  0.3779
  267SOL    HW2  801   2.415   0.607   2.423 -2.8190  4.3798 -0.1659
  268SOL     OW  802   0.858   1.150   3.088  0.7697 -0.1563 -0.4240
  268SOL    HW1  803   0.780   1.136   0.039  0.1365 -0.4151  0.5341
  268SOL    HW2  804   0.822   1.141   2.991  0.6389 -0.8049  2.9368
  269SOL     OW  805   3.110   2.022   2.085  0.1594 -0.0551  0.0659
  269SOL    HW1  806   0.000   2.005   2.183 -0.4179  0.6630  0.4244
  269SOL    HW2  807   3.040   1.965   2.034 -1.4898 -2.4617  0.5926
  270SOL     OW  808   0.035   1.763   0.071 -0.0973  0.0696 -0.1233
  270SOL    HW1  809   3.106   1.856   0.082 -0.4365  0.0971 -2.0324
  270SOL    HW2  810   3.097   1.694   0.127 -0.2314  4.2232  0.3106
  271SOL     OW  811   0.251   0.248   0.365 -0.1774 -0.1684 -0.0478
  271SOL    HW1  812   0.308   0.167   0.395 -4.0282  4.3046 -0.4888
  271SOL    HW2  813   0.305   0.333   0.373 -1.2975  1.8126  1.1235
  272SOL     OW  814   3.020   2.808   0.598  0.3611 -0.3197 -0.3597
  272SOL    HW1  815   2.978   2.872   0.664 -0.4445 -0.0179 -0.2628
  272SOL    HW2  816   2.961   2.778   0.522  1.1120 -2.5267  0.0433
  273SOL     OW  817   0.038   2.965   2.058  0.1186 -0.0662 -0.5038
  273SOL    HW1  818   0.116   2.991   2.118  1.7717  1.6958 -1.7537
  273SOL    HW2  819   0.063   2.886   2.000 -0.4268  0.2991 -0.7741
  274SOL     OW  820   0.373   0.449   1.481 -0.0363  0.3255 -0.3661
  274SOL    HW1  821   0.276   0.419   1.485  1.6243 -0.0048 -1.2689
  274SOL    HW2  822   0.384   0.518   1.553 -1.5285 -2.0850 -1.0027
  275SOL     OW  823   1.273   1.926   0.960 -0.4484 -0.1012 -0.0719
  275SOL    HW1  824   1.245   1.831   0.952  0.7011 -0.0712 -0.4398
  275SOL    HW2  825   1.362   1.928   0.912 -0.8002 -0.2618 -3.6129
  276SOL     OW  826   0.441   1.513   2.002  0.4098 -0.1463 -0.1132
  276SOL    HW1  827   0.475   1.595   2.052  2.9971  1.9178  3.8485
  276SOL    HW2  828   0.407   1.450   2.077 -0.2042 -2.4379  1.7776
  277SOL     OW  829   1.342   2.197   2.037 -0.1502  0.1327  0.0938
  277SOL    HW1  830   1.257   2.248   2.069 -3.8902  2.3705  2.7225
  277SOL    HW2  831   1.353   2.116   2.095  0.2073  2.3603 -2.2056
  278SOL     OW  832   1.978   0.021   2.185 -0.0474 -0.3659  0.4014
  278SOL    HW1  833   1.877   0.012   2.193 -1.0864 -2.0850 -1.3715
  278SOL    HW2  834   2.013   0.096   2.244  0.8013 -0.9760  2.5031
  279SOL     OW  835   1.430   1.536   3.068  0.1070 -0.5330  0.1680
  279SOL    HW1  836   1.486   1.472   0.007 -1.4385  0.2800  0.3578
  279SOL    HW2  837   1.457   1.540   2.973 -3.4092  2.2174  3.0381
  280SOL     OW  838   1.275   0.564   0.827  0.0308  0.4812 -0.0430
  280SOL    HW1  839   1.266   0.660   0.799  2.2216  0.6495  1.7151
  280SOL    HW2  840   1.208   0.503   0.784  1.2659 -0.9783  0.9365
  281SOL     OW  841   0.128   0.484   2.258  0.1536 -0.2058 -0.4421
  281SOL    HW1  842   0.169   0.473   2.167 -2.1274  0.0791  0.7769
  281SOL    HW2  843   0.178   0.432   2.333 -1.0624  1.6672 -0.1107
  282SOL     OW  844   0.169   2.868   0.607  0.1733  0.3104 -0.6963
  282SOL    HW1  845   0.071   2.849   0.614  1.1863 -0.6340  0.5983
  282SOL    HW2  846   0.222   2.790   0.565  2.4128 -2.2523  2.3735
  283SOL     OW  847   1.392   2.451   1.597  0.0911 -0.0446  0.6986
  283SOL    HW1  848   1.415   2.475   1.508  0.4863  0.4756  0.0128
  283SOL    HW2  849   1.443   2.366   1.622 -0.1135  0.2017  0.6300
  284SOL     OW  850   2.185   2.802   1.467 -0.0218  0.1478 -0.6926
  284SOL    HW1  851   2.283   2.796   1.491 -0.6627 -1.8949 -2.1226
  284SOL    HW2  852   2.131   2.723   1.501  1.5490 -1.8456 -1.3437
  285SOL     OW  853   0.839   1.911   1.041 -0.4923  0.3547 -0.4427
  285SOL    HW1  854   0.882   1.970   0.966  1.7155 -1.4952 -1.5257
  285SOL    HW2  855   0.840   1.812   1.011 -1.3596 -1.2051  1.8724
  286SOL     OW  856   2.855   2.657   1.993  0.0839  0.2734 -0.5889
  286SOL    HW1  857   2.852   2.711   1.911 -0.1425 -0.9864  2.0073
  286SOL    HW2  858   2.901   2.569   1.968 -0.8093  0.0859  2.4108
  287SOL     OW  859   0.498   1.252   0.858 -0.3022  0.2658 -0.0553
  287SOL    HW1  860   0.570   1.318   0.886  1.9977 -0.9055 -0.3022
  287SOL    HW2  861   0.502   1.221   0.762  2.0262 -0.0932  0.4101
  288SOL     OW  862   1.299   2.173   2.717 -0.0443 -0.0590  0.0936
  288SOL    HW1  863   1.227   2.230   2.674  2.2330  1.3133  0.5954
  288SOL    HW2  864   1.257   2.084   2.755  0.6075 -0.5148  1.9148
  289SOL     OW  865   2.391   1.340   2.662  0.2328 -0.5575  0.0316
  289SOL    HW1  866   2.394   1.333   2.763 -0.0335  0.0769 -2.3352
  289SOL    HW2  867   2.326   1.410   2.626  0.0957 -2.0854  1.1740
  290SOL     OW  868   1.876   1.773   0.879 -0.0837  0.4092 -0.2981
  290SOL    HW1  869   1.941   1.700   0.854 -1.5252 -2.6209  0.4289
  290SOL    HW2  870   1.870   1.843   0.807 -2.3610 -1.3779 -1.8870
  291SOL     OW  871   1.300   0.892   3.081  0.0932  0.4916  0.4669
  291SOL    HW1  872   1.250   0.910   2.995 -0.3947 -0.4571  0.8780
  291SOL    HW2  873   1.294   0.798   0.005  2.0901  0.4337  0.4635
  292SOL     OW  874   2.014   1.564   0.762  0.3161  0.3879 -0.5513
  292SOL    HW1  875   1.973   1.568   0.664 -0.6961 -0.5199 -0.9633
  292SOL    HW2  876   2.112   1.595   0.757  1.3826 -2.2054 -2.0932
  293SOL     OW  877   1.680   0.045   1.157  0.4968  0.2958  0.5434
  293SOL    HW1  878   1.720   0.050   1.254  2.9380  2.6984  0.9487
  293SOL    HW2  879   1.591   0.095   1.148 -0.0651  1.5733 -2.2324
  294SOL     OW  880   2.407   1.116   0.305  0.5802 -0.0559 -0.2047
  294SOL    HW1  881   2.409   1.081   0.212  0.4454  3.3402  0.4140
  294SOL    HW2  882   2.458   1.206   0.312  2.6469 -0.8173  3.0211
  295SOL     OW  883   2.018   1.844   2.775  0.1845 -0.3661 -0.6051
  295SOL    HW1  884   1.969   1.932   2.753 -1.7720  0.9941  0.1582
  295SOL    HW2  885   2.116   1.857   2.759  0.1622 -1.1102  2.4670
  296SOL     OW  886   1.551   1.895   1.113 -0.1409  0.0770  0.0057
  296SOL    HW1  887   1.545   1.793   1.091 -0.1087 -1.9028  0.5452
  296SOL    HW2  888   1.501   1.915   1.198 -1.4255  0.4304  4.0614
  297SOL     OW  889   0.504   0.754   2.596  0.4299  0.6658  0.4876
  297SOL    HW1  890   0.408   0.727   2.610 -0.2114 -0.9607 -0.3475
  297SOL    HW2  891   0.544   0.791   2.684 -1.1010  1.2521  1.2739
  298SOL     OW  892   1.609   2.734   1.433  0.0618  0.1679  0.0703
  298SOL    HW1  893   1.634   2.718   1.534  0.3688  0.9125  0.6481
  298SOL    HW2  894   1.535   2.674   1.404  2.3406  1.3480 -0.2719
  299SOL     OW  895   1.053   0.379   2.671  0.4262 -0.2327  0.0720
  299SOL    HW1  896   0.974   0.449   2.679 -2.7624 -0.1582  1.2337
  299SOL    HW2  897   1.050   0.321   2.751 -1.2149  0.8996 -1.1958
  300SOL     OW  898   2.024   1.263   3.097 -0.3553 -0.2308  0.1717
  300SOL    HW1  899   1.965   1.322   3.041  0.6637 -0.9011  3.3999
  300SOL    HW2  900   2.015   1.161   3.074 -1.2595 -0.1346  1.5948
  301SOL     OW  901   2.304   0.473   2.454 -0.2324  0.0664  0.1959
  301SOL    HW1  902   2.353   0.397   2.404  1.5681 -0.0703 -1.2868
  301SOL    HW2  903   2.309   0.453   2.553 -1.4919 -1.2466 -0.1035
  302SOL     OW  904   2.436   1.652   2.585 -0.1187 -0.2285 -0.0012
  302SOL    HW1  905   2.532   1.656   2.621  3.1221  0.4072 -0.4038
  302SOL    HW2  906   2.401   1.749   2.563  0.1108 -0.1487 -0.0136
  303SOL     OW  907   0.282   2.535   2.281  0.4268  0.1881 -0.0760
  303SOL    HW1  908   0.200   2.525   2.222 -0.9313 -0.2992  2.3421
  303SOL    HW2  909   0.253   2.594   2.362  0.0471  1.4880  1.8134
  304SOL     OW  910   0.184   1.345   1.165  0.0248  0.4153 -0.2605
  304SOL    HW1  911   0.208   1.439   1.135 -1.7921  0.4390 -1.7104
  304SOL    HW2  912   0.195   1.284   1.086 -0.3041  0.2750  0.6375
  305SOL     OW  913   2.986   0.188   2.121 -0.1800  0.1056  0.3107
  305SOL    HW1  914   2.968   0.288   2.136 -1.7527  1.5830  0.9493
  305SOL    HW2  915   2.983   0.133   2.206  0.2503 -1.4337 -2.4443
  306SOL     OW  916   1.390   1.547   0.717 -0.5015 -0.3723 -0.1454
  306SOL    HW1  917   1.482   1.550   0.757 -1.3674  1.2857  0.9194
  306SOL    HW2  918   1.385   1.615   0.640  1.0644 -1.9174  3.2497
  307SOL     OW  919   3.043   3.015   1.194  0.6718  0.3010  0.4864
  307SOL    HW1  920   3.107   3.076   1.228 -4.3546 -7.0167 -0.4079
  307SOL    HW2  921   2.947   3.029   1.228 -1.6143 -0.6716  0.6281
  308SOL     OW  922   2.827   1.986   2.664  0.1762 -0.1747  0.0805
  308SOL    HW1  923   2.822   1.887   2.694 -2.1538 -1.7039 -0.8814
  308SOL    HW2  924   2.764   1.999   2.583 -3.1239  1.8536  1.0721
  309SOL     OW  925   0.131   2.077   2.839 -0.1807  0.0303  0.2761
  309SOL    HW1  926   0.223   2.065   2.802 -1.1632 -1.5164 -0.2701
  309SOL    HW2  927   0.069   2.102   2.767  0.0437 -1.2417 -0.0806
  310SOL     OW  928   2.304   0.402   0.023  0.0710  0.1766 -0.1635
  310SOL    HW1  929   2.368   0.479   0.034  0.3229 -2.1942 -1.8406
  310SOL    HW2  930   2.319   0.334   0.102  0.9732 -2.1873  0.7106
  311SOL     OW  931   2.029   1.035   2.918 -0.3575  0.1451 -0.2418
  311SOL    HW1  932   1.978   1.082   2.839 -4.5089  2.6516 -0.0728
  311SOL    HW2  933   1.980   0.952   2.948  1.9110 -0.1752 -0.1941
  312SOL     OW  934   1.161   1.192   2.079 -0.2215 -0.2380  0.1955
  312SOL    HW1  935   1.095   1.259   2.033 -2.7202  2.1824 -0.0625
  312SOL    HW2  936   1.123   1.101   2.069 -2.4573  1.7442  0.0648
  313SOL     OW  937   0.219   0.151   0.094 -0.1959 -0.4451 -0.6752
  313SOL    HW1  938   0.124   0.152   0.063  1.2288 -1.4762 -0.5065
  313SOL    HW2  939   0.222   0.186   0.190  3.2882 -4.2343  1.8242
  314SOL     OW  940   0.472   1.926   1.500 -0.1096  0.6014  0.0151
  314SOL    HW1  941   0.471   1.830   1.465 -1.7120  0.2733  0.7193
  314SOL    HW2  942   0.562   1.966   1.474 -1.0306  2.1991 -0.3450
  315SOL     OW  943   1.425   1.956   1.334 -0.0847 -0.0096 -0.1281
  315SOL    HW1  944   1.430   1.907   1.425  0.4283  0.4145  1.0332
  315SOL    HW2  945   1.331   1.944   1.294 -1.7579  0.0126 -1.4425
  316SOL     OW  946   0.402   2.341   0.600  0.2881 -0.0954  0.8177
  316SOL    HW1  947   0.376   2.390   0.684  0.0237  0.3564 -0.2289
  316SOL    HW2  948   0.502   2.349   0.584  0.0455  1.8198  1.0791
  317SOL     OW  949   2.701   0.302   1.028 -0.1162 -0.0815  0.4553
  317SOL    HW1  950   2.727   0.251   1.111  0.8225 -1.2708  0.3686
  317SOL    HW2  951   2.672   0.240   0.951 -0.3407  0.1208 -1.2042
  318SOL     OW  952   1.222   2.490   0.243  0.5072  0.0962  0.6832
  318SOL    HW1  953   1.206   2.573   0.305  1.2469  1.9141  1.1342
  318SOL    HW2  954   1.139   2.437   0.219  0.7303  0.2737 -0.9674
  319SOL     OW  955   1.098   0.065   2.894  0.7102 -0.8581 -0.5685
  319SOL    HW1  956   1.115   3.102   2.962 -0.2152  0.7833 -0.9163
  319SOL    HW2  957   1.017   0.048   2.837 -1.5148 -2.2212  0.3220
  320SOL     OW  958   2.484   1.841   1.679  0.0690 -0.0051 -0.1036
  320SOL    HW1  959   2.392   1.822   1.710  1.2842  0.5953 -1.4612
  320SOL    HW2  960   2.545   1.761   1.685 -0.2904 -0.5467 -2.4377
  321SOL     OW  961   0.135   2.622   2.967  0.1211 -0.1854 -0.2494
  321SOL    HW1  962   0.041   2.640   2.935  1.3630 -0.6746  0.5653
  321SOL    HW2  963   0.130   2.569   3.053 -2.9205  2.3238  0.8494
  322SOL     OW  964   2.507   0.844   1.341 -0.4987  0.3321 -0.6795
  322SOL    HW1  965   2.443   0.906   1.388  0.3325  0.9280  1.0486
  322SOL    HW2  966   2.594   0.902   1.340 -2.5922 -0.1798 -1.6657
  323SOL     OW  967   1.805   1.587   0.283  0.0742  0.2154  0.0498
  323SOL    HW1  968   1.733   1.612   0.347  1.7228 -3.0938 -2.3387
  323SOL    HW2  969   1.791   1.489   0.264 -1.2381 -0.3243 -2.7955
  324SOL     OW  970   0.111   0.325   1.538 -0.0628  0.6999 -0.1733
  324SOL    HW1  971   0.102   0.418   1.577 -1.1685 -0.1767  0.5070
  324SOL    HW2  972   0.037   0.263   1.572 -0.4618 -1.8079  2.4137
  325SOL     OW  973   2.678   2.866   0.993 -0.5499 -0.1560 -0.7440
  325SOL    HW1  974   2.616   2.823   1.061  1.2755 -0.6708 -0.1768
  325SOL    HW2  975   2.767   2.879   1.039  0.6806 -0.2437 -0.4806
  326SOL     OW  976   1.759   2.739   0.304 -0.6712 -0.3210 -0.3125
  326SOL    HW1  977   1.685   2.777   0.245 -0.8908  0.3996 -1.5848
  326SOL    HW2  978   1.744   2.765   0.401  0.4783 -1.7160  0.5589
  327SOL     OW  979   2.357   2.225   0.234  0.8308  0.5261 -0.4591
  327SOL    HW1  980   2.264   2.191   0.258 -2.8856  1.1021  0.8326
  327SOL    HW2  981   2.361   2.328   0.220 -0.1945  1.2485 -2.0874
  328SOL     OW  982   2.564   2.249   1.963 -0.0546 -0.3592  0.3321
  328SOL    HW1  983   2.655   2.246   1.929 -2.2226  1.5940  0.0999
  328SOL    HW2  984   2.565   2.297   2.058 -1.8709  0.6277  0.1247
  329SOL     OW  985   0.167   2.184   0.850 -0.1539  0.2742 -0.1516
  329SOL    HW1  986   0.104   2.179   0.929  1.6376  0.8326  1.2619
  329SOL    HW2  987   0.262   2.197   0.888 -0.1500  1.2046  1.2757
  330SOL     OW  988   2.292   1.104   1.988 -0.4544 -0.7936  0.5913
  330SOL    HW1  989   2.303   1.197   1.953  2.7105 -1.2725  2.6914
  330SOL    HW2  990   2.201   1.088   2.028  2.2028  1.8488 -2.4676
  331SOL     OW  991   2.279   1.578   0.688 -0.6619  0.1033  0.7116
  331SOL    HW1  992   2.370   1.609   0.711 -3.0230 -0.7780 -0.5078
  331SOL    HW2  993   2.285   1.542   0.590  0.3949 -1.2810  0.8539
  332SOL     OW  994   0.215   2.864   1.467 -0.3146 -0.2441  0.2590
  332SOL    HW1  995   0.122   2.822   1.466 -2.2859  0.9356 -0.5392
  332SOL    HW2  996   0.234   2.928   1.388 -0.3859  1.8468 -1.5900
  333SOL     OW  997   0.213   1.724   2.086 -0.3239  0.0781 -0.2874
  333SOL    HW1  998   0.292   1.665   2.064  2.8955  0.5801 -2.4388
  333SOL    HW2  999   0.223   1.815   2.039 -1.3230  0.6469 -0.0659
  334SOL     OW 1000   0.240   0.740   1.458  0.3303  0.3909  0.3858
  334SOL    HW1 1001   0.268   0.836   1.451 -1.1240 -0.8457  1.4150
  334SOL    HW2 1002   0.268   0.681   1.381 -1.7048  2.8080 -0.5653
  335SOL     OW 1003   2.925   1.880   1.928 -0.2737 -0.4973  0.0338
  335SOL    HW1 1004   2.977   1.862   1.842 -2.5629  0.9635  1.3434
  335SOL    HW2 1005   2.870   1.800   1.961 -0.3257 -1.5835  0.2397
  336SOL     OW 1006   1.824   3.067   2.941 -0.3102 -0.2029  0.0366
  336SOL    HW1 1007   1.803   2.968   2.969 -1.4426  0.5153  1.0457
  336SOL    HW2 1008   1.920   3.083   2.912 -0.3135 -2.2094  0.3611
  337SOL     OW 1009   0.574   0.519   1.272  0.1818 -0.1903  0.5364
  337SOL    HW1 1010   0.578   0.616   1.245  0.5511 -2.0676  0.2206
  337SOL    HW2 1011   0.491   0.491   1.322  0.1563  2.1224  0.9114
  338SOL     OW 1012   1.613   2.451   0.774 -0.3883  0.1130 -0.0199
  338SOL    HW1 1013   1.621   2.461   0.671 -0.4852 -0.4616  0.3844
  338SOL    HW2 1014   1.689   2.490   0.830 -0.6161 -2.2782  0.7531
  339SOL     OW 1015   0.200   1.814   1.196 -0.0479 -0.7869 -0.3442
  339SOL    HW1 1016   0.119   1.873   1.222  2.5469  0.4410 -0.0738
  339SOL    HW2 1017   0.271   1.873   1.154 -1.8110  1.2386  0.7828
  340SOL     OW 1018   0.355   0.076   2.183 -0.3193  0.2906 -0.1110
  340SOL    HW1 1019   0.285   0.131   2.136  0.3955 -0.4748 -0.8677
  340SOL    HW2 1020   0.307   3.098   2.201 -2.7243 -4.0490  0.4927
  341SOL     OW 1021   2.260   1.431   0.923  0.1810 -0.1876  0.9805
  341SOL    HW1 1022   2.229   1.515   0.970 -1.3109 -2.3775  2.6325
  341SOL    HW2 1023   2.292   1.455   0.829 -0.7786 -2.5203 -1.1148
  342SOL     OW 1024   1.718   2.108   0.510 -0.0007  0.0389  0.4166
  342SOL    HW1 1025   1.619   2.133   0.520 -1.8334 -0.9151 -0.6883
  342SOL    HW2 1026   1.768   2.176   0.456 -0.0791 -1.6637 -1.6921
  343SOL     OW 1027   1.948   0.060   0.893  0.2349  0.1962  0.1565
  343SOL    HW1 1028   1.846   0.032   0.894 -2.4602 -0.7093  0.0739
  343SOL    HW2 1029   2.007   3.088   0.901 -0.6500  0.1906  0.4120
  344SOL     OW 1030   2.604   0.273   2.826 -0.9435  0.4337 -0.0450
  344SOL    HW1 1031   2.616   0.368   2.855 -1.4230 -0.9286  0.2071
  344SOL    HW2 1032   2.697   0.232   2.827 -0.0057  1.6505  0.1490
  345SOL     OW 1033   1.403   2.927   1.122  0.2346  0.2379 -0.4015
  345SOL    HW1 1034   1.410   3.001   1.191  0.8773  1.5857  0.9870
  345SOL    HW2 1035   1.325   2.941   1.060 -1.0540 -0.6046 -0.6525
  346SOL     OW 1036   2.338   2.213   1.532  0.3569 -0.2773 -0.3103
  346SOL    HW1 1037   2.237   2.199   1.527 -0.5367  0.6413  0.5417
  346SOL    HW2 1038   2.395   2.149   1.481 -2.0753  0.5630 -0.6555
  347SOL     OW 1039   2.431   3.005   0.672  0.3920  0.1964 -1.1804
  347SOL    HW1 1040   2.508   2.968   0.732  4.8875 -2.5333  2.9260
  347SOL    HW2 1041   2.363   3.062   0.730 -0.0754  1.3032 -0.2854
  348SOL     OW 1042   0.862   1.175   1.138  0.1948  0.8293  0.0231
  348SOL    HW1 1043   0.882   1.278   1.130  0.2236  0.9479  1.7094
  348SOL    HW2 1044   0.841   1.161   1.239  1.3015  1.9865  2.2439
  349SOL     OW 1045   2.196   0.042   3.081 -0.1709 -0.2553 -0.0503
  349SOL    HW1 1046   2.127   0.111   3.048  0.2877  1.2816 -0.2132
  349SOL    HW2 1047   2.272   0.032   3.019 -1.7205 -1.0105  0.5705
  350SOL     OW 1048   2.624   2.060   2.965  0.1851  0.3550  0.0523
  350SOL    HW1 1049   2.577   1.969   2.977  2.7167 -1.6288  0.2864
  350SOL    HW2 1050   2.563   2.130   2.916 -1.3348  0.0519  0.4142
  351SOL     OW 1051   1.017   0.417   0.772 -0.1692  0.2787 -0.0294
  351SOL    HW1 1052   1.046   0.323   0.794  0.3406  0.6938  1.1390
  351SOL    HW2 1053   0.979   0.428   0.674 -0.2723 -0.9247  0.4059
  352SOL     OW 1054   2.212   2.537   2.740 -0.0100 -0.3625  0.8000
  352SOL    HW1 1055   2.294   2.591   2.766 -0.3145  3.7267  0.1854
  352SOL    HW2 1056   2.209   2.532   2.639 -0.6710 -1.6248 -0.6654
  353SOL     OW 1057   0.514   0.448   3.078 -0.4658 -0.5027 -0.1924
  353SOL    HW1 1058   0.554   0.439   0.056 -1.7346  0.6883  0.4541
  353SOL    HW2 1059   0.426   0.497   3.091  1.1752  0.0338  0.9342
  354SOL     OW 1060   1.004   1.772   0.010  0.2783 -0.0724 -0.4070
  354SOL    HW1 1061   1.026   1.851   0.068 -2.5832  0.9248 -0.2781
  354SOL    HW2 1062   1.082   1.750   3.058  1.0678 -0.6187 -1.1828
  355SOL     OW 1063   2.889   2.787   1.746  0.2416  0.7846  0.5300
  355SOL    HW1 1064   2.815   2.741   1.691 -1.0760 -1.8356  0.9062
  355SOL    HW2 1065   2.870   2.885   1.768  2.7587 -0.2461  2.0657
  356SOL     OW 1066   3.030   0.955   0.573  0.0665 -0.0200  0.7289
  356SOL    HW1 1067   2.977   1.043   0.562  0.4640 -0.0249  1.2295
  356SOL    HW2 1068   2.978   0.884   0.526 -0.1730  1.4949  2.9241
  357SOL     OW 1069   2.465   0.410   1.054  0.2690 -0.0469  0.5442
  357SOL    HW1 1070   2.491   0.503   1.088  1.6752 -0.4209 -0.0786
  357SOL    HW2 1071   2.552   0.352   1.056  0.6746 -1.1790  1.9052
  358SOL     OW 1072   1.055   2.596   1.101  0.3205 -0.4842 -0.0431
  358SOL    HW1 1073   1.062   2.505   1.054 -3.5641 -1.6001  0.0319
  358SOL    HW2 1074   1.142   2.643   1.106 -3.0618  0.4360  0.0673
  359SOL     OW 1075   0.017   2.381   2.793  0.2924 -0.0515  0.4749
  359SOL    HW1 1076   3.064   2.319   2.736  1.3440  1.5376 -0.0165
  359SOL    HW2 1077   0.006   2.361   2.892  0.8574 -0.5751 -0.0857
  360SOL     OW 1078   0.497   0.927   1.768 -0.1698 -0.3906  0.2719
  360SOL    HW1 1079   0.584   0.962   1.808 -0.0937 -0.4884 -0.0242
  360SOL    HW2 1080   0.448   0.864   1.837  1.8973  1.6524  1.1162
  361SOL     OW 1081   2.315   2.766   0.537 -0.1808  0.2357 -0.2952
  361SOL    HW1 1082   2.233   2.812   0.495 -0.8111  1.3713 -0.6148
  361SOL    HW2 1083   2.393   2.828   0.563  2.2485 -0.0365  0.1301
  362SOL     OW 1084   3.043   0.021   0.923  0.2696  0.1759  0.8233
  362SOL    HW1 1085   2.969   3.078   0.872 -1.1454 -1.5479 -1.0080
  362SOL    HW2 1086   3.056   3.100   1.014 -0.4849 -0.1885  1.1567
  363SOL     OW 1087   0.844   1.452   0.567 -0.3411  0.8722 -0.3269
  363SOL    HW1 1088   0.793   1.384   0.511  3.3781 -0.1776 -0.2921
  363SOL    HW2 1089   0.780   1.524   0.594  3.6110 -3.7009  1.4555
  364SOL     OW 1090   0.760   1.435   1.445  0.0478 -0.2532 -0.5407
  364SOL    HW1 1091   0.785   1.338   1.426  0.6425  0.4338  0.0394
  364SOL    HW2 1092   0.725   1.433   1.542 -0.4701 -2.2449  0.3866
  365SOL     OW 1093   2.308   1.364   0.464  0.2194 -0.5585 -0.1971
  365SOL    HW1 1094   2.350   1.294   0.530 -1.0336  0.4992  3.1294
  365SOL    HW2 1095   2.367   1.439   0.433 -0.2573 -0.8098 -0.9209
  366SOL     OW 1096   2.733   1.574   1.015 -0.0883 -0.4778 -0.8381
  366SOL    HW1 1097   2.794   1.587   1.100  1.7602  0.1423  0.3361
  366SOL    HW2 1098   2.663   1.647   1.010  1.7133  0.9688  0.7024
  367SOL     OW 1099   2.117   1.998   1.910 -0.3977  0.2832  0.0871
  367SOL    HW1 1100   2.034   1.957   1.959 -1.2430  2.5058  0.6201
  367SOL    HW2 1101   2.170   2.066   1.964 -1.0466  1.3862  0.7212
  368SOL     OW 1102   2.748   0.983   1.344  0.1623 -0.3704 -0.2178
  368SOL    HW1 1103   2.737   1.064   1.401  0.6425  0.8014  1.8587
  368SOL    HW2 1104   2.839   0.934   1.354  0.0723 -1.4398 -1.7448
  369SOL     OW 1105   2.459   2.689   0.144  0.0910  0.0574  0.2959
  369SOL    HW1 1106   2.470   2.790   0.164 -1.4193  1.7207  2.2931
  369SOL    HW2 1107   2.549   2.653   0.113 -1.7945 -1.8740 -0.5353
  370SOL     OW 1108   3.079   2.750   1.543 -0.3377 -0.0778  0.6355
  370SOL    HW1 1109   3.010   2.733   1.617 -1.4118 -1.3519  0.9428
  370SOL    HW2 1110   3.092   2.662   1.494  0.7207 -1.9005  1.0570
  371SOL     OW 1111   0.860   1.650   2.539  0.0433  0.0523 -0.7912
  371SOL    HW1 1112   0.790   1.696   2.594 -1.7171 -1.3109  1.2457
  371SOL    HW2 1113   0.826   1.648   2.442 -1.4119 -1.1528  2.4276
  372SOL     OW 1114   0.724   1.238   0.439 -0.1881 -0.5315  0.1706
  372SOL    HW1 1115   0.710   1.178   0.517  0.1151  3.3936 -1.5739
  372SOL    HW2 1116   0.760   1.182   0.361 -1.7949  1.1819  1.5770
  373SOL     OW 1117   1.570   2.676   2.997  0.1432  0.6988  0.2832
  373SOL    HW1 1118   1.533   2.634   3.084 -1.7678 -1.6021 -1.4578
  373SOL    HW2 1119   1.505   2.656   2.921 -1.6484 -1.2847  1.5084
  374SOL     OW 1120   0.305   1.724   0.123  0.0140  0.1113  0.3821
  374SOL    HW1 1121   0.317   1.817   0.166  0.3557 -0.9343 -2.5914
  374SOL    HW2 1122   0.213   1.719   0.074 -2.2002 -1.8323 -1.3903
  375SOL     OW 1123   1.029   1.498   1.641  0.5606  0.5044 -0.4412
  375SOL    HW1 1124   1.098   1.489   1.572  1.7096  0.9031  1.2826
  375SOL    HW2 1125   0.964   1.416   1.655 -1.2601 -0.1210 -1.9425
  376SOL     OW 1126   0.549   2.414   1.672  0.1522  0.0113  0.1557
  376SOL    HW1 1127   0.513   2.365   1.754  0.2347  2.1555 -0.0748
  376SOL    HW2 1128   0.564   2.515   1.673  0.4178 -0.5145  1.5415
  377SOL     OW 1129   2.552   1.589   2.204 -0.0641 -0.3181 -0.0033
  377SOL    HW1 1130   2.514   1.538   2.277  0.8702  0.0724 -1.4751
  377SOL    HW2 1131   2.548   1.536   2.117  1.6677  0.4128  0.9194
  378SOL     OW 1132   0.833   2.797   2.983 -0.0122 -0.7369  0.7449
  378SOL    HW1 1133   0.731   2.783   2.978  1.9387 -0.6021 -0.0607
  378SOL    HW2 1134   0.854   2.833   3.077 -0.2516  2.5090  1.2314
  379SOL     OW 1135   1.752   0.486   0.847 -0.0898 -0.2170 -0.1105
  379SOL    HW1 1136   1.724   0.579   0.881 -0.6172 -1.2690  0.8974
  379SOL    HW2 1137   1.755   0.490   0.748 -0.5819  2.2825  1.6217
  380SOL     OW 1138   2.891   1.855   1.381 -0.1714  0.0078  0.2642
  380SOL    HW1 1139   2.907   1.900   1.472  2.1543  3.0554  1.5876
  380SOL    HW2 1140   2.818   1.910   1.329 -0.5339  2.9730 -1.0351
  381SOL     OW 1141   1.703   1.806   1.741  0.0659  0.4427  0.6074
  381SOL    HW1 1142   1.606   1.817   1.771  0.7443  2.5774 -0.6892
  381SOL    HW2 1143   1.730   1.873   1.668 -1.7729  2.1726 -3.4004
  382SOL     OW 1144   3.000   0.394   2.748 -0.4404  0.2529  0.7592
  382SOL    HW1 1145   2.932   0.315   2.748  0.3006  3.3696 -1.7524
  382SOL    HW2 1146   2.962   0.463   2.815  1.2101 -1.8374 -0.9843
  383SOL     OW 1147   1.657   1.126   2.672 -0.3226  0.1730 -0.1718
  383SOL    HW1 1148   1.598   1.201   2.704  0.0819 -4.1485 -0.7340
  383SOL    HW2 1149   1.756   1.154   2.657 -1.6806  3.9059  3.2084
  384SOL     OW 1150   1.215   2.356   1.243  0.3765  0.7378 -0.4382
  384SOL    HW1 1151   1.227   2.298   1.158  1.8091 -2.4471 -1.4602
  384SOL    HW2 1152   1.128   2.334   1.294  0.8877  0.7361  1.1971
  385SOL     OW 1153   1.961   2.280   0.667  0.1501  0.2534  0.3380
  385SOL    HW1 1154   1.964   2.246   0.571 -2.1549 -0.3535 -1.7858
  385SOL    HW2 1155   1.880   2.252   0.722  0.9221  2.1896 -1.0328
  386SOL     OW 1156   2.153   2.021   0.974  0.2522  0.2410 -0.3837
  386SOL    HW1 1157   2.159   2.120   0.942 -2.8080  1.4305  2.2061
  386SOL    HW2 1158   2.134   2.011   1.072  1.9076  2.4561  0.1495
  387SOL     OW 1159   0.447   2.141   1.306 -0.3292 -0.4045 -0.2083
  387SOL    HW1 1160   0.431   2.229   1.359  0.6924  0.6714 -1.3197
  387SOL    HW2 1161   0.422   2.063   1.365  0.3996  0.8204 -0.8784
  388SOL     OW 1162   2.962   0.655   1.979 -0.1178 -0.2945 -0.4663
  388SOL    HW1 1163   2.868   0.632   1.952  2.2968  1.4536 -0.3447
  388SOL    HW2 1164   2.994   0.598   2.059 -2.8536 -1.8207  1.0561
  389SOL     OW 1165   1.885   1.172   1.041  0.2050  0.1047  0.1123
  389SOL    HW1 1166   1.936   1.260   1.020  1.6351  2.9472  1.2211
  389SOL    HW2 1167   1.789   1.189   1.071 -1.6788 -1.3081  1.5850
  390SOL     OW 1168   0.939   2.115   2.383 -0.1656  0.2938  0.1779
  390SOL    HW1 1169   0.879   2.195   2.385  2.2935 -2.0846 -0.3514
  390SOL    HW2 1170   0.897   2.048   2.318 -0.9982  0.5280  0.2436
  391SOL     OW 1171   0.934   1.931   2.740  0.6153 -0.5216 -0.1269
  391SOL    HW1 1172   0.876   1.923   2.826  0.4368 -0.4623  0.4317
  391SOL    HW2 1173   0.889   1.983   2.664  1.9133  2.3072 -4.8327
  392SOL     OW 1174   2.813   2.907   2.118  0.4759 -0.8759 -0.0920
  392SOL    HW1 1175   2.914   2.931   2.107 -2.0495 -1.0373  0.1599
  392SOL    HW2 1176   2.789   2.819   2.082 -0.8180 -1.3404  0.3784
  393SOL     OW 1177   2.031   2.641   0.311 -0.1713  0.3146 -0.1979
  393SOL    HW1 1178   1.939   2.634   0.267 -2.8328 -0.0943 -1.4645
  393SOL    HW2 1179   2.104   2.606   0.246  0.7528 -2.0138 -0.0377
  394SOL     OW 1180   0.708   0.614   2.496  0.2140  0.4500  0.7192
  394SOL    HW1 1181   0.627   0.655   2.540  2.8105 -3.2686  0.3974
  394SOL    HW2 1182   0.692   0.599   2.397  1.4366  1.2724 -1.7802
  395SOL     OW 1183   0.819   1.163   1.399  0.6130 -0.3787 -0.5500
  395SOL    HW1 1184   0.737   1.127   1.447  1.9098 -1.6369 -3.7606
  395SOL    HW2 1185   0.910   1.123   1.435  2.7243 -2.9113  0.7468
  396SOL     OW 1186   1.695   1.603   2.164  0.3265  0.3236 -0.7273
  396SOL    HW1 1187   1.756   1.560   2.098 -2.2087  0.9114 -0.8080
  396SOL    HW2 1188   1.673   1.529   2.232  1.8495 -1.8226  0.6599
  397SOL     OW 1189   0.830   0.525   2.718  0.7733  0.4181 -0.1252
  397SOL    HW1 1190   0.793   0.553   2.810 -1.6530  0.3261  0.0517
  397SOL    HW2 1191   0.769   0.556   2.639 -0.5911  0.7434  0.0675
  398SOL     OW 1192   0.340   2.010   2.682 -0.2666  0.3071  0.0645
  398SOL    HW1 1193   0.411   2.081   2.707  2.4158 -0.9985 -2.1188
  398SOL    HW2 1194   0.319   2.016   2.582  1.3818  2.7230  2.4655
  399SOL     OW 1195   0.071   1.844   2.310  0.3497 -0.0945 -0.0787
  399SOL    HW1 1196   0.048   1.760   2.361 -0.2282  1.8519 -0.7377
  399SOL    HW2 1197   0.117   1.816   2.223 -5.0900 -0.9280  2.5428
  400SOL     OW 1198   2.710   0.579   1.638  0.4263  0.1258  0.5526
  400SOL    HW1 1199   2.618   0.556   1.596  2.3903 -0.3996 -0.7059
  400SOL    HW2 1200   2.714   0.549   1.734 -1.1499  0.5564  1.4495
  401SOL     OW 1201   0.817   1.790   0.304  0.0512  0.1059 -0.1108
  401SOL    HW1 1202   0.767   1.725   0.240 -1.7111 -0.1406  1.0743
  401SOL    HW2 1203   0.850   1.740   0.387 -2.5365 -1.4066  2.6165
  402SOL     OW 1204   0.085   2.516   2.099  0.0612  0.2094 -0.3213
  402SOL    HW1 1205   0.070   2.602   2.048 -0.2856 -1.3774  0.0249
  402SOL    HW2 1206   0.073   2.437   2.037 -2.0057 -0.1183  0.3191
  403SOL     OW 1207   0.401   1.361   2.230 -0.2282 -0.1198  0.3115
  403SOL    HW1 1208   0.330   1.320   2.293  0.7653 -0.7529 -0.2033
  403SOL    HW2 1209   0.482   1.392   2.279 -1.5053  0.4997 -2.1894
  404SOL     OW 1210   1.791   1.983   1.565 -0.1519  0.4912  0.2683
  404SOL    HW1 1211   1.759   2.080   1.562  0.9155  0.6251 -1.5535
  404SOL    HW2 1212   1.849   1.958   1.485 -1.0102  0.2058 -1.3389
  405SOL     OW 1213   2.786   2.628   2.674 -0.4685 -0.0682 -0.2377
  405SOL    HW1 1214   2.779   2.692   2.754  1.0742 -0.7413  2.3410
  405SOL    HW2 1215   2.885   2.627   2.644 -2.8858  0.4155 -1.6310
  406SOL     OW 1216   0.408   1.277   2.957 -0.2444 -0.3907 -0.2585
  406SOL    HW1 1217   0.415   1.327   3.051 -0.5846  5.8983  1.6634
  406SOL    HW2 1218   0.489   1.300   2.899 -0.4448  0.6647 -0.6900
  407SOL     OW 1219   2.406   2.771   2.777  0.3090  0.4234 -0.3168
  407SOL    HW1 1220   2.407   2.792   2.678 -1.4870 -1.0774 -0.3936
  407SOL    HW2 1221   2.489   2.797   2.833  1.0932 -0.5194  1.5520
  408SOL     OW 1222   2.671   2.577   3.106 -0.3055  0.4434 -0.3245
  408SOL    HW1 1223   2.736   2.556   0.072 -0.3672 -1.2921 -1.2928
  408SOL    HW2 1224   2.667   2.506   3.033 -0.1445 -0.1624  0.5733
  409SOL     OW 1225   2.233   1.127   0.846 -0.4001 -0.1225  0.1920
  409SOL    HW1 1226   2.243   1.219   0.889 -0.8079 -1.6127 -0.3095
  409SOL    HW2 1227   2.138   1.108   0.807 -0.5367 -0.2129 -0.1858
  410SOL     OW 1228   2.898   1.584   0.593  0.5217  0.5309  0.2223
  410SOL    HW1 1229   2.908   1.564   0.692  2.7314 -0.0699  2.3364
  410SOL    HW2 1230   2.992   1.603   0.558 -0.5823  1.1308  0.4306
  411SOL     OW 1231   0.282   1.454   0.758  0.2772  0.2157 -0.0134
  411SOL    HW1 1232   0.282   1.557   0.748  0.5720  0.5409 -0.4341
  411SOL    HW2 1233   0.370   1.421   0.799  0.4892 -0.0888 -2.0767
  412SOL     OW 1234   2.345   2.274   0.649  0.1221  0.5625  0.5815
  412SOL    HW1 1235   2.345   2.343   0.570  0.4282  2.3907 -1.7548
  412SOL    HW2 1236   2.321   2.314   0.739 -2.0779  1.6748  2.7542
  413SOL     OW 1237   1.572   1.088   2.209 -0.2104 -0.0700 -0.0822
  413SOL    HW1 1238   1.542   1.022   2.136  0.2991 -0.3483 -0.7093
  413SOL    HW2 1239   1.484   1.133   2.244 -3.5603  0.5416  1.0261
  414SOL     OW 1240   2.788   2.989   0.320  0.4000 -0.5195  0.5873
  414SOL    HW1 1241   2.796   2.959   0.226 -1.5997  2.0844 -0.3611
  414SOL    HW2 1242   2.846   3.071   0.336 -0.8866 -2.2301 -0.5794
  415SOL     OW 1243   0.945   2.282   1.364  0.1435 -0.3692 -0.5195
  415SOL    HW1 1244   0.879   2.300   1.442 -3.2183 -0.2905 -1.4543
  415SOL    HW2 1245   0.954   2.186   1.341  0.3047  1.3157  1.1008
  416SOL     OW 1246   3.055   2.610   2.618  0.0804 -0.4437  0.3414
  416SOL    HW1 1247   0.026   2.628   2.567  0.3617 -1.2283  0.8649
  416SOL    HW2 1248   3.066   2.519   2.667 -0.8954 -1.5794  0.3397
  417SOL     OW 1249   2.804   0.581   1.237  0.0039 -1.0999 -0.1452
  417SOL    HW1 1250   2.849   0.618   1.151 -4.0996 -0.2351 -0.6886
  417SOL    HW2 1251   2.862   0.586   1.319 -2.7408 -0.8560 -0.1971
  418SOL     OW 1252   3.056   0.073   0.048  0.2271  0.2496  0.0560
  418SOL    HW1 1253   3.039   0.016   0.129  0.8602  1.1542  1.0471
  418SOL    HW2 1254   2.999   0.040   3.082 -1.6919  1.2933 -0.6794
  419SOL     OW 1255   3.056   1.599   1.555 -0.1091 -0.2240  0.0251
  419SOL    HW1 1256   2.996   1.528   1.511 -0.9728 -1.2565  0.5929
  419SOL    HW2 1257   0.040   1.580   1.529 -0.7285  1.7231 -0.9013
  420SOL     OW 1258   0.126   1.381   0.105  0.6727 -0.1852 -0.4659
  420SOL    HW1 1259   0.217   1.420   0.118  1.2941 -3.7997 -0.5174
  420SOL    HW2 1260   0.107   1.324   0.018 -1.9066 -1.3099  1.8973
  421SOL     OW 1261   2.161   2.586   2.462  0.0459 -0.3664  0.1592
  421SOL    HW1 1262   2.063   2.592   2.468  3.1457 -3.7415 -3.1066
  421SOL    HW2 1263   2.196   2.548   2.373  1.0173 -2.1728 -0.4976
  422SOL     OW 1264   0.112   0.944   2.753 -0.6755  0.7931  0.5804
  422SOL    HW1 1265   0.127   0.902   2.663 -1.6643 -1.8372 -1.6473
  422SOL    HW2 1266   0.178   0.895   2.818  0.8505 -0.5327 -0.0290
  423SOL     OW 1267   1.193   2.233   0.644 -0.3911  0.0870 -0.2442
  423SOL    HW1 1268   1.286   2.231   0.687 -1.1099  1.2919 -1.2609
  423SOL    HW2 1269   1.153   2.141   0.638 -1.8138  0.3828 -0.8954
  424SOL     OW 1270   0.736   2.025   1.494  0.0519 -0.4638  0.1862
  424SOL    HW1 1271   0.749   2.121   1.530 -0.6078  0.1833 -2.1440
  424SOL    HW2 1272   0.782   1.951   1.549  1.5731 -0.7037  0.3809
  425SOL     OW 1273   2.565   2.502   2.574  0.1912  0.3237 -0.0671
  425SOL    HW1 1274   2.514   2.525   2.484 -1.6974  1.0622  0.3010
  425SOL    HW2 1275   2.611   2.583   2.616 -1.9033  2.5408 -0.3364
  426SOL     OW 1276   1.488   0.545   0.997  0.5140  0.0521  0.5317
  426SOL    HW1 1277   1.527   0.457   1.030 -1.1847  0.5585  1.2768
  426SOL    HW2 1278   1.399   0.535   0.947 -0.6897  2.7710  1.0289
  427SOL     OW 1279   0.081   1.584   2.779 -0.3883  0.5501  0.4638
  427SOL    HW1 1280   0.043   1.663   2.833 -1.4543 -1.2181 -0.3035
  427SOL    HW2 1281   0.006   1.513   2.766 -1.6124 -0.4907  0.5966
  428SOL     OW 1282   1.074   1.272   0.065 -0.2810 -0.4099 -0.1575
  428SOL    HW1 1283   1.121   1.213   0.136 -2.7233 -0.7860  0.9265
  428SOL    HW2 1284   0.988   1.228   0.034  0.7487  0.1153  0.9941
  429SOL     OW 1285   2.780   2.602   0.645 -0.5024  0.2341  0.3080
  429SOL    HW1 1286   2.712   2.548   0.587 -0.8563  1.1414  0.1904
  429SOL    HW2 1287   2.852   2.638   0.585  0.1535 -1.1540 -2.5520
  430SOL     OW 1288   0.455   2.312   2.308 -0.4749 -0.8532 -0.1059
  430SOL    HW1 1289   0.402   2.392   2.278  4.7371  0.6422  0.1581
  430SOL    HW2 1290   0.468   2.247   2.235  2.8009  0.7175  0.0117
  431SOL     OW 1291   2.917   1.349   0.374  0.5018  0.4828 -0.4485
  431SOL    HW1 1292   2.966   1.402   0.446  0.0375  0.1381 -2.0296
  431SOL    HW2 1293   2.983   1.300   0.312 -0.5040  0.3283  0.7074
  432SOL     OW 1294   1.896   2.688   2.388 -0.0754  0.0515  0.1854
  432SOL    HW1 1295   1.912   2.749   2.309  0.9765 -0.7379 -0.8878
  432SOL    HW2 1296   1.864   2.734   2.473  1.0069  0.3683  0.0742
  433SOL     OW 1297   1.227   2.695   0.450 -0.0343 -0.0876 -0.0383
  433SOL    HW1 1298   1.229   2.801   0.444  0.0930  0.9151 -3.9907
  433SOL    HW2 1299   1.246   2.674   0.546  0.6448  1.1125 -0.3229
  434SOL     OW 1300   1.290   1.816   2.237  0.1529  0.5330 -0.2467
  434SOL    HW1 1301   1.239   1.902   2.254 -2.7304 -1.0056  0.0099
  434SOL    HW2 1302   1.308   1.763   2.325  0.5938 -3.1159  3.3924
  435SOL     OW 1303   2.491   0.594   0.098  0.3176 -0.3096 -0.1317
  435SOL    HW1 1304   2.473   0.677   0.041  0.9868 -2.0767 -2.2818
  435SOL    HW2 1305   2.462   0.608   0.198 -0.3293 -1.2510  1.2480
  436SOL     OW 1306   0.454   2.748   2.292  0.3402 -0.1924 -0.0441
  436SOL    HW1 1307   0.421   2.664   2.333 -1.3333  3.1788 -1.7026
  436SOL    HW2 1308   0.552   2.746   2.308  1.7460  1.0675 -0.5564
  437SOL     OW 1309   2.050   3.042   1.473 -0.0795 -0.1623 -0.1096
  437SOL    HW1 1310   2.074   2.946   1.467 -0.1021  2.5258 -0.1743
  437SOL    HW2 1311   2.112   3.096   1.418 -1.0909 -1.1047  1.8903
  438SOL     OW 1312   0.047   1.751   0.674 -0.2999  0.2429  0.0179
  438SOL    HW1 1313   0.015   1.848   0.660 -0.5225  0.8822  2.6801
  438SOL    HW2 1314   0.116   1.746   0.749  1.6232  2.1963  2.0354
  439SOL     OW 1315   0.266   0.300   1.227 -0.0231 -0.3346 -0.3911
  439SOL    HW1 1316   0.315   0.389   1.233 -0.3475  1.5290 -1.0060
  439SOL    HW2 1317   0.259   0.269   1.129 -0.1011 -3.7461 -1.1038
  440SOL     OW 1318   2.847   2.771   2.366 -0.0751 -0.3259 -0.0598
  440SOL    HW1 1319   2.829   2.672   2.379  1.6047  3.0657  0.2225
  440SOL    HW2 1320   2.844   2.793   2.267  0.8871  0.8627 -1.5146
  441SOL     OW 1321   0.213   0.642   0.225 -0.1891 -0.3170 -0.0649
  441SOL    HW1 1322   0.281   0.672   0.293  0.9999  3.5362 -1.9374
  441SOL    HW2 1323   0.130   0.616   0.272  2.9331 -0.7958 -1.4593
  442SOL     OW 1324   1.632   2.470   2.290  0.2562 -0.2136  0.1904
  442SOL    HW1 1325   1.615   2.394   2.218 -0.7739  1.1983 -1.6683
  442SOL    HW2 1326   1.726   2.465   2.328  1.0410 -0.1876 -0.3029
  443SOL     OW 1327   0.513   2.953   0.087 -0.2346 -0.1844  0.2163
  443SOL    HW1 1328   0.517   2.897   0.003  1.4553 -0.2705  2.6330
  443SOL    HW2 1329   0.550   3.043   0.056 -1.2891  1.7326  4.1523
  444SOL     OW 1330   1.410   1.781   2.668  0.0323 -0.2909  0.0225
  444SOL    HW1 1331   1.336   1.846   2.697 -0.6704 -0.7716 -0.3061
  444SOL    HW2 1332   1.387   1.733   2.582 -0.1343  1.6776 -1.0491
  445SOL     OW 1333   0.496   0.399   0.814  0.0776  0.0317  0.0718
  445SOL    HW1 1334   0.449   0.333   0.753  1.5069  2.3224  1.4753
  445SOL    HW2 1335   0.514   0.360   0.905 -1.3999 -2.3440  1.1083
  446SOL     OW 1336   1.662   0.755   0.962  0.6947  0.9585  0.1950
  446SOL    HW1 1337   1.597   0.678   0.985  2.6108 -1.2223 -0.4274
  446SOL    HW2 1338   1.727   0.770   1.040 -0.7642  0.6737  0.2816
  447SOL     OW 1339   2.873   1.034   3.104  0.4584  0.2797  0.4605
  447SOL    HW1 1340   2.881   0.981   0.078  1.8531 -0.3807 -0.4806
  447SOL    HW2 1341   2.955   1.015   3.048 -1.7815 -0.4545  0.5417
  448SOL     OW 1342   2.306   1.756   1.291 -0.1248 -0.7921 -0.5589
  448SOL    HW1 1343   2.407   1.763   1.289 -1.1673 -1.9132 -0.7400
  448SOL    HW2 1344   2.265   1.832   1.241  1.6816 -3.0274 -0.8658
  449SOL     OW 1345   0.852   1.411   2.882  0.4118 -0.5190  0.4496
  449SOL    HW1 1346   0.935   1.433   2.833  0.3194  0.0172 -1.6463
  449SOL    HW2 1347   0.852   1.449   2.977 -2.4233 -2.9549  0.3920
  450SOL     OW 1348   2.163   3.001   2.351  0.2697 -0.5873 -0.2584
  450SOL    HW1 1349   2.147   2.959   2.439  0.1772  2.3069 -0.1842
  450SOL    HW2 1350   2.075   3.025   2.299  0.1159  1.1468  1.1190
  451SOL     OW 1351   2.419   0.897   2.564 -0.2564 -0.3305  0.1884
  451SOL    HW1 1352   2.367   0.887   2.652 -1.7237 -0.9621 -1.3336
  451SOL    HW2 1353   2.390   0.979   2.510  0.6715  1.5237  1.3927
  452SOL     OW 1354   1.734   1.137   1.396  0.3032  0.0986  0.2157
  452SOL    HW1 1355   1.687   1.162   1.308  1.7010 -1.8783 -1.3820
  452SOL    HW2 1356   1.666   1.124   1.476  0.7966 -0.1876  5.1218
  453SOL     OW 1357   1.729   0.649   1.766  0.3417 -0.1253 -0.1139
  453SOL    HW1 1358   1.695   0.552   1.765  0.3366 -0.9220  2.0660
  453SOL    HW2 1359   1.674   0.702   1.835 -3.0143 -0.1594  0.7439
  454SOL     OW 1360   3.095   0.805   2.981  0.2571 -0.3656  0.4960
  454SOL    HW1 1361   3.081   0.857   2.889  0.7454  1.1663 -2.4075
  454SOL    HW2 1362   0.062   0.843   3.031  2.5756  2.0249 -2.4056
  455SOL     OW 1363   2.687   1.589   1.455 -0.2778  0.0117 -0.5611
  455SOL    HW1 1364   2.655   1.573   1.549  0.8055 -3.1266  0.9143
  455SOL    HW2 1365   2.780   1.547   1.447 -3.2413  2.2650  0.0985
  456SOL     OW 1366   1.637   2.738   1.708 -0.2548  0.1815 -0.4939
  456SOL    HW1 1367   1.584   2.685   1.778  0.8651  2.0981 -3.2860
  456SOL    HW2 1368   1.609   2.838   1.707  1.4485 -0.4920  0.4328
  457SOL     OW 1369   1.530   2.895   0.739  0.4491 -0.0477 -0.5450
  457SOL    HW1 1370   1.580   2.834   0.676  0.6999  3.1772  0.6010
  457SOL    HW2 1371   1.491   2.847   0.824 -0.3885 -1.9708  0.9160
  458SOL     OW 1372   2.864   3.012   0.780 -0.1082 -0.2702  0.6534
  458SOL    HW1 1373   2.776   2.956   0.775 -0.2986  0.9523  0.9270
  458SOL    HW2 1374   2.852   3.100   0.733  2.5880 -0.4063 -1.7277
  459SOL     OW 1375   1.919   1.238   0.583  0.8111 -0.6962 -0.6652
  459SOL    HW1 1376   1.864   1.189   0.510 -0.0574 -0.5241 -2.4627
  459SOL    HW2 1377   1.967   1.172   0.645  0.4184 -0.5016  0.3963
  460SOL     OW 1378   0.921   2.574   2.330 -0.1544  0.3295  0.6284
  460SOL    HW1 1379   0.899   2.505   2.252 -3.2779 -0.8722  1.3601
  460SOL    HW2 1380   1.013   2.559   2.368 -1.0929  0.0516 -0.6041
  461SOL     OW 1381   0.322   1.568   0.373  0.1851  0.3118  0.1056
  461SOL    HW1 1382   0.321   1.610   0.281 -0.8712 -2.9358  3.6723
  461SOL    HW2 1383   0.380   1.480   0.370  2.6450 -0.8200  0.5307
  462SOL     OW 1384   2.099   2.143   0.271 -0.2545  0.5662  0.3687
  462SOL    HW1 1385   2.101   2.047   0.311  0.4833 -0.0338 -0.3563
  462SOL    HW2 1386   2.055   2.141   0.179 -0.8899  0.0314 -0.4137
  463SOL     OW 1387   2.716   0.602   0.345  0.0276 -0.1403  0.3735
  463SOL    HW1 1388   2.617   0.620   0.347  0.9804  0.9903  1.0462
  463SOL    HW2 1389   2.735   0.508   0.303 -0.0374 -1.5934  1.6800
  464SOL     OW 1390   0.608   2.005   0.313 -0.0495  0.0694 -0.4454
  464SOL    HW1 1391   0.665   1.923   0.315 -3.1100 -0.0222 -0.1496
  464SOL    HW2 1392   0.660   2.074   0.257  1.1256  0.4957  0.7668
  465SOL     OW 1393   2.204   0.116   1.347  0.1929  0.0391  0.7092
  465SOL    HW1 1394   2.180   0.167   1.263  0.4551 -0.5658  1.5631
  465SOL    HW2 1395   2.187   0.176   1.425  0.2632 -0.7370  0.0059
  466SOL     OW 1396   2.274   0.087   0.803 -0.3261  0.6275  0.3099
  466SOL    HW1 1397   2.189   0.097   0.746 -0.8484 -0.6726 -1.0195
  466SOL    HW2 1398   2.326   0.174   0.818  3.2172  0.0411  1.9951
  467SOL     OW 1399   0.488   0.495   2.238  0.1734  0.0138 -0.3043
  467SOL    HW1 1400   0.407   0.466   2.291 -0.9263  1.3644  1.7563
  467SOL    HW2 1401   0.509   0.436   2.159 -1.3382  1.3148  1.4979
  468SOL     OW 1402   2.608   3.066   2.141 -0.2218  0.0565  0.1916
  468SOL    HW1 1403   2.587   3.110   2.054  0.4778 -0.5310 -1.0058
  468SOL    HW2 1404   2.684   2.997   2.128 -1.5514  1.2595  0.0272
  469SOL     OW 1405   1.053   2.723   1.661  0.1132 -0.3596  0.2184
  469SOL    HW1 1406   1.038   2.628   1.621 -2.4263  1.9191 -3.9620
  469SOL    HW2 1407   1.001   2.743   1.749  1.2473 -1.4705  0.2111
  470SOL     OW 1408   2.516   1.025   1.888  0.4988 -0.0821  0.2992
  470SOL    HW1 1409   2.557   0.953   1.952  2.7063  2.2931 -0.2285
  470SOL    HW2 1410   2.420   1.048   1.916  1.2303  0.0094 -2.2486
  471SOL     OW 1411   2.888   1.727   2.822  0.0084 -0.2418 -0.2908
  471SOL    HW1 1412   2.980   1.755   2.861  0.7255  0.2503 -1.7198
  471SOL    HW2 1413   2.832   1.675   2.892  0.5421  0.3579 -0.5050
  472SOL     OW 1414   0.685   2.280   0.643  0.1893  0.1352 -0.4405
  472SOL    HW1 1415   0.766   2.266   0.585  1.2896  0.5742 -1.1628
  472SOL    HW2 1416   0.680   2.219   0.726  2.6984 -1.6302  0.6903
  473SOL     OW 1417   1.391   2.390   2.399 -0.0958 -0.4333  0.0907
  473SOL    HW1 1418   1.398   2.287   2.414 -0.3996 -0.7522 -1.5537
  473SOL    HW2 1419   1.482   2.427   2.374  2.1617  0.7733  2.6305
  474SOL     OW 1420   0.729   2.802   2.640 -0.1021  0.3349 -0.1547
  474SOL    HW1 1421   0.692   2.717   2.691 -3.3585 -2.8380 -0.5043
  474SOL    HW2 1422   0.810   2.850   2.686  1.7944 -0.1960 -0.5196
  475SOL     OW 1423   0.804   1.853   2.954 -0.1471  0.2195 -0.4529
  475SOL    HW1 1424   0.876   1.810   3.009  0.1841  1.8591 -2.3150
  475SOL    HW2 1425   0.708   1.830   2.984  0.0296 -0.3768  0.7755
  476SOL     OW 1426   0.832   0.757   1.087  0.2148  0.0456  0.3196
  476SOL    HW1 1427   0.807   0.779   1.181 -2.0369  0.6219 -2.5440
  476SOL    HW2 1428   0.780   0.821   1.021 -3.5975 -0.6399 -0.6604
  477SOL     OW 1429   2.177   2.051   1.253  0.1698 -0.4179 -0.0577
  477SOL    HW1 1430   2.273   2.076   1.242 -1.2789 -0.8512 -0.4284
  477SOL    HW2 1431   2.142   2.099   1.336 -0.1079  0.3688  0.3291
  478SOL     OW 1432   0.168   0.443   2.896 -0.1851  0.0974 -0.7189
  478SOL    HW1 1433   0.072   0.406   2.892  1.1358  0.7496 -0.5895
  478SOL    HW2 1434   0.213   0.417   2.808 -0.1738  1.0043  0.0771
  479SOL     OW 1435   1.126   0.042   1.538  0.0625  0.3102 -0.1319
  479SOL    HW1 1436   1.113   0.138   1.503  0.2976  1.4138 -2.2074
  479SOL    HW2 1437   1.042   3.098   1.536  1.2910  1.2417 -0.8843
  480SOL     OW 1438   2.701   2.275   0.323 -0.0314 -0.3727  0.2299
  480SOL    HW1 1439   2.644   2.212   0.271 -0.6187 -0.6376 -1.4236
  480SOL    HW2 1440   2.795   2.238   0.323 -0.8154  0.0914 -2.0654
  481SOL     OW 1441   0.054   0.759   1.835 -0.3005 -0.5721  0.2308
  481SOL    HW1 1442   0.007   0.826   1.777 -0.1958 -2.0422 -1.0287
  481SOL    HW2 1443   3.099   0.695   1.884 -0.8348 -2.7186  0.0662
  482SOL     OW 1444   0.975   3.037   1.059  0.2181 -0.7723  0.7143
  482SOL    HW1 1445   0.913   0.003   1.032 -0.2622  3.4693  0.3757
  482SOL    HW2 1446   0.925   2.973   1.126 -1.2730 -1.3083 -0.7117
  483SOL     OW 1447   2.923   1.459   2.528 -0.1306 -0.5389 -0.4863
  483SOL    HW1 1448   2.935   1.436   2.631 -1.6459 -1.4919  6.4010
  483SOL    HW2 1449   2.840   1.516   2.512 -0.3704  1.7427  2.0195
  484SOL     OW 1450   1.884   1.835   1.960  0.2188  0.6747 -0.1912
  484SOL    HW1 1451   1.944   1.759   1.994 -0.1984 -1.1887 -0.1798
  484SOL    HW2 1452   1.834   1.811   1.876  1.2382 -1.0128  1.5262
  485SOL     OW 1453   0.249   2.944   2.259 -0.3471 -0.4745  0.4973
  485SOL    HW1 1454   0.172   2.911   2.320 -1.1163 -0.6515  1.4017
  485SOL    HW2 1455   0.326   2.875   2.271  0.7138 -3.1061  0.4797
  486SOL     OW 1456   1.077   0.034   0.625 -0.6802  0.6185  0.1096
  486SOL    HW1 1457   1.147   3.070   0.639  0.3659 -0.8267 -1.4311
  486SOL    HW2 1458   1.095   0.102   0.696  2.0062 -0.4401  1.3337
  487SOL     OW 1459   1.392   0.193   0.912 -0.0804 -0.2743 -0.1622
  487SOL    HW1 1460   1.462   0.205   0.841 -0.3928  2.2105 -2.1882
  487SOL    HW2 1461   1.426   0.210   1.006 -0.5679  2.7169  0.0960
  488SOL     OW 1462   2.204   0.918   1.027  0.3442 -0.1351 -0.0221
  488SOL    HW1 1463   2.213   0.992   0.958 -2.8875  1.1452 -0.5716
  488SOL    HW2 1464   2.123   0.941   1.087 -1.9586  1.1715 -1.9932
  489SOL     OW 1465   1.128   0.318   1.444  0.4744  0.4417  0.4118
  489SOL    HW1 1466   1.078   0.337   1.357 -2.6330 -1.9131  3.2210
  489SOL    HW2 1467   1.228   0.339   1.429 -1.5143  0.2728 -1.9692
  490SOL     OW 1468   0.728   0.592   2.960 -0.3268  0.4549  0.1112
  490SOL    HW1 1469   0.801   0.630   3.025  1.7212 -2.5825  1.7749
  490SOL    HW2 1470   0.667   0.529   3.011 -0.7097 -3.5103  0.6208
  491SOL     OW 1471   0.962   2.795   0.360 -0.3424 -0.6393 -0.0669
  491SOL    HW1 1472   0.930   2.870   0.423 -0.3559  0.2998  0.3160
  491SOL    HW2 1473   1.046   2.758   0.407 -1.9996 -0.7364  2.5544
  492SOL     OW 1474   1.364   1.786   1.561  0.0758 -0.4828  0.1031
  492SOL    HW1 1475   1.356   1.780   1.662  0.6604 -2.0513 -0.8040
  492SOL    HW2 1476   1.427   1.721   1.526 -1.2206  3.3433  0.1222
  493SOL     OW 1477   0.409   1.463   0.082  0.0716 -0.3492  0.6146
  493SOL    HW1 1478   0.368   1.558   0.080 -0.6763 -0.2664  0.5697
  493SOL    HW2 1479   0.496   1.462   0.129 -1.1535 -0.0274  3.8141
  494SOL     OW 1480   1.882   2.278   0.374  0.0295  0.0231 -0.3064
  494SOL    HW1 1481   1.958   2.219   0.337  1.2264 -0.6514  0.8342
  494SOL    HW2 1482   1.843   2.343   0.305 -2.6026  2.5949 -0.5041
  495SOL     OW 1483   0.465   1.731   2.443  0.0158 -0.1055  0.1797
  495SOL    HW1 1484   0.546   1.775   2.487 -0.2189  1.0683  1.6496
  495SOL    HW2 1485   0.384   1.715   2.505  0.3579 -0.0449 -1.6090
  496SOL     OW 1486   0.357   2.806   2.649  0.6182 -0.0300  0.0530
  496SOL    HW1 1487   0.297   2.847   2.720 -0.4943 -0.1448 -0.9226
  496SOL    HW2 1488   0.433   2.874   2.626 -0.3306  1.8273  0.4085
  497SOL     OW 1489   1.673   1.355   0.686 -0.0477 -0.2437  1.0733
  497SOL    HW1 1490   1.606   1.349   0.608  0.4783 -1.9387 -2.1868
  497SOL    HW2 1491   1.775   1.358   0.660  0.7391 -0.0733 -0.3008
  498SOL     OW 1492   2.787   2.521   0.229 -0.3485 -0.5861  0.2360
  498SOL    HW1 1493   2.876   2.491   0.185  0.3154 -0.1242 -0.7040
  498SOL    HW2 1494   2.754   2.434   0.274  1.3595 -0.6329  1.5055
  499SOL     OW 1495   1.925   2.550   0.548  0.3598 -0.6526 -0.5035
  499SOL    HW1 1496   1.939   2.453   0.546 -1.7605 -0.5017  0.8996
  499SOL    HW2 1497   1.985   2.590   0.471  0.8467 -1.5955 -4.3889
  500SOL     OW 1498   0.472   0.337   2.816 -0.5491  0.0056  0.5431
  500SOL    HW1 1499   0.478   0.382   2.910  1.3446  4.3920  0.9378
  500SOL    HW2 1500   0.566   0.315   2.780  0.7379 -1.4593  0.5016
  501SOL     OW 1501   1.892   2.677   1.760  0.3307 -0.4304  0.5770
  501SOL    HW1 1502   1.886   2.655   1.863 -2.2705 -0.7247  3.2749
  501SOL    HW2 1503   1.805   2.721   1.723 -3.2890  0.9360 -0.9864
  502SOL     OW 1504   0.107   0.095   2.574 -0.1350 -0.2150 -0.0477
  502SOL    HW1 1505   0.039   0.062   2.644 -1.0457 -2.0481  4.3297
  502SOL    HW2 1506   0.198   0.096   2.622  1.5635  1.0258  1.0614
  503SOL     OW 1507   1.925   2.431   2.300 -0.0646  0.0292  0.3222
  503SOL    HW1 1508   1.973   2.404   2.214 -0.5895 -0.7545 -0.3305
  503SOL    HW2 1509   1.919   2.534   2.318  2.4413  1.0505  0.4407
  504SOL     OW 1510   2.184   0.163   1.775 -0.1526 -0.1839 -0.2040
  504SOL    HW1 1511   2.106   0.102   1.797  1.9898  0.2764  0.6895
  504SOL    HW2 1512   2.167   0.213   1.685 -1.0652  2.2000  0.4994
  505SOL     OW 1513   2.519   1.374   1.362  0.0803 -0.7058 -0.8397
  505SOL    HW1 1514   2.562   1.457   1.404 -0.5382  1.4111  1.8208
  505SOL    HW2 1515   2.520   1.375   1.263 -3.4857 -1.4257 -0.1109
  506SOL     OW 1516   3.082   1.816   1.725  0.3953  0.2825  0.2871
  506SOL    HW1 1517   3.068   1.731   1.668  0.4653  0.9597 -2.1396
  506SOL    HW2 1518   0.023   1.881   1.666 -0.5743 -1.1143 -0.0172
  507SOL     OW 1519   0.423   2.360   1.442 -0.4271  0.0932  0.1519
  507SOL    HW1 1520   0.479   2.386   1.524 -1.5337  1.5182  0.7451
  507SOL    HW2 1521   0.340   2.415   1.436  2.8219 -0.6806  3.3547
  508SOL     OW 1522   0.663   0.641   1.695  0.4696 -0.2103 -0.5779
  508SOL    HW1 1523   0.687   0.572   1.771  0.7719  1.8962  2.3625
  508SOL    HW2 1524   0.563   0.654   1.686  1.4567 -0.3729 -1.7592
  509SOL     OW 1525   1.708   2.451   1.764 -0.1046  0.5575  0.1239
  509SOL    HW1 1526   1.615   2.478   1.805 -3.2518 -0.0316  0.6061
  509SOL    HW2 1527   1.770   2.530   1.760 -0.6402 -2.2112 -4.6550
  510SOL     OW 1528   2.552   1.407   2.448 -0.1710  0.1531 -0.3091
  510SOL    HW1 1529   2.517   1.356   2.529  3.0621  0.8810 -0.9690
  510SOL    HW2 1530   2.566   1.505   2.474  1.5717 -0.3396 -1.7608
  511SOL     OW 1531   0.940   1.428   1.087  0.5831  0.3593 -0.1923
  511SOL    HW1 1532   1.029   1.382   1.067 -0.7688  0.2017 -1.1750
  511SOL    HW2 1533   0.952   1.508   1.148 -1.8843  0.5375 -0.5965
  512SOL     OW 1534   2.710   1.664   0.410  0.6509 -0.8864 -0.1980
  512SOL    HW1 1535   2.779   1.621   0.469 -0.8610  1.4296 -0.7499
  512SOL    HW2 1536   2.673   1.752   0.451 -1.0128  2.6885 -1.0576
  513SOL     OW 1537   1.192   2.083   2.278  0.4478 -0.2602  0.6211
  513SOL    HW1 1538   1.096   2.098   2.307  1.8547 -2.6114 -0.5094
  513SOL    HW2 1539   1.262   2.101   2.353 -0.4759  2.0075 -0.4509
  514SOL     OW 1540   0.225   2.286   1.159 -0.3195 -0.4725 -0.0586
  514SOL    HW1 1541   0.209   2.385   1.157 -1.2342 -0.7597  4.2253
  514SOL    HW2 1542   0.319   2.255   1.135  1.5273 -3.1214  0.2888
  515SOL     OW 1543   2.044   0.886   1.783 -1.0543 -0.2902  0.1614
  515SOL    HW1 1544   1.952   0.892   1.736  0.0725  0.9964  1.2912
  515SOL    HW2 1545   2.122   0.905   1.719  1.6197 -0.8114 -1.4096
  516SOL     OW 1546   2.654   0.137   3.082  0.0756 -0.0669 -0.7168
  516SOL    HW1 1547   2.593   0.187   3.015 -0.3899  0.7058  0.3738
  516SOL    HW2 1548   2.683   0.205   0.044 -2.2017  2.5353  0.3382
  517SOL     OW 1549   1.218   1.663   2.964  0.5560 -0.8746 -0.5557
  517SOL    HW1 1550   1.303   1.628   3.005 -1.1516  0.7435 -3.1972
  517SOL    HW2 1551   1.188   1.587   2.905 -0.2776  2.2617 -0.1906
  518SOL     OW 1552   1.549   3.011   1.437 -0.4359  0.0339 -0.5161
  518SOL    HW1 1553   1.562   2.909   1.425 -2.4406 -0.7829  2.0519
  518SOL    HW2 1554   1.635   3.067   1.436 -0.6882 -0.8567  1.1443
  519SOL     OW 1555   2.273   2.621   0.770  0.0594  0.1271  0.1346
  519SOL    HW1 1556   2.368   2.587   0.792  0.3421  1.0466 -1.2761
  519SOL    HW2 1557   2.276   2.678   0.684  1.2337  0.9938  1.9314
  520SOL     OW 1558   2.819   2.181   1.916  0.3331  0.5874 -0.7175
  520SOL    HW1 1559   2.804   2.094   1.862 -0.1440 -0.6298 -1.0242
  520SOL    HW2 1560   2.846   2.162   2.014  1.5034 -1.7158 -2.6770
  521SOL     OW 1561   2.907   0.869   0.191  0.0317  0.3219  0.0470
  521SOL    HW1 1562   2.848   0.799   0.233  0.8937  0.7166 -0.8649
  521SOL    HW2 1563   3.007   0.845   0.203  0.7064 -1.4433 -0.0345
  522SOL     OW 1564   0.906   0.810   2.512  0.5137 -0.0459  0.1749
  522SOL    HW1 1565   0.827   0.754   2.550 -3.1189 -1.8663  2.3693
  522SOL    HW2 1566   0.870   0.859   2.430 -0.0522  3.6963 -2.7453
  523SOL     OW 1567   0.009   2.372   0.702 -0.3095 -0.2720 -0.0865
  523SOL    HW1 1568   0.067   2.304   0.756 -2.7247  0.2567  0.6946
  523SOL    HW2 1569   0.041   2.388   0.609  0.2321 -0.7147  1.5457
  524SOL     OW 1570   2.015   2.673   3.022 -0.3267 -0.2386 -0.2344
  524SOL    HW1 1571   2.093   2.738   3.032 -1.3541 -1.9261 -1.7796
  524SOL    HW2 1572   2.036   2.594   3.080  0.2599  1.2741  1.3176
  525SOL     OW 1573   2.644   0.386   1.359 -0.1127 -0.8816 -0.6546
  525SOL    HW1 1574   2.704   0.456   1.311  0.8125  0.1839  0.9415
  525SOL    HW2 1575   2.566   0.438   1.405  2.3610  0.8492 -0.6334
  526SOL     OW 1576   1.118   0.052   0.353 -0.0340  0.4644 -0.0898
  526SOL    HW1 1577   1.094   0.062   0.446  1.3946  0.2127 -1.1243
  526SOL    HW2 1578   1.172   3.078   0.353  1.2089 -0.4439  0.3411
  527SOL     OW 1579   2.102   2.888   0.403  0.0667 -0.3722  0.1055
  527SOL    HW1 1580   2.056   2.809   0.355  2.1922  0.1891 -1.4327
  527SOL    HW2 1581   2.130   2.954   0.337  0.9569  0.0138  0.4292
  528SOL     OW 1582   1.729   0.763   2.742  0.9737  0.1007 -0.6233
  528SOL    HW1 1583   1.663   0.799   2.809 -0.0935  0.4900 -1.6569
  528SOL    HW2 1584   1.685   0.748   2.653  0.9510  2.6151  1.2518
  529SOL     OW 1585   1.691   1.496   2.401 -0.3188 -0.2145  0.1020
  529SOL    HW1 1586   1.597   1.475   2.437 -0.0523 -1.8691 -0.4611
  529SOL    HW2 1587   1.739   1.405   2.378 -0.7834 -1.9792  0.1920
  530SOL     OW 1588   2.617   2.813   2.976  0.2366 -0.1482 -0.4164
  530SOL    HW1 1589   2.577   2.882   3.040  2.1551 -1.8182 -0.8006
  530SOL    HW2 1590   2.625   2.717   3.010  1.4016 -0.0821  0.2582
  531SOL     OW 1591   1.812   1.418   2.959 -0.0795  0.0972  0.0387
  531SOL    HW1 1592   1.766   1.383   3.044  0.0961 -0.1266  2.9442
  531SOL    HW2 1593   1.776   1.512   2.933 -0.2619 -0.6580 -0.2464
  532SOL     OW 1594   1.504   0.285   1.149 -0.3899  0.6530 -0.9625
  532SOL    HW1 1595   1.438   0.281   1.228 -0.4906  0.0219  0.3946
  532SOL    HW2 1596   1.593   0.308   1.190 -2.2386  0.9850  2.7882
  533SOL     OW 1597   0.604   0.813   2.844 -0.3075 -0.1534 -0.1538
  533SOL    HW1 1598   0.644   0.737   2.901  2.6964 -0.5529 -0.4212
  533SOL    HW2 1599   0.647   0.901   2.862  0.1239 -2.6823  0.4223
  534SOL     OW 1600   1.307   0.615   3.100  0.6998 -0.2711  0.2402
  534SOL    HW1 1601   1.366   0.564   3.030  1.6685 -0.7938 -1.7985
  534SOL    HW2 1602   1.328   0.606   0.088  1.5525 -0.0979  2.3960
  535SOL     OW 1603   0.805   2.127   2.996 -0.6713 -0.7012  0.1246
  535SOL    HW1 1604   0.737   2.166   3.051 -0.4889  1.2803  1.1992
  535SOL    HW2 1605   0.784   2.037   2.960  1.6782  2.8844 -0.2640
  536SOL     OW 1606   0.528   2.839   0.329  0.1926  0.0191  0.3596
  536SOL    HW1 1607   0.514   2.894   0.240  0.3719 -1.7594  0.1800
  536SOL    HW2 1608   0.598   2.768   0.319 -0.3643  2.2002 -0.1660
  537SOL     OW 1609   1.979   0.390   0.146 -0.0978  0.3289 -0.0193
  537SOL    HW1 1610   1.995   0.367   0.242  0.3057 -0.5793  1.3909
  537SOL    HW2 1611   2.023   0.484   0.132  0.8045 -0.6066 -1.8999
  538SOL     OW 1612   2.454   2.225   2.839 -0.2084 -0.2738 -0.3311
  538SOL    HW1 1613   2.453   2.225   2.735 -1.1752 -0.1176 -0.6345
  538SOL    HW2 1614   2.371   2.269   2.878 -1.9035  1.3713  1.5791
  539SOL     OW 1615   2.538   1.302   2.973  0.0276  0.7090  0.3583
  539SOL    HW1 1616   2.450   1.262   2.940 -2.8309  1.1696 -2.6613
  539SOL    HW2 1617   2.566   1.254   3.058 -0.7839 -0.9825  0.4204
  540SOL     OW 1618   0.635   2.979   1.816 -0.4188 -0.0016 -0.0779
  540SOL    HW1 1619   0.562   2.923   1.864 -2.0815 -2.3433  3.1010
  540SOL    HW2 1620   0.625   3.074   1.856 -2.1057  0.0138 -1.6051
  541SOL     OW 1621   2.358   0.069   2.428 -0.8636 -0.4464  0.4952
  541SOL    HW1 1622   2.306   0.108   2.511 -0.7761  1.0780  1.2369
  541SOL    HW2 1623   2.305   3.102   2.396 -2.1329 -0.1677  1.0147
  542SOL     OW 1624   0.284   0.597   3.074  0.0047  0.1803  0.5254
  542SOL    HW1 1625   0.226   0.531   3.013 -1.0534 -1.9931  0.6226
  542SOL    HW2 1626   0.268   0.598   0.063 -0.9021  1.9635 -1.5206
  543SOL     OW 1627   0.577   0.918   0.931 -0.5470 -0.2099  0.3029
  543SOL    HW1 1628   0.493   0.877   0.971  2.7476  0.8489  2.7689
  543SOL    HW2 1629   0.587   1.018   0.955 -1.7277  0.0696  1.8470
  544SOL     OW 1630   2.542   0.644   1.151  0.5233 -0.4886  0.4084
  544SOL    HW1 1631   2.643   0.630   1.165 -1.1679  0.6321 -0.6973
  544SOL    HW2 1632   2.518   0.719   1.224 -2.5028 -1.6761  1.0491
  545SOL     OW 1633   1.147   1.695   0.320 -0.0940  0.1279  0.7387
  545SOL    HW1 1634   1.157   1.789   0.284  0.9855  0.8885 -0.4789
  545SOL    HW2 1635   1.187   1.631   0.250  1.4581 -0.4991  2.1359
  546SOL     OW 1636   2.397   2.452   1.406  0.8361  0.0984  0.1451
  546SOL    HW1 1637   2.341   2.387   1.463 -3.1140 -0.5485 -1.0943
  546SOL    HW2 1638   2.359   2.449   1.313  2.7133 -1.2502  1.4569
  547SOL     OW 1639   1.157   2.468   2.059  0.2277  0.4039 -0.2152
  547SOL    HW1 1640   1.206   2.501   2.141 -1.9610  0.4965 -2.0945
  547SOL    HW2 1641   1.199   2.501   1.972  1.3798 -0.4824  0.8499
  548SOL     OW 1642   1.545   0.805   2.945  0.1006  0.2397 -0.1425
  548SOL    HW1 1643   1.467   0.857   2.979  1.9676  2.4373  1.7749
  548SOL    HW2 1644   1.518   0.712   2.920 -0.5893  4.3286 -2.0260
  549SOL     OW 1645   2.430   0.631   0.381  0.2154  0.0668 -0.1041
  549SOL    HW1 1646   2.455   0.577   0.465  2.9459  0.1909 -0.9157
  549SOL    HW2 1647   2.429   0.730   0.402  0.4876 -1.4462 -1.2028
  550SOL     OW 1648   2.071   1.345   0.269 -0.3350  0.2898 -0.1354
  550SOL    HW1 1649   2.158   1.336   0.327 -0.3228  0.5086 -0.2898
  550SOL    HW2 1650   2.086   1.313   0.175  1.0260  0.9113  1.9249
  551SOL     OW 1651   1.842   0.260   1.568  0.0144  0.1873  0.1973
  551SOL    HW1 1652   1.799   0.209   1.640 -0.5082  1.8792 -3.5972
  551SOL    HW2 1653   1.794   0.348   1.558 -1.2177  1.4123  2.1262
  552SOL     OW 1654   1.634   0.131   2.945 -0.2027  0.4651  0.6635
  552SOL    HW1 1655   1.676   0.212   2.899  1.2593  1.2908 -0.4742
  552SOL    HW2 1656   1.705   0.053   2.944 -0.5046  0.3940 -0.7990
  553SOL     OW 1657   0.414   2.558   2.016 -0.3590  0.1812  0.2565
  553SOL    HW1 1658   0.351   2.580   2.092 -0.0670  0.8510 -1.2306
  553SOL    HW2 1659   0.406   2.460   1.983 -0.8651  0.9945 -0.8572
  554SOL     OW 1660   0.143   0.056   1.261 -0.1826 -0.2426 -0.7664
  554SOL    HW1 1661   0.167   0.153   1.245 -1.5176 -1.3661 -0.2256
  554SOL    HW2 1662   0.231   0.013   1.286  1.8509 -0.3322  2.0809
  555SOL     OW 1663   2.343   1.791   2.129  0.3299  0.0124 -0.3462
  555SOL    HW1 1664   2.396   1.844   2.059  1.3947  0.4985  0.3535
  555SOL    HW2 1665   2.401   1.716   2.160 -1.0833 -1.1805 -0.2241
  556SOL     OW 1666   0.929   0.655   0.027  0.6505 -0.5834 -0.3668
  556SOL    HW1 1667   1.006   0.667   3.078  0.9216  1.3074 -1.6441
  556SOL    HW2 1668   0.944   0.584   0.103 -1.3202 -2.1388  0.6458
  557SOL     OW 1669   0.280   2.011   2.409 -0.1742  0.3157 -0.1404
  557SOL    HW1 1670   0.362   2.007   2.347  3.1272  1.0822  0.1068
  557SOL    HW2 1671   0.207   1.946   2.377  0.7510  0.0243  0.9766
  558SOL     OW 1672   1.904   0.537   2.927 -0.2127  0.3238 -0.1779
  558SOL    HW1 1673   1.987   0.482   2.935  0.0442 -0.7492  3.1192
  558SOL    HW2 1674   1.932   0.630   2.904 -0.1091 -0.5022 -3.6342
  559SOL     OW 1675   2.223   1.792   1.741 -0.4877  0.0263 -0.1244
  559SOL    HW1 1676   2.174   1.799   1.650 -2.8278 -1.1837 -2.8850
  559SOL    HW2 1677   2.203   1.869   1.802  1.3468 -0.7822  0.6971
  560SOL     OW 1678   1.987   1.057   2.018 -0.0246 -0.2264  0.2162
  560SOL    HW1 1679   1.993   0.997   1.936  0.3450 -2.4538  0.0765
  560SOL    HW2 1680   1.982   1.159   1.993 -0.5532  0.0188 -0.2392
  561SOL     OW 1681   3.028   3.066   2.757 -0.0023 -0.7465 -0.4222
  561SOL    HW1 1682   3.003   2.979   2.713 -1.1396  1.7751  0.9653
  561SOL    HW2 1683   3.081   3.055   2.844  0.8939  0.6062 -1.8294
  562SOL     OW 1684   1.105   1.793   1.437 -0.5009 -0.3330 -0.1975
  562SOL    HW1 1685   1.199   1.759   1.475  0.3573 -1.3757  1.2142
  562SOL    HW2 1686   1.126   1.857   1.358  0.1774 -1.2527 -0.8924
  563SOL     OW 1687   0.943   0.453   0.192  0.5456 -0.3415  0.0041
  563SOL    HW1 1688   1.030   0.473   0.240 -0.5616 -2.0160  0.1455
  563SOL    HW2 1689   0.894   0.369   0.227 -1.5271 -0.4589 -0.4500
  564SOL     OW 1690   2.940   2.504   0.843 -0.6265 -0.3153  0.1802
  564SOL    HW1 1691   3.019   2.466   0.794 -0.8927 -0.7875 -1.6265
  564SOL    HW2 1692   2.884   2.547   0.772 -1.0656 -0.4480  1.2387
  565SOL     OW 1693   0.683   2.226   1.205 -0.2996 -0.5509 -0.1402
  565SOL    HW1 1694   0.735   2.297   1.261  1.6689  0.9625  0.1046
  565SOL    HW2 1695   0.610   2.169   1.252  0.0417 -1.0058 -0.9485
  566SOL     OW 1696   1.091   2.993   2.578 -0.0574 -0.3518  0.2172
  566SOL    HW1 1697   1.002   2.985   2.625  1.7451 -0.0359 -0.8162
  566SOL    HW2 1698   1.087   3.032   2.485  1.1640 -0.2280  2.3435
  567SOL     OW 1699   2.149   2.960   0.913  0.1676  0.4832  0.8595
  567SOL    HW1 1700   2.168   2.908   0.834 -2.8392  0.3316  2.5744
  567SOL    HW2 1701   2.200   3.045   0.916 -3.2837 -2.6553  2.0160
  568SOL     OW 1702   1.657   1.645   0.772 -0.0498  0.1856 -0.2863
  568SOL    HW1 1703   1.744   1.683   0.808 -0.5514  1.6019  1.4312
  568SOL    HW2 1704   1.658   1.620   0.671 -1.4117 -1.0085 -2.3908
  569SOL     OW 1705   2.095   1.018   2.537  0.3631  0.5985  1.2083
  569SOL    HW1 1706   2.053   1.009   2.444 -0.8992  2.2408  0.5481
  569SOL    HW2 1707   2.187   1.061   2.539  1.0205 -0.8215 -0.1250
  570SOL     OW 1708   2.984   0.010   1.906  0.5675 -0.0205 -0.3654
  570SOL    HW1 1709   2.961   0.087   1.970 -0.9693 -1.7072 -0.8136
  570SOL    HW2 1710   3.058   3.056   1.936  1.4045 -1.7827  3.1128
  571SOL     OW 1711   0.284   2.983   1.725  0.3858  0.1581 -0.2026
  571SOL    HW1 1712   0.316   2.934   1.804  1.0252  1.4616 -2.1604
  571SOL    HW2 1713   0.230   2.933   1.654  1.4587  0.0415 -2.9111
  572SOL     OW 1714   0.146   2.288   1.469 -0.3811  0.1823  0.5145
  572SOL    HW1 1715   0.089   2.377   1.475 -0.1592 -0.3723 -0.1253
  572SOL    HW2 1716   0.182   2.281   1.372  0.1661  1.8324 -1.4386
  573SOL     OW 1717   1.157   0.933   2.872  0.1527  0.1286 -0.3024
  573SOL    HW1 1718   1.218   0.926   2.788  0.0547 -1.8778  2.4124
  573SOL    HW2 1719   1.062   0.948   2.839 -0.6329 -0.1006 -3.4492
  574SOL     OW 1720   2.463   2.599   2.335  0.2372  0.3093 -0.0403
  574SOL    HW1 1721   2.542   2.610   2.277 -3.2919  0.8412  2.6018
  574SOL    HW2 1722   2.376   2.594   2.278 -1.8720  0.0774 -2.0549
  575SOL     OW 1723   1.330   3.075   0.711 -0.3515 -0.2978 -0.2498
  575SOL    HW1 1724   1.353   0.060   0.690  0.4231  1.1997 -0.2390
  575SOL    HW2 1725   1.413   3.024   0.731 -2.1250  0.9445  0.1050
  576SOL     OW 1726   1.086   0.372   1.179  0.1658 -0.3631  0.6348
  576SOL    HW1 1727   1.001   0.416   1.143 -0.7601  1.0868  0.3203
  576SOL    HW2 1728   1.098   0.276   1.155  0.1377  0.4028  0.4240
  577SOL     OW 1729   2.151   1.638   0.409 -0.3113 -0.1154 -0.1266
  577SOL    HW1 1730   2.187   1.562   0.358 -0.6581  1.9283 -1.1383
  577SOL    HW2 1731   2.066   1.607   0.457  0.1181  1.2482 -0.4314
  578SOL     OW 1732   2.025   0.578   1.217  0.3908 -0.4356 -0.5075
  578SOL    HW1 1733   2.046   0.599   1.315  1.0805  1.6779  2.9404
  578SOL    HW2 1734   2.017   0.476   1.206 -0.0880 -1.9024 -0.4742
  579SOL     OW 1735   1.626   0.943   2.462  0.2613 -0.6814 -0.1863
  579SOL    HW1 1736   1.633   0.984   2.367 -0.7548  1.0459 -1.0400
  579SOL    HW2 1737   1.629   1.025   2.526  0.2150 -1.4034  1.2197
  580SOL     OW 1738   1.382   1.152   1.923 -0.0444 -0.2957  0.6498
  580SOL    HW1 1739   1.400   1.224   1.855 -0.4427 -1.8429  2.3684
  580SOL    HW2 1740   1.297   1.173   1.976  0.2231  1.8749 -0.7422
  581SOL     OW 1741   0.366   0.774   1.009 -0.2145 -0.2966 -0.2959
  581SOL    HW1 1742   0.299   0.853   1.021 -2.0299 -2.5804 -2.8253
  581SOL    HW2 1743   0.339   0.722   0.923  2.3560 -2.7334 -2.1912
  582SOL     OW 1744   2.710   0.572   1.934 -0.4048  0.0914  0.8170
  582SOL    HW1 1745   2.611   0.572   1.926 -0.1047 -0.8496 -1.7000
  582SOL    HW2 1746   2.741   0.493   1.994 -1.0968 -1.8451 -0.2950
  583SOL     OW 1747   0.115   0.376   2.595  0.2241  0.7411  0.1525
  583SOL    HW1 1748   0.029   0.408   2.643 -1.3219 -1.0073  0.8702
  583SOL    HW2 1749   0.118   0.278   2.568 -1.4664  0.2099  0.9331
  584SOL     OW 1750   2.090   2.433   0.031  0.3070  0.5834  0.1624
  584SOL    HW1 1751   2.137   2.368   3.082 -3.6179 -0.6929  1.4690
  584SOL    HW2 1752   1.992   2.424   0.016  1.0286  2.2427  0.1986
  585SOL     OW 1753   0.160   2.421   0.054 -0.1618  0.5913  0.3668
  585SOL    HW1 1754   0.200   2.330   0.029 -0.2987  0.2200 -1.3880
  585SOL    HW2 1755   0.194   2.445   0.146  0.2823 -1.1005 -1.7071
  586SOL     OW 1756   1.825   1.931   2.202  1.2441 -0.2629  0.0057
  586SOL    HW1 1757   1.805   1.908   2.108  1.1389  1.4791 -1.9307
  586SOL    HW2 1758   1.925   1.961   2.204 -0.9909 -0.6625 -0.2597
  587SOL     OW 1759   2.351   1.647   2.853 -0.0707  0.2085  0.0727
  587SOL    HW1 1760   2.382   1.649   2.752 -1.4735 -0.4329  1.5245
  587SOL    HW2 1761   2.287   1.568   2.867 -1.1149 -1.6101  1.0068
  588SOL     OW 1762   3.055   0.417   1.292 -0.2807  0.0259  0.0797
  588SOL    HW1 1763   0.012   0.441   1.217  1.8527  0.1761 -2.9757
  588SOL    HW2 1764   3.100   0.383   1.376 -2.0998 -0.7956 -2.1436
  589SOL     OW 1765   0.916   0.405   0.521 -0.2445 -0.0554  0.3278
  589SOL    HW1 1766   0.922   0.505   0.507 -0.3924  0.8708 -0.1497
  589SOL    HW2 1767   0.822   0.384   0.561  3.6151 -0.8040  0.6720
  590SOL     OW 1768   2.433   2.028   0.652  0.1723 -0.4245  0.3840
  590SOL    HW1 1769   2.400   2.124   0.644  0.7666 -0.8231  0.9155
  590SOL    HW2 1770   2.443   1.979   0.563 -2.5776 -0.5537  2.6049
  591SOL     OW 1771   0.652   2.578   0.930  0.5869 -0.7637 -0.2097
  591SOL    HW1 1772   0.702   2.493   0.924 -2.5924 -0.8820  0.9039
  591SOL    HW2 1773   0.715   2.652   0.949  0.0833 -2.1080  1.6454
  592SOL     OW 1774   1.229   1.036   1.093 -0.1328 -0.0868  0.7355
  592SOL    HW1 1775   1.324   1.003   1.112 -2.0545 -1.2739  0.3168
  592SOL    HW2 1776   1.156   0.960   1.085 -1.3991  3.3394 -1.2764
  593SOL     OW 1777   1.077   2.465   1.630  0.7047  0.0422 -0.4048
  593SOL    HW1 1778   1.154   2.492   1.687  0.3503  1.8223 -0.9006
  593SOL    HW2 1779   1.093   2.385   1.579 -1.6300  2.5980 -0.9703
  594SOL     OW 1780   0.910   1.507   0.014 -0.1910  0.4222 -0.3602
  594SOL    HW1 1781   0.978   1.438   0.050  2.1503 -1.5458 -0.4235
  594SOL    HW2 1782   0.948   1.600   0.021 -0.7689  0.6347 -0.0135
  595SOL     OW 1783   1.589   1.140   1.620 -0.5650  0.1313  0.2158
  595SOL    HW1 1784   1.661   1.160   1.694  1.4047  0.5960  2.3280
  595SOL    HW2 1785   1.514   1.210   1.624  2.2094  2.3052  3.3005
  596SOL     OW 1786   2.880   1.168   2.233  0.1704  0.2684 -0.0252
  596SOL    HW1 1787   2.938   1.174   2.316 -0.7528 -2.8830 -2.4424
  596SOL    HW2 1788   2.933   1.128   2.155  0.0633  1.5014  0.3152
  597SOL     OW 1789   1.530   2.592   1.929 -0.3966  0.0020 -0.4834
  597SOL    HW1 1790   1.429   2.607   1.920 -0.2896 -0.6480  0.3475
  597SOL    HW2 1791   1.558   2.599   2.029 -1.1153  2.1102  5.1131
  598SOL     OW 1792   2.321   1.298   1.540  0.3159 -0.2899 -0.3256
  598SOL    HW1 1793   2.373   1.303   1.453  0.1595 -0.6003  0.8862
  598SOL    HW2 1794   2.240   1.351   1.521  1.7538 -0.6357 -1.0642
  599SOL     OW 1795   0.792   2.450   2.959 -0.6849  0.2148  0.4124
  599SOL    HW1 1796   0.883   2.487   2.974  0.6629  1.0594 -1.2682
  599SOL    HW2 1797   0.740   2.432   3.047 -2.3362 -2.6217  0.2651
  600SOL     OW 1798   2.944   2.119   0.296 -0.0243  0.2274  0.2092
  600SOL    HW1 1799   2.902   2.025   0.278 -0.5844 -1.8441  0.7558
  600SOL    HW2 1800   3.043   2.117   0.311 -0.4201 -2.0201  1.1006
  601SOL     OW 1801   0.660   0.919   1.517 -0.3208 -0.4426  0.4461
  601SOL    HW1 1802   0.749   0.891   1.549 -0.3156  1.0646  0.0155
  601SOL    HW2 1803   0.586   0.937   1.583  2.3417 -0.4471 -1.2490
  602SOL     OW 1804   0.573   0.063   1.215  0.4817  0.5630  0.0793
  602SOL    HW1 1805   0.574   0.088   1.312  0.6697 -2.8353  0.2677
  602SOL    HW2 1806   0.581   0.142   1.152 -0.5005 -2.0673  3.4663
  603SOL     OW 1807   0.510   3.018   2.829 -0.0975  0.3991 -0.3905
  603SOL    HW1 1808   0.441   3.089   2.850  0.4803  0.4577  1.2142
  603SOL    HW2 1809   0.530   3.014   2.726  1.7130 -2.9153  0.8214
  604SOL     OW 1810   1.272   2.780   1.453  0.3541 -0.3681  0.4456
  604SOL    HW1 1811   1.297   2.717   1.383  0.1233  3.6988  3.4819
  604SOL    HW2 1812   1.183   2.746   1.487 -0.5685 -0.3173  0.6278
  605SOL     OW 1813   1.599   1.361   1.940 -0.7013 -0.2815 -0.4646
  605SOL    HW1 1814   1.671   1.354   1.865 -1.5940  1.7272 -0.2541
  605SOL    HW2 1815   1.592   1.282   1.999 -0.1114  2.2991 -0.6124
  606SOL     OW 1816   2.259   2.823   3.015 -0.8390  0.1512 -0.4473
  606SOL    HW1 1817   2.278   2.919   3.047 -0.1747  0.5560  1.5452
  606SOL    HW2 1818   2.317   2.798   2.933  0.6678 -0.4067 -0.3865
  607SOL     OW 1819   0.763   0.097   1.978  0.1853 -0.7459 -0.4291
  607SOL    HW1 1820   0.826   0.149   2.041  0.9408  0.2332  0.8810
  607SOL    HW2 1821   0.799   0.102   1.886 -2.6284 -0.1154  3.0824
  608SOL     OW 1822   0.064   2.284   1.930 -0.3258 -0.0016  0.0054
  608SOL    HW1 1823   0.056   2.210   1.997 -1.3821 -0.1322  0.9060
  608SOL    HW2 1824   0.134   2.261   1.860  0.6884  2.7446  2.9772
  609SOL     OW 1825   1.173   1.081   0.225  0.4056  0.5280  0.2133
  609SOL    HW1 1826   1.151   1.058   0.320  1.5489 -0.7943 -1.2744
  609SOL    HW2 1827   1.123   1.015   0.164  1.1120 -0.0774 -1.3668
  610SOL     OW 1828   0.367   2.906   1.005 -0.0052 -0.2651 -0.3444
  610SOL    HW1 1829   0.426   2.961   0.942 -0.0134 -1.7430 -0.6523
  610SOL    HW2 1830   0.330   2.957   1.086  1.3393 -0.5892  0.6317
  611SOL     OW 1831   1.078   1.590   0.563  0.4575 -0.6097  0.3482
  611SOL    HW1 1832   1.004   1.521   0.537 -0.1800 -2.5846 -0.2193
  611SOL    HW2 1833   1.121   1.621   0.476 -0.3561  3.0569 -2.6134
  612SOL     OW 1834   2.080   1.904   0.425  0.3987 -0.8257 -0.5693
  612SOL    HW1 1835   2.110   1.810   0.398 -1.1253 -0.3657  0.9263
  612SOL    HW2 1836   2.100   1.922   0.526  1.5868  1.3772  0.9703
  613SOL     OW 1837   1.624   1.661   0.497  0.7450 -0.5069 -0.1738
  613SOL    HW1 1838   1.646   1.752   0.458  1.7246  0.4769 -0.8647
  613SOL    HW2 1839   1.533   1.635   0.458  0.7343  4.0828  4.2473
  614SOL     OW 1840   2.693   0.606   2.686  0.0326 -0.6656 -0.3432
  614SOL    HW1 1841   2.636   0.595   2.603  1.4988  0.7372  2.4421
  614SOL    HW2 1842   2.791   0.616   2.668 -2.9087 -1.2557  0.6159
  615SOL     OW 1843   0.641   1.709   0.568 -0.2438  0.6430 -0.2981
  615SOL    HW1 1844   0.676   1.799   0.529  1.1630 -0.3909  2.5006
  615SOL    HW2 1845   0.545   1.692   0.549 -0.1090 -3.9601  1.3454
  616SOL     OW 1846   1.324   0.884   2.665 -0.4273  0.4883 -0.5398
  616SOL    HW1 1847   1.419   0.915   2.676 -1.1989  0.0835 -1.6872
  616SOL    HW2 1848   1.313   0.783   2.647 -1.8251  1.0603  0.2141
  617SOL     OW 1849   1.701   0.556   0.589  0.1289 -0.0730  0.2627
  617SOL    HW1 1850   1.714   0.657   0.578 -1.4745  0.2433 -0.8117
  617SOL    HW2 1851   1.612   0.526   0.544 -2.5939 -1.1245  1.8892
  618SOL     OW 1852   2.942   1.969   2.319 -0.4354 -0.3817 -0.5523
  618SOL    HW1 1853   3.033   1.924   2.319 -0.0179  0.5346 -0.9419
  618SOL    HW2 1854   2.869   1.901   2.322 -1.2832 -1.6748  3.8953
  619SOL     OW 1855   2.534   1.634   0.760  0.1355  0.4685 -0.0082
  619SOL    HW1 1856   2.520   1.633   0.864  0.2052 -0.6115  2.1481
  619SOL    HW2 1857   2.585   1.714   0.732 -0.5151 -1.9814  1.1266
  620SOL     OW 1858   2.316   3.069   1.137  0.2236 -0.0325  0.4658
  620SOL    HW1 1859   2.302   0.000   1.226  0.1588 -2.1773 -3.6824
  620SOL    HW2 1860   2.274   2.977   1.127 -0.2434 -1.2279 -0.8995
  621SOL     OW 1861   0.040   2.030   0.648  0.3413 -0.6804  0.0482
  621SOL    HW1 1862   3.059   2.013   0.685  0.1618 -0.1446  1.2298
  621SOL    HW2 1863   0.103   2.069   0.716  0.9255  0.6213 -1.1563
  622SOL     OW 1864   0.619   1.823   1.881 -0.2223  0.1772 -0.0215
  622SOL    HW1 1865   0.577   1.881   1.811  1.3391 -3.1220 -0.6895
  622SOL    HW2 1866   0.701   1.868   1.920 -1.0492 -1.6502 -0.5730
  623SOL     OW 1867   2.374   2.909   2.169  0.0471  0.5289  0.0267
  623SOL    HW1 1868   2.300   2.944   2.227  1.8121 -3.0738 -3.5146
  623SOL    HW2 1869   2.465   2.949   2.201  0.5375  1.6178 -0.6433
  624SOL     OW 1870   0.876   1.990   0.467 -0.0187  0.2490  0.1675
  624SOL    HW1 1871   0.865   1.927   0.390 -2.9405 -0.3925  1.5374
  624SOL    HW2 1872   0.881   2.082   0.435  0.1849 -2.7978  0.8827
  625SOL     OW 1873   0.928   1.901   2.189 -0.2446 -0.2344  0.0115
  625SOL    HW1 1874   0.948   1.824   2.123 -0.2906 -3.8057 -1.9638
  625SOL    HW2 1875   0.968   1.869   2.276  0.3411  0.2159  0.5888
  626SOL     OW 1876   0.164   2.381   0.468  0.2402  0.2419  0.4963
  626SOL    HW1 1877   0.244   2.364   0.527  0.0849  0.4036 -1.0463
  626SOL    HW2 1878   0.139   2.289   0.426 -1.9001 -0.4917  1.1859
  627SOL     OW 1879   1.329   1.644   2.443 -0.0555 -0.2008 -0.4416
  627SOL    HW1 1880   1.374   1.556   2.430  2.4125 -2.8906  0.5034
  627SOL    HW2 1881   1.239   1.630   2.493 -1.1783 -1.3787  1.8206
  628SOL     OW 1882   1.421   1.921   0.404  0.1074  0.3080 -0.6196
  628SOL    HW1 1883   1.370   1.876   0.482  0.6750 -1.4189 -0.5138
  628SOL    HW2 1884   1.518   1.901   0.399  0.6592  0.2965  1.9067
  629SOL     OW 1885   0.945   0.487   2.068 -0.2212  0.2266  0.1596
  629SOL    HW1 1886   0.873   0.538   2.121 -0.0293 -0.6884 -0.3633
  629SOL    HW2 1887   1.013   0.551   2.036 -1.0642 -0.7111 -1.9005
  630SOL     OW 1888   2.440   2.746   1.510 -0.1029  0.8506 -0.0548
  630SOL    HW1 1889   2.480   2.714   1.599  0.5806 -4.2422  2.7031
  630SOL    HW2 1890   2.441   2.664   1.445 -0.8362 -0.1836 -1.8675
  631SOL     OW 1891   1.548   0.930   0.780  0.4193  0.5305 -0.1972
  631SOL    HW1 1892   1.448   0.908   0.794 -0.4023 -1.6964  0.5738
  631SOL    HW2 1893   1.607   0.880   0.849  2.6812  0.5700 -2.0744
  632SOL     OW 1894   2.205   0.473   2.183 -0.2305  0.1908  1.1666
  632SOL    HW1 1895   2.266   0.445   2.259  1.8301  0.9004 -0.3685
  632SOL    HW2 1896   2.184   0.575   2.180  0.7082 -1.1614  0.0615
  633SOL     OW 1897   1.607   1.108   3.007  0.2153 -0.1522  0.1054
  633SOL    HW1 1898   1.542   1.034   3.035 -0.6674  0.0001  1.8466
  633SOL    HW2 1899   1.637   1.103   2.910  0.8392 -0.1866 -0.2202
  634SOL     OW 1900   0.329   1.982   0.196 -0.2116 -0.3906 -0.2665
  634SOL    HW1 1901   0.417   2.008   0.244  0.4878 -2.0027 -0.6728
  634SOL    HW2 1902   0.314   2.039   0.113  0.7858 -0.1698 -0.5271
  635SOL     OW 1903   2.858   1.645   2.072 -0.5222 -0.1041 -0.1652
  635SOL    HW1 1904   2.946   1.601   2.091 -1.4054 -0.7404 -0.0084
  635SOL    HW2 1905   2.800   1.590   2.005 -0.4508 -1.5449 -1.1396
  636SOL     OW 1906   0.438   1.782   2.808  0.4327 -0.3952  0.7837
  636SOL    HW1 1907   0.397   1.713   2.743  0.2049 -2.1326 -0.9162
  636SOL    HW2 1908   0.393   1.871   2.792 -0.7644 -0.6357 -0.1750
  637SOL     OW 1909   0.118   2.102   0.386  0.0586 -0.3385 -0.1535
  637SOL    HW1 1910   0.194   2.055   0.340  0.1338 -1.5535  0.5420
  637SOL    HW2 1911   0.108   2.060   0.481 -0.8791  1.0816 -0.9974
  638SOL     OW 1912   2.316   2.484   0.470  0.8643 -0.2462 -0.1226
  638SOL    HW1 1913   2.318   2.584   0.497  0.5327 -0.0678 -0.0966
  638SOL    HW2 1914   2.300   2.467   0.375 -1.3218 -3.7119  3.5698
  639SOL     OW 1915   0.771   0.661   0.349 -0.1671 -0.0710  0.2731
  639SOL    HW1 1916   0.836   0.645   0.271  0.7941  0.6786 -1.7425
  639SOL    HW2 1917   0.823   0.672   0.435 -0.8738  0.8795  0.2432
  640SOL     OW 1918   2.370   2.344   1.774 -0.0172 -0.3871  0.5879
  640SOL    HW1 1919   2.444   2.316   1.835 -1.3438  0.2093 -1.3593
  640SOL    HW2 1920   2.367   2.285   1.697  1.7432  2.3249  1.9949
  641SOL     OW 1921   2.504   2.768   1.206  0.3444  0.1139 -0.3106
  641SOL    HW1 1922   2.407   2.733   1.207  0.3061 -1.5899  0.8416
  641SOL    HW2 1923   2.516   2.848   1.270 -1.5011  1.3660 -2.5039
  642SOL     OW 1924   0.994   1.040   1.572 -0.2214  0.0308 -0.4240
  642SOL    HW1 1925   0.992   0.972   1.649 -0.9686 -2.4241 -0.5132
  642SOL    HW2 1926   1.065   1.011   1.500  1.2266 -4.6519 -0.5699
  643SOL     OW 1927   0.942   1.383   2.004  0.2970  0.0754  0.0505
  643SOL    HW1 1928   0.871   1.332   2.057 -0.4664 -0.5636 -0.4354
  643SOL    HW2 1929   0.921   1.372   1.902 -3.3275 -2.2435 -1.4389
  644SOL     OW 1930   0.906   0.168   2.201 -0.0139 -0.0585 -0.2434
  644SOL    HW1 1931   0.961   0.247   2.234 -0.3193  0.3757 -0.4337
  644SOL    HW2 1932   0.934   0.085   2.252  0.7983  2.6603  0.0149
  645SOL     OW 1933   2.021   1.133   1.427  0.0191 -0.2350 -0.2425
  645SOL    HW1 1934   1.920   1.141   1.403 -3.2606 -2.8397 -0.4216
  645SOL    HW2 1935   2.044   1.215   1.484 -1.4360  1.2284 -0.7253
  646SOL     OW 1936   1.825   2.417   3.096  0.4384  0.6396 -0.0518
  646SOL    HW1 1937   1.805   2.430   2.996  1.4574  0.7382  0.2611
  646SOL    HW2 1938   1.801   2.323   0.016 -0.8919  0.2897 -0.1147
  647SOL     OW 1939   1.682   2.727   0.575  0.3263  0.3937  0.6106
  647SOL    HW1 1940   1.780   2.718   0.600 -2.9098 -0.5494  0.5121
  647SOL    HW2 1941   1.647   2.642   0.530 -1.5052  3.0401  0.7663
  648SOL     OW 1942   0.290   2.600   1.430  0.4422 -0.0055 -0.6895
  648SOL    HW1 1943   0.288   2.701   1.440 -0.2011 -1.1643  1.3216
  648SOL    HW2 1944   0.274   2.586   1.331  0.4528 -0.6442  0.8244
  649SOL     OW 1945   1.136   2.462   3.023 -0.4152  0.0718  0.0412
  649SOL    HW1 1946   1.182   2.382   2.975  0.9190 -0.0729  1.3040
  649SOL    HW2 1947   1.091   2.433   0.000 -2.4587  1.8634  1.5604
  650SOL     OW 1948   2.704   1.624   2.996  0.5845  0.0838  0.5959
  650SOL    HW1 1949   2.645   1.551   2.954  2.4284  1.0362 -0.8994
  650SOL    HW2 1950   2.724   1.602   3.091  1.2846  0.1546 -2.2522
  651SOL     OW 1951   2.334   2.273   2.285  0.1887 -0.2719  0.4486
  651SOL    HW1 1952   2.422   2.321   2.300 -0.6749 -1.3245 -0.5754
  651SOL    HW2 1953   2.351   2.172   2.301 -1.3549 -1.2094 -1.6317
  652SOL     OW 1954   2.622   2.434   0.523 -0.1115  0.8683  0.0666
  652SOL    HW1 1955   2.519   2.440   0.508 -1.1787  1.4732 -0.9960
  652SOL    HW2 1956   2.674   2.380   0.449  0.4817 -2.3725 -1.1569
  653SOL     OW 1957   2.580   1.742   1.265  0.7139 -0.1332 -0.6326
  653SOL    HW1 1958   2.644   1.821   1.242 -0.7277  1.2929 -1.1030
  653SOL    HW2 1959   2.623   1.677   1.331 -0.0517  5.9348  1.0781
  654SOL     OW 1960   0.821   1.006   0.283  0.2506 -0.0408  0.3325
  654SOL    HW1 1961   0.869   1.019   0.372  0.3514 -0.9197  0.0301
  654SOL    HW2 1962   0.880   0.964   0.216 -1.3665  0.9166 -0.5232
  655SOL     OW 1963   1.327   1.311   0.780 -0.1150 -0.0922 -0.4063
  655SOL    HW1 1964   1.411   1.276   0.829  2.6481  0.0200  0.5326
  655SOL    HW2 1965   1.334   1.413   0.760  1.2615  3.8304 -1.1207
  656SOL     OW 1966   1.543   2.699   2.208 -0.0715 -0.1461 -0.1659
  656SOL    HW1 1967   1.498   2.750   2.282 -3.9517  1.9782  0.7924
  656SOL    HW2 1968   1.590   2.614   2.247  0.6557  2.6270 -1.1071
  657SOL     OW 1969   1.931   1.530   0.520 -0.6423 -0.5527  0.1532
  657SOL    HW1 1970   1.967   1.433   0.531  2.7785 -0.7230  1.7252
  657SOL    HW2 1971   1.861   1.539   0.447  1.0565 -0.5839 -0.9027
  658SOL     OW 1972   1.963   3.109   1.754  0.3044  0.8578 -0.5269
  658SOL    HW1 1973   1.969   3.027   1.821  2.5169  0.1196  2.6000
  658SOL    HW2 1974   1.989   3.084   1.663  0.0530  1.1139  1.2739
  659SOL     OW 1975   2.778   1.659   0.154  0.7026  0.3926 -0.5111
  659SOL    HW1 1976   2.875   1.634   0.155 -2.7389  1.7770  1.1661
  659SOL    HW2 1977   2.740   1.651   0.251  1.2528  0.7751  1.3801
  660SOL     OW 1978   1.131   0.192   0.861  0.5469  0.3040  0.1090
  660SOL    HW1 1979   1.088   0.176   0.949 -0.4961  3.1066 -1.5972
  660SOL    HW2 1980   1.233   0.183   0.871  1.9744 -0.6851 -0.0911
  661SOL     OW 1981   1.726   0.519   0.065  0.4485 -0.2907 -0.2244
  661SOL    HW1 1982   1.771   0.463   0.137  0.7992  0.0406 -1.1284
  661SOL    HW2 1983   1.781   0.537   3.094  3.5149 -0.1527 -0.1317
  662SOL     OW 1984   0.412   0.020   0.411  0.8147 -0.7839 -0.0698
  662SOL    HW1 1985   0.364   0.015   0.500  1.6316 -2.7435  1.2593
  662SOL    HW2 1986   0.365   3.067   0.346 -0.1009 -1.3421  1.9180
  663SOL     OW 1987   1.459   2.617   2.753 -0.1993 -0.4801  0.1298
  663SOL    HW1 1988   1.369   2.636   2.709 -1.2945 -0.6125  1.1986
  663SOL    HW2 1989   1.496   2.524   2.732 -1.3655 -3.1065  1.2325
  664SOL     OW 1990   0.581   2.653   1.378 -0.2869 -0.4527 -0.1646
  664SOL    HW1 1991   0.495   2.632   1.428 -3.0781  0.3605  0.6637
  664SOL    HW2 1992   0.571   2.643   1.275 -1.7506  0.1983 -1.8521
  665SOL     OW 1993   1.643   2.814   1.053  0.6137 -0.2094  0.2965
  665SOL    HW1 1994   1.557   2.857   1.090  0.6742  1.5671 -0.1130
  665SOL    HW2 1995   1.713   2.887   1.053  0.1358 -1.2638  2.7991
  666SOL     OW 1996   0.799   2.280   2.731  0.2525 -0.1247 -0.2167
  666SOL    HW1 1997   0.777   2.377   2.715 -1.3704 -2.1125  0.7684
  666SOL    HW2 1998   0.808   2.272   2.833 -1.1879 -0.6957 -0.5213
  667SOL     OW 1999   2.920   0.646   1.488 -0.3175  0.0244 -0.1985
  667SOL    HW1 2000   2.835   0.627   1.545  0.1396 -1.7461 -1.8447
  667SOL    HW2 2001   2.999   0.596   1.531  0.7206  1.7427 -1.0636
  668SOL     OW 2002   1.096   0.382   1.713  0.4079  0.1609 -0.1792
  668SOL    HW1 2003   1.079   0.394   1.614 -1.1621 -0.5591 -0.3044
  668SOL    HW2 2004   1.032   0.310   1.751 -0.8223  0.0940 -1.0353
  669SOL     OW 2005   1.864   2.756   1.333  0.0291  0.3869  0.2141
  669SOL    HW1 2006   1.767   2.754   1.367 -1.5493  0.2231  1.8626
  669SOL    HW2 2007   1.887   2.839   1.281 -2.4013 -1.4421  0.2704
  670SOL     OW 2008   1.809   2.422   2.834 -0.0707  0.2370 -0.0821
  670SOL    HW1 2009   1.717   2.396   2.807  2.8963 -1.2266  0.9161
  670SOL    HW2 2010   1.833   2.502   2.781 -1.6811 -2.7479  1.0273
  671SOL     OW 2011   0.107   1.277   2.953 -0.4638 -0.0877 -0.4682
  671SOL    HW1 2012   0.034   1.333   2.917  3.5231  0.5684 -1.8005
  671SOL    HW2 2013   0.202   1.296   2.918 -2.2275  2.6259 -0.3181
  672SOL     OW 2014   2.602   0.534   2.920 -0.4370  0.1689 -0.4810
  672SOL    HW1 2015   2.539   0.591   2.977 -2.4015  0.4304 -0.9733
  672SOL    HW2 2016   2.639   0.585   2.838 -0.2106  2.3081  2.5686
  673SOL     OW 2017   3.109   1.968   1.270 -0.5543  0.4441 -0.3844
  673SOL    HW1 2018   3.029   1.931   1.316  0.2975 -1.0328  2.2706
  673SOL    HW2 2019   3.087   2.048   1.211 -0.2789  0.0197  0.0099
  674SOL     OW 2020   1.442   2.177   1.563  0.4434 -0.2641 -0.4560
  674SOL    HW1 2021   1.364   2.135   1.614 -0.3635 -0.0900  2.3999
  674SOL    HW2 2022   1.453   2.130   1.476  1.6854  0.3580  3.1634
  675SOL     OW 2023   1.272   1.443   1.192 -0.2661  0.1879 -0.1095
  675SOL    HW1 2024   1.204   1.516   1.200  0.7267 -1.5864 -1.8349
  675SOL    HW2 2025   1.240   1.371   1.126 -1.1524 -3.6083 -1.1215
  676SOL     OW 2026   2.449   0.762   0.924 -0.2276 -0.1583  0.2423
  676SOL    HW1 2027   2.372   0.825   0.941  1.4672 -0.3296  0.1843
  676SOL    HW2 2028   2.477   0.722   1.012 -1.5185 -0.5166 -1.1288
  677SOL     OW 2029   2.555   0.247   0.412  0.0848  0.2882  0.4580
  677SOL    HW1 2030   2.560   0.151   0.442 -0.2566  5.3389 -2.5139
  677SOL    HW2 2031   2.597   0.271   0.321 -1.0035  1.5897  1.3949
  678SOL     OW 2032   2.581   1.121   1.139  0.2321 -0.3744 -0.1705
  678SOL    HW1 2033   2.608   1.216   1.119 -1.6587  0.3597 -0.5576
  678SOL    HW2 2034   2.634   1.075   1.212 -0.5331 -1.6122  0.5148
  679SOL     OW 2035   2.678   0.373   0.157  0.1603 -0.3268 -0.4497
  679SOL    HW1 2036   2.622   0.455   0.139 -0.0092 -0.7492 -0.3711
  679SOL    HW2 2037   2.767   0.364   0.100  2.0387  0.0634 -3.8190
  680SOL     OW 2038   0.789   1.637   2.288 -0.5024  0.4136  0.2344
  680SOL    HW1 2039   0.700   1.615   2.241 -1.4817 -1.8825  0.4538
  680SOL    HW2 2040   0.874   1.621   2.229  1.0225 -3.0440 -0.5135
  681SOL     OW 2041   2.677   2.178   1.619  0.2446  0.4399  0.3281
  681SOL    HW1 2042   2.633   2.269   1.597 -0.2921  0.6914 -1.3375
  681SOL    HW2 2043   2.608   2.107   1.622  2.2755  0.3069  1.5670
  682SOL     OW 2044   0.651   1.826   2.625  0.2204  0.0537 -0.4728
  682SOL    HW1 2045   0.633   1.798   2.722  1.8416 -0.0259 -1.5837
  682SOL    HW2 2046   0.668   1.929   2.621 -0.9340  3.3569 -0.1862
  683SOL     OW 2047   2.705   1.999   1.238 -0.2649 -0.4158 -0.0594
  683SOL    HW1 2048   2.700   1.979   1.135 -1.7236 -0.6855 -3.0249
  683SOL    HW2 2049   2.711   2.095   1.260  0.6441 -0.9880 -1.1826
  684SOL     OW 2050   2.713   1.428   1.933  0.0831 -0.3661  0.3706
  684SOL    HW1 2051   2.713   1.384   2.024  2.3436  0.9137 -0.2364
  684SOL    HW2 2052   2.707   1.356   1.861 -0.4509 -1.3347 -3.5911
  685SOL     OW 2053   0.931   1.025   0.924 -0.0182  0.1947  0.2648
  685SOL    HW1 2054   0.945   1.105   0.858  1.3922  1.2358  2.0542
  685SOL    HW2 2055   0.916   1.062   1.018 -0.0508  1.7832  0.2927
  686SOL     OW 2056   0.915   2.978   2.790 -0.3732 -0.2250  0.1361
  686SOL    HW1 2057   0.896   2.908   2.858  2.2086  1.0155  0.1815
  686SOL    HW2 2058   0.862   3.060   2.821 -2.1668 -0.3174  0.4866
  687SOL     OW 2059   0.716   2.058   2.052 -0.2515  0.5446 -0.7414
  687SOL    HW1 2060   0.749   2.146   2.008  0.1484  1.1557 -1.4883
  687SOL    HW2 2061   0.796   2.005   2.092 -0.3501 -1.3863  2.7749
  688SOL     OW 2062   2.132   0.273   1.549  0.5816 -0.0680  0.0083
  688SOL    HW1 2063   2.029   0.265   1.525 -0.2812 -1.7237  0.8248
  688SOL    HW2 2064   2.158   0.374   1.557  1.5578  1.9167  1.7751
  689SOL     OW 2065   1.935   0.781   0.802 -0.3414 -0.2518  0.1152
  689SOL    HW1 2066   1.838   0.778   0.826 -0.1573  1.5087 -4.3834
  689SOL    HW2 2067   2.002   0.738   0.869  1.8757  0.8493  0.2616
  690SOL     OW 2068   2.984   0.872   1.366 -0.5706  0.1845  0.1038
  690SOL    HW1 2069   3.007   0.857   1.270 -0.7174  1.4812  0.6097
  690SOL    HW2 2070   2.961   0.789   1.423 -1.5039  1.6803  2.0418
  691SOL     OW 2071   0.150   1.048   2.142 -0.6039 -0.1611  0.2683
  691SOL    HW1 2072   0.097   1.116   2.090 -0.2314 -1.2059 -0.8955
  691SOL    HW2 2073   0.121   0.954   2.126 -1.0790  1.4426  0.2864
  692SOL     OW 2074   0.746   1.030   1.912  0.4881  0.3554  0.0333
  692SOL    HW1 2075   0.751   1.109   1.981 -0.0424  1.2996 -0.7783
  692SOL    HW2 2076   0.818   0.962   1.928 -1.8242  1.3342  0.4306
  693SOL     OW 2077   0.476   1.218   1.987  0.1949  0.1038 -0.3289
  693SOL    HW1 2078   0.422   1.147   1.933 -0.3045  0.0249 -0.1057
  693SOL    HW2 2079   0.415   1.256   2.058 -3.0383 -1.5962  0.5481
  694SOL     OW 2080   1.477   1.830   0.802 -0.9038  0.6363  0.5808
  694SOL    HW1 2081   1.529   1.746   0.779 -0.3120  0.8140  0.7742
  694SOL    HW2 2082   1.548   1.898   0.832 -2.0441 -0.9422 -2.6942
  695SOL     OW 2083   0.206   0.985   1.094 -0.2958 -0.5342  0.3373
  695SOL    HW1 2084   0.219   1.051   1.013  0.7701  2.0999 -1.1999
  695SOL    HW2 2085   0.109   0.954   1.113  0.0643  1.5879 -0.3767
  696SOL     OW 2086   0.784   2.523   0.632  0.2661 -0.4553  0.6412
  696SOL    HW1 2087   0.726   2.441   0.643 -1.3994 -0.9119  1.6414
  696SOL    HW2 2088   0.876   2.504   0.669  1.7731 -0.9258  1.0510
  697SOL     OW 2089   1.247   0.733   1.657  0.1699  0.0436 -0.1373
  697SOL    HW1 2090   1.309   0.791   1.602 -1.6830  1.4254 -0.6128
  697SOL    HW2 2091   1.174   0.700   1.593  0.3761  0.3647  1.1708
  698SOL     OW 2092   1.803   1.581   1.583 -0.0848  0.2783 -0.3538
  698SOL    HW1 2093   1.776   1.667   1.626 -0.5068 -0.9010  0.1767
  698SOL    HW2 2094   1.832   1.596   1.485  1.7050  0.3797 -2.3160
  699SOL     OW 2095   0.245   0.665   2.612  0.0697  0.1689 -0.3455
  699SOL    HW1 2096   0.162   0.619   2.586  1.6268  1.1067  2.0372
  699SOL    HW2 2097   0.248   0.684   2.712  1.1809 -0.8877  2.9875
  700SOL     OW 2098   1.594   2.444   0.477 -0.0038 -0.9139 -0.6042
  700SOL    HW1 2099   1.645   2.432   0.391 -1.8252 -1.2461 -1.9004
  700SOL    HW2 2100   1.503   2.408   0.459  2.0451  1.0351 -1.0690
  701SOL     OW 2101   0.039   1.601   2.443  0.0957 -0.4811  0.4600
  701SOL    HW1 2102   3.063   1.568   2.472  1.7865  2.3624  0.6269
  701SOL    HW2 2103   0.108   1.529   2.455  0.9919  0.5148 -0.0585
  702SOL     OW 2104   0.610   0.064   3.083 -0.6801  0.4357  0.2340
  702SOL    HW1 2105   0.684   0.077   3.010  0.5178  0.3910 -2.4480
  702SOL    HW2 2106   0.522   0.096   3.043 -0.5065 -0.7784  2.2414
  703SOL     OW 2107   1.494   0.543   2.879  0.4704 -0.3079 -0.0479
  703SOL    HW1 2108   1.566   0.474   2.876 -0.9498  0.4870 -1.3125
  703SOL    HW2 2109   1.461   0.541   2.784  0.2503 -2.6165  1.0606
  704SOL     OW 2110   2.964   1.533   0.862 -0.0099 -0.0778  0.0900
  704SOL    HW1 2111   2.882   1.565   0.914  4.7447 -1.3966  1.2873
  704SOL    HW2 2112   3.040   1.585   0.902 -3.3836 -0.8911  0.0135
  705SOL     OW 2113   2.516   1.968   1.925 -0.0673  0.3842  0.0595
  705SOL    HW1 2114   2.553   2.063   1.945  2.3612  1.2870  0.7590
  705SOL    HW2 2115   2.515   1.941   1.829 -0.0323  1.4098  0.7559
  706SOL     OW 2116   0.027   2.648   0.985  0.0771 -0.1138  0.0216
  706SOL    HW1 2117   0.118   2.672   0.944 -0.1597 -1.7782  0.4322
  706SOL    HW2 2118   3.077   2.613   0.916  0.3681  2.7054  2.6516
  707SOL     OW 2119   0.901   2.911   0.114 -0.2203 -0.5777 -0.3606
  707SOL    HW1 2120   0.925   2.864   0.203  0.3769 -0.7279 -1.6041
  707SOL    HW2 2121   0.927   3.009   0.114  0.6071  0.7502  0.8192
  708SOL     OW 2122   0.799   2.292   1.586 -0.3587 -0.2843  0.1553
  708SOL    HW1 2123   0.851   2.368   1.632 -1.1931  1.3804 -2.9001
  708SOL    HW2 2124   0.699   2.302   1.610  0.3562 -1.3135 -0.1575
  709SOL     OW 2125   1.932   0.362   2.560 -0.5538  0.2188  0.3995
  709SOL    HW1 2126   1.833   0.374   2.580 -1.7354  0.5611 -0.2235
  709SOL    HW2 2127   1.967   0.455   2.534 -0.1157  1.4913  0.0201
  710SOL     OW 2128   1.210   2.728   2.660  0.1182 -0.0445  0.1848
  710SOL    HW1 2129   1.191   2.825   2.638 -1.2994  1.8881 -0.5262
  710SOL    HW2 2130   1.167   2.704   2.749 -0.4774 -0.1089 -0.1253
  711SOL     OW 2131   1.073   2.292   2.607 -0.4326 -0.0391  0.0501
  711SOL    HW1 2132   1.075   2.383   2.564 -0.5874  1.6205 -0.0097
  711SOL    HW2 2133   0.981   2.258   2.622  1.3003  0.5106  0.4537
  712SOL     OW 2134   1.187   1.923   2.828 -0.0584  0.3002 -0.2369
  712SOL    HW1 2135   1.086   1.925   2.801 -0.1768 -2.2995 -2.5130
  712SOL    HW2 2136   1.200   1.847   2.892  2.2012  1.2753 -1.0464
  713SOL     OW 2137   0.958   0.823   1.924  0.7607  0.2326 -1.4193
  713SOL    HW1 2138   0.941   0.834   1.824  2.9722 -0.0246  0.9375
  713SOL    HW2 2139   1.032   0.754   1.936  4.3199  0.4765 -1.0081
  714SOL     OW 2140   1.608   2.047   0.903  0.2666 -0.1021 -0.3028
  714SOL    HW1 2141   1.703   2.084   0.914  1.1799 -1.6656 -3.1528
  714SOL    HW2 2142   1.584   1.989   0.982  0.3125  0.2597 -0.3028
  715SOL     OW 2143   0.052   0.515   0.692  0.6500  0.0405 -0.1401
  715SOL    HW1 2144   3.106   0.436   0.730 -0.2042  0.0780  0.3053
  715SOL    HW2 2145   0.058   0.519   0.590 -0.6308 -0.4610  1.6445
  716SOL     OW 2146   0.792   2.603   0.365  0.0294  0.1939  0.1802
  716SOL    HW1 2147   0.857   2.678   0.353 -0.8701  0.2975 -2.2268
  716SOL    HW2 2148   0.762   2.594   0.462 -0.1991  0.5975  0.3861
  717SOL     OW 2149   3.068   0.310   0.384 -0.2705  0.1651  0.2741
  717SOL    HW1 2150   3.005   0.245   0.342  0.7529  0.7999 -0.2748
  717SOL    HW2 2151   0.050   0.270   0.393  0.2665 -0.4610 -0.8384
  718SOL     OW 2152   1.737   2.364   1.141  0.1548  0.2035 -0.1880
  718SOL    HW1 2153   1.674   2.287   1.161 -0.3551 -0.9554  3.3578
  718SOL    HW2 2154   1.807   2.367   1.212 -2.3342  1.1465 -0.1385
  719SOL     OW 2155   2.867   2.340   1.035  0.0507  0.3447 -0.2099
  719SOL    HW1 2156   2.788   2.288   1.007  2.8288 -2.3167  1.7386
  719SOL    HW2 2157   2.911   2.396   0.962  0.8559  1.0344  0.7854
  720SOL     OW 2158   1.165   1.297   0.995 -0.1633 -0.0907 -0.0426
  720SOL    HW1 2159   1.215   1.319   0.909 -0.4935  0.9976  1.2982
  720SOL    HW2 2160   1.191   1.206   1.033  1.2377 -0.1927  0.1401
  721SOL     OW 2161   1.227   0.608   1.238 -0.0178  0.1850 -0.2074
  721SOL    HW1 2162   1.203   0.519   1.204  0.3033  0.4829  1.7711
  721SOL    HW2 2163   1.329   0.631   1.221  1.2113  3.1952  0.9733
  722SOL     OW 2164   1.209   1.009   1.396 -0.2270  0.5429  0.0228
  722SOL    HW1 2165   1.300   0.966   1.413 -0.1837 -0.1394  1.7087
  722SOL    HW2 2166   1.198   1.028   1.301  0.5981 -0.6928  2.8868
  723SOL     OW 2167   0.917   2.973   1.584  0.9932  0.1333  0.5102
  723SOL    HW1 2168   0.828   2.952   1.537 -0.5872  1.8006 -0.4023
  723SOL    HW2 2169   0.975   2.891   1.578 -0.3540  2.4922  0.5438
  724SOL     OW 2170   1.976   2.089   1.713  0.3653  0.4002  0.9637
  724SOL    HW1 2171   2.035   2.041   1.777  0.9661 -1.4735  2.2276
  724SOL    HW2 2172   1.914   2.016   1.670  1.7376 -3.4315 -1.9198
  725SOL     OW 2173   0.825   2.884   1.232  0.1475 -0.3608 -0.5267
  725SOL    HW1 2174   0.871   2.805   1.282  0.1827 -0.5217 -0.3607
  725SOL    HW2 2175   0.765   2.935   1.300  0.1738  1.6772 -1.4715
  726SOL     OW 2176   1.473   0.476   0.438  0.0013 -0.4573  0.3899
  726SOL    HW1 2177   1.392   0.435   0.479 -0.2095 -0.2149 -1.0541
  726SOL    HW2 2178   1.468   0.452   0.339 -1.7721  4.5501  1.1569
  727SOL     OW 2179   1.461   2.231   0.764 -0.2124 -0.1603 -0.2959
  727SOL    HW1 2180   1.511   2.321   0.752  0.2342  0.9184  1.6907
  727SOL    HW2 2181   1.518   2.163   0.816 -0.0874 -0.3424  1.1087
  728SOL     OW 2182   1.747   0.300   2.329  0.0045  0.1760 -0.5430
  728SOL    HW1 2183   1.734   0.205   2.371 -1.7443 -0.8892  0.5577
  728SOL    HW2 2184   1.829   0.306   2.266  1.9055 -1.1573 -1.3538
  729SOL     OW 2185   2.519   1.399   1.089 -0.6175  0.5635 -0.0868
  729SOL    HW1 2186   2.429   1.412   1.047  0.7695  0.4841 -0.5041
  729SOL    HW2 2187   2.594   1.446   1.036  1.0970  2.5112 -0.1326
  730SOL     OW 2188   1.996   0.769   2.709  0.6932 -0.1544 -0.4302
  730SOL    HW1 2189   2.018   0.868   2.691  0.3341 -1.4368 -1.4096
  730SOL    HW2 2190   1.900   0.754   2.728  1.9416  1.2684  1.7145
  731SOL     OW 2191   0.397   0.345   1.793  0.3295  0.2647  0.0442
  731SOL    HW1 2192   0.371   0.421   1.732  1.2926  0.1061  0.2920
  731SOL    HW2 2193   0.343   0.260   1.766  0.1819  1.7796  1.2418
  732SOL     OW 2194   1.758   0.368   1.240  0.1116  0.3133  0.4694
  732SOL    HW1 2195   1.773   0.430   1.319 -1.0675  1.1514  0.9443
  732SOL    HW2 2196   1.827   0.366   1.166 -2.3804  0.6532  0.4209
  733SOL     OW 2197   0.889   1.261   1.724 -0.1703  0.7375 -0.0686
  733SOL    HW1 2198   0.788   1.272   1.736 -0.1433 -2.2894 -1.2748
  733SOL    HW2 2199   0.915   1.160   1.706 -1.6849 -4.0163 -1.5084
  734SOL     OW 2200   2.471   1.552   0.343  0.8401 -0.0211  0.2999
  734SOL    HW1 2201   2.431   1.602   0.265  0.6393 -1.6266  3.9011
  734SOL    HW2 2202   2.554   1.602   0.379 -2.2327 -0.5880 -3.6130
  735SOL     OW 2203   0.556   0.863   0.323 -0.0773  0.5154 -0.0073
  735SOL    HW1 2204   0.649   0.894   0.305 -0.1575  0.0503 -2.1952
  735SOL    HW2 2205   0.545   0.765   0.302 -2.3685 -0.4500 -0.4822
  736SOL     OW 2206   1.794   2.823   3.047 -0.6841 -0.1452 -0.5224
  736SOL    HW1 2207   1.866   2.756   3.026  0.1749 -1.1836 -4.9329
  736SOL    HW2 2208   1.704   2.793   3.014  0.2657  0.0034  2.0326
  737SOL     OW 2209   1.242   2.198   1.001 -0.0031 -0.7043 -0.3618
  737SOL    HW1 2210   1.244   2.099   0.977  2.6894 -1.6415 -1.6415
  737SOL    HW2 2211   1.315   2.246   0.950 -0.7257 -0.2377 -0.8732
  738SOL     OW 2212   2.206   0.220   2.627  0.0327  0.3067 -0.4602
  738SOL    HW1 2213   2.224   0.307   2.685 -1.1860  0.7455 -1.2085
  738SOL    HW2 2214   2.110   0.228   2.590  1.1642  0.8255  1.4170
  739SOL     OW 2215   1.710   2.274   2.540  0.2166  0.3745 -0.1781
  739SOL    HW1 2216   1.692   2.194   2.475 -0.5561 -0.7250 -0.1997
  739SOL    HW2 2217   1.807   2.299   2.552  0.1834  1.0538  1.1262
  740SOL     OW 2218   1.818   2.228   1.905  0.0638 -0.0931 -0.2738
  740SOL    HW1 2219   1.780   2.299   1.840  2.4167 -1.1213  0.7128
  740SOL    HW2 2220   1.878   2.170   1.853  0.5984  1.9619 -0.4497
  741SOL     OW 2221   2.373   1.910   2.540  0.5576  0.0188  0.1846
  741SOL    HW1 2222   2.335   1.942   2.452 -3.9445 -1.3051  1.6303
  741SOL    HW2 2223   2.330   1.961   2.620 -4.3589 -0.4991  0.1397
  742SOL     OW 2224   1.158   1.441   2.802 -0.1728  0.5136 -0.2189
  742SOL    HW1 2225   1.181   1.352   2.850  2.4982 -0.3266 -1.6899
  742SOL    HW2 2226   1.167   1.430   2.700  0.8258 -0.7546 -1.0566
  743SOL     OW 2227   1.468   1.298   2.782  0.0592  0.0158 -0.0119
  743SOL    HW1 2228   1.413   1.262   2.855  2.2149 -0.9966  0.3649
  743SOL    HW2 2229   1.471   1.398   2.781 -1.1844  1.4648  3.0017
  744SOL     OW 2230   2.230   2.742   1.209  0.4093 -0.3400  0.5156
  744SOL    HW1 2231   2.203   2.755   1.305 -1.1342 -0.5685 -2.0539
  744SOL    HW2 2232   2.165   2.681   1.156  0.0060  0.3009 -0.7875
  745SOL     OW 2233   2.728   1.020   0.927 -1.0550 -0.0054  0.8278
  745SOL    HW1 2234   2.646   1.002   0.979  1.7701 -0.9135 -1.2874
  745SOL    HW2 2235   2.767   1.117   0.929  0.2059 -1.3351 -1.1961
  746SOL     OW 2236   2.477   1.719   1.011 -0.5236  0.1727 -0.2421
  746SOL    HW1 2237   2.520   1.700   1.105 -0.8301  1.0006  1.4359
  746SOL    HW2 2238   2.503   1.816   0.983  0.3760  3.2163 -0.7160
  747SOL     OW 2239   1.736   0.202   0.269 -0.3253  0.0854  0.7759
  747SOL    HW1 2240   1.738   0.257   0.350 -0.4061  1.0215 -0.0884
  747SOL    HW2 2241   1.822   0.145   0.266 -0.0384  0.5120 -0.0718
  748SOL     OW 2242   0.714   1.645   0.106 -0.0030 -0.6286  0.3826
  748SOL    HW1 2243   0.653   1.686   0.032 -1.6735  0.2284 -1.2612
  748SOL    HW2 2244   0.795   1.595   0.068  2.2181 -1.0946 -1.2854
  749SOL     OW 2245   2.979   0.464   2.224  0.0151  0.1888 -0.2348
  749SOL    HW1 2246   2.942   0.511   2.305  0.8501  1.0652 -0.8407
  749SOL    HW2 2247   3.081   0.459   2.229 -1.1607 -0.3901 -0.3393
  750SOL     OW 2248   1.126   0.622   1.906  0.2460 -0.0033  0.2717
  750SOL    HW1 2249   1.144   0.624   1.804 -1.1175  3.0497  1.5543
  750SOL    HW2 2250   1.197   0.563   1.952 -0.1346 -1.9268  0.0585
  751SOL     OW 2251   2.223   2.501   1.954 -0.2699  0.3735  0.2131
  751SOL    HW1 2252   2.258   2.438   1.884  0.1197  0.2675 -0.4333
  751SOL    HW2 2253   2.191   2.586   1.905 -2.6578 -0.1371 -0.6272
  752SOL     OW 2254   1.948   1.440   1.014  0.1614 -0.4161  0.0793
  752SOL    HW1 2255   2.013   1.464   1.086  0.1127 -2.4333 -1.1194
  752SOL    HW2 2256   1.972   1.474   0.921 -0.1754  3.0136  0.0793
  753SOL     OW 2257   1.059   0.945   2.130  0.0655  0.1354 -0.2137
  753SOL    HW1 2258   1.010   0.896   2.056  1.1290 -2.0971 -0.1411
  753SOL    HW2 2259   1.130   0.882   2.173  0.2774 -2.7570 -0.1073
  754SOL     OW 2260   0.424   2.533   0.791 -0.6514 -0.7644 -0.4263
  754SOL    HW1 2261   0.520   2.544   0.830  2.2224 -2.2683  1.2884
  754SOL    HW2 2262   0.360   2.611   0.798  1.7661 -1.0741 -1.3645
  755SOL     OW 2263   2.548   0.019   0.992  0.1477  0.8081 -0.0028
  755SOL    HW1 2264   2.598   3.044   0.995  1.7950 -1.3621  0.4473
  755SOL    HW2 2265   2.458   0.007   1.039 -0.6348 -2.1427 -0.7734
  756SOL     OW 2266   2.036   2.102   2.269 -0.2247 -0.5080 -0.0409
  756SOL    HW1 2267   2.005   2.148   2.355  0.8914  0.5802  0.7273
  756SOL    HW2 2268   2.039   2.167   2.190  1.0978  0.2592  1.3488
  757SOL     OW 2269   2.832   3.055   1.707  0.5424  0.7058  0.0254
  757SOL    HW1 2270   2.888   3.046   1.622 -0.4826 -0.1510 -1.2783
  757SOL    HW2 2271   2.891   3.085   1.785  0.0549 -1.8298 -0.1464
  758SOL     OW 2272   0.484   2.674   1.109  0.1972  0.3396  0.0057
  758SOL    HW1 2273   0.534   2.641   1.028  0.2129  2.1939  2.3055
  758SOL    HW2 2274   0.462   2.774   1.103 -1.5010  1.3842  1.8444
  759SOL     OW 2275   2.002   0.989   1.207 -0.1944  0.2782  0.0706
  759SOL    HW1 2276   1.966   1.063   1.148 -2.2968  0.5997 -1.2478
  759SOL    HW2 2277   2.041   1.026   1.293  0.0037 -0.1345  1.2110
  760SOL     OW 2278   1.363   0.422   1.643 -0.0081 -0.8739  0.0053
  760SOL    HW1 2279   1.273   0.394   1.688 -0.7874 -0.7159  0.3046
  760SOL    HW2 2280   1.357   0.524   1.624 -1.9773  3.6906 -2.9077
  761SOL     OW 2281   2.131   0.296   1.142 -0.1777 -0.1539  0.3647
  761SOL    HW1 2282   2.216   0.310   1.091 -0.5219 -0.3631  0.5143
  761SOL    HW2 2283   2.053   0.303   1.074  0.1777  0.5547  1.0834
  762SOL     OW 2284   1.509   0.054   0.481  0.3263 -0.2303  0.0512
  762SOL    HW1 2285   1.596   0.084   0.527 -3.8266 -3.2536 -0.8725
  762SOL    HW2 2286   1.517   0.038   0.381  0.7504 -0.2846  1.8302
  763SOL     OW 2287   0.813   0.560   1.422 -0.3889 -0.5450 -0.1073
  763SOL    HW1 2288   0.757   0.602   1.497 -0.7615 -0.9462  3.6842
  763SOL    HW2 2289   0.753   0.511   1.357  0.9650  1.0773 -1.2889
  764SOL     OW 2290   2.239   2.512   2.211 -0.4165  0.0669 -0.1438
  764SOL    HW1 2291   2.270   2.421   2.242 -1.2280  2.5320 -3.2374
  764SOL    HW2 2292   2.223   2.510   2.112  2.5074  2.2632  0.2948
  765SOL     OW 2293   3.051   1.218   2.447  0.1048  0.4573  0.4635
  765SOL    HW1 2294   3.058   1.161   2.532  1.7222  0.0282  1.1351
  765SOL    HW2 2295   3.012   1.312   2.464 -1.0111 -0.4193  0.0931
  766SOL     OW 2296   2.855   0.885   2.688  0.4939  0.1766 -0.0334
  766SOL    HW1 2297   2.893   0.795   2.667 -1.9416 -0.5020 -1.6209
  766SOL    HW2 2298   2.785   0.903   2.616 -1.4935  2.7400 -0.8339
  767SOL     OW 2299   0.444   2.291   1.938  0.1322 -0.0983  0.1948
  767SOL    HW1 2300   0.469   2.213   2.000  2.1719 -0.1152  0.8370
  767SOL    HW2 2301   0.372   2.267   1.871  2.6595 -1.7304 -1.2880
  768SOL     OW 2302   0.985   0.920   0.072  0.5226  0.8268  0.0852
  768SOL    HW1 2303   0.939   0.828   0.058  0.8786 -1.8294 -0.0446
  768SOL    HW2 2304   0.929   0.994   0.028 -0.9312  1.4281  1.7888
  769SOL     OW 2305   1.438   2.561   0.103 -0.3908  0.0128  0.2583
  769SOL    HW1 2306   1.343   2.541   0.136 -0.1969 -0.6141  2.2119
  769SOL    HW2 2307   1.501   2.525   0.173  2.4686 -0.7466 -0.2895
  770SOL     OW 2308   1.094   3.059   2.295  0.4973  0.5240 -0.3435
  770SOL    HW1 2309   1.193   3.089   2.293  0.2782 -1.1348 -1.4325
  770SOL    HW2 2310   1.082   2.963   2.268 -0.5112  1.0537  0.1898
  771SOL     OW 2311   0.830   2.776   0.720  0.0945 -0.6569  0.1776
  771SOL    HW1 2312   0.820   2.677   0.691 -1.5585  0.6411  3.6062
  771SOL    HW2 2313   0.826   2.792   0.821  1.9862  2.1364  1.9335
  772SOL     OW 2314   2.653   1.153   0.091  0.0821 -0.3063 -0.3400
  772SOL    HW1 2315   2.649   1.208   0.174  0.9298 -1.6487 -4.1964
  772SOL    HW2 2316   2.748   1.126   0.063  0.4391  0.4080 -0.9033
  773SOL     OW 2317   2.031   0.696   2.004 -0.2358  0.5622  0.1417
  773SOL    HW1 2318   2.086   0.730   2.080  1.8903 -0.8477 -2.1940
  773SOL    HW2 2319   2.011   0.773   1.938  1.7809  1.9147 -0.9339
  774SOL     OW 2320   0.632   0.306   0.524 -0.2043  0.8968  0.6316
  774SOL    HW1 2321   0.539   0.348   0.523  0.1090  1.3159 -1.4793
  774SOL    HW2 2322   0.641   0.225   0.461  0.2634 -2.9021  0.0431
  775SOL     OW 2323   1.557   0.300   0.713 -0.9362 -0.3299 -0.5649
  775SOL    HW1 2324   1.576   0.374   0.775  0.5264 -0.1681 -0.1359
  775SOL    HW2 2325   1.634   0.272   0.650  2.5539  1.8728 -2.8864
  776SOL     OW 2326   2.447   0.304   2.313  0.1395 -0.0719  0.3907
  776SOL    HW1 2327   2.516   0.303   2.238  2.3842 -2.8996 -0.5117
  776SOL    HW2 2328   2.428   0.209   2.340  1.6290  1.9645 -0.3491
  777SOL     OW 2329   1.382   1.539   0.435 -0.7792  0.2922  0.0767
  777SOL    HW1 2330   1.337   1.535   0.342  2.2160  0.9961 -0.5082
  777SOL    HW2 2331   1.411   1.445   0.472  1.8505 -0.5578  1.2632
  778SOL     OW 2332   0.245   2.539   0.275  0.1024  0.2817  0.0699
  778SOL    HW1 2333   0.222   2.485   0.360 -1.9732 -2.4743  1.4564
  778SOL    HW2 2334   0.179   2.609   0.251  3.0743  0.3904  0.9528
  779SOL     OW 2335   3.038   1.581   0.213  0.0837 -0.0519 -0.5205
  779SOL    HW1 2336   3.063   1.486   0.189 -0.4129 -2.3807  3.0589
  779SOL    HW2 2337   3.060   1.593   0.314  0.8345  1.0457 -0.9625
  780SOL     OW 2338   1.538   0.406   2.221 -0.6837 -0.1224  0.3109
  780SOL    HW1 2339   1.540   0.506   2.247 -0.1125  1.6186 -0.1223
  780SOL    HW2 2340   1.624   0.365   2.255 -0.3782 -0.2881 -0.7192
  781SOL     OW 2341   1.814   1.775   1.136  0.3873 -0.1847 -0.6361
  781SOL    HW1 2342   1.711   1.767   1.150 -3.2245  3.4299 -1.4077
  781SOL    HW2 2343   1.833   1.771   1.036  0.0245  1.6684  0.1009
  782SOL     OW 2344   2.013   2.321   2.074 -0.4911  0.2468  0.0582
  782SOL    HW1 2345   1.935   2.293   2.017  0.9994 -1.7630  2.3163
  782SOL    HW2 2346   2.103   2.319   2.028 -1.5264 -0.0359  3.9363
  783SOL     OW 2347   1.361   0.451   2.005 -0.1082  0.1482 -0.4840
  783SOL    HW1 2348   1.422   0.436   2.082 -0.9902  0.8627 -0.0698
  783SOL    HW2 2349   1.316   0.363   1.976  0.9394 -5.6827  0.4969
  784SOL     OW 2350   1.491   0.910   2.005  0.1233  0.1457 -0.0688
  784SOL    HW1 2351   1.455   0.976   1.939 -0.1978 -0.6881 -0.1828
  784SOL    HW2 2352   1.473   0.812   1.976  0.1308 -0.3206 -2.7344
  785SOL     OW 2353   1.968   0.617   0.573 -0.1566  0.0284 -0.2854
  785SOL    HW1 2354   1.945   0.703   0.623  3.3272  3.0499 -1.1605
  785SOL    HW2 2355   1.887   0.557   0.565  0.3276  3.2740  0.0354
  786SOL     OW 2356   3.081   1.293   0.774 -0.2534  0.0185 -0.3161
  786SOL    HW1 2357   2.999   1.241   0.734  1.4623 -2.5454  1.0220
  786SOL    HW2 2358   3.064   1.391   0.793 -1.2067 -3.0861 -1.8377
  787SOL     OW 2359   1.603   1.990   3.099 -0.0910  0.3226 -0.3958
  787SOL    HW1 2360   1.686   1.932   3.100 -0.4005  1.0885 -0.0403
  787SOL    HW2 2361   1.514   1.943   0.011 -1.4733 -0.6878  2.1625
  788SOL     OW 2362   2.312   1.096   1.225  0.2286  0.3902 -0.3541
  788SOL    HW1 2363   2.278   1.033   1.153 -0.5419  2.3746  0.0088
  788SOL    HW2 2364   2.412   1.119   1.208  1.3066  3.1376 -0.5893
  789SOL     OW 2365   2.746   1.750   2.323  0.0414 -0.5479  0.1671
  789SOL    HW1 2366   2.650   1.712   2.319 -0.3746 -0.1097 -0.3268
  789SOL    HW2 2367   2.801   1.716   2.242  0.2862  1.3840  1.0885
  790SOL     OW 2368   0.524   2.989   2.557  0.3860  0.2492  0.4595
  790SOL    HW1 2369   0.605   2.926   2.544  0.2910 -0.6845 -0.4051
  790SOL    HW2 2370   0.535   3.070   2.496 -0.3682 -1.1438 -1.1204
  791SOL     OW 2371   0.417   2.636   2.835  0.0572  0.0437 -0.3039
  791SOL    HW1 2372   0.385   2.708   2.768 -1.3391 -3.0281 -0.3128
  791SOL    HW2 2373   0.351   2.634   2.913  2.5865 -0.3146 -0.4096
  792SOL     OW 2374   1.275   0.243   2.306 -0.0557 -0.4024  0.7377
  792SOL    HW1 2375   1.344   0.317   2.288  1.4003 -0.1412  1.7990
  792SOL    HW2 2376   1.320   0.155   2.305  1.1120  1.6369  0.4473
  793SOL     OW 2377   2.631   0.054   2.385  0.1035 -0.0265  0.1229
  793SOL    HW1 2378   2.536   0.055   2.410  0.1360 -1.1961 -2.3647
  793SOL    HW2 2379   2.630   3.107   2.297 -0.9560  0.7582 -1.6534
  794SOL     OW 2380   0.542   0.351   2.023  0.0509 -0.0114  0.0866
  794SOL    HW1 2381   0.496   0.347   1.931 -0.4137 -1.8190 -1.5677
  794SOL    HW2 2382   0.575   0.258   2.051  1.5678 -0.2358 -0.7037
  795SOL     OW 2383   2.872   1.157   0.591 -0.0193  0.0301 -0.1140
  795SOL    HW1 2384   2.855   1.210   0.505 -1.7781 -4.0649  1.4175
  795SOL    HW2 2385   2.791   1.101   0.619  1.2459  0.4636  0.8114
  796SOL     OW 2386   2.616   2.288   2.214  0.7518  0.0670 -0.2331
  796SOL    HW1 2387   2.700   2.235   2.191  0.2437 -0.6224  1.0650
  796SOL    HW2 2388   2.644   2.383   2.235 -1.8287  1.0187 -1.6669
  797SOL     OW 2389   3.067   2.015   0.064  0.4218  0.6828  0.2008
  797SOL    HW1 2390   3.021   2.036   3.086  3.2345 -0.0470  0.4576
  797SOL    HW2 2391   3.005   2.044   0.141  0.6729  1.9846 -2.2154
  798SOL     OW 2392   0.308   0.760   1.936  0.3940  0.2175  0.4542
  798SOL    HW1 2393   0.342   0.759   2.032  1.5313 -3.0377 -0.3506
  798SOL    HW2 2394   0.208   0.762   1.925 -1.4491  1.7571 -0.0974
  799SOL     OW 2395   2.671   0.957   2.490 -0.2518 -0.2056 -0.4384
  799SOL    HW1 2396   2.574   0.936   2.524  0.3404 -1.4490 -0.2012
  799SOL    HW2 2397   2.674   0.968   2.388 -1.7316  0.9527 -0.3891
  800SOL     OW 2398   2.852   2.298   0.639  0.4834 -0.3277  0.3380
  800SOL    HW1 2399   2.934   2.354   0.658  0.7676  0.9108 -0.3942
  800SOL    HW2 2400   2.772   2.351   0.604  3.1954 -0.5734  1.7460
  801SOL     OW 2401   1.250   0.899   0.798  0.5489 -0.5091  0.6825
  801SOL    HW1 2402   1.211   0.873   0.887 -0.1890  0.0729 -0.9478
  801SOL    HW2 2403   1.268   1.000   0.797 -1.5708 -0.4359 -0.9633
  802SOL     OW 2404   1.837   2.173   0.935 -0.0967 -0.3516 -0.1049
  802SOL    HW1 2405   1.805   2.252   0.993 -1.2550 -0.9093 -0.5743
  802SOL    HW2 2406   1.936   2.170   0.925 -0.2334 -0.2239 -0.6599
  803SOL     OW 2407   0.049   1.578   0.451 -0.1801 -0.4153 -0.0415
  803SOL    HW1 2408   0.131   1.525   0.422  0.5204  0.6338 -0.2853
  803SOL    HW2 2409   0.085   1.642   0.521  2.8837  1.4972 -2.0864
  804SOL     OW 2410   1.375   2.328   0.384 -0.3630 -0.1264  0.8128
  804SOL    HW1 2411   1.322   2.266   0.444  0.4702  0.0489 -0.6523
  804SOL    HW2 2412   1.321   2.394   0.322 -0.9748 -0.7917 -2.9272
  805SOL     OW 2413   1.397   2.090   2.456 -0.1622 -0.0139  0.2545
  805SOL    HW1 2414   1.378   2.124   2.549  2.0254 -2.0036 -2.0724
  805SOL    HW2 2415   1.498   2.074   2.436  1.4825 -0.2483 -0.3658
  806SOL     OW 2416   1.815   0.019   1.392  0.3051  0.4617  0.0707
  806SOL    HW1 2417   1.899   3.074   1.414  0.7812  2.3628 -2.1065
  806SOL    HW2 2418   1.833   0.106   1.443 -0.1922 -2.9440 -1.8068
  807SOL     OW 2419   2.060   0.015   0.215 -0.0559 -0.0744 -0.3891
  807SOL    HW1 2420   1.995   3.049   0.191  1.3338  0.2749 -0.7872
  807SOL    HW2 2421   2.113   0.034   0.134 -1.3405 -0.9638 -0.0205
  808SOL     OW 2422   0.562   1.799   3.063 -0.6165  0.4323 -0.0320
  808SOL    HW1 2423   0.506   1.779   2.981 -0.5908  2.8371  0.1560
  808SOL    HW2 2424   0.507   1.793   0.038 -2.1592 -1.0014  0.6703
  809SOL     OW 2425   3.031   1.099   2.697 -0.1762 -0.2477 -0.5160
  809SOL    HW1 2426   0.002   1.046   2.729  1.3309 -0.4649 -0.3890
  809SOL    HW2 2427   2.945   1.042   2.701 -1.9518  1.5689 -0.9924
  810SOL     OW 2428   2.945   0.646   2.605 -0.0339  0.5169 -0.5676
  810SOL    HW1 2429   2.990   0.558   2.632  2.1522 -2.9672 -0.1738
  810SOL    HW2 2430   3.009   0.688   2.536  1.3932 -1.3895 -0.4767
  811SOL     OW 2431   2.080   2.186   1.470 -0.6466 -0.2708 -0.5929
  811SOL    HW1 2432   1.997   2.238   1.437  0.1439  1.7545  1.7521
  811SOL    HW2 2433   2.066   2.177   1.572 -1.6973  1.9658 -0.6166
  812SOL     OW 2434   1.173   0.508   0.349  0.0910 -0.0644 -0.0079
  812SOL    HW1 2435   1.215   0.581   0.405  0.7529 -2.4900  1.1553
  812SOL    HW2 2436   1.177   0.411   0.388 -0.5238 -1.9695  0.8447
  813SOL     OW 2437   1.769   0.585   2.057 -0.0435  0.1200  0.5842
  813SOL    HW1 2438   1.723   0.514   1.997  0.0967 -2.4977 -1.7381
  813SOL    HW2 2439   1.864   0.607   2.028 -2.1205 -1.8764 -0.1318
  814SOL     OW 2440   1.837   0.789   1.164 -0.0888  0.2276 -0.5037
  814SOL    HW1 2441   1.885   0.711   1.204 -4.1610  2.1114 -0.7597
  814SOL    HW2 2442   1.888   0.877   1.173 -2.1147 -1.6798  5.2142
  815SOL     OW 2443   0.647   1.080   0.633  0.2315 -0.1099  0.2994
  815SOL    HW1 2444   0.696   0.995   0.656  1.1031  0.7361  1.2991
  815SOL    HW2 2445   0.546   1.055   0.618 -1.6980 -3.1015 -0.8866
  816SOL     OW 2446   2.207   2.255   2.949  0.4450  0.3188 -0.2457
  816SOL    HW1 2447   2.115   2.257   2.906 -0.5640  1.4129  0.9955
  816SOL    HW2 2448   2.231   2.160   2.984  1.5332 -1.0795  1.2282
  817SOL     OW 2449   2.795   2.493   1.244  0.1260 -0.1083 -0.1983
  817SOL    HW1 2450   2.838   2.447   1.165  0.0431 -2.5723  1.2338
  817SOL    HW2 2451   2.816   2.592   1.245  0.9877  0.4841  1.1757
  818SOL     OW 2452   1.678   0.805   0.065 -0.4363 -0.5850 -0.4264
  818SOL    HW1 2453   1.673   0.709   0.093  1.2407  0.8473  1.5521
  818SOL    HW2 2454   1.630   0.817   3.089 -2.3342  0.8103 -1.1459
  819SOL     OW 2455   0.682   0.629   0.825 -0.3911 -0.4862 -0.7958
  819SOL    HW1 2456   0.617   0.691   0.874  0.6614  0.7041 -0.4499
  819SOL    HW2 2457   0.647   0.534   0.821 -1.3932 -0.8115 -1.1890
  820SOL     OW 2458   2.048   0.660   1.465 -0.3344 -0.6164  0.3458
  820SOL    HW1 2459   2.096   0.750   1.463 -0.1459  5.1337  1.5322
  820SOL    HW2 2460   2.014   0.633   1.555 -0.0937  0.5545 -1.5409
  821SOL     OW 2461   3.045   0.286   0.838  0.0252 -0.2299  0.0037
  821SOL    HW1 2462   2.986   0.348   0.892 -1.4241 -0.5178  0.8498
  821SOL    HW2 2463   3.037   0.189   0.866 -1.5793  1.1107  1.0291
  822SOL     OW 2464   0.727   2.341   2.397 -0.0435 -0.1706 -0.0841
  822SOL    HW1 2465   0.738   2.410   2.471 -1.9615  1.0640  2.7868
  822SOL    HW2 2466   0.634   2.334   2.361  1.5314 -0.6894 -0.4165
  823SOL     OW 2467   2.955   1.130   1.730  0.0211  0.4220 -0.2879
  823SOL    HW1 2468   3.004   1.053   1.687  1.7004  1.5428 -3.3928
  823SOL    HW2 2469   3.012   1.215   1.730 -2.0437  0.1942  1.6782
  824SOL     OW 2470   0.716   2.747   2.359  0.1528  0.1809 -0.0025
  824SOL    HW1 2471   0.714   2.775   2.462  1.0356  0.9286  3.9105
  824SOL    HW2 2472   0.791   2.677   2.340  0.8140 -0.8542  2.0923
  825SOL     OW 2473   1.503   1.566   2.807  0.3880  0.8761 -0.1517
  825SOL    HW1 2474   1.448   1.636   2.758  0.4587 -1.9923  0.6195
  825SOL    HW2 2475   1.581   1.604   2.863  0.3858  0.5586 -1.6245
  826SOL     OW 2476   1.226   2.218   2.997 -0.2779  0.2934 -0.1821
  826SOL    HW1 2477   1.292   2.219   3.079 -2.7850 -0.5073  2.8710
  826SOL    HW2 2478   1.273   2.185   2.909 -3.9782 -1.9753  1.3377
  827SOL     OW 2479   0.273   1.498   1.795 -0.0342 -0.0986 -0.4763
  827SOL    HW1 2480   0.234   1.591   1.777 -1.8878  1.5362  0.3407
  827SOL    HW2 2481   0.347   1.501   1.870 -0.2186  1.4269 -2.2672
  828SOL     OW 2482   0.174   1.551   1.429  0.4146  0.0860  0.1305
  828SOL    HW1 2483   0.220   1.629   1.387  0.7864 -1.7872  0.4322
  828SOL    HW2 2484   0.167   1.475   1.365 -2.4873 -0.7374 -1.7963
  829SOL     OW 2485   2.999   2.420   0.089  0.1568  0.2139 -0.7124
  829SOL    HW1 2486   3.101   2.429   0.073 -1.0893  0.0008 -1.0729
  829SOL    HW2 2487   2.959   2.377   0.009 -0.2119  1.3319  1.5107
  830SOL     OW 2488   1.208   0.773   0.545  0.3403 -0.6733 -0.6173
  830SOL    HW1 2489   1.296   0.788   0.491  1.1921  0.8671  0.9980
  830SOL    HW2 2490   1.218   0.813   0.641 -0.3014 -3.0000  0.3062
  831SOL     OW 2491   2.909   2.306   2.985 -0.0661  0.9615  0.3202
  831SOL    HW1 2492   2.929   2.208   2.963 -2.4364  0.0897 -0.3952
  831SOL    HW2 2493   2.834   2.337   2.922 -0.5326 -0.0766 -1.0913
  832SOL     OW 2494   1.712   2.458   0.236 -0.2806  0.1736  0.2130
  832SOL    HW1 2495   1.733   2.419   0.144  0.7466  0.7204 -2.9410
  832SOL    HW2 2496   1.728   2.562   0.230  1.3529  3.9220 -1.1070
  833SOL     OW 2497   0.555   1.464   2.441 -0.3398 -0.1411 -0.1850
  833SOL    HW1 2498   0.546   1.564   2.442  1.7116 -0.3985 -2.6406
  833SOL    HW2 2499   0.501   1.417   2.514  0.1351 -0.0261  0.1826
  834SOL     OW 2500   2.504   0.448   0.587  0.2918 -0.2653 -0.1997
  834SOL    HW1 2501   2.446   0.388   0.649 -1.8627 -0.7252  1.7497
  834SOL    HW2 2502   2.552   0.394   0.520 -0.1823  1.6507 -0.8498
  835SOL     OW 2503   2.170   0.807   2.206  0.4388 -0.3995 -0.0201
  835SOL    HW1 2504   2.269   0.828   2.215 -0.9368 -0.6610  2.3842
  835SOL    HW2 2505   2.107   0.862   2.265 -0.8831  2.2487  3.6409
  836SOL     OW 2506   0.966   2.069   0.873 -0.0975 -0.3151 -0.3910
  836SOL    HW1 2507   0.913   2.143   0.824 -1.4107 -0.6236 -1.0501
  836SOL    HW2 2508   1.033   2.026   0.812  1.1632 -0.1227 -0.3982
  837SOL     OW 2509   2.285   1.327   1.837  0.0766 -0.3106  0.5421
  837SOL    HW1 2510   2.317   1.328   1.742  2.5850 -2.0302 -0.8087
  837SOL    HW2 2511   2.292   1.417   1.883 -1.6448 -1.0432 -2.4762
  838SOL     OW 2512   0.170   1.264   2.318  0.0226  0.4121 -0.2510
  838SOL    HW1 2513   0.172   1.190   2.248 -1.1922  2.0485  0.6033
  838SOL    HW2 2514   0.078   1.264   2.361 -1.2466  0.1220 -0.4978
  839SOL     OW 2515   0.232   2.855   2.869 -0.4036  0.8059 -0.2452
  839SOL    HW1 2516   0.192   2.767   2.903 -2.8973 -1.3400 -2.0134
  839SOL    HW2 2517   0.202   2.940   2.917 -1.9007 -1.3419 -0.2931
  840SOL     OW 2518   2.996   1.377   2.790  0.3177 -0.1980  0.2069
  840SOL    HW1 2519   3.004   1.278   2.800  0.0208 -1.7618 -0.9155
  840SOL    HW2 2520   2.903   1.402   2.825  1.3836  2.6005 -0.1093
  841SOL     OW 2521   0.456   2.245   2.787  0.0466 -0.5859  0.2080
  841SOL    HW1 2522   0.394   2.325   2.765 -2.1069  2.3289 -1.9444
  841SOL    HW2 2523   0.547   2.272   2.760 -0.5183  0.5002  1.0708
  842SOL     OW 2524   0.838   0.122   0.968 -0.0455  0.1597  0.0743
  842SOL    HW1 2525   0.770   0.175   1.025 -2.9322 -1.0140  0.0572
  842SOL    HW2 2526   0.797   0.104   0.876 -0.6336  0.9735 -1.8991
  843SOL     OW 2527   3.097   1.545   2.144 -0.6400 -0.2320 -0.1644
  843SOL    HW1 2528   0.061   1.607   2.127 -0.9636 -1.5412  3.1037
  843SOL    HW2 2529   3.079   1.526   2.242  2.1905  0.0350  0.6763
  844SOL     OW 2530   1.640   2.074   2.340  0.0749 -0.5049  0.2337
  844SOL    HW1 2531   1.617   2.138   2.263 -1.6948 -1.5256 -0.0791
  844SOL    HW2 2532   1.695   1.999   2.299 -3.5098  0.5613 -0.8791
  845SOL     OW 2533   1.651   3.070   2.484  0.4731  0.2458 -0.3289
  845SOL    HW1 2534   1.562   0.004   2.497 -0.9059 -0.3843 -1.3517
  845SOL    HW2 2535   1.691   3.043   2.578  0.9542  0.0321  3.6120
  846SOL     OW 2536   2.350   1.707   0.149  0.6750  0.1872 -0.1742
  846SOL    HW1 2537   2.248   1.698   0.146 -2.9849 -0.3055  2.1171
  846SOL    HW2 2538   2.393   1.758   0.073  1.5257 -0.7939 -0.3710
  847SOL     OW 2539   2.364   0.084   2.819  0.0490  0.4959  0.4584
  847SOL    HW1 2540   2.294   0.114   2.755  0.5330 -1.3663  2.1253
  847SOL    HW2 2541   2.439   0.150   2.817 -1.4314 -0.2860  1.0666
  848SOL     OW 2542   2.142   0.558   0.372 -0.0112  0.4778 -0.5081
  848SOL    HW1 2543   2.083   0.570   0.452  2.9164 -0.2043  1.7521
  848SOL    HW2 2544   2.239   0.566   0.392  1.7901 -0.7801 -0.2586
  849SOL     OW 2545   1.160   2.936   3.039 -0.6174 -0.0119 -0.5669
  849SOL    HW1 2546   1.136   2.869   2.963  1.2091 -2.6685 -0.3674
  849SOL    HW2 2547   1.088   2.948   3.110  0.3064  1.2246 -1.8355
  850SOL     OW 2548   0.024   0.568   0.425  0.2194 -0.2123  0.4310
  850SOL    HW1 2549   3.109   0.467   0.412 -1.4294 -3.0266  1.3691
  850SOL    HW2 2550   3.060   0.639   0.427 -0.6543  3.8393 -0.7444
  851SOL     OW 2551   0.456   1.436   1.554  0.3104  0.1654  0.5411
  851SOL    HW1 2552   0.435   1.384   1.468 -0.3488  1.7247 -3.3397
  851SOL    HW2 2553   0.368   1.445   1.610 -1.9392 -2.1292  2.0428
  852SOL     OW 2554   1.250   0.766   2.248 -0.5571  0.3248 -0.0025
  852SOL    HW1 2555   1.347   0.727   2.237 -1.4187 -2.2543  0.1814
  852SOL    HW2 2556   1.191   0.703   2.306 -1.3790  0.4661 -0.8810
  853SOL     OW 2557   2.195   1.423   2.899  0.2875  0.0967 -0.2103
  853SOL    HW1 2558   2.210   1.330   2.946 -0.4711 -2.1368  0.5659
  853SOL    HW2 2559   2.123   1.415   2.827  2.7032 -0.0793 -0.1859
  854SOL     OW 2560   1.395   1.315   1.695  0.9054  0.2260  0.7923
  854SOL    HW1 2561   1.330   1.332   1.618  0.5342 -0.8451  0.8529
  854SOL    HW2 2562   1.406   1.391   1.758 -2.8377  0.5319  2.0335
  855SOL     OW 2563   0.253   2.229   1.731 -0.5904  0.3973 -0.1867
  855SOL    HW1 2564   0.235   2.254   1.634 -2.3022  0.4890 -1.2857
  855SOL    HW2 2565   0.253   2.128   1.740  0.3040  0.2730  2.8353
  856SOL     OW 2566   1.047   1.193   2.501 -0.5354  0.3055  0.2409
  856SOL    HW1 2567   1.107   1.118   2.468  0.0016 -2.0446 -2.3119
  856SOL    HW2 2568   1.055   1.275   2.435  1.4027  3.3488 -2.5883
  857SOL     OW 2569   0.970   0.996   2.694  0.0601  0.1930  0.6776
  857SOL    HW1 2570   0.996   1.073   2.634 -1.3017 -1.7146 -0.8122
  857SOL    HW2 2571   0.935   0.920   2.634 -4.3157 -1.0500 -1.7677
  858SOL     OW 2572   0.146   0.203   2.061 -0.5862 -0.6491 -0.0606
  858SOL    HW1 2573   0.159   0.175   1.967  0.0040 -0.3488  2.2217
  858SOL    HW2 2574   0.047   0.206   2.084  2.7697 -1.0498  0.5058
  859SOL     OW 2575   2.367   0.351   0.802 -0.4299 -0.1797 -0.1601
  859SOL    HW1 2576   2.281   0.395   0.770  2.3699 -0.7238  2.1489
  859SOL    HW2 2577   2.398   0.382   0.895 -0.4727  1.2005  0.0320
  860SOL     OW 2578   0.917   0.790   1.674  0.0349  0.0094 -0.1498
  860SOL    HW1 2579   0.846   0.730   1.711 -3.2701 -1.2546  0.7536
  860SOL    HW2 2580   0.962   0.761   1.586 -1.6425  0.3038 -0.3135
  861SOL     OW 2581   1.677   0.860   1.361 -0.0110  0.1982 -0.0740
  861SOL    HW1 2582   1.724   0.817   1.287 -1.5748  1.2553  0.9538
  861SOL    HW2 2583   1.736   0.939   1.396 -1.4382  1.4064  0.5874
  862SOL     OW 2584   0.741   3.002   2.297 -0.3634  0.3404  0.0643
  862SOL    HW1 2585   0.738   2.903   2.321 -1.8361 -2.8692 -2.5403
  862SOL    HW2 2586   0.686   3.021   2.211 -4.2109  1.1348  0.3799
  863SOL     OW 2587   2.835   0.225   1.265  0.5461 -0.5937  0.4669
  863SOL    HW1 2588   2.759   0.269   1.318  0.6925  0.7384 -0.6578
  863SOL    HW2 2589   2.911   0.290   1.258 -0.9535 -0.5869  0.8677
  864SOL     OW 2590   2.699   2.935   2.537 -0.2834  0.1591  0.1297
  864SOL    HW1 2591   2.737   2.865   2.470 -1.7226 -2.1499 -1.2988
  864SOL    HW2 2592   2.658   3.012   2.488 -2.2033 -1.8859 -1.6244
  865SOL     OW 2593   1.332   1.221   2.301 -0.0310  0.0861 -0.1778
  865SOL    HW1 2594   1.291   1.140   2.342  0.8606  0.4302  0.8311
  865SOL    HW2 2595   1.292   1.226   2.208 -0.4567 -0.5135 -1.3354
  866SOL     OW 2596   2.527   2.563   0.817  0.3936  0.3319  0.1600
  866SOL    HW1 2597   2.535   2.545   0.918  0.3074  0.1920  0.1447
  866SOL    HW2 2598   2.617   2.535   0.776  0.5413 -1.9118  0.0750
  867SOL     OW 2599   2.569   2.518   1.079 -0.7652  0.1779 -0.0087
  867SOL    HW1 2600   2.549   2.608   1.122  1.2962 -0.5216  2.3505
  867SOL    HW2 2601   2.621   2.448   1.134 -1.6952 -1.7210 -2.9990
  868SOL     OW 2602   2.886   1.388   1.475  0.3588  0.2956  0.5765
  868SOL    HW1 2603   2.819   1.312   1.484  2.2975 -0.0789  1.2814
  868SOL    HW2 2604   2.967   1.359   1.416  3.5239 -0.0264 -1.1084
  869SOL     OW 2605   2.071   1.682   2.096 -0.2733  0.1693 -0.3374
  869SOL    HW1 2606   2.160   1.712   2.136 -0.2727 -0.4917 -0.5375
  869SOL    HW2 2607   2.039   1.591   2.131 -0.2060  0.9878 -0.2502
  870SOL     OW 2608   1.551   1.188   0.862  0.6443 -0.0982  0.7506
  870SOL    HW1 2609   1.568   1.089   0.846 -1.5925 -1.5308 -0.2327
  870SOL    HW2 2610   1.600   1.243   0.789  0.5556  0.8710 -2.3268
  871SOL     OW 2611   2.286   1.579   1.926 -0.0853  0.1853  0.0412
  871SOL    HW1 2612   2.272   1.645   1.847 -0.7126 -1.0684 -0.1280
  871SOL    HW2 2613   2.215   1.592   1.995  1.9324 -2.4461 -1.9562
  872SOL     OW 2614   1.438   1.382   2.485  0.2031  0.3050 -0.1564
  872SOL    HW1 2615   1.442   1.353   2.584  1.1078  1.3208  0.4288
  872SOL    HW2 2616   1.373   1.323   2.428 -2.8980 -3.7170 -2.9998
  873SOL     OW 2617   1.261   1.455   1.465  0.2051 -0.3802 -0.0185
  873SOL    HW1 2618   1.245   1.427   1.367  2.2150  0.1023 -1.3265
  873SOL    HW2 2619   1.342   1.513   1.466 -0.9867  0.2821  0.6630
  874SOL     OW 2620   1.583   1.212   1.155 -0.4731 -0.2141  0.0417
  874SOL    HW1 2621   1.574   1.310   1.174 -0.1988  1.2308 -2.7125
  874SOL    HW2 2622   1.599   1.210   1.057  0.4832  0.2450  1.5811
  875SOL     OW 2623   2.809   0.250   2.453 -0.3689  0.1218  0.5526
  875SOL    HW1 2624   2.765   0.336   2.421 -0.2867 -0.7494 -0.9768
  875SOL    HW2 2625   2.749   0.171   2.430  2.5435 -0.7424 -1.8113
  876SOL     OW 2626   0.994   1.059   0.564  0.3615  0.1824 -0.3056
  876SOL    HW1 2627   0.982   0.970   0.617 -1.8807 -2.0565 -0.4447
  876SOL    HW2 2628   0.942   1.137   0.606 -3.7352  1.0395  0.8441
  877SOL     OW 2629   1.922   2.981   0.567  0.1463  0.2751  0.4313
  877SOL    HW1 2630   2.001   2.950   0.505  0.7909 -0.6234  0.8553
  877SOL    HW2 2631   1.912   2.910   0.635 -0.7484  1.5118 -0.3120
  878SOL     OW 2632   2.773   1.930   0.222  0.2060 -0.5578 -0.2445
  878SOL    HW1 2633   2.752   1.829   0.211  0.1722 -0.6428  0.8166
  878SOL    HW2 2634   2.704   1.984   0.165  1.7216  1.3848  1.7054
  879SOL     OW 2635   2.947   2.428   1.870 -0.0574  0.1634  0.0404
  879SOL    HW1 2636   2.890   2.345   1.888  1.1851  0.1625  0.6855
  879SOL    HW2 2637   3.047   2.401   1.877  2.6408  0.1664 -1.1760
  880SOL     OW 2638   0.323   1.715   0.803  0.1185 -0.1469 -0.3212
  880SOL    HW1 2639   0.318   1.745   0.704  0.2478 -0.2426 -2.7393
  880SOL    HW2 2640   0.401   1.765   0.848 -1.6258  0.6312  1.9644
  881SOL     OW 2641   1.335   0.402   2.663  0.6601  0.0178 -0.1727
  881SOL    HW1 2642   1.379   0.319   2.705  1.7931  0.9218  1.3011
  881SOL    HW2 2643   1.237   0.381   2.653  1.2766  0.5033  1.1930
  882SOL     OW 2644   2.618   0.972   0.672  0.1376  0.4456  0.5044
  882SOL    HW1 2645   2.654   1.009   0.763  1.5410  1.2742 -1.2117
  882SOL    HW2 2646   2.607   0.870   0.675 -0.8154  0.3272  0.8627
  883SOL     OW 2647   1.578   0.697   2.519  0.3903  0.1381  0.4250
  883SOL    HW1 2648   1.477   0.666   2.521  1.5229  0.5579 -2.9024
  883SOL    HW2 2649   1.584   0.798   2.516  2.3469 -1.1074  0.2019
  884SOL     OW 2650   3.074   0.109   1.625 -0.6751  0.0886 -0.0905
  884SOL    HW1 2651   3.046   0.042   1.557  0.1394  0.9622 -1.7315
  884SOL    HW2 2652   3.043   0.072   1.716 -0.2194 -2.1073  1.8178
  885SOL     OW 2653   1.966   0.990   2.300 -0.2981  0.2546 -0.2135
  885SOL    HW1 2654   1.953   1.043   2.214  2.7476  0.4486  1.4715
  885SOL    HW2 2655   1.912   0.897   2.305 -1.1426 -0.2663  0.6393
  886SOL     OW 2656   1.705   0.376   2.836  0.0384  0.1634  0.0287
  886SOL    HW1 2657   1.710   0.370   2.734  2.9688  0.4545 -0.3965
  886SOL    HW2 2658   1.764   0.447   2.879 -1.4234 -3.2814  1.0961
  887SOL     OW 2659   1.323   2.840   1.710 -0.5322  0.3836  0.5460
  887SOL    HW1 2660   1.267   2.914   1.753  2.3854 -0.0460 -1.5467
  887SOL    HW2 2661   1.304   2.832   1.614 -0.7674 -1.7851  4.7462
  888SOL     OW 2662   2.475   0.556   1.498  0.4233  0.3619  0.0319
  888SOL    HW1 2663   2.388   0.532   1.548 -2.6179 -0.8827 -0.3166
  888SOL    HW2 2664   2.458   0.628   1.428 -1.4190  1.7285 -0.4345
  889SOL     OW 2665   1.694   3.104   0.868  0.3163 -0.1543 -0.0961
  889SOL    HW1 2666   1.650   3.037   0.808 -1.9885  0.1450  2.2651
  889SOL    HW2 2667   1.654   3.106   0.960  1.0029  0.5595 -1.2943
  890SOL     OW 2668   1.218   2.681   0.749 -0.0684 -0.0173  0.3573
  890SOL    HW1 2669   1.277   2.623   0.812  0.7728  0.9471  0.3229
  890SOL    HW2 2670   1.193   2.766   0.802  0.2849 -1.3223  1.4848
  891SOL     OW 2671   3.061   1.188   0.227 -0.2148 -0.1165 -0.4541
  891SOL    HW1 2672   3.062   1.093   0.196  1.0337  1.0945 -1.0060
  891SOL    HW2 2673   0.031   1.237   0.202 -0.8094 -2.3970 -2.4848
  892SOL     OW 2674   2.211   1.523   2.489 -0.3701  0.1911 -0.3241
  892SOL    HW1 2675   2.298   1.569   2.507 -1.3379 -2.9377  1.9624
  892SOL    HW2 2676   2.135   1.581   2.526 -2.5918  2.5847 -0.2645
  893SOL     OW 2677   2.315   2.424   1.143 -0.4157 -0.0351  0.2786
  893SOL    HW1 2678   2.235   2.459   1.086 -0.3300 -0.6515 -1.9067
  893SOL    HW2 2679   2.395   2.458   1.088  1.2249  2.8755 -3.8770
  894SOL     OW 2680   0.298   0.601   0.803 -0.3947  0.4520  0.1334
  894SOL    HW1 2681   0.374   0.536   0.823  1.1000 -2.0524  0.2093
  894SOL    HW2 2682   0.221   0.554   0.762 -0.4415  1.8338  0.5481
  895SOL     OW 2683   2.877   2.205   2.202  0.4725  0.3271 -0.5714
  895SOL    HW1 2684   2.943   2.281   2.223 -0.3208 -1.0123  0.7024
  895SOL    HW2 2685   2.896   2.113   2.243  0.4031  2.1518  0.0352
  896SOL     OW 2686   1.356   3.093   2.618 -0.2185 -0.5287  0.4781
  896SOL    HW1 2687   1.393   3.003   2.654  0.0661  1.8489 -1.8108
  896SOL    HW2 2688   1.257   3.103   2.634 -0.2986  3.6660 -0.2242
  897SOL     OW 2689   0.266   1.950   1.699  0.2303 -1.0502  0.1663
  897SOL    HW1 2690   0.182   1.967   1.638 -1.8731 -1.4143 -2.9481
  897SOL    HW2 2691   0.348   1.929   1.642 -1.9922 -0.1795 -0.1769
  898SOL     OW 2692   0.867   2.259   1.908 -0.4665 -0.6412  0.1948
  898SOL    HW1 2693   0.858   2.251   1.808 -0.2772  1.8449 -0.0284
  898SOL    HW2 2694   0.938   2.196   1.946 -1.0541 -1.6548  0.1870
  899SOL     OW 2695   1.698   0.111   1.807  0.2386 -0.0319  0.0328
  899SOL    HW1 2696   1.795   0.083   1.819 -0.3526  0.9703 -0.1573
  899SOL    HW2 2697   1.649   0.032   1.768  0.4141  1.6364  0.6815
  900SOL     OW 2698   1.485   1.284   0.510 -0.3333  0.1605 -0.0200
  900SOL    HW1 2699   1.527   1.213   0.449 -0.8023 -2.1077 -1.5769
  900SOL    HW2 2700   1.392   1.254   0.541  1.1995 -1.0857  3.0803
  901SOL     OW 2701   1.234   0.988   2.417 -0.9111  0.5490 -0.0278
  901SOL    HW1 2702   1.271   0.952   2.506 -1.3957  0.0611 -1.7152
  901SOL    HW2 2703   1.250   0.914   2.348 -0.7818  1.0848 -0.9091
  902SOL     OW 2704   3.096   2.157   1.059  0.2932 -0.1644  0.1492
  902SOL    HW1 2705   3.012   2.214   1.050 -0.6697 -2.1490 -1.6137
  902SOL    HW2 2706   0.053   2.204   1.115  0.8552 -1.6594  0.2087
  903SOL     OW 2707   2.658   1.329   2.204  0.0319  0.3318 -0.0917
  903SOL    HW1 2708   2.749   1.282   2.213 -0.2455 -0.4669 -0.7944
  903SOL    HW2 2709   2.628   1.358   2.297 -1.2134 -0.6064  0.0494
  904SOL     OW 2710   1.409   1.837   0.104  0.0878 -0.1230 -0.1001
  904SOL    HW1 2711   1.330   1.782   0.066  1.9270 -2.3303 -1.5071
  904SOL    HW2 2712   1.395   1.848   0.206 -0.6998  0.1227 -0.3554
  905SOL     OW 2713   1.993   2.937   1.955  0.5915 -0.2416 -0.2441
  905SOL    HW1 2714   1.996   2.839   1.981 -0.3102 -1.6153 -0.2717
  905SOL    HW2 2715   2.010   2.998   2.037  2.1196 -1.8671 -0.2769
  906SOL     OW 2716   1.548   2.837   0.138 -0.4556  0.2194  0.0502
  906SOL    HW1 2717   1.522   2.878   0.047  2.6678 -1.3481  0.0394
  906SOL    HW2 2718   1.498   2.750   0.138  1.3075  1.6533 -1.1330
  907SOL     OW 2719   0.245   2.725   0.858 -0.0227  0.3961  0.3591
  907SOL    HW1 2720   0.289   2.795   0.915 -1.6941 -2.6583  0.4187
  907SOL    HW2 2721   0.197   2.765   0.778 -2.1247  0.3399  0.8737
  908SOL     OW 2722   0.612   2.665   1.703  0.0196  0.2182 -0.1445
  908SOL    HW1 2723   0.621   2.764   1.688 -0.5207 -0.8902  0.2407
  908SOL    HW2 2724   0.644   2.641   1.798 -1.2510 -1.8944  0.6661
  909SOL     OW 2725   1.762   0.584   1.408 -0.3720  0.6225 -0.2893
  909SOL    HW1 2726   1.708   0.645   1.463 -3.7415 -0.9904  0.3265
  909SOL    HW2 2727   1.864   0.592   1.427  2.0073  1.4791  1.1606
  910SOL     OW 2728   0.593   0.449   0.238 -0.1642  0.2319 -0.0291
  910SOL    HW1 2729   0.631   0.357   0.231  0.2503  1.7453  0.2260
  910SOL    HW2 2730   0.655   0.500   0.304 -1.3266 -1.0960 -0.5299
  911SOL     OW 2731   0.121   3.080   2.970 -0.8699 -0.3905  0.7795
  911SOL    HW1 2732   0.218   0.004   2.973  1.8495  2.2386 -1.5673
  911SOL    HW2 2733   0.062   0.015   3.041 -1.3639 -0.5132 -1.6217
  912SOL     OW 2734   3.000   2.195   2.628  0.2051 -0.0085 -0.4633
  912SOL    HW1 2735   2.945   2.114   2.650 -0.1319 -0.7180 -0.9639
  912SOL    HW2 2736   3.074   2.177   2.558 -3.0693 -3.3420 -1.3718
  913SOL     OW 2737   2.519   2.999   0.035  0.6979 -0.0017  0.0309
  913SOL    HW1 2738   2.438   3.028   0.094 -0.5852 -1.3331  0.3990
  913SOL    HW2 2739   2.584   3.076   0.030 -1.2024 -0.8921 -0.6083
  914SOL     OW 2740   1.421   1.570   1.890 -0.3273 -0.8948  0.1986
  914SOL    HW1 2741   1.489   1.497   1.910  0.8569 -0.9995  1.6727
  914SOL    HW2 2742   1.455   1.660   1.931 -0.9791  1.8247 -3.0033
  915SOL     OW 2743   2.825   2.493   2.418  0.0329  0.5714  0.1185
  915SOL    HW1 2744   2.901   2.427   2.394 -2.1260  2.5486  1.1946
  915SOL    HW2 2745   2.770   2.478   2.505 -0.2310  1.0771 -0.3016
  916SOL     OW 2746   0.016   0.705   2.400 -0.0305  0.0138 -0.1179
  916SOL    HW1 2747   0.063   0.632   2.350 -1.4318  2.5356 -2.1804
  916SOL    HW2 2748   0.081   0.785   2.407  0.1560 -2.3209  2.2698
  917SOL     OW 2749   1.544   0.153   0.106 -0.0631 -0.3065  0.4323
  917SOL    HW1 2750   1.620   0.178   0.168  0.7643 -1.0087 -2.8111
  917SOL    HW2 2751   1.579   0.145   0.010  1.1495  0.1852 -0.7280
  918SOL     OW 2752   1.716   3.102   2.228  0.2149 -0.5895 -0.0540
  918SOL    HW1 2753   1.681   3.088   2.321 -0.1580  1.1477  1.9091
  918SOL    HW2 2754   1.641   0.017   2.165  1.6163  0.3985 -1.8879
  919SOL     OW 2755   1.693   2.268   1.578  0.2146  0.1455  0.4711
  919SOL    HW1 2756   1.726   2.336   1.649  4.2134  0.3523  3.5161
  919SOL    HW2 2757   1.601   2.233   1.599 -0.2693  1.2425 -1.1663
  920SOL     OW 2758   0.076   0.885   0.214  0.5406  0.4361 -0.0470
  920SOL    HW1 2759   0.104   0.952   0.140 -0.9013  0.8143 -3.5791
  920SOL    HW2 2760   0.141   0.808   0.230  2.5726  0.6582 -0.5163
  921SOL     OW 2761   2.356   1.147   2.489 -0.0069 -0.1243 -0.7691
  921SOL    HW1 2762   2.376   1.177   2.394 -1.1177  3.1164  0.3855
  921SOL    HW2 2763   2.386   1.210   2.561 -1.3102 -2.4629  2.7270
  922SOL     OW 2764   1.044   1.840   2.431 -0.3437  0.1932  0.5942
  922SOL    HW1 2765   1.114   1.907   2.454 -1.8352 -0.4441 -0.8491
  922SOL    HW2 2766   1.013   1.787   2.508  0.1978  2.8773 -2.1340
  923SOL     OW 2767   0.780   1.346   2.345 -0.2055  0.0419  0.5082
  923SOL    HW1 2768   0.687   1.386   2.352 -1.6056 -1.5863 -2.1213
  923SOL    HW2 2769   0.824   1.374   2.430 -0.1187  0.2562  0.6728
  924SOL     OW 2770   0.273   2.422   2.721  0.1032  0.1552 -0.2713
  924SOL    HW1 2771   0.173   2.408   2.744 -0.6705 -0.5069  1.0740
  924SOL    HW2 2772   0.298   2.517   2.739  0.4273  0.0056 -1.0408
  925SOL     OW 2773   1.685   1.459   0.976  0.0428  0.4382 -0.0427
  925SOL    HW1 2774   1.781   1.453   1.011 -2.5387 -1.2557 -1.2785
  925SOL    HW2 2775   1.678   1.444   0.875 -0.3006 -2.4685  0.7838
  926SOL     OW 2776   1.680   0.439   2.570  0.0387 -0.3324 -0.3879
  926SOL    HW1 2777   1.649   0.411   2.480 -3.3127  2.2974 -3.5559
  926SOL    HW2 2778   1.664   0.540   2.579 -0.8133  0.6674 -0.8245
  927SOL     OW 2779   2.478   2.604   1.757  0.2134  0.4615  0.4633
  927SOL    HW1 2780   2.484   2.678   1.832  0.3487  1.3167  0.7993
  927SOL    HW2 2781   2.418   2.528   1.783  2.4628 -1.1955  0.8558
  928SOL     OW 2782   0.765   1.056   2.840 -0.8071  0.1797  0.0618
  928SOL    HW1 2783   0.692   1.061   2.766 -0.5731  0.8005  0.8617
  928SOL    HW2 2784   0.854   1.038   2.792 -0.4984  1.0967  0.2584
  929SOL     OW 2785   0.201   0.274   0.947  0.0069  0.3059 -0.0541
  929SOL    HW1 2786   0.249   0.273   0.853  1.2765 -0.1673 -2.0029
  929SOL    HW2 2787   0.114   0.225   0.936  0.7882  2.9289 -1.8041
  930SOL     OW 2788   2.668   0.230   1.875 -0.0404 -0.0108 -0.1100
  930SOL    HW1 2789   2.589   0.191   1.825  0.5147 -0.1196 -1.0952
  930SOL    HW2 2790   2.744   0.240   1.809 -0.2348 -0.3442 -1.6968
  931SOL     OW 2791   2.283   1.171   2.967 -0.5278  0.1108 -0.0434
  931SOL    HW1 2792   2.196   1.122   2.948  3.1652  3.8040  1.2513
  931SOL    HW2 2793   2.321   1.124   3.055 -1.7231 -0.0504 -0.1713
  932SOL     OW 2794   2.819   1.283   0.901 -0.1492 -0.0787 -0.6581
  932SOL    HW1 2795   2.890   1.358   0.909  2.3594 -1.3372 -0.6422
  932SOL    HW2 2796   2.747   1.318   0.843  3.0111 -1.3711 -0.5959
  933SOL     OW 2797   2.849   2.507   1.610  0.0327 -0.3208 -0.5907
  933SOL    HW1 2798   2.888   2.463   1.695 -1.1806 -0.6394  0.5332
  933SOL    HW2 2799   2.753   2.477   1.593 -0.2695 -0.6040 -1.1412
  934SOL     OW 2800   0.377   2.987   1.264  0.0544 -0.5009  0.1151
  934SOL    HW1 2801   0.390   2.989   1.368  0.6831 -0.5124  2.8909
  934SOL    HW2 2802   0.454   3.047   1.222  2.1128  0.2970 -1.8466
  935SOL     OW 2803   2.599   0.357   2.088  0.3147 -0.1478 -0.3795
  935SOL    HW1 2804   2.521   0.420   2.057  1.4040 -2.9347 -1.9419
  935SOL    HW2 2805   2.630   0.299   2.008 -1.5978  0.0986  0.4187
  936SOL     OW 2806   2.689   0.852   2.000 -0.1178  0.1251  0.6881
  936SOL    HW1 2807   2.780   0.893   1.972 -1.2620 -1.8866  0.3661
  936SOL    HW2 2808   2.673   0.754   1.963 -2.7448 -3.8381 -1.7005
  937SOL     OW 2809   1.776   1.334   1.747 -0.1552  0.1073  0.5096
  937SOL    HW1 2810   1.792   1.416   1.692 -0.2695  0.8007  0.8771
  937SOL    HW2 2811   1.862   1.307   1.797 -0.5507  0.3923 -0.4455
  938SOL     OW 2812   0.667   2.191   0.105  0.0965 -0.2646  0.2423
  938SOL    HW1 2813   0.699   2.287   0.115 -1.7854  2.9351  0.6398
  938SOL    HW2 2814   0.574   2.195   0.062  0.0103  2.1931 -1.6989
  939SOL     OW 2815   2.117   0.379   2.955 -0.5550 -0.3371 -0.7656
  939SOL    HW1 2816   2.197   0.387   3.021 -0.1964  1.5163 -0.9111
  939SOL    HW2 2817   2.058   0.298   2.984 -1.3880  0.5005  0.8397
  940SOL     OW 2818   1.370   2.528   0.888 -0.1855 -0.4614 -0.6005
  940SOL    HW1 2819   1.452   2.486   0.844  0.3403  3.1514  2.0061
  940SOL    HW2 2820   1.408   2.568   0.975  0.5664  1.6243  1.4899
  941SOL     OW 2821   1.232   2.045   1.685 -0.3568 -0.0850 -0.1179
  941SOL    HW1 2822   1.141   2.051   1.736 -1.9903  0.5182 -1.3599
  941SOL    HW2 2823   1.248   1.955   1.646 -0.5795  1.5790  0.5996
  942SOL     OW 2824   2.910   2.036   2.936 -0.2969 -0.6052  0.3059
  942SOL    HW1 2825   2.945   1.981   2.865  0.0747  0.7307  1.6466
  942SOL    HW2 2826   2.809   2.036   2.940  2.6193  0.0492  0.8569
  943SOL     OW 2827   2.152   2.732   1.807  0.1891  0.2652  0.0221
  943SOL    HW1 2828   2.052   2.728   1.787  0.0196  2.6832  0.6514
  943SOL    HW2 2829   2.201   2.796   1.742 -1.4814  0.2689  0.0973
  944SOL     OW 2830   1.873   2.062   2.665 -0.2281  0.1439 -0.3726
  944SOL    HW1 2831   1.788   2.013   2.684  0.0116  0.5437 -0.2819
  944SOL    HW2 2832   1.874   2.119   2.579 -2.8876 -0.8867  0.4688
  945SOL     OW 2833   2.728   1.875   0.974  0.0902 -0.0187 -0.2145
  945SOL    HW1 2834   2.817   1.925   0.967  0.4559  2.1070 -1.2216
  945SOL    HW2 2835   2.674   1.909   0.895  1.1550  0.0685  3.3356
  946SOL     OW 2836   1.241   1.223   2.941 -0.4322  0.3098  0.1446
  946SOL    HW1 2837   1.210   1.129   2.928  0.6338 -0.8902 -0.1772
  946SOL    HW2 2838   1.238   1.253   3.037  0.9961 -2.0176  1.4593
  947SOL     OW 2839   0.207   0.889   2.369 -0.1849 -0.0480  0.5079
  947SOL    HW1 2840   0.203   0.959   2.291  1.6435  0.9962  0.1127
  947SOL    HW2 2841   0.302   0.861   2.372  2.1667  0.1831 -0.4535
  948SOL     OW 2842   0.150   1.061   0.444  0.3089 -0.2257  0.2828
  948SOL    HW1 2843   0.140   1.153   0.488 -1.0449  0.0608  0.0985
  948SOL    HW2 2844   0.066   1.002   0.453 -1.1148 -1.9129  0.0737
  949SOL     OW 2845   0.715   0.291   2.694 -0.5303 -0.6549 -0.6639
  949SOL    HW1 2846   0.779   0.373   2.697  0.2686 -0.5558  1.1883
  949SOL    HW2 2847   0.751   0.221   2.631  1.8866  1.8207 -1.4869
  950SOL     OW 2848   0.074   0.581   1.611  0.0580  0.3154 -0.0089
  950SOL    HW1 2849   0.090   0.622   1.702 -0.7675  0.7396  1.7267
  950SOL    HW2 2850   0.105   0.646   1.538  0.5181  1.9608 -1.7535
  951SOL     OW 2851   0.329   1.326   2.549 -0.4604  0.4502  0.3289
  951SOL    HW1 2852   0.272   1.284   2.476 -1.3575 -1.9557 -2.8227
  951SOL    HW2 2853   0.359   1.261   2.619 -3.1776  3.7478 -3.2928
  952SOL     OW 2854   1.878   2.362   1.380 -0.4538  0.7067 -0.3521
  952SOL    HW1 2855   1.797   2.320   1.429 -1.0909  0.1276  1.6149
  952SOL    HW2 2856   1.925   2.442   1.426 -1.3896 -0.1072  0.0450
  953SOL     OW 2857   0.472   2.494   0.092  0.0940 -0.5013  0.1257
  953SOL    HW1 2858   0.394   2.523   0.149  0.9867  2.1243  0.2548
  953SOL    HW2 2859   0.436   2.449   0.010 -1.6985 -0.6845  3.6124
  954SOL     OW 2860   2.970   0.917   0.841 -0.2227  0.3306  0.4886
  954SOL    HW1 2861   2.879   0.960   0.863 -0.1549 -0.2341  1.9812
  954SOL    HW2 2862   3.016   0.939   0.755 -0.8498 -2.1378  1.4381
  955SOL     OW 2863   1.640   1.331   0.047 -0.3082  0.8595  0.5603
  955SOL    HW1 2864   1.634   1.244   3.110  2.4364  0.7574 -1.3298
  955SOL    HW2 2865   1.677   1.323   0.139  0.1654  0.9069 -1.4470
  956SOL     OW 2866   1.070   0.624   2.407  0.5633  0.4146  0.0962
  956SOL    HW1 2867   1.020   0.691   2.461 -1.6375 -3.5350  2.5461
  956SOL    HW2 2868   1.015   0.551   2.358 -0.5164 -2.2445 -0.3381
  957SOL     OW 2869   0.727   0.471   1.873  0.1893  0.4556  0.4073
  957SOL    HW1 2870   0.656   0.426   1.932  0.7215  1.6764 -0.8582
  957SOL    HW2 2871   0.808   0.488   1.929 -2.7089  3.4137 -1.3622
  958SOL     OW 2872   0.456   2.023   0.560 -0.2325  0.6762 -0.1108
  958SOL    HW1 2873   0.444   2.115   0.598  0.8640 -1.6003  0.5042
  958SOL    HW2 2874   0.513   2.016   0.468  1.7140 -0.4678 -1.5211
  959SOL     OW 2875   2.246   0.496   1.659  0.0631 -0.0631  0.4399
  959SOL    HW1 2876   2.145   0.521   1.666 -2.0790  0.5128  0.5159
  959SOL    HW2 2877   2.287   0.480   1.751 -0.9880 -1.0226  0.2737
  960SOL     OW 2878   0.299   1.586   2.632  0.3881  0.1080 -0.0523
  960SOL    HW1 2879   0.316   1.493   2.600 -0.7674  1.4024 -0.9125
  960SOL    HW2 2880   0.213   1.588   2.688 -1.2296 -1.9580  0.0069
  961SOL     OW 2881   0.727   1.718   0.843 -0.2556 -0.2028  0.5339
  961SOL    HW1 2882   0.693   1.729   0.746  0.4424  0.0644  0.2984
  961SOL    HW2 2883   0.662   1.747   0.919 -1.1190  0.2823  1.1267
  962SOL     OW 2884   0.641   1.552   1.243  0.2723  0.7757  0.4029
  962SOL    HW1 2885   0.686   1.524   1.331  3.0007  0.5432 -0.9714
  962SOL    HW2 2886   0.684   1.503   1.165  0.5678 -0.4578  0.1807
  963SOL     OW 2887   1.539   2.368   2.717  0.3640 -0.3673 -0.0800
  963SOL    HW1 2888   1.470   2.300   2.748  0.4857 -2.0420  2.1745
  963SOL    HW2 2889   1.589   2.333   2.636 -0.7133 -0.6103  3.8672
  964SOL     OW 2890   0.179   2.691   2.481  0.5073 -0.0085  0.2814
  964SOL    HW1 2891   0.250   2.738   2.534 -0.1601 -2.5633  0.7801
  964SOL    HW2 2892   0.109   2.760   2.450  2.2865  2.4747  0.4646
  965SOL     OW 2893   2.460   2.241   2.578 -0.1638  0.2537  0.5096
  965SOL    HW1 2894   2.540   2.182   2.543  2.2255 -0.7097  0.5887
  965SOL    HW2 2895   2.470   2.340   2.567  0.1057  0.1225  1.3671
  966SOL     OW 2896   2.711   1.607   2.664  0.2513  0.6247  0.4146
  966SOL    HW1 2897   2.782   1.669   2.708  1.8430  1.5236  1.4685
  966SOL    HW2 2898   2.713   1.520   2.722  0.2029 -1.9440  0.8588
  967SOL     OW 2899   2.049   0.213   0.701  0.2080 -0.2380 -0.2727
  967SOL    HW1 2900   1.996   0.161   0.772  0.3590 -0.6774 -0.8079
  967SOL    HW2 2901   2.065   0.307   0.731 -0.7519 -0.9752 -1.5860
  968SOL     OW 2902   2.617   0.137   0.775  0.0749 -0.1800 -0.3141
  968SOL    HW1 2903   2.554   0.128   0.698 -0.1466  2.7252  0.2552
  968SOL    HW2 2904   2.582   0.084   0.855  1.4864  0.3182  1.4894
  969SOL     OW 2905   0.655   0.880   2.149  0.0476  0.0165 -0.4024
  969SOL    HW1 2906   0.680   0.936   2.068 -0.7740  0.3908  2.0685
  969SOL    HW2 2907   0.715   0.911   2.228 -2.5259 -2.7230 -1.8953
  970SOL     OW 2908   1.973   1.426   2.757 -0.3723 -0.2691  0.2293
  970SOL    HW1 2909   1.898   1.392   2.822  0.5788 -2.1424 -0.5048
  970SOL    HW2 2910   1.959   1.517   2.714 -0.2378 -0.9786  0.6475
  971SOL     OW 2911   2.462   0.120   1.756 -0.4498  0.5931 -0.0223
  971SOL    HW1 2912   2.363   0.119   1.785  0.7888 -0.1689  0.0484
  971SOL    HW2 2913   2.464   0.118   1.653 -0.0781  1.0086 -1.0489
  972SOL     OW 2914   0.034   0.519   1.061  0.0646  0.0916  0.3933
  972SOL    HW1 2915   3.047   0.519   1.026 -2.5425 -0.9510  0.6385
  972SOL    HW2 2916   0.085   0.459   0.996 -1.2630 -0.0546  1.5390
  973SOL     OW 2917   3.013   0.071   2.369 -0.2284 -0.0404  0.0220
  973SOL    HW1 2918   3.097   0.081   2.431  2.3177 -0.2609  0.8497
  973SOL    HW2 2919   2.937   0.126   2.402  2.3425 -1.1611  0.1041
  974SOL     OW 2920   3.097   0.942   1.613 -0.0932 -0.8847  0.1847
  974SOL    HW1 2921   0.081   0.958   1.620 -1.9516 -0.7541 -0.1190
  974SOL    HW2 2922   3.066   0.908   1.521 -1.5888  0.5599  0.7277
  975SOL     OW 2923   1.360   3.079   2.253 -0.9591  0.4535 -0.6199
  975SOL    HW1 2924   1.408   3.072   2.165 -1.2685 -0.8293  0.6218
  975SOL    HW2 2925   1.338   2.980   2.272  0.9970  0.2799 -1.3988
  976SOL     OW 2926   2.036   1.395   1.566  0.0179 -0.0268 -0.2614
  976SOL    HW1 2927   2.064   1.460   1.494  0.5477  3.2223  0.6231
  976SOL    HW2 2928   1.937   1.398   1.580  0.6458  1.3621 -1.0882
  977SOL     OW 2929   2.888   2.888   0.073 -0.2874  0.4272 -0.6631
  977SOL    HW1 2930   2.871   2.801   0.030  0.7519  0.9400  0.6964
  977SOL    HW2 2931   2.869   2.964   0.005  0.5163  0.9476 -0.4569
  978SOL     OW 2932   2.235   1.434   2.234 -0.1041  0.1754  0.4658
  978SOL    HW1 2933   2.307   1.365   2.236  2.2007  4.0490  0.2256
  978SOL    HW2 2934   2.213   1.463   2.332 -0.5748  0.9730  0.9453
  979SOL     OW 2935   0.849   1.023   2.303  0.6914 -0.1010  0.2306
  979SOL    HW1 2936   0.923   1.023   2.232 -0.2845  0.3082  3.7675
  979SOL    HW2 2937   0.841   1.115   2.348 -2.5249 -0.4263 -2.3622
  980SOL     OW 2938   1.661   1.872   2.693  0.1466 -0.1737 -0.4253
  980SOL    HW1 2939   1.561   1.862   2.695  4.1520 -1.8998  0.1049
  980SOL    HW2 2940   1.702   1.802   2.630  0.2842  1.9658  0.1452
  981SOL     OW 2941   1.444   0.683   1.864 -0.4660  0.1573 -0.1555
  981SOL    HW1 2942   1.378   0.705   1.793  1.7495  0.1600  1.8916
  981SOL    HW2 2943   1.418   0.607   1.921  0.0735 -0.0525 -0.3266
  982SOL     OW 2944   0.706   0.210   0.214 -0.6135  0.0685 -0.0269
  982SOL    HW1 2945   0.708   0.127   0.275 -2.1945 -0.0837  3.0414
  982SOL    HW2 2946   0.660   0.193   0.122  0.6230 -2.5008  0.4495
  983SOL     OW 2947   2.037   0.767   0.220  0.2696 -0.0272 -0.2015
  983SOL    HW1 2948   2.068   0.691   0.276  0.2089  1.2566 -0.8570
  983SOL    HW2 2949   2.078   0.849   0.264  0.8626 -1.3230 -0.3943
  984SOL     OW 2950   0.958   0.306   3.011  0.3059  0.0350 -0.1493
  984SOL    HW1 2951   0.972   0.377   3.085  0.2106  4.4032  1.3967
  984SOL    HW2 2952   1.041   0.249   2.997  1.5949  0.5409  1.6197
  985SOL     OW 2953   1.283   2.591   1.796 -0.3777 -0.2789  0.1159
  985SOL    HW1 2954   1.278   2.685   1.756  0.5589  1.1394 -2.1324
  985SOL    HW2 2955   1.342   2.539   1.728 -2.1339  2.5660  2.3898
  986SOL     OW 2956   2.584   2.997   1.806 -0.1139  0.4358 -0.2568
  986SOL    HW1 2957   2.517   3.074   1.807 -0.7927 -3.4227 -1.2594
  986SOL    HW2 2958   2.673   3.029   1.762  0.9491  0.1715 -1.8522
  987SOL     OW 2959   2.189   1.342   1.168 -0.2648 -0.2832  0.3837
  987SOL    HW1 2960   2.208   1.360   1.068  2.0443 -3.4234  0.5211
  987SOL    HW2 2961   2.228   1.248   1.192  1.5364  1.2168  0.2826
  988SOL     OW 2962   2.387   1.031   1.548  0.2186  0.3085 -0.1932
  988SOL    HW1 2963   2.452   0.998   1.617 -0.8581  2.6479  0.2726
  988SOL    HW2 2964   2.378   1.131   1.556 -0.7154  0.2082 -1.8398
  989SOL     OW 2965   2.015   2.080   3.110  0.0544  0.0289 -0.3673
  989SOL    HW1 2966   2.001   2.123   3.018  0.6607 -0.2777 -0.4644
  989SOL    HW2 2967   2.028   1.979   3.105  0.3153  1.6363 -0.1601
  990SOL     OW 2968   1.555   0.682   2.242  0.0208  0.3195 -0.4851
  990SOL    HW1 2969   1.617   0.715   2.318  1.0598  1.5234 -0.4907
  990SOL    HW2 2970   1.604   0.678   2.153  1.0974  0.1764 -0.7134
  991SOL     OW 2971   1.252   1.143   0.576 -0.0172  0.0264 -0.0029
  991SOL    HW1 2972   1.151   1.124   0.565 -4.2029  0.2216 -2.8776
  991SOL    HW2 2973   1.254   1.208   0.654 -0.0687  1.1771 -0.4425
  992SOL     OW 2974   0.353   1.028   1.355  0.8684  0.0153 -0.2557
  992SOL    HW1 2975   0.407   1.112   1.363 -0.4191 -1.3999 -0.1415
  992SOL    HW2 2976   0.307   1.020   1.262  0.3741  0.9063  0.5583
  993SOL     OW 2977   2.444   0.572   1.979 -0.4532  0.0393  0.2751
  993SOL    HW1 2978   2.423   0.671   1.961 -0.4516  2.6097 -0.4472
  993SOL    HW2 2979   2.366   0.508   1.970  0.4609  0.9373  0.0256
  994SOL     OW 2980   1.465   1.866   1.832  0.0577 -0.1841 -0.1303
  994SOL    HW1 2981   1.484   1.872   1.932 -1.0224  1.5537  1.2935
  994SOL    HW2 2982   1.433   1.959   1.797 -1.8325 -0.7996  0.1493
  995SOL     OW 2983   2.271   1.985   3.008  0.5170 -0.5911  0.0647
  995SOL    HW1 2984   2.356   1.947   3.034  0.3520  1.7733  2.0225
  995SOL    HW2 2985   2.194   1.926   3.045 -1.6411 -1.6440  1.2466
  996SOL     OW 2986   2.091   1.584   0.053  0.6389  0.5483 -0.4451
  996SOL    HW1 2987   2.051   1.532   0.129 -0.8574  0.9016 -0.0486
  996SOL    HW2 2988   2.108   1.518   3.091 -0.4178  2.0541 -1.6181
  997SOL     OW 2989   1.867   0.696   2.296  0.3288 -0.4293 -0.1246
  997SOL    HW1 2990   1.831   0.628   2.230 -2.9576  2.6209  1.0080
  997SOL    HW2 2991   1.914   0.654   2.373 -1.0889 -0.8786  1.8684
  998SOL     OW 2992   2.583   0.701   0.697  0.5892  0.2949  0.2556
  998SOL    HW1 2993   2.530   0.730   0.782 -0.4841 -0.7919  2.9230
  998SOL    HW2 2994   2.546   0.615   0.661  0.9183  0.5932  0.3311
  999SOL     OW 2995   2.436   1.187   0.648  0.9195 -0.0893  0.5212
  999SOL    HW1 2996   2.502   1.109   0.629 -0.5698  1.7543 -0.1294
  999SOL    HW2 2997   2.354   1.151   0.694 -0.2857 -2.0437 -0.5718
 1000SOL     OW 2998   0.623   1.314   1.754 -0.2709  0.4378  0.1647
 1000SOL    HW1 2999   0.577   1.295   1.844  1.8734 -1.2604 -2.6602
 1000SOL    HW2 3000   0.552   1.325   1.683 -0.6000  0.7259  0.9816
   3.11234   3.11234   3.11234
