1000 SPC/Fw water molecules t= 372.00000 step= 372000
 3000
    1SOL     OW    1   2.493   2.772   1.618  0.1077  0.2834  0.3905
    1SOL    HW1    2   2.438   2.822   1.692  0.7644  0.0606  1.0262
    1SOL    HW2    3   2.500   2.831   1.533  2.3607 -0.4360 -0.8707
    2SOL     OW    4   2.351   2.553   0.416  0.4471 -0.1869  0.7103
    2SOL    HW1    5   2.431   2.544   0.356  1.1466  1.9698 -0.2115
    2SOL    HW2    6   2.340   2.651   0.429  2.5918 -1.4636 -0.1534
    3SOL     OW    7   1.275   0.181   0.007 -0.1889 -0.3829 -0.6297
    3SOL    HW1    8   1.250   0.279   3.089  0.6834 -0.6619  0.7038
    3SOL    HW2    9   1.254   0.123   3.029 -0.0829  1.3728 -1.8989
    4SOL     OW   10   1.212   2.808   2.153  0.4053  0.4151 -0.1898
    4SOL    HW1   11   1.234   2.741   2.076 -1.6838  2.3773  0.5655
    4SOL    HW2   12   1.110   2.828   2.148 -2.4444  1.5739 -0.8738
    5SOL     OW   13   2.387   0.445   1.726  0.4012  0.8057  0.5615
    5SOL    HW1   14   2.333   0.530   1.718 -1.3817 -1.2808 -4.2534
    5SOL    HW2   15   2.392   0.416   1.823 -0.0024 -0.6019 -0.7584
    6SOL     OW   16   2.204   2.392   0.265  0.2408  0.0564 -0.6706
    6SOL    HW1   17   2.235   2.473   0.322 -2.3962 -0.0546 -1.7804
    6SOL    HW2   18   2.116   2.356   0.308 -1.5425  1.6876  1.8462
    7SOL     OW   19   1.943   1.156   1.172  0.2227  0.2129 -0.5780
    7SOL    HW1   20   1.915   1.068   1.217 -1.7368  0.6137 -0.8871
    7SOL    HW2   21   1.862   1.203   1.127 -0.0127 -1.6673 -0.7856
    8SOL     OW   22   0.961   1.246   1.157  0.1859 -0.1106  0.1274
    8SOL    HW1   23   0.963   1.345   1.137  0.2403 -1.0988  0.6626
    8SOL    HW2   24   0.893   1.215   1.220 -0.6354  0.3001 -1.2083
    9SOL     OW   25   0.961   2.473   1.558  1.1414 -0.0222  0.3550
    9SOL    HW1   26   0.899   2.487   1.637 -0.9384  2.2842  0.1185
    9SOL    HW2   27   0.957   2.374   1.530  2.2866 -0.2496  0.5055
   10SOL     OW   28   0.994   2.335   0.574 -0.4702  1.0167 -0.5001
   10SOL    HW1   29   1.005   2.357   0.477  1.6370  0.1990 -1.7645
   10SOL    HW2   30   1.089   2.319   0.615 -0.1268  0.1453  0.3314
   11SOL     OW   31   1.575   1.768   1.466  0.2795 -0.0382 -0.2029
   11SOL    HW1   32   1.536   1.866   1.466  1.4977  1.4417  0.2433
   11SOL    HW2   33   1.635   1.753   1.385 -1.0305  0.1136 -1.2320
   12SOL     OW   34   2.677   0.556   2.264 -0.0480  0.2877  0.0875
   12SOL    HW1   35   2.597   0.508   2.218  1.2376  2.6742  0.6162
   12SOL    HW2   36   2.669   0.656   2.267  1.1306 -2.5253  0.8225
   13SOL     OW   37   2.583   0.071   0.518  0.4948 -0.1847  0.3631
   13SOL    HW1   38   2.496   0.024   0.529  0.3939 -2.7827  2.8026
   13SOL    HW2   39   2.654   0.034   0.577 -0.0113  0.3078 -2.3966
   14SOL     OW   40   1.687   1.382   0.165 -0.3057  0.4146  0.1597
   14SOL    HW1   41   1.705   1.464   0.112 -1.1567 -2.1348  2.9712
   14SOL    HW2   42   1.624   1.323   0.110 -0.9667 -2.3822 -2.6313
   15SOL     OW   43   2.390   2.524   1.533  0.3055 -0.0978  0.6866
   15SOL    HW1   44   2.384   2.514   1.430  2.7105 -0.0616 -0.1847
   15SOL    HW2   45   2.417   2.620   1.556  0.4710 -0.5805 -1.6198
   16SOL     OW   46   2.256   3.014   0.925  1.0143  0.9593 -0.4528
   16SOL    HW1   47   2.219   0.002   0.957  2.4409  1.8805  0.9529
   16SOL    HW2   48   2.335   2.987   0.983 -0.4221  0.5635  0.2655
   17SOL     OW   49   0.991   0.227   1.355 -0.0865  0.3761  0.3967
   17SOL    HW1   50   0.892   0.241   1.327 -4.5672  0.8728  1.2057
   17SOL    HW2   51   1.040   0.214   1.268 -0.2809  1.3550  0.0885
   18SOL     OW   52   2.036   0.416   0.438  0.0416  0.5766  0.8237
   18SOL    HW1   53   1.970   0.355   0.490 -2.3158 -2.5462  0.8347
   18SOL    HW2   54   2.058   0.381   0.344 -2.0896 -0.7416  1.5406
   19SOL     OW   55   2.076   1.563   0.267 -0.2231 -0.0003 -0.6177
   19SOL    HW1   56   2.061   1.561   0.169 -1.5611  0.8333  0.6368
   19SOL    HW2   57   2.061   1.659   0.294  0.8916  1.3718  0.9390
   20SOL     OW   58   2.213   1.633   2.382  0.2193 -0.1299 -0.1452
   20SOL    HW1   59   2.309   1.599   2.367 -0.0299  1.2939  0.3695
   20SOL    HW2   60   2.149   1.563   2.339 -2.7360  1.7092 -0.2457
   21SOL     OW   61   1.522   0.320   0.532 -0.4397 -0.2424  0.3299
   21SOL    HW1   62   1.474   0.359   0.611 -2.3026 -0.8412  0.3440
   21SOL    HW2   63   1.542   0.400   0.470 -1.6898  0.3526  1.1727
   22SOL     OW   64   2.561   0.556   1.531 -1.1144  0.5813 -0.5931
   22SOL    HW1   65   2.546   0.660   1.538  1.4663  2.1933  1.2895
   22SOL    HW2   66   2.513   0.512   1.607 -2.3806  1.4265  0.7237
   23SOL     OW   67   0.246   0.276   1.923  0.4476 -0.0855  0.6128
   23SOL    HW1   68   0.306   0.325   1.862 -1.7984 -1.4395  2.1317
   23SOL    HW2   69   0.272   0.299   2.019  1.9955  1.4289 -1.1182
   24SOL     OW   70   2.573   2.633   0.268 -0.4549 -0.2670  0.2462
   24SOL    HW1   71   2.609   2.555   0.212  0.7999 -0.5777  1.0824
   24SOL    HW2   72   2.500   2.683   0.218 -0.8876  2.2075 -2.9130
   25SOL     OW   73   1.386   0.024   2.519  0.3351  0.1218 -0.4435
   25SOL    HW1   74   1.437   3.055   2.468  0.0205 -0.3880  0.3013
   25SOL    HW2   75   1.343   3.089   2.606 -2.0971 -5.3412  0.8200
   26SOL     OW   76   1.451   2.709   0.226  0.0714  0.1330 -0.5753
   26SOL    HW1   77   1.401   2.782   0.171  0.6298  0.4064  0.3594
   26SOL    HW2   78   1.376   2.659   0.276 -2.7737  0.3365  0.9133
   27SOL     OW   79   1.759   0.661   1.092 -0.2122 -0.0908 -0.5515
   27SOL    HW1   80   1.704   0.612   1.022 -4.1870 -1.8510  0.0824
   27SOL    HW2   81   1.855   0.640   1.074 -2.5973 -0.0761 -1.1930
   28SOL     OW   82   1.242   1.482   0.859  0.5094  0.2258 -0.2969
   28SOL    HW1   83   1.152   1.483   0.819  3.7319  0.8531 -0.1016
   28SOL    HW2   84   1.304   1.560   0.834  1.1294  2.5429  0.0116
   29SOL     OW   85   0.010   2.950   1.900 -0.0976  0.0608  0.3764
   29SOL    HW1   86   3.030   3.005   1.924  2.7308 -1.7187  2.7674
   29SOL    HW2   87   0.016   2.927   1.799 -0.2273  1.4162  0.0836
   30SOL     OW   88   1.164   3.047   1.166 -0.2138 -0.5854  0.6355
   30SOL    HW1   89   1.260   3.040   1.128 -0.2615  0.5505 -1.5868
   30SOL    HW2   90   1.153   2.989   1.247  1.1863  0.3049  2.1662
   31SOL     OW   91   1.650   2.816   2.022  0.2298  0.3761  0.2227
   31SOL    HW1   92   1.713   2.851   2.096  0.3128  2.0946 -1.6965
   31SOL    HW2   93   1.692   2.742   1.967 -1.5981  0.8111 -0.1565
   32SOL     OW   94   0.788   1.714   0.191 -0.0784  0.4547 -0.4315
   32SOL    HW1   95   0.786   1.778   0.113 -0.7501 -0.6225  2.0790
   32SOL    HW2   96   0.802   1.759   0.280 -0.4295 -0.3970  0.5511
   33SOL     OW   97   3.011   0.913   2.167  0.4839 -0.1552 -0.0116
   33SOL    HW1   98   2.964   0.839   2.225 -1.6579 -1.8802  1.2572
   33SOL    HW2   99   3.082   0.878   2.103 -2.7832  0.0830 -0.0668
   34SOL     OW  100   2.320   0.014   0.592 -0.1965 -0.0027  0.1542
   34SOL    HW1  101   2.304   0.093   0.652  0.4722 -2.1839 -2.5242
   34SOL    HW2  102   2.246   3.099   0.523 -2.7998  0.3015 -5.0477
   35SOL     OW  103   2.577   2.441   2.027 -0.3991 -0.2332 -0.0145
   35SOL    HW1  104   2.514   2.365   2.046 -0.4972 -0.2386 -3.1614
   35SOL    HW2  105   2.549   2.495   1.946  0.3851  1.3510 -1.0788
   36SOL     OW  106   2.489   2.017   3.086 -0.3192  0.2546  0.2615
   36SOL    HW1  107   2.416   2.025   3.017  4.1560  0.8753 -0.1320
   36SOL    HW2  108   2.567   1.963   3.054 -2.0584  0.7205  0.4593
   37SOL     OW  109   2.039   0.330   1.695 -0.1863 -0.4136 -1.1747
   37SOL    HW1  110   1.977   0.367   1.621 -0.5829  0.8155 -1.2049
   37SOL    HW2  111   2.001   0.363   1.784  0.9038  1.2405  0.2856
   38SOL     OW  112   3.075   0.273   2.882 -0.4939 -0.0649 -0.0839
   38SOL    HW1  113   3.067   0.374   2.854  1.8344 -1.0365 -0.2980
   38SOL    HW2  114   0.058   0.251   2.939  2.4475  1.3058 -0.4740
   39SOL     OW  115   1.898   1.219   2.036  0.5239 -0.3180 -0.3344
   39SOL    HW1  116   1.907   1.213   2.137  0.2662 -0.0667 -0.0833
   39SOL    HW2  117   1.986   1.207   1.993 -1.8074  0.8509 -2.8790
   40SOL     OW  118   1.199   2.072   0.718 -0.4642 -0.5824 -0.5433
   40SOL    HW1  119   1.266   2.000   0.753  1.9977 -2.9248  0.8016
   40SOL    HW2  120   1.183   2.061   0.623  0.7335  3.0963  2.4886
   41SOL     OW  121   1.931   1.803   0.944 -0.2222 -0.3254  0.4061
   41SOL    HW1  122   1.999   1.872   0.972 -0.0288 -1.3990  1.1684
   41SOL    HW2  123   1.944   1.783   0.844  0.0653  1.0367 -1.9736
   42SOL     OW  124   0.450   0.461   1.245  0.3492 -0.3988 -0.0513
   42SOL    HW1  125   0.368   0.466   1.306  0.1569 -1.3975 -0.4571
   42SOL    HW2  126   0.491   0.549   1.216  3.6011 -0.0160  0.0331
   43SOL     OW  127   0.081   1.604   2.584  0.3840  0.2033  0.0538
   43SOL    HW1  128   0.045   1.676   2.648 -2.3958  1.3638 -0.2352
   43SOL    HW2  129   0.149   1.546   2.632  1.8551 -1.3783 -0.2256
   44SOL     OW  130   1.763   2.841   1.363 -0.7035  0.0267 -0.1337
   44SOL    HW1  131   1.824   2.868   1.438  1.3272 -1.0497  1.3635
   44SOL    HW2  132   1.680   2.903   1.370 -1.6636  0.2541  1.5087
   45SOL     OW  133   1.154   0.024   2.369 -0.0516 -0.0570 -0.2595
   45SOL    HW1  134   1.085   3.067   2.414  1.2455  1.4237  1.7437
   45SOL    HW2  135   1.245   0.036   2.417  1.4171  1.8744 -1.3780
   46SOL     OW  136   0.690   2.727   2.342  0.3963  0.0851  0.2967
   46SOL    HW1  137   0.647   2.785   2.266  1.7863  1.0045  1.5461
   46SOL    HW2  138   0.656   2.769   2.428  0.9740 -0.1122 -1.0882
   47SOL     OW  139   0.841   2.398   0.808  0.2577 -0.2488  0.2811
   47SOL    HW1  140   0.892   2.381   0.722 -2.1535  0.2444  1.6144
   47SOL    HW2  141   0.822   2.500   0.814  3.2037  4.2720 -1.1920
   48SOL     OW  142   1.094   2.399   0.956 -0.1859  0.5960  0.2512
   48SOL    HW1  143   1.003   2.390   0.913  2.3706  3.6063  1.1496
   48SOL    HW2  144   1.092   2.414   1.057  0.6734  0.0683 -2.2573
   49SOL     OW  145   2.317   0.269   0.016  0.3013  0.1778 -0.3790
   49SOL    HW1  146   2.247   0.206   3.074 -0.5553 -2.6140 -3.0631
   49SOL    HW2  147   2.389   0.273   3.048 -0.0069 -1.5152 -1.1378
   50SOL     OW  148   1.756   0.280   0.171 -1.0113  0.4366 -0.0196
   50SOL    HW1  149   1.806   0.369   0.159 -0.0805  3.1562 -0.9329
   50SOL    HW2  150   1.662   0.301   0.145  2.2267  0.2916  0.4285
   51SOL     OW  151   2.293   0.826   1.411  0.3214  0.4454  0.2370
   51SOL    HW1  152   2.275   0.911   1.355  1.1721  2.1448 -0.4649
   51SOL    HW2  153   2.241   0.815   1.503 -1.9279 -0.8569  3.7407
   52SOL     OW  154   0.574   1.565   0.093  0.2178  0.3681  0.0852
   52SOL    HW1  155   0.640   1.628   0.140 -0.3080 -0.8417 -0.5280
   52SOL    HW2  156   0.540   1.603   0.009  0.9148  3.1495  0.9524
   53SOL     OW  157   0.258   1.421   2.696 -0.5033  0.1024  0.3849
   53SOL    HW1  158   0.294   1.389   2.604 -1.4357  1.2771  4.4732
   53SOL    HW2  159   0.325   1.395   2.766  0.9263 -0.5775  0.0200
   54SOL     OW  160   2.548   1.354   1.884  0.2254  0.1457  0.5002
   54SOL    HW1  161   2.529   1.273   1.942 -0.0023  2.3091 -1.3661
   54SOL    HW2  162   2.547   1.434   1.950  0.8274  0.5164  2.0316
   55SOL     OW  163   2.465   1.847   0.330  0.1696  0.2578 -0.6908
   55SOL    HW1  164   2.560   1.820   0.299 -2.4983  0.2870 -1.4461
   55SOL    HW2  165   2.437   1.806   0.416  2.6549  0.1992 -1.2311
   56SOL     OW  166   1.791   0.158   1.424 -0.1587 -0.0333 -0.6668
   56SOL    HW1  167   1.735   0.114   1.504 -1.6107 -0.8175  1.4132
   56SOL    HW2  168   1.751   0.134   1.336  2.7468 -0.3182  3.3216
   57SOL     OW  169   1.507   1.172   2.834  0.6140  0.0467  0.3246
   57SOL    HW1  170   1.578   1.098   2.834  0.6103 -0.1544  0.0206
   57SOL    HW2  171   1.522   1.236   2.756 -0.4871  0.8163 -2.1213
   58SOL     OW  172   2.778   0.472   1.680 -0.2452  0.1769  0.0460
   58SOL    HW1  173   2.699   0.507   1.622  0.6117  2.9437 -1.0706
   58SOL    HW2  174   2.867   0.477   1.632  1.0528 -0.6487  3.6802
   59SOL     OW  175   1.217   2.784   0.043 -0.1361 -0.7113 -0.2474
   59SOL    HW1  176   1.247   2.711   3.083  0.4851  3.4450  0.2736
   59SOL    HW2  177   1.258   2.870   0.009  2.8343 -1.6866 -2.1490
   60SOL     OW  178   3.098   2.144   2.804  0.4891 -0.4243 -0.0931
   60SOL    HW1  179   0.074   2.116   2.865  1.1262 -0.2373 -0.2966
   60SOL    HW2  180   0.034   2.206   2.727  1.5688  0.9618 -1.0097
   61SOL     OW  181   0.538   2.623   0.770 -0.0940 -0.1210  0.1496
   61SOL    HW1  182   0.608   2.614   0.837  2.5095  0.8185 -3.3876
   61SOL    HW2  183   0.530   2.722   0.742 -5.5354  2.0550  0.4235
   62SOL     OW  184   1.873   1.646   2.733 -0.5627  0.0114 -0.0587
   62SOL    HW1  185   1.833   1.738   2.697  0.9339  1.3811  2.3304
   62SOL    HW2  186   1.802   1.585   2.773 -2.1050 -1.3018  2.7327
   63SOL     OW  187   1.822   1.853   0.254 -0.3364  0.2253 -0.6345
   63SOL    HW1  188   1.755   1.925   0.227 -0.8500  1.1634  0.9758
   63SOL    HW2  189   1.797   1.765   0.219 -2.0536  3.0647  2.6602
   64SOL     OW  190   2.179   0.964   0.091  0.1419  0.3454 -0.2031
   64SOL    HW1  191   2.130   1.055   0.092 -1.1543 -0.0228 -4.2532
   64SOL    HW2  192   2.242   0.955   0.168 -1.3544  0.3203 -3.3792
   65SOL     OW  193   1.942   2.065   2.072  0.0777  0.0921 -0.2688
   65SOL    HW1  194   2.006   2.083   2.151 -0.1661 -2.6618 -0.2876
   65SOL    HW2  195   1.987   2.093   1.981  1.1055 -0.9927 -3.0621
   66SOL     OW  196   0.353   0.809   1.425 -0.2498 -0.0721 -0.0713
   66SOL    HW1  197   0.312   0.841   1.339  0.3264 -0.5628  0.0494
   66SOL    HW2  198   0.430   0.747   1.416 -2.7073 -0.0996 -0.1610
   67SOL     OW  199   2.194   0.095   2.975  0.4029 -0.3077 -0.1861
   67SOL    HW1  200   2.166   3.099   2.962  0.1348  0.6663 -1.6219
   67SOL    HW2  201   2.167   0.155   2.894 -0.2978 -0.7041 -0.1709
   68SOL     OW  202   1.526   2.019   1.566  0.2660 -0.1047  0.8173
   68SOL    HW1  203   1.520   2.119   1.571 -0.2595 -0.9407  0.1535
   68SOL    HW2  204   1.593   1.983   1.638  2.2025 -1.8651  1.7641
   69SOL     OW  205   0.168   2.898   0.285  0.0947  0.2956  0.9392
   69SOL    HW1  206   0.143   2.803   0.257  0.5917 -2.2924 -0.2004
   69SOL    HW2  207   0.124   2.931   0.374 -1.0058 -0.7434  1.4352
   70SOL     OW  208   0.347   0.642   1.957  1.0158 -0.2846 -0.0395
   70SOL    HW1  209   0.346   0.690   1.870  0.1859 -0.8899  1.8497
   70SOL    HW2  210   0.439   0.600   1.961 -0.3560  1.7343  1.0925
   71SOL     OW  211   0.997   1.078   2.528  0.5596  0.1658 -0.2923
   71SOL    HW1  212   1.050   1.091   2.617 -0.5407 -2.5629  1.2398
   71SOL    HW2  213   1.049   1.023   2.458 -0.1847  0.1684 -3.4689
   72SOL     OW  214   3.000   1.771   1.955  0.4431  0.1543  0.0504
   72SOL    HW1  215   2.902   1.752   1.967 -1.4776  0.7841  1.1038
   72SOL    HW2  216   3.016   1.840   1.882 -0.2327  0.4380  0.3976
   73SOL     OW  217   1.388   1.763   0.181  0.3760 -0.0368 -0.2864
   73SOL    HW1  218   1.399   1.663   0.159 -1.1603 -1.4164 -2.3289
   73SOL    HW2  219   1.288   1.788   0.199  0.1758 -0.4777 -1.3282
   74SOL     OW  220   2.306   2.977   2.843 -0.2077 -0.0836  0.1791
   74SOL    HW1  221   2.349   3.057   2.800 -0.5464 -1.0403 -1.9412
   74SOL    HW2  222   2.366   2.940   2.917  1.0029  1.6984 -1.1517
   75SOL     OW  223   1.768   2.056   1.154 -0.8716  0.1710 -0.0594
   75SOL    HW1  224   1.669   2.044   1.170  4.2510 -1.5852  0.3663
   75SOL    HW2  225   1.806   1.965   1.122 -0.3327 -2.1985 -2.5533
   76SOL     OW  226   2.929   2.093   1.638 -0.2306  0.6342  0.3317
   76SOL    HW1  227   2.841   2.071   1.587  1.8684  2.4245  0.2300
   76SOL    HW2  228   2.992   2.010   1.650  1.8621  1.2566 -0.2325
   77SOL     OW  229   0.364   2.834   1.797  0.1244 -0.0071  0.6426
   77SOL    HW1  230   0.422   2.915   1.780  3.0313 -0.2670  2.3362
   77SOL    HW2  231   0.365   2.803   1.896  2.2817 -2.2479  0.6441
   78SOL     OW  232   2.492   0.713   0.324 -0.0280  0.0564  0.6402
   78SOL    HW1  233   2.418   0.782   0.334  0.0331 -2.4136 -2.2160
   78SOL    HW2  234   2.571   0.753   0.268  1.1683  1.3110 -0.1522
   79SOL     OW  235   3.005   1.480   2.441 -0.5063 -0.1090 -0.2905
   79SOL    HW1  236   3.005   1.378   2.456  0.4549 -0.7865 -1.3264
   79SOL    HW2  237   3.061   1.532   2.508 -2.1496  0.9389  0.2036
   80SOL     OW  238   1.771   1.611   1.775 -0.3113  0.1083 -0.4745
   80SOL    HW1  239   1.709   1.678   1.819  2.2303  1.8243  0.2890
   80SOL    HW2  240   1.792   1.636   1.677  0.5675 -0.8700 -0.2439
   81SOL     OW  241   2.047   1.459   2.268  0.2106 -0.0687 -0.2320
   81SOL    HW1  242   2.019   1.365   2.279 -0.9227  0.7257  0.2193
   81SOL    HW2  243   1.996   1.504   2.188 -0.9297 -1.7009  0.2308
   82SOL     OW  244   1.487   1.461   2.082  0.5743 -0.7634  0.8073
   82SOL    HW1  245   1.493   1.544   2.031 -0.2266  0.6323 -1.1010
   82SOL    HW2  246   1.543   1.390   2.032 -0.0569  1.2961  0.8573
   83SOL     OW  247   0.434   0.514   0.260  0.0242 -0.7840  0.0495
   83SOL    HW1  248   0.493   0.456   0.317 -1.9196 -2.8507 -1.5002
   83SOL    HW2  249   0.340   0.480   0.274  3.0941 -0.5931 -1.6363
   84SOL     OW  250   0.031   0.714   0.249 -0.3504  0.3304 -0.7345
   84SOL    HW1  251   3.035   0.690   0.259  1.1750 -1.7695  1.0664
   84SOL    HW2  252   0.045   0.813   0.227 -0.1515  1.2085 -0.3625
   85SOL     OW  253   2.373   2.490   1.271  0.3682  0.7755 -0.6923
   85SOL    HW1  254   2.294   2.545   1.239 -0.4067 -1.1720  0.2878
   85SOL    HW2  255   2.374   2.404   1.216 -1.5003  0.6781  0.8986
   86SOL     OW  256   0.291   0.199   1.579 -0.6689  0.4705  1.0250
   86SOL    HW1  257   0.326   0.138   1.502  2.3592 -1.5154  1.3737
   86SOL    HW2  258   0.248   0.150   1.653 -2.6239  1.5868 -1.4980
   87SOL     OW  259   0.379   2.359   1.787 -0.7016  0.0770 -0.1246
   87SOL    HW1  260   0.444   2.414   1.727 -1.2822 -1.1515 -0.2529
   87SOL    HW2  261   0.388   2.261   1.757  1.0195 -1.6782 -1.8202
   88SOL     OW  262   0.183   2.124   3.001  0.1726 -0.1634 -0.2788
   88SOL    HW1  263   0.180   2.043   3.066 -1.7104 -0.8192  0.8172
   88SOL    HW2  264   0.282   2.150   2.989  2.5321 -0.5210  1.9433
   89SOL     OW  265   1.154   0.975   0.607 -0.0012  0.1797 -0.1730
   89SOL    HW1  266   1.256   0.970   0.593  3.0188 -0.9533  0.1179
   89SOL    HW2  267   1.097   0.899   0.571  0.0661  1.2723 -0.5975
   90SOL     OW  268   0.164   1.518   2.166  0.3006  0.0208  0.2185
   90SOL    HW1  269   0.161   1.547   2.068 -0.7087  0.6314 -1.1667
   90SOL    HW2  270   0.171   1.598   2.228  2.6907 -0.0421 -1.0959
   91SOL     OW  271   1.648   0.849   0.877  0.0471 -0.7859  0.7434
   91SOL    HW1  272   1.545   0.832   0.872 -2.9293  1.0572  3.0518
   91SOL    HW2  273   1.701   0.756   0.874  1.2204 -0.5832 -0.3993
   92SOL     OW  274   2.280   1.170   0.920 -0.4962  0.6977  0.7345
   92SOL    HW1  275   2.246   1.221   0.838 -0.4930  1.1884  1.1340
   92SOL    HW2  276   2.278   1.220   1.008 -0.6857 -1.0637 -1.4869
   93SOL     OW  277   0.095   0.909   2.462  0.6601  0.3385 -0.1699
   93SOL    HW1  278   0.190   0.920   2.429  0.0654 -0.3697 -0.7354
   93SOL    HW2  279   0.055   0.996   2.484 -0.6817  1.7016  0.6816
   94SOL     OW  280   1.928   2.246   2.651 -0.0369  0.2058  0.2465
   94SOL    HW1  281   1.972   2.163   2.686 -2.4471  1.8390 -0.5698
   94SOL    HW2  282   2.000   2.298   2.599 -2.0859 -0.7773 -0.5819
   95SOL     OW  283   3.064   3.102   1.153 -0.6737 -0.0141  0.3813
   95SOL    HW1  284   0.055   3.063   1.169 -1.4526 -0.9430 -0.0460
   95SOL    HW2  285   3.036   0.046   1.241 -0.3888 -2.3648  0.6715
   96SOL     OW  286   2.972   2.659   1.275  0.0830 -0.4096 -0.3407
   96SOL    HW1  287   2.894   2.632   1.333  1.2835 -1.8080  0.4027
   96SOL    HW2  288   3.064   2.662   1.329  2.3574  0.5265  2.5160
   97SOL     OW  289   2.537   0.828   1.520 -0.3589  0.0725  0.3775
   97SOL    HW1  290   2.442   0.817   1.482 -1.2093  0.0590 -2.6254
   97SOL    HW2  291   2.571   0.922   1.489 -1.5413  2.9386  0.6530
   98SOL     OW  292   1.772   2.643   1.851  0.8307  0.3805  0.1919
   98SOL    HW1  293   1.790   2.545   1.859  1.5624  0.2375 -0.5617
   98SOL    HW2  294   1.704   2.657   1.778  1.6795 -2.3634 -1.1212
   99SOL     OW  295   0.261   2.731   1.433 -0.2423  0.0271  0.0570
   99SOL    HW1  296   0.350   2.679   1.447  1.0376 -0.6105  1.0579
   99SOL    HW2  297   0.189   2.680   1.475  2.7542  2.8802 -0.4622
  100SOL     OW  298   1.717   0.372   2.654  0.3839 -0.4372 -0.0997
  100SOL    HW1  299   1.752   0.448   2.711 -3.1484  0.2875  2.5177
  100SOL    HW2  300   1.782   0.292   2.650  1.4230  0.9956 -0.3648
  101SOL     OW  301   2.835   0.411   2.632 -0.4405 -0.2247  0.4434
  101SOL    HW1  302   2.849   0.328   2.574  2.5422  1.2015  2.0629
  101SOL    HW2  303   2.750   0.460   2.607 -0.6944  0.7103 -0.5642
  102SOL     OW  304   0.211   0.624   1.591  0.3010  0.6069 -0.2026
  102SOL    HW1  305   0.142   0.662   1.657 -1.1674  0.0625  0.9361
  102SOL    HW2  306   0.260   0.696   1.538  1.7683  0.0561 -1.2908
  103SOL     OW  307   0.805   0.540   2.674  0.0326 -0.3235  0.4984
  103SOL    HW1  308   0.859   0.453   2.661  2.4378 -1.1089  0.8370
  103SOL    HW2  309   0.857   0.625   2.647  1.9283 -0.9282  1.2380
  104SOL     OW  310   0.366   0.943   2.408  0.3552  0.2714  0.3217
  104SOL    HW1  311   0.386   0.887   2.489  0.0156 -2.8292 -1.3019
  104SOL    HW2  312   0.362   0.885   2.326  1.1976 -0.6131  1.6904
  105SOL     OW  313   2.219   1.999   1.544 -0.2376 -0.0706 -0.3745
  105SOL    HW1  314   2.225   2.061   1.625 -0.8072  1.6937  0.4792
  105SOL    HW2  315   2.220   2.049   1.458 -1.4376 -0.1088  3.1094
  106SOL     OW  316   1.679   2.990   0.549 -0.2658  0.3051  0.4307
  106SOL    HW1  317   1.670   3.068   0.489  0.5128  0.3085  1.7970
  106SOL    HW2  318   1.628   2.908   0.513  0.1368  0.8037 -0.4909
  107SOL     OW  319   1.735   2.347   1.206  0.9313 -0.2950  0.2994
  107SOL    HW1  320   1.745   2.248   1.184 -0.1404  0.8944  0.5045
  107SOL    HW2  321   1.638   2.371   1.237 -2.5319 -1.3545  0.7103
  108SOL     OW  322   2.982   2.437   1.082  0.4773 -0.1363 -0.3480
  108SOL    HW1  323   2.949   2.456   0.986  1.4563  1.8030 -1.8242
  108SOL    HW2  324   2.964   2.516   1.142 -0.4589 -1.5546  2.6980
  109SOL     OW  325   2.173   2.375   0.877  0.1455 -0.2025 -0.2491
  109SOL    HW1  326   2.212   2.363   0.784 -0.5106 -2.2135 -0.4485
  109SOL    HW2  327   2.116   2.462   0.866  0.1685  1.7434 -1.4406
  110SOL     OW  328   1.085   1.713   2.097  0.4710  0.2796 -0.1185
  110SOL    HW1  329   1.055   1.618   2.118  2.5508 -1.4444 -1.1175
  110SOL    HW2  330   1.015   1.780   2.126 -0.1511  0.6189 -1.1121
  111SOL     OW  331   1.524   2.294   2.109  0.2581 -0.3990  0.2616
  111SOL    HW1  332   1.445   2.295   2.041 -3.6173 -1.8676 -2.8540
  111SOL    HW2  333   1.544   2.392   2.139  0.4463  0.6789  0.5099
  112SOL     OW  334   1.487   1.976   2.751 -0.1960 -0.1838  0.3365
  112SOL    HW1  335   1.522   2.072   2.767  1.7312  0.0579 -0.5853
  112SOL    HW2  336   1.562   1.911   2.731  0.9173 -1.0248 -0.2639
  113SOL     OW  337   1.655   1.919   1.787  0.4029 -0.6737 -0.1394
  113SOL    HW1  338   1.611   1.844   1.833  2.3465  1.2254 -0.8512
  113SOL    HW2  339   1.659   2.004   1.842  0.1961  0.9005 -1.8631
  114SOL     OW  340   3.065   1.136   1.454  0.6528 -0.3519  0.1250
  114SOL    HW1  341   3.072   1.127   1.353 -0.4069  2.1143 -3.2656
  114SOL    HW2  342   2.966   1.119   1.486 -0.6985 -1.5860  1.1661
  115SOL     OW  343   0.832   0.696   0.017 -0.1615 -0.4311  0.2278
  115SOL    HW1  344   0.754   0.710   3.053  0.1739 -0.2467  0.8044
  115SOL    HW2  345   0.857   0.599   0.035 -0.8400 -0.1957 -0.6542
  116SOL     OW  346   2.640   2.050   2.292 -0.2130 -0.3845  0.4602
  116SOL    HW1  347   2.649   2.031   2.191  1.9881  0.4123  0.1136
  116SOL    HW2  348   2.551   2.019   2.334  1.3699 -0.5402  1.1711
  117SOL     OW  349   2.998   2.500   0.353  0.2390  0.0694 -0.1509
  117SOL    HW1  350   3.010   2.502   0.457 -2.2446  0.2920  0.0647
  117SOL    HW2  351   2.911   2.456   0.321  2.4266 -0.3177  0.4436
  118SOL     OW  352   0.682   2.004   2.838 -0.2470 -0.6349  0.3343
  118SOL    HW1  353   0.603   2.065   2.857 -3.7829  1.8237  0.1518
  118SOL    HW2  354   0.675   1.956   2.750  2.9462  0.7713  0.4018
  119SOL     OW  355   0.491   2.122   0.662 -0.1041  0.4004 -0.4241
  119SOL    HW1  356   0.472   2.211   0.708  0.5211  1.5884  0.3077
  119SOL    HW2  357   0.546   2.144   0.578 -0.1003 -0.8260 -1.9220
  120SOL     OW  358   1.496   0.809   0.188 -0.3622 -0.2060 -0.6849
  120SOL    HW1  359   1.536   0.795   0.284  1.8986 -0.9323  3.8892
  120SOL    HW2  360   1.420   0.745   0.175  0.0654  1.3151 -2.4497
  121SOL     OW  361   1.236   2.330   0.738 -0.2615 -0.3404 -0.2862
  121SOL    HW1  362   1.177   2.370   0.811 -1.9560 -1.6968  0.1111
  121SOL    HW2  363   1.211   2.233   0.726  2.7981 -1.3031  1.2082
  122SOL     OW  364   2.787   2.372   1.867 -0.0943  0.0867 -0.2623
  122SOL    HW1  365   2.842   2.296   1.903 -1.7129 -1.3456  1.9727
  122SOL    HW2  366   2.726   2.400   1.938  1.6867 -0.6279 -3.5601
  123SOL     OW  367   0.997   1.741   0.833 -0.2531 -0.1287  0.0724
  123SOL    HW1  368   1.042   1.820   0.884 -0.9886  0.9626  0.7782
  123SOL    HW2  369   0.911   1.721   0.888  2.0032  0.4612  0.1249
  124SOL     OW  370   2.915   0.903   0.425 -0.1769 -0.4790 -0.4305
  124SOL    HW1  371   2.932   1.000   0.392  1.1424  0.2904 -0.3515
  124SOL    HW2  372   2.902   0.840   0.345 -1.6762  0.3787 -1.6669
  125SOL     OW  373   0.155   0.502   0.084  0.3360  0.0058  0.0567
  125SOL    HW1  374   0.112   0.592   0.102  0.9181  0.0094  0.5207
  125SOL    HW2  375   0.090   0.430   0.111 -2.8757  1.5145 -1.2578
  126SOL     OW  376   0.076   1.628   0.709  0.6342 -0.2927 -0.2738
  126SOL    HW1  377   0.126   1.710   0.675 -1.3132  2.6573  0.0555
  126SOL    HW2  378   0.109   1.604   0.802  1.8589 -2.0799  0.7565
  127SOL     OW  379   1.228   2.523   1.556  0.2900 -0.5233 -0.0015
  127SOL    HW1  380   1.127   2.524   1.563 -1.2647  1.8999  0.8029
  127SOL    HW2  381   1.271   2.603   1.506  2.5831 -2.1197 -1.6490
  128SOL     OW  382   1.360   1.511   0.080 -0.1834 -0.6891 -0.1462
  128SOL    HW1  383   1.275   1.493   0.129  2.0476 -0.0692 -0.7358
  128SOL    HW2  384   1.414   1.432   0.054  2.0550 -0.0531  0.4702
  129SOL     OW  385   1.922   2.131   1.565 -0.0657 -0.0296 -0.3700
  129SOL    HW1  386   1.913   2.126   1.463 -1.0819 -0.1959 -0.9361
  129SOL    HW2  387   1.948   2.222   1.596 -1.7314 -0.1225  0.7035
  130SOL     OW  388   1.933   1.952   1.775 -0.3532  0.0090 -0.1867
  130SOL    HW1  389   1.850   1.892   1.787  0.8833  0.7763  2.6080
  130SOL    HW2  390   1.927   2.012   1.691  0.7167  1.6208  0.6670
  131SOL     OW  391   2.908   2.644   2.460 -0.2380 -0.3653  0.2097
  131SOL    HW1  392   2.892   2.746   2.466 -2.0778  1.6549 -0.7014
  131SOL    HW2  393   2.874   2.586   2.536 -0.6837 -1.1397  0.1616
  132SOL     OW  394   2.800   1.960   0.636  0.2123  0.3969  0.3314
  132SOL    HW1  395   2.880   2.018   0.667 -1.9560  1.0579  0.4091
  132SOL    HW2  396   2.826   1.865   0.600 -0.9499 -2.5786 -4.4026
  133SOL     OW  397   0.925   0.157   2.285  0.4187 -0.0812  0.2404
  133SOL    HW1  398   1.011   0.103   2.296 -1.1793 -1.3994  0.3294
  133SOL    HW2  399   0.874   0.132   2.200 -1.0398  1.3856 -0.8882
  134SOL     OW  400   2.930   2.074   0.130 -0.7573 -0.1569 -0.1909
  134SOL    HW1  401   2.987   2.155   0.161 -0.0555  0.8399 -0.6731
  134SOL    HW2  402   2.844   2.067   0.177  0.6572  0.0215 -0.2110
  135SOL     OW  403   1.628   0.893   2.483 -0.2556 -0.0857  0.2979
  135SOL    HW1  404   1.535   0.943   2.502 -0.8151  3.4607  2.3225
  135SOL    HW2  405   1.664   0.922   2.395 -0.2093  1.9221  1.6847
  136SOL     OW  406   2.468   1.709   0.869  0.0049  0.0987  0.3161
  136SOL    HW1  407   2.568   1.705   0.838  1.9444 -1.9964 -1.1806
  136SOL    HW2  408   2.421   1.805   0.875  0.2860 -1.6830 -0.7635
  137SOL     OW  409   2.697   1.605   0.768 -0.0538  0.2235 -0.4194
  137SOL    HW1  410   2.677   1.512   0.734 -0.5069  1.7409  1.1194
  137SOL    HW2  411   2.763   1.607   0.847 -1.1411  0.6549  0.8665
  138SOL     OW  412   2.794   0.502   1.120  0.4073 -0.5488 -0.5110
  138SOL    HW1  413   2.791   0.593   1.171  0.0647 -0.8782  0.0724
  138SOL    HW2  414   2.844   0.505   1.030  0.4268 -0.2172 -1.6341
  139SOL     OW  415   3.086   2.578   2.881 -0.3334  0.0042  0.1687
  139SOL    HW1  416   0.006   2.490   2.935 -2.1383 -1.9607 -0.2796
  139SOL    HW2  417   3.097   2.564   2.778 -0.5447  0.1079 -3.8603
  140SOL     OW  418   0.687   1.765   1.611  0.0064 -0.4836  0.3477
  140SOL    HW1  419   0.771   1.818   1.584 -0.1082  1.2773  1.5864
  140SOL    HW2  420   0.703   1.665   1.610 -1.1802  1.3674  0.0075
  141SOL     OW  421   1.355   1.876   0.829  0.3439 -0.0775 -0.2456
  141SOL    HW1  422   1.425   1.828   0.768  1.0365 -1.5078  0.2332
  141SOL    HW2  423   1.356   1.831   0.922  0.6533  0.0916 -0.5236
  142SOL     OW  424   1.056   0.771   0.989 -0.0423 -0.5107 -0.4463
  142SOL    HW1  425   1.044   0.864   0.950  0.4881 -1.4878 -0.5943
  142SOL    HW2  426   1.101   0.770   1.082  0.5790  1.1662  0.8032
  143SOL     OW  427   0.887   1.210   2.824 -0.5295  0.1786  0.1786
  143SOL    HW1  428   0.853   1.206   2.920 -1.9115  2.4208 -0.5740
  143SOL    HW2  429   0.980   1.168   2.807  0.2897 -1.4353 -0.7439
  144SOL     OW  430   1.753   2.535   0.996 -0.4393 -0.2212 -0.1419
  144SOL    HW1  431   1.748   2.486   0.906 -1.8008  0.7798  2.9494
  144SOL    HW2  432   1.741   2.473   1.078 -0.2671 -3.7424 -0.2055
  145SOL     OW  433   2.039   0.626   2.823  0.6266  0.2949 -0.4102
  145SOL    HW1  434   2.123   0.587   2.870 -0.8107 -2.7553 -0.4462
  145SOL    HW2  435   2.063   0.723   2.794 -0.3602  1.5692 -1.7282
  146SOL     OW  436   2.691   2.538   0.666  0.1905  0.3197  0.0056
  146SOL    HW1  437   2.600   2.517   0.710 -3.8620 -3.3855 -2.0805
  146SOL    HW2  438   2.700   2.638   0.632  1.0969  1.8144 -3.6408
  147SOL     OW  439   1.317   0.932   2.128 -0.0306 -0.8146  0.1970
  147SOL    HW1  440   1.310   0.956   2.028  0.0034  0.3473  2.0864
  147SOL    HW2  441   1.397   0.976   2.168  0.7473 -1.7479 -0.4950
  148SOL     OW  442   1.600   0.673   2.126  0.0578 -0.9063  0.1106
  148SOL    HW1  443   1.648   0.633   2.203  0.0312  0.3581 -0.2109
  148SOL    HW2  444   1.501   0.648   2.124  1.4171  1.4826 -0.7192
  149SOL     OW  445   1.882   2.872   2.171  0.5503  0.1923  0.3196
  149SOL    HW1  446   1.898   2.974   2.163 -0.1898  1.3578  1.7204
  149SOL    HW2  447   1.910   2.836   2.262 -1.3764 -0.8131 -2.0850
  150SOL     OW  448   2.496   2.865   3.046 -0.1207  0.1830 -0.6712
  150SOL    HW1  449   2.560   2.787   3.017  1.0504  1.3382  0.1306
  150SOL    HW2  450   2.545   2.951   3.028 -1.6325 -0.4352 -0.1349
  151SOL     OW  451   0.496   1.331   2.827 -0.5377 -0.3433  0.5367
  151SOL    HW1  452   0.473   1.254   2.884  0.7135  0.5904 -2.9170
  151SOL    HW2  453   0.556   1.401   2.872  2.2161 -0.2256 -0.7004
  152SOL     OW  454   3.016   0.195   0.960  0.4045 -0.0807  0.6536
  152SOL    HW1  455   3.030   0.123   1.031 -0.6764 -0.5070 -1.6406
  152SOL    HW2  456   3.082   0.270   0.970 -0.8829 -2.4791 -0.2019
  153SOL     OW  457   2.371   0.190   1.596 -0.3893  0.0831 -0.4081
  153SOL    HW1  458   2.272   0.165   1.586 -3.1959 -0.8613 -0.1812
  153SOL    HW2  459   2.384   0.249   1.677 -2.8844 -0.3862 -0.5919
  154SOL     OW  460   2.092   0.310   2.442  0.3218  0.2940  0.3347
  154SOL    HW1  461   2.063   0.401   2.474 -0.2601 -2.7448  1.3591
  154SOL    HW2  462   2.072   0.299   2.340  0.7334 -0.3349  1.2771
  155SOL     OW  463   0.112   1.687   0.228 -0.5746 -0.3614 -0.4915
  155SOL    HW1  464   0.198   1.661   0.273 -2.7033 -2.9668 -2.6195
  155SOL    HW2  465   0.053   1.739   0.292  0.5329 -0.1354  1.5024
  156SOL     OW  466   3.018   1.689   0.018 -0.3004 -0.1308 -0.2415
  156SOL    HW1  467   3.007   1.787   3.089  1.6570  0.7153  3.0793
  156SOL    HW2  468   3.042   1.684   0.118 -0.2837  0.0461  2.3667
  157SOL     OW  469   0.699   0.421   0.672 -0.5371 -0.1516  0.0105
  157SOL    HW1  470   0.601   0.422   0.705 -3.5685 -1.5962  0.0734
  157SOL    HW2  471   0.740   0.515   0.684 -0.3917  1.4270  1.6612
  158SOL     OW  472   2.187   0.863   1.679  0.0486 -0.0894  0.8666
  158SOL    HW1  473   2.170   0.962   1.693  0.0332 -1.0840  1.4463
  158SOL    HW2  474   2.228   0.814   1.761  0.4090 -2.3127  2.0137
  159SOL     OW  475   0.158   0.537   0.422  0.1226 -0.0850  0.2047
  159SOL    HW1  476   0.082   0.478   0.457  0.2246 -1.6240  0.5088
  159SOL    HW2  477   0.130   0.609   0.354  0.4471 -0.7480  1.2085
  160SOL     OW  478   2.059   2.315   1.883 -0.3105  0.2430 -0.0604
  160SOL    HW1  479   2.091   2.381   1.954 -0.4041  2.1599  0.5273
  160SOL    HW2  480   1.968   2.338   1.846  0.3796  0.7748 -1.4729
  161SOL     OW  481   0.126   0.676   2.612  0.0539 -0.2884 -0.4854
  161SOL    HW1  482   0.208   0.730   2.647  0.3643 -0.5142 -0.9270
  161SOL    HW2  483   0.083   0.730   2.536 -0.4340 -2.1202 -0.4541
  162SOL     OW  484   0.763   2.701   1.396  0.1906 -0.6091 -0.1669
  162SOL    HW1  485   0.823   2.722   1.478 -0.6191 -0.5587 -1.0691
  162SOL    HW2  486   0.769   2.775   1.324  0.1277  0.1586 -1.0337
  163SOL     OW  487   2.869   0.206   2.458  0.3994  0.0047  0.2245
  163SOL    HW1  488   2.811   0.149   2.390  0.1306  0.8691 -1.1294
  163SOL    HW2  489   2.946   0.248   2.411 -2.9342 -1.2132 -0.0975
  164SOL     OW  490   2.275   1.898   0.118  0.4372  0.4388  0.2586
  164SOL    HW1  491   2.358   1.883   0.176 -0.8638  0.4380  0.7977
  164SOL    HW2  492   2.277   1.839   0.029 -1.8361 -0.3256 -1.9414
  165SOL     OW  493   2.911   0.186   1.304  0.2514  0.0609 -0.0107
  165SOL    HW1  494   2.988   0.255   1.295 -0.3774 -2.2364 -1.2722
  165SOL    HW2  495   2.834   0.203   1.245  1.0801  1.6181 -0.7815
  166SOL     OW  496   1.975   0.922   0.734 -0.4667  0.6568  0.0888
  166SOL    HW1  497   2.011   0.963   0.823  1.3675 -1.1685  2.9890
  166SOL    HW2  498   1.948   0.992   0.669 -1.5609 -1.6244 -0.3110
  167SOL     OW  499   2.653   0.894   0.179  0.5206 -1.2538 -0.7987
  167SOL    HW1  500   2.605   0.879   0.086 -0.9882 -0.0467 -0.9638
  167SOL    HW2  501   2.635   0.990   0.212 -3.7628 -0.1647 -1.7020
  168SOL     OW  502   1.515   0.210   2.790 -0.6422 -0.4717  0.3356
  168SOL    HW1  503   1.519   0.118   2.830  1.8078 -1.0551 -0.4373
  168SOL    HW2  504   1.590   0.225   2.725  0.5651  0.9161 -0.6454
  169SOL     OW  505   0.271   1.292   0.882 -0.3507  0.0003 -0.0766
  169SOL    HW1  506   0.216   1.294   0.967  0.7787 -2.2616  0.5788
  169SOL    HW2  507   0.206   1.314   0.805  0.1938 -1.5498 -2.1193
  170SOL     OW  508   2.951   0.993   1.048  0.5009  0.0869 -0.3470
  170SOL    HW1  509   2.985   0.909   1.099  1.3888 -2.8866  0.1430
  170SOL    HW2  510   2.848   1.013   1.047 -1.2088 -0.0123  1.0292
  171SOL     OW  511   2.424   2.207   2.077  0.2058 -0.0286  0.4625
  171SOL    HW1  512   2.494   2.134   2.062  0.7159  0.2705 -2.1281
  171SOL    HW2  513   2.339   2.169   2.034  0.6935  1.5045  2.1983
  172SOL     OW  514   0.286   1.990   1.258  0.5286 -0.2245 -0.4153
  172SOL    HW1  515   0.226   2.066   1.289  1.6661 -1.0509 -0.6659
  172SOL    HW2  516   0.293   1.935   1.346 -0.0416  0.1334  1.3461
  173SOL     OW  517   1.699   1.460   2.831  0.7423  0.1372 -0.1195
  173SOL    HW1  518   1.685   1.383   2.780  1.4840  2.2786  0.4491
  173SOL    HW2  519   1.604   1.502   2.857 -4.6020  1.3488 -1.2495
  174SOL     OW  520   1.270   0.587   2.856 -0.6363  0.1061  0.5201
  174SOL    HW1  521   1.283   0.585   2.752  3.2288 -1.2230 -2.0008
  174SOL    HW2  522   1.317   0.668   2.904  1.8597  2.6042 -0.5307
  175SOL     OW  523   1.335   1.348   1.387 -0.3907  0.1730  0.3171
  175SOL    HW1  524   1.285   1.381   1.469  0.8893 -0.4171  0.8899
  175SOL    HW2  525   1.290   1.270   1.341 -0.5088  2.4682  1.5296
  176SOL     OW  526   1.289   0.125   0.451  0.1500  0.3538  0.3656
  176SOL    HW1  527   1.260   0.153   0.358  1.5615  0.0730  0.0986
  176SOL    HW2  528   1.362   0.190   0.492 -0.9811  2.3699 -0.4123
  177SOL     OW  529   0.245   0.915   0.030  0.1458 -0.3096 -0.5408
  177SOL    HW1  530   0.199   0.963   0.106  0.6901 -0.6269 -0.8928
  177SOL    HW2  531   0.296   0.833   0.059 -1.0066 -0.3711 -0.5539
  178SOL     OW  532   2.575   2.480   2.317  0.3422 -0.3836  0.5670
  178SOL    HW1  533   2.628   2.416   2.375 -1.5392  1.6971 -1.5226
  178SOL    HW2  534   2.635   2.494   2.235 -1.2034 -0.1757  1.1698
  179SOL     OW  535   0.020   0.174   2.608 -0.0753 -0.4029  0.0073
  179SOL    HW1  536   0.008   0.177   2.712 -1.6892 -0.8460  1.7344
  179SOL    HW2  537   3.040   0.129   2.562  0.9297  0.6678 -0.3092
  180SOL     OW  538   2.053   0.494   0.968  0.6384 -0.0757  0.5739
  180SOL    HW1  539   2.134   0.447   0.936 -0.8236  1.5163  0.4283
  180SOL    HW2  540   2.077   0.588   1.004 -0.4655 -0.9775  0.0831
  181SOL     OW  541   2.124   0.872   2.708  0.2438  0.2669  0.3448
  181SOL    HW1  542   2.208   0.926   2.732 -1.8261  0.8400  1.4455
  181SOL    HW2  543   2.043   0.926   2.741 -0.8931  0.5025 -1.8544
  182SOL     OW  544   2.686   2.766   2.078  0.6224 -0.5989  0.1567
  182SOL    HW1  545   2.710   2.686   2.130 -2.6438  0.1016 -3.6272
  182SOL    HW2  546   2.617   2.738   2.005 -0.5001 -3.0387 -1.4935
  183SOL     OW  547   2.116   0.639   2.076  0.2839  0.1595 -0.4300
  183SOL    HW1  548   2.161   0.628   2.167 -0.6668  1.9780 -0.3520
  183SOL    HW2  549   2.175   0.671   2.000 -0.2530 -1.8450  3.3421
  184SOL     OW  550   0.105   1.355   1.093 -0.4144  0.0624  0.0425
  184SOL    HW1  551   0.069   1.268   1.122 -1.9428  3.7110 -1.6240
  184SOL    HW2  552   0.127   1.407   1.178 -0.6238 -0.4820 -4.0233
  185SOL     OW  553   2.245   0.197   0.986  0.0407 -0.5281 -0.0141
  185SOL    HW1  554   2.189   0.199   0.900  2.0203  2.3222 -0.7647
  185SOL    HW2  555   2.337   0.159   0.969 -1.4352 -0.3327 -0.2040
  186SOL     OW  556   2.847   2.467   2.687 -0.1331  0.2077  0.2972
  186SOL    HW1  557   2.884   2.370   2.685  2.1650  0.5595 -3.0883
  186SOL    HW2  558   2.756   2.472   2.728  1.4000 -0.5683 -3.5332
  187SOL     OW  559   0.306   1.310   0.316 -0.0985 -0.1622  0.4412
  187SOL    HW1  560   0.266   1.328   0.225 -0.6058 -1.1985 -0.4163
  187SOL    HW2  561   0.246   1.260   0.381 -0.2425 -1.0062 -0.1515
  188SOL     OW  562   2.222   1.471   1.375  0.5189 -0.4038 -0.0412
  188SOL    HW1  563   2.278   1.496   1.295 -3.3336 -0.4482 -0.0417
  188SOL    HW2  564   2.279   1.400   1.419 -1.2944 -0.1036  0.7592
  189SOL     OW  565   0.181   0.526   2.355 -0.1063  0.1391  0.6096
  189SOL    HW1  566   0.156   0.535   2.453 -2.3050  0.0860  1.5219
  189SOL    HW2  567   0.214   0.617   2.322 -0.8552  0.9040 -0.6611
  190SOL     OW  568   2.018   0.888   2.038  0.0671 -0.2177  0.3705
  190SOL    HW1  569   1.976   0.867   1.947 -0.5659 -2.2362 -1.4354
  190SOL    HW2  570   2.025   0.795   2.074 -0.0376  1.7654  0.3394
  191SOL     OW  571   1.199   0.148   2.145  0.0323  0.2875 -0.0009
  191SOL    HW1  572   1.183   0.072   2.085 -0.6272  0.7558  1.8472
  191SOL    HW2  573   1.185   0.110   2.238  1.7388  0.7084  0.2422
  192SOL     OW  574   1.079   1.978   1.804  0.1719  0.2390  0.1061
  192SOL    HW1  575   1.091   2.030   1.895  1.4999 -0.2384 -0.1046
  192SOL    HW2  576   1.170   1.964   1.753  1.9562  1.6459  0.4632
  193SOL     OW  577   1.373   0.437   0.749  0.2943 -0.6048  0.0497
  193SOL    HW1  578   1.301   0.510   0.751 -0.7182  0.6999  0.5708
  193SOL    HW2  579   1.331   0.355   0.782  0.7647  1.9390 -1.7437
  194SOL     OW  580   0.913   2.219   1.498  0.0747  0.1693 -0.4763
  194SOL    HW1  581   0.894   2.251   1.402  1.7314 -1.6851  0.7232
  194SOL    HW2  582   1.005   2.181   1.511 -0.2226 -1.9229 -0.5904
  195SOL     OW  583   1.523   0.547   0.358  0.4414 -0.0429 -0.4778
  195SOL    HW1  584   1.607   0.603   0.353 -1.1845 -0.6808 -1.8513
  195SOL    HW2  585   1.516   0.484   0.280  0.0658  1.8338 -2.2887
  196SOL     OW  586   0.655   1.450   2.138 -0.6249 -0.9950 -0.3194
  196SOL    HW1  587   0.646   1.484   2.045 -2.6655 -2.8691 -0.3257
  196SOL    HW2  588   0.722   1.370   2.139 -1.2576 -0.1703 -2.7216
  197SOL     OW  589   0.989   0.510   1.559  0.5292 -0.0703  0.5037
  197SOL    HW1  590   0.901   0.486   1.520  0.5360 -1.7001  0.2933
  197SOL    HW2  591   1.059   0.499   1.484 -1.8974  3.2121 -1.3788
  198SOL     OW  592   0.741   0.989   0.953 -0.0863  0.2457 -0.6731
  198SOL    HW1  593   0.842   0.990   0.938  2.4135  3.1232  0.2411
  198SOL    HW2  594   0.709   1.021   1.044  0.8740  2.9848  3.1058
  199SOL     OW  595   0.166   2.236   1.305  0.6799  0.2263 -0.7237
  199SOL    HW1  596   0.100   2.216   1.230 -0.2473  2.3001 -1.3718
  199SOL    HW2  597   0.229   2.305   1.270 -0.8487 -1.0767 -1.8882
  200SOL     OW  598   1.573   1.084   2.165 -0.1184  0.3415 -0.0706
  200SOL    HW1  599   1.582   1.145   2.085  0.3393 -1.1880 -1.1041
  200SOL    HW2  600   1.651   1.016   2.162  0.6215  2.0660  0.4725
  201SOL     OW  601   0.576   2.086   1.888 -0.3797 -0.3843  0.0665
  201SOL    HW1  602   0.670   2.042   1.877  1.7017 -1.2447 -0.5780
  201SOL    HW2  603   0.544   2.110   1.793  0.3466 -0.4983  0.0344
  202SOL     OW  604   1.110   0.093   0.231  0.3552 -0.0853  0.2703
  202SOL    HW1  605   1.162   0.107   0.144 -0.5880 -0.1429  2.4399
  202SOL    HW2  606   1.089   3.097   0.234  0.6122  0.4133 -1.7118
  203SOL     OW  607   1.727   0.038   2.338  0.0414 -0.4328 -0.2861
  203SOL    HW1  608   1.676   3.069   2.391 -0.3345 -0.3233  0.2412
  203SOL    HW2  609   1.823   0.029   2.371 -2.1812  0.4142  0.8058
  204SOL     OW  610   0.433   1.771   1.663  0.0780  0.2382  0.1513
  204SOL    HW1  611   0.523   1.816   1.678 -1.8511 -0.8221  0.3624
  204SOL    HW2  612   0.437   1.670   1.673 -1.9572 -1.4368 -0.6753
  205SOL     OW  613   2.184   1.279   2.641 -0.0461  0.6698  0.2244
  205SOL    HW1  614   2.243   1.214   2.592 -2.8865 -0.3989 -1.3335
  205SOL    HW2  615   2.113   1.314   2.578  1.0528 -1.0796  0.7099
  206SOL     OW  616   0.156   1.732   2.350 -0.3500 -0.8899 -0.0821
  206SOL    HW1  617   0.223   1.811   2.369  0.2464  3.3786 -2.0869
  206SOL    HW2  618   0.124   1.688   2.436 -0.7913  2.2572 -1.3615
  207SOL     OW  619   1.150   2.909   1.401  0.2332 -0.0243  0.1478
  207SOL    HW1  620   1.217   2.926   1.474 -2.0905 -1.0359 -0.4930
  207SOL    HW2  621   1.056   2.915   1.439 -1.4521 -3.1563  0.3369
  208SOL     OW  622   0.335   2.433   1.217  0.1897  0.1643  0.8062
  208SOL    HW1  623   0.370   2.509   1.277 -1.4957 -1.2883 -3.9662
  208SOL    HW2  624   0.254   2.459   1.166 -0.7779 -0.6438  0.0973
  209SOL     OW  625   1.334   2.741   0.577  0.2967 -0.3086 -0.3669
  209SOL    HW1  626   1.293   2.672   0.513  0.7424 -0.6049 -1.7195
  209SOL    HW2  627   1.276   2.825   0.567  0.9922 -0.5531  0.9530
  210SOL     OW  628   2.701   1.317   0.958 -0.2800 -0.8521 -0.0344
  210SOL    HW1  629   2.644   1.248   0.915 -0.4225  3.0472 -0.3951
  210SOL    HW2  630   2.804   1.300   0.945  0.4773 -0.8443 -0.6663
  211SOL     OW  631   0.587   0.524   1.974 -0.1473  0.1895  0.5790
  211SOL    HW1  632   0.610   0.434   1.927  0.4467 -1.9898 -0.1623
  211SOL    HW2  633   0.660   0.596   1.962  2.5245  0.7140  0.0650
  212SOL     OW  634   1.245   2.268   1.689  0.1843 -0.0232  0.6449
  212SOL    HW1  635   1.239   2.356   1.639 -0.8627 -1.9149  0.5775
  212SOL    HW2  636   1.187   2.199   1.637 -3.0266 -2.5627 -0.4135
  213SOL     OW  637   2.962   0.259   1.814  0.2304  0.2496  0.1314
  213SOL    HW1  638   3.016   0.217   1.737 -0.0032  1.8285  0.8325
  213SOL    HW2  639   2.880   0.304   1.781  0.1982 -0.4338 -0.7138
  214SOL     OW  640   0.799   2.601   1.763  0.5214 -0.0594 -0.8159
  214SOL    HW1  641   0.744   2.599   1.854 -0.7623  0.7163 -0.7427
  214SOL    HW2  642   0.795   2.696   1.725  0.9127 -0.1167  0.6005
  215SOL     OW  643   2.446   1.834   1.484 -0.0864 -0.2295 -0.0646
  215SOL    HW1  644   2.355   1.867   1.458 -0.2200  0.7381 -1.8181
  215SOL    HW2  645   2.467   1.733   1.461  0.5754 -2.7242 -1.1133
  216SOL     OW  646   0.363   0.872   1.758  0.1968 -0.1157  0.1390
  216SOL    HW1  647   0.297   0.892   1.832 -0.2445  0.5207 -2.8947
  216SOL    HW2  648   0.335   0.934   1.683  1.3586 -0.5454 -0.3371
  217SOL     OW  649   2.669   2.984   1.215  0.5204  0.1267 -0.4659
  217SOL    HW1  650   2.673   3.085   1.233  0.7503  1.7877 -1.9759
  217SOL    HW2  651   2.749   2.945   1.167 -0.8728 -1.4304 -0.8117
  218SOL     OW  652   1.344   2.235   1.318 -0.4310 -0.3951  0.1781
  218SOL    HW1  653   1.353   2.149   1.264 -1.7589  0.3072  0.4137
  218SOL    HW2  654   1.388   2.315   1.274 -2.7301 -0.1492  1.4930
  219SOL     OW  655   1.594   2.756   0.462  0.8823 -0.4361 -0.0138
  219SOL    HW1  656   1.514   2.754   0.522 -1.7337  0.0045 -0.6844
  219SOL    HW2  657   1.570   2.726   0.365 -2.4854  0.8484 -0.6864
  220SOL     OW  658   1.644   2.556   0.147  0.3362  0.2309  0.1093
  220SOL    HW1  659   1.566   2.612   0.183  0.7703  1.4236  3.0834
  220SOL    HW2  660   1.709   2.608   0.091  1.6773  0.1531  0.6117
  221SOL     OW  661   2.585   2.134   0.730 -0.7275 -0.4709  0.4988
  221SOL    HW1  662   2.520   2.134   0.649  1.0779 -2.5164  0.0116
  221SOL    HW2  663   2.663   2.072   0.718 -1.2550  0.6616 -0.9630
  222SOL     OW  664   0.768   2.049   0.812 -0.1852 -0.4086  0.0211
  222SOL    HW1  665   0.797   2.015   0.903 -0.4273 -1.4967 -1.5340
  222SOL    HW2  666   0.726   2.139   0.812 -1.5447 -1.6237  0.4846
  223SOL     OW  667   1.153   2.813   2.647  0.0742  0.0169  0.3753
  223SOL    HW1  668   1.187   2.774   2.557 -0.2526  0.6498 -1.6609
  223SOL    HW2  669   1.076   2.766   2.695  0.2824 -0.7941  1.6622
  224SOL     OW  670   2.674   1.195   1.210  0.0824  0.1525 -0.3557
  224SOL    HW1  671   2.671   1.263   1.136 -1.5977  0.6511  0.5983
  224SOL    HW2  672   2.650   1.098   1.179  0.8824 -2.3078  1.5900
  225SOL     OW  673   2.953   1.597   0.959  0.1503 -0.1697  0.1049
  225SOL    HW1  674   3.051   1.611   0.981 -3.3649  0.8288  1.2185
  225SOL    HW2  675   2.942   1.503   0.922  1.1299  2.5940 -1.7340
  226SOL     OW  676   1.051   2.727   0.823 -0.3466  0.0824 -0.0473
  226SOL    HW1  677   1.010   2.700   0.733  1.8521  1.2608 -0.4187
  226SOL    HW2  678   1.112   2.653   0.859 -0.2683  0.6688  2.4480
  227SOL     OW  679   1.155   1.128   1.319 -0.6672 -0.2353  0.4864
  227SOL    HW1  680   1.112   1.102   1.405 -1.9730 -0.3576 -0.6281
  227SOL    HW2  681   1.088   1.151   1.245 -2.6590 -1.1160 -2.7754
  228SOL     OW  682   1.722   0.293   2.259  0.2432 -0.0654  0.3629
  228SOL    HW1  683   1.720   0.189   2.271 -3.1598 -3.1858 -0.0821
  228SOL    HW2  684   1.624   0.320   2.266 -1.3564  0.2792  2.2597
  229SOL     OW  685   2.908   0.854   2.428 -0.4370 -0.3983  0.0158
  229SOL    HW1  686   2.848   0.870   2.510 -1.1442  1.1940 -2.6085
  229SOL    HW2  687   3.007   0.862   2.442  1.7240  2.6287 -0.2747
  230SOL     OW  688   0.243   1.011   0.818  0.2240  0.2495  0.3543
  230SOL    HW1  689   0.167   1.022   0.750  1.9951  1.2287  2.1513
  230SOL    HW2  690   0.267   1.099   0.859 -0.7432 -1.6345  3.1677
  231SOL     OW  691   1.983   0.037   2.418  0.4414 -0.3836 -0.0441
  231SOL    HW1  692   2.040   3.087   2.490  4.0299  0.4850  0.8691
  231SOL    HW2  693   2.038   0.118   2.397  1.6660  0.3326  0.4851
  232SOL     OW  694   0.458   1.694   2.986 -0.3481  0.4698  0.1436
  232SOL    HW1  695   0.451   1.792   3.015  0.1848  1.5209 -3.8206
  232SOL    HW2  696   0.368   1.644   2.991  1.8515 -0.5797 -0.6136
  233SOL     OW  697   1.266   2.579   2.964 -0.0691 -0.2428 -0.1481
  233SOL    HW1  698   1.327   2.519   3.022 -0.0310 -1.6839  0.2732
  233SOL    HW2  699   1.321   2.616   2.889 -2.3321  1.5000 -0.8922
  234SOL     OW  700   0.998   1.373   2.005 -0.1422  0.6380 -0.0563
  234SOL    HW1  701   1.097   1.339   2.013  0.6187 -0.7680 -1.2488
  234SOL    HW2  702   0.936   1.295   1.973 -0.7522  0.3912  1.2555
  235SOL     OW  703   3.069   1.863   1.663 -0.6331 -0.3905 -0.1640
  235SOL    HW1  704   3.027   1.779   1.618 -0.3915 -2.2961 -3.4271
  235SOL    HW2  705   0.059   1.843   1.703  1.0692 -0.0953 -1.6854
  236SOL     OW  706   1.574   2.298   2.720  0.4485 -0.0776 -0.6266
  236SOL    HW1  707   1.488   2.293   2.769  1.1358  2.7927 -2.5897
  236SOL    HW2  708   1.652   2.323   2.779 -1.9759  2.3151 -0.3201
  237SOL     OW  709   1.610   0.481   0.926 -0.3499  0.0278  0.1822
  237SOL    HW1  710   1.701   0.440   0.890  2.0155 -1.7497 -1.8686
  237SOL    HW2  711   1.533   0.476   0.858 -0.3213 -0.2711  2.0943
  238SOL     OW  712   1.124   0.351   2.387  0.3684  0.0126  0.2521
  238SOL    HW1  713   1.052   0.309   2.328 -1.7464 -0.3442  1.5798
  238SOL    HW2  714   1.218   0.312   2.374  0.2934 -0.7690 -1.3449
  239SOL     OW  715   0.768   2.855   1.684 -0.0499  0.5062  0.1870
  239SOL    HW1  716   0.686   2.908   1.712  0.0302  1.5372 -0.7498
  239SOL    HW2  717   0.826   2.908   1.620 -1.0367  0.3176 -2.5717
  240SOL     OW  718   2.331   2.706   0.858 -0.2630  0.2485 -0.3274
  240SOL    HW1  719   2.241   2.684   0.894 -2.1223  3.1880 -0.9124
  240SOL    HW2  720   2.332   2.762   0.772 -0.9443  0.1697 -1.9071
  241SOL     OW  721   1.014   1.439   1.739 -0.4786 -0.1994 -0.6397
  241SOL    HW1  722   0.918   1.461   1.712 -2.1782 -3.3360 -1.3348
  241SOL    HW2  723   1.019   1.424   1.840  0.9716 -1.2966  0.5906
  242SOL     OW  724   2.782   0.775   0.623 -0.1406 -0.5166 -0.2390
  242SOL    HW1  725   2.826   0.814   0.539 -1.9643 -0.6951  2.2663
  242SOL    HW2  726   2.806   0.680   0.628  0.4697  6.0114 -1.4096
  243SOL     OW  727   0.821   0.600   1.278 -0.3871 -0.7156 -0.1538
  243SOL    HW1  728   0.864   0.692   1.315  1.8474  3.6640 -0.0734
  243SOL    HW2  729   0.873   0.564   1.199 -3.1251 -0.1592 -2.4294
  244SOL     OW  730   1.161   0.427   3.073 -0.3347  0.0573  0.4566
  244SOL    HW1  731   1.065   0.440   3.098  1.3474 -0.7574 -0.3667
  244SOL    HW2  732   1.180   0.459   2.974  0.0942  1.7605  1.2464
  245SOL     OW  733   2.279   0.560   2.912  0.3147  0.3106  0.3237
  245SOL    HW1  734   2.333   0.527   2.829  1.4251  0.1948  3.8889
  245SOL    HW2  735   2.295   0.497   2.993  0.7812 -5.0499  1.2577
  246SOL     OW  736   0.927   0.823   1.385 -0.2718  0.0918  0.1838
  246SOL    HW1  737   0.922   0.858   1.481 -2.0047 -0.2854  0.3633
  246SOL    HW2  738   1.022   0.793   1.367 -1.0885  2.3314  1.2174
  247SOL     OW  739   0.618   2.850   2.116 -1.0964 -0.2207 -0.5657
  247SOL    HW1  740   0.526   2.894   2.099  0.5091 -1.9214 -0.1064
  247SOL    HW2  741   0.685   2.900   2.063  2.3423 -1.1181 -0.9392
  248SOL     OW  742   0.117   1.572   1.880 -0.1154 -0.3031  0.6900
  248SOL    HW1  743   0.031   1.572   1.820 -0.8003  0.4860  1.2783
  248SOL    HW2  744   0.151   1.667   1.892  0.3732  3.0404  0.3183
  249SOL     OW  745   0.080   3.032   2.881  0.2375 -0.1691 -0.1226
  249SOL    HW1  746   0.107   3.054   2.783 -2.5968  2.1696  0.7334
  249SOL    HW2  747   0.135   3.093   2.938 -1.1679  0.3609 -2.0600
  250SOL     OW  748   2.879   0.198   0.302  0.1291 -0.1828 -0.1873
  250SOL    HW1  749   2.882   0.108   0.353 -0.7666 -2.3518  1.0029
  250SOL    HW2  750   2.856   0.179   0.206 -1.4232  0.6208 -0.8702
  251SOL     OW  751   0.692   1.282   1.013  0.1256  0.1795 -0.6432
  251SOL    HW1  752   0.784   1.271   0.972  0.0364 -0.4634  1.3952
  251SOL    HW2  753   0.632   1.345   0.961 -1.3074  0.0677  0.7883
  252SOL     OW  754   1.558   3.001   1.490  0.2937  0.3445 -0.0204
  252SOL    HW1  755   1.578   3.071   1.556  1.0104 -0.0208 -1.0881
  252SOL    HW2  756   1.461   3.011   1.462  1.9455 -1.1220  1.9635
  253SOL     OW  757   2.119   2.094   2.732 -0.3497  0.3977  0.3209
  253SOL    HW1  758   2.200   2.102   2.799  2.8009  1.6165  0.8877
  253SOL    HW2  759   2.065   2.007   2.749 -1.0547 -1.1232  1.2804
  254SOL     OW  760   0.217   1.832   1.844  0.1273  0.2322  0.0591
  254SOL    HW1  761   0.290   1.813   1.771 -3.1225  0.0692  0.8398
  254SOL    HW2  762   0.246   1.898   1.912 -0.2766 -1.8623 -0.1942
  255SOL     OW  763   0.871   2.966   1.455  0.1462  0.1519 -0.0844
  255SOL    HW1  764   0.818   2.968   1.371  0.0106  1.3266  2.7186
  255SOL    HW2  765   0.896   3.061   1.485 -0.4787  0.4079 -0.4373
  256SOL     OW  766   2.297   2.275   1.108  0.0272 -0.1469  0.3303
  256SOL    HW1  767   2.371   2.220   1.060  0.2196  0.2339  2.3143
  256SOL    HW2  768   2.239   2.322   1.037 -2.5849 -0.3954  3.2749
  257SOL     OW  769   0.460   2.234   3.025  0.6092 -0.2342 -0.7050
  257SOL    HW1  770   0.488   2.253   0.025 -0.5744 -1.4425  0.6590
  257SOL    HW2  771   0.516   2.289   2.968 -1.6426  0.3873  2.7715
  258SOL     OW  772   0.865   2.042   2.596  0.3249  0.6233 -0.1963
  258SOL    HW1  773   0.833   2.080   2.685 -0.2781  2.7667  1.3594
  258SOL    HW2  774   0.864   1.941   2.600  1.3390 -2.0862 -1.0425
  259SOL     OW  775   0.854   1.764   2.626 -0.5725  0.7416  0.1059
  259SOL    HW1  776   0.836   1.730   2.534  1.7164 -2.3002  1.9070
  259SOL    HW2  777   0.794   1.725   2.698 -1.0075 -1.6947 -3.8543
  260SOL     OW  778   2.278   1.423   2.094 -0.1464 -0.3827 -0.0300
  260SOL    HW1  779   2.251   1.505   2.040 -0.3205 -0.3785  0.0267
  260SOL    HW2  780   2.205   1.383   2.153  1.8842  0.8779 -0.0805
  261SOL     OW  781   1.392   0.793   0.840 -0.1563  0.3608 -0.3963
  261SOL    HW1  782   1.330   0.716   0.811 -1.1539  0.4984  0.2220
  261SOL    HW2  783   1.345   0.871   0.885  3.6118 -1.4686 -0.5387
  262SOL     OW  784   1.704   2.160   2.504 -0.4367 -0.2216 -0.7342
  262SOL    HW1  785   1.806   2.174   2.516 -0.4967 -0.4449 -1.0106
  262SOL    HW2  786   1.651   2.208   2.579  0.7841 -0.2446  0.0100
  263SOL     OW  787   0.212   1.564   2.993 -0.4829  0.4764  0.1001
  263SOL    HW1  788   0.210   1.523   3.087 -0.5110  0.7398 -1.5946
  263SOL    HW2  789   0.144   1.518   2.931 -2.6163 -1.0074  0.7502
  264SOL     OW  790   0.401   2.009   1.009 -0.4251  0.4841  0.2747
  264SOL    HW1  791   0.405   2.096   0.957 -2.5017  0.1383  0.2013
  264SOL    HW2  792   0.365   2.017   1.108  1.2154 -1.2096 -2.3433
  265SOL     OW  793   0.820   1.230   3.082 -0.3457 -0.1131  0.1108
  265SOL    HW1  794   0.859   1.175   0.059 -0.5498  0.6625  0.8217
  265SOL    HW2  795   0.829   1.330   3.100 -0.5676 -0.6925 -0.1463
  266SOL     OW  796   1.350   1.793   3.002 -0.1294 -0.1819  0.2982
  266SOL    HW1  797   1.324   1.770   3.097  1.4499 -3.4134 -0.5465
  266SOL    HW2  798   1.269   1.796   2.937  0.4292 -0.1299 -0.5593
  267SOL     OW  799   0.907   0.853   2.109  0.1006 -0.3108 -0.2552
  267SOL    HW1  800   0.938   0.764   2.147  2.9658 -1.8631 -3.6750
  267SOL    HW2  801   0.942   0.937   2.161 -0.6492  0.8436  1.7095
  268SOL     OW  802   0.405   0.769   2.615 -0.4835  0.5822  0.1387
  268SOL    HW1  803   0.469   0.700   2.569  0.8835 -1.9776  0.1856
  268SOL    HW2  804   0.459   0.826   2.677 -2.7760  2.4212  1.0006
  269SOL     OW  805   1.897   2.794   2.632 -0.0897 -0.6966 -0.0873
  269SOL    HW1  806   1.899   2.771   2.533 -2.5614  0.0184 -1.3580
  269SOL    HW2  807   1.847   2.721   2.684  1.4336 -1.2013  1.6107
  270SOL     OW  808   0.998   1.548   2.360 -0.1187 -0.0988 -0.1781
  270SOL    HW1  809   0.969   1.481   2.432  0.2531 -2.1749  1.8767
  270SOL    HW2  810   0.913   1.604   2.335 -2.2161  0.7500 -0.5413
  271SOL     OW  811   0.203   0.151   3.011 -0.1379  0.1846  0.1810
  271SOL    HW1  812   0.287   0.207   3.019 -2.7349 -1.0789  0.2949
  271SOL    HW2  813   0.190   0.099   3.101  0.1337 -2.1330  1.1715
  272SOL     OW  814   2.346   0.628   0.564 -0.1271  0.2153  0.8865
  272SOL    HW1  815   2.327   0.528   0.548  0.0132  0.4605 -0.8047
  272SOL    HW2  816   2.403   0.657   0.492 -2.9812  2.3424  3.9718
  273SOL     OW  817   0.177   0.048   2.025 -0.7055  0.2578 -0.4770
  273SOL    HW1  818   0.110   3.100   1.968  1.5830 -0.1549  0.2378
  273SOL    HW2  819   0.209   0.132   1.982  2.1392 -1.0544  0.9140
  274SOL     OW  820   2.835   0.278   2.143 -0.1075 -0.4375 -0.1562
  274SOL    HW1  821   2.897   0.331   2.206  0.1716  0.6059  2.7479
  274SOL    HW2  822   2.829   0.329   2.051  2.8952 -0.2067 -2.6958
  275SOL     OW  823   1.537   1.742   0.673 -0.2093  0.3306 -0.0644
  275SOL    HW1  824   1.557   1.648   0.706  1.1599 -2.7504  0.1822
  275SOL    HW2  825   1.500   1.744   0.577 -0.0221  0.6822 -1.3994
  276SOL     OW  826   0.596   1.030   1.882  0.5884 -0.2879 -0.5158
  276SOL    HW1  827   0.631   0.936   1.899  0.4784 -1.2398 -0.8397
  276SOL    HW2  828   0.537   1.068   1.955  0.9228 -0.5992  3.5835
  277SOL     OW  829   1.552   2.580   2.157 -0.2553 -0.3056  0.5595
  277SOL    HW1  830   1.463   2.600   2.205  0.0061 -0.2212 -0.8152
  277SOL    HW2  831   1.605   2.665   2.125  1.6260  2.5778 -3.7436
  278SOL     OW  832   1.984   2.707   2.367 -0.0821 -0.3806 -0.1543
  278SOL    HW1  833   1.969   2.617   2.317 -2.5572  2.1285  0.1029
  278SOL    HW2  834   2.083   2.732   2.389 -0.8356 -1.0697 -1.1254
  279SOL     OW  835   1.928   1.269   0.255  0.8132 -0.2648  0.0079
  279SOL    HW1  836   1.861   1.345   0.259 -3.9152  1.5649  0.1744
  279SOL    HW2  837   1.929   1.231   0.160 -1.6012 -2.8120 -3.2496
  280SOL     OW  838   0.875   1.484   0.053 -0.4931 -0.1188  0.0117
  280SOL    HW1  839   0.824   1.559   0.102 -0.8593  0.1733 -1.1120
  280SOL    HW2  840   0.897   1.508   3.059  0.5557  0.3803  1.0968
  281SOL     OW  841   3.065   0.105   1.619  0.0146 -0.7284 -0.1617
  281SOL    HW1  842   0.019   0.021   1.628  1.0498  1.3130 -0.7403
  281SOL    HW2  843   2.973   0.085   1.570 -5.3095  1.1288 -1.9584
  282SOL     OW  844   2.932   2.473   0.817 -0.3860 -0.2204  0.2541
  282SOL    HW1  845   3.007   2.493   0.754 -1.1518 -1.3430  0.0140
  282SOL    HW2  846   2.847   2.496   0.767  0.9386  0.0432  1.0800
  283SOL     OW  847   1.586   1.855   2.190 -0.6222  0.0527  0.0058
  283SOL    HW1  848   1.574   1.947   2.231 -0.3672 -1.9397 -1.2764
  283SOL    HW2  849   1.503   1.828   2.139  0.7058 -0.5348  2.2597
  284SOL     OW  850   1.668   0.114   0.406 -0.1440 -0.3453  0.3441
  284SOL    HW1  851   1.700   0.156   0.325  0.6626  1.0697  3.9414
  284SOL    HW2  852   1.625   0.186   0.460  0.2264  0.3667 -0.7317
  285SOL     OW  853   0.072   2.559   2.622  0.1119  0.1994  0.1510
  285SOL    HW1  854   0.002   2.575   2.547  0.8783 -1.4182 -1.7564
  285SOL    HW2  855   0.103   2.460   2.610  3.5068 -0.9669 -0.0602
  286SOL     OW  856   2.766   2.631   1.452 -0.2648 -0.5089  0.0606
  286SOL    HW1  857   2.740   2.715   1.500  0.6204 -4.3458 -1.1960
  286SOL    HW2  858   2.765   2.554   1.518 -0.5772 -0.7413 -1.4003
  287SOL     OW  859   0.513   1.370   0.813 -0.0560  0.4202 -0.3829
  287SOL    HW1  860   0.417   1.330   0.824 -0.8413 -1.9454  1.2423
  287SOL    HW2  861   0.504   1.471   0.795  0.1382  1.0283  0.8229
  288SOL     OW  862   2.279   1.779   2.929 -0.3950  0.3333  0.2847
  288SOL    HW1  863   2.286   1.819   2.837 -1.1656 -0.2896 -0.3148
  288SOL    HW2  864   2.356   1.710   2.951  2.8533 -1.3476  0.2023
  289SOL     OW  865   0.197   1.833   2.854  0.5867  0.0007  0.0379
  289SOL    HW1  866   0.096   1.843   2.820 -3.0839 -1.2015 -3.3731
  289SOL    HW2  867   0.193   1.752   2.909 -0.8661  3.3179 -0.7869
  290SOL     OW  868   1.142   1.699   1.179  0.1018  0.3266 -0.1755
  290SOL    HW1  869   1.217   1.627   1.176  1.2645 -1.9587  0.6460
  290SOL    HW2  870   1.147   1.767   1.103  0.4904  0.7580  2.4143
  291SOL     OW  871   1.718   0.983   2.948  0.0143 -0.3064  0.1287
  291SOL    HW1  872   1.656   0.917   2.898 -0.8620 -1.9027 -0.5608
  291SOL    HW2  873   1.710   0.971   3.050 -1.9566 -2.0139  1.9833
  292SOL     OW  874   1.145   1.396   0.461  0.1425  0.3510  0.1069
  292SOL    HW1  875   1.089   1.430   0.539  3.0909 -0.8127  0.0672
  292SOL    HW2  876   1.241   1.390   0.492 -0.4600 -0.9757  0.4774
  293SOL     OW  877   1.404   2.772   1.073  0.6257 -0.2043 -0.5193
  293SOL    HW1  878   1.494   2.745   1.106 -0.2379  0.1365  0.5364
  293SOL    HW2  879   1.391   2.747   0.975 -0.7056 -2.3671 -2.4178
  294SOL     OW  880   2.444   1.299   3.036 -0.1960  0.3259  0.0570
  294SOL    HW1  881   2.363   1.258   2.987 -0.9228 -2.9857 -1.0215
  294SOL    HW2  882   2.532   1.294   2.983 -1.5533 -1.3915 -0.1014
  295SOL     OW  883   1.546   2.090   2.301  0.5770 -0.0131 -0.9550
  295SOL    HW1  884   1.596   2.108   2.392 -1.1030 -2.8233 -0.9622
  295SOL    HW2  885   1.537   2.170   2.242  0.0532 -1.5857  0.7609
  296SOL     OW  886   1.976   0.443   1.943 -0.0464 -0.3872 -0.5042
  296SOL    HW1  887   2.000   0.520   2.008  1.3474  2.1344 -0.1785
  296SOL    HW2  888   1.891   0.454   1.885 -2.2617 -0.7739  0.4329
  297SOL     OW  889   0.047   0.709   2.084  0.7179  0.5062 -0.2082
  297SOL    HW1  890   3.097   0.660   2.161 -0.7302 -1.7053  1.8458
  297SOL    HW2  891   0.026   0.659   1.995 -1.2208 -1.0233  0.6887
  298SOL     OW  892   1.028   2.488   1.855 -0.1119  0.0390 -0.1035
  298SOL    HW1  893   0.948   2.547   1.830  2.1478 -0.4418  1.3233
  298SOL    HW2  894   1.000   2.396   1.889  1.8770  0.9275 -0.3951
  299SOL     OW  895   1.394   2.683   2.760 -0.3431  0.1884  0.5190
  299SOL    HW1  896   1.468   2.751   2.752  1.0823 -1.0699  0.5644
  299SOL    HW2  897   1.306   2.721   2.734  2.7737  0.0403  1.0909
  300SOL     OW  898   3.075   1.089   2.936  0.2000  0.6131 -0.0308
  300SOL    HW1  899   2.988   1.082   2.886 -0.0714  1.2033 -2.5222
  300SOL    HW2  900   0.030   1.008   2.910  1.2829  0.8414 -0.9649
  301SOL     OW  901   1.840   1.127   1.766  0.5510  0.0780  0.3412
  301SOL    HW1  902   1.819   1.029   1.773  1.7402 -3.2420 -1.6356
  301SOL    HW2  903   1.804   1.161   1.851  0.2516 -0.9597 -2.2271
  302SOL     OW  904   2.410   1.923   2.397 -0.2793 -0.1636 -0.1393
  302SOL    HW1  905   2.399   1.869   2.311  0.4530 -3.8712 -0.0155
  302SOL    HW2  906   2.325   1.970   2.427  0.2381  0.4278 -0.4995
  303SOL     OW  907   0.420   2.466   2.033 -0.3716 -0.0229 -0.1913
  303SOL    HW1  908   0.379   2.556   2.033  0.6132 -1.7553  0.5447
  303SOL    HW2  909   0.382   2.406   1.956 -0.3146 -0.0447 -0.6862
  304SOL     OW  910   3.052   0.776   1.190  0.6679  0.2341 -0.2748
  304SOL    HW1  911   0.040   0.742   1.151  0.1707 -1.4715  1.9245
  304SOL    HW2  912   3.027   0.712   1.267 -0.3069  0.2369 -0.1270
  305SOL     OW  913   2.763   0.823   1.782 -0.0170  0.0238 -0.4052
  305SOL    HW1  914   2.802   0.733   1.799 -1.7032  1.0018  0.8691
  305SOL    HW2  915   2.832   0.901   1.788 -0.9934 -1.7686  0.0410
  306SOL     OW  916   2.340   1.282   1.536 -0.1491 -0.1812 -0.1148
  306SOL    HW1  917   2.258   1.250   1.586  1.8214 -0.1032 -0.3403
  306SOL    HW2  918   2.393   1.342   1.601 -1.4390  0.9359 -1.2217
  307SOL     OW  919   2.484   0.096   0.989  0.0612 -0.4747 -0.3253
  307SOL    HW1  920   2.559   0.149   0.937  1.4133 -1.0897  1.4594
  307SOL    HW2  921   2.490   3.097   0.972  0.0123  0.4881 -0.1330
  308SOL     OW  922   2.906   1.738   1.458  0.3003  0.0466  0.3793
  308SOL    HW1  923   2.894   1.722   1.356 -0.8450  1.8709  0.5442
  308SOL    HW2  924   2.843   1.813   1.494 -4.4247 -0.3672  0.5426
  309SOL     OW  925   2.306   2.288   1.615 -0.6221 -0.4748 -0.5269
  309SOL    HW1  926   2.327   2.383   1.591 -2.4793 -0.2700 -2.0394
  309SOL    HW2  927   2.323   2.280   1.716  1.1509  1.5731  1.8035
  310SOL     OW  928   2.188   1.502   2.801  0.1270  0.3554  0.2725
  310SOL    HW1  929   2.242   1.580   2.766  0.4568 -0.5998  0.7377
  310SOL    HW2  930   2.186   1.430   2.730 -0.0255  0.9904 -1.2412
  311SOL     OW  931   1.925   1.201   3.071 -0.1215 -0.1624 -0.0872
  311SOL    HW1  932   1.871   1.127   3.040 -0.8831  4.0434 -0.9997
  311SOL    HW2  933   1.923   1.280   3.006  0.5701 -1.5536  1.2761
  312SOL     OW  934   1.000   2.323   2.253 -0.4580  0.4496  0.3410
  312SOL    HW1  935   0.934   2.252   2.277 -0.3393 -2.3290 -3.6372
  312SOL    HW2  936   0.957   2.416   2.234  1.4535  1.2999  1.0819
  313SOL     OW  937   0.434   0.426   0.772  0.4938 -0.7368 -0.2332
  313SOL    HW1  938   0.377   0.500   0.733  2.2083  0.1544 -2.6223
  313SOL    HW2  939   0.379   0.356   0.823  0.3834  1.1645  2.7092
  314SOL     OW  940   0.608   1.856   1.076 -0.1591  0.3884 -0.2640
  314SOL    HW1  941   0.588   1.800   1.158 -1.8563 -1.0128  2.8338
  314SOL    HW2  942   0.529   1.915   1.051 -2.5492  0.2747 -3.5253
  315SOL     OW  943   0.572   2.257   2.123 -0.5323  0.4811  0.4738
  315SOL    HW1  944   0.579   2.209   2.032 -2.6579 -1.6393  1.1833
  315SOL    HW2  945   0.517   2.343   2.113  0.7147 -0.1207 -1.4531
  316SOL     OW  946   3.083   2.009   0.921 -0.1489 -0.7033 -0.0352
  316SOL    HW1  947   3.068   2.073   1.001  4.0518  1.7565  3.0583
  316SOL    HW2  948   0.035   1.928   0.949 -0.3449 -0.3602 -1.2563
  317SOL     OW  949   1.923   0.660   0.628 -0.2399  0.0894  0.1660
  317SOL    HW1  950   1.943   0.753   0.668 -2.2002 -2.0045 -2.2447
  317SOL    HW2  951   2.012   0.609   0.618  0.0986 -0.8916 -2.0011
  318SOL     OW  952   2.253   2.441   0.003 -0.2938 -0.8649 -0.2910
  318SOL    HW1  953   2.350   2.471   0.003 -2.6193  1.2495  1.5037
  318SOL    HW2  954   2.227   2.412   0.095 -0.3800 -1.0116 -0.7409
  319SOL     OW  955   1.656   1.799   3.031  0.2176  0.2704 -0.7958
  319SOL    HW1  956   1.559   1.810   3.063 -0.5760 -3.3470  1.2994
  319SOL    HW2  957   1.706   1.884   3.009 -1.3762  0.6463 -0.7606
  320SOL     OW  958   0.692   2.629   2.669  0.2927  0.0145  0.1560
  320SOL    HW1  959   0.709   2.566   2.591  0.4751 -0.5062  0.1940
  320SOL    HW2  960   0.703   2.579   2.761 -2.1499  0.9346 -1.0036
  321SOL     OW  961   0.808   2.697   2.985  0.2870  0.2718 -0.1512
  321SOL    HW1  962   0.887   2.652   2.945  1.0042  1.1565 -0.1075
  321SOL    HW2  963   0.821   2.796   2.995 -1.4858 -0.4294 -1.4482
  322SOL     OW  964   2.389   0.480   2.261 -0.4425  0.4417 -0.0299
  322SOL    HW1  965   2.433   0.384   2.258 -0.0242 -3.6618 -1.1110
  322SOL    HW2  966   2.341   0.502   2.345  1.6739 -3.0831 -0.8715
  323SOL     OW  967   2.898   1.007   0.750  0.2527 -0.1348 -0.1250
  323SOL    HW1  968   2.934   0.981   0.845  1.2231 -1.4670  1.8818
  323SOL    HW2  969   2.843   0.929   0.710 -2.6720 -3.6785 -2.3264
  324SOL     OW  970   0.307   0.731   2.221 -0.0734  0.6665 -0.2568
  324SOL    HW1  971   0.258   0.721   2.132  0.9931  0.8676  1.1562
  324SOL    HW2  972   0.390   0.670   2.209  1.1550 -1.2343  0.0891
  325SOL     OW  973   0.396   3.023   2.139 -0.0311 -0.4983 -0.1507
  325SOL    HW1  974   0.443   3.094   2.195  0.1313  0.3234 -0.6993
  325SOL    HW2  975   0.322   3.064   2.079 -1.0562 -0.4650 -2.5807
  326SOL     OW  976   2.691   2.415   0.149  0.5636 -0.2402 -0.5509
  326SOL    HW1  977   2.765   2.392   0.081  0.8398  0.1168 -1.3854
  326SOL    HW2  978   2.713   2.381   0.244  2.3987 -0.3399  1.4051
  327SOL     OW  979   2.228   1.262   0.624 -0.3091  0.0447  0.5202
  327SOL    HW1  980   2.171   1.312   0.687  1.3140 -1.4457  0.8280
  327SOL    HW2  981   2.276   1.328   0.560  1.9718  1.7605  0.3988
  328SOL     OW  982   3.062   1.877   2.181 -0.0359 -0.1405 -0.0629
  328SOL    HW1  983   0.043   1.845   2.229 -1.6915 -0.2105  1.2094
  328SOL    HW2  984   3.056   1.832   2.090  0.5744 -0.7992  0.4355
  329SOL     OW  985   3.018   2.314   1.480  0.7180 -0.0846  0.4178
  329SOL    HW1  986   3.057   2.287   1.393 -0.0191 -1.2933 -0.5134
  329SOL    HW2  987   3.006   2.235   1.546 -0.5182 -1.3934  1.0961
  330SOL     OW  988   2.538   1.282   2.426 -0.8857  0.1452  0.0944
  330SOL    HW1  989   2.467   1.213   2.453 -1.2484  0.3856  0.1201
  330SOL    HW2  990   2.494   1.358   2.375  1.0247 -1.5347 -1.1355
  331SOL     OW  991   2.454   2.485   0.841  0.0572  0.0385 -0.0115
  331SOL    HW1  992   2.413   2.397   0.862  4.9300  1.9704  0.5986
  331SOL    HW2  993   2.385   2.562   0.830 -0.5724  1.9348  1.4136
  332SOL     OW  994   0.669   2.910   0.826  0.8242  0.2236 -0.1227
  332SOL    HW1  995   0.638   2.935   0.734 -0.4905  0.2442 -0.0009
  332SOL    HW2  996   0.608   2.960   0.896 -1.1360  1.7319 -1.4936
  333SOL     OW  997   2.221   2.750   2.476  0.0352 -0.3319 -0.9324
  333SOL    HW1  998   2.219   2.681   2.553  1.6859 -0.2246  1.4040
  333SOL    HW2  999   2.210   2.844   2.513 -2.6955  2.9841  2.9437
  334SOL     OW 1000   0.905   1.076   0.199  0.3618  0.1119  0.3438
  334SOL    HW1 1001   0.915   1.105   0.293 -0.5812  0.2812 -1.3396
  334SOL    HW2 1002   0.821   1.018   0.180  1.0446  0.7749  2.2762
  335SOL     OW 1003   0.112   2.136   1.984 -0.1858 -0.2624  0.1546
  335SOL    HW1 1004   0.199   2.087   1.984  1.7069  0.7828 -1.3863
  335SOL    HW2 1005   0.099   2.192   2.067 -2.6128 -0.7063  0.5430
  336SOL     OW 1006   2.934   2.951   2.435  0.3482  0.1738  0.1545
  336SOL    HW1 1007   3.020   2.948   2.378  0.5954 -0.5178 -0.2286
  336SOL    HW2 1008   2.861   2.997   2.386 -0.6436  0.2193 -1.9608
  337SOL     OW 1009   1.182   1.242   0.960  0.4019  0.0227 -0.3941
  337SOL    HW1 1010   1.205   1.338   0.932  0.8541  2.2357 -2.2103
  337SOL    HW2 1011   1.106   1.239   1.029  0.5822 -2.1256 -0.5478
  338SOL     OW 1012   1.094   1.937   1.013  0.2405 -0.0161 -0.0448
  338SOL    HW1 1013   1.133   2.006   0.955 -0.7992 -2.6511 -0.9010
  338SOL    HW2 1014   1.007   1.975   1.058 -3.8662 -0.7525 -1.3599
  339SOL     OW 1015   0.073   1.367   1.573  0.2648 -0.2240 -0.1446
  339SOL    HW1 1016   0.031   1.287   1.525 -2.0270 -1.7109  0.6756
  339SOL    HW2 1017   0.005   1.416   1.633 -1.2269  3.6125 -0.8246
  340SOL     OW 1018   1.434   2.956   2.092  0.0773 -0.2968  0.1066
  340SOL    HW1 1019   1.515   2.894   2.088  2.1691  0.6385 -1.4383
  340SOL    HW2 1020   1.350   2.916   2.135  0.1160  0.5787 -0.4810
  341SOL     OW 1021   1.728   1.614   1.282  0.3326  0.1625  0.0406
  341SOL    HW1 1022   1.697   1.520   1.310  2.1847  1.2972  2.5990
  341SOL    HW2 1023   1.800   1.609   1.212 -5.4534 -0.7536  2.2115
  342SOL     OW 1024   2.989   1.330   0.894 -0.0571 -0.1394  0.2314
  342SOL    HW1 1025   3.039   1.335   0.803  1.8892  0.0874 -1.0936
  342SOL    HW2 1026   3.050   1.307   0.974 -0.3167 -1.3571  0.8060
  343SOL     OW 1027   3.018   0.479   1.573 -0.7261 -0.2609 -0.4499
  343SOL    HW1 1028   3.077   0.558   1.553 -1.3434  0.1326 -0.7663
  343SOL    HW2 1029   3.040   0.405   1.506  1.6199  1.6320  2.3015
  344SOL     OW 1030   1.687   0.142   1.142 -0.0218  0.3316 -0.0949
  344SOL    HW1 1031   1.785   0.172   1.123  0.0695  1.3267  0.3320
  344SOL    HW2 1032   1.642   0.215   1.198 -0.5732  1.1433  0.4876
  345SOL     OW 1033   0.527   3.007   2.518 -0.6042  0.1283 -0.0820
  345SOL    HW1 1034   0.607   2.972   2.577  1.0677  0.7712  3.0473
  345SOL    HW2 1035   0.557   3.085   2.463 -0.5181  0.5288 -0.0700
  346SOL     OW 1036   2.607   1.503   0.418 -0.2702 -0.0776  0.5582
  346SOL    HW1 1037   2.606   1.532   0.318  0.6611 -2.0273  3.1139
  346SOL    HW2 1038   2.554   1.574   0.472  2.8519 -1.3620 -1.0511
  347SOL     OW 1039   2.498   0.160   1.958 -0.4299 -0.8208  0.6015
  347SOL    HW1 1040   2.532   0.074   1.917 -1.1008  0.3498 -0.3569
  347SOL    HW2 1041   2.395   0.167   1.945 -0.7824  0.6259 -2.3820
  348SOL     OW 1042   1.229   1.279   1.686  0.0829  0.8652 -0.1338
  348SOL    HW1 1043   1.181   1.206   1.640  1.0267  3.4145  1.5951
  348SOL    HW2 1044   1.159   1.349   1.713 -2.2910 -0.5009 -0.9232
  349SOL     OW 1045   2.518   0.931   1.787 -0.1124  0.2718  0.0674
  349SOL    HW1 1046   2.613   0.890   1.792 -1.5066  2.6675 -0.2546
  349SOL    HW2 1047   2.494   0.953   1.688 -0.7911  2.6598 -0.3842
  350SOL     OW 1048   2.172   2.138   0.108 -0.2028 -0.0014 -0.1016
  350SOL    HW1 1049   2.214   2.207   0.173 -1.2541 -1.0113 -0.9536
  350SOL    HW2 1050   2.224   2.049   0.106 -1.5375 -0.8125  0.0286
  351SOL     OW 1051   0.780   0.204   2.061  0.2411 -0.0793  0.1896
  351SOL    HW1 1052   0.837   0.281   2.105 -1.3136  2.1575  0.6357
  351SOL    HW2 1053   0.703   0.236   2.005  2.4977  0.2020 -0.2699
  352SOL     OW 1054   2.014   2.790   1.795  0.8397  0.3589 -0.8123
  352SOL    HW1 1055   2.086   2.786   1.866  0.2859  0.9596  1.1866
  352SOL    HW2 1056   1.928   2.743   1.825 -1.2813  1.6697  0.1332
  353SOL     OW 1057   0.621   0.868   2.290 -0.0257  0.2464 -0.2627
  353SOL    HW1 1058   0.654   0.937   2.221 -2.4759 -0.6567 -0.5023
  353SOL    HW2 1059   0.652   0.889   2.381  0.5626  0.8490 -1.4493
  354SOL     OW 1060   0.821   1.853   3.050  0.0677  0.3742  0.1943
  354SOL    HW1 1061   0.895   1.912   3.019 -1.1353  1.3067 -0.0725
  354SOL    HW2 1062   0.737   1.881   3.001  0.5593 -1.2964 -2.3010
  355SOL     OW 1063   1.622   2.683   1.189  0.3484  0.1750  0.4057
  355SOL    HW1 1064   1.662   2.679   1.093  0.1402 -0.8529 -1.0682
  355SOL    HW2 1065   1.693   2.715   1.256  1.9076  1.0717 -0.9280
  356SOL     OW 1066   2.338   0.949   0.312  0.2015 -0.4309 -0.0628
  356SOL    HW1 1067   2.426   1.004   0.318  0.8273  0.1869 -0.7383
  356SOL    HW2 1068   2.275   0.979   0.388 -3.3423 -1.7927 -2.7038
  357SOL     OW 1069   3.097   0.177   2.176 -0.2914 -0.3474 -0.4753
  357SOL    HW1 1070   0.068   0.114   2.143  0.6649  0.0993  1.0269
  357SOL    HW2 1071   3.010   0.129   2.168  0.3359 -0.3044  1.9763
  358SOL     OW 1072   0.085   1.343   0.701 -0.1538 -0.0376  0.6363
  358SOL    HW1 1073   0.078   1.277   0.624 -3.5127 -0.6872 -0.1821
  358SOL    HW2 1074   0.090   1.440   0.665  0.2554 -1.3955  1.9381
  359SOL     OW 1075   2.754   0.185   2.843  0.2391 -0.0346  0.8110
  359SOL    HW1 1076   2.832   0.225   2.791  2.0267  1.3937  1.1032
  359SOL    HW2 1077   2.756   0.079   2.842 -0.8803 -0.9316 -1.3141
  360SOL     OW 1078   1.386   0.950   1.232 -0.1894 -0.2023  0.1018
  360SOL    HW1 1079   1.475   0.900   1.269  1.1113 -0.5812 -1.3755
  360SOL    HW2 1080   1.351   1.018   1.296  1.3860 -1.8617 -0.7932
  361SOL     OW 1081   2.632   2.542   1.236 -0.2927 -0.2910 -0.3546
  361SOL    HW1 1082   2.685   2.588   1.308 -2.4526  0.6716 -2.5090
  361SOL    HW2 1083   2.535   2.523   1.265 -0.5842 -0.3868 -1.3906
  362SOL     OW 1084   1.198   0.622   0.780 -0.2415 -0.3254 -0.3181
  362SOL    HW1 1085   1.122   0.606   0.712  1.4658 -1.2650 -0.7127
  362SOL    HW2 1086   1.173   0.694   0.853 -1.3893 -0.8442  0.4575
  363SOL     OW 1087   1.968   1.732   0.685  0.6058  0.0691  0.0650
  363SOL    HW1 1088   2.046   1.690   0.639  0.0479  1.6196 -0.7000
  363SOL    HW2 1089   1.896   1.766   0.623  0.2671 -0.8641 -2.3442
  364SOL     OW 1090   0.704   0.477   1.489 -0.8635  0.6339 -0.7285
  364SOL    HW1 1091   0.676   0.543   1.561  0.5786  0.1902  1.3983
  364SOL    HW2 1092   0.751   0.526   1.413  0.5784  1.4631 -2.4629
  365SOL     OW 1093   0.314   0.095   1.319 -0.1404 -0.3783  0.0784
  365SOL    HW1 1094   0.231   0.143   1.289  2.3639 -0.3959 -1.0603
  365SOL    HW2 1095   0.398   0.130   1.270  3.0579 -0.4690 -2.2375
  366SOL     OW 1096   2.797   1.305   0.164  0.1747 -0.1705  0.0870
  366SOL    HW1 1097   2.763   1.304   0.066 -3.2057  2.3998 -3.3920
  366SOL    HW2 1098   2.743   1.380   0.206 -0.1084 -2.5659 -3.3795
  367SOL     OW 1099   2.223   2.565   2.668 -0.5452  0.5414 -0.4064
  367SOL    HW1 1100   2.189   2.618   2.743  1.8117 -1.8873 -2.8535
  367SOL    HW2 1101   2.291   2.495   2.706  0.0436 -2.6385  1.9957
  368SOL     OW 1102   2.470   1.716   0.572  0.2120  0.3861  0.1365
  368SOL    HW1 1103   2.514   1.748   0.658  0.7492  1.7792  0.3234
  368SOL    HW2 1104   2.383   1.670   0.596  2.6993  2.6474 -1.0461
  369SOL     OW 1105   1.780   0.571   2.822  0.4097  0.0989 -0.4329
  369SOL    HW1 1106   1.877   0.584   2.839 -0.7388 -1.1067 -2.5748
  369SOL    HW2 1107   1.723   0.657   2.821 -0.1025 -0.5638  1.0854
  370SOL     OW 1108   0.483   0.216   1.137 -0.8506  0.3346 -0.4909
  370SOL    HW1 1109   0.462   0.312   1.167  0.3905  2.5229  0.4499
  370SOL    HW2 1110   0.559   0.209   1.067  1.9983 -0.7097 -2.5994
  371SOL     OW 1111   2.914   1.494   2.928  0.2347 -0.2504 -0.0751
  371SOL    HW1 1112   2.999   1.439   2.900 -2.2349 -0.5033  1.8733
  371SOL    HW2 1113   2.943   1.582   2.980 -2.5449  0.7210  2.4044
  372SOL     OW 1114   0.601   0.602   2.240 -0.6443 -0.4773 -0.5445
  372SOL    HW1 1115   0.565   0.577   2.147 -0.8860  1.2827 -1.2991
  372SOL    HW2 1116   0.620   0.706   2.243  0.7488 -0.5924 -3.0833
  373SOL     OW 1117   0.514   3.032   3.004  0.3150 -0.6916  0.4604
  373SOL    HW1 1118   0.465   3.040   2.918  0.4057 -0.0334  0.5418
  373SOL    HW2 1119   0.610   3.023   2.976 -2.7466 -2.5230 -0.1294
  374SOL     OW 1120   0.904   1.486   2.884 -0.3711 -0.4293 -0.2193
  374SOL    HW1 1121   1.000   1.519   2.854  0.9684 -0.0422 -1.7693
  374SOL    HW2 1122   0.895   1.387   2.866  0.4395  0.7555 -1.6470
  375SOL     OW 1123   0.959   0.409   2.091  0.4791  0.3385 -0.4221
  375SOL    HW1 1124   0.967   0.426   1.991  2.6086  0.6446  0.5098
  375SOL    HW2 1125   1.048   0.378   2.131 -0.9613  0.8108  3.9349
  376SOL     OW 1126   0.192   2.548   1.748  0.6356  0.6080 -0.0881
  376SOL    HW1 1127   0.229   2.645   1.763  0.0542  4.5440 -0.7195
  376SOL    HW2 1128   0.253   2.479   1.790 -0.9831 -0.4991 -1.1450
  377SOL     OW 1129   2.746   2.136   2.911  0.1611  0.0153 -0.1028
  377SOL    HW1 1130   2.691   2.118   2.832  0.5728  0.8142  3.0557
  377SOL    HW2 1131   2.713   2.084   2.994 -1.9322 -1.7540  2.7424
  378SOL     OW 1132   2.099   0.311   0.187 -0.1139 -0.6137 -0.7604
  378SOL    HW1 1133   2.076   0.216   0.218  1.2905 -1.2034  0.1550
  378SOL    HW2 1134   2.191   0.303   0.141  1.0181 -3.8915 -0.7274
  379SOL     OW 1135   1.803   0.606   0.377  0.2551 -0.7088  0.3752
  379SOL    HW1 1136   1.850   0.606   0.468  1.6323 -0.0733  0.9394
  379SOL    HW2 1137   1.863   0.569   0.302  0.0791 -0.9617 -0.7766
  380SOL     OW 1138   2.610   1.944   1.791 -0.3847 -0.4520  0.5991
  380SOL    HW1 1139   2.652   1.969   1.699  0.6426  1.7475 -0.6521
  380SOL    HW2 1140   2.529   1.882   1.773  2.4917  1.3703 -0.0057
  381SOL     OW 1141   2.450   1.496   2.308  0.0149 -0.4531  0.4675
  381SOL    HW1 1142   2.548   1.531   2.300  0.5452  0.9895  0.4483
  381SOL    HW2 1143   2.411   1.475   2.220 -0.1651 -1.7169  1.5146
  382SOL     OW 1144   2.908   2.168   2.581 -0.0301  0.0431 -0.7919
  382SOL    HW1 1145   2.904   2.074   2.537  2.5681 -1.5496  0.9580
  382SOL    HW2 1146   2.965   2.163   2.664 -1.9999  1.3972 -2.2146
  383SOL     OW 1147   1.140   1.111   2.776  0.3560 -0.0956  0.6880
  383SOL    HW1 1148   1.122   1.020   2.821  0.8600  0.6580 -0.7528
  383SOL    HW2 1149   1.210   1.159   2.831  1.7352  1.6370 -1.7306
  384SOL     OW 1150   1.716   1.884   2.592 -0.1707  0.3728 -0.1490
  384SOL    HW1 1151   1.719   1.979   2.562 -0.8099  0.1908 -1.2016
  384SOL    HW2 1152   1.692   1.820   2.514 -0.9586 -0.0805  1.1859
  385SOL     OW 1153   1.967   2.726   0.406 -0.0723 -0.2672  0.4315
  385SOL    HW1 1154   1.891   2.660   0.420 -4.5202 -2.4539 -0.1258
  385SOL    HW2 1155   1.959   2.807   0.468 -1.8106  0.6879 -0.5408
  386SOL     OW 1156   1.867   1.366   0.729 -0.3998 -0.1627  0.4717
  386SOL    HW1 1157   1.847   1.274   0.696 -0.2554  2.0687  1.3312
  386SOL    HW2 1158   1.863   1.426   0.646  2.9026 -1.2298 -1.7892
  387SOL     OW 1159   2.654   1.823   1.271  0.2519  0.2005  0.0488
  387SOL    HW1 1160   2.553   1.808   1.259  1.4887  0.1275 -0.8110
  387SOL    HW2 1161   2.699   1.745   1.231  1.0749  1.9361  1.2210
  388SOL     OW 1162   0.262   1.042   1.578 -0.1192  0.2076  0.4275
  388SOL    HW1 1163   0.168   1.064   1.605  2.0468 -0.1711  1.0704
  388SOL    HW2 1164   0.262   0.993   1.489  0.0784 -0.9676  0.9103
  389SOL     OW 1165   2.359   1.018   2.807 -0.1342 -0.1435 -0.0034
  389SOL    HW1 1166   2.348   0.933   2.864 -0.2825 -1.7630 -0.0382
  389SOL    HW2 1167   2.314   1.100   2.848  0.0266 -1.1886  0.6652
  390SOL     OW 1168   0.660   1.596   2.782 -0.2389  0.9259  0.5971
  390SOL    HW1 1169   0.742   1.550   2.831  3.4124 -1.8018  1.0827
  390SOL    HW2 1170   0.608   1.655   2.845  1.8419 -1.6558 -2.5209
  391SOL     OW 1171   0.832   2.097   0.221 -0.0826 -0.2415 -0.5546
  391SOL    HW1 1172   0.740   2.063   0.245  0.9416 -2.5498 -0.7367
  391SOL    HW2 1173   0.827   2.163   0.144  0.0961  0.6132 -0.1465
  392SOL     OW 1174   2.833   2.539   2.206 -0.4294  0.1269  0.3116
  392SOL    HW1 1175   2.919   2.503   2.162  0.1285  1.2494  1.9077
  392SOL    HW2 1176   2.850   2.592   2.293 -0.5866  1.6546 -2.2447
  393SOL     OW 1177   1.389   2.131   0.267 -0.1164  0.5001 -0.1544
  393SOL    HW1 1178   1.452   2.137   0.350  0.5133 -3.0409  2.4926
  393SOL    HW2 1179   1.427   2.075   0.192  0.6548 -0.8986 -4.3086
  394SOL     OW 1180   0.684   0.141   2.465  0.5701 -0.1075 -0.0698
  394SOL    HW1 1181   0.590   0.153   2.425 -1.9878 -2.4560 -1.6278
  394SOL    HW2 1182   0.760   0.150   2.394  0.1554  0.8871  0.2078
  395SOL     OW 1183   0.474   1.212   1.167  0.3441 -0.0345 -0.1835
  395SOL    HW1 1184   0.541   1.206   1.094  0.0520 -0.4765  2.0656
  395SOL    HW2 1185   0.470   1.307   1.205  1.4301  1.5321 -0.2375
  396SOL     OW 1186   1.964   1.399   2.919  0.1580 -0.3510 -0.3219
  396SOL    HW1 1187   1.873   1.429   2.891  4.1035 -0.9348  1.1337
  396SOL    HW2 1188   2.039   1.446   2.867 -2.0183 -0.3275  1.4644
  397SOL     OW 1189   0.274   0.583   2.946  0.1708 -0.3514 -0.2158
  397SOL    HW1 1190   0.213   0.544   3.021  0.3517 -0.0912  0.7394
  397SOL    HW2 1191   0.342   0.653   2.988  1.6699  0.7253  0.3924
  398SOL     OW 1192   1.037   2.489   0.314  0.3592  0.1452  0.3918
  398SOL    HW1 1193   1.073   2.403   0.271 -0.3472 -0.7494 -0.7189
  398SOL    HW2 1194   0.958   2.531   0.262 -0.2321 -0.8400 -4.4365
  399SOL     OW 1195   1.921   2.473   2.243  0.2155 -0.1643  0.6692
  399SOL    HW1 1196   1.840   2.422   2.217  2.3725 -0.0844 -0.8450
  399SOL    HW2 1197   1.999   2.447   2.179 -0.8550  1.4689 -0.6989
  400SOL     OW 1198   2.547   1.570   1.468  0.2556  0.5843 -0.5560
  400SOL    HW1 1199   2.490   1.557   1.552  1.8518  0.1296  0.0561
  400SOL    HW2 1200   2.601   1.487   1.430  1.8885 -1.6610 -1.7453
  401SOL     OW 1201   1.672   1.082   1.011  0.1342  0.3313 -0.1188
  401SOL    HW1 1202   1.667   1.010   0.937  0.8306 -2.6680 -0.9998
  401SOL    HW2 1203   1.669   1.048   1.105 -0.7357 -0.0201  0.2871
  402SOL     OW 1204   0.303   2.870   2.440  0.4299  0.1736 -0.4445
  402SOL    HW1 1205   0.378   2.921   2.484  3.7933  2.6188 -1.4418
  402SOL    HW2 1206   0.310   2.770   2.468  0.7739  2.3837 -1.5469
  403SOL     OW 1207   2.726   1.583   1.653 -0.0715 -0.2034 -0.1147
  403SOL    HW1 1208   2.725   1.485   1.670 -1.3983  1.3189  1.3348
  403SOL    HW2 1209   2.681   1.602   1.566  2.6628 -1.6656  0.8045
  404SOL     OW 1210   2.352   1.825   1.753  0.3768  0.0325  0.2736
  404SOL    HW1 1211   2.277   1.894   1.763 -0.4699  1.0918  0.6253
  404SOL    HW2 1212   2.377   1.821   1.654  1.6236 -1.0338 -0.5545
  405SOL     OW 1213   2.550   0.200   2.472 -0.2922  0.6319 -0.5766
  405SOL    HW1 1214   2.562   0.213   2.371 -1.1354 -2.8263 -1.2684
  405SOL    HW2 1215   2.622   0.137   2.507 -0.4764  0.6657 -3.4375
  406SOL     OW 1216   0.858   1.317   2.486 -0.5370 -0.2113  0.0577
  406SOL    HW1 1217   0.930   1.249   2.519  0.1562 -0.8241 -1.0621
  406SOL    HW2 1218   0.781   1.322   2.552 -2.8992 -1.5372  3.3585
  407SOL     OW 1219   2.101   2.170   0.627 -0.1970 -0.0531  0.6157
  407SOL    HW1 1220   2.154   2.093   0.581 -0.3494 -0.8315  0.1142
  407SOL    HW2 1221   2.151   2.256   0.613 -1.1210  0.5173 -1.2309
  408SOL     OW 1222   0.185   3.092   0.809  0.1659  0.1593  0.7670
  408SOL    HW1 1223   0.208   3.012   0.865  0.1543  2.0432 -2.1987
  408SOL    HW2 1224   0.084   3.098   0.800  1.2111  0.6570  0.2467
  409SOL     OW 1225   2.114   1.406   0.812  0.8286 -0.0516 -0.0920
  409SOL    HW1 1226   2.118   1.399   0.916 -0.2102 -1.3435 -1.2364
  409SOL    HW2 1227   2.015   1.409   0.790 -0.4677 -0.8366  2.2007
  410SOL     OW 1228   1.933   2.253   3.101 -0.0316  0.6119  0.6461
  410SOL    HW1 1229   2.020   2.209   0.029 -0.0499 -2.7986  0.6418
  410SOL    HW2 1230   1.868   2.267   0.076 -1.7547 -1.0444 -2.1651
  411SOL     OW 1231   0.002   2.918   0.508 -0.1100 -0.1710 -0.9207
  411SOL    HW1 1232   3.043   2.931   0.591 -0.3607  1.4897 -0.6079
  411SOL    HW2 1233   3.049   2.877   0.435  2.1851  2.9245 -0.2235
  412SOL     OW 1234   1.457   2.722   0.807  0.0104  0.1622  0.2989
  412SOL    HW1 1235   1.401   2.738   0.721  1.0395 -1.2996 -2.6420
  412SOL    HW2 1236   1.548   2.775   0.808  1.8405 -0.2622  0.0599
  413SOL     OW 1237   1.871   0.134   2.649  0.4765 -0.1065  0.7551
  413SOL    HW1 1238   1.900   0.095   2.560  1.6168  1.1575  1.7338
  413SOL    HW2 1239   1.868   0.056   2.716  2.1425  4.3203 -0.5010
  414SOL     OW 1240   0.502   0.714   0.426  0.2046 -0.3427 -0.3145
  414SOL    HW1 1241   0.447   0.650   0.365  2.4807  0.0380 -0.7004
  414SOL    HW2 1242   0.446   0.741   0.511 -0.0648  0.6778  2.7155
  415SOL     OW 1243   0.272   0.998   1.193 -0.4303 -0.2344  0.1542
  415SOL    HW1 1244   0.259   0.944   1.110 -2.4486  0.1204 -1.2930
  415SOL    HW2 1245   0.337   1.075   1.178  1.1665  2.6543  0.6712
  416SOL     OW 1246   0.494   0.319   3.093 -0.2842  0.5948 -0.1808
  416SOL    HW1 1247   0.490   0.323   2.990 -1.7428 -1.8611 -0.2138
  416SOL    HW2 1248   0.523   0.406   0.024  1.3041 -2.3845  0.5386
  417SOL     OW 1249   2.166   0.191   0.726  0.1340 -0.1621  0.0663
  417SOL    HW1 1250   2.217   0.272   0.712  0.4616  0.1094  0.1249
  417SOL    HW2 1251   2.069   0.206   0.692  0.8391 -2.0398 -0.4775
  418SOL     OW 1252   0.566   0.564   2.548  0.1006 -0.2710  0.1871
  418SOL    HW1 1253   0.657   0.534   2.580  0.9582 -2.9485 -0.2145
  418SOL    HW2 1254   0.557   0.547   2.450 -1.8399  1.7434  1.4604
  419SOL     OW 1255   0.736   0.838   0.425 -0.8520  0.0833 -0.0590
  419SOL    HW1 1256   0.652   0.785   0.414 -0.7869  1.8004  1.4444
  419SOL    HW2 1257   0.707   0.929   0.461 -1.2400 -1.8933 -2.0234
  420SOL     OW 1258   2.196   1.776   1.286  0.1326 -0.6411  0.2924
  420SOL    HW1 1259   2.196   1.878   1.269  3.0661  2.3569 -1.1677
  420SOL    HW2 1260   2.291   1.740   1.259  0.6662 -0.9596  1.4775
  421SOL     OW 1261   1.103   1.736   2.774 -0.6582  0.9467 -0.2349
  421SOL    HW1 1262   1.011   1.729   2.728  1.0109 -0.3675  0.6737
  421SOL    HW2 1263   1.138   1.650   2.823  1.2951 -1.0478  0.7683
  422SOL     OW 1264   2.618   0.510   0.022 -0.7328  0.0379 -0.3172
  422SOL    HW1 1265   2.599   0.487   0.121 -0.3520  1.6163  1.8054
  422SOL    HW2 1266   2.720   0.515   0.004  3.4548  0.3726  0.7800
  423SOL     OW 1267   1.773   1.844   0.512  0.2567 -0.0308 -0.2172
  423SOL    HW1 1268   1.800   1.853   0.414  0.6609 -0.1953  1.8761
  423SOL    HW2 1269   1.677   1.809   0.520 -0.4181  0.4342  2.5175
  424SOL     OW 1270   0.439   1.507   1.765 -0.2781  0.1691 -0.2337
  424SOL    HW1 1271   0.451   1.458   1.679 -0.0379 -0.4166  0.3090
  424SOL    HW2 1272   0.351   1.482   1.804  1.7248 -0.9367  0.1547
  425SOL     OW 1273   2.578   2.950   2.262 -0.2523  0.0322  0.2420
  425SOL    HW1 1274   2.551   2.879   2.329 -0.5662 -0.3204 -0.6952
  425SOL    HW2 1275   2.659   2.919   2.211 -2.3725 -3.2154  1.6227
  426SOL     OW 1276   1.799   2.531   0.488 -0.1380 -0.3198  0.1495
  426SOL    HW1 1277   1.732   2.601   0.467 -0.6150 -1.1830  2.8656
  426SOL    HW2 1278   1.800   2.510   0.590 -2.0919  0.7981  1.9819
  427SOL     OW 1279   0.372   0.459   2.717  0.3325  0.5158  0.0825
  427SOL    HW1 1280   0.415   0.530   2.657 -1.9059  0.3320 -1.5988
  427SOL    HW2 1281   0.320   0.507   2.794 -1.0014  1.1787 -2.5197
  428SOL     OW 1282   2.211   1.225   2.916 -0.3014 -0.0975 -0.6336
  428SOL    HW1 1283   2.204   1.258   2.824  1.1978 -1.2690  0.5987
  428SOL    HW2 1284   2.116   1.226   2.955  3.8569  1.6637 -1.3927
  429SOL     OW 1285   3.058   0.361   0.564  0.1640  0.0589  0.1894
  429SOL    HW1 1286   3.018   0.325   0.474  0.2665 -1.1212  1.1989
  429SOL    HW2 1287   3.097   0.285   0.615 -1.3468  2.2710 -3.1388
  430SOL     OW 1288   1.008   2.888   1.868  0.0461  0.0838  0.1631
  430SOL    HW1 1289   1.000   2.840   1.955 -0.6686  3.3368  0.4595
  430SOL    HW2 1290   0.936   2.858   1.802  1.2628 -0.1674  0.3322
  431SOL     OW 1291   2.948   1.828   1.127 -0.1024  0.4201 -0.3995
  431SOL    HW1 1292   2.881   1.905   1.137 -0.3571 -2.7181 -2.2414
  431SOL    HW2 1293   2.935   1.775   1.043 -0.3664  2.7557  2.9512
  432SOL     OW 1294   2.344   2.876   2.127  0.5859  0.0737  0.4895
  432SOL    HW1 1295   2.435   2.886   2.173 -2.1793 -0.8121 -1.1508
  432SOL    HW2 1296   2.283   2.956   2.155 -0.1229  1.5994  0.0142
  433SOL     OW 1297   1.118   2.009   0.047 -0.2118 -0.2714 -0.4162
  433SOL    HW1 1298   1.219   2.005   0.037  0.9846  0.9263 -3.0436
  433SOL    HW2 1299   1.083   1.947   0.124 -0.1024  2.2515  1.6554
  434SOL     OW 1300   0.166   2.319   2.628  0.0533 -0.2148  0.5025
  434SOL    HW1 1301   0.165   2.240   2.561 -0.0045  0.5507  1.9795
  434SOL    HW2 1302   0.256   2.326   2.673  0.1309 -0.8172 -1.0854
  435SOL     OW 1303   0.046   0.968   0.644  0.1346 -0.5728  0.0081
  435SOL    HW1 1304   3.061   1.025   0.652 -0.2110  2.5204  1.5494
  435SOL    HW2 1305   0.029   0.900   0.572  1.0270  0.8519  0.6159
  436SOL     OW 1306   0.668   2.584   1.988 -0.0506  0.0664 -0.1537
  436SOL    HW1 1307   0.657   2.679   2.012 -1.9082 -2.0592 -0.6172
  436SOL    HW2 1308   0.577   2.540   2.002 -0.3843 -0.1892 -0.4266
  437SOL     OW 1309   1.186   2.075   1.500 -0.3596  0.1329  0.1295
  437SOL    HW1 1310   1.259   2.120   1.444 -0.4830  1.4015  3.7192
  437SOL    HW2 1311   1.230   2.001   1.553  0.6691 -1.1470 -0.0954
  438SOL     OW 1312   0.191   2.287   0.644  0.2738 -0.2257 -0.1413
  438SOL    HW1 1313   0.247   2.296   0.559 -1.6333  0.4250 -0.1380
  438SOL    HW2 1314   0.155   2.197   0.675 -1.3760  0.8581  0.0467
  439SOL     OW 1315   0.365   2.989   1.488  0.0185  0.2249 -0.8756
  439SOL    HW1 1316   0.360   3.036   1.397 -2.2788  1.1593 -0.8544
  439SOL    HW2 1317   0.341   2.889   1.474 -1.4767 -1.1224  1.9915
  440SOL     OW 1318   2.491   2.706   2.407  0.7076 -0.0533 -0.0975
  440SOL    HW1 1319   2.513   2.611   2.377 -1.1361  3.1766  5.1114
  440SOL    HW2 1320   2.395   2.716   2.441  0.3431  0.2778  0.6152
  441SOL     OW 1321   0.018   0.464   1.924 -0.1082  0.4064 -0.2901
  441SOL    HW1 1322   3.059   0.387   1.895 -0.5894 -0.3049 -2.6710
  441SOL    HW2 1323   0.114   0.427   1.918  0.6955  1.3273 -1.2978
  442SOL     OW 1324   1.761   2.330   0.199 -0.1659  0.6069  0.0876
  442SOL    HW1 1325   1.840   2.351   0.257 -2.8795 -1.3360 -0.1264
  442SOL    HW2 1326   1.710   2.417   0.178  0.3492 -1.1426 -2.0283
  443SOL     OW 1327   0.110   0.846   2.914  0.6609  0.7058  0.3621
  443SOL    HW1 1328   0.138   0.889   3.005 -1.2940 -1.0476 -0.9256
  443SOL    HW2 1329   0.185   0.777   2.885  2.0784 -1.8059 -2.4037
  444SOL     OW 1330   1.666   1.234   2.377 -0.6963 -0.2259 -0.3249
  444SOL    HW1 1331   1.621   1.168   2.316  3.3592  0.2788 -1.3026
  444SOL    HW2 1332   1.674   1.321   2.324  0.0878 -2.9540 -3.0360
  445SOL     OW 1333   0.132   2.534   1.074 -0.8989 -0.5746  1.2064
  445SOL    HW1 1334   0.041   2.489   1.061  0.5133 -2.0288  1.4546
  445SOL    HW2 1335   0.170   2.569   0.988  0.4275 -3.1809  0.6535
  446SOL     OW 1336   2.764   1.581   1.177 -0.0837  0.5625  0.3264
  446SOL    HW1 1337   2.781   1.512   1.250  0.2922 -0.9578 -2.4020
  446SOL    HW2 1338   2.841   1.570   1.109 -2.5432  0.1631 -0.0383
  447SOL     OW 1339   0.286   0.980   0.418  0.4549  0.2356  0.2909
  447SOL    HW1 1340   0.368   1.020   0.370  2.1441  0.6787 -2.4271
  447SOL    HW2 1341   0.318   0.927   0.495  0.7836  1.1118  0.1472
  448SOL     OW 1342   1.136   2.142   2.048  0.3557  0.0549  0.4845
  448SOL    HW1 1343   1.200   2.213   2.011 -3.2208 -0.7705 -0.6610
  448SOL    HW2 1344   1.175   2.102   2.132 -1.4782  0.1753  1.7281
  449SOL     OW 1345   1.103   1.505   0.196 -0.2398 -0.0517  0.7654
  449SOL    HW1 1346   1.112   1.451   0.280  0.2867 -1.8840 -0.1524
  449SOL    HW2 1347   1.011   1.483   0.148 -0.3479  0.9516  0.5231
  450SOL     OW 1348   2.868   2.686   1.853 -0.1883 -0.2850 -0.1930
  450SOL    HW1 1349   2.900   2.590   1.874 -0.0067  0.1828 -2.9441
  450SOL    HW2 1350   2.835   2.737   1.931  1.7462 -1.1886 -1.1795
  451SOL     OW 1351   2.436   0.913   2.548  0.1873 -0.1213 -0.2182
  451SOL    HW1 1352   2.445   0.954   2.640  1.9153 -0.2245 -1.2062
  451SOL    HW2 1353   2.527   0.874   2.511  2.8390 -2.1436 -2.9350
  452SOL     OW 1354   1.847   0.443   0.791 -0.2818  0.1772 -0.0027
  452SOL    HW1 1355   1.832   0.514   0.720 -1.4166 -2.2821  0.1941
  452SOL    HW2 1356   1.928   0.469   0.849  1.9183  2.1114  0.7395
  453SOL     OW 1357   1.796   0.988   1.307 -0.4779 -0.1131 -0.3194
  453SOL    HW1 1358   1.723   0.916   1.304 -2.0642 -0.0946  0.6328
  453SOL    HW2 1359   1.773   1.043   1.388 -2.6237 -1.8181 -2.4248
  454SOL     OW 1360   2.961   1.182   0.347  0.1038  0.1892 -0.1128
  454SOL    HW1 1361   2.909   1.213   0.432  0.7607  3.4548 -2.3106
  454SOL    HW2 1362   2.906   1.215   0.269  0.2268 -2.0459  0.2611
  455SOL     OW 1363   2.471   2.911   1.387 -0.0831  0.2120  0.2353
  455SOL    HW1 1364   2.541   2.926   1.313 -1.0875  1.4185  0.1876
  455SOL    HW2 1365   2.375   2.910   1.351 -0.4264  1.3998  1.0623
  456SOL     OW 1366   0.150   2.903   1.263  0.6272 -0.1490  0.0087
  456SOL    HW1 1367   0.212   2.840   1.318 -0.9305  0.2728 -0.2513
  456SOL    HW2 1368   0.056   2.905   1.302  0.1005 -0.4886 -2.4816
  457SOL     OW 1369   1.198   2.972   0.479 -0.1799  0.2434 -0.1044
  457SOL    HW1 1370   1.249   3.054   0.439  2.1306  0.8113 -1.0416
  457SOL    HW2 1371   1.178   2.993   0.578  1.9843 -1.9305  2.4280
  458SOL     OW 1372   2.468   2.923   1.067 -0.7045  0.4137 -0.1635
  458SOL    HW1 1373   2.471   2.834   1.022  0.7023  2.0323  0.6843
  458SOL    HW2 1374   2.563   2.932   1.113 -1.6229 -0.2688 -0.5661
  459SOL     OW 1375   2.532   0.329   2.929  0.5060  0.2900 -0.0856
  459SOL    HW1 1376   2.564   0.409   2.979 -1.5900  0.5751 -0.0124
  459SOL    HW2 1377   2.616   0.286   2.882  1.8870 -2.7115 -2.8614
  460SOL     OW 1378   2.528   2.414   3.028  1.0309 -0.2746  0.1642
  460SOL    HW1 1379   2.563   2.504   2.995 -2.5536  2.1629 -4.0603
  460SOL    HW2 1380   2.573   2.380   0.011  1.6993 -0.3570 -0.1433
  461SOL     OW 1381   0.628   1.762   0.460  0.2721 -0.8969  0.6448
  461SOL    HW1 1382   0.703   1.787   0.522 -1.9481 -1.4088  1.5318
  461SOL    HW2 1383   0.633   1.669   0.422 -1.7349 -0.0650  1.3094
  462SOL     OW 1384   2.112   2.068   0.898  0.1280 -0.2336  0.7043
  462SOL    HW1 1385   2.130   2.089   0.800  0.2378 -1.2123  0.0857
  462SOL    HW2 1386   2.118   2.150   0.961  0.8369  0.0661 -1.6323
  463SOL     OW 1387   2.529   1.135   0.849  0.2206  0.1761 -0.0650
  463SOL    HW1 1388   2.587   1.083   0.916  1.2909  0.4695  1.3692
  463SOL    HW2 1389   2.435   1.155   0.883  1.2771  0.2862  0.0822
  464SOL     OW 1390   1.156   2.980   0.751  0.0713 -0.2625 -0.1886
  464SOL    HW1 1391   1.074   3.037   0.762  0.4296 -2.0614  1.3216
  464SOL    HW2 1392   1.135   2.880   0.769  1.9591 -1.2111  0.2614
  465SOL     OW 1393   2.282   1.436   0.406 -0.3713 -0.0795  0.1785
  465SOL    HW1 1394   2.217   1.454   0.330 -0.4353  1.6427 -0.7985
  465SOL    HW2 1395   2.369   1.398   0.368 -0.8721 -0.1925  0.1924
  466SOL     OW 1396   2.133   0.229   2.748 -0.1632 -0.1951 -0.6749
  466SOL    HW1 1397   2.179   0.302   2.688  2.2862 -0.1059 -0.2446
  466SOL    HW2 1398   2.041   0.213   2.711 -1.0992 -0.2511  2.5840
  467SOL     OW 1399   1.058   1.035   1.574  0.6654  0.3521  0.1148
  467SOL    HW1 1400   1.085   0.977   1.652 -0.6464 -1.1611  0.0874
  467SOL    HW2 1401   0.977   1.099   1.602 -1.4244  5.1735  1.4655
  468SOL     OW 1402   0.532   1.161   2.414 -0.1609 -0.5847  0.2041
  468SOL    HW1 1403   0.463   1.083   2.419 -1.5940  0.9161 -0.3101
  468SOL    HW2 1404   0.589   1.173   2.499 -0.6642  5.1103  2.5286
  469SOL     OW 1405   0.628   2.238   0.446  0.0246 -0.5255  0.2193
  469SOL    HW1 1406   0.599   2.255   0.347 -0.3405  1.7061 -0.0609
  469SOL    HW2 1407   0.727   2.254   0.456  1.4841  0.2906  1.6759
  470SOL     OW 1408   2.708   1.320   2.941  0.1590  0.5914  0.4345
  470SOL    HW1 1409   2.782   1.389   2.934 -1.5348 -0.0856 -1.2461
  470SOL    HW2 1410   2.733   1.234   2.882  1.5108 -1.6641 -0.6789
  471SOL     OW 1411   2.655   1.135   2.198 -0.1446 -0.2190  0.6033
  471SOL    HW1 1412   2.628   1.211   2.263 -0.2572  1.3051 -1.5147
  471SOL    HW2 1413   2.582   1.121   2.132  0.0937  1.2322  2.0170
  472SOL     OW 1414   0.557   2.987   0.582  0.3269  0.2103 -0.1269
  472SOL    HW1 1415   0.460   3.015   0.582 -2.2389 -1.3810  1.8939
  472SOL    HW2 1416   0.600   3.010   0.493 -2.9826  0.9306 -1.9847
  473SOL     OW 1417   0.645   0.093   0.090  0.5815  0.0869  0.5492
  473SOL    HW1 1418   0.587   0.177   0.082  2.4160  1.8598 -0.7890
  473SOL    HW2 1419   0.593   0.011   0.066  1.1635  2.6808  4.8568
  474SOL     OW 1420   1.984   0.299   2.185 -0.1958 -0.7303  0.3203
  474SOL    HW1 1421   2.005   0.329   2.089  0.3774  0.1360 -0.2903
  474SOL    HW2 1422   1.887   0.313   2.211  1.8600 -0.5178 -0.2173
  475SOL     OW 1423   1.148   2.270   0.188 -0.1136  0.0583 -0.2562
  475SOL    HW1 1424   1.099   2.225   0.113 -1.8741 -1.9131 -1.5199
  475SOL    HW2 1425   1.228   2.217   0.217 -0.8242 -1.3509  4.2474
  476SOL     OW 1426   0.585   1.071   0.627 -0.0698 -0.2431  0.0061
  476SOL    HW1 1427   0.613   0.988   0.674  0.6594  1.9803 -3.2305
  476SOL    HW2 1428   0.529   1.135   0.685  0.4006 -1.3845 -1.7717
  477SOL     OW 1429   1.690   2.494   1.494  0.4599 -0.3239 -0.0435
  477SOL    HW1 1430   1.621   2.421   1.505 -1.2175  1.1899  0.5602
  477SOL    HW2 1431   1.694   2.518   1.399 -0.6349 -0.7999 -2.2574
  478SOL     OW 1432   0.503   1.620   2.276 -0.2490  0.5546  0.5370
  478SOL    HW1 1433   0.559   1.542   2.235 -3.5630 -0.3008 -1.5237
  478SOL    HW2 1434   0.478   1.609   2.372  0.6617 -2.1893  1.0234
  479SOL     OW 1435   2.895   2.890   1.092 -0.1931  0.8803 -0.7460
  479SOL    HW1 1436   2.942   2.974   1.123 -0.4189 -0.0647 -1.0060
  479SOL    HW2 1437   2.899   2.821   1.164  0.4599 -1.0777 -1.2921
  480SOL     OW 1438   2.880   3.030   0.279 -0.4656  0.0944 -0.2925
  480SOL    HW1 1439   2.814   2.956   0.310 -3.3349  0.2227  1.7101
  480SOL    HW2 1440   2.938   3.002   0.200  1.8210  0.7535 -2.3356
  481SOL     OW 1441   2.598   2.655   0.993  0.3145 -0.4758  0.3632
  481SOL    HW1 1442   2.532   2.593   0.938 -0.2134 -1.0202 -1.8256
  481SOL    HW2 1443   2.619   2.625   1.085  0.8099 -1.7229  0.7290
  482SOL     OW 1444   1.197   2.303   2.423 -0.2450 -0.5784  0.1075
  482SOL    HW1 1445   1.133   2.309   2.338 -1.3807 -2.5320  0.5999
  482SOL    HW2 1446   1.158   2.252   2.501  2.7229  2.7418 -2.1527
  483SOL     OW 1447   0.561   1.913   2.620  0.0256  0.3417 -0.2067
  483SOL    HW1 1448   0.551   1.810   2.627 -0.3532 -1.0072  0.6373
  483SOL    HW2 1449   0.545   1.949   2.527  0.5316 -2.0826  1.3856
  484SOL     OW 1450   0.980   1.109   2.169 -0.0110  0.2949  0.0363
  484SOL    HW1 1451   0.882   1.137   2.184  0.9141 -0.3830 -1.1027
  484SOL    HW2 1452   1.042   1.173   2.217 -0.3168  0.2978 -2.3965
  485SOL     OW 1453   2.688   0.310   0.465  0.0539 -0.5129 -0.0622
  485SOL    HW1 1454   2.644   0.224   0.489  2.2749  2.5497 -1.6042
  485SOL    HW2 1455   2.750   0.287   0.385  3.5487 -0.2159  0.2647
  486SOL     OW 1456   1.741   2.870   0.782  0.0805  0.0785 -0.5589
  486SOL    HW1 1457   1.839   2.875   0.809  0.3759  0.0363  3.1650
  486SOL    HW2 1458   1.726   2.917   0.694 -2.7948 -2.3616  0.4189
  487SOL     OW 1459   0.605   2.310   0.955  0.4237 -0.2692 -0.3290
  487SOL    HW1 1460   0.703   2.332   0.928  0.9252  3.0687 -1.6802
  487SOL    HW2 1461   0.551   2.336   0.871  2.7227  0.4292  1.0319
  488SOL     OW 1462   2.486   1.320   0.203 -0.0213  0.1027 -0.1597
  488SOL    HW1 1463   2.558   1.393   0.188  4.5471 -2.2448  0.9431
  488SOL    HW2 1464   2.458   1.279   0.112 -0.7753  0.4127 -1.4403
  489SOL     OW 1465   1.462   3.049   1.168  0.0126 -0.5729  0.4384
  489SOL    HW1 1466   1.544   0.002   1.138 -0.7050  1.0862 -0.7459
  489SOL    HW2 1467   1.448   2.959   1.124  0.2209  1.3690  0.0748
  490SOL     OW 1468   1.154   1.066   0.094  0.0941  0.1072 -0.1281
  490SOL    HW1 1469   1.230   1.069   0.160  2.2333  1.8051  0.9670
  490SOL    HW2 1470   1.062   1.084   0.133 -1.0979  0.7653  0.3034
  491SOL     OW 1471   0.731   2.535   0.538 -0.0830  0.2693  0.6210
  491SOL    HW1 1472   0.675   2.552   0.625  0.0757 -0.6187  3.4769
  491SOL    HW2 1473   0.812   2.595   0.543  2.1765  0.4925 -0.3909
  492SOL     OW 1474   1.279   1.261   2.103  0.3831  0.4145 -0.4415
  492SOL    HW1 1475   1.228   1.251   2.192  3.0164 -1.1740 -1.0233
  492SOL    HW2 1476   1.349   1.336   2.111 -0.4048 -0.2919  0.8088
  493SOL     OW 1477   3.099   2.488   0.615  0.6691  0.3277 -0.2497
  493SOL    HW1 1478   0.054   2.400   0.608  1.4780 -2.8023  0.7742
  493SOL    HW2 1479   0.057   2.566   0.634  1.1649  1.0019 -0.3241
  494SOL     OW 1480   2.703   1.847   3.020 -0.1465  0.9170  0.6638
  494SOL    HW1 1481   2.690   1.780   2.943 -0.7251  0.6022 -1.1302
  494SOL    HW2 1482   2.797   1.863   3.036 -4.1783 -0.9126  0.1411
  495SOL     OW 1483   2.691   1.639   2.821 -0.0619  0.0972  0.9601
  495SOL    HW1 1484   2.677   1.657   2.723 -3.1153  0.1842 -0.8388
  495SOL    HW2 1485   2.765   1.575   2.834  0.9663 -0.6367 -0.6338
  496SOL     OW 1486   2.554   3.102   1.561  0.0057  0.1566  0.7780
  496SOL    HW1 1487   2.476   0.069   1.575  0.7714  0.4697  2.0812
  496SOL    HW2 1488   2.531   3.032   1.488  1.2199 -1.3766  3.0573
  497SOL     OW 1489   2.471   1.121   0.584 -0.4090  0.7711  0.3855
  497SOL    HW1 1490   2.382   1.089   0.552  3.6035 -0.0863  2.3829
  497SOL    HW2 1491   2.478   1.103   0.684  0.3614  2.9014  0.3672
  498SOL     OW 1492   0.119   2.134   2.438 -0.4133  0.1588  0.4267
  498SOL    HW1 1493   0.126   2.195   2.351 -0.3708  3.4991 -2.0850
  498SOL    HW2 1494   0.030   2.083   2.441  0.6049  1.6450  0.8615
  499SOL     OW 1495   0.923   1.892   0.373 -0.2260  0.2314  0.3959
  499SOL    HW1 1496   0.899   1.903   0.473  0.2761 -0.5230  3.1286
  499SOL    HW2 1497   0.895   1.974   0.315  0.6483 -0.0932  1.1498
  500SOL     OW 1498   1.285   3.032   2.753  0.1763  0.4225 -0.5189
  500SOL    HW1 1499   1.222   3.097   2.792  1.6088 -2.9743 -0.8896
  500SOL    HW2 1500   1.241   2.949   2.705  0.8444 -1.6290 -1.8933
  501SOL     OW 1501   1.446   0.171   1.331 -0.3081  0.0221  0.3647
  501SOL    HW1 1502   1.446   0.082   1.279 -0.8430  0.0828 -0.3667
  501SOL    HW2 1503   1.382   0.238   1.292  2.3995 -0.9792 -1.2425
  502SOL     OW 1504   3.060   0.385   2.334  0.2068  0.0463  0.4293
  502SOL    HW1 1505   0.035   0.448   2.344  0.0761 -1.5921 -3.6269
  502SOL    HW2 1506   3.093   0.300   2.281  0.4173  0.9545  1.8692
  503SOL     OW 1507   2.313   2.136   2.548 -0.3293  0.0331 -0.1152
  503SOL    HW1 1508   2.275   2.227   2.526  0.1519  2.9184  1.6834
  503SOL    HW2 1509   2.242   2.092   2.604 -0.2917 -0.2494 -0.0884
  504SOL     OW 1510   1.383   0.354   1.775  0.6183  0.4232 -0.2786
  504SOL    HW1 1511   1.391   0.357   1.671 -0.1709 -0.0238 -0.5921
  504SOL    HW2 1512   1.469   0.319   1.820  0.7904  1.4791  1.3767
  505SOL     OW 1513   2.997   0.805   1.559  0.4376 -0.7700 -0.6539
  505SOL    HW1 1514   2.896   0.794   1.561 -0.5262  1.2462  0.2128
  505SOL    HW2 1515   3.015   0.872   1.483  0.9525 -4.0532 -1.1204
  506SOL     OW 1516   0.441   1.058   2.117  0.7570 -0.1629 -0.3695
  506SOL    HW1 1517   0.446   1.159   2.112 -0.5423  0.6211 -1.0350
  506SOL    HW2 1518   0.452   1.024   2.212  2.4590 -3.0734  1.7064
  507SOL     OW 1519   0.354   2.639   2.554  0.1183  0.0623 -0.4221
  507SOL    HW1 1520   0.440   2.607   2.604 -0.0756  2.1728 -0.7564
  507SOL    HW2 1521   0.270   2.628   2.614 -1.9581 -1.5164 -0.0898
  508SOL     OW 1522   1.608   0.788   1.301  0.0513 -0.2685  0.8708
  508SOL    HW1 1523   1.593   0.709   1.365  3.4556 -2.1723  1.2398
  508SOL    HW2 1524   1.648   0.747   1.214 -0.7905  0.5423 -0.2790
  509SOL     OW 1525   0.902   1.914   1.584 -0.4982  0.5247  0.1790
  509SOL    HW1 1526   0.951   1.955   1.661 -3.0474 -0.3615 -3.1411
  509SOL    HW2 1527   0.973   1.886   1.516 -0.5826  0.8518 -1.1936
  510SOL     OW 1528   2.411   0.798   2.251 -0.0163 -0.0284  0.4390
  510SOL    HW1 1529   2.363   0.744   2.322  1.4529  1.7669  0.0902
  510SOL    HW2 1530   2.511   0.803   2.269  0.4071 -0.5492 -0.4809
  511SOL     OW 1531   0.752   1.681   0.950  0.0087 -1.3001  0.0382
  511SOL    HW1 1532   0.694   1.640   0.878 -3.5063 -0.0802 -1.6843
  511SOL    HW2 1533   0.697   1.758   0.995  1.5833  2.9929 -1.7445
  512SOL     OW 1534   2.442   2.146   0.516 -0.3172  0.1227 -0.3118
  512SOL    HW1 1535   2.366   2.079   0.534  0.7693  0.5303 -0.7039
  512SOL    HW2 1536   2.458   2.142   0.417 -0.0454 -2.1728 -0.5473
  513SOL     OW 1537   2.853   1.718   2.582 -0.2597 -0.2362 -0.1188
  513SOL    HW1 1538   2.858   1.633   2.528 -1.0755  2.6092  1.0164
  513SOL    HW2 1539   2.861   1.797   2.521 -1.3156  0.2321  1.2191
  514SOL     OW 1540   0.455   2.281   2.700  0.3830  0.4232 -0.2425
  514SOL    HW1 1541   0.425   2.188   2.732 -0.5732 -1.7439 -0.9430
  514SOL    HW2 1542   0.502   2.337   2.768 -0.7931 -0.6382 -3.0208
  515SOL     OW 1543   1.895   1.548   2.077 -0.1139  0.2286 -0.6249
  515SOL    HW1 1544   1.884   1.508   1.985 -1.3223 -2.3218 -0.8645
  515SOL    HW2 1545   1.869   1.643   2.067  0.9772 -0.1453  1.6411
  516SOL     OW 1546   2.292   2.128   2.918 -0.6571  0.1134  0.3795
  516SOL    HW1 1547   2.246   2.157   2.999  4.5192  0.2986 -1.7378
  516SOL    HW2 1548   2.350   2.207   2.878  3.0124 -0.1106 -2.8165
  517SOL     OW 1549   1.518   1.269   3.101  0.0277 -0.1538  0.0167
  517SOL    HW1 1550   1.545   1.259   3.006  0.3768 -1.2569  3.2610
  517SOL    HW2 1551   1.490   1.177   0.033  0.6360  1.8384 -1.3790
  518SOL     OW 1552   2.757   0.050   2.286  0.2444  0.1723  0.3455
  518SOL    HW1 1553   2.780   0.086   2.192 -2.4549 -0.0435  1.3028
  518SOL    HW2 1554   2.685   3.076   2.276  1.5427  2.9231 -0.4333
  519SOL     OW 1555   1.720   2.159   1.963  0.0525 -0.1559  0.0905
  519SOL    HW1 1556   1.650   2.188   2.031 -1.1831  3.3026  0.2546
  519SOL    HW2 1557   1.804   2.128   2.009 -0.7493  2.1490  1.5948
  520SOL     OW 1558   2.829   3.027   2.682  0.0310 -0.0220  0.5772
  520SOL    HW1 1559   2.875   2.997   2.766 -1.3385 -0.1557 -1.0585
  520SOL    HW2 1560   2.865   2.983   2.600 -0.4601 -1.1566  3.3032
  521SOL     OW 1561   0.416   1.333   2.133 -0.4282  0.2906 -0.6517
  521SOL    HW1 1562   0.337   1.389   2.157 -0.5481  0.2017 -1.0535
  521SOL    HW2 1563   0.508   1.382   2.131 -0.5289  1.7503  1.3839
  522SOL     OW 1564   1.010   0.094   1.582 -0.2703 -0.0138  0.5065
  522SOL    HW1 1565   1.073   0.128   1.657 -1.8554  2.6076  0.3888
  522SOL    HW2 1566   1.022   0.145   1.494 -0.6749 -0.7502 -2.4545
  523SOL     OW 1567   0.269   2.616   0.847 -0.1441 -0.0866  0.1894
  523SOL    HW1 1568   0.365   2.636   0.869  2.4883 -0.4036 -0.5006
  523SOL    HW2 1569   0.236   2.653   0.758  0.2296 -0.1483  0.7596
  524SOL     OW 1570   1.744   2.418   0.735 -0.2491 -0.6731  0.3958
  524SOL    HW1 1571   1.764   2.319   0.728 -0.8105  0.4132  2.1094
  524SOL    HW2 1572   1.646   2.436   0.750 -0.4977 -1.6419  0.4765
  525SOL     OW 1573   2.448   0.704   1.235 -0.0029 -0.0727  0.0062
  525SOL    HW1 1574   2.385   0.726   1.314  2.1404 -1.0333 -3.1095
  525SOL    HW2 1575   2.412   0.740   1.148  0.1868  0.4573  3.6715
  526SOL     OW 1576   0.961   2.681   0.559  0.1730  0.2277  1.1781
  526SOL    HW1 1577   1.030   2.638   0.496  1.7681 -1.1146 -2.2232
  526SOL    HW2 1578   0.929   2.772   0.520  0.4876  1.1852 -0.3993
  527SOL     OW 1579   2.226   1.940   0.526 -0.9322  0.4985  0.8547
  527SOL    HW1 1580   2.195   1.903   0.439  2.5360  2.4642  0.3355
  527SOL    HW2 1581   2.264   1.866   0.587  1.7622 -0.5951 -0.1547
  528SOL     OW 1582   2.297   0.359   0.509  0.4404 -0.5240 -0.0026
  528SOL    HW1 1583   2.197   0.369   0.495  0.2292  0.0390  1.0085
  528SOL    HW2 1584   2.338   0.327   0.420 -2.3683 -0.7710  0.7254
  529SOL     OW 1585   1.121   1.285   2.311  0.1286  0.4647 -0.3294
  529SOL    HW1 1586   1.105   1.386   2.295 -0.1566  1.0468  0.1175
  529SOL    HW2 1587   1.148   1.268   2.407 -0.6591 -0.2230 -2.0955
  530SOL     OW 1588   2.569   0.756   3.054 -0.6358 -0.3891  0.2988
  530SOL    HW1 1589   2.582   0.655   3.071  0.2458  2.6532 -1.7620
  530SOL    HW2 1590   2.471   0.778   3.049 -0.1496 -2.2645  2.0195
  531SOL     OW 1591   1.398   1.064   0.230 -0.1949 -0.0442 -0.6724
  531SOL    HW1 1592   1.410   0.962   0.226 -0.3031  1.4361  1.7865
  531SOL    HW2 1593   1.434   1.113   0.315  0.9638  3.1143  0.8758
  532SOL     OW 1594   2.039   2.907   0.807  0.4190 -0.4098  0.1459
  532SOL    HW1 1595   1.992   2.987   0.856  3.9869 -0.6168 -0.7599
  532SOL    HW2 1596   2.138   2.933   0.813 -0.6099 -1.6083  2.4873
  533SOL     OW 1597   1.159   0.837   1.768  0.3040  0.2801 -0.2553
  533SOL    HW1 1598   1.210   0.890   1.843  2.4913  2.1155 -0.3751
  533SOL    HW2 1599   1.209   0.751   1.747 -3.1729 -1.3014 -1.5952
  534SOL     OW 1600   1.811   2.992   2.833  0.3050 -0.8212 -0.6297
  534SOL    HW1 1601   1.817   2.910   2.773 -1.1216  1.3517 -0.8695
  534SOL    HW2 1602   1.873   2.987   2.909 -1.4748  1.8137 -0.1619
  535SOL     OW 1603   0.415   3.042   0.295  0.4929  0.2206 -0.1359
  535SOL    HW1 1604   0.402   0.027   0.247 -0.8698 -4.0408 -0.9385
  535SOL    HW2 1605   0.325   2.993   0.305 -0.6581  0.4349  0.4684
  536SOL     OW 1606   0.774   2.644   0.936 -0.0325 -0.0806 -0.0684
  536SOL    HW1 1607   0.823   2.588   1.004 -3.5893  0.2479 -1.1744
  536SOL    HW2 1608   0.793   2.744   0.928  0.5258  0.6948  0.2729
  537SOL     OW 1609   1.842   0.391   1.494  0.5031  0.5747  0.1267
  537SOL    HW1 1610   1.897   0.443   1.430  0.7503  0.9806  0.6901
  537SOL    HW2 1611   1.825   0.296   1.456 -0.3660 -1.7970  1.5225
  538SOL     OW 1612   2.971   2.763   0.324  0.0452  0.3305  0.4928
  538SOL    HW1 1613   2.990   2.661   0.332  1.6103 -1.4672  1.7312
  538SOL    HW2 1614   2.880   2.777   0.356  2.6318  0.6112 -1.0385
  539SOL     OW 1615   2.692   2.024   2.025  0.4942  0.1783  0.2373
  539SOL    HW1 1616   2.654   2.014   1.930  2.7017  2.8350  0.0720
  539SOL    HW2 1617   2.789   2.041   2.019  0.2989 -1.2407  3.2450
  540SOL     OW 1618   3.028   2.765   1.619  0.1740  0.2634  0.0713
  540SOL    HW1 1619   3.063   2.681   1.569  1.0817  1.1041  0.8503
  540SOL    HW2 1620   2.965   2.735   1.695  1.8770 -0.2353 -0.3909
  541SOL     OW 1621   2.629   3.040   1.834  1.0579 -0.1518  0.3992
  541SOL    HW1 1622   2.610   3.051   1.736  0.7334  2.7560 -0.3754
  541SOL    HW2 1623   2.569   2.969   1.873 -1.1312  1.2376  1.9566
  542SOL     OW 1624   2.942   0.605   2.244  0.2770  0.1318 -0.0541
  542SOL    HW1 1625   2.989   0.531   2.296  0.7018  1.8127 -3.2403
  542SOL    HW2 1626   2.845   0.589   2.254  4.8284 -0.5212 -0.0263
  543SOL     OW 1627   0.838   0.662   0.711 -0.1469 -0.1406 -0.0693
  543SOL    HW1 1628   0.909   0.694   0.646  0.5196  0.8483  0.0460
  543SOL    HW2 1629   0.763   0.731   0.712 -0.8242  1.7331  1.2977
  544SOL     OW 1630   2.512   2.190   0.993 -0.5474 -0.3191  0.6426
  544SOL    HW1 1631   2.571   2.194   0.908  3.4629 -1.0342 -0.6912
  544SOL    HW2 1632   2.571   2.204   1.073 -1.5929  2.4182 -3.3601
  545SOL     OW 1633   1.116   1.777   0.231 -0.0139 -0.1907  0.3440
  545SOL    HW1 1634   1.062   1.788   0.321 -0.5318  0.5485  3.9528
  545SOL    HW2 1635   1.113   1.678   0.199 -0.6607 -1.7558 -2.6865
  546SOL     OW 1636   2.435   0.519   1.998 -0.0416  0.2029  0.1795
  546SOL    HW1 1637   2.400   0.518   2.092 -2.5061  0.1026 -0.7665
  546SOL    HW2 1638   2.528   0.473   1.994 -0.0331  1.3397 -0.0816
  547SOL     OW 1639   0.419   0.177   2.319 -0.1076 -0.0475 -0.1740
  547SOL    HW1 1640   0.382   0.185   2.416  0.0916  0.5982  1.0205
  547SOL    HW2 1641   0.408   0.265   2.267 -1.6600 -1.5186 -1.3659
  548SOL     OW 1642   2.103   2.109   2.276 -0.0148 -0.5014  0.0093
  548SOL    HW1 1643   2.089   2.172   2.356 -0.1290 -0.4605 -0.3975
  548SOL    HW2 1644   2.093   2.014   2.312  0.0409 -2.4327  1.4661
  549SOL     OW 1645   2.495   0.554   0.971  0.2444  0.9319 -0.1835
  549SOL    HW1 1646   2.532   0.637   0.932 -0.5364 -2.3555 -0.0631
  549SOL    HW2 1647   2.506   0.557   1.073  0.8641  2.7270 -0.7455
  550SOL     OW 1648   1.422   1.455   0.533  0.3031  0.1397  0.0263
  550SOL    HW1 1649   1.471   1.493   0.456 -0.2441 -2.2269 -1.4500
  550SOL    HW2 1650   1.484   1.469   0.620 -0.6770 -1.1924  1.9469
  551SOL     OW 1651   1.231   0.444   1.140 -0.2576 -0.2792 -0.1515
  551SOL    HW1 1652   1.150   0.496   1.101 -1.6103  1.8845  0.6484
  551SOL    HW2 1653   1.226   0.345   1.118 -1.4946  2.2510  0.8889
  552SOL     OW 1654   2.165   2.471   2.084  0.0381 -0.1372 -0.3162
  552SOL    HW1 1655   2.130   2.567   2.065 -1.6016 -0.2600  1.8080
  552SOL    HW2 1656   2.256   2.469   2.127  0.5593 -0.4274  1.1723
  553SOL     OW 1657   0.116   0.030   0.126  0.4559 -0.3275  0.0157
  553SOL    HW1 1658   0.193   0.017   0.184 -3.4754 -1.5889 -1.6281
  553SOL    HW2 1659   0.052   3.049   0.123  0.5838 -1.4234  0.7989
  554SOL     OW 1660   1.422   2.759   1.840 -0.1629 -0.2214  0.3308
  554SOL    HW1 1661   1.464   2.729   1.753 -1.0470 -0.9239  1.4435
  554SOL    HW2 1662   1.495   2.810   1.888 -1.8486  2.6733 -0.7704
  555SOL     OW 1663   2.373   2.883   1.843  0.2595 -0.2293 -0.2230
  555SOL    HW1 1664   2.302   2.948   1.814  2.9869 -1.5675  2.0454
  555SOL    HW2 1665   2.357   2.861   1.944  0.4710 -0.3896  2.5775
  556SOL     OW 1666   0.877   2.963   0.105  0.1058 -0.3459  0.3883
  556SOL    HW1 1667   0.964   2.927   0.144  1.2621  0.1780  2.0322
  556SOL    HW2 1668   0.792   2.944   0.158  0.0338  0.3459 -0.4809
  557SOL     OW 1669   0.527   2.032   2.283 -0.0107 -0.3835  0.5958
  557SOL    HW1 1670   0.543   1.952   2.219 -0.4360  0.0884 -0.0179
  557SOL    HW2 1671   0.528   2.117   2.224 -0.4863 -0.7467  1.2376
  558SOL     OW 1672   2.830   1.091   2.790 -0.4636  0.2718  0.1202
  558SOL    HW1 1673   2.803   0.998   2.830 -1.1748  0.8026  2.7014
  558SOL    HW2 1674   2.801   1.111   2.693  3.0833  0.5188 -0.8426
  559SOL     OW 1675   2.338   2.361   2.295 -0.2849 -0.2181  0.5290
  559SOL    HW1 1676   2.432   2.399   2.306  0.0260  1.9101 -0.3243
  559SOL    HW2 1677   2.349   2.282   2.229 -0.3901 -0.8423 -2.1942
  560SOL     OW 1678   0.307   0.408   2.159 -0.0835  0.2552  0.0399
  560SOL    HW1 1679   0.265   0.451   2.241  2.3492  0.2489 -0.0201
  560SOL    HW2 1680   0.320   0.486   2.090 -0.6889  2.1871 -0.8672
  561SOL     OW 1681   0.947   0.445   0.341 -0.3192  0.3093 -0.4559
  561SOL    HW1 1682   0.863   0.504   0.331 -3.2068  1.9516 -0.9035
  561SOL    HW2 1683   0.928   0.356   0.293 -2.5578  0.4279 -2.7195
  562SOL     OW 1684   0.773   1.503   1.630  0.7359 -0.6062  0.1271
  562SOL    HW1 1685   0.689   1.446   1.610 -1.9471  0.0613  0.4082
  562SOL    HW2 1686   0.826   1.515   1.548 -0.8443  0.5110  1.4700
  563SOL     OW 1687   1.703   2.918   0.092  0.2085 -0.4599 -0.1043
  563SOL    HW1 1688   1.713   2.832   0.037 -1.2884 -0.8921  0.0110
  563SOL    HW2 1689   1.788   2.974   0.106 -2.5614 -0.3095 -0.5410
  564SOL     OW 1690   0.017   2.050   0.489  0.7454 -0.3680  0.9760
  564SOL    HW1 1691   0.072   1.973   0.527 -0.0434 -1.7404 -0.2217
  564SOL    HW2 1692   3.064   2.096   0.559  0.5338  0.3354  1.1085
  565SOL     OW 1693   0.301   2.477   2.334 -0.0058  0.1723 -0.3491
  565SOL    HW1 1694   0.360   2.464   2.259 -0.6741 -0.0834  4.1249
  565SOL    HW2 1695   0.339   2.529   2.414 -0.8241  3.6306 -1.0480
  566SOL     OW 1696   1.364   2.507   2.358  0.2747  1.0882 -0.6694
  566SOL    HW1 1697   1.456   2.494   2.405 -0.3669 -0.6050  2.1664
  566SOL    HW2 1698   1.309   2.417   2.358 -1.1005 -4.8472 -0.6189
  567SOL     OW 1699   1.989   2.202   1.279 -0.0499 -0.9671  0.0647
  567SOL    HW1 1700   2.017   2.302   1.285  1.5849  2.0724 -2.5163
  567SOL    HW2 1701   1.914   2.180   1.217  2.1426 -2.1841  1.4576
  568SOL     OW 1702   2.320   0.820   3.004 -0.2208  0.4667 -0.0075
  568SOL    HW1 1703   2.242   0.864   3.057  1.6112 -0.4329  1.5054
  568SOL    HW2 1704   2.290   0.725   2.979 -0.6991  1.2291 -1.6996
  569SOL     OW 1705   2.920   1.588   2.197 -0.8940  0.0487  0.0806
  569SOL    HW1 1706   2.947   1.688   2.213  2.0377  2.4857  1.9655
  569SOL    HW2 1707   2.960   1.535   2.278  1.0519  2.4467 -1.8657
  570SOL     OW 1708   2.591   2.651   1.835 -0.2129 -0.1231 -0.3475
  570SOL    HW1 1709   2.561   2.688   1.744 -1.2903  0.0591  0.3313
  570SOL    HW2 1710   2.693   2.641   1.838 -2.2473 -0.9532 -0.2245
  571SOL     OW 1711   0.367   0.408   1.710  0.0517 -0.2071  0.0124
  571SOL    HW1 1712   0.358   0.331   1.643 -0.2396 -2.6275 -3.9371
  571SOL    HW2 1713   0.327   0.495   1.669  0.3000 -0.8344 -1.9619
  572SOL     OW 1714   2.990   2.155   0.708 -0.1369  0.4459 -0.3878
  572SOL    HW1 1715   2.941   2.234   0.743  1.2269 -2.7850  0.8640
  572SOL    HW2 1716   3.035   2.102   0.785  1.0239 -1.0389  2.0191
  573SOL     OW 1717   1.096   0.803   0.015  0.2748  0.1663  0.2219
  573SOL    HW1 1718   1.095   0.884   0.075  0.6317 -1.7571  1.2876
  573SOL    HW2 1719   1.005   0.759   0.012 -2.3493  0.8525 -0.0439
  574SOL     OW 1720   3.045   2.890   0.104  0.0093 -0.9379  0.2610
  574SOL    HW1 1721   3.098   2.845   0.029 -1.3371  0.9722 -1.9654
  574SOL    HW2 1722   3.037   2.825   0.181  1.0486  1.2858  1.0967
  575SOL     OW 1723   1.093   1.820   1.407 -0.1373  0.3529  0.1933
  575SOL    HW1 1724   1.116   1.768   1.321  0.1916  4.2442  2.4694
  575SOL    HW2 1725   1.130   1.913   1.406 -1.1666 -0.3347  1.2595
  576SOL     OW 1726   3.011   2.932   1.413 -0.3409 -0.0575  0.0466
  576SOL    HW1 1727   2.930   2.989   1.435 -1.0917 -2.9982  2.3928
  576SOL    HW2 1728   3.021   2.860   1.483  0.7607  2.7272 -1.3331
  577SOL     OW 1729   2.035   1.591   1.776  0.4330  0.6435 -0.1349
  577SOL    HW1 1730   1.937   1.562   1.773 -0.2370 -1.4823 -0.4492
  577SOL    HW2 1731   2.062   1.627   1.690  1.0272 -2.7608  3.0052
  578SOL     OW 1732   1.122   0.127   2.895  0.1147 -0.2011 -0.0360
  578SOL    HW1 1733   1.028   0.152   2.924  1.2456 -1.7839 -0.6004
  578SOL    HW2 1734   1.170   0.207   2.849 -1.0855  3.0878  0.7426
  579SOL     OW 1735   2.398   1.782   2.169 -0.0288  0.0694  0.0210
  579SOL    HW1 1736   2.310   1.781   2.124 -0.6092  3.2014  0.0044
  579SOL    HW2 1737   2.464   1.720   2.128  0.6971 -2.8301  1.4854
  580SOL     OW 1738   1.780   0.450   1.753 -0.3212  0.1772  0.0338
  580SOL    HW1 1739   1.799   0.447   1.652 -1.8021  0.2868 -0.7248
  580SOL    HW2 1740   1.716   0.526   1.780  0.8516  1.8534  1.6421
  581SOL     OW 1741   0.918   1.551   1.403 -0.3766  0.2182  0.3077
  581SOL    HW1 1742   0.928   1.505   1.310  2.3742 -0.1238 -1.0227
  581SOL    HW2 1743   0.932   1.650   1.402 -0.1315 -1.8901 -0.4870
  582SOL     OW 1744   0.029   2.736   2.044  0.2060  0.5903 -0.1740
  582SOL    HW1 1745   0.014   2.812   1.978  1.1020 -0.2431  0.1201
  582SOL    HW2 1746   3.098   2.762   2.135  0.7659 -1.5680 -1.2758
  583SOL     OW 1747   1.972   1.385   1.438 -0.2931  0.7653  0.2755
  583SOL    HW1 1748   1.924   1.465   1.462  1.2519 -4.4921  0.4742
  583SOL    HW2 1749   2.074   1.397   1.427  1.0901 -0.6744 -1.6250
  584SOL     OW 1750   1.216   1.965   2.748 -0.2149 -0.0807  0.0742
  584SOL    HW1 1751   1.319   1.948   2.744  0.8568  0.6954 -0.8354
  584SOL    HW2 1752   1.163   1.881   2.753  0.6444  1.3761  1.7251
  585SOL     OW 1753   0.294   2.621   0.384  0.0198 -0.3245 -0.6201
  585SOL    HW1 1754   0.332   2.528   0.414  0.4645  0.2119 -2.4593
  585SOL    HW2 1755   0.228   2.611   0.306 -1.0448 -1.3804 -1.9310
  586SOL     OW 1756   1.801   2.343   2.865  0.4941 -0.6087  0.1368
  586SOL    HW1 1757   1.843   2.319   2.957 -0.5299 -3.5497  0.8923
  586SOL    HW2 1758   1.851   2.292   2.790  3.8184  0.3673 -1.3786
  587SOL     OW 1759   2.729   1.801   0.272  0.6066 -0.0193  0.1525
  587SOL    HW1 1760   2.734   1.901   0.293 -1.8250  0.0520 -2.0348
  587SOL    HW2 1761   2.806   1.741   0.302  0.8959  1.1033 -0.3327
  588SOL     OW 1762   2.178   0.169   1.245 -0.1823  0.0702  0.0450
  588SOL    HW1 1763   2.187   0.194   1.146 -0.7542  1.4499 -3.1743
  588SOL    HW2 1764   2.238   0.224   1.303  0.7575  1.4739 -0.5472
  589SOL     OW 1765   0.991   0.791   0.501  0.3712 -0.4333  0.4777
  589SOL    HW1 1766   0.901   0.823   0.461  0.5884  1.4078  1.7333
  589SOL    HW2 1767   1.047   0.747   0.430 -1.9276  1.8832 -0.2692
  590SOL     OW 1768   2.511   2.143   0.222  0.2664 -0.1714 -0.7254
  590SOL    HW1 1769   2.534   2.230   0.174 -1.2898 -1.7346  0.3418
  590SOL    HW2 1770   2.513   2.075   0.146  0.5266 -0.2222 -1.6630
  591SOL     OW 1771   0.058   2.560   1.531  0.2598 -0.6075 -0.1019
  591SOL    HW1 1772   0.119   2.569   1.616  0.9501 -1.6817 -0.3694
  591SOL    HW2 1773   0.014   2.469   1.520 -0.3769 -0.4053 -1.2178
  592SOL     OW 1774   0.816   1.089   1.366 -0.3493  0.1516  0.5486
  592SOL    HW1 1775   0.821   1.115   1.462  2.1358 -2.5230 -0.5782
  592SOL    HW2 1776   0.886   1.013   1.353  1.3118 -0.3503 -0.6157
  593SOL     OW 1777   0.943   1.497   1.125  0.2782  0.0559 -0.3791
  593SOL    HW1 1778   0.993   1.583   1.140 -1.7473 -0.5284 -2.1569
  593SOL    HW2 1779   0.864   1.513   1.063  0.0374 -2.5047 -0.5095
  594SOL     OW 1780   0.383   2.036   2.777 -0.1766  0.5177  0.3476
  594SOL    HW1 1781   0.303   1.975   2.804 -0.1103 -2.5793  1.0051
  594SOL    HW2 1782   0.443   1.985   2.709  2.7552 -0.8146 -1.3435
  595SOL     OW 1783   1.512   0.427   1.176 -0.3562 -0.2540  0.2219
  595SOL    HW1 1784   1.563   0.463   1.094 -0.5009 -1.4122 -0.0013
  595SOL    HW2 1785   1.410   0.436   1.166  0.6026 -1.8013 -0.6569
  596SOL     OW 1786   0.098   1.204   0.477  0.0619  0.2089 -0.2048
  596SOL    HW1 1787   0.014   1.197   0.422  0.1224  0.6711  0.3434
  596SOL    HW2 1788   0.152   1.118   0.480 -1.0877  1.4531  2.3906
  597SOL     OW 1789   0.034   2.361   3.032 -0.1371 -0.2791  0.3848
  597SOL    HW1 1790   0.072   2.273   3.003  0.4997  0.2622 -2.0078
  597SOL    HW2 1791   0.020   2.350   0.031 -2.1211 -3.5352 -2.7435
  598SOL     OW 1792   2.052   1.850   2.364  0.4936  0.1528 -0.1971
  598SOL    HW1 1793   1.970   1.796   2.390  0.5929  0.3481 -0.2314
  598SOL    HW2 1794   2.134   1.793   2.358  0.4788 -0.1761  2.2003
  599SOL     OW 1795   1.130   0.461   0.541  0.6886 -0.2543  0.1114
  599SOL    HW1 1796   1.059   0.448   0.471 -0.0983 -0.1957  0.5092
  599SOL    HW2 1797   1.184   0.541   0.514 -0.7891  1.9346 -1.8053
  600SOL     OW 1798   0.642   2.914   0.233 -0.0459 -0.5525 -0.4660
  600SOL    HW1 1799   0.559   2.972   0.262  1.5351 -1.6076  0.9607
  600SOL    HW2 1800   0.618   2.814   0.220  1.6560 -0.9187  2.2788
  601SOL     OW 1801   0.566   0.695   1.190  0.1332  0.3904 -0.1632
  601SOL    HW1 1802   0.561   0.797   1.176 -1.2102  0.3674 -0.5535
  601SOL    HW2 1803   0.653   0.667   1.233 -2.4707  0.8816 -1.6200
  602SOL     OW 1804   0.228   2.887   0.995 -0.1310  0.6597  0.1544
  602SOL    HW1 1805   0.211   2.886   1.096  1.1232  0.2591 -0.2476
  602SOL    HW2 1806   0.182   2.809   0.952 -1.3721 -3.1381  1.3259
  603SOL     OW 1807   1.199   2.714   2.410 -0.4617 -0.0263  0.0456
  603SOL    HW1 1808   1.194   2.764   2.317  2.4048 -3.9117  2.5069
  603SOL    HW2 1809   1.266   2.641   2.388  0.2940 -0.5422 -1.8380
  604SOL     OW 1810   0.703   2.897   2.684 -0.1392  0.6659  0.3033
  604SOL    HW1 1811   0.702   2.796   2.668 -0.6106  1.5203 -3.0650
  604SOL    HW2 1812   0.698   2.913   2.784  0.4759  1.0462 -0.6421
  605SOL     OW 1813   1.351   0.590   1.880 -0.6862  0.4953 -0.5635
  605SOL    HW1 1814   1.349   0.500   1.834 -0.8872  0.6407  2.1277
  605SOL    HW2 1815   1.297   0.596   1.965  1.4988  0.8434  1.1803
  606SOL     OW 1816   2.426   0.113   2.750  0.4695 -0.1932 -0.0976
  606SOL    HW1 1817   2.505   0.177   2.765 -2.3347  2.5068 -0.2726
  606SOL    HW2 1818   2.342   0.163   2.772 -1.1337 -0.2780 -0.4409
  607SOL     OW 1819   0.622   0.839   0.783 -0.5774 -0.1950  0.0436
  607SOL    HW1 1820   0.680   0.893   0.846 -0.2167  1.5408  1.2544
  607SOL    HW2 1821   0.556   0.786   0.837 -0.4131  0.3927 -0.7338
  608SOL     OW 1822   0.117   2.285   2.194  1.1477 -0.7529  0.3535
  608SOL    HW1 1823   0.190   2.353   2.204 -0.5716 -1.0152 -0.1334
  608SOL    HW2 1824   0.037   2.335   2.153 -1.0230  2.1365 -0.5716
  609SOL     OW 1825   1.452   0.729   3.013 -0.3226  0.6276 -0.0201
  609SOL    HW1 1826   1.489   0.640   2.990  1.5758  2.2422  0.7263
  609SOL    HW2 1827   1.406   0.729   3.102  1.3509 -1.2448 -2.9079
  610SOL     OW 1828   0.771   2.896   1.195 -0.5348 -0.0797 -0.4641
  610SOL    HW1 1829   0.705   2.947   1.138  1.3329 -4.4232 -0.0542
  610SOL    HW2 1830   0.852   2.876   1.136 -0.6009  0.2472 -0.2446
  611SOL     OW 1831   1.657   0.863   0.473 -0.0052  0.3295 -0.0657
  611SOL    HW1 1832   1.669   0.951   0.419  0.3668  0.0104 -0.3493
  611SOL    HW2 1833   1.743   0.803   0.467  1.4763  0.1222  0.4790
  612SOL     OW 1834   1.602   0.794   2.784 -0.1001  0.0765  0.3781
  612SOL    HW1 1835   1.582   0.801   2.682  0.3897 -4.0396 -1.7252
  612SOL    HW2 1836   1.512   0.788   2.833  1.1725  0.7917 -1.0209
  613SOL     OW 1837   2.339   0.846   1.026 -0.0823 -0.1019 -0.1087
  613SOL    HW1 1838   2.265   0.789   1.071 -0.8496 -1.7521  2.2649
  613SOL    HW2 1839   2.324   0.849   0.926 -3.0824  0.3645  1.1318
  614SOL     OW 1840   2.569   0.264   2.198 -0.2464 -0.0488 -0.2746
  614SOL    HW1 1841   2.668   0.282   2.182  3.3119  3.0718  1.2363
  614SOL    HW2 1842   2.524   0.225   2.109 -1.9205 -1.7471 -3.2046
  615SOL     OW 1843   0.843   2.025   1.078 -0.6914 -0.0986 -0.0547
  615SOL    HW1 1844   0.771   1.961   1.105  1.1096  1.5684  0.2571
  615SOL    HW2 1845   0.842   2.106   1.139  3.0682  1.4824  0.1427
  616SOL     OW 1846   1.802   1.276   2.636 -0.0652  0.2317 -0.1018
  616SOL    HW1 1847   1.750   1.253   2.551 -1.7202  3.3796 -2.4956
  616SOL    HW2 1848   1.868   1.352   2.616 -0.1031  0.4832 -0.8183
  617SOL     OW 1849   1.431   2.984   0.098  0.2426  0.3248 -0.0403
  617SOL    HW1 1850   1.530   2.958   0.113  2.8589  3.2728  1.2610
  617SOL    HW2 1851   1.409   3.064   0.159 -1.0482 -0.9684  2.5529
  618SOL     OW 1852   1.661   1.721   2.391  0.1067 -0.3374 -0.0774
  618SOL    HW1 1853   1.627   1.777   2.312  0.0777  0.8959 -0.6858
  618SOL    HW2 1854   1.690   1.630   2.349  0.3735  2.5359 -0.2929
  619SOL     OW 1855   2.487   1.472   1.008 -0.6130  0.5449  0.5338
  619SOL    HW1 1856   2.495   1.557   0.950  2.4096 -2.1593  1.5632
  619SOL    HW2 1857   2.571   1.412   0.982  1.3816  0.2744 -1.3702
  620SOL     OW 1858   2.106   2.755   2.803 -0.0594 -0.3284 -0.1718
  620SOL    HW1 1859   2.168   2.836   2.824  2.9490  0.6748  3.6901
  620SOL    HW2 1860   2.040   2.784   2.732  1.1257  1.5765  0.9085
  621SOL     OW 1861   2.637   1.362   0.652  0.2883  0.5093 -0.2710
  621SOL    HW1 1862   2.623   1.400   0.556  1.0086  0.3732  0.3051
  621SOL    HW2 1863   2.574   1.281   0.656  0.2964 -1.7921 -1.3820
  622SOL     OW 1864   1.039   2.524   2.514  0.1111 -0.1640  0.6990
  622SOL    HW1 1865   1.097   2.448   2.483 -1.8946 -1.5396 -0.9392
  622SOL    HW2 1866   1.071   2.617   2.495  1.1287 -1.5755 -0.8373
  623SOL     OW 1867   0.339   2.487   0.025  0.0171  0.5097 -0.0026
  623SOL    HW1 1868   0.428   2.523   3.092  2.8277  0.2421 -0.3501
  623SOL    HW2 1869   0.290   2.428   3.060 -1.1688 -1.3185  1.9350
  624SOL     OW 1870   0.407   2.799   3.089 -0.5193 -0.5912  0.0317
  624SOL    HW1 1871   0.309   2.779   3.063 -0.9510 -1.6924  0.4038
  624SOL    HW2 1872   0.432   2.906   3.078 -0.5421  1.8646 -0.1462
  625SOL     OW 1873   0.884   2.324   2.847 -0.5467 -0.1758 -0.5083
  625SOL    HW1 1874   0.882   2.329   2.745  1.1719 -0.8312 -0.1208
  625SOL    HW2 1875   0.966   2.274   2.877 -1.1423  0.7987 -0.3783
  626SOL     OW 1876   2.875   0.681   0.216 -0.0154 -0.3145  0.4382
  626SOL    HW1 1877   2.802   0.745   0.195 -0.1701  1.1041  5.2687
  626SOL    HW2 1878   2.877   0.606   0.155 -0.9760  3.7765  0.7093
  627SOL     OW 1879   1.784   1.614   0.066  0.5031  0.3419 -0.0350
  627SOL    HW1 1880   1.868   1.598   0.013 -0.4328 -1.7335  1.0630
  627SOL    HW2 1881   1.718   1.672   0.012 -2.5441  1.8360  0.9979
  628SOL     OW 1882   1.229   1.284   2.564 -0.0280  0.6202 -0.0469
  628SOL    HW1 1883   1.178   1.287   2.652 -1.3032  0.3761 -0.2332
  628SOL    HW2 1884   1.325   1.322   2.573  3.1696 -1.0987  2.6631
  629SOL     OW 1885   0.556   3.023   1.695  0.5407 -0.6363  0.5261
  629SOL    HW1 1886   0.490   2.991   1.622 -1.9020 -1.1214  4.2376
  629SOL    HW2 1887   0.595   0.009   1.670 -1.5835 -4.8826 -1.2049
  630SOL     OW 1888   2.149   1.197   1.968 -0.2886  0.6580 -0.1323
  630SOL    HW1 1889   2.211   1.274   1.996  0.4197 -1.2702  0.6042
  630SOL    HW2 1890   2.171   1.114   2.023  0.1139 -0.8990  1.2223
  631SOL     OW 1891   1.910   0.245   0.599  0.0976  0.1220 -0.6766
  631SOL    HW1 1892   1.857   0.307   0.661 -2.0518  1.3684  1.5064
  631SOL    HW2 1893   1.853   0.171   0.562 -0.3824 -0.8619 -3.4832
  632SOL     OW 1894   3.097   0.715   1.798 -0.1299  0.2109  0.2072
  632SOL    HW1 1895   3.031   0.742   1.727  1.4644  0.0254  0.3332
  632SOL    HW2 1896   3.079   0.622   1.841 -2.0466  1.3315  1.5995
  633SOL     OW 1897   0.869   0.428   3.086 -0.6050 -0.1675  0.2397
  633SOL    HW1 1898   0.802   0.440   3.008  0.5904 -0.9361 -0.5450
  633SOL    HW2 1899   0.870   0.325   0.005 -2.2308  0.8335 -0.2486
  634SOL     OW 1900   0.573   2.605   3.026 -0.5029  0.0367 -1.0430
  634SOL    HW1 1901   0.670   2.635   3.012 -1.4939  0.0472  1.2735
  634SOL    HW2 1902   0.517   2.692   3.029 -1.6407 -2.2019 -0.9461
  635SOL     OW 1903   0.265   0.597   0.669 -0.4153  0.1036 -0.1468
  635SOL    HW1 1904   0.218   0.553   0.590 -0.8986 -1.7851 -1.5770
  635SOL    HW2 1905   0.280   0.699   0.661  1.2237  1.8737 -0.1788
  636SOL     OW 1906   0.556   1.281   0.071 -0.0343  0.3039 -0.0469
  636SOL    HW1 1907   0.650   1.255   0.045 -0.1778  2.4348 -0.2445
  636SOL    HW2 1908   0.546   1.371   0.111 -0.6351 -0.6439 -1.6797
  637SOL     OW 1909   0.183   2.706   0.613 -0.4567  0.1662  0.2633
  637SOL    HW1 1910   0.247   2.680   0.539 -1.4132 -0.4152 -2.4414
  637SOL    HW2 1911   0.131   2.788   0.589  0.9651 -1.0154 -2.2402
  638SOL     OW 1912   2.751   2.354   0.422 -0.2120  0.7709 -0.2576
  638SOL    HW1 1913   2.751   2.251   0.414 -0.1387 -5.5603  0.3046
  638SOL    HW2 1914   2.733   2.381   0.519  2.4602  0.1363  2.3364
  639SOL     OW 1915   1.701   0.937   0.100 -0.3805 -0.3134  0.2930
  639SOL    HW1 1916   1.614   0.884   0.108  0.5449 -0.2031  0.8445
  639SOL    HW2 1917   1.700   0.994   0.183  0.4762  2.1137 -1.5944
  640SOL     OW 1918   1.794   2.378   1.819  0.1014  0.0912  0.1957
  640SOL    HW1 1919   1.768   2.361   1.723  2.9413  1.0640  0.4804
  640SOL    HW2 1920   1.750   2.309   1.877  3.1080 -1.4916 -0.6743
  641SOL     OW 1921   2.972   2.990   0.725  0.4203 -0.0509  0.0357
  641SOL    HW1 1922   2.938   3.087   0.719 -3.3325 -2.5492  4.2415
  641SOL    HW2 1923   2.907   2.934   0.783  0.9462  0.6450 -0.5113
  642SOL     OW 1924   1.016   0.418   1.822  0.5980 -0.2904 -0.3201
  642SOL    HW1 1925   0.977   0.431   1.733  0.0420  0.1595  0.6624
  642SOL    HW2 1926   1.095   0.352   1.819  0.7611  0.2072 -0.3588
  643SOL     OW 1927   0.871   2.360   2.589 -0.4644 -0.2126  0.0320
  643SOL    HW1 1928   0.777   2.358   2.545  1.9190 -2.1449  0.5985
  643SOL    HW2 1929   0.932   2.429   2.545 -1.6862 -2.8335 -0.8093
  644SOL     OW 1930   1.285   2.543   0.400 -0.1589 -0.2507  0.2489
  644SOL    HW1 1931   1.308   2.486   0.482  0.7053 -0.8321 -1.0924
  644SOL    HW2 1932   1.198   2.518   0.360  0.7659  0.5269  0.7674
  645SOL     OW 1933   1.638   1.268   1.967 -0.6046 -0.6923  0.0710
  645SOL    HW1 1934   1.737   1.258   1.992 -1.6977  0.2272  0.2264
  645SOL    HW2 1935   1.626   1.283   1.863  1.5187  1.0332  0.5231
  646SOL     OW 1936   0.413   0.706   0.075  0.0403 -0.2112 -0.3033
  646SOL    HW1 1937   0.424   0.625   0.134  1.0813 -0.1970 -0.5041
  646SOL    HW2 1938   0.496   0.721   0.025 -0.5885  0.3178  2.9324
  647SOL     OW 1939   1.072   0.247   0.688 -0.1172 -0.0100 -0.5196
  647SOL    HW1 1940   1.089   0.337   0.642 -1.1438 -1.0892 -0.5085
  647SOL    HW2 1941   1.154   0.187   0.698 -0.4150 -2.9945  0.0872
  648SOL     OW 1942   2.262   2.820   1.223  0.4627 -0.5570  0.0290
  648SOL    HW1 1943   2.353   2.854   1.188 -1.3347 -1.0565  1.5007
  648SOL    HW2 1944   2.238   2.728   1.187  0.4672 -1.0955 -0.2703
  649SOL     OW 1945   0.478   1.948   0.016  0.0763  0.4972  0.4077
  649SOL    HW1 1946   0.465   2.035   3.066 -0.7607 -1.0805 -0.2149
  649SOL    HW2 1947   0.506   1.961   0.112  0.7910  0.5337 -0.9196
  650SOL     OW 1948   2.165   2.073   1.832 -0.1593 -0.2533 -0.5812
  650SOL    HW1 1949   2.138   2.172   1.843  0.7193  0.6362 -1.7175
  650SOL    HW2 1950   2.078   2.019   1.831 -1.1603  2.8292  0.4137
  651SOL     OW 1951   0.171   3.058   2.610 -0.0590 -0.1528  0.3726
  651SOL    HW1 1952   0.206   2.988   2.547 -1.2115 -0.1689  0.2507
  651SOL    HW2 1953   0.125   0.041   2.575  1.0307 -1.9645  5.4963
  652SOL     OW 1954   2.898   1.700   0.580 -0.4951  0.3446 -0.4871
  652SOL    HW1 1955   2.813   1.652   0.600 -1.3711  1.2463 -0.2132
  652SOL    HW2 1956   2.975   1.681   0.651  0.4981 -0.2987  2.9269
  653SOL     OW 1957   0.015   0.362   1.266 -0.3499 -0.1420  0.4941
  653SOL    HW1 1958   0.045   0.361   1.168 -0.7631  1.4342  0.1125
  653SOL    HW2 1959   0.093   0.387   1.328 -2.4344 -0.0864 -1.4864
  654SOL     OW 1960   0.890   0.188   0.080  0.9250  0.2302 -0.2498
  654SOL    HW1 1961   0.961   0.126   0.125  1.9622 -1.0770 -0.3525
  654SOL    HW2 1962   0.800   0.140   0.072 -0.7680 -1.0950  0.3433
  655SOL     OW 1963   0.525   2.994   1.040 -0.0456  0.3441 -0.2085
  655SOL    HW1 1964   0.522   3.093   1.030  1.0759 -0.1961 -1.7813
  655SOL    HW2 1965   0.434   2.949   1.035 -2.7771 -1.4516  1.8013
  656SOL     OW 1966   0.335   2.742   2.059  0.7453 -0.3229 -0.0789
  656SOL    HW1 1967   0.352   2.822   2.115  0.2012 -0.6924 -1.5390
  656SOL    HW2 1968   0.238   2.718   2.063  1.3853  0.4229  0.2117
  657SOL     OW 1969   2.421   0.460   2.704 -0.4213 -0.3439 -0.0234
  657SOL    HW1 1970   2.474   0.380   2.737 -1.6157  0.3256 -0.0781
  657SOL    HW2 1971   2.477   0.513   2.638  0.5821  3.0241  2.4167
  658SOL     OW 1972   1.997   1.634   1.166 -0.0271  0.0794 -0.0753
  658SOL    HW1 1973   1.954   1.682   1.088 -0.4546 -0.1952 -3.9891
  658SOL    HW2 1974   2.051   1.688   1.237 -0.2706 -0.2189  1.1412
  659SOL     OW 1975   2.347   2.376   2.814 -0.4725  0.5760 -0.2880
  659SOL    HW1 1976   2.308   2.413   2.900 -0.4064 -0.5754 -0.7120
  659SOL    HW2 1977   2.449   2.382   2.820  1.1758  0.1564  0.5240
  660SOL     OW 1978   1.268   0.670   0.430  0.3194  0.1557  0.4580
  660SOL    HW1 1979   1.303   0.753   0.479 -2.9240 -1.9867 -2.1446
  660SOL    HW2 1980   1.341   0.601   0.408 -2.5257  1.0665  0.3837
  661SOL     OW 1981   2.360   2.847   0.640 -0.2481 -0.0230  0.1947
  661SOL    HW1 1982   2.341   2.826   0.543 -0.3007  2.5922  0.9214
  661SOL    HW2 1983   2.335   2.943   0.655 -2.1672 -0.4239 -0.3508
  662SOL     OW 1984   1.173   0.197   1.098 -0.0887 -0.2239  0.2228
  662SOL    HW1 1985   1.113   0.183   1.011 -2.2964  0.8964 -2.2455
  662SOL    HW2 1986   1.189   0.102   1.138 -0.2315 -0.0520  0.4185
  663SOL     OW 1987   1.691   2.684   2.407  0.5234 -0.2254 -0.0269
  663SOL    HW1 1988   1.780   2.654   2.370 -0.3173  1.2832 -0.5687
  663SOL    HW2 1989   1.642   2.619   2.469 -1.2743 -0.1825  0.7476
  664SOL     OW 1990   0.584   2.078   1.447  0.5714 -0.4412  0.0332
  664SOL    HW1 1991   0.563   2.124   1.359  1.1141 -1.7392  0.9288
  664SOL    HW2 1992   0.684   2.081   1.468 -0.6888 -0.1393  1.0362
  665SOL     OW 1993   0.757   2.249   1.723  0.4689  0.0635 -0.5310
  665SOL    HW1 1994   0.809   2.237   1.809  1.2556  2.3482 -0.2512
  665SOL    HW2 1995   0.818   2.266   1.645 -0.8397  0.8924  2.3308
  666SOL     OW 1996   0.123   2.777   3.014  0.2928 -0.0989 -0.1025
  666SOL    HW1 1997   0.118   2.857   2.950  0.2369 -1.0911  0.9625
  666SOL    HW2 1998   0.085   2.695   2.964 -0.2457 -0.4082 -0.1354
  667SOL     OW 1999   1.457   1.578   1.626 -0.2016 -0.5713 -0.2388
  667SOL    HW1 2000   1.357   1.588   1.610  1.5829  0.0597 -0.2582
  667SOL    HW2 2001   1.503   1.635   1.555  0.5850 -0.9281 -3.1650
  668SOL     OW 2002   1.406   0.360   2.126  0.0437  0.1729  0.2386
  668SOL    HW1 2003   1.322   0.311   2.107 -0.3075  2.0738 -0.6356
  668SOL    HW2 2004   1.449   0.386   2.039 -0.4183  0.7456  0.5581
  669SOL     OW 2005   2.582   2.232   1.505  0.0877 -0.3705  0.2975
  669SOL    HW1 2006   2.486   2.239   1.532  0.4780  0.8736 -1.9826
  669SOL    HW2 2007   2.644   2.294   1.560 -1.5777  0.6181  0.1134
  670SOL     OW 2008   1.681   2.079   0.160 -0.1596 -0.2397  0.0345
  670SOL    HW1 2009   1.627   2.090   0.076 -2.7332  2.0126  1.4454
  670SOL    HW2 2010   1.709   2.174   0.188  0.5572  1.9961 -1.8457
  671SOL     OW 2011   1.361   1.040   0.975  0.2938  0.4570 -0.0920
  671SOL    HW1 2012   1.380   1.011   1.070  0.5481  1.4847 -0.4393
  671SOL    HW2 2013   1.312   1.126   0.977 -1.7578  0.0914  0.9083
  672SOL     OW 2014   2.773   1.117   2.527 -0.0825 -0.6702  0.0311
  672SOL    HW1 2015   2.696   1.177   2.487 -2.9316  1.7260 -0.9317
  672SOL    HW2 2016   2.859   1.138   2.476 -2.2240 -0.2875 -1.9549
  673SOL     OW 2017   0.065   1.739   1.388 -0.1531  0.7932 -0.1245
  673SOL    HW1 2018   3.071   1.721   1.418 -2.1893 -0.0342  0.0107
  673SOL    HW2 2019   0.108   1.804   1.454 -3.0253 -1.0442 -0.0876
  674SOL     OW 2020   0.858   2.559   2.183  0.0609  0.2560  0.0186
  674SOL    HW1 2021   0.806   2.530   2.099  0.7407 -1.4133 -0.0999
  674SOL    HW2 2022   0.788   2.593   2.250 -0.3253 -1.1101 -0.3434
  675SOL     OW 2023   0.814   1.141   1.639 -0.2651  0.0390 -0.2022
  675SOL    HW1 2024   0.724   1.096   1.634 -0.4489 -0.0914  1.9851
  675SOL    HW2 2025   0.828   1.175   1.734  0.1693 -0.8354 -0.0684
  676SOL     OW 2026   2.327   0.411   0.798  0.2535 -0.6589  0.0378
  676SOL    HW1 2027   2.369   0.398   0.705  1.4868 -0.1222 -2.2578
  676SOL    HW2 2028   2.375   0.484   0.855  2.9481  0.8865  0.6947
  677SOL     OW 2029   2.459   1.580   2.979  0.1619 -0.0420  0.0166
  677SOL    HW1 2030   2.441   1.489   3.013 -2.9842 -0.2415  2.2818
  677SOL    HW2 2031   2.523   1.574   2.905 -0.4032  0.1016  1.7141
  678SOL     OW 2032   0.226   0.414   1.420  0.1762  0.3481  0.1465
  678SOL    HW1 2033   0.251   0.334   1.479 -0.6711  0.1407 -0.4194
  678SOL    HW2 2034   0.221   0.498   1.479 -0.1946 -2.3713 -0.7991
  679SOL     OW 2035   2.407   0.261   0.268  0.1999  0.2158  0.6684
  679SOL    HW1 2036   2.492   0.313   0.269  0.3603 -2.6930 -1.8155
  679SOL    HW2 2037   2.370   0.253   0.170 -0.4718  1.0770 -1.4668
  680SOL     OW 2038   0.048   2.316   1.760  0.7075 -0.2358  0.0260
  680SOL    HW1 2039   0.052   2.416   1.753  0.2112 -1.1589  1.0945
  680SOL    HW2 2040   0.112   2.278   1.837  2.6963 -1.1562  3.2985
  681SOL     OW 2041   2.204   2.055   1.266  0.2102 -0.2879  0.4533
  681SOL    HW1 2042   2.120   2.105   1.291 -1.6992  0.6301 -0.0316
  681SOL    HW2 2043   2.261   2.125   1.223 -3.2307  2.6016  1.9206
  682SOL     OW 2044   2.932   2.139   1.913  0.1293 -0.2193  0.4715
  682SOL    HW1 2045   2.932   2.130   1.810  1.6605  2.5456 -1.9021
  682SOL    HW2 2046   3.023   2.111   1.956  0.5090 -1.0492 -1.7463
  683SOL     OW 2047   3.040   2.180   1.141 -0.8056  0.1973 -0.4203
  683SOL    HW1 2048   3.019   2.273   1.110  1.8632 -3.7702  0.4694
  683SOL    HW2 2049   2.953   2.134   1.166  0.5442  0.7316  0.5680
  684SOL     OW 2050   2.714   0.856   2.617 -0.0047  0.2134 -0.2691
  684SOL    HW1 2051   2.705   0.953   2.588 -2.6468  3.3850 -0.1520
  684SOL    HW2 2052   2.744   0.853   2.715  0.5868 -0.6856 -0.1816
  685SOL     OW 2053   1.484   1.193   0.474  0.1196 -0.0022  0.5858
  685SOL    HW1 2054   1.482   1.154   0.569  3.9556  0.0746 -0.3131
  685SOL    HW2 2055   1.445   1.288   0.478 -2.8678 -3.2335  0.2624
  686SOL     OW 2056   0.365   0.195   0.206  0.2510 -0.1663  0.2121
  686SOL    HW1 2057   0.383   0.261   0.130 -1.4719  0.6526  2.1167
  686SOL    HW2 2058   0.385   0.240   0.300  1.0060  0.5357  5.9279
  687SOL     OW 2059   1.489   1.355   2.611  0.1254 -0.1464 -0.6679
  687SOL    HW1 2060   1.481   1.454   2.626 -0.5768  2.0894  0.0889
  687SOL    HW2 2061   1.554   1.337   2.536 -2.3526  2.2426 -0.3017
  688SOL     OW 2062   1.624   1.363   1.667  0.2142  0.1376  0.0828
  688SOL    HW1 2063   1.692   1.421   1.714 -2.2446  0.0996  1.3009
  688SOL    HW2 2064   1.560   1.420   1.611 -0.7037 -3.4251  0.6149
  689SOL     OW 2065   2.109   3.025   1.338  0.3489 -0.2641  0.6583
  689SOL    HW1 2066   2.140   0.014   1.296 -1.9105 -1.2701 -0.4199
  689SOL    HW2 2067   2.156   2.953   1.290 -0.5725  0.2710  1.6952
  690SOL     OW 2068   0.036   1.115   1.177 -0.1840  0.3486 -0.0169
  690SOL    HW1 2069   3.059   1.077   1.126  0.0996  0.9217  2.0713
  690SOL    HW2 2070   0.124   1.068   1.172 -2.0195 -1.2025 -0.3187
  691SOL     OW 2071   0.562   2.300   1.217  0.8805  0.5706 -0.6690
  691SOL    HW1 2072   0.585   2.304   1.119  1.5623  0.8595  2.3501
  691SOL    HW2 2073   0.471   2.340   1.231 -0.7508 -0.8007 -1.5845
  692SOL     OW 2074   2.325   0.726   1.894  0.0758  0.3191  0.2193
  692SOL    HW1 2075   2.381   0.806   1.872 -2.5402  1.9985  0.6531
  692SOL    HW2 2076   2.385   0.655   1.943  0.1009 -0.4295 -0.3248
  693SOL     OW 2077   0.528   1.815   2.086  0.5036  0.3751 -0.2796
  693SOL    HW1 2078   0.599   1.784   2.021  0.1217  1.4588 -0.6139
  693SOL    HW2 2079   0.518   1.733   2.152  2.6154 -2.1521  1.9564
  694SOL     OW 2080   1.612   1.376   1.314 -0.0369  0.1096  0.5689
  694SOL    HW1 2081   1.675   1.315   1.363 -0.0329  0.7770 -0.3834
  694SOL    HW2 2082   1.517   1.367   1.347  1.1576 -1.0128  1.6756
  695SOL     OW 2083   0.764   1.407   0.696 -0.3981 -0.0590  0.4082
  695SOL    HW1 2084   0.678   1.383   0.742  0.5175 -0.1795  0.6380
  695SOL    HW2 2085   0.776   1.369   0.597  0.7712 -3.2762 -1.7521
  696SOL     OW 2086   1.111   2.895   0.241  0.5794 -0.2744  0.2022
  696SOL    HW1 2087   1.154   2.908   0.335  2.6543 -2.1527 -1.2081
  696SOL    HW2 2088   1.168   2.848   0.173 -1.2553 -2.5366  1.7703
  697SOL     OW 2089   1.619   0.242   1.874 -0.1586 -0.1227 -0.6268
  697SOL    HW1 2090   1.708   0.282   1.850 -0.2152  0.2559  0.0446
  697SOL    HW2 2091   1.622   0.184   1.960  2.8057 -1.3883 -0.0565
  698SOL     OW 2092   1.687   1.481   2.256 -0.7837 -0.1122 -0.0050
  698SOL    HW1 2093   1.763   1.502   2.192 -0.8414 -1.2742 -0.7079
  698SOL    HW2 2094   1.596   1.478   2.209  2.4643 -0.6368 -2.1650
  699SOL     OW 2095   2.677   0.395   1.912 -0.4984 -0.5784  0.4074
  699SOL    HW1 2096   2.635   0.302   1.908  1.9534 -1.4639 -0.8843
  699SOL    HW2 2097   2.713   0.425   1.819  1.3626 -2.3421  1.5681
  700SOL     OW 2098   1.190   2.023   0.460  0.3314  0.4793 -0.2091
  700SOL    HW1 2099   1.256   2.041   0.384  0.3474 -0.8035 -1.7889
  700SOL    HW2 2100   1.097   2.002   0.422  1.3333  0.6284  0.4300
  701SOL     OW 2101   2.163   3.029   2.582  0.1503 -0.1083  0.0560
  701SOL    HW1 2102   2.193   3.026   2.681  2.3737  0.8816  2.7839
  701SOL    HW2 2103   2.242   3.064   2.525 -0.8683 -1.6932 -0.6555
  702SOL     OW 2104   0.897   3.063   0.735 -0.2188 -0.2333 -0.0180
  702SOL    HW1 2105   0.838   2.992   0.775 -0.3644 -1.3296 -2.8542
  702SOL    HW2 2106   0.844   0.046   0.713  1.2188  0.7134 -1.9157
  703SOL     OW 2107   2.170   3.069   2.165 -0.4697  0.3879 -0.0419
  703SOL    HW1 2108   2.073   3.097   2.142  1.5922  0.1774  1.4003
  703SOL    HW2 2109   2.199   0.008   2.252  0.1054 -0.8923 -1.5133
  704SOL     OW 2110   2.703   2.067   0.379 -0.3767 -0.0338 -0.0338
  704SOL    HW1 2111   2.617   2.093   0.330 -1.1792 -0.1248  1.1154
  704SOL    HW2 2112   2.678   2.035   0.475 -0.0589 -0.3575 -0.5352
  705SOL     OW 2113   2.617   2.775   2.655  0.3117  0.5561 -0.0511
  705SOL    HW1 2114   2.608   2.877   2.669 -1.0680  1.1065 -1.3157
  705SOL    HW2 2115   2.579   2.744   2.564 -0.9139  0.2962 -2.2613
  706SOL     OW 2116   2.644   0.154   1.210 -0.1689  0.1777 -0.2759
  706SOL    HW1 2117   2.639   0.234   1.272 -3.1594 -0.3335  0.1191
  706SOL    HW2 2118   2.560   0.148   1.150  2.8829  0.9030 -3.4445
  707SOL     OW 2119   0.898   3.066   2.524 -0.4236 -0.2607  0.1991
  707SOL    HW1 2120   0.885   3.008   2.605 -0.1303  0.4087  1.0883
  707SOL    HW2 2121   0.821   0.032   2.513 -1.9772 -2.1697  0.1206
  708SOL     OW 2122   0.164   2.120   1.597 -0.1551 -0.0199  0.2923
  708SOL    HW1 2123   0.149   2.179   1.517 -0.3114  0.3221  2.9161
  708SOL    HW2 2124   0.118   2.163   1.672  1.1110  0.7513 -1.7425
  709SOL     OW 2125   1.384   0.360   1.515  0.2271 -0.0670  0.3876
  709SOL    HW1 2126   1.460   0.431   1.509  1.5237  0.9903 -1.6056
  709SOL    HW2 2127   1.411   0.277   1.462 -1.2402  0.9497  3.2063
  710SOL     OW 2128   0.793   2.988   2.941  0.3635 -0.2903  0.5059
  710SOL    HW1 2129   0.833   3.000   3.033  0.8431  0.0249 -0.5840
  710SOL    HW2 2130   0.813   3.076   2.883 -2.1705  1.2787 -1.4342
  711SOL     OW 2131   1.133   2.061   2.508  0.0088 -0.0526 -0.1942
  711SOL    HW1 2132   1.175   2.012   2.586  0.7209 -0.1964  2.1001
  711SOL    HW2 2133   1.031   2.053   2.515  0.6789  2.0396 -0.9188
  712SOL     OW 2134   1.094   2.169   2.916  0.3809  0.4635  0.0684
  712SOL    HW1 2135   1.106   2.095   2.847 -1.8110  0.7519  1.6723
  712SOL    HW2 2136   1.082   2.127   3.009  0.9241 -0.6342 -0.7281
  713SOL     OW 2137   1.953   1.221   2.305 -0.6957  0.0176 -0.5750
  713SOL    HW1 2138   1.856   1.230   2.336  0.0226 -1.2655  1.9817
  713SOL    HW2 2139   2.003   1.143   2.346  2.0356  3.9435 -1.2024
  714SOL     OW 2140   0.665   1.560   1.885 -0.2103  0.3329 -0.3113
  714SOL    HW1 2141   0.719   1.563   1.799 -3.3287 -0.0790 -2.6568
  714SOL    HW2 2142   0.569   1.537   1.857 -1.0638  0.2949  1.7467
  715SOL     OW 2143   2.579   0.474   0.265 -0.4392  0.2148  0.1581
  715SOL    HW1 2144   2.623   0.431   0.343 -0.4539  0.0371 -2.4819
  715SOL    HW2 2145   2.531   0.559   0.291  1.0408 -1.1549  0.0098
  716SOL     OW 2146   2.776   2.405   1.603 -0.2583 -0.0086 -0.0288
  716SOL    HW1 2147   2.861   2.382   1.553  1.7619  1.4989 -2.5374
  716SOL    HW2 2148   2.784   2.371   1.700 -0.9966 -2.0759  0.3938
  717SOL     OW 2149   2.286   1.051   1.232  0.3619  0.7513 -0.1201
  717SOL    HW1 2150   2.312   1.150   1.221 -0.6906  2.6836  0.2645
  717SOL    HW2 2151   2.298   0.998   1.140 -0.3372 -0.1859  1.7710
  718SOL     OW 2152   1.186   1.619   1.586  0.1065  0.0785  0.0555
  718SOL    HW1 2153   1.125   1.559   1.645 -1.7650 -0.3047  0.8044
  718SOL    HW2 2154   1.135   1.685   1.520 -0.6336  3.1530 -1.0112
  719SOL     OW 2155   2.893   0.519   3.099  0.0218 -0.1085 -0.4270
  719SOL    HW1 2156   2.924   0.597   3.036 -0.7501  2.6956 -3.0350
  719SOL    HW2 2157   2.972   0.459   0.010  3.0584  0.3111  1.7884
  720SOL     OW 2158   0.892   0.333   0.863 -0.2285 -0.1511 -0.3967
  720SOL    HW1 2159   0.979   0.299   0.816  0.3164  1.3259  0.5553
  720SOL    HW2 2160   0.834   0.385   0.794  1.0206 -0.6181 -3.5195
  721SOL     OW 2161   2.570   0.774   0.817 -0.2130 -0.2834  0.4031
  721SOL    HW1 2162   2.491   0.806   0.763 -1.5099 -0.8073  1.5194
  721SOL    HW2 2163   2.653   0.768   0.754 -1.0454 -0.6519 -2.6075
  722SOL     OW 2164   0.623   2.389   2.485 -0.1598  0.2090 -0.3479
  722SOL    HW1 2165   0.560   2.351   2.560 -0.4727 -1.2303 -1.0811
  722SOL    HW2 2166   0.593   2.357   2.396  1.6302 -1.2688  1.0868
  723SOL     OW 2167   1.937   0.019   0.942 -0.0503  0.2853  0.2045
  723SOL    HW1 2168   1.908   0.115   0.936 -2.6386 -0.0545  0.3718
  723SOL    HW2 2169   1.911   3.074   1.029 -0.5623 -0.0239 -0.5136
  724SOL     OW 2170   1.331   1.826   2.087  0.5369 -0.4312 -0.3024
  724SOL    HW1 2171   1.262   1.753   2.079  2.2289  1.0043  3.1480
  724SOL    HW2 2172   1.307   1.890   2.164 -0.0390  1.6229  0.7715
  725SOL     OW 2173   1.280   2.700   1.315  0.5701 -0.5701 -0.1696
  725SOL    HW1 2174   1.216   2.771   1.352 -0.5980 -1.8136 -0.5201
  725SOL    HW2 2175   1.307   2.722   1.221 -2.4406 -1.9345  0.8420
  726SOL     OW 2176   2.081   2.763   0.140 -0.0314  0.2138 -0.0059
  726SOL    HW1 2177   2.055   2.708   0.059 -0.4877  0.3974  1.3450
  726SOL    HW2 2178   2.028   2.739   0.223 -2.9059  1.2889  0.3653
  727SOL     OW 2179   1.472   1.757   1.113 -0.0067 -0.0281 -0.4934
  727SOL    HW1 2180   1.549   1.745   1.055 -1.5922  0.2127  2.0095
  727SOL    HW2 2181   1.444   1.667   1.152  2.3719  0.2447  0.0344
  728SOL     OW 2182   2.092   2.726   2.074 -0.5489  0.6241 -0.1052
  728SOL    HW1 2183   2.016   2.763   2.128 -1.3882 -0.1108  0.8752
  728SOL    HW2 2184   2.178   2.773   2.084 -0.9055 -0.5429 -1.0391
  729SOL     OW 2185   1.977   2.474   1.341 -0.1796 -0.2297  0.1093
  729SOL    HW1 2186   1.878   2.458   1.330  0.8231  0.8570 -1.4998
  729SOL    HW2 2187   2.014   2.505   1.434  1.0432  2.3168  2.9387
  730SOL     OW 2188   1.854   0.798   2.547 -0.1698  0.6714 -0.0174
  730SOL    HW1 2189   1.759   0.821   2.522 -1.5788 -0.3867 -0.6338
  730SOL    HW2 2190   1.869   0.849   2.634 -0.5125 -0.4620 -0.9425
  731SOL     OW 2191   0.989   2.882   1.039 -0.1738  0.0646 -0.0389
  731SOL    HW1 2192   1.062   2.952   1.051  1.8595  1.0877  1.3320
  731SOL    HW2 2193   1.021   2.815   0.967 -1.2329  0.6785  0.9283
  732SOL     OW 2194   1.316   0.119   0.775 -0.0133 -0.0917 -0.0122
  732SOL    HW1 2195   1.285   0.025   0.763 -2.3303 -0.4195 -0.9482
  732SOL    HW2 2196   1.413   0.117   0.806 -0.4726  0.6593  2.0172
  733SOL     OW 2197   1.474   1.203   0.756 -0.0855 -0.1842 -0.4282
  733SOL    HW1 2198   1.421   1.290   0.749  0.2470 -1.6728 -3.0159
  733SOL    HW2 2199   1.453   1.153   0.843 -4.1018  2.9788  0.6350
  734SOL     OW 2200   2.554   2.172   2.694  0.6056  0.2278 -0.4927
  734SOL    HW1 2201   2.603   2.220   2.619  2.1387 -0.3454  0.1508
  734SOL    HW2 2202   2.452   2.177   2.671  1.2214 -0.6244 -2.2369
  735SOL     OW 2203   0.655   0.165   0.955  0.1030 -0.0301 -0.0454
  735SOL    HW1 2204   0.663   0.146   0.856  0.1814  2.5712  2.0654
  735SOL    HW2 2205   0.744   0.208   0.983 -1.2330  2.6825 -2.2426
  736SOL     OW 2206   1.362   2.252   2.916 -0.2732  0.0067 -0.0248
  736SOL    HW1 2207   1.356   2.326   2.988  0.4792  2.0382  0.5116
  736SOL    HW2 2208   1.269   2.218   2.893  0.1147 -1.2677  1.9285
  737SOL     OW 2209   0.824   2.299   1.265  0.1077  0.4172 -0.4612
  737SOL    HW1 2210   0.725   2.281   1.253 -1.3141  0.7322  1.5920
  737SOL    HW2 2211   0.849   2.395   1.246  0.4979 -0.8748 -1.0700
  738SOL     OW 2212   1.540   2.919   2.759 -0.7568  0.5023 -0.0434
  738SOL    HW1 2213   1.461   2.977   2.783 -2.0951 -2.9601  0.8150
  738SOL    HW2 2214   1.627   2.953   2.799  1.5021  1.1493 -2.0902
  739SOL     OW 2215   0.914   2.276   1.956  0.1463 -0.2370  0.7394
  739SOL    HW1 2216   0.996   2.249   2.009 -2.8039 -1.4450  3.2460
  739SOL    HW2 2217   0.840   2.311   2.016 -0.6289 -1.1122  0.3907
  740SOL     OW 2218   1.502   2.298   1.565 -0.2230 -0.2124 -0.5668
  740SOL    HW1 2219   1.441   2.314   1.487 -1.4296 -0.2322 -2.0662
  740SOL    HW2 2220   1.446   2.306   1.650 -1.2500 -2.1354  0.9695
  741SOL     OW 2221   2.584   1.112   0.329 -0.7331  0.2038  0.2442
  741SOL    HW1 2222   2.583   1.120   0.435  1.3293  0.2733  2.8929
  741SOL    HW2 2223   2.557   1.200   0.281  0.7440  1.5087  1.1860
  742SOL     OW 2224   0.777   1.699   2.329 -0.6431  0.7590 -0.0913
  742SOL    HW1 2225   0.805   1.783   2.275  1.2541  0.2444 -0.7265
  742SOL    HW2 2226   0.678   1.691   2.315  0.4608  1.7459 -0.1145
  743SOL     OW 2227   0.665   1.181   2.663 -0.0280 -0.2211 -0.3393
  743SOL    HW1 2228   0.747   1.184   2.727 -2.1098  0.3842  1.3913
  743SOL    HW2 2229   0.594   1.245   2.697  0.4272 -1.3345 -0.8524
  744SOL     OW 2230   2.160   2.585   1.150 -0.1198  0.0417  0.2291
  744SOL    HW1 2231   2.111   2.603   1.061 -1.4435 -0.7942 -1.4047
  744SOL    HW2 2232   2.091   2.541   1.212 -1.6483  0.5225 -1.4800
  745SOL     OW 2233   2.119   1.740   1.533 -0.9229 -0.0589  0.2160
  745SOL    HW1 2234   2.150   1.726   1.438 -0.2374  0.4906  3.5930
  745SOL    HW2 2235   2.153   1.829   1.556 -0.8722 -1.0576 -1.9187
  746SOL     OW 2236   2.074   1.015   0.994  0.2390  0.4298 -0.1427
  746SOL    HW1 2237   2.162   1.056   0.974 -2.1578 -0.1947  0.6302
  746SOL    HW2 2238   2.016   1.080   1.046  2.8736 -4.9408 -0.8054
  747SOL     OW 2239   1.675   1.773   0.912  0.1426 -0.1157  0.4296
  747SOL    HW1 2240   1.770   1.802   0.930 -1.0276  1.9190 -1.5848
  747SOL    HW2 2241   1.654   1.789   0.810 -1.0633 -1.5561 -1.1638
  748SOL     OW 2242   0.541   1.641   0.750 -0.4208  0.1931 -0.4891
  748SOL    HW1 2243   0.595   1.646   0.661  0.4312  1.8899  0.7741
  748SOL    HW2 2244   0.480   1.721   0.758 -0.9330 -0.0088 -1.3253
  749SOL     OW 2245   0.074   2.927   2.283 -0.5154  0.4316 -0.5070
  749SOL    HW1 2246   0.083   3.022   2.239 -1.9880  1.1311 -1.8428
  749SOL    HW2 2247   0.168   2.896   2.324  3.7254 -2.6838  4.9374
  750SOL     OW 2248   1.937   0.257   1.114  0.2049 -0.3686  0.4197
  750SOL    HW1 2249   1.955   0.339   1.060  1.1562 -0.1121 -0.6476
  750SOL    HW2 2250   2.003   0.236   1.187 -1.6437 -1.5604  0.4672
  751SOL     OW 2251   2.309   3.052   0.206 -0.0858 -1.3210 -0.5718
  751SOL    HW1 2252   2.295   3.053   0.108 -1.3460 -0.9098  1.7705
  751SOL    HW2 2253   2.406   3.076   0.236  3.4157 -0.1301  0.1699
  752SOL     OW 2254   2.091   1.839   0.316  0.1901 -0.3889 -0.5942
  752SOL    HW1 2255   1.988   1.857   0.300 -3.7150 -1.5993 -0.1732
  752SOL    HW2 2256   2.151   1.873   0.240 -0.1526  1.6745  1.4220
  753SOL     OW 2257   1.956   1.466   2.536  0.2169 -0.0257 -0.0760
  753SOL    HW1 2258   1.996   1.489   2.445 -0.2473  0.8259 -0.0791
  753SOL    HW2 2259   1.948   1.547   2.597 -2.9005  0.6146 -0.9353
  754SOL     OW 2260   2.643   2.261   1.203  0.0336 -0.1670 -0.4972
  754SOL    HW1 2261   2.661   2.264   1.304 -0.0423  0.3842 -2.2705
  754SOL    HW2 2262   2.643   2.356   1.171  3.6125  0.4086 -0.6610
  755SOL     OW 2263   2.073   0.743   1.096 -0.3218  0.1269  0.5992
  755SOL    HW1 2264   2.027   0.834   1.098 -2.0315  0.8321 -0.4297
  755SOL    HW2 2265   2.071   0.701   1.188 -2.3165  0.2464 -0.2420
  756SOL     OW 2266   1.194   1.487   2.865 -0.4783  0.2004 -0.1605
  756SOL    HW1 2267   1.172   1.421   2.939 -1.4908  1.0089  1.8450
  756SOL    HW2 2268   1.295   1.492   2.852  0.3241  0.9530 -0.6506
  757SOL     OW 2269   1.913   2.938   1.560 -0.4873 -0.2415 -0.6957
  757SOL    HW1 2270   1.945   2.863   1.619  2.4461 -1.4236  3.4823
  757SOL    HW2 2271   1.989   2.980   1.507 -1.0400 -0.7373 -1.2881
  758SOL     OW 2272   0.882   2.560   1.182  0.0474 -0.0187 -0.1000
  758SOL    HW1 2273   0.831   2.614   1.254  0.1728  1.0546  0.7123
  758SOL    HW2 2274   0.977   2.538   1.219  1.9586  0.7600  3.9455
  759SOL     OW 2275   2.340   1.301   1.154  0.4029  0.6540 -0.0568
  759SOL    HW1 2276   2.254   1.353   1.141  1.2723 -2.3772  0.2616
  759SOL    HW2 2277   2.423   1.346   1.109  1.8323  0.0883 -0.0979
  760SOL     OW 2278   2.073   1.031   1.422  0.1461  0.4940 -0.0057
  760SOL    HW1 2279   2.045   1.112   1.477 -0.7297 -2.8376  1.7863
  760SOL    HW2 2280   2.136   1.057   1.349  0.0287  0.6056 -3.7619
  761SOL     OW 2281   2.052   0.021   0.314 -0.1907  0.1018 -0.1404
  761SOL    HW1 2282   2.030   3.055   0.391  0.4948 -1.1983  0.5470
  761SOL    HW2 2283   2.142   0.004   0.277 -3.4682 -0.3460  1.6947
  762SOL     OW 2284   1.785   2.039   2.977  0.6470  0.2814  0.2450
  762SOL    HW1 2285   1.855   1.985   2.925  1.9695  1.0029  1.1179
  762SOL    HW2 2286   1.825   2.128   3.012 -1.0014 -0.1224 -0.8001
  763SOL     OW 2287   0.627   0.964   1.218 -0.1393  0.4744  0.2560
  763SOL    HW1 2288   0.586   1.057   1.222  2.0900 -0.0214 -2.2088
  763SOL    HW2 2289   0.692   0.950   1.299  1.8778 -1.2267  1.4143
  764SOL     OW 2290   2.867   2.351   3.018 -0.0219 -0.4024  0.2030
  764SOL    HW1 2291   2.965   2.376   3.006 -0.0925  2.0049  2.9388
  764SOL    HW2 2292   2.834   2.267   2.966 -0.4459 -0.1066  1.0754
  765SOL     OW 2293   0.773   3.012   1.964 -0.4071  0.1100  0.1172
  765SOL    HW1 2294   0.869   3.004   1.928 -0.6495 -0.0928 -1.1241
  765SOL    HW2 2295   0.765   0.005   1.998  0.7853 -0.0745  1.6703
  766SOL     OW 2296   2.896   1.950   2.412 -0.2363  0.2943 -0.4396
  766SOL    HW1 2297   2.802   1.963   2.382  1.5432 -0.0449 -0.9890
  766SOL    HW2 2298   2.956   1.939   2.328  0.9203 -1.6698 -1.5385
  767SOL     OW 2299   3.007   1.521   1.718  0.1356  0.6686  0.2713
  767SOL    HW1 2300   2.972   1.450   1.781 -2.1598  1.1770 -0.6616
  767SOL    HW2 2301   2.928   1.553   1.656 -0.8952 -1.2188 -1.9272
  768SOL     OW 2302   1.126   0.853   2.851 -0.3912 -0.3061 -0.0655
  768SOL    HW1 2303   1.115   0.834   2.954  0.7836 -1.2391  3.7458
  768SOL    HW2 2304   1.165   0.778   2.801 -0.9293  2.7096  0.7177
  769SOL     OW 2305   1.977   2.328   0.396 -0.1354  0.0250  0.9705
  769SOL    HW1 2306   1.979   2.238   0.451 -0.6136  0.4144  1.2252
  769SOL    HW2 2307   1.931   2.401   0.450  0.2268 -1.3910 -2.6126
  770SOL     OW 2308   2.891   0.147   0.030 -0.4869  0.5101 -0.2761
  770SOL    HW1 2309   2.986   0.122   0.036 -2.0908 -1.6763  0.0981
  770SOL    HW2 2310   2.871   0.196   3.049  1.2402  4.4033  1.8794
  771SOL     OW 2311   1.297   2.348   1.945 -0.0224 -0.0348 -0.4465
  771SOL    HW1 2312   1.283   2.448   1.968 -0.4979 -0.0909  1.1180
  771SOL    HW2 2313   1.279   2.331   1.850  1.7346  1.1249  2.7589
  772SOL     OW 2314   0.676   0.467   2.897 -0.2118 -0.7857  0.0285
  772SOL    HW1 2315   0.720   0.489   2.808 -0.4468 -1.5639 -0.4901
  772SOL    HW2 2316   0.600   0.399   2.880 -0.1407 -1.2102 -0.4634
  773SOL     OW 2317   2.807   1.035   1.485 -0.4521  0.3818  0.8351
  773SOL    HW1 2318   2.711   1.066   1.468 -1.1853  0.7325 -1.6715
  773SOL    HW2 2319   2.828   1.040   1.585 -0.1085  0.6738 -3.2898
  774SOL     OW 2320   1.705   1.102   0.330  0.1938 -0.0385  0.1711
  774SOL    HW1 2321   1.626   1.143   0.387 -0.1651 -0.3012  1.5932
  774SOL    HW2 2322   1.779   1.172   0.317 -0.1116 -3.1791  0.7297
  775SOL     OW 2323   2.368   2.728   0.135  0.2306  0.0057  0.5048
  775SOL    HW1 2324   2.406   2.797   0.071  0.2568 -1.5089  1.6593
  775SOL    HW2 2325   2.266   2.748   0.147 -0.9971  2.5262 -1.7395
  776SOL     OW 2326   2.675   0.849   2.291  0.4870 -0.5906 -0.4421
  776SOL    HW1 2327   2.760   0.851   2.348 -0.6723  0.1174  0.1238
  776SOL    HW2 2328   2.667   0.944   2.249  1.3818 -0.1063  0.0975
  777SOL     OW 2329   0.328   1.348   2.452  0.2040 -0.4806 -0.3133
  777SOL    HW1 2330   0.405   1.287   2.422  3.0982 -2.0839 -0.6654
  777SOL    HW2 2331   0.252   1.357   2.387 -0.3051  1.1040 -0.6764
  778SOL     OW 2332   0.703   0.144   0.351  0.4430 -0.3525  0.2750
  778SOL    HW1 2333   0.797   0.147   0.387  3.1120 -3.7894  1.0939
  778SOL    HW2 2334   0.695   0.105   0.257  3.5476 -1.6923 -0.0012
  779SOL     OW 2335   0.751   0.925   2.513 -0.3055  0.4371  0.1148
  779SOL    HW1 2336   0.766   1.028   2.523  3.5501  0.7188 -1.5568
  779SOL    HW2 2337   0.815   0.863   2.564  0.8556 -0.1972 -1.3132
  780SOL     OW 2338   2.023   0.979   2.399  0.3934  0.4568 -0.1688
  780SOL    HW1 2339   2.102   0.956   2.461  1.8719  2.4248 -0.9990
  780SOL    HW2 2340   1.941   0.920   2.421 -3.9112 -1.3460  0.1680
  781SOL     OW 2341   2.907   1.088   1.753 -0.3367 -0.1657  0.2104
  781SOL    HW1 2342   3.009   1.083   1.739  1.2480  0.8086 -1.4991
  781SOL    HW2 2343   2.893   1.090   1.852  0.4499  1.4828  1.2337
  782SOL     OW 2344   0.871   1.901   2.163 -0.1382  0.2727 -0.3427
  782SOL    HW1 2345   0.856   1.909   2.064  1.6080 -0.1392  3.1028
  782SOL    HW2 2346   0.874   1.991   2.213 -1.3307 -1.1699  1.8753
  783SOL     OW 2347   0.475   2.581   1.414 -0.2599  0.5368  0.6465
  783SOL    HW1 2348   0.501   2.513   1.487  1.5009 -3.7565  0.4239
  783SOL    HW2 2349   0.563   2.620   1.384 -3.6989 -2.9219 -1.1411
  784SOL     OW 2350   1.266   0.317   2.769  0.3569  0.2436 -0.1084
  784SOL    HW1 2351   1.359   0.277   2.756 -1.9534  0.3286 -0.0410
  784SOL    HW2 2352   1.268   0.417   2.770 -0.9424 -1.3358  0.9683
  785SOL     OW 2353   0.994   0.331   2.656 -0.2713 -0.2598  0.2343
  785SOL    HW1 2354   1.090   0.325   2.692  2.3815 -1.3036  1.2172
  785SOL    HW2 2355   0.993   0.337   2.555  0.1233  0.4978 -0.9138
  786SOL     OW 2356   0.338   1.639   0.375  0.0900  0.4053 -0.3812
  786SOL    HW1 2357   0.340   1.536   0.380  0.4112 -1.5509  1.1234
  786SOL    HW2 2358   0.431   1.678   0.371  0.0504 -1.4178  0.1882
  787SOL     OW 2359   1.859   1.502   0.496  0.0297  0.4425  0.0018
  787SOL    HW1 2360   1.948   1.500   0.449  0.0323 -0.4147  0.8039
  787SOL    HW2 2361   1.788   1.541   0.437 -0.8615 -0.3080 -0.1994
  788SOL     OW 2362   1.868   1.623   1.512 -0.1792 -0.3734  0.2827
  788SOL    HW1 2363   1.820   1.637   1.420 -0.5554 -0.8591 -1.1435
  788SOL    HW2 2364   1.956   1.673   1.518 -1.9781 -1.6377 -1.8967
  789SOL     OW 2365   0.171   1.307   1.911  0.0142  0.1084 -0.0262
  789SOL    HW1 2366   0.135   1.401   1.907  0.1735 -0.8586  2.0780
  789SOL    HW2 2367   0.266   1.303   1.943  3.1505  2.0067 -0.1278
  790SOL     OW 2368   0.510   2.679   0.227  0.0140 -0.2048 -0.5124
  790SOL    HW1 2369   0.438   2.682   0.300 -2.3011  0.1030 -0.4802
  790SOL    HW2 2370   0.463   2.709   0.141 -1.8074 -1.5073 -1.1961
  791SOL     OW 2371   0.499   0.262   2.828 -0.3691  0.7813 -0.3239
  791SOL    HW1 2372   0.438   0.332   2.786  2.4470 -2.6707 -1.2690
  791SOL    HW2 2373   0.473   0.169   2.790 -0.3228 -2.8734  1.1541
  792SOL     OW 2374   2.028   0.543   2.555  0.3968 -0.8273  0.3090
  792SOL    HW1 2375   1.959   0.607   2.514  1.6445  2.5321 -1.2178
  792SOL    HW2 2376   2.031   0.555   2.657  0.6733  1.8294  0.1172
  793SOL     OW 2377   0.469   0.678   0.938 -0.2052 -0.4490  0.3574
  793SOL    HW1 2378   0.472   0.590   0.891 -1.2399  0.3985 -2.0435
  793SOL    HW2 2379   0.508   0.671   1.031  0.8559  0.9955 -4.3070
  794SOL     OW 2380   0.603   0.287   1.839  0.0318  0.6981  0.0113
  794SOL    HW1 2381   0.647   0.222   1.778 -2.8954  0.8763  0.2328
  794SOL    HW2 2382   0.524   0.327   1.794  1.2228 -2.1698  2.2416
  795SOL     OW 2383   0.147   1.431   0.115  0.2593  0.0403 -0.1616
  795SOL    HW1 2384   0.081   1.352   0.102  0.3072 -2.3324  2.0321
  795SOL    HW2 2385   0.098   1.508   0.161 -0.9058  1.3825  2.3226
  796SOL     OW 2386   0.010   0.301   0.182 -0.2326 -0.0974 -0.5381
  796SOL    HW1 2387   3.023   0.290   0.229  2.4009 -0.0797 -1.2111
  796SOL    HW2 2388   0.052   0.211   0.174 -1.9360 -0.0856 -2.5193
  797SOL     OW 2389   1.553   2.536   2.599 -0.4487 -0.5790  0.1302
  797SOL    HW1 2390   1.477   2.573   2.651  0.7309 -1.1746 -1.5106
  797SOL    HW2 2391   1.566   2.437   2.627  1.9501  0.0607  2.6999
  798SOL     OW 2392   2.926   0.497   0.897  0.1876  0.4324  0.0739
  798SOL    HW1 2393   2.885   0.503   0.804  3.2081  2.0924 -1.2534
  798SOL    HW2 2394   3.026   0.522   0.897  0.0113  0.3902 -0.5870
  799SOL     OW 2395   2.254   0.646   2.453 -0.7348 -0.2341 -0.6227
  799SOL    HW1 2396   2.187   0.591   2.504 -0.0642  4.6337  0.7016
  799SOL    HW2 2397   2.286   0.726   2.506  0.3125 -0.8240 -1.7194
  800SOL     OW 2398   0.197   2.156   0.317 -0.1137  0.3769 -0.2230
  800SOL    HW1 2399   0.127   2.114   0.377  3.2354  0.1911 -0.9228
  800SOL    HW2 2400   0.215   2.094   0.236 -1.5438 -1.2892  0.5672
  801SOL     OW 2401   1.356   1.518   1.170 -0.2822 -0.4102  0.1007
  801SOL    HW1 2402   1.334   1.455   1.248 -2.1474  1.9442  0.8668
  801SOL    HW2 2403   1.420   1.470   1.106 -0.2893 -2.0825  1.5585
  802SOL     OW 2404   1.233   1.686   2.416 -0.0905  0.5504 -0.4821
  802SOL    HW1 2405   1.230   1.751   2.338 -0.4149  0.0050  0.6135
  802SOL    HW2 2406   1.143   1.634   2.413  1.9434 -3.6194 -0.9407
  803SOL     OW 2407   0.157   1.846   1.079  0.2167 -0.2512 -0.7984
  803SOL    HW1 2408   0.080   1.806   1.138 -0.8625  1.2318  0.7611
  803SOL    HW2 2409   0.204   1.913   1.138 -1.7553 -0.7135 -1.3357
  804SOL     OW 2410   1.142   2.487   1.224 -0.3943 -0.5041 -0.2807
  804SOL    HW1 2411   1.194   2.563   1.270  2.9679  0.9756 -0.2208
  804SOL    HW2 2412   1.148   2.397   1.273 -1.4225 -2.5009  0.5093
  805SOL     OW 2413   2.046   1.582   3.093  1.0703  0.1875 -0.3719
  805SOL    HW1 2414   2.143   1.594   3.071 -0.3186  0.3859 -0.8431
  805SOL    HW2 2415   2.009   1.494   3.050 -0.2507 -2.1666  0.4850
  806SOL     OW 2416   2.024   2.628   0.886  0.4471  0.5638  0.5328
  806SOL    HW1 2417   2.033   2.709   0.825  0.7919 -0.9540 -0.7863
  806SOL    HW2 2418   1.932   2.607   0.920  3.2383  0.6181 -0.6305
  807SOL     OW 2419   3.040   0.525   2.754 -0.0898  0.0084 -0.0247
  807SOL    HW1 2420   2.961   0.484   2.707 -0.3135  3.5122  0.6985
  807SOL    HW2 2421   3.102   0.561   2.681 -0.0073 -1.2278  0.1329
  808SOL     OW 2422   0.506   1.055   0.267  0.0601 -0.4868  0.3986
  808SOL    HW1 2423   0.501   1.154   0.234 -2.1846  0.8595 -0.2517
  808SOL    HW2 2424   0.569   0.998   0.212 -1.8902  0.5754  2.5900
  809SOL     OW 2425   2.445   1.108   2.009  0.0816  0.6323 -0.2788
  809SOL    HW1 2426   2.381   1.062   2.062  3.8287  0.1765 -2.3586
  809SOL    HW2 2427   2.477   1.058   1.930  1.5219  1.6923  3.3295
  810SOL     OW 2428   1.204   0.530   1.403 -0.1362  0.0647  0.0139
  810SOL    HW1 2429   1.222   0.493   1.313  0.6329 -0.0674 -0.0072
  810SOL    HW2 2430   1.242   0.465   1.472  0.0674  1.4751 -1.6032
  811SOL     OW 2431   2.157   3.010   1.771 -0.0936  0.1722  0.1613
  811SOL    HW1 2432   2.155   3.055   1.683 -0.2569  1.1205  2.6883
  811SOL    HW2 2433   2.104   2.920   1.764 -1.1200 -1.7076 -0.1692
  812SOL     OW 2434   1.383   2.425   0.035  0.7045  0.4144 -0.4741
  812SOL    HW1 2435   1.311   2.396   0.101  1.8216 -2.0446 -2.0851
  812SOL    HW2 2436   1.475   2.420   0.078 -1.5993 -0.1607  0.5471
  813SOL     OW 2437   1.856   0.847   1.780  0.2829 -0.3182 -0.8856
  813SOL    HW1 2438   1.777   0.794   1.813  1.4401  1.1897  1.2985
  813SOL    HW2 2439   1.863   0.844   1.678  0.7883  1.8119  0.9925
  814SOL     OW 2440   0.702   0.126   1.605 -0.4471 -0.1328  0.2601
  814SOL    HW1 2441   0.669   0.158   1.516 -0.6359 -1.3087 -0.7442
  814SOL    HW2 2442   0.805   0.119   1.615  1.0347 -2.4639 -1.1101
  815SOL     OW 2443   0.718   0.907   0.162 -0.4978  0.4530 -0.5419
  815SOL    HW1 2444   0.720   0.833   0.094 -0.6076 -1.6979  0.0725
  815SOL    HW2 2445   0.718   0.871   0.257  0.5146  0.3566 -0.1588
  816SOL     OW 2446   2.294   1.745   2.643 -0.6580  0.3099  0.0943
  816SOL    HW1 2447   2.261   1.731   2.543 -1.1670 -0.6468 -0.6877
  816SOL    HW2 2448   2.375   1.806   2.646  0.5401  3.0177  0.9267
  817SOL     OW 2449   0.753   2.543   0.275  0.5044  0.4554 -0.4422
  817SOL    HW1 2450   0.734   2.541   0.376 -0.9670  0.2065  0.9763
  817SOL    HW2 2451   0.669   2.582   0.232  0.8259  0.0790 -3.6031
  818SOL     OW 2452   1.568   0.447   2.954  0.2944 -0.1819 -0.6465
  818SOL    HW1 2453   1.666   0.476   2.926  2.7448  2.6327 -0.8876
  818SOL    HW2 2454   1.536   0.368   2.900  2.2371 -0.0485  0.0934
  819SOL     OW 2455   1.510   0.355   0.112  0.3713 -0.6798 -0.1829
  819SOL    HW1 2456   1.527   0.388   0.016  0.8038 -0.7931 -0.5145
  819SOL    HW2 2457   1.444   0.276   0.110 -0.1747  0.1954 -2.6020
  820SOL     OW 2458   1.910   0.500   0.128 -0.1053  0.6220 -0.1076
  820SOL    HW1 2459   1.992   0.437   0.137  4.0034 -0.2514 -1.4157
  820SOL    HW2 2460   1.928   0.595   0.098  0.2111 -0.7913 -0.1663
  821SOL     OW 2461   2.569   3.098   0.255 -0.4350  0.1469  0.3890
  821SOL    HW1 2462   2.634   3.027   0.283  1.6479  4.8348 -1.2141
  821SOL    HW2 2463   2.577   0.077   0.315  1.3827  1.4066 -0.6931
  822SOL     OW 2464   0.585   2.459   1.645 -0.2578 -0.2419  0.1600
  822SOL    HW1 2465   0.649   2.540   1.647 -0.5125  0.4908  0.9324
  822SOL    HW2 2466   0.637   2.377   1.661 -3.8489  1.9484  3.4806
  823SOL     OW 2467   0.144   1.486   1.322 -0.6018  0.2840 -0.0673
  823SOL    HW1 2468   0.112   1.582   1.346  0.6602  1.2236 -2.1532
  823SOL    HW2 2469   0.137   1.432   1.409  1.5436  1.8748  0.5866
  824SOL     OW 2470   1.602   2.940   2.478  0.5642 -0.7236  0.0594
  824SOL    HW1 2471   1.620   2.846   2.452  2.8193  1.3471 -2.4956
  824SOL    HW2 2472   1.573   2.953   2.575 -1.0391  0.8682 -0.7681
  825SOL     OW 2473   1.741   1.082   0.674 -0.3952  0.5689 -0.1351
  825SOL    HW1 2474   1.759   0.987   0.714 -1.7455  1.8163  0.8178
  825SOL    HW2 2475   1.666   1.133   0.721 -0.6075  1.7625 -2.3084
  826SOL     OW 2476   1.949   0.768   0.087  0.2318 -0.2640  0.0377
  826SOL    HW1 2477   2.015   0.836   0.126 -0.2153  1.8506  2.7497
  826SOL    HW2 2478   1.862   0.824   0.065  1.0140  0.8557 -1.0625
  827SOL     OW 2479   0.537   1.384   1.539 -0.0933 -0.1874  0.0393
  827SOL    HW1 2480   0.528   1.287   1.579 -1.5738 -1.2826  1.2820
  827SOL    HW2 2481   0.492   1.387   1.450  0.9356  0.0555 -2.8791
  828SOL     OW 2482   2.236   1.683   1.963 -0.3416  0.3597 -0.2764
  828SOL    HW1 2483   2.294   1.725   1.887 -1.5499  0.3407 -2.1519
  828SOL    HW2 2484   2.142   1.658   1.932  1.3223 -2.6995 -1.0261
  829SOL     OW 2485   0.218   1.938   0.114 -0.4598 -0.0336  0.2384
  829SOL    HW1 2486   0.169   1.858   0.149  4.4865  0.8185 -2.1509
  829SOL    HW2 2487   0.308   1.913   0.080 -2.1226 -0.7507  0.3647
  830SOL     OW 2488   1.939   1.131   0.494 -0.3454 -0.3619 -0.3486
  830SOL    HW1 2489   1.845   1.112   0.526  0.4443 -1.5438  0.3352
  830SOL    HW2 2490   1.947   1.208   0.429  0.1974  1.4710 -0.7918
  831SOL     OW 2491   2.992   1.970   2.996 -0.0231 -0.3082 -0.5260
  831SOL    HW1 2492   2.968   2.037   2.926 -2.6426  0.9706  1.9243
  831SOL    HW2 2493   2.998   2.017   3.085  0.6901  0.4044 -0.0801
  832SOL     OW 2494   0.960   0.104   0.450 -0.1980 -0.6909  0.6485
  832SOL    HW1 2495   1.020   0.100   0.368 -2.6316  2.3202 -0.8707
  832SOL    HW2 2496   1.014   0.119   0.532 -0.9595  0.6694 -1.4105
  833SOL     OW 2497   0.876   0.621   2.249  0.1859 -0.2843  0.4285
  833SOL    HW1 2498   0.773   0.618   2.260 -3.7275 -2.1431  2.0654
  833SOL    HW2 2499   0.906   0.550   2.178  1.9112 -0.2806 -0.0575
  834SOL     OW 2500   0.131   0.345   1.013  0.0879 -0.5130 -0.4226
  834SOL    HW1 2501   0.202   0.291   0.963  0.5297 -1.9456  0.8671
  834SOL    HW2 2502   0.116   0.436   0.966  0.3700  2.4229  1.1299
  835SOL     OW 2503   2.741   2.856   0.875 -0.6646  0.3073 -0.2396
  835SOL    HW1 2504   2.690   2.772   0.888  2.8571  1.4380 -2.1347
  835SOL    HW2 2505   2.795   2.881   0.959 -0.5542  1.9393  1.4714
  836SOL     OW 2506   0.564   1.983   0.286 -0.0249 -0.2782 -0.1038
  836SOL    HW1 2507   0.483   2.022   0.332  1.3278 -2.1680  1.9935
  836SOL    HW2 2508   0.595   1.908   0.345  0.5623  1.0297 -0.6977
  837SOL     OW 2509   1.449   1.579   2.845 -0.2369  0.1122  0.4087
  837SOL    HW1 2510   1.458   1.655   2.912  0.8613 -1.1220 -1.2593
  837SOL    HW2 2511   1.436   1.622   2.754 -1.3927  0.8526 -0.8222
  838SOL     OW 2512   0.210   0.950   1.987  0.4744 -0.1094  0.3364
  838SOL    HW1 2513   0.161   0.868   2.011 -1.8941 -2.5322  0.6166
  838SOL    HW2 2514   0.276   0.975   2.062 -0.0639 -0.9437  1.5487
  839SOL     OW 2515   0.366   0.842   0.638  0.4980  0.0555  0.0611
  839SOL    HW1 2516   0.453   0.832   0.683 -3.3959 -2.5799  2.2464
  839SOL    HW2 2517   0.315   0.919   0.682 -0.8031  0.0908  1.4173
  840SOL     OW 2518   2.352   0.030   2.396 -0.5334 -0.1269  0.1198
  840SOL    HW1 2519   2.399   3.073   2.329 -1.7846  1.2462  1.3871
  840SOL    HW2 2520   2.421   0.087   2.439  0.7487 -1.3348 -1.1381
  841SOL     OW 2521   0.802   2.355   0.079  0.2292  0.3429  0.0215
  841SOL    HW1 2522   0.815   2.403   0.165 -0.3846 -2.8054  0.1857
  841SOL    HW2 2523   0.817   2.412   3.096  1.3001 -1.6733 -0.1073
  842SOL     OW 2524   0.317   0.210   0.907  0.2834  0.3459  0.6353
  842SOL    HW1 2525   0.391   0.211   0.974  1.1130 -1.4733 -0.7017
  842SOL    HW2 2526   0.280   0.119   0.876 -2.8273  0.1209 -1.6917
  843SOL     OW 2527   0.075   0.992   0.228  0.2139 -0.6014 -0.1633
  843SOL    HW1 2528   0.141   1.013   0.301  0.6954  1.4537 -4.3679
  843SOL    HW2 2529   0.010   1.070   0.210  1.1975 -0.4553  0.2294
  844SOL     OW 2530   1.023   2.602   2.849  0.1396  0.4121 -0.2053
  844SOL    HW1 2531   1.010   2.518   2.788  0.1456 -0.6833 -0.4649
  844SOL    HW2 2532   1.115   2.599   2.891  0.4057 -1.5777 -1.6075
  845SOL     OW 2533   2.576   3.047   2.612  0.0581 -0.8283  0.1135
  845SOL    HW1 2534   2.669   3.036   2.646  0.0186 -1.2387  1.7370
  845SOL    HW2 2535   2.519   0.015   2.661 -2.8583  4.7707  1.0447
  846SOL     OW 2536   2.018   1.886   2.847 -0.0565 -0.1740  0.0546
  846SOL    HW1 2537   1.986   1.786   2.844  2.0351 -2.1736 -2.4153
  846SOL    HW2 2538   2.111   1.883   2.898  3.5959  3.3720  0.0645
  847SOL     OW 2539   2.578   0.031   3.071  0.0394  0.2340  0.7455
  847SOL    HW1 2540   2.643   0.094   3.021  0.8474  0.6740  0.5162
  847SOL    HW2 2541   2.572   0.045   0.069  3.0570  0.0653  0.5875
  848SOL     OW 2542   0.590   0.384   0.425  0.2712  0.0587 -0.2484
  848SOL    HW1 2543   0.646   0.405   0.509 -1.0940 -1.5800 -3.2638
  848SOL    HW2 2544   0.611   0.294   0.383  0.5082  1.1392  0.7515
  849SOL     OW 2545   1.252   2.939   1.644 -0.4365  0.3919  0.0560
  849SOL    HW1 2546   1.293   2.885   1.716 -0.8193  3.0272 -1.1919
  849SOL    HW2 2547   1.210   3.031   1.678 -0.9028  3.6080  0.0592
  850SOL     OW 2548   0.716   1.254   0.453  0.1872 -0.2364 -0.2374
  850SOL    HW1 2549   0.813   1.227   0.456 -0.8320  0.1316  0.0148
  850SOL    HW2 2550   0.662   1.188   0.505  1.0490  0.8795 -0.7058
  851SOL     OW 2551   0.450   1.103   2.987 -0.1615 -0.0800 -0.4400
  851SOL    HW1 2552   0.384   1.031   3.005  2.6511  0.3554 -1.8545
  851SOL    HW2 2553   0.485   1.144   3.076  0.9392  0.7829  0.1564
  852SOL     OW 2554   1.180   0.181   1.770 -0.2459  0.2912 -0.3739
  852SOL    HW1 2555   1.189   0.101   1.834 -0.3266  0.9967 -1.2928
  852SOL    HW2 2556   1.264   0.238   1.776  0.0507 -0.8739 -0.7759
  853SOL     OW 2557   2.626   1.561   0.148 -0.0036 -0.0749  0.2606
  853SOL    HW1 2558   2.583   1.551   0.057  0.9741  0.1672 -3.7169
  853SOL    HW2 2559   2.693   1.641   0.152 -0.9424  1.5306  0.3207
  854SOL     OW 2560   0.889   1.145   1.915 -0.1654  0.5335  0.0518
  854SOL    HW1 2561   0.789   1.121   1.919  0.1971  0.6718  0.0977
  854SOL    HW2 2562   0.944   1.100   1.986 -1.4906  1.8498 -2.8864
  855SOL     OW 2563   0.158   2.649   0.160 -0.5317  0.1900 -0.2445
  855SOL    HW1 2564   0.129   2.714   0.088 -0.1392 -1.5423 -2.7717
  855SOL    HW2 2565   0.214   2.578   0.113 -1.6963  1.8429  0.7947
  856SOL     OW 2566   0.745   0.782   1.902 -0.7303 -0.0289  0.1987
  856SOL    HW1 2567   0.816   0.786   1.835 -3.7443  0.3661 -2.3924
  856SOL    HW2 2568   0.786   0.796   1.990 -2.0965  1.6693 -2.7511
  857SOL     OW 2569   1.146   0.909   2.354  0.3260 -0.4794 -0.3166
  857SOL    HW1 2570   1.177   0.951   2.267 -4.1336  1.1744 -0.8999
  857SOL    HW2 2571   1.157   0.810   2.362  0.7561  0.2869 -0.9055
  858SOL     OW 2572   0.042   1.276   2.189  0.0024  0.5473  0.1916
  858SOL    HW1 2573   0.078   1.367   2.167 -1.4091 -3.2413  1.4389
  858SOL    HW2 2574   0.080   1.211   2.125  0.1844  0.5614  1.9418
  859SOL     OW 2575   2.673   0.303   0.907  0.3325 -0.0394  0.0026
  859SOL    HW1 2576   2.597   0.366   0.929  2.0439  0.0706  0.5018
  859SOL    HW2 2577   2.760   0.345   0.937  2.5152  1.2354  2.9631
  860SOL     OW 2578   1.898   0.043   0.065 -0.5334  0.1132  0.0433
  860SOL    HW1 2579   1.833   0.122   0.062 -1.7511  3.8022 -0.6330
  860SOL    HW2 2580   1.941   0.030   0.158  2.8980 -1.5282  0.9918
  861SOL     OW 2581   0.969   0.525   1.072  0.7030 -0.0838  0.6956
  861SOL    HW1 2582   0.940   0.461   0.997  0.6825  1.0061 -3.0112
  861SOL    HW2 2583   0.994   0.613   1.033 -0.8177 -1.2849 -1.1942
  862SOL     OW 2584   1.402   0.290   2.402 -0.7643 -0.4369  0.5477
  862SOL    HW1 2585   1.438   0.214   2.452  1.4929 -0.3518 -2.8315
  862SOL    HW2 2586   1.438   0.295   2.306 -0.5845 -1.0894  0.3451
  863SOL     OW 2587   2.302   2.362   0.620  0.7891 -0.0520 -0.0955
  863SOL    HW1 2588   2.307   2.455   0.576 -0.9526 -2.5526 -0.2278
  863SOL    HW2 2589   2.356   2.293   0.567 -0.7602 -0.6419  1.1309
  864SOL     OW 2590   2.902   3.094   1.937  0.4978  0.6930  0.0040
  864SOL    HW1 2591   2.902   0.094   1.923  0.9244 -2.2592  1.8122
  864SOL    HW2 2592   2.810   3.053   1.906  0.1199 -1.4363 -3.1604
  865SOL     OW 2593   1.630   0.652   1.856  0.0497 -0.0187 -0.0079
  865SOL    HW1 2594   1.531   0.639   1.854  2.7013  1.4033 -0.3951
  865SOL    HW2 2595   1.662   0.678   1.950 -0.2034 -0.8077  0.5261
  866SOL     OW 2596   1.453   2.433   1.173  0.0341  0.0606  0.0744
  866SOL    HW1 2597   1.438   2.402   1.076 -1.5258 -1.9801 -1.0917
  866SOL    HW2 2598   1.476   2.530   1.167  2.8295 -0.0178 -1.9299
  867SOL     OW 2599   2.277   2.859   0.396 -0.1400  0.4491 -0.3738
  867SOL    HW1 2600   2.191   2.813   0.386  1.8450 -0.1031 -0.1456
  867SOL    HW2 2601   2.292   2.930   0.328 -1.9873 -1.2672  5.9237
  868SOL     OW 2602   0.430   2.139   1.661  0.2801  0.9814 -0.0632
  868SOL    HW1 2603   0.493   2.085   1.603 -0.9502 -0.0334  0.2511
  868SOL    HW2 2604   0.333   2.130   1.640  2.0332  1.2007 -1.1367
  869SOL     OW 2605   2.144   2.349   2.483 -0.2968 -0.2470  0.1449
  869SOL    HW1 2606   2.160   2.418   2.559  0.0704  1.8929  1.0628
  869SOL    HW2 2607   2.211   2.366   2.406  3.7629 -0.5138  0.6397
  870SOL     OW 2608   1.598   1.474   0.783  0.4447 -0.1902 -0.2669
  870SOL    HW1 2609   1.686   1.458   0.737 -1.0664  0.2440 -0.3522
  870SOL    HW2 2610   1.589   1.427   0.872  0.4891  2.3819  3.4863
  871SOL     OW 2611   0.422   1.469   1.274 -0.4186 -0.1396 -0.1257
  871SOL    HW1 2612   0.458   1.563   1.259 -1.4049 -0.7513  1.2949
  871SOL    HW2 2613   0.325   1.474   1.303 -0.6626  1.4057  1.4718
  872SOL     OW 2614   0.493   1.646   2.567  0.1906  0.1419 -0.3603
  872SOL    HW1 2615   0.415   1.578   2.578 -0.0786 -1.7228  0.5866
  872SOL    HW2 2616   0.557   1.624   2.644 -0.8484  1.3390  1.7587
  873SOL     OW 2617   0.835   1.894   1.890  0.1412  0.2589  0.1451
  873SOL    HW1 2618   0.926   1.922   1.859 -1.0953 -1.8189  0.4308
  873SOL    HW2 2619   0.805   1.812   1.842  1.0056  3.3067 -1.6947
  874SOL     OW 2620   0.918   0.749   1.677 -0.0471 -0.5807 -0.2300
  874SOL    HW1 2621   0.933   0.667   1.617 -1.0082  1.1408 -1.1570
  874SOL    HW2 2622   1.003   0.804   1.699 -1.1347 -0.6552 -3.4455
  875SOL     OW 2623   2.696   2.858   0.361  0.4174  0.2840 -0.0225
  875SOL    HW1 2624   2.615   2.826   0.308 -1.2064 -0.7107  0.8169
  875SOL    HW2 2625   2.681   2.823   0.453  1.7477  1.4558  0.8539
  876SOL     OW 2626   0.620   1.518   0.363 -0.1424 -0.4394  0.2955
  876SOL    HW1 2627   0.675   1.448   0.413 -0.2626 -0.4748 -0.1105
  876SOL    HW2 2628   0.602   1.493   0.266 -2.2985 -1.6434 -2.0506
  877SOL     OW 2629   2.844   0.135   0.768 -0.0429  0.2096  0.4781
  877SOL    HW1 2630   2.916   0.160   0.838  1.2209 -3.5515  0.9572
  877SOL    HW2 2631   2.757   0.181   0.790 -0.5086 -2.3337 -0.6100
  878SOL     OW 2632   2.204   1.621   0.588 -0.1601 -0.8466  0.5700
  878SOL    HW1 2633   2.238   1.551   0.522  0.7299  0.6207 -0.0942
  878SOL    HW2 2634   2.183   1.581   0.679 -0.8870  1.3198  0.2012
  879SOL     OW 2635   2.430   1.652   1.228 -0.5624 -0.1978  0.0455
  879SOL    HW1 2636   2.466   1.612   1.315 -0.6838 -2.0906 -0.2785
  879SOL    HW2 2637   2.448   1.598   1.145  0.5820  0.5990  1.6312
  880SOL     OW 2638   0.442   2.377   0.736  0.1533  0.1438 -0.8437
  880SOL    HW1 2639   0.339   2.370   0.726  2.0014  1.6621  0.0868
  880SOL    HW2 2640   0.468   2.475   0.733 -0.1045 -1.4898  0.5852
  881SOL     OW 2641   1.040   1.025   0.871 -0.2570  0.1456  0.3807
  881SOL    HW1 2642   1.069   1.000   0.775  0.4165  1.3360 -2.4951
  881SOL    HW2 2643   1.108   1.094   0.906 -1.3138  0.1047  2.8329
  882SOL     OW 2644   2.296   0.842   0.737  0.0363  0.0688  0.1184
  882SOL    HW1 2645   2.238   0.902   0.680  0.8770 -0.0906 -0.3563
  882SOL    HW2 2646   2.293   0.754   0.693  1.7541 -0.2048 -1.8404
  883SOL     OW 2647   1.604   0.063   2.075  0.8026 -0.1719  0.4288
  883SOL    HW1 2648   1.657   0.067   2.166 -0.7547 -0.1526 -1.3302
  883SOL    HW2 2649   1.523   3.101   2.078  2.8435  1.1353 -0.3784
  884SOL     OW 2650   2.828   0.023   1.497  0.2929 -0.6120  0.8430
  884SOL    HW1 2651   2.844   0.098   1.431  1.3317 -0.2278  0.9203
  884SOL    HW2 2652   2.727   0.019   1.517 -0.7490  0.5601  0.0938
  885SOL     OW 2653   1.208   0.689   2.115  0.8081  0.2227 -0.0156
  885SOL    HW1 2654   1.239   0.786   2.119 -0.3108 -0.2917  0.3283
  885SOL    HW2 2655   1.199   0.642   2.206 -2.4585  1.0902 -1.3866
  886SOL     OW 2656   1.786   0.646   2.325  0.5118 -0.3543 -0.3784
  886SOL    HW1 2657   1.803   0.701   2.409 -1.3682  1.0218  2.3211
  886SOL    HW2 2658   1.777   0.547   2.337 -1.5779 -0.0196 -0.0238
  887SOL     OW 2659   1.592   0.524   1.422 -0.1331 -0.2576 -0.4927
  887SOL    HW1 2660   1.555   0.470   1.344 -1.9703 -0.3395  0.4438
  887SOL    HW2 2661   1.691   0.513   1.437  1.7584 -1.2045 -0.9015
  888SOL     OW 2662   2.646   1.561   2.109 -0.4493 -0.3615 -0.1953
  888SOL    HW1 2663   2.675   1.628   2.037  0.2317 -0.2784  2.3209
  888SOL    HW2 2664   2.720   1.515   2.159 -2.6772  1.3015 -0.8058
  889SOL     OW 2665   1.824   2.117   0.639  0.2842  0.4275  0.1409
  889SOL    HW1 2666   1.824   2.026   0.596 -0.9449 -1.4957 -1.8916
  889SOL    HW2 2667   1.915   2.141   0.680 -0.2369 -0.2487 -0.9259
  890SOL     OW 2668   0.812   1.855   0.648  0.4825 -0.0027  0.5061
  890SOL    HW1 2669   0.857   1.794   0.713 -2.9715  1.8820  1.0134
  890SOL    HW2 2670   0.792   1.943   0.697  1.1893 -1.7731 -1.1563
  891SOL     OW 2671   2.749   0.860   2.888 -0.3131  0.1246  0.3801
  891SOL    HW1 2672   2.832   0.801   2.913  0.9423  0.1717 -0.6448
  891SOL    HW2 2673   2.667   0.844   2.951  0.9401 -2.7714  0.7165
  892SOL     OW 2674   1.113   0.637   2.380  0.0566  0.1600 -0.1574
  892SOL    HW1 2675   1.019   0.646   2.339 -0.8533  0.5485 -2.2145
  892SOL    HW2 2676   1.138   0.544   2.390 -0.1417  2.0466  1.5359
  893SOL     OW 2677   1.578   0.061   0.902  0.0945 -0.6676  0.0645
  893SOL    HW1 2678   1.642   0.095   0.977 -0.1790  0.5768  1.7595
  893SOL    HW2 2679   1.618   3.093   0.840  1.3335 -0.5646  1.2153
  894SOL     OW 2680   2.653   2.815   0.631  0.1478  0.1837  0.4275
  894SOL    HW1 2681   2.554   2.814   0.643  1.6405  0.9368 -1.9813
  894SOL    HW2 2682   2.690   2.851   0.719 -2.0671 -0.7563  1.2548
  895SOL     OW 2683   1.793   2.692   3.036  0.0882 -0.3142  0.0203
  895SOL    HW1 2684   1.753   2.687   2.944  1.1411 -0.9065  2.6617
  895SOL    HW2 2685   1.884   2.654   3.040 -1.1618 -0.5234  0.2352
  896SOL     OW 2686   1.907   0.041   2.098 -0.1441  0.1135 -0.0054
  896SOL    HW1 2687   1.840   0.032   2.025 -1.4485 -1.5674  2.4833
  896SOL    HW2 2688   1.911   0.136   2.129 -0.1236 -1.8451  1.4645
  897SOL     OW 2689   0.281   1.886   1.499  0.7104 -0.1258 -0.3023
  897SOL    HW1 2690   0.347   1.835   1.557 -1.8569  1.5873 -0.8496
  897SOL    HW2 2691   0.252   1.974   1.547 -0.7103  2.4559  1.3843
  898SOL     OW 2692   2.733   1.731   1.906  0.1540 -0.3248 -0.3760
  898SOL    HW1 2693   2.705   1.828   1.908 -2.7150 -0.8555  0.7429
  898SOL    HW2 2694   2.719   1.688   1.812 -3.8209 -1.3139 -3.7015
  899SOL     OW 2695   1.489   2.044   1.146 -0.1670  0.2011  0.5744
  899SOL    HW1 2696   1.452   2.072   1.057  0.1771 -0.2384 -1.7783
  899SOL    HW2 2697   1.492   1.942   1.153  0.3035 -1.6373  0.9115
  900SOL     OW 2698   0.840   0.140   2.824 -0.6560 -0.3775 -0.0152
  900SOL    HW1 2699   0.744   0.147   2.791  0.1118  0.5590  0.1268
  900SOL    HW2 2700   0.906   0.192   2.770  1.5628  1.4281  1.2913
  901SOL     OW 2701   1.443   1.654   2.581 -0.1301  0.4120 -0.4150
  901SOL    HW1 2702   1.352   1.645   2.539  2.9480  0.6151 -0.4565
  901SOL    HW2 2703   1.501   1.715   2.529  0.3119 -1.1508 -1.9275
  902SOL     OW 2704   2.907   2.974   2.943  0.4689  0.5756 -0.4335
  902SOL    HW1 2705   2.890   2.982   3.045 -3.5665  0.3768 -0.7833
  902SOL    HW2 2706   3.001   2.997   2.912 -2.2621  1.8416  0.5905
  903SOL     OW 2707   2.239   0.994   2.151  0.3538  0.8971 -0.6710
  903SOL    HW1 2708   2.140   0.974   2.139 -1.0776 -0.0317  0.4895
  903SOL    HW2 2709   2.292   0.913   2.189  0.2043 -0.0115  2.3980
  904SOL     OW 2710   1.533   0.507   2.481 -0.2037 -0.2287 -0.3641
  904SOL    HW1 2711   1.604   0.493   2.553 -0.9496  1.9976  1.5284
  904SOL    HW2 2712   1.469   0.427   2.472  0.4036 -0.0254  0.0189
  905SOL     OW 2713   2.085   2.598   1.572 -0.1631  0.3839 -0.3425
  905SOL    HW1 2714   2.186   2.577   1.591  2.2323 -0.3985  1.1632
  905SOL    HW2 2715   2.058   2.663   1.646 -0.1717 -0.1080  1.2666
  906SOL     OW 2716   1.496   1.855   0.419  0.2338 -0.2516 -0.0347
  906SOL    HW1 2717   1.462   1.830   0.325  4.2038  2.3423  0.3688
  906SOL    HW2 2718   1.525   1.955   0.433  1.4060  2.9123 -1.1556
  907SOL     OW 2719   0.861   2.931   0.493 -0.0890  0.4152  0.1854
  907SOL    HW1 2720   0.895   3.010   0.548 -0.0887 -1.3396  0.6061
  907SOL    HW2 2721   0.816   2.973   0.415  0.5910 -1.4091 -2.7822
  908SOL     OW 2722   1.229   2.616   1.954  0.0869 -0.0317 -0.5894
  908SOL    HW1 2723   1.290   2.667   1.886  0.6313 -3.0320  1.7602
  908SOL    HW2 2724   1.146   2.588   1.911  1.9798  2.3108 -0.2179
  909SOL     OW 2725   2.233   0.158   1.890  0.4100  0.3968 -0.8654
  909SOL    HW1 2726   2.201   0.061   1.892  1.3827 -0.5496  0.9174
  909SOL    HW2 2727   2.171   0.209   1.832  2.2450 -2.1282  3.7745
  910SOL     OW 2728   1.220   1.278   3.054 -0.2180 -0.0571  0.4178
  910SOL    HW1 2729   1.191   1.199   0.008  0.3130  1.2569  2.1571
  910SOL    HW2 2730   1.314   1.308   3.066  2.0267  2.2890 -4.4468
  911SOL     OW 2731   3.076   1.219   0.096 -0.4882 -0.0839 -0.3213
  911SOL    HW1 2732   2.984   1.250   0.128  0.1125 -1.0455  1.1445
  911SOL    HW2 2733   3.072   1.183   0.003  0.9312  0.9611  1.9426
  912SOL     OW 2734   0.354   2.360   0.438  0.2575  0.2029 -0.0172
  912SOL    HW1 2735   0.304   2.303   0.371  1.8197 -1.1174 -0.2020
  912SOL    HW2 2736   0.449   2.328   0.457  1.6204  0.9945  1.0755
  913SOL     OW 2737   2.675   2.268   2.456  0.1771  0.3760  0.4957
  913SOL    HW1 2738   2.647   2.195   2.388 -2.6670  1.1563  0.3987
  913SOL    HW2 2739   2.774   2.265   2.481 -3.5389 -1.4602  1.2490
  914SOL     OW 2740   1.299   1.870   1.670 -0.1313  0.1294 -0.3988
  914SOL    HW1 2741   1.400   1.882   1.658  4.0676 -1.2981 -0.1820
  914SOL    HW2 2742   1.270   1.775   1.652 -0.9773  1.8973  2.6029
  915SOL     OW 2743   0.944   2.805   2.113  0.0093 -0.4054  0.9280
  915SOL    HW1 2744   0.878   2.861   2.167 -1.2337 -2.4372  0.5551
  915SOL    HW2 2745   0.938   2.708   2.138 -2.0770 -0.8475  2.2064
  916SOL     OW 2746   0.584   0.730   1.597 -0.3669 -0.1486  0.2695
  916SOL    HW1 2747   0.506   0.776   1.645 -0.5777  0.0196 -2.3296
  916SOL    HW2 2748   0.677   0.764   1.623  0.0013 -0.5964 -0.8283
  917SOL     OW 2749   2.830   0.485   0.632 -0.1623 -0.1696  0.5991
  917SOL    HW1 2750   2.764   0.426   0.593  0.2966  1.2616 -1.5351
  917SOL    HW2 2751   2.922   0.449   0.614 -1.1416 -0.1742  2.0787
  918SOL     OW 2752   1.762   2.603   2.774 -0.0159  0.1128  0.5597
  918SOL    HW1 2753   1.802   2.512   2.797  1.7785 -0.1849 -1.7297
  918SOL    HW2 2754   1.687   2.592   2.704 -0.7399 -1.5802 -2.4236
  919SOL     OW 2755   1.583   2.744   1.638  0.1161  0.2887  0.3795
  919SOL    HW1 2756   1.583   2.669   1.569 -0.8825 -1.5936 -0.8937
  919SOL    HW2 2757   1.596   2.827   1.589 -0.4014 -3.7587  2.3176
  920SOL     OW 2758   0.634   0.736   2.966  0.8343 -0.6149 -0.3519
  920SOL    HW1 2759   0.603   0.807   2.902 -0.1950 -1.0966  0.6359
  920SOL    HW2 2760   0.670   0.661   2.909 -1.2730 -0.8518  1.1256
  921SOL     OW 2761   2.971   0.718   2.929 -0.3420  0.4721 -0.1452
  921SOL    HW1 2762   3.053   0.781   2.943 -0.8863  4.4640  3.1091
  921SOL    HW2 2763   2.986   0.645   2.855 -0.5567 -1.5750 -0.7731
  922SOL     OW 2764   0.369   1.893   0.741  0.8070  0.1744 -0.0506
  922SOL    HW1 2765   0.325   1.907   0.835 -2.6471  3.1442  2.1075
  922SOL    HW2 2766   0.421   1.980   0.717  1.9650  0.9427  0.1280
  923SOL     OW 2767   0.518   1.111   1.629 -0.0241 -0.3108 -0.0311
  923SOL    HW1 2768   0.531   1.063   1.717 -2.2397  2.1667  0.7293
  923SOL    HW2 2769   0.419   1.102   1.594 -0.7421  2.2506 -2.1216
  924SOL     OW 2770   1.593   0.008   2.947 -0.0268  0.1917 -0.2349
  924SOL    HW1 2771   1.544   3.069   3.026 -1.8925 -1.6336 -0.7393
  924SOL    HW2 2772   1.689   3.071   2.929 -1.0243  0.3655 -1.3028
  925SOL     OW 2773   2.738   1.399   1.405  0.5563  0.6364 -0.2606
  925SOL    HW1 2774   2.713   1.317   1.353  2.6521  0.9827 -2.3994
  925SOL    HW2 2775   2.772   1.376   1.499  0.7635  0.1541  4.9992
  926SOL     OW 2776   2.317   0.365   1.356  0.3462 -0.2833 -0.7777
  926SOL    HW1 2777   2.360   0.324   1.444  1.2525 -0.4828  2.2047
  926SOL    HW2 2778   2.383   0.439   1.321  0.5884  3.4199  1.4459
  927SOL     OW 2779   1.880   3.007   1.184  0.4819 -0.4831  0.5871
  927SOL    HW1 2780   1.814   2.965   1.251 -2.5523 -0.6406  0.3838
  927SOL    HW2 2781   1.968   3.029   1.229 -1.8139 -0.3329 -0.8381
  928SOL     OW 2782   2.985   1.148   2.367  0.0002 -0.0819 -0.2584
  928SOL    HW1 2783   3.035   1.199   2.295 -0.5931  3.4810  0.3204
  928SOL    HW2 2784   2.983   1.050   2.346 -0.3113  2.5662 -0.0851
  929SOL     OW 2785   2.613   0.973   1.082  0.0423  0.4261 -0.2737
  929SOL    HW1 2786   2.535   0.944   1.025 -0.1276  0.6827 -0.5457
  929SOL    HW2 2787   2.655   0.893   1.132  0.1366 -0.5306  1.9308
  930SOL     OW 2788   3.049   2.456   2.041  0.0152  0.4289  0.0039
  930SOL    HW1 2789   3.076   2.551   2.067  0.1436  0.6897 -1.1711
  930SOL    HW2 2790   3.091   2.414   1.956  0.5473  0.2211 -1.3869
  931SOL     OW 2791   1.909   0.611   1.336 -0.0671  0.0859 -0.8479
  931SOL    HW1 2792   1.837   0.636   1.269 -0.2623 -3.7129  0.8452
  931SOL    HW2 2793   1.926   0.675   1.412  1.3244 -1.2088  0.0115
  932SOL     OW 2794   0.058   1.072   1.785  0.2887  0.6672 -0.2397
  932SOL    HW1 2795   0.109   1.003   1.847  2.6202 -3.0484  1.9937
  932SOL    HW2 2796   0.088   1.167   1.815  2.4074 -0.7148 -2.4956
  933SOL     OW 2797   2.683   1.994   1.522  0.2718  0.1695 -0.0834
  933SOL    HW1 2798   2.637   2.083   1.509 -1.8874 -1.3744  4.4993
  933SOL    HW2 2799   2.623   1.917   1.485 -1.2140 -2.8833  1.6432
  934SOL     OW 2800   0.533   1.720   1.316  0.6463  0.5155  0.0701
  934SOL    HW1 2801   0.606   1.708   1.384 -2.0214 -2.5138  0.2176
  934SOL    HW2 2802   0.457   1.775   1.346  1.0168  1.6388  1.8386
  935SOL     OW 2803   2.750   1.310   1.664 -0.5212  0.8269  0.4419
  935SOL    HW1 2804   2.823   1.239   1.685  0.7364 -0.7567 -0.0204
  935SOL    HW2 2805   2.674   1.301   1.727 -0.3959  2.1324 -2.7483
  936SOL     OW 2806   2.384   1.510   1.693  0.1012  0.1464 -0.0022
  936SOL    HW1 2807   2.442   1.522   1.778 -1.5517  1.9914  0.6399
  936SOL    HW2 2808   2.313   1.581   1.687 -0.8083 -1.1995 -1.3261
  937SOL     OW 2809   1.962   0.818   1.523  0.3952 -0.4965  0.4682
  937SOL    HW1 2810   2.032   0.796   1.593 -0.7019 -0.5793 -0.7335
  937SOL    HW2 2811   1.990   0.906   1.470 -1.0062  1.7644  0.5366
  938SOL     OW 2812   0.629   2.392   2.873 -0.8465  0.2417  0.3827
  938SOL    HW1 2813   0.620   2.474   2.935  0.4670  0.4708  1.4944
  938SOL    HW2 2814   0.724   2.357   2.872  0.3829  0.9481  0.4786
  939SOL     OW 2815   2.533   1.889   2.658 -0.8086  0.3682  0.5846
  939SOL    HW1 2816   2.518   1.978   2.709 -0.6979 -0.1118 -0.2768
  939SOL    HW2 2817   2.533   1.911   2.560 -1.7674  0.1410  3.3566
  940SOL     OW 2818   1.538   2.125   0.478  0.3044  0.6133 -0.1079
  940SOL    HW1 2819   1.482   2.144   0.559  1.3721 -1.0944 -1.8539
  940SOL    HW2 2820   1.638   2.125   0.501  0.8410  0.0870 -3.7930
  941SOL     OW 2821   2.041   2.608   3.032  0.0328  0.2487 -0.5372
  941SOL    HW1 2822   2.100   2.528   3.053  0.4385  2.4285 -0.9165
  941SOL    HW2 2823   2.064   2.644   2.940  1.8014 -0.5986  0.8529
  942SOL     OW 2824   1.479   2.453   0.817 -0.2955  0.7629  0.5870
  942SOL    HW1 2825   1.479   2.553   0.790 -1.2425  2.1804  1.4738
  942SOL    HW2 2826   1.405   2.399   0.772  1.1503 -1.1097  2.9928
  943SOL     OW 2827   2.110   1.187   1.689 -0.3238 -0.1369 -0.3168
  943SOL    HW1 2828   2.147   1.193   1.785  2.1081  1.2523 -2.0016
  943SOL    HW2 2829   2.005   1.172   1.692 -3.1164 -0.9731 -0.7427
  944SOL     OW 2830   1.372   0.991   2.506  0.0807  0.1144  0.0052
  944SOL    HW1 2831   1.312   0.968   2.425  0.0165  1.7741 -0.0753
  944SOL    HW2 2832   1.342   1.077   2.555 -2.6723  2.0452  3.3471
  945SOL     OW 2833   2.787   2.039   1.205  0.2353 -0.3625 -0.3762
  945SOL    HW1 2834   2.729   1.962   1.240 -1.2688  0.3294 -0.6548
  945SOL    HW2 2835   2.737   2.130   1.200 -1.3791  1.0746 -1.5234
  946SOL     OW 2836   0.537   0.935   2.781 -0.2136 -0.4291  0.1772
  946SOL    HW1 2837   0.511   1.001   2.857 -1.5030  0.0491  1.4941
  946SOL    HW2 2838   0.588   0.987   2.706  0.5985  0.1099 -0.2425
  947SOL     OW 2839   1.790   3.012   1.850  0.0950  0.4111  0.1635
  947SOL    HW1 2840   1.711   2.975   1.905 -0.1397 -1.0323 -0.0493
  947SOL    HW2 2841   1.859   2.938   1.835 -1.3143 -2.7670  0.3894
  948SOL     OW 2842   0.121   1.600   0.971  0.3727 -0.0850 -0.4714
  948SOL    HW1 2843   0.158   1.688   1.012 -0.4689  0.5028 -0.3781
  948SOL    HW2 2844   0.166   1.516   1.010  0.3732 -1.5135  1.1676
  949SOL     OW 2845   1.280   1.087   1.902  0.2804 -0.3384  0.4909
  949SOL    HW1 2846   1.277   1.150   1.823  0.3771 -2.1513  0.2738
  949SOL    HW2 2847   1.279   1.148   1.982  0.8600  0.7543  0.0911
  950SOL     OW 2848   0.252   0.807   1.002  0.7646 -0.1082 -0.1263
  950SOL    HW1 2849   0.242   0.878   0.926 -0.9594  2.3375 -2.7091
  950SOL    HW2 2850   0.331   0.746   0.981 -0.0715  0.1536  0.8409
  951SOL     OW 2851   0.356   2.015   2.030 -0.3217 -0.0450 -0.1284
  951SOL    HW1 2852   0.363   1.924   2.079 -2.3246  0.3025 -1.6083
  951SOL    HW2 2853   0.449   2.047   1.999 -1.1808 -1.3773  0.5732
  952SOL     OW 2854   1.564   1.557   0.337 -0.3111 -0.2741 -0.1000
  952SOL    HW1 2855   1.532   1.643   0.293  1.2377  1.4118 -1.7965
  952SOL    HW2 2856   1.598   1.494   0.267 -0.2598  0.3883 -0.0690
  953SOL     OW 2857   1.306   0.646   0.110  0.1219 -0.3105 -0.2941
  953SOL    HW1 2858   1.295   0.545   0.115 -0.6657 -0.3587 -0.0610
  953SOL    HW2 2859   1.223   0.685   0.073  1.5438  0.5888  3.7525
  954SOL     OW 2860   2.198   1.019   0.541 -0.0056 -0.6475  0.2032
  954SOL    HW1 2861   2.194   1.116   0.572 -0.1128 -2.8235 -1.1770
  954SOL    HW2 2862   2.105   0.994   0.505  3.5291  0.2506 -1.4152
  955SOL     OW 2863   2.634   2.640   2.932  0.1176 -0.2539 -0.3730
  955SOL    HW1 2864   2.625   2.676   2.834 -0.9215  0.9826 -1.2461
  955SOL    HW2 2865   2.727   2.661   2.968  0.5923  0.4707  0.5024
  956SOL     OW 2866   1.173   0.783   1.227  0.2400  0.2092 -0.0174
  956SOL    HW1 2867   1.258   0.839   1.223  0.0209 -2.1482  3.0169
  956SOL    HW2 2868   1.188   0.707   1.285  0.4755  0.1073 -2.5985
  957SOL     OW 2869   1.781   1.218   1.472 -0.3231 -0.1322  0.1319
  957SOL    HW1 2870   1.867   1.274   1.467  0.9587 -1.9777 -2.0621
  957SOL    HW2 2871   1.729   1.238   1.560 -0.7929 -0.1371 -1.3898
  958SOL     OW 2872   0.214   1.814   0.543 -0.0581  0.6087 -0.2921
  958SOL    HW1 2873   0.251   1.742   0.485  1.7885 -2.9079  0.5329
  958SOL    HW2 2874   0.289   1.861   0.600  1.0424 -0.1252  1.9199
  959SOL     OW 2875   2.088   1.372   1.095 -0.5309 -0.4760  0.0439
  959SOL    HW1 2876   2.051   1.464   1.122 -0.8944  0.4061  0.5731
  959SOL    HW2 2877   2.025   1.301   1.129  2.6189  0.0389 -0.5811
  960SOL     OW 2878   0.024   1.350   2.834  0.0577  0.1668 -0.2122
  960SOL    HW1 2879   0.097   1.376   2.768  0.9391 -2.2007  0.1866
  960SOL    HW2 2880   0.034   1.254   2.862  2.0448 -0.0591  0.9586
  961SOL     OW 2881   1.013   1.504   0.681  0.2563  0.5185 -0.4177
  961SOL    HW1 2882   0.921   1.459   0.683  0.9107 -0.2025 -0.1137
  961SOL    HW2 2883   1.001   1.602   0.713 -0.1447  1.5625 -0.8597
  962SOL     OW 2884   0.975   1.159   0.464 -0.5361  0.4010  0.2287
  962SOL    HW1 2885   1.017   1.095   0.532 -0.8708 -0.1870  3.7272
  962SOL    HW2 2886   1.039   1.235   0.442 -0.0770 -0.1009 -1.6324
  963SOL     OW 2887   1.277   2.015   2.282 -0.0384 -0.5167 -0.1726
  963SOL    HW1 2888   1.374   2.043   2.295 -0.9982  2.9929  0.9707
  963SOL    HW2 2889   1.224   2.034   2.367  1.1423  0.6772  1.7977
  964SOL     OW 2890   2.892   2.708   2.999 -0.4750 -0.0618  0.3133
  964SOL    HW1 2891   2.898   2.806   2.976  1.7305  0.5002 -1.7531
  964SOL    HW2 2892   2.950   2.651   2.935 -0.2666 -1.7947 -1.5171
  965SOL     OW 2893   0.545   2.292   0.179  0.3485 -0.2969  0.1860
  965SOL    HW1 2894   0.637   2.319   0.148 -0.5900 -2.4419  1.3361
  965SOL    HW2 2895   0.484   2.369   0.216 -1.2736  1.7653  0.9986
  966SOL     OW 2896   3.045   1.812   2.738  0.3871 -0.2036  0.5123
  966SOL    HW1 2897   3.013   1.886   2.802  0.1089 -2.4482  0.0447
  966SOL    HW2 2898   2.962   1.774   2.693  2.3393  0.7785 -0.4378
  967SOL     OW 2899   2.001   2.959   3.012  0.2530  0.1392 -0.0413
  967SOL    HW1 2900   1.974   3.032   3.079  1.1167 -0.2567  2.1217
  967SOL    HW2 2901   2.054   2.880   3.051 -1.3912  0.2041  1.9335
  968SOL     OW 2902   1.971   2.976   0.521  0.1411 -0.4947  0.0537
  968SOL    HW1 2903   1.869   2.977   0.517 -2.3424  2.3441 -2.4568
  968SOL    HW2 2904   2.009   2.992   0.616 -1.1998  1.4815 -0.2977
  969SOL     OW 2905   0.743   1.197   2.260 -0.1341 -0.1972 -0.0969
  969SOL    HW1 2906   0.646   1.193   2.292 -1.0072 -0.6643 -1.8852
  969SOL    HW2 2907   0.791   1.248   2.333 -0.6794 -0.1121 -3.2374
  970SOL     OW 2908   1.549   1.323   1.036  0.0578 -0.1478  0.0480
  970SOL    HW1 2909   1.601   1.238   1.007  0.1066 -0.7459  0.5685
  970SOL    HW2 2910   1.589   1.365   1.121 -0.2417  2.5340 -0.7401
  971SOL     OW 2911   2.111   0.097   1.567  0.0493  0.0948  0.0517
  971SOL    HW1 2912   2.087   0.182   1.614  1.9576 -1.5632 -0.4721
  971SOL    HW2 2913   2.060   0.083   1.482  2.3095  0.5499  0.3528
  972SOL     OW 2914   0.127   3.006   1.636 -0.4132 -0.3179 -0.4217
  972SOL    HW1 2915   0.224   3.011   1.605 -1.5452  1.6677 -0.9209
  972SOL    HW2 2916   0.079   2.942   1.576  0.1777  1.8444 -2.7127
  973SOL     OW 2917   0.288   0.274   2.559 -0.3188 -0.2770 -0.4049
  973SOL    HW1 2918   0.187   0.271   2.547  1.8668 -2.1920 -0.2363
  973SOL    HW2 2919   0.314   0.340   2.633 -0.6778 -2.5505  1.0980
  974SOL     OW 2920   2.316   1.113   2.421  0.1132  0.5157 -0.0578
  974SOL    HW1 2921   2.349   1.021   2.449 -2.4392  0.5964  3.1200
  974SOL    HW2 2922   2.297   1.123   2.326  2.5308 -0.2712  0.3535
  975SOL     OW 2923   0.676   0.237   1.351  0.4811  0.4835  0.2761
  975SOL    HW1 2924   0.600   0.215   1.286  0.8876  1.1101 -2.6384
  975SOL    HW2 2925   0.671   0.334   1.389  0.8094  1.1837  1.8363
  976SOL     OW 2926   0.807   2.108   2.313 -0.3904 -0.0354 -0.4174
  976SOL    HW1 2927   0.707   2.101   2.311  1.2228  0.7398  2.1738
  976SOL    HW2 2928   0.841   2.070   2.402 -0.1195 -1.3684  0.5719
  977SOL     OW 2929   0.700   0.156   0.691  0.6771  0.1501 -0.8326
  977SOL    HW1 2930   0.705   0.262   0.702  1.0914  0.9705  0.2633
  977SOL    HW2 2931   0.636   0.134   0.613  2.7389  0.1653 -1.5252
  978SOL     OW 2932   2.994   1.384   1.961 -0.4134 -0.1605  0.0950
  978SOL    HW1 2933   2.973   1.294   2.005  0.8826  0.5773  1.9239
  978SOL    HW2 2934   2.960   1.465   2.016 -0.6276  1.0559  2.6718
  979SOL     OW 2935   1.659   0.071   1.660 -0.1814 -0.4400 -0.4006
  979SOL    HW1 2936   1.610   0.126   1.733 -2.4171 -0.3476 -0.4870
  979SOL    HW2 2937   1.723   0.007   1.703  1.4524 -0.9252 -0.2791
  980SOL     OW 2938   1.512   1.688   1.896 -0.1527  0.3699  0.9347
  980SOL    HW1 2939   1.464   1.630   1.826  2.5296 -1.4314 -0.0051
  980SOL    HW2 2940   1.454   1.756   1.945  1.0071  1.1946  0.6495
  981SOL     OW 2941   2.720   0.743   1.252 -0.3060  0.0805 -0.2566
  981SOL    HW1 2942   2.619   0.730   1.244 -0.0928 -3.2307 -0.1605
  981SOL    HW2 2943   2.743   0.779   1.346  0.4488  0.4024  1.2976
  982SOL     OW 2944   0.406   0.021   2.750 -0.0309  0.3035 -0.1292
  982SOL    HW1 2945   0.460   3.081   2.680 -1.3151 -1.4366  2.4709
  982SOL    HW2 2946   0.311   0.032   2.712 -1.1100  2.0840  2.0564
  983SOL     OW 2947   2.618   0.572   2.556 -0.2171 -0.2068  0.3143
  983SOL    HW1 2948   2.643   0.661   2.602  0.0181 -2.3265  0.7986
  983SOL    HW2 2949   2.641   0.565   2.458 -0.9740  2.9374  1.3499
  984SOL     OW 2950   1.195   3.065   1.948  0.0840 -0.3415 -0.0200
  984SOL    HW1 2951   1.272   3.014   1.988 -2.7904  2.6045  1.9107
  984SOL    HW2 2952   1.118   3.010   1.907 -0.6526  3.3850 -2.5551
  985SOL     OW 2953   1.809   1.799   2.055 -0.2905 -0.0574 -0.2477
  985SOL    HW1 2954   1.850   1.886   2.026 -0.4658  0.0543  0.1604
  985SOL    HW2 2955   1.722   1.819   2.108  5.0356 -1.3094  1.1049
  986SOL     OW 2956   2.631   0.397   1.321  0.0829 -0.3963  0.8112
  986SOL    HW1 2957   2.699   0.449   1.268 -1.2480  1.9251 -0.4092
  986SOL    HW2 2958   2.597   0.455   1.397 -1.5917 -2.0053  0.3076
  987SOL     OW 2959   2.548   1.099   1.432 -0.7122  0.6156  0.1885
  987SOL    HW1 2960   2.453   1.132   1.458 -0.4308 -0.2276 -0.4967
  987SOL    HW2 2961   2.588   1.155   1.357 -1.4095  0.3805 -1.5749
  988SOL     OW 2962   2.897   1.127   2.048  0.5103  0.0993  0.0735
  988SOL    HW1 2963   2.950   1.046   2.083 -1.0009 -1.4803  1.0009
  988SOL    HW2 2964   2.816   1.148   2.105  3.7075  2.1853 -0.1624
  989SOL     OW 2965   1.392   2.045   3.086 -0.0077 -0.1507  0.1780
  989SOL    HW1 2966   1.405   2.126   3.024  0.8700  0.8512  1.3053
  989SOL    HW2 2967   1.395   1.960   3.033 -1.4989  0.5978 -0.6739
  990SOL     OW 2968   1.306   0.652   2.588 -0.4717  0.1112  0.2601
  990SOL    HW1 2969   1.397   0.608   2.559 -0.4942 -3.1954 -0.0617
  990SOL    HW2 2970   1.241   0.652   2.514 -0.5793  1.4460  0.5974
  991SOL     OW 2971   1.392   0.879   0.573  0.4187  0.2154 -0.4633
  991SOL    HW1 2972   1.392   0.856   0.674 -0.9555  0.1221  4.0101
  991SOL    HW2 2973   1.487   0.870   0.537  0.0887  1.4782  0.5914
  992SOL     OW 2974   2.375   1.981   0.896 -0.1968  0.6849 -0.1387
  992SOL    HW1 2975   2.445   2.056   0.907  1.7464  4.3947 -0.1883
  992SOL    HW2 2976   2.280   2.017   0.897  0.3818  0.6911  0.0179
  993SOL     OW 2977   0.101   0.607   0.894  0.0382  0.0812  0.3907
  993SOL    HW1 2978   0.120   0.701   0.931  2.1041 -0.7910 -0.3348
  993SOL    HW2 2979   0.154   0.593   0.809 -2.0751 -1.0160 -0.0263
  994SOL     OW 2980   0.323   1.943   2.421 -0.0563 -0.0019  0.6475
  994SOL    HW1 2981   0.406   1.981   2.378 -0.0087 -0.5108 -0.6480
  994SOL    HW2 2982   0.248   2.015   2.439 -3.2448 -0.1085 -0.2043
  995SOL     OW 2983   1.890   1.010   2.743  0.1159 -0.3478  0.4189
  995SOL    HW1 2984   1.826   1.015   2.827 -2.7408  1.5428 -0.7701
  995SOL    HW2 2985   1.869   1.083   2.675  1.3388  2.5076 -2.1101
  996SOL     OW 2986   2.872   1.235   0.598  0.3911 -0.0056 -0.6769
  996SOL    HW1 2987   2.871   1.146   0.650 -1.3267 -2.4733 -0.2825
  996SOL    HW2 2988   2.791   1.296   0.630  0.1178  2.0959  2.4886
  997SOL     OW 2989   1.763   0.906   2.216 -0.1365 -0.3388  0.2232
  997SOL    HW1 2990   1.733   0.812   2.196 -1.5020  0.6826 -0.3461
  997SOL    HW2 2991   1.853   0.921   2.175 -2.9011  2.1898  1.3415
  998SOL     OW 2992   3.014   1.813   0.372 -0.4016 -0.5311 -0.0879
  998SOL    HW1 2993   3.052   1.903   0.406  1.7063  0.3869  0.8251
  998SOL    HW2 2994   2.971   1.751   0.442 -0.2609 -3.7421 -0.8058
  999SOL     OW 2995   0.031   2.307   0.183 -0.0397  0.6572  0.2744
  999SOL    HW1 2996   0.106   2.278   0.245 -0.2990  2.9931 -0.4308
  999SOL    HW2 2997   0.003   2.399   0.210  0.8326 -1.1598 -0.8223
 1000SOL     OW 2998   0.958   0.763   2.626  0.3348  0.2845  1.1444
 1000SOL    HW1 2999   1.011   0.778   2.710  0.4349 -1.8556 -0.8039
 1000SOL    HW2 3000   1.005   0.796   2.539  0.3499  0.9492  0.1741
   3.10204   3.10204   3.10204
