1000 SPC/Fw water molecules t= 385.00000 step= 385000
 3000
    1SOL     OW    1   2.656   2.944   1.617  0.2770 -0.7573  0.1610
    1SOL    HW1    2   2.576   2.975   1.559  0.0624  2.1619  1.6186
    1SOL    HW2    3   2.632   2.867   1.679  0.0144 -0.4437 -1.7660
    2SOL     OW    4   2.352   2.738   0.295  0.0289  0.0872  0.1904
    2SOL    HW1    5   2.261   2.770   0.326 -2.7876  0.6418 -0.3303
    2SOL    HW2    6   2.342   2.714   0.199  0.0793  2.0417  0.9651
    3SOL     OW    7   1.477   3.031   0.241 -0.2485 -0.1797 -0.4349
    3SOL    HW1    8   1.575   3.037   0.248 -0.0900  3.1480 -1.3871
    3SOL    HW2    9   1.429   0.025   0.219  0.4051 -4.3027  3.2508
    4SOL     OW   10   1.324   0.141   2.339 -0.2135 -0.2170 -0.3026
    4SOL    HW1   11   1.245   0.110   2.392  0.2447 -0.4226 -0.5657
    4SOL    HW2   12   1.308   0.113   2.241 -1.6259  1.1709 -1.5405
    5SOL     OW   13   2.232   0.140   1.337  0.1430 -0.1993  0.2022
    5SOL    HW1   14   2.202   0.184   1.249 -2.1070  1.1424  3.0617
    5SOL    HW2   15   2.150   0.111   1.385  1.7947  1.3350 -2.0222
    6SOL     OW   16   2.077   1.957   0.549  0.1925  0.3850  0.0998
    6SOL    HW1   17   2.060   1.906   0.464  2.4930 -1.1303  1.2647
    6SOL    HW2   18   2.106   2.051   0.528  1.1248 -2.1438 -0.2232
    7SOL     OW   19   1.943   1.084   0.938  0.1062  0.1226  0.2798
    7SOL    HW1   20   1.972   1.105   1.031  0.7790 -1.6286  0.5270
    7SOL    HW2   21   1.889   0.996   0.936 -1.2067  1.3235 -0.2153
    8SOL     OW   22   0.613   1.482   1.034  0.0798  0.0518 -0.0234
    8SOL    HW1   23   0.705   1.502   1.080  1.9274  0.7941  0.8303
    8SOL    HW2   24   0.535   1.497   1.096 -0.8563  1.3010  0.1146
    9SOL     OW   25   0.660   2.728   1.724 -0.4851 -0.0066  0.5857
    9SOL    HW1   26   0.672   2.827   1.704  0.9276 -1.1228  0.6858
    9SOL    HW2   27   0.627   2.708   1.823  1.6525  0.6958  1.9510
   10SOL     OW   28   1.154   2.466   0.500  0.1755 -0.2198  0.9144
   10SOL    HW1   29   1.202   2.535   0.555 -0.8520  0.3380 -0.6975
   10SOL    HW2   30   1.197   2.377   0.526  1.0124 -0.7892  3.0196
   11SOL     OW   31   1.609   1.659   1.283 -0.1711 -0.4661  0.0798
   11SOL    HW1   32   1.620   1.760   1.307  0.7840  1.9839  1.5369
   11SOL    HW2   33   1.674   1.626   1.207 -1.5294 -0.7124  0.6861
   12SOL     OW   34   2.881   0.544   2.032  0.3985  0.1161 -0.4308
   12SOL    HW1   35   2.913   0.558   1.937  1.1291 -1.8363 -0.0309
   12SOL    HW2   36   2.803   0.595   2.063 -0.0403 -3.1704  0.1949
   13SOL     OW   37   2.700   0.177   0.600  0.0017  0.0558 -0.0420
   13SOL    HW1   38   2.687   0.083   0.635  0.5666  0.1011  1.3952
   13SOL    HW2   39   2.733   0.243   0.669 -0.5906  0.7323 -0.9688
   14SOL     OW   40   1.775   1.322   3.054  0.2999 -0.3781 -0.7217
   14SOL    HW1   41   1.735   1.234   3.033  2.9963 -0.1719  1.5264
   14SOL    HW2   42   1.763   1.393   2.978 -2.9453  3.9756 -1.1632
   15SOL     OW   43   2.569   2.352   1.719 -0.2276  0.0027  0.5900
   15SOL    HW1   44   2.500   2.415   1.766  1.6426  1.5394 -2.3767
   15SOL    HW2   45   2.653   2.333   1.771  1.4624 -1.6000 -0.4523
   16SOL     OW   46   2.464   2.857   1.000  0.1062 -0.2636 -0.6219
   16SOL    HW1   47   2.494   2.953   1.011  1.3882 -0.0103  1.9980
   16SOL    HW2   48   2.364   2.852   0.982  0.8066  0.6836  0.2479
   17SOL     OW   49   1.007   0.343   1.438  1.0613 -0.0393 -0.4185
   17SOL    HW1   50   0.965   0.285   1.369  2.5138 -0.6669  2.7407
   17SOL    HW2   51   0.949   0.342   1.524  1.1854 -1.4149  2.7252
   18SOL     OW   52   1.593   0.455   0.965  0.2369 -0.4703 -0.1459
   18SOL    HW1   53   1.540   0.536   1.005 -1.8750  1.4199  0.7248
   18SOL    HW2   54   1.566   0.364   0.996 -1.3420  0.1701 -0.9918
   19SOL     OW   55   2.153   1.377   0.324  0.4183 -0.0706  0.0375
   19SOL    HW1   56   2.104   1.460   0.290 -0.2913 -0.9749  1.1262
   19SOL    HW2   57   2.102   1.332   0.397  0.1717 -1.4611 -2.4253
   20SOL     OW   58   2.078   1.433   2.228  0.1917 -0.1278 -0.9358
   20SOL    HW1   59   2.172   1.407   2.226 -2.4648 -1.7055 -1.2692
   20SOL    HW2   60   2.016   1.377   2.169  1.6276 -0.8880 -2.2431
   21SOL     OW   61   1.184   0.190   0.607  0.1008 -0.3993  0.0004
   21SOL    HW1   62   1.252   0.215   0.536  1.2557  0.3552 -0.2056
   21SOL    HW2   63   1.101   0.154   0.562 -0.8900 -0.8100 -1.4784
   22SOL     OW   64   2.566   0.660   1.002 -0.1046  0.3960  0.1668
   22SOL    HW1   65   2.660   0.677   0.970  0.7248 -1.8491  1.0066
   22SOL    HW2   66   2.535   0.726   1.072  1.0215 -0.9517 -0.7752
   23SOL     OW   67   0.328   0.159   1.753 -0.2859  0.0934 -0.2812
   23SOL    HW1   68   0.404   0.229   1.761  1.5567  0.8344  2.5880
   23SOL    HW2   69   0.276   0.144   1.838  0.1675 -0.2827 -0.5009
   24SOL     OW   70   2.606   2.736   0.398  0.3500 -0.6764 -0.5046
   24SOL    HW1   71   2.507   2.751   0.375 -0.8528 -1.9200  0.2431
   24SOL    HW2   72   2.616   2.720   0.494 -0.1353 -2.4096 -2.7363
   25SOL     OW   73   1.819   0.124   2.790  0.2773  0.4267  0.3806
   25SOL    HW1   74   1.823   0.038   2.847  1.1817  1.1973  1.0951
   25SOL    HW2   75   1.892   0.187   2.815 -1.2740 -1.1015  0.7950
   26SOL     OW   76   1.525   2.515   0.099 -0.3979 -0.3911  0.2332
   26SOL    HW1   77   1.496   2.614   0.081  0.4351  2.8568 -0.3015
   26SOL    HW2   78   1.485   2.479   0.182  1.9157  2.5135 -2.0063
   27SOL     OW   79   1.172   0.629   1.118 -0.2806  0.0857  0.4451
   27SOL    HW1   80   1.141   0.660   1.027  1.3086  1.0734  1.8456
   27SOL    HW2   81   1.094   0.630   1.183  1.6489 -0.7875 -0.2781
   28SOL     OW   82   1.197   1.506   0.850 -0.3630 -0.2674  0.5745
   28SOL    HW1   83   1.225   1.533   0.755  1.2579  1.6226  0.2882
   28SOL    HW2   84   1.270   1.458   0.899  0.8867 -2.6349  0.7849
   29SOL     OW   85   2.901   0.254   1.853 -0.5919 -0.0390 -0.1367
   29SOL    HW1   86   2.889   0.172   1.796  0.6248 -0.9085 -1.4664
   29SOL    HW2   87   2.855   0.335   1.810 -3.8035 -1.1940  0.6410
   30SOL     OW   88   1.094   2.869   1.311  0.5161  0.3308 -0.1191
   30SOL    HW1   89   1.093   2.813   1.398  0.2312  2.2715 -1.2341
   30SOL    HW2   90   1.160   2.945   1.324 -0.0740  2.1294 -3.4254
   31SOL     OW   91   1.954   2.911   1.679 -0.0226  0.0454  0.2853
   31SOL    HW1   92   1.951   2.909   1.777 -0.2861 -0.1247 -5.4197
   31SOL    HW2   93   1.903   2.836   1.638 -0.1079  0.1020  1.4367
   32SOL     OW   94   1.378   1.779   0.009  0.6150 -0.4892  0.1171
   32SOL    HW1   95   1.476   1.789   0.040  0.4405 -0.1960 -0.8340
   32SOL    HW2   96   1.374   1.761   3.002  1.5003 -1.6984 -2.3351
   33SOL     OW   97   2.926   0.803   2.410  0.2279  0.0628 -0.7076
   33SOL    HW1   98   2.980   0.885   2.390  1.7595 -1.1523  2.0958
   33SOL    HW2   99   2.873   0.815   2.499 -3.2744  0.8644 -0.4253
   34SOL     OW  100   2.095   0.500   0.522  0.7901 -0.3871  0.4724
   34SOL    HW1  101   2.100   0.435   0.597 -1.5304  1.5974  1.3725
   34SOL    HW2  102   2.117   0.459   0.432 -1.1504  1.9934  1.1470
   35SOL     OW  103   2.548   2.153   2.012 -0.5737 -0.4549 -0.2061
   35SOL    HW1  104   2.623   2.130   1.942  0.3926  1.7879 -3.9057
   35SOL    HW2  105   2.587   2.144   2.107 -0.3387  2.3689  0.8149
   36SOL     OW  106   2.179   1.935   2.818 -0.2083 -0.3780 -0.4219
   36SOL    HW1  107   2.279   1.931   2.824 -1.1454  1.4662 -1.2594
   36SOL    HW2  108   2.148   1.926   2.724  1.1610 -1.6979  1.2470
   37SOL     OW  109   2.078   0.021   1.548 -0.2936 -0.1855 -0.7699
   37SOL    HW1  110   2.041   0.104   1.598 -0.8685  1.0837 -2.3857
   37SOL    HW2  111   2.026   3.031   1.575 -0.0687  0.7431  0.5625
   38SOL     OW  112   0.356   0.286   2.787  0.0043 -0.1630 -0.2336
   38SOL    HW1  113   0.424   0.352   2.754 -0.4886 -3.3063 -0.9282
   38SOL    HW2  114   0.408   0.211   2.836 -0.4090 -0.9190  2.0349
   39SOL     OW  115   1.764   1.105   1.768  0.4370  0.2412  0.0736
   39SOL    HW1  116   1.800   1.189   1.808 -1.1097  0.8827 -0.4626
   39SOL    HW2  117   1.807   1.020   1.801  0.8944 -0.0934  1.6878
   40SOL     OW  118   1.190   1.855   0.829 -0.1641  0.1024 -0.2841
   40SOL    HW1  119   1.270   1.915   0.798 -0.2670  1.9424 -0.3517
   40SOL    HW2  120   1.135   1.814   0.751 -2.8091  0.7542 -2.3055
   41SOL     OW  121   1.857   1.791   0.805 -0.0034 -1.3912  0.4824
   41SOL    HW1  122   1.934   1.735   0.771  1.5461 -0.9932 -0.1533
   41SOL    HW2  123   1.783   1.735   0.838  0.9775  3.4870  3.5912
   42SOL     OW  124   0.128   0.844   1.448 -0.2750  0.0984  0.2869
   42SOL    HW1  125   0.146   0.757   1.400 -1.0673  0.7448 -1.0455
   42SOL    HW2  126   0.196   0.863   1.519  0.2830  0.1551 -0.2333
   43SOL     OW  127   0.025   1.628   2.811 -0.4871  0.1918 -0.0553
   43SOL    HW1  128   3.071   1.660   2.895  2.2203 -2.0619 -1.7764
   43SOL    HW2  129   0.126   1.633   2.822  0.8350  1.0722 -0.7940
   44SOL     OW  130   1.416   2.726   1.453  0.0160  0.3766 -0.0288
   44SOL    HW1  131   1.341   2.788   1.487  0.8055  2.1867  0.4151
   44SOL    HW2  132   1.484   2.691   1.522  1.3227 -0.4465 -1.8537
   45SOL     OW  133   1.130   0.025   2.509  0.8154  0.5249 -0.1682
   45SOL    HW1  134   1.090   0.002   2.416  0.6180 -2.6896 -0.4789
   45SOL    HW2  135   1.056   0.018   2.584 -4.0695 -0.1714  2.2547
   46SOL     OW  136   0.796   2.608   2.386  0.3564 -0.1465 -0.2030
   46SOL    HW1  137   0.807   2.632   2.285  1.2885  1.4701 -0.3194
   46SOL    HW2  138   0.759   2.681   2.440 -0.1790  0.8622  0.3297
   47SOL     OW  139   0.920   2.190   0.953  0.1795  0.0206  0.0042
   47SOL    HW1  140   0.863   2.267   0.929 -2.6395 -3.7770  3.5069
   47SOL    HW2  141   0.905   2.172   1.054 -0.1742 -2.1333  0.2771
   48SOL     OW  142   0.837   2.133   1.220  0.1226 -0.9155  0.4904
   48SOL    HW1  143   0.790   2.227   1.220  0.8701  1.1836  1.0757
   48SOL    HW2  144   0.781   2.059   1.252  0.9134  1.4420 -2.0392
   49SOL     OW  145   2.612   0.330   3.057  0.3432  0.4462 -0.1089
   49SOL    HW1  146   2.540   0.389   3.082  4.1825 -2.2370  0.4046
   49SOL    HW2  147   2.692   0.383   3.026 -0.7550 -2.5046  1.0226
   50SOL     OW  148   1.954   0.444   0.204 -0.2373 -0.0594  0.4710
   50SOL    HW1  149   2.049   0.429   0.230 -0.9357 -1.9784  0.1213
   50SOL    HW2  150   1.924   0.543   0.211  0.2238 -0.6025  2.1986
   51SOL     OW  151   1.950   0.739   1.148 -0.1429  0.0959 -0.1131
   51SOL    HW1  152   2.024   0.668   1.171 -1.3018 -0.8596 -0.4138
   51SOL    HW2  153   1.974   0.825   1.194 -3.0256  0.7722 -2.6892
   52SOL     OW  154   0.442   1.755   0.158 -0.3833  0.4218 -0.0766
   52SOL    HW1  155   0.529   1.707   0.127  0.2890 -1.9796 -0.2984
   52SOL    HW2  156   0.402   1.802   0.076  0.7188  0.6863  0.8343
   53SOL     OW  157   0.192   1.351   0.057  0.0029  0.1108 -0.2689
   53SOL    HW1  158   0.203   1.266   0.116 -1.0297  0.5735  0.1691
   53SOL    HW2  159   0.277   1.404   0.053  0.6395  1.3751 -0.6463
   54SOL     OW  160   2.529   1.457   2.063 -0.0309  0.0246  0.0309
   54SOL    HW1  161   2.517   1.556   2.045 -1.7376  0.2693  1.1639
   54SOL    HW2  162   2.623   1.440   2.093 -4.3799 -0.8733 -1.2413
   55SOL     OW  163   2.364   1.733   0.410  0.0203  0.0078 -0.3337
   55SOL    HW1  164   2.275   1.744   0.364  1.2613 -0.8747  1.6295
   55SOL    HW2  165   2.353   1.748   0.511  0.4301  1.7187  0.0065
   56SOL     OW  166   1.957   0.117   1.258 -0.0777  0.2039  0.0764
   56SOL    HW1  167   2.017   0.151   1.183  0.8934  0.3605 -1.8942
   56SOL    HW2  168   1.904   0.192   1.297  1.6241  1.1257 -1.6021
   57SOL     OW  169   1.183   1.169   0.257  0.2770  0.1435 -0.1662
   57SOL    HW1  170   1.165   1.073   0.298  2.0694 -1.4226 -1.3298
   57SOL    HW2  171   1.278   1.182   0.231 -1.9144  0.5837  1.0180
   58SOL     OW  172   2.379   0.298   1.523  0.2211  0.2808  0.0181
   58SOL    HW1  173   2.345   0.317   1.618 -0.1552  0.6695  1.9691
   58SOL    HW2  174   2.312   0.258   1.461 -0.3972 -0.4337  1.1619
   59SOL     OW  175   1.223   2.748   2.761  0.3387 -0.5694 -0.3814
   59SOL    HW1  176   1.320   2.785   2.769  1.5045  1.3717  0.1332
   59SOL    HW2  177   1.218   2.651   2.795 -2.1369 -0.6984 -1.7628
   60SOL     OW  178   3.070   2.354   2.786  0.2346  0.6871 -0.1868
   60SOL    HW1  179   2.976   2.314   2.771 -0.3990 -0.2299 -4.1584
   60SOL    HW2  180   0.008   2.404   2.704  2.8095  2.0374  1.8530
   61SOL     OW  181   0.685   2.350   1.192 -0.0135 -0.1404  0.1733
   61SOL    HW1  182   0.746   2.386   1.118  0.7864 -0.7930  0.9968
   61SOL    HW2  183   0.601   2.329   1.139 -0.7018 -0.2765 -0.4055
   62SOL     OW  184   1.825   1.961   2.406 -0.3555 -0.4148 -0.1530
   62SOL    HW1  185   1.792   1.961   2.307 -0.8655  0.4148  0.5309
   62SOL    HW2  186   1.826   1.867   2.444  1.8210 -2.0031  2.0283
   63SOL     OW  187   1.679   1.832   0.098  0.0825 -0.0968  0.5984
   63SOL    HW1  188   1.620   1.768   0.155  0.3509  0.0594 -0.7465
   63SOL    HW2  189   1.758   1.787   0.058 -0.5513  1.8816  0.6105
   64SOL     OW  190   2.109   1.199   3.024 -0.2717 -0.5352 -0.1866
   64SOL    HW1  191   2.018   1.154   3.029  2.5714  0.1987 -2.7979
   64SOL    HW2  192   2.112   1.252   2.939 -2.4643 -3.0875  1.1141
   65SOL     OW  193   2.297   2.129   1.742 -0.9076 -0.3439  0.1220
   65SOL    HW1  194   2.294   2.051   1.808  2.2177  0.7559 -2.2899
   65SOL    HW2  195   2.261   2.212   1.787  1.0565 -2.2662  1.6348
   66SOL     OW  196   0.459   0.938   1.462  0.6348  0.3476 -0.2147
   66SOL    HW1  197   0.384   0.982   1.408  1.8872 -1.5681  2.9041
   66SOL    HW2  198   0.491   1.010   1.527  0.1004 -2.6100 -3.6924
   67SOL     OW  199   2.435   2.997   0.058  0.1974  0.5281 -0.7166
   67SOL    HW1  200   2.413   3.038   0.153  2.4577  2.4401  2.9396
   67SOL    HW2  201   2.442   3.080   3.093  0.5894 -1.8812  2.4027
   68SOL     OW  202   1.656   1.925   1.266 -0.0655 -0.2588  0.0773
   68SOL    HW1  203   1.728   1.949   1.201 -1.0441  3.1533  0.3391
   68SOL    HW2  204   1.557   1.940   1.233 -4.3778  1.5118 -0.1578
   69SOL     OW  205   2.973   2.692   2.950 -0.0061  0.5078  0.5766
   69SOL    HW1  206   3.068   2.686   2.911  2.2931 -2.6850 -0.4069
   69SOL    HW2  207   2.936   2.596   2.947 -0.9490  0.8601 -0.2174
   70SOL     OW  208   2.986   0.895   1.974 -0.3446  0.3269 -0.0910
   70SOL    HW1  209   2.999   0.945   1.884  1.3154 -3.5312  0.8266
   70SOL    HW2  210   2.887   0.880   1.988  2.0970 -1.9785 -1.0052
   71SOL     OW  211   0.878   1.124   2.834 -0.0309 -0.7555 -0.0815
   71SOL    HW1  212   0.940   1.147   2.910 -0.2496 -0.8291 -1.5683
   71SOL    HW2  213   0.901   1.033   2.797 -0.7865 -0.9743  0.8411
   72SOL     OW  214   2.786   1.636   2.033  0.1166  0.0096  0.4190
   72SOL    HW1  215   2.795   1.636   1.931  1.0163  0.7507  2.1516
   72SOL    HW2  216   2.802   1.544   2.066 -1.2703  3.5693 -0.7113
   73SOL     OW  217   0.999   1.778   0.149 -0.2748 -0.0669  0.1396
   73SOL    HW1  218   0.952   1.842   0.086  4.0376  0.7282 -2.1324
   73SOL    HW2  219   1.088   1.822   0.180 -1.4161  0.6983 -0.4078
   74SOL     OW  220   2.179   2.791   2.711  0.3779 -0.2923  0.7674
   74SOL    HW1  221   2.239   2.845   2.648 -0.7083  1.3542  3.9453
   74SOL    HW2  222   2.227   2.722   2.766  1.8358  0.2122  1.1392
   75SOL     OW  223   1.428   2.309   0.805 -0.2899 -0.3640  0.0912
   75SOL    HW1  224   1.344   2.317   0.858 -1.6443 -0.1486 -0.4681
   75SOL    HW2  225   1.433   2.227   0.742 -1.2854 -1.5284  1.1729
   76SOL     OW  226   2.521   1.905   2.355 -0.2306  0.2012  0.1894
   76SOL    HW1  227   2.424   1.872   2.364 -0.5154 -0.3603  0.6609
   76SOL    HW2  228   2.576   1.828   2.315 -1.1862 -1.8101 -1.5835
   77SOL     OW  229   0.111   2.402   1.760 -0.2823  0.5656  0.6070
   77SOL    HW1  230   0.035   2.445   1.811 -1.9033  0.6384  2.3700
   77SOL    HW2  231   0.110   2.303   1.773 -2.5716 -1.0358  1.0157
   78SOL     OW  232   2.357   0.978   0.334 -0.2636 -0.7220 -0.6352
   78SOL    HW1  233   2.305   0.897   0.299 -0.5178  1.6967  1.6997
   78SOL    HW2  234   2.332   1.060   0.282  2.7180  0.8615  0.9729
   79SOL     OW  235   0.139   1.533   2.454 -0.4147  0.5053 -0.1963
   79SOL    HW1  236   0.063   1.589   2.492  0.8822  0.3214  1.7278
   79SOL    HW2  237   0.189   1.487   2.527  1.9764 -2.6351 -3.5227
   80SOL     OW  238   1.858   1.389   1.795 -0.1392  0.3404  0.2827
   80SOL    HW1  239   1.791   1.440   1.739  0.6424 -0.8022 -0.5302
   80SOL    HW2  240   1.924   1.444   1.840 -2.1210 -1.4186 -2.5759
   81SOL     OW  241   1.933   1.245   2.050 -0.4636 -0.4838  0.1430
   81SOL    HW1  242   1.996   1.207   1.979 -0.4825  0.5290  1.0470
   81SOL    HW2  243   1.907   1.177   2.118  1.8278  0.9010  2.1795
   82SOL     OW  244   1.481   1.725   1.831  0.0731 -0.4757  0.6592
   82SOL    HW1  245   1.382   1.751   1.824 -0.5761 -2.4951 -2.4157
   82SOL    HW2  246   1.494   1.623   1.822  1.5302  0.0893  2.9197
   83SOL     OW  247   0.292   0.335   0.378 -0.1036  0.5634  0.1294
   83SOL    HW1  248   0.362   0.350   0.308 -0.9720  0.9089 -1.4811
   83SOL    HW2  249   0.244   0.244   0.375  0.5533  1.0178  2.1289
   84SOL     OW  250   0.153   0.104   0.357 -0.6544  0.5788  0.4118
   84SOL    HW1  251   0.060   0.067   0.337  1.9091 -0.3296  0.7656
   84SOL    HW2  252   0.223   0.043   0.315  0.4132 -1.8196 -2.1150
   85SOL     OW  253   2.174   2.109   1.083  0.1365 -0.2293  0.3284
   85SOL    HW1  254   2.170   2.185   1.159  0.3565  1.6838  2.4339
   85SOL    HW2  255   2.127   2.135   0.998  3.7174  0.9198  1.0700
   86SOL     OW  256   0.373   0.529   1.699  0.1840 -0.2994 -0.5140
   86SOL    HW1  257   0.286   0.509   1.644 -2.2025 -3.0556 -1.0274
   86SOL    HW2  258   0.422   0.441   1.717  2.9689 -1.4945 -1.3339
   87SOL     OW  259   0.037   2.223   2.106  0.2707  0.1032 -0.2238
   87SOL    HW1  260   0.068   2.188   2.019 -1.8717  0.0812 -0.8654
   87SOL    HW2  261   0.074   2.316   2.127  1.0582  1.2329 -0.5209
   88SOL     OW  262   0.069   1.947   2.706  0.1066 -0.3664  0.1365
   88SOL    HW1  263   0.022   1.972   2.617 -1.6297  1.9239 -0.3403
   88SOL    HW2  264   3.088   1.946   2.782  2.4689 -2.9692  4.6278
   89SOL     OW  265   1.288   0.829   0.545 -0.2956 -0.4959  0.5143
   89SOL    HW1  266   1.255   0.739   0.523  0.2599 -0.7090  0.8131
   89SOL    HW2  267   1.372   0.855   0.496 -1.7572 -2.0441 -0.8377
   90SOL     OW  268   0.018   1.548   2.208  0.1056  0.1928  0.3011
   90SOL    HW1  269   3.071   1.641   2.201 -1.0611 -1.2423  0.6864
   90SOL    HW2  270   0.066   1.532   2.298  3.2681  1.2687  0.5964
   91SOL     OW  271   1.747   0.754   0.714  0.7446  0.7127 -0.0066
   91SOL    HW1  272   1.674   0.683   0.711  0.7864  0.9118 -0.3906
   91SOL    HW2  273   1.762   0.788   0.809  0.1886  0.0317  1.6481
   92SOL     OW  274   2.420   1.369   1.028  0.1955 -0.2580  0.8808
   92SOL    HW1  275   2.490   1.435   0.993  0.8170  0.2054  1.3205
   92SOL    HW2  276   2.456   1.312   1.107  1.5834 -3.4305  3.2270
   93SOL     OW  277   0.163   1.274   2.887 -0.0874  0.3664 -0.1188
   93SOL    HW1  278   0.207   1.315   2.973 -0.2797  0.2149 -0.2726
   93SOL    HW2  279   0.183   1.331   2.805  1.6533  2.7770 -1.3250
   94SOL     OW  280   1.822   2.447   2.215 -0.0492  0.2399 -0.2540
   94SOL    HW1  281   1.737   2.448   2.167  1.5174  0.6970  1.2406
   94SOL    HW2  282   1.863   2.541   2.199 -1.4839 -0.9899 -0.6369
   95SOL     OW  283   0.275   0.326   1.349  0.2340  0.1683  0.6197
   95SOL    HW1  284   0.372   0.363   1.353  3.1657 -0.7054  1.2623
   95SOL    HW2  285   0.227   0.354   1.268  0.7440 -1.4912  1.7207
   96SOL     OW  286   2.988   2.852   1.252  0.1174 -0.1695  0.3214
   96SOL    HW1  287   2.982   2.869   1.153  0.0188 -1.1508 -0.8748
   96SOL    HW2  288   2.963   2.753   1.267  0.4064 -2.8683 -1.2562
   97SOL     OW  289   2.360   0.875   1.334  0.3675  0.0616  0.1675
   97SOL    HW1  290   2.419   0.962   1.347 -0.1095 -2.5481 -1.1972
   97SOL    HW2  291   2.268   0.889   1.294 -1.6885 -1.7446 -0.9249
   98SOL     OW  292   2.015   2.614   1.517  0.3072  0.2768  0.5117
   98SOL    HW1  293   2.049   2.631   1.424  0.6667  3.0559  0.9321
   98SOL    HW2  294   1.929   2.554   1.521  0.8651  2.1003  1.0819
   99SOL     OW  295   0.383   3.015   1.396  0.0568 -0.0907  0.0144
   99SOL    HW1  296   0.352   2.995   1.494 -1.6311 -2.8972 -0.1620
   99SOL    HW2  297   0.442   2.940   1.364  0.5666  0.5391 -0.1092
  100SOL     OW  298   1.880   0.040   2.515 -0.1174  0.1502 -0.3792
  100SOL    HW1  299   1.896   0.124   2.457 -1.0332 -1.2122 -1.0339
  100SOL    HW2  300   1.825   0.055   2.594 -0.9426 -1.1450 -1.0812
  101SOL     OW  301   3.041   0.349   2.348 -0.6521  0.1659 -0.0017
  101SOL    HW1  302   3.008   0.293   2.272  1.0379  0.8354  0.9835
  101SOL    HW2  303   3.056   0.444   2.313 -1.4748 -1.7060  2.8118
  102SOL     OW  304   0.557   0.674   1.556  0.2928 -0.9136  0.0817
  102SOL    HW1  305   0.481   0.632   1.610  2.1905  0.3559  1.2916
  102SOL    HW2  306   0.520   0.768   1.518 -1.1017  2.3157 -2.7201
  103SOL     OW  307   1.064   0.492   2.804  0.1447  0.1711 -0.0833
  103SOL    HW1  308   1.093   0.477   2.705  1.1221  0.9678 -0.4112
  103SOL    HW2  309   1.033   0.592   2.815 -1.7585  2.9273  0.9501
  104SOL     OW  310   0.399   0.532   2.076 -0.2345 -1.0230 -0.5356
  104SOL    HW1  311   0.420   0.625   2.037 -0.0288 -0.4671 -0.9895
  104SOL    HW2  312   0.336   0.545   2.157  0.0276  0.0409  0.3079
  105SOL     OW  313   2.547   2.071   1.307  0.1187 -0.1912  0.0397
  105SOL    HW1  314   2.516   2.143   1.369  0.5548  0.4728 -1.5481
  105SOL    HW2  315   2.501   2.078   1.215  0.2571  1.5811  1.7907
  106SOL     OW  316   1.567   0.119   0.432  0.2716 -0.3342  0.4694
  106SOL    HW1  317   1.644   0.160   0.379 -0.2134  1.5136 -1.7557
  106SOL    HW2  318   1.477   0.163   0.416  0.4844 -2.1391 -1.2554
  107SOL     OW  319   1.995   2.162   0.870 -0.3979 -0.0589 -0.1657
  107SOL    HW1  320   1.911   2.133   0.917  3.5170 -0.3062 -1.3036
  107SOL    HW2  321   1.994   2.259   0.858 -2.8600 -1.8826  0.5017
  108SOL     OW  322   0.188   2.295   1.389  0.3711  0.8997 -0.1707
  108SOL    HW1  323   0.092   2.274   1.416 -0.6364  1.5957 -1.4170
  108SOL    HW2  324   0.184   2.311   1.287 -2.6092  1.9988 -0.6406
  109SOL     OW  325   2.050   2.619   0.787  0.3281  0.0669  0.1089
  109SOL    HW1  326   1.975   2.690   0.795  0.0823  1.6360  0.0792
  109SOL    HW2  327   2.031   2.537   0.849 -0.8901 -1.6122  0.4615
  110SOL     OW  328   1.198   1.805   1.847  0.7721  0.2927 -0.0005
  110SOL    HW1  329   1.159   1.723   1.804  3.2484  0.0851  1.2923
  110SOL    HW2  330   1.197   1.886   1.784  0.8447 -0.6822  0.0130
  111SOL     OW  331   1.850   2.371   1.916  0.5706 -0.1208  0.6936
  111SOL    HW1  332   1.825   2.331   1.825 -0.4574 -3.0386 -2.3224
  111SOL    HW2  333   1.893   2.462   1.908  0.2168  0.7921 -0.6725
  112SOL     OW  334   1.603   2.115   3.024 -0.1525 -0.0254 -0.1447
  112SOL    HW1  335   1.510   2.154   3.026 -1.8213  1.7185  1.1906
  112SOL    HW2  336   1.635   2.078   0.022  0.9841 -0.8397  0.6142
  113SOL     OW  337   1.904   1.872   1.643  0.3276  0.0443 -0.1926
  113SOL    HW1  338   1.943   1.783   1.625 -4.2334  2.0980 -0.2239
  113SOL    HW2  339   1.801   1.865   1.651 -2.1337  0.0507 -2.0446
  114SOL     OW  340   0.106   1.355   1.491  0.2324  0.4439  0.1920
  114SOL    HW1  341   0.127   1.329   1.395  0.1673 -0.4376  3.2282
  114SOL    HW2  342   0.006   1.357   1.503 -2.1591 -0.0480  0.3094
  115SOL     OW  343   0.747   0.712   0.323  0.1725 -0.2900 -0.3401
  115SOL    HW1  344   0.745   0.634   0.383 -0.1205  1.9163 -1.5801
  115SOL    HW2  345   0.653   0.747   0.313  1.1820 -0.8290 -0.5569
  116SOL     OW  346   2.519   1.493   2.421 -0.2394  0.2875  0.0365
  116SOL    HW1  347   2.452   1.438   2.370  1.9052 -1.0629 -2.3838
  116SOL    HW2  348   2.547   1.456   2.513 -2.1677 -2.6267  0.3095
  117SOL     OW  349   2.691   2.501   0.263  0.3489  0.1422 -0.1948
  117SOL    HW1  350   2.653   2.591   0.297  0.7978  3.8638  0.2165
  117SOL    HW2  351   2.748   2.465   0.339 -2.1474  0.6544 -1.7584
  118SOL     OW  352   0.397   1.949   2.627 -0.0695  0.0440  0.4249
  118SOL    HW1  353   0.436   2.039   2.594 -0.6952 -0.7196 -0.4915
  118SOL    HW2  354   0.296   1.935   2.616  2.0994 -3.9772 -1.8187
  119SOL     OW  355   0.769   2.335   0.631 -0.0329  0.4215  0.0016
  119SOL    HW1  356   0.683   2.280   0.641  1.2773 -1.8558  0.8167
  119SOL    HW2  357   0.845   2.276   0.664  0.5176  1.3308  1.3286
  120SOL     OW  358   1.556   0.399   0.257 -0.7121  0.3373 -0.0104
  120SOL    HW1  359   1.631   0.328   0.239  1.8146  1.4389  1.5485
  120SOL    HW2  360   1.531   0.450   0.177  0.4964  0.5633  0.9292
  121SOL     OW  361   1.149   2.296   0.865 -0.2129  0.3324  0.2001
  121SOL    HW1  362   1.062   2.243   0.887 -4.0684 -2.6614  0.0066
  121SOL    HW2  363   1.157   2.303   0.761 -1.8769 -0.5888  0.8184
  122SOL     OW  364   2.785   2.275   1.875 -0.3151 -0.0086  0.1066
  122SOL    HW1  365   2.819   2.317   1.957 -1.9806 -1.0555  0.6457
  122SOL    HW2  366   2.836   2.189   1.858 -1.4166  1.5479 -2.2417
  123SOL     OW  367   0.831   1.807   0.763  0.5030 -0.1139  0.1032
  123SOL    HW1  368   0.834   1.790   0.867  2.9478 -1.5599  0.7937
  123SOL    HW2  369   0.732   1.813   0.738 -2.0929 -1.5594 -0.1983
  124SOL     OW  370   0.163   0.617   0.240 -0.2479 -0.7751 -0.3021
  124SOL    HW1  371   0.065   0.638   0.262 -1.1671  0.5846  0.2831
  124SOL    HW2  372   0.174   0.526   0.196  1.0240 -0.1629 -2.6155
  125SOL     OW  373   0.437   0.321   0.038 -0.1999  0.4587 -0.6347
  125SOL    HW1  374   0.337   0.333   0.055 -1.1923  1.5098  2.3825
  125SOL    HW2  375   0.492   0.338   0.121 -1.3576 -1.4809  0.7147
  126SOL     OW  376   2.959   1.673   0.416 -0.2067  0.1896 -0.6722
  126SOL    HW1  377   3.029   1.748   0.401  1.6505  4.6166 -1.1195
  126SOL    HW2  378   2.885   1.709   0.476  2.3880  2.0626 -2.2280
  127SOL     OW  379   1.249   2.571   1.663 -0.0527 -0.0783  0.5827
  127SOL    HW1  380   1.187   2.503   1.613 -3.9291 -1.6189 -1.9638
  127SOL    HW2  381   1.290   2.522   1.746 -3.4904 -1.8177  2.9860
  128SOL     OW  382   1.184   1.425   0.374 -0.0881  0.4093 -0.0736
  128SOL    HW1  383   1.216   1.477   0.295 -0.0497 -2.3046  3.0455
  128SOL    HW2  384   1.194   1.324   0.363  0.1176  1.5578  0.4161
  129SOL     OW  385   1.802   2.190   1.254 -0.2199 -0.0881 -0.6789
  129SOL    HW1  386   1.794   2.129   1.171 -0.1919  0.5962  1.0752
  129SOL    HW2  387   1.713   2.237   1.270 -1.6268  1.4920 -0.9553
  130SOL     OW  388   1.993   2.047   1.433  0.6966 -0.2421  0.2691
  130SOL    HW1  389   1.961   1.984   1.510  1.5047  0.8744 -1.4765
  130SOL    HW2  390   1.915   2.090   1.387  0.1304  1.5524 -2.7283
  131SOL     OW  391   2.771   2.704   2.443  0.1465  0.2274 -0.4255
  131SOL    HW1  392   2.729   2.739   2.533 -0.8144 -0.8535  3.7991
  131SOL    HW2  393   2.870   2.689   2.453  0.5327  1.5510  0.7210
  132SOL     OW  394   2.841   2.093   0.379  0.0839  0.1150 -0.1272
  132SOL    HW1  395   2.929   2.079   0.428 -0.6859  0.8073 -2.2136
  132SOL    HW2  396   2.789   2.166   0.428  0.2397  0.4769 -0.6057
  133SOL     OW  397   0.535   0.308   1.759  0.0063  0.6016 -0.5835
  133SOL    HW1  398   0.581   0.348   1.840  0.1174  1.0443  0.5139
  133SOL    HW2  399   0.608   0.294   1.691  1.7575  3.7410 -0.5788
  134SOL     OW  400   2.689   1.912   0.255  0.3258 -0.2427 -0.7005
  134SOL    HW1  401   2.762   1.972   0.298  1.1154  1.1316 -0.1095
  134SOL    HW2  402   2.620   1.974   0.204 -0.9726  2.5966 -2.7413
  135SOL     OW  403   1.607   1.311   2.681  0.5001  0.0668  0.2091
  135SOL    HW1  404   1.705   1.292   2.663 -1.6540 -2.0150 -0.1440
  135SOL    HW2  405   1.550   1.228   2.669 -2.1505 -0.7552 -1.5891
  136SOL     OW  406   2.498   1.802   1.009  0.1045  0.4353  0.6574
  136SOL    HW1  407   2.441   1.818   0.927 -1.4659 -0.0787 -1.1461
  136SOL    HW2  408   2.548   1.716   0.991  1.0902  0.2252 -0.5308
  137SOL     OW  409   2.802   1.521   0.782 -0.1887  0.1730 -0.2303
  137SOL    HW1  410   2.761   1.438   0.736  1.2982 -1.2620  1.7661
  137SOL    HW2  411   2.800   1.612   0.730  0.3089 -1.5307 -0.6009
  138SOL     OW  412   2.898   0.248   0.799  0.0118  0.3563  0.1221
  138SOL    HW1  413   2.877   0.160   0.845  1.7048 -0.0397 -2.2765
  138SOL    HW2  414   2.877   0.326   0.862  2.5648 -1.6516  1.5571
  139SOL     OW  415   0.145   2.646   2.854  0.2726 -0.5384  0.1254
  139SOL    HW1  416   0.169   2.549   2.885  1.0043  0.3054  0.0341
  139SOL    HW2  417   0.193   2.666   2.765  2.9156 -4.1721  1.8672
  140SOL     OW  418   0.820   1.828   1.753  0.2546 -0.0854 -0.5733
  140SOL    HW1  419   0.851   1.800   1.844  1.9876 -3.2995 -0.6865
  140SOL    HW2  420   0.856   1.922   1.736  0.6210  1.2025 -2.2776
  141SOL     OW  421   1.466   1.773   0.661 -0.1764  0.1274 -0.2167
  141SOL    HW1  422   1.388   1.707   0.652 -0.3199  2.3791  2.1242
  141SOL    HW2  423   1.514   1.759   0.747  1.8470  2.2169 -2.2309
  142SOL     OW  424   1.092   0.752   0.897  0.1426 -0.1736  0.2096
  142SOL    HW1  425   1.059   0.738   0.805 -0.3611 -0.0173  3.5355
  142SOL    HW2  426   1.065   0.844   0.934  0.3899 -0.4421  1.1375
  143SOL     OW  427   0.646   1.196   2.735  0.4233  0.0472 -0.1940
  143SOL    HW1  428   0.737   1.167   2.774 -1.5040 -3.5127  1.0228
  143SOL    HW2  429   0.646   1.196   2.635 -0.3973  0.8096 -0.9777
  144SOL     OW  430   2.178   2.883   1.004  0.2011  0.4907  0.1562
  144SOL    HW1  431   2.089   2.914   0.978  3.0122  0.1500 -0.6519
  144SOL    HW2  432   2.182   2.878   1.107 -0.7969 -1.3047 -0.2174
  145SOL     OW  433   2.379   0.603   2.635 -0.0013  0.1448 -0.0206
  145SOL    HW1  434   2.408   0.613   2.736 -0.9549 -0.5352  1.7223
  145SOL    HW2  435   2.450   0.553   2.580  0.7767 -0.8486  0.3646
  146SOL     OW  436   2.890   2.683   0.732 -0.0813 -0.4254  0.4918
  146SOL    HW1  437   2.805   2.631   0.708 -2.5050  2.3956  0.0651
  146SOL    HW2  438   2.925   2.716   0.645 -0.5348  1.9389  0.0006
  147SOL     OW  439   1.208   0.969   2.672  0.5568  0.3553  0.3956
  147SOL    HW1  440   1.154   1.022   2.608 -0.9768 -1.3753  0.3739
  147SOL    HW2  441   1.226   0.871   2.644  0.3433  0.0723 -1.1911
  148SOL     OW  442   1.362   0.394   2.388 -0.2964  0.0114  0.1294
  148SOL    HW1  443   1.387   0.443   2.297  1.2932  1.5169 -4.5725
  148SOL    HW2  444   1.371   0.292   2.382  4.5791 -1.9836 -2.1489
  149SOL     OW  445   2.056   0.122   2.149 -0.1314  0.3678 -0.8129
  149SOL    HW1  446   2.129   0.053   2.128 -0.4009  2.5524  2.1630
  149SOL    HW2  447   1.971   0.080   2.190  0.1537  1.8161  2.2290
  150SOL     OW  448   2.298   2.601   2.950  0.1785  0.5704  0.2596
  150SOL    HW1  449   2.250   2.665   3.009  1.4475 -0.4510 -1.4890
  150SOL    HW2  450   2.391   2.584   2.987  1.0296  1.4713 -2.0755
  151SOL     OW  451   0.430   1.496   3.060  0.3740 -0.1907  0.3025
  151SOL    HW1  452   0.504   1.505   0.036  0.3992 -0.0944  0.8744
  151SOL    HW2  453   0.467   1.483   2.968 -1.6143 -1.0643  0.1151
  152SOL     OW  454   0.169   0.192   1.535 -0.1530  0.1012  0.2442
  152SOL    HW1  455   0.230   0.188   1.621  1.5134  0.8484  0.9181
  152SOL    HW2  456   0.220   0.239   1.460  0.2076  0.0875  0.4549
  153SOL     OW  457   2.284   2.888   1.656  0.3406 -0.5859 -0.1048
  153SOL    HW1  458   2.183   2.878   1.674  3.6085 -0.7777 -1.5793
  153SOL    HW2  459   2.304   2.943   1.573 -0.7679  3.3315 -0.7916
  154SOL     OW  460   2.067   0.411   2.413  0.0810 -0.1571 -0.3942
  154SOL    HW1  461   2.091   0.440   2.513  1.1202  1.5826  1.8593
  154SOL    HW2  462   2.147   0.363   2.374 -2.2017  0.5392  1.5516
  155SOL     OW  463   0.010   1.446   0.362  1.0630  0.5030 -0.1403
  155SOL    HW1  464   0.102   1.481   0.342 -2.5573 -0.6898 -0.0793
  155SOL    HW2  465   3.044   1.519   0.397 -1.4671  3.0020 -1.2600
  156SOL     OW  466   2.906   1.557   0.015  0.4754 -0.0088 -0.0987
  156SOL    HW1  467   2.870   1.616   3.029 -1.1567  4.1145 -1.1580
  156SOL    HW2  468   2.821   1.527   0.069 -0.7737  2.2175  0.0414
  157SOL     OW  469   0.699   0.235   0.670 -0.1819 -0.3402 -0.3290
  157SOL    HW1  470   0.618   0.179   0.639  1.5629 -0.4049  0.2848
  157SOL    HW2  471   0.782   0.180   0.664 -2.2137 -0.3493 -0.1449
  158SOL     OW  472   2.033   0.957   1.292  0.0426 -0.1929  0.2018
  158SOL    HW1  473   2.055   0.967   1.391 -1.2003 -0.5160  2.7654
  158SOL    HW2  474   2.008   1.049   1.256  0.0983 -1.4762 -0.8879
  159SOL     OW  475   0.158   0.088   0.632  0.5570 -0.1063 -0.0787
  159SOL    HW1  476   0.137   0.183   0.665 -1.9487  1.0473 -1.2987
  159SOL    HW2  477   0.155   0.088   0.526 -0.9848  0.5271  2.9823
  160SOL     OW  478   2.206   2.194   1.503 -0.6551  0.0976  0.5083
  160SOL    HW1  479   2.242   2.156   1.593 -0.0835 -2.3953  1.2447
  160SOL    HW2  480   2.121   2.144   1.477 -0.7594  0.4118  1.1413
  161SOL     OW  481   3.017   0.801   2.753  0.2649  0.2128  0.6402
  161SOL    HW1  482   3.070   0.754   2.679 -0.6901 -1.1999  1.3810
  161SOL    HW2  483   3.076   0.868   2.797  0.0079 -0.4311 -1.2733
  162SOL     OW  484   0.699   2.992   1.665 -0.1208  0.1461  0.3368
  162SOL    HW1  485   0.603   3.013   1.665  2.6272 -3.4193  0.4497
  162SOL    HW2  486   0.745   3.041   1.589 -3.7367  0.3431 -0.5489
  163SOL     OW  487   2.836   0.230   2.444 -0.4291  0.1187  0.2615
  163SOL    HW1  488   2.847   0.131   2.444 -0.9750  1.5136  1.4590
  163SOL    HW2  489   2.927   0.272   2.434  1.5112 -0.6578 -1.1062
  164SOL     OW  490   2.069   1.833   0.305  0.2216 -0.7191  0.1302
  164SOL    HW1  491   2.002   1.911   0.293  0.5014  1.6762 -1.2818
  164SOL    HW2  492   2.123   1.820   0.219 -1.1695  0.7982  1.4536
  165SOL     OW  493   0.127   0.480   1.572  0.2451 -0.2626  0.4784
  165SOL    HW1  494   0.085   0.477   1.665 -1.8185  0.6107 -1.2810
  165SOL    HW2  495   0.131   0.385   1.535 -2.2861 -1.6318  0.5135
  166SOL     OW  496   1.987   0.859   0.382  0.4282 -0.4415  0.2989
  166SOL    HW1  497   1.965   0.960   0.394 -0.9113  0.3252  2.8297
  166SOL    HW2  498   2.006   0.817   0.469  0.9566 -0.1183 -0.4085
  167SOL     OW  499   2.398   0.879   2.788  0.0633 -0.3652  0.3839
  167SOL    HW1  500   2.312   0.901   2.838  0.6988 -1.2814  1.6072
  167SOL    HW2  501   2.437   0.792   2.811  1.7649  2.4531 -2.2473
  168SOL     OW  502   1.925   0.349   3.044  0.3365  0.0330 -0.2893
  168SOL    HW1  503   1.943   0.366   0.050 -0.3339 -0.4764 -1.1236
  168SOL    HW2  504   1.837   0.382   3.009  1.1348  1.8424  0.0620
  169SOL     OW  505   0.176   1.799   0.769  0.2328  0.1143 -0.1476
  169SOL    HW1  506   0.155   1.781   0.864 -1.3834  0.3792  1.5712
  169SOL    HW2  507   0.093   1.771   0.713  1.0970  2.5648  0.5987
  170SOL     OW  508   2.908   1.144   0.895 -0.0567  0.0138  0.1102
  170SOL    HW1  509   2.806   1.153   0.888 -1.0515 -0.2875 -2.4115
  170SOL    HW2  510   2.941   1.102   0.809 -0.2960  2.5347  0.0779
  171SOL     OW  511   2.485   1.729   2.018  0.1296 -0.4661 -0.2655
  171SOL    HW1  512   2.430   1.755   1.935  0.6419 -0.4387 -0.3365
  171SOL    HW2  513   2.442   1.767   2.108 -0.3432  0.5712  2.5278
  172SOL     OW  514   0.552   1.852   1.667 -0.1940  0.0856 -0.0155
  172SOL    HW1  515   0.544   1.947   1.632  0.4898 -0.8038  0.8409
  172SOL    HW2  516   0.649   1.824   1.685 -1.8996  0.6882  1.3562
  173SOL     OW  517   1.748   1.545   2.868 -0.3900  0.2175 -0.2625
  173SOL    HW1  518   1.657   1.531   2.826  0.4192 -1.1903  0.2558
  173SOL    HW2  519   1.771   1.640   2.892 -0.8537 -0.6925  2.1119
  174SOL     OW  520   1.417   0.675   2.810  0.3763  0.1279  0.0179
  174SOL    HW1  521   1.455   0.577   2.826  1.1148 -2.5359 -0.1700
  174SOL    HW2  522   1.345   0.674   2.736 -1.6059 -2.7811 -0.4757
  175SOL     OW  523   1.209   1.473   1.298 -0.7098  0.1098 -0.3894
  175SOL    HW1  524   1.173   1.518   1.381 -0.5475  1.3694 -0.3330
  175SOL    HW2  525   1.142   1.409   1.259  1.3366  0.1276  1.0773
  176SOL     OW  526   1.352   0.292   0.413  0.1997 -0.2936 -0.2501
  176SOL    HW1  527   1.266   0.326   0.373 -0.1165  1.1488 -0.5890
  176SOL    HW2  528   1.431   0.348   0.373 -2.2966  5.6642 -1.3154
  177SOL     OW  529   0.521   0.880   0.331  0.3212  0.2133 -0.0353
  177SOL    HW1  530   0.535   0.898   0.232 -0.7205 -1.1472  0.6055
  177SOL    HW2  531   0.554   0.956   0.390 -0.0975  0.7892 -1.6799
  178SOL     OW  532   2.671   2.115   2.254 -0.2422  0.0924 -0.7655
  178SOL    HW1  533   2.719   2.186   2.311  1.8727  1.0643 -0.6615
  178SOL    HW2  534   2.632   2.034   2.303  1.1025  1.0236 -1.4103
  179SOL     OW  535   2.840   3.069   2.520  0.1938  0.5673  0.4014
  179SOL    HW1  536   2.779   3.019   2.581  1.0348  0.2044 -1.0030
  179SOL    HW2  537   2.847   3.019   2.428  1.6034 -1.7109  0.0281
  180SOL     OW  538   2.159   0.433   1.258  0.3418 -0.1239  0.5982
  180SOL    HW1  539   2.130   0.393   1.172  1.6033  3.1796  2.5031
  180SOL    HW2  540   2.192   0.526   1.240  0.0295 -1.3053 -0.1821
  181SOL     OW  541   2.250   0.813   2.503  0.5122  0.0160 -0.6959
  181SOL    HW1  542   2.296   0.729   2.540  1.5186 -1.3037 -1.1434
  181SOL    HW2  543   2.268   0.888   2.570  3.4812  0.4583  0.2173
  182SOL     OW  544   2.887   2.349   2.108  0.1019 -0.3302  0.8433
  182SOL    HW1  545   2.971   2.287   2.112 -1.0373  0.2451  2.8555
  182SOL    HW2  546   2.850   2.372   2.200 -0.7155  1.2739  0.5713
  183SOL     OW  547   1.929   0.597   1.704 -0.1074  0.1821  0.1972
  183SOL    HW1  548   1.992   0.549   1.636  3.8221 -0.6765  1.5748
  183SOL    HW2  549   1.855   0.652   1.655 -1.6182  0.6689 -0.5278
  184SOL     OW  550   0.214   1.673   1.011  0.1288  0.5409  0.2787
  184SOL    HW1  551   0.190   1.575   1.010  1.1631  0.1009  1.4733
  184SOL    HW2  552   0.217   1.708   1.104  0.1832 -2.3117  1.4596
  185SOL     OW  553   2.799   0.080   0.992  0.1083 -0.4222  0.4589
  185SOL    HW1  554   2.703   0.048   1.003  0.4826  1.2548 -1.9902
  185SOL    HW2  555   2.859   0.064   1.077  1.9210 -1.6531  1.1152
  186SOL     OW  556   2.209   2.426   2.571  0.2423 -0.4469  0.2147
  186SOL    HW1  557   2.287   2.471   2.606 -4.1164 -0.5554 -1.2948
  186SOL    HW2  558   2.128   2.418   2.638 -0.8612  1.6029 -0.5132
  187SOL     OW  559   0.345   1.443   0.512 -0.0988  0.4174 -0.1573
  187SOL    HW1  560   0.294   1.354   0.516 -0.3415  2.2634  0.5572
  187SOL    HW2  561   0.329   1.498   0.599  0.3658  2.0597 -0.3187
  188SOL     OW  562   1.968   1.216   1.177  0.3905 -0.3992  0.0268
  188SOL    HW1  563   2.042   1.284   1.160  1.9149  0.7018  0.1617
  188SOL    HW2  564   1.876   1.260   1.185  1.0181 -2.0750  1.0583
  189SOL     OW  565   0.197   0.831   2.464 -0.1335 -0.2299  0.2513
  189SOL    HW1  566   0.216   0.908   2.531  1.7669  2.0914  4.4911
  189SOL    HW2  567   0.137   0.757   2.502 -0.5902  0.4669 -0.1330
  190SOL     OW  568   2.075   0.576   1.921  0.0734  0.2587  0.5313
  190SOL    HW1  569   2.011   0.590   1.838  0.4304 -1.4366 -1.1570
  190SOL    HW2  570   2.053   0.487   1.965 -0.7824  3.5833 -1.5789
  191SOL     OW  571   1.010   0.232   2.279  0.3215 -0.0239  0.6033
  191SOL    HW1  572   0.929   0.250   2.338  2.7768  0.2817 -1.7722
  191SOL    HW2  573   1.031   0.132   2.282 -1.1399 -1.0910 -0.5640
  192SOL     OW  574   1.168   2.026   1.695 -0.1684  0.6193 -0.8204
  192SOL    HW1  575   1.185   2.027   1.594  1.2517  0.6577 -3.7470
  192SOL    HW2  576   1.079   2.073   1.707  0.2934  1.4196  1.0537
  193SOL     OW  577   1.311   0.114   0.859  0.0666  0.2273 -0.1537
  193SOL    HW1  578   1.258   0.026   0.843 -0.7430  0.8220 -1.6405
  193SOL    HW2  579   1.280   0.184   0.794  0.6949 -1.2025  1.5121
  194SOL     OW  580   0.917   2.108   1.727  0.3833 -0.3594 -0.4439
  194SOL    HW1  581   0.898   2.180   1.658  2.5289 -1.4698  1.1503
  194SOL    HW2  582   0.875   2.134   1.817  0.9815  0.3194  2.3344
  195SOL     OW  583   1.545   0.568   0.701 -0.3079  0.3708  0.4577
  195SOL    HW1  584   1.560   0.512   0.785  1.5805 -1.2936 -0.7819
  195SOL    HW2  585   1.491   0.650   0.723 -0.2822 -2.4434 -1.3979
  196SOL     OW  586   0.926   1.506   2.304 -0.1935  0.1848 -0.2013
  196SOL    HW1  587   1.000   1.574   2.325 -0.2513 -1.4038  1.5219
  196SOL    HW2  588   0.950   1.441   2.227  0.6492  0.2103 -2.2227
  197SOL     OW  589   0.673   0.672   1.806 -0.1092 -0.1770  0.1399
  197SOL    HW1  590   0.768   0.706   1.796 -2.4912 -1.1127 -0.5467
  197SOL    HW2  591   0.629   0.674   1.714 -2.0686  0.9766 -1.6575
  198SOL     OW  592   0.724   0.608   0.927 -0.4192  0.2727 -0.0704
  198SOL    HW1  593   0.740   0.698   0.887 -0.3671 -0.4379  1.3486
  198SOL    HW2  594   0.670   0.556   0.854 -0.2001  0.2812 -1.1191
  199SOL     OW  595   0.302   2.618   1.903  0.2653 -0.0397 -0.3188
  199SOL    HW1  596   0.259   2.543   1.854  1.6095  1.8731 -1.1338
  199SOL    HW2  597   0.236   2.686   1.944 -1.7225  1.9087  2.2481
  200SOL     OW  598   1.722   1.363   2.290 -0.2490 -0.3942  0.3076
  200SOL    HW1  599   1.767   1.405   2.372  2.3633  2.3813  2.6502
  200SOL    HW2  600   1.685   1.269   2.310  3.2431 -2.3254 -1.3669
  201SOL     OW  601   0.729   2.210   1.891  0.1723 -0.3336  0.4572
  201SOL    HW1  602   0.711   2.264   1.804  0.0737  1.9774 -1.6358
  201SOL    HW2  603   0.656   2.137   1.906  0.0138 -3.0793  1.4034
  202SOL     OW  604   1.206   2.821   3.070 -0.8222  0.2163  0.3238
  202SOL    HW1  605   1.165   2.851   2.987  0.7646  0.5241  1.0509
  202SOL    HW2  606   1.143   2.840   0.054  0.6559 -2.9837  0.6727
  203SOL     OW  607   1.608   0.177   2.450 -0.0718  0.1500  0.3552
  203SOL    HW1  608   1.572   0.090   2.407 -0.0026  0.0142  0.2136
  203SOL    HW2  609   1.709   0.198   2.425  2.1144  1.5413  1.8977
  204SOL     OW  610   0.671   1.553   2.122 -0.3897 -0.3673  0.0474
  204SOL    HW1  611   0.683   1.547   2.225  2.5218  1.2713  0.2707
  204SOL    HW2  612   0.657   1.462   2.074  0.4844 -0.8813 -0.4704
  205SOL     OW  613   2.068   1.068   2.534 -0.2281  0.3920 -0.0509
  205SOL    HW1  614   2.054   1.025   2.444  2.6327  1.8421  0.0911
  205SOL    HW2  615   2.162   1.099   2.546 -1.8869 -2.6954 -0.8283
  206SOL     OW  616   3.032   1.673   2.553 -0.2530  0.1256  0.1439
  206SOL    HW1  617   2.978   1.752   2.515 -1.7777  0.8081  0.5938
  206SOL    HW2  618   3.040   1.680   2.655  0.7026 -1.0466  1.1227
  207SOL     OW  619   1.072   2.941   1.771  0.0482  0.5463  0.0622
  207SOL    HW1  620   0.981   2.934   1.818  2.1066  1.4754 -0.5099
  207SOL    HW2  621   1.103   3.038   1.774 -0.6588 -0.3803 -1.7518
  208SOL     OW  622   0.632   2.464   1.440 -0.1825  0.0917 -0.6292
  208SOL    HW1  623   0.588   2.559   1.450  0.4585  0.0158 -0.5617
  208SOL    HW2  624   0.620   2.420   1.348  0.2170  1.6033 -0.4916
  209SOL     OW  625   1.341   2.904   0.440 -0.5101 -0.1159  0.8739
  209SOL    HW1  626   1.243   2.910   0.419  2.3498  2.2290 -3.1474
  209SOL    HW2  627   1.399   2.943   0.366  0.3993 -0.2422 -0.3195
  210SOL     OW  628   2.943   1.585   1.142  0.4018  0.0532 -0.7405
  210SOL    HW1  629   2.977   1.669   1.088 -0.5876  2.2489 -2.3351
  210SOL    HW2  630   2.985   1.504   1.102 -0.3603 -0.1793  0.0245
  211SOL     OW  631   0.863   0.846   2.052 -0.2405  0.2656  0.1577
  211SOL    HW1  632   0.876   0.820   1.956  0.6027  0.5865  1.0456
  211SOL    HW2  633   0.818   0.767   2.098 -0.7452 -0.0648  0.6491
  212SOL     OW  634   1.382   2.245   1.521  0.2415 -0.3167 -0.6217
  212SOL    HW1  635   1.399   2.328   1.457  1.3157  2.6879 -1.9582
  212SOL    HW2  636   1.438   2.170   1.499 -1.0540  0.4277  0.4218
  213SOL     OW  637   2.713   0.378   1.687 -0.5305  0.3625  0.0370
  213SOL    HW1  638   2.713   0.458   1.620  0.6902 -0.8368 -2.3125
  213SOL    HW2  639   2.667   0.300   1.644  0.4825  1.2864  2.0075
  214SOL     OW  640   1.034   2.455   1.950 -0.1812  0.0103 -0.1331
  214SOL    HW1  641   1.076   2.366   1.929 -0.0810  0.9174 -0.6441
  214SOL    HW2  642   1.093   2.531   1.983 -5.3734  0.2001  0.0374
  215SOL     OW  643   2.786   1.912   1.369  0.1524  0.4610 -0.4610
  215SOL    HW1  644   2.706   1.970   1.356 -0.2229  1.4715  1.3736
  215SOL    HW2  645   2.840   1.946   1.448 -0.6015  2.3133  0.6663
  216SOL     OW  646   0.163   0.997   1.730  0.9175  0.2531 -0.2699
  216SOL    HW1  647   0.076   0.985   1.681  3.9768  0.6284 -1.8177
  216SOL    HW2  648   0.196   0.913   1.777 -1.1933 -1.1852 -0.1777
  217SOL     OW  649   2.790   0.329   1.355  0.0850  0.1315 -0.6130
  217SOL    HW1  650   2.840   0.299   1.439  1.6008  1.8254 -0.7698
  217SOL    HW2  651   2.849   0.396   1.304  0.0765  1.1526  0.8596
  218SOL     OW  652   1.255   2.156   1.071  0.1279  0.4154 -0.2075
  218SOL    HW1  653   1.243   2.226   0.998 -0.6024  0.3912 -2.5864
  218SOL    HW2  654   1.171   2.149   1.131  1.3716 -1.0440  0.9079
  219SOL     OW  655   1.386   2.404   0.326 -0.1902 -0.7288 -0.0344
  219SOL    HW1  656   1.417   2.490   0.375  0.2356  1.2287 -2.1911
  219SOL    HW2  657   1.439   2.319   0.348  1.1727 -2.7598 -0.6070
  220SOL     OW  658   1.859   2.443   0.413 -0.2736 -0.0428  0.5773
  220SOL    HW1  659   1.828   2.348   0.434  1.1132 -1.5992 -0.2432
  220SOL    HW2  660   1.874   2.464   0.315  0.6765  0.2731 -2.1163
  221SOL     OW  661   2.934   1.872   0.758  0.1215 -0.1013  0.2906
  221SOL    HW1  662   2.840   1.891   0.735  1.2792 -1.1104  0.1002
  221SOL    HW2  663   2.969   1.796   0.700 -0.3898  1.3548 -0.4800
  222SOL     OW  664   0.907   2.086   0.713 -0.7603 -0.4265 -0.0727
  222SOL    HW1  665   0.917   2.121   0.808  1.6687 -0.5148  0.2838
  222SOL    HW2  666   0.894   1.986   0.719 -1.1617  1.2398 -0.7080
  223SOL     OW  667   1.187   2.698   2.355 -0.4229 -0.1920  0.0443
  223SOL    HW1  668   1.287   2.697   2.372 -3.3166 -0.8257  0.0268
  223SOL    HW2  669   1.173   2.752   2.272  1.3450  0.2559 -0.0590
  224SOL     OW  670   2.523   1.053   0.999 -0.7467  0.0510  0.6902
  224SOL    HW1  671   2.577   1.066   0.913 -1.0820  1.9782  2.1887
  224SOL    HW2  672   2.444   0.998   0.977  2.8102  1.0091  0.1600
  225SOL     OW  673   2.632   1.561   0.996 -0.4464  0.6096 -0.0051
  225SOL    HW1  674   2.700   1.546   0.915  1.0833  0.3719  1.3278
  225SOL    HW2  675   2.676   1.547   1.085 -1.3984 -1.5408  0.5852
  226SOL     OW  676   1.183   2.764   0.662  0.2178  0.1846  0.0810
  226SOL    HW1  677   1.096   2.711   0.674 -0.1339 -0.3243  2.5255
  226SOL    HW2  678   1.268   2.708   0.683 -1.9902  0.6742 -0.4296
  227SOL     OW  679   0.992   1.331   1.248 -0.2712  0.3597 -0.1452
  227SOL    HW1  680   0.996   1.250   1.309  1.7226  3.1404  0.2958
  227SOL    HW2  681   0.968   1.296   1.154  1.1239 -0.9500  1.6332
  228SOL     OW  682   1.432   0.459   2.119  0.0036 -0.1970  0.0941
  228SOL    HW1  683   1.441   0.537   2.059 -1.0022  1.2657  0.0623
  228SOL    HW2  684   1.361   0.393   2.090 -2.6596 -2.4519  2.5758
  229SOL     OW  685   2.765   0.752   2.648 -0.1096 -0.2466  0.0585
  229SOL    HW1  686   2.829   0.781   2.725 -3.0155  1.9948  1.3065
  229SOL    HW2  687   2.685   0.694   2.673  0.7106 -2.3758  1.4067
  230SOL     OW  688   0.509   1.350   0.799  0.5662 -0.0263 -0.5638
  230SOL    HW1  689   0.564   1.368   0.882  0.0969 -1.5276  1.0280
  230SOL    HW2  690   0.444   1.433   0.790 -1.6164  3.2572 -3.8201
  231SOL     OW  691   2.455   2.894   2.554  0.1611  0.5035  0.1983
  231SOL    HW1  692   2.496   2.908   2.463  0.6464 -0.7066  1.5973
  231SOL    HW2  693   2.509   2.940   2.632  2.2948  0.0977  1.3665
  232SOL     OW  694   0.150   2.165   0.065 -0.3809 -0.0163 -0.0870
  232SOL    HW1  695   0.169   2.131   3.066 -1.7461  1.4397  0.7679
  232SOL    HW2  696   0.240   2.192   0.108 -0.2377 -1.2977  1.7025
  233SOL     OW  697   1.630   2.647   2.601 -0.0077  0.1426 -0.4487
  233SOL    HW1  698   1.648   2.585   2.681 -2.4711  0.0445 -0.3692
  233SOL    HW2  699   1.585   2.730   2.641 -1.7238 -1.2116 -1.3474
  234SOL     OW  700   1.156   1.441   1.970  0.5623  0.1463 -0.3171
  234SOL    HW1  701   1.191   1.482   2.058 -2.5858  2.0091 -1.3389
  234SOL    HW2  702   1.084   1.375   2.003  1.0014  0.1951 -0.6340
  235SOL     OW  703   0.519   2.037   1.912 -0.0247 -0.4353  0.5571
  235SOL    HW1  704   0.514   1.936   1.922 -1.2197  1.1332 -0.9616
  235SOL    HW2  705   0.438   2.074   1.961  1.5027 -1.8175 -1.5361
  236SOL     OW  706   1.792   2.229   2.855 -0.3671  0.5296 -0.1716
  236SOL    HW1  707   1.726   2.175   2.912 -1.2761 -1.2021  1.3076
  236SOL    HW2  708   1.884   2.205   2.887 -0.0460  3.3540  1.4503
  237SOL     OW  709   1.513   0.189   1.057  0.3288  0.3356 -0.1843
  237SOL    HW1  710   1.459   0.194   1.143  0.6393  0.3681  0.2571
  237SOL    HW2  711   1.446   0.174   0.984 -1.6446 -1.6811 -0.6261
  238SOL     OW  712   1.117   0.443   2.528  0.5814 -0.3878  0.0066
  238SOL    HW1  713   1.025   0.412   2.498  1.7002  3.5772 -0.5371
  238SOL    HW2  714   1.193   0.397   2.477  0.8046 -1.1144  0.0881
  239SOL     OW  715   0.827   2.984   1.885  0.6834  0.0367  0.3507
  239SOL    HW1  716   0.773   2.989   1.798 -1.9466  4.2096  1.5147
  239SOL    HW2  717   0.827   3.075   1.925 -0.4432  2.2954  1.4929
  240SOL     OW  718   2.379   2.554   0.502  0.4395  0.2827 -0.3049
  240SOL    HW1  719   2.291   2.515   0.527  4.0632  1.1966 -0.6175
  240SOL    HW2  720   2.365   2.623   0.430 -0.4561 -1.1929 -1.9006
  241SOL     OW  721   1.071   1.593   1.754  0.1083 -0.4986  0.2696
  241SOL    HW1  722   0.980   1.546   1.755 -1.5431  1.5800 -0.3387
  241SOL    HW2  723   1.137   1.536   1.806  2.2257  1.2970 -0.6685
  242SOL     OW  724   0.111   0.492   0.873 -0.5287 -0.0346 -0.0766
  242SOL    HW1  725   0.095   0.590   0.865 -1.7421 -0.8907 -0.3823
  242SOL    HW2  726   0.058   0.443   0.797 -3.3117 -0.2393  1.4473
  243SOL     OW  727   0.677   0.872   1.305 -0.6231 -0.1498 -0.1151
  243SOL    HW1  728   0.711   0.966   1.267 -0.6077  4.5162 -0.7689
  243SOL    HW2  729   0.591   0.897   1.353  0.8437  2.9177  2.0074
  244SOL     OW  730   1.516   0.530   0.025  0.2198  0.5410 -0.1997
  244SOL    HW1  731   1.490   0.477   3.034 -1.9659  0.1458 -1.0073
  244SOL    HW2  732   1.509   0.632   0.009 -2.4062  0.8679  0.4187
  245SOL     OW  733   2.197   0.375   0.299 -0.2603  0.2252  0.4984
  245SOL    HW1  734   2.173   0.276   0.284  1.2521  1.5569  1.3466
  245SOL    HW2  735   2.298   0.387   0.299 -2.0640 -0.7854 -0.3897
  246SOL     OW  736   0.896   0.819   1.793  0.2037 -0.9608 -0.1939
  246SOL    HW1  737   0.866   0.915   1.774 -1.7907  1.4855  0.0266
  246SOL    HW2  738   0.970   0.789   1.732 -0.8616  1.8590 -0.0256
  247SOL     OW  739   0.617   0.084   2.143  0.1344  0.2519 -0.2452
  247SOL    HW1  740   0.553   0.165   2.155 -3.2192  0.9040 -0.7614
  247SOL    HW2  741   0.714   0.112   2.106  1.6055  1.2856 -0.0155
  248SOL     OW  742   0.075   1.502   1.806  0.1576  0.5913 -0.7329
  248SOL    HW1  743   0.027   1.553   1.732 -0.7583  2.1376  0.3323
  248SOL    HW2  744   0.104   1.561   1.886  2.4977 -1.0347 -0.4170
  249SOL     OW  745   0.103   3.021   2.828  0.3756 -0.2582  0.1018
  249SOL    HW1  746   0.192   3.067   2.808 -0.8018 -0.4781  0.8602
  249SOL    HW2  747   0.101   2.935   2.773 -0.9864 -0.8812 -0.2030
  250SOL     OW  748   3.051   0.217   0.075  0.0114  0.3788 -0.0426
  250SOL    HW1  749   2.959   0.216   0.123 -0.2120 -0.5185 -0.2821
  250SOL    HW2  750   3.082   0.123   0.046 -0.5403 -1.7169  1.1365
  251SOL     OW  751   0.375   1.462   1.203 -0.7514 -0.3698 -0.2722
  251SOL    HW1  752   0.297   1.432   1.149  1.3477 -0.7531  3.0833
  251SOL    HW2  753   0.390   1.564   1.197  1.8226 -0.8045 -0.4152
  252SOL     OW  754   1.598   2.918   1.666 -0.2286 -0.2514  0.7883
  252SOL    HW1  755   1.675   2.865   1.625 -1.9490 -0.6130 -1.3134
  252SOL    HW2  756   1.634   2.970   1.750 -0.1016  4.3358  1.3151
  253SOL     OW  757   2.086   1.928   2.543  0.2147  0.0561  0.2082
  253SOL    HW1  758   2.141   2.015   2.533  2.9181  0.9280  0.5029
  253SOL    HW2  759   1.988   1.945   2.506  2.6302 -1.3511  0.9263
  254SOL     OW  760   0.484   1.764   1.993  0.4508  0.5402 -0.2108
  254SOL    HW1  761   0.448   1.719   1.910 -0.2684 -2.4574 -0.7283
  254SOL    HW2  762   0.528   1.697   2.059  1.0211  0.1221 -1.7802
  255SOL     OW  763   1.132   0.092   1.730 -0.1332 -0.0530 -0.1235
  255SOL    HW1  764   1.205   0.102   1.663 -1.9322  0.9798  0.9340
  255SOL    HW2  765   1.057   0.160   1.724  0.6130  0.1389 -0.3291
  256SOL     OW  766   2.483   2.323   0.970 -0.0332 -0.0394  0.2039
  256SOL    HW1  767   2.460   2.231   0.997  3.0990 -0.0211 -1.2928
  256SOL    HW2  768   2.401   2.384   0.965 -1.4615 -2.4308  0.6500
  257SOL     OW  769   0.427   2.224   0.241 -0.0023 -0.1164  0.3895
  257SOL    HW1  770   0.400   2.298   0.179  3.3395 -0.5722  1.8456
  257SOL    HW2  771   0.444   2.262   0.333  0.1424 -1.3235 -2.0021
  258SOL     OW  772   1.046   2.456   2.367 -0.1465 -0.1831  0.0550
  258SOL    HW1  773   0.945   2.478   2.373 -2.9826  3.4377  0.8486
  258SOL    HW2  774   1.099   2.543   2.370  1.8371  0.2015 -0.9466
  259SOL     OW  775   1.096   1.737   2.840  0.5432 -0.3013  0.1622
  259SOL    HW1  776   1.106   1.832   2.871 -3.5416 -0.7940  2.3015
  259SOL    HW2  777   1.004   1.699   2.867  0.6055 -1.2986  0.9487
  260SOL     OW  778   2.508   1.024   2.111 -0.2315 -0.9436  0.1950
  260SOL    HW1  779   2.440   0.987   2.177 -0.7583  0.9149 -0.0078
  260SOL    HW2  780   2.577   1.086   2.159  1.5949 -2.8845 -1.7915
  261SOL     OW  781   1.370   0.773   0.812 -0.2887 -0.5870  0.3737
  261SOL    HW1  782   1.298   0.790   0.879 -1.3947  0.0177 -1.2950
  261SOL    HW2  783   1.344   0.808   0.720 -1.0724 -1.3514  4.4828
  262SOL     OW  784   1.707   2.192   2.442 -0.0108 -0.3375 -0.2133
  262SOL    HW1  785   1.764   2.107   2.449  0.9493 -1.6215  0.2765
  262SOL    HW2  786   1.744   2.264   2.385 -2.0468 -1.1353  1.6014
  263SOL     OW  787   0.054   1.668   0.067  0.2660  0.1164  0.0340
  263SOL    HW1  788   3.060   1.617   0.051 -1.9372 -0.3404  1.6465
  263SOL    HW2  789   0.116   1.613   0.124 -0.0239  0.1983  0.7023
  264SOL     OW  790   0.393   1.989   0.734  0.1619 -0.3389 -0.1901
  264SOL    HW1  791   0.303   1.953   0.706 -0.1495 -1.0906  0.2800
  264SOL    HW2  792   0.397   1.976   0.834  1.8352 -0.2335 -1.4563
  265SOL     OW  793   0.578   1.476   0.388 -0.3790 -0.1482  0.3301
  265SOL    HW1  794   0.489   1.480   0.433  1.3572  0.2200  0.6841
  265SOL    HW2  795   0.646   1.514   0.457  1.5251 -0.2504 -0.3153
  266SOL     OW  796   0.811   2.088   2.546  0.0377 -0.4819 -0.0136
  266SOL    HW1  797   0.861   2.142   2.613 -0.1958 -0.3011 -3.3094
  266SOL    HW2  798   0.711   2.099   2.553  2.0450  2.5030 -0.4460
  267SOL     OW  799   0.944   0.760   2.489  0.0562 -0.3842 -0.5285
  267SOL    HW1  800   0.860   0.751   2.430 -2.9808 -0.5034 -0.1110
  267SOL    HW2  801   1.028   0.771   2.435  1.5054  1.0185  0.0914
  268SOL     OW  802   0.404   0.650   2.661 -0.3344  0.0416 -0.2419
  268SOL    HW1  803   0.468   0.708   2.604 -0.3770  1.3969 -2.5898
  268SOL    HW2  804   0.425   0.648   2.763  2.0794 -2.1582 -0.9540
  269SOL     OW  805   2.171   3.033   2.534 -0.5890 -0.1299  0.3938
  269SOL    HW1  806   2.244   0.007   2.549  2.4708 -2.3011 -1.2267
  269SOL    HW2  807   2.083   3.067   2.561  1.5015  1.1643 -2.9348
  270SOL     OW  808   1.122   1.686   2.380 -0.0649  0.4664 -0.0651
  270SOL    HW1  809   1.080   1.778   2.383  1.8013 -0.7815  1.8665
  270SOL    HW2  810   1.204   1.691   2.443 -0.8766  0.7187 -1.9524
  271SOL     OW  811   0.390   3.072   2.836  0.1067 -0.2216 -0.2578
  271SOL    HW1  812   0.477   3.026   2.812 -1.8720  0.7919 -3.4030
  271SOL    HW2  813   0.359   3.060   2.932  0.9526 -2.4645 -0.7260
  272SOL     OW  814   2.697   0.509   0.525 -0.1082  0.2188  0.0292
  272SOL    HW1  815   2.607   0.459   0.551  1.2712 -2.2481  0.3108
  272SOL    HW2  816   2.706   0.596   0.583 -2.5366  1.5606  1.1697
  273SOL     OW  817   0.189   3.040   1.948  0.8301  0.2926 -0.4656
  273SOL    HW1  818   0.251   2.995   2.017  1.8544 -2.6137  0.8340
  273SOL    HW2  819   0.130   2.968   1.905 -4.3002 -0.6489  0.1238
  274SOL     OW  820   0.082   0.712   1.976  0.5532 -0.4893  0.1145
  274SOL    HW1  821   0.142   0.733   2.057  0.7042  1.8834 -0.1330
  274SOL    HW2  822   0.003   0.774   1.978  1.7495  0.8656 -0.4281
  275SOL     OW  823   1.305   1.523   0.595  0.6736 -0.5228  0.0773
  275SOL    HW1  824   1.398   1.484   0.607 -0.0992 -1.9729 -1.3595
  275SOL    HW2  825   1.251   1.475   0.519 -1.3874  0.2321 -0.7638
  276SOL     OW  826   0.943   1.066   2.174  0.8027  0.1118  0.6567
  276SOL    HW1  827   0.930   0.966   2.149 -0.4526 -0.6648  2.2146
  276SOL    HW2  828   0.905   1.090   2.267  0.1414  2.0859  0.8608
  277SOL     OW  829   1.444   2.440   1.835  0.0297 -0.3019  0.4731
  277SOL    HW1  830   1.441   2.340   1.803 -3.2121 -1.6145  1.2705
  277SOL    HW2  831   1.507   2.449   1.909 -0.4349 -2.0440 -0.5396
  278SOL     OW  832   1.918   2.918   1.939 -0.0906  0.4495 -0.3768
  278SOL    HW1  833   1.879   2.923   2.032 -0.0418  1.0043 -0.8723
  278SOL    HW2  834   2.018   2.943   1.952 -0.6575  1.7327 -1.1784
  279SOL     OW  835   1.747   1.260   0.223  1.0169  0.0415 -0.1725
  279SOL    HW1  836   1.769   1.287   0.126  0.1086 -0.2213 -2.8194
  279SOL    HW2  837   1.645   1.250   0.221 -1.2777  1.4679 -1.6619
  280SOL     OW  838   0.642   1.529   0.127 -0.3427  0.5227  0.6472
  280SOL    HW1  839   0.622   1.516   0.224  3.1804  1.2111 -1.3154
  280SOL    HW2  840   0.743   1.511   0.114 -0.2030 -1.4886  0.4187
  281SOL     OW  841   0.421   2.972   1.654  0.3010  0.0989 -0.1101
  281SOL    HW1  842   0.342   2.903   1.652  2.3301 -1.0566  1.1305
  281SOL    HW2  843   0.396   3.055   1.698  0.5854 -0.1849 -0.4745
  282SOL     OW  844   0.052   2.438   0.722  0.3964  0.1028  0.2565
  282SOL    HW1  845   0.048   2.518   0.785 -1.1810 -2.2087 -1.6001
  282SOL    HW2  846   0.093   2.453   0.628  1.6952  0.0692 -0.0855
  283SOL     OW  847   1.467   1.955   2.408  0.8325  0.2243  0.6524
  283SOL    HW1  848   1.516   2.039   2.379 -0.2398  0.9796 -1.9222
  283SOL    HW2  849   1.538   1.884   2.431  0.0883  2.2089  0.2806
  284SOL     OW  850   1.933   3.000   0.922 -0.0708 -0.2371  0.0674
  284SOL    HW1  851   1.852   3.061   0.932 -3.7961  1.0821 -0.1791
  284SOL    HW2  852   1.900   2.908   0.891 -0.0685  0.7047  0.8830
  285SOL     OW  853   0.392   2.575   2.373  0.5319 -0.1223 -0.2608
  285SOL    HW1  854   0.351   2.630   2.450  1.2070 -1.0365  1.1390
  285SOL    HW2  855   0.477   2.522   2.401  2.3416  1.5503 -1.0641
  286SOL     OW  856   3.058   2.434   1.043 -0.1023 -0.2697 -0.3020
  286SOL    HW1  857   0.060   2.397   1.046  2.1659  1.7568  0.6880
  286SOL    HW2  858   3.059   2.533   1.026  1.0378 -2.9877  2.4342
  287SOL     OW  859   0.402   1.605   0.733  0.2088 -0.0417  0.0690
  287SOL    HW1  860   0.316   1.655   0.760 -0.3226  0.6768 -1.8797
  287SOL    HW2  861   0.477   1.672   0.710  2.4741 -0.0916  0.8708
  288SOL     OW  862   2.260   2.141   2.516 -0.1221 -0.0093 -0.2854
  288SOL    HW1  863   2.350   2.107   2.543 -0.1528  0.5404 -0.7893
  288SOL    HW2  864   2.255   2.243   2.501  0.5712 -1.7161  1.7512
  289SOL     OW  865   2.975   1.930   2.892  0.0299 -0.5040 -0.4338
  289SOL    HW1  866   2.903   1.858   2.909  0.5436  0.0312 -1.1459
  289SOL    HW2  867   3.028   1.942   2.981 -0.9333 -0.2615  0.9335
  290SOL     OW  868   1.405   1.921   1.188  0.3984 -0.5246 -0.2810
  290SOL    HW1  869   1.371   1.830   1.165  0.5420 -1.8418 -1.2323
  290SOL    HW2  870   1.370   1.987   1.117 -0.7216 -0.0539 -0.7727
  291SOL     OW  871   1.617   1.102   2.989  0.1541  0.2042  0.2549
  291SOL    HW1  872   1.560   1.092   2.903  1.0707  0.9341 -0.2974
  291SOL    HW2  873   1.599   1.037   3.063  0.8814  1.4903 -1.6263
  292SOL     OW  874   0.933   1.518   0.461  0.1233 -0.2728 -0.7365
  292SOL    HW1  875   0.899   1.470   0.546  0.1009  1.0188  2.3505
  292SOL    HW2  876   1.011   1.471   0.423 -1.6041  1.0042 -0.0644
  293SOL     OW  877   1.064   2.584   0.985  0.0176 -0.2147  0.3122
  293SOL    HW1  878   1.139   2.645   1.011  0.8037  1.7509  1.5196
  293SOL    HW2  879   1.030   2.606   0.891 -0.8977 -1.5842  1.0347
  294SOL     OW  880   2.159   1.344   2.788 -0.0443 -0.1658 -0.8912
  294SOL    HW1  881   2.141   1.313   2.692 -2.1318 -2.1892 -2.5829
  294SOL    HW2  882   2.241   1.400   2.805 -0.2999  0.5122  0.0456
  295SOL     OW  883   1.760   1.812   2.838 -0.5566  0.2650  0.3762
  295SOL    HW1  884   1.824   1.869   2.890  0.8633 -2.3041 -1.1138
  295SOL    HW2  885   1.667   1.860   2.834  0.2377  1.7665  2.8010
  296SOL     OW  886   1.676   0.487   1.732 -0.1090  0.4737  0.2404
  296SOL    HW1  887   1.771   0.517   1.744  0.7021  1.1547 -1.5173
  296SOL    HW2  888   1.669   0.391   1.703 -0.2153  1.3406  1.0379
  297SOL     OW  889   0.178   0.860   2.189 -0.5074 -0.2627 -0.0082
  297SOL    HW1  890   0.178   0.858   2.292  2.6161  0.9257 -1.0711
  297SOL    HW2  891   0.148   0.951   2.147 -0.6157  0.8178 -2.1200
  298SOL     OW  892   1.135   2.183   2.004 -0.5145 -0.2251  1.2841
  298SOL    HW1  893   1.111   2.085   2.021  2.1077 -2.2329  0.9497
  298SOL    HW2  894   1.196   2.216   2.080  1.6010 -0.1107  1.2248
  299SOL     OW  895   1.265   0.090   2.741  0.3809 -0.7677 -0.4148
  299SOL    HW1  896   1.364   0.079   2.738  1.4193  0.5425  0.7624
  299SOL    HW2  897   1.218   0.084   2.651 -0.2784  0.1686  1.2500
  300SOL     OW  898   0.105   0.987   2.878 -0.1105  0.1818  0.4386
  300SOL    HW1  899   0.149   0.923   2.942 -0.7283 -0.1891 -0.2406
  300SOL    HW2  900   0.136   1.081   2.887 -0.5099 -1.1046  1.0888
  301SOL     OW  901   1.852   0.852   1.838 -0.0653  0.1203 -0.0644
  301SOL    HW1  902   1.778   0.811   1.890 -0.0564  0.6188  0.9526
  301SOL    HW2  903   1.888   0.795   1.763 -2.2965 -0.2804 -0.3317
  302SOL     OW  904   2.439   1.683   2.636  0.0641  0.2477  0.0400
  302SOL    HW1  905   2.454   1.608   2.566  1.2201  0.0745  0.8192
  302SOL    HW2  906   2.340   1.708   2.639 -0.6142  0.3475 -0.7624
  303SOL     OW  907   0.221   2.269   2.514 -0.0083 -0.4793 -0.2462
  303SOL    HW1  908   0.279   2.264   2.596 -0.3888  0.2164 -0.5638
  303SOL    HW2  909   0.273   2.279   2.426  0.7297  0.7503 -1.2608
  304SOL     OW  910   2.996   0.978   1.364 -0.2858  0.7753  0.0813
  304SOL    HW1  911   3.004   0.994   1.262 -0.8497 -0.1758 -1.7071
  304SOL    HW2  912   3.079   0.931   1.395 -3.2972  1.4811 -0.8325
  305SOL     OW  913   2.699   1.082   1.764  0.4211 -0.4166 -0.3456
  305SOL    HW1  914   2.711   1.094   1.663  3.2052 -0.3777 -0.7109
  305SOL    HW2  915   2.653   1.165   1.812  0.6045 -0.6909  1.1390
  306SOL     OW  916   2.400   1.157   1.634  0.0456  0.0731  0.5212
  306SOL    HW1  917   2.404   1.099   1.718 -2.0165  1.2715  2.4092
  306SOL    HW2  918   2.397   1.257   1.652 -0.3939 -0.4310  1.7071
  307SOL     OW  919   2.732   2.872   0.890  0.2780  0.5552  0.2487
  307SOL    HW1  920   2.646   2.821   0.913  2.3312 -0.4071  2.8811
  307SOL    HW2  921   2.799   2.813   0.835 -0.2422  0.7473 -0.2341
  308SOL     OW  922   0.074   1.882   1.866 -0.4638 -0.5296  0.1548
  308SOL    HW1  923   0.102   1.813   1.936 -2.1923 -3.8171 -0.1384
  308SOL    HW2  924   0.097   1.850   1.773 -0.8976  1.2814  0.7978
  309SOL     OW  925   2.467   2.297   1.453 -0.0585  0.3553  0.3100
  309SOL    HW1  926   2.494   2.315   1.553 -1.8479  1.1413 -1.0933
  309SOL    HW2  927   2.376   2.255   1.457 -0.6382  1.5817 -1.0164
  310SOL     OW  928   2.018   1.558   2.825  0.2518 -0.2163  0.3236
  310SOL    HW1  929   1.926   1.523   2.846 -0.6237  0.7681 -0.1014
  310SOL    HW2  930   2.086   1.485   2.814  0.8560  2.3566  1.6528
  311SOL     OW  931   1.899   1.017   3.015  0.0785 -0.2563  0.2229
  311SOL    HW1  932   1.811   1.039   3.059 -2.9175 -0.5947 -1.2454
  311SOL    HW2  933   1.879   0.989   2.917 -0.7695 -0.4842 -4.3738
  312SOL     OW  934   1.237   2.284   2.256 -0.5825  0.1975 -0.0251
  312SOL    HW1  935   1.219   2.188   2.277  2.8973  0.5759  2.4308
  312SOL    HW2  936   1.166   2.332   2.310 -3.9151 -1.7219  1.5741
  313SOL     OW  937   0.093   0.414   1.130  0.5852 -0.8598  0.0921
  313SOL    HW1  938   0.105   0.447   1.031  1.7187  2.4697 -3.0627
  313SOL    HW2  939   0.052   0.319   1.127  0.8174  0.4214 -0.5361
  314SOL     OW  940   0.329   1.954   1.011 -0.1488  0.0609 -0.6376
  314SOL    HW1  941   0.259   2.010   1.061 -0.2214 -1.4743  0.6858
  314SOL    HW2  942   0.301   1.858   1.012  1.0394 -0.5293  0.3151
  315SOL     OW  943   0.310   2.082   2.108 -0.3495 -0.4219 -0.6857
  315SOL    HW1  944   0.262   2.134   2.033  1.9449 -2.5086  0.6049
  315SOL    HW2  945   0.241   2.036   2.167  2.1963  2.5465 -0.1764
  316SOL     OW  946   0.211   2.278   0.859 -0.1279 -0.0400  0.3458
  316SOL    HW1  947   0.168   2.185   0.841  1.6387 -0.6161 -1.9346
  316SOL    HW2  948   0.173   2.341   0.790 -1.0784 -1.2200  3.4075
  317SOL     OW  949   1.867   0.414   0.900 -0.0980  0.3339 -0.2145
  317SOL    HW1  950   1.933   0.488   0.926 -2.7579  0.0614  0.5119
  317SOL    HW2  951   1.768   0.421   0.936 -0.7430  1.0927  1.8822
  318SOL     OW  952   2.159   2.236   0.207 -0.3925 -0.1334  0.5080
  318SOL    HW1  953   2.084   2.189   0.159 -2.2122 -1.1611 -0.9377
  318SOL    HW2  954   2.239   2.179   0.196 -2.8923 -1.1428 -2.2336
  319SOL     OW  955   1.286   1.556   0.174 -0.3733 -0.0992 -0.2916
  319SOL    HW1  956   1.318   1.502   0.092  2.2736 -2.5126  1.9059
  319SOL    HW2  957   1.277   1.653   0.143  2.3626  0.1905 -1.0100
  320SOL     OW  958   0.441   2.909   2.475 -0.1441 -0.0061  0.5517
  320SOL    HW1  959   0.366   2.958   2.431 -3.0232 -1.0231  2.0044
  320SOL    HW2  960   0.526   2.908   2.421 -1.1902 -2.7604 -2.2681
  321SOL     OW  961   1.038   2.799   2.591  0.0781  0.4735  0.0601
  321SOL    HW1  962   1.106   2.791   2.667 -0.6250  2.1290  0.7017
  321SOL    HW2  963   1.069   2.761   2.504 -2.2518  0.2522 -1.0982
  322SOL     OW  964   2.517   0.450   2.270 -0.1278  0.4634 -0.1466
  322SOL    HW1  965   2.422   0.429   2.264  3.1718  0.7736  0.4473
  322SOL    HW2  966   2.541   0.501   2.353  0.1131  1.0228 -0.3649
  323SOL     OW  967   3.047   1.058   0.669 -0.2115 -0.0740  0.0129
  323SOL    HW1  968   0.005   0.975   0.695 -0.2852  0.2652 -0.9936
  323SOL    HW2  969   3.042   1.059   0.566  0.7504  0.8172 -2.2975
  324SOL     OW  970   0.469   0.761   1.948  0.2704 -0.3812 -0.2044
  324SOL    HW1  971   0.396   0.786   1.876  1.1585 -0.2906 -0.0638
  324SOL    HW2  972   0.551   0.729   1.905 -1.6476  2.1664  0.3319
  325SOL     OW  973   0.416   0.269   2.161 -0.0012  0.0497  0.0942
  325SOL    HW1  974   0.418   0.360   2.121 -1.3975 -3.3451  1.0569
  325SOL    HW2  975   0.384   0.268   2.256 -0.3048 -1.4224 -1.4034
  326SOL     OW  976   2.225   2.488   0.145  0.0127  0.0716  0.1199
  326SOL    HW1  977   2.169   2.510   0.059  1.2579 -0.9547  0.4500
  326SOL    HW2  978   2.187   2.403   0.189  0.3385  0.5487  2.4748
  327SOL     OW  979   2.388   1.341   0.531 -0.1218  0.1397 -0.1295
  327SOL    HW1  980   2.374   1.249   0.571 -0.4983  1.4522 -0.2681
  327SOL    HW2  981   2.327   1.366   0.456  0.3897  1.0927  3.5079
  328SOL     OW  982   3.002   1.787   2.124 -0.9924 -0.3148  0.3278
  328SOL    HW1  983   2.926   1.737   2.076 -0.5200 -1.3151 -0.1744
  328SOL    HW2  984   2.972   1.881   2.143 -0.7012 -4.3044  0.0100
  329SOL     OW  985   0.546   2.132   1.587 -0.3888  0.0489 -0.3316
  329SOL    HW1  986   0.444   2.141   1.602  0.1802 -0.2508  1.9315
  329SOL    HW2  987   0.586   2.222   1.609  1.3498  0.7584  1.4311
  330SOL     OW  988   2.237   1.424   2.535 -0.0818  0.1021  0.3039
  330SOL    HW1  989   2.197   1.513   2.555  0.2280 -3.2538  2.4963
  330SOL    HW2  990   2.262   1.419   2.434  0.7074 -0.3691  1.5730
  331SOL     OW  991   2.590   2.641   0.675  0.0794  0.2380 -0.2285
  331SOL    HW1  992   2.603   2.594   0.760  0.9719  3.1689 -2.3178
  331SOL    HW2  993   2.515   2.605   0.615 -2.9676 -1.4747 -1.6899
  332SOL     OW  994   0.443   2.914   0.761  0.1186 -0.3907  0.0891
  332SOL    HW1  995   0.376   2.865   0.821  0.0688 -1.5677  1.8992
  332SOL    HW2  996   0.450   2.874   0.668  0.5682 -0.6466  0.8252
  333SOL     OW  997   2.194   2.599   2.358  0.0188  0.0808 -0.0423
  333SOL    HW1  998   2.236   2.534   2.291 -1.7791 -1.0885  0.9172
  333SOL    HW2  999   2.192   2.545   2.446 -1.5935  1.3367  1.4744
  334SOL     OW 1000   0.552   1.205   0.385  0.2879  0.0064  0.0245
  334SOL    HW1 1001   0.562   1.175   0.483 -2.6863 -0.2267 -1.2997
  334SOL    HW2 1002   0.571   1.301   0.373  0.5716 -4.2535 -0.2232
  335SOL     OW 1003   2.693   1.903   1.923  0.0177 -0.5668  0.2394
  335SOL    HW1 1004   2.656   1.912   1.827  0.4788 -1.1235  0.1431
  335SOL    HW2 1005   2.627   1.845   1.972  3.3488  1.3903  0.0155
  336SOL     OW 1006   2.631   3.019   2.291 -0.2834  0.0205  0.4413
  336SOL    HW1 1007   2.581   2.938   2.261 -2.2168  0.1584  0.8750
  336SOL    HW2 1008   2.717   3.042   2.239  2.2426  1.3265 -0.3297
  337SOL     OW 1009   0.903   1.219   0.998 -0.3371 -0.1516 -0.6460
  337SOL    HW1 1010   0.921   1.264   0.910 -3.1058 -0.7651 -1.2010
  337SOL    HW2 1011   0.809   1.193   1.015  1.2660  1.7873  0.2112
  338SOL     OW 1012   1.055   1.861   1.069  0.2921  0.4665 -0.5358
  338SOL    HW1 1013   1.110   1.893   0.988 -2.7596  2.8722 -0.0358
  338SOL    HW2 1014   0.972   1.813   1.033  2.0289 -0.3584  2.1256
  339SOL     OW 1015   0.248   1.597   1.479  0.3200  0.2539 -0.0960
  339SOL    HW1 1016   0.345   1.564   1.469  0.0685 -1.1650  2.4892
  339SOL    HW2 1017   0.180   1.524   1.494  1.5580  1.4895 -0.4769
  340SOL     OW 1018   1.350   2.892   1.819  0.3228  0.0325 -0.1213
  340SOL    HW1 1019   1.411   2.869   1.740  0.9953 -0.6428 -3.0267
  340SOL    HW2 1020   1.259   2.929   1.790  0.4617 -0.0218 -2.1891
  341SOL     OW 1021   1.731   1.591   1.030  0.2923  0.0008  0.3975
  341SOL    HW1 1022   1.715   1.507   0.975 -1.6918 -0.5764 -0.3822
  341SOL    HW2 1023   1.821   1.587   1.074 -2.2406  0.3825  1.9918
  342SOL     OW 1024   2.997   1.387   0.956  0.4289 -0.0143  0.2659
  342SOL    HW1 1025   2.960   1.291   0.948  0.0567 -0.6855  0.7146
  342SOL    HW2 1026   2.934   1.445   0.909 -0.5499 -0.9053  0.0159
  343SOL     OW 1027   2.702   0.622   1.552 -0.1264  0.0985  0.1257
  343SOL    HW1 1028   2.655   0.674   1.621  0.5425  1.7047 -0.2388
  343SOL    HW2 1029   2.675   0.656   1.461 -0.1771  2.7378 -0.3410
  344SOL     OW 1030   1.704   0.028   0.985 -0.3905 -0.1974  0.0805
  344SOL    HW1 1031   1.638   3.070   0.923 -0.1169  0.1470  0.8035
  344SOL    HW2 1032   1.652   0.108   1.027 -2.3301  1.2295  2.8047
  345SOL     OW 1033   0.753   3.074   2.349 -0.3169 -0.3604 -0.1374
  345SOL    HW1 1034   0.714   0.030   2.428  2.8305  0.3890  0.0049
  345SOL    HW2 1035   0.698   3.084   2.262 -1.1480 -2.6009 -3.8401
  346SOL     OW 1036   2.606   1.890   0.720  0.0120 -0.2097 -0.0973
  346SOL    HW1 1037   2.609   1.990   0.733  0.1446 -0.8632  2.2821
  346SOL    HW2 1038   2.506   1.866   0.714 -1.0765  0.3860  1.0561
  347SOL     OW 1039   2.298   0.117   1.788 -0.9051  0.1542 -0.5606
  347SOL    HW1 1040   2.242   0.041   1.753 -0.2218  0.3214  0.4532
  347SOL    HW2 1041   2.388   0.086   1.830  0.8313  0.1283  1.3326
  348SOL     OW 1042   0.954   1.215   1.665  0.3104 -0.0867  1.2389
  348SOL    HW1 1043   0.887   1.140   1.684  1.3779 -0.1402 -1.0570
  348SOL    HW2 1044   0.911   1.301   1.700 -2.9137  0.4814  0.0995
  349SOL     OW 1045   2.559   0.790   1.708 -0.2730 -0.2987 -0.0717
  349SOL    HW1 1046   2.609   0.876   1.729  0.7943  1.7938 -0.8550
  349SOL    HW2 1047   2.520   0.749   1.795  0.8223  0.3874  0.9081
  350SOL     OW 1048   2.155   2.218   0.508 -0.0878  0.1647  0.2339
  350SOL    HW1 1049   2.155   2.299   0.571 -0.5097 -2.1451  0.8182
  350SOL    HW2 1050   2.143   2.236   0.411 -0.8119 -0.9564  2.4889
  351SOL     OW 1051   0.783   0.607   2.153  0.3327 -0.8368 -0.6205
  351SOL    HW1 1052   0.883   0.596   2.122  0.9739  1.1002  0.1507
  351SOL    HW2 1053   0.730   0.538   2.099  0.6043  2.6664 -0.5916
  352SOL     OW 1054   2.135   2.622   1.741  0.0400  0.6326  0.1947
  352SOL    HW1 1055   2.077   2.608   1.823  1.2855 -1.1763 -1.1263
  352SOL    HW2 1056   2.083   2.616   1.652  0.7216  0.2494  2.0550
  353SOL     OW 1057   0.660   0.782   2.652 -0.3380 -0.2768 -0.0375
  353SOL    HW1 1058   0.747   0.792   2.707  0.9907  0.7901 -1.8364
  353SOL    HW2 1059   0.680   0.797   2.551 -1.7630 -1.5811  2.2378
  354SOL     OW 1060   0.355   2.254   2.773  0.2315  0.5290 -0.6532
  354SOL    HW1 1061   0.446   2.256   2.815 -0.6763 -2.1159 -0.3179
  354SOL    HW2 1062   0.286   2.323   2.809 -0.3781  0.4168  0.6377
  355SOL     OW 1063   1.510   2.786   1.179  0.3410 -0.0017  0.0729
  355SOL    HW1 1064   1.569   2.871   1.209  0.4182  2.1203  1.5742
  355SOL    HW2 1065   1.476   2.735   1.258 -1.9953  2.0817 -2.5961
  356SOL     OW 1066   2.590   0.831   0.252 -0.4029  0.7124  0.7795
  356SOL    HW1 1067   2.501   0.853   0.296  0.0155 -0.0429 -1.9122
  356SOL    HW2 1068   2.664   0.897   0.282 -0.5485  0.5643 -1.2104
  357SOL     OW 1069   0.006   0.457   1.816 -0.7193  0.7176 -0.2898
  357SOL    HW1 1070   0.015   0.518   1.894 -2.1789  0.5252  1.6561
  357SOL    HW2 1071   3.047   0.372   1.844  1.2253  0.1022  0.3243
  358SOL     OW 1072   0.017   1.612   0.648  0.0905  0.7540  0.0132
  358SOL    HW1 1073   0.029   1.517   0.683 -0.4643 -0.6740 -2.5980
  358SOL    HW2 1074   3.057   1.606   0.562 -2.3261  0.6947  1.9593
  359SOL     OW 1075   2.904   0.375   2.970  0.0783 -0.7451  0.2932
  359SOL    HW1 1076   2.948   0.307   3.030 -0.4360  2.5820  0.1181
  359SOL    HW2 1077   2.950   0.375   2.879  0.4882  0.1021  1.1099
  360SOL     OW 1078   1.056   0.989   1.040  0.1703  0.2517  0.3274
  360SOL    HW1 1079   1.072   0.958   1.137 -2.3615 -0.6216 -0.8255
  360SOL    HW2 1080   0.992   1.071   1.030 -1.3721  0.9052  0.0237
  361SOL     OW 1081   2.851   2.619   1.358 -0.4587 -0.2750 -0.4278
  361SOL    HW1 1082   2.878   2.595   1.455  1.6893 -0.6896  1.9013
  361SOL    HW2 1083   2.790   2.546   1.321  1.3325  0.0973 -1.5773
  362SOL     OW 1084   1.171   0.362   1.038  0.4757  0.2136 -0.0507
  362SOL    HW1 1085   1.182   0.451   1.087 -0.5388  0.7618 -0.9388
  362SOL    HW2 1086   1.119   0.378   0.949 -1.4906 -0.9815 -1.5388
  363SOL     OW 1087   2.036   1.546   0.708  0.1183 -0.0150 -0.2631
  363SOL    HW1 1088   2.126   1.534   0.744 -1.6422  0.8154 -1.9327
  363SOL    HW2 1089   1.986   1.461   0.719 -1.6654  3.1721  0.5472
  364SOL     OW 1090   0.696   0.477   1.444  0.9024  0.8846  0.1004
  364SOL    HW1 1091   0.719   0.505   1.352  0.4379 -0.5430 -0.4446
  364SOL    HW2 1092   0.655   0.554   1.493 -0.6044 -0.6765 -1.1135
  365SOL     OW 1093   0.048   0.158   1.106 -0.1569 -0.4398 -0.3022
  365SOL    HW1 1094   0.141   0.114   1.119  0.8322 -3.0418 -0.9909
  365SOL    HW2 1095   3.057   0.118   1.151 -1.1207 -2.1766  1.3761
  366SOL     OW 1096   2.905   1.000   0.123  0.0810 -0.6359 -0.5362
  366SOL    HW1 1097   2.809   0.983   0.084  0.7873 -3.4328 -0.8059
  366SOL    HW2 1098   2.907   1.093   0.167  1.3250 -0.3775 -1.8417
  367SOL     OW 1099   2.187   2.044   2.196 -0.1571  0.3196 -0.0139
  367SOL    HW1 1100   2.200   2.064   2.293  0.7768  0.2482 -0.5929
  367SOL    HW2 1101   2.121   2.111   2.158  0.9120  0.5891 -0.6246
  368SOL     OW 1102   2.325   1.785   0.720 -0.3781  0.1502 -0.1005
  368SOL    HW1 1103   2.243   1.835   0.757 -1.7055 -2.1937 -0.3158
  368SOL    HW2 1104   2.316   1.681   0.738 -0.2817 -1.5331  0.7953
  369SOL     OW 1105   2.159   0.380   2.893 -0.5087 -0.0114 -0.7683
  369SOL    HW1 1106   2.218   0.428   2.964  3.0580  0.4012  1.7119
  369SOL    HW2 1107   2.065   0.363   2.929  3.6090  0.4157  1.5174
  370SOL     OW 1108   0.452   0.527   1.124  0.2922  0.1037  0.0213
  370SOL    HW1 1109   0.422   0.441   1.080 -1.2596  0.8207  1.4420
  370SOL    HW2 1110   0.551   0.546   1.102 -0.0696  1.8522  0.0349
  371SOL     OW 1111   3.016   1.328   3.092 -0.5702  0.3613  0.3341
  371SOL    HW1 1112   2.970   1.419   3.087 -0.9786  1.6809 -1.3440
  371SOL    HW2 1113   0.025   1.335   0.007  0.5770 -2.5401 -0.3352
  372SOL     OW 1114   0.700   0.782   2.372 -0.2029  0.5831 -0.2048
  372SOL    HW1 1115   0.730   0.708   2.311  1.1450  0.8616  0.6890
  372SOL    HW2 1116   0.603   0.804   2.354 -1.4208  1.2574 -1.6191
  373SOL     OW 1117   0.854   2.909   2.910 -0.1160  0.2342  0.2226
  373SOL    HW1 1118   0.808   2.967   2.983  2.9001 -0.1417  0.4813
  373SOL    HW2 1119   0.956   2.920   2.908  0.4148 -1.2244  0.3187
  374SOL     OW 1120   0.915   1.498   0.090 -0.2290  0.2380  0.5171
  374SOL    HW1 1121   0.971   1.563   0.142  0.3258  0.3477 -0.5667
  374SOL    HW2 1122   0.904   1.407   0.144 -1.4878 -2.0933 -0.8564
  375SOL     OW 1123   1.033   0.574   2.066  0.0742  0.1123 -0.4686
  375SOL    HW1 1124   1.072   0.660   2.114 -0.8254  0.5852 -1.2920
  375SOL    HW2 1125   1.109   0.508   2.055 -0.8536 -3.3031  0.9238
  376SOL     OW 1126   3.022   2.511   1.941 -0.2607 -0.2628  0.1626
  376SOL    HW1 1127   2.950   2.451   1.980  1.0569  0.9867 -0.6022
  376SOL    HW2 1128   3.060   2.579   2.005 -0.4523 -0.0938  2.9485
  377SOL     OW 1129   2.455   1.881   2.860 -0.1205 -0.7760 -0.4386
  377SOL    HW1 1130   2.515   1.868   2.777 -0.2126  1.2539  1.9191
  377SOL    HW2 1131   2.485   1.818   2.936 -1.7091 -1.4514  1.6965
  378SOL     OW 1132   2.123   0.123   0.268 -0.5733 -0.2293 -0.0597
  378SOL    HW1 1133   2.076   0.061   0.332  0.8332  0.7929 -1.3267
  378SOL    HW2 1134   2.098   0.105   0.171 -0.8112  1.3540  2.3343
  379SOL     OW 1135   2.010   0.743   0.640 -0.0396 -0.3748 -0.4373
  379SOL    HW1 1136   1.908   0.744   0.657 -3.1064  0.7367 -2.0668
  379SOL    HW2 1137   2.033   0.647   0.618  0.8193  0.1017  2.7467
  380SOL     OW 1138   2.566   2.034   1.673 -0.8642  0.6170 -0.0745
  380SOL    HW1 1139   2.470   2.055   1.699  2.0122 -0.1790  0.2906
  380SOL    HW2 1140   2.605   2.116   1.634 -0.8314 -1.0050  1.6872
  381SOL     OW 1141   2.331   1.353   2.285 -0.1948  0.1074 -0.2411
  381SOL    HW1 1142   2.397   1.367   2.209  1.3328  2.9567  2.2257
  381SOL    HW2 1143   2.308   1.255   2.289  0.7857  0.0498  1.6655
  382SOL     OW 1144   2.998   2.731   2.612  0.1245  0.4817 -0.1485
  382SOL    HW1 1145   0.002   2.761   2.593  0.1456  1.9748  1.1559
  382SOL    HW2 1146   2.995   2.638   2.655  1.2119 -3.4256  1.5514
  383SOL     OW 1147   1.049   1.214   3.010  0.2794  0.0509  0.2113
  383SOL    HW1 1148   1.002   1.218   0.006 -0.6462 -2.1236 -0.6349
  383SOL    HW2 1149   1.095   1.300   2.986  0.2265 -1.1444 -1.7929
  384SOL     OW 1150   1.687   1.954   2.161  0.1404  0.4766 -0.1426
  384SOL    HW1 1151   1.663   1.861   2.123  0.4031 -0.8998 -2.1257
  384SOL    HW2 1152   1.623   2.023   2.115 -2.0019  0.5941 -0.2849
  385SOL     OW 1153   1.819   2.761   0.789  0.3346  0.1144  0.3344
  385SOL    HW1 1154   1.739   2.716   0.835  1.5380  0.4320  0.5098
  385SOL    HW2 1155   1.820   2.745   0.692  1.1944  0.0884  0.9719
  386SOL     OW 1156   2.063   1.257   0.561  0.0599 -0.8236 -0.0344
  386SOL    HW1 1157   2.156   1.210   0.568  4.3385  2.0987  2.7078
  386SOL    HW2 1158   2.016   1.277   0.649  0.9365 -0.1115 -0.1272
  387SOL     OW 1159   2.940   2.054   1.550  0.3364 -0.2832  0.1601
  387SOL    HW1 1160   2.945   2.054   1.652 -1.9550  0.0386 -0.2271
  387SOL    HW2 1161   2.967   2.146   1.520  1.1441  0.1987 -0.2447
  388SOL     OW 1162   0.278   1.229   1.659 -0.2361  1.0145 -0.0871
  388SOL    HW1 1163   0.224   1.286   1.597 -3.0976 -1.5146 -0.6728
  388SOL    HW2 1164   0.235   1.137   1.680 -2.2463 -2.2415 -3.3635
  389SOL     OW 1165   2.336   0.499   3.071  0.0978 -0.1306  0.2776
  389SOL    HW1 1166   2.390   0.503   0.066  1.3357 -0.2291  2.4824
  389SOL    HW2 1167   2.261   0.566   3.068  2.2073 -1.3184 -1.6127
  390SOL     OW 1168   0.866   1.639   2.920 -0.5878 -0.0046  0.3058
  390SOL    HW1 1169   0.864   1.581   3.003 -1.9988 -0.9093 -1.6825
  390SOL    HW2 1170   0.784   1.693   2.905 -1.4646  1.0284 -3.3449
  391SOL     OW 1171   0.895   2.048   0.016 -0.2005  0.7744 -0.7513
  391SOL    HW1 1172   0.949   2.073   0.100 -1.5727  1.1047  0.5285
  391SOL    HW2 1173   0.797   2.040   0.043  1.3680  0.5998 -0.1144
  392SOL     OW 1174   3.079   2.569   2.325 -0.1713  0.6779 -0.7896
  392SOL    HW1 1175   2.997   2.597   2.270 -0.3582 -0.3899  2.7254
  392SOL    HW2 1176   0.062   2.527   2.274  1.8347 -0.8958  0.3304
  393SOL     OW 1177   1.470   2.176   0.451  0.2432 -0.0924 -0.6384
  393SOL    HW1 1178   1.568   2.196   0.462  1.6279 -3.8840 -1.0009
  393SOL    HW2 1179   1.455   2.080   0.426 -0.9852 -0.2689  4.1207
  394SOL     OW 1180   0.547   0.358   2.556  0.5844  1.0972  0.4083
  394SOL    HW1 1181   0.458   0.342   2.503 -2.3271 -0.4223 -2.5165
  394SOL    HW2 1182   0.554   0.460   2.562 -2.2550  0.6749 -0.0231
  395SOL     OW 1183   0.572   1.327   1.356  0.7421 -0.2431 -0.1498
  395SOL    HW1 1184   0.607   1.419   1.378 -0.2107 -0.4069 -1.5040
  395SOL    HW2 1185   0.486   1.342   1.303 -3.0669  0.4900 -3.9404
  396SOL     OW 1186   1.886   1.248   2.644 -0.0033  0.3607 -0.0249
  396SOL    HW1 1187   1.937   1.182   2.585  1.9203 -0.6635 -2.5920
  396SOL    HW2 1188   1.936   1.254   2.735  4.4260  2.2425  1.3097
  397SOL     OW 1189   0.574   0.404   0.279  0.1276 -0.6951  0.0113
  397SOL    HW1 1190   0.639   0.424   0.357 -2.0037 -0.6176 -0.7534
  397SOL    HW2 1191   0.539   0.495   0.233 -1.8357  0.9366 -2.4464
  398SOL     OW 1192   0.940   2.443   2.903 -0.0394  0.6710  0.1736
  398SOL    HW1 1193   0.893   2.530   2.880 -0.1631 -0.5033  1.3531
  398SOL    HW2 1194   1.042   2.452   2.896  0.7092  1.3000 -1.1175
  399SOL     OW 1195   2.041   2.241   2.068 -0.1218 -0.4732  0.4831
  399SOL    HW1 1196   2.006   2.197   1.980  0.0947 -0.3789 -0.0699
  399SOL    HW2 1197   1.984   2.324   2.083  3.0098  2.1736 -0.4551
  400SOL     OW 1198   2.203   1.249   1.456 -0.2742  0.0493  0.2959
  400SOL    HW1 1199   2.112   1.241   1.501 -0.2268 -0.2210 -1.5905
  400SOL    HW2 1200   2.275   1.197   1.506  0.0235 -0.8351 -0.7161
  401SOL     OW 1201   1.331   1.073   0.940  0.3114 -0.3880  0.0072
  401SOL    HW1 1202   1.408   1.022   0.979 -1.2518  0.1822 -1.6165
  401SOL    HW2 1203   1.245   1.042   0.981  3.5703 -1.0031 -0.3448
  402SOL     OW 1204   0.208   3.069   2.368  0.0310  0.0229 -0.0863
  402SOL    HW1 1205   0.202   0.056   2.434 -0.1337  1.8513  0.0949
  402SOL    HW2 1206   0.265   3.085   2.285 -0.4166  2.3881  0.0636
  403SOL     OW 1207   2.571   1.741   1.629 -0.0746  0.1746 -0.2034
  403SOL    HW1 1208   2.558   1.681   1.546 -0.7656 -0.9379  0.1128
  403SOL    HW2 1209   2.583   1.837   1.599 -1.1663  0.4481 -5.4578
  404SOL     OW 1210   2.046   1.636   1.592  0.3311 -0.2403  0.5505
  404SOL    HW1 1211   2.123   1.676   1.540  2.2299  2.5601 -0.3165
  404SOL    HW2 1212   2.002   1.555   1.546 -0.4033 -3.0670 -3.2178
  405SOL     OW 1213   2.322   0.190   2.534  0.4000  0.4157  0.7108
  405SOL    HW1 1214   2.310   0.249   2.451 -0.7214  2.5065 -1.4651
  405SOL    HW2 1215   2.425   0.174   2.549  3.5374 -0.7304  0.1711
  406SOL     OW 1216   1.107   1.299   2.693  0.1171 -0.3412 -0.2786
  406SOL    HW1 1217   1.042   1.231   2.725  0.6780  0.7911  0.3109
  406SOL    HW2 1218   1.132   1.348   2.776  0.9164 -0.8392 -3.3045
  407SOL     OW 1219   2.100   2.505   0.548 -0.5265 -0.3258  0.0803
  407SOL    HW1 1220   2.080   2.533   0.645 -0.1380 -0.7224 -0.8920
  407SOL    HW2 1221   2.014   2.483   0.498  1.2678  2.0477  0.1330
  408SOL     OW 1222   0.219   2.847   0.950  0.0778  0.5187 -0.0788
  408SOL    HW1 1223   0.249   2.848   1.047 -1.7710  0.8498  1.9205
  408SOL    HW2 1224   0.178   2.936   0.923  1.5096  0.9560 -0.4209
  409SOL     OW 1225   2.324   1.529   0.735 -0.3975 -0.1370  0.1426
  409SOL    HW1 1226   2.380   1.495   0.811 -0.1719  1.0891  0.0036
  409SOL    HW2 1227   2.348   1.473   0.653 -2.2589 -2.6034 -0.1939
  410SOL     OW 1228   2.248   2.329   2.894 -0.0198 -0.0111 -0.0749
  410SOL    HW1 1229   2.266   2.429   2.893  1.3842 -0.6586 -1.1683
  410SOL    HW2 1230   2.335   2.280   2.869  0.7970 -1.1049  0.6177
  411SOL     OW 1231   0.085   2.890   0.531 -0.1156  0.0259  0.3218
  411SOL    HW1 1232   0.138   2.956   0.587 -0.3526 -1.0603  0.4535
  411SOL    HW2 1233   3.080   2.889   0.564  1.4831  0.7885 -2.1047
  412SOL     OW 1234   1.434   2.612   0.472  0.0552 -0.0950 -0.0267
  412SOL    HW1 1235   1.391   2.698   0.438  0.4452  2.2165 -2.1931
  412SOL    HW2 1236   1.436   2.604   0.572  0.1300  0.7086  1.3605
  413SOL     OW 1237   1.845   0.277   2.367 -0.2032  0.1425  0.1341
  413SOL    HW1 1238   1.804   0.323   2.284 -0.9876  1.7328 -1.4480
  413SOL    HW2 1239   1.930   0.332   2.385  1.8306  2.8689 -1.8463
  414SOL     OW 1240   0.385   0.471   0.595 -0.3466 -0.0683 -0.3107
  414SOL    HW1 1241   0.343   0.422   0.516  0.6528  0.7352 -0.3234
  414SOL    HW2 1242   0.359   0.417   0.674  1.4423 -2.6294 -1.4113
  415SOL     OW 1243   0.095   1.205   1.256  0.3142 -0.1759  0.0885
  415SOL    HW1 1244   0.023   1.173   1.190 -1.2807  0.5170 -0.7140
  415SOL    HW2 1245   0.158   1.125   1.279  1.8303 -1.8763 -2.5727
  416SOL     OW 1246   0.333   0.036   0.009  0.1638 -0.0156  0.7024
  416SOL    HW1 1247   0.371   0.124   3.080 -1.3875 -3.1512 -3.5450
  416SOL    HW2 1248   0.376   3.077   0.083  2.6295  2.8311 -3.0235
  417SOL     OW 1249   2.071   0.311   0.753  0.0490  0.3802  0.3570
  417SOL    HW1 1250   2.158   0.313   0.801 -0.3084 -1.6479 -0.7838
  417SOL    HW2 1251   1.992   0.316   0.812 -0.2053  0.6371 -0.7531
  418SOL     OW 1252   0.600   0.206   2.929  0.1293 -0.6920 -0.0444
  418SOL    HW1 1253   0.674   0.252   2.882 -1.8603 -1.3893  1.4531
  418SOL    HW2 1254   0.554   0.274   2.991 -2.3917 -0.2207 -2.2392
  419SOL     OW 1255   0.326   0.935   0.694 -0.3530  0.3389 -0.2807
  419SOL    HW1 1256   0.336   0.859   0.625  0.2885  0.4069 -1.2101
  419SOL    HW2 1257   0.276   0.908   0.782 -0.8052  1.3995 -0.1480
  420SOL     OW 1258   2.050   1.859   1.080 -0.4531  0.5221  0.1442
  420SOL    HW1 1259   2.068   1.871   0.980 -1.5799  3.3230  1.8321
  420SOL    HW2 1260   2.089   1.933   1.131 -0.2448 -2.5416  0.9894
  421SOL     OW 1261   1.486   1.918   2.855  0.2020  0.6263  0.4443
  421SOL    HW1 1262   1.523   1.992   2.912 -1.7254 -4.0109 -0.3920
  421SOL    HW2 1263   1.400   1.939   2.805  3.0601 -1.0083 -0.9360
  422SOL     OW 1264   2.929   0.590   0.072  0.4520 -0.1697  0.2977
  422SOL    HW1 1265   2.922   0.506   0.013 -0.5765 -1.0914 -1.2871
  422SOL    HW2 1266   2.903   0.568   0.166 -1.1215  1.3586 -0.4743
  423SOL     OW 1267   1.777   2.039   0.671 -0.2142 -0.2707  0.8168
  423SOL    HW1 1268   1.797   1.948   0.707 -3.5411 -2.6424 -0.6245
  423SOL    HW2 1269   1.843   2.106   0.709  0.6351 -0.8213 -2.3338
  424SOL     OW 1270   0.585   1.429   1.732 -0.0277 -0.1501  0.2948
  424SOL    HW1 1271   0.532   1.518   1.732 -0.0270  0.7926  0.1144
  424SOL    HW2 1272   0.560   1.362   1.655 -2.9942  0.2357 -1.6090
  425SOL     OW 1273   2.577   2.723   1.796  0.2083  0.3406  0.0185
  425SOL    HW1 1274   2.500   2.663   1.760  1.8952 -2.5445 -1.3487
  425SOL    HW2 1275   2.659   2.670   1.821  2.3919 -0.3504 -2.6412
  426SOL     OW 1276   1.795   2.694   0.530 -0.1843 -0.1897  0.2619
  426SOL    HW1 1277   1.784   2.775   0.467 -0.3560  2.7205  1.3947
  426SOL    HW2 1278   1.812   2.613   0.474  1.9576  1.7978 -0.6219
  427SOL     OW 1279   0.121   0.626   2.643  0.2870  0.0174 -0.2356
  427SOL    HW1 1280   0.222   0.640   2.653 -1.7381 -1.5756  1.1050
  427SOL    HW2 1281   0.084   0.585   2.727  3.3236 -1.0011 -0.8033
  428SOL     OW 1282   2.175   0.938   2.923  0.2558 -0.0426  0.0044
  428SOL    HW1 1283   2.196   1.029   2.967  0.6557  1.3355  0.5477
  428SOL    HW2 1284   2.096   0.949   2.860  1.9091 -1.7838  1.6831
  429SOL     OW 1285   0.009   0.345   0.662 -0.0704 -0.4476 -0.5053
  429SOL    HW1 1286   3.077   0.340   0.563 -0.0869  0.1475 -1.6898
  429SOL    HW2 1287   3.023   0.310   0.721 -0.5758  1.2658  1.8607
  430SOL     OW 1288   1.076   2.859   2.086 -0.1059  0.4167  0.1457
  430SOL    HW1 1289   0.981   2.832   2.100  2.0545 -0.6714  0.1339
  430SOL    HW2 1290   1.132   2.791   2.038  3.5981  0.8933 -0.1673
  431SOL     OW 1291   2.946   2.052   1.202 -0.5283  0.1354 -0.1571
  431SOL    HW1 1292   2.929   2.157   1.217 -1.3568  3.6001 -1.5053
  431SOL    HW2 1293   2.882   1.998   1.257 -0.1227  0.7644 -0.8320
  432SOL     OW 1294   2.192   2.940   1.932 -0.2809 -0.0678 -0.1138
  432SOL    HW1 1295   2.261   2.936   1.854  1.2278  4.2966 -0.1701
  432SOL    HW2 1296   2.242   2.974   2.013  1.9904  2.5799  0.5625
  433SOL     OW 1297   1.023   2.073   0.233 -0.6728 -0.3684  0.3747
  433SOL    HW1 1298   1.004   2.031   0.325 -0.1838 -0.2748 -0.9669
  433SOL    HW2 1299   1.105   2.042   0.190 -0.8161  0.1971 -0.2114
  434SOL     OW 1300   0.058   2.485   2.557  0.4877  0.5135 -0.3805
  434SOL    HW1 1301   0.035   2.533   2.472  1.3464  3.5649 -1.4315
  434SOL    HW2 1302   0.119   2.400   2.548 -0.0613 -3.2960  1.2529
  435SOL     OW 1303   0.364   0.729   0.535 -0.3211  0.0753  0.0930
  435SOL    HW1 1304   0.448   0.767   0.486  1.5178  1.6029 -1.2030
  435SOL    HW2 1305   0.369   0.627   0.557 -2.1642 -0.6524 -0.8624
  436SOL     OW 1306   0.560   2.655   1.979 -0.2293  0.0122 -0.6589
  436SOL    HW1 1307   0.467   2.639   1.939 -0.5743 -1.0273  0.7258
  436SOL    HW2 1308   0.606   2.565   1.995 -1.5937 -1.0912  2.7729
  437SOL     OW 1309   1.223   2.022   1.418  0.3046 -0.4674 -0.4476
  437SOL    HW1 1310   1.197   2.116   1.387 -1.6624 -4.6146 -0.8688
  437SOL    HW2 1311   1.311   1.999   1.369  1.8270 -0.9173 -3.2303
  438SOL     OW 1312   0.080   2.263   0.331 -0.6964  0.0834  0.2533
  438SOL    HW1 1313   0.076   2.216   0.244  0.6951  1.3045 -0.5440
  438SOL    HW2 1314   0.051   2.200   0.408 -0.3492 -0.6898  0.5698
  439SOL     OW 1315   0.274   0.043   1.170  0.3397  0.1371 -0.7683
  439SOL    HW1 1316   0.337   3.083   1.110  0.9637  1.3678  2.0646
  439SOL    HW2 1317   0.297   0.025   1.272  1.3699  0.9765  3.0750
  440SOL     OW 1318   2.892   2.693   2.196  0.1379  0.1658  0.1975
  440SOL    HW1 1319   2.830   2.717   2.272 -0.2135 -1.8217 -2.1521
  440SOL    HW2 1320   2.876   2.745   2.113  0.8832  1.7837  0.5216
  441SOL     OW 1321   2.932   0.701   1.687 -0.1811 -0.3453  0.3150
  441SOL    HW1 1322   3.012   0.640   1.688  0.6910  0.0554  1.5769
  441SOL    HW2 1323   2.860   0.680   1.620 -0.3487 -0.4498  0.1082
  442SOL     OW 1324   1.807   2.461   0.131  0.1295  0.0386 -0.0639
  442SOL    HW1 1325   1.859   2.536   0.085 -0.6671  1.6266  1.4103
  442SOL    HW2 1326   1.709   2.478   0.134  2.2096 -0.2217  2.9151
  443SOL     OW 1327   0.413   0.615   2.922  0.0915  0.5574 -0.7887
  443SOL    HW1 1328   0.375   0.535   2.972 -0.7178  0.8095 -0.1466
  443SOL    HW2 1329   0.375   0.700   2.964 -0.0049  1.0822  2.0736
  444SOL     OW 1330   1.521   1.549   2.278  0.0334 -0.1317 -0.2422
  444SOL    HW1 1331   1.591   1.475   2.277  0.4974 -0.9670  2.5688
  444SOL    HW2 1332   1.536   1.613   2.203  1.2735 -2.1085  1.4145
  445SOL     OW 1333   0.219   2.356   1.123 -0.3475  0.4517  0.4315
  445SOL    HW1 1334   0.255   2.447   1.155 -0.6968  1.0173  2.6471
  445SOL    HW2 1335   0.253   2.335   1.031 -1.1198  0.3598  0.2040
  446SOL     OW 1336   2.515   1.581   1.416 -0.3689 -0.3478 -0.8331
  446SOL    HW1 1337   2.593   1.542   1.357 -2.6881 -0.9401 -0.6257
  446SOL    HW2 1338   2.463   1.643   1.356 -2.1505 -0.2193 -1.9390
  447SOL     OW 1339   0.460   0.628   0.164  0.3493 -0.2487 -0.7328
  447SOL    HW1 1340   0.518   0.699   0.126 -0.2412 -2.1870  0.3272
  447SOL    HW2 1341   0.361   0.657   0.178 -2.7789  0.4863 -0.0044
  448SOL     OW 1342   1.493   2.096   2.013  0.0273 -0.0516 -0.0649
  448SOL    HW1 1343   1.466   2.128   1.920 -0.7068 -2.4455 -0.8111
  448SOL    HW2 1344   1.423   2.053   2.073  1.7136  0.3319 -0.4117
  449SOL     OW 1345   0.943   1.236   0.174 -0.3635  0.1594 -0.1539
  449SOL    HW1 1346   0.893   1.147   0.188  0.9148  1.2394  2.2925
  449SOL    HW2 1347   1.037   1.225   0.213 -3.3570  0.2556 -1.1164
  450SOL     OW 1348   2.935   2.025   1.839  0.6772  0.6306 -0.1057
  450SOL    HW1 1349   3.020   1.976   1.866  1.4832 -0.8989  0.6716
  450SOL    HW2 1350   2.860   1.957   1.853  0.6032 -0.4007  0.9441
  451SOL     OW 1351   2.694   0.987   2.532  0.1424  0.1166 -0.0771
  451SOL    HW1 1352   2.635   1.029   2.605  2.1283 -0.7362 -0.8483
  451SOL    HW2 1353   2.722   0.895   2.571  1.4827 -0.4826 -1.7756
  452SOL     OW 1354   1.454   0.630   1.117  0.4203 -0.1862 -0.1171
  452SOL    HW1 1355   1.354   0.620   1.131 -2.7644  0.5400  1.7740
  452SOL    HW2 1356   1.496   0.620   1.207  1.4047  2.2441 -1.1026
  453SOL     OW 1357   1.583   0.957   1.364 -0.4314 -0.4177 -0.4099
  453SOL    HW1 1358   1.489   0.933   1.385  3.4239  2.3930  0.8780
  453SOL    HW2 1359   1.614   1.040   1.416 -0.7358 -3.5518 -0.9168
  454SOL     OW 1360   0.168   0.873   0.295 -0.0381 -0.2077  0.0035
  454SOL    HW1 1361   0.231   0.797   0.335  0.2988 -1.2749  2.1192
  454SOL    HW2 1362   0.124   0.841   0.212  2.1203  0.2414 -1.7484
  455SOL     OW 1363   2.328   2.589   1.259 -0.1525  0.6188  0.1153
  455SOL    HW1 1364   2.342   2.602   1.361 -1.7909 -3.1235  2.0325
  455SOL    HW2 1365   2.416   2.607   1.212 -0.4932 -1.2444 -0.0480
  456SOL     OW 1366   0.329   2.604   1.217 -0.2055 -0.4228  0.0420
  456SOL    HW1 1367   0.413   2.607   1.273 -0.0651  1.3405 -0.6454
  456SOL    HW2 1368   0.272   2.691   1.230  0.2776  1.4310  1.1694
  457SOL     OW 1369   1.559   2.980   0.571 -0.2087 -0.1627  0.1206
  457SOL    HW1 1370   1.467   2.944   0.549 -1.3272 -1.0990  1.8277
  457SOL    HW2 1371   1.579   3.070   0.531 -0.8458 -0.2061  0.5033
  458SOL     OW 1372   2.613   0.109   1.343 -0.2660 -0.3987 -0.1344
  458SOL    HW1 1373   2.596   0.116   1.443 -1.2332  0.3057  0.5074
  458SOL    HW2 1374   2.683   0.183   1.316  2.9737 -0.4715 -0.7547
  459SOL     OW 1375   2.462   0.659   2.891 -0.0236 -0.0642 -0.4970
  459SOL    HW1 1376   2.422   0.604   2.967  1.2184  0.9199  0.6550
  459SOL    HW2 1377   2.564   0.660   2.905 -0.8822  0.8578  0.0191
  460SOL     OW 1378   2.588   2.459   2.750  1.0853 -0.4809 -0.2941
  460SOL    HW1 1379   2.540   2.521   2.688 -1.7995 -1.6505  1.6343
  460SOL    HW2 1380   2.565   2.476   2.851  0.6329  0.0409  2.5342
  461SOL     OW 1381   0.558   1.834   0.387 -0.5698 -0.8844 -0.5430
  461SOL    HW1 1382   0.659   1.824   0.388 -1.5718  0.1206  0.6580
  461SOL    HW2 1383   0.520   1.799   0.299 -3.4613 -0.0275 -1.2914
  462SOL     OW 1384   2.115   1.932   0.824  0.1915  0.1358  0.0975
  462SOL    HW1 1385   2.089   1.924   0.724 -2.3040  0.2172  0.7674
  462SOL    HW2 1386   2.078   2.019   0.853 -0.6426 -2.5089 -1.4684
  463SOL     OW 1387   2.833   0.706   0.901 -0.4391  0.1611 -0.0689
  463SOL    HW1 1388   2.922   0.765   0.897  1.3753  0.1041 -0.7800
  463SOL    HW2 1389   2.856   0.608   0.895  1.5774  4.0065  0.5963
  464SOL     OW 1390   1.057   2.869   0.452  0.5009  0.7898 -0.8518
  464SOL    HW1 1391   0.956   2.893   0.457 -0.8201 -0.7410  0.3154
  464SOL    HW2 1392   1.090   2.828   0.541 -1.5313 -1.8726  0.2821
  465SOL     OW 1393   2.333   1.083   0.602  0.0364  0.6829  0.3963
  465SOL    HW1 1394   2.258   1.039   0.661 -1.0461 -3.1542  1.1631
  465SOL    HW2 1395   2.324   1.046   0.507  1.5940  2.7610 -2.0243
  466SOL     OW 1396   2.508   0.090   2.965  0.7689  0.1370 -0.1389
  466SOL    HW1 1397   2.433   0.108   2.901 -1.2916  2.8571  1.2090
  466SOL    HW2 1398   2.540   0.177   3.006 -0.9319 -0.7252  0.2045
  467SOL     OW 1399   0.973   1.096   1.393  0.0635  0.0603 -0.3105
  467SOL    HW1 1400   1.006   1.143   1.477  1.2646  1.6659  1.7831
  467SOL    HW2 1401   1.010   1.002   1.385  2.2527  0.8634  2.7733
  468SOL     OW 1402   0.447   0.842   2.355  0.7510 -0.2102  0.5180
  468SOL    HW1 1403   0.449   0.915   2.283 -1.6658  0.6799  0.7651
  468SOL    HW2 1404   0.363   0.838   2.407  0.6874  3.1530 -0.4216
  469SOL     OW 1405   0.586   2.586   0.102  0.0871 -0.5439 -0.2360
  469SOL    HW1 1406   0.491   2.554   0.082 -1.1248 -1.5810 -1.2980
  469SOL    HW2 1407   0.652   2.511   0.084 -0.8860 -1.8489  2.4911
  470SOL     OW 1408   2.546   1.083   2.736 -0.3968 -0.2271 -0.2303
  470SOL    HW1 1409   2.485   1.001   2.758 -1.8315  1.3281  2.1157
  470SOL    HW2 1410   2.579   1.122   2.822 -1.8177 -1.7510 -0.6814
  471SOL     OW 1411   2.734   1.107   2.288 -0.4121 -0.2297 -0.6021
  471SOL    HW1 1412   2.814   1.059   2.252 -0.0976 -2.7195  1.9867
  471SOL    HW2 1413   2.715   1.085   2.386  0.0712  3.0826 -0.1947
  472SOL     OW 1414   0.459   2.382   0.463  0.0909 -0.6473 -0.4100
  472SOL    HW1 1415   0.379   2.447   0.484  0.1190 -0.2184  3.8172
  472SOL    HW2 1416   0.547   2.432   0.452  1.0741 -2.8906  1.8378
  473SOL     OW 1417   0.681   3.073   3.063  0.2161  0.7161 -0.4611
  473SOL    HW1 1418   0.617   2.995   3.080  0.8749 -2.4274  2.0725
  473SOL    HW2 1419   0.638   0.049   3.002  0.5327 -0.6926  0.3685
  474SOL     OW 1420   1.715   0.401   2.143  0.0151  0.4311  0.0021
  474SOL    HW1 1421   1.716   0.500   2.168 -1.7478  1.9237  3.7126
  474SOL    HW2 1422   1.617   0.375   2.135  1.2415  1.5171 -0.7845
  475SOL     OW 1423   0.772   2.390   0.012 -0.1155  0.0975  0.2624
  475SOL    HW1 1424   0.813   2.340   0.088 -1.2711  4.2755 -0.8335
  475SOL    HW2 1425   0.838   2.421   3.035 -0.5633  1.2387 -2.7144
  476SOL     OW 1426   0.330   1.143   0.992  0.0373 -0.1474  0.1618
  476SOL    HW1 1427   0.432   1.150   0.988  0.3105  0.1016 -3.5449
  476SOL    HW2 1428   0.284   1.221   0.947 -3.6796  0.8372 -1.5469
  477SOL     OW 1429   1.649   2.419   1.271  0.0686  0.2942  0.0787
  477SOL    HW1 1430   1.552   2.422   1.270 -0.1551  1.6999 -0.7117
  477SOL    HW2 1431   1.679   2.508   1.223 -0.2706  0.3806 -0.4498
  478SOL     OW 1432   0.670   1.503   2.409  0.1378  0.1268 -0.4079
  478SOL    HW1 1433   0.770   1.507   2.388  0.5303  1.1458 -1.3670
  478SOL    HW2 1434   0.642   1.598   2.416  1.8844 -1.7936  0.4705
  479SOL     OW 1435   0.173   2.829   1.245 -0.4765  1.1079 -0.1883
  479SOL    HW1 1436   0.072   2.824   1.266  1.5737  1.8858  1.1104
  479SOL    HW2 1437   0.221   2.871   1.326  0.3912 -0.0365 -1.3851
  480SOL     OW 1438   2.819   2.850   0.270 -0.1887 -0.5361  0.3237
  480SOL    HW1 1439   2.773   2.908   0.197 -0.5892  1.7619 -2.5184
  480SOL    HW2 1440   2.751   2.790   0.307  0.9257  0.9591 -0.4651
  481SOL     OW 1441   2.988   2.947   0.980 -0.1450  0.1198  0.1520
  481SOL    HW1 1442   3.057   2.996   0.922 -1.1821 -0.3062 -0.1404
  481SOL    HW2 1443   2.897   2.952   0.936  2.9720 -2.3366 -1.5627
  482SOL     OW 1444   1.613   2.330   2.028  0.4479 -0.7607 -0.3933
  482SOL    HW1 1445   1.575   2.237   2.026  0.1173 -1.3614 -0.9964
  482SOL    HW2 1446   1.708   2.324   1.996 -1.0175 -1.2209 -0.5544
  483SOL     OW 1447   0.529   1.447   2.790 -0.5321  0.2788 -0.4132
  483SOL    HW1 1448   0.588   1.363   2.800  0.3638  0.6677 -0.7746
  483SOL    HW2 1449   0.575   1.517   2.739  0.2503 -2.2600  1.5236
  484SOL     OW 1450   1.100   1.135   2.461  0.0433  0.1806  0.1105
  484SOL    HW1 1451   1.004   1.098   2.463 -1.5416 -1.1842 -0.7611
  484SOL    HW2 1452   1.103   1.209   2.529  2.7283  1.1238  0.5240
  485SOL     OW 1453   2.941   0.252   0.431 -0.0549 -1.0070  0.2729
  485SOL    HW1 1454   2.845   0.252   0.467 -1.6059 -0.5940 -0.6456
  485SOL    HW2 1455   2.960   0.170   0.380  0.9910 -0.1555 -0.8601
  486SOL     OW 1456   1.566   2.752   0.914  0.0415 -0.0445 -0.2255
  486SOL    HW1 1457   1.531   2.736   1.009  1.0393  0.4280 -0.9451
  486SOL    HW2 1458   1.550   2.847   0.891  4.4192  1.1195  0.5705
  487SOL     OW 1459   0.825   2.442   0.993  0.6759  0.6254  0.3496
  487SOL    HW1 1460   0.751   2.497   0.953  0.1147  0.3320  0.8398
  487SOL    HW2 1461   0.902   2.500   1.020  1.7313 -2.1257  4.2905
  488SOL     OW 1462   2.243   1.175   0.163  0.8200 -0.1678  0.6669
  488SOL    HW1 1463   2.205   1.254   0.217  0.5972  1.1918  1.4057
  488SOL    HW2 1464   2.198   1.172   0.073  0.7911  2.0241 -0.0752
  489SOL     OW 1465   1.232   2.795   1.080 -0.0213 -0.2261 -0.8465
  489SOL    HW1 1466   1.180   2.800   1.171  1.1972 -1.3880  4.4585
  489SOL    HW2 1467   1.326   2.802   1.108 -1.8389 -2.5620 -1.4980
  490SOL     OW 1468   0.762   1.047   0.267 -0.3461  0.4069 -0.6383
  490SOL    HW1 1469   0.794   0.995   0.348  0.2005  0.1524  1.8408
  490SOL    HW2 1470   0.709   1.127   0.289  1.2706  0.3077 -1.1812
  491SOL     OW 1471   0.846   3.018   0.880  0.1323 -0.0785  0.1592
  491SOL    HW1 1472   0.935   3.008   0.928 -0.6343  1.4214 -1.6041
  491SOL    HW2 1473   0.785   2.939   0.905 -1.2100  0.3564 -2.1963
  492SOL     OW 1474   1.244   1.498   2.206 -0.1546 -0.0231  0.0580
  492SOL    HW1 1475   1.185   1.553   2.267 -0.1553  1.8614  1.0666
  492SOL    HW2 1476   1.340   1.517   2.232  3.5131 -3.6165  0.5279
  493SOL     OW 1477   0.207   2.487   0.448  0.2783  0.1750 -0.1119
  493SOL    HW1 1478   0.161   2.416   0.393 -2.4985  2.4232 -0.9457
  493SOL    HW2 1479   0.194   2.582   0.409 -1.8756  3.0966  0.7718
  494SOL     OW 1480   2.197   1.804   0.034  0.0776  0.2833  0.0600
  494SOL    HW1 1481   2.240   1.894   0.023 -1.7460 -0.5338 -1.5794
  494SOL    HW2 1482   2.259   1.728   0.035  0.0938  0.4106  1.5490
  495SOL     OW 1483   2.633   1.256   2.926  0.3944 -0.2098 -0.0873
  495SOL    HW1 1484   2.728   1.248   2.955  4.2851 -0.4423 -0.0059
  495SOL    HW2 1485   2.569   1.273   3.005 -0.5434  0.7367  0.9147
  496SOL     OW 1486   2.572   0.153   1.639  0.3511  0.4266 -0.0838
  496SOL    HW1 1487   2.571   0.121   1.738  0.9812  0.5063 -0.9142
  496SOL    HW2 1488   2.483   0.194   1.611 -0.9617  0.1797  1.3470
  497SOL     OW 1489   2.753   0.966   0.402 -0.7794  0.0757  0.1474
  497SOL    HW1 1490   2.687   0.975   0.479  1.0063  2.4183 -3.0736
  497SOL    HW2 1491   2.849   0.951   0.439  1.0956 -0.3223  0.7866
  498SOL     OW 1492   2.894   2.228   2.457 -0.1186 -0.1939  0.1416
  498SOL    HW1 1493   2.838   2.223   2.543 -0.5687 -1.3790  0.3012
  498SOL    HW2 1494   2.983   2.170   2.459 -0.7779  1.2614 -0.3573
  499SOL     OW 1495   0.830   2.264   0.267 -0.1278  0.1809  0.0615
  499SOL    HW1 1496   0.915   2.208   0.250 -1.0117  0.3335  0.2971
  499SOL    HW2 1497   0.853   2.324   0.347 -1.1343 -1.7330 -0.1709
  500SOL     OW 1498   0.888   0.075   2.664 -0.5454 -0.2509  0.1215
  500SOL    HW1 1499   0.918   0.079   2.764  0.6509  3.1066  2.4635
  500SOL    HW2 1500   0.797   0.032   2.655  2.0338  1.7995 -2.5941
  501SOL     OW 1501   1.287   3.047   1.329 -0.2798  0.1755 -0.0364
  501SOL    HW1 1502   1.381   3.057   1.374 -1.2516 -1.0290 -0.4599
  501SOL    HW2 1503   1.258   0.045   1.291 -0.1784 -1.7512  1.6364
  502SOL     OW 1504   2.988   0.210   2.116 -0.1669 -0.5524 -0.2510
  502SOL    HW1 1505   3.087   0.196   2.109  0.5006  0.2135  2.7078
  502SOL    HW2 1506   2.953   0.246   2.024  0.3189  0.5479 -0.7999
  503SOL     OW 1507   2.281   1.795   2.283 -0.4303  0.1638  0.5018
  503SOL    HW1 1508   2.205   1.728   2.288  1.3468  0.9627 -1.5284
  503SOL    HW2 1509   2.236   1.882   2.263  0.0358 -0.6145 -0.4794
  504SOL     OW 1510   1.440   0.583   1.811  0.0786 -0.2076 -0.6414
  504SOL    HW1 1511   1.373   0.505   1.826  0.2605  1.1759 -1.7434
  504SOL    HW2 1512   1.527   0.545   1.768  1.0035  1.6756  1.1485
  505SOL     OW 1513   2.812   1.111   1.512  0.2988 -0.1021  0.1911
  505SOL    HW1 1514   2.851   1.208   1.500  1.9275  2.3539  0.4106
  505SOL    HW2 1515   2.867   1.043   1.458 -0.6714  1.6435 -1.7532
  506SOL     OW 1516   0.628   1.235   2.454  0.3687 -0.1146 -0.1685
  506SOL    HW1 1517   0.528   1.210   2.457  1.6421  1.2586 -0.3614
  506SOL    HW2 1518   0.634   1.338   2.440 -1.7961  0.4698 -1.9617
  507SOL     OW 1519   0.401   3.014   2.173 -0.1710  0.4031 -0.2145
  507SOL    HW1 1520   0.470   3.085   2.156  0.5347  0.5313 -0.5335
  507SOL    HW2 1521   0.447   2.929   2.201 -1.3382  3.1374 -3.2691
  508SOL     OW 1522   1.108   0.853   1.330 -0.6629  0.0780 -0.2213
  508SOL    HW1 1523   1.203   0.840   1.342 -1.5035 -2.7400 -0.0341
  508SOL    HW2 1524   1.056   0.764   1.331 -2.7870  0.9656  0.4384
  509SOL     OW 1525   0.806   1.747   1.466  0.0952  0.1427 -0.1767
  509SOL    HW1 1526   0.824   1.751   1.563  0.9186  0.8239 -0.4445
  509SOL    HW2 1527   0.894   1.748   1.412  0.8909  1.3300 -1.7283
  510SOL     OW 1528   2.557   0.712   2.389  0.6842  0.2328  0.2773
  510SOL    HW1 1529   2.619   0.665   2.448  1.6837  1.0253 -0.7348
  510SOL    HW2 1530   2.560   0.811   2.410  2.2505 -0.1250  3.1890
  511SOL     OW 1531   0.451   1.716   1.223 -0.1685 -0.2958 -0.1009
  511SOL    HW1 1532   0.369   1.761   1.260  0.8085 -1.9177  0.4210
  511SOL    HW2 1533   0.503   1.782   1.162 -0.4891  1.6034  2.2124
  512SOL     OW 1534   2.542   2.158   0.759 -0.1873 -0.0263  0.7495
  512SOL    HW1 1535   2.511   2.208   0.677  0.3694  0.3264  0.5875
  512SOL    HW2 1536   2.565   2.223   0.831  0.9190  2.5764  1.4395
  513SOL     OW 1537   2.957   1.146   2.889 -0.1355  0.3859 -0.3339
  513SOL    HW1 1538   3.039   1.080   2.892  2.8136  0.0069  0.4660
  513SOL    HW2 1539   2.971   1.226   2.955 -1.3088  1.1492 -1.5751
  514SOL     OW 1540   0.233   2.051   2.908 -0.4697  0.2168 -0.0001
  514SOL    HW1 1541   0.179   2.009   2.834  1.6331  0.1785 -2.8980
  514SOL    HW2 1542   0.306   2.109   2.871 -0.9649 -1.6773 -0.1314
  515SOL     OW 1543   1.726   1.448   2.019 -0.6366 -0.4200 -0.5515
  515SOL    HW1 1544   1.785   1.370   1.976  1.2584 -1.3174 -0.5044
  515SOL    HW2 1545   1.719   1.428   2.120  2.0273 -1.3075  1.2617
  516SOL     OW 1546   2.042   2.140   2.916 -0.4777  0.1947  0.0385
  516SOL    HW1 1547   2.103   2.214   2.889  1.3026  0.5578  3.6614
  516SOL    HW2 1548   2.080   2.048   2.878  1.2246  2.0381 -1.1061
  517SOL     OW 1549   1.490   1.194   0.267  0.2587 -0.0180  0.4881
  517SOL    HW1 1550   1.488   1.185   0.368 -0.1330 -0.0746 -0.3625
  517SOL    HW2 1551   1.503   1.106   0.216 -1.4031 -0.1447  0.3750
  518SOL     OW 1552   2.523   2.933   1.965 -0.2500 -0.5065 -0.4122
  518SOL    HW1 1553   2.493   2.879   2.049  0.2575 -0.2237  1.5843
  518SOL    HW2 1554   2.505   2.876   1.883  0.5913  0.7304 -1.3073
  519SOL     OW 1555   1.829   2.241   1.689  0.2204  0.0993  0.5146
  519SOL    HW1 1556   1.779   2.159   1.659 -2.1151  1.2404  0.5518
  519SOL    HW2 1557   1.902   2.216   1.750 -0.3521  0.4004 -1.0086
  520SOL     OW 1558   2.507   2.636   2.534  0.2311 -0.0681  0.0414
  520SOL    HW1 1559   2.463   2.731   2.536 -1.6864  1.6513  0.4821
  520SOL    HW2 1560   2.569   2.629   2.454 -1.7856  0.2874  0.0561
  521SOL     OW 1561   0.219   1.134   2.150  0.3223 -0.1749  0.2242
  521SOL    HW1 1562   0.249   1.199   2.077 -1.7564 -1.9790 -1.7776
  521SOL    HW2 1563   0.163   1.178   2.221  2.2585  0.4176  0.6486
  522SOL     OW 1564   0.896   0.253   1.791  0.9460  0.1531  0.0084
  522SOL    HW1 1565   0.922   0.352   1.801  1.1277 -0.2239  0.0011
  522SOL    HW2 1566   0.849   0.236   1.700 -1.5992 -1.1593  0.4572
  523SOL     OW 1567   0.468   2.349   0.886  0.1236  0.2467 -0.0133
  523SOL    HW1 1568   0.527   2.318   0.805  2.4179  0.6466 -1.2254
  523SOL    HW2 1569   0.372   2.319   0.876 -0.5765  1.5022  0.5778
  524SOL     OW 1570   1.410   2.604   0.749 -0.3702  0.2400 -0.4671
  524SOL    HW1 1571   1.467   2.667   0.806  0.2112  0.2092 -2.2459
  524SOL    HW2 1572   1.434   2.513   0.779 -1.1977  2.4499 -2.6815
  525SOL     OW 1573   2.240   0.677   1.172  0.0818  0.0190  1.0226
  525SOL    HW1 1574   2.291   0.738   1.233 -2.2122 -0.3927  0.3251
  525SOL    HW2 1575   2.293   0.662   1.088 -0.7398  0.1172  1.3101
  526SOL     OW 1576   0.965   2.626   0.703  0.1269 -0.4493 -0.2020
  526SOL    HW1 1577   0.963   2.551   0.632  0.9763 -1.1584 -0.8069
  526SOL    HW2 1578   0.874   2.670   0.707 -0.4420 -1.7483 -0.7524
  527SOL     OW 1579   2.382   2.076   0.431  0.6461 -0.0259 -0.6265
  527SOL    HW1 1580   2.419   1.991   0.468  2.0296  4.5444 -2.0023
  527SOL    HW2 1581   2.293   2.100   0.475 -0.0508 -0.8105 -2.7081
  528SOL     OW 1582   2.329   0.634   0.471 -0.4528  0.2133 -0.3946
  528SOL    HW1 1583   2.307   0.699   0.394 -1.1584 -0.8308  1.4031
  528SOL    HW2 1584   2.244   0.592   0.496  0.9864  2.6586  1.3827
  529SOL     OW 1585   1.249   1.212   2.243  0.0042 -0.2399  0.1789
  529SOL    HW1 1586   1.221   1.201   2.337 -0.5134 -0.1280 -3.2209
  529SOL    HW2 1587   1.232   1.310   2.214  0.2483 -0.8443  0.4339
  530SOL     OW 1588   2.619   0.596   0.104  0.0013 -0.1195  0.1554
  530SOL    HW1 1589   2.683   0.604   0.027  1.7017 -0.9752  0.4495
  530SOL    HW2 1590   2.618   0.681   0.160 -0.5718  0.7178  0.8132
  531SOL     OW 1591   1.138   0.908   0.322  0.3369  0.0428  0.0006
  531SOL    HW1 1592   1.125   0.865   0.230  4.9465 -1.0008 -1.3261
  531SOL    HW2 1593   1.114   0.843   0.398 -2.1875 -0.4134 -1.9960
  532SOL     OW 1594   2.069   0.032   0.682  0.3337  0.0265 -0.3909
  532SOL    HW1 1595   2.007   3.075   0.747 -0.8589 -1.8157 -0.4096
  532SOL    HW2 1596   2.065   0.133   0.696 -0.4614 -0.0176 -0.7765
  533SOL     OW 1597   1.461   1.049   2.236  0.4611  0.0242  0.3765
  533SOL    HW1 1598   1.397   1.127   2.229 -1.3692 -0.1760  0.7294
  533SOL    HW2 1599   1.505   1.030   2.141  1.2469  0.4337 -2.7856
  534SOL     OW 1600   1.852   2.953   2.913  0.2566  0.0495 -0.9090
  534SOL    HW1 1601   1.949   2.966   2.932 -2.3808 -0.5284 -0.5915
  534SOL    HW2 1602   1.839   2.885   2.836 -2.5180  0.1881  0.8364
  535SOL     OW 1603   0.369   3.040   0.268  0.2491  0.2826  0.2090
  535SOL    HW1 1604   0.447   0.008   0.288 -0.5695 -3.4962  0.6580
  535SOL    HW2 1605   0.400   2.942   0.279  1.7758  0.9972  0.3556
  536SOL     OW 1606   0.716   2.776   1.002 -0.3269 -0.1155  0.1330
  536SOL    HW1 1607   0.630   2.717   1.004 -0.5518  0.5526  0.3879
  536SOL    HW2 1608   0.755   2.787   1.094  2.5312 -2.2137 -3.2287
  537SOL     OW 1609   1.542   0.916   1.088  0.2015  0.0424  0.5892
  537SOL    HW1 1610   1.518   0.812   1.072  2.3779  0.3883 -0.5411
  537SOL    HW2 1611   1.550   0.925   1.186  2.1399 -0.2794 -2.6483
  538SOL     OW 1612   2.478   2.381   0.144 -0.5496 -0.2903  0.3327
  538SOL    HW1 1613   2.561   2.421   0.196  3.3495 -1.3665  0.3947
  538SOL    HW2 1614   2.386   2.415   0.171  1.0386  3.3367 -0.4759
  539SOL     OW 1615   2.709   1.766   2.648  0.8388  0.4114 -0.0613
  539SOL    HW1 1616   2.618   1.728   2.629 -0.9202 -0.9478 -0.7027
  539SOL    HW2 1617   2.750   1.802   2.559  2.6401 -0.4139 -0.8126
  540SOL     OW 1618   0.217   2.799   1.605 -0.5154 -0.2932  0.2205
  540SOL    HW1 1619   0.192   2.706   1.572  0.1742 -1.1889 -0.0657
  540SOL    HW2 1620   0.174   2.874   1.549  0.8471 -1.0218 -0.2419
  541SOL     OW 1621   2.534   0.081   1.906 -0.1862  0.2746  0.3211
  541SOL    HW1 1622   2.595   0.150   1.954  1.2060  0.7628 -1.0107
  541SOL    HW2 1623   2.541   3.077   1.946 -0.4285  0.8303 -0.0964
  542SOL     OW 1624   3.048   0.608   2.254 -0.2233 -0.2643  0.4060
  542SOL    HW1 1625   3.006   0.684   2.310  0.1400 -1.2001  1.8347
  542SOL    HW2 1626   2.999   0.597   2.161 -1.4033 -1.3280 -2.1935
  543SOL     OW 1627   1.050   0.364   0.777  0.1284  0.7139 -0.1817
  543SOL    HW1 1628   1.040   0.459   0.738 -3.2303 -2.0895 -0.9336
  543SOL    HW2 1629   1.088   0.300   0.716  1.6898  0.7714  2.4952
  544SOL     OW 1630   2.681   2.522   0.916 -0.2654  0.0024 -0.0238
  544SOL    HW1 1631   2.777   2.490   0.898  2.0943 -1.0261 -0.6413
  544SOL    HW2 1632   2.610   2.446   0.925 -0.2337  0.3772  0.3658
  545SOL     OW 1633   0.808   1.754   0.345 -0.4050  0.5632 -0.3412
  545SOL    HW1 1634   0.868   1.766   0.263 -0.4711 -0.3347  0.0901
  545SOL    HW2 1635   0.847   1.679   0.407 -0.9581 -1.4271  0.4399
  546SOL     OW 1636   2.304   0.376   1.815 -0.3800 -0.1472  0.0938
  546SOL    HW1 1637   2.286   0.274   1.810 -2.9198 -0.3232 -0.5522
  546SOL    HW2 1638   2.357   0.398   1.901  0.3734  1.7228 -0.2399
  547SOL     OW 1639   0.316   0.304   2.413 -0.1756  0.1193  0.3062
  547SOL    HW1 1640   0.247   0.368   2.375  1.4119  0.6265  2.9484
  547SOL    HW2 1641   0.275   0.241   2.486  0.9190 -1.1199 -0.5144
  548SOL     OW 1642   2.021   1.707   2.289 -0.4203  0.6572  0.2494
  548SOL    HW1 1643   2.029   1.608   2.260 -2.3868 -1.2650 -2.0629
  548SOL    HW2 1644   1.981   1.721   2.383  0.9056 -1.5084  1.1519
  549SOL     OW 1645   0.014   0.778   0.821 -0.1973 -0.7359 -0.0920
  549SOL    HW1 1646   0.036   0.768   0.722 -1.2265 -1.3435 -0.1544
  549SOL    HW2 1647   0.092   0.829   0.865 -0.4196 -2.0597 -0.9196
  550SOL     OW 1648   1.555   1.411   0.573  0.1467  0.5832  0.4550
  550SOL    HW1 1649   1.526   1.310   0.561  2.4474  0.7741  1.1075
  550SOL    HW2 1650   1.603   1.451   0.496 -0.0023  1.9756  2.4279
  551SOL     OW 1651   0.931   0.187   1.208 -0.0099 -0.0425  0.2288
  551SOL    HW1 1652   0.892   0.230   1.122 -0.5517 -2.0481  0.4221
  551SOL    HW2 1653   1.032   0.177   1.212 -1.0632  1.9007  2.1926
  552SOL     OW 1654   2.365   2.514   1.800 -0.4218 -0.1326  0.2446
  552SOL    HW1 1655   2.276   2.562   1.766  1.4348  1.0998 -1.3762
  552SOL    HW2 1656   2.348   2.459   1.885  0.4173  2.6421  0.5053
  553SOL     OW 1657   0.051   3.056   0.017 -0.3692  0.0118 -0.4202
  553SOL    HW1 1658   0.146   0.002   0.016 -0.1699  4.0342 -1.0142
  553SOL    HW2 1659   0.036   3.001   3.025  1.6388  0.4404 -2.4068
  554SOL     OW 1660   1.105   2.784   1.568 -0.7820  0.2424  0.3638
  554SOL    HW1 1661   1.168   2.707   1.597  0.0751 -2.3568  1.8370
  554SOL    HW2 1662   1.105   2.855   1.642  0.4793 -0.1126  0.2164
  555SOL     OW 1663   2.314   2.654   1.524  0.0506  0.0753  0.5437
  555SOL    HW1 1664   2.255   2.580   1.564 -0.0608 -0.6456  0.2747
  555SOL    HW2 1665   2.310   2.743   1.575 -2.4769  0.6436  0.7314
  556SOL     OW 1666   1.114   3.033   2.938 -0.5828 -0.0644  0.6742
  556SOL    HW1 1667   1.173   3.080   2.871 -0.1685  0.7647 -2.6521
  556SOL    HW2 1668   1.143   3.068   3.030 -1.1277  0.3113  2.1163
  557SOL     OW 1669   0.141   1.888   2.247 -0.1380  0.3212  0.1001
  557SOL    HW1 1670   0.221   1.823   2.248  0.2810 -0.7105 -0.7279
  557SOL    HW2 1671   0.058   1.839   2.204 -0.6439 -2.5062  0.5556
  558SOL     OW 1672   2.328   1.165   2.566  0.3868 -0.3467  0.1523
  558SOL    HW1 1673   2.424   1.157   2.596  1.0039 -2.1643 -0.0723
  558SOL    HW2 1674   2.293   1.259   2.583 -0.9104 -2.4280 -0.8953
  559SOL     OW 1675   2.345   2.347   2.009 -0.1681  0.1589 -0.1648
  559SOL    HW1 1676   2.403   2.269   2.035  2.6546  0.0693  0.0781
  559SOL    HW2 1677   2.257   2.350   2.055  3.0516  2.5704 -2.6309
  560SOL     OW 1678   0.226   0.555   2.281 -0.4427  0.5802  0.4072
  560SOL    HW1 1679   0.255   0.634   2.338 -0.3417 -0.4274  0.4182
  560SOL    HW2 1680   0.125   0.566   2.261  0.5561  0.2246  0.2213
  561SOL     OW 1681   0.735   0.464   0.481 -0.3770  0.2406  0.2658
  561SOL    HW1 1682   0.716   0.499   0.574  1.9847  2.9406 -0.8580
  561SOL    HW2 1683   0.796   0.382   0.485  0.6465  3.2813 -0.9885
  562SOL     OW 1684   0.849   1.438   1.757  0.2756  0.6134  0.1859
  562SOL    HW1 1685   0.748   1.449   1.729  0.3926  2.6976 -1.9912
  562SOL    HW2 1686   0.861   1.411   1.852  1.1625  0.8420  0.6205
  563SOL     OW 1687   1.482   2.783   0.063 -0.3970  0.0585  0.1458
  563SOL    HW1 1688   1.475   2.846   0.141 -0.8251 -1.2266 -3.0521
  563SOL    HW2 1689   1.392   2.774   0.023 -0.8626  0.3499 -0.6809
  564SOL     OW 1690   0.006   2.083   0.519 -0.3742  0.0225  0.2563
  564SOL    HW1 1691   0.053   1.996   0.488  1.5805 -0.4367  2.2294
  564SOL    HW2 1692   0.005   2.096   0.621  4.2821  2.6855  1.2816
  565SOL     OW 1693   0.373   2.289   2.282 -0.6388 -0.3894 -0.6769
  565SOL    HW1 1694   0.355   2.219   2.212 -2.1479  1.0009 -1.2747
  565SOL    HW2 1695   0.467   2.324   2.264  0.1693  0.4003 -2.5953
  566SOL     OW 1696   1.469   2.680   2.338 -0.3520 -0.1830 -0.5343
  566SOL    HW1 1697   1.526   2.672   2.423  0.5604  0.6255  1.0079
  566SOL    HW2 1698   1.464   2.594   2.286 -3.1524  1.4803 -0.7551
  567SOL     OW 1699   1.820   2.006   1.029  0.4432 -0.6090  0.8843
  567SOL    HW1 1700   1.725   1.985   0.994  0.2135  1.5658 -0.1069
  567SOL    HW2 1701   1.881   1.925   1.024  0.6571 -2.4469 -0.5058
  568SOL     OW 1702   2.218   0.767   0.242  0.5716  0.0765  0.2769
  568SOL    HW1 1703   2.201   0.749   0.141  0.0179 -1.4804 -1.2612
  568SOL    HW2 1704   2.132   0.792   0.289 -0.6802  0.2267 -0.4120
  569SOL     OW 1705   2.635   1.384   2.630 -0.3390 -0.2108  0.1660
  569SOL    HW1 1706   2.730   1.419   2.603  2.5572 -0.7027 -0.4954
  569SOL    HW2 1707   2.645   1.306   2.692  1.7831 -1.1072  1.5582
  570SOL     OW 1708   2.907   2.927   1.501  0.0624 -0.6361  0.8296
  570SOL    HW1 1709   2.813   2.915   1.536 -2.5037  2.6750  0.8333
  570SOL    HW2 1710   2.922   2.867   1.422 -0.7357  2.0967  0.0442
  571SOL     OW 1711   0.266   0.745   1.788 -0.1487 -0.4659 -0.6873
  571SOL    HW1 1712   0.186   0.714   1.848  0.8210  1.0485  0.6629
  571SOL    HW2 1713   0.322   0.667   1.753  2.6600  0.9488  0.3636
  572SOL     OW 1714   2.882   2.376   0.742 -0.1380  0.0501  0.0707
  572SOL    HW1 1715   2.980   2.411   0.762  1.8017 -1.7315  2.6162
  572SOL    HW2 1716   2.847   2.311   0.813 -3.2519  0.0095  2.8994
  573SOL     OW 1717   0.850   0.700   0.064  0.6437 -0.3614 -0.1556
  573SOL    HW1 1718   0.797   0.656   3.082  1.1867 -2.1053  4.7581
  573SOL    HW2 1719   0.802   0.691   0.151  0.5093  1.2674 -0.9425
  574SOL     OW 1720   2.547   2.526   3.004 -0.3713  0.2638  0.0586
  574SOL    HW1 1721   2.624   2.596   3.016 -1.0294  2.3810  0.0021
  574SOL    HW2 1722   2.537   2.461   3.077  0.2371  2.9869 -0.4066
  575SOL     OW 1723   1.061   1.826   1.340 -0.5401  0.3584  0.6611
  575SOL    HW1 1724   1.071   1.830   1.236  2.4535  0.3498  0.8313
  575SOL    HW2 1725   1.114   1.907   1.379  0.3508  1.0579  3.8042
  576SOL     OW 1726   0.075   2.993   1.522  0.1890 -0.2288 -0.1476
  576SOL    HW1 1727   0.100   3.091   1.547 -0.2169 -0.6617  2.2208
  576SOL    HW2 1728   3.066   2.978   1.515 -1.0178  0.3397 -0.9909
  577SOL     OW 1729   1.977   1.235   1.598  0.4177  0.4413  0.3107
  577SOL    HW1 1730   1.991   1.299   1.677  0.2763  0.9974  1.0571
  577SOL    HW2 1731   1.895   1.264   1.554  0.5547 -1.1085  0.8752
  578SOL     OW 1732   1.443   0.151   0.048  0.3936  0.7487 -0.2295
  578SOL    HW1 1733   1.514   0.085   0.017 -1.0268 -1.0924  0.7103
  578SOL    HW2 1734   1.430   0.229   3.071 -0.7066  0.4860 -2.0685
  579SOL     OW 1735   2.707   1.701   2.311  0.1690  0.4955 -0.2363
  579SOL    HW1 1736   2.655   1.616   2.340 -1.1168 -0.3420  0.8839
  579SOL    HW2 1737   2.744   1.698   2.214  0.5495  1.4161 -1.0316
  580SOL     OW 1738   1.367   0.798   1.437 -0.2652 -0.2419  0.1246
  580SOL    HW1 1739   1.349   0.794   1.537 -0.9055  0.5556 -3.6163
  580SOL    HW2 1740   1.392   0.705   1.400  1.4744 -1.9910  0.6798
  581SOL     OW 1741   0.575   1.586   1.428 -0.4558 -0.9047  0.1957
  581SOL    HW1 1742   0.519   1.630   1.355 -0.5296 -0.5552 -1.8105
  581SOL    HW2 1743   0.653   1.650   1.459  1.8772  3.6480  3.4897
  582SOL     OW 1744   2.817   2.888   1.987  0.2673  0.1781 -0.1262
  582SOL    HW1 1745   2.867   2.971   2.027  1.1274  1.5187 -1.5988
  582SOL    HW2 1746   2.718   2.892   1.978  0.5630 -0.3554  0.0184
  583SOL     OW 1747   2.268   0.858   1.625  0.1883 -0.0310 -0.3643
  583SOL    HW1 1748   2.291   0.756   1.620  0.8700 -2.9083  0.3086
  583SOL    HW2 1749   2.325   0.900   1.696 -0.7642  0.4365 -0.7016
  584SOL     OW 1750   1.350   2.207   3.007  0.5318 -0.4212 -0.1524
  584SOL    HW1 1751   1.288   2.161   2.936 -1.6536 -1.3798 -1.5952
  584SOL    HW2 1752   1.290   2.261   3.071 -1.1953  1.1610 -0.8168
  585SOL     OW 1753   0.412   2.778   0.311  0.2658  0.4791  0.1436
  585SOL    HW1 1754   0.310   2.758   0.316 -0.2396  2.1578 -0.9475
  585SOL    HW2 1755   0.459   2.716   0.243 -0.1751 -0.4757 -0.7947
  586SOL     OW 1756   1.972   2.403   2.728  0.1465 -0.2742 -0.2189
  586SOL    HW1 1757   1.910   2.331   2.759  0.4093  0.7264 -0.5779
  586SOL    HW2 1758   1.939   2.441   2.642 -1.1838  0.7934 -0.7776
  587SOL     OW 1759   2.615   1.677   0.362  0.4925 -0.2440  0.1551
  587SOL    HW1 1760   2.651   1.762   0.323 -2.0075  1.3679 -0.2456
  587SOL    HW2 1761   2.512   1.681   0.365 -0.3509  1.2923  0.6165
  588SOL     OW 1762   2.106   0.215   1.049  0.0979 -0.5308 -0.0055
  588SOL    HW1 1763   2.027   0.247   0.991 -1.3135  1.1005 -3.1890
  588SOL    HW2 1764   2.158   0.130   1.013  0.8359  2.0546  1.2167
  589SOL     OW 1765   1.027   0.611   0.678 -0.4127 -0.2159  0.3518
  589SOL    HW1 1766   1.111   0.572   0.634  1.3064 -0.6680 -0.2213
  589SOL    HW2 1767   0.993   0.687   0.618  1.1495  2.2465 -1.1637
  590SOL     OW 1768   2.330   2.062   0.040  0.1482 -0.3277  0.3965
  590SOL    HW1 1769   2.330   2.136   3.059  0.1653  0.6586 -2.8526
  590SOL    HW2 1770   2.425   2.059   0.079 -2.5463  0.0759 -1.8469
  591SOL     OW 1771   0.158   2.545   1.530 -0.1487  0.1513  0.1579
  591SOL    HW1 1772   0.188   2.481   1.454 -0.9558  0.8967 -1.0107
  591SOL    HW2 1773   0.149   2.494   1.618  0.6349  0.1804 -0.7320
  592SOL     OW 1774   0.749   1.123   1.234  0.3635  0.2461  0.3073
  592SOL    HW1 1775   0.675   1.183   1.268 -3.0184 -1.8260 -0.0724
  592SOL    HW2 1776   0.836   1.124   1.290 -0.6628  1.2085 -0.4087
  593SOL     OW 1777   0.812   1.546   1.221 -0.0836  0.1867  0.3994
  593SOL    HW1 1778   0.888   1.481   1.231 -1.2028 -1.2039 -1.2911
  593SOL    HW2 1779   0.778   1.585   1.309  0.3402  1.1060  0.1639
  594SOL     OW 1780   0.376   1.828   2.995  0.0732 -0.1200  0.1217
  594SOL    HW1 1781   0.437   1.797   2.920 -0.2980  2.1862 -1.2483
  594SOL    HW2 1782   0.311   1.901   2.964 -2.5009 -2.0827 -1.5759
  595SOL     OW 1783   1.221   0.182   1.219  0.2992 -0.0977  0.8743
  595SOL    HW1 1784   1.202   0.233   1.129  0.8465  0.0375 -0.1159
  595SOL    HW2 1785   1.257   0.254   1.284  0.7187  0.8764 -0.2413
  596SOL     OW 1786   0.060   1.330   0.700 -0.1079  0.1052  0.4380
  596SOL    HW1 1787   0.003   1.257   0.737  0.3455 -0.1120 -2.0351
  596SOL    HW2 1788   0.139   1.287   0.651 -1.3405 -0.7161 -2.4438
  597SOL     OW 1789   0.188   2.390   2.933  0.4144  0.4004 -0.0749
  597SOL    HW1 1790   0.105   2.363   2.882 -0.9026 -1.2591  0.5845
  597SOL    HW2 1791   0.164   2.372   3.032  0.0391 -0.4601  1.3218
  598SOL     OW 1792   2.328   1.990   1.975  0.3955  0.6211  0.1965
  598SOL    HW1 1793   2.278   2.023   2.055  2.8082 -3.7242  0.6401
  598SOL    HW2 1794   2.412   2.046   1.957 -1.1767 -0.8156  0.4231
  599SOL     OW 1795   1.094   0.395   0.369 -0.1421 -0.1039 -0.0451
  599SOL    HW1 1796   1.076   0.471   0.301 -1.8843  0.7950  0.9967
  599SOL    HW2 1797   1.011   0.335   0.384  0.6211 -1.4946 -1.3021
  600SOL     OW 1798   0.526   2.768   0.542  0.2478 -0.2683 -0.4028
  600SOL    HW1 1799   0.485   2.791   0.451  1.9342  1.3021 -1.0429
  600SOL    HW2 1800   0.565   2.675   0.534  1.3452  0.8193  0.6925
  601SOL     OW 1801   0.284   1.007   1.243  0.0287  0.1902 -0.0511
  601SOL    HW1 1802   0.274   1.064   1.161  1.5915  1.0092  2.2693
  601SOL    HW2 1803   0.284   0.911   1.211 -1.1560  0.5737  1.3645
  602SOL     OW 1804   0.526   2.598   1.001  0.4425 -0.2613  0.5123
  602SOL    HW1 1805   0.509   2.512   0.943 -0.7161 -0.8759 -0.5106
  602SOL    HW2 1806   0.445   2.612   1.055  2.1020 -2.8418  0.5894
  603SOL     OW 1807   1.022   3.069   2.284 -0.1846 -0.4613 -0.1448
  603SOL    HW1 1808   0.919   3.063   2.285  0.1146  0.5230 -0.1892
  603SOL    HW2 1809   1.052   3.002   2.211 -1.3706  1.5983 -0.0896
  604SOL     OW 1810   0.737   2.852   2.495  0.3993 -0.6578  0.7081
  604SOL    HW1 1811   0.821   2.832   2.546 -0.5223  0.9088  0.1722
  604SOL    HW2 1812   0.755   2.942   2.448  2.1540 -0.4267 -0.9488
  605SOL     OW 1813   1.695   0.691   2.194 -0.4471  0.1007  0.1895
  605SOL    HW1 1814   1.640   0.726   2.117 -2.9346 -0.7154  1.0999
  605SOL    HW2 1815   1.793   0.700   2.169 -3.1283 -2.5483 -0.7533
  606SOL     OW 1816   2.285   0.160   2.809  0.5246 -0.8104 -0.1907
  606SOL    HW1 1817   2.234   0.241   2.850 -0.3909  0.8809 -1.6683
  606SOL    HW2 1818   2.301   0.178   2.707 -1.3361  1.8902 -1.7443
  607SOL     OW 1819   0.745   0.622   1.202  0.0903 -0.3039 -0.4482
  607SOL    HW1 1820   0.749   0.617   1.103 -1.0481 -0.8633  0.7387
  607SOL    HW2 1821   0.693   0.709   1.227 -2.9051 -0.8094 -3.5026
  608SOL     OW 1822   2.937   2.026   2.194 -0.2925  0.7427 -0.1721
  608SOL    HW1 1823   2.995   2.104   2.168 -0.6954 -0.2326 -0.6072
  608SOL    HW2 1824   2.835   2.054   2.190 -0.4609 -2.0555 -0.7141
  609SOL     OW 1825   1.916   0.711   3.065 -0.3385 -0.6493 -0.2281
  609SOL    HW1 1826   1.881   0.689   0.063  3.2212  1.2323 -1.8840
  609SOL    HW2 1827   1.925   0.811   3.054 -0.1208 -3.4811  3.5706
  610SOL     OW 1828   0.742   0.065   1.383  0.2371  0.3102 -0.3894
  610SOL    HW1 1829   0.685   3.077   1.364 -0.1062  2.6342 -1.6668
  610SOL    HW2 1830   0.802   0.087   1.303  1.4957  0.9571 -0.8699
  611SOL     OW 1831   1.597   0.617   0.442  0.4185 -0.3631  0.1122
  611SOL    HW1 1832   1.608   0.584   0.536 -0.5799  1.2963 -0.4691
  611SOL    HW2 1833   1.583   0.544   0.371 -3.3443  2.3890 -0.2360
  612SOL     OW 1834   1.797   0.565   2.873 -0.3007  0.2176  0.2539
  612SOL    HW1 1835   1.837   0.600   2.783  2.7503  2.1137 -0.3917
  612SOL    HW2 1836   1.854   0.612   2.948  2.0684  1.3955  1.5020
  613SOL     OW 1837   2.477   0.727   0.673  0.2644 -0.0583 -0.2382
  613SOL    HW1 1838   2.425   0.696   0.592 -0.9727  1.0534  1.6405
  613SOL    HW2 1839   2.499   0.650   0.738  2.4655 -3.2110 -3.4381
  614SOL     OW 1840   2.498   0.149   2.217  0.3678 -0.2686 -0.0899
  614SOL    HW1 1841   2.577   0.202   2.172 -0.5132  1.4607 -1.3302
  614SOL    HW2 1842   2.537   0.073   2.265  1.1313  3.3149 -0.3676
  615SOL     OW 1843   0.585   1.922   1.090  0.2666 -0.5895 -0.1947
  615SOL    HW1 1844   0.616   1.944   1.186 -1.3173  0.4070  2.8988
  615SOL    HW2 1845   0.492   1.963   1.066  0.1436 -1.0582 -3.2169
  616SOL     OW 1846   1.484   1.526   2.780  0.1970 -0.2532 -0.0962
  616SOL    HW1 1847   1.447   1.588   2.707 -0.6315 -0.9689 -2.8968
  616SOL    HW2 1848   1.509   1.439   2.739 -0.4531  1.2482  3.7278
  617SOL     OW 1849   1.792   3.070   0.125 -0.0430  0.1407  0.6422
  617SOL    HW1 1850   1.730   3.020   0.062 -0.3082  0.4368  0.2516
  617SOL    HW2 1851   1.879   0.010   0.083  1.4032  0.4705  1.1656
  618SOL     OW 1852   1.262   2.043   2.770 -0.0279  0.6021  0.1525
  618SOL    HW1 1853   1.265   2.062   2.669 -0.9443  0.6068  0.2982
  618SOL    HW2 1854   1.164   2.028   2.803 -0.7123  0.4989 -1.7865
  619SOL     OW 1855   2.674   1.160   0.780 -0.2524 -0.2653  0.4240
  619SOL    HW1 1856   2.664   1.253   0.743 -0.5293  1.1864  1.1622
  619SOL    HW2 1857   2.677   1.089   0.708  1.1483 -0.7124 -1.7093
  620SOL     OW 1858   2.236   2.871   2.325  0.3124  0.6276  0.5163
  620SOL    HW1 1859   2.218   2.770   2.332 -0.3891  0.0148 -1.8410
  620SOL    HW2 1860   2.196   2.925   2.409  0.5981  0.1229  1.6661
  621SOL     OW 1861   2.715   1.251   0.316  0.5823  0.3105 -0.2334
  621SOL    HW1 1862   2.696   1.153   0.342  0.2356 -1.2251  1.2846
  621SOL    HW2 1863   2.813   1.262   0.290 -0.1116 -0.9002 -1.7427
  622SOL     OW 1864   1.228   2.062   2.505  0.5439 -0.1193  0.3029
  622SOL    HW1 1865   1.145   2.013   2.473  2.3584 -0.5815 -1.6294
  622SOL    HW2 1866   1.318   2.027   2.473 -0.8028  2.3190 -0.7697
  623SOL     OW 1867   0.367   2.717   2.632  0.2243 -0.2743 -0.0998
  623SOL    HW1 1868   0.408   2.785   2.568 -1.4851 -1.3357  0.7687
  623SOL    HW2 1869   0.441   2.670   2.684 -2.9946 -3.2678 -0.8034
  624SOL     OW 1870   0.832   2.667   2.772  0.5614 -0.1977 -0.3821
  624SOL    HW1 1871   0.905   2.677   2.706 -0.7792 -1.1455 -0.0272
  624SOL    HW2 1872   0.814   2.756   2.827  0.0141  2.0976 -1.3430
  625SOL     OW 1873   0.511   2.157   2.513 -0.0320  0.0233  0.1506
  625SOL    HW1 1874   0.496   2.256   2.486  1.5377 -0.2099 -0.4368
  625SOL    HW2 1875   0.530   2.105   2.428  1.4351  0.9322 -1.2235
  626SOL     OW 1876   0.181   0.392   0.078 -0.2849  0.6390 -0.6738
  626SOL    HW1 1877   0.127   0.319   0.125 -0.1700 -0.0906 -1.2519
  626SOL    HW2 1878   0.145   0.403   3.077 -1.3762 -0.4968 -1.1353
  627SOL     OW 1879   1.949   1.731   3.070 -0.0606 -0.2960  0.1819
  627SOL    HW1 1880   1.967   1.662   3.000 -1.7020 -0.3308 -3.0838
  627SOL    HW2 1881   2.038   1.770   0.005  1.2333 -2.7102  2.5320
  628SOL     OW 1882   1.390   1.448   3.033 -0.1065  0.0961  0.0516
  628SOL    HW1 1883   1.425   1.350   3.037 -1.4985 -2.2820 -1.0870
  628SOL    HW2 1884   1.426   1.498   2.953  1.5031  0.3900 -0.6366
  629SOL     OW 1885   0.163   0.188   2.057 -0.4848  0.6468  0.0333
  629SOL    HW1 1886   0.183   0.098   2.016 -1.0876  0.2680 -0.9657
  629SOL    HW2 1887   0.251   0.229   2.091  1.0373 -0.9646 -1.4383
  630SOL     OW 1888   2.382   0.981   1.877 -0.0006 -0.2883 -0.8222
  630SOL    HW1 1889   2.417   1.010   1.969 -1.1236  0.0529  1.3814
  630SOL    HW2 1890   2.358   0.883   1.880  0.5074 -0.2350 -2.7627
  631SOL     OW 1891   1.529   2.998   0.825  0.6560  0.2923  0.4643
  631SOL    HW1 1892   1.437   3.043   0.830  1.6736  1.4724 -0.3440
  631SOL    HW2 1893   1.562   2.985   0.729 -0.7094  0.7887  2.3157
  632SOL     OW 1894   2.993   0.972   1.690 -0.8160  0.4421 -0.3142
  632SOL    HW1 1895   2.912   1.014   1.648  1.2925 -0.8360  2.6383
  632SOL    HW2 1896   2.983   0.870   1.688  0.3229  0.2882  0.2834
  633SOL     OW 1897   0.837   0.345   2.838 -0.0667  0.1224 -0.0639
  633SOL    HW1 1898   0.867   0.261   2.886 -0.8178  0.1347 -3.0464
  633SOL    HW2 1899   0.924   0.395   2.821  1.4513  1.8080  0.7092
  634SOL     OW 1900   0.345   2.423   0.075  0.3672 -0.2369  0.4040
  634SOL    HW1 1901   0.257   2.473   0.098  1.1208  2.9793  1.2560
  634SOL    HW2 1902   0.355   2.391   3.068  0.7696  1.3616 -1.0122
  635SOL     OW 1903   3.046   1.028   1.102  0.3760 -0.5855 -0.3562
  635SOL    HW1 1904   2.998   1.086   1.034  1.2189 -1.2969  1.9449
  635SOL    HW2 1905   3.064   0.939   1.059  0.6562 -0.4768 -0.6694
  636SOL     OW 1906   2.972   1.258   0.253 -0.9202 -0.0266 -0.3524
  636SOL    HW1 1907   2.976   1.282   0.156  1.1968 -1.5032  0.8565
  636SOL    HW2 1908   3.036   1.321   0.297 -1.0286 -0.6617 -2.3070
  637SOL     OW 1909   0.152   2.739   0.343  0.3655 -0.1679  0.5120
  637SOL    HW1 1910   0.073   2.738   0.273 -2.1833 -0.1290 -2.0244
  637SOL    HW2 1911   0.136   2.796   0.424 -1.2683 -1.0655 -2.8250
  638SOL     OW 1912   2.778   2.322   0.495 -0.5136 -0.5314  0.6079
  638SOL    HW1 1913   2.816   2.327   0.586 -0.0821 -0.5547 -3.1129
  638SOL    HW2 1914   2.681   2.300   0.502  1.9249  0.3559  1.2294
  639SOL     OW 1915   1.561   0.964   0.109  0.1707  0.4209  0.3512
  639SOL    HW1 1916   1.489   0.909   0.055 -2.2844  0.9672  0.0868
  639SOL    HW2 1917   1.570   0.929   0.206 -1.4200  1.9831  0.1735
  640SOL     OW 1918   1.772   2.469   1.540  0.6164  0.2159 -0.4888
  640SOL    HW1 1919   1.773   2.386   1.598  1.5489 -0.9745  0.6500
  640SOL    HW2 1920   1.725   2.447   1.454 -0.8385 -0.2570  0.2691
  641SOL     OW 1921   0.120   3.081   0.877  0.1486 -0.1804  0.0759
  641SOL    HW1 1922   0.130   0.018   0.785 -2.3288 -2.2160  2.9512
  641SOL    HW2 1923   0.124   0.064   0.945 -0.0086  1.0262  0.2716
  642SOL     OW 1924   1.303   0.789   1.704 -0.1342 -0.2502  0.6054
  642SOL    HW1 1925   1.344   0.715   1.756 -0.2272  1.3250 -0.6855
  642SOL    HW2 1926   1.334   0.881   1.740  0.6952  2.0669  2.7075
  643SOL     OW 1927   0.607   2.429   2.471  0.2648 -0.6635 -0.2036
  643SOL    HW1 1928   0.598   2.470   2.567 -3.0775 -0.9177 -1.3167
  643SOL    HW2 1929   0.693   2.467   2.428 -1.0685 -0.6862  0.3774
  644SOL     OW 1930   1.207   2.482   2.840  0.0556  0.0378  0.4434
  644SOL    HW1 1931   1.205   2.436   2.751  1.0927 -1.8877 -0.4672
  644SOL    HW2 1932   1.299   2.471   2.878  0.6246  2.2853 -1.9284
  645SOL     OW 1933   1.545   1.470   1.838 -0.0213 -0.1516  0.6814
  645SOL    HW1 1934   1.617   1.450   1.907 -0.6405 -1.4414  1.9181
  645SOL    HW2 1935   1.536   1.392   1.771  1.2906 -0.1767  0.3577
  646SOL     OW 1936   0.783   0.103   0.207 -0.2655  0.2137  0.1616
  646SOL    HW1 1937   0.708   0.116   0.273 -1.8301 -1.3579  0.8672
  646SOL    HW2 1938   0.751   0.036   0.137 -2.2073 -0.4504 -0.2086
  647SOL     OW 1939   0.897   0.049   0.624  0.2279 -0.4637  0.1704
  647SOL    HW1 1940   0.851   3.059   0.575 -2.5192 -3.0978  0.7459
  647SOL    HW2 1941   0.900   0.027   0.722  0.9436  1.3100  0.4233
  648SOL     OW 1942   2.563   2.640   1.124 -0.4434  0.6270 -0.5973
  648SOL    HW1 1943   2.543   2.733   1.094 -0.0922 -1.0529 -0.5732
  648SOL    HW2 1944   2.585   2.576   1.044 -0.1866 -0.8709 -0.0629
  649SOL     OW 1945   0.630   2.066   2.924 -0.1992 -0.0563  0.1189
  649SOL    HW1 1946   0.593   1.992   2.872  5.5115 -0.0506  0.4650
  649SOL    HW2 1947   0.647   2.030   3.020 -0.6920  2.2838  1.4858
  650SOL     OW 1948   2.052   1.837   2.005  0.3666 -0.2096  0.3538
  650SOL    HW1 1949   2.025   1.815   2.100 -0.5222  0.6806 -1.8396
  650SOL    HW2 1950   2.141   1.885   2.010 -0.4678  1.2454  2.5562
  651SOL     OW 1951   0.004   2.915   2.293 -0.3525 -0.6178 -0.2038
  651SOL    HW1 1952   0.058   3.000   2.308 -3.3178 -0.4191 -1.2948
  651SOL    HW2 1953   3.072   2.882   2.382  1.8407  1.5989  0.1348
  652SOL     OW 1954   2.753   1.726   0.578  0.2785  0.1276  0.0698
  652SOL    HW1 1955   2.698   1.783   0.637  1.4903  0.6287  0.7678
  652SOL    HW2 1956   2.711   1.691   0.495 -1.0828  0.1786 -0.1100
  653SOL     OW 1957   2.564   0.713   1.320  0.5937 -0.1009 -0.4105
  653SOL    HW1 1958   2.500   0.790   1.354 -1.1273  1.5526  0.2524
  653SOL    HW2 1959   2.525   0.621   1.296  1.1193 -0.4630 -0.0567
  654SOL     OW 1960   0.903   0.115   2.951  0.1047 -0.0398 -0.1493
  654SOL    HW1 1961   0.979   0.053   2.957  1.0535  0.9741 -0.5718
  654SOL    HW2 1962   0.821   0.078   3.000  0.4869 -1.4998 -0.8812
  655SOL     OW 1963   0.563   2.892   1.235 -0.1149 -0.4115  0.6768
  655SOL    HW1 1964   0.514   2.951   1.169 -0.8841  2.2998 -0.8409
  655SOL    HW2 1965   0.661   2.873   1.216  1.1534 -0.9103  0.6939
  656SOL     OW 1966   0.197   2.748   2.138 -0.5530 -0.0507 -0.1596
  656SOL    HW1 1967   0.280   2.777   2.189 -1.8950  1.0590  0.3996
  656SOL    HW2 1968   0.117   2.802   2.166  2.0085  0.0689  0.7046
  657SOL     OW 1969   2.458   0.453   0.303  0.3955  0.3909  0.2247
  657SOL    HW1 1970   2.417   0.509   0.377 -0.5506  1.4971 -1.3061
  657SOL    HW2 1971   2.525   0.503   0.247  0.6766 -1.2675 -0.9504
  658SOL     OW 1972   1.980   1.603   1.148  0.1233 -0.0177  0.5939
  658SOL    HW1 1973   2.062   1.539   1.156 -2.4662 -0.5938 -0.5461
  658SOL    HW2 1974   2.016   1.701   1.136  0.1177  3.4430 -0.1813
  659SOL     OW 1975   2.724   2.243   2.670 -0.0864 -1.0315  0.0878
  659SOL    HW1 1976   2.670   2.332   2.684  1.7493  0.4081  1.5502
  659SOL    HW2 1977   2.734   2.191   2.757  1.1768  1.1130  0.2615
  660SOL     OW 1978   1.179   0.047   0.090 -0.0340  0.2050 -0.0814
  660SOL    HW1 1979   1.278   0.084   0.083  3.1717 -0.4610  0.4270
  660SOL    HW2 1980   1.114   0.123   0.109 -2.9837 -0.2249 -1.4891
  661SOL     OW 1981   2.397   0.036   0.280  0.0722  0.6931 -0.2280
  661SOL    HW1 1982   2.300   0.053   0.301  0.8609 -0.9275  2.5549
  661SOL    HW2 1983   2.452   0.120   0.286 -2.1307 -0.8157 -2.4362
  662SOL     OW 1984   0.428   0.255   1.044 -0.2747 -0.1218 -0.4424
  662SOL    HW1 1985   0.503   0.208   0.994 -0.1472  0.2177  0.2139
  662SOL    HW2 1986   0.375   0.189   1.096 -0.8816  2.4240 -0.5041
  663SOL     OW 1987   1.410   2.973   2.500 -0.6949 -0.6623  0.2367
  663SOL    HW1 1988   1.329   3.031   2.480  0.3596  1.2778 -1.2932
  663SOL    HW2 1989   1.459   2.952   2.413 -0.4753  0.0921 -0.3691
  664SOL     OW 1990   0.735   2.351   1.653 -0.5046  0.0249 -0.1929
  664SOL    HW1 1991   0.690   2.368   1.564  0.6970  0.5665  0.8863
  664SOL    HW2 1992   0.788   2.434   1.676 -1.2678 -0.9311 -1.0158
  665SOL     OW 1993   0.748   2.463   2.013  0.2401 -0.0243 -0.1401
  665SOL    HW1 1994   0.739   2.367   1.980 -0.4748 -0.2654  0.3463
  665SOL    HW2 1995   0.845   2.493   2.006  0.2303  1.4630  0.9387
  666SOL     OW 1996   0.140   2.877   2.596 -0.6236  0.0658  0.2565
  666SOL    HW1 1997   0.154   2.980   2.596 -1.9493 -0.0865  0.5241
  666SOL    HW2 1998   0.230   2.826   2.607  1.5389 -0.4692  0.9854
  667SOL     OW 1999   1.466   1.557   1.505  0.2201 -0.0286 -0.0132
  667SOL    HW1 2000   1.363   1.582   1.503  0.6812 -0.1977 -0.5117
  667SOL    HW2 2001   1.524   1.589   1.428  1.7609  1.5956 -1.1980
  668SOL     OW 2002   1.251   0.410   1.866  0.6973 -0.1600  0.7695
  668SOL    HW1 2003   1.222   0.345   1.937  0.5017  1.0595 -1.8420
  668SOL    HW2 2004   1.182   0.426   1.788  0.4238  0.1696 -0.6926
  669SOL     OW 2005   2.664   2.426   1.272 -0.5188  0.1145  0.6309
  669SOL    HW1 2006   2.634   2.511   1.226  1.1734 -0.1273 -1.4099
  669SOL    HW2 2007   2.585   2.379   1.321 -0.2815 -0.9073 -1.7119
  670SOL     OW 2008   1.457   2.442   2.952  0.2893  0.4168 -0.4275
  670SOL    HW1 2009   1.422   2.346   2.948 -2.0134  1.3998 -0.0814
  670SOL    HW2 2010   1.498   2.463   3.044  1.6182  0.1351  0.3463
  671SOL     OW 2011   1.271   1.068   0.656  0.2198  0.4516  0.5611
  671SOL    HW1 2012   1.290   1.065   0.754  1.7151 -0.7353 -2.4438
  671SOL    HW2 2013   1.286   0.977   0.610 -0.8228 -0.1921  0.4295
  672SOL     OW 2014   3.047   1.210   2.609  0.3202 -0.5171 -0.4042
  672SOL    HW1 2015   2.958   1.159   2.592 -3.4726 -1.7852 -0.5231
  672SOL    HW2 2016   3.063   1.211   2.710 -0.0934  0.5287  0.9029
  673SOL     OW 2017   0.109   1.932   1.571 -0.3914 -0.4339  0.0025
  673SOL    HW1 2018   0.014   1.963   1.543 -1.5081 -1.0178 -0.7566
  673SOL    HW2 2019   0.120   1.839   1.533  0.2252 -1.5291  0.9377
  674SOL     OW 2020   0.488   2.768   2.208 -0.4670  0.0507 -0.4936
  674SOL    HW1 2021   0.459   2.699   2.276 -0.0849  4.1289  0.2678
  674SOL    HW2 2022   0.526   2.730   2.118 -0.7792 -0.0348  0.0248
  675SOL     OW 2023   0.741   1.052   1.739  0.0454  0.0719 -0.3043
  675SOL    HW1 2024   0.664   1.083   1.680 -1.1839 -0.5200 -0.6670
  675SOL    HW2 2025   0.707   1.061   1.835  0.4185  1.8083  1.0560
  676SOL     OW 2026   2.521   0.390   1.028  0.1365 -0.1719  0.1405
  676SOL    HW1 2027   2.528   0.490   1.004  0.7690 -2.3245  0.4354
  676SOL    HW2 2028   2.504   0.388   1.130 -0.2572  0.9531 -2.0574
  677SOL     OW 2029   2.324   1.535   3.080 -0.2443 -0.7584  0.6509
  677SOL    HW1 2030   2.226   1.536   3.072  0.0857  1.2642 -0.0137
  677SOL    HW2 2031   2.364   1.490   2.996 -1.5802  0.1687 -2.3009
  678SOL     OW 2032   2.872   0.745   1.304  0.6184 -0.3615 -0.0411
  678SOL    HW1 2033   2.778   0.746   1.263 -0.4781 -2.6142 -0.2768
  678SOL    HW2 2034   2.913   0.839   1.313 -2.0611 -1.3579  1.1382
  679SOL     OW 2035   2.591   0.205   0.331 -0.7485  0.2164 -0.0233
  679SOL    HW1 2036   2.622   0.180   0.423  0.7942  0.7670 -2.7612
  679SOL    HW2 2037   2.583   0.306   0.320  2.4753 -0.2424  1.0129
  680SOL     OW 2038   0.178   1.652   2.011 -0.1390  0.3209 -0.4238
  680SOL    HW1 2039   0.262   1.690   2.043  0.3877 -1.4898  0.6990
  680SOL    HW2 2040   0.118   1.618   2.089  0.1480 -0.5554  0.5667
  681SOL     OW 2041   2.433   2.079   1.059  0.4378 -0.0243  0.0485
  681SOL    HW1 2042   2.331   2.089   1.073 -1.0861  1.2281  0.4113
  681SOL    HW2 2043   2.469   1.987   1.050  0.5016  1.1520  2.6088
  682SOL     OW 2044   2.883   1.865   2.442  0.8827  0.1037 -0.8855
  682SOL    HW1 2045   2.825   1.803   2.384 -0.7400  0.2162  4.0984
  682SOL    HW2 2046   2.936   1.930   2.389 -2.3094  1.5136  1.0841
  683SOL     OW 2047   0.267   2.137   1.603 -0.3716  0.9042 -0.4844
  683SOL    HW1 2048   0.256   2.194   1.521  1.4782 -0.3099  0.9504
  683SOL    HW2 2049   0.223   2.042   1.590 -1.0225  0.7933 -0.2812
  684SOL     OW 2050   2.996   1.046   2.211  0.0696  0.5500 -0.6403
  684SOL    HW1 2051   3.014   0.999   2.124 -0.0380 -0.2679  1.0589
  684SOL    HW2 2052   3.036   1.138   2.204  0.0032  0.9335 -3.3299
  685SOL     OW 2053   1.491   1.159   0.535  0.0572  0.1600  0.3598
  685SOL    HW1 2054   1.404   1.136   0.588 -0.2904 -0.0176 -1.4021
  685SOL    HW2 2055   1.570   1.098   0.567  3.4807  0.8688  0.9320
  686SOL     OW 2056   0.472   0.110   0.625  0.0296  0.3560  0.4998
  686SOL    HW1 2057   0.475   0.011   0.654  0.7444 -3.7640  0.9524
  686SOL    HW2 2058   0.383   0.146   0.653 -3.3405 -1.2569  0.7723
  687SOL     OW 2059   1.308   1.713   2.566 -0.1897 -0.3305  0.1943
  687SOL    HW1 2060   1.268   1.721   2.656  2.0716  0.9347 -0.5851
  687SOL    HW2 2061   1.406   1.726   2.557  1.3210  2.1348  2.0340
  688SOL     OW 2062   1.454   1.316   1.614 -0.0333  0.3882  0.0516
  688SOL    HW1 2063   1.444   1.404   1.567 -1.0730  0.2757 -2.5206
  688SOL    HW2 2064   1.362   1.295   1.653 -1.3252 -0.8774  0.4597
  689SOL     OW 2065   2.261   0.028   0.885 -0.6170  0.2470 -0.4034
  689SOL    HW1 2066   2.198   0.038   0.809 -0.2403  0.2150  1.6198
  689SOL    HW2 2067   2.254   3.029   0.928  0.8392 -0.6355 -2.6962
  690SOL     OW 2068   0.154   1.384   1.053 -0.2883 -0.7047 -0.5559
  690SOL    HW1 2069   0.085   1.393   0.982 -0.0365 -0.3078  0.4303
  690SOL    HW2 2070   0.136   1.314   1.132  2.9079 -1.1111  0.9983
  691SOL     OW 2071   0.123   2.089   1.126 -0.2299 -0.0858 -0.4323
  691SOL    HW1 2072   0.024   2.072   1.149  0.5699  0.1472  1.4256
  691SOL    HW2 2073   0.147   2.187   1.110  1.5223  1.4159 -0.6170
  692SOL     OW 2074   2.110   0.484   1.520 -0.8210 -0.3541  0.2981
  692SOL    HW1 2075   2.113   0.440   1.426 -0.6807 -0.2827  0.8070
  692SOL    HW2 2076   2.199   0.517   1.548 -1.3965  0.9179  1.0560
  693SOL     OW 2077   0.583   1.762   2.376 -0.0312 -0.3893  0.5780
  693SOL    HW1 2078   0.565   1.843   2.320 -1.5605 -0.6656 -0.6414
  693SOL    HW2 2079   0.638   1.788   2.461  2.2111 -1.0211 -0.6903
  694SOL     OW 2080   1.463   1.410   1.247 -0.1275 -0.5505 -0.4135
  694SOL    HW1 2081   1.524   1.486   1.278  1.0663  1.0006  1.4251
  694SOL    HW2 2082   1.368   1.434   1.279  1.1433 -1.4870  1.2986
  695SOL     OW 2083   0.940   1.379   0.782  0.1707 -0.0942  0.2912
  695SOL    HW1 2084   1.017   1.436   0.811 -1.0215 -0.0606 -2.7466
  695SOL    HW2 2085   0.851   1.432   0.775  0.5876 -2.3500 -0.7778
  696SOL     OW 2086   0.803   2.799   0.242  0.1941  0.1577  0.0798
  696SOL    HW1 2087   0.753   2.747   0.169 -1.0863  0.2989  1.5751
  696SOL    HW2 2088   0.876   2.863   0.210  0.1881  0.2693 -0.6888
  697SOL     OW 2089   1.488   0.535   1.378 -0.3226  0.4894  0.2955
  697SOL    HW1 2090   1.572   0.517   1.427  1.2331  2.0369 -0.1314
  697SOL    HW2 2091   1.421   0.458   1.390 -0.2134  0.3180  0.5663
  698SOL     OW 2092   1.606   1.698   2.076  0.3211 -0.2329 -0.2066
  698SOL    HW1 2093   1.674   1.630   2.044  0.3996  1.5117 -1.7939
  698SOL    HW2 2094   1.555   1.739   1.999  2.0489 -1.7756 -1.3166
  699SOL     OW 2095   2.542   0.581   1.919  0.1335  0.0967 -0.0722
  699SOL    HW1 2096   2.588   0.602   2.004  0.5321 -0.5980  0.7629
  699SOL    HW2 2097   2.600   0.519   1.861  0.5289  0.0768  1.8647
  700SOL     OW 2098   1.226   2.215   0.585  0.0656 -0.2898  0.2127
  700SOL    HW1 2099   1.299   2.211   0.516  1.9774  0.7628  0.5394
  700SOL    HW2 2100   1.156   2.137   0.570 -0.1577 -2.7243 -1.5188
  701SOL     OW 2101   2.473   2.799   2.192 -0.1614  0.1101  0.5021
  701SOL    HW1 2102   2.510   2.702   2.172  0.6178 -1.4051  0.0521
  701SOL    HW2 2103   2.370   2.795   2.218  1.0823  0.7401  0.0321
  702SOL     OW 2104   0.797   2.927   0.488  0.4895  0.4404 -0.2941
  702SOL    HW1 2105   0.778   2.851   0.559 -0.8672 -3.1355  3.2986
  702SOL    HW2 2106   0.780   2.900   0.392  0.3192  0.4273  1.6503
  703SOL     OW 2107   2.279   3.075   2.156 -0.2298  0.3699  0.6665
  703SOL    HW1 2108   2.292   3.025   2.246 -0.8412 -0.9898 -2.0257
  703SOL    HW2 2109   2.357   0.043   2.131  0.3213 -2.2641 -3.0033
  704SOL     OW 2110   2.532   2.123   0.193 -0.1062  0.2303 -0.5407
  704SOL    HW1 2111   2.480   2.133   0.283 -0.8096  1.3471  1.3949
  704SOL    HW2 2112   2.554   2.216   0.154  0.9531  2.4527 -0.2821
  705SOL     OW 2113   2.549   2.567   2.113 -0.1853 -0.0798 -0.3587
  705SOL    HW1 2114   2.634   2.514   2.111 -1.5388 -0.8276 -2.0404
  705SOL    HW2 2115   2.482   2.531   2.046  0.9537  1.4064  1.4954
  706SOL     OW 2116   2.549   0.021   1.085  0.3311 -0.0935 -0.0238
  706SOL    HW1 2117   2.522   0.105   1.038  0.5614 -3.1415  2.5511
  706SOL    HW2 2118   2.553   0.048   1.187  2.0648  0.0740  1.5081
  707SOL     OW 2119   0.858   0.295   2.487  0.1117 -0.2555 -0.3550
  707SOL    HW1 2120   0.870   0.242   2.574  0.2182  0.9260  0.2509
  707SOL    HW2 2121   0.761   0.306   2.462 -1.0550  1.0411  0.4975
  708SOL     OW 2122   0.171   2.139   1.869  0.1261 -0.4090  0.5692
  708SOL    HW1 2123   0.222   2.142   1.779  2.4097 -1.1072  1.8940
  708SOL    HW2 2124   0.125   2.048   1.869  1.7223 -0.3645  0.9250
  709SOL     OW 2125   1.355   0.149   1.574  0.6620  0.0130  0.2602
  709SOL    HW1 2126   1.412   0.167   1.659  1.7888 -1.0989  3.6974
  709SOL    HW2 2127   1.413   0.085   1.520  4.9897 -0.1572  1.9458
  710SOL     OW 2128   1.474   2.858   2.743  0.6039  0.5209  0.1699
  710SOL    HW1 2129   1.493   2.936   2.803 -1.5719 -1.4428  1.0542
  710SOL    HW2 2130   1.441   2.888   2.650  1.5373  2.2431 -1.1967
  711SOL     OW 2131   0.947   2.229   2.712 -0.1594 -0.3429  0.7773
  711SOL    HW1 2132   0.911   2.296   2.780 -2.1117  0.0400  0.0637
  711SOL    HW2 2133   1.039   2.261   2.673 -0.5019 -0.1081  0.1173
  712SOL     OW 2134   1.006   2.018   2.863 -0.8155 -0.6036 -0.2899
  712SOL    HW1 2135   0.969   2.089   2.801  1.7084  0.4444 -1.3593
  712SOL    HW2 2136   0.950   2.024   2.948  1.0772 -0.2963 -1.4532
  713SOL     OW 2137   2.146   1.163   1.920  0.1451  0.0567  0.0321
  713SOL    HW1 2138   2.186   1.252   1.944 -0.0196 -1.6196 -0.9859
  713SOL    HW2 2139   2.218   1.094   1.894  0.7083 -0.7028 -1.0990
  714SOL     OW 2140   0.944   1.310   2.079  0.4389  0.5108 -0.7361
  714SOL    HW1 2141   0.847   1.322   2.038 -1.0456 -0.1935 -1.4638
  714SOL    HW2 2142   0.950   1.215   2.115  0.8893  0.8491 -2.1047
  715SOL     OW 2143   2.883   0.501   0.325  0.2221  0.9489 -0.3936
  715SOL    HW1 2144   2.935   0.418   0.350  0.9475 -2.6858 -1.1878
  715SOL    HW2 2145   2.798   0.503   0.385 -3.1785  0.3219  0.7080
  716SOL     OW 2146   2.850   2.469   1.594  0.3489  0.0607 -0.8413
  716SOL    HW1 2147   2.762   2.427   1.613  2.2522  1.1843  0.3244
  716SOL    HW2 2148   2.870   2.534   1.669  4.2252  0.5557 -1.6481
  717SOL     OW 2149   2.317   0.835   0.871 -0.8194  0.1215  0.1060
  717SOL    HW1 2150   2.243   0.898   0.842  2.6450 -0.2971 -0.3807
  717SOL    HW2 2151   2.377   0.805   0.798 -1.0696 -0.6342  2.4217
  718SOL     OW 2152   1.205   1.621   1.525 -0.5042 -0.3723  0.5246
  718SOL    HW1 2153   1.158   1.621   1.615  0.4519  2.0443  0.6799
  718SOL    HW2 2154   1.179   1.704   1.467 -2.2014  2.4282 -5.0682
  719SOL     OW 2155   3.036   0.138   2.697 -0.0781  0.2712  0.1466
  719SOL    HW1 2156   2.945   0.094   2.672 -1.7430  0.6038 -1.6077
  719SOL    HW2 2157   0.000   0.078   2.755  0.9423  1.5466 -0.2469
  720SOL     OW 2158   0.851   0.335   0.960  0.0433 -0.4414  0.1530
  720SOL    HW1 2159   0.911   0.315   0.883  0.3411 -0.1461  1.3293
  720SOL    HW2 2160   0.823   0.431   0.947  0.5793  0.0024  0.0668
  721SOL     OW 2161   2.979   0.762   0.393 -0.2401  0.6299 -0.2812
  721SOL    HW1 2162   2.961   0.661   0.396  3.9251 -0.9701 -0.7854
  721SOL    HW2 2163   2.916   0.802   0.327  0.2775 -1.2332 -0.8750
  722SOL     OW 2164   0.722   2.163   2.168  0.6000 -0.0627  0.1381
  722SOL    HW1 2165   0.770   2.161   2.078  0.9809  1.5706 -0.0943
  722SOL    HW2 2166   0.743   2.242   2.222 -0.1169 -0.7848 -0.9171
  723SOL     OW 2167   1.680   2.991   1.221  0.2944  0.9312  0.3256
  723SOL    HW1 2168   1.682   3.050   1.137  0.1538 -0.1196  0.2274
  723SOL    HW2 2169   1.771   2.971   1.258 -2.7067  1.0257  1.9772
  724SOL     OW 2170   1.650   1.917   1.747 -0.3439  0.6439 -0.2080
  724SOL    HW1 2171   1.631   1.981   1.822 -1.2500  1.4420  2.5511
  724SOL    HW2 2172   1.605   1.826   1.759  0.3424  3.1077 -0.9301
  725SOL     OW 2173   1.106   2.496   1.269 -0.0028  0.1557 -0.5395
  725SOL    HW1 2174   1.041   2.554   1.322  0.6112 -1.1450 -2.6575
  725SOL    HW2 2175   1.094   2.505   1.169 -0.6294 -1.6874 -0.2196
  726SOL     OW 2176   1.937   2.817   0.078  0.0067  0.2388  0.1930
  726SOL    HW1 2177   1.865   2.765   0.030 -0.6900  2.6746 -1.6981
  726SOL    HW2 2178   1.902   2.883   0.147  2.3892  1.3219 -0.1714
  727SOL     OW 2179   1.519   1.738   0.926 -0.2412 -0.0903 -0.1776
  727SOL    HW1 2180   1.602   1.695   0.970 -2.3395 -1.3468  2.2056
  727SOL    HW2 2181   1.438   1.698   0.978  1.1582  1.1328 -0.4406
  728SOL     OW 2182   1.927   2.656   1.961 -0.3058 -0.0573  0.3558
  728SOL    HW1 2183   1.953   2.641   2.061  0.9534 -0.6549 -1.7188
  728SOL    HW2 2184   1.928   2.752   1.940  0.2029 -2.8753 -1.3613
  729SOL     OW 2185   1.946   2.445   1.242  0.6835 -0.1521  0.1002
  729SOL    HW1 2186   1.879   2.368   1.256 -1.3451  0.2973  0.5358
  729SOL    HW2 2187   2.040   2.414   1.236 -1.6403  0.3346  2.3468
  730SOL     OW 2188   1.676   1.047   2.451  0.6401 -0.4133 -0.3480
  730SOL    HW1 2189   1.603   1.022   2.388  0.6366  1.8915  0.4507
  730SOL    HW2 2190   1.664   0.994   2.541  2.1765 -1.1929  3.4008
  731SOL     OW 2191   0.829   2.815   1.243 -0.0313  0.4823 -0.4365
  731SOL    HW1 2192   0.926   2.852   1.245 -1.6869 -1.6836  1.0214
  731SOL    HW2 2193   0.824   2.746   1.318 -1.3851  0.6067  4.6000
  732SOL     OW 2194   1.150   2.979   0.876 -0.1743 -0.2238  0.1570
  732SOL    HW1 2195   1.173   2.923   0.795 -0.1733  0.8472  1.1183
  732SOL    HW2 2196   1.186   2.950   0.965 -1.2015  1.3778  0.0379
  733SOL     OW 2197   1.022   1.220   0.589  0.1006  0.0492 -0.3995
  733SOL    HW1 2198   1.001   1.287   0.667  1.2094 -0.4460  2.1144
  733SOL    HW2 2199   1.117   1.180   0.601  2.3814 -0.3227 -2.3374
  734SOL     OW 2200   2.539   2.058   2.571 -0.1238 -0.5808  0.0043
  734SOL    HW1 2201   2.621   2.116   2.573  0.3350 -2.3036  0.5011
  734SOL    HW2 2202   2.547   1.982   2.504 -2.1761  1.6403 -0.7337
  735SOL     OW 2203   0.673   0.123   0.979 -0.0086 -0.0558 -0.5260
  735SOL    HW1 2204   0.734   0.052   0.946 -0.2632 -0.8175  1.0358
  735SOL    HW2 2205   0.721   0.213   0.978  2.5458  0.8962  2.2970
  736SOL     OW 2206   1.571   2.226   2.681  0.1892  0.1672  0.1495
  736SOL    HW1 2207   1.613   2.221   2.588  0.5156 -1.2818 -1.5779
  736SOL    HW2 2208   1.646   2.220   2.754  1.5749  0.2934  0.7699
  737SOL     OW 2209   0.891   2.600   1.414 -0.2935 -0.4179 -0.7346
  737SOL    HW1 2210   0.823   2.522   1.417 -1.4542 -1.1332  1.5725
  737SOL    HW2 2211   0.916   2.623   1.510 -0.9658 -0.1040 -0.2822
  738SOL     OW 2212   1.886   2.876   2.403  0.3992 -0.1295 -0.0595
  738SOL    HW1 2213   1.882   2.967   2.442 -0.7847  0.4623 -0.2501
  738SOL    HW2 2214   1.854   2.805   2.471 -3.1205 -0.6507  0.3820
  739SOL     OW 2215   1.402   2.478   2.163  0.1167 -0.2149  0.5881
  739SOL    HW1 2216   1.332   2.414   2.201  0.7230 -1.4747  0.0883
  739SOL    HW2 2217   1.475   2.423   2.116  1.3090  0.6868  0.4895
  740SOL     OW 2218   1.383   2.468   1.341 -0.1619 -0.3572 -0.2454
  740SOL    HW1 2219   1.286   2.477   1.315 -0.7920 -2.0126 -1.0426
  740SOL    HW2 2220   1.400   2.552   1.400 -0.8040  2.2001  1.6747
  741SOL     OW 2221   2.620   1.015   0.052 -0.0964  0.0233 -0.2630
  741SOL    HW1 2222   2.557   1.096   0.056 -0.3340  0.0169 -2.8806
  741SOL    HW2 2223   2.598   0.948   0.124 -1.3330 -1.2107  1.5474
  742SOL     OW 2224   0.560   1.803   2.764  0.1296  0.1729  0.4260
  742SOL    HW1 2225   0.478   1.830   2.708 -0.7657 -0.9331  0.5595
  742SOL    HW2 2226   0.644   1.787   2.711 -0.3896 -0.1769  0.7650
  743SOL     OW 2227   0.279   1.014   2.655  0.6619 -0.2397 -0.2742
  743SOL    HW1 2228   0.369   0.993   2.695 -2.7340  0.7246 -2.9366
  743SOL    HW2 2229   0.209   1.007   2.733  2.8149  0.4771  0.7980
  744SOL     OW 2230   2.295   2.528   0.938 -0.9790 -0.4037 -0.3296
  744SOL    HW1 2231   2.285   2.590   1.021  0.9011 -0.6656 -0.1038
  744SOL    HW2 2232   2.229   2.544   0.861  1.2497  0.8456 -0.9915
  745SOL     OW 2233   2.213   1.788   1.459  0.5773  0.2857 -1.6660
  745SOL    HW1 2234   2.276   1.771   1.384 -0.1861 -3.9329 -1.0268
  745SOL    HW2 2235   2.153   1.863   1.431  1.1891 -0.9621 -1.5759
  746SOL     OW 2236   2.118   0.999   0.749 -0.4781  0.0371 -0.2000
  746SOL    HW1 2237   2.063   0.917   0.718  0.6109  0.1882  1.6450
  746SOL    HW2 2238   2.071   1.056   0.815  0.4293 -1.8955 -4.8201
  747SOL     OW 2239   1.491   2.018   0.768 -0.2065  0.1708 -0.2775
  747SOL    HW1 2240   1.472   1.921   0.738  1.8551 -0.6163 -2.4490
  747SOL    HW2 2241   1.575   2.053   0.718  0.1847 -0.4185 -0.7634
  748SOL     OW 2242   0.570   1.810   0.656 -0.4418  0.1060  0.4657
  748SOL    HW1 2243   0.573   1.820   0.551 -0.8986 -2.2553 -1.0373
  748SOL    HW2 2244   0.515   1.879   0.704 -0.7687 -1.4402 -0.5347
  749SOL     OW 2245   2.902   3.065   2.212 -0.3046  0.5821 -0.4750
  749SOL    HW1 2246   2.938   0.061   2.178 -2.1533 -0.0734 -1.1983
  749SOL    HW2 2247   2.977   3.001   2.238  0.3698 -0.4938 -1.1218
  750SOL     OW 2248   1.746   0.361   1.208  0.1753  0.4941  0.0758
  750SOL    HW1 2249   1.767   0.358   1.106  1.9174  1.6541 -2.1559
  750SOL    HW2 2250   1.747   0.459   1.233 -0.2872 -1.3529 -2.6360
  751SOL     OW 2251   1.728   2.701   3.058  0.8424 -0.1277  0.3630
  751SOL    HW1 2252   1.635   2.735   3.083 -1.2718 -1.3031  0.1839
  751SOL    HW2 2253   1.725   2.622   2.990  1.0310 -2.4680 -1.3995
  752SOL     OW 2254   1.853   2.000   0.254 -0.0744 -0.1481 -0.5342
  752SOL    HW1 2255   1.768   1.946   0.236 -0.0332 -3.8628 -1.8374
  752SOL    HW2 2256   1.864   2.069   0.179  1.0953  3.6032 -0.4915
  753SOL     OW 2257   1.813   1.049   2.220  0.0473 -0.2152 -0.2267
  753SOL    HW1 2258   1.781   1.066   2.317  0.1091  0.2616  3.1975
  753SOL    HW2 2259   1.884   0.978   2.216 -1.5278  1.5991 -0.6467
  754SOL     OW 2260   0.038   2.654   0.879  0.1092 -0.3739 -0.0130
  754SOL    HW1 2261   0.086   2.740   0.906  1.1775  1.7904  0.6107
  754SOL    HW2 2262   3.034   2.676   0.843 -3.2166  2.5739  0.5172
  755SOL     OW 2263   2.050   0.597   0.929 -0.3809 -0.5535 -0.6140
  755SOL    HW1 2264   2.113   0.613   0.847 -0.8509 -0.1330 -2.3819
  755SOL    HW2 2265   2.026   0.692   0.971 -2.8451  1.7433 -0.1946
  756SOL     OW 2266   1.144   1.448   2.951  0.4066 -0.7867 -0.1647
  756SOL    HW1 2267   1.099   1.536   2.919 -1.8444  0.5770 -2.2942
  756SOL    HW2 2268   1.240   1.464   2.984 -0.3196  1.0917  1.1193
  757SOL     OW 2269   2.201   2.861   1.278  0.2474 -0.3513  0.0002
  757SOL    HW1 2270   2.232   2.761   1.283  0.8075  0.2405  0.5236
  757SOL    HW2 2271   2.269   2.918   1.330  0.9442  2.1957  1.9682
  758SOL     OW 2272   0.885   2.581   1.699 -0.4837  0.0023  0.6533
  758SOL    HW1 2273   0.799   2.634   1.699  0.4724 -3.8444 -0.7460
  758SOL    HW2 2274   0.933   2.587   1.790 -2.8243 -0.8835  1.1755
  759SOL     OW 2275   2.181   1.407   1.195  0.2115  0.3071 -0.4354
  759SOL    HW1 2276   2.267   1.420   1.145  0.0309 -0.3770  2.1433
  759SOL    HW2 2277   2.188   1.374   1.287 -2.0721 -0.2593 -1.6442
  760SOL     OW 2278   2.011   0.923   1.573  0.3087 -0.5644 -0.3455
  760SOL    HW1 2279   1.994   1.015   1.615  1.2454  1.0169  1.3409
  760SOL    HW2 2280   2.105   0.885   1.597  2.6503  0.6409 -1.9962
  761SOL     OW 2281   2.016   3.037   0.434 -0.0504  0.8380 -0.0653
  761SOL    HW1 2282   2.043   3.071   0.527  0.3252 -3.3150 -0.1684
  761SOL    HW2 2283   1.976   2.942   0.445 -0.2603  0.7366 -0.0451
  762SOL     OW 2284   1.926   2.191   0.075 -0.1997  0.2872 -0.3951
  762SOL    HW1 2285   1.972   2.176   3.078  2.1275 -1.6267  0.6494
  762SOL    HW2 2286   1.876   2.278   0.078  0.3147 -1.3794 -3.9521
  763SOL     OW 2287   0.602   1.078   0.990 -0.2449 -0.4566  0.0323
  763SOL    HW1 2288   0.649   0.998   0.939  1.3941 -0.8903 -2.0239
  763SOL    HW2 2289   0.638   1.096   1.084  0.9248  2.8515  2.2685
  764SOL     OW 2290   2.802   2.165   2.929 -0.1004  0.4625 -0.6441
  764SOL    HW1 2291   2.814   2.207   3.023  0.8056  1.8062  0.4675
  764SOL    HW2 2292   2.861   2.087   2.902  0.0042  2.0937 -3.2623
  765SOL     OW 2293   0.842   0.152   2.048 -0.5298 -0.2672  0.3167
  765SOL    HW1 2294   0.913   0.176   2.113 -1.1351 -0.1855 -1.2639
  765SOL    HW2 2295   0.850   0.199   1.958  2.9765  0.7174 -1.0981
  766SOL     OW 2296   0.102   1.242   2.357 -0.4414  0.1246  0.5728
  766SOL    HW1 2297   0.068   1.195   2.439  2.5108 -1.4295  0.6109
  766SOL    HW2 2298   0.082   1.338   2.360 -1.6860 -1.2702  3.1924
  767SOL     OW 2299   3.053   1.667   1.638 -0.9019  0.6177  0.2652
  767SOL    HW1 2300   2.957   1.674   1.670 -0.8803 -2.6517 -4.4488
  767SOL    HW2 2301   3.057   1.689   1.539 -0.9880  0.9111 -0.8226
  768SOL     OW 2302   1.052   0.758   2.945  0.2056  0.6601 -0.4145
  768SOL    HW1 2303   0.982   0.761   3.018  0.2025  1.7544 -0.4558
  768SOL    HW2 2304   1.145   0.748   2.983 -0.5807  0.4291 -2.2723
  769SOL     OW 2305   2.075   2.741   0.399 -0.0377  0.2021  0.2873
  769SOL    HW1 2306   2.068   2.651   0.448  0.3367 -2.0921 -0.1996
  769SOL    HW2 2307   2.015   2.738   0.310 -2.1230  0.1084 -5.1048
  770SOL     OW 2308   3.037   0.404   2.734  0.4778  0.5205  0.3743
  770SOL    HW1 2309   2.969   0.456   2.677 -0.1971  1.8337 -2.9434
  770SOL    HW2 2310   3.038   0.303   2.706 -0.3168  0.0500 -3.3744
  771SOL     OW 2311   1.400   2.170   1.764  0.0156 -0.1951 -0.7114
  771SOL    HW1 2312   1.317   2.113   1.772 -0.9701 -0.2528 -0.2882
  771SOL    HW2 2313   1.401   2.203   1.667 -0.4595  1.2927 -2.6748
  772SOL     OW 2314   0.739   0.574   2.955  0.2953  0.1897  0.0984
  772SOL    HW1 2315   0.762   0.498   2.886  0.7287 -2.7073 -1.0078
  772SOL    HW2 2316   0.652   0.620   2.931  0.8851 -0.5745 -2.0207
  773SOL     OW 2317   2.889   1.387   1.497 -0.1844 -0.1069 -0.1850
  773SOL    HW1 2318   2.837   1.436   1.420 -0.8975  1.7938 -2.3232
  773SOL    HW2 2319   2.860   1.419   1.587 -0.8319 -1.5132 -2.2840
  774SOL     OW 2320   1.524   0.878   0.356  0.0421 -0.3941 -0.2307
  774SOL    HW1 2321   1.523   0.776   0.364 -2.9642 -2.3783 -1.8102
  774SOL    HW2 2322   1.576   0.909   0.437  2.0398 -0.3374  0.4531
  775SOL     OW 2323   2.231   2.801   0.031 -0.5053  0.2611  0.0356
  775SOL    HW1 2324   2.304   2.874   0.049  1.3520  1.4624 -2.6538
  775SOL    HW2 2325   2.132   2.828   0.048  0.3273  0.3966  1.3129
  776SOL     OW 2326   2.679   0.689   2.148 -0.5956  0.2459 -0.2612
  776SOL    HW1 2327   2.696   0.776   2.103  1.3313 -4.1020  1.5997
  776SOL    HW2 2328   2.633   0.702   2.240 -2.5746 -0.9733 -1.8218
  777SOL     OW 2329   0.285   1.392   2.638 -0.1762 -0.2000 -0.3784
  777SOL    HW1 2330   0.374   1.416   2.683  0.9514 -0.9639  1.0714
  777SOL    HW2 2331   0.305   1.340   2.558  1.4544  0.4084  1.0350
  778SOL     OW 2332   0.888   0.233   0.424 -0.0580 -0.4397 -0.2267
  778SOL    HW1 2333   0.886   0.161   0.497  0.9587  1.0259  0.5017
  778SOL    HW2 2334   0.873   0.199   0.332 -1.4300 -1.9422  2.7429
  779SOL     OW 2335   0.510   0.959   2.767  0.1585 -0.2145  0.5808
  779SOL    HW1 2336   0.563   1.044   2.770 -1.7188 -0.7566 -1.3325
  779SOL    HW2 2337   0.556   0.881   2.715  0.3413 -0.1296 -1.2177
  780SOL     OW 2338   2.080   0.913   2.314  0.2998 -0.4911  0.5990
  780SOL    HW1 2339   2.135   0.860   2.385 -1.0560  0.2848  1.6241
  780SOL    HW2 2340   2.060   0.858   2.230 -0.7769  0.4404  0.7559
  781SOL     OW 2341   2.831   1.387   1.792  0.4251 -0.4854  0.1788
  781SOL    HW1 2342   2.909   1.327   1.801  0.3674 -0.6038 -2.8928
  781SOL    HW2 2343   2.739   1.341   1.811  0.9216  0.3446  0.8814
  782SOL     OW 2344   1.003   1.945   2.405 -0.1470 -0.6013 -0.4645
  782SOL    HW1 2345   0.944   1.936   2.318 -0.6961  2.3477 -1.4647
  782SOL    HW2 2346   0.952   2.000   2.474  0.3273  1.5809  0.7402
  783SOL     OW 2347   0.481   2.705   1.519  0.7097  0.8200  0.0387
  783SOL    HW1 2348   0.382   2.729   1.544 -2.6078  2.2090 -1.0702
  783SOL    HW2 2349   0.549   2.715   1.593 -2.8173 -0.0354 -4.9453
  784SOL     OW 2350   1.544   0.449   2.834 -0.4266 -0.6478  0.8428
  784SOL    HW1 2351   1.568   0.425   2.734  0.3545  1.7235 -2.0621
  784SOL    HW2 2352   1.627   0.487   2.874  0.1531 -0.6820 -1.5001
  785SOL     OW 2353   1.345   0.292   2.920 -0.0287  0.3629  0.2959
  785SOL    HW1 2354   1.414   0.349   2.870 -3.4745  0.0488 -1.0653
  785SOL    HW2 2355   1.293   0.220   2.866 -3.2911 -0.6284  1.4532
  786SOL     OW 2356   0.242   1.597   0.321  0.1958  0.1291  0.3807
  786SOL    HW1 2357   0.302   1.539   0.389  0.4904 -0.8141  0.0529
  786SOL    HW2 2358   0.302   1.649   0.255  1.7682  0.6130  0.3881
  787SOL     OW 2359   1.730   1.499   0.354 -0.2491 -0.2985 -0.8022
  787SOL    HW1 2360   1.819   1.546   0.371 -0.2407  1.7261 -2.1942
  787SOL    HW2 2361   1.745   1.415   0.297 -1.1090  0.6965 -0.3840
  788SOL     OW 2362   1.902   1.505   1.400 -0.3993  0.8511 -0.3865
  788SOL    HW1 2363   1.811   1.461   1.375 -2.1527 -1.1155  0.1986
  788SOL    HW2 2364   1.953   1.512   1.309 -0.2102  2.2616 -0.6737
  789SOL     OW 2365   0.269   1.301   1.938  0.2017 -0.4849 -0.0555
  789SOL    HW1 2366   0.214   1.389   1.936 -1.8745  2.0823 -1.9937
  789SOL    HW2 2367   0.284   1.276   1.842  0.9473 -3.2845 -0.7502
  790SOL     OW 2368   0.491   2.854   0.008 -0.2354  0.7957 -0.4620
  790SOL    HW1 2369   0.391   2.828   0.006  0.5156  0.6637 -0.1492
  790SOL    HW2 2370   0.547   2.783   0.049  2.9559  0.6435 -2.7959
  791SOL     OW 2371   0.585   0.081   2.528  0.1385 -0.4503 -0.3540
  791SOL    HW1 2372   0.572   0.172   2.567  1.0843 -0.5749 -0.8556
  791SOL    HW2 2373   0.516   0.017   2.569  2.0579 -0.3543  3.1638
  792SOL     OW 2374   2.121   0.545   2.656  0.0715  0.0542 -0.3312
  792SOL    HW1 2375   2.111   0.499   2.746 -2.3040 -0.1519  2.3549
  792SOL    HW2 2376   2.218   0.574   2.649  0.1364 -1.4662  0.8825
  793SOL     OW 2377   0.281   0.726   1.151 -1.0032 -0.9527  0.4207
  793SOL    HW1 2378   0.355   0.654   1.130  2.8820  2.0281 -0.2107
  793SOL    HW2 2379   0.212   0.686   1.213  1.5295  0.8032 -1.2159
  794SOL     OW 2380   0.661   0.448   1.963 -0.0966  0.4859 -0.2462
  794SOL    HW1 2381   0.688   0.524   1.897  0.5363 -0.9019 -2.4744
  794SOL    HW2 2382   0.574   0.477   2.012 -4.2522 -2.0720  0.9153
  795SOL     OW 2383   0.001   1.054   0.404 -0.4060  0.3786 -0.7611
  795SOL    HW1 2384   0.063   0.992   0.353 -0.5474  0.7275 -1.6865
  795SOL    HW2 2385   3.070   1.126   0.336 -0.1557 -1.1772  1.3421
  796SOL     OW 2386   3.041   2.753   0.134  0.2426 -0.4827 -0.5815
  796SOL    HW1 2387   3.003   2.742   0.041  0.0588 -1.6449  2.2386
  796SOL    HW2 2388   2.968   2.766   0.198 -1.0262 -1.1422 -4.0852
  797SOL     OW 2389   1.873   2.532   2.507 -0.2024 -0.2531 -1.0394
  797SOL    HW1 2390   1.892   2.464   2.430  0.2113 -0.5356  0.5806
  797SOL    HW2 2391   1.776   2.559   2.520  0.5540 -0.7176  2.5724
  798SOL     OW 2392   0.090   0.735   0.579 -0.4045 -0.7638 -0.7561
  798SOL    HW1 2393   0.030   0.759   0.500  0.1531 -0.0652  2.2056
  798SOL    HW2 2394   0.187   0.732   0.549  1.4199  0.9841  2.5552
  799SOL     OW 2395   2.633   0.484   2.573  0.0476 -0.4279  0.6198
  799SOL    HW1 2396   2.609   0.387   2.582  0.8430  0.3271 -2.4602
  799SOL    HW2 2397   2.730   0.488   2.540 -0.4124  2.2182 -4.0562
  800SOL     OW 2398   2.886   2.162   0.118 -0.3177 -0.0828  0.5895
  800SOL    HW1 2399   2.866   2.170   0.220  1.4067 -1.3295  0.6062
  800SOL    HW2 2400   2.940   2.079   0.094  1.6694 -2.0242 -1.3970
  801SOL     OW 2401   1.300   1.683   1.103  0.0638  0.1088  0.3466
  801SOL    HW1 2402   1.264   1.613   1.171  0.1927 -1.9743  0.5542
  801SOL    HW2 2403   1.245   1.674   1.019 -2.2989  0.5609  1.1244
  802SOL     OW 2404   1.058   1.922   2.066 -0.2186  0.0745  0.1749
  802SOL    HW1 2405   0.967   1.877   2.052  1.2571 -0.6419  0.2835
  802SOL    HW2 2406   1.120   1.891   1.989  1.5624  0.5552 -0.3618
  803SOL     OW 2407   0.053   2.055   0.783 -0.2180 -0.3152 -0.3275
  803SOL    HW1 2408   3.064   2.002   0.817  2.3395 -1.5563  2.9370
  803SOL    HW2 2409   0.135   1.997   0.789  0.6412  3.3516 -2.4864
  804SOL     OW 2410   1.068   2.252   1.352  0.3684  0.6311 -0.1569
  804SOL    HW1 2411   1.082   2.341   1.315 -0.5767 -1.5756 -0.7535
  804SOL    HW2 2412   0.987   2.200   1.315 -3.7965 -0.7153 -2.2770
  805SOL     OW 2413   2.003   1.494   0.127  0.3182 -0.2064 -0.0693
  805SOL    HW1 2414   1.961   1.584   0.113 -1.4496 -2.7507  1.4102
  805SOL    HW2 2415   1.934   1.421   0.107 -1.8591 -2.2605 -0.5025
  806SOL     OW 2416   1.923   2.444   0.953 -0.2185  0.6797  0.1453
  806SOL    HW1 2417   1.939   2.447   1.055  0.5407 -1.6034  2.4940
  806SOL    HW2 2418   1.827   2.426   0.931  0.5699  0.0430 -0.3611
  807SOL     OW 2419   2.732   0.612   2.920 -0.2211  0.0063  0.1088
  807SOL    HW1 2420   2.763   0.707   2.942 -0.2299 -0.4747 -0.9146
  807SOL    HW2 2421   2.810   0.549   2.917 -1.8819  2.7431  0.4439
  808SOL     OW 2422   0.242   1.188   0.560 -0.3719 -0.3616  0.1464
  808SOL    HW1 2423   0.278   1.113   0.615 -1.8924  1.2994  0.2149
  808SOL    HW2 2424   0.197   1.162   0.476 -2.4779  1.2074  1.3774
  809SOL     OW 2425   2.716   0.916   1.968  0.2428  0.2932  0.1436
  809SOL    HW1 2426   2.632   0.955   2.017 -1.5020  0.5050 -1.3011
  809SOL    HW2 2427   2.739   0.973   1.889 -1.6238 -0.4488  3.8364
  810SOL     OW 2428   1.287   0.348   1.399  0.4878 -0.3247  0.3844
  810SOL    HW1 2429   1.324   0.267   1.445 -0.4370 -1.6937  0.2946
  810SOL    HW2 2430   1.195   0.364   1.435  1.9504  1.4410 -1.0598
  811SOL     OW 2431   1.758   2.804   1.489 -0.2281 -0.2201  0.4246
  811SOL    HW1 2432   1.813   2.717   1.464  0.6863 -1.9251  0.4983
  811SOL    HW2 2433   1.805   2.889   1.456  2.5483 -1.4647 -1.9318
  812SOL     OW 2434   1.686   2.503   2.851 -0.7100  0.5617  0.3272
  812SOL    HW1 2435   1.588   2.485   2.872  1.5823  0.7704 -0.1492
  812SOL    HW2 2436   1.741   2.418   2.850  1.0451  0.5824  0.8143
  813SOL     OW 2437   1.590   1.056   1.990 -0.0950 -0.0752 -0.3052
  813SOL    HW1 2438   1.513   1.056   1.927  1.8082  1.9242  3.6024
  813SOL    HW2 2439   1.660   1.120   1.961 -0.3132  0.3544 -2.7261
  814SOL     OW 2440   0.987   0.508   1.814 -0.4138 -0.2294  0.0293
  814SOL    HW1 2441   0.994   0.587   1.748  1.4987  1.0347 -0.2521
  814SOL    HW2 2442   0.994   0.541   1.908 -1.4879 -1.1599 -2.1903
  815SOL     OW 2443   0.959   0.806   0.510 -0.0824  0.7374  0.1606
  815SOL    HW1 2444   0.933   0.886   0.566  1.2668 -1.3807 -2.6388
  815SOL    HW2 2445   0.878   0.786   0.448 -1.8749  0.1825  0.6820
  816SOL     OW 2446   2.155   1.675   2.609  0.2785  0.1091  0.1268
  816SOL    HW1 2447   2.123   1.767   2.577 -0.5335 -1.4904 -0.7867
  816SOL    HW2 2448   2.085   1.644   2.680 -1.2069  1.1706 -0.4550
  817SOL     OW 2449   0.670   2.552   0.463 -0.1941 -0.2272 -0.1111
  817SOL    HW1 2450   0.724   2.549   0.378 -1.1656 -0.1945  0.0827
  817SOL    HW2 2451   0.718   2.496   0.534  0.9613 -1.6028  0.6889
  818SOL     OW 2452   2.028   0.068   0.000  0.4655  0.5353  0.1994
  818SOL    HW1 2453   1.996   0.156   3.044  2.2063 -0.8622 -1.0982
  818SOL    HW2 2454   2.070   3.087   3.034 -3.4929 -0.6266  0.7733
  819SOL     OW 2455   1.741   0.198   0.253  0.0369  0.2815  0.6405
  819SOL    HW1 2456   1.758   0.114   0.195  1.5508 -3.6808  0.4181
  819SOL    HW2 2457   1.825   0.250   0.254 -0.0794  0.6302 -0.1114
  820SOL     OW 2458   1.846   0.674   0.246  0.4484  0.0489 -0.0080
  820SOL    HW1 2459   1.751   0.691   0.273  0.0697  0.6649  2.3245
  820SOL    HW2 2460   1.896   0.738   0.308  1.1188  0.9684  1.3467
  821SOL     OW 2461   2.777   0.176   0.130  0.0785 -0.3251 -0.0961
  821SOL    HW1 2462   2.727   0.180   0.220  0.0097  0.4388  2.0015
  821SOL    HW2 2463   2.726   0.227   0.056 -2.2172 -1.2992  0.3439
  822SOL     OW 2464   0.056   2.848   1.825 -0.4945  0.5098  0.2412
  822SOL    HW1 2465   3.051   2.861   1.812 -1.7235  1.0740 -1.2732
  822SOL    HW2 2466   0.102   2.813   1.743 -2.6245 -1.9875  3.0987
  823SOL     OW 2467   2.993   1.732   1.375  0.5382 -0.3547 -0.4453
  823SOL    HW1 2468   2.901   1.774   1.358  0.9590  0.6480 -1.5706
  823SOL    HW2 2469   2.998   1.651   1.317  0.2519  4.6139  1.5587
  824SOL     OW 2470   1.548   2.965   2.240  0.7727 -0.6653  0.7346
  824SOL    HW1 2471   1.542   2.867   2.253 -1.5638  2.0088  2.0410
  824SOL    HW2 2472   1.507   2.998   2.151 -1.6605 -0.7196  0.6815
  825SOL     OW 2473   1.895   1.304   0.781 -0.0647  0.4397  0.6774
  825SOL    HW1 2474   1.924   1.230   0.845 -1.5607  1.4758  0.0831
  825SOL    HW2 2475   1.802   1.335   0.802  1.8023 -0.2989  3.1038
  826SOL     OW 2476   2.173   0.722   3.080 -0.0529  0.1833  0.1021
  826SOL    HW1 2477   2.203   0.797   3.014 -0.1417  1.5593 -0.9914
  826SOL    HW2 2478   2.074   0.715   3.060  0.7146 -1.5390 -0.0935
  827SOL     OW 2479   0.524   1.169   1.607 -0.1365 -0.3783  0.3740
  827SOL    HW1 2480   0.436   1.191   1.655 -2.1208 -0.3967  1.0256
  827SOL    HW2 2481   0.523   1.208   1.514  0.8030 -1.4626 -0.8437
  828SOL     OW 2482   2.262   1.397   1.976 -0.0612 -0.4522  0.6327
  828SOL    HW1 2483   2.361   1.425   2.000 -1.2099 -0.3116 -0.7363
  828SOL    HW2 2484   2.199   1.473   1.944 -2.2182  1.3132 -0.0638
  829SOL     OW 2485   3.085   1.946   0.042 -0.0021 -0.0653 -0.1648
  829SOL    HW1 2486   0.024   1.853   0.078  2.2375 -0.2161  1.4182
  829SOL    HW2 2487   0.063   2.018   0.057  0.5935 -3.0050  2.2957
  830SOL     OW 2488   1.678   0.980   0.559  0.1084 -0.4717  0.3204
  830SOL    HW1 2489   1.765   1.003   0.514 -1.8315  1.1084 -1.1270
  830SOL    HW2 2490   1.699   0.900   0.617 -0.1276  1.2866 -1.7679
  831SOL     OW 2491   2.561   1.751   3.079  0.2257  0.2202 -0.7290
  831SOL    HW1 2492   2.530   1.671   0.038  1.4210  2.2373 -0.1432
  831SOL    HW2 2493   2.622   1.811   0.039 -1.6573  0.5758 -0.2380
  832SOL     OW 2494   1.073   2.900   0.192  0.3032 -0.1818  0.1852
  832SOL    HW1 2495   1.064   2.861   0.288 -0.7471 -2.4896 -2.4551
  832SOL    HW2 2496   1.124   2.988   0.190  1.5819  0.1363  1.3736
  833SOL     OW 2497   1.400   0.809   2.340 -0.2663  0.1386 -0.6855
  833SOL    HW1 2498   1.478   0.753   2.307  2.5794 -2.9342 -2.5688
  833SOL    HW2 2499   1.408   0.908   2.311  1.0157 -3.0752  1.5274
  834SOL     OW 2500   0.128   0.599   1.330 -0.1716  0.1159 -0.1793
  834SOL    HW1 2501   0.146   0.537   1.410  0.0888 -0.7501 -0.4892
  834SOL    HW2 2502   0.100   0.537   1.250  0.3470 -0.5374 -0.1481
  835SOL     OW 2503   2.922   0.049   1.267  0.2233  0.3913  0.6701
  835SOL    HW1 2504   2.954   3.044   1.288 -1.4282 -0.3964 -2.2004
  835SOL    HW2 2505   2.931   0.113   1.348  0.6465  1.9449  0.1749
  836SOL     OW 2506   0.325   2.008   0.359 -0.1495 -0.3782 -0.2257
  836SOL    HW1 2507   0.412   1.954   0.361 -0.5899 -0.3962 -1.2059
  836SOL    HW2 2508   0.344   2.104   0.322 -1.5266  1.8015 -0.0727
  837SOL     OW 2509   1.845   1.715   2.549  0.5259  0.3126 -0.5217
  837SOL    HW1 2510   1.845   1.761   2.642  2.0840 -1.0431 -2.4072
  837SOL    HW2 2511   1.875   1.616   2.550 -1.2031 -1.5849 -1.7190
  838SOL     OW 2512   0.461   0.979   2.128  0.1900  0.1775 -0.1838
  838SOL    HW1 2513   0.376   1.041   2.127  0.0391  0.3230 -0.7319
  838SOL    HW2 2514   0.450   0.903   2.065 -0.8639  1.6312  0.6849
  839SOL     OW 2515   0.298   0.289   0.803 -0.1510  0.3121 -0.2929
  839SOL    HW1 2516   0.226   0.354   0.827 -1.2478 -1.7862  0.5206
  839SOL    HW2 2517   0.357   0.283   0.890  2.1966  0.1870  1.2455
  840SOL     OW 2518   2.592   0.193   2.563  0.2827  0.1402  0.3164
  840SOL    HW1 2519   2.623   0.132   2.638  1.6650  0.0407 -0.2969
  840SOL    HW2 2520   2.668   0.219   2.502 -3.4073  2.0044  0.3672
  841SOL     OW 2521   0.585   2.328   2.924  0.3598  0.4654 -0.3333
  841SOL    HW1 2522   0.622   2.379   3.006 -0.0218  1.3806 -0.6101
  841SOL    HW2 2523   0.619   2.233   2.920  0.8332  0.3958  1.5572
  842SOL     OW 2524   0.478   3.037   1.018 -0.5435 -0.5159  0.5443
  842SOL    HW1 2525   0.556   0.011   1.023 -0.7312  0.1614 -0.3960
  842SOL    HW2 2526   0.460   2.989   0.930 -1.5243 -4.3033  0.5560
  843SOL     OW 2527   0.267   0.827   3.017 -0.1741  0.3852 -0.2436
  843SOL    HW1 2528   0.208   0.825   0.006  0.6381 -0.5695 -0.3698
  843SOL    HW2 2529   0.339   0.899   3.020  0.0955  3.5608  0.4030
  844SOL     OW 2530   1.165   2.335   2.595  0.9601  0.2761  0.0684
  844SOL    HW1 2531   1.237   2.269   2.570  0.4891  1.4526  0.3868
  844SOL    HW2 2532   1.128   2.391   2.515  0.9840  0.8535  1.0720
  845SOL     OW 2533   2.600   3.059   2.740  0.1190 -0.4126  0.0569
  845SOL    HW1 2534   2.559   3.093   2.824  0.6205  0.5304 -0.6213
  845SOL    HW2 2535   2.646   2.972   2.758 -0.7908 -0.7403  1.9295
  846SOL     OW 2536   1.923   1.453   2.499  0.3227  0.8113  0.3522
  846SOL    HW1 2537   1.989   1.431   2.422  2.3613 -0.0432 -1.3518
  846SOL    HW2 2538   1.886   1.377   2.559 -2.3166 -0.4279  0.4397
  847SOL     OW 2539   2.717   2.983   0.068  0.1568  0.2720  0.1883
  847SOL    HW1 2540   2.616   2.990   0.077 -2.3396 -2.1210 -3.3484
  847SOL    HW2 2541   2.754   3.075   0.074  0.1640 -2.2936  0.5147
  848SOL     OW 2542   0.596   0.457   0.770 -0.6020 -0.6871  0.6587
  848SOL    HW1 2543   0.623   0.360   0.747  2.1200 -3.3182 -1.9720
  848SOL    HW2 2544   0.516   0.484   0.712 -0.4007  0.6738 -3.0815
  849SOL     OW 2545   1.473   3.049   1.989  0.1280 -0.3601  0.3284
  849SOL    HW1 2546   1.432   2.992   1.913 -0.4939 -0.4129 -0.9244
  849SOL    HW2 2547   1.558   3.080   1.947 -0.1951 -1.4127  3.0256
  850SOL     OW 2548   0.560   1.123   0.662  0.6279  0.2518 -0.5613
  850SOL    HW1 2549   0.556   1.199   0.727 -0.7286 -1.2004 -1.5763
  850SOL    HW2 2550   0.476   1.061   0.674 -1.3223 -2.8120  3.1700
  851SOL     OW 2551   0.292   1.136   0.289  0.1527  0.7179  0.2294
  851SOL    HW1 2552   0.391   1.148   0.306 -0.8202  1.3493 -2.2097
  851SOL    HW2 2553   0.252   1.039   0.274 -1.7945 -4.2461 -1.5996
  852SOL     OW 2554   1.169   0.246   2.057 -0.1171  0.2207 -0.1205
  852SOL    HW1 2555   1.185   0.145   2.051  1.9046 -0.9835 -2.7074
  852SOL    HW2 2556   1.115   0.264   2.139  0.1426  1.7068 -1.9572
  853SOL     OW 2557   2.455   1.259   0.050  0.0787  0.5254 -0.3478
  853SOL    HW1 2558   2.451   1.361   0.071  0.3455  3.5597 -1.3293
  853SOL    HW2 2559   2.366   1.225   0.089  1.4564 -1.1218  0.2278
  854SOL     OW 2560   1.192   1.031   2.039 -0.2553  0.2354 -0.0839
  854SOL    HW1 2561   1.100   1.036   2.000 -1.5543  0.6030 -1.2640
  854SOL    HW2 2562   1.214   1.114   2.096 -0.0242  1.0999 -0.8604
  855SOL     OW 2563   0.236   2.747   0.016 -0.1616  0.3955  0.5334
  855SOL    HW1 2564   0.167   2.737   0.086 -1.4169  1.1738 -2.3872
  855SOL    HW2 2565   0.200   2.717   3.017 -0.4285 -0.8411  2.2328
  856SOL     OW 2566   1.163   0.788   2.195 -0.1483  0.8460  0.3598
  856SOL    HW1 2567   1.159   0.867   2.133 -0.6338  1.0833 -3.0481
  856SOL    HW2 2568   1.242   0.801   2.257  0.0673  3.0483 -1.0035
  857SOL     OW 2569   1.240   0.700   2.577 -0.1707 -0.2915 -0.2031
  857SOL    HW1 2570   1.298   0.737   2.503 -1.3758 -1.5221 -0.7672
  857SOL    HW2 2571   1.208   0.608   2.554  1.1835  0.4839  1.0808
  858SOL     OW 2572   3.054   1.303   2.092 -0.2429 -0.5203 -0.4344
  858SOL    HW1 2573   3.079   1.400   2.105 -1.2336  1.6982 -1.6554
  858SOL    HW2 2574   3.067   1.282   1.991 -2.4534  0.9857 -2.5982
  859SOL     OW 2575   2.331   0.309   0.853 -0.1453  0.9711 -0.4981
  859SOL    HW1 2576   2.323   0.210   0.839 -2.6528  1.2063  0.0618
  859SOL    HW2 2577   2.396   0.334   0.931  1.4975 -0.5488 -2.2815
  860SOL     OW 2578   1.753   2.913   0.386  0.1749  0.5521 -0.0167
  860SOL    HW1 2579   1.775   2.996   0.334  2.1853  0.3229  0.0746
  860SOL    HW2 2580   1.677   2.924   0.450  0.9246 -2.5826 -0.9025
  861SOL     OW 2581   0.990   0.601   1.336 -0.4770  0.5565  0.4234
  861SOL    HW1 2582   0.986   0.508   1.380  0.2392  0.0024 -0.4911
  861SOL    HW2 2583   0.899   0.619   1.291 -1.1145  0.1185  1.7751
  862SOL     OW 2584   1.541   0.107   2.703 -1.2543 -0.4061 -0.0631
  862SOL    HW1 2585   1.630   0.096   2.751  0.5568 -2.2725  0.2280
  862SOL    HW2 2586   1.557   0.152   2.612  0.1788 -0.7241  2.6251
  863SOL     OW 2587   2.508   2.310   0.529 -0.2844  0.0484 -0.0205
  863SOL    HW1 2588   2.469   2.402   0.503  0.0799  0.4774 -0.9352
  863SOL    HW2 2589   2.461   2.230   0.479  0.9787 -2.0419 -1.3732
  864SOL     OW 2590   2.681   0.304   2.077  0.5416  0.3498  0.2757
  864SOL    HW1 2591   2.782   0.309   2.082 -0.8796  2.8988  2.1900
  864SOL    HW2 2592   2.638   0.374   2.136 -0.3881 -1.7784  0.8628
  865SOL     OW 2593   1.354   1.041   1.828  0.3919 -0.0589  0.1246
  865SOL    HW1 2594   1.296   1.024   1.913  1.0906  0.6936 -1.0844
  865SOL    HW2 2595   1.344   1.135   1.790  1.0006  1.0558  2.5672
  866SOL     OW 2596   1.678   2.337   0.908  0.2861 -0.2721  0.1364
  866SOL    HW1 2597   1.663   2.264   0.980 -0.3887  4.4590  0.8555
  866SOL    HW2 2598   1.590   2.356   0.860  3.0354  0.5294 -1.4888
  867SOL     OW 2599   2.441   3.059   0.548  0.1060 -0.1035  0.0465
  867SOL    HW1 2600   2.370   2.985   0.558  0.0808  2.2156 -0.6664
  867SOL    HW2 2601   2.420   0.028   0.467  0.6233  1.5544 -0.4226
  868SOL     OW 2602   0.175   2.459   2.166  0.4857 -0.8809  0.7580
  868SOL    HW1 2603   0.209   2.548   2.131  2.8718 -0.7207 -3.1574
  868SOL    HW2 2604   0.256   2.422   2.217  1.6887  2.7330  0.3622
  869SOL     OW 2605   1.985   2.689   2.220  0.1086  0.4233  0.5320
  869SOL    HW1 2606   1.940   2.756   2.282  2.9431  1.3786 -0.3415
  869SOL    HW2 2607   2.063   2.650   2.272 -1.8483 -0.5238  0.7398
  870SOL     OW 2608   1.638   1.390   0.852 -0.0209  0.0586  0.3017
  870SOL    HW1 2609   1.609   1.408   0.752  1.2958  1.0400 -0.3344
  870SOL    HW2 2610   1.562   1.364   0.920  0.1559 -2.5174  1.4703
  871SOL     OW 2611   0.185   1.751   1.282 -0.8744 -0.4171 -0.2078
  871SOL    HW1 2612   0.201   1.695   1.366 -1.5216 -0.8620 -0.6877
  871SOL    HW2 2613   0.093   1.792   1.285  0.7131 -1.6579 -0.0944
  872SOL     OW 2614   0.785   1.766   2.594  0.1621  0.3342  0.2429
  872SOL    HW1 2615   0.860   1.703   2.620  1.3740  2.3496  2.0718
  872SOL    HW2 2616   0.822   1.853   2.559 -1.4892 -1.2983  2.2343
  873SOL     OW 2617   0.788   1.781   2.022  0.1191  0.0266 -0.0376
  873SOL    HW1 2618   0.709   1.826   1.977 -0.3905  1.6559  0.6361
  873SOL    HW2 2619   0.761   1.692   2.066 -2.6096 -2.6571 -0.1616
  874SOL     OW 2620   1.590   0.787   1.974 -0.4883 -0.2903  0.5815
  874SOL    HW1 2621   1.517   0.750   1.913 -1.4436  0.9969  0.5649
  874SOL    HW2 2622   1.590   0.890   1.997  0.6692  0.9849  4.7611
  875SOL     OW 2623   3.012   3.065   0.294  0.1938  0.3215 -0.0619
  875SOL    HW1 2624   3.050   3.056   0.200  0.5287 -1.5448  1.4017
  875SOL    HW2 2625   2.927   3.003   0.301 -1.4845 -2.3262  1.2597
  876SOL     OW 2626   0.698   1.503   0.642 -0.1334  0.1153 -0.3421
  876SOL    HW1 2627   0.680   1.585   0.699  0.3015 -0.6400 -2.1899
  876SOL    HW2 2628   0.627   1.432   0.650 -1.8690 -0.4950 -1.0865
  877SOL     OW 2629   2.676   3.016   0.651 -0.0540 -0.2314 -0.6324
  877SOL    HW1 2630   2.660   2.996   0.750  0.4148  2.1897 -0.1753
  877SOL    HW2 2631   2.585   3.020   0.603 -0.5459  1.4070  2.1228
  878SOL     OW 2632   1.971   1.593   0.427  0.0946 -0.2776  0.2303
  878SOL    HW1 2633   1.999   1.676   0.372  0.8384 -0.7882  0.7448
  878SOL    HW2 2634   2.007   1.594   0.522  0.7625 -3.1980 -1.3875
  879SOL     OW 2635   2.434   1.826   1.286 -0.0034 -0.3250 -0.3485
  879SOL    HW1 2636   2.477   1.814   1.191  1.2400 -2.5280  1.5306
  879SOL    HW2 2637   2.469   1.908   1.336  2.0671  0.1929 -0.0239
  880SOL     OW 2638   0.535   2.220   0.658 -0.0390 -0.6408 -0.2471
  880SOL    HW1 2639   0.489   2.129   0.680 -2.6463  0.8469 -3.5229
  880SOL    HW2 2640   0.497   2.261   0.575  0.5888 -0.5891 -0.3795
  881SOL     OW 2641   0.766   0.892   0.864  0.1299 -0.2940 -0.0456
  881SOL    HW1 2642   0.787   0.924   0.769 -2.5862 -0.2664 -1.2644
  881SOL    HW2 2643   0.852   0.880   0.911 -2.5232 -0.0019 -0.9362
  882SOL     OW 2644   2.582   0.969   0.600 -0.4798  0.7908  0.5532
  882SOL    HW1 2645   2.498   1.024   0.587  0.3518 -0.9730  1.1366
  882SOL    HW2 2646   2.558   0.878   0.644 -0.9492 -0.6440  2.2668
  883SOL     OW 2647   1.734   0.209   1.681 -0.0987 -0.4771  0.3431
  883SOL    HW1 2648   1.834   0.227   1.687  1.7216 -2.6407 -0.4394
  883SOL    HW2 2649   1.703   0.205   1.582 -2.4654 -1.7238 -3.0993
  884SOL     OW 2650   2.968   0.209   1.525 -0.7653 -0.2850  0.3329
  884SOL    HW1 2651   3.072   0.222   1.522  2.1287  1.4969  0.1420
  884SOL    HW2 2652   2.943   0.132   1.586  0.0138  1.1528 -2.0942
  885SOL     OW 2653   1.465   1.059   2.715 -0.3144  0.0564 -0.5558
  885SOL    HW1 2654   1.368   1.055   2.683  0.8617 -0.5368 -1.4626
  885SOL    HW2 2655   1.515   0.977   2.689  1.2649  0.6025 -0.3335
  886SOL     OW 2656   1.906   0.699   2.642 -0.4820 -0.2404  0.4319
  886SOL    HW1 2657   2.002   0.660   2.626  0.6619  1.1974 -3.0927
  886SOL    HW2 2658   1.849   0.675   2.561  0.3275 -1.3204  3.3168
  887SOL     OW 2659   1.662   0.230   1.427 -0.1170 -0.1634  0.6152
  887SOL    HW1 2660   1.673   0.283   1.338  2.4363 -0.2027 -0.1055
  887SOL    HW2 2661   1.621   0.136   1.421  0.1781  0.8152  1.3122
  888SOL     OW 2662   2.070   1.588   1.889 -0.2858  0.1558  0.3724
  888SOL    HW1 2663   2.103   1.594   1.794 -0.2575  0.3824  1.8125
  888SOL    HW2 2664   2.039   1.678   1.931  0.1576 -1.2422  0.4209
  889SOL     OW 2665   1.755   2.191   0.447 -0.3817  0.5384 -0.3929
  889SOL    HW1 2666   1.750   2.144   0.538  0.8413  1.3437  0.3747
  889SOL    HW2 2667   1.793   2.134   0.377 -2.0813  1.8892  3.2373
  890SOL     OW 2668   1.060   1.991   0.513  0.3799 -1.0158 -0.1548
  890SOL    HW1 2669   1.058   1.892   0.536  2.0401  1.0981 -1.7065
  890SOL    HW2 2670   1.003   2.051   0.577  2.8770  0.2754 -0.3745
  891SOL     OW 2671   2.767   0.888   2.933  0.2760  0.0891 -0.0304
  891SOL    HW1 2672   2.852   0.939   2.918 -3.4315  1.2414  0.0607
  891SOL    HW2 2673   2.709   0.944   2.994  3.3871 -0.7996 -1.6055
  892SOL     OW 2674   1.709   0.646   2.468  0.0665 -0.3519  0.1017
  892SOL    HW1 2675   1.664   0.558   2.495  0.3233  1.6884  1.2830
  892SOL    HW2 2676   1.703   0.652   2.368 -0.3700 -0.5669  2.0054
  893SOL     OW 2677   1.538   3.071   1.448  0.0171 -0.3952  0.6352
  893SOL    HW1 2678   1.591   3.036   1.368  0.0044  1.0346 -1.2146
  893SOL    HW2 2679   1.557   3.019   1.532 -0.3011  2.2528 -0.1963
  894SOL     OW 2680   2.893   2.881   0.542 -0.1036 -0.2962 -0.1981
  894SOL    HW1 2681   2.880   2.852   0.443 -0.8974  0.6947 -3.9749
  894SOL    HW2 2682   2.820   2.937   0.574  1.1921 -0.7818 -1.7850
  895SOL     OW 2683   2.018   2.520   3.030  0.2882  0.6924  0.4177
  895SOL    HW1 2684   2.037   2.462   2.950  0.3144  2.5445 -0.2597
  895SOL    HW2 2685   2.025   2.621   3.019 -0.6558 -2.7374  0.9407
  896SOL     OW 2686   2.280   0.280   2.285  0.3991  0.9075  1.1810
  896SOL    HW1 2687   2.372   0.243   2.263  2.6194  0.6005 -0.5457
  896SOL    HW2 2688   2.206   0.237   2.235  2.3806  2.1486  2.9460
  897SOL     OW 2689   0.403   1.642   1.751  0.2316  0.0248 -0.3094
  897SOL    HW1 2690   0.310   1.612   1.726 -0.9103  0.0466 -4.1454
  897SOL    HW2 2691   0.434   1.734   1.716  0.3728  0.0956  0.2146
  898SOL     OW 2692   2.336   1.667   1.788  0.2010 -0.6296 -0.5884
  898SOL    HW1 2693   2.264   1.730   1.767  1.2713 -1.8952 -2.7549
  898SOL    HW2 2694   2.420   1.702   1.735  1.9980  1.4567 -0.7479
  899SOL     OW 2695   1.548   2.124   1.015  0.1494  0.1624  0.6104
  899SOL    HW1 2696   1.472   2.151   1.074  2.1799 -0.0634  0.0697
  899SOL    HW2 2697   1.524   2.092   0.920 -0.4035 -0.9884  0.6028
  900SOL     OW 2698   1.113   0.362   3.057  0.2599 -0.1652  0.2275
  900SOL    HW1 2699   1.054   0.411   2.990  3.2336  0.5198 -0.0307
  900SOL    HW2 2700   1.205   0.353   3.014  0.0810  3.5950 -1.2124
  901SOL     OW 2701   1.586   1.720   2.479 -0.5869  0.1697 -0.0118
  901SOL    HW1 2702   1.680   1.704   2.516 -1.4095 -1.0564  1.4385
  901SOL    HW2 2703   1.564   1.658   2.397  1.0356 -0.3975 -1.1698
  902SOL     OW 2704   2.718   2.761   2.987  0.6665  0.1831  0.0183
  902SOL    HW1 2705   2.690   2.837   3.046 -1.5714 -1.3000  1.3995
  902SOL    HW2 2706   2.810   2.734   2.994 -7.8086  2.4900  1.1625
  903SOL     OW 2707   2.304   0.715   1.978  0.5877 -0.7456  0.1034
  903SOL    HW1 2708   2.223   0.664   1.943  1.3925 -0.3742  0.5064
  903SOL    HW2 2709   2.382   0.651   1.977  0.1067  0.1860 -0.6364
  904SOL     OW 2710   1.580   0.419   2.553  0.7187  0.1988 -0.1793
  904SOL    HW1 2711   1.482   0.418   2.518 -4.3599  1.5610 -1.5403
  904SOL    HW2 2712   1.633   0.337   2.520  1.7191  0.3634 -1.1998
  905SOL     OW 2713   2.190   2.353   1.253  0.0983 -0.6588 -0.1265
  905SOL    HW1 2714   2.195   2.311   1.341 -1.1759  1.6036 -2.9904
  905SOL    HW2 2715   2.245   2.437   1.241  0.8552 -0.4149 -2.3671
  906SOL     OW 2716   1.252   1.930   0.186 -0.5975 -0.3570  0.2236
  906SOL    HW1 2717   1.304   1.887   0.106  2.6219 -0.2756 -3.5518
  906SOL    HW2 2718   1.303   1.925   0.272  1.1563 -0.0290 -2.5111
  907SOL     OW 2719   0.719   2.754   0.725 -0.2158 -0.4091  0.5656
  907SOL    HW1 2720   0.714   2.755   0.827 -1.8906 -2.3829 -3.2091
  907SOL    HW2 2721   0.630   2.773   0.682  3.2244  1.7885 -3.7036
  908SOL     OW 2722   1.234   2.649   2.007 -0.4234  0.1008  0.1219
  908SOL    HW1 2723   1.297   2.687   1.932  2.0194 -1.4524 -2.6154
  908SOL    HW2 2724   1.283   2.586   2.071  2.4027 -0.3985  0.1225
  909SOL     OW 2725   2.012   0.254   1.711  0.3846  0.0640  0.5516
  909SOL    HW1 2726   2.061   0.331   1.669 -0.9760 -2.8245 -0.2464
  909SOL    HW2 2727   2.023   0.253   1.815 -2.5096  3.3047  2.6399
  910SOL     OW 2728   1.422   0.819   3.032 -0.0522  0.8018 -0.4318
  910SOL    HW1 2729   1.359   0.893   3.006  2.1233 -0.0376  0.2516
  910SOL    HW2 2730   1.423   0.770   2.943 -0.0001 -0.9672  3.0484
  911SOL     OW 2731   0.023   0.810   0.057  0.0555 -0.0658  0.6404
  911SOL    HW1 2732   3.074   0.720   0.040  0.7605 -0.4883  1.4645
  911SOL    HW2 2733   3.048   0.880   0.091 -0.5740  0.5207  0.9203
  912SOL     OW 2734   0.087   2.511   0.149 -0.3151 -0.3107  0.2133
  912SOL    HW1 2735   0.048   2.436   0.207 -0.4637 -3.1222 -2.8552
  912SOL    HW2 2736   0.014   2.572   0.113 -1.0846  0.1563  1.1241
  913SOL     OW 2737   2.756   2.415   2.329  0.3442 -0.0877  0.6243
  913SOL    HW1 2738   2.805   2.356   2.397  0.7066  0.5516  0.9274
  913SOL    HW2 2739   2.758   2.511   2.360 -0.4851 -1.8908 -0.9306
  914SOL     OW 2740   1.603   2.058   1.508 -0.1440 -0.2774  0.4866
  914SOL    HW1 2741   1.638   2.010   1.424 -2.1434 -2.5332  1.5499
  914SOL    HW2 2742   1.624   2.002   1.590 -0.5015  3.5857 -0.7904
  915SOL     OW 2743   0.801   2.792   2.091 -0.3466 -0.2443  0.0136
  915SOL    HW1 2744   0.751   2.727   2.033  2.5535 -1.8331  0.6742
  915SOL    HW2 2745   0.800   2.889   2.056  0.7233  2.7882 -1.1364
  916SOL     OW 2746   0.674   1.057   1.976  0.0332 -0.4636 -0.0832
  916SOL    HW1 2747   0.598   1.063   2.045 -1.9560 -0.0323  2.1011
  916SOL    HW2 2748   0.739   0.986   2.009  0.5548  2.9575 -3.6833
  917SOL     OW 2749   2.486   0.350   0.596  0.1096  0.5668 -0.2492
  917SOL    HW1 2750   2.420   0.326   0.671 -0.3311  1.2183  0.5770
  917SOL    HW2 2751   2.552   0.276   0.580 -0.9180 -0.7536  0.1920
  918SOL     OW 2752   1.808   2.978   2.170 -0.0495 -0.6127  0.1722
  918SOL    HW1 2753   1.856   2.930   2.246 -0.3610 -1.2215  1.0100
  918SOL    HW2 2754   1.707   2.967   2.177 -0.4500  2.5813 -2.5776
  919SOL     OW 2755   1.567   2.618   1.663 -0.0563 -0.4153 -0.1579
  919SOL    HW1 2756   1.649   2.576   1.626 -2.1577 -0.3438  1.0915
  919SOL    HW2 2757   1.513   2.552   1.710  3.3939  1.2337 -0.4230
  920SOL     OW 2758   0.608   0.870   0.067 -0.3247 -0.0734  0.1458
  920SOL    HW1 2759   0.552   0.937   0.016  1.0736 -1.4636  0.3068
  920SOL    HW2 2760   0.708   0.895   0.062 -1.3156  2.6320  0.6059
  921SOL     OW 2761   0.147   0.437   2.907  0.1472 -0.6753 -0.1752
  921SOL    HW1 2762   0.061   0.426   2.848 -2.6314 -2.4336 -0.2639
  921SOL    HW2 2763   0.213   0.368   2.869 -0.4226 -1.3264  0.0659
  922SOL     OW 2764   0.801   1.741   1.030 -0.2452  0.1150  0.0170
  922SOL    HW1 2765   0.816   1.678   1.107  0.6260  0.0284 -0.3771
  922SOL    HW2 2766   0.725   1.806   1.042  0.5021  0.3998  1.7203
  923SOL     OW 2767   0.698   1.346   1.966  0.1932 -0.2124 -0.3116
  923SOL    HW1 2768   0.639   1.373   1.889  1.0144  0.3694  1.6357
  923SOL    HW2 2769   0.682   1.247   1.989 -1.1402 -0.1963 -0.0843
  924SOL     OW 2770   1.601   2.998   3.045 -0.1120 -0.0391  0.4468
  924SOL    HW1 2771   1.535   2.921   3.044  1.7472  0.9028 -0.4417
  924SOL    HW2 2772   1.680   2.985   2.984  0.9261  0.8511  2.1559
  925SOL     OW 2773   2.734   1.476   1.295 -0.6472 -0.2187 -0.0288
  925SOL    HW1 2774   2.817   1.512   1.240 -0.2701  1.7099 -0.7584
  925SOL    HW2 2775   2.705   1.379   1.270  1.5629 -2.9427  1.4922
  926SOL     OW 2776   1.785   0.603   1.317  0.2550 -0.5391 -0.3149
  926SOL    HW1 2777   1.833   0.670   1.257  1.0102  1.9898 -1.6605
  926SOL    HW2 2778   1.759   0.649   1.404 -0.2905  1.3676 -2.3759
  927SOL     OW 2779   1.926   2.959   1.358  0.4579  0.1797 -0.1180
  927SOL    HW1 2780   2.023   2.924   1.361 -0.5240  4.3429 -1.4712
  927SOL    HW2 2781   1.923   3.058   1.325  2.4202  2.6480  1.2388
  928SOL     OW 2782   0.357   1.181   2.474 -0.2162 -0.2779 -0.0200
  928SOL    HW1 2783   0.290   1.190   2.400 -0.0133 -1.4903  2.1791
  928SOL    HW2 2784   0.316   1.127   2.554 -3.4587 -0.4063  0.1092
  929SOL     OW 2785   2.798   0.412   0.984 -0.1399  0.1327 -0.8256
  929SOL    HW1 2786   2.855   0.416   1.072 -1.7609  1.0346  3.4456
  929SOL    HW2 2787   2.703   0.380   1.001 -0.1724 -0.7903 -0.5627
  930SOL     OW 2788   2.883   2.679   1.799  0.1286 -0.3404 -0.3081
  930SOL    HW1 2789   2.846   2.754   1.849  2.4770 -1.4350 -2.5580
  930SOL    HW2 2790   2.947   2.621   1.853 -0.0277  1.3810 -0.8493
  931SOL     OW 2791   1.778   0.862   0.963 -0.2989 -0.0788 -0.2832
  931SOL    HW1 2792   1.696   0.898   1.010 -0.4712  0.4391  0.6624
  931SOL    HW2 2793   1.845   0.818   1.024 -1.8382  0.2190 -1.7789
  932SOL     OW 2794   3.067   1.235   1.818 -0.0445 -0.0116  0.5452
  932SOL    HW1 2795   3.073   1.148   1.769 -1.5227 -2.0867 -1.7769
  932SOL    HW2 2796   0.055   1.291   1.806 -3.3538 -0.7493 -1.4562
  933SOL     OW 2797   3.018   2.302   1.456  0.2068  0.0307 -0.5255
  933SOL    HW1 2798   2.974   2.376   1.515  2.0876 -1.0440  3.0408
  933SOL    HW2 2799   2.979   2.311   1.361  1.4198  1.7109  0.2686
  934SOL     OW 2800   0.637   1.953   1.361  0.3574  0.3687  0.4176
  934SOL    HW1 2801   0.680   1.877   1.414 -2.7381  0.3248 -2.0375
  934SOL    HW2 2802   0.594   2.023   1.422 -3.1303  0.2637  0.7117
  935SOL     OW 2803   2.792   1.651   1.742 -0.1701  0.4245  0.3529
  935SOL    HW1 2804   2.797   1.548   1.750  0.4679  1.6428  0.0625
  935SOL    HW2 2805   2.711   1.673   1.688  1.3819 -2.3432  2.2123
  936SOL     OW 2806   2.430   1.440   1.665 -0.4312 -0.1116 -0.4736
  936SOL    HW1 2807   2.463   1.493   1.587 -1.9927  2.2997 -0.8605
  936SOL    HW2 2808   2.377   1.487   1.736 -0.8160 -1.6064 -0.9376
  937SOL     OW 2809   1.776   0.780   1.562 -0.2732 -0.1676  0.3783
  937SOL    HW1 2810   1.686   0.823   1.537  0.5501 -2.5121  0.8722
  937SOL    HW2 2811   1.866   0.831   1.546  0.0113 -1.3711 -0.9810
  938SOL     OW 2812   0.586   2.523   2.706  0.0857 -0.0517 -0.5187
  938SOL    HW1 2813   0.578   2.437   2.757  0.1720 -0.2442 -0.6304
  938SOL    HW2 2814   0.661   2.577   2.743 -2.4534  1.3610 -2.1830
  939SOL     OW 2815   2.412   1.453   2.845 -0.5242  0.2483  0.1586
  939SOL    HW1 2816   2.481   1.384   2.819  0.2378  4.0530 -0.3302
  939SOL    HW2 2817   2.445   1.540   2.803 -3.3712  0.8500 -2.2212
  940SOL     OW 2818   1.450   1.882   0.404  0.5965 -0.7681  1.0875
  940SOL    HW1 2819   1.440   1.855   0.502 -0.5181  0.3834  1.5845
  940SOL    HW2 2820   1.476   1.805   0.343  0.2139 -1.5767  0.2846
  941SOL     OW 2821   1.906   2.758   2.731 -0.3759  0.6130  0.2109
  941SOL    HW1 2822   1.867   2.668   2.755  0.2415  0.1946  1.9320
  941SOL    HW2 2823   2.002   2.754   2.700  0.0175 -1.9405 -1.7442
  942SOL     OW 2824   0.950   2.536   0.327 -0.5640 -0.8652  0.1819
  942SOL    HW1 2825   1.029   2.528   0.392  1.3002  0.0081 -1.3083
  942SOL    HW2 2826   0.932   2.629   0.293 -3.4085  1.4950 -1.0277
  943SOL     OW 2827   2.344   0.601   1.654  0.4251  0.6372 -0.1521
  943SOL    HW1 2828   2.442   0.609   1.633 -1.9409 -0.1393  2.3196
  943SOL    HW2 2829   2.324   0.545   1.738 -0.5314  0.5959  1.6268
  944SOL     OW 2830   1.239   1.016   2.957  0.0168  0.0814  0.1213
  944SOL    HW1 2831   1.186   1.091   3.004  0.1127  0.9539 -0.3296
  944SOL    HW2 2832   1.219   1.027   2.862  3.2924  0.1299  2.0771
  945SOL     OW 2833   2.902   2.322   1.220  0.0783  0.1853  0.1791
  945SOL    HW1 2834   2.811   2.371   1.222 -0.6676  2.2879 -1.9418
  945SOL    HW2 2835   2.967   2.378   1.158  4.7580  0.1898 -1.2087
  946SOL     OW 2836   0.429   1.038   3.020  0.0213  0.3473  0.1416
  946SOL    HW1 2837   0.392   1.133   3.030 -2.4611  0.0655  0.1188
  946SOL    HW2 2838   0.436   1.018   2.920 -1.9828  2.6051  0.1056
  947SOL     OW 2839   1.962   0.330   2.011  0.3065  0.1982 -0.4547
  947SOL    HW1 2840   1.875   0.361   2.047  0.4986  0.4501 -0.8771
  947SOL    HW2 2841   1.998   0.251   2.066 -2.8343  2.7389  1.1952
  948SOL     OW 2842   2.794   2.196   0.924  0.5566  0.3467 -0.3039
  948SOL    HW1 2843   2.888   2.201   0.966  2.7661 -0.0697  0.4935
  948SOL    HW2 2844   2.717   2.153   0.979 -1.8011 -1.1940  0.7948
  949SOL     OW 2845   1.217   1.281   1.759 -0.5673 -0.4480  0.4384
  949SOL    HW1 2846   1.129   1.255   1.717  1.6626 -0.7475  1.2523
  949SOL    HW2 2847   1.197   1.325   1.847  0.8715 -2.9351 -0.3550
  950SOL     OW 2848   0.238   0.893   0.944 -0.1696 -0.1652  0.0603
  950SOL    HW1 2849   0.234   0.838   1.028 -0.5217  3.8584  2.4606
  950SOL    HW2 2850   0.292   0.982   0.962  0.0464  0.0923 -0.7212
  951SOL     OW 2851   0.328   1.665   2.262  0.3351 -0.3979  0.7185
  951SOL    HW1 2852   0.280   1.645   2.346 -1.1453 -0.4268 -0.8568
  951SOL    HW2 2853   0.420   1.694   2.279 -2.9005 -1.8994  0.5727
  952SOL     OW 2854   1.528   1.667   0.259 -0.4934  0.3961 -0.4296
  952SOL    HW1 2855   1.601   1.609   0.295 -1.2589  0.1965  0.4745
  952SOL    HW2 2856   1.441   1.611   0.258  1.4827  1.1607  2.8420
  953SOL     OW 2857   1.088   0.563   0.158 -0.4098 -0.0924  0.4653
  953SOL    HW1 2858   1.116   0.500   0.085  0.2666  1.1678 -0.3118
  953SOL    HW2 2859   1.003   0.619   0.135 -2.9241  2.5591  1.5760
  954SOL     OW 2860   1.880   1.111   0.401  0.2844  0.4132 -0.1114
  954SOL    HW1 2861   1.944   1.171   0.446 -0.5778 -2.2887 -0.4946
  954SOL    HW2 2862   1.826   1.165   0.335 -0.2074 -1.5805  0.2723
  955SOL     OW 2863   2.456   2.181   2.838 -0.5060 -0.4612  0.0835
  955SOL    HW1 2864   2.450   2.086   2.850 -1.3281  2.5843  1.3774
  955SOL    HW2 2865   2.515   2.213   2.763 -0.3782 -0.3801  0.6769
  956SOL     OW 2866   1.066   0.679   1.621  0.3265 -0.1880 -0.6537
  956SOL    HW1 2867   1.051   0.650   1.523 -1.5571 -1.5324 -2.9046
  956SOL    HW2 2868   1.150   0.730   1.641 -2.1422 -0.6552 -3.3302
  957SOL     OW 2869   1.640   1.161   1.519 -0.3405  0.0007  0.0775
  957SOL    HW1 2870   1.705   1.119   1.585  1.8768  0.0575  0.1866
  957SOL    HW2 2871   1.559   1.199   1.565 -0.5123 -0.2032  2.3471
  958SOL     OW 2872   0.109   1.862   0.380 -0.2518  0.0875  0.5008
  958SOL    HW1 2873   0.146   1.765   0.372  2.2943  0.0756  0.8414
  958SOL    HW2 2874   0.177   1.932   0.349 -1.2280  0.5542  0.0007
  959SOL     OW 2875   1.718   1.339   1.308  0.2271  0.2296 -0.2442
  959SOL    HW1 2876   1.700   1.270   1.382 -4.7763  1.0865 -1.9205
  959SOL    HW2 2877   1.641   1.338   1.243  2.4989  0.9634 -1.8900
  960SOL     OW 2878   2.906   1.440   2.558 -0.0787  0.3947  0.9255
  960SOL    HW1 2879   2.940   1.538   2.554  0.1975 -1.0423  0.6858
  960SOL    HW2 2880   2.981   1.371   2.577 -1.6076 -1.8117  0.5326
  961SOL     OW 2881   1.039   1.741   0.611  0.1091 -0.1507 -0.1407
  961SOL    HW1 2882   0.947   1.758   0.658  1.3313  0.7154  1.4028
  961SOL    HW2 2883   1.029   1.655   0.550  0.3504 -2.7435  1.7409
  962SOL     OW 2884   0.814   1.029   0.635  0.3453 -0.4710  0.3521
  962SOL    HW1 2885   0.883   1.098   0.624 -3.4267 -2.6112 -2.2139
  962SOL    HW2 2886   0.721   1.068   0.653 -0.1041  2.6342  0.2264
  963SOL     OW 2887   1.305   1.979   2.191 -0.1301  0.6943 -0.2183
  963SOL    HW1 2888   1.339   1.962   2.285 -0.4402 -0.7686  0.0096
  963SOL    HW2 2889   1.220   1.925   2.168  1.0362 -1.2159 -0.6187
  964SOL     OW 2890   2.761   2.843   2.706  0.0672 -0.0789 -0.1988
  964SOL    HW1 2891   2.716   2.812   2.791  1.7986 -0.4236  1.2368
  964SOL    HW2 2892   2.857   2.820   2.695 -2.3785  0.9302 -1.7372
  965SOL     OW 2893   0.661   2.088   0.158 -0.3147 -0.2537 -0.3638
  965SOL    HW1 2894   0.566   2.109   0.200 -0.1480  1.2691 -0.3754
  965SOL    HW2 2895   0.722   2.153   0.209 -2.7216 -2.7711 -0.0500
  966SOL     OW 2896   2.778   1.701   2.901  0.5551 -0.1510 -0.9490
  966SOL    HW1 2897   2.684   1.710   2.950 -0.5363  0.3360  2.2186
  966SOL    HW2 2898   2.752   1.717   2.802 -1.3897 -2.3550  0.4398
  967SOL     OW 2899   2.146   2.996   2.898  0.7575 -0.1165  0.3478
  967SOL    HW1 2900   2.193   3.074   2.858  0.6372 -1.8810  1.4434
  967SOL    HW2 2901   2.138   2.916   2.835 -1.4447  0.5979  0.6425
  968SOL     OW 2902   2.271   2.859   0.593 -0.2437 -0.1595 -0.0662
  968SOL    HW1 2903   2.194   2.828   0.535 -0.4737 -0.2641 -2.4291
  968SOL    HW2 2904   2.259   2.843   0.693  3.2660 -0.3591  1.7195
  969SOL     OW 2905   0.812   1.050   2.408 -0.3357 -0.1602 -0.1765
  969SOL    HW1 2906   0.751   0.971   2.391 -0.2364 -1.1512 -0.3229
  969SOL    HW2 2907   0.757   1.133   2.434 -1.7216 -0.7319  0.4611
  970SOL     OW 2908   1.419   1.334   0.981  0.1487  0.9185 -0.1577
  970SOL    HW1 2909   1.384   1.238   0.956  1.3432 -0.5667  0.7155
  970SOL    HW2 2910   1.425   1.346   1.084  0.5049 -0.1314  2.5786
  971SOL     OW 2911   2.398   3.017   1.402  0.3517 -0.6067  0.3989
  971SOL    HW1 2912   2.331   0.001   1.390 -0.0957 -0.3977 -0.9421
  971SOL    HW2 2913   2.488   3.045   1.364 -1.6211 -0.0339  0.6895
  972SOL     OW 2914   2.858   0.016   1.701 -0.1481 -0.0772 -0.1118
  972SOL    HW1 2915   2.760   0.013   1.704 -1.4756  0.0405 -2.4048
  972SOL    HW2 2916   2.899   3.041   1.637  1.1871 -0.4038 -1.8286
  973SOL     OW 2917   0.184   0.146   2.590 -0.3595 -0.3375 -0.2170
  973SOL    HW1 2918   0.246   0.163   2.666 -1.6317  1.3855 -2.4229
  973SOL    HW2 2919   0.087   0.159   2.623  0.1903 -1.9545  0.0868
  974SOL     OW 2920   2.303   1.066   2.293  0.3122  0.3165 -0.8225
  974SOL    HW1 2921   2.334   1.070   2.392 -1.2085 -1.9886  0.6455
  974SOL    HW2 2922   2.213   1.017   2.289  1.2675 -2.6573  2.7100
  975SOL     OW 2923   0.739   0.250   1.561 -0.2694  0.2803  0.0014
  975SOL    HW1 2924   0.724   0.168   1.501 -0.1111  1.0779 -2.0040
  975SOL    HW2 2925   0.719   0.330   1.501  2.2257  0.5387 -0.5919
  976SOL     OW 2926   0.530   1.988   2.244 -0.4962 -0.5128  0.1269
  976SOL    HW1 2927   0.442   2.003   2.190 -0.6502 -0.6501  1.8339
  976SOL    HW2 2928   0.600   2.054   2.222 -0.8693  0.8630 -0.9386
  977SOL     OW 2929   0.542   0.146   0.346 -0.3594  0.4845  0.3924
  977SOL    HW1 2930   0.558   0.245   0.323  1.6764  1.2786  1.5072
  977SOL    HW2 2931   0.501   0.140   0.439 -0.6848  0.6080  1.5112
  978SOL     OW 2932   2.796   1.382   2.149  0.0971 -0.0312  0.7750
  978SOL    HW1 2933   2.901   1.381   2.155  2.8708 -0.5975  0.4469
  978SOL    HW2 2934   2.764   1.298   2.197 -0.8354  0.8015 -0.9933
  979SOL     OW 2935   1.713   3.070   1.837 -0.6176  0.0665 -0.1657
  979SOL    HW1 2936   1.718   0.069   1.790  0.7616 -0.9276 -0.4688
  979SOL    HW2 2937   1.804   3.041   1.876 -1.3372 -1.5704  0.1894
  980SOL     OW 2938   1.746   1.593   1.618 -1.0788 -0.3807  0.1522
  980SOL    HW1 2939   1.803   1.581   1.534 -0.4913  0.3548  0.7458
  980SOL    HW2 2940   1.644   1.590   1.608 -0.9667  1.4667  1.3506
  981SOL     OW 2941   2.531   1.061   1.427 -0.3200  0.1303 -0.8586
  981SOL    HW1 2942   2.487   1.098   1.513  2.1088  1.8381 -0.0032
  981SOL    HW2 2943   2.633   1.075   1.447  1.8397  0.1947  1.5195
  982SOL     OW 2944   0.626   2.952   2.749 -0.1148 -0.4471  0.2405
  982SOL    HW1 2945   0.698   2.938   2.817 -1.7561  4.3593 -0.4519
  982SOL    HW2 2946   0.646   2.926   2.655 -1.9337  0.9117 -1.4709
  983SOL     OW 2947   2.892   0.520   2.498  0.6474 -0.0791  0.2422
  983SOL    HW1 2948   2.891   0.615   2.464 -0.2255 -0.1892  1.8312
  983SOL    HW2 2949   2.945   0.461   2.435 -0.0853  1.6948 -0.3970
  984SOL     OW 2950   1.234   3.079   2.094  0.5277 -0.8916 -0.2959
  984SOL    HW1 2951   1.324   3.072   2.053 -0.5304  1.4686 -3.2313
  984SOL    HW2 2952   1.176   2.996   2.075 -1.1107  1.0002 -0.1154
  985SOL     OW 2953   1.963   2.074   1.868  0.3449  0.1550 -0.1337
  985SOL    HW1 2954   1.952   2.014   1.786 -0.6828 -2.1037  1.4500
  985SOL    HW2 2955   1.930   2.023   1.949 -2.4961 -0.5163  0.6071
  986SOL     OW 2956   2.513   0.412   1.313 -0.2119  0.5022 -0.2850
  986SOL    HW1 2957   2.452   0.368   1.380 -1.9047 -0.3889 -2.1101
  986SOL    HW2 2958   2.608   0.388   1.323  1.4076  1.5790  1.5049
  987SOL     OW 2959   2.598   1.215   1.214 -0.1628  0.1310  0.3869
  987SOL    HW1 2960   2.555   1.191   1.303  0.8668 -0.1046  0.9187
  987SOL    HW2 2961   2.585   1.136   1.147 -0.0032  1.3766 -1.4535
  988SOL     OW 2962   2.579   1.297   1.839  0.2763 -0.3456 -0.2481
  988SOL    HW1 2963   2.580   1.368   1.916 -0.9125  1.3497  0.0654
  988SOL    HW2 2964   2.513   1.335   1.772  2.9321 -2.2205 -1.0469
  989SOL     OW 2965   1.217   2.352   0.091  0.1548  0.0010 -0.6538
  989SOL    HW1 2966   1.276   2.354   0.175 -1.6327 -1.1397  0.7057
  989SOL    HW2 2967   1.124   2.377   0.118 -1.3752  0.0623  1.1599
  990SOL     OW 2968   1.601   0.844   2.654 -0.1824  0.1022  0.4214
  990SOL    HW1 2969   1.644   0.784   2.587 -0.4407 -1.2024  2.4764
  990SOL    HW2 2970   1.552   0.793   2.726  2.1669  0.2729 -2.1829
  991SOL     OW 2971   1.250   0.562   0.521  0.3738 -0.4121 -0.1871
  991SOL    HW1 2972   1.347   0.535   0.537 -1.7323  3.3157 -0.8620
  991SOL    HW2 2973   1.198   0.498   0.464  1.4306  2.7763  0.2791
  992SOL     OW 2974   2.991   1.821   1.033 -0.1169  0.2337 -0.0109
  992SOL    HW1 2975   2.972   1.835   0.936 -0.9586 -2.3750  1.9192
  992SOL    HW2 2976   2.979   1.908   1.088 -0.1658 -0.7748  1.1510
  993SOL     OW 2977   2.936   0.498   1.233 -0.4175  0.3532 -0.2985
  993SOL    HW1 2978   2.924   0.586   1.285 -0.4021 -1.0270 -0.0146
  993SOL    HW2 2979   3.034   0.492   1.199  0.2974 -1.3938  0.0690
  994SOL     OW 2980   0.020   2.069   2.461 -0.5313  0.2042  0.8031
  994SOL    HW1 2981   0.084   2.143   2.492  1.2057 -2.5978  2.0672
  994SOL    HW2 2982   0.060   2.006   2.391  1.2134 -1.3784  1.5358
  995SOL     OW 2983   1.943   0.947   2.743 -0.0491 -0.2589 -0.3854
  995SOL    HW1 2984   1.978   0.981   2.661 -0.8570 -2.3331  3.7239
  995SOL    HW2 2985   1.917   0.850   2.726 -4.4894  0.7031 -0.2795
  996SOL     OW 2986   2.670   1.353   0.585 -0.6696  1.0059 -0.1106
  996SOL    HW1 2987   2.575   1.370   0.555 -0.8557 -0.7772 -1.2146
  996SOL    HW2 2988   2.738   1.371   0.511  0.4723  0.9761  1.2089
  997SOL     OW 2989   1.991   0.795   2.079 -0.3974  0.0769 -0.1803
  997SOL    HW1 2990   2.042   0.715   2.036 -0.9746 -1.6981 -1.4219
  997SOL    HW2 2991   1.946   0.846   2.005  2.2084 -0.5692  0.4334
  998SOL     OW 2992   2.699   1.494   0.176  0.2692 -0.1164 -0.1866
  998SOL    HW1 2993   2.685   1.543   0.258  0.5992 -1.0707 -1.2035
  998SOL    HW2 2994   2.704   1.396   0.193  1.1810 -0.9222 -2.1438
  999SOL     OW 2995   2.885   2.477   0.040  0.2806 -0.6533  0.4467
  999SOL    HW1 2996   2.909   2.380   0.034  0.2559 -2.5094 -1.7161
  999SOL    HW2 2997   2.829   2.499   0.121 -0.6864 -1.5361 -0.2673
 1000SOL     OW 2998   0.909   0.843   2.748 -0.2316 -0.2839 -0.3494
 1000SOL    HW1 2999   0.982   0.821   2.814 -2.1169 -2.2126 -3.9803
 1000SOL    HW2 3000   0.929   0.808   2.653 -0.9547  1.9864 -0.7903
   3.09272   3.09272   3.09272
