1000 SPC/Fw water molecules t= 374.00000 step= 374000
 3000
    1SOL     OW    1   2.422   2.623   1.672  0.1694 -0.0947  1.1344
    1SOL    HW1    2   2.410   2.681   1.753  4.2495 -1.4839 -0.4505
    1SOL    HW2    3   2.418   2.679   1.588  1.7990  0.3600  2.9411
    2SOL     OW    4   2.189   2.463   0.435 -0.5329  0.2112  0.1814
    2SOL    HW1    5   2.238   2.488   0.350 -0.7169 -2.1417  1.5476
    2SOL    HW2    6   2.152   2.546   0.481  1.1752  2.0464  0.6376
    3SOL     OW    7   1.116   0.195   0.194  0.4589 -0.2305 -0.4482
    3SOL    HW1    8   1.048   0.270   0.193 -3.0499  2.6988 -0.4242
    3SOL    HW2    9   1.206   0.221   0.166 -2.3316  0.4732 -0.5477
    4SOL     OW   10   1.353   2.862   2.189  0.2351 -0.3430  0.0639
    4SOL    HW1   11   1.336   2.772   2.233  1.9442  0.4711 -0.6557
    4SOL    HW2   12   1.280   2.922   2.219  1.5730 -2.5040 -0.2053
    5SOL     OW   13   2.276   0.362   1.618 -0.6160 -0.3294  0.7288
    5SOL    HW1   14   2.173   0.361   1.620 -2.2159 -0.9624  1.0549
    5SOL    HW2   15   2.312   0.403   1.704 -1.6702  1.3906  1.1169
    6SOL     OW   16   2.160   2.202   0.543  0.0361 -0.5756  0.4041
    6SOL    HW1   17   2.181   2.295   0.503 -1.3130 -0.6122  1.4454
    6SOL    HW2   18   2.079   2.162   0.496  1.9181  0.8327  0.3208
    7SOL     OW   19   1.868   1.179   1.055  0.2302  0.4560 -0.1417
    7SOL    HW1   20   1.905   1.146   1.145  2.3599  2.4680  2.3976
    7SOL    HW2   21   1.783   1.125   1.037 -3.4425 -0.8997 -1.1349
    8SOL     OW   22   0.964   1.294   1.237  0.0413 -0.2126  0.6521
    8SOL    HW1   23   0.911   1.377   1.209  1.5097  0.1278 -0.4728
    8SOL    HW2   24   0.901   1.214   1.249  0.6264 -1.4016 -2.8475
    9SOL     OW   25   0.974   2.480   1.512  0.1093 -0.6034 -0.3880
    9SOL    HW1   26   0.906   2.538   1.558  2.3674 -1.6706  1.3350
    9SOL    HW2   27   0.973   2.388   1.548  0.7675  0.5912  0.6897
   10SOL     OW   28   1.041   2.402   0.592  0.3216 -1.2157  0.2223
   10SOL    HW1   29   0.946   2.373   0.570  1.0420  0.1995 -2.0861
   10SOL    HW2   30   1.096   2.321   0.594 -1.3806  5.0802 -1.3234
   11SOL     OW   31   1.683   1.648   1.347 -0.1327 -0.0074  0.1307
   11SOL    HW1   32   1.648   1.747   1.344  3.1792 -0.0199 -1.9435
   11SOL    HW2   33   1.670   1.608   1.253 -1.4646 -1.0577  0.6068
   12SOL     OW   34   2.613   0.585   2.162  0.9066 -0.2909 -0.3888
   12SOL    HW1   35   2.651   0.536   2.077  1.2545 -0.7592 -1.3890
   12SOL    HW2   36   2.566   0.677   2.145  0.5137  1.3986  1.3116
   13SOL     OW   37   2.485   0.234   0.543 -0.1621  0.1430  0.2344
   13SOL    HW1   38   2.386   0.240   0.545  0.7588 -1.1583  0.5662
   13SOL    HW2   39   2.521   0.176   0.616  0.1433 -1.5257  2.7765
   14SOL     OW   40   1.622   1.414   0.022  0.5260  0.4756 -0.3671
   14SOL    HW1   41   1.581   1.334   0.076 -1.7509 -2.0230 -1.2154
   14SOL    HW2   42   1.603   1.412   2.993  0.6825 -0.1548  1.6727
   15SOL     OW   43   2.380   2.360   1.526 -0.2824 -0.4175 -0.0407
   15SOL    HW1   44   2.403   2.376   1.428 -0.5543  0.6709 -0.1628
   15SOL    HW2   45   2.386   2.448   1.578 -0.9400 -2.1253  0.8984
   16SOL     OW   46   2.447   2.830   0.878 -0.4195  0.7934  0.0835
   16SOL    HW1   47   2.405   2.921   0.877  0.7389 -2.4102 -0.5256
   16SOL    HW2   48   2.501   2.814   0.962 -3.6640 -2.1369 -2.8260
   17SOL     OW   49   0.866   0.367   1.288 -0.0257 -0.1676 -0.1675
   17SOL    HW1   50   0.861   0.446   1.223  2.7520 -0.4373 -2.1407
   17SOL    HW2   51   0.811   0.290   1.253  3.4341  1.8810  2.0418
   18SOL     OW   52   1.994   0.317   0.541 -0.1318  0.3324  0.2691
   18SOL    HW1   53   1.937   0.258   0.600 -2.1793  2.1312 -1.1995
   18SOL    HW2   54   1.967   0.306   0.439 -4.2171 -2.1888 -0.9652
   19SOL     OW   55   1.964   1.597   0.192 -0.7436 -0.0396 -0.4128
   19SOL    HW1   56   1.938   1.585   0.098  0.9735  2.7057  1.9871
   19SOL    HW2   57   1.978   1.691   0.217 -1.6935 -0.8803 -0.1012
   20SOL     OW   58   2.093   1.448   2.395 -0.4365 -0.4256  0.7686
   20SOL    HW1   59   2.180   1.446   2.345 -1.4549  0.5013  2.0910
   20SOL    HW2   60   2.017   1.393   2.350 -3.8321 -1.1927  0.0879
   21SOL     OW   61   1.435   0.284   0.521 -0.1766 -0.1612  0.1043
   21SOL    HW1   62   1.383   0.317   0.601 -2.7301  0.3398  0.8622
   21SOL    HW2   63   1.465   0.358   0.466  0.3294 -3.1621  0.0910
   22SOL     OW   64   2.521   0.541   1.547 -0.3523  0.9563  0.0704
   22SOL    HW1   65   2.541   0.632   1.582  1.9804 -2.2741 -1.3425
   22SOL    HW2   66   2.420   0.516   1.547 -1.5065 -3.0935 -0.8036
   23SOL     OW   67   0.216   0.298   1.998  0.6368 -0.4199  0.3635
   23SOL    HW1   68   0.270   0.297   1.912  0.6889 -0.8313  0.5797
   23SOL    HW2   69   0.269   0.347   2.067  0.2760 -1.1032 -4.7419
   24SOL     OW   70   2.543   2.493   0.407 -0.2734  0.5602  0.3182
   24SOL    HW1   71   2.582   2.414   0.357 -1.1805 -0.9232 -0.0753
   24SOL    HW2   72   2.465   2.534   0.356  1.3783 -0.4329 -0.5337
   25SOL     OW   73   1.287   0.016   2.568  0.1569  0.7238 -0.3053
   25SOL    HW1   74   1.369   0.015   2.633  0.0402 -1.6492  1.9933
   25SOL    HW2   75   1.198   3.044   2.600 -0.9899  1.4459  0.8011
   26SOL     OW   76   1.360   2.654   0.172  0.5870 -0.3479  0.4565
   26SOL    HW1   77   1.315   2.721   0.106 -0.0831 -0.1386 -0.9164
   26SOL    HW2   78   1.299   2.627   0.248 -0.9760  0.4602 -1.1483
   27SOL     OW   79   1.490   0.710   1.062  0.2922 -0.2558  0.3749
   27SOL    HW1   80   1.454   0.739   0.973 -1.2354 -3.0037 -0.6910
   27SOL    HW2   81   1.579   0.656   1.058  1.3767 -0.6760  1.9211
   28SOL     OW   82   1.444   1.472   0.768 -0.3263 -0.0455 -0.3913
   28SOL    HW1   83   1.441   1.524   0.680 -0.4079 -1.3741 -1.3904
   28SOL    HW2   84   1.531   1.484   0.818 -1.5704  0.1456  0.7960
   29SOL     OW   85   2.928   3.056   1.889  0.0488  0.7774  0.2319
   29SOL    HW1   86   2.854   2.987   1.905  0.8285  0.5447 -1.1147
   29SOL    HW2   87   2.926   0.023   1.795  0.9841  0.4629 -2.1161
   30SOL     OW   88   0.996   3.041   1.241  0.7472  0.1760  0.3126
   30SOL    HW1   89   0.968   2.945   1.229  0.1534  2.6655  0.5155
   30SOL    HW2   90   1.085   3.065   1.205 -2.5240  2.8602  0.2762
   31SOL     OW   91   1.749   2.782   1.922  0.4651  0.0593 -0.5257
   31SOL    HW1   92   1.807   2.853   1.870  3.3683  2.1439 -1.3422
   31SOL    HW2   93   1.730   2.695   1.869 -4.1103 -1.4103  0.8745
   32SOL     OW   94   0.870   1.743   3.004  0.3272  0.1434 -0.3181
   32SOL    HW1   95   0.839   1.774   2.913  0.8734  0.2085  1.7534
   32SOL    HW2   96   0.900   1.817   3.062 -1.7656 -1.5498 -0.9560
   33SOL     OW   97   3.034   0.931   2.084  0.0720  0.1317 -0.4900
   33SOL    HW1   98   2.988   0.865   2.150 -0.0343  0.5736 -1.2165
   33SOL    HW2   99   0.017   0.883   2.009 -0.6499 -1.2634  0.5449
   34SOL     OW  100   2.220   0.108   0.578 -0.4723  0.3987 -0.2860
   34SOL    HW1  101   2.178   0.170   0.649 -0.5675 -1.4212  0.4074
   34SOL    HW2  102   2.165   0.101   0.493  0.1089  2.2508  0.0187
   35SOL     OW  103   2.408   2.267   1.869 -0.0103  0.3629 -0.3793
   35SOL    HW1  104   2.359   2.325   1.800 -1.0974 -1.1010 -1.6400
   35SOL    HW2  105   2.378   2.290   1.960 -0.6781 -0.4300  0.6896
   36SOL     OW  106   2.438   2.099   2.965 -0.3261  0.1802 -0.0345
   36SOL    HW1  107   2.349   2.129   2.926  0.0186  0.0214  0.7519
   36SOL    HW2  108   2.515   2.136   2.913 -0.2054  1.2065 -0.6541
   37SOL     OW  109   2.021   0.252   1.556 -0.9724 -0.1553 -0.6062
   37SOL    HW1  110   2.043   0.228   1.652 -2.0296 -0.7583  0.4424
   37SOL    HW2  111   1.920   0.261   1.548 -0.4266 -0.5627 -3.1237
   38SOL     OW  112   3.013   0.321   2.797 -0.1834  0.2969  0.0085
   38SOL    HW1  113   2.993   0.406   2.740 -0.7749  2.7268  1.5471
   38SOL    HW2  114   0.040   0.334   2.837  2.7019 -0.2380 -0.4702
   39SOL     OW  115   1.917   1.252   1.797  0.5809 -0.2026  0.2595
   39SOL    HW1  116   1.988   1.241   1.875  1.2673 -0.1838  1.2061
   39SOL    HW2  117   1.892   1.346   1.780  0.0928  1.3783 -0.7649
   40SOL     OW  118   1.260   2.080   0.822 -0.5867 -0.1904  0.2444
   40SOL    HW1  119   1.344   2.026   0.838 -0.8483  0.5649  0.2799
   40SOL    HW2  120   1.239   2.105   0.724 -3.4122  2.2005  0.5001
   41SOL     OW  121   1.885   1.941   0.872  0.1775  1.0061 -0.1778
   41SOL    HW1  122   1.917   2.035   0.882 -2.7751 -1.1076 -0.6440
   41SOL    HW2  123   1.913   1.898   0.782  1.9922 -0.9717  1.1712
   42SOL     OW  124   0.285   0.439   1.264 -0.0598  0.3417 -0.4151
   42SOL    HW1  125   0.222   0.432   1.346 -0.0638 -0.8915 -0.7733
   42SOL    HW2  126   0.382   0.436   1.298  1.9802 -0.9543  1.3047
   43SOL     OW  127   0.090   1.577   2.625  0.1885  0.4477  0.3271
   43SOL    HW1  128   0.117   1.637   2.701  0.9056  1.4372 -2.7102
   43SOL    HW2  129   0.156   1.558   2.548  1.5844 -0.5225 -1.5188
   44SOL     OW  130   1.761   2.786   1.314 -0.2963 -0.0507 -0.1732
   44SOL    HW1  131   1.801   2.724   1.387  1.1897 -0.6965 -0.8101
   44SOL    HW2  132   1.670   2.825   1.334 -0.6557 -0.4160  0.3776
   45SOL     OW  133   1.194   3.034   2.320  0.5058  0.2027 -0.3464
   45SOL    HW1  134   1.095   3.019   2.330 -1.2694  0.9240 -1.1583
   45SOL    HW2  135   1.243   3.056   2.408  0.8415  0.2196  2.4494
   46SOL     OW  136   0.805   2.584   2.382  0.4071  0.0105 -0.0433
   46SOL    HW1  137   0.870   2.661   2.367  1.0036  0.4350  2.7852
   46SOL    HW2  138   0.737   2.609   2.458 -1.9935 -2.2550  0.8056
   47SOL     OW  139   0.944   2.360   0.948 -0.4039  0.2678  0.0210
   47SOL    HW1  140   0.969   2.447   0.900 -0.6264  0.4123  0.6119
   47SOL    HW2  141   1.002   2.344   1.033  0.1837 -0.9671  0.2744
   48SOL     OW  142   1.112   2.319   1.166  0.4145  0.3669  0.0551
   48SOL    HW1  143   1.049   2.249   1.202 -1.0861 -0.2726  2.7750
   48SOL    HW2  144   1.146   2.396   1.231 -1.6663  1.6035  1.6910
   49SOL     OW  145   2.319   0.239   0.013  0.0319 -0.3605  0.3874
   49SOL    HW1  146   2.245   0.179   3.044  1.4163  1.7509 -3.3799
   49SOL    HW2  147   2.383   0.263   3.009 -1.9522 -0.5487  0.3079
   50SOL     OW  148   1.709   0.213   0.297 -0.2316  0.0190  0.4269
   50SOL    HW1  149   1.812   0.217   0.278  4.1393 -1.3607 -1.1731
   50SOL    HW2  150   1.653   0.275   0.237 -0.5172  0.0226  0.9251
   51SOL     OW  151   2.367   0.931   1.368 -0.2545  0.6281 -0.0905
   51SOL    HW1  152   2.354   0.999   1.289  2.2202  0.0181 -0.0789
   51SOL    HW2  153   2.283   0.914   1.419  2.4528 -0.9710 -0.7731
   52SOL     OW  154   0.527   1.611   0.023 -0.0542  0.3493 -0.1024
   52SOL    HW1  155   0.602   1.545   0.040  0.3258 -2.5783  3.3937
   52SOL    HW2  156   0.558   1.697   0.061  1.0302 -1.2790 -0.4312
   53SOL     OW  157   0.177   1.184   2.599 -0.4115 -0.1342  0.2528
   53SOL    HW1  158   0.168   1.232   2.507  0.0127  0.5568  0.8645
   53SOL    HW2  159   0.255   1.225   2.648 -1.5836  0.8326  2.1114
   54SOL     OW  160   2.628   1.341   1.908  0.0317  0.2880  0.3046
   54SOL    HW1  161   2.566   1.273   1.951  0.8406  3.7325 -1.3846
   54SOL    HW2  162   2.694   1.369   1.975 -0.0868  1.2563 -3.3553
   55SOL     OW  163   2.363   1.922   0.267  0.3426 -0.0654  0.2979
   55SOL    HW1  164   2.446   1.954   0.216 -1.4655  2.1258  0.1303
   55SOL    HW2  165   2.371   1.816   0.261  0.2035 -1.1395  0.3520
   56SOL     OW  166   1.778   0.127   1.409  0.2366  0.0850 -0.3377
   56SOL    HW1  167   1.744   0.082   1.497 -0.4632  0.3248 -1.0035
   56SOL    HW2  168   1.821   0.061   1.344  2.6150 -1.1883 -0.8853
   57SOL     OW  169   1.604   1.149   2.756 -1.0073 -0.0894 -0.2145
   57SOL    HW1  170   1.664   1.075   2.788 -1.4758  0.8091 -0.9832
   57SOL    HW2  171   1.644   1.186   2.668 -0.5848  0.7371  1.2045
   58SOL     OW  172   2.365   0.173   1.446 -0.1804 -0.2939 -0.5916
   58SOL    HW1  173   2.283   0.196   1.388 -3.5276  3.4247 -1.6070
   58SOL    HW2  174   2.356   0.238   1.527  0.5046 -0.8254  2.4248
   59SOL     OW  175   1.221   2.801   0.006  0.0764 -0.7142 -0.8194
   59SOL    HW1  176   1.126   2.796   3.041  3.3431  3.4976  0.4968
   59SOL    HW2  177   1.258   2.898   0.001  0.9930 -3.2220  0.0508
   60SOL     OW  178   0.089   2.156   2.796 -0.5528  0.4344  0.2703
   60SOL    HW1  179   0.106   2.110   2.707 -1.1025 -0.6472 -0.6133
   60SOL    HW2  180   0.145   2.105   2.864  1.1494  1.4364  1.6265
   61SOL     OW  181   0.691   2.559   0.801 -0.1565  1.1195 -0.1291
   61SOL    HW1  182   0.686   2.588   0.900 -0.9430  0.0057 -0.1008
   61SOL    HW2  183   0.753   2.622   0.750  1.4959 -1.1305  0.5199
   62SOL     OW  184   1.771   1.729   2.724  0.0225 -0.7969  0.3306
   62SOL    HW1  185   1.735   1.783   2.643  0.3571 -1.7690 -0.3473
   62SOL    HW2  186   1.691   1.685   2.771  1.5598 -0.7222  1.9382
   63SOL     OW  187   1.737   1.954   0.167 -0.1428 -0.0689 -0.5951
   63SOL    HW1  188   1.700   2.048   0.162 -0.2367  1.6036 -1.1208
   63SOL    HW2  189   1.704   1.895   0.089  0.2100  2.4386 -0.9943
   64SOL     OW  190   2.127   0.968   0.011  0.1050  0.7224  0.5807
   64SOL    HW1  191   2.074   1.043   3.038  0.7737  0.1370  0.6738
   64SOL    HW2  192   2.158   0.991   0.101  1.2036 -0.4683  0.0830
   65SOL     OW  193   2.004   1.922   2.011 -0.8179  0.4582 -1.2701
   65SOL    HW1  194   2.066   1.924   2.094 -3.3329 -0.8805  1.6789
   65SOL    HW2  195   2.062   1.919   1.930 -1.9674 -0.6299  1.2598
   66SOL     OW  196   0.239   0.780   1.356  0.4496  0.5409  0.3341
   66SOL    HW1  197   0.322   0.819   1.307 -1.3896  1.0304  1.4743
   66SOL    HW2  198   0.214   0.846   1.429 -0.4516  0.6526  1.1276
   67SOL     OW  199   2.102   0.114   3.016 -0.1598  0.1218  0.3380
   67SOL    HW1  200   2.051   0.037   3.057  3.0993  1.1871 -1.7041
   67SOL    HW2  201   2.043   0.175   2.960  1.8251  0.0042 -1.8033
   68SOL     OW  202   1.535   1.895   1.390  0.2887 -0.3001  1.0428
   68SOL    HW1  203   1.463   1.919   1.317 -2.5531  1.5784 -3.5348
   68SOL    HW2  204   1.576   1.979   1.429 -1.4879 -0.3162 -1.4433
   69SOL     OW  205   0.288   2.814   0.316 -0.0145 -0.1668  0.2093
   69SOL    HW1  206   0.295   2.749   0.241 -0.7709  1.3186  2.1299
   69SOL    HW2  207   0.190   2.814   0.348 -2.5423  0.6300 -0.8363
   70SOL     OW  208   0.342   0.668   1.874  0.0477 -0.2003  0.1605
   70SOL    HW1  209   0.246   0.673   1.901  1.1146  1.9536 -0.5933
   70SOL    HW2  210   0.353   0.680   1.775  2.1101 -0.9192  1.3086
   71SOL     OW  211   0.944   1.118   2.556  0.4272  0.2670 -0.2525
   71SOL    HW1  212   0.990   1.139   2.647  2.2967  0.8703  1.3580
   71SOL    HW2  213   1.004   1.054   2.507 -0.0203  3.7529  0.7468
   72SOL     OW  214   2.912   1.782   2.009 -0.0762 -0.1560 -0.1828
   72SOL    HW1  215   2.815   1.788   1.976  0.8521 -0.3449  2.8734
   72SOL    HW2  216   2.970   1.733   1.941  2.3046 -2.0771 -3.3575
   73SOL     OW  217   1.378   1.724   0.157 -0.4721  0.9666 -0.1976
   73SOL    HW1  218   1.373   1.760   0.063  1.1364 -1.4198 -1.0613
   73SOL    HW2  219   1.285   1.722   0.196 -0.1606 -0.7640  1.1985
   74SOL     OW  220   2.282   0.003   2.799  1.0048  0.2488 -0.2808
   74SOL    HW1  221   2.256   0.091   2.763 -1.3972 -4.1168 -0.2223
   74SOL    HW2  222   2.200   3.027   2.834 -4.3882  2.9602  1.2138
   75SOL     OW  223   1.511   2.281   1.044 -0.5471  0.1144  0.3577
   75SOL    HW1  224   1.442   2.313   0.978  1.9761  2.6541 -0.1982
   75SOL    HW2  225   1.578   2.221   0.992 -0.1025 -0.4080  0.0475
   76SOL     OW  226   2.960   2.040   1.673 -0.4441  0.6237  0.2464
   76SOL    HW1  227   2.897   2.118   1.650  0.7348  3.1226  2.5707
   76SOL    HW2  228   3.009   2.049   1.766  2.2806 -2.4904 -0.1393
   77SOL     OW  229   0.689   2.935   1.860 -0.0035  0.1797  0.0918
   77SOL    HW1  230   0.621   2.944   1.782 -2.1972  1.6495 -0.9436
   77SOL    HW2  231   0.655   2.970   1.949 -0.6657 -1.4072 -3.1884
   78SOL     OW  232   2.331   0.819   0.330 -0.7086  0.0815  0.1607
   78SOL    HW1  233   2.261   0.893   0.331  1.5325 -0.9452  0.6733
   78SOL    HW2  234   2.386   0.815   0.240  0.7786 -1.0853 -1.0738
   79SOL     OW  235   2.902   1.468   2.627  0.0983 -0.0345  0.0105
   79SOL    HW1  236   2.890   1.397   2.695  0.3306 -2.2038 -2.5194
   79SOL    HW2  237   2.998   1.501   2.621  0.9404 -1.2133  2.3579
   80SOL     OW  238   1.814   1.503   1.757 -0.0725  0.2277  0.4046
   80SOL    HW1  239   1.711   1.505   1.774  0.3613  0.0954 -1.0097
   80SOL    HW2  240   1.830   1.499   1.652 -0.7256  1.4671 -2.6455
   81SOL     OW  241   1.882   1.379   2.242  0.1818  0.2255  0.1358
   81SOL    HW1  242   1.807   1.313   2.216 -1.1549 -2.6418 -3.5466
   81SOL    HW2  243   1.888   1.460   2.184  1.3405 -1.5883 -1.1409
   82SOL     OW  244   1.449   1.331   1.964  0.8152  0.2349  0.3842
   82SOL    HW1  245   1.492   1.367   1.876 -2.5358 -1.4005  1.1282
   82SOL    HW2  246   1.489   1.239   1.988  0.0482 -1.3310  0.2756
   83SOL     OW  247   0.328   0.482   0.298 -0.0000  0.3506 -0.4790
   83SOL    HW1  248   0.404   0.473   0.367  1.1915 -1.0366  0.4005
   83SOL    HW2  249   0.234   0.472   0.341 -1.2948 -2.5319 -0.3788
   84SOL     OW  250   0.014   0.642   0.268  0.2098 -0.1668 -0.0121
   84SOL    HW1  251   3.061   0.660   0.171  0.0874  2.1002 -3.2325
   84SOL    HW2  252   0.081   0.709   0.302 -2.5487 -0.4382 -1.0899
   85SOL     OW  253   2.427   2.350   1.257 -0.7147  0.1902 -0.9146
   85SOL    HW1  254   2.326   2.354   1.251 -1.5691  0.9983 -0.8499
   85SOL    HW2  255   2.468   2.298   1.178  1.4623  0.2330  2.3098
   86SOL     OW  256   0.232   0.170   1.583 -0.0403  0.3696 -0.6906
   86SOL    HW1  257   0.314   0.121   1.548  0.3571  0.3768  0.3570
   86SOL    HW2  258   0.157   0.112   1.618  1.2546  1.7083  1.6521
   87SOL     OW  259   0.406   2.517   1.846 -0.2154  0.6212  0.2722
   87SOL    HW1  260   0.496   2.499   1.801  0.6403  2.5524 -1.3196
   87SOL    HW2  261   0.327   2.454   1.808 -2.2829 -1.8710 -0.2599
   88SOL     OW  262   0.289   2.080   2.992  0.0135  0.0083  0.1649
   88SOL    HW1  263   0.252   1.999   3.048 -0.7784  0.1745  0.9056
   88SOL    HW2  264   0.356   2.138   3.042 -1.7116  1.3639  0.3204
   89SOL     OW  265   1.128   0.961   0.633  0.5499 -0.8358 -0.1841
   89SOL    HW1  266   1.226   0.936   0.618 -1.0731  2.5586 -0.6284
   89SOL    HW2  267   1.067   0.897   0.578 -0.5106  1.6561  2.0913
   90SOL     OW  268   0.083   1.589   2.161 -0.2416  0.6111  0.0684
   90SOL    HW1  269   0.054   1.623   2.066 -1.8056 -0.9047  0.3516
   90SOL    HW2  270   0.066   1.661   2.232  1.2664 -0.7619  0.9855
   91SOL     OW  271   1.672   0.833   0.731  0.5860  0.1064 -0.1296
   91SOL    HW1  272   1.651   0.744   0.769 -3.2257 -1.5133 -0.2447
   91SOL    HW2  273   1.772   0.849   0.737 -1.1993  1.0128 -1.1325
   92SOL     OW  274   2.306   1.218   0.880 -0.5237 -0.0268  0.1396
   92SOL    HW1  275   2.299   1.277   0.797 -1.1815 -0.1092  0.8917
   92SOL    HW2  276   2.324   1.271   0.970  0.8088 -0.1033  5.8408
   93SOL     OW  277   0.134   0.916   2.536 -0.4978  0.0894 -0.1773
   93SOL    HW1  278   0.215   0.898   2.479 -1.0753 -3.0070 -1.0026
   93SOL    HW2  279   0.134   1.015   2.573  0.8541  0.9243 -0.1220
   94SOL     OW  280   1.907   2.255   2.613 -0.3946 -0.1117  0.4374
   94SOL    HW1  281   1.948   2.176   2.667 -0.5954  1.2614 -1.1944
   94SOL    HW2  282   1.978   2.310   2.570 -3.3168  0.3065  2.9915
   95SOL     OW  283   0.094   3.029   1.361  0.0876 -0.2105  0.9969
   95SOL    HW1  284   0.079   2.953   1.295 -0.0516  1.2794 -1.9806
   95SOL    HW2  285   0.023   0.029   1.343 -0.1566  0.9249 -1.3464
   96SOL     OW  286   2.900   2.568   1.138 -0.1168 -0.5374 -0.1177
   96SOL    HW1  287   2.861   2.596   1.053  0.0884  0.1082  0.6780
   96SOL    HW2  288   2.893   2.643   1.212  0.3519 -0.3358 -0.1877
   97SOL     OW  289   2.545   0.796   1.562  0.0489 -0.8142 -0.0851
   97SOL    HW1  290   2.495   0.849   1.491 -0.2588  0.2643 -0.7478
   97SOL    HW2  291   2.612   0.859   1.610  3.0150  0.8507 -0.9859
   98SOL     OW  292   1.860   2.550   1.801  0.0420 -0.2999  0.6986
   98SOL    HW1  293   1.881   2.446   1.801  3.1244 -1.1945  1.1799
   98SOL    HW2  294   1.778   2.579   1.745  0.5943 -1.1834 -0.9239
   99SOL     OW  295   0.272   2.744   1.465 -0.2755 -0.0858  0.2265
   99SOL    HW1  296   0.200   2.750   1.533  1.9959  1.7081 -0.5354
   99SOL    HW2  297   0.330   2.656   1.478  0.3105 -4.0802  3.4283
  100SOL     OW  298   1.731   0.322   2.627 -0.2360 -0.0051  0.3444
  100SOL    HW1  299   1.797   0.393   2.659  1.4600 -0.1382 -1.5404
  100SOL    HW2  300   1.785   0.236   2.615 -1.5152 -4.5286 -0.3032
  101SOL     OW  301   2.717   0.409   2.524  0.0738 -0.3279 -0.4682
  101SOL    HW1  302   2.726   0.320   2.471 -2.8536  2.1621 -1.2935
  101SOL    HW2  303   2.663   0.480   2.476  0.8024 -1.0348  1.5474
  102SOL     OW  304   0.366   0.559   1.555  0.0574  0.0577  0.1146
  102SOL    HW1  305   0.363   0.650   1.509 -1.4038  1.7374  0.7644
  102SOL    HW2  306   0.423   0.488   1.511 -0.6813  1.2502 -1.2668
  103SOL     OW  307   0.853   0.447   2.660 -0.0814  0.4287  0.1771
  103SOL    HW1  308   0.927   0.381   2.682 -1.7573  0.0926  1.5862
  103SOL    HW2  309   0.890   0.538   2.663 -0.9220 -0.2203 -1.2114
  104SOL     OW  310   0.342   0.862   2.369 -0.2027 -0.3089  0.3882
  104SOL    HW1  311   0.371   0.782   2.426  2.3528 -1.0625 -2.1405
  104SOL    HW2  312   0.370   0.839   2.269  0.3986  0.7747 -3.6772
  105SOL     OW  313   2.296   1.997   1.450  0.4551 -0.2390  0.2530
  105SOL    HW1  314   2.251   2.086   1.482 -1.5828 -0.4155  0.0546
  105SOL    HW2  315   2.278   1.996   1.347  1.3152 -0.6522 -1.4431
  106SOL     OW  316   1.638   2.965   0.625  0.5611  0.2711  0.4264
  106SOL    HW1  317   1.652   3.066   0.611 -0.4560 -0.4753 -0.8023
  106SOL    HW2  318   1.562   2.929   0.557 -2.0430  0.1925 -0.8385
  107SOL     OW  319   1.914   2.286   1.069 -0.2704 -0.6105 -0.1946
  107SOL    HW1  320   1.843   2.234   1.123 -0.4704 -3.0285  2.1703
  107SOL    HW2  321   1.878   2.355   1.004  1.9300  0.4822  1.8562
  108SOL     OW  322   0.012   2.195   1.099  0.1781  0.1000  0.3446
  108SOL    HW1  323   0.009   2.164   1.004  1.2752  3.8429 -0.3118
  108SOL    HW2  324   0.056   2.289   1.104  2.1813  0.4431  1.7823
  109SOL     OW  325   2.292   2.242   0.847 -0.2219 -0.1257 -0.2158
  109SOL    HW1  326   2.290   2.202   0.755  0.6444  0.0475 -0.7720
  109SOL    HW2  327   2.317   2.340   0.836 -1.5878  1.1800 -0.0351
  110SOL     OW  328   1.147   1.667   1.983  0.2634  0.0389  0.0619
  110SOL    HW1  329   1.110   1.577   1.959  5.0359  0.5964 -0.0766
  110SOL    HW2  330   1.078   1.727   2.023  1.1262 -2.1256 -0.6543
  111SOL     OW  331   1.629   2.301   2.080  0.5356  0.0321 -0.2892
  111SOL    HW1  332   1.539   2.335   2.046 -3.4622 -0.6834  0.7011
  111SOL    HW2  333   1.697   2.378   2.084 -0.7792  2.4197 -0.5414
  112SOL     OW  334   1.529   1.925   2.744  0.7093 -0.1723 -0.4023
  112SOL    HW1  335   1.570   2.020   2.760 -0.2279  4.3347 -0.8358
  112SOL    HW2  336   1.575   1.874   2.668  0.9634 -0.3650  2.5857
  113SOL     OW  337   1.680   1.883   1.769  0.2456 -0.0888 -0.0377
  113SOL    HW1  338   1.623   1.808   1.801  2.9341  1.5986  1.1169
  113SOL    HW2  339   1.704   1.951   1.842 -0.2456  1.5396  1.9886
  114SOL     OW  340   2.990   1.306   1.334 -0.5027 -0.8687 -0.1632
  114SOL    HW1  341   3.032   1.266   1.249 -0.0450  1.0279 -1.2514
  114SOL    HW2  342   2.985   1.227   1.404 -2.4303 -2.6935  2.0246
  115SOL     OW  343   0.708   0.783   0.106  0.1734  0.0279 -0.3233
  115SOL    HW1  344   0.646   0.736   0.037 -4.2127 -1.0626  1.0503
  115SOL    HW2  345   0.761   0.710   0.158 -0.6765  0.4127  1.0738
  116SOL     OW  346   2.695   1.767   2.506  0.0933  0.4241  0.4719
  116SOL    HW1  347   2.765   1.724   2.443 -0.3236  1.0340  2.2308
  116SOL    HW2  348   2.643   1.827   2.450  1.1165 -0.6143  1.6141
  117SOL     OW  349   3.046   2.407   0.308 -0.5558  0.3376  0.1041
  117SOL    HW1  350   0.038   2.465   0.361  0.2634  0.5316 -1.5629
  117SOL    HW2  351   2.982   2.345   0.362 -2.3652  1.0707  2.0731
  118SOL     OW  352   0.704   1.885   2.816  0.0878  0.4560 -0.2018
  118SOL    HW1  353   0.598   1.879   2.825 -3.2461 -1.0200  1.7196
  118SOL    HW2  354   0.736   1.867   2.722 -2.2480  1.4291 -0.9176
  119SOL     OW  355   0.687   2.286   0.569  0.5791 -0.6512 -0.0586
  119SOL    HW1  356   0.620   2.312   0.637  0.7465  1.8086 -2.6882
  119SOL    HW2  357   0.643   2.243   0.485  0.3248 -2.2585 -0.3740
  120SOL     OW  358   1.486   0.751   0.144 -0.5141  0.0647  0.0340
  120SOL    HW1  359   1.514   0.776   0.242 -0.8250 -0.7798 -0.4037
  120SOL    HW2  360   1.381   0.734   0.135 -2.9141 -1.9279 -2.0109
  121SOL     OW  361   1.277   2.340   0.900  0.1678 -0.0276 -0.0146
  121SOL    HW1  362   1.214   2.348   0.977 -0.3019  0.4478  0.7339
  121SOL    HW2  363   1.261   2.257   0.844  1.4050  1.0963  0.5519
  122SOL     OW  364   2.728   2.207   2.059 -0.1281 -0.7335  0.0784
  122SOL    HW1  365   2.798   2.153   2.113 -0.0050  0.3693  1.3602
  122SOL    HW2  366   2.679   2.275   2.117 -0.6217 -0.2976 -1.7693
  123SOL     OW  367   1.002   1.777   0.824 -0.3255 -0.0108 -0.4291
  123SOL    HW1  368   1.052   1.817   0.906 -1.5136 -0.8527 -0.0286
  123SOL    HW2  369   0.904   1.789   0.820  2.5370  0.5481 -0.6174
  124SOL     OW  370   2.894   0.893   0.366  0.0757 -0.1618  0.0316
  124SOL    HW1  371   2.954   0.973   0.337 -0.2457  1.8981 -2.4099
  124SOL    HW2  372   2.847   0.849   0.284 -0.5048 -3.0886 -1.1453
  125SOL     OW  373   0.028   0.425   0.051 -0.1866  0.0014  0.1325
  125SOL    HW1  374   0.095   0.450   0.125 -2.9150 -1.4809 -1.4329
  125SOL    HW2  375   0.079   0.390   3.040 -1.6870 -0.5951 -0.0512
  126SOL     OW  376   0.110   1.610   0.622  0.3731  0.0779  0.3670
  126SOL    HW1  377   0.205   1.634   0.594 -1.8372 -0.3549  0.8636
  126SOL    HW2  378   0.093   1.633   0.723  0.4705  0.8823  0.0049
  127SOL     OW  379   1.449   2.616   1.519 -0.2005  0.1557  0.5228
  127SOL    HW1  380   1.350   2.591   1.549 -1.1904 -0.1473  0.1918
  127SOL    HW2  381   1.452   2.606   1.417  0.6609 -1.3464 -1.6199
  128SOL     OW  382   1.327   1.408   3.045 -0.5510 -0.0456  0.2503
  128SOL    HW1  383   1.366   1.504   3.043  2.0434 -0.6712 -0.1740
  128SOL    HW2  384   1.393   1.340   0.004  0.3300  0.6337  0.0414
  129SOL     OW  385   1.856   2.157   1.476 -0.6898  0.3444 -0.0587
  129SOL    HW1  386   1.824   2.139   1.385 -1.1732 -0.1364  1.0770
  129SOL    HW2  387   1.913   2.245   1.477  0.4097  0.0559 -0.3664
  130SOL     OW  388   1.902   1.899   1.630 -0.0048  0.5670 -0.2333
  130SOL    HW1  389   1.813   1.866   1.674 -1.0196 -2.0961 -1.4247
  130SOL    HW2  390   1.880   1.954   1.547 -0.6693 -3.6128  3.4421
  131SOL     OW  391   2.868   2.619   2.486 -0.7018  0.3765 -0.4663
  131SOL    HW1  392   2.869   2.722   2.466  0.4225  2.0993  0.0345
  131SOL    HW2  393   2.844   2.592   2.581  0.9539 -0.2051  2.6477
  132SOL     OW  394   2.983   1.967   0.533 -0.4870  0.5459 -0.0052
  132SOL    HW1  395   3.055   1.972   0.599  1.2141  0.2426 -2.4471
  132SOL    HW2  396   2.970   1.867   0.514 -1.0626  1.5036  1.1761
  133SOL     OW  397   0.790   0.269   2.104  0.5881 -0.4293 -0.1892
  133SOL    HW1  398   0.830   0.228   2.018  0.0890  1.5068  0.4782
  133SOL    HW2  399   0.759   0.366   2.094 -1.9296 -2.5002  0.1917
  134SOL     OW  400   2.904   1.871   0.258 -0.5666 -0.0460 -0.8122
  134SOL    HW1  401   2.994   1.911   0.248 -1.1055 -0.4324  1.3542
  134SOL    HW2  402   2.849   1.928   0.320  0.3566 -0.8921 -1.3853
  135SOL     OW  403   1.682   0.887   2.344  1.1275  0.4669  0.1560
  135SOL    HW1  404   1.582   0.863   2.334 -1.2443  1.4713 -1.1858
  135SOL    HW2  405   1.689   0.982   2.367  1.8318 -0.2330  0.0022
  136SOL     OW  406   2.523   1.661   0.832  0.0714  0.5368 -0.0345
  136SOL    HW1  407   2.461   1.717   0.776  0.8045 -1.0732  1.2453
  136SOL    HW2  408   2.573   1.719   0.903  0.9703  1.7114  0.2355
  137SOL     OW  409   2.791   1.609   0.752  0.4117 -0.2246 -0.1410
  137SOL    HW1  410   2.832   1.516   0.749 -1.0257  0.6252 -1.2583
  137SOL    HW2  411   2.690   1.597   0.772 -1.7194  3.1522  3.2234
  138SOL     OW  412   2.775   0.505   1.121 -0.5972  0.0164  0.5443
  138SOL    HW1  413   2.749   0.582   1.184 -0.1905 -2.2083 -0.7158
  138SOL    HW2  414   2.804   0.538   1.031 -2.5335 -1.5045  0.8011
  139SOL     OW  415   3.025   2.590   2.908  0.2201 -0.4291 -0.6150
  139SOL    HW1  416   3.051   2.500   2.950  0.0388 -1.8821  0.6082
  139SOL    HW2  417   3.042   2.593   2.808 -0.6992  1.5357 -0.1674
  140SOL     OW  418   0.768   1.614   1.766 -0.2387 -0.0749  0.0261
  140SOL    HW1  419   0.851   1.653   1.726  0.9754  1.3542 -1.6328
  140SOL    HW2  420   0.774   1.510   1.776  1.7761 -0.9173  0.8486
  141SOL     OW  421   1.470   1.904   0.819  0.3567 -0.1265  0.0350
  141SOL    HW1  422   1.528   1.864   0.749  0.7531 -0.8146  2.4582
  141SOL    HW2  423   1.459   1.848   0.902 -0.8403  1.6499  0.0976
  142SOL     OW  424   0.986   0.830   1.086 -0.4010 -0.2168  0.0968
  142SOL    HW1  425   0.976   0.872   0.995 -0.3962 -3.4102 -0.2479
  142SOL    HW2  426   1.078   0.857   1.123  1.0268 -0.3309 -0.8366
  143SOL     OW  427   0.653   1.112   2.790 -0.2101  0.2587 -0.0236
  143SOL    HW1  428   0.631   1.127   2.887 -1.2470  1.5318 -2.3280
  143SOL    HW2  429   0.708   1.028   2.781 -1.1003  1.4717  0.6400
  144SOL     OW  430   1.820   2.467   0.894  0.2363  0.2978  0.5216
  144SOL    HW1  431   1.760   2.431   0.819 -1.3022  1.0662  1.6351
  144SOL    HW2  432   1.779   2.552   0.932  0.2741  2.4775 -1.3147
  145SOL     OW  433   2.134   0.554   2.659  0.5390  0.1792 -0.0006
  145SOL    HW1  434   2.151   0.563   2.758 -0.5980  1.0443  1.2308
  145SOL    HW2  435   2.221   0.549   2.608 -1.3818  0.1053 -0.0713
  146SOL     OW  436   2.831   2.379   0.661  0.2412 -0.5215 -0.4200
  146SOL    HW1  437   2.775   2.329   0.726 -0.6051  1.9714  0.5614
  146SOL    HW2  438   2.794   2.470   0.625 -3.4934  1.2481 -1.6459
  147SOL     OW  439   1.262   0.941   2.204  0.3076  0.3169  0.0562
  147SOL    HW1  440   1.216   0.903   2.119  1.5383 -0.4262 -2.7638
  147SOL    HW2  441   1.361   0.958   2.178  2.3138  0.0219 -1.3511
  148SOL     OW  442   1.446   0.522   2.278  0.1451 -0.4772 -0.1075
  148SOL    HW1  443   1.520   0.591   2.266 -1.3021 -3.3198 -2.3667
  148SOL    HW2  444   1.456   0.487   2.375 -1.3133 -0.9434 -1.3108
  149SOL     OW  445   1.915   2.864   2.144  0.3627 -0.3190  0.1841
  149SOL    HW1  446   1.835   2.838   2.078 -0.8711 -1.2561  1.8805
  149SOL    HW2  447   1.921   2.788   2.210  0.1480 -2.2318 -1.5640
  150SOL     OW  448   2.340   2.760   0.023  0.1025 -0.1548  0.3368
  150SOL    HW1  449   2.347   2.729   2.995 -0.0827  2.4282  4.0450
  150SOL    HW2  450   2.413   2.823   0.042 -1.3684 -0.6159 -1.5032
  151SOL     OW  451   0.366   1.363   2.751 -0.0512 -0.0270  0.0682
  151SOL    HW1  452   0.366   1.306   2.831  1.5334  1.5903 -0.1072
  151SOL    HW2  453   0.408   1.454   2.776 -1.6952  0.7881 -0.5282
  152SOL     OW  454   3.053   0.167   0.981 -0.0962 -0.1501 -0.2102
  152SOL    HW1  455   3.069   0.163   0.878 -1.1943  0.8045 -3.5177
  152SOL    HW2  456   0.016   0.255   1.018 -2.4098  1.8184 -1.2021
  153SOL     OW  457   2.437   3.003   1.543  0.0439 -0.3088  0.5802
  153SOL    HW1  458   2.418   2.925   1.488 -2.2897  1.1061  1.9350
  153SOL    HW2  459   2.417   0.026   1.497 -0.5529 -1.8834 -1.3951
  154SOL     OW  460   2.002   0.269   2.225  0.0068 -0.1029  0.0772
  154SOL    HW1  461   2.019   0.346   2.292 -1.1325 -2.5506  1.8293
  154SOL    HW2  462   1.933   0.294   2.157  2.0854  0.9269  1.5134
  155SOL     OW  463   0.095   1.448   0.311 -0.4518 -0.2520 -0.2119
  155SOL    HW1  464   0.159   1.454   0.391  0.6522  0.1538  2.6718
  155SOL    HW2  465   0.017   1.513   0.309 -1.5892 -2.3496  2.7337
  156SOL     OW  466   3.002   1.597   0.024 -0.0918 -0.1757  1.0566
  156SOL    HW1  467   2.972   1.691   3.065 -0.3906 -0.7672 -0.4013
  156SOL    HW2  468   3.004   1.588   0.122 -1.0052 -0.8061 -1.9697
  157SOL     OW  469   0.618   0.405   0.647 -0.2416 -0.6495 -0.5532
  157SOL    HW1  470   0.558   0.481   0.657  2.5961 -2.7470 -1.5480
  157SOL    HW2  471   0.705   0.418   0.703  0.3679  1.6947 -0.6405
  158SOL     OW  472   2.164   0.860   1.545  0.1346 -0.0339 -0.4912
  158SOL    HW1  473   2.145   0.950   1.590  4.0153 -0.6361 -1.1951
  158SOL    HW2  474   2.178   0.794   1.619 -0.8736 -0.9264 -0.4056
  159SOL     OW  475   0.093   0.449   0.422  0.1062  0.3811 -0.1135
  159SOL    HW1  476   0.023   0.373   0.439  1.2305  1.9321 -0.8465
  159SOL    HW2  477   0.057   0.521   0.354 -1.3104  0.3082  0.1244
  160SOL     OW  478   2.115   2.304   1.873  0.1831  0.0871  0.1627
  160SOL    HW1  479   2.115   2.355   1.962  0.1000  0.7542  0.5822
  160SOL    HW2  480   2.027   2.256   1.861  1.2870  2.3032  0.4613
  161SOL     OW  481   0.054   0.690   2.456  0.3412  0.1407 -0.0860
  161SOL    HW1  482   0.107   0.614   2.500 -0.5131 -3.6601  0.3205
  161SOL    HW2  483   0.087   0.779   2.493  0.0448 -2.9844 -1.9245
  162SOL     OW  484   0.601   2.724   1.412 -0.3974 -0.0610 -0.2626
  162SOL    HW1  485   0.679   2.774   1.455 -1.2329  0.9244 -1.7140
  162SOL    HW2  486   0.569   2.787   1.340 -0.0345 -0.1699 -1.0762
  163SOL     OW  487   2.813   0.178   2.376  0.2376  0.3510  0.1476
  163SOL    HW1  488   2.792   0.084   2.337 -2.0548  1.5959 -0.4314
  163SOL    HW2  489   2.875   0.229   2.316 -1.8491 -1.2972  1.8522
  164SOL     OW  490   2.186   1.974   0.071 -0.4217  0.8162 -0.5240
  164SOL    HW1  491   2.252   1.935   0.143  2.4074 -0.2805 -0.0438
  164SOL    HW2  492   2.171   1.912   3.062 -0.6621  0.9510  0.1496
  165SOL     OW  493   3.009   0.188   1.408 -0.1197 -0.1335  0.5883
  165SOL    HW1  494   2.985   0.168   1.507  0.5268 -1.8109  1.6311
  165SOL    HW2  495   2.977   0.280   1.378  1.8813 -0.2278  0.7335
  166SOL     OW  496   1.939   0.914   0.721  0.1472 -0.1892  0.2867
  166SOL    HW1  497   1.969   1.005   0.758 -1.6590  0.6604 -0.6309
  166SOL    HW2  498   1.947   0.908   0.621 -0.4087 -1.3058  1.7324
  167SOL     OW  499   2.611   1.066   0.042  0.1344  0.1047 -0.2258
  167SOL    HW1  500   2.597   0.968   0.010 -0.3312  1.9313 -0.5584
  167SOL    HW2  501   2.552   1.085   0.128  0.4700 -0.8374  3.0129
  168SOL     OW  502   1.524   0.240   2.824  0.3749  0.2537 -0.2564
  168SOL    HW1  503   1.578   0.254   2.909  0.7345  0.4451  0.7123
  168SOL    HW2  504   1.573   0.282   2.744  0.0754 -0.3532 -1.6662
  169SOL     OW  505   0.132   1.167   0.777 -0.7986  0.0962 -0.6978
  169SOL    HW1  506   0.108   1.181   0.875  1.5357 -0.4717  0.4605
  169SOL    HW2  507   0.100   1.248   0.721  0.6568  1.9578  0.5345
  170SOL     OW  508   2.968   0.928   1.099  0.2857  0.2277 -0.9751
  170SOL    HW1  509   3.031   0.853   1.119 -2.4946 -0.2542  0.2023
  170SOL    HW2  510   2.869   0.898   1.099  1.0959  1.5016 -2.5657
  171SOL     OW  511   2.362   2.087   2.180  0.5200  0.0550  0.3998
  171SOL    HW1  512   2.270   2.044   2.182 -3.9079 -0.0326 -1.5254
  171SOL    HW2  513   2.417   2.057   2.100  1.6280  0.8367 -1.4722
  172SOL     OW  514   0.407   1.955   1.246  0.2982 -0.0289  0.0459
  172SOL    HW1  515   0.427   2.046   1.201 -1.3913 -0.0111  0.2465
  172SOL    HW2  516   0.491   1.896   1.260  1.6821  1.0576  0.0276
  173SOL     OW  517   1.589   1.401   2.825 -0.0091  0.1858 -0.2720
  173SOL    HW1  518   1.576   1.303   2.809  0.2090  0.4574 -1.8263
  173SOL    HW2  519   1.530   1.464   2.764 -4.0633  1.2430 -0.5316
  174SOL     OW  520   1.338   0.666   2.877  0.0210  0.5887  0.1320
  174SOL    HW1  521   1.372   0.674   2.781 -0.3890 -1.2459  0.6948
  174SOL    HW2  522   1.405   0.639   2.949  0.4562  0.2408 -2.1608
  175SOL     OW  523   1.327   1.348   1.254  0.4078 -0.0653 -0.5093
  175SOL    HW1  524   1.312   1.401   1.340  0.6285 -0.2985 -1.6197
  175SOL    HW2  525   1.274   1.260   1.263 -0.5028  0.5124 -1.1615
  176SOL     OW  526   1.325   0.046   0.601  0.4795 -0.0103  0.7106
  176SOL    HW1  527   1.291   0.017   0.512  1.1154  0.7781  1.0477
  176SOL    HW2  528   1.359   0.139   0.588 -1.8911  1.1019  1.8189
  177SOL     OW  529   0.248   0.850   0.000 -0.8678 -0.0485  0.1214
  177SOL    HW1  530   0.149   0.872   0.022  0.2896 -1.8214 -1.4947
  177SOL    HW2  531   0.265   0.753   0.025 -1.5437 -0.9745 -1.3058
  178SOL     OW  532   2.641   2.422   2.261  0.5142  0.4011 -0.2718
  178SOL    HW1  533   2.646   2.381   2.354 -0.1760 -0.9742 -0.4147
  178SOL    HW2  534   2.728   2.452   2.224 -2.5528  0.0357  0.0700
  179SOL     OW  535   2.980   0.133   2.585 -0.2144 -0.1810  0.1942
  179SOL    HW1  536   2.959   0.198   2.659 -1.5353  0.1730 -1.3396
  179SOL    HW2  537   2.908   0.141   2.517  2.5100  0.5759  3.2261
  180SOL     OW  538   2.057   0.556   0.912 -0.0878  0.5617  0.1957
  180SOL    HW1  539   2.147   0.558   0.866  1.2629  1.3474 -2.1600
  180SOL    HW2  540   2.027   0.648   0.934  1.0907 -2.9365 -1.4403
  181SOL     OW  541   2.082   0.874   2.499  0.2069 -0.3224 -0.0297
  181SOL    HW1  542   2.176   0.859   2.468 -1.5964 -0.6078 -0.5661
  181SOL    HW2  543   2.075   0.906   2.594 -1.6148 -2.9960 -1.4774
  182SOL     OW  544   2.716   2.674   2.082 -0.5845 -0.1860  0.4342
  182SOL    HW1  545   2.820   2.671   2.083  3.4307  0.7355  0.0630
  182SOL    HW2  546   2.672   2.631   1.998 -2.0084  0.9170 -1.4489
  183SOL     OW  547   2.054   0.520   1.879 -0.1986 -0.4117 -0.1969
  183SOL    HW1  548   2.097   0.466   1.954  0.0669  0.8247 -1.0386
  183SOL    HW2  549   2.122   0.591   1.839  1.7968  0.1512 -2.2446
  184SOL     OW  550   3.054   1.419   0.955  0.1103  0.3475 -0.2340
  184SOL    HW1  551   3.053   1.329   1.000 -0.5982  1.5955 -0.3222
  184SOL    HW2  552   3.001   1.494   1.003  0.9057  0.9471  1.6727
  185SOL     OW  553   2.308   0.012   0.887 -0.1019  0.2878  0.5362
  185SOL    HW1  554   2.236   0.068   0.841 -0.6822  1.6296  0.3966
  185SOL    HW2  555   2.400   0.056   0.874  0.6205  0.9187 -0.3203
  186SOL     OW  556   2.725   2.466   2.708 -0.1768 -0.0386  0.1238
  186SOL    HW1  557   2.655   2.467   2.784 -0.7487  0.4917  0.8121
  186SOL    HW2  558   2.797   2.403   2.726 -2.6409  0.3191 -0.0171
  187SOL     OW  559   0.401   1.342   0.442  0.3729  0.5935  0.5007
  187SOL    HW1  560   0.332   1.274   0.402  1.7681  0.8705 -0.2802
  187SOL    HW2  561   0.424   1.316   0.540 -0.1692 -0.8318  1.1505
  188SOL     OW  562   2.223   1.264   1.337 -0.2369 -0.3915 -0.0382
  188SOL    HW1  563   2.299   1.267   1.403  2.4534 -1.8497  0.8393
  188SOL    HW2  564   2.241   1.318   1.253  2.0545  0.5940  0.7572
  189SOL     OW  565   0.174   0.599   2.169 -0.1836 -0.8160  0.1601
  189SOL    HW1  566   0.165   0.650   2.257  0.6059 -1.6061  0.8541
  189SOL    HW2  567   0.091   0.557   2.136  0.6802  1.8849  0.3648
  190SOL     OW  568   1.895   0.738   1.890 -0.1633  0.0054 -0.4625
  190SOL    HW1  569   1.857   0.757   1.795 -1.0184  0.8245 -1.3909
  190SOL    HW2  570   1.947   0.648   1.897 -2.2555 -3.1689 -0.1959
  191SOL     OW  571   1.088   0.162   2.168 -0.5362  0.4435 -0.4274
  191SOL    HW1  572   1.035   0.128   2.088  1.8836 -0.5703  2.4007
  191SOL    HW2  573   1.134   0.089   2.226  0.8989 -0.9671  5.1117
  192SOL     OW  574   0.976   1.993   1.754 -0.0882 -0.0029  0.2954
  192SOL    HW1  575   1.069   1.996   1.785 -3.0662  1.0385 -0.4086
  192SOL    HW2  576   0.948   2.077   1.701  0.1729 -0.3688 -0.2739
  193SOL     OW  577   1.314   0.370   0.761  0.2065  0.4112  0.2844
  193SOL    HW1  578   1.253   0.452   0.747  3.3701 -0.1638 -0.9758
  193SOL    HW2  579   1.255   0.298   0.806 -0.9376  0.7123 -0.0745
  194SOL     OW  580   0.969   2.190   1.536 -0.4772 -0.3575  0.1781
  194SOL    HW1  581   0.906   2.168   1.460 -0.7380  3.0325  1.1402
  194SOL    HW2  582   1.060   2.148   1.515  0.5100 -0.2439 -0.4154
  195SOL     OW  583   1.517   0.501   0.380 -0.3273  0.1525  0.5320
  195SOL    HW1  584   1.594   0.546   0.435 -1.4775  3.8668  1.2047
  195SOL    HW2  585   1.545   0.471   0.283 -1.6264 -0.8958 -0.2534
  196SOL     OW  586   0.577   1.449   2.082  0.2147  0.7952  0.1590
  196SOL    HW1  587   0.615   1.422   1.989  0.7251  0.6567 -0.3610
  196SOL    HW2  588   0.637   1.402   2.154  1.9399  1.3887  0.4945
  197SOL     OW  589   0.837   0.457   1.546 -0.2535 -0.5623 -0.2141
  197SOL    HW1  590   0.783   0.544   1.562  1.7871  0.6610 -1.3564
  197SOL    HW2  591   0.845   0.441   1.444 -1.4744 -2.0334  1.2012
  198SOL     OW  592   0.723   0.935   0.894 -0.7466  0.0455 -0.4323
  198SOL    HW1  593   0.809   0.978   0.858  0.0893  0.7928 -1.6146
  198SOL    HW2  594   0.698   0.981   0.983 -2.9029 -3.2119  0.2779
  199SOL     OW  595   0.414   2.204   1.445  0.0839 -0.5321 -0.1272
  199SOL    HW1  596   0.324   2.160   1.482 -2.3384 -1.5359  1.7482
  199SOL    HW2  597   0.384   2.291   1.407  0.6377  0.0372  1.2337
  200SOL     OW  598   1.518   0.995   2.113 -0.9799  0.1996 -0.1132
  200SOL    HW1  599   1.461   1.018   2.030 -0.2175  1.6686  0.6899
  200SOL    HW2  600   1.569   0.909   2.111 -0.3184  0.0191  0.0423
  201SOL     OW  601   0.645   2.104   1.909 -0.2474 -0.5647 -0.2317
  201SOL    HW1  602   0.677   2.007   1.898 -2.0684  1.4428 -0.9001
  201SOL    HW2  603   0.544   2.110   1.918  1.7166 -0.8639  1.7759
  202SOL     OW  604   1.227   3.059   0.361  0.0811 -0.2567 -0.5060
  202SOL    HW1  605   1.199   0.059   0.292  2.1303 -1.9172 -0.9255
  202SOL    HW2  606   1.147   3.002   0.390  1.4730 -1.7364 -1.5395
  203SOL     OW  607   1.559   0.006   2.268  0.0497  0.0723 -0.3175
  203SOL    HW1  608   1.509   2.993   2.244 -0.4069  0.9383  1.0783
  203SOL    HW2  609   1.646   3.048   2.318  2.5661 -0.4415  0.1318
  204SOL     OW  610   0.519   1.591   1.679  0.0644 -0.4406  0.0516
  204SOL    HW1  611   0.612   1.578   1.710 -0.5343 -1.2210  0.0440
  204SOL    HW2  612   0.518   1.624   1.583 -0.3880 -1.0561 -1.3262
  205SOL     OW  613   2.292   1.333   2.624 -0.1275 -0.7732 -0.2641
  205SOL    HW1  614   2.349   1.345   2.540 -2.2464  0.4367  1.3754
  205SOL    HW2  615   2.214   1.399   2.627 -2.0274  1.8013  0.3005
  206SOL     OW  616   0.017   1.812   2.429  0.7040  0.2786 -0.1937
  206SOL    HW1  617   0.059   1.890   2.474 -0.3163 -0.0322  0.9046
  206SOL    HW2  618   0.054   1.728   2.472  1.9496 -1.3621 -1.6278
  207SOL     OW  619   1.092   2.816   1.546 -0.3218 -0.2733 -0.1413
  207SOL    HW1  620   1.144   2.798   1.631 -0.5665  0.5368 -1.8009
  207SOL    HW2  621   1.027   2.893   1.553  0.2582 -0.8534  0.2491
  208SOL     OW  622   0.338   2.397   1.247 -0.3442 -0.5144 -0.2261
  208SOL    HW1  623   0.387   2.456   1.315 -1.5245 -1.0022  1.3816
  208SOL    HW2  624   0.242   2.424   1.221 -1.9777  1.4589  0.7488
  209SOL     OW  625   1.283   2.740   0.565  0.0173  0.4819  0.1752
  209SOL    HW1  626   1.298   2.657   0.625  2.9720  0.3428 -0.4560
  209SOL    HW2  627   1.240   2.816   0.615 -1.2499 -1.4386  0.5382
  210SOL     OW  628   2.651   1.302   0.959  0.7496 -0.1315 -0.1143
  210SOL    HW1  629   2.602   1.220   0.911 -1.2905 -1.3873 -0.5826
  210SOL    HW2  630   2.741   1.305   0.915 -1.9187 -1.6143 -1.4031
  211SOL     OW  631   0.713   0.647   1.696  0.5817 -0.2234 -0.2220
  211SOL    HW1  632   0.675   0.564   1.739 -1.6011 -3.5754  1.6681
  211SOL    HW2  633   0.808   0.670   1.735 -0.0644  0.0969 -0.0896
  212SOL     OW  634   1.473   2.197   1.807  0.5376 -0.3630  0.4243
  212SOL    HW1  635   1.475   2.247   1.719 -1.5607  2.3378 -2.5132
  212SOL    HW2  636   1.546   2.131   1.815 -0.7491  1.9570  1.4081
  213SOL     OW  637   2.891   0.205   1.643 -0.0969  0.4251 -0.0200
  213SOL    HW1  638   2.863   0.291   1.602  3.4799 -1.6132  0.1431
  213SOL    HW2  639   2.816   0.134   1.660 -0.1610 -1.6657  0.6082
  214SOL     OW  640   0.832   2.668   1.676  0.0814  0.3460  0.2244
  214SOL    HW1  641   0.851   2.698   1.773  2.6190  2.5899  0.6088
  214SOL    HW2  642   0.806   2.750   1.622  0.4587  0.7519 -0.0803
  215SOL     OW  643   2.429   1.782   1.492 -0.2645 -0.0206 -0.6188
  215SOL    HW1  644   2.385   1.874   1.500  0.7523  1.4910  2.0084
  215SOL    HW2  645   2.395   1.731   1.408  0.7912 -2.5192 -2.5101
  216SOL     OW  646   0.306   0.898   1.636  0.1169  0.2920 -0.1181
  216SOL    HW1  647   0.260   0.951   1.712  0.8122  3.6174  0.6821
  216SOL    HW2  648   0.276   0.937   1.550  0.8837 -1.2309  0.0223
  217SOL     OW  649   2.682   3.038   1.135  0.0086 -0.1973 -0.0664
  217SOL    HW1  650   2.666   0.073   1.141 -1.7038 -0.0206  1.3642
  217SOL    HW2  651   2.782   3.013   1.117  1.6011 -3.3619 -0.8294
  218SOL     OW  652   1.359   2.283   1.350  1.0652  0.0016  0.2651
  218SOL    HW1  653   1.397   2.287   1.254 -1.7966  0.2102 -0.7463
  218SOL    HW2  654   1.291   2.359   1.359 -1.0504  4.0518 -2.4202
  219SOL     OW  655   1.471   2.915   0.405 -0.4820 -0.2758 -0.1705
  219SOL    HW1  656   1.467   2.824   0.362  1.8383  1.2428  1.0653
  219SOL    HW2  657   1.386   2.964   0.396  0.9680 -3.6824  0.6474
  220SOL     OW  658   1.562   2.502   0.021  0.0009 -0.3669  0.0093
  220SOL    HW1  659   1.499   2.532   0.099 -1.8766  0.7178 -2.6384
  220SOL    HW2  660   1.631   2.570   3.064 -2.3501 -1.1325  0.3583
  221SOL     OW  661   2.792   1.999   0.726  0.4221 -0.0427 -0.2121
  221SOL    HW1  662   2.701   2.036   0.710  0.9579 -0.4249  0.5702
  221SOL    HW2  663   2.835   1.962   0.643 -0.3616 -0.1063  0.4930
  222SOL     OW  664   0.884   2.126   0.699  0.2845  0.0888  0.8086
  222SOL    HW1  665   0.914   2.178   0.778 -1.5325  0.0101 -0.8967
  222SOL    HW2  666   0.807   2.176   0.647 -1.7593  0.8172 -2.3621
  223SOL     OW  667   1.086   2.739   2.582 -0.8026  0.3865 -0.2289
  223SOL    HW1  668   1.064   2.739   2.482  0.0789  1.3324 -0.5208
  223SOL    HW2  669   1.053   2.657   2.629 -0.8602  1.5009 -0.9422
  224SOL     OW  670   2.603   1.154   1.201 -0.0918 -0.4332 -0.4485
  224SOL    HW1  671   2.625   1.208   1.116 -0.7433 -1.4862 -0.8092
  224SOL    HW2  672   2.506   1.122   1.184 -1.5790  1.0258 -0.6704
  225SOL     OW  673   2.897   1.655   1.035 -0.4506 -0.3713 -0.0821
  225SOL    HW1  674   2.966   1.730   1.046 -0.7825 -1.1796  2.6175
  225SOL    HW2  675   2.827   1.667   0.964 -0.8906 -2.8761 -1.0898
  226SOL     OW  676   1.092   2.633   1.073 -0.3000 -0.3777 -0.9012
  226SOL    HW1  677   1.075   2.627   0.971  0.3195 -1.9110  2.2540
  226SOL    HW2  678   1.176   2.687   1.097  0.1542  0.9017  1.6836
  227SOL     OW  679   1.162   1.146   1.338  0.3260  0.3837 -0.3864
  227SOL    HW1  680   1.132   1.124   1.432 -1.0228  0.3242 -0.6000
  227SOL    HW2  681   1.095   1.204   1.285 -0.4897  1.0098 -2.2879
  228SOL     OW  682   1.613   0.236   2.064  0.0805 -0.5579 -0.4852
  228SOL    HW1  683   1.648   0.196   2.152 -0.5864  1.8634  1.8114
  228SOL    HW2  684   1.533   0.299   2.078  2.1335 -0.5186 -1.5030
  229SOL     OW  685   2.936   0.768   2.271  0.0950  0.2212  0.1116
  229SOL    HW1  686   2.855   0.766   2.337 -0.9637 -0.9281 -0.0026
  229SOL    HW2  687   3.016   0.749   2.330  0.5311 -0.3051 -1.7058
  230SOL     OW  688   0.202   0.922   0.736 -0.0055  0.1285  0.2029
  230SOL    HW1  689   0.123   0.888   0.681  1.3986  0.2585  1.2218
  230SOL    HW2  690   0.199   1.022   0.743 -1.2163 -0.8811 -2.1802
  231SOL     OW  691   2.090   3.041   2.493  0.5662 -0.1236 -0.0059
  231SOL    HW1  692   2.167   2.979   2.512 -1.3655  0.2563 -1.3765
  231SOL    HW2  693   2.115   0.066   2.456  0.1622  1.3554 -2.6063
  232SOL     OW  694   0.494   1.603   2.811 -0.2420 -0.7789  0.7678
  232SOL    HW1  695   0.515   1.599   2.910  0.0049  0.2670  1.4099
  232SOL    HW2  696   0.435   1.685   2.796  1.6391  0.9232 -0.9155
  233SOL     OW  697   1.257   2.583   2.879  0.6108 -0.4599  0.3527
  233SOL    HW1  698   1.242   2.617   2.974 -1.7758 -1.2370  0.1829
  233SOL    HW2  699   1.297   2.657   2.818 -2.0204 -0.6962  1.1736
  234SOL     OW  700   1.007   1.435   1.937  0.2026  0.1589  0.2336
  234SOL    HW1  701   1.083   1.385   1.987 -0.1268  2.1169  0.3187
  234SOL    HW2  702   0.917   1.403   1.975 -1.3787 -1.2596 -0.9431
  235SOL     OW  703   0.266   1.903   1.752 -0.0337  0.2981  0.5694
  235SOL    HW1  704   0.278   1.879   1.652 -0.8682 -2.4539  2.2506
  235SOL    HW2  705   0.279   1.820   1.808  2.1850 -0.8797  0.4929
  236SOL     OW  706   1.581   2.230   2.788  0.4622 -0.2362 -0.1628
  236SOL    HW1  707   1.663   2.210   2.839 -2.4872  1.3989 -1.5024
  236SOL    HW2  708   1.519   2.289   2.842 -1.0030  0.1222 -1.4178
  237SOL     OW  709   1.564   0.380   0.904 -0.0635 -0.4698 -0.1223
  237SOL    HW1  710   1.604   0.475   0.897 -0.6228 -0.3110 -0.1888
  237SOL    HW2  711   1.469   0.373   0.869  2.0001 -4.3823  2.3378
  238SOL     OW  712   1.166   0.367   2.465  0.3501  1.2529  0.0800
  238SOL    HW1  713   1.083   0.352   2.410 -0.1052  1.4755  1.3225
  238SOL    HW2  714   1.252   0.340   2.420 -0.6395  0.4506 -1.1337
  239SOL     OW  715   0.766   2.889   1.539 -0.6462  0.7471  0.0121
  239SOL    HW1  716   0.690   2.949   1.559  1.5611  0.4656  1.3064
  239SOL    HW2  717   0.850   2.948   1.527 -0.5626 -0.6767  0.3682
  240SOL     OW  718   2.335   2.691   0.683 -0.3669  0.3054  0.3887
  240SOL    HW1  719   2.302   2.763   0.625  1.1817 -1.4780 -0.2898
  240SOL    HW2  720   2.408   2.729   0.747 -0.2198  0.7113 -2.5914
  241SOL     OW  721   1.053   1.378   1.679 -0.0189 -0.1668 -0.3557
  241SOL    HW1  722   0.969   1.353   1.623  2.2877 -2.0234 -0.1001
  241SOL    HW2  723   1.033   1.431   1.769  2.0930  2.1274  2.7609
  242SOL     OW  724   2.687   0.769   0.480  0.3836  0.4563 -0.6166
  242SOL    HW1  725   2.779   0.816   0.456 -0.6931 -1.3924 -1.4505
  242SOL    HW2  726   2.612   0.827   0.439 -0.2220 -1.3390  1.2216
  243SOL     OW  727   0.653   0.662   1.325  0.3225 -0.7081  0.1762
  243SOL    HW1  728   0.732   0.720   1.363  1.5435  0.1280 -0.2477
  243SOL    HW2  729   0.654   0.657   1.224 -3.4022 -1.2805 -0.2908
  244SOL     OW  730   1.099   0.499   0.006  0.0297 -0.2203  0.0913
  244SOL    HW1  731   0.999   0.475   0.004  0.8948 -1.2610 -0.4170
  244SOL    HW2  732   1.163   0.448   3.011 -0.5615 -0.0390  3.3766
  245SOL     OW  733   2.227   0.529   2.921  0.2717  0.3078 -0.2048
  245SOL    HW1  734   2.300   0.504   2.855 -0.8750  0.0213 -1.0591
  245SOL    HW2  735   2.205   0.455   2.981 -1.8261  4.1220 -0.5595
  246SOL     OW  736   0.843   0.812   1.434  0.3073 -0.1320  0.4722
  246SOL    HW1  737   0.816   0.825   1.529  2.1159 -5.4310 -0.5704
  246SOL    HW2  738   0.942   0.792   1.423 -1.2956 -0.4240  0.1934
  247SOL     OW  739   0.623   3.039   2.107 -0.0096  0.1427 -0.0530
  247SOL    HW1  740   0.528   0.001   2.088 -0.2213 -2.2627  2.2624
  247SOL    HW2  741   0.658   0.024   2.184 -0.6313  0.5773  0.2187
  248SOL     OW  742   0.065   1.671   1.880  0.2836  0.2733 -0.1384
  248SOL    HW1  743   0.033   1.624   1.800  1.7766 -1.3485  1.6312
  248SOL    HW2  744   0.160   1.644   1.902  1.4369  1.1528 -0.1774
  249SOL     OW  745   0.091   3.065   2.926 -0.8924 -0.3313 -0.0393
  249SOL    HW1  746   0.147   0.009   2.835  2.7281 -1.4339 -1.4552
  249SOL    HW2  747   0.109   0.071   2.987 -1.2919  0.3956 -0.7244
  250SOL     OW  748   2.816   0.135   0.294  0.1293  0.0057  0.0661
  250SOL    HW1  749   2.762   0.062   0.343 -1.6528 -1.4282  1.7273
  250SOL    HW2  750   2.792   0.126   0.196 -0.3793 -0.5360 -0.0707
  251SOL     OW  751   0.668   1.325   1.059  0.5219 -0.1843  0.3134
  251SOL    HW1  752   0.757   1.318   1.012  0.9586 -1.6979 -0.8838
  251SOL    HW2  753   0.598   1.371   0.999 -1.7687  2.5002 -4.0876
  252SOL     OW  754   1.515   2.905   1.371  0.0227 -0.0580  0.6833
  252SOL    HW1  755   1.487   2.946   1.459  2.9879 -3.2626 -2.2745
  252SOL    HW2  756   1.456   2.824   1.346  0.2546  0.6086  0.2666
  253SOL     OW  757   2.060   2.052   2.734  0.0586 -0.2779 -0.8342
  253SOL    HW1  758   2.125   2.128   2.766  2.7982  2.3572  0.4005
  253SOL    HW2  759   2.041   1.986   2.809 -0.5108 -1.8229 -0.4708
  254SOL     OW  760   0.334   1.658   1.911  0.1382  0.2488  0.4921
  254SOL    HW1  761   0.375   1.601   1.837 -2.7320  0.5864  1.1741
  254SOL    HW2  762   0.410   1.701   1.969  1.6773 -1.7571 -2.1158
  255SOL     OW  763   0.979   3.048   1.510 -0.2875  0.1662 -0.1192
  255SOL    HW1  764   0.984   0.013   1.416 -1.3828 -0.2752  1.2360
  255SOL    HW2  765   0.986   0.050   1.580  0.7226 -1.2589  0.5685
  256SOL     OW  766   2.463   2.148   1.045  0.4426  0.0123  0.0584
  256SOL    HW1  767   2.524   2.093   0.983 -1.0489 -0.4959 -0.7794
  256SOL    HW2  768   2.379   2.178   0.991  0.0037 -1.5429 -1.5990
  257SOL     OW  769   0.493   2.221   0.020  0.3787  0.3619 -0.2465
  257SOL    HW1  770   0.544   2.256   0.097 -3.3817 -0.2385 -0.3581
  257SOL    HW2  771   0.536   2.247   3.000 -0.0332  1.1239  1.0140
  258SOL     OW  772   0.923   2.044   2.481 -0.9381  0.1176 -0.1277
  258SOL    HW1  773   0.878   2.123   2.532 -0.8641  0.6325  0.9273
  258SOL    HW2  774   0.880   1.959   2.517 -0.5892  1.8242  1.6007
  259SOL     OW  775   0.838   1.773   2.577  1.0584 -0.0681 -0.0315
  259SOL    HW1  776   0.860   1.744   2.479 -2.3092 -2.5456 -0.6477
  259SOL    HW2  777   0.811   1.690   2.634  3.6912 -1.5305 -0.0656
  260SOL     OW  778   2.068   1.298   2.034 -0.1824  0.3481 -0.0595
  260SOL    HW1  779   2.119   1.383   2.056 -0.0458 -0.1303  0.6467
  260SOL    HW2  780   2.010   1.263   2.110 -1.9792 -3.8914  0.2481
  261SOL     OW  781   1.384   0.845   0.846  0.5920  0.3003  0.3957
  261SOL    HW1  782   1.315   0.781   0.806  0.6516  1.0288 -2.4555
  261SOL    HW2  783   1.339   0.927   0.890 -1.7718  1.3021  1.9640
  262SOL     OW  784   1.676   2.179   2.505 -0.2468  0.4574 -0.4890
  262SOL    HW1  785   1.769   2.206   2.532  0.8528  0.2416 -1.3527
  262SOL    HW2  786   1.606   2.230   2.562 -1.5920  0.5303 -0.0384
  263SOL     OW  787   0.275   1.589   3.042  0.2119  0.0422  0.0516
  263SOL    HW1  788   0.233   1.501   0.006 -0.6607 -2.4972  0.5615
  263SOL    HW2  789   0.376   1.588   3.060 -1.8508 -2.3013 -0.9001
  264SOL     OW  790   0.562   1.854   0.720  0.3637 -0.5483  1.0311
  264SOL    HW1  791   0.651   1.870   0.766  0.8220 -1.7865  3.1448
  264SOL    HW2  792   0.492   1.917   0.763  1.6875  0.8335 -1.6503
  265SOL     OW  793   0.657   1.178   3.069 -0.1065 -0.1803 -0.5550
  265SOL    HW1  794   0.643   1.103   0.070 -1.8056  1.9932 -0.9666
  265SOL    HW2  795   0.676   1.264   0.049 -0.3907 -1.7787 -1.3177
  266SOL     OW  796   1.191   1.618   2.857 -0.5227 -0.1491  0.5407
  266SOL    HW1  797   1.149   1.523   2.852  2.9395 -2.1478 -0.5605
  266SOL    HW2  798   1.126   1.677   2.908  0.6251  0.6282  1.3836
  267SOL     OW  799   0.830   0.823   2.233 -0.4229 -0.3238  0.1795
  267SOL    HW1  800   0.896   0.747   2.220 -1.4330  3.1310  2.0564
  267SOL    HW2  801   0.885   0.909   2.249 -0.0619  3.1524 -1.4487
  268SOL     OW  802   0.416   0.657   2.543  0.7060  0.2387  0.5162
  268SOL    HW1  803   0.494   0.645   2.476  2.1521 -0.6410  0.7452
  268SOL    HW2  804   0.456   0.704   2.625  1.0302  0.2376 -0.7880
  269SOL     OW  805   2.010   2.837   2.642 -0.0991 -0.4987  0.4254
  269SOL    HW1  806   2.017   2.914   2.574  0.0807  1.7319  0.3370
  269SOL    HW2  807   1.948   2.767   2.597 -0.0510  1.8476 -1.5958
  270SOL     OW  808   1.006   1.480   2.413  0.4977  0.0836  0.1848
  270SOL    HW1  809   0.931   1.425   2.459  1.1402 -2.7339  2.2894
  270SOL    HW2  810   0.962   1.561   2.371  0.2220 -1.6343  4.5935
  271SOL     OW  811   0.231   0.286   2.901  0.3115 -0.6135  0.5827
  271SOL    HW1  812   0.316   0.322   2.854  0.0297  1.3145 -1.8830
  271SOL    HW2  813   0.249   0.270   3.002 -0.2053 -1.6940  0.1835
  272SOL     OW  814   2.187   0.704   0.527  0.3739  0.0894  0.7078
  272SOL    HW1  815   2.218   0.610   0.521  2.7190  1.6235  0.3212
  272SOL    HW2  816   2.225   0.756   0.442 -0.6025  2.5138 -2.5525
  273SOL     OW  817   0.178   3.028   1.854 -0.0073  0.0427 -0.7074
  273SOL    HW1  818   0.120   3.038   1.769 -1.3416 -0.7619 -3.3878
  273SOL    HW2  819   0.249   2.953   1.848 -0.0355 -0.6411 -1.8719
  274SOL     OW  820   2.764   0.377   1.994 -0.7013  0.0582  0.0556
  274SOL    HW1  821   2.844   0.437   1.966  0.3660  0.3312 -2.1447
  274SOL    HW2  822   2.698   0.360   1.919  0.0394  0.5898  0.1317
  275SOL     OW  823   1.647   1.780   0.625  0.2299  0.4528 -0.2178
  275SOL    HW1  824   1.719   1.744   0.690 -1.4688 -1.3312  0.1404
  275SOL    HW2  825   1.677   1.758   0.529 -1.9871  1.2724 -0.3393
  276SOL     OW  826   0.570   1.147   1.961 -0.2453 -0.6755 -0.0887
  276SOL    HW1  827   0.614   1.057   1.952 -2.0629 -0.1186 -0.7401
  276SOL    HW2  828   0.496   1.142   2.030 -2.7225 -1.4921 -0.9755
  277SOL     OW  829   1.651   2.591   2.215  0.3820 -0.5488 -0.2872
  277SOL    HW1  830   1.561   2.579   2.161 -1.2625  1.8233  2.8964
  277SOL    HW2  831   1.735   2.547   2.173  1.3311 -2.1086  0.4343
  278SOL     OW  832   1.971   2.642   2.314 -0.0840 -0.0016 -0.2740
  278SOL    HW1  833   1.901   2.602   2.379  0.1545  0.4380  2.3617
  278SOL    HW2  834   2.062   2.648   2.364  0.5207  0.7539 -0.1746
  279SOL     OW  835   1.814   1.183   0.194 -0.2256  0.0778  0.3493
  279SOL    HW1  836   1.821   1.279   0.231  1.9108 -2.1297  2.6740
  279SOL    HW2  837   1.858   1.178   0.097  2.4601 -1.4304 -1.5307
  280SOL     OW  838   0.741   1.470   3.016 -0.3518 -0.1386 -0.3748
  280SOL    HW1  839   0.807   1.551   3.037 -1.6946 -0.4957 -0.3947
  280SOL    HW2  840   0.782   1.405   2.954 -0.8156  1.1212 -0.4656
  281SOL     OW  841   0.034   3.037   1.618 -0.4038 -0.1096 -0.4227
  281SOL    HW1  842   0.023   2.933   1.635  0.5199 -2.3608  1.4387
  281SOL    HW2  843   0.025   3.056   1.521  0.5405  0.0794  1.4741
  282SOL     OW  844   3.044   2.221   0.805  0.5032  0.4991 -0.5341
  282SOL    HW1  845   0.026   2.293   0.748 -2.3295 -1.1477 -0.6146
  282SOL    HW2  846   2.955   2.210   0.758  1.1833 -1.0775 -2.4285
  283SOL     OW  847   1.540   1.846   2.131 -0.8558  0.1020  0.6209
  283SOL    HW1  848   1.540   1.944   2.163 -0.1832 -1.2158 -0.7883
  283SOL    HW2  849   1.456   1.797   2.167  0.3408 -1.9976 -0.6116
  284SOL     OW  850   1.661   0.169   0.546 -0.3997  0.8867 -0.0780
  284SOL    HW1  851   1.703   0.175   0.455  0.0585  0.0493  1.8360
  284SOL    HW2  852   1.581   0.231   0.556  0.4024 -0.0735  1.7741
  285SOL     OW  853   0.033   2.607   2.649 -0.4755  0.3693 -0.5203
  285SOL    HW1  854   3.051   2.602   2.564 -1.1305  0.3999  2.9786
  285SOL    HW2  855   0.124   2.561   2.641 -1.2016  0.3483 -1.0517
  286SOL     OW  856   2.720   2.467   1.477 -0.3372  0.3261 -0.0861
  286SOL    HW1  857   2.824   2.451   1.467  2.8778  2.4566 -0.5309
  286SOL    HW2  858   2.690   2.498   1.568  0.6433  3.1360 -0.2575
  287SOL     OW  859   0.402   1.249   0.708  0.1979 -0.1461 -0.2831
  287SOL    HW1  860   0.311   1.207   0.687  0.7685 -3.1616  0.5996
  287SOL    HW2  861   0.403   1.323   0.778 -0.5930  0.7293 -3.4638
  288SOL     OW  862   2.197   1.789   2.931 -0.7151 -0.0405 -0.4582
  288SOL    HW1  863   2.268   1.809   2.861  1.5480  0.7551  1.0618
  288SOL    HW2  864   2.140   1.712   2.901 -0.0465  2.1698  0.7031
  289SOL     OW  865   0.174   1.751   2.851  0.1021  0.0276  0.1128
  289SOL    HW1  866   0.072   1.754   2.861  0.4844 -1.3703 -1.1955
  289SOL    HW2  867   0.216   1.694   2.928  0.1365 -0.2114 -0.1336
  290SOL     OW  868   1.114   1.710   1.129 -0.0573  0.2856 -0.3412
  290SOL    HW1  869   1.158   1.634   1.076  1.4551  1.1638 -1.2631
  290SOL    HW2  870   1.127   1.801   1.085 -3.1509  2.3486  0.1925
  291SOL     OW  871   1.745   0.929   2.844 -0.4964  0.4716 -0.3904
  291SOL    HW1  872   1.731   0.833   2.809 -0.1175 -0.6179  0.9595
  291SOL    HW2  873   1.717   0.932   2.946 -1.4852  2.0575  1.0540
  292SOL     OW  874   1.220   1.451   0.482  0.0277 -0.0779 -0.2130
  292SOL    HW1  875   1.156   1.493   0.556 -1.5001  2.7336 -0.2863
  292SOL    HW2  876   1.314   1.489   0.489  0.8321  1.2788  0.7709
  293SOL     OW  877   1.267   2.899   1.107 -0.4158 -0.3069  0.2838
  293SOL    HW1  878   1.305   2.992   1.114 -0.0479 -0.9163  0.6300
  293SOL    HW2  879   1.294   2.868   1.013 -2.0026  1.3338  0.0340
  294SOL     OW  880   2.254   1.294   2.973 -0.1779 -0.4615 -0.1143
  294SOL    HW1  881   2.217   1.230   2.904  3.4178  0.2961  2.4254
  294SOL    HW2  882   2.355   1.293   2.983 -1.6453  2.8612  2.3657
  295SOL     OW  883   1.567   2.100   2.252  0.2257 -0.4562  0.3779
  295SOL    HW1  884   1.593   2.103   2.353 -2.7481 -0.1644  0.0371
  295SOL    HW2  885   1.600   2.180   2.195 -2.8297  0.5397 -0.0207
  296SOL     OW  886   1.841   0.469   1.719 -0.4617  0.2323 -0.3256
  296SOL    HW1  887   1.936   0.466   1.752 -0.1581 -3.6308  1.3775
  296SOL    HW2  888   1.830   0.493   1.619 -0.2446 -0.2553 -0.8127
  297SOL     OW  889   0.060   0.725   1.920 -0.2180  0.5529 -0.3411
  297SOL    HW1  890   0.003   0.674   1.985  1.6155  2.5722 -0.8308
  297SOL    HW2  891   0.027   0.709   1.826 -0.0098  2.2823  2.5504
  298SOL     OW  892   1.213   2.516   1.637 -0.1053  0.4326 -0.0639
  298SOL    HW1  893   1.119   2.534   1.604 -1.6306  0.8266 -2.6139
  298SOL    HW2  894   1.211   2.455   1.723 -1.1027  0.1421  2.3212
  299SOL     OW  895   1.327   2.810   2.723 -0.0027  0.7685 -0.0003
  299SOL    HW1  896   1.382   2.882   2.765 -1.5843 -0.8634 -1.6034
  299SOL    HW2  897   1.233   2.848   2.701 -2.0741  0.4210  1.6199
  300SOL     OW  898   2.838   1.095   2.716 -0.2163  0.0799  0.6953
  300SOL    HW1  899   2.760   1.160   2.694 -0.8190 -1.3087  0.8912
  300SOL    HW2  900   2.804   1.004   2.743 -2.8861  0.8462 -0.2794
  301SOL     OW  901   1.884   1.105   1.553 -0.1502 -0.4115 -0.0212
  301SOL    HW1  902   1.847   1.013   1.581  0.0052 -1.1734  0.5526
  301SOL    HW2  903   1.913   1.162   1.636  1.7634  0.8036  1.1797
  302SOL     OW  904   2.355   1.953   2.525  0.3505 -0.1172  0.7920
  302SOL    HW1  905   2.432   1.947   2.456  1.0011  0.6084 -3.4269
  302SOL    HW2  906   2.269   1.991   2.484 -0.8755  0.2328 -0.8255
  303SOL     OW  907   0.277   2.562   2.089 -0.0302 -0.2687  0.2708
  303SOL    HW1  908   0.268   2.657   2.122 -0.7007  0.5987 -0.1561
  303SOL    HW2  909   0.333   2.561   2.003 -1.4176 -2.9682  1.4751
  304SOL     OW  910   0.030   0.696   1.234 -0.0233  0.0430  0.3054
  304SOL    HW1  911   0.125   0.726   1.264 -0.4423 -1.0638 -1.4737
  304SOL    HW2  912   0.032   0.631   1.158  0.5537 -0.8094  0.7825
  305SOL     OW  913   2.778   0.820   1.814 -0.3024 -0.6935 -0.1177
  305SOL    HW1  914   2.854   0.766   1.764  0.9856  0.0946  1.6284
  305SOL    HW2  915   2.812   0.904   1.862  0.2975  1.9384  0.5330
  306SOL     OW  916   2.494   1.111   1.642  0.5943 -0.0934  0.0598
  306SOL    HW1  917   2.395   1.077   1.631 -4.0607 -2.5459  1.8405
  306SOL    HW2  918   2.494   1.215   1.651 -0.9025  2.9138  2.6727
  307SOL     OW  919   2.567   0.115   0.853 -0.2383  0.2486  0.2891
  307SOL    HW1  920   2.593   0.212   0.834  1.6559 -0.7029 -1.7231
  307SOL    HW2  921   2.614   0.076   0.933 -0.3520  1.5337 -1.4769
  308SOL     OW  922   2.936   1.800   1.576  0.4737 -1.0567  0.3105
  308SOL    HW1  923   2.962   1.891   1.616  1.2406  0.3812 -0.2097
  308SOL    HW2  924   2.834   1.780   1.583 -1.5146 -4.1529  0.7573
  309SOL     OW  925   2.190   2.214   1.641  0.1006 -0.0495 -0.9319
  309SOL    HW1  926   2.246   2.278   1.582  1.2995 -1.0526 -1.7740
  309SOL    HW2  927   2.149   2.263   1.722  0.3090 -0.4287 -1.5556
  310SOL     OW  928   2.094   1.513   2.920  0.1228 -0.1553 -0.3085
  310SOL    HW1  929   2.094   1.519   2.822 -0.6954 -2.7191 -0.3009
  310SOL    HW2  930   2.151   1.436   2.951 -0.1484  2.0344 -0.6862
  311SOL     OW  931   1.898   1.152   2.980  0.4154  0.1729 -0.4690
  311SOL    HW1  932   1.874   1.077   2.921  1.3715  0.7782  0.6166
  311SOL    HW2  933   1.895   1.242   2.918 -0.8501  0.5552 -1.7786
  312SOL     OW  934   1.003   2.349   2.090  0.4589  0.0788 -0.2099
  312SOL    HW1  935   0.984   2.250   2.113  0.4412 -1.2466 -3.4676
  312SOL    HW2  936   0.924   2.412   2.110  1.5857  0.1073 -1.7277
  313SOL     OW  937   0.308   0.372   0.575 -0.2733 -0.2910 -0.8934
  313SOL    HW1  938   0.230   0.381   0.511  0.0532  2.5970 -2.4673
  313SOL    HW2  939   0.289   0.313   0.657  0.2980  1.0246  2.4371
  314SOL     OW  940   0.698   1.920   0.984  0.6340 -0.3189  0.4129
  314SOL    HW1  941   0.677   1.914   1.084 -0.5179 -1.5725  0.2449
  314SOL    HW2  942   0.635   1.980   0.935  0.3071 -0.5904 -1.0312
  315SOL     OW  943   0.662   2.177   2.167 -0.1822 -0.4499  0.3637
  315SOL    HW1  944   0.664   2.146   2.070 -0.1880 -0.3402 -1.6440
  315SOL    HW2  945   0.693   2.272   2.171 -1.7118 -2.8657  0.8468
  316SOL     OW  946   0.431   2.023   0.889  0.2537  0.3033  0.3574
  316SOL    HW1  947   0.432   2.113   0.943 -1.1272  1.8657 -0.1674
  316SOL    HW2  948   0.359   1.961   0.932 -1.1342  1.5644 -0.4533
  317SOL     OW  949   1.931   0.563   0.615 -0.3784 -0.1170  0.2198
  317SOL    HW1  950   2.015   0.623   0.598  1.3877  1.6976  1.6530
  317SOL    HW2  951   1.954   0.466   0.591  1.1617  0.8314 -0.4899
  318SOL     OW  952   2.359   2.319   0.099  0.1256 -0.8021  0.6619
  318SOL    HW1  953   2.274   2.268   0.117  0.5880  0.4766  1.8811
  318SOL    HW2  954   2.421   2.265   0.034 -0.9166 -0.6429  1.2712
  319SOL     OW  955   1.383   1.802   2.966  0.2695 -0.1287 -0.5893
  319SOL    HW1  956   1.307   1.741   2.936  1.3225 -1.1927  0.0269
  319SOL    HW2  957   1.442   1.832   2.885 -1.6659  3.3143 -2.5076
  320SOL     OW  958   0.615   2.658   2.585  0.4715 -0.1703  0.4355
  320SOL    HW1  959   0.528   2.620   2.546 -2.7661  0.7408 -1.4973
  320SOL    HW2  960   0.635   2.633   2.681  0.0196  1.3662 -1.2225
  321SOL     OW  961   0.874   2.658   2.910 -0.4506  0.3764 -0.3388
  321SOL    HW1  962   0.934   2.593   2.863 -0.3885 -0.5143  0.7048
  321SOL    HW2  963   0.921   2.740   2.951  0.7014  0.1456 -1.7474
  322SOL     OW  964   2.269   0.461   2.083  0.1840  0.8557  0.1608
  322SOL    HW1  965   2.340   0.397   2.119  1.6047 -1.4462 -0.6006
  322SOL    HW2  966   2.237   0.531   2.149  1.7880  0.5952  0.6828
  323SOL     OW  967   2.828   1.031   0.847  0.3993  0.1161 -0.0866
  323SOL    HW1  968   2.865   0.978   0.931 -3.1130 -2.5756  1.9326
  323SOL    HW2  969   2.724   1.032   0.849 -1.5431 -3.4411  0.8250
  324SOL     OW  970   0.423   0.814   2.125  0.0554 -0.0004  0.2952
  324SOL    HW1  971   0.397   0.753   2.043  1.8930 -2.5134 -3.8191
  324SOL    HW2  972   0.504   0.873   2.104  1.8938 -1.8730  1.3687
  325SOL     OW  973   0.339   0.020   2.085  0.5972  0.1723 -0.7467
  325SOL    HW1  974   0.320   0.101   2.145 -2.6592  2.5584  3.6870
  325SOL    HW2  975   0.279   0.025   2.003  0.8593 -0.3643  1.3625
  326SOL     OW  976   2.702   2.274   0.265 -0.1438 -0.5427  0.2191
  326SOL    HW1  977   2.738   2.299   0.172  0.4693  2.7520 -2.6748
  326SOL    HW2  978   2.778   2.244   0.327  1.6289 -0.8580 -0.7667
  327SOL     OW  979   2.277   1.369   0.659  0.2844  0.4365 -0.1099
  327SOL    HW1  980   2.182   1.391   0.691  2.3283 -1.2762 -1.2948
  327SOL    HW2  981   2.320   1.438   0.597  0.9979  0.2636 -1.0920
  328SOL     OW  982   2.874   1.709   2.293 -0.5314  0.2560  0.8919
  328SOL    HW1  983   2.954   1.758   2.329 -4.2836 -2.2438 -1.4519
  328SOL    HW2  984   2.864   1.715   2.189  0.5003 -1.8782 -5.2584
  329SOL     OW  985   0.171   2.148   1.561  0.2645 -0.5424  0.0685
  329SOL    HW1  986   0.098   2.149   1.487 -0.7498 -1.9227 -1.9678
  329SOL    HW2  987   0.137   2.098   1.646 -1.3737 -1.5336 -0.6595
  330SOL     OW  988   2.494   1.388   2.443 -0.2242  0.4118 -0.4777
  330SOL    HW1  989   2.433   1.402   2.360  3.4951 -1.9723 -0.0333
  330SOL    HW2  990   2.589   1.423   2.424  1.1224 -2.3564 -0.0857
  331SOL     OW  991   2.594   2.463   0.804  0.3793  0.2149  0.1151
  331SOL    HW1  992   2.629   2.388   0.862  1.2917 -0.4652  0.6863
  331SOL    HW2  993   2.524   2.437   0.734  0.0442 -0.0921  1.0059
  332SOL     OW  994   0.511   2.973   0.903 -0.3070 -0.3443 -0.4335
  332SOL    HW1  995   0.464   2.911   0.838 -1.0391  0.8262  1.4788
  332SOL    HW2  996   0.444   3.011   0.971  0.8818  0.6099  1.4094
  333SOL     OW  997   2.203   2.719   2.395 -0.3299  0.0372 -0.1245
  333SOL    HW1  998   2.232   2.677   2.481 -0.7655 -0.5932  0.2769
  333SOL    HW2  999   2.254   2.803   2.373 -1.8812  0.6601  0.3784
  334SOL     OW 1000   0.883   1.162   0.207  0.5027  0.8658  0.1200
  334SOL    HW1 1001   0.954   1.180   0.282  0.7879 -1.5141 -0.1463
  334SOL    HW2 1002   0.797   1.197   0.241  1.8594  0.1968  1.0551
  335SOL     OW 1003   0.114   2.130   2.132  0.3603 -0.2886 -0.2438
  335SOL    HW1 1004   0.198   2.071   2.146  0.7494 -0.7545 -1.6849
  335SOL    HW2 1005   0.127   2.232   2.157  1.6696 -0.2024 -1.1952
  336SOL     OW 1006   2.925   2.868   2.422 -0.2556  0.2945 -0.2437
  336SOL    HW1 1007   3.021   2.892   2.395  0.9285 -0.6646 -1.5846
  336SOL    HW2 1008   2.855   2.923   2.369  1.7827  0.2105  0.3706
  337SOL     OW 1009   1.059   1.267   0.968  0.1252 -0.3302 -0.0378
  337SOL    HW1 1010   0.994   1.329   0.920 -3.3047  0.4584 -1.8619
  337SOL    HW2 1011   1.071   1.300   1.062 -0.4171 -1.0840 -1.0247
  338SOL     OW 1012   1.115   1.944   1.002  0.0100 -0.3178 -0.1265
  338SOL    HW1 1013   1.147   1.998   0.924 -1.8580 -0.4256 -1.1427
  338SOL    HW2 1014   1.034   1.985   1.050 -0.8115 -0.5325 -2.1675
  339SOL     OW 1015   0.181   1.477   1.511 -1.0787  0.0209  0.0284
  339SOL    HW1 1016   0.170   1.475   1.412 -0.9428  1.3853 -0.5162
  339SOL    HW2 1017   0.092   1.493   1.556  2.1354  1.8617  0.6028
  340SOL     OW 1018   1.501   2.908   1.976  0.4269  0.2858 -0.0413
  340SOL    HW1 1019   1.597   2.870   1.974 -0.9739  1.5091 -3.2972
  340SOL    HW2 1020   1.454   2.871   2.059  0.9277 -1.2885 -0.5956
  341SOL     OW 1021   1.695   1.737   1.047  0.9494  0.0260 -0.4846
  341SOL    HW1 1022   1.717   1.695   0.956  2.0116 -0.4184 -0.8305
  341SOL    HW2 1023   1.770   1.802   1.076 -0.7139  0.1384 -0.0101
  342SOL     OW 1024   2.860   1.357   0.792  0.2742  0.3818  0.8023
  342SOL    HW1 1025   2.899   1.310   0.715  0.6086 -0.3485  2.6087
  342SOL    HW2 1026   2.940   1.384   0.852  1.0282  1.3676  0.9297
  343SOL     OW 1027   2.761   0.413   1.548  0.0069 -0.4488 -0.2404
  343SOL    HW1 1028   2.672   0.466   1.553 -1.4768  0.1040 -0.2145
  343SOL    HW2 1029   2.811   0.440   1.463  2.6396  1.5960  0.6519
  344SOL     OW 1030   1.780   0.274   1.007  0.1573  0.7514  0.0223
  344SOL    HW1 1031   1.848   0.342   1.028 -2.6284 -0.7116 -0.3240
  344SOL    HW2 1032   1.689   0.316   0.976 -1.6239  0.5553  1.2784
  345SOL     OW 1033   0.585   3.069   2.549  0.1284 -0.2452 -0.4668
  345SOL    HW1 1034   0.526   2.989   2.528  0.8234 -1.0967  0.5851
  345SOL    HW2 1035   0.585   0.073   2.473 -1.5564 -0.4484 -0.0518
  346SOL     OW 1036   2.472   1.540   0.532  0.2401 -0.5192 -0.5875
  346SOL    HW1 1037   2.531   1.592   0.465  2.4544  2.8502 -0.1701
  346SOL    HW2 1038   2.448   1.611   0.601 -0.7592  1.5025 -0.6401
  347SOL     OW 1039   2.458   0.087   1.866 -0.8436 -0.1027  0.5742
  347SOL    HW1 1040   2.440   0.025   1.788 -1.5900 -0.9808  0.9529
  347SOL    HW2 1041   2.436   0.036   1.957  0.8097 -3.4161  2.3173
  348SOL     OW 1042   1.234   1.172   1.666 -0.0803  0.0045  0.0787
  348SOL    HW1 1043   1.178   1.092   1.630 -1.4135 -0.7599 -1.6250
  348SOL    HW2 1044   1.183   1.260   1.673  0.4226  1.4427 -1.9152
  349SOL     OW 1045   2.521   0.868   1.859  0.0618 -0.1043  0.0016
  349SOL    HW1 1046   2.620   0.854   1.847 -0.6939  2.8919 -0.5135
  349SOL    HW2 1047   2.472   0.851   1.773  3.2991  0.4120 -0.4648
  350SOL     OW 1048   2.106   2.233   0.175  0.2356  0.0582 -0.5283
  350SOL    HW1 1049   2.020   2.254   0.225 -0.3965  0.7076  0.4597
  350SOL    HW2 1050   2.125   2.131   0.165  2.3709  1.2318 -0.2446
  351SOL     OW 1051   0.678   0.520   2.050  0.3751  0.2323 -0.3077
  351SOL    HW1 1052   0.756   0.577   2.017  0.7603  1.2963 -0.8454
  351SOL    HW2 1053   0.615   0.505   1.968 -0.1978  1.9327 -1.4358
  352SOL     OW 1054   2.081   2.704   1.852 -0.0891 -0.0718 -0.1027
  352SOL    HW1 1055   2.116   2.708   1.948 -2.0444 -1.7799  0.3620
  352SOL    HW2 1056   1.985   2.668   1.845 -1.9193  0.0532 -0.1172
  353SOL     OW 1057   0.681   0.744   2.458  0.6505  0.1396 -0.0070
  353SOL    HW1 1058   0.748   0.772   2.377  1.2992 -0.3224 -2.2380
  353SOL    HW2 1059   0.702   0.796   2.547  1.1056 -0.1675  1.2486
  354SOL     OW 1060   0.734   2.017   0.026 -0.4766  0.6030  0.6485
  354SOL    HW1 1061   0.698   2.109   0.051 -0.5513 -0.7031 -0.5024
  354SOL    HW2 1062   0.718   1.993   2.996  1.9269  2.3264  0.1805
  355SOL     OW 1063   1.703   2.709   1.039 -0.2569 -0.2136  0.2445
  355SOL    HW1 1064   1.670   2.795   0.999 -0.2200  1.0760  3.9406
  355SOL    HW2 1065   1.753   2.726   1.127  0.6402 -0.1927  2.3623
  356SOL     OW 1066   2.137   1.015   0.292 -0.4147 -0.3608  0.4718
  356SOL    HW1 1067   2.169   1.110   0.275  2.2971  0.0293  1.0598
  356SOL    HW2 1068   2.044   1.008   0.340 -0.9669 -0.9125  1.2183
  357SOL     OW 1069   0.022   0.127   2.089  0.0225  0.0422  0.0286
  357SOL    HW1 1070   0.094   0.172   2.039 -1.2453 -0.7338  1.9201
  357SOL    HW2 1071   3.036   0.067   2.024 -1.1790 -1.7338  2.0235
  358SOL     OW 1072   0.032   1.360   0.620 -0.1031  0.5954  0.0702
  358SOL    HW1 1073   3.059   1.323   0.534 -1.8924  0.5772  1.7428
  358SOL    HW2 1074   0.061   1.458   0.616 -0.6643 -0.9048  0.5465
  359SOL     OW 1075   2.749   0.318   2.791  0.3962 -0.4019  0.2715
  359SOL    HW1 1076   2.839   0.321   2.835  1.4881 -0.0399 -2.1543
  359SOL    HW2 1077   2.756   0.326   2.690 -0.7007 -1.9918  1.1586
  360SOL     OW 1078   1.243   0.915   1.212  0.0773  0.3740 -0.1287
  360SOL    HW1 1079   1.327   0.866   1.239 -1.5992  0.2169 -0.6631
  360SOL    HW2 1080   1.212   0.994   1.273  0.6278  2.9113 -1.6820
  361SOL     OW 1081   2.560   2.597   1.285  0.1921  0.0682 -0.9437
  361SOL    HW1 1082   2.635   2.562   1.346 -0.5301 -0.7640  0.7863
  361SOL    HW2 1083   2.516   2.510   1.244 -2.0566 -0.4000 -0.9566
  362SOL     OW 1084   1.156   0.619   0.834  0.5163 -0.4071  0.2865
  362SOL    HW1 1085   1.165   0.547   0.906 -0.5838 -2.4600 -2.5691
  362SOL    HW2 1086   1.066   0.667   0.832 -0.2726  2.1298 -1.4136
  363SOL     OW 1087   1.917   1.832   0.615 -0.1912 -0.1111 -0.0675
  363SOL    HW1 1088   1.997   1.773   0.586 -1.1025  1.5864 -1.2229
  363SOL    HW2 1089   1.912   1.910   0.549 -2.2659  0.7967  0.6025
  364SOL     OW 1090   0.543   0.404   1.367  0.0643  0.4118  0.5578
  364SOL    HW1 1091   0.599   0.343   1.424  0.2119 -0.0078  1.0537
  364SOL    HW2 1092   0.590   0.492   1.356 -0.1911 -1.5792  1.5499
  365SOL     OW 1093   0.275   0.157   1.269  0.0010  0.6590 -0.5840
  365SOL    HW1 1094   0.190   0.116   1.311  1.2349  0.3207 -2.0987
  365SOL    HW2 1095   0.260   0.258   1.274 -2.3770  0.1649 -0.3069
  366SOL     OW 1096   2.827   1.214   0.167 -0.7936 -0.4421  0.1778
  366SOL    HW1 1097   2.769   1.144   0.125  2.5169  1.2331  1.1577
  366SOL    HW2 1098   2.832   1.301   0.108  1.4104 -3.8339  0.7992
  367SOL     OW 1099   2.253   2.587   2.616  0.3090  0.1002 -0.1005
  367SOL    HW1 1100   2.226   2.649   2.689  0.5624 -0.4061 -0.2693
  367SOL    HW2 1101   2.312   2.516   2.653 -3.9920  1.3785  1.3382
  368SOL     OW 1102   2.352   1.761   0.650  0.2821  0.1292  0.0704
  368SOL    HW1 1103   2.356   1.855   0.605 -0.6579 -2.6878 -3.1142
  368SOL    HW2 1104   2.252   1.727   0.641 -3.8335 -2.0924 -0.7679
  369SOL     OW 1105   1.901   0.487   2.731 -0.0780  0.2964  0.0958
  369SOL    HW1 1106   1.996   0.522   2.713  1.4709 -0.8371 -0.9365
  369SOL    HW2 1107   1.832   0.561   2.741  0.1267 -2.9973  0.3178
  370SOL     OW 1108   0.424   0.261   0.990  0.2493  0.0715  0.0350
  370SOL    HW1 1109   0.381   0.284   1.078 -1.7495 -1.4351 -2.0344
  370SOL    HW2 1110   0.521   0.244   1.004  1.0984 -1.7789 -0.3840
  371SOL     OW 1111   2.921   1.352   2.988  0.4714  0.2203 -0.6654
  371SOL    HW1 1112   2.969   1.311   2.906 -0.6608 -0.7288 -1.6919
  371SOL    HW2 1113   2.961   1.444   3.019  0.4266  1.6324 -1.8389
  372SOL     OW 1114   0.592   0.568   2.292 -0.1760 -0.4437  0.1011
  372SOL    HW1 1115   0.633   0.538   2.204 -3.3375  0.7011 -2.2400
  372SOL    HW2 1116   0.635   0.655   2.324  1.2997 -0.6714  1.9102
  373SOL     OW 1117   0.515   2.911   3.052 -0.0394  0.1787  0.1508
  373SOL    HW1 1118   0.543   2.994   0.026  3.3014 -3.9560 -0.9503
  373SOL    HW2 1119   0.442   2.857   0.031  1.3306 -0.5719 -0.4932
  374SOL     OW 1120   0.847   1.312   2.780 -0.3228 -0.3902  0.3896
  374SOL    HW1 1121   0.939   1.304   2.827  0.5378 -0.3530 -0.9909
  374SOL    HW2 1122   0.791   1.230   2.792  1.3821 -1.0647  0.8738
  375SOL     OW 1123   1.070   0.428   2.062 -0.7996 -0.3395 -0.2852
  375SOL    HW1 1124   1.071   0.407   1.963 -0.6594 -0.7396 -3.7996
  375SOL    HW2 1125   1.040   0.345   2.118  1.4512  0.0191  0.1644
  376SOL     OW 1126   0.293   2.765   1.852  0.3220 -0.0365  0.6602
  376SOL    HW1 1127   0.300   2.783   1.951 -1.2540 -2.1885 -1.6133
  376SOL    HW2 1128   0.347   2.687   1.818  0.8643 -0.6562 -0.2319
  377SOL     OW 1129   2.680   2.153   2.876  0.2211 -0.3541  0.0649
  377SOL    HW1 1130   2.629   2.161   2.784  0.4353  2.9119  0.8796
  377SOL    HW2 1131   2.701   2.056   2.898 -1.6044  1.4963 -0.2709
  378SOL     OW 1132   1.975   0.228   0.269 -0.4378 -0.5927 -0.0298
  378SOL    HW1 1133   2.017   0.149   0.322  1.3345  0.5734  0.2986
  378SOL    HW2 1134   2.036   0.251   0.192  0.6246 -0.5532 -1.2260
  379SOL     OW 1135   1.732   0.639   0.450  0.3573 -0.0494  0.3099
  379SOL    HW1 1136   1.801   0.637   0.522 -0.3532 -0.7701  1.1492
  379SOL    HW2 1137   1.778   0.609   0.362 -0.7918  0.0855  1.8194
  380SOL     OW 1138   2.429   1.966   1.932 -0.5898  0.0347 -0.2116
  380SOL    HW1 1139   2.427   2.053   1.876  1.1950  3.7020 -0.2925
  380SOL    HW2 1140   2.386   1.885   1.887 -0.8261  1.2786 -1.7986
  381SOL     OW 1141   2.337   1.423   2.216 -0.0827  0.1328  0.2474
  381SOL    HW1 1142   2.309   1.476   2.131 -0.8834 -0.0830 -2.4978
  381SOL    HW2 1143   2.289   1.332   2.225  1.5498 -2.2827  1.2388
  382SOL     OW 1144   2.920   2.203   2.664 -0.1219 -0.3980  0.0917
  382SOL    HW1 1145   2.896   2.110   2.631  2.0529  1.9779  2.2024
  382SOL    HW2 1146   3.012   2.204   2.719  0.4038  1.9659  1.5935
  383SOL     OW 1147   0.962   1.060   2.840  0.5502  0.0268 -0.3056
  383SOL    HW1 1148   0.991   0.964   2.837 -0.2749 -0.8841 -0.5364
  383SOL    HW2 1149   0.997   1.110   2.926  0.9038  1.2361  2.9445
  384SOL     OW 1150   1.685   1.865   2.497 -0.1415 -0.1870 -0.1186
  384SOL    HW1 1151   1.725   1.957   2.481  0.0583  0.1143  1.5878
  384SOL    HW2 1152   1.674   1.807   2.416  0.0768  0.8999 -2.0240
  385SOL     OW 1153   1.784   2.812   0.326 -0.1548 -0.2558  0.0242
  385SOL    HW1 1154   1.701   2.754   0.308 -0.2032  0.7789 -4.4765
  385SOL    HW2 1155   1.799   2.843   0.423  1.4541 -0.0914  0.7051
  386SOL     OW 1156   1.815   1.356   0.622  0.0362 -0.1513  0.3229
  386SOL    HW1 1157   1.762   1.270   0.651 -0.4276 -0.1853  1.3160
  386SOL    HW2 1158   1.818   1.367   0.522 -1.9048 -2.4656  0.0752
  387SOL     OW 1159   2.687   1.869   1.353  0.4794  0.2657  0.2092
  387SOL    HW1 1160   2.587   1.882   1.380 -0.8623 -0.1912 -1.5945
  387SOL    HW2 1161   2.714   1.773   1.335  2.2348  3.2488  1.3836
  388SOL     OW 1162   0.152   1.033   1.466 -0.4588  0.5282  0.0120
  388SOL    HW1 1163   0.056   1.042   1.462  4.4077  1.0907  1.6426
  388SOL    HW2 1164   0.189   1.092   1.391 -0.0556  1.6854 -0.2590
  389SOL     OW 1165   2.338   0.911   2.743 -0.1778 -0.1467  0.0411
  389SOL    HW1 1166   2.322   0.858   2.831 -1.0253 -1.4106  2.4701
  389SOL    HW2 1167   2.303   1.005   2.748 -1.6159  2.1809 -1.6686
  390SOL     OW 1168   0.741   1.549   2.697 -0.2748  0.0107 -0.1346
  390SOL    HW1 1169   0.774   1.461   2.741 -0.1784 -0.6821 -0.2482
  390SOL    HW2 1170   0.652   1.580   2.736 -0.6332 -0.7363 -1.1572
  391SOL     OW 1171   0.880   2.023   0.238 -0.8660  0.5398  0.1416
  391SOL    HW1 1172   0.842   2.014   0.143  1.0999 -1.2018  0.4151
  391SOL    HW2 1173   0.965   2.086   0.240  5.9671  1.6515 -1.2918
  392SOL     OW 1174   2.922   2.451   2.270  0.2419 -0.5091  0.1381
  392SOL    HW1 1175   2.946   2.521   2.197  0.3661  2.5471 -1.7357
  392SOL    HW2 1176   2.884   2.490   2.357 -0.3224 -1.4429  1.8481
  393SOL     OW 1177   1.415   2.214   0.371  0.7725  0.1753  0.6189
  393SOL    HW1 1178   1.510   2.181   0.388 -1.0091  0.6957 -0.1450
  393SOL    HW2 1179   1.376   2.192   0.279 -1.7731 -1.2539 -0.7261
  394SOL     OW 1180   0.659   0.151   2.315 -0.2141 -0.1045  0.7708
  394SOL    HW1 1181   0.626   0.230   2.370 -0.2234 -0.3839 -0.8806
  394SOL    HW2 1182   0.707   0.188   2.234 -2.0818  1.4765  0.7267
  395SOL     OW 1183   0.502   1.477   1.222  0.2158  0.5788 -0.6798
  395SOL    HW1 1184   0.568   1.404   1.191 -0.1067 -3.2851 -0.6907
  395SOL    HW2 1185   0.430   1.494   1.153  2.2863  1.9810 -1.7480
  396SOL     OW 1186   1.857   1.348   2.811  0.1535 -0.4041 -0.1346
  396SOL    HW1 1187   1.767   1.397   2.805  0.6914 -1.4367 -1.4323
  396SOL    HW2 1188   1.903   1.367   2.722  0.2810 -0.9415  0.7190
  397SOL     OW 1189   0.170   0.596   2.868 -0.0312  0.7263  0.1321
  397SOL    HW1 1190   0.214   0.596   2.963 -1.5510 -2.6292 -2.0683
  397SOL    HW2 1191   0.170   0.689   2.826 -1.2296 -2.5556  0.4942
  398SOL     OW 1192   0.934   2.435   0.251 -0.2620  0.6215  0.1278
  398SOL    HW1 1193   1.034   2.420   0.272  1.6755  2.2263  0.5864
  398SOL    HW2 1194   0.924   2.455   0.150 -1.3601 -0.6641 -5.3540
  399SOL     OW 1195   1.862   2.475   2.083 -0.0927 -0.2682 -0.3925
  399SOL    HW1 1196   1.904   2.498   1.993  1.8633  0.0626 -0.8253
  399SOL    HW2 1197   1.939   2.477   2.153  1.8288  0.4682  2.2850
  400SOL     OW 1198   2.463   1.403   1.448  0.1956 -0.0538  0.0369
  400SOL    HW1 1199   2.449   1.389   1.547 -0.0345  1.5931 -2.9032
  400SOL    HW2 1200   2.560   1.389   1.425 -0.4666 -0.0641 -3.1448
  401SOL     OW 1201   1.626   1.072   0.965 -0.3923 -0.4939  0.0362
  401SOL    HW1 1202   1.603   1.018   0.880 -0.6761  1.5715 -0.7489
  401SOL    HW2 1203   1.610   1.018   1.049  1.3789 -1.8090  0.7088
  402SOL     OW 1204   0.221   3.016   2.423  0.3759  0.3270 -0.1111
  402SOL    HW1 1205   0.270   0.030   2.384  0.3513  0.1606 -0.0853
  402SOL    HW2 1206   0.281   2.957   2.477  0.0727 -0.3609 -0.0357
  403SOL     OW 1207   2.673   1.709   1.621  0.3059 -0.5869  0.0712
  403SOL    HW1 1208   2.703   1.625   1.570  0.4315  0.7724  0.8390
  403SOL    HW2 1209   2.587   1.746   1.585  1.3612 -0.0443  0.9515
  404SOL     OW 1210   2.356   1.742   1.781  0.2927  0.2657 -0.5488
  404SOL    HW1 1211   2.354   1.641   1.801  3.3750  0.7222 -1.8851
  404SOL    HW2 1212   2.351   1.757   1.679 -1.4451 -0.3982 -2.5965
  405SOL     OW 1213   2.198   0.216   2.422  0.2549 -0.6717 -0.0359
  405SOL    HW1 1214   2.147   0.229   2.334  0.7583  2.9660 -0.7842
  405SOL    HW2 1215   2.300   0.201   2.398  4.7063  0.7267  0.9374
  406SOL     OW 1216   0.789   1.314   2.495  0.0185 -0.0377  0.2589
  406SOL    HW1 1217   0.840   1.228   2.506  2.4673 -0.6366 -0.0165
  406SOL    HW2 1218   0.765   1.352   2.587  0.3000 -1.8041  0.1175
  407SOL     OW 1219   1.960   2.232   0.750  0.4134 -0.0196  0.1004
  407SOL    HW1 1220   2.047   2.234   0.698  1.6178  0.1982  0.8600
  407SOL    HW2 1221   1.965   2.282   0.836 -0.3024 -0.4580 -0.3568
  408SOL     OW 1222   0.104   3.009   0.837 -0.1196 -0.0588  0.1291
  408SOL    HW1 1223   0.092   2.924   0.900 -1.7548 -0.2063  4.3427
  408SOL    HW2 1224   0.055   3.005   0.749 -0.5862  0.3586 -1.5159
  409SOL     OW 1225   2.038   1.436   0.735 -0.5082  0.0967 -0.1826
  409SOL    HW1 1226   2.001   1.461   0.828 -0.7204 -0.3293  1.0550
  409SOL    HW2 1227   1.965   1.390   0.683  0.0506 -0.8739  0.5752
  410SOL     OW 1228   2.111   2.426   3.028  0.3827  0.4893  0.5856
  410SOL    HW1 1229   2.185   2.440   0.024  0.3214 -2.9952  0.1229
  410SOL    HW2 1230   2.022   2.429   3.069  0.5337 -0.6631 -3.0150
  411SOL     OW 1231   0.029   2.801   0.406  0.0241 -0.0164  0.0156
  411SOL    HW1 1232   0.018   2.876   0.477  1.7478  1.2513 -0.1373
  411SOL    HW2 1233   3.011   2.752   0.393  1.6942 -0.3092 -1.1559
  412SOL     OW 1234   1.378   2.780   0.865  0.5338 -0.4083 -0.0523
  412SOL    HW1 1235   1.303   2.826   0.813  0.7513  1.0853  1.6641
  412SOL    HW2 1236   1.471   2.822   0.851 -0.8906  0.0069  0.7171
  413SOL     OW 1237   1.890   0.087   2.655  0.2208  0.2562 -0.0941
  413SOL    HW1 1238   1.953   0.066   2.575 -0.0567  3.0430 -2.4285
  413SOL    HW2 1239   1.856   3.067   2.701 -2.1591 -0.6778  0.3520
  414SOL     OW 1240   0.585   0.722   0.431  0.4230 -0.0266  0.0950
  414SOL    HW1 1241   0.612   0.629   0.403  0.8795 -1.6271 -1.0662
  414SOL    HW2 1242   0.497   0.726   0.474  0.3139  3.5488 -2.7083
  415SOL     OW 1243   0.281   1.068   1.161 -0.2975 -0.1821  0.0278
  415SOL    HW1 1244   0.291   0.984   1.099  0.9121 -0.9637 -1.9027
  415SOL    HW2 1245   0.360   1.070   1.225  0.3042  1.9908  1.3836
  416SOL     OW 1246   0.313   0.262   0.089 -0.5780  0.3008  0.0745
  416SOL    HW1 1247   0.358   0.340   0.137 -1.2853  0.2990  0.7541
  416SOL    HW2 1248   0.291   0.191   0.157  1.8607  1.8733  1.1029
  417SOL     OW 1249   2.113   0.209   0.802 -0.1440  0.0802 -0.1029
  417SOL    HW1 1250   2.123   0.297   0.853 -2.4983  1.2486  0.7794
  417SOL    HW2 1251   2.011   0.191   0.786  0.0834  0.0125 -0.1342
  418SOL     OW 1252   0.628   0.349   2.476  0.4771  0.2684 -0.2910
  418SOL    HW1 1253   0.713   0.379   2.524  4.8391 -3.6149  0.2150
  418SOL    HW2 1254   0.587   0.427   2.423  2.4014  2.7203  0.1557
  419SOL     OW 1255   0.716   0.945   0.481  0.3636  0.0627 -0.2017
  419SOL    HW1 1256   0.674   0.852   0.473  1.4738  1.5407  1.3800
  419SOL    HW2 1257   0.673   0.991   0.557 -0.5538 -0.5899  0.1351
  420SOL     OW 1258   2.145   1.743   1.267 -0.0788  0.0899 -0.4916
  420SOL    HW1 1259   2.188   1.830   1.241 -0.7212  1.9796  1.3815
  420SOL    HW2 1260   2.211   1.667   1.274 -1.0940 -1.7285 -1.5934
  421SOL     OW 1261   1.140   1.814   2.556 -0.5108 -0.1000  0.0641
  421SOL    HW1 1262   1.037   1.830   2.564 -0.7268  0.2779 -1.9422
  421SOL    HW2 1263   1.159   1.719   2.530  2.1419 -0.1129  2.0090
  422SOL     OW 1264   2.577   0.503   0.063  0.2000 -0.4661  0.0578
  422SOL    HW1 1265   2.541   0.510   0.154  2.5230 -0.2024 -1.1951
  422SOL    HW2 1266   2.677   0.507   0.067 -1.2453  1.2492  1.7790
  423SOL     OW 1267   1.915   2.077   0.439  0.2814  0.2409 -0.0835
  423SOL    HW1 1268   1.949   2.004   0.373  0.6294 -0.6135 -2.0424
  423SOL    HW2 1269   1.814   2.075   0.445 -0.0254  2.3092 -0.8617
  424SOL     OW 1270   0.379   1.620   1.413  0.4918  0.3135 -0.4340
  424SOL    HW1 1271   0.427   1.566   1.343  0.3355  0.4092 -0.9503
  424SOL    HW2 1272   0.315   1.558   1.461  0.3231  1.1737 -0.8074
  425SOL     OW 1273   2.606   2.769   2.321  0.1708  0.4033 -0.6037
  425SOL    HW1 1274   2.616   2.735   2.417 -3.4299  2.8611  0.5432
  425SOL    HW2 1275   2.655   2.715   2.249 -0.5183 -0.4200 -1.3426
  426SOL     OW 1276   1.579   2.631   0.314 -0.0185 -0.3544 -0.4934
  426SOL    HW1 1277   1.485   2.629   0.269 -2.2244 -1.9735 -3.7701
  426SOL    HW2 1278   1.589   2.562   0.394 -0.9742 -1.1698  0.1861
  427SOL     OW 1279   0.225   0.483   2.615 -0.4631  0.0526  0.3624
  427SOL    HW1 1280   0.307   0.545   2.591 -1.9699  1.6186  1.0030
  427SOL    HW2 1281   0.214   0.487   2.713 -1.9954  0.9126 -3.7842
  428SOL     OW 1282   2.172   1.136   2.750 -0.3103  0.0330  0.8764
  428SOL    HW1 1283   2.228   1.214   2.718 -0.2877 -3.5593  1.7238
  428SOL    HW2 1284   2.076   1.135   2.711  0.2493 -1.2522  0.9339
  429SOL     OW 1285   3.008   0.192   0.495 -0.9273  0.4148  0.0972
  429SOL    HW1 1286   2.951   0.155   0.424  1.5672 -0.9282  1.9738
  429SOL    HW2 1287   2.969   0.199   0.590  0.2137  0.6169 -0.9203
  430SOL     OW 1288   1.103   2.917   1.931 -0.2440 -0.0968  0.2373
  430SOL    HW1 1289   1.035   2.930   2.002  1.2278 -0.6669  0.0297
  430SOL    HW2 1290   1.126   2.816   1.908  3.4017 -3.7287 -2.2014
  431SOL     OW 1291   3.035   1.892   1.101  0.3518 -0.0666 -0.1752
  431SOL    HW1 1292   2.948   1.946   1.081 -0.0206  2.5087  0.0798
  431SOL    HW2 1293   3.037   1.891   1.206 -0.2070  1.5711  1.8722
  432SOL     OW 1294   2.396   2.821   2.156  0.1372 -0.3364  0.3141
  432SOL    HW1 1295   2.456   2.797   2.237  0.8518 -3.0016 -0.0948
  432SOL    HW2 1296   2.391   2.927   2.140 -0.4299  3.4031 -0.5043
  433SOL     OW 1297   1.170   1.967   0.038 -0.0657  0.5113  0.0134
  433SOL    HW1 1298   1.270   1.983   0.034  0.3112  0.0769 -1.3247
  433SOL    HW2 1299   1.144   1.910   0.114  1.7800  1.4978  0.3099
  434SOL     OW 1300   0.207   2.409   2.542  0.3082 -0.8940  0.3523
  434SOL    HW1 1301   0.141   2.346   2.498  0.9545 -2.0732  0.4194
  434SOL    HW2 1302   0.252   2.367   2.623  1.6045 -1.8867  0.1604
  435SOL     OW 1303   3.033   0.880   0.616  0.8731  0.6052 -0.3643
  435SOL    HW1 1304   2.978   0.910   0.696  2.7293  1.2194  2.1008
  435SOL    HW2 1305   3.000   0.912   0.525  0.4219 -0.9525  1.5612
  436SOL     OW 1306   0.757   2.693   1.936  0.0111 -0.0250  0.1610
  436SOL    HW1 1307   0.736   2.779   1.883  1.4952 -0.8874 -0.7768
  436SOL    HW2 1308   0.694   2.615   1.908 -0.9984 -0.2451 -1.9187
  437SOL     OW 1309   1.200   2.043   1.476  0.0962 -0.0473  0.1146
  437SOL    HW1 1310   1.263   2.085   1.405  0.1516  0.7926 -0.6849
  437SOL    HW2 1311   1.248   1.986   1.543 -1.0580  1.0411 -1.5529
  438SOL     OW 1312   0.306   2.214   0.581 -0.9398  0.1327  0.4433
  438SOL    HW1 1313   0.312   2.260   0.490 -0.9911  2.7572 -1.8352
  438SOL    HW2 1314   0.306   2.113   0.570  0.0262 -1.3391 -1.8364
  439SOL     OW 1315   0.358   3.012   1.476  0.2694 -0.2720 -0.6132
  439SOL    HW1 1316   0.294   3.063   1.420 -0.7141 -0.5742  0.5461
  439SOL    HW2 1317   0.333   2.913   1.480 -0.0311  1.5694  1.3044
  440SOL     OW 1318   2.581   2.599   2.524  0.2855  0.3816  0.2269
  440SOL    HW1 1319   2.647   2.551   2.590 -0.1761 -2.9655  2.6128
  440SOL    HW2 1320   2.542   2.536   2.458 -1.0699 -0.9430  3.6557
  441SOL     OW 1321   3.046   0.398   1.745 -0.3238  0.2246  0.3512
  441SOL    HW1 1322   2.991   0.314   1.730 -0.4689 -0.7334  0.2239
  441SOL    HW2 1323   0.055   0.373   1.806 -0.5634  1.5173  0.6332
  442SOL     OW 1324   1.872   2.457   0.052  0.6519 -0.0866 -1.0300
  442SOL    HW1 1325   1.864   2.436   0.152 -1.1714 -1.2851 -0.0071
  442SOL    HW2 1326   1.807   2.528   0.016  0.6469  2.1848 -2.5547
  443SOL     OW 1327   0.061   0.869   2.775  0.2127 -0.3423 -0.2362
  443SOL    HW1 1328   0.069   0.958   2.829 -1.7473  0.1677  1.3981
  443SOL    HW2 1329   0.120   0.872   2.696  0.4100  0.5418  1.5563
  444SOL     OW 1330   1.583   1.195   2.310 -0.4539 -0.0279  0.1808
  444SOL    HW1 1331   1.576   1.119   2.243  1.5378 -2.0422  1.1028
  444SOL    HW2 1332   1.562   1.287   2.268 -1.6911  0.6153  1.4880
  445SOL     OW 1333   0.106   2.462   1.121 -0.1450  0.1932  0.1447
  445SOL    HW1 1334   0.019   2.511   1.129  1.1314  0.4536 -1.7022
  445SOL    HW2 1335   0.168   2.510   1.054  0.3878 -1.8837 -0.2150
  446SOL     OW 1336   2.757   1.622   1.282  0.2000 -0.1159 -0.1182
  446SOL    HW1 1337   2.743   1.518   1.301 -0.3499 -0.8760  2.0452
  446SOL    HW2 1338   2.818   1.633   1.203 -0.3074  2.3471  0.6341
  447SOL     OW 1339   0.219   0.793   0.345  0.7565  0.1103  0.5543
  447SOL    HW1 1340   0.247   0.876   0.298 -0.0054 -0.7981 -2.4495
  447SOL    HW2 1341   0.276   0.777   0.425 -2.7802  4.9514 -0.1019
  448SOL     OW 1342   1.219   2.066   1.871  0.4801  0.4834  0.3824
  448SOL    HW1 1343   1.308   2.084   1.831 -0.3398 -0.2399 -0.1497
  448SOL    HW2 1344   1.217   2.071   1.969 -0.2658  0.8122 -0.9393
  449SOL     OW 1345   1.107   1.451   0.221  0.1475  0.4068 -0.6966
  449SOL    HW1 1346   1.155   1.457   0.309 -0.4486 -0.4530 -0.7563
  449SOL    HW2 1347   1.041   1.372   0.214 -0.3110 -1.3595 -1.0778
  450SOL     OW 1348   3.002   2.359   1.887 -0.4677  0.1185 -0.0971
  450SOL    HW1 1349   3.040   2.265   1.896 -1.2191  1.0724  0.1364
  450SOL    HW2 1350   2.901   2.361   1.896 -0.1282  3.1374  0.6630
  451SOL     OW 1351   2.359   0.897   2.445  0.4435 -0.5891 -0.1559
  451SOL    HW1 1352   2.371   0.907   2.547 -1.5020 -2.3737  0.2270
  451SOL    HW2 1353   2.440   0.927   2.394 -0.5334 -1.1909  1.6882
  452SOL     OW 1354   1.735   0.588   0.852  0.2026 -0.0704 -0.6111
  452SOL    HW1 1355   1.786   0.542   0.778  0.5677 -1.0538  1.2109
  452SOL    HW2 1356   1.803   0.619   0.923  0.2047  4.4131  1.0470
  453SOL     OW 1357   1.624   0.922   1.239  0.5600 -0.2540 -0.3344
  453SOL    HW1 1358   1.549   0.867   1.282  1.9324 -1.1326  2.4150
  453SOL    HW2 1359   1.654   1.000   1.297 -0.8053  1.1320 -2.8351
  454SOL     OW 1360   3.001   1.189   0.389 -0.4797  0.6311 -0.0683
  454SOL    HW1 1361   2.955   1.139   0.472 -0.7605  0.0737  4.7668
  454SOL    HW2 1362   2.934   1.215   0.318  0.4824  1.4800  2.1538
  455SOL     OW 1363   2.392   2.737   1.444 -0.4457 -0.1075 -0.0616
  455SOL    HW1 1364   2.319   2.779   1.384  0.0655  1.1931  1.5788
  455SOL    HW2 1365   2.462   2.692   1.386  0.5872  2.6624  0.0501
  456SOL     OW 1366   0.095   2.777   1.249 -0.1166  0.3271  0.1877
  456SOL    HW1 1367   0.172   2.765   1.311  0.7109  0.1874  0.0285
  456SOL    HW2 1368   0.005   2.757   1.293  1.0589  1.5780 -1.0431
  457SOL     OW 1369   1.195   2.936   0.747  0.5917  0.4146  0.8211
  457SOL    HW1 1370   1.240   3.017   0.702 -1.5057  0.0536 -0.8482
  457SOL    HW2 1371   1.127   2.966   0.818  2.2889 -0.4393 -0.0270
  458SOL     OW 1372   2.617   2.785   1.088 -0.0058 -0.0185 -0.7134
  458SOL    HW1 1373   2.586   2.734   1.169 -0.2475 -0.7697 -0.2902
  458SOL    HW2 1374   2.626   2.887   1.104  0.5411 -0.9215 -0.3920
  459SOL     OW 1375   2.548   0.281   2.958 -0.2943 -0.9471 -0.2744
  459SOL    HW1 1376   2.542   0.364   3.012 -1.3070 -0.1348 -2.5472
  459SOL    HW2 1377   2.617   0.293   2.883 -2.1915  0.6749  1.4534
  460SOL     OW 1378   2.545   2.405   2.952 -0.2990 -0.3588 -0.3991
  460SOL    HW1 1379   2.553   2.505   2.958  0.7689 -1.8999  3.3555
  460SOL    HW2 1380   2.629   2.359   2.986 -0.9598 -0.2110 -1.0477
  461SOL     OW 1381   0.798   1.563   0.483 -0.1276  0.4365 -0.2404
  461SOL    HW1 1382   0.841   1.649   0.444  0.6573 -0.3178 -0.3841
  461SOL    HW2 1383   0.765   1.498   0.413  1.6704 -4.3423 -1.5095
  462SOL     OW 1384   2.118   2.118   0.998 -0.4531 -0.0551 -0.0938
  462SOL    HW1 1385   2.050   2.182   1.042 -3.1839 -0.0172  1.5932
  462SOL    HW2 1386   2.181   2.168   0.932 -1.5112  1.6679  0.9624
  463SOL     OW 1387   2.550   1.035   0.893  0.1512 -0.2280 -0.1130
  463SOL    HW1 1388   2.553   0.944   0.848  0.5797  0.2383  0.4627
  463SOL    HW2 1389   2.455   1.073   0.878  1.0708 -0.3589  1.9472
  464SOL     OW 1390   0.983   3.057   0.899 -0.1612  0.2569 -0.1642
  464SOL    HW1 1391   0.908   3.060   0.833 -0.6967  0.7144  2.2495
  464SOL    HW2 1392   0.956   2.983   0.967  1.7837  1.4470 -0.0596
  465SOL     OW 1393   2.212   1.514   0.308  0.3824 -0.5545 -0.0485
  465SOL    HW1 1394   2.136   1.548   0.253  2.1130 -2.1153  0.8983
  465SOL    HW2 1395   2.304   1.552   0.277  2.5606  5.1322 -0.5780
  466SOL     OW 1396   1.925   0.240   2.861 -0.2964 -0.3273  0.7759
  466SOL    HW1 1397   1.922   0.328   2.815 -1.8579 -3.6585  0.6672
  466SOL    HW2 1398   1.916   0.167   2.787  0.2172  0.9768 -2.7958
  467SOL     OW 1399   1.092   0.975   1.545  0.6424  0.2021 -0.2257
  467SOL    HW1 1400   1.119   0.881   1.518 -0.0730 -1.9276  1.1092
  467SOL    HW2 1401   1.001   0.967   1.593  2.7379 -2.4252 -1.7667
  468SOL     OW 1402   0.473   1.093   2.322 -0.5990  0.6102  0.2389
  468SOL    HW1 1403   0.419   1.004   2.334 -0.3957 -0.3838 -4.9960
  468SOL    HW2 1404   0.460   1.155   2.397 -0.0762 -1.2801 -0.7969
  469SOL     OW 1405   0.571   2.168   0.358 -0.3200  0.0594  0.8397
  469SOL    HW1 1406   0.645   2.193   0.293 -1.0257 -1.5998 -0.5495
  469SOL    HW2 1407   0.565   2.064   0.374  0.4963 -3.1031 -0.8478
  470SOL     OW 1408   2.535   1.257   2.932 -0.0885  0.3962  0.2221
  470SOL    HW1 1409   2.566   1.179   2.994  0.5222 -3.0263  2.1781
  470SOL    HW2 1410   2.602   1.337   2.929  2.4031 -1.1121 -1.2836
  471SOL     OW 1411   2.560   0.980   2.298 -0.9194  0.3973  0.4871
  471SOL    HW1 1412   2.646   0.992   2.351  1.7489 -1.7830 -0.3339
  471SOL    HW2 1413   2.533   1.068   2.251 -0.7362  0.9784 -0.2262
  472SOL     OW 1414   0.445   2.670   0.764  0.4551 -0.3787  0.2177
  472SOL    HW1 1415   0.543   2.644   0.772 -0.9078 -0.5822 -0.0950
  472SOL    HW2 1416   0.407   2.637   0.675  1.3431  2.0365  0.9002
  473SOL     OW 1417   0.539   0.133   3.059  0.0478  0.1030 -0.1575
  473SOL    HW1 1418   0.465   0.170   0.048  1.1071 -1.7145  0.6277
  473SOL    HW2 1419   0.502   0.097   2.969  1.0319 -1.4557 -1.4861
  474SOL     OW 1420   1.819   0.395   2.019 -0.1354  0.0540  0.3230
  474SOL    HW1 1421   1.839   0.423   1.922  2.4538  0.8739 -0.6669
  474SOL    HW2 1422   1.728   0.346   2.026 -1.6007 -0.8716  0.0762
  475SOL     OW 1423   1.126   2.208   0.202  0.5226  0.1251  0.3434
  475SOL    HW1 1424   1.179   2.160   0.132  0.7461  1.7092 -0.8656
  475SOL    HW2 1425   1.176   2.291   0.238  0.1626  1.8358  1.1124
  476SOL     OW 1426   0.629   1.111   0.675  0.4282  0.1092 -0.0167
  476SOL    HW1 1427   0.628   1.033   0.738 -1.2271  2.3770 -1.5737
  476SOL    HW2 1428   0.536   1.156   0.681 -1.8502 -0.8825 -0.6217
  477SOL     OW 1429   1.722   2.481   1.428  0.4719 -0.3891 -0.5733
  477SOL    HW1 1430   1.666   2.417   1.486  2.9506  2.1593  0.0645
  477SOL    HW2 1431   1.684   2.479   1.334  1.2937  0.3479 -1.6642
  478SOL     OW 1432   0.603   1.641   2.281 -0.5851  0.1719 -0.5016
  478SOL    HW1 1433   0.564   1.595   2.195  3.7676  0.1331  2.5375
  478SOL    HW2 1434   0.590   1.581   2.365 -0.1318 -1.2074  0.8686
  479SOL     OW 1435   2.941   2.995   1.052  0.1673  0.4037 -0.1848
  479SOL    HW1 1436   3.016   2.923   1.044 -1.6430 -2.0743  2.6841
  479SOL    HW2 1437   2.988   0.017   1.052 -0.8799 -1.2926  1.3708
  480SOL     OW 1438   2.709   3.000   0.416  0.0666 -0.0700  0.2517
  480SOL    HW1 1439   2.693   2.973   0.511  0.9396  3.1214 -1.3908
  480SOL    HW2 1440   2.745   2.928   0.357 -2.0114 -1.1631  0.6065
  481SOL     OW 1441   2.757   2.662   0.895  0.0923 -0.1592 -0.0344
  481SOL    HW1 1442   2.694   2.601   0.843  0.8141  1.5784 -0.4034
  481SOL    HW2 1443   2.701   2.711   0.965 -3.9004  0.7616  2.2841
  482SOL     OW 1444   1.205   2.378   2.299  0.4930  0.0192 -0.1029
  482SOL    HW1 1445   1.174   2.357   2.206  2.1332 -0.2169  2.7040
  482SOL    HW2 1446   1.236   2.289   2.341  0.2857  3.1647 -0.2574
  483SOL     OW 1447   0.298   1.640   2.463 -0.1763 -0.0198 -0.2428
  483SOL    HW1 1448   0.349   1.550   2.465  1.5820 -2.6956 -0.1315
  483SOL    HW2 1449   0.361   1.720   2.473 -3.2629 -0.7242  0.1240
  484SOL     OW 1450   0.954   1.067   2.197 -0.1097 -0.5607 -0.2191
  484SOL    HW1 1451   0.884   1.140   2.205 -1.0854 -3.2968  0.7141
  484SOL    HW2 1452   1.041   1.107   2.234 -1.2760 -0.3444 -0.1627
  485SOL     OW 1453   2.683   0.363   0.416  0.4612 -0.0871  0.0271
  485SOL    HW1 1454   2.622   0.316   0.485 -1.3553 -0.0858  0.4961
  485SOL    HW2 1455   2.729   0.299   0.352  2.4947 -1.1996  2.3048
  486SOL     OW 1456   1.621   2.939   0.895 -0.1452 -0.2253  0.5954
  486SOL    HW1 1457   1.697   2.990   0.942 -0.2191 -2.1576 -1.2071
  486SOL    HW2 1458   1.636   2.933   0.794  0.9717 -2.7476 -0.4967
  487SOL     OW 1459   0.679   2.274   0.974  0.1243  0.0954 -0.4150
  487SOL    HW1 1460   0.775   2.313   0.965  5.3157 -0.8644 -0.1831
  487SOL    HW2 1461   0.619   2.293   0.892  2.8962 -0.0865 -1.3528
  488SOL     OW 1462   2.244   1.279   0.192 -0.5100 -0.2896  0.3471
  488SOL    HW1 1463   2.221   1.359   0.253 -0.6175  0.1641  0.0377
  488SOL    HW2 1464   2.239   1.301   0.095  0.9805  0.6479  0.9089
  489SOL     OW 1465   1.415   0.040   0.973 -0.6250 -0.6730  0.4515
  489SOL    HW1 1466   1.462   0.082   1.051 -0.2346  0.4216 -0.1241
  489SOL    HW2 1467   1.484   3.049   0.929 -0.1221 -0.9429 -0.3882
  490SOL     OW 1468   1.059   1.126   0.016  0.1401  0.0130 -0.2323
  490SOL    HW1 1469   1.144   1.109   0.063 -0.7269 -0.2342  0.6805
  490SOL    HW2 1470   0.990   1.155   0.090  0.0326  0.2427  1.3101
  491SOL     OW 1471   0.881   2.862   1.022  0.1397 -0.3272  0.0095
  491SOL    HW1 1472   0.904   2.816   1.110 -0.0125 -4.4927  3.2956
  491SOL    HW2 1473   0.841   2.801   0.951  0.2490  0.5959 -0.0960
  492SOL     OW 1474   1.171   1.290   2.059  0.5214 -0.2169 -0.3256
  492SOL    HW1 1475   1.179   1.285   2.164  0.5068 -0.5331  2.4013
  492SOL    HW2 1476   1.256   1.337   2.019  1.9512  1.7107 -1.1168
  493SOL     OW 1477   0.140   2.391   0.691 -0.2698 -0.5079 -0.2102
  493SOL    HW1 1478   0.204   2.320   0.656 -2.1020 -0.8467  0.9550
  493SOL    HW2 1479   0.132   2.465   0.621  1.3452  1.6637 -0.0823
  494SOL     OW 1480   2.539   1.848   3.039 -0.4206 -0.1588  0.0657
  494SOL    HW1 1481   2.463   1.920   3.032 -2.6840  2.4423 -0.9109
  494SOL    HW2 1482   2.497   1.757   3.028 -1.5959  2.9765 -2.2382
  495SOL     OW 1483   2.683   1.485   2.911 -0.6452 -1.0894  0.0554
  495SOL    HW1 1484   2.655   1.536   2.832 -0.1762 -1.6640  0.5901
  495SOL    HW2 1485   2.782   1.456   2.905  0.8263  0.7342  0.0110
  496SOL     OW 1486   2.691   3.044   1.653 -0.0581  0.4056 -0.5854
  496SOL    HW1 1487   2.588   3.041   1.633 -1.4408 -3.3896 -0.4590
  496SOL    HW2 1488   2.719   3.002   1.745  0.4978  0.5627  0.6898
  497SOL     OW 1489   2.496   1.097   0.549  0.4279 -0.1643  0.1697
  497SOL    HW1 1490   2.403   1.079   0.583  1.6056 -0.4273  0.5166
  497SOL    HW2 1491   2.527   1.193   0.580  0.0086  1.7381  1.5704
  498SOL     OW 1492   0.054   2.224   2.404 -0.0262 -0.0501 -0.3812
  498SOL    HW1 1493   0.096   2.288   2.334 -0.4080  0.4269 -0.7883
  498SOL    HW2 1494   3.021   2.237   2.405 -0.4356  0.4214  0.5328
  499SOL     OW 1495   0.889   1.823   0.414  0.1448 -0.5107  0.0909
  499SOL    HW1 1496   0.946   1.858   0.491  2.2749  1.3197  1.4035
  499SOL    HW2 1497   0.879   1.905   0.348  1.4302  1.0962 -1.7212
  500SOL     OW 1498   1.050   2.988   2.663 -0.2361  0.3179  0.5135
  500SOL    HW1 1499   1.010   3.034   2.744  0.1605  0.3665 -1.0055
  500SOL    HW2 1500   1.011   2.894   2.652 -1.1047 -0.6348  2.1564
  501SOL     OW 1501   1.269   0.130   1.246  0.0085  0.1547 -0.0580
  501SOL    HW1 1502   1.365   0.109   1.264 -3.2448 -0.1648 -2.7734
  501SOL    HW2 1503   1.250   0.197   1.172  0.0446  0.1314 -0.0315
  502SOL     OW 1504   3.010   0.325   2.264  0.3542 -0.3088 -0.5255
  502SOL    HW1 1505   3.062   0.326   2.352  0.6727  0.3277 -1.4739
  502SOL    HW2 1506   3.055   0.278   2.190  0.4163 -1.7557  1.9977
  503SOL     OW 1507   2.133   2.089   2.465  0.1589  0.0775  0.0385
  503SOL    HW1 1508   2.138   2.192   2.480 -0.9105  3.0672  1.0227
  503SOL    HW2 1509   2.084   2.052   2.544 -2.1980  1.5747 -0.8427
  504SOL     OW 1510   1.332   0.484   1.840 -0.8487  0.0923 -0.6158
  504SOL    HW1 1511   1.356   0.450   1.936 -2.0425 -2.2874 -0.4660
  504SOL    HW2 1512   1.410   0.455   1.782 -1.8530  2.8611  0.4768
  505SOL     OW 1513   2.941   0.769   1.448 -0.0578  0.4085 -0.0143
  505SOL    HW1 1514   2.937   0.868   1.437  1.5162 -2.0328 -1.0290
  505SOL    HW2 1515   3.019   0.731   1.398 -0.2936  0.1831  0.9663
  506SOL     OW 1516   0.327   1.154   2.095 -0.2979  0.2399 -0.1574
  506SOL    HW1 1517   0.290   1.247   2.093 -1.6618  0.6404 -0.8868
  506SOL    HW2 1518   0.368   1.128   2.185  0.4708 -2.2394  1.9473
  507SOL     OW 1519   0.407   2.853   2.557 -0.2153  0.1867 -0.1155
  507SOL    HW1 1520   0.476   2.781   2.535  0.8920 -0.3333  0.3356
  507SOL    HW2 1521   0.397   2.866   2.657  1.2640 -1.6198 -0.2812
  508SOL     OW 1522   1.434   0.733   1.312 -0.3419 -0.1360 -0.4406
  508SOL    HW1 1523   1.429   0.638   1.349 -0.9142  0.1607  2.4868
  508SOL    HW2 1524   1.452   0.718   1.211 -2.4443 -0.2179  0.1984
  509SOL     OW 1525   0.963   1.747   1.625  0.5932 -0.3029  0.2296
  509SOL    HW1 1526   0.975   1.828   1.686 -0.7287 -0.8692  0.4014
  509SOL    HW2 1527   1.031   1.748   1.546 -0.0147 -2.2763 -1.9195
  510SOL     OW 1528   2.232   0.704   2.219  0.1454 -0.4323  0.0740
  510SOL    HW1 1529   2.213   0.716   2.320  1.3262  1.5814  1.2355
  510SOL    HW2 1530   2.319   0.750   2.191  0.2171 -0.2552 -1.1069
  511SOL     OW 1531   0.747   1.642   0.940 -0.0854  0.0400 -1.1840
  511SOL    HW1 1532   0.697   1.633   0.853 -0.3493  0.2165  0.8751
  511SOL    HW2 1533   0.739   1.735   0.982 -1.2482  2.9695 -0.9358
  512SOL     OW 1534   2.557   2.089   0.658 -0.2354  0.1131  0.4553
  512SOL    HW1 1535   2.473   2.061   0.610  0.5726  0.9051  0.6003
  512SOL    HW2 1536   2.544   2.170   0.715 -0.8600 -2.3727 -1.3410
  513SOL     OW 1537   2.588   1.575   2.658  0.1960  0.5706  0.2162
  513SOL    HW1 1538   2.529   1.515   2.594  0.0305 -3.3770  1.7046
  513SOL    HW2 1539   2.659   1.636   2.611  0.2997  1.6233  0.1773
  514SOL     OW 1540   0.361   2.311   2.756  0.5383  0.1752  0.0735
  514SOL    HW1 1541   0.301   2.277   2.827 -0.3816  2.5691 -1.4094
  514SOL    HW2 1542   0.455   2.334   2.790  1.8056  0.5384 -0.5743
  515SOL     OW 1543   1.856   1.571   2.021 -0.1155 -0.4797 -0.1401
  515SOL    HW1 1544   1.856   1.540   1.926 -0.5945 -0.7403  5.1265
  515SOL    HW2 1545   1.841   1.669   2.030  0.1225 -1.0772  0.9229
  516SOL     OW 1546   2.221   2.227   2.855  0.1295  0.0577  0.3890
  516SOL    HW1 1547   2.159   2.265   2.925  0.4223  0.7294 -1.7418
  516SOL    HW2 1548   2.284   2.303   2.827 -1.8104 -0.0346 -2.3014
  517SOL     OW 1549   1.499   1.173   0.049  0.1170 -0.0989 -0.0256
  517SOL    HW1 1550   1.479   1.127   3.029  1.0816 -0.1937 -1.4141
  517SOL    HW2 1551   1.431   1.138   0.114  0.8538 -0.9197  0.8116
  518SOL     OW 1552   2.735   3.005   2.257  0.1207 -0.0007  0.4201
  518SOL    HW1 1553   2.722   3.055   2.169  0.2343  0.2496  0.4031
  518SOL    HW2 1554   2.658   2.938   2.254  0.2022  3.2794 -1.5801
  519SOL     OW 1555   1.745   2.067   1.960 -0.1024 -0.1372  0.3018
  519SOL    HW1 1556   1.699   2.152   2.002 -0.6622 -0.3207  0.8928
  519SOL    HW2 1557   1.832   2.041   2.003  2.7757  0.1557 -1.0155
  520SOL     OW 1558   2.722   3.003   2.674 -0.7627 -0.2118 -0.2977
  520SOL    HW1 1559   2.784   3.059   2.735 -1.5370  0.4169  2.0297
  520SOL    HW2 1560   2.781   2.969   2.594  1.5799 -0.8271 -2.9592
  521SOL     OW 1561   0.314   1.437   2.132  0.3918 -0.0598  0.1327
  521SOL    HW1 1562   0.265   1.527   2.151 -0.9464 -0.1625 -0.2103
  521SOL    HW2 1563   0.413   1.451   2.114  0.7544 -0.5180  0.9794
  522SOL     OW 1564   0.926   0.200   1.665  0.3979  0.0044 -0.0693
  522SOL    HW1 1565   1.027   0.216   1.679  0.6900  0.0084  0.6920
  522SOL    HW2 1566   0.893   0.272   1.596 -1.0807  2.0161 -1.3681
  523SOL     OW 1567   0.207   2.590   0.884  0.2979 -0.2998  0.1551
  523SOL    HW1 1568   0.284   2.640   0.838  3.6334 -1.9720  1.5458
  523SOL    HW2 1569   0.168   2.521   0.821 -0.1555 -0.6195  0.1558
  524SOL     OW 1570   1.584   2.465   0.509 -0.9491  0.1431  0.2220
  524SOL    HW1 1571   1.633   2.393   0.567  0.9619  0.1615  1.6741
  524SOL    HW2 1572   1.503   2.502   0.553  1.3464  1.7296  1.2291
  525SOL     OW 1573   2.387   0.707   1.200 -0.4540 -0.2090 -0.4469
  525SOL    HW1 1574   2.410   0.775   1.279  1.5904 -1.3220  1.1618
  525SOL    HW2 1575   2.340   0.760   1.119 -0.9397  4.0250 -2.5759
  526SOL     OW 1576   1.016   2.586   0.800 -0.5154  0.4825  0.2830
  526SOL    HW1 1577   1.037   2.514   0.725  1.4865 -2.6117 -1.9093
  526SOL    HW2 1578   0.971   2.671   0.763  1.6318 -0.0713  2.5019
  527SOL     OW 1579   2.322   2.000   0.516  0.0299 -0.0414  0.4569
  527SOL    HW1 1580   2.326   1.952   0.424 -1.8604  0.6002  0.3056
  527SOL    HW2 1581   2.260   2.078   0.510 -0.1788 -0.5478  1.1437
  528SOL     OW 1582   2.258   0.411   0.522  0.1779 -0.1185 -0.1798
  528SOL    HW1 1583   2.166   0.386   0.559  0.8407 -0.2878  1.5382
  528SOL    HW2 1584   2.269   0.375   0.427 -0.5766  1.4010 -1.1210
  529SOL     OW 1585   1.156   1.286   2.324 -0.0189  0.2803 -0.3856
  529SOL    HW1 1586   1.107   1.370   2.358 -1.1881 -2.4136  2.9024
  529SOL    HW2 1587   1.209   1.243   2.404  0.5827  0.9042  1.1102
  530SOL     OW 1588   2.568   0.794   3.061  0.7885  0.0822 -0.3852
  530SOL    HW1 1589   2.571   0.691   3.063  1.7285 -2.4892 -1.0331
  530SOL    HW2 1590   2.477   0.823   3.027 -0.3018 -1.1371 -2.3897
  531SOL     OW 1591   1.279   1.082   0.184 -0.1771  0.4866  0.3273
  531SOL    HW1 1592   1.267   0.983   0.212  0.6091  1.3688 -0.4457
  531SOL    HW2 1593   1.295   1.142   0.265  0.3249  0.3045 -0.8611
  532SOL     OW 1594   2.054   2.939   0.832  0.4656  0.2287  0.0639
  532SOL    HW1 1595   1.982   2.996   0.877 -1.2082 -0.3205 -1.4564
  532SOL    HW2 1596   2.146   2.978   0.842 -4.5924 -1.5440 -0.1510
  533SOL     OW 1597   1.171   0.823   1.958  0.1478  0.5596  0.0546
  533SOL    HW1 1598   1.205   0.917   1.948  0.1293 -2.1259  1.6649
  533SOL    HW2 1599   1.211   0.766   1.885 -0.0130  1.4823  2.7176
  534SOL     OW 1600   1.879   2.965   2.861 -0.0856 -1.1232 -0.7988
  534SOL    HW1 1601   1.926   2.899   2.805  0.7130  3.1247  4.2035
  534SOL    HW2 1602   1.916   2.965   2.955 -1.6625  0.9219  0.4903
  535SOL     OW 1603   0.515   2.902   0.469 -0.3596 -0.1743  0.0572
  535SOL    HW1 1604   0.481   2.983   0.519  3.1415 -2.3830 -5.1806
  535SOL    HW2 1605   0.449   2.859   0.410  0.8937  2.6983  0.9170
  536SOL     OW 1606   0.649   2.639   1.047 -0.0939 -0.0562  0.6143
  536SOL    HW1 1607   0.587   2.717   1.078  2.0215  3.9303 -0.0880
  536SOL    HW2 1608   0.690   2.596   1.128 -1.5119 -0.4806 -2.0794
  537SOL     OW 1609   1.748   0.400   1.325  0.2609  0.0965  0.4347
  537SOL    HW1 1610   1.838   0.411   1.277  3.2496  1.3942  2.2382
  537SOL    HW2 1611   1.739   0.305   1.363  0.3625 -0.9274  0.3945
  538SOL     OW 1612   2.895   2.641   0.313 -0.3566  0.0309  0.5413
  538SOL    HW1 1613   2.940   2.550   0.300  1.8721  1.3095 -1.6385
  538SOL    HW2 1614   2.823   2.642   0.384  2.9028  0.0719 -0.6388
  539SOL     OW 1615   2.711   2.010   2.335 -0.0762  0.0392  0.1131
  539SOL    HW1 1616   2.622   1.976   2.294  0.4435  2.2871 -0.5391
  539SOL    HW2 1617   2.789   2.003   2.266  1.9233  1.1499 -0.8849
  540SOL     OW 1618   3.017   2.520   1.662 -0.5424  0.1374  0.3759
  540SOL    HW1 1619   3.019   2.473   1.570  3.9144 -1.1465 -2.5183
  540SOL    HW2 1620   2.994   2.456   1.739  3.4870  1.2728  0.0857
  541SOL     OW 1621   2.706   2.873   1.864  0.2545 -0.0181  0.3402
  541SOL    HW1 1622   2.609   2.846   1.845  0.4349  0.6670 -0.8034
  541SOL    HW2 1623   2.756   2.804   1.919  0.6184  1.4714  0.0693
  542SOL     OW 1624   2.989   0.564   2.098  0.1714  0.0324 -0.1824
  542SOL    HW1 1625   2.944   0.483   2.145  0.5617  0.5405 -1.3717
  542SOL    HW2 1626   2.970   0.646   2.154 -0.2649 -1.3457 -2.0143
  543SOL     OW 1627   0.877   0.729   0.787  0.4121  0.0818 -0.2587
  543SOL    HW1 1628   0.912   0.763   0.696  0.7061  2.7949 -2.6244
  543SOL    HW2 1629   0.826   0.807   0.839 -1.4097 -0.1326  1.1763
  544SOL     OW 1630   2.698   2.221   0.874 -0.3268  0.5212 -0.1166
  544SOL    HW1 1631   2.738   2.133   0.844 -0.8092  1.1973 -1.3618
  544SOL    HW2 1632   2.732   2.254   0.967 -0.9031  2.2739  2.8966
  545SOL     OW 1633   1.110   1.742   0.249  0.3093 -0.4644 -0.1142
  545SOL    HW1 1634   1.045   1.770   0.321  2.6240  0.1025 -1.9402
  545SOL    HW2 1635   1.083   1.652   0.204  1.1619 -0.4920  0.8698
  546SOL     OW 1636   2.395   0.496   1.834 -1.3441 -0.4540  0.2619
  546SOL    HW1 1637   2.365   0.467   1.924  2.3972  0.2053 -1.7658
  546SOL    HW2 1638   2.484   0.452   1.812  1.7850  0.1086 -0.1020
  547SOL     OW 1639   0.291   0.187   2.316  0.2009  0.2604  0.2739
  547SOL    HW1 1640   0.205   0.220   2.357  0.3301 -3.6314 -0.9869
  547SOL    HW2 1641   0.348   0.268   2.302 -1.4418  0.2159 -0.5746
  548SOL     OW 1642   2.139   1.940   2.250 -0.2072 -0.0580  0.2663
  548SOL    HW1 1643   2.136   2.009   2.327 -2.6522 -3.2595 -1.4140
  548SOL    HW2 1644   2.130   1.846   2.287  1.0971 -2.0938 -1.5418
  549SOL     OW 1645   2.572   0.614   0.932  0.5594  0.3952  0.4394
  549SOL    HW1 1646   2.582   0.672   0.847  3.1861  5.0481 -3.4654
  549SOL    HW2 1647   2.585   0.670   1.016  1.5836 -0.4721 -1.4046
  550SOL     OW 1648   1.479   1.578   0.499  0.3864  0.0456  0.5932
  550SOL    HW1 1649   1.518   1.566   0.405 -0.4160 -1.4632  2.0224
  550SOL    HW2 1650   1.546   1.638   0.550 -1.5700  0.0333  1.3848
  551SOL     OW 1651   1.124   0.435   1.038  0.1779  0.5627  0.2981
  551SOL    HW1 1652   1.049   0.467   1.099 -1.0412  2.8190 -1.7303
  551SOL    HW2 1653   1.099   0.351   0.982 -0.8730  0.0689 -0.3507
  552SOL     OW 1654   2.128   2.411   2.120 -0.5691  0.1989 -0.0813
  552SOL    HW1 1655   2.151   2.508   2.106  2.8855 -0.4891 -1.1898
  552SOL    HW2 1656   2.198   2.373   2.186  0.5611 -0.7274  1.1503
  553SOL     OW 1657   3.050   3.058   0.153  0.0510 -0.1831 -0.8179
  553SOL    HW1 1658   2.988   0.031   0.220  1.8126 -3.6959  0.1817
  553SOL    HW2 1659   3.016   2.971   0.129  1.0493  4.3379 -1.2261
  554SOL     OW 1660   1.407   2.697   1.830  0.0150 -0.1866  0.0712
  554SOL    HW1 1661   1.433   2.688   1.734 -0.3478  0.3588  0.6642
  554SOL    HW2 1662   1.451   2.785   1.861  0.6118  0.5807 -1.7848
  555SOL     OW 1663   2.411   2.825   1.879  0.3466 -0.0973  0.1189
  555SOL    HW1 1664   2.350   2.903   1.849 -0.9629  0.9580 -1.6699
  555SOL    HW2 1665   2.402   2.811   1.980  0.8343 -2.1765 -0.1301
  556SOL     OW 1666   0.893   2.744   0.174  0.2585  0.6946  0.0123
  556SOL    HW1 1667   0.866   2.788   0.261  0.0913  0.3221 -1.9730
  556SOL    HW2 1668   0.845   2.653   0.159  1.6046  0.1005 -0.0428
  557SOL     OW 1669   0.409   1.938   2.419 -0.6393 -0.0553  0.0433
  557SOL    HW1 1670   0.361   1.950   2.327 -0.0555  2.1645  1.2106
  557SOL    HW2 1671   0.507   1.964   2.420  0.0345 -0.2762 -0.6251
  558SOL     OW 1672   2.616   1.243   2.654  0.1381  0.2025 -0.3587
  558SOL    HW1 1673   2.565   1.233   2.742 -1.8722  0.7553  1.3289
  558SOL    HW2 1674   2.555   1.287   2.586  0.2780 -1.6752 -2.0777
  559SOL     OW 1675   2.351   2.340   2.272 -0.2679 -0.1533  0.0344
  559SOL    HW1 1676   2.439   2.392   2.268 -0.8734  1.1271  0.9031
  559SOL    HW2 1677   2.353   2.246   2.229  0.6387 -1.1172  1.1775
  560SOL     OW 1678   0.385   0.416   2.185  0.2561  0.2270 -0.0587
  560SOL    HW1 1679   0.307   0.480   2.188  3.2428  0.0997  0.7172
  560SOL    HW2 1680   0.469   0.469   2.184  1.4116 -0.1182  0.0814
  561SOL     OW 1681   0.828   0.541   0.244 -0.4229  0.6458  0.6249
  561SOL    HW1 1682   0.756   0.507   0.311 -0.9024 -0.9465 -0.7760
  561SOL    HW2 1683   0.819   0.488   0.155 -1.6011 -2.2733 -0.3804
  562SOL     OW 1684   0.769   1.384   1.584  0.0295 -0.5728 -0.1224
  562SOL    HW1 1685   0.703   1.324   1.538 -2.0117  0.8741  3.3151
  562SOL    HW2 1686   0.793   1.464   1.519 -1.0163  0.9971 -0.9842
  563SOL     OW 1687   1.617   2.911   3.044  0.1992  0.0730 -0.1859
  563SOL    HW1 1688   1.686   2.845   3.005  0.2138 -0.6017 -0.2409
  563SOL    HW2 1689   1.652   2.961   0.055  0.6780  0.2137 -0.5983
  564SOL     OW 1690   0.280   1.943   0.532 -0.0546  0.0211 -0.3112
  564SOL    HW1 1691   0.326   1.853   0.543  1.2468 -1.4664 -2.6751
  564SOL    HW2 1692   0.234   1.961   0.621 -1.5839 -3.0786  1.9628
  565SOL     OW 1693   0.401   2.539   2.426  0.5430  0.5130 -0.3383
  565SOL    HW1 1694   0.374   2.537   2.330  1.1559  1.1553  2.6641
  565SOL    HW2 1695   0.323   2.505   2.479 -1.1983  1.5949 -0.4081
  566SOL     OW 1696   1.264   2.639   2.322 -0.2431 -0.3272 -0.2806
  566SOL    HW1 1697   1.317   2.639   2.413  1.6027 -1.0068  1.8656
  566SOL    HW2 1698   1.252   2.544   2.289  0.4177  1.2843 -1.4515
  567SOL     OW 1699   1.777   2.087   1.227  0.5055 -0.3801 -0.3132
  567SOL    HW1 1700   1.678   2.092   1.205  2.4316  0.2502  0.2653
  567SOL    HW2 1701   1.816   2.001   1.198  3.4332  3.4927 -0.7105
  568SOL     OW 1702   2.319   0.801   3.000  0.1286 -0.0210  0.2588
  568SOL    HW1 1703   2.255   0.872   3.031 -0.7356 -0.7345 -0.9898
  568SOL    HW2 1704   2.280   0.709   2.986  3.1981 -0.2903 -0.9670
  569SOL     OW 1705   2.755   1.476   2.375 -1.1454  0.2607  0.4608
  569SOL    HW1 1706   2.805   1.561   2.343  1.4228  4.3585  1.4075
  569SOL    HW2 1707   2.786   1.450   2.467  1.2603  1.6385 -1.3467
  570SOL     OW 1708   2.659   2.570   1.819 -0.3006  0.5359 -0.0591
  570SOL    HW1 1709   2.581   2.585   1.758  3.4097 -0.3395 -0.8598
  570SOL    HW2 1710   2.680   2.471   1.832  1.8151  2.4813 -0.4095
  571SOL     OW 1711   0.291   0.386   1.752  0.5563  0.0871  0.0230
  571SOL    HW1 1712   0.261   0.313   1.680 -2.0069 -1.0661 -2.6849
  571SOL    HW2 1713   0.301   0.479   1.708  0.1953  2.8325 -0.2676
  572SOL     OW 1714   0.115   2.008   0.743  0.2900 -0.9269 -0.0051
  572SOL    HW1 1715   0.056   2.096   0.752 -3.2265  1.3620  1.8858
  572SOL    HW2 1716   0.157   1.987   0.835 -0.7798 -1.0948 -0.2933
  573SOL     OW 1717   0.963   0.885   0.121  0.4383 -0.2864  0.0434
  573SOL    HW1 1718   0.952   0.982   0.094 -1.6604  1.7775 -1.2633
  573SOL    HW2 1719   0.867   0.849   0.130  1.3923  1.2444 -0.3776
  574SOL     OW 1720   2.858   2.853   0.165 -0.4959 -0.9044 -0.0328
  574SOL    HW1 1721   2.861   2.829   0.067 -0.6769  0.9206 -0.4933
  574SOL    HW2 1722   2.910   2.786   0.214 -0.3251 -0.7200 -0.6616
  575SOL     OW 1723   1.082   1.782   1.394 -0.6297  0.4523  0.3463
  575SOL    HW1 1724   1.100   1.741   1.298 -0.3399  1.3868 -0.5194
  575SOL    HW2 1725   1.105   1.882   1.394 -1.8124  4.0506  0.8150
  576SOL     OW 1726   2.947   2.745   1.410  0.5220  0.4317  0.2489
  576SOL    HW1 1727   2.876   2.820   1.405  0.3221 -0.2943 -1.9218
  576SOL    HW2 1728   2.946   2.688   1.493  1.5193  2.9910  0.1159
  577SOL     OW 1729   2.200   1.501   1.731  0.7137 -0.2050 -0.5243
  577SOL    HW1 1730   2.160   1.428   1.671  0.7857  0.8786  0.8029
  577SOL    HW2 1731   2.164   1.593   1.697 -0.6993  0.5962 -1.0152
  578SOL     OW 1732   1.213   3.061   2.985 -0.0801 -0.2044  0.5825
  578SOL    HW1 1733   1.124   0.019   2.947  3.4155  2.4590  0.2067
  578SOL    HW2 1734   1.284   3.054   2.914 -1.6410 -1.1029  0.0099
  579SOL     OW 1735   2.489   1.859   2.290  0.2725 -0.1378  0.0978
  579SOL    HW1 1736   2.431   1.930   2.243  0.3606 -1.8923 -2.8236
  579SOL    HW2 1737   2.512   1.775   2.234  0.3817  3.6381  0.5254
  580SOL     OW 1738   1.845   0.616   1.484  0.2964  0.1372 -0.0928
  580SOL    HW1 1739   1.765   0.575   1.434 -2.0738  0.7628  1.5851
  580SOL    HW2 1740   1.884   0.692   1.430 -0.0058 -0.5095  0.5676
  581SOL     OW 1741   0.856   1.589   1.428  0.0613 -0.4423  0.0497
  581SOL    HW1 1742   0.883   1.587   1.329 -0.9012 -1.0087 -2.5847
  581SOL    HW2 1743   0.891   1.673   1.473 -1.0429 -0.5580  0.6166
  582SOL     OW 1744   0.003   2.825   2.003  0.2762  0.3014 -0.6201
  582SOL    HW1 1745   0.024   2.876   1.917  0.5723 -1.7632 -1.5284
  582SOL    HW2 1746   0.010   2.883   2.089  0.4868 -1.5415 -0.6781
  583SOL     OW 1747   2.080   1.346   1.542 -0.0019 -0.1620  0.5776
  583SOL    HW1 1748   1.981   1.376   1.526 -0.3734  0.5942 -3.4510
  583SOL    HW2 1749   2.130   1.328   1.456 -1.0396 -2.9897  1.6618
  584SOL     OW 1750   1.274   1.988   2.692 -0.4142 -0.5567  0.2620
  584SOL    HW1 1751   1.372   1.962   2.712 -1.9649 -0.4580  2.0576
  584SOL    HW2 1752   1.226   1.904   2.645 -0.7801 -3.5502 -2.6693
  585SOL     OW 1753   0.405   2.535   0.514 -0.4920  0.1704 -0.2837
  585SOL    HW1 1754   0.497   2.579   0.499  0.0563  0.2703 -1.5492
  585SOL    HW2 1755   0.388   2.462   0.446 -3.0595  0.8857  2.3557
  586SOL     OW 1756   1.836   2.480   2.776  0.3892  0.5276  0.3162
  586SOL    HW1 1757   1.918   2.492   2.837 -1.9221  0.1213  1.3309
  586SOL    HW2 1758   1.818   2.383   2.750 -0.2081 -2.7232  0.8447
  587SOL     OW 1759   2.645   1.689   0.395 -0.6240  0.0578 -0.0925
  587SOL    HW1 1760   2.654   1.789   0.402  1.6109  0.1321 -0.2882
  587SOL    HW2 1761   2.738   1.650   0.404  0.4551 -0.1345  1.9998
  588SOL     OW 1762   2.204   0.012   1.162 -0.3787 -0.3899  0.5296
  588SOL    HW1 1763   2.235   0.007   1.063 -0.9477 -1.9271  0.7746
  588SOL    HW2 1764   2.179   0.108   1.179  0.7307 -1.3142 -0.3450
  589SOL     OW 1765   0.970   0.780   0.537 -0.1058 -0.3614 -0.0631
  589SOL    HW1 1766   0.901   0.835   0.485 -0.7349  0.3454 -1.6223
  589SOL    HW2 1767   1.001   0.694   0.487  2.6301  0.7321 -2.2780
  590SOL     OW 1768   2.559   2.059   0.153 -0.0675  0.3604  0.2952
  590SOL    HW1 1769   2.611   2.142   0.192  0.3631 -2.1300 -1.7167
  590SOL    HW2 1770   2.551   2.077   0.057  0.3908  0.8777 -0.3038
  591SOL     OW 1771   2.987   2.409   1.422  0.0939  0.0574 -0.1003
  591SOL    HW1 1772   3.000   2.464   1.334  0.5469 -0.5263 -1.0808
  591SOL    HW2 1773   3.007   2.311   1.409  0.3722 -1.0585  0.5981
  592SOL     OW 1774   0.826   1.059   1.317  0.1064 -0.3980 -0.1089
  592SOL    HW1 1775   0.747   1.111   1.354 -0.2014  2.3123 -0.0431
  592SOL    HW2 1776   0.856   0.978   1.372 -0.3915 -1.0137 -3.8133
  593SOL     OW 1777   0.894   1.560   1.170  0.1242  0.3649 -0.1198
  593SOL    HW1 1778   0.971   1.624   1.144 -0.2378 -0.5895 -2.5329
  593SOL    HW2 1779   0.827   1.558   1.093  0.2926  3.2060 -0.7484
  594SOL     OW 1780   0.416   1.901   2.836  0.4390 -0.4258  0.3596
  594SOL    HW1 1781   0.381   1.977   2.898  2.0068  0.8305  1.0608
  594SOL    HW2 1782   0.342   1.836   2.813  0.4152  0.8885 -0.9200
  595SOL     OW 1783   1.365   0.419   1.125  0.0950 -0.2685  0.6815
  595SOL    HW1 1784   1.424   0.409   1.042  0.8204  0.3009 -0.5643
  595SOL    HW2 1785   1.268   0.435   1.099  0.9407  0.1448 -0.3008
  596SOL     OW 1786   0.208   1.170   0.399 -0.3519 -0.5456 -0.1750
  596SOL    HW1 1787   0.111   1.193   0.381  2.7429 -1.3430  0.1921
  596SOL    HW2 1788   0.241   1.104   0.328  2.8327  2.0693  1.3405
  597SOL     OW 1789   0.034   2.328   2.987 -0.3077  1.3780  0.3746
  597SOL    HW1 1790   0.036   2.279   2.897  2.6243 -0.8733  3.8484
  597SOL    HW2 1791   0.027   2.260   3.068  0.3337  0.1134  1.7754
  598SOL     OW 1792   2.033   1.715   2.366  0.4883  0.2691 -0.2458
  598SOL    HW1 1793   2.026   1.612   2.386  1.8332 -1.4637  1.2008
  598SOL    HW2 1794   1.952   1.755   2.315 -2.2358  1.2743 -0.1658
  599SOL     OW 1795   1.025   0.554   0.426  0.4321 -0.2488  0.1567
  599SOL    HW1 1796   0.959   0.562   0.348  0.2841 -1.7325  2.5531
  599SOL    HW2 1797   1.122   0.556   0.386  1.0217 -0.3455 -0.2029
  600SOL     OW 1798   0.762   2.779   0.429  0.3263 -0.1342  0.2370
  600SOL    HW1 1799   0.681   2.843   0.436 -0.9846 -0.1845 -0.0555
  600SOL    HW2 1800   0.734   2.681   0.432 -0.4944  1.8083  2.6033
  601SOL     OW 1801   0.496   0.865   1.255 -0.2328  0.0825  0.4592
  601SOL    HW1 1802   0.566   0.912   1.201  1.2333 -0.0021  3.1648
  601SOL    HW2 1803   0.540   0.803   1.320 -1.4875  0.3700  0.9490
  602SOL     OW 1804   0.073   2.792   0.986 -0.1667 -0.2719  0.8608
  602SOL    HW1 1805   0.071   2.792   1.089 -1.8289 -1.6586 -1.9544
  602SOL    HW2 1806   0.112   2.704   0.949  2.1259  0.3928 -1.8181
  603SOL     OW 1807   1.008   2.732   2.312 -0.1264 -0.3312  0.5698
  603SOL    HW1 1808   0.969   2.783   2.233  0.5902 -2.8664  0.9974
  603SOL    HW2 1809   1.105   2.704   2.293  1.0975 -0.9471 -1.5797
  604SOL     OW 1810   0.790   2.884   2.640 -0.0137 -0.2193  0.2847
  604SOL    HW1 1811   0.740   2.802   2.606 -1.0503 -2.1578  0.5146
  604SOL    HW2 1812   0.720   2.956   2.654 -0.8946 -1.9898  1.6738
  605SOL     OW 1813   1.438   0.785   1.868 -0.1604 -0.2034  0.6326
  605SOL    HW1 1814   1.435   0.688   1.847  2.1554  2.8396  0.6139
  605SOL    HW2 1815   1.516   0.807   1.924 -0.0374 -2.2429 -1.3107
  606SOL     OW 1816   2.223   0.244   2.687 -0.3297  0.1692 -0.3597
  606SOL    HW1 1817   2.235   0.344   2.705 -1.4230  2.8009 -1.5035
  606SOL    HW2 1818   2.193   0.228   2.588 -2.2014 -1.7545 -3.0712
  607SOL     OW 1819   0.642   0.657   1.032 -0.3101  0.0996  0.4626
  607SOL    HW1 1820   0.669   0.728   0.962  0.0251 -0.2224  0.6024
  607SOL    HW2 1821   0.550   0.617   1.019  0.2018  1.0885  0.5071
  608SOL     OW 1822   0.112   2.398   2.204  0.1034  0.5989  0.2958
  608SOL    HW1 1823   0.170   2.463   2.155 -5.3025 -1.4352 -1.6857
  608SOL    HW2 1824   0.016   2.427   2.211 -0.2858 -0.1673 -0.6331
  609SOL     OW 1825   1.585   0.603   3.018 -0.0823  0.2284 -0.0528
  609SOL    HW1 1826   1.661   0.540   3.028 -0.8860  1.0133  2.5874
  609SOL    HW2 1827   1.547   0.653   0.029 -1.3800 -0.8691  0.9592
  610SOL     OW 1828   0.571   2.887   1.193 -0.1056  0.2010 -0.0389
  610SOL    HW1 1829   0.484   2.940   1.182 -0.3353 -1.5887  1.9297
  610SOL    HW2 1830   0.649   2.924   1.145  0.1033 -0.8675  1.3906
  611SOL     OW 1831   1.563   0.832   0.391 -0.0834 -0.1830 -0.2799
  611SOL    HW1 1832   1.606   0.919   0.355  0.9806 -0.5762 -1.7865
  611SOL    HW2 1833   1.636   0.772   0.432  0.9347  0.9242  1.3981
  612SOL     OW 1834   1.709   0.666   2.775  0.1870  0.2249  0.8793
  612SOL    HW1 1835   1.645   0.678   2.698 -0.7804 -0.7487 -0.6665
  612SOL    HW2 1836   1.659   0.628   2.856 -0.6329 -1.5263  0.6209
  613SOL     OW 1837   2.295   0.823   0.977  0.3141  0.4617 -0.3476
  613SOL    HW1 1838   2.195   0.840   0.999 -0.3367  1.1630 -0.1991
  613SOL    HW2 1839   2.328   0.822   0.880 -0.5432  1.1415 -0.4214
  614SOL     OW 1840   2.519   0.346   2.210 -0.3146 -0.0119  0.3332
  614SOL    HW1 1841   2.548   0.446   2.218  0.8536  0.7872  2.1114
  614SOL    HW2 1842   2.587   0.294   2.161 -1.5387 -0.8916  0.1228
  615SOL     OW 1843   0.901   2.083   1.088  0.3363  0.3012  0.2004
  615SOL    HW1 1844   0.820   2.061   1.029  2.4475 -1.4954 -0.3166
  615SOL    HW2 1845   0.868   2.141   1.165 -1.7031  0.4733  2.8991
  616SOL     OW 1846   1.718   1.242   2.530 -0.3485 -0.2807  0.3152
  616SOL    HW1 1847   1.669   1.244   2.439  0.0227 -2.3964  0.1691
  616SOL    HW2 1848   1.745   1.340   2.552 -0.3640  1.7553  0.9181
  617SOL     OW 1849   1.385   0.124   0.094 -0.0556 -0.2538  0.1561
  617SOL    HW1 1850   1.304   0.087   0.045  0.7814 -0.9262  1.8455
  617SOL    HW2 1851   1.440   0.044   0.120  0.1937 -0.5134 -1.2832
  618SOL     OW 1852   1.718   1.616   2.347  0.2683  0.5818 -0.7007
  618SOL    HW1 1853   1.750   1.690   2.284 -1.1291  0.6402  0.7992
  618SOL    HW2 1854   1.673   1.544   2.293  1.2110  2.4344  3.0973
  619SOL     OW 1855   2.437   1.480   1.004  0.1889 -0.3172  0.1727
  619SOL    HW1 1856   2.445   1.545   0.923  1.3108  3.4724 -0.5804
  619SOL    HW2 1857   2.514   1.416   1.005 -0.8117 -1.0607 -2.4968
  620SOL     OW 1858   2.254   2.783   2.804  0.1023  0.1966  0.0406
  620SOL    HW1 1859   2.347   2.814   2.783 -1.2363 -0.7728  0.2062
  620SOL    HW2 1860   2.177   2.807   2.733 -3.5277  0.0927 -1.0214
  621SOL     OW 1861   2.601   1.332   0.642  0.1193  0.2094  0.1580
  621SOL    HW1 1862   2.548   1.409   0.599 -1.2037  1.4531 -1.1992
  621SOL    HW2 1863   2.662   1.375   0.711  0.7308  1.2604 -2.3190
  622SOL     OW 1864   1.017   2.417   2.485 -0.0012 -0.0175  0.4838
  622SOL    HW1 1865   1.106   2.408   2.433  0.5238  1.3714  1.7852
  622SOL    HW2 1866   0.953   2.476   2.437 -2.4561 -2.3797  0.0284
  623SOL     OW 1867   0.309   2.387   0.089 -0.2922 -0.2355 -0.1836
  623SOL    HW1 1868   0.389   2.326   0.064  1.6447  0.4853  0.9009
  623SOL    HW2 1869   0.226   2.355   0.044 -0.7490 -0.2436 -1.4419
  624SOL     OW 1870   0.387   2.794   2.839 -0.1491  0.4619 -0.2444
  624SOL    HW1 1871   0.298   2.761   2.870  0.8562 -0.6335 -1.7138
  624SOL    HW2 1872   0.433   2.851   2.905 -1.4461 -2.3127 -3.2667
  625SOL     OW 1873   0.858   2.257   2.864  0.4755  0.4682  0.3792
  625SOL    HW1 1874   0.841   2.254   2.763  0.0967  1.7009  1.4930
  625SOL    HW2 1875   0.927   2.187   2.883 -1.2497  0.9646 -1.0908
  626SOL     OW 1876   2.789   0.772   0.161  0.2463 -0.1847  0.0841
  626SOL    HW1 1877   2.722   0.799   0.091 -0.6322 -0.8107  2.5142
  626SOL    HW2 1878   2.814   0.679   0.135  0.4956  1.1364  2.4053
  627SOL     OW 1879   1.664   1.775   3.057  0.1536 -0.0965 -0.3122
  627SOL    HW1 1880   1.712   1.685   3.050 -0.9741 -2.1727  0.1373
  627SOL    HW2 1881   1.568   1.768   3.034  1.2854  1.4245  2.2375
  628SOL     OW 1882   1.274   1.195   2.735  0.3209  0.7025 -0.0839
  628SOL    HW1 1883   1.340   1.121   2.763 -0.4891 -1.1733  0.6263
  628SOL    HW2 1884   1.306   1.247   2.655 -3.6968 -1.3830 -1.3478
  629SOL     OW 1885   0.530   3.030   1.676  0.2775  0.1081  0.1238
  629SOL    HW1 1886   0.452   3.025   1.604 -1.9978 -0.8795 -0.7804
  629SOL    HW2 1887   0.569   0.055   1.680 -0.7496 -0.1205 -1.3334
  630SOL     OW 1888   2.224   1.104   1.903 -0.0084 -0.6878 -0.5493
  630SOL    HW1 1889   2.189   1.196   1.936  1.4071 -0.3904  1.0994
  630SOL    HW2 1890   2.171   1.028   1.948 -0.8366  1.2975 -0.8904
  631SOL     OW 1891   1.864   0.175   0.726 -0.4790 -0.0930 -0.5279
  631SOL    HW1 1892   1.835   0.209   0.817  0.3028 -3.0269 -1.4264
  631SOL    HW2 1893   1.785   0.161   0.659 -0.1750 -1.3859 -0.3300
  632SOL     OW 1894   2.979   0.669   1.696 -0.0970  0.4135  0.5022
  632SOL    HW1 1895   2.976   0.689   1.597 -0.1624  0.9362 -1.3513
  632SOL    HW2 1896   2.980   0.571   1.702 -1.4303 -2.0237 -0.3953
  633SOL     OW 1897   0.824   0.415   0.018  0.4272  0.6986 -0.0355
  633SOL    HW1 1898   0.787   0.433   2.995  1.5738  0.1198  0.7132
  633SOL    HW2 1899   0.832   0.313   0.024 -0.3280 -1.2966 -1.4168
  634SOL     OW 1900   0.618   2.622   2.860  0.4466  0.0906 -0.6311
  634SOL    HW1 1901   0.721   2.640   2.876  0.4994  0.4594 -1.7724
  634SOL    HW2 1902   0.570   2.710   2.843 -2.1463 -0.3207  0.9877
  635SOL     OW 1903   0.088   0.611   0.643 -0.0107  0.0024  0.6442
  635SOL    HW1 1904   0.094   0.537   0.569 -1.0651 -1.5485 -3.0130
  635SOL    HW2 1905   0.052   0.695   0.598 -0.9942 -0.7211 -1.8374
  636SOL     OW 1906   0.408   1.228   2.993 -0.3220 -0.4964 -0.3099
  636SOL    HW1 1907   0.491   1.213   3.048 -1.6734 -2.1026 -0.3797
  636SOL    HW2 1908   0.335   1.262   3.052 -0.2149 -0.4042 -0.9315
  637SOL     OW 1909   0.140   2.566   0.455  0.0111 -0.2399 -0.4403
  637SOL    HW1 1910   0.241   2.576   0.473  0.5053 -0.1379 -1.3474
  637SOL    HW2 1911   0.104   2.656   0.431 -1.6206 -1.7479  0.8214
  638SOL     OW 1912   2.905   2.226   0.451 -0.1129 -0.7147  0.3742
  638SOL    HW1 1913   2.949   2.139   0.474 -1.3777  1.0247 -0.5032
  638SOL    HW2 1914   2.863   2.277   0.533 -1.2470  0.3203  2.4040
  639SOL     OW 1915   1.663   0.923   0.034 -0.0888 -0.5322  0.0180
  639SOL    HW1 1916   1.596   0.850   0.061  0.5153  0.1345  0.8512
  639SOL    HW2 1917   1.648   1.006   0.094 -0.0408  0.9105 -2.3874
  640SOL     OW 1918   1.883   2.224   1.756  0.4675 -0.0897  0.3613
  640SOL    HW1 1919   1.868   2.198   1.656  1.2962  1.5940 -0.8373
  640SOL    HW2 1920   1.835   2.155   1.811 -1.9218  1.4059  0.4473
  641SOL     OW 1921   3.054   2.974   0.594 -0.2778 -0.3555 -0.1002
  641SOL    HW1 1922   3.060   3.068   0.553 -1.4074  2.5133  1.4539
  641SOL    HW2 1923   2.970   2.958   0.651  0.2512 -0.1920 -0.3524
  642SOL     OW 1924   1.069   0.538   1.779 -0.0641  0.6663  0.0383
  642SOL    HW1 1925   1.033   0.513   1.690  1.2299 -0.3905  0.1719
  642SOL    HW2 1926   1.169   0.505   1.792 -0.8235  0.1028  1.1616
  643SOL     OW 1927   0.813   2.257   2.602 -0.5827  0.2664 -0.1117
  643SOL    HW1 1928   0.725   2.285   2.567  2.0137 -1.6278  2.1121
  643SOL    HW2 1929   0.887   2.310   2.554 -1.8219 -1.2057  0.6285
  644SOL     OW 1930   1.209   2.457   0.343 -0.4842  0.3156  0.2727
  644SOL    HW1 1931   1.292   2.417   0.381 -0.3459 -0.2400  2.2072
  644SOL    HW2 1932   1.147   2.480   0.423 -1.6194  0.5412  4.3375
  645SOL     OW 1933   1.659   1.185   1.843  0.2007 -0.7225  0.3318
  645SOL    HW1 1934   1.755   1.201   1.820  0.5043 -1.0274  0.6424
  645SOL    HW2 1935   1.594   1.181   1.762 -2.8191 -0.3182  0.2878
  646SOL     OW 1936   0.333   0.596   0.060  0.1898 -0.2062 -0.3320
  646SOL    HW1 1937   0.322   0.563   0.155 -0.3525 -0.6952 -2.9109
  646SOL    HW2 1938   0.428   0.589   0.023 -0.5050 -1.9687 -0.6672
  647SOL     OW 1939   1.048   0.401   0.655  0.3665  0.1122  0.0742
  647SOL    HW1 1940   1.029   0.470   0.582 -1.3358  2.0280  1.8693
  647SOL    HW2 1941   1.102   0.320   0.624  0.2891  0.9772 -0.4477
  648SOL     OW 1942   2.170   2.618   1.141 -0.4220 -0.0881 -0.0085
  648SOL    HW1 1943   2.186   2.609   1.040  0.1170 -0.2806 -1.7768
  648SOL    HW2 1944   2.163   2.528   1.181 -4.8708  1.2803 -0.6506
  649SOL     OW 1945   0.549   1.855   0.167 -0.4490 -0.0681 -0.0809
  649SOL    HW1 1946   0.607   1.915   0.111  1.4689 -2.3436 -0.2506
  649SOL    HW2 1947   0.567   1.862   0.268 -1.1232  3.7608 -0.9381
  650SOL     OW 1948   2.129   1.958   1.773 -0.1649  0.3656  0.2042
  650SOL    HW1 1949   2.153   2.046   1.728 -1.7302  1.3556  0.4115
  650SOL    HW2 1950   2.041   1.922   1.739  2.1372 -0.4120  0.6772
  651SOL     OW 1951   0.174   0.067   2.659  0.2063 -0.1951 -0.1713
  651SOL    HW1 1952   0.177   0.026   2.562  0.2285 -1.2967 -1.9042
  651SOL    HW2 1953   0.086   0.118   2.667 -1.2651  5.0297  0.1270
  652SOL     OW 1954   2.934   1.702   0.552 -0.1394 -0.4405 -0.1246
  652SOL    HW1 1955   2.885   1.660   0.632  3.7244 -1.9652  1.9282
  652SOL    HW2 1956   3.029   1.678   0.573 -2.3834  2.8652  1.3836
  653SOL     OW 1957   2.925   0.440   1.342  0.0538  0.4939 -0.4613
  653SOL    HW1 1958   2.896   0.453   1.247  2.7015 -0.8354  1.4118
  653SOL    HW2 1959   3.009   0.495   1.361 -3.0974  0.2893 -0.6581
  654SOL     OW 1960   0.795   0.131   0.015  0.2191  0.2548  0.4934
  654SOL    HW1 1961   0.815   0.102   0.111  0.8391  1.2699 -0.2349
  654SOL    HW2 1962   0.693   0.123   0.004 -1.0600 -0.5393  1.4526
  655SOL     OW 1963   0.332   3.032   1.083  0.8352 -0.0502  0.0350
  655SOL    HW1 1964   0.322   0.049   1.143 -2.9480 -1.6136  2.3245
  655SOL    HW2 1965   0.244   3.008   1.031 -0.7491  0.8645 -0.8466
  656SOL     OW 1966   0.271   2.832   2.114  0.2961 -0.3683  0.3591
  656SOL    HW1 1967   0.318   2.922   2.111 -1.1130  2.2655 -2.2778
  656SOL    HW2 1968   0.180   2.850   2.159  0.4268 -1.5612 -2.3264
  657SOL     OW 1969   2.420   0.473   2.725 -0.7109  0.2170 -0.3142
  657SOL    HW1 1970   2.503   0.416   2.750  0.4849 -1.1202  0.3053
  657SOL    HW2 1971   2.428   0.529   2.643 -0.7454  0.1219  1.7509
  658SOL     OW 1972   1.923   1.862   1.131 -0.0109  0.7253  0.1127
  658SOL    HW1 1973   1.977   1.908   1.059  0.5816 -0.1063  0.6396
  658SOL    HW2 1974   1.985   1.806   1.184 -2.2534  0.3887 -1.0797
  659SOL     OW 1975   2.419   2.391   2.730 -0.0059 -0.5904 -0.4236
  659SOL    HW1 1976   2.443   2.395   2.832  0.2425 -0.9965  3.5500
  659SOL    HW2 1977   2.445   2.309   2.682 -0.8671  1.7128  0.4271
  660SOL     OW 1978   1.266   0.494   0.291 -0.1189 -0.7917 -0.9274
  660SOL    HW1 1979   1.364   0.485   0.321 -0.5762 -1.6595 -0.5788
  660SOL    HW2 1980   1.240   0.584   0.249  0.4242  2.5294  1.8958
  661SOL     OW 1981   2.356   2.933   0.556 -0.5726  0.5269 -0.1201
  661SOL    HW1 1982   2.335   2.921   0.458  2.5970 -0.1726 -0.9675
  661SOL    HW2 1983   2.295   3.007   0.595  1.2833 -0.0636 -2.0701
  662SOL     OW 1984   0.749   0.104   1.169 -0.0274  0.5654  0.0152
  662SOL    HW1 1985   0.731   0.137   1.072 -2.2674 -1.9886  1.7165
  662SOL    HW2 1986   0.837   0.056   1.179 -0.4503 -3.0456  1.2296
  663SOL     OW 1987   1.642   2.733   2.428  0.0044  0.5115  0.1300
  663SOL    HW1 1988   1.635   2.690   2.336  2.2492  0.1184 -1.1628
  663SOL    HW2 1989   1.556   2.717   2.485 -0.8498 -0.7817 -1.5901
  664SOL     OW 1990   0.599   1.978   1.506 -0.1403  0.1873 -0.2534
  664SOL    HW1 1991   0.541   2.046   1.462 -0.9420  0.6176  0.1555
  664SOL    HW2 1992   0.565   1.962   1.599 -0.2951 -0.4459  0.4904
  665SOL     OW 1993   0.766   2.271   1.703  0.3988 -0.4972 -0.2685
  665SOL    HW1 1994   0.731   2.211   1.779 -0.0250 -0.1085 -1.3565
  665SOL    HW2 1995   0.836   2.228   1.646 -0.2622  3.2486  1.4839
  666SOL     OW 1996   0.159   2.757   2.983 -0.4187  0.2745 -0.3984
  666SOL    HW1 1997   0.128   2.855   2.969 -0.6920 -1.9840 -0.3070
  666SOL    HW2 1998   0.079   2.693   2.961  2.4495  1.5961  1.6187
  667SOL     OW 1999   1.528   1.523   1.531 -0.0644  0.0981 -0.2799
  667SOL    HW1 2000   1.435   1.530   1.494  0.3749  0.6263 -1.5485
  667SOL    HW2 2001   1.593   1.570   1.466 -1.1860 -0.2457 -0.7225
  668SOL     OW 2002   1.347   0.360   2.085 -0.0695  0.1216 -1.3352
  668SOL    HW1 2003   1.258   0.316   2.086 -0.9142  1.3240  0.4211
  668SOL    HW2 2004   1.360   0.432   2.160 -0.5976  1.2908  2.2832
  669SOL     OW 2005   2.575   2.188   1.604  0.0647 -0.3947  0.3140
  669SOL    HW1 2006   2.534   2.103   1.646 -0.5198  1.7731  2.1348
  669SOL    HW2 2007   2.499   2.253   1.573  2.4414  1.7300 -1.4208
  670SOL     OW 2008   1.643   2.203   0.085  0.0060  0.0939 -0.2262
  670SOL    HW1 2009   1.701   2.171   0.011  1.6267  0.0665  2.4711
  670SOL    HW2 2010   1.600   2.296   0.071  1.2857  1.8133  1.2927
  671SOL     OW 2011   1.264   1.073   0.976  0.1191  0.1408 -0.1929
  671SOL    HW1 2012   1.270   1.019   1.065 -1.9264  0.0666 -0.1097
  671SOL    HW2 2013   1.190   1.141   0.970  0.5269 -2.5468  1.7138
  672SOL     OW 2014   2.827   1.066   2.445 -0.2889 -1.0501 -0.7328
  672SOL    HW1 2015   2.843   1.109   2.539  0.5484  1.0748  2.2407
  672SOL    HW2 2016   2.895   1.105   2.380  2.6772 -3.5762  0.2049
  673SOL     OW 2017   0.034   1.827   1.350 -0.2463  0.2065 -0.0179
  673SOL    HW1 2018   3.025   1.808   1.416 -0.6371 -1.8868 -0.9410
  673SOL    HW2 2019   0.121   1.856   1.396  0.5661  1.4452 -1.7619
  674SOL     OW 2020   0.759   2.432   2.179 -0.1271 -0.5052  0.1630
  674SOL    HW1 2021   0.675   2.478   2.140 -1.0303 -0.7216  2.0298
  674SOL    HW2 2022   0.794   2.483   2.259 -0.2261  0.5735  1.0748
  675SOL     OW 2023   0.841   0.948   1.695  0.3902  0.0505  0.4786
  675SOL    HW1 2024   0.742   0.936   1.709  2.1489 -0.6921  0.5250
  675SOL    HW2 2025   0.878   0.985   1.783  0.7471 -0.9144  1.2941
  676SOL     OW 2026   2.305   0.543   0.797  0.9945  0.2536  0.2442
  676SOL    HW1 2027   2.338   0.492   0.719 -1.0776 -0.5127  0.9656
  676SOL    HW2 2028   2.381   0.578   0.852 -0.9279 -2.3553  0.4508
  677SOL     OW 2029   2.458   1.586   3.038  0.1701  0.0188  0.2169
  677SOL    HW1 2030   2.387   1.557   2.979  3.1379 -0.2908 -0.3091
  677SOL    HW2 2031   2.547   1.544   3.002  1.6890 -0.4197  0.5067
  678SOL     OW 2032   0.093   0.411   1.475 -0.1332  0.1976 -0.2124
  678SOL    HW1 2033   0.105   0.314   1.478  0.9390  6.0534 -1.3270
  678SOL    HW2 2034   0.032   0.435   1.555  0.5829 -0.8583  0.4437
  679SOL     OW 2035   2.289   0.348   0.266  0.0148  0.2671 -0.8563
  679SOL    HW1 2036   2.361   0.415   0.283 -1.7497 -0.1922  1.2779
  679SOL    HW2 2037   2.299   0.320   0.169  2.6754 -0.5064  0.9462
  680SOL     OW 2038   0.074   2.078   1.863 -0.3418 -0.1687  0.2076
  680SOL    HW1 2039   0.130   2.003   1.824 -2.2637  0.8729 -1.0173
  680SOL    HW2 2040   0.092   2.102   1.961 -0.5884  0.0794  4.1018
  681SOL     OW 2041   2.260   1.984   1.196 -0.1754  0.3921 -0.4692
  681SOL    HW1 2042   2.211   2.027   1.118  0.7411  0.8186 -0.3335
  681SOL    HW2 2043   2.360   1.991   1.168  2.6260 -1.3183 -2.5880
  682SOL     OW 2044   2.928   1.998   2.171  0.2771 -0.2809  0.0966
  682SOL    HW1 2045   2.920   1.934   2.091  2.6669 -0.9477 -2.3556
  682SOL    HW2 2046   3.013   2.050   2.166 -0.9248 -1.0988  0.5452
  683SOL     OW 2047   3.053   2.155   1.360 -0.1044 -0.3872 -0.7856
  683SOL    HW1 2048   3.069   2.147   1.258 -1.7560  3.1281  1.9624
  683SOL    HW2 2049   2.960   2.121   1.382 -0.7083  0.1462  0.0703
  684SOL     OW 2050   2.725   0.828   2.518 -0.1423  0.3330  0.7081
  684SOL    HW1 2051   2.778   0.915   2.490  0.4867  1.9409 -1.3852
  684SOL    HW2 2052   2.717   0.831   2.618  0.6599  1.1944  1.1058
  685SOL     OW 2053   1.344   1.197   0.434  0.4616 -0.3243 -0.5438
  685SOL    HW1 2054   1.327   1.119   0.496  1.3967  1.7432 -1.8704
  685SOL    HW2 2055   1.341   1.285   0.486 -1.4895  2.2499 -0.0564
  686SOL     OW 2056   0.357   0.084   0.499 -0.3976 -0.3840 -0.0879
  686SOL    HW1 2057   0.280   0.038   0.447 -1.6577 -1.2658 -1.7922
  686SOL    HW2 2058   0.315   0.117   0.587 -0.4210 -0.6513 -1.7272
  687SOL     OW 2059   1.383   1.303   2.517 -0.1325 -0.2004  0.0603
  687SOL    HW1 2060   1.391   1.399   2.484 -2.0432 -1.6169 -2.9809
  687SOL    HW2 2061   1.456   1.244   2.476  1.5539  0.0424  0.2274
  688SOL     OW 2062   1.500   1.243   1.603 -0.0653  0.3149 -0.3756
  688SOL    HW1 2063   1.492   1.337   1.586  2.7755 -4.3770 -0.9202
  688SOL    HW2 2064   1.404   1.206   1.616 -0.0852 -0.8783 -1.6968
  689SOL     OW 2065   2.221   2.861   1.290  0.2571 -0.2393  0.2359
  689SOL    HW1 2066   2.213   2.946   1.239 -1.9063 -1.9568  1.0553
  689SOL    HW2 2067   2.185   2.787   1.230 -1.9697  1.0298  1.1708
  690SOL     OW 2068   0.026   1.181   1.088 -0.1010  0.5169  0.4596
  690SOL    HW1 2069   3.031   1.103   1.066  0.2835  0.0916 -1.8930
  690SOL    HW2 2070   0.114   1.149   1.133 -1.1411  0.3820 -0.0756
  691SOL     OW 2071   0.484   2.172   1.134 -0.4972  0.5431  0.6420
  691SOL    HW1 2072   0.584   2.187   1.106  1.7114 -0.8512  0.2707
  691SOL    HW2 2073   0.435   2.262   1.137  2.8132  0.3795  1.9661
  692SOL     OW 2074   2.251   0.713   1.811 -0.5037 -0.0245 -0.0826
  692SOL    HW1 2075   2.269   0.776   1.887 -0.9020  0.9647  2.0120
  692SOL    HW2 2076   2.308   0.625   1.824  4.4600 -1.4763  0.3660
  693SOL     OW 2077   0.528   1.776   2.052  0.6713 -0.4672  0.3012
  693SOL    HW1 2078   0.595   1.819   1.988 -0.6625 -0.3141  0.0189
  693SOL    HW2 2079   0.564   1.771   2.147 -3.5627  0.7880  1.7425
  694SOL     OW 2080   1.593   1.352   1.200 -0.3198 -0.2018 -0.8011
  694SOL    HW1 2081   1.645   1.277   1.249 -0.7995  0.4043 -0.7720
  694SOL    HW2 2082   1.492   1.345   1.220 -4.7820 -1.9202  2.1675
  695SOL     OW 2083   0.873   1.395   0.828  0.1526  0.0493  0.1963
  695SOL    HW1 2084   0.821   1.483   0.817  0.4390  3.1800 -0.3625
  695SOL    HW2 2085   0.860   1.340   0.742  0.8672 -0.9295  2.9039
  696SOL     OW 2086   1.051   2.874   0.447 -0.1388  0.8100 -0.7080
  696SOL    HW1 2087   1.122   2.820   0.496 -2.4427 -2.6001 -1.4309
  696SOL    HW2 2088   0.966   2.819   0.444  3.7774  0.6958  1.3750
  697SOL     OW 2089   1.558   0.374   1.732  0.5906  0.0128 -0.1044
  697SOL    HW1 2090   1.652   0.416   1.728 -1.9267 -0.1837  2.9081
  697SOL    HW2 2091   1.547   0.271   1.735  1.2889 -0.3013  1.4472
  698SOL     OW 2092   1.606   1.446   2.152 -0.4730 -0.1134 -0.4564
  698SOL    HW1 2093   1.693   1.474   2.104  0.4737  1.5720  0.5602
  698SOL    HW2 2094   1.535   1.413   2.089  1.0961 -0.5020 -0.5643
  699SOL     OW 2095   2.603   0.308   1.784  0.1802 -0.1841 -0.9938
  699SOL    HW1 2096   2.551   0.226   1.801 -1.2204  2.5332  0.8213
  699SOL    HW2 2097   2.639   0.316   1.687  2.8599 -3.6371  1.4630
  700SOL     OW 2098   1.221   2.169   0.555 -0.1507  0.5147  0.4498
  700SOL    HW1 2099   1.292   2.200   0.484  1.9287  1.9769  0.4547
  700SOL    HW2 2100   1.171   2.086   0.525  1.1695  1.2311  1.7645
  701SOL     OW 2101   2.350   2.956   2.475  0.1624 -0.0141 -0.2681
  701SOL    HW1 2102   2.407   2.932   2.555 -1.3126 -1.5941 -1.8863
  701SOL    HW2 2103   2.381   3.044   2.437 -1.4767  1.1856 -0.1588
  702SOL     OW 2104   0.751   3.041   0.752 -0.1676  0.4135  0.1162
  702SOL    HW1 2105   0.671   3.029   0.814 -0.8326 -1.2848 -0.6505
  702SOL    HW2 2106   0.720   0.026   0.669 -1.6767 -0.1205 -2.2831
  703SOL     OW 2107   2.371   0.020   2.118  0.2154 -0.0369  0.4896
  703SOL    HW1 2108   2.274   0.057   2.104 -1.3729  2.0245 -0.4457
  703SOL    HW2 2109   2.415   0.075   2.190  1.4732  1.3153  0.6358
  704SOL     OW 2110   2.664   1.954   0.408 -0.6808 -0.0186 -0.3397
  704SOL    HW1 2111   2.635   2.007   0.326  1.3041 -0.8006  0.8296
  704SOL    HW2 2112   2.655   2.006   0.495  0.4986  0.5343  1.1570
  705SOL     OW 2113   2.507   2.816   2.693 -0.4037 -0.3086 -0.1936
  705SOL    HW1 2114   2.582   2.885   2.689 -2.4576  1.1405  0.6677
  705SOL    HW2 2115   2.533   2.734   2.640 -1.2069 -0.3619  0.3891
  706SOL     OW 2116   2.642   0.268   1.145 -0.1317 -0.0278 -0.2976
  706SOL    HW1 2117   2.634   0.274   1.248  0.5073  0.8720  2.3224
  706SOL    HW2 2118   2.695   0.352   1.113  1.2140 -3.0145  0.2548
  707SOL     OW 2119   0.959   3.021   2.408 -0.0987  0.0836 -0.2047
  707SOL    HW1 2120   1.003   2.995   2.499  4.5356 -1.4285  1.9925
  707SOL    HW2 2121   0.866   3.057   2.408  2.6641  1.7791  1.5372
  708SOL     OW 2122   0.218   2.350   1.745 -0.2286  0.3581 -0.0531
  708SOL    HW1 2123   0.193   2.285   1.670 -2.9961 -0.6357  0.7781
  708SOL    HW2 2124   0.133   2.371   1.799 -1.5993 -1.0774 -2.2352
  709SOL     OW 2125   1.305   0.324   1.474 -0.6482  0.2704  0.0789
  709SOL    HW1 2126   1.373   0.399   1.449 -1.1705 -0.8275  0.7242
  709SOL    HW2 2127   1.306   0.246   1.412 -3.5605  1.5169 -1.0107
  710SOL     OW 2128   0.965   2.876   3.016 -0.2192  0.0797 -0.0475
  710SOL    HW1 2129   0.925   2.859   0.040  1.3195  0.0337  0.3313
  710SOL    HW2 2130   0.959   2.971   2.985 -1.4924 -1.2949 -3.8102
  711SOL     OW 2131   1.203   2.163   2.480  0.6955 -0.2448  0.4215
  711SOL    HW1 2132   1.228   2.136   2.579 -0.1046  0.0573  3.3280
  711SOL    HW2 2133   1.103   2.155   2.474 -0.1083 -0.2233 -0.5148
  712SOL     OW 2134   1.075   2.083   2.885 -0.1069  0.4288  0.0022
  712SOL    HW1 2135   1.121   2.045   2.807 -2.9779  2.6005  0.8026
  712SOL    HW2 2136   1.095   2.031   2.971  1.1364  0.7572 -2.3705
  713SOL     OW 2137   1.808   1.149   2.119  0.7222 -1.0077 -0.4179
  713SOL    HW1 2138   1.733   1.103   2.073  4.4835 -1.9608 -0.8780
  713SOL    HW2 2139   1.890   1.095   2.135 -0.5702 -2.7649 -0.8271
  714SOL     OW 2140   0.704   1.354   1.850 -0.1066  0.2628 -0.3299
  714SOL    HW1 2141   0.719   1.337   1.749  0.7637  0.5152 -0.8895
  714SOL    HW2 2142   0.648   1.276   1.887 -0.3334 -1.0053 -0.0358
  715SOL     OW 2143   2.458   0.552   0.312 -0.1205  0.2934  0.0208
  715SOL    HW1 2144   2.520   0.528   0.390  0.1582 -0.2442 -2.6980
  715SOL    HW2 2145   2.432   0.650   0.314 -0.2479 -1.2367  0.4357
  716SOL     OW 2146   2.719   2.297   1.791  0.2213 -0.0688  0.0315
  716SOL    HW1 2147   2.667   2.258   1.708 -0.8095 -2.0424 -2.2084
  716SOL    HW2 2148   2.705   2.233   1.871 -0.7401  0.7599 -0.2887
  717SOL     OW 2149   2.351   1.080   1.141 -0.0819 -0.6772 -0.0972
  717SOL    HW1 2150   2.259   1.111   1.179 -2.1396 -1.2727  2.4670
  717SOL    HW2 2151   2.347   1.062   1.046 -1.5546  0.3739  1.2320
  718SOL     OW 2152   1.276   1.529   1.467 -0.1111  0.3725 -0.0428
  718SOL    HW1 2153   1.209   1.487   1.525  1.7234  3.1826 -2.7531
  718SOL    HW2 2154   1.244   1.613   1.425 -1.0271 -3.5136  1.2445
  719SOL     OW 2155   2.842   0.538   0.028 -0.0325 -0.0364  0.0157
  719SOL    HW1 2156   2.860   0.562   2.999  0.3501 -0.4858 -2.7615
  719SOL    HW2 2157   2.931   0.501   0.062  2.6579 -1.6845 -2.0246
  720SOL     OW 2158   0.844   0.463   0.817  0.6159 -0.8807 -0.0354
  720SOL    HW1 2159   0.914   0.413   0.768 -0.8386 -0.3546 -1.1685
  720SOL    HW2 2160   0.872   0.561   0.802 -0.1090 -0.3105 -1.8223
  721SOL     OW 2161   2.549   0.808   0.729  0.2122  0.2877 -0.5621
  721SOL    HW1 2162   2.454   0.797   0.699  1.6499  0.3536  1.6409
  721SOL    HW2 2163   2.613   0.789   0.652 -4.0443 -0.8747 -2.0974
  722SOL     OW 2164   0.545   2.291   2.491 -0.1898 -0.1073  0.1009
  722SOL    HW1 2165   0.486   2.280   2.575 -0.4996  0.3466 -0.0070
  722SOL    HW2 2166   0.497   2.355   2.423 -1.3447  2.3831 -2.7991
  723SOL     OW 2167   1.833   0.007   0.977 -0.1627  0.1824 -0.0185
  723SOL    HW1 2168   1.821   0.107   0.990 -0.1297 -1.3664  1.3354
  723SOL    HW2 2169   1.876   3.030   1.056  1.7764  1.9623  0.0334
  724SOL     OW 2170   1.390   1.749   1.886 -0.0354  0.2683  0.4065
  724SOL    HW1 2171   1.417   1.793   1.972  0.7454 -2.5025 -0.3002
  724SOL    HW2 2172   1.298   1.710   1.902  3.7898  0.0442 -0.0880
  725SOL     OW 2173   1.253   2.760   1.315  0.0725  0.3901  0.4398
  725SOL    HW1 2174   1.209   2.797   1.399 -0.6649  1.6671 -0.3266
  725SOL    HW2 2175   1.252   2.831   1.240  0.2534  0.9968 -3.2583
  726SOL     OW 2176   2.041   2.688   0.197  0.1411  0.3320  0.8242
  726SOL    HW1 2177   2.035   2.704   0.098  0.3401  1.5739  3.9979
  726SOL    HW2 2178   1.952   2.710   0.240  2.8997 -1.0024  1.9258
  727SOL     OW 2179   1.434   1.743   1.045  0.1102 -0.1534 -0.1997
  727SOL    HW1 2180   1.536   1.730   1.051  0.1378  0.6398  0.7558
  727SOL    HW2 2181   1.382   1.657   1.031 -1.0409  2.1905  1.1877
  728SOL     OW 2182   2.190   2.664   2.107  0.1414 -0.1549  0.1118
  728SOL    HW1 2183   2.126   2.662   2.188 -1.1994 -1.6936 -1.6284
  728SOL    HW2 2184   2.277   2.713   2.123 -0.7227 -1.0180 -0.4100
  729SOL     OW 2185   1.983   2.398   1.467 -0.3647 -0.1250 -0.2925
  729SOL    HW1 2186   1.891   2.437   1.437  1.7835 -0.0830  1.6286
  729SOL    HW2 2187   2.027   2.462   1.527 -0.2285 -0.2673 -1.7569
  730SOL     OW 2188   1.921   0.743   2.345  0.0932  0.1822 -0.1579
  730SOL    HW1 2189   1.829   0.795   2.347  0.8581 -0.3074  0.0916
  730SOL    HW2 2190   1.975   0.784   2.420 -3.6165  2.2735 -2.8867
  731SOL     OW 2191   0.958   2.756   1.275  1.2279  0.3304 -0.3014
  731SOL    HW1 2192   0.990   2.785   1.370 -1.4212  0.3673  2.5506
  731SOL    HW2 2193   1.035   2.709   1.227 -0.3640 -0.1344  0.7559
  732SOL     OW 2194   1.178   0.192   0.903  0.1029 -0.0957 -0.2523
  732SOL    HW1 2195   1.102   0.126   0.904 -0.2711  0.3076  1.3409
  732SOL    HW2 2196   1.267   0.146   0.923 -1.6072  0.1471 -1.7794
  733SOL     OW 2197   1.442   1.209   0.726 -0.2594 -0.1731 -0.2685
  733SOL    HW1 2198   1.444   1.311   0.738 -1.2862  0.7900  0.3367
  733SOL    HW2 2199   1.397   1.161   0.806 -0.4911 -1.7660  3.4762
  734SOL     OW 2200   2.511   2.151   2.633  0.2762 -0.1389  0.2196
  734SOL    HW1 2201   2.559   2.177   2.549  0.0946 -0.8921  0.0742
  734SOL    HW2 2202   2.443   2.075   2.619 -1.4297 -4.4498  0.9034
  735SOL     OW 2203   0.716   0.230   0.947 -0.2857  0.0432 -0.4032
  735SOL    HW1 2204   0.684   0.179   0.868  0.4054  0.1996  2.6588
  735SOL    HW2 2205   0.755   0.321   0.920  0.2146 -3.0010  0.6443
  736SOL     OW 2206   1.309   2.382   2.647  0.3896  0.0945 -0.1264
  736SOL    HW1 2207   1.345   2.326   2.722 -0.1504  3.3887 -0.3507
  736SOL    HW2 2208   1.250   2.331   2.580  0.2291 -0.5041 -1.6021
  737SOL     OW 2209   0.779   2.255   1.344 -0.0514  0.0478 -0.4633
  737SOL    HW1 2210   0.686   2.255   1.387  0.8917  0.7688 -0.0149
  737SOL    HW2 2211   0.802   2.346   1.311  0.5901 -1.5091  2.5738
  738SOL     OW 2212   1.480   3.026   2.823 -0.0643  0.6998 -0.3554
  738SOL    HW1 2213   1.493   0.056   2.818 -1.7430 -6.2248  0.1376
  738SOL    HW2 2214   1.550   2.990   2.890 -1.1633 -1.6005  0.2799
  739SOL     OW 2215   1.109   2.363   1.842 -0.2907  0.4431 -0.1636
  739SOL    HW1 2216   1.095   2.379   1.942  0.3803  1.7822 -6.7488
  739SOL    HW2 2217   1.134   2.270   1.822 -0.6441  2.0180 -0.8860
  740SOL     OW 2218   1.532   2.348   1.566 -0.0690 -0.1818  0.0156
  740SOL    HW1 2219   1.485   2.318   1.480  1.9639 -1.6482 -0.6731
  740SOL    HW2 2220   1.499   2.438   1.602  0.2171  0.2855 -1.0064
  741SOL     OW 2221   2.457   1.123   0.256  0.2412  0.1473  0.3396
  741SOL    HW1 2222   2.486   1.121   0.353  0.3894 -0.4292 -0.2245
  741SOL    HW2 2223   2.381   1.191   0.235 -0.9175  1.0366 -2.7221
  742SOL     OW 2224   0.851   1.703   2.312  0.2152 -0.1684  0.2681
  742SOL    HW1 2225   0.877   1.756   2.230  0.8859  0.1560 -0.4936
  742SOL    HW2 2226   0.751   1.677   2.316 -0.4138  0.7938  1.7803
  743SOL     OW 2227   0.515   1.206   2.576 -0.5322  0.0750  0.0069
  743SOL    HW1 2228   0.581   1.154   2.635  0.4829  1.2347 -0.9199
  743SOL    HW2 2229   0.456   1.270   2.633 -0.1544  1.4152  1.6697
  744SOL     OW 2230   2.132   2.367   1.238  0.8973  0.2284  0.6802
  744SOL    HW1 2231   2.070   2.343   1.156 -2.2660  0.4458 -1.7105
  744SOL    HW2 2232   2.084   2.381   1.323  1.4100  0.4965 -3.5419
  745SOL     OW 2233   2.073   1.705   1.551  0.2097 -0.4970  0.3576
  745SOL    HW1 2234   2.095   1.728   1.456 -1.4157 -2.3373  0.7150
  745SOL    HW2 2235   2.016   1.774   1.594  3.0535 -3.1570  0.4533
  746SOL     OW 2236   2.031   1.133   0.836 -0.0014  0.5054  0.0376
  746SOL    HW1 2237   2.126   1.153   0.854 -4.2836  0.2896 -1.2572
  746SOL    HW2 2238   1.971   1.157   0.915 -1.9755  0.9151  0.5795
  747SOL     OW 2239   1.663   2.099   0.899 -0.1078 -0.0434  0.4038
  747SOL    HW1 2240   1.743   2.040   0.906 -0.5809 -0.0136  0.9837
  747SOL    HW2 2241   1.578   2.047   0.888  0.9864  1.9667  1.2982
  748SOL     OW 2242   0.496   1.445   0.898 -0.0546 -0.2818  0.0094
  748SOL    HW1 2243   0.523   1.507   0.818 -0.3559  0.4777 -0.8832
  748SOL    HW2 2244   0.396   1.456   0.921 -3.4569 -1.4946 -2.3409
  749SOL     OW 2245   0.058   2.963   2.232  0.2489 -0.3297 -0.2416
  749SOL    HW1 2246   0.029   3.053   2.186 -2.1991  4.8828 -2.1848
  749SOL    HW2 2247   0.120   2.977   2.309 -2.0312  0.5128 -1.5587
  750SOL     OW 2248   1.988   0.421   1.169 -0.3356 -0.3256  0.3530
  750SOL    HW1 2249   2.032   0.473   1.093  0.3025 -1.2963 -2.3899
  750SOL    HW2 2250   2.057   0.366   1.219  1.3315  2.2332 -2.1858
  751SOL     OW 2251   2.221   2.926   0.191 -0.0746  0.3388 -0.1401
  751SOL    HW1 2252   2.270   2.844   0.146  1.6109 -4.1917 -1.3947
  751SOL    HW2 2253   2.291   2.997   0.220  0.3864  3.2909  0.5331
  752SOL     OW 2254   1.982   1.881   0.244 -0.6407 -0.3057  0.6143
  752SOL    HW1 2255   1.886   1.900   0.217  1.4566  2.1939 -1.5767
  752SOL    HW2 2256   2.048   1.939   0.190  0.5103 -1.2633 -2.7989
  753SOL     OW 2257   1.817   1.484   2.574  0.1196  0.1580 -0.5066
  753SOL    HW1 2258   1.795   1.504   2.476  0.4529  1.6937 -0.6669
  753SOL    HW2 2259   1.810   1.573   2.622 -0.6489 -0.2108 -0.7328
  754SOL     OW 2260   2.802   2.286   1.131  0.2659 -0.6128 -0.6159
  754SOL    HW1 2261   2.776   2.381   1.163 -0.5828 -1.1049  3.5148
  754SOL    HW2 2262   2.905   2.275   1.111  1.3219  0.9722  1.1551
  755SOL     OW 2263   2.011   0.823   0.980  0.4198  0.0689 -0.1437
  755SOL    HW1 2264   1.985   0.857   0.885  0.1864  0.7123 -3.1265
  755SOL    HW2 2265   1.948   0.859   1.049 -0.3758 -0.2612 -1.7724
  756SOL     OW 2266   1.116   1.371   2.878  0.3013  0.0346  0.1299
  756SOL    HW1 2267   1.170   1.370   2.960  2.1291  0.2369 -1.7295
  756SOL    HW2 2268   1.164   1.313   2.807 -0.5781  1.7362 -0.3445
  757SOL     OW 2269   1.958   2.757   1.533 -0.1565  0.1553 -0.7081
  757SOL    HW1 2270   2.032   2.694   1.562 -0.5428 -1.8883  1.4212
  757SOL    HW2 2271   1.996   2.850   1.527  2.9717  0.9338 -0.2198
  758SOL     OW 2272   0.754   2.543   1.277 -0.7219 -0.0336 -0.3615
  758SOL    HW1 2273   0.696   2.606   1.325  4.7407 -0.7068  2.2656
  758SOL    HW2 2274   0.846   2.591   1.266  1.2026  1.7557  1.6796
  759SOL     OW 2275   2.212   1.384   1.110  0.1405 -0.0386 -0.2435
  759SOL    HW1 2276   2.127   1.396   1.053  0.8334 -1.9113  3.4186
  759SOL    HW2 2277   2.286   1.438   1.069 -1.8613 -2.9062  4.1914
  760SOL     OW 2278   2.000   1.102   1.299 -0.3786 -0.3536  0.1274
  760SOL    HW1 2279   1.979   1.094   1.399  2.3428 -0.4262  0.4921
  760SOL    HW2 2280   2.079   1.167   1.288 -2.7092  1.7458  2.4605
  761SOL     OW 2281   2.058   3.069   0.378  0.6570 -0.3076 -0.3231
  761SOL    HW1 2282   2.002   3.018   0.445  2.3797  0.4465 -0.1549
  761SOL    HW2 2283   2.098   3.007   0.305 -1.4523 -0.1307  2.4609
  762SOL     OW 2284   1.800   2.178   2.937 -0.0832 -0.0624  0.0433
  762SOL    HW1 2285   1.867   2.105   2.901  1.9330 -1.8860 -0.8456
  762SOL    HW2 2286   1.852   2.254   2.982  0.1573 -0.8999 -0.3626
  763SOL     OW 2287   0.640   1.062   1.123 -0.4117  0.2478  0.0750
  763SOL    HW1 2288   0.648   1.150   1.072  1.7308 -2.6810 -2.5108
  763SOL    HW2 2289   0.725   1.039   1.177  3.0386  0.2895  2.6011
  764SOL     OW 2290   2.783   2.299   0.005 -0.1983  0.2281 -0.0838
  764SOL    HW1 2291   2.873   2.344   3.062 -2.3859  0.1394 -0.5175
  764SOL    HW2 2292   2.766   2.235   2.996  0.0502  0.3792  1.7886
  765SOL     OW 2293   0.923   0.108   1.928 -0.8048  0.3113  0.4987
  765SOL    HW1 2294   0.855   0.033   1.950  0.9474 -0.4473  0.6805
  765SOL    HW2 2295   0.923   0.128   1.827 -1.4973 -0.4469 -1.7802
  766SOL     OW 2296   2.887   1.937   2.603 -0.2245  0.2185 -0.2760
  766SOL    HW1 2297   2.808   1.872   2.593 -1.1570  2.0794  2.7417
  766SOL    HW2 2298   2.954   1.923   2.531 -0.0240  0.9489 -0.5793
  767SOL     OW 2299   3.031   1.554   1.642  0.2659 -0.1134  0.8249
  767SOL    HW1 2300   2.952   1.489   1.652 -0.5035 -0.2787  0.0120
  767SOL    HW2 2301   2.997   1.644   1.607 -0.7786  0.0804 -1.9857
  768SOL     OW 2302   1.094   0.797   2.936  0.3048  0.6533 -0.5808
  768SOL    HW1 2303   1.056   0.826   3.026 -0.7539  1.6451  0.6485
  768SOL    HW2 2304   1.164   0.724   2.948  1.1390 -0.2675  1.9809
  769SOL     OW 2305   1.848   2.406   0.333 -0.2405  0.3827 -0.2907
  769SOL    HW1 2306   1.758   2.410   0.381 -0.2849 -2.8733  0.6505
  769SOL    HW2 2307   1.925   2.459   0.375  2.3894  1.4217  2.6675
  770SOL     OW 2308   2.699   0.081   0.039 -0.6047 -0.5337 -0.1808
  770SOL    HW1 2309   2.649   3.065   0.050  0.0833  2.0982  0.6705
  770SOL    HW2 2310   2.634   0.155   0.005 -3.1569  0.1380  0.3008
  771SOL     OW 2311   1.400   2.404   1.979  0.1652  0.5378  0.3595
  771SOL    HW1 2312   1.369   2.480   1.917 -2.1751  1.4481 -2.6012
  771SOL    HW2 2313   1.424   2.315   1.930  0.2369 -1.5697  0.6697
  772SOL     OW 2314   0.673   0.417   2.869 -0.3530 -0.6917 -0.2987
  772SOL    HW1 2315   0.730   0.420   2.785 -2.0056 -0.4954  1.0740
  772SOL    HW2 2316   0.583   0.376   2.844  0.4409 -2.0645  0.3599
  773SOL     OW 2317   2.951   1.084   1.463  0.0749  0.3392  0.1414
  773SOL    HW1 2318   2.849   1.077   1.447 -3.8065 -2.0383  0.5892
  773SOL    HW2 2319   2.962   1.094   1.566  0.1097  0.2466  2.1743
  774SOL     OW 2320   1.601   1.091   0.321  0.2149 -0.1351 -0.1868
  774SOL    HW1 2321   1.519   1.147   0.342  2.3034  1.4720  0.9974
  774SOL    HW2 2322   1.671   1.143   0.277 -1.7054 -2.2201  1.0506
  775SOL     OW 2323   2.359   2.547   0.237 -0.1477 -0.3459 -0.0316
  775SOL    HW1 2324   2.349   2.623   0.167  2.3969 -1.3097 -1.5496
  775SOL    HW2 2325   2.386   2.463   0.192  1.1540 -0.7513  1.6285
  776SOL     OW 2326   2.468   0.805   2.111 -0.5103  0.4638  0.5233
  776SOL    HW1 2327   2.471   0.832   2.013  2.3554  0.9174  0.5865
  776SOL    HW2 2328   2.522   0.866   2.176 -1.4026  0.0062  0.1645
  777SOL     OW 2329   0.178   1.286   2.322 -0.1761 -1.0482 -0.1090
  777SOL    HW1 2330   0.254   1.313   2.263  0.2342  0.6071  4.7211
  777SOL    HW2 2331   0.106   1.234   2.279  3.4381  1.0955  0.5128
  778SOL     OW 2332   0.606   0.190   0.296 -0.3109 -0.1764  0.1408
  778SOL    HW1 2333   0.687   0.132   0.290 -1.3216 -0.3863  0.2325
  778SOL    HW2 2334   0.530   0.153   0.348  0.6795  3.1091 -0.0650
  779SOL     OW 2335   0.776   0.892   2.683 -0.2545 -0.1291  0.2163
  779SOL    HW1 2336   0.825   0.971   2.633  1.1080  2.0692 -3.3016
  779SOL    HW2 2337   0.841   0.814   2.692  1.1842 -0.4497 -0.4985
  780SOL     OW 2338   2.036   1.024   2.225 -0.2487 -0.5949 -0.0121
  780SOL    HW1 2339   2.028   0.967   2.306 -0.2243  0.9627 -0.8956
  780SOL    HW2 2340   2.081   0.974   2.146 -0.3211  0.7634 -0.3218
  781SOL     OW 2341   2.973   1.148   1.718 -0.2820  0.0977  0.4280
  781SOL    HW1 2342   3.058   1.193   1.760  0.0980  2.1790  1.4359
  781SOL    HW2 2343   2.911   1.117   1.793 -0.0514 -1.2991  0.1821
  782SOL     OW 2344   0.961   1.862   2.060 -0.0711 -0.1777  0.5671
  782SOL    HW1 2345   0.883   1.850   1.995 -1.6322 -1.2843 -1.1683
  782SOL    HW2 2346   0.950   1.952   2.107 -2.1063  0.8299 -0.5739
  783SOL     OW 2347   0.455   2.518   1.467 -0.6673  0.2143  0.0999
  783SOL    HW1 2348   0.491   2.484   1.554 -0.8015  4.0590 -0.8327
  783SOL    HW2 2349   0.500   2.601   1.438 -1.4475 -0.8402  1.7174
  784SOL     OW 2350   1.262   0.408   2.882  0.5272 -0.3260 -0.4804
  784SOL    HW1 2351   1.347   0.352   2.856  0.4526  1.7998 -0.8914
  784SOL    HW2 2352   1.273   0.510   2.880 -1.0528 -0.8968 -1.2800
  785SOL     OW 2353   1.072   0.290   2.731  0.4342  0.0714 -0.2852
  785SOL    HW1 2354   1.135   0.304   2.808 -2.8478 -0.7908  2.8894
  785SOL    HW2 2355   1.115   0.299   2.638  2.0465 -0.4714  0.3459
  786SOL     OW 2356   0.399   1.598   0.281  0.5722  0.1593 -0.0783
  786SOL    HW1 2357   0.383   1.502   0.314 -1.2949  1.4631  3.7092
  786SOL    HW2 2358   0.437   1.601   0.186 -0.6170  0.6287  1.2250
  787SOL     OW 2359   1.811   1.411   0.339 -0.3766  0.0266  0.4654
  787SOL    HW1 2360   1.897   1.466   0.322  1.6911 -2.8574  0.2265
  787SOL    HW2 2361   1.725   1.465   0.323 -1.9386  1.8900 -0.1132
  788SOL     OW 2362   1.863   1.492   1.504 -0.2624 -0.9846 -0.0532
  788SOL    HW1 2363   1.793   1.528   1.438 -0.2664  2.7662  1.3578
  788SOL    HW2 2364   1.947   1.551   1.502  0.7350 -0.7907 -0.1202
  789SOL     OW 2365   0.344   1.383   1.727  0.2397 -0.1749  0.2927
  789SOL    HW1 2366   0.426   1.439   1.711 -1.8194  2.6742 -1.4220
  789SOL    HW2 2367   0.277   1.398   1.650 -0.0391  0.4569 -2.1417
  790SOL     OW 2368   0.629   2.556   0.113  0.0874 -0.4760 -0.0101
  790SOL    HW1 2369   0.534   2.583   0.137  0.8816 -0.2913  1.0238
  790SOL    HW2 2370   0.666   2.596   0.028 -0.2085  0.3888 -0.8851
  791SOL     OW 2371   0.449   0.335   2.752 -0.0393  0.2641 -0.0922
  791SOL    HW1 2372   0.443   0.379   2.659  0.2127  1.4893  2.2546
  791SOL    HW2 2373   0.444   0.231   2.749  0.3252  1.2519  1.9075
  792SOL     OW 2374   2.003   0.497   2.409 -0.1537 -0.2988 -1.0518
  792SOL    HW1 2375   1.979   0.592   2.390 -0.7124 -1.7102  3.7737
  792SOL    HW2 2376   2.050   0.495   2.502  2.2407  1.0719 -0.9357
  793SOL     OW 2377   0.384   0.564   1.020 -0.0520  0.0218  0.0634
  793SOL    HW1 2378   0.348   0.504   0.946 -0.9303  0.0267  0.1359
  793SOL    HW2 2379   0.324   0.550   1.099  3.0661 -1.9619 -1.4857
  794SOL     OW 2380   0.574   0.427   1.808  0.4855 -0.3312 -0.1992
  794SOL    HW1 2381   0.623   0.353   1.753  0.4775 -0.2312  0.2185
  794SOL    HW2 2382   0.472   0.416   1.795 -2.1845 -0.9572  1.0960
  795SOL     OW 2383   0.224   1.337   0.085 -0.5183  0.1106 -0.5856
  795SOL    HW1 2384   0.154   1.263   0.082  0.4150  1.3585 -0.0833
  795SOL    HW2 2385   0.205   1.410   0.152  1.4192 -0.4312 -0.2469
  796SOL     OW 2386   0.241   0.029   0.218  0.2254 -0.1632  0.4354
  796SOL    HW1 2387   0.142   0.027   0.196  0.3663 -1.3400 -1.1971
  796SOL    HW2 2388   0.270   3.012   0.268  1.5009  0.2231 -1.0212
  797SOL     OW 2389   1.387   2.630   2.551 -0.1540  0.5943 -0.3971
  797SOL    HW1 2390   1.358   2.703   2.619 -3.4027 -1.3361  1.3694
  797SOL    HW2 2391   1.353   2.541   2.582  1.2475 -0.3022  1.5401
  798SOL     OW 2392   2.882   0.608   0.878  0.2766 -0.4322  0.5987
  798SOL    HW1 2393   2.847   0.615   0.782 -1.6869 -1.5615 -1.8113
  798SOL    HW2 2394   2.984   0.594   0.874  1.3214 -3.2465 -1.7100
  799SOL     OW 2395   2.342   0.533   2.461  0.0555  0.3869  0.4940
  799SOL    HW1 2396   2.318   0.497   2.363 -1.2030  0.7221 -2.1319
  799SOL    HW2 2397   2.434   0.574   2.460 -2.6042 -1.9082  1.4383
  800SOL     OW 2398   0.088   1.968   0.256 -0.0797 -0.7874  0.4471
  800SOL    HW1 2399   0.144   1.977   0.341 -1.1526 -0.1201  2.3562
  800SOL    HW2 2400   0.145   1.928   0.180  0.3886  2.6548 -1.1221
  801SOL     OW 2401   1.268   1.511   1.022 -0.7108 -0.1946  0.0495
  801SOL    HW1 2402   1.278   1.452   1.106 -2.7056 -0.0673  0.0899
  801SOL    HW2 2403   1.276   1.452   0.938 -0.4440 -1.1580  3.0898
  802SOL     OW 2404   1.309   1.724   2.217  0.2869 -0.3023 -0.1619
  802SOL    HW1 2405   1.268   1.814   2.239 -0.9046  2.7901  1.8178
  802SOL    HW2 2406   1.266   1.689   2.131  0.9622 -0.5742  2.0851
  803SOL     OW 2407   0.236   1.849   1.061  0.1865  0.2219 -0.1291
  803SOL    HW1 2408   0.138   1.874   1.072  1.2598  1.3788  0.1990
  803SOL    HW2 2409   0.286   1.871   1.148  0.5909 -1.2154  1.4220
  804SOL     OW 2410   1.193   2.503   1.346  0.2719 -0.4191 -0.3717
  804SOL    HW1 2411   1.225   2.598   1.331 -0.1256 -1.8981 -0.0222
  804SOL    HW2 2412   1.110   2.502   1.404  2.1187 -2.6544  1.4814
  805SOL     OW 2413   1.837   1.557   3.025  0.0804 -0.2763  0.3218
  805SOL    HW1 2414   1.918   1.527   2.974 -1.4788 -0.7931  0.5612
  805SOL    HW2 2415   1.779   1.484   3.061  1.7390 -0.3197  0.9699
  806SOL     OW 2416   2.177   2.555   0.858 -0.0268  0.0814  0.4828
  806SOL    HW1 2417   2.243   2.615   0.805 -1.1290 -1.3954 -0.8057
  806SOL    HW2 2418   2.085   2.598   0.843  0.7612  0.7014 -1.7325
  807SOL     OW 2419   2.951   0.531   2.634  0.1126  0.3420  0.0986
  807SOL    HW1 2420   2.869   0.480   2.594 -0.6174 -1.3527  0.8255
  807SOL    HW2 2421   2.948   0.629   2.608 -1.2212  0.9324  1.8425
  808SOL     OW 2422   0.331   1.023   0.199 -0.1540 -0.3965 -0.1790
  808SOL    HW1 2423   0.435   1.017   0.198 -1.6325  0.0973  0.0856
  808SOL    HW2 2424   0.291   0.956   0.132  0.4006 -2.5467 -0.3179
  809SOL     OW 2425   2.481   1.138   2.011  0.0649  0.0827  0.2171
  809SOL    HW1 2426   2.379   1.132   1.999  0.7557  0.1805 -0.6126
  809SOL    HW2 2427   2.521   1.061   1.961  1.7222 -1.0562  1.3616
  810SOL     OW 2428   1.091   0.469   1.381  0.1550 -0.0807 -0.3711
  810SOL    HW1 2429   1.018   0.410   1.346  0.8891  0.5760 -1.8198
  810SOL    HW2 2430   1.170   0.409   1.410  0.2127 -0.3311  3.2564
  811SOL     OW 2431   2.189   2.960   1.770  0.7377 -0.1628  0.0603
  811SOL    HW1 2432   2.163   2.980   1.672  2.0622 -2.9216  0.0247
  811SOL    HW2 2433   2.177   2.863   1.806 -1.6704 -2.3117  2.0814
  812SOL     OW 2434   1.393   2.367   2.945 -0.4363  0.0947  0.5661
  812SOL    HW1 2435   1.330   2.436   2.900  1.7713  0.9888 -0.0201
  812SOL    HW2 2436   1.462   2.425   3.003 -0.5129  2.4737  1.5596
  813SOL     OW 2437   1.790   0.839   1.653  0.3739  0.1635  0.2213
  813SOL    HW1 2438   1.688   0.839   1.630  0.0485 -0.4303 -1.8420
  813SOL    HW2 2439   1.837   0.764   1.598 -0.8196  1.4650  2.0830
  814SOL     OW 2440   0.650   0.218   1.628 -0.2481  0.1525  0.7759
  814SOL    HW1 2441   0.623   0.169   1.539 -0.4424  0.9355  2.0887
  814SOL    HW2 2442   0.742   0.195   1.658 -0.7005 -1.0527 -1.1315
  815SOL     OW 2443   0.617   1.011   0.238 -0.2743 -0.1744  0.5629
  815SOL    HW1 2444   0.649   0.933   0.177  0.4911 -0.4339  0.3429
  815SOL    HW2 2445   0.668   0.997   0.326 -2.0598 -3.7898  0.2221
  816SOL     OW 2446   2.127   1.554   2.660  0.1388 -0.7484 -0.4907
  816SOL    HW1 2447   2.082   1.533   2.570  1.5528  0.3316 -0.6857
  816SOL    HW2 2448   2.181   1.643   2.650  1.1832  0.8414 -0.5684
  817SOL     OW 2449   0.761   2.511   0.430  0.3917 -0.1268 -0.2655
  817SOL    HW1 2450   0.822   2.477   0.356 -1.5385  1.8431  1.9857
  817SOL    HW2 2451   0.732   2.439   0.498  2.2922 -1.0097  1.0725
  818SOL     OW 2452   1.800   0.396   3.059 -0.0101 -0.2026  0.0813
  818SOL    HW1 2453   1.873   0.389   2.990  1.1779 -0.4929 -1.6005
  818SOL    HW2 2454   1.759   0.302   0.001 -1.3885 -0.1917 -1.5154
  819SOL     OW 2455   1.524   0.371   0.130 -0.2476  0.1548  0.2086
  819SOL    HW1 2456   1.547   0.416   0.045  0.6898 -0.0018 -0.0440
  819SOL    HW2 2457   1.465   0.289   0.113 -0.8097 -0.0162 -1.5986
  820SOL     OW 2458   1.826   0.558   0.207  0.4805  0.2819 -0.5333
  820SOL    HW1 2459   1.842   0.491   0.134 -1.4175 -2.6557 -0.7145
  820SOL    HW2 2460   1.852   0.650   0.175  0.2598 -3.7141 -0.6691
  821SOL     OW 2461   2.404   0.057   0.263  0.3600 -0.1515 -0.8766
  821SOL    HW1 2462   2.443   0.125   0.325 -0.8941 -1.3295 -1.0440
  821SOL    HW2 2463   2.349   0.105   0.191 -0.5234 -0.6401  0.6498
  822SOL     OW 2464   0.634   2.493   1.713  0.1024 -0.0125  0.1668
  822SOL    HW1 2465   0.712   2.559   1.691  0.8018  1.0689  0.5730
  822SOL    HW2 2466   0.677   2.398   1.713  1.0139  0.1146  1.9911
  823SOL     OW 2467   0.081   1.518   1.265  0.0568 -0.8979  0.3030
  823SOL    HW1 2468   0.073   1.613   1.303 -0.3682  0.3753  2.5934
  823SOL    HW2 2469   0.007   1.452   1.297 -0.7819 -1.2433 -2.9795
  824SOL     OW 2470   1.782   2.977   2.415  0.2555 -0.1519 -0.0383
  824SOL    HW1 2471   1.745   2.882   2.417  1.0192  0.9258 -0.3099
  824SOL    HW2 2472   1.867   2.972   2.363 -2.1174 -0.7390 -2.3519
  825SOL     OW 2473   1.681   1.111   0.655 -0.7544 -0.1070 -0.3623
  825SOL    HW1 2474   1.683   1.007   0.665 -0.7976 -0.9483 -1.0523
  825SOL    HW2 2475   1.590   1.147   0.659  1.6697 -1.2578  0.5582
  826SOL     OW 2476   1.924   0.805   0.111  0.8170 -0.0475 -0.3749
  826SOL    HW1 2477   1.991   0.853   0.055 -4.6067 -2.4900  2.2444
  826SOL    HW2 2478   1.838   0.859   0.105 -0.2247 -0.4628  1.9172
  827SOL     OW 2479   0.622   1.204   1.420  0.0965 -0.3021  0.2836
  827SOL    HW1 2480   0.575   1.174   1.507  0.1548 -1.1487  1.1070
  827SOL    HW2 2481   0.572   1.277   1.367  1.3133 -0.1358  0.3398
  828SOL     OW 2482   2.266   1.572   2.015 -0.3355  0.2626  0.5104
  828SOL    HW1 2483   2.262   1.668   1.991 -2.2573 -0.4071 -1.6054
  828SOL    HW2 2484   2.217   1.527   1.940  0.7401  3.0248  0.6357
  829SOL     OW 2485   0.263   1.868   0.082 -0.5338 -0.4559  0.0771
  829SOL    HW1 2486   0.239   1.773   0.057  1.4934 -0.5891 -1.5338
  829SOL    HW2 2487   0.359   1.871   0.108 -2.3813  1.1004  0.3641
  830SOL     OW 2488   1.894   1.096   0.457 -0.4399 -0.1424 -0.2470
  830SOL    HW1 2489   1.811   1.108   0.513  2.4078 -0.9355  0.4500
  830SOL    HW2 2490   1.881   1.144   0.368  0.9080  0.6430  0.4901
  831SOL     OW 2491   2.806   1.856   3.056 -0.1061 -0.3430  0.3689
  831SOL    HW1 2492   2.706   1.840   3.055  0.6927  1.0313  0.6680
  831SOL    HW2 2493   2.842   1.860   0.076  1.1161 -1.9641 -0.8901
  832SOL     OW 2494   0.884   0.041   0.261 -0.1347  0.6007 -0.6565
  832SOL    HW1 2495   0.894   3.038   0.334  0.0288  0.0622  0.1867
  832SOL    HW2 2496   0.974   0.071   0.222  0.3813  2.6931  1.1452
  833SOL     OW 2497   1.063   0.672   2.187  0.0273  0.0972  0.0129
  833SOL    HW1 2498   1.120   0.712   2.111  1.3565 -0.2018 -0.0365
  833SOL    HW2 2499   1.055   0.571   2.171  0.1113  0.2501 -0.0365
  834SOL     OW 2500   0.129   0.392   1.026  0.1650 -0.4044  0.3704
  834SOL    HW1 2501   0.145   0.406   1.125 -2.6689 -2.9914  1.3680
  834SOL    HW2 2502   0.114   0.478   0.969  3.2112 -2.0101  2.5903
  835SOL     OW 2503   2.868   2.928   0.800  0.6033  0.3723  0.0585
  835SOL    HW1 2504   2.848   2.833   0.837 -1.9516 -1.7782  0.8121
  835SOL    HW2 2505   2.898   2.981   0.882  1.3366  0.8303 -0.9352
  836SOL     OW 2506   0.615   1.894   0.415  0.2471  0.0084  0.6387
  836SOL    HW1 2507   0.565   1.888   0.505  1.9506 -0.8674 -0.3593
  836SOL    HW2 2508   0.709   1.864   0.427 -3.3633  1.2849  2.9055
  837SOL     OW 2509   1.464   1.609   2.702  0.3532  0.2290  0.4384
  837SOL    HW1 2510   1.366   1.610   2.729 -0.1843 -0.4390 -1.5697
  837SOL    HW2 2511   1.469   1.611   2.597  0.2145 -1.5622 -0.0759
  838SOL     OW 2512   0.217   1.001   1.892  0.2734  0.7987  0.1092
  838SOL    HW1 2513   0.189   0.912   1.925  0.0840  0.2814  0.2568
  838SOL    HW2 2514   0.250   1.066   1.968 -0.6724  0.3474  1.6456
  839SOL     OW 2515   0.360   0.738   0.562 -0.1509 -0.3840 -0.1839
  839SOL    HW1 2516   0.319   0.649   0.598 -2.1159  1.9075 -3.0956
  839SOL    HW2 2517   0.353   0.804   0.633  0.3777 -2.1852 -2.9296
  840SOL     OW 2518   2.441   0.133   2.359 -0.0048 -0.0534 -0.2401
  840SOL    HW1 2519   2.486   0.117   2.450 -4.2140  1.0343  0.4853
  840SOL    HW2 2520   2.476   0.215   2.313  0.3978 -0.2472 -0.2590
  841SOL     OW 2521   0.925   2.432   3.060 -0.7462  0.4938  0.0783
  841SOL    HW1 2522   0.917   2.520   3.011 -1.1011 -3.0549 -1.3212
  841SOL    HW2 2523   0.900   2.356   2.995  2.0730  0.1234  1.6264
  842SOL     OW 2524   0.268   0.166   0.768  0.8022 -0.0183  0.2806
  842SOL    HW1 2525   0.324   0.193   0.848  3.4129  1.2896  3.1061
  842SOL    HW2 2526   0.214   0.085   0.793  2.0692  1.6373 -0.9925
  843SOL     OW 2527   3.044   0.871   0.035 -0.2406  0.0767 -0.2352
  843SOL    HW1 2528   2.955   0.833   0.063 -1.1634 -1.6235 -0.7358
  843SOL    HW2 2529   3.039   0.973   0.046 -1.5056 -1.5273  0.6814
  844SOL     OW 2530   1.040   2.511   2.748 -0.0781 -1.0498 -0.8458
  844SOL    HW1 2531   1.047   2.447   2.673 -2.1321  2.7776 -0.0055
  844SOL    HW2 2532   1.132   2.528   2.795 -2.2475 -1.6458 -0.0183
  845SOL     OW 2533   2.486   0.098   2.609 -0.8947  0.5036 -0.4206
  845SOL    HW1 2534   2.569   0.069   2.651 -2.8714 -2.0100  0.8156
  845SOL    HW2 2535   2.415   0.076   2.679  3.6095 -1.3276  1.8539
  846SOL     OW 2536   1.895   1.906   2.915  0.0518  0.0081 -0.2720
  846SOL    HW1 2537   1.884   1.846   2.835 -0.9044 -2.9958  0.0657
  846SOL    HW2 2538   1.843   1.874   2.998 -1.2292 -0.7579 -1.8405
  847SOL     OW 2539   2.564   2.920   0.114  0.2908 -0.5319  0.2899
  847SOL    HW1 2540   2.541   2.991   0.182  1.5910  1.0651  0.2018
  847SOL    HW2 2541   2.651   2.867   0.138  0.7904  0.9825 -3.0991
  848SOL     OW 2542   0.612   0.448   0.385  0.3428  0.0413 -0.0442
  848SOL    HW1 2543   0.605   0.431   0.488 -0.4577  0.3992  0.2832
  848SOL    HW2 2544   0.617   0.357   0.335 -3.0402  2.5783 -0.8150
  849SOL     OW 2545   1.466   2.974   1.609  0.0073  0.2019  0.9763
  849SOL    HW1 2546   1.390   3.005   1.675  0.1223 -0.0996  3.1900
  849SOL    HW2 2547   1.554   3.002   1.648 -2.5132 -0.5444 -0.2091
  850SOL     OW 2548   0.829   1.278   0.594 -0.5595 -0.3477  0.4433
  850SOL    HW1 2549   0.899   1.234   0.533  0.9478  0.3533 -0.4925
  850SOL    HW2 2550   0.755   1.217   0.619  0.3821 -0.4408 -0.2104
  851SOL     OW 2551   0.320   1.016   2.859  0.0118  0.1475 -0.1137
  851SOL    HW1 2552   0.287   0.938   2.919 -0.5582 -1.5639 -0.7300
  851SOL    HW2 2553   0.365   1.094   2.903  0.6303  1.6336 -2.0976
  852SOL     OW 2554   1.205   0.232   1.713  0.0945 -0.4336 -0.3333
  852SOL    HW1 2555   1.240   0.144   1.750  0.7184  2.4281  1.3020
  852SOL    HW2 2556   1.250   0.269   1.631  3.0157 -0.3686  1.4117
  853SOL     OW 2557   2.425   1.649   0.224 -0.0081 -0.1396 -0.8708
  853SOL    HW1 2558   2.432   1.629   0.128  0.2910 -1.2462  2.2744
  853SOL    HW2 2559   2.514   1.644   0.267  2.1076  0.5247  0.6764
  854SOL     OW 2560   0.914   1.080   1.911 -0.0148  0.0077 -0.0176
  854SOL    HW1 2561   0.873   1.170   1.930 -0.9892  0.3171  0.0406
  854SOL    HW2 2562   0.967   1.039   1.990  0.5822 -1.7977  1.6382
  855SOL     OW 2563   0.329   2.658   0.097 -0.3597 -0.2155 -0.2593
  855SOL    HW1 2564   0.279   2.699   0.015  1.3711 -3.2440  1.1670
  855SOL    HW2 2565   0.321   2.555   0.079  0.0779 -2.4371  0.0188
  856SOL     OW 2566   0.651   0.895   2.004  0.0041  0.8904 -0.0533
  856SOL    HW1 2567   0.671   0.843   1.918 -1.5252 -4.7045  0.1743
  856SOL    HW2 2568   0.730   0.884   2.075  0.8192 -0.6544  0.0373
  857SOL     OW 2569   1.155   0.972   2.443 -0.0432 -0.7466  0.0427
  857SOL    HW1 2570   1.180   0.982   2.344  1.5456 -0.8722 -0.8026
  857SOL    HW2 2571   1.149   0.872   2.466 -2.3075 -1.8064 -0.6654
  858SOL     OW 2572   3.069   1.335   2.077  0.2301 -0.1813  0.4921
  858SOL    HW1 2573   0.042   1.427   2.101  2.0142  0.8010 -0.1814
  858SOL    HW2 2574   0.056   1.293   2.001  0.9454 -1.3558  0.9608
  859SOL     OW 2575   2.659   0.367   0.792  0.3794 -1.1048 -0.7789
  859SOL    HW1 2576   2.624   0.448   0.841 -0.7836 -0.9680 -1.4047
  859SOL    HW2 2577   2.685   0.388   0.698 -1.5111 -0.1077  2.0090
  860SOL     OW 2578   1.725   3.046   0.179 -0.2772  0.5305 -0.1540
  860SOL    HW1 2579   1.698   0.061   0.231  0.2938  1.1441  1.0341
  860SOL    HW2 2580   1.727   2.964   0.239 -1.3997  0.5680  2.8168
  861SOL     OW 2581   0.879   0.580   1.145  0.1572 -0.0991  0.5504
  861SOL    HW1 2582   0.797   0.599   1.088  0.3971  1.2302 -1.4191
  861SOL    HW2 2583   0.933   0.664   1.134  1.5932 -0.9252  0.9833
  862SOL     OW 2584   1.399   0.216   2.386  0.4438  0.7890  0.2112
  862SOL    HW1 2585   1.379   0.137   2.446  0.2886 -0.5801  0.1247
  862SOL    HW2 2586   1.429   0.181   2.292 -2.5554 -0.2362  0.4102
  863SOL     OW 2587   2.412   2.394   0.614 -0.2411  0.3331 -0.5551
  863SOL    HW1 2588   2.465   2.427   0.530 -0.4655  1.2602 -2.3877
  863SOL    HW2 2589   2.329   2.453   0.628  1.1895  0.7893 -1.1827
  864SOL     OW 2590   2.683   0.126   2.070 -0.1782 -0.1714  0.0736
  864SOL    HW1 2591   2.623   0.104   1.993  0.7476 -1.9410 -0.0890
  864SOL    HW2 2592   2.751   0.201   2.045  2.2869  0.1370  0.4393
  865SOL     OW 2593   1.517   0.850   1.611 -0.0375  0.3261 -0.2591
  865SOL    HW1 2594   1.474   0.858   1.706  2.1734 -2.1436 -1.5915
  865SOL    HW2 2595   1.457   0.820   1.536  0.3058  0.6635 -1.3557
  866SOL     OW 2596   1.613   2.491   1.172 -0.1359  0.6802  0.0947
  866SOL    HW1 2597   1.557   2.423   1.118 -0.1309 -1.2895  2.3036
  866SOL    HW2 2598   1.650   2.568   1.114  0.2435  0.3600  0.3702
  867SOL     OW 2599   2.049   2.698   0.466 -0.1613  0.5758  0.7474
  867SOL    HW1 2600   1.997   2.779   0.495  2.5832  0.2435 -0.8921
  867SOL    HW2 2601   2.076   2.700   0.368 -1.4275 -1.1264  1.8693
  868SOL     OW 2602   0.366   2.116   1.872 -0.1416 -0.4115 -0.6253
  868SOL    HW1 2603   0.343   2.048   1.801  1.1261  1.9235 -1.7484
  868SOL    HW2 2604   0.330   2.207   1.838  0.9331  3.2280 -1.0044
  869SOL     OW 2605   2.168   2.371   2.474  0.1495  0.4281  0.0879
  869SOL    HW1 2606   2.170   2.469   2.504  1.1777  0.5493 -0.1017
  869SOL    HW2 2607   2.244   2.362   2.407 -4.0571  3.1847  0.7969
  870SOL     OW 2608   1.740   1.569   0.805 -0.5048 -0.0368  0.2040
  870SOL    HW1 2609   1.769   1.534   0.716  1.9201  1.8667  0.1479
  870SOL    HW2 2610   1.706   1.491   0.868 -0.4124 -2.2563  4.0085
  871SOL     OW 2611   0.269   1.529   1.083 -0.3094  0.5412 -0.1516
  871SOL    HW1 2612   0.238   1.623   1.052  1.1964 -0.1157 -0.6385
  871SOL    HW2 2613   0.202   1.494   1.152  1.4103 -0.6231  2.1811
  872SOL     OW 2614   0.557   1.488   2.499  0.4232  0.0210 -0.8375
  872SOL    HW1 2615   0.558   1.387   2.482 -0.5602 -1.7785  2.4249
  872SOL    HW2 2616   0.607   1.508   2.583  1.3059 -0.0406 -1.7425
  873SOL     OW 2617   0.762   1.866   1.878  0.0301 -0.0085  0.1056
  873SOL    HW1 2618   0.832   1.914   1.825  1.7490  0.3617  0.2780
  873SOL    HW2 2619   0.734   1.777   1.830 -0.4425  0.8815  0.8459
  874SOL     OW 2620   0.867   0.663   1.935 -0.0373  0.0695 -0.5223
  874SOL    HW1 2621   0.934   0.600   1.895 -0.3666 -2.3045  1.1044
  874SOL    HW2 2622   0.914   0.737   1.991 -1.8125 -1.4623  0.7042
  875SOL     OW 2623   2.729   2.649   0.517 -0.0615  0.4797  0.4282
  875SOL    HW1 2624   2.646   2.599   0.487  2.5026  1.4716 -2.1051
  875SOL    HW2 2625   2.716   2.732   0.575  2.2559 -1.6863  2.2132
  876SOL     OW 2626   0.655   1.322   0.329  0.2677 -0.6807 -0.0193
  876SOL    HW1 2627   0.707   1.312   0.418  0.1493 -0.1543  0.5227
  876SOL    HW2 2628   0.556   1.325   0.348  0.5937  1.6360  1.8921
  877SOL     OW 2629   2.876   0.163   0.737 -0.2025  0.0292  0.4038
  877SOL    HW1 2630   2.858   0.240   0.799 -2.3834 -0.8779 -2.0631
  877SOL    HW2 2631   2.813   0.086   0.762  1.0479  3.3246  1.0490
  878SOL     OW 2632   2.108   1.627   0.547 -0.4126  0.0885 -0.3138
  878SOL    HW1 2633   2.151   1.598   0.462 -0.0409  0.5678  2.2900
  878SOL    HW2 2634   2.081   1.548   0.606 -0.2886  0.4859 -1.9429
  879SOL     OW 2635   2.391   1.607   1.291  0.2469 -0.0777 -0.1435
  879SOL    HW1 2636   2.416   1.528   1.355 -0.2262  1.4780  0.4050
  879SOL    HW2 2637   2.416   1.595   1.193 -0.0945  0.2251  0.4530
  880SOL     OW 2638   0.508   2.332   0.772  0.1883 -0.5637 -0.1875
  880SOL    HW1 2639   0.424   2.308   0.715 -0.8766  0.9617 -0.9101
  880SOL    HW2 2640   0.514   2.435   0.780  0.6778 -0.7636 -2.1424
  881SOL     OW 2641   0.988   1.019   0.853  0.1830  0.1564 -0.4943
  881SOL    HW1 2642   1.037   0.990   0.767  1.7040  1.3227 -0.9075
  881SOL    HW2 2643   1.030   1.106   0.894  3.8926 -1.5800  0.5367
  882SOL     OW 2644   2.273   0.882   0.726 -0.0143 -0.0075 -0.2684
  882SOL    HW1 2645   2.229   0.961   0.676 -0.7556  1.1894  0.4040
  882SOL    HW2 2646   2.244   0.797   0.678  0.3265  1.2232 -1.7644
  883SOL     OW 2647   1.560   0.115   1.828 -0.0402  0.2445 -0.5222
  883SOL    HW1 2648   1.600   0.136   1.916 -2.8131  1.2361  0.2176
  883SOL    HW2 2649   1.463   0.087   1.838  1.4046 -0.7782 -0.2773
  884SOL     OW 2650   2.798   2.961   1.399 -0.3977  0.2722 -0.6268
  884SOL    HW1 2651   2.748   3.009   1.326 -0.1907 -0.4854  0.1174
  884SOL    HW2 2652   2.780   2.996   1.490 -0.6894 -1.0364 -1.0508
  885SOL     OW 2653   1.435   0.799   2.385  0.0330 -0.0369  0.0051
  885SOL    HW1 2654   1.360   0.771   2.326 -0.0008  0.8191 -0.2010
  885SOL    HW2 2655   1.413   0.878   2.447 -0.7697 -0.7451  0.9248
  886SOL     OW 2656   1.728   0.528   2.266  0.2158  0.4583  0.4311
  886SOL    HW1 2657   1.772   0.493   2.180 -1.4407  2.8210  2.3506
  886SOL    HW2 2658   1.794   0.575   2.327 -0.6318 -0.0381 -1.0155
  887SOL     OW 2659   1.477   0.472   1.349  0.1107 -0.1734  0.7829
  887SOL    HW1 2660   1.414   0.441   1.272 -1.9358 -2.1376 -0.6047
  887SOL    HW2 2661   1.574   0.451   1.324  1.3861 -0.2204 -1.0510
  888SOL     OW 2662   2.616   1.648   2.146  0.0742 -0.6804 -0.1788
  888SOL    HW1 2663   2.640   1.677   2.050  3.9905 -1.3077  1.6661
  888SOL    HW2 2664   2.664   1.566   2.182 -0.6606 -3.2048 -1.4084
  889SOL     OW 2665   1.706   2.257   0.666  0.3517 -0.0781 -0.2143
  889SOL    HW1 2666   1.666   2.210   0.750  1.5820 -1.1615 -1.8597
  889SOL    HW2 2667   1.808   2.261   0.676  0.3057 -0.7417 -1.0833
  890SOL     OW 2668   1.050   1.946   0.598 -1.0583 -0.5137 -0.1122
  890SOL    HW1 2669   1.053   1.871   0.672  0.4375 -2.5445  1.6242
  890SOL    HW2 2670   0.984   2.017   0.629 -1.8792 -0.7761  0.5999
  891SOL     OW 2671   2.746   0.866   2.818 -0.1171 -0.1439 -0.0263
  891SOL    HW1 2672   2.817   0.794   2.836 -1.7515  0.4054  1.2169
  891SOL    HW2 2673   2.680   0.879   2.893  2.2054 -0.2926 -0.6341
  892SOL     OW 2674   1.123   0.668   2.465  0.3890  0.4896 -0.4644
  892SOL    HW1 2675   1.077   0.621   2.383 -0.5032 -1.9867 -3.0045
  892SOL    HW2 2676   1.202   0.615   2.498 -1.1045  0.7837 -0.1748
  893SOL     OW 2677   1.551   0.073   1.230 -0.1897  0.0310  0.0351
  893SOL    HW1 2678   1.627   0.138   1.250 -0.5556  0.6332 -0.6061
  893SOL    HW2 2679   1.567   3.056   1.282  1.9945  1.7533  0.4391
  894SOL     OW 2680   2.646   2.889   0.636 -0.5003 -0.1989 -0.2777
  894SOL    HW1 2681   2.546   2.892   0.658  0.9130  1.5099  0.4352
  894SOL    HW2 2682   2.702   2.914   0.719  0.3737  1.1837  0.0072
  895SOL     OW 2683   1.766   2.678   2.984  0.8092 -0.0091 -0.2851
  895SOL    HW1 2684   1.742   2.657   2.888  0.6904  1.5928  0.7239
  895SOL    HW2 2685   1.866   2.702   2.990  2.4847  1.9659 -0.5189
  896SOL     OW 2686   2.085   0.037   2.085 -0.1242  0.0975 -0.2663
  896SOL    HW1 2687   2.034   3.016   2.087 -2.9497  1.4076 -0.2937
  896SOL    HW2 2688   2.061   0.100   2.161 -0.5891  0.3420 -1.1842
  897SOL     OW 2689   0.293   1.872   1.495 -0.2760  0.4549  0.2712
  897SOL    HW1 2690   0.310   1.770   1.477  0.4449 -2.8475 -0.5141
  897SOL    HW2 2691   0.334   1.927   1.422  0.0550 -0.1117  4.1452
  898SOL     OW 2692   2.648   1.766   1.902 -0.0458 -0.0213 -0.2931
  898SOL    HW1 2693   2.571   1.832   1.913  0.0497 -1.1710  0.4923
  898SOL    HW2 2694   2.656   1.741   1.803 -1.1015 -1.1625  1.9127
  899SOL     OW 2695   1.340   1.940   1.214  0.2861  0.2761  0.0889
  899SOL    HW1 2696   1.283   1.992   1.148  1.6163 -1.0896  1.2579
  899SOL    HW2 2697   1.368   1.852   1.178 -1.7984  1.7416  0.5909
  900SOL     OW 2698   0.970   0.074   2.883  0.4439 -0.1589  0.4297
  900SOL    HW1 2699   0.883   0.091   2.938 -0.5927 -0.3495 -0.3337
  900SOL    HW2 2700   0.987   0.145   2.817 -0.1717 -1.1428  0.1339
  901SOL     OW 2701   1.454   1.598   2.433 -0.7077  0.4273  0.7943
  901SOL    HW1 2702   1.403   1.641   2.353  1.8190  1.3940 -1.3900
  901SOL    HW2 2703   1.553   1.600   2.409 -1.9428  2.3650  0.0095
  902SOL     OW 2704   2.901   3.068   2.881  0.3102 -0.2681 -0.8148
  902SOL    HW1 2705   2.856   0.036   2.960  1.1277 -0.3462 -3.6527
  902SOL    HW2 2706   3.004   3.061   2.889  2.6895 -0.4332  1.8507
  903SOL     OW 2707   2.109   0.885   2.022  0.1961 -0.0158 -0.0473
  903SOL    HW1 2708   2.030   0.844   1.974 -2.7628  1.5917 -0.7248
  903SOL    HW2 2709   2.151   0.822   2.093  2.8307  0.4759 -0.2348
  904SOL     OW 2710   1.491   0.418   2.538  0.5828  0.2591  0.0117
  904SOL    HW1 2711   1.590   0.398   2.548  1.8000 -0.9764  3.2294
  904SOL    HW2 2712   1.449   0.335   2.503  1.0850 -0.0058 -1.7400
  905SOL     OW 2713   2.134   2.581   1.616 -0.7310 -0.0262  0.2942
  905SOL    HW1 2714   2.236   2.578   1.590 -1.8763 -1.3560  0.2534
  905SOL    HW2 2715   2.119   2.621   1.710  0.5184 -0.3332  1.0509
  906SOL     OW 2716   1.716   1.750   0.381  0.1638 -0.2114  0.3457
  906SOL    HW1 2717   1.696   1.675   0.312 -0.6803 -4.3514  1.2538
  906SOL    HW2 2718   1.729   1.840   0.330  2.1637 -1.4739 -1.6224
  907SOL     OW 2719   0.811   2.783   0.709 -0.2525 -0.6642 -0.1618
  907SOL    HW1 2720   0.791   2.883   0.737 -1.5388  4.1760 -0.4101
  907SOL    HW2 2721   0.825   2.780   0.607 -0.5968  0.3246 -1.8815
  908SOL     OW 2722   1.143   2.658   1.858 -0.6982 -0.5430  0.0543
  908SOL    HW1 2723   1.247   2.667   1.865  1.1894 -2.2416  0.3028
  908SOL    HW2 2724   1.120   2.563   1.837  1.7584 -0.0583  1.8279
  909SOL     OW 2725   2.102   0.159   1.814 -0.1058  0.7200 -0.4932
  909SOL    HW1 2726   2.147   0.070   1.793  1.5197  2.6581  0.7840
  909SOL    HW2 2727   2.073   0.153   1.910 -1.1467 -0.9641  1.4978
  910SOL     OW 2728   1.306   1.009   2.935  0.1506 -0.2110 -0.0537
  910SOL    HW1 2729   1.232   1.074   2.961 -3.6942 -2.0970  0.1025
  910SOL    HW2 2730   1.262   0.914   2.938 -0.5905  2.1386  2.1265
  911SOL     OW 2731   0.006   1.133   0.022  0.6108 -0.2991 -0.1642
  911SOL    HW1 2732   2.989   1.176   0.053 -2.9447 -3.7133 -0.8119
  911SOL    HW2 2733   0.028   1.153   2.992 -0.2367 -0.7154 -0.0686
  912SOL     OW 2734   0.363   2.346   0.343 -0.0183  0.8031  0.1381
  912SOL    HW1 2735   0.439   2.272   0.336  2.7460 -1.8537 -2.1221
  912SOL    HW2 2736   0.322   2.366   0.251 -0.0652 -0.3296  0.4991
  913SOL     OW 2737   2.719   2.251   2.463  0.1711 -0.5433 -0.2128
  913SOL    HW1 2738   2.711   2.171   2.405  2.6515  1.1531  0.4829
  913SOL    HW2 2739   2.789   2.241   2.530 -2.9804 -1.8926 -1.8896
  914SOL     OW 2740   1.382   1.921   1.646  0.0393 -0.4944  0.4095
  914SOL    HW1 2741   1.441   1.904   1.571 -1.3645 -1.0698  2.3116
  914SOL    HW2 2742   1.379   1.852   1.725  0.1060  0.3032  0.1478
  915SOL     OW 2743   0.874   2.881   2.114 -0.0598 -0.6785 -0.5144
  915SOL    HW1 2744   0.840   2.805   2.057  1.6361  0.2919 -0.3214
  915SOL    HW2 2745   0.798   2.944   2.138 -2.8700  0.9462  0.5529
  916SOL     OW 2746   0.585   0.865   1.721 -0.2904 -0.0805 -0.2057
  916SOL    HW1 2747   0.485   0.871   1.730  1.4301  0.1141  0.0523
  916SOL    HW2 2748   0.621   0.769   1.713 -2.7176 -1.2154 -2.3368
  917SOL     OW 2749   2.800   0.530   0.611  0.0536  0.5739 -0.2088
  917SOL    HW1 2750   2.786   0.450   0.550 -1.5315  2.7317  0.7772
  917SOL    HW2 2751   2.773   0.615   0.557  2.3517 -0.6165 -0.2325
  918SOL     OW 2752   1.849   2.642   2.562  0.4308  0.2876  0.7074
  918SOL    HW1 2753   1.832   2.575   2.635 -2.9486 -0.4203 -4.2511
  918SOL    HW2 2754   1.762   2.684   2.526 -0.5781  0.8089 -0.9672
  919SOL     OW 2755   1.692   2.708   1.656 -0.7247  0.6203  0.7920
  919SOL    HW1 2756   1.617   2.669   1.599 -2.1812  1.1342  1.2921
  919SOL    HW2 2757   1.783   2.717   1.611 -1.2022  1.2291 -0.0263
  920SOL     OW 2758   0.563   0.648   2.985 -0.0715  0.0561 -0.0638
  920SOL    HW1 2759   0.529   0.714   2.914 -0.4971  1.3958 -0.3475
  920SOL    HW2 2760   0.601   0.570   2.933 -2.3694 -1.6742  3.1639
  921SOL     OW 2761   2.946   0.684   2.847  0.3795 -0.2316 -0.3963
  921SOL    HW1 2762   3.025   0.748   2.839 -1.7763 -2.4968  1.6352
  921SOL    HW2 2763   2.954   0.614   2.769  0.9649 -4.0034  1.9458
  922SOL     OW 2764   0.616   1.611   0.684  0.5923 -0.1076 -0.3623
  922SOL    HW1 2765   0.578   1.707   0.696 -2.2805  1.3190  1.8714
  922SOL    HW2 2766   0.679   1.595   0.604 -0.2329 -1.7982  1.1033
  923SOL     OW 2767   0.497   1.146   1.651  0.6557 -0.2859 -0.0968
  923SOL    HW1 2768   0.429   1.189   1.710 -0.5682 -0.1290  2.7754
  923SOL    HW2 2769   0.525   1.062   1.705 -0.3882 -0.6849  2.2287
  924SOL     OW 2770   1.726   0.141   3.044  0.2536  0.5562  0.1346
  924SOL    HW1 2771   1.740   0.074   0.047  1.2559  0.5343  0.9179
  924SOL    HW2 2772   1.793   0.119   2.969  2.0358  0.4749  1.8002
  925SOL     OW 2773   2.714   1.363   1.335  0.3291  0.6558 -0.2582
  925SOL    HW1 2774   2.673   1.280   1.287 -0.8789 -1.3105 -0.2347
  925SOL    HW2 2775   2.816   1.353   1.353 -1.4961  2.4853  3.4688
  926SOL     OW 2776   2.162   0.262   1.307 -0.4346 -0.6772 -0.1459
  926SOL    HW1 2777   2.129   0.303   1.398 -1.8755 -0.8748 -0.3106
  926SOL    HW2 2778   2.241   0.317   1.266 -0.6813 -0.0495 -2.5366
  927SOL     OW 2779   1.915   3.002   1.236  0.2195  0.4374 -0.5780
  927SOL    HW1 2780   1.858   2.925   1.267  1.6572  4.2358 -1.3694
  927SOL    HW2 2781   2.011   2.973   1.246 -0.3885 -0.0459  0.8198
  928SOL     OW 2782   3.021   1.148   2.258  0.0175 -0.1429 -0.0968
  928SOL    HW1 2783   3.028   1.237   2.206  0.2589 -1.0053  1.4880
  928SOL    HW2 2784   3.037   1.067   2.198 -0.1291 -1.3277  0.6922
  929SOL     OW 2785   2.689   0.870   1.102 -0.0712 -0.2687 -0.2503
  929SOL    HW1 2786   2.622   0.944   1.082 -0.8735  1.4067 -0.9851
  929SOL    HW2 2787   2.665   0.810   1.180 -0.2674 -0.0075  1.7647
  930SOL     OW 2788   2.980   2.590   2.048  0.3239  0.1649  0.0620
  930SOL    HW1 2789   3.021   2.680   2.019  0.0903  0.8392  0.4347
  930SOL    HW2 2790   3.008   2.518   1.977 -0.0929 -1.0092 -3.0564
  931SOL     OW 2791   1.770   0.655   1.109  0.2451 -0.2465  0.0555
  931SOL    HW1 2792   1.742   0.743   1.153 -0.4929  0.5020  1.1108
  931SOL    HW2 2793   1.838   0.609   1.170 -1.6612 -0.3215  2.2326
  932SOL     OW 2794   0.141   1.257   1.842  0.3829  0.0730  0.5417
  932SOL    HW1 2795   0.165   1.158   1.850  3.7258  0.0276  1.4184
  932SOL    HW2 2796   0.223   1.317   1.819  1.4577 -1.8308  0.3025
  933SOL     OW 2797   2.784   2.107   1.426  0.0035  0.2817 -0.2442
  933SOL    HW1 2798   2.722   2.161   1.489  0.3344 -0.0962  1.2295
  933SOL    HW2 2799   2.756   2.013   1.414 -1.2015  0.3798 -0.5814
  934SOL     OW 2800   0.661   1.874   1.270 -0.1275 -0.3002  0.5726
  934SOL    HW1 2801   0.719   1.793   1.277 -1.0154  0.7352 -2.5096
  934SOL    HW2 2802   0.641   1.922   1.361  1.2218  1.6443 -1.3423
  935SOL     OW 2803   2.834   1.391   1.714  1.0212 -0.3476 -0.4592
  935SOL    HW1 2804   2.879   1.301   1.699  1.4572 -1.2089  0.8291
  935SOL    HW2 2805   2.749   1.381   1.770  1.7521 -1.2287 -1.5289
  936SOL     OW 2806   2.441   1.384   1.726  0.0893  0.0230  0.0006
  936SOL    HW1 2807   2.511   1.400   1.798 -3.2917  2.2512 -0.8306
  936SOL    HW2 2808   2.354   1.432   1.743 -1.3233 -0.4225 -2.2565
  937SOL     OW 2809   1.977   0.814   1.317 -0.1408  0.7480 -0.1670
  937SOL    HW1 2810   2.040   0.827   1.394  0.7423 -1.4613  0.6414
  937SOL    HW2 2811   1.939   0.904   1.296  1.3914 -1.4672  0.3986
  938SOL     OW 2812   0.600   2.351   2.879  0.1848  0.0351 -0.0878
  938SOL    HW1 2813   0.609   2.451   2.865  0.1884  2.8605 -0.8343
  938SOL    HW2 2814   0.691   2.303   2.884 -0.0865 -2.0299 -1.2795
  939SOL     OW 2815   2.341   1.741   2.693 -0.3798 -0.2730 -0.0928
  939SOL    HW1 2816   2.428   1.691   2.688 -0.5979  0.8984  0.4482
  939SOL    HW2 2817   2.349   1.830   2.638 -1.1685  2.1017 -2.0863
  940SOL     OW 2818   1.638   2.051   0.496  0.0004  0.5530 -0.3098
  940SOL    HW1 2819   1.589   1.970   0.536 -0.4696  0.3073  0.4157
  940SOL    HW2 2820   1.663   2.126   0.565  2.3250  0.2583  1.9524
  941SOL     OW 2821   2.022   2.699   2.978  0.5143 -0.0656 -0.2780
  941SOL    HW1 2822   2.066   2.604   2.965  2.0112 -0.4149  0.0360
  941SOL    HW2 2823   2.087   2.778   2.949 -0.4912 -0.4248  1.1897
  942SOL     OW 2824   1.358   2.543   0.718 -0.1608  0.3466 -0.0528
  942SOL    HW1 2825   1.405   2.612   0.776 -0.7568 -2.4882 -1.2547
  942SOL    HW2 2826   1.325   2.470   0.777 -0.9698  2.9932 -0.6943
  943SOL     OW 2827   2.200   1.120   1.627  0.3421  0.4447  0.3823
  943SOL    HW1 2828   2.211   1.108   1.729  0.7826 -1.5147  0.5229
  943SOL    HW2 2829   2.137   1.193   1.592 -0.1879 -0.0278  0.5527
  944SOL     OW 2830   1.444   1.027   2.537 -0.6779  0.1129 -0.1209
  944SOL    HW1 2831   1.358   1.075   2.517 -0.1241 -1.0561 -0.5669
  944SOL    HW2 2832   1.489   1.056   2.620 -0.2575  0.9387  2.6421
  945SOL     OW 2833   2.761   2.009   1.139  0.5162  0.5395  0.5011
  945SOL    HW1 2834   2.731   1.955   1.218  1.4038 -1.8669 -4.2233
  945SOL    HW2 2835   2.765   2.108   1.169  0.7816  0.3222  0.1812
  946SOL     OW 2836   0.514   0.825   2.760 -0.1791  0.0865 -0.1224
  946SOL    HW1 2837   0.455   0.903   2.788  1.7515  0.6256  0.5986
  946SOL    HW2 2838   0.598   0.871   2.722 -0.9271 -1.0102  4.0181
  947SOL     OW 2839   1.918   2.977   1.834  0.1729  0.4747  0.0365
  947SOL    HW1 2840   1.904   3.047   1.909 -1.4729  0.8376 -1.0943
  947SOL    HW2 2841   2.018   2.957   1.818 -1.1916 -0.2035 -0.4263
  948SOL     OW 2842   0.115   1.657   0.876 -0.2330  0.1639 -0.1176
  948SOL    HW1 2843   0.133   1.734   0.941  0.4043 -1.3015  1.1895
  948SOL    HW2 2844   0.108   1.566   0.922  0.8369  0.0852  0.2652
  949SOL     OW 2845   1.260   1.067   1.927  0.1858 -0.2622  0.3541
  949SOL    HW1 2846   1.247   1.089   1.828 -0.7654  2.3588 -0.2628
  949SOL    HW2 2847   1.230   1.139   1.990  0.8646  0.2542  1.6619
  950SOL     OW 2848   0.228   0.831   1.002  0.0048 -0.1860  0.5128
  950SOL    HW1 2849   0.240   0.875   0.912  1.6773 -1.9714  0.9034
  950SOL    HW2 2850   0.297   0.755   1.020  1.1978 -1.4716 -2.2319
  951SOL     OW 2851   0.341   1.973   2.128  0.3242 -0.3276 -0.0484
  951SOL    HW1 2852   0.406   1.902   2.106 -0.8669  1.3692  1.5810
  951SOL    HW2 2853   0.341   2.042   2.048  0.2853  2.2381  1.1940
  952SOL     OW 2854   1.597   1.582   0.231  0.5477 -0.0859 -0.0658
  952SOL    HW1 2855   1.534   1.653   0.198  0.1251 -2.1298 -1.9751
  952SOL    HW2 2856   1.615   1.521   0.154  3.6642  2.1844 -1.4638
  953SOL     OW 2857   1.180   0.711   0.159  0.1825  0.2103  0.2261
  953SOL    HW1 2858   1.150   0.638   0.093  0.6152  0.9989  2.1780
  953SOL    HW2 2859   1.106   0.782   0.169 -0.5067 -2.7414 -0.0983
  954SOL     OW 2860   2.187   1.081   0.572  0.0004  0.0342  0.2715
  954SOL    HW1 2861   2.218   1.170   0.600 -0.2750 -3.6252 -0.4574
  954SOL    HW2 2862   2.093   1.084   0.533  2.2329 -2.7667  0.1527
  955SOL     OW 2863   2.601   2.667   2.920 -0.4044 -0.1628  0.0410
  955SOL    HW1 2864   2.543   2.737   2.870 -0.8742  2.6922 -1.6401
  955SOL    HW2 2865   2.689   2.707   2.950  0.7893  2.3060  1.1289
  956SOL     OW 2866   1.114   0.743   1.388 -0.1350  0.4570 -0.6743
  956SOL    HW1 2867   1.156   0.771   1.300 -0.1764 -0.0909 -1.4558
  956SOL    HW2 2868   1.107   0.640   1.390 -1.5976 -1.1222 -2.7911
  957SOL     OW 2869   1.675   1.157   1.387  0.2538 -0.0855 -0.9119
  957SOL    HW1 2870   1.772   1.161   1.420 -0.0357 -0.2005  0.7821
  957SOL    HW2 2871   1.610   1.142   1.463  2.0506  0.3916 -2.2851
  958SOL     OW 2872   0.375   1.693   0.529  0.3948 -0.6024  0.4150
  958SOL    HW1 2873   0.387   1.655   0.432 -1.3645 -2.3778 -3.0183
  958SOL    HW2 2874   0.453   1.647   0.581  0.3046 -0.2242 -1.0860
  959SOL     OW 2875   1.978   1.417   1.010 -0.0899 -0.2324  0.0548
  959SOL    HW1 2876   1.923   1.497   1.027  2.5667 -0.9441 -0.1578
  959SOL    HW2 2877   1.928   1.329   1.038  2.5232 -0.1537 -1.6061
  960SOL     OW 2878   0.003   1.181   2.810  0.3098  0.6265 -0.2656
  960SOL    HW1 2879   0.064   1.197   2.735 -0.7536 -1.9289  0.9701
  960SOL    HW2 2880   2.986   1.144   2.770  0.3399 -0.6829 -1.6738
  961SOL     OW 2881   1.043   1.547   0.686 -0.3789 -0.1916 -0.2105
  961SOL    HW1 2882   1.004   1.478   0.748 -2.5861  0.6793 -1.8216
  961SOL    HW2 2883   1.059   1.638   0.735  0.0553 -1.8169  2.5091
  962SOL     OW 2884   1.058   1.227   0.412 -0.2828  0.3210  0.6643
  962SOL    HW1 2885   1.095   1.146   0.461  1.1444 -2.4956 -0.8736
  962SOL    HW2 2886   1.119   1.313   0.423 -0.1376  2.8139  1.6284
  963SOL     OW 2887   1.294   2.009   2.275  0.3965  0.1020 -0.3337
  963SOL    HW1 2888   1.377   2.064   2.302 -0.1601  0.6824  3.2854
  963SOL    HW2 2889   1.241   2.004   2.361 -1.3253  0.2190 -3.3022
  964SOL     OW 2890   2.855   2.782   2.964 -0.4028 -0.1187 -0.0908
  964SOL    HW1 2891   2.863   2.859   2.895 -0.3626 -0.0084 -1.9058
  964SOL    HW2 2892   2.920   2.708   2.946 -2.2623  1.0735  0.5146
  965SOL     OW 2893   0.706   2.286   0.167  0.7897 -0.5579  0.2586
  965SOL    HW1 2894   0.805   2.284   0.182  1.7187 -1.1105  0.0860
  965SOL    HW2 2895   0.674   2.383   0.144  1.0764  3.2614  0.7106
  966SOL     OW 2896   2.977   1.813   2.853  0.2919  0.9846  0.7400
  966SOL    HW1 2897   2.922   1.850   2.928  0.2975 -2.3873 -1.3533
  966SOL    HW2 2898   2.955   1.847   2.760  4.6172  1.8783 -0.5677
  967SOL     OW 2899   1.978   2.975   0.055  0.0690 -0.9599  0.2138
  967SOL    HW1 2900   1.891   2.984   0.112 -3.6018  1.3847  0.2865
  967SOL    HW2 2901   2.062   2.976   0.113 -3.1009 -0.1641 -1.1821
  968SOL     OW 2902   1.924   2.924   0.575  0.2223 -0.0668  0.1339
  968SOL    HW1 2903   1.824   2.942   0.593 -1.2030 -2.1962  0.1501
  968SOL    HW2 2904   1.970   2.942   0.664 -1.0485 -1.4912 -0.4452
  969SOL     OW 2905   0.722   1.221   2.244  0.3535  0.3460 -0.5893
  969SOL    HW1 2906   0.643   1.157   2.247  1.2107  1.0227  0.4193
  969SOL    HW2 2907   0.741   1.270   2.336  3.5239  0.5614  0.5407
  970SOL     OW 2908   1.644   1.351   0.933 -0.1637  0.0590  0.7636
  970SOL    HW1 2909   1.662   1.255   0.903 -0.2651  1.1860  1.6499
  970SOL    HW2 2910   1.638   1.358   1.034  0.3113  0.1614 -2.2608
  971SOL     OW 2911   2.106   3.000   1.521  0.4538  0.4566 -0.3836
  971SOL    HW1 2912   2.092   0.029   1.497 -0.9382  0.6265  0.3202
  971SOL    HW2 2913   2.172   2.965   1.452 -1.7651  0.0066 -0.5591
  972SOL     OW 2914   0.086   2.765   1.654 -0.6024 -0.2373  0.8143
  972SOL    HW1 2915   0.149   2.760   1.738  1.5493  0.4930  1.2931
  972SOL    HW2 2916   0.024   2.686   1.646  0.5064  1.3835 -0.3201
  973SOL     OW 2917   0.104   0.304   2.464  0.0710 -0.2824  0.3119
  973SOL    HW1 2918   0.043   0.238   2.517 -1.0132  1.5237  1.0097
  973SOL    HW2 2919   0.152   0.369   2.529 -1.0516 -1.6301 -0.1605
  974SOL     OW 2920   2.244   1.173   2.260 -0.0681  0.2963  0.4610
  974SOL    HW1 2921   2.298   1.161   2.344  0.2849  1.2636 -0.9755
  974SOL    HW2 2922   2.148   1.134   2.260  0.2042 -3.0754  1.5434
  975SOL     OW 2923   0.583   0.085   1.407 -0.1535  0.3450 -0.1299
  975SOL    HW1 2924   0.503   0.017   1.404 -0.3575 -0.2881 -0.0166
  975SOL    HW2 2925   0.623   0.097   1.313  0.5909  1.0020  1.8505
  976SOL     OW 2926   0.925   2.094   2.206  0.2964  0.1417 -0.3606
  976SOL    HW1 2927   0.828   2.120   2.186 -0.9038  4.4967 -0.2882
  976SOL    HW2 2928   0.934   2.066   2.304  1.3816 -0.2475 -0.6758
  977SOL     OW 2929   0.603   0.149   0.609 -0.6517 -0.4776  0.1446
  977SOL    HW1 2930   0.603   0.252   0.623 -1.1149  2.2429  0.1956
  977SOL    HW2 2931   0.524   0.119   0.556 -0.1112  1.6928  1.1263
  978SOL     OW 2932   2.796   1.379   2.107 -0.1567 -0.1168 -0.0893
  978SOL    HW1 2933   2.891   1.347   2.095  0.0272  0.0803 -0.7261
  978SOL    HW2 2934   2.779   1.397   2.206 -0.5999 -0.6773  1.0586
  979SOL     OW 2935   1.735   0.025   1.665 -0.4590  0.4970 -0.2554
  979SOL    HW1 2936   1.659   0.063   1.725  2.9373  1.2695  0.0191
  979SOL    HW2 2937   1.808   3.037   1.716  1.2342 -0.3488  0.4726
  980SOL     OW 2938   1.532   1.542   1.806  0.9821  0.1424 -0.0430
  980SOL    HW1 2939   1.536   1.547   1.704 -1.5841 -0.8268  1.2778
  980SOL    HW2 2940   1.470   1.612   1.849 -0.4160 -1.0214  1.4068
  981SOL     OW 2941   2.678   0.690   1.309 -0.1907  0.5573  0.2618
  981SOL    HW1 2942   2.601   0.640   1.354  0.5958 -0.9177 -2.7933
  981SOL    HW2 2943   2.749   0.712   1.379  2.6346 -0.6124 -0.1214
  982SOL     OW 2944   0.425   0.064   2.776 -0.4280 -0.2450  0.1777
  982SOL    HW1 2945   0.485   0.041   2.694  2.0467  2.4053 -0.5797
  982SOL    HW2 2946   0.325   0.075   2.759  2.7589 -1.9442  1.8786
  983SOL     OW 2947   2.588   0.618   2.429  0.2980  0.1169  0.1713
  983SOL    HW1 2948   2.635   0.696   2.480  2.5150 -0.2595  0.5295
  983SOL    HW2 2949   2.623   0.609   2.333  0.1488  0.3523 -0.1043
  984SOL     OW 2950   1.315   3.051   1.814 -0.4601 -0.5426  0.4515
  984SOL    HW1 2951   1.385   3.014   1.879 -1.2422  0.9918  0.9087
  984SOL    HW2 2952   1.231   2.998   1.832  0.1844 -1.3669 -1.1605
  985SOL     OW 2953   1.812   1.820   2.189  0.7600  0.0772  0.6508
  985SOL    HW1 2954   1.875   1.858   2.117  0.1146 -0.3289  0.4372
  985SOL    HW2 2955   1.723   1.864   2.179  1.2898  2.4396  0.0050
  986SOL     OW 2956   2.370   0.409   1.208 -0.0340  0.1024 -0.0945
  986SOL    HW1 2957   2.446   0.354   1.170  0.9455 -3.1968 -0.0051
  986SOL    HW2 2958   2.386   0.506   1.193  0.5261 -2.4548  4.5439
  987SOL     OW 2959   2.675   1.068   1.446  0.4483  0.1884 -0.3060
  987SOL    HW1 2960   2.592   1.069   1.511 -1.2748  0.1021 -0.5014
  987SOL    HW2 2961   2.652   1.088   1.349  2.1832  1.2022  2.3085
  988SOL     OW 2962   2.845   1.055   1.944 -0.2217  0.5964 -0.3169
  988SOL    HW1 2963   2.924   1.046   2.006 -0.2715  5.0699  4.5840
  988SOL    HW2 2964   2.788   1.127   1.989 -2.1864  0.4044  0.9759
  989SOL     OW 2965   1.384   2.152   0.083 -0.1625 -0.0792  0.4078
  989SOL    HW1 2966   1.487   2.155   0.085 -1.4819  1.1466 -1.0005
  989SOL    HW2 2967   1.359   2.212   0.003 -1.3551 -2.6422  0.1954
  990SOL     OW 2968   1.433   0.671   2.616  0.1480  0.3444  0.1117
  990SOL    HW1 2969   1.448   0.574   2.596  2.6202  1.1635  0.1864
  990SOL    HW2 2970   1.444   0.720   2.527  1.3970 -1.5519  2.1807
  991SOL     OW 2971   1.378   0.920   0.573 -0.9311  0.3012  0.1689
  991SOL    HW1 2972   1.410   0.893   0.667 -0.9351 -1.1075  0.8459
  991SOL    HW2 2973   1.446   0.886   0.502  1.7193  0.4603 -3.0290
  992SOL     OW 2974   2.651   1.878   0.934 -0.2109  0.3902  0.1650
  992SOL    HW1 2975   2.700   1.892   0.847 -0.8533 -1.0746 -0.3243
  992SOL    HW2 2976   2.709   1.911   1.014  2.5259  2.6398 -1.3670
  993SOL     OW 2977   0.076   0.627   0.898 -0.1092 -0.4604  0.5353
  993SOL    HW1 2978   0.102   0.722   0.933  2.0389  1.5490 -1.4040
  993SOL    HW2 2979   0.087   0.625   0.797 -0.6520 -1.0015  1.4960
  994SOL     OW 2980   0.175   2.046   2.560 -0.3942 -0.2192 -0.2574
  994SOL    HW1 2981   0.148   2.113   2.483 -0.1443 -0.6448 -1.0333
  994SOL    HW2 2982   0.247   1.990   2.521  0.0246 -0.2570  2.9370
  995SOL     OW 2983   1.921   1.073   2.679 -0.1766  0.0384 -0.1621
  995SOL    HW1 2984   1.866   1.015   2.744  1.9375 -2.8175  0.7557
  995SOL    HW2 2985   1.865   1.118   2.613  0.2402  0.6902  1.5674
  996SOL     OW 2986   2.834   1.102   0.575 -0.2062  0.2269 -0.2115
  996SOL    HW1 2987   2.823   1.108   0.678 -1.0488 -3.4610 -2.6154
  996SOL    HW2 2988   2.744   1.071   0.536  0.6436 -1.1037 -0.7937
  997SOL     OW 2989   1.664   0.751   2.039 -0.1714  0.1015  0.1104
  997SOL    HW1 2990   1.645   0.656   2.069 -2.1724  0.7729  1.9074
  997SOL    HW2 2991   1.753   0.763   1.994  0.5908 -0.2055 -3.3221
  998SOL     OW 2992   2.949   1.610   0.306 -0.2436  0.1079 -0.0068
  998SOL    HW1 2993   2.931   1.708   0.277  0.1873  1.5013  0.1945
  998SOL    HW2 2994   2.943   1.613   0.405 -0.8146 -3.9882 -1.4186
  999SOL     OW 2995   0.034   2.210   0.146  0.1390 -0.2390 -0.6828
  999SOL    HW1 2996   0.034   2.118   0.192 -1.4180  0.7888 -1.5173
  999SOL    HW2 2997   0.008   2.284   0.211 -0.7507  1.5586 -1.3794
 1000SOL     OW 2998   0.944   0.693   2.677 -0.2452  0.6471  0.1356
 1000SOL    HW1 2999   0.979   0.702   2.772  0.4610  2.6397 -2.5975
 1000SOL    HW2 3000   1.021   0.688   2.615 -0.2453 -0.6075  0.8956
   3.06960   3.06960   3.06960
