1000 SPC/Fw water molecules t= 433.00000 step= 433000
 3000
    1SOL     OW    1   0.035   0.226   1.316 -0.3078 -0.2891 -0.4820
    1SOL    HW1    2   0.104   0.297   1.295 -0.4733  0.1743  0.1640
    1SOL    HW2    3   0.076   0.153   1.375 -1.3058  1.5351 -0.2371
    2SOL     OW    4   2.789   3.043   3.076 -0.7986  0.4547 -0.0170
    2SOL    HW1    5   2.788   2.947   3.123  0.0801 -3.4666  2.3188
    2SOL    HW2    6   2.701   3.059   3.021  1.1584  2.0184  2.1985
    3SOL     OW    7   1.392   2.665   0.063 -0.3034 -0.0533 -0.3166
    3SOL    HW1    8   1.305   2.608   0.047 -1.8175 -0.9215  3.1065
    3SOL    HW2    9   1.440   2.638   0.145  0.5027  0.2060  1.6614
    4SOL     OW   10   1.306   2.846   2.513  0.4969 -0.1198  0.1994
    4SOL    HW1   11   1.326   2.749   2.505  1.0468  0.3894  0.8247
    4SOL    HW2   12   1.205   2.859   2.495  0.9001 -0.7480  0.6480
    5SOL     OW   13   2.272   3.113   2.141  0.2242 -0.2780  0.2645
    5SOL    HW1   14   2.298   0.067   2.117 -0.7419  0.0586  0.1849
    5SOL    HW2   15   2.182   3.099   2.103  2.1476  3.0611 -1.5056
    6SOL     OW   16   2.700   2.168   0.996  0.4887 -0.3691 -0.1364
    6SOL    HW1   17   2.787   2.192   1.041  1.0822 -0.1350 -0.2188
    6SOL    HW2   18   2.619   2.211   1.050 -1.0543  2.2262  1.9123
    7SOL     OW   19   1.620   1.856   0.628 -0.5927  0.1667 -0.1417
    7SOL    HW1   20   1.550   1.815   0.562 -0.4727 -0.7468  2.6848
    7SOL    HW2   21   1.563   1.877   0.712 -2.4112 -0.0405  0.6597
    8SOL     OW   22   0.484   1.438   1.115 -0.2720 -0.3480  0.3787
    8SOL    HW1   23   0.458   1.448   1.012  1.1503  0.0420 -0.8008
    8SOL    HW2   24   0.583   1.457   1.126 -0.5832  0.9409 -1.7003
    9SOL     OW   25   3.139   2.973   1.526  0.3019  0.0601 -0.2241
    9SOL    HW1   26   3.037   2.973   1.530 -1.2430  0.6826  1.6766
    9SOL    HW2   27   0.028   2.882   1.485  1.1857 -1.6628 -2.2514
   10SOL     OW   28   1.056   2.389   0.484  0.3599 -0.3387  0.4113
   10SOL    HW1   29   1.153   2.366   0.495  0.0644  1.2337 -2.4847
   10SOL    HW2   30   1.021   2.473   0.536  0.8049  0.0242 -0.9470
   11SOL     OW   31   1.909   1.772   1.199  0.1520  0.2823 -0.4606
   11SOL    HW1   32   1.834   1.751   1.136  2.2428 -0.2126  1.5888
   11SOL    HW2   33   1.919   1.693   1.259 -1.1700 -2.3421 -0.8950
   12SOL     OW   34   3.092   0.988   2.086 -0.2563  0.0005  0.1266
   12SOL    HW1   35   3.076   0.954   1.991 -0.1452  1.4386 -0.7535
   12SOL    HW2   36   0.044   0.961   2.117  1.8895  2.0304 -0.1537
   13SOL     OW   37   2.372   2.941   0.098 -0.2618 -0.2028  0.4304
   13SOL    HW1   38   2.386   2.871   0.021  2.4597  0.4863 -3.5500
   13SOL    HW2   39   2.350   3.035   0.058 -0.7440 -0.1086  0.0811
   14SOL     OW   40   1.583   1.881   0.212  0.3702 -0.1812 -0.1061
   14SOL    HW1   41   1.489   1.890   0.178 -0.5405  1.5498  0.5096
   14SOL    HW2   42   1.610   1.967   0.258 -0.7022  1.4829  0.1124
   15SOL     OW   43   0.019   2.869   1.899 -0.3858 -0.3221 -0.2111
   15SOL    HW1   44   0.073   2.808   1.837 -0.3603 -1.0358 -0.4431
   15SOL    HW2   45   3.069   2.876   1.859 -3.0129  0.4844 -1.2089
   16SOL     OW   46   2.892   0.607   0.737  0.1268 -0.1440  0.5575
   16SOL    HW1   47   2.925   0.578   0.642  1.7440 -2.7551 -2.4000
   16SOL    HW2   48   2.801   0.567   0.757  4.0099 -0.1539 -1.9420
   17SOL     OW   49   0.707   0.396   0.714 -0.1114 -0.3589  0.0107
   17SOL    HW1   50   0.796   0.428   0.751  0.5458  0.9465 -0.9181
   17SOL    HW2   51   0.718   0.347   0.628 -1.0333  3.4433  2.1476
   18SOL     OW   52   0.947   0.151   0.776  0.2754  0.0621 -0.3964
   18SOL    HW1   53   0.931   0.113   0.681 -1.6618  0.9669  0.5754
   18SOL    HW2   54   0.960   0.251   0.770  2.7297 -3.6884  1.9013
   19SOL     OW   55   1.900   1.098   0.834  0.0084 -0.4028 -0.2983
   19SOL    HW1   56   1.958   1.181   0.830  0.3501 -0.3168  0.3391
   19SOL    HW2   57   1.883   1.072   0.737  1.6286  2.6156  1.0945
   20SOL     OW   58   2.314   1.778   3.057  0.5813  0.4064 -0.0610
   20SOL    HW1   59   2.265   1.794   2.969 -2.7217  0.2556 -1.4694
   20SOL    HW2   60   2.384   1.852   3.068 -2.5973  0.9588 -1.2316
   21SOL     OW   61   1.459   3.000   0.388  0.0486  0.5115  0.1202
   21SOL    HW1   62   1.409   3.049   0.312  1.7598  1.3659 -3.3652
   21SOL    HW2   63   1.554   3.031   0.379 -0.3791  0.7583  0.1473
   22SOL     OW   64   2.992   0.989   0.557  0.2008  0.6264  0.2966
   22SOL    HW1   65   2.934   1.068   0.593  0.8387  2.0671 -1.6812
   22SOL    HW2   66   2.935   0.909   0.522  0.1861  0.5552  1.3961
   23SOL     OW   67   0.653   0.178   1.801  0.7211 -0.1568  0.1202
   23SOL    HW1   68   0.733   0.217   1.750  0.8864  4.0240  0.1303
   23SOL    HW2   69   0.580   0.250   1.819  0.4476  1.4882 -1.0085
   24SOL     OW   70   1.909   2.347   0.574  0.1694 -0.4105 -0.1932
   24SOL    HW1   71   1.978   2.346   0.650 -2.2004  2.0924 -0.2933
   24SOL    HW2   72   1.836   2.275   0.589 -2.2474 -0.3567 -0.1830
   25SOL     OW   73   1.766   0.155   2.427 -0.1218 -0.3829  0.6023
   25SOL    HW1   74   1.814   0.163   2.516 -2.1372  1.9228 -2.2380
   25SOL    HW2   75   1.827   0.113   2.360 -1.0717  2.8806  1.7125
   26SOL     OW   76   1.761   2.499   2.862  0.7227  0.0165  0.2696
   26SOL    HW1   77   1.797   2.574   2.806 -1.4563 -2.2080  0.5098
   26SOL    HW2   78   1.660   2.496   2.860  1.8456  0.0915 -0.0822
   27SOL     OW   79   1.213   0.371   1.339  0.3268  0.4202  0.4458
   27SOL    HW1   80   1.243   0.421   1.253  1.4516  1.1866 -0.6732
   27SOL    HW2   81   1.245   0.270   1.330  2.9115 -4.5479 -0.8725
   28SOL     OW   82   0.702   1.696   0.887  0.0552  0.4659  0.3905
   28SOL    HW1   83   0.720   1.636   0.805  0.8377  0.4492 -0.7590
   28SOL    HW2   84   0.779   1.763   0.904 -0.8697 -1.5647 -0.1155
   29SOL     OW   85   2.398   0.508   1.454  0.0233 -0.0099  0.7235
   29SOL    HW1   86   2.309   0.536   1.419  1.7060  0.1419  0.8123
   29SOL    HW2   87   2.400   0.410   1.484  0.9212 -1.3936 -1.0974
   30SOL     OW   88   1.642   2.365   1.382 -0.6714  0.2517 -0.4272
   30SOL    HW1   89   1.731   2.412   1.377 -0.8321 -1.1167  1.0036
   30SOL    HW2   90   1.576   2.404   1.313 -1.4646 -3.1583  0.6853
   31SOL     OW   91   1.861   2.776   1.510 -0.2149 -0.1047  0.2126
   31SOL    HW1   92   1.827   2.772   1.413  0.3590  1.4968  0.0324
   31SOL    HW2   93   1.963   2.773   1.516 -2.6058 -0.1268 -0.4574
   32SOL     OW   94   2.048   1.469   2.369 -0.2343  0.1808 -0.3091
   32SOL    HW1   95   2.044   1.369   2.390  2.8930 -2.4590  0.8662
   32SOL    HW2   96   2.145   1.492   2.348  2.0843 -1.7626 -0.0071
   33SOL     OW   97   2.482   0.313   2.648  0.7332 -0.2305  0.4046
   33SOL    HW1   98   2.461   0.412   2.625  0.5836 -0.8725 -0.5710
   33SOL    HW2   99   2.510   0.297   2.740 -1.4218 -0.9499 -1.2072
   34SOL     OW  100   1.881   0.238   0.529 -0.0180 -0.2124 -0.3621
   34SOL    HW1  101   1.928   0.325   0.510 -0.5121  0.4034 -0.2105
   34SOL    HW2  102   1.780   0.251   0.548 -0.3375  0.5731 -2.8701
   35SOL     OW  103   0.260   2.027   2.085 -0.3417 -0.4549  0.2764
   35SOL    HW1  104   0.299   2.073   2.171 -0.1090 -0.3298  2.5318
   35SOL    HW2  105   0.172   1.984   2.108  1.8972  0.7714  0.0916
   36SOL     OW  106   2.515   1.990   3.022 -0.1552 -0.2001  0.0057
   36SOL    HW1  107   2.537   2.057   3.092 -0.0391  1.1196 -1.6792
   36SOL    HW2  108   2.591   1.980   2.956 -1.8086 -0.5504 -1.8064
   37SOL     OW  109   1.496   3.021   1.611 -0.8984 -0.0859 -0.2161
   37SOL    HW1  110   1.538   3.085   1.676  0.3168 -0.1230 -0.7724
   37SOL    HW2  111   1.510   2.927   1.649  0.7866  0.6125  4.2229
   38SOL     OW  112   0.862   0.700   2.568 -0.1862 -0.7918  0.1360
   38SOL    HW1  113   0.847   0.676   2.665  2.5167 -0.4212  1.0870
   38SOL    HW2  114   0.960   0.739   2.554  1.1818  1.0678 -3.5047
   39SOL     OW  115   1.958   0.735   1.446 -0.1205  0.5503  0.2630
   39SOL    HW1  116   1.902   0.749   1.362  1.0919  0.1800 -1.1814
   39SOL    HW2  117   1.983   0.827   1.492  2.5787  1.6035 -2.2069
   40SOL     OW  118   1.157   2.377   0.807  0.2602 -0.2233 -0.0827
   40SOL    HW1  119   1.174   2.388   0.909  0.6850  1.1946  0.6453
   40SOL    HW2  120   1.224   2.427   0.746 -1.4940 -0.8356 -0.0209
   41SOL     OW  121   2.142   2.209   1.472  0.2383  0.3259  0.0697
   41SOL    HW1  122   2.156   2.304   1.501 -0.0315 -1.0953 -4.0670
   41SOL    HW2  123   2.111   2.208   1.373  0.7281 -0.9039 -5.2060
   42SOL     OW  124   2.299   0.622   0.605 -0.3878  0.1601  0.1344
   42SOL    HW1  125   2.286   0.718   0.580  0.6782 -0.7053  1.8082
   42SOL    HW2  126   2.292   0.560   0.525 -2.6969 -0.1221 -2.1044
   43SOL     OW  127   1.007   1.246   2.555  0.5873  0.9916 -0.2393
   43SOL    HW1  128   0.931   1.230   2.621  0.9234  0.3552 -0.2703
   43SOL    HW2  129   0.989   1.320   2.485 -0.4818  0.0414 -2.3032
   44SOL     OW  130   1.747   2.677   1.248 -0.1645 -0.2112 -0.1506
   44SOL    HW1  131   1.693   2.663   1.160  1.0636  2.0065 -0.4335
   44SOL    HW2  132   1.812   2.601   1.270  1.2617  0.8974  2.1192
   45SOL     OW  133   1.086   2.792   2.737  0.5289  0.2283 -0.0057
   45SOL    HW1  134   1.068   2.868   2.801  1.2120  1.6561 -0.1385
   45SOL    HW2  135   1.060   2.818   2.638  2.6297  0.4693 -3.3472
   46SOL     OW  136   0.567   2.619   1.858  0.6291  0.0266 -0.1900
   46SOL    HW1  137   0.557   2.699   1.794 -2.5880  0.2386  1.4376
   46SOL    HW2  138   0.662   2.582   1.869 -0.6858  3.2012  0.5499
   47SOL     OW  139   0.659   1.946   0.605 -0.1627 -0.5414  0.1827
   47SOL    HW1  140   0.749   1.899   0.592 -1.0912  0.0460 -0.7911
   47SOL    HW2  141   0.613   1.905   0.684  0.9315  0.6345 -2.0213
   48SOL     OW  142   0.890   2.757   1.221 -0.2131 -0.1318 -0.7016
   48SOL    HW1  143   0.903   2.824   1.298  1.0630  1.9976  1.3204
   48SOL    HW2  144   0.805   2.699   1.234 -2.7037  0.9414  0.9544
   49SOL     OW  145   3.145   3.083   2.711  0.1151 -0.3196 -0.0414
   49SOL    HW1  146   3.068   3.063   2.651  0.7167 -2.3871  1.2979
   49SOL    HW2  147   3.113   3.104   2.808 -2.4958  0.6714  1.1678
   50SOL     OW  148   1.487   1.106   0.544 -0.1558  0.2933  0.8820
   50SOL    HW1  149   1.393   1.077   0.555 -0.9876 -1.0794  0.1809
   50SOL    HW2  150   1.534   1.077   0.453 -1.0869 -2.0480 -2.3974
   51SOL     OW  151   2.137   2.999   0.523 -0.6837 -0.5543 -0.7295
   51SOL    HW1  152   2.110   2.982   0.429 -1.1905  1.9864  0.7496
   51SOL    HW2  153   2.086   3.075   0.563 -0.6183 -0.8836  0.2596
   52SOL     OW  154   0.905   1.820   0.533 -0.9198 -0.1223 -0.0737
   52SOL    HW1  155   0.937   1.797   0.438 -0.7923 -0.2325 -1.5170
   52SOL    HW2  156   0.978   1.868   0.580  1.4460 -0.3532 -0.4202
   53SOL     OW  157   0.218   1.429   2.764  0.0416  0.0228  0.0294
   53SOL    HW1  158   0.276   1.347   2.771 -0.4731  2.3386  0.8354
   53SOL    HW2  159   0.224   1.488   2.843 -0.4980 -1.5921 -0.9400
   54SOL     OW  160   2.640   2.091   0.160 -0.4695 -0.3401 -0.3184
   54SOL    HW1  161   2.710   2.093   0.234 -3.1350 -0.5171 -0.2932
   54SOL    HW2  162   2.557   2.045   0.198  0.1496  2.0393  1.4304
   55SOL     OW  163   2.487   2.413   1.457 -0.1570  0.6630  0.0032
   55SOL    HW1  164   2.507   2.490   1.518 -0.3977 -0.6903 -0.2508
   55SOL    HW2  165   2.389   2.425   1.437  2.7833  0.4798 -1.4926
   56SOL     OW  166   1.464   3.063   1.353 -0.4969  0.0551  0.2269
   56SOL    HW1  167   1.472   3.050   1.454 -1.7255  1.3650  0.5485
   56SOL    HW2  168   1.544   3.017   1.307  2.6768 -0.1833 -2.1416
   57SOL     OW  169   1.699   1.701   1.039  0.0447 -0.0754 -0.3334
   57SOL    HW1  170   1.671   1.723   0.945 -1.3430  0.9262 -1.3354
   57SOL    HW2  171   1.611   1.686   1.094 -1.4462  0.1975 -0.0518
   58SOL     OW  172   2.420   0.208   1.761 -0.3298 -0.6429 -0.2749
   58SOL    HW1  173   2.401   0.277   1.835  0.6018 -1.6232  2.9446
   58SOL    HW2  174   2.338   0.149   1.744  1.8010 -0.7524  0.5760
   59SOL     OW  175   1.143   2.577   2.260  0.9039  0.1436  0.4138
   59SOL    HW1  176   1.186   2.622   2.337 -1.6145 -0.1283  0.0177
   59SOL    HW2  177   1.050   2.623   2.247 -1.5638  0.1417  1.6539
   60SOL     OW  178   0.686   0.144   2.492 -0.2470 -0.3157 -0.6979
   60SOL    HW1  179   0.645   0.222   2.437 -0.2338 -0.1051  3.1471
   60SOL    HW2  180   0.715   0.182   2.581  0.7261 -2.1073 -3.0836
   61SOL     OW  181   0.690   2.211   0.654 -0.0365  0.2583 -0.1030
   61SOL    HW1  182   0.741   2.245   0.576  1.0610  0.7044  1.7281
   61SOL    HW2  183   0.665   2.109   0.642  0.1805 -2.0696 -0.8339
   62SOL     OW  184   1.241   1.710   2.170  0.1603 -0.2189 -0.4837
   62SOL    HW1  185   1.171   1.778   2.142  3.0098  0.8607 -0.6136
   62SOL    HW2  186   1.253   1.706   2.270  1.4317 -2.1366 -0.9775
   63SOL     OW  187   1.026   1.726   0.881  0.0924  0.0370  0.6391
   63SOL    HW1  188   1.055   1.778   0.961  2.3296  0.3958 -0.7882
   63SOL    HW2  189   1.080   1.759   0.797  4.5756  0.4868 -2.3962
   64SOL     OW  190   1.539   1.435   2.857  0.5122  0.1166 -0.0229
   64SOL    HW1  191   1.537   1.535   2.889  1.1237 -1.4852 -4.5323
   64SOL    HW2  192   1.456   1.384   2.887 -1.4037 -1.9036 -1.1365
   65SOL     OW  193   1.635   2.186   2.338 -0.1526 -0.2655  0.2171
   65SOL    HW1  194   1.578   2.114   2.290 -1.1852 -0.5276  0.6135
   65SOL    HW2  195   1.733   2.161   2.340  0.0900 -1.6350 -0.2839
   66SOL     OW  196   0.069   0.915   0.957 -0.0504  0.2227 -0.1394
   66SOL    HW1  197   0.163   0.883   0.971 -1.2108  0.2775 -1.2857
   66SOL    HW2  198   0.031   0.873   0.872  0.0819  1.0448  2.9367
   67SOL     OW  199   2.122   2.619   0.231  0.3576  0.0206  0.4318
   67SOL    HW1  200   2.086   2.601   0.327 -0.6464 -0.9238  0.3273
   67SOL    HW2  201   2.171   2.538   0.201 -1.1579  2.2430 -2.6367
   68SOL     OW  202   2.582   2.616   1.601 -0.9180 -0.2386  0.2191
   68SOL    HW1  203   2.649   2.638   1.524 -2.5125  0.4219  0.6032
   68SOL    HW2  204   2.613   2.641   1.692  1.3018  0.8659 -0.8343
   69SOL     OW  205   2.635   2.523   2.776  0.0232 -0.0013 -0.2347
   69SOL    HW1  206   2.695   2.489   2.705  0.3532 -0.0023 -0.6161
   69SOL    HW2  207   2.612   2.621   2.756  1.3234  1.2260 -0.2443
   70SOL     OW  208   0.547   1.489   2.638 -0.6572 -0.6443 -0.7880
   70SOL    HW1  209   0.617   1.489   2.559 -1.4052  3.4056  1.2884
   70SOL    HW2  210   0.471   1.427   2.618  1.2443 -1.1227  1.1512
   71SOL     OW  211   1.050   1.201   2.086 -0.5535 -0.1316 -0.0594
   71SOL    HW1  212   0.950   1.199   2.092 -0.7301  0.2774 -1.4649
   71SOL    HW2  213   1.081   1.264   2.012 -2.4791  1.4165 -0.4205
   72SOL     OW  214   2.539   1.513   2.062  0.1603 -0.5900 -0.0743
   72SOL    HW1  215   2.554   1.421   2.103  2.2761  1.0113  0.5621
   72SOL    HW2  216   2.619   1.552   2.014  0.4659 -0.6990 -0.2533
   73SOL     OW  217   0.812   1.798   2.942  0.3985  0.6775 -0.4208
   73SOL    HW1  218   0.832   1.867   2.870  1.3628  1.0531 -1.3267
   73SOL    HW2  219   0.725   1.742   2.924 -1.6959 -1.3774  0.8466
   74SOL     OW  220   1.486   2.780   1.727  0.0169  0.2172  0.7016
   74SOL    HW1  221   1.402   2.801   1.784 -0.7011 -0.9147  1.0380
   74SOL    HW2  222   1.563   2.756   1.784 -1.4265 -0.3509 -1.4629
   75SOL     OW  223   1.066   2.742   0.510 -0.6029  0.4765  0.1753
   75SOL    HW1  224   1.154   2.756   0.554 -0.3651  0.9940  0.1888
   75SOL    HW2  225   1.019   2.831   0.499  0.8191 -1.7161  1.9165
   76SOL     OW  226   0.311   1.976   2.787  0.4545  0.0685  0.0938
   76SOL    HW1  227   0.319   2.025   2.877 -1.5167  2.9053 -0.6832
   76SOL    HW2  228   0.363   1.888   2.795  0.9440 -1.2654 -1.0557
   77SOL     OW  229   0.295   2.671   1.296  0.0273 -0.8631  0.9531
   77SOL    HW1  230   0.349   2.730   1.227  0.0843  1.3398  0.0693
   77SOL    HW2  231   0.281   2.729   1.375 -1.2504  1.0532 -0.8942
   78SOL     OW  232   2.540   1.114   0.290 -0.1753  0.0931 -0.0265
   78SOL    HW1  233   2.599   1.079   0.218 -3.9788  1.9571  0.3408
   78SOL    HW2  234   2.598   1.151   0.363 -0.9370 -0.1236 -2.9596
   79SOL     OW  235   0.604   1.636   2.960  0.4412 -0.0391  0.0438
   79SOL    HW1  236   0.513   1.595   2.991  0.1380 -0.6896 -2.5854
   79SOL    HW2  237   0.673   1.563   2.949 -0.7661 -1.5655  0.6688
   80SOL     OW  238   1.783   1.616   1.416 -0.2429 -0.0688 -0.0448
   80SOL    HW1  239   1.808   1.680   1.493 -0.4336 -1.6217 -1.5725
   80SOL    HW2  240   1.754   1.523   1.454 -0.4369 -1.2621  1.3713
   81SOL     OW  241   2.064   0.923   2.228 -0.3916  0.8353 -0.4522
   81SOL    HW1  242   2.111   0.846   2.181  0.3064  0.5590 -0.1780
   81SOL    HW2  243   1.985   0.892   2.289 -0.0870 -0.7594 -0.5806
   82SOL     OW  244   1.661   1.362   1.490  0.4552  0.5654 -0.5342
   82SOL    HW1  245   1.598   1.384   1.410 -0.5533 -0.1372 -0.5173
   82SOL    HW2  246   1.644   1.428   1.569 -1.1859 -0.6024 -1.6391
   83SOL     OW  247   0.147   0.442   3.079  0.2012 -0.5785 -0.3187
   83SOL    HW1  248   0.112   0.373   3.015 -0.6231  1.8005  0.5990
   83SOL    HW2  249   0.241   0.414   3.102  0.0027  1.7945  0.7447
   84SOL     OW  250   0.600   1.501   0.074 -0.2915  0.0855 -0.0065
   84SOL    HW1  251   0.676   1.441   0.033  3.1677 -0.8046  0.1559
   84SOL    HW2  252   0.519   1.493   0.018  1.7872 -0.3071  0.4400
   85SOL     OW  253   2.203   1.796   1.845  0.5288 -0.2862  0.3455
   85SOL    HW1  254   2.265   1.710   1.838  2.6106 -2.3891 -0.6587
   85SOL    HW2  255   2.224   1.863   1.770 -0.3083  2.2217 -0.0157
   86SOL     OW  256   0.585   0.753   1.026 -0.0440  0.1546  0.5178
   86SOL    HW1  257   0.672   0.769   0.979 -0.8737  0.9268  0.0912
   86SOL    HW2  258   0.554   0.658   1.004 -0.2214 -0.4216 -1.0236
   87SOL     OW  259   2.692   2.235   2.628 -0.3055  0.3480 -0.2083
   87SOL    HW1  260   2.774   2.225   2.571 -2.2297  2.2047  0.7539
   87SOL    HW2  261   2.611   2.256   2.569  1.1663  0.9979 -0.9260
   88SOL     OW  262   0.181   2.865   3.042 -0.3423  0.0687 -0.0706
   88SOL    HW1  263   0.237   2.854   3.129 -0.6077 -1.8691  1.2950
   88SOL    HW2  264   0.131   2.955   3.041 -3.0791 -2.0038  2.5512
   89SOL     OW  265   1.392   0.517   0.290 -0.3187 -0.8573 -0.1841
   89SOL    HW1  266   1.398   0.492   0.186 -0.9228 -0.1290 -3.6147
   89SOL    HW2  267   1.370   0.619   0.307 -1.4686  0.9247  2.2089
   90SOL     OW  268   3.039   1.479   2.466  0.1081  0.3657  0.6016
   90SOL    HW1  269   3.004   1.498   2.559  2.4072 -1.8399 -1.7466
   90SOL    HW2  270   3.136   1.505   2.456 -2.1942 -0.3924 -0.8091
   91SOL     OW  271   2.257   2.770   1.278  0.4973 -0.1274  0.1043
   91SOL    HW1  272   2.310   2.852   1.293 -0.0720 -0.5046 -1.2132
   91SOL    HW2  273   2.169   2.785   1.222 -0.7346 -0.5282 -3.7150
   92SOL     OW  274   2.203   1.116   1.045  0.2153 -0.2706  0.2614
   92SOL    HW1  275   2.172   1.162   0.955  1.4432 -1.2127 -1.0088
   92SOL    HW2  276   2.206   1.017   1.034  0.5965  3.2214  0.5630
   93SOL     OW  277   0.450   1.350   0.392  0.6718  0.3673  0.2537
   93SOL    HW1  278   0.548   1.351   0.359 -1.8240 -1.7549 -1.4968
   93SOL    HW2  279   0.407   1.267   0.356  1.0194  1.9332 -0.4669
   94SOL     OW  280   1.325   2.332   1.470  0.2664  0.2539 -0.1406
   94SOL    HW1  281   1.279   2.337   1.559 -1.2814 -0.1175  1.8929
   94SOL    HW2  282   1.400   2.402   1.472  1.2176  0.8549  0.2299
   95SOL     OW  283   0.294   0.621   0.487  0.0302 -0.1970  0.0206
   95SOL    HW1  284   0.365   0.696   0.484 -2.3883  1.7827 -0.2532
   95SOL    HW2  285   0.242   0.621   0.578  0.6392 -2.0848 -2.2198
   96SOL     OW  286   0.072   3.101   1.750  0.5939 -0.2683  0.2935
   96SOL    HW1  287   0.081   3.033   1.822 -0.0245  0.6928 -0.4163
   96SOL    HW2  288   0.065   3.055   1.656  1.6365 -1.4032 -2.1432
   97SOL     OW  289   2.106   0.308   0.984  0.2561  0.7052 -0.0625
   97SOL    HW1  290   2.049   0.350   1.060 -1.5400  0.9112  1.0340
   97SOL    HW2  291   2.200   0.290   1.020 -5.0090  3.2644 -0.6888
   98SOL     OW  292   2.877   2.369   1.648 -0.0604 -0.3310 -0.5446
   98SOL    HW1  293   2.858   2.444   1.714 -0.6435 -1.1716 -0.1226
   98SOL    HW2  294   2.956   2.312   1.668  3.2845  1.9488 -1.5746
   99SOL     OW  295   2.936   0.275   1.428 -0.1199  0.5262 -0.3866
   99SOL    HW1  296   3.023   0.243   1.386  0.2154  1.4342 -1.3356
   99SOL    HW2  297   2.952   0.335   1.509 -0.0695  0.5547  0.0069
  100SOL     OW  298   2.045   0.359   2.714 -0.3453 -0.1118 -0.4104
  100SOL    HW1  299   2.097   0.316   2.637  0.0967 -0.9979 -0.3091
  100SOL    HW2  300   1.990   0.438   2.679 -1.2029  0.8860 -2.1127
  101SOL     OW  301   0.755   3.045   2.187  0.2667  0.8715 -0.1850
  101SOL    HW1  302   0.774   2.960   2.132  0.8360 -1.7028 -1.6939
  101SOL    HW2  303   0.777   3.028   2.286  1.7593 -0.5671  2.7871
  102SOL     OW  304   0.554   0.596   1.626 -0.4518 -0.2174  0.2894
  102SOL    HW1  305   0.638   0.598   1.569 -1.4184  1.0449  0.3039
  102SOL    HW2  306   0.481   0.659   1.588 -0.6969 -2.3814  2.2935
  103SOL     OW  307   1.092   0.834   2.600 -0.8138  0.4048  0.2614
  103SOL    HW1  308   1.178   0.775   2.596  1.4775  0.4657 -2.5234
  103SOL    HW2  309   1.118   0.922   2.550 -0.1284 -0.3814  0.3034
  104SOL     OW  310   0.254   0.384   1.732  0.0021 -0.2268  0.5468
  104SOL    HW1  311   0.255   0.480   1.753 -0.8447 -3.0137  0.3734
  104SOL    HW2  312   0.163   0.341   1.741 -2.1121  0.6176  1.4918
  105SOL     OW  313   2.480   2.128   1.800  0.3231 -0.5636  0.3847
  105SOL    HW1  314   2.576   2.136   1.783 -0.9638 -1.2722  0.4655
  105SOL    HW2  315   2.463   2.120   1.898  1.5667  0.8172  0.6106
  106SOL     OW  316   1.121   3.042   0.444 -0.5189 -0.3712  0.0402
  106SOL    HW1  317   1.137   3.074   0.345  1.0081  2.6387  0.0654
  106SOL    HW2  318   1.160   3.118   0.500 -1.5714  0.4910  2.4046
  107SOL     OW  319   2.728   1.989   1.384 -0.0465 -0.6449 -0.5435
  107SOL    HW1  320   2.708   2.083   1.421 -0.8755 -0.2942 -3.4209
  107SOL    HW2  321   2.650   1.940   1.343 -0.3864  0.7839 -0.1354
  108SOL     OW  322   3.083   2.167   0.750  0.1332  0.0547  0.3440
  108SOL    HW1  323   0.022   2.135   0.698 -0.5086 -3.1532 -1.1423
  108SOL    HW2  324   3.092   2.260   0.790  1.1983 -1.6588 -0.5276
  109SOL     OW  325   1.579   3.082   0.606  0.5050  0.1950  0.1135
  109SOL    HW1  326   1.511   3.029   0.551  0.3702 -3.4407 -2.1559
  109SOL    HW2  327   1.675   3.051   0.613  0.4418 -1.2083 -1.9119
  110SOL     OW  328   2.048   1.408   1.030 -0.0960  0.0248 -0.5901
  110SOL    HW1  329   2.111   1.329   1.023 -0.9610  3.0204 -1.8708
  110SOL    HW2  330   1.977   1.409   0.953 -1.6584  0.2141 -1.2056
  111SOL     OW  331   1.712   2.517   1.893  0.3959  0.2477  0.0480
  111SOL    HW1  332   1.745   2.429   1.859 -1.8487  2.5134 -0.3333
  111SOL    HW2  333   1.636   2.507   1.957 -1.2329 -2.8599 -3.6330
  112SOL     OW  334   2.087   2.252   3.035 -0.0050  0.2465  0.4484
  112SOL    HW1  335   2.169   2.232   2.970  0.2462  1.3296 -0.6443
  112SOL    HW2  336   2.071   2.172   3.094 -2.2522 -2.0479 -0.2095
  113SOL     OW  337   1.944   1.878   1.776 -0.0428  0.3015  0.1180
  113SOL    HW1  338   2.028   1.826   1.801 -0.7085  0.1841 -1.5914
  113SOL    HW2  339   1.954   1.938   1.695 -0.7965 -0.9091 -0.8945
  114SOL     OW  340   0.178   1.110   1.505  0.0812 -0.5254 -0.6296
  114SOL    HW1  341   0.086   1.081   1.469 -0.4019 -1.2852 -0.5989
  114SOL    HW2  342   0.166   1.189   1.569 -1.7713  0.6789 -0.5171
  115SOL     OW  343   3.009   0.847   3.077 -0.3357 -0.2682  0.3063
  115SOL    HW1  344   3.048   0.934   3.041  2.6734 -1.2030 -0.9504
  115SOL    HW2  345   2.983   0.857   0.029 -1.9097  1.5219 -0.7353
  116SOL     OW  346   2.723   0.476   2.891 -0.4145 -0.0461 -0.1073
  116SOL    HW1  347   2.741   0.554   2.950 -1.1510  0.3417 -2.4971
  116SOL    HW2  348   2.711   0.511   2.794 -1.2078 -1.9797 -1.8210
  117SOL     OW  349   2.714   2.484   0.280  0.4603  0.3123 -1.1771
  117SOL    HW1  350   2.713   2.418   0.356 -1.1444  1.4819 -0.2490
  117SOL    HW2  351   2.626   2.494   0.238  2.1260 -1.1083 -0.1212
  118SOL     OW  352   0.589   2.215   2.428 -0.0797  0.4591 -0.1773
  118SOL    HW1  353   0.571   2.181   2.524  1.4971 -0.9580  0.0425
  118SOL    HW2  354   0.506   2.217   2.367  1.2216 -1.3781  0.1059
  119SOL     OW  355   0.781   2.791   0.393 -0.1275  0.3896 -0.2260
  119SOL    HW1  356   0.713   2.716   0.376  2.0420  2.6385 -0.0172
  119SOL    HW2  357   0.735   2.879   0.413  0.6105  1.2186  0.1763
  120SOL     OW  358   1.444   0.800   0.330 -0.2576 -0.2502  0.1627
  120SOL    HW1  359   1.423   0.783   0.429 -0.9709 -1.4095 -2.0747
  120SOL    HW2  360   1.525   0.862   0.315 -0.0463  1.1052 -2.2847
  121SOL     OW  361   1.579   0.153   0.879  0.4289 -0.0349  0.1143
  121SOL    HW1  362   1.525   0.065   0.879 -2.5569  1.5794  0.5448
  121SOL    HW2  363   1.568   0.200   0.788  0.4553 -2.2735  0.9021
  122SOL     OW  364   2.244   1.629   2.324  0.1239  0.2727  1.1042
  122SOL    HW1  365   2.197   1.683   2.250  1.1661  1.7517  1.5128
  122SOL    HW2  366   2.341   1.655   2.327  0.1144  1.5668  1.6193
  123SOL     OW  367   1.276   1.061   1.082 -0.2702  0.6808  0.0523
  123SOL    HW1  368   1.295   1.035   0.985  2.0296 -0.5165  1.2514
  123SOL    HW2  369   1.219   0.988   1.125 -0.4829  0.8461  1.2576
  124SOL     OW  370   0.594   0.749   2.913 -0.1424  0.3428  0.1630
  124SOL    HW1  371   0.540   0.734   2.828 -1.1135 -3.3511  1.0349
  124SOL    HW2  372   0.696   0.751   2.893  0.3811  1.6346 -0.6806
  125SOL     OW  373   0.768   0.384   0.142 -0.0503  0.0415 -0.0172
  125SOL    HW1  374   0.838   0.390   0.217 -2.1150  3.0891  0.3660
  125SOL    HW2  375   0.708   0.303   0.164 -0.6197  0.0580  1.5862
  126SOL     OW  376   0.344   1.727   0.557  0.3536  0.3991  0.1304
  126SOL    HW1  377   0.331   1.785   0.640  0.7720  0.0524  1.5447
  126SOL    HW2  378   0.414   1.661   0.576 -2.3402  0.5141 -1.9380
  127SOL     OW  379   0.918   2.615   1.628 -0.0405  0.0486 -0.3863
  127SOL    HW1  380   0.843   2.683   1.646 -0.5981  1.6059 -0.8912
  127SOL    HW2  381   1.006   2.662   1.597  2.2683  0.7139  0.7361
  128SOL     OW  382   1.206   1.904   0.357 -0.4660  0.1252  0.5092
  128SOL    HW1  383   1.137   1.835   0.315  1.9219 -1.1935  1.1884
  128SOL    HW2  384   1.211   1.991   0.301 -0.6342 -0.4574 -0.6856
  129SOL     OW  385   1.650   1.472   1.766 -0.9717  0.1441  0.0995
  129SOL    HW1  386   1.673   1.567   1.742 -1.7631 -0.6826  1.4209
  129SOL    HW2  387   1.725   1.425   1.820  0.1950 -3.6727  0.0768
  130SOL     OW  388   1.974   2.031   1.567  0.2267  0.3401  0.4365
  130SOL    HW1  389   2.032   2.110   1.536  0.3142  1.3574 -1.3158
  130SOL    HW2  390   1.921   2.001   1.483 -1.5880  0.0530 -1.0481
  131SOL     OW  391   0.193   2.357   2.080 -0.0565  0.3143 -0.2432
  131SOL    HW1  392   0.195   2.448   2.131  0.8165  1.7450 -2.9186
  131SOL    HW2  393   0.140   2.372   1.996 -0.4185 -0.9293  3.9957
  132SOL     OW  394   2.622   1.942   0.876 -0.5216 -0.1461 -0.9987
  132SOL    HW1  395   2.689   1.862   0.889 -0.1994 -1.1997  0.3116
  132SOL    HW2  396   2.658   2.034   0.910  1.5615 -1.2737  1.4016
  133SOL     OW  397   0.501   0.999   1.748  0.1361 -0.2981  0.5474
  133SOL    HW1  398   0.474   1.096   1.780  0.4944  2.9236  2.0377
  133SOL    HW2  399   0.517   0.930   1.822  0.9798  0.1676 -0.9644
  134SOL     OW  400   2.685   1.254   0.475  0.2506  0.0741  0.6331
  134SOL    HW1  401   2.671   1.236   0.575 -1.4531 -0.8648 -1.3960
  134SOL    HW2  402   2.769   1.319   0.467 -2.5399  0.9185  1.4929
  135SOL     OW  403   1.907   1.067   2.642  0.0406  0.2955  0.4612
  135SOL    HW1  404   1.816   1.087   2.599 -0.0441 -0.8965 -1.7558
  135SOL    HW2  405   1.903   0.989   2.706 -1.5758  1.1134 -0.2003
  136SOL     OW  406   2.980   1.571   1.463  0.5399 -0.3134 -0.9218
  136SOL    HW1  407   3.063   1.581   1.523  0.3176  1.8171  0.5065
  136SOL    HW2  408   2.908   1.640   1.495  0.5198 -0.1229 -0.0001
  137SOL     OW  409   2.417   1.895   0.660 -0.4469 -0.5696  0.1414
  137SOL    HW1  410   2.397   1.795   0.679 -1.4033 -0.8165 -2.5161
  137SOL    HW2  411   2.483   1.929   0.724 -1.3841  0.8716 -3.9146
  138SOL     OW  412   2.827   0.787   0.491  0.3362  0.6035 -0.2749
  138SOL    HW1  413   2.863   0.690   0.493 -0.4129 -0.4910  2.0637
  138SOL    HW2  414   2.725   0.788   0.484  0.2186 -0.9738 -6.0460
  139SOL     OW  415   3.008   0.005   2.938  0.2061 -0.5063  0.1514
  139SOL    HW1  416   2.929   3.090   2.971  1.0902 -0.0774 -0.2031
  139SOL    HW2  417   2.977   0.103   2.937  0.6912  1.1322  2.6107
  140SOL     OW  418   0.869   1.236   1.768 -0.0217 -0.3031 -0.3091
  140SOL    HW1  419   0.839   1.223   1.865 -0.1772 -2.1663  0.7783
  140SOL    HW2  420   0.795   1.274   1.712  1.9099 -1.6192  2.6127
  141SOL     OW  421   1.393   1.509   0.987  0.2038 -0.2270  0.2647
  141SOL    HW1  422   1.347   1.443   1.048  0.9472 -3.8871 -0.7090
  141SOL    HW2  423   1.366   1.608   0.998  0.1104  4.1598 -1.6254
  142SOL     OW  424   1.434   0.681   1.005 -0.2671 -0.2167 -0.7047
  142SOL    HW1  425   1.508   0.640   0.952  0.2384  0.1036  0.1079
  142SOL    HW2  426   1.479   0.726   1.087 -0.2656  1.6984  0.4361
  143SOL     OW  427   0.800   1.147   2.749 -0.1905 -0.1489  0.0709
  143SOL    HW1  428   0.756   1.236   2.772  0.6310 -0.2847 -0.3628
  143SOL    HW2  429   0.731   1.078   2.720 -0.0233  1.4007 -0.2532
  144SOL     OW  430   2.486   3.136   0.227 -0.0055  0.0689  0.3073
  144SOL    HW1  431   2.556   0.032   0.167  0.4977  3.0536  3.3362
  144SOL    HW2  432   2.471   3.039   0.201  1.1356  0.4238 -3.3772
  145SOL     OW  433   2.355   0.359   2.986 -0.1898  0.2742 -0.2632
  145SOL    HW1  434   2.312   0.369   3.078 -1.3629  0.3608  0.6441
  145SOL    HW2  435   2.347   0.442   2.925 -1.1984  1.6223 -2.3798
  146SOL     OW  436   3.101   2.978   0.172 -0.6857 -0.1949  0.1187
  146SOL    HW1  437   3.127   2.884   0.144 -1.3776 -2.1461  1.2604
  146SOL    HW2  438   3.045   3.030   0.103 -0.8384  2.3779  0.3705
  147SOL     OW  439   1.352   1.162   2.861  0.4303 -0.0492  0.0535
  147SOL    HW1  440   1.383   1.134   2.766  0.4037  0.7923 -1.6678
  147SOL    HW2  441   1.263   1.212   2.854  2.9166 -1.7042  0.5429
  148SOL     OW  442   1.346   0.040   0.207  0.1538 -0.1188  0.1274
  148SOL    HW1  443   1.341   0.132   0.251 -1.1689  1.6042  0.6186
  148SOL    HW2  444   1.253   0.002   0.182 -0.1348 -1.0732  1.2873
  149SOL     OW  445   1.701   0.440   1.992 -0.0427  0.1912  0.3411
  149SOL    HW1  446   1.613   0.407   2.035  1.3773 -2.4901  3.8995
  149SOL    HW2  447   1.743   0.508   2.053 -2.3785 -1.7123 -1.8987
  150SOL     OW  448   1.952   2.797   2.925  0.1244 -0.3420 -0.8152
  150SOL    HW1  449   1.927   2.778   3.020  1.4491  3.5515 -3.0958
  150SOL    HW2  450   2.042   2.836   2.918 -3.4738  0.8858  0.6653
  151SOL     OW  451   0.540   1.758   0.143 -0.0669 -0.2927 -0.0181
  151SOL    HW1  452   0.439   1.772   0.133 -2.0258 -1.2920  0.6318
  151SOL    HW2  453   0.566   1.657   0.135 -0.3377 -3.0228 -0.1153
  152SOL     OW  454   0.213   0.420   1.285  0.1886  0.4260  0.5787
  152SOL    HW1  455   0.228   0.521   1.272  1.1918 -0.4126 -0.0596
  152SOL    HW2  456   0.263   0.388   1.367 -0.0556 -0.2665 -0.6322
  153SOL     OW  457   2.622   2.794   2.438 -0.2570  0.4015 -0.3072
  153SOL    HW1  458   2.678   2.867   2.394 -0.2608 -1.5309  0.0767
  153SOL    HW2  459   2.535   2.778   2.384 -2.2088 -0.1411 -2.1232
  154SOL     OW  460   2.053   0.030   2.502  0.2429  0.1881 -0.0568
  154SOL    HW1  461   2.009   0.022   2.411  3.2857 -2.2449 -0.6913
  154SOL    HW2  462   1.989   0.026   2.584 -2.6870 -1.1986 -0.8206
  155SOL     OW  463   0.449   1.076   0.571  0.1901  0.3140 -0.0817
  155SOL    HW1  464   0.349   1.053   0.578 -0.4759  2.4453 -0.5520
  155SOL    HW2  465   0.499   1.070   0.659  0.8922 -0.5718  0.4908
  156SOL     OW  466   2.383   1.630   0.689  0.5999 -0.1249 -0.3522
  156SOL    HW1  467   2.460   1.582   0.731  0.9269 -0.4986 -1.1321
  156SOL    HW2  468   2.294   1.577   0.685  0.8328  1.8675 -1.2391
  157SOL     OW  469   0.928   0.393   3.071  0.0510 -0.1729  0.4185
  157SOL    HW1  470   0.906   0.298   3.030 -0.9036 -2.3869  1.4202
  157SOL    HW2  471   0.875   0.388   0.012  0.7273  1.6838 -0.3640
  158SOL     OW  472   1.901   1.013   1.100 -0.3419 -0.4982  0.9609
  158SOL    HW1  473   1.908   1.021   0.997 -0.2207  0.7569 -0.8726
  158SOL    HW2  474   1.859   0.925   1.126  2.2543  0.0147  2.0793
  159SOL     OW  475   3.120   0.426   0.196 -0.3654 -0.5263  0.0465
  159SOL    HW1  476   3.144   0.517   0.241 -1.9655 -1.6437 -4.2645
  159SOL    HW2  477   0.035   0.412   0.113 -1.3168 -1.1027 -1.6548
  160SOL     OW  478   2.417   2.140   2.074 -0.2429 -0.0121 -0.3925
  160SOL    HW1  479   2.431   2.056   2.132 -0.7789 -0.1330 -1.8486
  160SOL    HW2  480   2.353   2.207   2.111 -3.3991  1.2146  1.1539
  161SOL     OW  481   0.394   0.988   2.932  0.1811 -0.3544  0.2010
  161SOL    HW1  482   0.462   0.915   2.912  3.3524 -1.6018  1.0550
  161SOL    HW2  483   0.301   0.970   2.887 -0.7973  1.1341 -3.2752
  162SOL     OW  484   0.495   0.434   1.840  0.0416  0.3567 -0.2848
  162SOL    HW1  485   0.533   0.486   1.763  0.1736 -3.6969  0.9815
  162SOL    HW2  486   0.395   0.419   1.844 -0.5872 -1.0882  3.0672
  163SOL     OW  487   2.583   0.129   2.455  0.0919 -0.4950 -0.9743
  163SOL    HW1  488   2.544   0.189   2.530 -0.6030 -0.4568 -1.1976
  163SOL    HW2  489   2.681   0.150   2.437  0.6109 -3.1621 -1.4081
  164SOL     OW  490   2.412   1.995   0.272 -0.0636  0.2748 -0.2715
  164SOL    HW1  491   2.356   1.933   0.214 -0.2708 -0.5853 -1.5179
  164SOL    HW2  492   2.444   1.942   0.351 -0.9685  2.7643  1.2202
  165SOL     OW  493   0.301   0.096   0.949 -0.2453  0.0572  0.5395
  165SOL    HW1  494   0.388   0.121   0.895  1.6678  0.0838 -0.5498
  165SOL    HW2  495   0.335   0.089   1.046  1.0465 -1.0488  2.2625
  166SOL     OW  496   2.640   0.358   0.154 -0.2602 -0.0728 -0.4829
  166SOL    HW1  497   2.647   0.368   0.050 -0.6807  0.9824  0.3886
  166SOL    HW2  498   2.721   0.306   0.191  1.2834 -1.5642  0.3511
  167SOL     OW  499   2.268   0.863   0.242  0.1177  0.5485 -0.5009
  167SOL    HW1  500   2.294   0.951   0.206  1.2955 -1.4582  2.2749
  167SOL    HW2  501   2.212   0.800   0.180 -0.0084 -0.4417 -2.0812
  168SOL     OW  502   1.555   2.953   2.422  0.2999  0.2964  0.8853
  168SOL    HW1  503   1.468   2.905   2.454  2.3045 -2.1115  3.0077
  168SOL    HW2  504   1.537   3.049   2.395 -0.5195  0.4674 -1.8179
  169SOL     OW  505   0.304   1.869   0.781  0.1424  0.1915  0.4897
  169SOL    HW1  506   0.218   1.894   0.833 -0.8841  1.2363 -2.5496
  169SOL    HW2  507   0.390   1.918   0.816  0.6524  1.0687  0.8531
  170SOL     OW  508   3.091   0.629   1.195  0.3132  0.2575 -0.3352
  170SOL    HW1  509   3.106   0.595   1.101  0.1618  0.5252  1.5511
  170SOL    HW2  510   3.008   0.586   1.231 -2.1942 -0.2575 -0.5345
  171SOL     OW  511   2.564   1.486   2.492  0.7432  0.2478 -0.3360
  171SOL    HW1  512   2.578   1.394   2.532 -1.5537  0.5692  1.3988
  171SOL    HW2  513   2.489   1.536   2.536  1.0225 -0.6156 -2.3442
  172SOL     OW  514   0.761   1.689   1.319 -0.3186 -0.0799  0.4129
  172SOL    HW1  515   0.758   1.634   1.232 -1.3707 -0.4931  0.2408
  172SOL    HW2  516   0.813   1.645   1.395  2.2131 -0.0469 -1.6495
  173SOL     OW  517   2.079   2.005   0.080  0.0978 -0.0271 -0.0871
  173SOL    HW1  518   2.128   1.918   0.116  0.9209 -2.1283  1.5709
  173SOL    HW2  519   2.002   2.030   0.144  1.5161  0.8944 -0.5284
  174SOL     OW  520   1.884   0.637   3.004 -0.3825  0.3324 -0.3979
  174SOL    HW1  521   1.815   0.575   2.963 -0.0604 -2.9015 -1.9618
  174SOL    HW2  522   1.857   0.684   3.094  1.8046  4.2217 -1.2236
  175SOL     OW  523   0.605   1.750   1.786  0.1681 -0.3926 -0.3091
  175SOL    HW1  524   0.696   1.796   1.779  0.4259 -3.5221  2.2945
  175SOL    HW2  525   0.552   1.797   1.861  1.4633 -0.8005  1.7511
  176SOL     OW  526   0.621   0.154   0.178  0.2307 -0.3650 -0.8935
  176SOL    HW1  527   0.619   0.092   0.260  1.4347 -0.9001  1.9446
  176SOL    HW2  528   0.542   0.139   0.117  0.2296 -1.2637  2.6526
  177SOL     OW  529   0.254   1.581   0.329 -0.1830 -0.4202 -0.1502
  177SOL    HW1  530   0.267   1.643   0.414 -0.2703 -1.0170  0.2325
  177SOL    HW2  531   0.315   1.497   0.343 -0.3551 -2.9296 -0.1990
  178SOL     OW  532   3.040   2.345   2.595 -0.4890 -0.4552  0.2969
  178SOL    HW1  533   3.113   2.283   2.630  1.0376 -0.6982 -0.6783
  178SOL    HW2  534   3.040   2.341   2.491 -2.0275 -0.5543 -2.1067
  179SOL     OW  535   2.535   3.136   3.012  0.4416  0.1802  0.1570
  179SOL    HW1  536   2.570   0.084   2.976  0.1410  3.2828  0.1850
  179SOL    HW2  537   2.460   0.004   3.080 -2.9276 -2.4686 -2.5208
  180SOL     OW  538   2.352   0.467   0.840  0.5321  0.0008  0.5774
  180SOL    HW1  539   2.275   0.405   0.832  0.3321 -1.8710  1.0070
  180SOL    HW2  540   2.357   0.533   0.764 -1.3436 -1.9157  0.6619
  181SOL     OW  541   2.946   0.319   2.628 -0.1331  1.0499  0.5574
  181SOL    HW1  542   3.039   0.364   2.627 -0.7174  0.5952 -0.2932
  181SOL    HW2  543   2.940   0.238   2.567 -0.8407  1.5247 -3.0391
  182SOL     OW  544   2.458   2.316   2.496 -0.4841 -0.1849  0.4977
  182SOL    HW1  545   2.386   2.255   2.534  1.4968  1.0951 -0.1876
  182SOL    HW2  546   2.419   2.408   2.486  1.0472 -2.2317  1.4169
  183SOL     OW  547   2.722   0.923   1.876 -0.2543 -0.3646 -0.0021
  183SOL    HW1  548   2.623   0.895   1.862 -1.3357  0.5656  0.0613
  183SOL    HW2  549   2.775   0.920   1.794 -0.4370 -0.4718  1.0907
  184SOL     OW  550   2.895   1.388   0.791  0.6632  0.2224  0.3835
  184SOL    HW1  551   2.920   1.466   0.851 -1.7623 -2.0916  0.0825
  184SOL    HW2  552   2.876   1.418   0.694  1.0388 -0.9197 -2.7448
  185SOL     OW  553   3.023   0.264   0.509 -0.0588  0.1838  0.0182
  185SOL    HW1  554   3.119   0.274   0.470  2.0960  3.2018 -3.0070
  185SOL    HW2  555   3.025   0.284   0.607 -2.0193 -2.1809 -2.6348
  186SOL     OW  556   2.341   2.650   2.738  0.1074 -0.2513 -0.4207
  186SOL    HW1  557   2.433   2.692   2.727 -0.9358  0.7369  1.8258
  186SOL    HW2  558   2.271   2.719   2.702 -0.1202  1.1952 -2.6673
  187SOL     OW  559   0.404   1.551   0.843  0.3250 -0.1050  0.2886
  187SOL    HW1  560   0.459   1.501   0.771 -1.3519  0.8582  0.9230
  187SOL    HW2  561   0.440   1.645   0.857 -1.6875 -0.0717 -0.1560
  188SOL     OW  562   1.869   1.780   0.688  0.5453 -0.3149 -0.2729
  188SOL    HW1  563   1.865   1.705   0.753 -0.7247  1.4521 -0.9638
  188SOL    HW2  564   1.774   1.817   0.659  0.7096 -0.9122  2.1741
  189SOL     OW  565   3.080   1.514   2.926  0.0426 -0.1269 -0.0928
  189SOL    HW1  566   3.107   1.419   2.892 -0.0434 -2.5633  1.9857
  189SOL    HW2  567   3.042   1.501   3.015  1.6880 -1.1714 -0.5421
  190SOL     OW  568   2.450   0.277   2.256 -0.2245  0.3068 -0.4681
  190SOL    HW1  569   2.356   0.309   2.276  1.1319  1.2680  2.0028
  190SOL    HW2  570   2.490   0.214   2.329 -0.9338  0.2319 -0.3908
  191SOL     OW  571   1.093   0.822   2.267  0.0232  0.1091  0.3081
  191SOL    HW1  572   1.141   0.891   2.325 -0.9314 -2.3063 -0.6317
  191SOL    HW2  573   1.086   0.848   2.170 -2.8727  2.7814 -0.8707
  192SOL     OW  574   1.378   1.481   2.095  0.1871 -0.3032  0.2147
  192SOL    HW1  575   1.363   1.454   1.997 -1.6745 -1.1435 -0.7479
  192SOL    HW2  576   1.314   1.559   2.112 -0.7177 -0.6980 -2.2193
  193SOL     OW  577   1.374   2.687   0.941  0.1626  0.6193 -0.4013
  193SOL    HW1  578   1.335   2.709   1.031  0.6037 -1.4892 -2.5549
  193SOL    HW2  579   1.326   2.756   0.878  0.1341  0.9803 -2.4745
  194SOL     OW  580   1.488   1.760   2.105  0.0058  0.8439  0.0540
  194SOL    HW1  581   1.544   1.682   2.142 -0.8340 -1.3559 -0.3635
  194SOL    HW2  582   1.390   1.735   2.114  2.1667 -1.1956  0.7192
  195SOL     OW  583   2.036   0.059   0.648  0.7943  0.0574 -0.1151
  195SOL    HW1  584   2.036   0.061   0.752  0.5587 -2.2357  2.2545
  195SOL    HW2  585   1.973   0.130   0.609  0.7724 -3.6253 -3.7318
  196SOL     OW  586   1.484   1.515   2.493  0.1856 -0.2903  0.1810
  196SOL    HW1  587   1.412   1.454   2.529 -0.2443 -0.0040  0.5305
  196SOL    HW2  588   1.565   1.518   2.554  1.0276  1.6939  0.3294
  197SOL     OW  589   0.304   0.190   2.104 -0.5722  0.2137  0.0702
  197SOL    HW1  590   0.332   0.110   2.161 -2.4189 -1.9064 -0.6348
  197SOL    HW2  591   0.311   0.156   2.007  1.0174  0.5667  1.3951
  198SOL     OW  592   0.128   1.177   0.968  0.0812  0.7062  0.4285
  198SOL    HW1  593   0.102   1.075   0.964 -0.1544 -1.2633 -1.1127
  198SOL    HW2  594   0.090   1.234   0.892 -0.1046 -0.3623 -1.5256
  199SOL     OW  595   0.328   2.428   0.948 -0.3007  0.2830 -0.4752
  199SOL    HW1  596   0.389   2.365   0.891  0.5800  0.7328  0.7311
  199SOL    HW2  597   0.341   2.416   1.047  1.0029  1.0193  1.1968
  200SOL     OW  598   2.047   1.534   0.039  0.1648  0.0217 -0.1591
  200SOL    HW1  599   2.061   1.543   0.141 -0.7888 -1.1251  0.6133
  200SOL    HW2  600   2.093   1.447   0.003  2.1878 -3.1803  0.4521
  201SOL     OW  601   0.530   2.093   1.342  0.2476 -0.5613  0.1903
  201SOL    HW1  602   0.601   2.043   1.288 -0.0432 -2.6141 -0.3281
  201SOL    HW2  603   0.478   2.034   1.403  0.2657  1.7769 -1.3853
  202SOL     OW  604   1.150   2.547   3.093 -0.6259 -0.4544  0.1073
  202SOL    HW1  605   1.064   2.595   3.102  3.3563 -0.5422 -1.3874
  202SOL    HW2  606   1.147   2.465   3.031 -0.2376  1.2368  0.4915
  203SOL     OW  607   1.466   0.385   2.117  0.4621  0.0988  0.0560
  203SOL    HW1  608   1.403   0.462   2.096 -2.0673  1.7268  0.7082
  203SOL    HW2  609   1.469   0.372   2.219 -3.5019  0.8832  1.0987
  204SOL     OW  610   0.476   1.229   1.544  0.0418 -0.0117  0.3417
  204SOL    HW1  611   0.408   1.277   1.487  2.1460  0.1304 -0.8193
  204SOL    HW2  612   0.557   1.211   1.489 -3.4389 -2.3227  1.1539
  205SOL     OW  613   2.276   1.259   2.570  0.2555 -0.1907 -0.4261
  205SOL    HW1  614   2.262   1.354   2.613  0.1714  2.0373  0.2895
  205SOL    HW2  615   2.200   1.227   2.519  3.5313 -0.6983 -0.8788
  206SOL     OW  616   0.145   2.147   2.432  0.1855 -0.0236 -0.0684
  206SOL    HW1  617   0.166   2.178   2.529  1.6756  0.8231  0.3422
  206SOL    HW2  618   0.111   2.050   2.429  1.1593  1.4715 -0.3640
  207SOL     OW  619   0.674   3.026   1.817  0.3873  0.2170  0.2034
  207SOL    HW1  620   0.764   2.983   1.798 -1.3149  1.0887  3.4638
  207SOL    HW2  621   0.674   3.127   1.794  1.1247 -1.5338 -0.1606
  208SOL     OW  622   0.592   2.306   1.490 -1.1928 -0.1951  0.2724
  208SOL    HW1  623   0.508   2.314   1.550  0.0416  2.9618  0.9405
  208SOL    HW2  624   0.579   2.223   1.431 -0.9870  1.5566  0.2394
  209SOL     OW  625   1.377   2.690   2.924 -0.3040 -0.4711 -0.2457
  209SOL    HW1  626   1.400   2.680   3.026 -0.5487 -0.0720  1.8154
  209SOL    HW2  627   1.274   2.693   2.910 -1.9810  0.6375  0.2517
  210SOL     OW  628   2.791   1.592   1.980 -0.7281 -0.0535  0.4023
  210SOL    HW1  629   2.801   1.507   1.925  3.1030  0.1117  1.8410
  210SOL    HW2  630   2.855   1.580   2.055  2.6536  1.3882  1.5236
  211SOL     OW  631   1.084   0.085   1.817  0.4474 -0.5871  0.2842
  211SOL    HW1  632   1.118   0.140   1.895 -0.3846  0.4126  0.9273
  211SOL    HW2  633   1.153   0.052   1.750 -1.1840 -1.1789 -0.0252
  212SOL     OW  634   1.211   2.275   1.700 -0.6244  0.8654 -0.2710
  212SOL    HW1  635   1.232   2.325   1.789  0.5766 -3.2916  0.3294
  212SOL    HW2  636   1.264   2.188   1.700  0.1591 -0.7938  1.3884
  213SOL     OW  637   2.468   0.874   1.815 -0.2400  0.5584 -0.1694
  213SOL    HW1  638   2.419   0.953   1.850  2.4026  0.1605  0.2044
  213SOL    HW2  639   2.460   0.856   1.715  1.6052  0.0574  1.0238
  214SOL     OW  640   1.033   1.713   1.703 -0.0660 -0.6761  0.5121
  214SOL    HW1  641   1.108   1.761   1.649  0.9705  1.2515  0.6210
  214SOL    HW2  642   0.962   1.782   1.734 -0.8265 -0.1619  2.9510
  215SOL     OW  643   2.560   2.315   1.180  0.3052  0.0836 -0.2434
  215SOL    HW1  644   2.472   2.284   1.140  0.9322 -0.1504 -0.8150
  215SOL    HW2  645   2.545   2.340   1.276 -2.2037 -0.4613 -0.5428
  216SOL     OW  646   3.097   0.910   1.214  0.7639 -0.0074 -0.2123
  216SOL    HW1  647   3.089   0.808   1.223  1.2414  0.0769  0.9774
  216SOL    HW2  648   3.129   0.940   1.121 -1.3657  0.6188  2.3796
  217SOL     OW  649   2.069   0.112   1.521 -0.0473 -0.2663  0.0629
  217SOL    HW1  650   2.117   0.125   1.429 -1.4185 -0.1912 -0.5146
  217SOL    HW2  651   1.993   0.047   1.507  0.9724  2.0628 -0.1231
  218SOL     OW  652   1.620   2.579   1.016 -0.1269  0.1607  0.4143
  218SOL    HW1  653   1.690   2.545   0.945  3.8640 -3.5818  0.3754
  218SOL    HW2  654   1.549   2.645   0.984  2.9592  0.4819  1.7976
  219SOL     OW  655   1.643   2.290   0.054  0.0739  0.6149  0.3160
  219SOL    HW1  656   1.670   2.269   3.100  1.4089  5.4628  0.5589
  219SOL    HW2  657   1.543   2.321   0.060 -1.8005 -0.0856 -0.2004
  220SOL     OW  658   1.930   2.279   2.825  0.5174 -0.1142 -0.1331
  220SOL    HW1  659   1.870   2.359   2.834 -2.5343  1.0476  0.6027
  220SOL    HW2  660   1.987   2.260   2.909 -0.3929  1.0899  0.6786
  221SOL     OW  661   0.080   2.508   1.286  0.1694 -0.0270  0.0538
  221SOL    HW1  662   0.111   2.413   1.292  0.0840 -0.6032  1.5393
  221SOL    HW2  663   0.162   2.566   1.274  2.6460  0.0362  1.7624
  222SOL     OW  664   2.074   2.766   0.648  0.3427  0.9377  0.0904
  222SOL    HW1  665   2.031   2.769   0.741 -0.5613  1.4138 -1.4159
  222SOL    HW2  666   2.088   2.857   0.602  1.9728  1.1699  1.2075
  223SOL     OW  667   0.598   2.616   2.144  0.6401  0.3926 -0.0758
  223SOL    HW1  668   0.666   2.542   2.126  1.0216 -2.7536  0.3472
  223SOL    HW2  669   0.565   2.649   2.052 -0.2236  2.3943 -2.0755
  224SOL     OW  670   2.967   2.441   1.203 -0.0966  0.0267  0.4049
  224SOL    HW1  671   3.066   2.449   1.232 -3.4362 -0.4477 -0.5518
  224SOL    HW2  672   2.959   2.487   1.114  2.3594  0.2705 -0.0384
  225SOL     OW  673   2.151   2.348   0.717 -0.1541 -0.1854 -0.4348
  225SOL    HW1  674   2.218   2.398   0.773 -1.0653 -1.9635 -0.6523
  225SOL    HW2  675   2.185   2.253   0.690  0.8383  0.6598 -1.8325
  226SOL     OW  676   1.171   2.665   0.274 -0.6711  0.0763 -0.2389
  226SOL    HW1  677   1.138   2.676   0.369 -1.5023 -2.4824 -0.1825
  226SOL    HW2  678   1.270   2.697   0.268  2.1099 -1.4529 -0.7104
  227SOL     OW  679   1.843   0.712   0.928 -0.3856  0.6589 -0.1586
  227SOL    HW1  680   1.762   0.661   0.887 -1.4165  0.2877 -2.2524
  227SOL    HW2  681   1.930   0.702   0.866 -0.0911  1.6507 -2.1009
  228SOL     OW  682   1.291   0.601   2.212 -0.0473 -0.3274 -0.1734
  228SOL    HW1  683   1.371   0.636   2.261 -1.9732 -0.2098 -1.5184
  228SOL    HW2  684   1.207   0.652   2.233  0.9002 -0.1003 -1.8176
  229SOL     OW  685   0.019   1.076   3.006 -0.0725  0.1484 -0.4082
  229SOL    HW1  686   0.007   1.136   2.924  0.5978 -0.7739 -1.2375
  229SOL    HW2  687   3.133   1.118   3.100 -2.2421  0.9878  2.4068
  230SOL     OW  688   0.953   1.207   1.170  0.2302 -0.1108  0.3785
  230SOL    HW1  689   0.946   1.107   1.191  0.0243 -2.3492  0.8361
  230SOL    HW2  690   0.991   1.260   1.249  0.2645 -1.7663 -0.0766
  231SOL     OW  691   2.723   3.053   2.371 -0.3325 -0.2172 -0.2832
  231SOL    HW1  692   2.776   3.083   2.291 -1.1957  0.9079  0.7529
  231SOL    HW2  693   2.660   3.129   2.407  1.1993  1.9855  2.2247
  232SOL     OW  694   0.251   2.495   0.226  0.0208  0.0109 -0.1040
  232SOL    HW1  695   0.313   2.423   0.265  0.3524  1.1967 -0.0371
  232SOL    HW2  696   0.173   2.464   0.169  1.4693  0.6802 -0.9260
  233SOL     OW  697   1.205   2.324   2.354  0.1328  0.0110  0.1578
  233SOL    HW1  698   1.179   2.411   2.301 -0.5700 -3.0688 -2.0352
  233SOL    HW2  699   1.303   2.316   2.357 -3.7642  0.4604  0.5987
  234SOL     OW  700   0.935   1.627   1.961  0.7605  0.0578  0.1740
  234SOL    HW1  701   0.982   1.620   1.876  0.0749  0.4572  2.4710
  234SOL    HW2  702   0.912   1.727   1.978  0.0321 -2.2548  1.2738
  235SOL     OW  703   0.842   1.888   1.762  0.1525  0.4701  0.4927
  235SOL    HW1  704   0.870   1.980   1.734 -0.5861 -1.1462 -0.4885
  235SOL    HW2  705   0.838   1.876   1.865 -0.5388 -0.5678  1.9565
  236SOL     OW  706   1.504   2.935   2.917 -0.2118 -0.2190  0.1536
  236SOL    HW1  707   1.553   2.920   3.008  0.9400  1.4155  1.1204
  236SOL    HW2  708   1.465   2.850   2.885  0.1455  2.8272 -0.7156
  237SOL     OW  709   1.345   0.198   1.049 -0.2584 -0.1735  0.0978
  237SOL    HW1  710   1.303   0.122   1.102 -0.1083  2.0664  0.7457
  237SOL    HW2  711   1.440   0.169   1.019 -0.7181 -0.6616  0.9479
  238SOL     OW  712   1.403   0.620   2.811 -0.9653  0.2544  0.0606
  238SOL    HW1  713   1.363   0.638   2.721 -0.0090  1.0028  2.7196
  238SOL    HW2  714   1.400   0.704   2.868 -2.0513 -2.2318  1.7487
  239SOL     OW  715   3.094   0.773   2.434 -0.7912 -0.4857  0.2609
  239SOL    HW1  716   3.105   0.875   2.415 -2.4764  1.0721 -0.5494
  239SOL    HW2  717   2.996   0.743   2.440 -1.8420  0.3036 -0.0057
  240SOL     OW  718   2.310   2.957   0.704 -0.5289  0.0876 -0.1589
  240SOL    HW1  719   2.248   2.976   0.626  1.4308 -0.3576  0.0447
  240SOL    HW2  720   2.339   2.855   0.714 -0.5159 -0.2782 -1.7547
  241SOL     OW  721   1.606   1.071   1.195  0.2232  0.3500  0.3118
  241SOL    HW1  722   1.604   1.083   1.094 -1.3583  1.1442 -1.1264
  241SOL    HW2  723   1.692   1.100   1.234 -1.9918  0.0645  2.0120
  242SOL     OW  724   0.711   0.893   0.728 -0.1140 -0.0026  0.4113
  242SOL    HW1  725   0.668   0.983   0.756  1.2499  2.8612 -2.4651
  242SOL    HW2  726   0.668   0.811   0.759  2.3726  0.4864 -2.8562
  243SOL     OW  727   0.315   0.816   1.060  0.1900  0.2521 -0.3323
  243SOL    HW1  728   0.284   0.753   1.135 -0.0463  2.2377 -1.7358
  243SOL    HW2  729   0.415   0.805   1.044 -2.8117 -0.0506  1.4848
  244SOL     OW  730   1.211   0.310   0.048 -0.5893 -0.0275 -0.0770
  244SOL    HW1  731   1.121   0.336   0.008  0.9987 -1.5832  1.3620
  244SOL    HW2  732   1.201   0.253   0.133 -2.6084 -2.5541 -1.1000
  245SOL     OW  733   2.060   1.088   0.106  0.3878 -0.2328 -0.1013
  245SOL    HW1  734   2.061   1.071   0.008  0.2944  0.4436 -0.0243
  245SOL    HW2  735   2.152   1.112   0.143 -0.6534  1.1615 -0.1607
  246SOL     OW  736   3.053   0.851   1.828  0.0824 -0.0168 -0.1339
  246SOL    HW1  737   3.125   0.864   1.761  1.0156 -0.0352  0.7905
  246SOL    HW2  738   3.054   0.755   1.845  1.1963  1.4399  0.0678
  247SOL     OW  739   0.416   2.950   1.871 -0.1102 -0.0724 -0.0058
  247SOL    HW1  740   0.374   3.043   1.842 -0.8663  0.9977  0.6044
  247SOL    HW2  741   0.519   2.962   1.884  0.0464  0.7734 -1.5514
  248SOL     OW  742   0.714   1.402   2.407 -0.1630  0.4038  0.5048
  248SOL    HW1  743   0.804   1.445   2.395 -2.0886 -0.9145  0.7081
  248SOL    HW2  744   0.731   1.305   2.424 -1.2405  1.0344  1.8956
  249SOL     OW  745   0.460   3.046   2.760 -0.3278 -0.8520  0.0181
  249SOL    HW1  746   0.470   3.011   2.856  1.6699 -0.4660  1.8590
  249SOL    HW2  747   0.529   2.997   2.703 -0.6133  0.5750 -0.1298
  250SOL     OW  748   0.313   0.180   2.493  0.0731  0.2390 -0.4278
  250SOL    HW1  749   0.395   0.139   2.537  1.0700  0.4208 -2.7542
  250SOL    HW2  750   0.344   0.251   2.424 -0.6756  0.5735 -1.0174
  251SOL     OW  751   3.079   1.540   1.220 -0.5617  0.1423  0.2222
  251SOL    HW1  752   3.143   1.462   1.221 -3.3296  2.7072 -2.3061
  251SOL    HW2  753   3.044   1.559   1.313 -1.5277  0.3923  1.3089
  252SOL     OW  754   1.715   2.816   2.002 -0.1742  0.2280 -0.2847
  252SOL    HW1  755   1.750   2.794   1.909 -1.3021  3.3860 -0.2574
  252SOL    HW2  756   1.801   2.806   2.064  1.1280  0.9733  0.3575
  253SOL     OW  757   1.904   1.633   3.001  0.3778 -0.1302 -0.5254
  253SOL    HW1  758   1.832   1.700   3.041 -0.5957  1.4281  0.9409
  253SOL    HW2  759   1.954   1.591   3.077 -1.0533  1.8264 -0.9190
  254SOL     OW  760   0.575   1.493   1.866  0.0964 -0.2627 -0.2336
  254SOL    HW1  761   0.587   1.587   1.825  1.3863 -1.5858 -3.0625
  254SOL    HW2  762   0.628   1.481   1.956 -0.9333  0.1645 -0.3812
  255SOL     OW  763   0.916   2.952   1.404 -0.5272 -0.2850  0.1420
  255SOL    HW1  764   0.986   3.026   1.393 -0.8966 -2.2136 -0.2050
  255SOL    HW2  765   0.911   2.931   1.502  0.2608 -0.9490 -0.7424
  256SOL     OW  766   0.065   2.381   0.959 -0.2743 -0.4886  0.3906
  256SOL    HW1  767   0.167   2.371   0.943  0.0444 -1.6945  1.5692
  256SOL    HW2  768   0.040   2.326   1.040  1.2348  2.2615 -1.9914
  257SOL     OW  769   0.147   2.613   2.443  0.1400 -0.2437  0.9057
  257SOL    HW1  770   0.070   2.630   2.511 -0.3630 -0.8052  0.3272
  257SOL    HW2  771   0.235   2.589   2.487  0.9784 -1.2683  0.9850
  258SOL     OW  772   1.281   2.099   1.969 -0.0186  0.3607  0.0726
  258SOL    HW1  773   1.328   2.091   1.876  1.3780 -2.5199  0.3165
  258SOL    HW2  774   1.244   2.193   1.981 -1.2103 -1.2169 -2.6899
  259SOL     OW  775   1.283   1.730   2.462  0.1106 -0.0160 -0.0516
  259SOL    HW1  776   1.332   1.646   2.500 -1.3271 -2.0104  1.5517
  259SOL    HW2  777   1.190   1.740   2.501  2.2528 -4.4273  0.6942
  260SOL     OW  778   2.278   1.085   2.152 -0.2311 -0.1586 -0.1876
  260SOL    HW1  779   2.205   1.015   2.162  2.3368  0.5191  2.8198
  260SOL    HW2  780   2.266   1.134   2.059  0.0915  2.1431  0.1444
  261SOL     OW  781   1.300   0.859   0.837  0.4927  0.2418 -0.0091
  261SOL    HW1  782   1.347   0.794   0.905  2.7150 -2.6386  1.1849
  261SOL    HW2  783   1.371   0.920   0.791  0.5001  0.1738  0.9412
  262SOL     OW  784   2.263   2.183   2.604 -0.3797  0.4527  0.3131
  262SOL    HW1  785   2.173   2.231   2.600 -0.2920 -1.2150  0.8775
  262SOL    HW2  786   2.287   2.154   2.699  0.0659  0.3202 -1.6893
  263SOL     OW  787   0.886   2.198   0.831  0.1186  0.4058  0.1475
  263SOL    HW1  788   0.974   2.248   0.806  2.1206 -1.2754 -0.6047
  263SOL    HW2  789   0.815   2.214   0.760  1.2165  0.8950 -0.0585
  264SOL     OW  790   0.285   2.259   0.519 -0.1654  0.9411 -0.0797
  264SOL    HW1  791   0.234   2.343   0.546 -1.7755 -2.0122 -1.9306
  264SOL    HW2  792   0.230   2.176   0.544 -1.8853 -0.4092 -0.9579
  265SOL     OW  793   1.211   1.403   0.162 -0.2745 -0.0954 -0.0305
  265SOL    HW1  794   1.259   1.330   0.112  0.4534 -0.5893  0.5503
  265SOL    HW2  795   1.116   1.378   0.183  0.8571  1.1781  0.4418
  266SOL     OW  796   0.793   2.041   2.421  0.0533 -0.5498 -0.3092
  266SOL    HW1  797   0.892   2.057   2.389  2.7393  1.3908 -1.3739
  266SOL    HW2  798   0.730   2.123   2.416  1.0824  0.4836  0.5136
  267SOL     OW  799   1.830   0.859   2.321  0.3873  0.2648  0.0166
  267SOL    HW1  800   1.802   0.853   2.418 -1.2452 -1.3074  0.3678
  267SOL    HW2  801   1.776   0.932   2.274 -0.8187 -1.0401  1.7000
  268SOL     OW  802   0.706   1.367   0.299  0.2800 -0.4949 -0.5641
  268SOL    HW1  803   0.666   1.428   0.229  0.5597  0.3738  2.3764
  268SOL    HW2  804   0.799   1.348   0.263 -0.8541 -1.6988  1.3851
  269SOL     OW  805   2.551   1.813   2.640  0.0204  0.3008 -0.2184
  269SOL    HW1  806   2.594   1.886   2.698 -0.7392 -0.4300  2.0869
  269SOL    HW2  807   2.609   1.783   2.565 -2.4210 -0.0258 -1.5254
  270SOL     OW  808   0.970   2.097   3.065 -0.0194  0.1471 -0.2239
  270SOL    HW1  809   0.900   2.023   3.080  0.3863  0.2584 -1.9333
  270SOL    HW2  810   0.927   2.181   3.033  1.2839 -2.7461 -0.6007
  271SOL     OW  811   0.377   0.362   0.063 -0.1915  0.1089  0.6330
  271SOL    HW1  812   0.456   0.424   0.040  2.0704 -0.6563 -0.6479
  271SOL    HW2  813   0.390   0.267   0.033 -1.0516  2.4336 -2.5421
  272SOL     OW  814   2.901   0.239   0.262 -0.0086  0.4497 -0.2186
  272SOL    HW1  815   2.930   0.211   0.356  0.7506  2.2810 -0.2820
  272SOL    HW2  816   2.974   0.288   0.216 -0.6294  0.9660  3.3491
  273SOL     OW  817   0.301   0.111   1.812  0.1940 -0.0409 -0.1882
  273SOL    HW1  818   0.292   0.194   1.757  1.4419 -1.6414  0.3202
  273SOL    HW2  819   0.218   0.057   1.797  1.6225 -0.3376 -1.0586
  274SOL     OW  820   2.849   0.512   1.269 -0.5930 -0.1311  0.1659
  274SOL    HW1  821   2.853   0.411   1.283  0.4494  1.1518 -0.2786
  274SOL    HW2  822   2.797   0.548   1.190  2.0298 -1.5881  1.7350
  275SOL     OW  823   0.733   1.502   1.107  0.1116 -0.0948 -0.0648
  275SOL    HW1  824   0.718   1.564   1.025 -0.0228  0.6679  0.6958
  275SOL    HW2  825   0.820   1.448   1.094  2.6662  0.3321 -0.9866
  276SOL     OW  826   0.774   1.216   2.040  0.0159 -0.4602  0.1760
  276SOL    HW1  827   0.749   1.310   2.073 -0.9079 -0.8818 -0.8769
  276SOL    HW2  828   0.708   1.145   2.070  0.4196 -2.7610  0.2960
  277SOL     OW  829   1.226   2.367   1.946  0.0699  0.3643 -0.6530
  277SOL    HW1  830   1.292   2.431   1.991 -1.3313 -0.8248  0.6639
  277SOL    HW2  831   1.134   2.388   1.986  0.2193  2.0240  0.0468
  278SOL     OW  832   2.368   2.778   2.343 -0.2005  0.7403  0.1521
  278SOL    HW1  833   2.293   2.848   2.354 -2.5776  1.0695 -0.3105
  278SOL    HW2  834   2.329   2.687   2.363 -0.2326 -1.3181  3.1226
  279SOL     OW  835   1.356   1.927   0.081  0.3224 -0.0032  0.2151
  279SOL    HW1  836   1.375   1.946   3.129 -0.3791  0.2967  0.4472
  279SOL    HW2  837   1.268   1.968   0.111 -1.3318  0.3079  1.0588
  280SOL     OW  838   1.219   0.274   0.351  0.1443  0.6581 -0.1276
  280SOL    HW1  839   1.235   0.210   0.427 -2.6467  2.3109  3.0493
  280SOL    HW2  840   1.286   0.349   0.356  1.0416 -0.6682  2.6854
  281SOL     OW  841   0.377   0.298   1.493 -0.2934  0.4335  0.1826
  281SOL    HW1  842   0.350   0.346   1.581 -0.6065  1.6722  2.4892
  281SOL    HW2  843   0.398   0.199   1.517  0.2302 -2.0964  1.9025
  282SOL     OW  844   0.254   2.498   0.704  0.0468  0.1449 -0.3708
  282SOL    HW1  845   0.274   2.489   0.803  1.1721 -1.1016 -2.1229
  282SOL    HW2  846   0.154   2.518   0.687  0.3526  0.2002  0.3272
  283SOL     OW  847   1.539   1.908   1.864  0.3385  0.7146 -0.0500
  283SOL    HW1  848   1.504   1.842   1.935 -1.2004  0.1323 -1.3321
  283SOL    HW2  849   1.608   1.966   1.912 -0.1147  2.8687 -2.4201
  284SOL     OW  850   2.838   2.924   1.566  0.4071  0.3216 -0.0122
  284SOL    HW1  851   2.772   3.002   1.573 -3.4231 -0.5713 -1.3925
  284SOL    HW2  852   2.798   2.853   1.508  2.0105  2.9959 -0.3732
  285SOL     OW  853   0.063   2.703   0.255  0.3757  0.3468  0.1139
  285SOL    HW1  854   3.113   2.669   0.268  0.2550 -1.7367 -2.6577
  285SOL    HW2  855   0.123   2.622   0.246 -2.3391  1.1497 -1.0317
  286SOL     OW  856   0.502   2.841   1.120  0.2617 -0.0353  0.2448
  286SOL    HW1  857   0.532   2.934   1.144 -1.5173 -3.7692  0.4468
  286SOL    HW2  858   0.428   2.835   1.048  0.8170 -1.3071  0.6861
  287SOL     OW  859   0.798   1.586   0.660  0.1461  0.4349 -0.2335
  287SOL    HW1  860   0.874   1.531   0.684 -1.3574  3.4710  1.2536
  287SOL    HW2  861   0.820   1.675   0.621 -0.4044 -2.4144 -0.8740
  288SOL     OW  862   1.910   1.987   3.006 -0.4879  0.0350 -0.2327
  288SOL    HW1  863   1.962   1.952   2.928  2.1062 -0.3447 -0.7840
  288SOL    HW2  864   1.971   1.996   3.085 -1.7493 -0.3568 -4.6799
  289SOL     OW  865   2.674   1.619   0.457 -0.4333  0.0548 -0.2000
  289SOL    HW1  866   2.667   1.717   0.466  0.4088 -4.0861  1.3294
  289SOL    HW2  867   2.587   1.583   0.421 -1.6500  2.6877 -0.4479
  290SOL     OW  868   1.438   1.414   1.326 -0.0763  0.2313  0.5678
  290SOL    HW1  869   1.391   1.486   1.377  0.8056 -0.6813 -0.7864
  290SOL    HW2  870   1.377   1.374   1.250 -0.0948  0.5623 -0.2834
  291SOL     OW  871   1.334   1.189   0.031 -0.2784 -0.1296 -0.0752
  291SOL    HW1  872   1.289   1.100   0.059 -0.0444 -2.0089 -1.3669
  291SOL    HW2  873   1.324   1.212   3.079  1.6518 -0.0246 -0.2322
  292SOL     OW  874   1.429   1.524   0.325  0.0550  0.0279 -0.5995
  292SOL    HW1  875   1.359   1.461   0.283  0.1102 -1.2847  1.1514
  292SOL    HW2  876   1.514   1.518   0.266  0.3398 -2.1375  0.2384
  293SOL     OW  877   1.046   3.017   0.879 -0.2356 -0.3256  0.2963
  293SOL    HW1  878   0.971   2.979   0.935 -0.2198  0.5523 -0.8919
  293SOL    HW2  879   1.023   3.118   0.856  0.5424  2.7135  0.1006
  294SOL     OW  880   2.068   1.163   2.424 -0.1359  0.3022 -0.1122
  294SOL    HW1  881   2.064   1.092   2.349 -2.1656  1.8857  1.8188
  294SOL    HW2  882   2.008   1.135   2.506 -0.3240  3.3236  2.0991
  295SOL     OW  883   1.706   1.816   3.099  0.1235  0.0907 -0.4746
  295SOL    HW1  884   1.661   1.842   0.044 -0.3700  0.0574  0.2138
  295SOL    HW2  885   1.769   1.891   3.065 -0.1835 -0.4182 -1.3152
  296SOL     OW  886   1.289   0.697   1.627  0.1432  0.2467 -0.1635
  296SOL    HW1  887   1.185   0.692   1.621 -1.5503  0.2755  2.6170
  296SOL    HW2  888   1.340   0.707   1.540 -0.9835 -0.9922  0.1495
  297SOL     OW  889   3.130   0.591   1.880  0.1727 -0.1924 -0.1045
  297SOL    HW1  890   3.112   0.519   1.955 -1.6970 -0.8534  1.5199
  297SOL    HW2  891   0.081   0.627   1.872 -0.7540  0.0178 -2.3485
  298SOL     OW  892   1.540   1.757   1.338 -0.4626  0.1334  0.0447
  298SOL    HW1  893   1.470   1.692   1.379 -1.9225 -2.6856  1.5265
  298SOL    HW2  894   1.631   1.709   1.333  0.9172 -1.3983 -0.9159
  299SOL     OW  895   1.222   0.129   2.536 -0.4932  0.5864 -0.2041
  299SOL    HW1  896   1.279   0.067   2.591  0.6338  1.3229 -1.8994
  299SOL    HW2  897   1.178   0.078   2.458 -0.6291  0.4264  0.3117
  300SOL     OW  898   2.785   2.156   0.418 -0.1235  0.7130 -0.0207
  300SOL    HW1  899   2.880   2.188   0.404  1.2829 -0.8955  0.3247
  300SOL    HW2  900   2.734   2.223   0.473  0.0800  1.8497  0.6634
  301SOL     OW  901   2.014   0.651   2.624 -0.3153  0.8882 -0.5875
  301SOL    HW1  902   1.920   0.606   2.619 -2.1229 -1.8037  1.2979
  301SOL    HW2  903   2.017   0.733   2.686  1.5381  0.0198 -0.2156
  302SOL     OW  904   2.523   2.324   0.059  0.3634  0.5900 -0.1536
  302SOL    HW1  905   2.563   2.247   0.117  2.0278 -2.0910  0.6802
  302SOL    HW2  906   2.560   2.316   3.111 -1.6829 -2.0874  1.4499
  303SOL     OW  907   0.049   2.374   0.104  0.1974 -0.0212  0.4122
  303SOL    HW1  908   3.110   2.386   0.158  3.6988  1.2693  0.4428
  303SOL    HW2  909   0.032   2.416   0.007  3.0679  2.3594 -1.7360
  304SOL     OW  910   0.107   1.651   1.046  0.6282  0.3397 -0.0858
  304SOL    HW1  911   0.047   1.629   1.121  0.8215  2.0978 -2.6156
  304SOL    HW2  912   0.199   1.669   1.079 -0.2156 -1.3137 -1.3449
  305SOL     OW  913   2.724   0.610   1.708  0.1487 -0.1620 -0.3879
  305SOL    HW1  914   2.817   0.572   1.702  0.2341 -0.6800 -0.9653
  305SOL    HW2  915   2.691   0.639   1.616 -0.1372 -1.1359 -1.2124
  306SOL     OW  916   1.645   1.393   1.004 -0.0153  0.0643 -0.0972
  306SOL    HW1  917   1.547   1.423   1.002  0.3726 -3.0397 -1.3855
  306SOL    HW2  918   1.685   1.408   1.095  0.9500  0.7061 -0.4483
  307SOL     OW  919   0.184   0.259   0.710 -0.0181 -0.3242 -0.3145
  307SOL    HW1  920   0.162   0.232   0.611 -0.4331 -0.0731 -0.5593
  307SOL    HW2  921   0.275   0.219   0.736  1.3927  0.2527 -1.3145
  308SOL     OW  922   0.057   1.285   2.053 -0.4502 -0.1733  0.1724
  308SOL    HW1  923   3.104   1.266   2.061  1.2815 -0.7958 -1.5084
  308SOL    HW2  924   0.095   1.229   1.975  0.6278 -0.2789 -2.0023
  309SOL     OW  925   2.933   1.874   2.536  0.4649 -0.1454 -0.1227
  309SOL    HW1  926   2.908   1.967   2.492  2.0089  1.2699 -2.3212
  309SOL    HW2  927   2.945   1.881   2.635  0.6615 -0.2510  0.2649
  310SOL     OW  928   2.639   1.085   2.975  0.1852 -0.3322 -0.1127
  310SOL    HW1  929   2.666   1.148   2.901  1.6748 -1.6725 -2.0811
  310SOL    HW2  930   2.565   1.030   2.937  0.7780  2.6578 -0.3254
  311SOL     OW  931   1.936   0.858   2.859 -0.2746 -0.0593  0.0458
  311SOL    HW1  932   1.982   0.920   2.928  1.9034  2.3348  1.9949
  311SOL    HW2  933   1.919   0.771   2.902  0.2638  2.7058 -2.0399
  312SOL     OW  934   1.362   2.239   2.726  0.2953  0.5659 -0.0275
  312SOL    HW1  935   1.459   2.217   2.693 -0.1070 -0.0003  0.5251
  312SOL    HW2  936   1.315   2.164   2.781 -1.8727  0.1420  2.8704
  313SOL     OW  937   0.321   0.403   0.339 -0.0820  0.0980 -0.0521
  313SOL    HW1  938   0.360   0.411   0.246  1.4355 -1.2547 -0.3131
  313SOL    HW2  939   0.282   0.490   0.376  0.9213  1.6947  1.0475
  314SOL     OW  940   0.760   1.951   1.260 -0.8092 -0.0609 -0.4000
  314SOL    HW1  941   0.810   2.017   1.327  1.0260  0.2469  2.5252
  314SOL    HW2  942   0.794   1.858   1.289  0.1748  2.3359 -0.0500
  315SOL     OW  943   0.629   1.844   2.202 -0.2193  0.2121 -0.3528
  315SOL    HW1  944   0.577   1.833   2.117 -2.0706 -0.0163  0.0076
  315SOL    HW2  945   0.589   1.796   2.283 -0.0392  0.5212  2.2899
  316SOL     OW  946   0.416   2.637   0.552  0.3397 -0.2656  0.3208
  316SOL    HW1  947   0.366   2.566   0.598  0.5159  3.4853 -1.5606
  316SOL    HW2  948   0.478   2.688   0.619 -2.3309 -1.1411  2.3992
  317SOL     OW  949   2.247   0.138   1.318  0.0082  0.0273  0.2950
  317SOL    HW1  950   2.321   0.169   1.381 -0.6411 -1.0384  1.8653
  317SOL    HW2  951   2.252   0.172   1.223 -0.0844  0.7821 -0.9056
  318SOL     OW  952   1.852   2.799   0.426 -0.0638  0.1810 -0.7744
  318SOL    HW1  953   1.857   2.874   0.491  1.1822  0.1544  0.1601
  318SOL    HW2  954   1.922   2.731   0.444 -0.8350  2.2556  0.4725
  319SOL     OW  955   1.636   0.516   2.856 -0.7966  0.5812  0.4429
  319SOL    HW1  956   1.558   0.576   2.824  1.2982 -1.2188 -0.9725
  319SOL    HW2  957   1.598   0.428   2.897 -0.2114  0.9066 -1.6324
  320SOL     OW  958   2.965   2.395   2.036 -0.3938  0.3358 -0.2137
  320SOL    HW1  959   2.913   2.317   2.073  0.4357  0.0697 -3.0525
  320SOL    HW2  960   2.976   2.472   2.104  2.1148  0.4521 -1.3357
  321SOL     OW  961   0.518   2.533   2.946  0.0613  0.6557 -0.3115
  321SOL    HW1  962   0.553   2.536   3.041 -0.6045  2.4045 -1.5222
  321SOL    HW2  963   0.456   2.612   2.929  2.3118  1.8045 -1.3099
  322SOL     OW  964   2.327   0.658   2.390  0.7627  0.0556  0.4399
  322SOL    HW1  965   2.317   0.558   2.375  2.5549  0.8705  2.2736
  322SOL    HW2  966   2.365   0.678   2.480 -1.4601  3.0461 -1.8937
  323SOL     OW  967   2.464   1.129   0.740  0.1856 -0.1178  0.4635
  323SOL    HW1  968   2.484   1.040   0.788  2.7991 -0.4299  2.0588
  323SOL    HW2  969   2.384   1.121   0.677 -0.9713 -0.3877  0.3939
  324SOL     OW  970   2.740   0.544   1.024 -0.1115  0.6366 -0.0457
  324SOL    HW1  971   2.774   0.570   0.933 -2.5423 -1.2470  0.5355
  324SOL    HW2  972   2.642   0.559   1.049  2.4245  0.4164  0.8259
  325SOL     OW  973   2.664   3.137   1.592 -0.5781  0.3315 -0.0864
  325SOL    HW1  974   2.716   0.042   1.663  0.5764  2.3014  2.3271
  325SOL    HW2  975   2.685   0.038   1.503  0.8337 -1.0225 -0.2114
  326SOL     OW  976   1.816   2.781   0.161  0.3015  0.0327  0.1987
  326SOL    HW1  977   1.868   2.703   0.124 -1.8090  0.9757 -0.0974
  326SOL    HW2  978   1.820   2.785   0.262 -0.9599  2.8798  2.0353
  327SOL     OW  979   1.991   1.772   0.442 -0.2806 -0.0366  0.0478
  327SOL    HW1  980   1.989   1.863   0.402 -2.3954 -0.0322  0.6742
  327SOL    HW2  981   1.964   1.779   0.540 -0.4445  1.2977  0.0230
  328SOL     OW  982   3.053   2.309   2.321 -0.6437 -0.1277 -0.0118
  328SOL    HW1  983   3.019   2.398   2.287 -0.3389  0.0022  0.0680
  328SOL    HW2  984   3.138   2.278   2.273 -1.1428 -2.8036 -0.9039
  329SOL     OW  985   0.103   2.255   1.444  1.1836 -0.3227 -0.7474
  329SOL    HW1  986   0.089   2.193   1.359 -0.5102  0.0160 -0.1168
  329SOL    HW2  987   0.059   2.215   1.526  4.0892 -0.2435 -0.4875
  330SOL     OW  988   2.768   0.938   2.641  0.2089  0.1245 -0.6148
  330SOL    HW1  989   2.824   1.019   2.679  1.8147  2.6663  2.9289
  330SOL    HW2  990   2.754   0.952   2.542 -0.8146  0.5299  1.4938
  331SOL     OW  991   2.362   2.250   1.030  0.0837 -0.2377  0.6576
  331SOL    HW1  992   2.268   2.213   1.045 -2.3994 -3.9379 -0.8979
  331SOL    HW2  993   2.347   2.341   0.979 -2.0660  1.2101 -0.7189
  332SOL     OW  994   0.543   2.757   0.765  0.1001  0.4375  0.3555
  332SOL    HW1  995   0.574   2.849   0.751  0.2805 -1.0030  0.5692
  332SOL    HW2  996   0.457   2.743   0.818  1.7025 -2.8216  1.5501
  333SOL     OW  997   2.330   1.944   2.497  0.2518 -0.1948  0.3504
  333SOL    HW1  998   2.314   2.044   2.521 -0.2945  1.2710 -2.9094
  333SOL    HW2  999   2.399   1.897   2.555 -1.2209 -0.1539 -3.8502
  334SOL     OW 1000   0.568   1.111   0.832 -0.5029 -0.2513  0.0361
  334SOL    HW1 1001   0.642   1.176   0.865  2.0941  2.8898  0.2645
  334SOL    HW2 1002   0.496   1.094   0.895 -0.9168  0.9942 -3.4652
  335SOL     OW 1003   0.029   1.902   2.415  0.2404 -0.2825 -0.9005
  335SOL    HW1 1004   3.077   1.884   2.452 -1.0115 -1.1353 -0.0948
  335SOL    HW2 1005   0.042   1.884   2.313 -0.3488  0.0879  1.8106
  336SOL     OW 1006   2.238   3.012   2.404  0.3202 -0.5559 -0.3044
  336SOL    HW1 1007   2.240   3.048   2.310  0.6386 -1.1186  0.5133
  336SOL    HW2 1008   2.174   3.068   2.458  0.1769  0.2922  2.2025
  337SOL     OW 1009   0.936   0.801   0.627 -0.3872 -0.3038  0.1663
  337SOL    HW1 1010   0.844   0.836   0.656  2.2463  1.0596 -0.2528
  337SOL    HW2 1011   0.994   0.866   0.683 -2.8470  1.0675  1.5673
  338SOL     OW 1012   1.598   2.004   1.307 -0.4065 -0.2730 -0.1847
  338SOL    HW1 1013   1.564   1.910   1.331 -1.4839  0.9663 -0.5449
  338SOL    HW2 1014   1.519   2.068   1.318  0.8004  1.3194  3.0144
  339SOL     OW 1015   0.371   1.707   1.138 -0.0564  0.4956  0.3111
  339SOL    HW1 1016   0.432   1.628   1.151  2.1653 -1.9367  0.4788
  339SOL    HW2 1017   0.422   1.793   1.121  1.0183  0.1024  1.2088
  340SOL     OW 1018   0.935   2.992   1.746  0.8157  0.0896 -0.1304
  340SOL    HW1 1019   0.987   3.077   1.772 -1.1812 -0.1608  1.7744
  340SOL    HW2 1020   0.992   2.925   1.694 -0.3637  0.5497 -2.2561
  341SOL     OW 1021   2.211   1.629   1.106 -0.1768 -0.3779 -0.2038
  341SOL    HW1 1022   2.307   1.611   1.079  1.2320 -2.8056  0.4181
  341SOL    HW2 1023   2.149   1.556   1.070 -3.4369 -2.0339  0.0040
  342SOL     OW 1024   2.528   1.390   0.745 -0.1935 -0.2591 -0.2014
  342SOL    HW1 1025   2.502   1.286   0.741  0.7723 -3.4821 -0.9750
  342SOL    HW2 1026   2.629   1.397   0.752  0.6833  1.8568  2.2221
  343SOL     OW 1027   2.053   0.067   0.920 -0.5023 -0.6658 -0.6007
  343SOL    HW1 1028   2.066   0.165   0.927 -0.8620 -0.2319  0.2789
  343SOL    HW2 1029   2.133   0.012   0.951 -3.7551 -1.7810  0.7387
  344SOL     OW 1030   2.437   0.298   0.340  0.8809 -0.3754  0.2313
  344SOL    HW1 1031   2.505   0.291   0.267  0.4027  1.3815  2.0272
  344SOL    HW2 1032   2.424   0.209   0.387  1.6478 -0.2884  3.2932
  345SOL     OW 1033   0.817   2.552   1.891 -0.4721  0.4433  0.0412
  345SOL    HW1 1034   0.869   2.542   1.803  1.3362 -2.1603  0.7116
  345SOL    HW2 1035   0.850   2.470   1.955 -3.0337  0.2284  0.9261
  346SOL     OW 1036   2.355   2.482   0.837 -0.1223 -0.6399  0.1713
  346SOL    HW1 1037   2.349   2.555   0.914  1.4345  2.5012  1.4014
  346SOL    HW2 1038   2.374   2.521   0.744  2.4740  2.0440  0.2510
  347SOL     OW 1039   2.370   3.035   1.306  0.4557  0.3533 -0.2017
  347SOL    HW1 1040   2.450   3.029   1.244 -0.2947 -1.9875  2.6724
  347SOL    HW2 1041   2.326   3.125   1.316 -2.1095  1.0374  0.7250
  348SOL     OW 1042   0.781   0.669   1.486  0.2726 -0.5955  0.4138
  348SOL    HW1 1043   0.739   0.759   1.484 -0.1937 -2.5144  0.2584
  348SOL    HW2 1044   0.831   0.656   1.400  0.8468  1.4133  0.7650
  349SOL     OW 1045   2.378   0.567   2.680  0.0775 -0.3309  0.3448
  349SOL    HW1 1046   2.277   0.594   2.665 -0.8196  0.1493 -1.2562
  349SOL    HW2 1047   2.444   0.648   2.687 -3.3424  0.1932 -0.8943
  350SOL     OW 1048   2.233   2.399   0.099 -0.3294  0.7952  0.1924
  350SOL    HW1 1049   2.172   2.327   0.050 -3.2115 -3.5828 -2.7266
  350SOL    HW2 1050   2.328   2.367   0.087  1.4982  0.5526  0.5024
  351SOL     OW 1051   0.962   0.388   0.384 -0.0586 -0.2591 -0.3924
  351SOL    HW1 1052   0.995   0.477   0.429  0.2007  3.5617  1.0074
  351SOL    HW2 1053   1.037   0.322   0.381  1.0561  2.3818 -1.8083
  352SOL     OW 1054   1.745   2.014   2.725  0.0965 -0.1257  0.4227
  352SOL    HW1 1055   1.682   1.937   2.697 -1.0408 -1.5939  1.5981
  352SOL    HW2 1056   1.841   1.995   2.696  0.5565 -0.0597 -2.7729
  353SOL     OW 1057   0.721   1.412   2.826  0.2932 -0.3897 -0.2700
  353SOL    HW1 1058   0.650   1.445   2.754 -0.2278  0.3212 -0.4977
  353SOL    HW2 1059   0.811   1.461   2.811 -0.6509 -0.7846  0.3367
  354SOL     OW 1060   0.752   2.611   2.784  0.1247 -0.4183 -0.0892
  354SOL    HW1 1061   0.681   2.559   2.833 -1.7132  2.0140  0.9617
  354SOL    HW2 1062   0.833   2.634   2.840 -0.4363  2.0663 -0.0319
  355SOL     OW 1063   2.357   2.772   1.710 -0.4339 -0.3548 -0.2137
  355SOL    HW1 1064   2.395   2.854   1.665 -0.6199  0.9538  1.8063
  355SOL    HW2 1065   2.417   2.693   1.697  0.2647 -0.0434 -0.2055
  356SOL     OW 1066   2.869   1.015   1.076 -0.9114  0.0216 -0.2171
  356SOL    HW1 1067   2.922   0.962   1.139 -4.1942  3.1321 -0.6403
  356SOL    HW2 1068   2.874   0.975   0.982  1.6926 -1.0564  1.4282
  357SOL     OW 1069   2.702   0.153   1.356 -0.3290 -0.1837  0.0286
  357SOL    HW1 1070   2.789   0.198   1.376 -0.1568  0.4448 -1.2441
  357SOL    HW2 1071   2.702   0.148   1.254  3.9963  2.1091  1.3867
  358SOL     OW 1072   0.240   1.856   1.724 -0.3632 -0.4059  0.2007
  358SOL    HW1 1073   0.252   1.781   1.787 -2.1369  0.8127  0.3498
  358SOL    HW2 1074   0.201   1.941   1.763  1.3724  1.3369 -0.3060
  359SOL     OW 1075   2.946   3.019   2.562  0.1482 -0.5907 -0.2920
  359SOL    HW1 1076   2.851   3.026   2.525 -4.5172 -2.1815 -1.6543
  359SOL    HW2 1077   3.009   2.982   2.497  0.2950  0.9948  1.3133
  360SOL     OW 1078   1.060   0.409   1.562  0.1646 -0.5622  0.0091
  360SOL    HW1 1079   1.090   0.395   1.467 -0.3682 -0.9843  3.1027
  360SOL    HW2 1080   1.063   0.509   1.589  4.3039 -0.1164  3.1216
  361SOL     OW 1081   2.335   2.683   1.035  0.2447 -0.2120  0.1912
  361SOL    HW1 1082   2.317   2.707   1.131  0.2450 -0.5996  1.0564
  361SOL    HW2 1083   2.428   2.719   1.000  3.7495  0.1122 -0.2734
  362SOL     OW 1084   0.891   3.145   0.553 -0.3339 -0.8055 -0.7579
  362SOL    HW1 1085   0.799   3.097   0.548 -1.9377 -0.7514  1.0918
  362SOL    HW2 1086   0.966   3.098   0.501  0.2771 -0.1854  0.2673
  363SOL     OW 1087   1.265   1.402   0.772 -0.2307  0.0756 -0.0504
  363SOL    HW1 1088   1.330   1.408   0.696 -0.6884 -0.5343 -0.1870
  363SOL    HW2 1089   1.311   1.451   0.848  0.9433  1.9831  0.2214
  364SOL     OW 1090   0.382   0.800   1.611  0.3149  0.0009 -0.8365
  364SOL    HW1 1091   0.443   0.862   1.665  0.4023 -3.5224  1.1689
  364SOL    HW2 1092   0.365   0.848   1.521 -2.0532  0.7565 -0.2715
  365SOL     OW 1093   2.880   0.868   0.797  0.4096 -0.2957  0.0551
  365SOL    HW1 1094   2.925   0.926   0.725  0.1029  3.0536  1.5097
  365SOL    HW2 1095   2.887   0.768   0.778 -0.9193 -1.3158  0.6463
  366SOL     OW 1096   2.656   1.572   1.129 -0.4024 -0.2304 -0.2511
  366SOL    HW1 1097   2.571   1.547   1.082 -1.1588  0.1316 -0.1166
  366SOL    HW2 1098   2.738   1.588   1.068 -1.2052 -0.8637 -1.1597
  367SOL     OW 1099   2.105   2.089   2.172  0.7406 -0.9480  0.0289
  367SOL    HW1 1100   2.143   1.998   2.156  0.5018  3.2563 -2.0979
  367SOL    HW2 1101   2.018   2.089   2.229 -1.9849 -0.9657 -0.4068
  368SOL     OW 1102   2.444   1.984   1.059 -0.1583  0.4751 -0.3596
  368SOL    HW1 1103   2.507   1.966   0.981 -0.5894  2.8050  0.6344
  368SOL    HW2 1104   2.398   2.073   1.054  1.7484 -0.4695  1.6690
  369SOL     OW 1105   2.155   2.819   2.641 -0.2239 -0.1560 -0.1631
  369SOL    HW1 1106   2.133   2.868   2.553 -0.2606 -0.7113  1.8530
  369SOL    HW2 1107   2.146   2.883   2.715 -0.1282  2.0302  1.0585
  370SOL     OW 1108   0.259   0.360   1.015  0.2966  0.4969 -0.1242
  370SOL    HW1 1109   0.257   0.372   1.113 -1.5629 -1.5578 -1.4899
  370SOL    HW2 1110   0.259   0.259   0.993  1.6433 -0.7673 -2.5240
  371SOL     OW 1111   0.509   1.945   0.340  0.1212 -0.0761  0.4150
  371SOL    HW1 1112   0.528   1.853   0.301  1.0938  0.3411  1.7383
  371SOL    HW2 1113   0.563   1.969   0.422  3.2514 -0.6078  0.1128
  372SOL     OW 1114   0.870   1.085   3.072 -0.2403 -0.6463  0.1772
  372SOL    HW1 1115   0.932   1.058   0.004 -1.0005 -1.5674 -2.5415
  372SOL    HW2 1116   0.903   1.039   2.988  1.0832 -0.3431 -1.1779
  373SOL     OW 1117   1.339   2.591   2.487 -0.1316  0.0270  1.0723
  373SOL    HW1 1118   1.395   2.512   2.452  1.0680  0.1208 -2.5151
  373SOL    HW2 1119   1.265   2.566   2.550 -2.5881 -0.5011  0.3544
  374SOL     OW 1120   0.434   2.292   0.290  0.5258 -0.1801  0.2221
  374SOL    HW1 1121   0.383   2.291   0.380  1.8915  0.0756  2.4184
  374SOL    HW2 1122   0.458   2.196   0.270 -3.6222 -0.8675 -1.0838
  375SOL     OW 1123   0.570   0.780   1.887  0.3414  0.6517  0.6206
  375SOL    HW1 1124   0.554   0.760   1.986 -1.1172 -3.1691 -2.0723
  375SOL    HW2 1125   0.633   0.714   1.842  2.3084 -3.0526  1.4503
  376SOL     OW 1126   0.343   2.342   1.572  0.3907 -0.7484  0.0036
  376SOL    HW1 1127   0.262   2.308   1.518  0.6369 -0.7787 -0.5388
  376SOL    HW2 1128   0.319   2.388   1.663 -1.9356 -2.2096  0.4554
  377SOL     OW 1129   2.921   1.564   2.696 -0.4836 -0.0046  0.3683
  377SOL    HW1 1130   2.968   1.602   2.780  2.4624  1.2238 -0.1699
  377SOL    HW2 1131   2.841   1.506   2.713  0.5893  1.0133  1.2077
  378SOL     OW 1132   1.587   2.877   0.038 -0.2387  0.4605  0.3174
  378SOL    HW1 1133   1.674   2.848   0.078 -3.6253 -0.4482  2.3901
  378SOL    HW2 1134   1.512   2.812   0.062 -1.5584  1.2692 -0.8766
  379SOL     OW 1135   1.672   0.737   0.647 -0.1804  0.3143  0.1037
  379SOL    HW1 1136   1.680   0.669   0.726 -2.4335 -2.1303 -0.9762
  379SOL    HW2 1137   1.631   0.822   0.678 -0.0288  1.1806 -2.7678
  380SOL     OW 1138   0.360   1.915   1.489 -0.4390  0.7526 -0.0916
  380SOL    HW1 1139   0.410   1.828   1.479  1.0219  2.1445 -1.1716
  380SOL    HW2 1140   0.314   1.920   1.582  3.9732 -1.0287  0.9829
  381SOL     OW 1141   2.357   1.610   2.634 -1.0860 -0.0688 -0.1180
  381SOL    HW1 1142   2.379   1.708   2.650 -0.8726 -1.5836 -2.0417
  381SOL    HW2 1143   2.259   1.594   2.636  3.0783 -0.0843 -0.1145
  382SOL     OW 1144   0.099   0.178   2.652 -0.2096  0.2096  0.2236
  382SOL    HW1 1145   0.069   0.080   2.664 -1.1595 -2.6080 -1.6385
  382SOL    HW2 1146   0.168   0.188   2.584 -3.8878  0.6016  0.2656
  383SOL     OW 1147   1.727   1.195   3.004  0.4434  0.3711  0.0448
  383SOL    HW1 1148   1.795   1.251   2.958 -2.3783  0.2752  1.4633
  383SOL    HW2 1149   1.655   1.161   2.940  0.1153  1.3400  0.5277
  384SOL     OW 1150   1.153   2.010   1.316  0.2010  0.3969  0.3760
  384SOL    HW1 1151   1.074   2.073   1.330  2.5950 -2.8889  2.6651
  384SOL    HW2 1152   1.245   2.053   1.347  1.8046  3.9983  1.0139
  385SOL     OW 1153   1.904   2.768   0.878 -0.7265  0.4449 -0.1084
  385SOL    HW1 1154   1.839   2.842   0.906 -0.4010  0.3144  1.4035
  385SOL    HW2 1155   1.862   2.674   0.888  0.0961  0.9155 -1.3932
  386SOL     OW 1156   1.641   2.158   1.067  0.4634 -0.0244  0.1443
  386SOL    HW1 1157   1.647   2.096   1.149  1.6139 -0.9944  2.4053
  386SOL    HW2 1158   1.599   2.246   1.094 -0.4120 -0.4731 -0.1304
  387SOL     OW 1159   2.701   2.234   1.478 -0.0450  0.0072 -0.4632
  387SOL    HW1 1160   2.609   2.284   1.474 -1.4196 -4.2840  0.1719
  387SOL    HW2 1161   2.768   2.282   1.539 -0.6373  1.5302  1.4711
  388SOL     OW 1162   2.639   0.881   1.543  0.7196  0.0308 -0.0334
  388SOL    HW1 1163   2.634   0.790   1.503 -1.5029  1.0731  0.0568
  388SOL    HW2 1164   2.734   0.898   1.577 -0.8899 -0.7831 -1.5524
  389SOL     OW 1165   1.888   0.930   0.241 -0.0688  0.2033 -0.6632
  389SOL    HW1 1166   1.971   0.984   0.217  0.9173  0.3286  2.9372
  389SOL    HW2 1167   1.905   0.891   0.337  2.8162  0.5191  3.5781
  390SOL     OW 1168   1.566   1.833   2.650 -0.1759 -0.2270  0.4395
  390SOL    HW1 1169   1.492   1.884   2.600 -3.5708 -0.0761 -0.8503
  390SOL    HW2 1170   1.632   1.798   2.581 -1.0575 -2.8990  0.3671
  391SOL     OW 1171   1.165   2.116   0.118  0.1509 -0.2894  0.7304
  391SOL    HW1 1172   1.145   2.206   0.166 -0.1753 -0.1473  1.4832
  391SOL    HW2 1173   1.090   2.091   0.048 -0.1966 -1.5600 -1.5429
  392SOL     OW 1174   0.227   2.736   1.748  0.1811 -0.4388 -0.5613
  392SOL    HW1 1175   0.296   2.811   1.752 -0.8520  0.3361 -1.4308
  392SOL    HW2 1176   0.269   2.650   1.781  0.4178  2.7104 -2.3242
  393SOL     OW 1177   1.366   2.329   0.076  0.2524 -0.0040  0.3582
  393SOL    HW1 1178   1.307   2.242   0.084 -3.8478 -3.9913  2.0935
  393SOL    HW2 1179   1.316   2.399   0.020 -1.8054 -0.4197 -1.3992
  394SOL     OW 1180   0.351   0.766   2.310 -0.6812 -0.1816  0.3226
  394SOL    HW1 1181   0.341   0.798   2.402  1.9394 -0.5934 -3.1765
  394SOL    HW2 1182   0.288   0.688   2.294 -1.1684 -1.5655 -0.5776
  395SOL     OW 1183   0.389   1.185   1.063  0.3788  0.3427  0.4713
  395SOL    HW1 1184   0.409   1.273   1.101 -0.2391 -4.1671 -0.7058
  395SOL    HW2 1185   0.289   1.180   1.031 -2.3070 -0.4662 -2.6408
  396SOL     OW 1186   1.713   1.054   2.211 -0.2039  0.3927  0.1586
  396SOL    HW1 1187   1.774   1.058   2.129 -0.4132 -1.8313  2.5782
  396SOL    HW2 1188   1.617   1.028   2.186 -2.0703  1.1947 -0.1736
  397SOL     OW 1189   0.857   0.036   0.067  0.0704  0.4269 -0.4943
  397SOL    HW1 1190   0.854   0.045   3.109 -0.3605  0.9969 -1.0009
  397SOL    HW2 1191   0.788   0.090   0.116 -0.4761 -3.1660  0.2736
  398SOL     OW 1192   0.871   2.251   2.719  0.2470  0.1711 -0.1276
  398SOL    HW1 1193   0.860   2.300   2.809  0.5895 -1.2723 -0.8618
  398SOL    HW2 1194   0.830   2.158   2.725  1.7452  1.3220 -0.9411
  399SOL     OW 1195   2.085   1.528   2.631  0.2580  0.1649 -0.0698
  399SOL    HW1 1196   2.019   1.500   2.699  0.2759  1.3078  0.1945
  399SOL    HW2 1197   2.058   1.502   2.540 -1.9714 -1.4644  1.8607
  400SOL     OW 1198   2.075   1.397   1.516  0.4579 -0.3318 -0.2285
  400SOL    HW1 1199   2.041   1.318   1.464  0.2438 -4.4711 -2.6324
  400SOL    HW2 1200   2.105   1.478   1.462 -2.2381  1.9530  1.0206
  401SOL     OW 1201   1.247   1.326   1.156 -0.2074 -0.2205 -0.3762
  401SOL    HW1 1202   1.257   1.227   1.128  2.9567 -1.3000  0.9207
  401SOL    HW2 1203   1.157   1.346   1.204  1.9645  1.8639  0.0832
  402SOL     OW 1204   3.109   2.629   1.721 -0.1887  0.5950 -0.0093
  402SOL    HW1 1205   3.077   2.615   1.628  2.2897  0.4221  1.1474
  402SOL    HW2 1206   0.063   2.656   1.721 -1.8147  0.1067 -1.0207
  403SOL     OW 1207   0.245   1.368   2.251 -0.7114  0.9294  0.0003
  403SOL    HW1 1208   0.187   1.436   2.303 -2.2781  0.2401  2.8755
  403SOL    HW2 1209   0.198   1.340   2.165 -1.8985 -0.9982  0.3340
  404SOL     OW 1210   2.324   1.795   1.477 -0.5629 -0.1611  0.3447
  404SOL    HW1 1211   2.299   1.872   1.543  2.7608 -2.2176  1.0816
  404SOL    HW2 1212   2.393   1.827   1.405  2.2212 -2.7953  0.0681
  405SOL     OW 1213   2.759   0.516   2.628  0.0238  0.1521  0.5630
  405SOL    HW1 1214   2.790   0.537   2.538  0.4349  0.5417  0.8853
  405SOL    HW2 1215   2.801   0.427   2.653  0.2519  3.6003 -1.3167
  406SOL     OW 1216   1.100   1.303   2.888  0.6256 -0.1185 -0.3068
  406SOL    HW1 1217   1.027   1.371   2.866  0.7740 -1.5152 -0.4169
  406SOL    HW2 1218   1.057   1.229   2.939  1.4769  2.0017 -1.6527
  407SOL     OW 1219   1.911   2.577   3.098 -0.2202 -0.2630 -0.4096
  407SOL    HW1 1220   1.868   2.528   0.035 -1.7134 -1.2695 -0.1545
  407SOL    HW2 1221   1.871   2.544   3.010 -0.2299 -2.2250 -2.5394
  408SOL     OW 1222   0.408   0.078   0.003  0.0057 -0.2796  0.0657
  408SOL    HW1 1223   0.371   3.132   0.027  0.2161 -0.6466 -0.8723
  408SOL    HW2 1224   0.410   0.091   3.044  1.1629  1.1478 -0.1695
  409SOL     OW 1225   2.527   1.828   1.271  0.1565 -1.0942 -0.1681
  409SOL    HW1 1226   2.570   1.740   1.244 -0.0596  0.1390  1.4224
  409SOL    HW2 1227   2.492   1.886   1.198 -0.3949 -1.7575  2.5238
  410SOL     OW 1228   2.326   2.182   2.880  0.1922  0.3309  0.6673
  410SOL    HW1 1229   2.373   2.107   2.932  0.3273 -1.1819 -0.9765
  410SOL    HW2 1230   2.362   2.275   2.892  0.0009 -1.8527 -0.2340
  411SOL     OW 1231   0.189   1.053   0.624 -0.4156 -0.1027 -0.0312
  411SOL    HW1 1232   0.159   0.975   0.676 -0.7879  2.1444  0.1986
  411SOL    HW2 1233   0.153   1.140   0.667  1.2638  0.6434 -0.2708
  412SOL     OW 1234   1.428   2.711   0.339 -0.0140 -0.8847 -0.0485
  412SOL    HW1 1235   1.502   2.651   0.370 -1.5235  0.7552  1.7969
  412SOL    HW2 1236   1.450   2.812   0.356  1.4642  1.3493  1.0880
  413SOL     OW 1237   1.666   0.425   2.403  0.0747 -0.7261  0.1224
  413SOL    HW1 1238   1.577   0.377   2.418 -0.1129  2.0208 -2.2015
  413SOL    HW2 1239   1.723   0.362   2.348  2.0959  0.5047  0.4807
  414SOL     OW 1240   2.948   0.521   0.481 -0.1723  0.4253  0.1405
  414SOL    HW1 1241   3.030   0.566   0.435 -0.6726 -0.0351 -1.5543
  414SOL    HW2 1242   2.966   0.421   0.498  1.0801  2.1150 -1.8216
  415SOL     OW 1243   0.904   1.548   1.503  0.4186  0.1631 -0.0624
  415SOL    HW1 1244   0.971   1.592   1.566  0.5803  0.2500 -2.3252
  415SOL    HW2 1245   0.818   1.522   1.550 -0.4140 -0.1531 -0.8489
  416SOL     OW 1246   0.377   0.118   2.894 -1.1627  0.0222  0.3728
  416SOL    HW1 1247   0.386   0.211   2.849  0.0764  0.9005 -2.4499
  416SOL    HW2 1248   0.413   0.046   2.829 -0.6151  0.1183 -0.3908
  417SOL     OW 1249   2.557   2.992   1.111 -0.1844  0.0438  0.4232
  417SOL    HW1 1250   2.563   2.905   1.056 -0.1394  1.8537  0.3191
  417SOL    HW2 1251   2.643   2.999   1.161  0.8467  1.3727 -0.2353
  418SOL     OW 1252   0.768   0.450   2.573  0.0377  0.2296  0.3200
  418SOL    HW1 1253   0.706   0.432   2.494 -1.0247  0.4642 -1.5488
  418SOL    HW2 1254   0.823   0.536   2.569 -1.5239 -0.6884 -2.9601
  419SOL     OW 1255   0.314   1.384   1.344 -0.2838 -0.0910  0.3911
  419SOL    HW1 1256   0.358   1.441   1.274  0.6795  0.0588 -1.3002
  419SOL    HW2 1257   0.230   1.341   1.303 -0.7876 -0.4467  0.7507
  420SOL     OW 1258   0.843   1.928   0.987 -0.3363  0.6663  0.2208
  420SOL    HW1 1259   0.844   2.018   0.933 -0.1210  0.4973 -2.9301
  420SOL    HW2 1260   0.801   1.940   1.079  1.5512 -1.3685  0.5967
  421SOL     OW 1261   2.104   2.325   2.020  0.2593 -0.4447 -0.1580
  421SOL    HW1 1262   2.084   2.325   1.925  1.7722  0.1314  2.4449
  421SOL    HW2 1263   2.102   2.232   2.056 -2.0635 -0.0174  0.4195
  422SOL     OW 1264   0.108   0.522   2.766 -0.0823  0.3140  0.3870
  422SOL    HW1 1265   0.089   0.593   2.834 -2.0859  0.0073 -1.7898
  422SOL    HW2 1266   0.077   0.431   2.802  2.9173  1.4206  1.6392
  423SOL     OW 1267   1.171   2.114   0.996  0.1482 -0.1039  0.2382
  423SOL    HW1 1268   1.133   2.154   0.908 -0.2256 -1.6392  0.7178
  423SOL    HW2 1269   1.143   2.018   1.003 -0.5224 -0.0813  0.9127
  424SOL     OW 1270   0.695   1.395   1.632  0.3497  0.6212  0.1661
  424SOL    HW1 1271   0.634   1.345   1.569 -1.9453  1.2429  0.6952
  424SOL    HW2 1272   0.645   1.439   1.706  1.1829 -0.3604 -1.0821
  425SOL     OW 1273   0.020   2.761   2.138 -0.1139 -0.1847 -0.0731
  425SOL    HW1 1274   0.100   2.700   2.155  2.4044 -1.0404  2.7786
  425SOL    HW2 1275   0.016   2.793   2.041  2.2829  0.5447  0.3351
  426SOL     OW 1276   1.822   3.025   0.667 -0.0025  0.3907  0.1345
  426SOL    HW1 1277   1.790   3.002   0.759  0.8963  1.1240  0.8251
  426SOL    HW2 1278   1.898   3.088   0.672 -2.2254 -0.9181  1.6122
  427SOL     OW 1279   0.870   0.738   2.889 -0.2463  0.1389 -0.2205
  427SOL    HW1 1280   0.888   0.706   2.984 -3.6723 -0.5894  0.5637
  427SOL    HW2 1281   0.922   0.822   2.868  0.2134  0.8701 -0.0993
  428SOL     OW 1282   1.874   1.356   0.414  0.0976 -0.2622 -0.0203
  428SOL    HW1 1283   1.827   1.427   0.469  0.0668  0.0777 -2.7253
  428SOL    HW2 1284   1.812   1.311   0.345  1.8752  2.5981 -1.3214
  429SOL     OW 1285   2.994   2.934   0.429 -0.3626 -0.0551  0.5611
  429SOL    HW1 1286   3.078   2.938   0.492  1.1952 -2.2298  3.3381
  429SOL    HW2 1287   3.019   2.979   0.341  0.4840  2.1879  4.6034
  430SOL     OW 1288   0.321   2.834   2.092  0.7424  0.1753 -0.1362
  430SOL    HW1 1289   0.374   2.863   2.174  1.1559  0.4880 -1.9876
  430SOL    HW2 1290   0.359   2.869   2.004  0.0080  1.5197 -3.4218
  431SOL     OW 1291   2.512   0.964   1.317 -0.7973  0.4744 -0.0730
  431SOL    HW1 1292   2.536   1.061   1.285  1.7047  2.6313  0.7263
  431SOL    HW2 1293   2.560   0.936   1.404 -0.9343  0.0813 -0.5845
  432SOL     OW 1294   1.921   2.535   2.126 -0.4643 -0.0861 -0.1772
  432SOL    HW1 1295   1.948   2.630   2.095 -1.1354  0.3097 -0.9655
  432SOL    HW2 1296   1.958   2.464   2.061 -0.4114 -0.5017  0.8778
  433SOL     OW 1297   1.321   2.382   0.518 -0.0134  0.1161  0.1958
  433SOL    HW1 1298   1.378   2.312   0.475 -1.7374  1.4401  1.9459
  433SOL    HW2 1299   1.373   2.442   0.584 -1.9607  0.1356  0.7657
  434SOL     OW 1300   0.362   2.233   2.281  0.6689  0.6415 -0.4411
  434SOL    HW1 1301   0.273   2.214   2.335 -3.3793 -1.5814 -0.0449
  434SOL    HW2 1302   0.343   2.294   2.202  0.5285  0.7629  2.2989
  435SOL     OW 1303   0.443   0.899   0.210 -0.1177 -0.2281  0.0774
  435SOL    HW1 1304   0.356   0.851   0.188 -1.7296 -0.9291  0.5071
  435SOL    HW2 1305   0.495   0.944   0.136  1.1158  1.6088  1.7002
  436SOL     OW 1306   0.374   2.844   1.504 -0.1628 -0.4651 -0.1487
  436SOL    HW1 1307   0.414   2.753   1.524  0.8807  2.2680 -0.8966
  436SOL    HW2 1308   0.443   2.917   1.486 -0.5797 -2.1400  0.6070
  437SOL     OW 1309   1.602   2.219   1.632 -0.2975  0.3166 -0.0419
  437SOL    HW1 1310   1.672   2.250   1.697  0.3549 -0.6758 -2.5564
  437SOL    HW2 1311   1.619   2.244   1.537  0.2421 -0.7264  2.2745
  438SOL     OW 1312   3.095   1.700   0.622  0.2119 -0.1263 -0.2051
  438SOL    HW1 1313   0.023   1.655   0.673 -0.7380 -2.5762  1.4098
  438SOL    HW2 1314   3.138   1.753   0.547  0.1767 -1.5756 -0.2071
  439SOL     OW 1315   0.155   0.559   0.703  0.5846 -0.1357  0.2095
  439SOL    HW1 1316   0.105   0.549   0.792 -1.2954 -2.6094  0.2126
  439SOL    HW2 1317   0.188   0.465   0.682 -1.4741  2.1920 -1.5214
  440SOL     OW 1318   0.378   2.936   2.418 -0.3556  0.4442  0.2284
  440SOL    HW1 1319   0.326   2.958   2.498 -0.4781 -0.2217 -2.4608
  440SOL    HW2 1320   0.414   2.842   2.418  0.2008  0.9537  4.4467
  441SOL     OW 1321   3.050   0.287   0.779  0.0115  0.0014 -0.4263
  441SOL    HW1 1322   0.007   0.266   0.762  3.7648  1.1670 -1.8342
  441SOL    HW2 1323   2.996   0.205   0.811 -1.3826  1.2954  1.0997
  442SOL     OW 1324   1.628   2.227   2.627  0.2819 -0.4722  0.3882
  442SOL    HW1 1325   1.684   2.149   2.649 -2.3976  1.9425  0.3884
  442SOL    HW2 1326   1.614   2.235   2.524 -2.1572  0.7794 -1.9496
  443SOL     OW 1327   0.791   1.365   3.091 -0.1245  0.7206  0.4593
  443SOL    HW1 1328   0.738   1.378   3.002  1.6081 -1.0294  0.9159
  443SOL    HW2 1329   0.808   1.265   3.101 -1.8282  0.6010  0.0774
  444SOL     OW 1330   1.604   1.535   2.229 -0.0984 -0.4351  0.0065
  444SOL    HW1 1331   1.541   1.491   2.164  0.6967 -0.5605  1.0624
  444SOL    HW2 1332   1.563   1.539   2.327  0.1943  0.4861  2.8381
  445SOL     OW 1333   0.131   3.022   0.845  0.3808 -0.1409  0.0238
  445SOL    HW1 1334   0.201   3.093   0.873  0.3765 -1.0602  1.0738
  445SOL    HW2 1335   0.037   3.051   0.887 -0.4636  2.7316 -0.0836
  446SOL     OW 1336   2.127   0.543   1.380 -0.2181  0.0125 -0.2590
  446SOL    HW1 1337   2.065   0.618   1.402 -2.8931 -1.7292 -1.6017
  446SOL    HW2 1338   2.072   0.488   1.311  0.0034  1.0851 -1.9058
  447SOL     OW 1339   0.155   0.904   2.786  0.6768  0.2314 -0.3020
  447SOL    HW1 1340   0.132   0.806   2.809  0.9792 -0.3150 -1.1972
  447SOL    HW2 1341   0.111   0.971   2.850  0.6115  1.7577  1.5930
  448SOL     OW 1342   1.387   2.057   1.703  0.4793  0.1905  0.4283
  448SOL    HW1 1343   1.450   2.124   1.656  2.5763  0.0325  0.3167
  448SOL    HW2 1344   1.442   1.987   1.754  0.8466 -2.0305 -1.7699
  449SOL     OW 1345   0.999   1.456   0.793  0.7276  0.0217  0.5444
  449SOL    HW1 1346   1.088   1.427   0.759  0.0493 -0.8419  1.3494
  449SOL    HW2 1347   1.014   1.544   0.840  1.2184  0.5861  0.6776
  450SOL     OW 1348   2.924   1.933   2.050  0.2974  1.3479 -0.0627
  450SOL    HW1 1349   2.894   2.021   2.086  0.1403 -1.6918 -1.2640
  450SOL    HW2 1350   2.853   1.864   2.059  2.6189 -0.4302  0.9168
  451SOL     OW 1351   2.431   1.516   3.016 -0.4978  0.5566 -0.1189
  451SOL    HW1 1352   2.404   1.471   3.099  0.3496  0.1786 -2.4382
  451SOL    HW2 1353   2.424   1.619   3.028 -1.2646  1.8944  3.5752
  452SOL     OW 1354   1.570   0.758   1.231  0.0004 -0.0151 -0.0786
  452SOL    HW1 1355   1.488   0.718   1.279 -0.8917  2.6270 -2.4928
  452SOL    HW2 1356   1.567   0.859   1.222  0.6356  2.6230 -0.6449
  453SOL     OW 1357   1.934   1.004   1.525 -0.6191 -0.5692  0.0752
  453SOL    HW1 1358   1.855   1.030   1.580 -0.0837  0.6168 -0.9116
  453SOL    HW2 1359   1.940   1.059   1.438  0.1970  0.5374 -1.1981
  454SOL     OW 1360   2.855   0.858   0.180 -0.0836 -1.0015  0.5915
  454SOL    HW1 1361   2.942   0.851   0.233 -1.6045  1.0843  0.8690
  454SOL    HW2 1362   2.785   0.791   0.206  1.9720  0.0762 -4.8470
  455SOL     OW 1363   2.770   1.431   1.328 -0.1416 -0.7639  0.1470
  455SOL    HW1 1364   2.728   1.491   1.260  1.0949 -2.9058  1.1595
  455SOL    HW2 1365   2.835   1.486   1.380  1.2408  0.5032 -1.8437
  456SOL     OW 1366   0.736   0.222   1.434 -0.0526 -0.7798 -0.3034
  456SOL    HW1 1367   0.641   0.187   1.447  0.6578 -1.7996  1.6841
  456SOL    HW2 1368   0.781   0.252   1.526 -0.3378  1.1322  0.8962
  457SOL     OW 1369   1.743   2.958   0.935  0.1313  0.2947  0.5758
  457SOL    HW1 1370   1.648   2.992   0.916 -1.9962  0.7406 -0.5403
  457SOL    HW2 1371   1.777   2.996   1.023 -0.3913 -2.4348 -0.9957
  458SOL     OW 1372   2.646   0.381   0.503 -0.0281  0.1227  0.0516
  458SOL    HW1 1373   2.712   0.434   0.441  0.2932  3.8284  0.9707
  458SOL    HW2 1374   2.561   0.345   0.456 -2.1824  2.6092 -2.6443
  459SOL     OW 1375   1.842   0.695   0.116 -0.5060  0.0189 -0.2953
  459SOL    HW1 1376   1.850   0.790   0.150 -1.1723 -1.4126 -1.2855
  459SOL    HW2 1377   1.782   0.638   0.175  1.7220  0.2009  0.9617
  460SOL     OW 1378   0.042   2.720   2.666 -0.1722  0.5628  0.3700
  460SOL    HW1 1379   3.091   2.742   2.691 -0.3813 -1.3381  3.0792
  460SOL    HW2 1380   0.099   2.801   2.651 -0.1364 -2.7956 -0.9204
  461SOL     OW 1381   0.750   1.885   0.063 -0.7281  0.2079 -0.6168
  461SOL    HW1 1382   0.664   1.840   0.104 -1.8163 -0.1951  2.6304
  461SOL    HW2 1383   0.745   1.862   3.112 -1.6498 -0.3405 -0.2561
  462SOL     OW 1384   1.999   2.578   0.488  0.0459  0.4053 -0.1648
  462SOL    HW1 1385   1.966   2.484   0.519  2.1265  0.0169  0.4673
  462SOL    HW2 1386   2.044   2.622   0.566  0.5191 -1.2004 -0.8087
  463SOL     OW 1387   0.016   0.654   0.393  0.0513 -0.6098  0.3539
  463SOL    HW1 1388   0.103   0.652   0.444  0.0694  1.3040 -0.2328
  463SOL    HW2 1389   3.135   0.749   0.362 -0.7671  0.9360 -2.5876
  464SOL     OW 1390   0.665   2.522   0.441 -0.6258 -0.0780 -0.2075
  464SOL    HW1 1391   0.564   2.534   0.438 -1.3179 -1.2389 -1.6310
  464SOL    HW2 1392   0.689   2.425   0.423  0.8213 -1.8654  1.3180
  465SOL     OW 1393   2.168   0.868   0.490  0.5841 -0.0483  0.0217
  465SOL    HW1 1394   2.084   0.816   0.504  0.1927  0.2440 -0.2179
  465SOL    HW2 1395   2.209   0.855   0.398  3.1273 -0.5971  2.1321
  466SOL     OW 1396   2.161   0.185   0.186  0.1577 -0.7183  0.1275
  466SOL    HW1 1397   2.232   0.198   0.257  0.6169  0.5413 -0.3545
  466SOL    HW2 1398   2.102   0.101   0.204 -0.3744 -2.8494  0.6158
  467SOL     OW 1399   1.277   0.448   1.857  0.5055  0.0237  0.4971
  467SOL    HW1 1400   1.194   0.502   1.872 -0.0768 -1.3782 -1.8039
  467SOL    HW2 1401   1.359   0.504   1.863 -1.9086 -4.1348 -2.3864
  468SOL     OW 1402   2.675   0.732   2.160  0.5068  0.1909 -0.9497
  468SOL    HW1 1403   2.653   0.680   2.075  1.4125  2.2411  0.4734
  468SOL    HW2 1404   2.592   0.772   2.206 -0.7644 -0.4962 -4.5194
  469SOL     OW 1405   0.871   2.698   2.277  0.2619  0.5085 -0.3782
  469SOL    HW1 1406   0.850   2.604   2.316 -0.8391  0.6959  0.5765
  469SOL    HW2 1407   0.790   2.729   2.223 -1.6275 -1.1731  0.4695
  470SOL     OW 1408   1.851   1.290   1.862  0.4859 -0.2851 -0.0333
  470SOL    HW1 1409   1.948   1.318   1.852 -1.8012 -0.8326  0.7946
  470SOL    HW2 1410   1.826   1.262   1.954 -0.3462  0.7288  1.6646
  471SOL     OW 1411   2.726   1.072   0.084 -0.5286 -0.4756 -0.1061
  471SOL    HW1 1412   2.702   1.066   3.130 -0.6956  1.3760 -0.9094
  471SOL    HW2 1413   2.784   0.990   0.110 -0.0612  1.0544  0.7463
  472SOL     OW 1414   0.259   2.805   0.423 -0.0658  0.3483  0.1645
  472SOL    HW1 1415   0.313   2.724   0.459 -3.4300  0.8904  0.6272
  472SOL    HW2 1416   0.191   2.789   0.349 -0.6823  1.6854 -2.3558
  473SOL     OW 1417   1.025   2.846   2.458  0.7030  0.0082  0.0287
  473SOL    HW1 1418   0.973   2.792   2.391  1.1261  2.4038 -1.2627
  473SOL    HW2 1419   0.965   2.920   2.485 -0.2270 -1.7837  0.6042
  474SOL     OW 1420   1.501   0.085   2.077 -0.8528  0.3012 -0.4517
  474SOL    HW1 1421   1.504   0.065   2.178 -0.8695 -0.3751  2.3631
  474SOL    HW2 1422   1.449   0.170   2.066  2.1730 -3.8887  0.0012
  475SOL     OW 1423   0.784   2.512   0.014  0.1317  0.2895  0.0500
  475SOL    HW1 1424   0.835   2.579   0.069  1.7143  3.3089  1.0935
  475SOL    HW2 1425   0.687   2.505   0.044 -1.5242  0.2561 -1.6619
  476SOL     OW 1426   0.488   0.501   0.945  0.1550  0.6467 -0.0066
  476SOL    HW1 1427   0.522   0.530   0.855 -0.2046 -1.2472  2.3615
  476SOL    HW2 1428   0.400   0.452   0.950  1.5616  1.6719 -0.3093
  477SOL     OW 1429   1.868   2.003   1.332  0.0056  0.2726  0.2081
  477SOL    HW1 1430   1.768   2.005   1.344  1.5067  2.0303  1.6562
  477SOL    HW2 1431   1.908   1.922   1.285 -3.3386  0.5207 -0.8961
  478SOL     OW 1432   0.427   1.253   2.543  0.7182 -0.1024 -0.2769
  478SOL    HW1 1433   0.515   1.214   2.506 -1.3672 -0.1123  0.7969
  478SOL    HW2 1434   0.350   1.203   2.506  2.1715 -0.8487  1.1843
  479SOL     OW 1435   0.614   3.045   0.809  0.2026  0.7258 -0.0159
  479SOL    HW1 1436   0.696   3.021   0.868  0.9225  2.7224  2.5729
  479SOL    HW2 1437   0.578   3.141   0.820  2.2307  0.6839 -0.5985
  480SOL     OW 1438   2.656   2.593   3.036 -0.2741  0.3285  0.4443
  480SOL    HW1 1439   2.669   2.574   2.936  0.1887 -1.0858  0.4514
  480SOL    HW2 1440   2.617   2.515   3.081  0.0028  3.2589 -1.4812
  481SOL     OW 1441   2.486   0.508   1.080  0.8298 -0.6187 -0.2934
  481SOL    HW1 1442   2.437   0.587   1.119 -0.2333 -1.9193  0.0854
  481SOL    HW2 1443   2.436   0.481   0.996 -1.4562 -2.1531 -0.9542
  482SOL     OW 1444   1.516   2.584   1.513 -0.2519  0.0433  0.0287
  482SOL    HW1 1445   1.585   2.512   1.526 -2.1050  0.7495  0.8659
  482SOL    HW2 1446   1.478   2.633   1.595 -2.5783  2.5873  1.1129
  483SOL     OW 1447   0.369   1.529   3.019 -0.2364  0.3930  0.0083
  483SOL    HW1 1448   0.274   1.566   3.038 -3.7633 -0.1003  0.3127
  483SOL    HW2 1449   0.376   1.429   3.023  1.7330  0.4398  1.6937
  484SOL     OW 1450   1.391   1.965   2.491 -0.6424 -0.3720  0.1931
  484SOL    HW1 1451   1.350   1.871   2.479 -1.6657  4.8494  0.8832
  484SOL    HW2 1452   1.405   2.000   2.399  1.0365 -1.3015  2.7169
  485SOL     OW 1453   0.339   0.370   2.300  0.5184  0.2429 -0.0763
  485SOL    HW1 1454   0.260   0.434   2.303  0.1635  0.9712  0.5114
  485SOL    HW2 1455   0.339   0.319   2.212  0.6520  0.6644  0.8236
  486SOL     OW 1456   1.258   0.089   0.574 -0.3256  0.1480  0.0572
  486SOL    HW1 1457   1.243   0.150   0.657  2.8333 -1.1508  1.1664
  486SOL    HW2 1458   1.357   0.064   0.575  1.1695  0.5837 -1.9590
  487SOL     OW 1459   1.278   2.904   0.804  0.4391  0.4385 -0.2176
  487SOL    HW1 1460   1.282   2.842   0.724  1.1674  1.2505 -0.2935
  487SOL    HW2 1461   1.188   2.956   0.805  0.4907 -0.3545  1.6709
  488SOL     OW 1462   2.078   0.684   0.820  0.4780  0.1954  0.3236
  488SOL    HW1 1463   2.137   0.763   0.803 -2.3107  0.1480  0.5942
  488SOL    HW2 1464   2.114   0.607   0.767  1.5210 -1.3657  1.9604
  489SOL     OW 1465   1.202   2.820   1.179 -0.4217  0.4291  0.0572
  489SOL    HW1 1466   1.237   2.792   1.274 -2.3575 -0.9997  1.4862
  489SOL    HW2 1467   1.112   2.780   1.160 -0.3392 -1.5913 -1.5355
  490SOL     OW 1468   0.852   0.903   0.342 -0.0157 -0.6480  0.1018
  490SOL    HW1 1469   0.808   0.990   0.372  0.3221  0.5806  1.0587
  490SOL    HW2 1470   0.914   0.858   0.409  0.5064  2.3350 -0.0429
  491SOL     OW 1471   0.974   2.812   3.080  0.1625 -0.7398  0.0137
  491SOL    HW1 1472   0.958   2.777   0.032  0.2977  0.7447 -1.4461
  491SOL    HW2 1473   1.070   2.833   3.068 -3.8108 -0.9133 -1.7040
  492SOL     OW 1474   1.291   1.202   2.231  0.3484 -0.0942  0.2269
  492SOL    HW1 1475   1.347   1.288   2.223 -0.6366 -2.4632 -0.1949
  492SOL    HW2 1476   1.205   1.220   2.177 -1.8856  1.6210 -0.9378
  493SOL     OW 1477   3.117   2.037   0.228  0.1612  0.1351  0.2349
  493SOL    HW1 1478   0.072   2.056   0.209  0.4753 -3.1216  0.1078
  493SOL    HW2 1479   3.053   2.067   0.154 -0.0019 -1.3633  0.5761
  494SOL     OW 1480   2.128   1.476   0.652 -0.0585 -0.4244 -0.3680
  494SOL    HW1 1481   2.037   1.497   0.687 -0.9686 -0.5354 -0.0870
  494SOL    HW2 1482   2.123   1.418   0.567  1.1351 -0.2755  0.8435
  495SOL     OW 1483   0.218   1.132   2.408  1.1495 -0.2224  0.2922
  495SOL    HW1 1484   0.125   1.098   2.382  0.9140 -0.2194 -0.7178
  495SOL    HW2 1485   0.247   1.212   2.347  2.2107  1.4812 -1.1287
  496SOL     OW 1486   2.924   0.003   2.167 -0.0050  0.2881 -0.0181
  496SOL    HW1 1487   2.869   3.133   2.080 -0.7614  1.3993  0.6630
  496SOL    HW2 1488   2.980   3.069   2.202 -0.7007  1.1991  0.0998
  497SOL     OW 1489   2.251   1.114   0.567  0.3479  0.0470  0.3703
  497SOL    HW1 1490   2.241   1.203   0.517  0.4096  2.8818 -3.8527
  497SOL    HW2 1491   2.190   1.045   0.520 -0.7083  2.9008 -1.4148
  498SOL     OW 1492   0.014   2.463   3.004 -0.0455 -0.1428  0.0856
  498SOL    HW1 1493   3.097   2.548   2.995 -2.0015  0.2485 -2.6170
  498SOL    HW2 1494   0.075   2.453   2.923 -0.9680  0.6570 -1.4820
  499SOL     OW 1495   1.665   2.531   0.666  0.2234  0.2233  0.1446
  499SOL    HW1 1496   1.676   2.539   0.566 -2.6256  0.4176  1.3796
  499SOL    HW2 1497   1.758   2.508   0.701 -2.6972 -1.1230 -0.5704
  500SOL     OW 1498   1.289   0.654   2.555 -0.2036  0.1910  0.6375
  500SOL    HW1 1499   1.253   0.561   2.568 -2.5263  1.2224  3.1367
  500SOL    HW2 1500   1.354   0.660   2.478  0.6464 -2.4725 -0.9762
  501SOL     OW 1501   0.881   0.098   1.242  0.0255  1.1925  0.1787
  501SOL    HW1 1502   0.961   0.090   1.302  0.9807 -1.3383  2.2381
  501SOL    HW2 1503   0.821   0.161   1.289  3.0584 -1.7339  0.2085
  502SOL     OW 1504   0.005   0.186   2.138 -0.1165  0.2172  1.0082
  502SOL    HW1 1505   3.134   0.087   2.125 -3.8103  1.2788 -0.1890
  502SOL    HW2 1506   0.105   0.204   2.130  0.8076 -1.1516  0.4662
  503SOL     OW 1507   1.492   2.427   2.345 -0.1892  0.0722  0.4637
  503SOL    HW1 1508   1.546   2.495   2.299 -0.0520 -3.4303  1.4986
  503SOL    HW2 1509   1.539   2.334   2.344 -0.5574  1.2428  2.1626
  504SOL     OW 1510   2.072   3.094   1.851  0.1989 -0.2222  0.0619
  504SOL    HW1 1511   2.147   3.123   1.784  0.7930 -0.4669 -4.2000
  504SOL    HW2 1512   1.982   3.083   1.802 -0.6502 -1.4369  0.2729
  505SOL     OW 1513   2.421   1.085   1.599  0.0181 -0.2430  0.1791
  505SOL    HW1 1514   2.520   1.051   1.599  0.5420 -0.4257 -0.0428
  505SOL    HW2 1515   2.353   1.004   1.592 -0.1189 -0.5599  0.3967
  506SOL     OW 1516   0.474   1.498   2.323 -0.0511 -0.6293 -0.3464
  506SOL    HW1 1517   0.399   1.434   2.293 -1.0402 -2.9391 -3.2000
  506SOL    HW2 1518   0.557   1.448   2.357  1.6271  2.5517  1.5025
  507SOL     OW 1519   0.185   0.026   1.456  0.2062  0.3445  0.5519
  507SOL    HW1 1520   0.264   0.020   1.521  0.2981  3.1067  0.0438
  507SOL    HW2 1521   0.119   3.091   1.461  1.2362  0.2630  0.2148
  508SOL     OW 1522   1.365   0.629   1.324  0.2916  0.3803 -0.1909
  508SOL    HW1 1523   1.298   0.706   1.308  0.5625  0.0713 -0.7293
  508SOL    HW2 1524   1.318   0.545   1.361 -2.1301 -1.6134 -2.5997
  509SOL     OW 1525   1.384   2.144   1.316 -0.0993  0.4040 -0.7466
  509SOL    HW1 1526   1.374   2.198   1.231  2.1781  1.6992 -1.0328
  509SOL    HW2 1527   1.373   2.206   1.393  1.4579  0.2810 -2.7077
  510SOL     OW 1528   2.946   1.466   3.144 -0.1993 -0.1799 -0.0937
  510SOL    HW1 1529   2.852   1.443   0.025  1.6549  1.0983 -1.8704
  510SOL    HW2 1530   3.010   1.398   0.043  0.8504 -0.6631  1.0225
  511SOL     OW 1531   0.656   1.221   1.357 -0.4178 -0.3301 -0.5946
  511SOL    HW1 1532   0.638   1.139   1.299 -1.5548  0.5308 -1.9114
  511SOL    HW2 1533   0.699   1.303   1.312 -1.0097  0.7454 -0.9117
  512SOL     OW 1534   3.016   2.494   0.482 -0.1875 -0.3650  0.3831
  512SOL    HW1 1535   3.058   2.402   0.495 -2.2154  1.2906 -0.4854
  512SOL    HW2 1536   2.964   2.493   0.395 -2.2035  0.1525  0.2543
  513SOL     OW 1537   0.958   1.547   2.786 -0.7181 -0.3202 -0.3774
  513SOL    HW1 1538   1.026   1.596   2.840 -0.4451  0.8138 -0.8437
  513SOL    HW2 1539   0.936   1.605   2.702  0.3195  0.3535 -1.6181
  514SOL     OW 1540   0.146   2.510   2.788  0.1895 -0.2347 -0.4351
  514SOL    HW1 1541   0.243   2.520   2.762 -1.4694  0.3407  2.0041
  514SOL    HW2 1542   0.091   2.591   2.761 -0.4649  0.0654 -0.0575
  515SOL     OW 1543   1.524   1.065   1.858  0.3510  0.4780 -0.0154
  515SOL    HW1 1544   1.593   1.092   1.788 -0.2516  2.0184 -1.3951
  515SOL    HW2 1545   1.445   1.007   1.824 -1.4629  2.7521  0.2242
  516SOL     OW 1546   2.011   2.281   0.324 -0.2423  0.2777  0.1686
  516SOL    HW1 1547   2.112   2.297   0.303  0.5836 -0.8681 -0.4179
  516SOL    HW2 1548   1.981   2.309   0.418 -0.1370 -2.0565 -0.5149
  517SOL     OW 1549   1.204   1.847   0.699  0.2564  0.1245  0.1139
  517SOL    HW1 1550   1.214   1.825   0.598 -0.1757  0.8487  0.7063
  517SOL    HW2 1551   1.295   1.874   0.744  0.2897  0.5137 -0.4080
  518SOL     OW 1552   2.319   2.413   2.172  0.2870  0.4661 -0.3741
  518SOL    HW1 1553   2.318   2.444   2.271 -1.3466 -0.6971  3.4554
  518SOL    HW2 1554   2.227   2.394   2.136  3.5878  0.6785  0.1488
  519SOL     OW 1555   1.855   2.461   0.883 -0.2509 -0.1064  0.7891
  519SOL    HW1 1556   1.936   2.463   0.940 -3.0919 -0.8246 -3.7952
  519SOL    HW2 1557   1.834   2.367   0.857 -2.5768 -3.0131  1.4012
  520SOL     OW 1558   2.872   2.540   2.620  0.4913  0.3763 -0.0018
  520SOL    HW1 1559   2.843   2.546   2.524  1.8363  0.9665  2.8185
  520SOL    HW2 1560   2.934   2.458   2.624 -1.5752 -0.0090  0.4199
  521SOL     OW 1561   3.110   1.036   2.350  0.2824 -0.3928  0.1184
  521SOL    HW1 1562   3.041   1.113   2.363  0.4829  0.2610  1.3977
  521SOL    HW2 1563   3.101   0.999   2.259  0.1909  0.7984  3.0381
  522SOL     OW 1564   0.647   0.485   2.093  0.6286 -0.0479 -0.1772
  522SOL    HW1 1565   0.599   0.450   2.014  0.7555 -1.4005  0.4148
  522SOL    HW2 1566   0.620   0.578   2.121 -1.1549  0.5479 -0.3524
  523SOL     OW 1567   0.549   2.123   1.041 -0.3273 -0.8570  0.1491
  523SOL    HW1 1568   0.635   2.162   1.078  3.8254 -2.2173  1.6820
  523SOL    HW2 1569   0.507   2.184   0.968 -0.7258 -0.0745 -0.1368
  524SOL     OW 1570   1.669   2.591   0.364  0.6515 -0.5291 -0.4671
  524SOL    HW1 1571   1.739   2.657   0.397 -1.1990  0.1390 -0.8689
  524SOL    HW2 1572   1.715   2.528   0.303 -1.2527  2.2928 -0.4076
  525SOL     OW 1573   2.218   0.899   1.357  0.3319  0.1025 -0.2545
  525SOL    HW1 1574   2.165   0.918   1.276  0.7563  0.2033  2.5238
  525SOL    HW2 1575   2.320   0.921   1.345 -1.6496 -0.5062  0.2117
  526SOL     OW 1576   0.886   2.576   0.615  0.0280  0.3637 -0.1109
  526SOL    HW1 1577   0.947   2.638   0.563  2.9699 -0.0884 -2.6534
  526SOL    HW2 1578   0.791   2.582   0.582  0.6571  0.3133 -0.3528
  527SOL     OW 1579   2.446   2.680   0.659  0.4324 -0.3062 -0.0381
  527SOL    HW1 1580   2.537   2.715   0.679 -2.5395  4.4333 -0.0085
  527SOL    HW2 1581   2.448   2.603   0.593  3.4883 -1.6707 -1.9674
  528SOL     OW 1582   1.767   0.469   0.269  0.1095  0.5390 -0.5163
  528SOL    HW1 1583   1.696   0.458   0.344 -4.7403 -0.1489  2.3491
  528SOL    HW2 1584   1.744   0.415   0.182 -1.1016  2.3541 -1.0581
  529SOL     OW 1585   1.763   1.760   2.456 -0.1868 -0.2797  0.3885
  529SOL    HW1 1586   1.861   1.764   2.485 -1.4245 -0.5619 -1.6569
  529SOL    HW2 1587   1.737   1.668   2.411  1.4272 -1.7690  0.8774
  530SOL     OW 1588   2.242   0.526   0.343  0.2032 -0.2869 -0.0355
  530SOL    HW1 1589   2.226   0.592   0.265 -1.8919  1.7203  0.3797
  530SOL    HW2 1590   2.291   0.436   0.323  2.9776  0.9695 -0.1195
  531SOL     OW 1591   1.604   0.928   2.796  0.0324  0.2323  0.2196
  531SOL    HW1 1592   1.682   0.942   2.860  0.1055  2.7447 -1.2958
  531SOL    HW2 1593   1.516   0.923   2.848  0.9177 -0.0285  1.2774
  532SOL     OW 1594   1.597   0.527   0.476  0.0094 -0.2431 -0.5116
  532SOL    HW1 1595   1.518   0.513   0.412  1.6144 -1.4563  1.1731
  532SOL    HW2 1596   1.613   0.626   0.490  1.0703 -1.8307 -0.2272
  533SOL     OW 1597   0.659   1.131   2.416  0.5188 -0.3407  0.6863
  533SOL    HW1 1598   0.643   1.087   2.326 -1.7088  1.0502  0.6774
  533SOL    HW2 1599   0.666   1.062   2.493 -1.1664 -1.4065  0.0408
  534SOL     OW 1600   1.531   0.085   2.365  0.0625 -0.0545  0.5846
  534SOL    HW1 1601   1.460   0.151   2.392 -1.2015  0.1103 -0.8095
  534SOL    HW2 1602   1.624   0.121   2.393  2.5719  4.3953  1.6814
  535SOL     OW 1603   0.122   0.001   3.045 -0.6262 -0.1890 -0.2354
  535SOL    HW1 1604   0.028   0.012   3.002  0.1557 -0.6924 -2.4773
  535SOL    HW2 1605   0.196   0.058   2.999  0.5315 -1.4192 -0.1681
  536SOL     OW 1606   0.494   0.167   0.775 -0.7934 -0.3746  0.0008
  536SOL    HW1 1607   0.491   0.155   0.673 -1.6345 -0.5575  0.3792
  536SOL    HW2 1608   0.567   0.235   0.801 -0.3723  1.8146 -1.5217
  537SOL     OW 1609   1.349   0.725   0.573 -0.3238  0.4608  0.0438
  537SOL    HW1 1610   1.314   0.777   0.649 -0.8404  0.7565 -1.2117
  537SOL    HW2 1611   1.403   0.644   0.601 -2.3533  3.1294 -1.4177
  538SOL     OW 1612   2.856   2.358   3.078 -0.3189 -0.0777 -0.0913
  538SOL    HW1 1613   2.910   2.428   3.024  0.6925  2.7455 -1.4443
  538SOL    HW2 1614   2.764   2.345   3.035  1.3150  4.4271  1.9696
  539SOL     OW 1615   2.107   1.586   0.300  0.1711  0.7019  0.1291
  539SOL    HW1 1616   2.079   1.661   0.367  0.2813  0.6048  0.0216
  539SOL    HW2 1617   2.177   1.518   0.338  1.5549 -0.6797  1.5027
  540SOL     OW 1618   0.556   2.597   1.499 -0.0826  0.0931  0.5100
  540SOL    HW1 1619   0.538   2.503   1.511  0.3305  1.9802 -0.7937
  540SOL    HW2 1620   0.601   2.616   1.407 -0.7956  0.4968 -1.0398
  541SOL     OW 1621   1.930   0.045   2.260  0.5945 -0.1724  0.1056
  541SOL    HW1 1622   1.898   3.096   2.246  1.0346 -0.0034 -3.9959
  541SOL    HW2 1623   1.992   0.076   2.182  0.6216  0.6484  0.9769
  542SOL     OW 1624   0.325   0.930   2.562 -0.4508 -0.2960  0.2994
  542SOL    HW1 1625   0.266   0.919   2.645  0.7464 -1.0423 -0.0556
  542SOL    HW2 1626   0.273   0.991   2.496  0.0469  0.5959 -4.8176
  543SOL     OW 1627   0.345   0.928   1.376 -0.5083  0.0726  0.1670
  543SOL    HW1 1628   0.392   0.953   1.290  0.7518  0.1446  2.6538
  543SOL    HW2 1629   0.305   1.009   1.421  1.0657 -3.2667 -1.0030
  544SOL     OW 1630   2.360   0.243   1.078  0.0359 -0.0880 -0.1104
  544SOL    HW1 1631   2.424   0.322   1.098 -1.0807  0.3665  2.1999
  544SOL    HW2 1632   2.409   0.175   1.026  0.0547 -0.0928  0.2936
  545SOL     OW 1633   1.703   2.148   0.553 -0.0749  0.3913  0.0331
  545SOL    HW1 1634   1.695   2.048   0.528 -0.8331  1.2800  3.3547
  545SOL    HW2 1635   1.702   2.159   0.654  1.6613  1.2717 -0.9672
  546SOL     OW 1636   2.159   2.849   1.887 -0.5172  0.0584  0.2544
  546SOL    HW1 1637   2.220   2.804   1.822 -0.4756  0.2647  1.8035
  546SOL    HW2 1638   2.131   2.941   1.863  2.2191  0.4515 -1.4303
  547SOL     OW 1639   0.469   3.116   2.241  0.0906  0.0826  0.2991
  547SOL    HW1 1640   0.571   3.127   2.232  3.3549 -1.1011  0.0939
  547SOL    HW2 1641   0.444   3.052   2.320  1.2516  0.1398  3.3144
  548SOL     OW 1642   1.859   1.280   0.081 -0.5762 -0.2368  0.7725
  548SOL    HW1 1643   1.798   1.264   0.004  3.3878  1.2512  0.0552
  548SOL    HW2 1644   1.937   1.209   0.075  0.4245 -0.6109  0.0936
  549SOL     OW 1645   3.114   1.147   0.339  0.8241  0.2631  0.6011
  549SOL    HW1 1646   3.063   1.107   0.417  0.8940  0.3572 -0.5823
  549SOL    HW2 1647   3.131   1.251   0.339 -2.6650  1.6515  0.6092
  550SOL     OW 1648   2.023   1.983   0.779 -0.6456  0.1285 -0.3120
  550SOL    HW1 1649   1.985   1.908   0.723  0.4877 -2.3590  2.0496
  550SOL    HW2 1650   2.062   1.935   0.859  1.6468 -0.5796  2.5440
  551SOL     OW 1651   1.254   0.257   0.782  0.7033  0.4810 -0.0021
  551SOL    HW1 1652   1.290   0.241   0.876 -0.5412 -0.8112  0.0122
  551SOL    HW2 1653   1.171   0.314   0.785  0.5814 -0.3928  0.2102
  552SOL     OW 1654   3.074   2.953   2.281 -0.1696 -0.2917  0.1827
  552SOL    HW1 1655   3.140   3.026   2.305 -1.3500 -0.5187  1.7264
  552SOL    HW2 1656   3.111   2.872   2.234 -0.3780  2.4193  1.7952
  553SOL     OW 1657   0.125   3.137   2.380  0.5573  0.0189 -0.0338
  553SOL    HW1 1658   0.217   3.092   2.389  2.4437  1.4544 -0.3202
  553SOL    HW2 1659   0.117   0.075   2.432 -1.3665 -1.5927 -0.7370
  554SOL     OW 1660   0.636   3.016   1.426  0.2858 -0.3268 -0.4348
  554SOL    HW1 1661   0.622   3.050   1.330  0.1402 -0.0750 -0.9739
  554SOL    HW2 1662   0.734   2.991   1.445  0.0141  0.2124 -0.7722
  555SOL     OW 1663   2.750   2.570   2.331  0.9456 -0.4503 -0.0644
  555SOL    HW1 1664   2.701   2.658   2.365  0.7545  0.8145  1.8509
  555SOL    HW2 1665   2.717   2.527   2.244  0.9468  1.5029 -0.1316
  556SOL     OW 1666   1.221   0.401   2.634 -0.1649  0.2625 -0.2897
  556SOL    HW1 1667   1.205   0.402   2.733 -1.1581  1.0563  0.1645
  556SOL    HW2 1668   1.193   0.307   2.604 -0.3558 -0.1530  0.3213
  557SOL     OW 1669   0.492   1.740   2.425  0.0606  0.2763  0.0475
  557SOL    HW1 1670   0.406   1.780   2.456  1.1130  0.1211  0.1476
  557SOL    HW2 1671   0.477   1.641   2.391 -0.4260 -0.6177  0.3354
  558SOL     OW 1672   2.208   1.002   2.711  0.4932 -0.2959  0.4294
  558SOL    HW1 1673   2.112   1.020   2.686 -0.2303  0.1527  3.9352
  558SOL    HW2 1674   2.270   1.066   2.661  0.5483  0.2420 -2.4236
  559SOL     OW 1675   2.608   2.175   2.311  0.0045 -0.7033 -0.0504
  559SOL    HW1 1676   2.545   2.099   2.286 -1.2338  1.0050  0.0933
  559SOL    HW2 1677   2.553   2.242   2.368 -1.3928 -0.0020  3.7180
  560SOL     OW 1678   2.459   0.893   2.243 -0.2323  0.1224 -0.1925
  560SOL    HW1 1679   2.400   0.978   2.237 -0.6300  3.0540 -0.2508
  560SOL    HW2 1680   2.402   0.811   2.249  0.3971  0.0047  0.5478
  561SOL     OW 1681   0.038   0.285   2.895  0.1402  0.0003 -0.0041
  561SOL    HW1 1682   0.047   0.258   2.798 -0.2213 -1.1573  1.6704
  561SOL    HW2 1683   3.084   0.288   2.919 -0.0590 -0.8966  0.7471
  562SOL     OW 1684   1.052   1.051   1.666  0.1062 -0.4543  0.6636
  562SOL    HW1 1685   0.978   1.009   1.611  0.0422 -0.7358 -0.5654
  562SOL    HW2 1686   1.016   1.135   1.712 -0.7304 -0.0823  0.9716
  563SOL     OW 1687   1.498   0.041   3.088 -0.0588  0.3325  0.0780
  563SOL    HW1 1688   1.480   3.126   3.010 -0.6766  1.1407  1.8971
  563SOL    HW2 1689   1.456   0.017   0.034  0.1139  1.0342  1.2790
  564SOL     OW 1690   0.036   2.235   1.188 -0.3920  0.3673 -0.3910
  564SOL    HW1 1691   0.101   2.157   1.186 -0.8595  0.4348 -0.4291
  564SOL    HW2 1692   3.086   2.206   1.187  5.1686 -0.0971 -1.3892
  565SOL     OW 1693   0.731   2.202   2.015 -0.2750  0.7182 -0.0461
  565SOL    HW1 1694   0.702   2.215   1.918  0.1198 -1.2139  1.0864
  565SOL    HW2 1695   0.673   2.136   2.067  1.9496 -0.7527 -1.4278
  566SOL     OW 1696   1.292   2.628   2.042 -0.1021  0.0527  0.4441
  566SOL    HW1 1697   1.241   2.595   2.122  1.0168  1.4236 -2.2429
  566SOL    HW2 1698   1.363   2.696   2.069 -0.1254  1.2749  2.3866
  567SOL     OW 1699   2.081   2.488   1.063 -0.2273 -0.2756 -0.2393
  567SOL    HW1 1700   2.040   2.526   1.147 -1.2486  0.4873 -3.9333
  567SOL    HW2 1701   2.164   2.539   1.034 -1.8475  0.8065 -1.5348
  568SOL     OW 1702   1.911   0.771   0.498  0.6007 -0.0744 -0.2192
  568SOL    HW1 1703   1.841   0.797   0.575 -2.4700 -1.3349  2.3733
  568SOL    HW2 1704   1.898   0.676   0.480  0.1080  0.7795 -2.1806
  569SOL     OW 1705   2.940   1.925   2.836  0.5544  0.0130  0.2200
  569SOL    HW1 1706   3.041   1.940   2.832  2.0890 -1.5319  0.4657
  569SOL    HW2 1707   2.925   1.831   2.874 -1.4493  0.1477 -0.1587
  570SOL     OW 1708   2.989   0.083   1.181 -0.0668  0.9972  0.5355
  570SOL    HW1 1709   3.066   0.140   1.217 -0.6535  0.9865 -0.6242
  570SOL    HW2 1710   2.910   0.139   1.149 -0.6477  1.2404 -0.2499
  571SOL     OW 1711   2.979   0.440   1.688 -0.0514 -0.2098  0.3840
  571SOL    HW1 1712   3.042   0.516   1.711 -2.2181  0.9383 -0.2158
  571SOL    HW2 1713   2.946   0.391   1.771 -1.3373 -0.8886  0.2688
  572SOL     OW 1714   3.027   2.569   0.915 -0.1264  0.3795 -0.0942
  572SOL    HW1 1715   3.057   2.601   0.821 -0.5457  1.4235 -1.0414
  572SOL    HW2 1716   3.094   2.499   0.944 -1.2828  0.3840  1.3953
  573SOL     OW 1717   0.941   0.651   3.126  0.1886 -0.1629 -0.4742
  573SOL    HW1 1718   0.865   0.686   0.036  2.0063  0.8412 -3.2877
  573SOL    HW2 1719   0.913   0.555   3.092 -0.1182 -1.0350  0.0854
  574SOL     OW 1720   2.995   2.673   3.013  0.3676 -0.2990  0.3311
  574SOL    HW1 1721   2.930   2.709   3.084  2.1790  0.8958  0.0751
  574SOL    HW2 1722   2.983   2.729   2.926 -0.4976  0.9456 -0.6635
  575SOL     OW 1723   1.469   2.413   1.168 -0.0385 -0.6288 -0.3162
  575SOL    HW1 1724   1.373   2.406   1.132  0.5806  0.8113  1.5206
  575SOL    HW2 1725   1.530   2.473   1.108 -0.0711  0.9483  2.3265
  576SOL     OW 1726   0.840   2.521   1.076  0.2551  0.5960  0.0287
  576SOL    HW1 1727   0.828   2.564   0.985  2.4104 -1.6448 -0.0193
  576SOL    HW2 1728   0.893   2.570   1.146  0.1931 -1.3339 -2.4761
  577SOL     OW 1729   2.422   1.474   0.979 -0.2280  0.7078  0.8036
  577SOL    HW1 1730   2.407   1.401   1.049 -0.7476  1.3040  0.1327
  577SOL    HW2 1731   2.483   1.441   0.904 -0.2285  0.0692 -1.8005
  578SOL     OW 1732   1.588   0.219   0.621 -0.5146 -0.5918  0.1866
  578SOL    HW1 1733   1.548   0.277   0.547 -0.3719  0.9616  1.7380
  578SOL    HW2 1734   1.584   0.120   0.607  0.7374 -1.0480  0.9287
  579SOL     OW 1735   2.431   0.937   2.847 -0.0367 -0.1560  0.0923
  579SOL    HW1 1736   2.485   0.853   2.821  2.0883 -0.9328 -1.5046
  579SOL    HW2 1737   2.344   0.942   2.792  1.7059 -1.4407 -0.5666
  580SOL     OW 1738   1.816   0.785   1.908 -0.3556  0.4894 -0.7183
  580SOL    HW1 1739   1.842   0.881   1.937  1.9710  0.4296  2.9363
  580SOL    HW2 1740   1.804   0.724   1.987 -1.5099  1.1155 -1.9805
  581SOL     OW 1741   0.537   1.016   1.197 -0.0341 -0.3810 -0.6715
  581SOL    HW1 1742   0.474   1.076   1.143  2.1523 -2.3462  0.1242
  581SOL    HW2 1743   0.582   0.944   1.146  0.6897 -1.5689  1.7369
  582SOL     OW 1744   2.680   0.114   1.874 -0.3194  0.0426 -0.0381
  582SOL    HW1 1745   2.648   0.112   1.971 -0.6500  2.3619 -0.4611
  582SOL    HW2 1746   2.615   0.174   1.821  1.2236 -0.8801  1.1011
  583SOL     OW 1747   3.099   0.449   2.118  0.4732  0.2066 -0.2088
  583SOL    HW1 1748   3.005   0.482   2.144 -0.7356 -1.0516 -1.4881
  583SOL    HW2 1749   3.112   0.347   2.131 -2.1997 -1.4105  1.9408
  584SOL     OW 1750   1.428   2.005   2.978  0.6165  0.1912  0.1067
  584SOL    HW1 1751   1.505   2.067   2.997  0.5808 -0.1260  0.0632
  584SOL    HW2 1752   1.460   1.925   2.926  1.3888 -0.8010 -1.3912
  585SOL     OW 1753   0.236   2.956   2.664  0.3212 -0.0053 -0.4362
  585SOL    HW1 1754   0.319   2.999   2.710  0.0871 -0.7170 -0.3941
  585SOL    HW2 1755   0.155   3.012   2.688 -0.0608 -1.5201 -1.1309
  586SOL     OW 1756   2.035   1.774   2.478  0.4034 -0.1456  0.5780
  586SOL    HW1 1757   2.096   1.742   2.404  0.3024  0.0349  2.4097
  586SOL    HW2 1758   2.095   1.810   2.552  2.9069  1.2692 -0.2755
  587SOL     OW 1759   2.369   2.470   0.460  0.0092  0.8323 -0.1967
  587SOL    HW1 1760   2.289   2.528   0.447 -0.5931  1.1972  1.9744
  587SOL    HW2 1761   2.350   2.376   0.433  1.7055  0.6130 -0.8003
  588SOL     OW 1762   2.648   0.471   0.750  0.4725  0.3477  0.2131
  588SOL    HW1 1763   2.555   0.466   0.789  1.1018  1.5416 -0.1966
  588SOL    HW2 1764   2.650   0.432   0.657 -0.4187 -0.0820  1.1478
  589SOL     OW 1765   0.600   0.640   0.706  0.0715 -0.0413  0.3602
  589SOL    HW1 1766   0.642   0.548   0.685 -0.7261 -0.8302  1.4736
  589SOL    HW2 1767   0.539   0.680   0.636 -1.1055  0.2897  0.2989
  590SOL     OW 1768   2.292   2.213   0.385 -0.0210 -0.0923 -0.5698
  590SOL    HW1 1769   2.264   2.163   0.473 -2.1218 -3.0996 -2.5543
  590SOL    HW2 1770   2.339   2.143   0.328  2.3086  0.4931 -2.1848
  591SOL     OW 1771   0.384   2.385   1.233  0.5427  0.3394 -0.3668
  591SOL    HW1 1772   0.393   2.324   1.312 -0.9533 -0.5290  1.7158
  591SOL    HW2 1773   0.416   2.477   1.260 -1.6144 -1.6392  2.1162
  592SOL     OW 1774   0.864   0.483   1.282  0.7421  0.8351 -0.1809
  592SOL    HW1 1775   0.874   0.415   1.359 -0.2207  2.2452  0.4344
  592SOL    HW2 1776   0.790   0.452   1.219  0.6121  1.1948 -3.3623
  593SOL     OW 1777   1.054   1.354   1.363  0.3168 -0.2818  0.3546
  593SOL    HW1 1778   1.105   1.298   1.429 -0.0752 -1.5548 -0.1824
  593SOL    HW2 1779   1.000   1.426   1.413  2.6655 -1.6748 -0.0670
  594SOL     OW 1780   0.811   2.282   0.434  0.0677 -0.0611 -0.1077
  594SOL    HW1 1781   0.811   2.205   0.366  1.1417 -0.0638 -2.3914
  594SOL    HW2 1782   0.909   2.319   0.440  1.3081 -0.4951 -0.1783
  595SOL     OW 1783   1.586   0.367   1.257 -0.2158 -0.1585 -0.0275
  595SOL    HW1 1784   1.562   0.464   1.281  0.9940  0.4828 -0.5121
  595SOL    HW2 1785   1.523   0.296   1.291 -2.7127  0.1189  1.0922
  596SOL     OW 1786   3.083   1.046   1.431 -0.3587  0.2117  0.3323
  596SOL    HW1 1787   3.091   0.981   1.350 -0.2813  0.7152 -0.7245
  596SOL    HW2 1788   3.029   1.126   1.402 -0.3332  1.5293  1.7495
  597SOL     OW 1789   0.532   2.683   2.403 -0.2269 -0.3588 -0.1071
  597SOL    HW1 1790   0.553   2.605   2.468  1.2694 -0.4703 -2.2180
  597SOL    HW2 1791   0.543   2.643   2.306 -1.2875 -1.5100 -2.0732
  598SOL     OW 1792   2.815   2.182   2.110  0.3876  0.5086  0.5462
  598SOL    HW1 1793   2.773   2.197   2.017 -1.3688 -2.1736 -0.6050
  598SOL    HW2 1794   2.741   2.170   2.181 -0.1647 -2.3022  3.6755
  599SOL     OW 1795   0.874   0.089   2.943  0.0478  0.1739  0.5929
  599SOL    HW1 1796   0.828   0.149   2.877  2.1067 -1.0055  3.0647
  599SOL    HW2 1797   0.854   3.133   2.924  0.3026 -0.4911  2.8382
  600SOL     OW 1798   0.192   2.242   2.675 -0.2227  0.0340 -0.2137
  600SOL    HW1 1799   0.184   2.333   2.721 -0.0405  2.2238  2.2086
  600SOL    HW2 1800   0.259   2.189   2.732 -1.2793  0.8461  2.2258
  601SOL     OW 1801   0.686   0.909   1.434 -0.1768  0.1829  0.6934
  601SOL    HW1 1802   0.610   0.925   1.370  0.5605 -4.0977 -0.6644
  601SOL    HW2 1803   0.669   0.963   1.520 -2.3018  0.0509  1.9616
  602SOL     OW 1804   0.820   2.905   0.994  0.6958  0.3948  0.0005
  602SOL    HW1 1805   0.824   2.826   0.933 -1.6924  2.7630 -0.1017
  602SOL    HW2 1806   0.844   2.874   1.090  0.4568  1.5586  2.5630
  603SOL     OW 1807   0.352   0.451   2.594 -0.2542  0.1760  0.6200
  603SOL    HW1 1808   0.321   0.363   2.545 -2.1843 -2.2453 -0.6610
  603SOL    HW2 1809   0.287   0.524   2.567 -0.6185  0.7560 -1.5880
  604SOL     OW 1810   0.701   2.788   1.636 -0.2323 -0.5810  0.2325
  604SOL    HW1 1811   0.642   2.869   1.649  0.2254 -0.4687 -2.9510
  604SOL    HW2 1812   0.650   2.721   1.582 -0.4180  0.4123  3.5638
  605SOL     OW 1813   1.521   0.741   2.058 -0.3721  0.2875 -0.1273
  605SOL    HW1 1814   1.513   0.710   1.959 -0.0670 -1.5053  2.2987
  605SOL    HW2 1815   1.463   0.824   2.079  1.1460  1.9034 -3.7089
  606SOL     OW 1816   2.423   2.970   2.853  0.2885  0.1740 -0.6112
  606SOL    HW1 1817   2.399   2.886   2.912  0.9870 -5.1779 -0.0816
  606SOL    HW2 1818   2.482   3.030   2.905 -3.1904 -3.9891 -1.4717
  607SOL     OW 1819   0.688   0.384   1.111 -0.1537 -0.1883 -0.5244
  607SOL    HW1 1820   0.623   0.427   1.048  2.6003 -1.5018  3.6178
  607SOL    HW2 1821   0.720   0.284   1.088 -0.0999 -2.2471 -0.7458
  608SOL     OW 1822   0.244   1.795   2.542 -0.9964 -0.0138 -0.0559
  608SOL    HW1 1823   0.277   1.859   2.618  0.8678 -0.5700  2.5682
  608SOL    HW2 1824   0.160   1.830   2.498  1.9984  0.1369  1.8949
  609SOL     OW 1825   1.485   1.406   0.560 -0.3084 -1.3641  0.1016
  609SOL    HW1 1826   1.445   1.469   0.481  0.5119  0.3537 -1.9183
  609SOL    HW2 1827   1.475   1.310   0.535  0.8995 -0.4564  1.0966
  610SOL     OW 1828   0.028   0.498   0.929  0.4962 -1.0432  0.2137
  610SOL    HW1 1829   3.121   0.445   0.859  0.3781  2.3689 -2.0119
  610SOL    HW2 1830   0.100   0.433   0.968  0.8081 -3.3734 -1.7964
  611SOL     OW 1831   1.542   0.958   0.768  0.2416  0.0109 -0.6039
  611SOL    HW1 1832   1.588   0.998   0.854  2.1576 -0.1834  2.6238
  611SOL    HW2 1833   1.538   1.025   0.689 -0.8806  0.0271 -0.0152
  612SOL     OW 1834   1.722   1.518   0.577 -0.1572 -0.2543  0.4613
  612SOL    HW1 1835   1.727   1.586   0.501 -1.3596  0.4431  0.4596
  612SOL    HW2 1836   1.632   1.470   0.574 -0.6640 -1.8915 -1.2327
  613SOL     OW 1837   1.631   1.001   0.336  0.0900 -0.0780  0.6679
  613SOL    HW1 1838   1.726   0.984   0.297  0.5168  0.4718 -0.9611
  613SOL    HW2 1839   1.587   1.084   0.291  0.4938 -0.0559 -0.7575
  614SOL     OW 1840   2.870   0.189   2.370 -0.3705 -0.2476 -0.3941
  614SOL    HW1 1841   2.938   0.140   2.310  1.7009 -0.2640 -0.4769
  614SOL    HW2 1842   2.827   0.266   2.320 -0.0545 -2.4150  0.9417
  615SOL     OW 1843   0.546   1.924   0.870  0.0323 -0.4163 -0.4543
  615SOL    HW1 1844   0.612   1.853   0.902 -0.4387 -2.0894 -0.1742
  615SOL    HW2 1845   0.548   2.015   0.926 -2.1253  2.0479  1.5345
  616SOL     OW 1846   1.697   1.425   2.646  0.1636 -0.2914  0.6390
  616SOL    HW1 1847   1.679   1.352   2.575  1.3276 -1.6353 -2.2861
  616SOL    HW2 1848   1.624   1.426   2.718 -0.3168  1.7192 -1.8012
  617SOL     OW 1849   1.402   0.494   0.019  0.7071 -0.1093 -0.1455
  617SOL    HW1 1850   1.325   0.425   0.008  0.4384 -0.4987 -0.8920
  617SOL    HW2 1851   1.451   0.501   3.075  1.4078  0.4078  0.8741
  618SOL     OW 1852   2.000   2.539   2.386 -0.5814  0.0963 -0.1167
  618SOL    HW1 1853   1.982   2.528   2.283 -0.6009 -1.6780 -1.7027
  618SOL    HW2 1854   1.914   2.511   2.431 -1.4007  0.7160 -2.9778
  619SOL     OW 1855   2.126   2.146   1.037  0.0589 -0.0601 -0.4961
  619SOL    HW1 1856   2.105   2.148   0.941 -1.2322 -0.2460  1.2282
  619SOL    HW2 1857   2.129   2.050   1.077  1.3469 -0.2113  0.4241
  620SOL     OW 1858   1.975   2.788   2.089  0.3746 -0.0837 -0.5351
  620SOL    HW1 1859   2.053   2.805   2.025 -1.9010  0.7467  1.0035
  620SOL    HW2 1860   2.000   2.802   2.185  0.5983 -0.3764 -1.1601
  621SOL     OW 1861   0.014   1.275   0.711 -0.5748 -0.2485  0.4548
  621SOL    HW1 1862   0.057   1.367   0.715 -0.3892 -1.1957  0.7865
  621SOL    HW2 1863   3.061   1.289   0.730 -0.3018 -1.6991  0.3689
  622SOL     OW 1864   1.541   1.704   2.913 -0.2478  0.3681  0.5759
  622SOL    HW1 1865   1.583   1.718   2.819 -0.8754 -0.9777  1.8046
  622SOL    HW2 1866   1.600   1.726   2.992  0.9917 -0.3829  0.7222
  623SOL     OW 1867   3.008   2.557   2.245  0.1077 -0.3115 -0.2727
  623SOL    HW1 1868   2.920   2.588   2.280  1.2977 -1.0200  0.3580
  623SOL    HW2 1869   3.074   2.633   2.220  0.3902 -0.7281 -0.4943
  624SOL     OW 1870   0.545   2.484   0.105  0.0622  0.1049  0.4373
  624SOL    HW1 1871   0.525   2.393   0.140  0.5680 -0.7893 -1.3094
  624SOL    HW2 1872   0.472   2.547   0.144  1.3100  1.3219 -0.4221
  625SOL     OW 1873   0.453   1.854   1.990 -0.2045  0.7292  0.0490
  625SOL    HW1 1874   0.405   1.937   2.012  2.1422  0.7645 -2.7405
  625SOL    HW2 1875   0.384   1.778   1.982  1.0162 -0.2604  1.1350
  626SOL     OW 1876   0.822   2.976   2.925 -0.1653 -0.5193 -0.4648
  626SOL    HW1 1877   0.871   2.904   2.971 -1.3270  1.7944 -1.0495
  626SOL    HW2 1878   0.723   2.955   2.936  0.2457 -1.1228 -0.8703
  627SOL     OW 1879   1.686   1.458   0.198 -0.1352  0.2333  0.4077
  627SOL    HW1 1880   1.769   1.442   0.144  0.0321  1.3753 -1.1117
  627SOL    HW2 1881   1.703   1.536   0.258  0.2977 -2.6748 -2.6271
  628SOL     OW 1882   1.427   2.225   0.817 -0.0581  0.2501 -0.1697
  628SOL    HW1 1883   1.334   2.192   0.790 -0.5158  0.7222 -1.9375
  628SOL    HW2 1884   1.437   2.325   0.814 -1.7195 -0.9738 -2.7236
  629SOL     OW 1885   0.041   0.228   1.750  0.3485  0.4345 -0.2716
  629SOL    HW1 1886   0.024   0.128   1.752  2.8308  2.2606  0.4773
  629SOL    HW2 1887   3.102   0.288   1.742 -1.2462  0.9989 -2.1360
  630SOL     OW 1888   2.329   0.795   1.570  0.5471 -0.0296 -0.4247
  630SOL    HW1 1889   2.263   0.810   1.491 -0.3151  0.9367  0.8394
  630SOL    HW2 1890   2.352   0.694   1.579 -1.7326  1.3797  0.0631
  631SOL     OW 1891   1.244   0.461   1.080 -0.2897 -0.3247  0.3296
  631SOL    HW1 1892   1.315   0.533   1.065  0.1067 -1.7262 -0.4422
  631SOL    HW2 1893   1.287   0.369   1.070  0.3888  1.5648  0.5756
  632SOL     OW 1894   2.816   0.994   2.132  0.2347 -0.5772  0.1376
  632SOL    HW1 1895   2.758   0.949   2.061 -1.6015  0.7837  0.7715
  632SOL    HW2 1896   2.915   0.996   2.113 -1.5379  1.0870  0.1493
  633SOL     OW 1897   1.347   0.870   2.929 -0.3245  0.5853  0.1650
  633SOL    HW1 1898   1.319   0.963   2.903  0.3587  0.0248  1.1233
  633SOL    HW2 1899   1.286   0.826   3.000 -1.2955  0.1516  0.9271
  634SOL     OW 1900   0.568   2.929   2.996 -0.9408  0.1587  0.9032
  634SOL    HW1 1901   0.603   2.921   3.091 -0.5735 -1.5687 -0.3298
  634SOL    HW2 1902   0.499   2.859   2.972 -0.3171  0.9895  3.3190
  635SOL     OW 1903   0.118   1.312   1.679 -0.4443  0.3664 -0.6017
  635SOL    HW1 1904   0.030   1.362   1.679  2.0255 -0.4509  0.7587
  635SOL    HW2 1905   0.199   1.374   1.673  1.2834 -2.4249 -0.4195
  636SOL     OW 1906   0.262   1.742   0.111  0.7407 -0.0443 -0.2483
  636SOL    HW1 1907   0.244   1.674   0.190 -0.1247 -1.1961  1.1570
  636SOL    HW2 1908   0.217   1.717   0.020  1.0717 -3.0131 -2.2077
  637SOL     OW 1909   0.018   2.657   0.649  0.2996 -0.0640 -0.5270
  637SOL    HW1 1910   0.025   2.750   0.604 -0.6796  1.1579  1.0665
  637SOL    HW2 1911   3.098   2.592   0.606  0.8606  3.5157  0.2772
  638SOL     OW 1912   2.917   2.682   0.283 -0.3317 -0.2982 -0.1999
  638SOL    HW1 1913   2.940   2.742   0.361 -1.6179 -2.0150  0.9423
  638SOL    HW2 1914   2.829   2.635   0.297  4.7237  1.8523  2.3086
  639SOL     OW 1915   1.463   0.297   2.923  0.7296 -0.2607  0.4676
  639SOL    HW1 1916   1.380   0.353   2.900  0.4284  0.0508 -0.4431
  639SOL    HW2 1917   1.446   0.223   2.989 -1.7995  1.5455 -0.5399
  640SOL     OW 1918   2.301   2.006   1.647  0.5155  0.1615 -0.4624
  640SOL    HW1 1919   2.258   2.083   1.591  0.3006  1.5958 -0.6484
  640SOL    HW2 1920   2.365   2.046   1.713 -2.4323 -3.9623 -2.1029
  641SOL     OW 1921   3.050   3.095   0.960 -0.8459 -0.1989  0.4674
  641SOL    HW1 1922   3.050   3.145   1.050  1.4488 -1.3663 -0.5266
  641SOL    HW2 1923   2.964   3.118   0.902 -3.9188 -0.9734 -1.1129
  642SOL     OW 1924   1.274   0.943   1.778 -0.4572 -0.8429  0.0265
  642SOL    HW1 1925   1.187   0.990   1.747 -0.8131  1.0842  0.4005
  642SOL    HW2 1926   1.295   0.854   1.726  0.6023 -1.7019  0.6173
  643SOL     OW 1927   0.742   1.812   2.541 -0.1347 -0.0778  0.1372
  643SOL    HW1 1928   0.652   1.781   2.519  1.5263  1.1727 -1.0787
  643SOL    HW2 1929   0.751   1.900   2.489 -1.8005 -1.1632 -0.5687
  644SOL     OW 1930   1.741   2.781   2.432  0.3523 -0.0484  0.4023
  644SOL    HW1 1931   1.666   2.851   2.444  0.6781 -1.9818 -1.2630
  644SOL    HW2 1932   1.695   2.701   2.381 -1.6166 -3.1180  0.1800
  645SOL     OW 1933   1.457   0.642   1.811 -0.5140 -0.2270 -0.9313
  645SOL    HW1 1934   1.548   0.671   1.773  0.7583 -0.7827  1.9472
  645SOL    HW2 1935   1.384   0.653   1.739  0.6089  0.7789 -0.3908
  646SOL     OW 1936   1.141   2.337   2.947  0.2509  0.6541  0.5494
  646SOL    HW1 1937   1.194   2.374   2.869 -2.1468  0.8458  0.0586
  646SOL    HW2 1938   1.173   2.249   2.978 -2.3195  3.0172  0.8424
  647SOL     OW 1939   1.330   2.719   0.601 -0.0170  0.0274  0.1925
  647SOL    HW1 1940   1.384   2.644   0.645 -0.0186  2.0154  1.5734
  647SOL    HW2 1941   1.342   2.706   0.503  3.3371 -1.9742  0.7269
  648SOL     OW 1942   2.780   2.700   1.386  0.3715 -0.7095  0.1246
  648SOL    HW1 1943   2.762   2.673   1.294 -1.3599  2.7016  3.0276
  648SOL    HW2 1944   2.881   2.702   1.395 -0.8751  2.2768 -0.7980
  649SOL     OW 1945   0.983   2.370   2.519  0.6291 -0.0376  0.2750
  649SOL    HW1 1946   1.061   2.325   2.477 -3.5564 -1.7859  0.4402
  649SOL    HW2 1947   0.935   2.308   2.587 -0.8198 -1.3102 -1.3439
  650SOL     OW 1948   2.692   2.016   2.791  0.2751 -0.1355  0.4821
  650SOL    HW1 1949   2.790   1.995   2.810 -0.2616 -0.3147 -0.7658
  650SOL    HW2 1950   2.678   2.096   2.724 -0.5316  1.7499 -1.5381
  651SOL     OW 1951   2.605   2.459   2.060 -0.1769 -0.5960  0.2493
  651SOL    HW1 1952   2.589   2.511   1.975 -1.2837  1.6235  1.3769
  651SOL    HW2 1953   2.513   2.423   2.092  0.7506  0.9912  0.6482
  652SOL     OW 1954   2.702   2.550   1.164 -0.4290 -0.4040  0.1952
  652SOL    HW1 1955   2.780   2.495   1.199 -0.7774 -1.7560 -0.2177
  652SOL    HW2 1956   2.622   2.488   1.146  0.5884 -0.4529  0.2402
  653SOL     OW 1957   2.974   1.232   1.271 -0.3248 -0.5398 -0.6331
  653SOL    HW1 1958   2.890   1.277   1.308 -2.8546 -0.9421  2.2871
  653SOL    HW2 1959   2.954   1.179   1.190  2.1539  0.5520  0.0792
  654SOL     OW 1960   1.205   0.441   2.895 -0.5768 -0.3251  0.6326
  654SOL    HW1 1961   1.265   0.523   2.875 -3.3857  1.5609 -0.3401
  654SOL    HW2 1962   1.116   0.462   2.937  2.1395 -0.2024 -2.4384
  655SOL     OW 1963   0.795   0.163   1.011 -0.0206 -0.3180 -0.0173
  655SOL    HW1 1964   0.867   0.154   0.937  2.0002  1.2050 -0.2492
  655SOL    HW2 1965   0.829   0.139   1.101 -1.5163 -1.2691 -0.1709
  656SOL     OW 1966   0.330   2.480   1.826  0.0419 -0.3994 -0.3582
  656SOL    HW1 1967   0.296   2.428   1.905  1.5498 -0.9709 -1.6929
  656SOL    HW2 1968   0.415   2.541   1.843 -1.3789 -0.9330  0.1062
  657SOL     OW 1969   2.523   0.805   0.348  0.0685  0.2924 -0.2832
  657SOL    HW1 1970   2.421   0.790   0.323 -0.4129  0.6363 -0.6865
  657SOL    HW2 1971   2.537   0.908   0.347 -0.6283  1.7679  0.2004
  658SOL     OW 1972   1.980   2.226   1.246  0.3700 -0.0590  0.5487
  658SOL    HW1 1973   2.009   2.202   1.151  1.7875  1.1517 -0.9555
  658SOL    HW2 1974   1.924   2.151   1.282  2.1671  0.7456 -0.4165
  659SOL     OW 1975   2.881   1.753   3.020  0.4917 -0.3568  0.0171
  659SOL    HW1 1976   2.934   1.699   3.088 -0.7090 -3.2200  1.0626
  659SOL    HW2 1977   2.801   1.702   2.992  0.3975  0.9436 -1.2066
  660SOL     OW 1978   0.780   0.231   0.499 -0.6183 -0.2343 -0.4701
  660SOL    HW1 1979   0.824   0.139   0.519  1.0828 -0.5912  0.1374
  660SOL    HW2 1980   0.838   0.291   0.444  0.5960 -3.0438  3.3665
  661SOL     OW 1981   1.695   3.144   0.330 -0.7570 -0.1590  0.2494
  661SOL    HW1 1982   1.776   0.056   0.351  1.5191  0.2827  1.4745
  661SOL    HW2 1983   1.704   3.116   0.233 -1.0373  0.8847  1.9960
  662SOL     OW 1984   0.652   3.049   0.540  0.4852 -0.3013 -0.3851
  662SOL    HW1 1985   0.567   3.068   0.485 -2.5224 -0.8326  2.8179
  662SOL    HW2 1986   0.630   3.044   0.638 -0.4955  0.3581 -2.1906
  663SOL     OW 1987   1.225   3.052   2.021  0.0361  0.0364  0.0134
  663SOL    HW1 1988   1.157   3.128   2.003  2.7823 -0.5089 -0.5441
  663SOL    HW2 1989   1.319   3.087   2.008  1.8179 -0.5088  0.8493
  664SOL     OW 1990   0.858   2.374   1.499  0.5632  0.5195 -0.0035
  664SOL    HW1 1991   0.758   2.360   1.512  2.8571 -1.5992  1.1188
  664SOL    HW2 1992   0.879   2.468   1.538 -0.5943  0.8243  0.8294
  665SOL     OW 1993   0.947   2.159   1.699 -0.1589 -0.5041 -0.1650
  665SOL    HW1 1994   1.035   2.196   1.723 -2.3483  0.2626 -0.1397
  665SOL    HW2 1995   0.907   2.218   1.620 -1.1804  1.7802 -2.5821
  666SOL     OW 1996   0.794   3.039   2.472  0.4593  0.1207  0.3696
  666SOL    HW1 1997   0.758   3.136   2.487  0.4200  2.2193 -2.1819
  666SOL    HW2 1998   0.735   2.975   2.523  1.3271  1.1883  0.3900
  667SOL     OW 1999   2.084   1.419   1.794  0.2178  0.1180 -0.3135
  667SOL    HW1 2000   2.048   1.413   1.695 -1.0492 -1.2386 -1.5650
  667SOL    HW2 2001   2.166   1.481   1.795 -3.0868  2.4515  0.4942
  668SOL     OW 2002   1.825   3.026   1.743  0.3562  0.6161 -0.4455
  668SOL    HW1 2003   1.840   2.924   1.758 -0.2150 -1.1481 -1.8532
  668SOL    HW2 2004   1.739   3.060   1.788 -0.1223 -1.6441 -2.7291
  669SOL     OW 2005   2.610   2.767   1.000  0.3638 -0.2097  0.0961
  669SOL    HW1 2006   2.663   2.709   1.064  1.6250 -0.6320  2.8966
  669SOL    HW2 2007   2.655   2.776   0.911  0.6827 -0.7181  0.9647
  670SOL     OW 2008   1.501   2.467   2.800 -0.1021  0.1353 -0.2635
  670SOL    HW1 2009   1.460   2.560   2.812 -0.6407 -0.0977 -2.4945
  670SOL    HW2 2010   1.428   2.401   2.765  0.0430  2.5174  2.3159
  671SOL     OW 2011   0.749   1.140   0.460 -0.2849 -0.4356  0.5948
  671SOL    HW1 2012   0.715   1.224   0.411  1.9429  1.7442 -0.1528
  671SOL    HW2 2013   0.677   1.083   0.504 -2.4319  0.3413  0.0019
  672SOL     OW 2014   2.706   1.261   2.759 -0.5699  0.5065  0.0533
  672SOL    HW1 2015   2.679   1.359   2.788  1.7284 -0.5737  2.2171
  672SOL    HW2 2016   2.648   1.213   2.686 -0.8790 -1.8318  1.1595
  673SOL     OW 2017   3.081   2.148   1.650 -0.7463  0.1948  0.3713
  673SOL    HW1 2018   0.015   2.157   1.712  0.6969  0.5571  0.5808
  673SOL    HW2 2019   3.026   2.067   1.667 -1.0139  2.3078  0.9119
  674SOL     OW 2020   0.794   2.394   2.335  0.2166 -0.0261 -0.4918
  674SOL    HW1 2021   0.848   2.386   2.418  0.7835  2.8067  1.8294
  674SOL    HW2 2022   0.697   2.358   2.350 -1.4616  0.7787 -0.5076
  675SOL     OW 2023   1.029   0.673   1.645 -0.0060  0.1336 -0.1502
  675SOL    HW1 2024   1.022   0.630   1.742  0.0609 -2.7117  0.3960
  675SOL    HW2 2025   0.941   0.657   1.598  0.5916 -2.6373  1.0680
  676SOL     OW 2026   1.854   3.103   1.476  0.4916  0.1748 -0.6462
  676SOL    HW1 2027   1.861   3.021   1.416  0.7553 -0.6887 -0.6985
  676SOL    HW2 2028   1.824   3.085   1.574  0.2688  2.8885 -0.3087
  677SOL     OW 2029   2.710   1.348   0.023 -0.1310  0.9511 -0.4611
  677SOL    HW1 2030   2.688   1.383   3.081 -1.3424 -1.1981  4.4031
  677SOL    HW2 2031   2.698   1.247   0.034 -1.1064  0.3027  0.1635
  678SOL     OW 2032   2.599   1.240   1.286 -0.1932 -0.2179 -0.2106
  678SOL    HW1 2033   2.671   1.314   1.300 -1.9324  0.2043  0.3527
  678SOL    HW2 2034   2.507   1.280   1.267  0.2708  0.9600 -1.2999
  679SOL     OW 2035   2.755   0.710   3.054  0.0008  0.0011  0.4073
  679SOL    HW1 2036   2.837   0.777   3.051  1.4015  1.7698 -1.2735
  679SOL    HW2 2037   2.727   0.682   0.005 -0.8958 -1.6960  0.3242
  680SOL     OW 2038   0.726   1.494   2.090 -0.4465 -0.6243  0.3558
  680SOL    HW1 2039   0.822   1.520   2.071  0.6150  1.1060 -2.2142
  680SOL    HW2 2040   0.688   1.549   2.166  3.3671 -3.0630  2.2294
  681SOL     OW 2041   2.780   2.107   1.805  0.3505 -0.2692  0.2573
  681SOL    HW1 2042   2.851   2.170   1.765  1.6408  0.2344  2.2452
  681SOL    HW2 2043   2.799   2.015   1.761 -0.9262 -0.6119 -1.1661
  682SOL     OW 2044   0.198   2.181   3.122  0.3749  0.5102  0.2781
  682SOL    HW1 2045   0.242   2.147   0.060  0.2527  1.5974 -0.3325
  682SOL    HW2 2046   0.129   2.252   3.144 -1.0807 -0.0015  2.5210
  683SOL     OW 2047   2.920   2.171   1.196 -0.1422 -0.1318  0.1830
  683SOL    HW1 2048   2.853   2.123   1.264 -1.0673 -3.0659 -0.4853
  683SOL    HW2 2049   2.916   2.270   1.207 -1.6101 -4.2333 -0.1579
  684SOL     OW 2050   2.906   1.216   2.379 -0.4346 -0.4061 -0.3059
  684SOL    HW1 2051   2.946   1.303   2.408 -0.4463 -0.6107 -0.3474
  684SOL    HW2 2052   2.824   1.228   2.322  0.8797 -2.7128  1.6119
  685SOL     OW 2053   1.430   0.451   0.701  0.5329 -0.1885  0.2107
  685SOL    HW1 2054   1.505   0.434   0.637 -0.9948  1.3996  0.1317
  685SOL    HW2 2055   1.373   0.363   0.714  0.9464  0.2341 -1.8505
  686SOL     OW 2056   0.490   0.231   0.502  0.0163  1.0405 -0.0972
  686SOL    HW1 2057   0.579   0.262   0.471 -0.7183  0.0762 -0.7727
  686SOL    HW2 2058   0.421   0.304   0.476 -0.1666 -0.8227  1.5137
  687SOL     OW 2059   0.756   1.992   2.762  0.2835 -0.0854  0.2304
  687SOL    HW1 2060   0.753   1.927   2.685 -0.7577  2.2325 -1.6213
  687SOL    HW2 2061   0.685   2.063   2.747 -2.6418  0.1180  2.6557
  688SOL     OW 2062   2.061   0.372   1.615  0.1240 -0.4066  0.6288
  688SOL    HW1 2063   2.059   0.275   1.596  0.0978  3.2418  0.5097
  688SOL    HW2 2064   2.113   0.415   1.539  0.5635  0.1908  0.6391
  689SOL     OW 2065   1.644   0.561   0.852  1.0002 -0.6439 -0.0852
  689SOL    HW1 2066   1.683   0.490   0.919  1.9204 -1.5182 -1.0629
  689SOL    HW2 2067   1.558   0.519   0.807 -1.6308 -2.1289 -1.4932
  690SOL     OW 2068   0.101   1.315   1.215 -0.0623 -0.0548  0.0901
  690SOL    HW1 2069   0.014   1.276   1.253  2.4072  0.5438 -0.9399
  690SOL    HW2 2070   0.117   1.262   1.128 -0.5802 -0.3428 -3.9904
  691SOL     OW 2071   0.220   2.035   1.269 -0.1345  0.2431  0.0427
  691SOL    HW1 2072   0.299   2.027   1.202  4.2534 -1.7163 -3.6032
  691SOL    HW2 2073   0.248   1.983   1.353 -1.4238 -0.1399  0.1866
  692SOL     OW 2074   1.270   0.031   1.618 -0.5447 -0.2064  0.2185
  692SOL    HW1 2075   1.347   3.109   1.614 -0.5238  4.0506 -1.4381
  692SOL    HW2 2076   1.315   0.121   1.635 -0.3986 -3.3414  2.0791
  693SOL     OW 2077   0.937   1.691   2.257 -0.1158  0.3555  0.2797
  693SOL    HW1 2078   0.898   1.782   2.283 -1.9612 -2.5249 -0.5172
  693SOL    HW2 2079   0.971   1.681   2.165 -0.9227  0.2635  1.7168
  694SOL     OW 2080   1.843   1.503   0.825 -0.3564  0.1257  0.0987
  694SOL    HW1 2081   1.782   1.485   0.905 -1.1200  0.7581 -1.6021
  694SOL    HW2 2082   1.792   1.512   0.736 -0.5160 -0.9717 -1.4614
  695SOL     OW 2083   0.931   0.927   1.234  0.4877 -0.1959 -0.0199
  695SOL    HW1 2084   0.904   0.868   1.155  1.1734 -0.6209 -1.3810
  695SOL    HW2 2085   0.852   0.943   1.298 -3.1457 -1.1182  0.6659
  696SOL     OW 2086   0.134   3.093   0.341  0.1596 -0.1671 -0.2371
  696SOL    HW1 2087   0.084   3.055   0.262  0.1774  0.8713  2.2072
  696SOL    HW2 2088   0.146   3.010   0.398 -0.6779 -2.9176 -2.0645
  697SOL     OW 2089   1.963   0.397   1.216 -0.1598 -0.0334  0.6431
  697SOL    HW1 2090   1.900   0.463   1.172  1.1348  1.2859  1.8983
  697SOL    HW2 2091   1.917   0.316   1.256  1.6527  1.2820  1.1164
  698SOL     OW 2092   1.436   1.344   1.848  0.3027 -1.0307 -0.4579
  698SOL    HW1 2093   1.520   1.394   1.814 -0.4827 -1.5194 -1.5302
  698SOL    HW2 2094   1.458   1.253   1.889 -1.7188 -1.8282 -0.6500
  699SOL     OW 2095   0.121   0.591   2.289  0.5116  0.1209  0.3425
  699SOL    HW1 2096   0.055   0.544   2.227  3.9940 -2.7811 -1.6336
  699SOL    HW2 2097   0.076   0.643   2.362  1.9202  3.1547 -1.4131
  700SOL     OW 2098   1.422   2.497   0.755  0.2522  0.1359 -0.5802
  700SOL    HW1 2099   1.519   2.507   0.734 -1.4123  2.0117 -0.8062
  700SOL    HW2 2100   1.394   2.554   0.842 -0.6342  1.0841  3.3120
  701SOL     OW 2101   0.188   1.530   2.519  0.6916 -0.4676 -0.0123
  701SOL    HW1 2102   0.214   1.629   2.527  0.5623  1.9921 -1.2387
  701SOL    HW2 2103   0.197   1.486   2.612 -1.1599  0.7361  1.1949
  702SOL     OW 2104   0.452   3.140   0.366  0.1593 -0.6590  0.0596
  702SOL    HW1 2105   0.451   0.088   0.407 -1.4739 -0.4133  0.5632
  702SOL    HW2 2106   0.360   3.102   0.361  1.5881  1.2744  1.5953
  703SOL     OW 2107   1.801   3.026   2.847 -0.0167  0.2453 -0.3337
  703SOL    HW1 2108   1.849   2.941   2.878 -1.7010  3.4306  0.3342
  703SOL    HW2 2109   1.699   3.006   2.836  0.4146  1.3474  2.6312
  704SOL     OW 2110   2.594   1.910   0.462  0.1465 -0.2200  0.3571
  704SOL    HW1 2111   2.646   1.995   0.443  2.8431 -3.4297  1.3017
  704SOL    HW2 2112   2.531   1.913   0.542  0.5870 -1.6924  0.7959
  705SOL     OW 2113   2.845   2.102   2.436 -0.5083 -0.4958 -0.2318
  705SOL    HW1 2114   2.767   2.144   2.385 -1.2464 -1.1917 -3.4248
  705SOL    HW2 2115   2.926   2.133   2.383 -1.8036  1.6479  1.6744
  706SOL     OW 2116   2.785   2.984   0.583  0.0669 -0.4749  0.1419
  706SOL    HW1 2117   2.757   3.081   0.574 -1.4014 -1.8426 -0.5795
  706SOL    HW2 2118   2.869   2.957   0.533  0.1021 -1.8711 -0.0453
  707SOL     OW 2119   1.110   3.076   0.148 -0.3997  0.1017 -0.0926
  707SOL    HW1 2120   1.158   3.024   0.072 -0.9155 -0.5051 -0.3651
  707SOL    HW2 2121   1.014   3.101   0.116 -1.1532 -0.4508 -0.0634
  708SOL     OW 2122   0.153   2.123   1.863 -0.1604  0.6689  0.4407
  708SOL    HW1 2123   0.101   2.205   1.884 -3.8108  0.6484  0.5490
  708SOL    HW2 2124   0.189   2.086   1.953  0.0523  0.3492  0.9087
  709SOL     OW 2125   1.257   2.816   1.866  0.0505 -0.0556 -0.5530
  709SOL    HW1 2126   1.271   2.747   1.934 -2.0968  3.3113 -0.9155
  709SOL    HW2 2127   1.241   2.903   1.909  1.3055 -0.1633 -0.3569
  710SOL     OW 2128   1.790   2.452   2.544 -0.1064 -0.2947 -0.1469
  710SOL    HW1 2129   1.793   2.541   2.600  2.8907  0.0285  0.4606
  710SOL    HW2 2130   1.717   2.398   2.586  1.5241  1.3002 -1.1399
  711SOL     OW 2131   1.185   2.530   2.742 -0.3039  0.4181 -0.3587
  711SOL    HW1 2132   1.111   2.473   2.695  0.7059 -1.5796 -1.8272
  711SOL    HW2 2133   1.167   2.632   2.743 -0.2296  1.7505  0.6773
  712SOL     OW 2134   1.188   2.049   2.888 -0.3652 -0.2342 -0.4946
  712SOL    HW1 2135   1.274   2.029   2.934 -2.0860 -0.0834 -1.8021
  712SOL    HW2 2136   1.101   2.030   2.942 -0.1658  0.6497 -0.4465
  713SOL     OW 2137   1.563   0.896   1.542  0.0799 -0.3895 -0.3130
  713SOL    HW1 2138   1.608   0.821   1.593 -0.4235 -2.3031  1.7081
  713SOL    HW2 2139   1.616   0.985   1.555  0.8714  2.4368  0.6975
  714SOL     OW 2140   1.277   1.424   1.661  0.5048  0.5648  0.1025
  714SOL    HW1 2141   1.340   1.400   1.740  0.5217  0.3048 -0.1942
  714SOL    HW2 2142   1.265   1.343   1.599 -0.8504 -0.3616 -1.4244
  715SOL     OW 2143   2.727   0.071   0.121 -0.0091  0.0070  0.4155
  715SOL    HW1 2144   2.810   0.128   0.150  2.3113 -0.2105  2.2209
  715SOL    HW2 2145   2.755   3.142   0.051  0.1876 -0.7440 -1.4378
  716SOL     OW 2146   0.653   2.646   1.234  0.2772  0.0112  0.1199
  716SOL    HW1 2147   0.668   2.582   1.156 -0.3266 -2.0207  0.6996
  716SOL    HW2 2148   0.605   2.729   1.205 -0.4510 -2.1030  1.4425
  717SOL     OW 2149   2.674   0.639   0.187  0.0522  0.2995  0.4593
  717SOL    HW1 2150   2.664   0.538   0.189  0.3994  2.0770  1.4252
  717SOL    HW2 2151   2.615   0.689   0.250 -1.0160  0.7966 -0.2631
  718SOL     OW 2152   1.846   1.431   1.201  0.0292 -0.2023  0.1019
  718SOL    HW1 2153   1.928   1.439   1.143  0.8784 -0.0590  3.6388
  718SOL    HW2 2154   1.836   1.507   1.267 -0.0464 -0.3687 -0.2595
  719SOL     OW 2155   2.830   2.800   0.055  0.4355  0.1413 -0.0605
  719SOL    HW1 2156   2.770   2.727   0.013 -1.7551  0.4448  1.1552
  719SOL    HW2 2157   2.862   2.777   0.148  1.0524  1.0226 -1.5399
  720SOL     OW 2158   0.986   0.543   1.051  0.3015  0.5260  0.1265
  720SOL    HW1 2159   1.082   0.512   1.069  0.3041  2.1855 -0.9294
  720SOL    HW2 2160   0.928   0.533   1.137  0.6762 -1.5173 -0.1483
  721SOL     OW 2161   1.856   3.143   1.129 -0.0273 -0.5405 -0.3657
  721SOL    HW1 2162   1.894   0.048   1.049 -0.1253 -2.7006  2.2040
  721SOL    HW2 2163   1.862   0.065   1.208  1.9052 -0.2448  1.9101
  722SOL     OW 2164   0.853   1.885   2.029  0.0305  0.3611 -0.0263
  722SOL    HW1 2165   0.774   1.878   2.090 -1.8128 -0.9903  2.4552
  722SOL    HW2 2166   0.936   1.923   2.070 -2.5224 -0.4113  1.1362
  723SOL     OW 2167   1.117   0.012   1.384  0.2894 -0.0624 -0.4411
  723SOL    HW1 2168   1.190   0.024   1.316 -0.5212 -3.8346  1.7985
  723SOL    HW2 2169   1.161   0.012   1.474  0.7336 -0.9863 -0.4432
  724SOL     OW 2170   1.796   2.028   1.938  0.3361 -0.1009 -0.3848
  724SOL    HW1 2171   1.850   1.973   1.870 -0.6537 -1.4797  1.5825
  724SOL    HW2 2172   1.816   1.986   2.026 -2.4877  2.5152  0.4454
  725SOL     OW 2173   1.342   2.772   1.401 -0.2033  0.0610 -0.5546
  725SOL    HW1 2174   1.413   2.838   1.372 -0.7533 -1.2487  0.0356
  725SOL    HW2 2175   1.390   2.685   1.423 -2.2329 -2.5373  0.7348
  726SOL     OW 2176   1.534   0.233   0.352 -0.6107 -0.4534  0.7057
  726SOL    HW1 2177   1.562   0.135   0.372  0.4655 -1.2936  0.1600
  726SOL    HW2 2178   1.582   0.273   0.272 -2.0929 -1.1226  0.2563
  727SOL     OW 2179   1.462   1.918   0.842  0.0611 -0.5572  0.3110
  727SOL    HW1 2180   1.409   1.889   0.923 -0.2982 -0.1325 -0.1132
  727SOL    HW2 2181   1.483   2.018   0.840  0.9563  1.6007 -0.7081
  728SOL     OW 2182   1.999   2.810   2.370 -0.1650 -0.1154  0.2335
  728SOL    HW1 2183   1.897   2.824   2.392 -0.2820 -4.8059  1.4973
  728SOL    HW2 2184   2.022   2.712   2.380  1.9116 -0.2677 -2.2487
  729SOL     OW 2185   2.317   2.362   1.743 -0.3174  0.2985  0.6240
  729SOL    HW1 2186   2.345   2.441   1.807 -1.1812  3.4230  2.0606
  729SOL    HW2 2187   2.381   2.283   1.742  0.4111 -2.6744  1.1964
  730SOL     OW 2188   1.788   0.531   2.631  0.5207 -0.5423 -0.2248
  730SOL    HW1 2189   1.733   0.504   2.715  0.0944  0.1870  0.1594
  730SOL    HW2 2190   1.739   0.507   2.544  1.9192  2.5009  1.4706
  731SOL     OW 2191   0.456   0.199   1.225  0.1484 -0.6836  0.0919
  731SOL    HW1 2192   0.513   0.282   1.221  1.7283  0.1659  0.9058
  731SOL    HW2 2193   0.401   0.198   1.309 -0.5070  0.1627 -0.7666
  732SOL     OW 2194   2.041   2.832   1.122 -0.3754 -0.5352 -0.2600
  732SOL    HW1 2195   2.076   2.928   1.129  1.2633  2.1509  2.1507
  732SOL    HW2 2196   2.030   2.805   1.027 -0.0840 -0.7045 -0.2449
  733SOL     OW 2197   1.205   0.875   1.284 -0.4151  0.6558  0.3708
  733SOL    HW1 2198   1.105   0.899   1.277 -3.2615 -2.5105  0.4275
  733SOL    HW2 2199   1.266   0.942   1.330 -0.9209 -3.6279 -3.0404
  734SOL     OW 2200   2.634   2.373   0.520  0.2503  0.6011  0.1352
  734SOL    HW1 2201   2.542   2.402   0.488 -0.8559  1.0028 -3.2262
  734SOL    HW2 2202   2.630   2.350   0.626  2.0658 -0.9507  4.9788
  735SOL     OW 2203   0.582   0.503   3.083 -0.3757 -0.0201 -0.3403
  735SOL    HW1 2204   0.608   0.578   3.021  2.9788  2.0660 -2.3212
  735SOL    HW2 2205   0.655   0.480   0.007  0.0085  3.7614  1.9127
  736SOL     OW 2206   1.983   2.244   2.574 -0.2885  0.8868 -0.1194
  736SOL    HW1 2207   1.943   2.328   2.532  1.5291 -1.8119 -1.0152
  736SOL    HW2 2208   1.977   2.251   2.679  0.7137 -0.8980 -0.1769
  737SOL     OW 2209   1.222   2.364   1.072  0.1209 -0.0399 -0.0745
  737SOL    HW1 2210   1.168   2.392   1.158 -0.0215 -0.6240  1.4465
  737SOL    HW2 2211   1.200   2.265   1.058  1.5007  1.1521  1.9783
  738SOL     OW 2212   1.465   2.825   2.088  1.0605  0.5394 -0.1320
  738SOL    HW1 2213   1.486   2.849   2.185  0.3482  0.1640  0.5175
  738SOL    HW2 2214   1.545   2.840   2.031 -1.3098 -1.3519 -0.0438
  739SOL     OW 2215   1.110   1.957   2.116 -0.1028  0.5005 -0.4519
  739SOL    HW1 2216   1.186   2.002   2.064  0.4440  0.8602  4.1277
  739SOL    HW2 2217   1.097   2.009   2.200  0.7985 -2.1560 -1.5735
  740SOL     OW 2218   2.077   2.252   1.755  0.2969  0.0873  0.2982
  740SOL    HW1 2219   2.075   2.152   1.731  1.9531 -1.0161 -0.5276
  740SOL    HW2 2220   2.171   2.287   1.745 -2.4424  0.0934  1.5452
  741SOL     OW 2221   2.226   1.800   0.149 -0.1306 -0.3571  0.2036
  741SOL    HW1 2222   2.167   1.725   0.191  1.1809  0.9060  1.0782
  741SOL    HW2 2223   2.246   1.767   0.056 -5.0366 -0.2676  2.3091
  742SOL     OW 2224   1.012   0.986   2.834 -0.2078 -0.2157  0.2413
  742SOL    HW1 2225   0.950   1.044   2.781 -0.7462  1.9752 -2.7586
  742SOL    HW2 2226   1.064   0.924   2.778 -1.4433 -2.7451  0.9570
  743SOL     OW 2227   2.566   1.221   2.529  0.0524 -0.3505  0.5900
  743SOL    HW1 2228   2.584   1.222   2.427 -0.3744  0.1508  1.5555
  743SOL    HW2 2229   2.472   1.189   2.552 -0.0322 -1.0530  0.3826
  744SOL     OW 2230   2.392   2.550   1.906  0.3300 -0.2383  0.2247
  744SOL    HW1 2231   2.368   2.540   2.004  0.1487  2.2636  0.8384
  744SOL    HW2 2232   2.415   2.649   1.889 -0.1154 -1.6857 -1.1391
  745SOL     OW 2233   2.779   1.746   1.536  0.2740  0.2958  0.7088
  745SOL    HW1 2234   2.767   1.833   1.486  1.6151 -0.2249  1.4762
  745SOL    HW2 2235   2.693   1.694   1.537  3.5779  1.9662  1.1061
  746SOL     OW 2236   2.900   1.600   0.990 -0.1253  0.6086 -0.8267
  746SOL    HW1 2237   2.968   1.589   1.062 -1.7935  0.4628  0.7951
  746SOL    HW2 2238   2.920   1.675   0.926  0.0633 -0.1152  1.2905
  747SOL     OW 2239   1.822   2.439   0.201  0.3506 -0.3688 -0.5393
  747SOL    HW1 2240   1.893   2.377   0.234 -2.7766  0.7109 -1.8984
  747SOL    HW2 2241   1.766   2.397   0.128  0.0395 -0.4786  1.1649
  748SOL     OW 2242   0.844   2.112   0.215 -0.5863 -0.1365  0.1086
  748SOL    HW1 2243   0.848   2.190   0.150  1.3463  1.1372  1.7933
  748SOL    HW2 2244   0.809   2.028   0.175 -0.9413  3.2852 -0.1282
  749SOL     OW 2245   2.713   0.405   2.283 -0.1063 -0.0863 -0.3014
  749SOL    HW1 2246   2.714   0.502   2.306  0.1621 -4.1523  0.3674
  749SOL    HW2 2247   2.620   0.374   2.263  0.0414  2.0628  2.6644
  750SOL     OW 2248   1.404   0.176   1.368 -0.6970 -0.1330 -0.4408
  750SOL    HW1 2249   1.391   0.194   1.468  1.5536  2.3653 -2.9362
  750SOL    HW2 2250   1.430   0.083   1.348  0.8917  1.2133 -0.6751
  751SOL     OW 2251   2.254   2.547   2.460 -0.3490 -0.1410 -0.4976
  751SOL    HW1 2252   2.151   2.534   2.449 -1.8359 -1.1435  2.5297
  751SOL    HW2 2253   2.266   2.594   2.550  0.1322 -1.8057 -1.1982
  752SOL     OW 2254   2.086   1.880   1.041 -0.2960  0.4891 -0.0679
  752SOL    HW1 2255   2.011   1.846   1.101  2.9055  2.7132  0.5958
  752SOL    HW2 2256   2.173   1.822   1.055  1.2207 -0.3609 -0.8821
  753SOL     OW 2257   1.521   0.664   2.391 -0.0090  0.3979 -0.3281
  753SOL    HW1 2258   1.588   0.713   2.450 -3.0684 -2.7450  1.1307
  753SOL    HW2 2259   1.554   0.571   2.368 -0.3887 -1.4527  0.7060
  754SOL     OW 2260   0.284   2.813   0.953 -0.1589 -0.0440 -0.4362
  754SOL    HW1 2261   0.221   2.875   0.904 -0.1182 -0.1785  4.1050
  754SOL    HW2 2262   0.250   2.718   0.959 -0.7983  0.4955 -0.2187
  755SOL     OW 2263   2.259   0.014   1.681  0.4237 -0.3837  0.2091
  755SOL    HW1 2264   2.325   3.098   1.639 -0.1228  1.5936 -2.8038
  755SOL    HW2 2265   2.184   0.044   1.618 -1.7972 -0.7386 -1.5464
  756SOL     OW 2266   1.673   1.196   2.497 -0.4919 -0.4612 -0.1044
  756SOL    HW1 2267   1.575   1.170   2.509  1.2149 -0.4416 -0.0800
  756SOL    HW2 2268   1.696   1.201   2.395 -2.8015 -0.5586 -5.1165
  757SOL     OW 2269   2.889   2.884   1.833 -0.1749 -0.5546 -0.1073
  757SOL    HW1 2270   2.817   2.941   1.879  0.4988 -1.5599 -0.5299
  757SOL    HW2 2271   2.869   2.884   1.732 -0.2054 -0.8412  1.5326
  758SOL     OW 2272   0.450   0.034   1.575  0.6039 -0.0285 -0.0835
  758SOL    HW1 2273   0.467   0.064   1.675  1.1059  2.6529  1.9148
  758SOL    HW2 2274   0.523   3.110   1.546  2.2369 -4.1337  0.5864
  759SOL     OW 2275   2.146   1.233   0.807 -0.7961 -0.2443  0.1403
  759SOL    HW1 2276   2.188   1.151   0.756  0.3371 -2.2609 -0.8476
  759SOL    HW2 2277   2.142   1.319   0.755 -0.7162 -4.6413 -0.0121
  760SOL     OW 2278   1.577   0.042   1.813  0.2538  0.2690  0.6272
  760SOL    HW1 2279   1.631   0.121   1.788  0.4728 -2.5339 -0.4502
  760SOL    HW2 2280   1.549   0.037   1.909 -1.2978  0.2284 -1.3242
  761SOL     OW 2281   1.977   0.496   0.428  0.3784 -0.6142  0.5589
  761SOL    HW1 2282   2.076   0.496   0.406  0.3255 -0.3379  0.3485
  761SOL    HW2 2283   1.909   0.485   0.347  0.0966 -0.2087 -1.2241
  762SOL     OW 2284   2.434   2.762   3.059 -0.2705  0.1320  0.2230
  762SOL    HW1 2285   2.507   2.690   3.041 -0.3298  0.3999  0.9034
  762SOL    HW2 2286   2.342   2.721   3.043  1.8106  0.1759  0.0789
  763SOL     OW 2287   0.869   0.795   0.988 -0.4828  0.2941 -0.0700
  763SOL    HW1 2288   0.905   0.703   1.012 -1.2194 -1.2186 -1.2241
  763SOL    HW2 2289   0.899   0.835   0.896  0.2685 -0.0169 -0.7223
  764SOL     OW 2290   2.330   2.463   2.946  0.2030 -0.0015 -0.4375
  764SOL    HW1 2291   2.262   2.492   3.016 -2.2782 -0.3257  0.1748
  764SOL    HW2 2292   2.318   2.526   2.867  1.3105 -0.9487  0.3385
  765SOL     OW 2293   0.206   0.853   2.054  0.5822 -0.7089 -0.4272
  765SOL    HW1 2294   0.247   0.804   2.137  1.0785  0.1412 -0.0525
  765SOL    HW2 2295   0.266   0.933   2.026  0.4747 -3.2396 -2.1050
  766SOL     OW 2296   2.610   1.500   2.811 -0.5847 -0.1736  0.4928
  766SOL    HW1 2297   2.528   1.504   2.877 -2.1546  1.6820  1.9377
  766SOL    HW2 2298   2.586   1.564   2.738 -2.2078  2.1869  1.4433
  767SOL     OW 2299   0.033   1.581   2.066 -0.1983  0.2711 -0.7858
  767SOL    HW1 2300   3.084   1.587   2.102  1.9899 -3.2442 -0.7468
  767SOL    HW2 2301   0.054   1.482   2.036  0.9848 -3.2253 -1.0556
  768SOL     OW 2302   1.001   1.041   0.170 -0.2630  0.4709  0.3151
  768SOL    HW1 2303   0.934   0.993   0.232 -2.1750  0.6503  0.0744
  768SOL    HW2 2304   1.088   0.990   0.162 -1.3201  1.4082  0.0831
  769SOL     OW 2305   1.847   2.691   2.681 -0.0139 -0.1556 -0.7596
  769SOL    HW1 2306   1.828   2.757   2.606 -0.6785  1.6949 -0.6490
  769SOL    HW2 2307   1.909   2.734   2.754 -0.9262  0.1684 -0.1704
  770SOL     OW 2308   0.627   0.360   2.339 -0.5068  0.8879  0.1938
  770SOL    HW1 2309   0.524   0.373   2.325  0.0056  0.4884 -0.3094
  770SOL    HW2 2310   0.672   0.391   2.251  3.0681 -0.4082  1.8452
  771SOL     OW 2311   0.807   2.244   1.080 -0.5891 -0.0031  0.2162
  771SOL    HW1 2312   0.821   2.337   1.114 -0.3890 -1.4664 -2.4887
  771SOL    HW2 2313   0.838   2.236   0.983  2.2713  0.5254 -1.0098
  772SOL     OW 2314   0.214   0.751   0.078 -0.5683  0.3427 -0.4680
  772SOL    HW1 2315   0.188   0.791   3.133  0.2891 -0.1769  2.3588
  772SOL    HW2 2316   0.247   0.657   0.057  0.0232 -2.8318 -0.8149
  773SOL     OW 2317   2.068   0.981   1.766  0.5828 -0.2745 -0.7893
  773SOL    HW1 2318   2.056   0.883   1.785  3.4278  0.8959 -1.2374
  773SOL    HW2 2319   2.034   1.001   1.673  1.1381  0.2331 -0.0411
  774SOL     OW 2320   1.015   1.246   0.517 -0.1336  0.1144  0.0510
  774SOL    HW1 2321   0.919   1.221   0.503  0.8725 -0.0396  0.2292
  774SOL    HW2 2322   1.024   1.307   0.600  0.7110 -2.7994  1.0785
  775SOL     OW 2323   1.751   3.102   0.074  0.2172  0.0858  0.1983
  775SOL    HW1 2324   1.695   3.024   0.041  3.7762  1.9204  0.0104
  775SOL    HW2 2325   1.784   0.015   3.140 -0.3533  1.8362 -2.1778
  776SOL     OW 2326   2.212   0.247   2.552  0.3188 -0.7349 -0.0552
  776SOL    HW1 2327   2.293   0.239   2.608 -4.2294  1.3029 -5.1604
  776SOL    HW2 2328   2.163   0.162   2.524 -1.5082  1.7181 -1.0194
  777SOL     OW 2329   0.988   1.769   0.272 -0.0700 -0.1433 -0.2807
  777SOL    HW1 2330   1.018   1.694   0.215  0.2490  0.6606 -1.1007
  777SOL    HW2 2331   0.926   1.828   0.219  0.7923  1.3801  0.6050
  778SOL     OW 2332   0.368   2.890   0.110  0.0829  0.4734  0.0789
  778SOL    HW1 2333   0.326   2.841   0.191  0.3702  2.8960  0.7047
  778SOL    HW2 2334   0.467   2.891   0.107 -0.1981  0.4699 -1.5965
  779SOL     OW 2335   0.360   1.249   3.000 -0.5219  0.1664 -0.3698
  779SOL    HW1 2336   0.294   1.244   3.078 -2.4482 -1.4872  2.0609
  779SOL    HW2 2337   0.374   1.156   2.954 -1.3644  0.4932 -1.6166
  780SOL     OW 2338   2.216   0.424   2.343 -0.3480  0.4405 -0.7390
  780SOL    HW1 2339   2.127   0.447   2.299 -1.5103 -0.5833  2.2750
  780SOL    HW2 2340   2.196   0.372   2.430 -0.6606  1.8438 -1.6140
  781SOL     OW 2341   1.691   0.715   1.701 -0.3326 -0.0621  0.3792
  781SOL    HW1 2342   1.748   0.747   1.779 -1.0899  2.5588 -3.9099
  781SOL    HW2 2343   1.698   0.615   1.691  1.1498  1.7887 -1.2955
  782SOL     OW 2344   1.797   1.895   2.160  0.2297 -0.8275  0.7995
  782SOL    HW1 2345   1.787   1.936   2.253  0.6223 -0.6596  1.2194
  782SOL    HW2 2346   1.814   1.794   2.157  2.3818  0.5863  1.5668
  783SOL     OW 2347   1.238   3.103   1.129  0.2091  0.6526 -0.1806
  783SOL    HW1 2348   1.266   3.020   1.184  3.0974 -3.3913 -1.1705
  783SOL    HW2 2349   1.199   3.072   1.040  1.3669  0.4179  0.1201
  784SOL     OW 2350   1.704   0.787   2.559  0.1762 -0.7406 -0.4544
  784SOL    HW1 2351   1.744   0.706   2.609 -0.8029 -0.8198  0.4990
  784SOL    HW2 2352   1.675   0.852   2.633  2.3074 -1.3096 -1.4952
  785SOL     OW 2353   1.931   0.196   3.121  0.0656 -0.6301 -0.0830
  785SOL    HW1 2354   1.967   0.212   0.068  0.9384  1.0959  0.1498
  785SOL    HW2 2355   1.963   0.267   3.061 -0.3771 -1.0792  2.6386
  786SOL     OW 2356   2.920   1.788   0.799  0.4904 -0.0990  0.6089
  786SOL    HW1 2357   2.983   1.769   0.720  1.0129  0.9390 -1.3321
  786SOL    HW2 2358   2.931   1.875   0.853  0.4589  0.9100  0.9232
  787SOL     OW 2359   1.637   2.143   0.278  0.0814 -0.0128  0.2883
  787SOL    HW1 2360   1.631   2.185   0.373  0.2818  0.6119  0.4104
  787SOL    HW2 2361   1.647   2.216   0.209 -0.5068  0.9155 -0.9964
  788SOL     OW 2362   2.157   1.600   1.366  0.1828 -0.0087  0.4001
  788SOL    HW1 2363   2.174   1.622   1.265  1.4472  1.3953 -3.0341
  788SOL    HW2 2364   2.216   1.666   1.416  2.9846  0.9536 -0.6984
  789SOL     OW 2365   0.003   1.278   2.803  0.1380  0.6819  0.4081
  789SOL    HW1 2366   0.071   1.323   2.745  0.1206 -1.7448  0.4926
  789SOL    HW2 2367   3.072   1.244   2.749  4.0507  1.6071  1.8726
  790SOL     OW 2368   0.489   0.370   2.855  0.0125 -0.0564  0.0427
  790SOL    HW1 2369   0.505   0.436   2.930 -0.4210  0.3311  1.1978
  790SOL    HW2 2370   0.467   0.420   2.768 -1.4594 -0.9559  0.6460
  791SOL     OW 2371   0.956   0.146   2.311 -0.2580 -0.1000  0.2318
  791SOL    HW1 2372   0.886   0.115   2.380 -0.3479  0.1333  1.5683
  791SOL    HW2 2373   0.922   0.149   2.211  2.1008  1.2264 -0.2814
  792SOL     OW 2374   1.754   0.644   2.180 -0.5257 -0.5084  0.2196
  792SOL    HW1 2375   1.782   0.713   2.252  2.0202  1.7975  1.9049
  792SOL    HW2 2376   1.662   0.670   2.136 -0.8334 -2.1898  2.9305
  793SOL     OW 2377   2.663   0.631   1.433  0.1466 -0.4070  0.1331
  793SOL    HW1 2378   2.734   0.584   1.379 -1.1233  1.1043  1.9731
  793SOL    HW2 2379   2.569   0.593   1.413 -0.3376  1.9367 -1.7448
  794SOL     OW 2380   0.287   0.645   1.802 -0.2478 -0.0539  0.5899
  794SOL    HW1 2381   0.346   0.678   1.722  2.0827  0.4197 -1.9074
  794SOL    HW2 2382   0.316   0.702   1.878 -1.5931 -0.0067 -2.4065
  795SOL     OW 2383   0.017   1.423   0.293 -0.1035 -0.6443 -0.0331
  795SOL    HW1 2384   3.085   1.483   0.311 -0.3241  0.8307 -2.0823
  795SOL    HW2 2385   0.106   1.472   0.313 -0.1681  0.1593  0.0664
  796SOL     OW 2386   0.386   2.754   2.881  0.0200 -0.8963  0.5879
  796SOL    HW1 2387   0.307   2.787   2.934  1.6821 -4.0047 -0.1575
  796SOL    HW2 2388   0.367   2.749   2.781 -1.1764  0.4118 -2.2213
  797SOL     OW 2389   2.164   2.709   3.104  0.0280 -0.0075  0.4161
  797SOL    HW1 2390   2.169   2.700   0.060  1.4364  1.8148 -0.6473
  797SOL    HW2 2391   2.082   2.656   3.075 -4.7726 -2.0901  2.4673
  798SOL     OW 2392   0.146   0.903   1.685 -0.2057  0.6861 -0.2302
  798SOL    HW1 2393   0.218   0.830   1.674  2.2404  1.5884 -0.2524
  798SOL    HW2 2394   0.147   0.967   1.608  0.6830 -1.4566  1.2333
  799SOL     OW 2395   2.798   0.658   2.398 -0.5349  0.5475 -0.0526
  799SOL    HW1 2396   2.768   0.683   2.302  1.1652  2.2853 -1.5261
  799SOL    HW2 2397   2.767   0.736   2.457  2.1290  2.2072 -0.3175
  800SOL     OW 2398   2.997   2.035   0.971 -0.5357  0.4437 -0.1958
  800SOL    HW1 2399   3.017   2.097   0.891  1.4991 -0.0203  0.6346
  800SOL    HW2 2400   2.961   2.079   1.055 -2.4945 -2.4084 -3.8394
  801SOL     OW 2401   1.649   1.126   0.945  0.0417 -0.3195  0.3132
  801SOL    HW1 2402   1.742   1.122   0.908 -1.7811  1.0831  0.9292
  801SOL    HW2 2403   1.628   1.224   0.969  2.5209  0.9172  1.1206
  802SOL     OW 2404   1.216   1.890   1.578 -0.0472  0.1058 -0.6160
  802SOL    HW1 2405   1.280   1.955   1.621  0.9371 -0.1091  1.7210
  802SOL    HW2 2406   1.170   1.918   1.489  0.1588  1.7172 -3.4562
  803SOL     OW 2407   0.066   1.880   0.413 -0.6802 -0.5353  0.2505
  803SOL    HW1 2408   0.155   1.846   0.377 -0.5582  1.4938  1.8234
  803SOL    HW2 2409   0.011   1.935   0.343 -1.0730  1.1417  0.0709
  804SOL     OW 2410   1.089   2.387   1.331  0.2870 -0.1504 -0.4305
  804SOL    HW1 2411   1.164   2.363   1.390 -0.9823 -0.7208  0.2441
  804SOL    HW2 2412   0.998   2.394   1.377  1.1694  1.4834  0.2175
  805SOL     OW 2413   1.550   1.216   0.216 -0.3230  0.0842  0.8000
  805SOL    HW1 2414   1.609   1.301   0.197  2.2717  2.9635 -0.8360
  805SOL    HW2 2415   1.467   1.216   0.152 -0.4810 -2.0398  0.8503
  806SOL     OW 2416   1.464   3.052   0.931  0.3871  0.5595 -0.0366
  806SOL    HW1 2417   1.409   2.978   0.888 -0.2115  0.0710  0.5204
  806SOL    HW2 2418   1.427   3.089   1.021  0.8444 -1.5311  0.9342
  807SOL     OW 2419   2.153   2.987   2.874  0.2157  0.2103 -0.9919
  807SOL    HW1 2420   2.148   3.088   2.848  1.0421 -3.1004  0.4063
  807SOL    HW2 2421   2.246   2.958   2.853 -3.2452  3.1387  1.0288
  808SOL     OW 2422   0.182   1.268   0.050  0.6541 -0.0345  0.5949
  808SOL    HW1 2423   0.117   1.325   0.098  0.9670 -3.3651 -1.8848
  808SOL    HW2 2424   0.229   1.212   0.117  0.0048  1.0814  0.6636
  809SOL     OW 2425   2.691   0.923   2.382 -0.0339  0.0460 -0.1887
  809SOL    HW1 2426   2.750   0.944   2.303  1.2433  1.5754  0.7336
  809SOL    HW2 2427   2.593   0.914   2.352  0.8734 -2.1136  0.1963
  810SOL     OW 2428   2.479   2.954   2.112  0.1244 -0.2533  0.4400
  810SOL    HW1 2429   2.395   3.011   2.109  2.4403 -0.3207  0.1348
  810SOL    HW2 2430   2.479   2.894   2.193 -1.9417  3.1237  0.5197
  811SOL     OW 2431   2.634   2.687   1.852  0.2565 -0.3097 -0.1431
  811SOL    HW1 2432   2.642   2.786   1.876  1.3735  0.0355  1.7155
  811SOL    HW2 2433   2.728   2.640   1.855  1.1472 -3.4825  0.1397
  812SOL     OW 2434   1.676   0.326   0.071  0.3653 -0.5553  0.0325
  812SOL    HW1 2435   1.578   0.318   0.045 -2.1767 -1.2794 -0.0245
  812SOL    HW2 2436   1.737   0.267   0.016  1.3033  2.7715  0.2383
  813SOL     OW 2437   2.078   0.140   2.039 -0.2046 -0.3011  0.0968
  813SOL    HW1 2438   2.058   0.068   1.973 -0.6555  2.4022  4.8845
  813SOL    HW2 2439   2.040   0.225   2.002 -0.5771  0.9046  1.3687
  814SOL     OW 2440   1.710   1.144   1.645 -0.7937  0.4000 -0.0527
  814SOL    HW1 2441   1.769   1.188   1.714 -0.7944 -0.4163 -1.4675
  814SOL    HW2 2442   1.680   1.212   1.578  1.4696 -0.5367  1.6145
  815SOL     OW 2443   0.490   0.804   0.483 -0.6713  0.0430 -0.4791
  815SOL    HW1 2444   0.522   0.816   0.390 -0.3565 -2.4862 -2.4481
  815SOL    HW2 2445   0.457   0.891   0.522  2.0230  1.7921 -1.4747
  816SOL     OW 2446   2.110   1.728   2.839 -0.2476  0.4938 -0.2848
  816SOL    HW1 2447   2.131   1.643   2.790  1.4380 -0.2447 -0.1645
  816SOL    HW2 2448   2.021   1.715   2.888  1.4936  0.4928  1.4069
  817SOL     OW 2449   0.071   2.916   0.587 -0.2423  0.5149 -0.1505
  817SOL    HW1 2450   0.155   2.870   0.558 -1.7299  0.3798  1.0443
  817SOL    HW2 2451   0.082   2.962   0.677  0.5954 -0.7236  0.4987
  818SOL     OW 2452   1.851   0.105   2.692  0.1795  0.1553  0.4313
  818SOL    HW1 2453   1.908   0.189   2.715  3.1078  0.8409 -2.3064
  818SOL    HW2 2454   1.817   0.047   2.773 -2.7931  0.0935 -0.2896
  819SOL     OW 2455   1.215   1.047   0.538 -0.5203  0.1781  0.2871
  819SOL    HW1 2456   1.197   0.946   0.540 -0.1671 -1.6989 -0.4193
  819SOL    HW2 2457   1.134   1.105   0.521 -0.4559  0.2090  2.3796
  820SOL     OW 2458   2.260   0.859   0.754  0.1796  0.4377  0.2210
  820SOL    HW1 2459   2.360   0.834   0.757 -0.3774 -1.2508 -3.7797
  820SOL    HW2 2460   2.244   0.908   0.664  0.2460  1.1997 -2.2215
  821SOL     OW 2461   2.349   0.066   0.446 -0.3771 -0.1376 -0.1146
  821SOL    HW1 2462   2.411   0.031   0.375  1.8410  0.9166  3.4111
  821SOL    HW2 2463   2.282   3.143   0.482  0.8971 -1.3165  1.4152
  822SOL     OW 2464   0.610   2.862   2.621  0.5654  0.5203 -0.3573
  822SOL    HW1 2465   0.673   2.801   2.674  0.9269 -0.1036 -0.9778
  822SOL    HW2 2466   0.571   2.806   2.546  0.3863  0.6863 -0.5345
  823SOL     OW 2467   0.019   2.373   1.877  0.5691  0.2324  0.1496
  823SOL    HW1 2468   3.080   2.375   1.939 -2.5860  0.2510  0.8386
  823SOL    HW2 2469   0.008   2.445   1.805  1.1107  1.4126 -0.1474
  824SOL     OW 2470   0.848   2.818   2.016  0.1707 -0.8074 -0.2124
  824SOL    HW1 2471   0.934   2.863   1.985  1.0991  0.2287 -0.5107
  824SOL    HW2 2472   0.832   2.729   1.964 -0.1728 -3.0436 -0.1139
  825SOL     OW 2473   1.414   1.763   0.478 -0.2837  0.2843  0.0963
  825SOL    HW1 2474   1.417   1.667   0.440  2.5893 -2.5253 -1.9164
  825SOL    HW2 2475   1.349   1.825   0.434 -0.1508  0.7461  1.5325
  826SOL     OW 2476   1.220   2.934   3.082  0.0681  0.2355 -0.0795
  826SOL    HW1 2477   1.193   2.978   2.991  1.7872 -0.6574 -0.6757
  826SOL    HW2 2478   1.316   2.901   3.074 -0.9390 -0.5185 -0.0005
  827SOL     OW 2479   0.315   1.512   1.582 -0.1456 -0.2683 -0.1589
  827SOL    HW1 2480   0.388   1.587   1.579 -0.5244  2.0248  3.5804
  827SOL    HW2 2481   0.305   1.474   1.488 -0.6724 -2.6151 -1.2457
  828SOL     OW 2482   2.360   1.325   1.479 -0.3565  0.4797 -0.0288
  828SOL    HW1 2483   2.270   1.333   1.522  2.8697 -2.0083 -0.5446
  828SOL    HW2 2484   2.400   1.235   1.509  2.4735 -1.0446  1.7143
  829SOL     OW 2485   3.042   2.213   0.449 -0.0687 -0.4306  0.4107
  829SOL    HW1 2486   3.000   2.149   0.514 -1.0149  0.8590 -2.4195
  829SOL    HW2 2487   3.074   2.161   0.370 -1.1502  0.6872  0.0446
  830SOL     OW 2488   1.102   0.569   0.559  0.4011  0.0055 -0.2107
  830SOL    HW1 2489   1.195   0.613   0.565  0.8173 -1.1038 -1.8269
  830SOL    HW2 2490   1.033   0.643   0.577  0.2111 -1.1733 -1.4188
  831SOL     OW 2491   2.960   2.089   0.019  0.4012 -0.1908  0.7993
  831SOL    HW1 2492   2.887   2.039   3.114  0.4953  1.1686  0.2903
  831SOL    HW2 2493   2.947   2.189   0.004  1.9555  0.8406  0.4013
  832SOL     OW 2494   0.930   2.683   0.166  0.4777 -0.2389 -0.2808
  832SOL    HW1 2495   0.895   2.713   0.255  1.0338  2.6833 -1.6984
  832SOL    HW2 2496   1.025   2.651   0.176  1.5474  0.0469  0.5522
  833SOL     OW 2497   1.181   0.293   2.266 -0.1429  0.5841 -0.3433
  833SOL    HW1 2498   1.099   0.233   2.300  2.2671 -1.8728  0.4510
  833SOL    HW2 2499   1.164   0.392   2.254  1.8585  2.1959 -0.3009
  834SOL     OW 2500   0.054   0.825   0.712 -0.3189  0.1288  0.2800
  834SOL    HW1 2501   3.126   0.844   0.649  2.6773 -1.9725  1.1355
  834SOL    HW2 2502   0.077   0.723   0.706 -3.5310 -0.6452 -3.2872
  835SOL     OW 2503   2.445   0.405   1.967 -0.3710  0.3313 -0.5373
  835SOL    HW1 2504   2.481   0.500   1.956  0.5981 -0.4635 -1.0722
  835SOL    HW2 2505   2.447   0.381   2.069  0.5617 -1.8350  4.2262
  836SOL     OW 2506   0.471   2.252   0.796 -0.0062  0.4181  0.1439
  836SOL    HW1 2507   0.407   2.276   0.723  1.5878  0.5358  0.6126
  836SOL    HW2 2508   0.564   2.233   0.749  1.5924 -0.2127  0.2795
  837SOL     OW 2509   2.445   1.959   2.261 -0.1490  0.0670  0.3072
  837SOL    HW1 2510   2.465   1.857   2.257  0.8634 -0.8966 -2.0333
  837SOL    HW2 2511   2.367   1.978   2.323 -0.6666  1.1636 -2.5603
  838SOL     OW 2512   0.452   1.260   1.823 -1.0037  0.3611  1.2636
  838SOL    HW1 2513   0.463   1.260   1.720 -1.1765 -1.6969 -0.9538
  838SOL    HW2 2514   0.482   1.348   1.864 -1.5417  0.7414 -1.2448
  839SOL     OW 2515   0.146   0.207   0.417  0.4689 -0.6611 -0.3753
  839SOL    HW1 2516   0.201   0.264   0.357 -0.4593 -0.4685  0.9276
  839SOL    HW2 2517   0.146   0.107   0.381 -0.8914  0.5277 -1.5311
  840SOL     OW 2518   0.191   0.669   2.563  0.3921 -0.2441 -0.1675
  840SOL    HW1 2519   0.115   0.734   2.532 -1.0154  1.7494  1.8727
  840SOL    HW2 2520   0.168   0.606   2.641  1.7524 -3.6528  5.3894
  841SOL     OW 2521   0.395   2.499   2.699  0.3288 -0.1553 -0.2019
  841SOL    HW1 2522   0.459   2.521   2.624 -1.1639  1.1371  0.8966
  841SOL    HW2 2523   0.443   2.498   2.791  1.6788 -0.4364 -0.7172
  842SOL     OW 2524   0.604   3.105   1.178  0.5034  0.0195 -0.0023
  842SOL    HW1 2525   0.686   3.108   1.116  2.0360  3.1245 -4.4090
  842SOL    HW2 2526   0.570   0.055   1.189 -1.4424  1.6347 -0.2123
  843SOL     OW 2527   0.445   1.739   2.772 -0.7163 -0.4957 -0.4948
  843SOL    HW1 2528   0.519   1.707   2.835 -1.0659 -0.0291  1.6628
  843SOL    HW2 2529   0.429   1.665   2.708  0.4952  3.3164  2.8365
  844SOL     OW 2530   1.074   2.086   2.381  0.1170 -0.2404 -0.3667
  844SOL    HW1 2531   1.123   2.174   2.357 -0.2430 -0.0569 -0.8264
  844SOL    HW2 2532   1.098   2.065   2.476 -0.3194  2.7710 -0.6700
  845SOL     OW 2533   2.590   2.790   2.704 -0.1158 -0.3022  0.3871
  845SOL    HW1 2534   2.622   2.805   2.607  0.2890  0.6530 -0.7573
  845SOL    HW2 2535   2.530   2.861   2.742  2.6738  1.6104 -0.3297
  846SOL     OW 2536   2.168   1.341   2.982 -0.3573  0.1796  0.4157
  846SOL    HW1 2537   2.085   1.386   2.945 -0.8545 -0.4896 -0.5511
  846SOL    HW2 2538   2.254   1.397   2.976  2.4812 -0.4334  0.5081
  847SOL     OW 2539   2.582   0.229   2.936  0.5653 -0.1632 -0.1931
  847SOL    HW1 2540   2.661   0.293   2.946  0.4745 -0.6002  3.2033
  847SOL    HW2 2541   2.496   0.274   2.963  2.1693  0.5247 -0.2760
  848SOL     OW 2542   3.130   0.873   0.254 -0.1115 -0.4120 -0.1145
  848SOL    HW1 2543   3.142   0.974   0.248 -0.3066 -1.2679  0.8447
  848SOL    HW2 2544   0.066   0.830   0.204 -0.1949  0.9419 -0.6080
  849SOL     OW 2545   1.414   0.338   2.410 -0.0576 -0.5198 -0.0487
  849SOL    HW1 2546   1.387   0.363   2.504  0.2697  0.9520  0.0016
  849SOL    HW2 2547   1.331   0.301   2.363  1.7508 -0.7065  0.1351
  850SOL     OW 2548   0.319   1.136   0.258  0.0388  0.4661 -0.4293
  850SOL    HW1 2549   0.369   1.053   0.257  0.4016  1.6500  1.5361
  850SOL    HW2 2550   0.269   1.132   0.346 -2.4856 -0.3646 -0.3516
  851SOL     OW 2551   0.530   1.498   0.600 -0.5724 -0.2205  0.2844
  851SOL    HW1 2552   0.627   1.525   0.581  0.5570 -0.7620 -4.4224
  851SOL    HW2 2553   0.502   1.437   0.524  0.9459 -1.0019  0.5863
  852SOL     OW 2554   1.220   1.205   1.501 -0.2156 -0.3994 -0.6141
  852SOL    HW1 2555   1.189   1.155   1.583 -2.4168  0.7841 -1.2930
  852SOL    HW2 2556   1.271   1.147   1.436 -0.2039  0.3899 -0.0330
  853SOL     OW 2557   2.428   1.469   0.427 -0.8500  0.7865 -0.3380
  853SOL    HW1 2558   2.466   1.375   0.427 -0.1674  0.3521 -0.2753
  853SOL    HW2 2559   2.411   1.503   0.520 -0.0284 -0.0843 -0.9803
  854SOL     OW 2560   1.466   1.013   2.112 -0.0833 -0.0990 -0.9145
  854SOL    HW1 2561   1.478   1.029   2.012 -0.4921  2.8173  2.6246
  854SOL    HW2 2562   1.413   1.090   2.155 -0.0665  0.7772  0.3149
  855SOL     OW 2563   0.629   2.478   2.570 -0.5236  0.2959 -0.4106
  855SOL    HW1 2564   0.642   2.386   2.526  1.7681 -3.0088  0.0920
  855SOL    HW2 2565   0.704   2.498   2.636  2.1976 -0.5894 -0.3366
  856SOL     OW 2566   1.099   0.908   2.017  0.1546 -0.2080  0.0159
  856SOL    HW1 2567   1.178   0.892   1.954  1.0129 -0.1456  0.1212
  856SOL    HW2 2568   1.085   1.003   2.049  0.2706 -1.1441  0.0832
  857SOL     OW 2569   1.196   1.039   2.447 -0.3648  0.0634 -0.8741
  857SOL    HW1 2570   1.150   1.110   2.509 -1.8761 -0.3418 -0.8653
  857SOL    HW2 2571   1.218   1.093   2.364  0.8703  0.0119  0.2795
  858SOL     OW 2572   2.895   0.948   1.616  0.0672 -0.0568 -0.2570
  858SOL    HW1 2573   2.966   0.992   1.550 -0.5295 -1.7870 -0.7984
  858SOL    HW2 2574   2.926   0.910   1.706 -2.8614  1.2276  3.3100
  859SOL     OW 2575   2.555   0.076   0.954 -0.3215 -0.0049 -0.4857
  859SOL    HW1 2576   2.518   0.047   0.860  0.9628  0.1080 -1.1246
  859SOL    HW2 2577   2.557   3.142   1.020  0.1033 -0.5919 -0.6626
  860SOL     OW 2578   1.719   0.376   1.017 -0.5511  0.8610 -0.2830
  860SOL    HW1 2579   1.710   0.289   0.961 -0.3849  2.2749 -2.3377
  860SOL    HW2 2580   1.692   0.363   1.113  2.5774 -0.2626  0.5760
  861SOL     OW 2581   1.820   0.723   1.201 -0.4183 -0.5595 -0.1840
  861SOL    HW1 2582   1.720   0.723   1.216 -2.5134  0.2076 -2.9408
  861SOL    HW2 2583   1.831   0.716   1.102  0.5208 -0.2484  0.1150
  862SOL     OW 2584   1.330   3.067   2.668  0.5139  0.5807 -0.4170
  862SOL    HW1 2585   1.317   2.982   2.610 -1.0187 -0.0102  0.1205
  862SOL    HW2 2586   1.403   3.054   2.742  1.4908  1.9589  0.6505
  863SOL     OW 2587   2.829   3.017   1.182 -0.3623 -0.1060 -0.3347
  863SOL    HW1 2588   2.893   3.093   1.200 -1.4832 -0.5580  0.7267
  863SOL    HW2 2589   2.879   2.934   1.144 -1.2077  1.1506 -1.7491
  864SOL     OW 2590   2.593   0.088   2.124  0.1141  0.3976 -0.0315
  864SOL    HW1 2591   2.568   0.170   2.179  2.2053 -1.4465 -2.6483
  864SOL    HW2 2592   2.563   0.004   2.170  0.8708 -1.3225 -1.5080
  865SOL     OW 2593   1.230   1.439   2.610  0.7461 -0.3937  0.6029
  865SOL    HW1 2594   1.155   1.370   2.622  1.1234 -1.5225  0.7024
  865SOL    HW2 2595   1.224   1.518   2.674 -0.6787  0.1895  1.2669
  866SOL     OW 2596   2.255   3.049   0.965  0.0114  0.1145 -0.1463
  866SOL    HW1 2597   2.292   3.039   0.866  1.5943 -0.0740  2.4024
  866SOL    HW2 2598   2.329   3.034   1.031 -0.4857  1.3072  5.6032
  867SOL     OW 2599   2.936   2.798   1.033  0.7165  0.3850  0.1543
  867SOL    HW1 2600   2.987   2.878   0.998 -1.5755  1.7335 -1.6864
  867SOL    HW2 2601   2.966   2.710   0.989 -1.0024 -0.0900  1.0378
  868SOL     OW 2602   0.070   1.599   1.602 -0.1524 -0.2096  0.0611
  868SOL    HW1 2603   0.170   1.580   1.604 -0.8376 -0.1897 -0.2885
  868SOL    HW2 2604   0.049   1.691   1.638 -1.7290  1.5114  0.2816
  869SOL     OW 2605   1.896   2.073   2.352 -0.4346  0.2176  0.5322
  869SOL    HW1 2606   1.934   2.150   2.409 -3.4130 -1.1912  0.4652
  869SOL    HW2 2607   1.928   1.986   2.395  1.0865  0.2126  2.9521
  870SOL     OW 2608   1.066   0.980   0.824 -0.1048  0.0782 -0.7351
  870SOL    HW1 2609   1.164   0.954   0.827 -0.1838  0.6040  2.0338
  870SOL    HW2 2610   1.038   1.061   0.879  0.7007  2.9596 -2.3639
  871SOL     OW 2611   2.931   1.562   2.216 -1.1290 -0.1269  0.4336
  871SOL    HW1 2612   2.845   1.605   2.247  1.9409 -1.2968 -0.8391
  871SOL    HW2 2613   2.969   1.506   2.298  2.7499  2.4937  0.6528
  872SOL     OW 2614   1.099   1.732   2.977  0.2876 -0.1559  0.3661
  872SOL    HW1 2615   1.114   1.695   3.074  0.2308 -2.4507  1.3855
  872SOL    HW2 2616   1.008   1.776   2.971  0.4535  0.1890  0.3528
  873SOL     OW 2617   1.097   1.353   1.865  0.1438  0.2844 -0.4229
  873SOL    HW1 2618   1.012   1.322   1.819  0.2870 -0.6368 -1.2015
  873SOL    HW2 2619   1.147   1.403   1.791 -2.6020 -0.1140 -1.2199
  874SOL     OW 2620   1.398   1.032   1.365  0.1891 -0.0284  0.1235
  874SOL    HW1 2621   1.447   0.990   1.443 -1.8677  1.1020  0.8115
  874SOL    HW2 2622   1.462   1.071   1.291  1.1490 -1.1030  2.3099
  875SOL     OW 2623   2.908   0.282   2.971  0.0186 -0.0861 -0.5730
  875SOL    HW1 2624   2.862   0.274   3.062 -1.8671 -0.2593  1.0293
  875SOL    HW2 2625   2.866   0.352   2.907  1.1672  2.3282 -2.4986
  876SOL     OW 2626   0.965   1.319   0.235  0.2521 -0.6335  0.4355
  876SOL    HW1 2627   0.978   1.324   0.338  0.9042 -1.0563  1.0426
  876SOL    HW2 2628   0.966   1.223   0.204 -0.7457 -1.7770  0.8898
  877SOL     OW 2629   2.156   2.895   0.251 -0.0375 -0.2885  0.6444
  877SOL    HW1 2630   2.111   2.809   0.216 -1.1263  1.1018 -0.8856
  877SOL    HW2 2631   2.236   2.919   0.193 -1.5648 -0.4560  1.2395
  878SOL     OW 2632   1.883   2.031   0.288 -0.1955  0.0054  0.3698
  878SOL    HW1 2633   1.939   2.112   0.305 -0.8803 -1.2060  0.0798
  878SOL    HW2 2634   1.783   2.059   0.304 -0.5696 -2.1106 -0.8816
  879SOL     OW 2635   0.032   1.871   2.143  0.0414  0.0851  0.2920
  879SOL    HW1 2636   0.038   1.774   2.109 -0.4900 -0.9430  1.4694
  879SOL    HW2 2637   3.091   1.917   2.110  0.3213 -0.6803 -1.2213
  880SOL     OW 2638   0.068   1.894   0.906  0.0700 -0.0825 -0.2658
  880SOL    HW1 2639   0.067   1.806   0.958  1.5354  1.9835 -1.7926
  880SOL    HW2 2640   3.129   1.953   0.909  0.1709 -1.1229 -1.6763
  881SOL     OW 2641   1.222   0.207   2.014  0.6926  0.2906 -0.9323
  881SOL    HW1 2642   1.228   0.226   2.115 -1.6348 -0.1838  0.0035
  881SOL    HW2 2643   1.234   0.293   1.959 -0.5084  0.8748  2.0414
  882SOL     OW 2644   2.519   0.851   0.847  0.1748 -0.0739 -0.3351
  882SOL    HW1 2645   2.618   0.837   0.830  0.4693  0.5474  1.3881
  882SOL    HW2 2646   2.496   0.835   0.940  1.4567  1.7597  0.0884
  883SOL     OW 2647   1.686   0.297   1.768 -0.6052 -0.3370  0.0543
  883SOL    HW1 2648   1.684   0.343   1.861 -0.2337  1.5797 -0.9473
  883SOL    HW2 2649   1.711   0.363   1.692  0.5160  0.5804 -0.3437
  884SOL     OW 2650   2.944   0.262   1.909  0.1652 -0.6895 -0.2604
  884SOL    HW1 2651   2.858   0.213   1.894 -0.2966 -0.7321  0.4885
  884SOL    HW2 2652   2.986   0.238   1.996  1.5319 -0.8204  0.4596
  885SOL     OW 2653   1.895   1.418   2.840 -0.8934 -0.3121  0.3401
  885SOL    HW1 2654   1.881   1.496   2.907  0.4060  2.0524 -1.5380
  885SOL    HW2 2655   1.824   1.427   2.765  1.4887 -2.4532 -2.5763
  886SOL     OW 2656   2.188   0.423   0.043  0.7640  0.3467  0.7959
  886SOL    HW1 2657   2.190   0.344   0.106 -0.2157  0.5776 -0.0852
  886SOL    HW2 2658   2.122   0.405   3.111  0.8748 -0.8607  0.2772
  887SOL     OW 2659   1.126   2.802   1.622  0.6811  0.2111  0.0840
  887SOL    HW1 2660   1.176   2.816   1.711  0.9471  0.2501  1.2644
  887SOL    HW2 2661   1.204   2.812   1.554 -1.1165 -0.9337 -0.3969
  888SOL     OW 2662   2.118   1.793   2.136  0.0302  0.2861 -0.4938
  888SOL    HW1 2663   2.025   1.758   2.129  1.0756  1.6238  2.3047
  888SOL    HW2 2664   2.165   1.797   2.044 -0.9112 -0.2863 -0.0232
  889SOL     OW 2665   1.934   2.489   1.338  0.7495  0.7976 -0.0016
  889SOL    HW1 2666   2.026   2.521   1.369 -0.1782 -0.4324  0.8837
  889SOL    HW2 2667   1.949   2.390   1.304  1.8063 -3.6405 -3.1204
  890SOL     OW 2668   1.362   1.772   1.063 -0.3179 -0.1061 -0.4450
  890SOL    HW1 2669   1.417   1.809   1.144  0.6120 -0.1096  2.6691
  890SOL    HW2 2670   1.263   1.796   1.070 -0.1372 -0.6467  0.8872
  891SOL     OW 2671   3.006   1.177   0.074 -0.4328 -0.2483  0.1897
  891SOL    HW1 2672   2.917   1.129   0.063  0.2345 -0.2823  1.0701
  891SOL    HW2 2673   3.029   1.192   0.173 -0.9628  2.3762  0.1315
  892SOL     OW 2674   2.457   1.413   0.137  0.2793  0.1177 -0.0885
  892SOL    HW1 2675   2.556   1.399   0.116  1.3981  1.3162  1.9471
  892SOL    HW2 2676   2.437   1.449   0.231  0.5085 -2.2655  1.7652
  893SOL     OW 2677   2.154   2.474   1.542 -0.3865  0.3371 -0.1814
  893SOL    HW1 2678   2.109   2.565   1.539 -1.1113  0.8181 -1.7996
  893SOL    HW2 2679   2.215   2.463   1.627 -0.0180  1.1174  1.4458
  894SOL     OW 2680   2.704   0.102   0.586  0.2463 -0.0300 -0.3541
  894SOL    HW1 2681   2.729   0.191   0.543  0.4986  0.4074 -2.4970
  894SOL    HW2 2682   2.603   0.092   0.589 -0.3635  0.7679  2.7515
  895SOL     OW 2683   2.935   2.782   2.765  0.7065  0.0950  0.0145
  895SOL    HW1 2684   2.918   2.873   2.718 -0.2329  0.0088 -1.2300
  895SOL    HW2 2685   2.901   2.705   2.705 -1.9047 -1.5645 -1.5676
  896SOL     OW 2686   2.218   0.109   2.820 -0.2193  0.2857 -0.1041
  896SOL    HW1 2687   2.166   0.195   2.817 -1.3261  3.5810 -3.0282
  896SOL    HW2 2688   2.284   0.117   2.895  2.0460  0.9421 -2.2033
  897SOL     OW 2689   0.267   1.646   1.944 -0.1175 -0.9175  0.3590
  897SOL    HW1 2690   0.183   1.614   1.998 -1.8969 -3.0735  2.6474
  897SOL    HW2 2691   0.315   1.572   1.893  3.5209 -0.6836  1.8805
  898SOL     OW 2692   2.957   1.884   1.731  0.0771 -0.2512  0.1091
  898SOL    HW1 2693   2.960   1.885   1.832 -1.2022  1.7658  2.1620
  898SOL    HW2 2694   2.893   1.812   1.697 -0.1277 -1.2366  0.3721
  899SOL     OW 2695   1.692   2.966   1.252 -0.3796  0.3744 -0.0551
  899SOL    HW1 2696   1.729   2.871   1.250 -2.7073 -1.1844  0.6446
  899SOL    HW2 2697   1.755   3.029   1.199 -0.4033  1.0025 -0.6302
  900SOL     OW 2698   1.246   0.920   0.123  0.2930 -0.2843 -0.5071
  900SOL    HW1 2699   1.251   0.837   0.060 -1.5368 -0.9364 -1.1758
  900SOL    HW2 2700   1.315   0.912   0.202  2.8942 -0.3643  1.4911
  901SOL     OW 2701   1.457   1.055   2.596  0.0340 -0.1350  0.2517
  901SOL    HW1 2702   1.521   0.987   2.643 -1.0717 -0.1118 -0.6870
  901SOL    HW2 2703   1.380   1.012   2.549  0.9727  0.2232  0.1249
  902SOL     OW 2704   2.582   2.325   0.774  0.1588 -0.2005  0.2721
  902SOL    HW1 2705   2.503   2.372   0.816  1.4899 -0.4808 -0.8172
  902SOL    HW2 2706   2.623   2.260   0.837  0.5976  0.2970  0.1261
  903SOL     OW 2707   2.869   1.286   1.982 -0.0735 -0.3945  0.5719
  903SOL    HW1 2708   2.798   1.238   2.036  2.3423 -0.1643 -1.0607
  903SOL    HW2 2709   2.865   1.267   1.883  0.5550 -0.8829 -2.6500
  904SOL     OW 2710   1.801   1.116   0.580 -0.6771  0.1590 -0.7946
  904SOL    HW1 2711   1.702   1.113   0.556  1.6002  1.4209  0.3393
  904SOL    HW2 2712   1.843   1.200   0.542  1.4158  2.1615 -0.4250
  905SOL     OW 2713   2.142   2.738   1.525  0.0191  0.2150 -0.1070
  905SOL    HW1 2714   2.200   2.750   1.443  0.1400  0.3460 -1.7881
  905SOL    HW2 2715   2.196   2.740   1.613  2.0470 -1.8491  1.0300
  906SOL     OW 2716   1.634   2.174   2.951 -0.4997  0.4225  0.2648
  906SOL    HW1 2717   1.586   2.234   2.888  1.3855  0.1040 -0.0209
  906SOL    HW2 2718   1.703   2.120   2.901 -0.4943  1.0413 -0.1783
  907SOL     OW 2719   0.782   2.681   0.848  0.4895 -0.0850 -0.7477
  907SOL    HW1 2720   0.829   2.625   0.780  0.9159  0.2199 -0.7051
  907SOL    HW2 2721   0.682   2.699   0.825 -1.1952  0.1180 -1.1772
  908SOL     OW 2722   0.798   0.102   2.025 -0.3570  0.3641  0.1042
  908SOL    HW1 2723   0.775   0.022   2.083 -1.1479 -1.0173 -3.1895
  908SOL    HW2 2724   0.738   0.094   1.942 -0.8090 -2.3338  0.0099
  909SOL     OW 2725   1.971   0.355   1.923  0.1939 -0.0244 -0.0811
  909SOL    HW1 2726   2.018   0.355   1.834  0.9140  0.7469 -0.3557
  909SOL    HW2 2727   1.869   0.356   1.914 -1.2285 -1.0163  1.5514
  910SOL     OW 2728   1.211   0.710   3.095 -0.2309  0.1059  0.0873
  910SOL    HW1 2729   1.114   0.681   3.104 -2.6736  0.3831 -0.7245
  910SOL    HW2 2730   1.273   0.630   3.118  3.0453  1.7423 -2.1573
  911SOL     OW 2731   0.079   0.675   2.997  0.1861  0.4232  0.8197
  911SOL    HW1 2732   3.128   0.703   3.019  1.3802 -1.4245 -0.8947
  911SOL    HW2 2733   0.096   0.580   3.030 -0.9856  0.0255 -1.0732
  912SOL     OW 2734   2.944   2.393   0.192 -0.3648  0.3415 -0.1898
  912SOL    HW1 2735   2.856   2.438   0.230  0.0601  0.4308 -2.5918
  912SOL    HW2 2736   2.923   2.366   0.097 -1.3239  0.6637 -1.7950
  913SOL     OW 2737   2.635   2.301   2.929  0.0858  0.3851 -0.5061
  913SOL    HW1 2738   2.649   2.215   2.871  2.7579  1.2091 -1.6485
  913SOL    HW2 2739   2.610   2.380   2.868  0.5116 -0.0710  1.5066
  914SOL     OW 2740   1.713   1.732   1.720  0.1234 -0.0794 -0.5110
  914SOL    HW1 2741   1.647   1.791   1.769  3.0220 -1.9660  1.1325
  914SOL    HW2 2742   1.804   1.773   1.733 -0.6925 -2.6219  0.2320
  915SOL     OW 2743   0.226   2.599   2.180  0.1827  0.3276  0.5476
  915SOL    HW1 2744   0.273   2.685   2.149 -0.8102  0.7576  0.3510
  915SOL    HW2 2745   0.203   2.598   2.280 -1.4097  0.9704 -0.3164
  916SOL     OW 2746   0.135   1.118   1.870 -0.0084 -0.2489  0.1594
  916SOL    HW1 2747   0.127   1.024   1.836  1.5037 -0.3608  0.7049
  916SOL    HW2 2748   0.132   1.193   1.794 -1.5894  0.8472 -2.2207
  917SOL     OW 2749   2.276   0.009   3.145 -0.3650 -0.1574 -1.0433
  917SOL    HW1 2750   2.201   3.129   3.073 -3.3934 -1.9357 -1.8533
  917SOL    HW2 2751   2.255   0.088   0.058 -1.5051  0.4711  1.5372
  918SOL     OW 2752   1.672   2.600   2.226 -0.5403 -0.6195 -0.4835
  918SOL    HW1 2753   1.765   2.565   2.208 -3.6310  1.1265 -0.1135
  918SOL    HW2 2754   1.640   2.641   2.143 -1.3887 -1.6379  0.2397
  919SOL     OW 2755   1.816   2.294   1.778  0.3226 -0.1968  0.1191
  919SOL    HW1 2756   1.911   2.295   1.745 -1.1464 -0.7413  2.2304
  919SOL    HW2 2757   1.805   2.209   1.835 -1.4475 -0.9262  0.7432
  920SOL     OW 2758   0.582   1.051   0.030  0.5481 -0.2461 -0.5158
  920SOL    HW1 2759   0.680   1.080   0.015 -1.3272 -1.6955 -1.8094
  920SOL    HW2 2760   0.537   1.031   3.087  0.0034 -0.0354 -2.2566
  921SOL     OW 2761   2.941   1.173   2.652 -0.5178  0.0095 -0.1212
  921SOL    HW1 2762   2.866   1.227   2.680  3.2707  2.8020  0.0475
  921SOL    HW2 2763   2.942   1.167   2.551 -0.5528 -0.1332  2.1902
  922SOL     OW 2764   0.272   2.015   0.196  0.4695  0.2197 -0.8009
  922SOL    HW1 2765   0.275   1.923   0.154 -0.9331  2.9132  0.9911
  922SOL    HW2 2766   0.359   2.032   0.250  0.9754 -2.2681 -0.7751
  923SOL     OW 2767   0.591   1.057   2.163  0.0507  0.2285  0.2330
  923SOL    HW1 2768   0.494   1.076   2.136 -2.1898  1.2850  0.6938
  923SOL    HW2 2769   0.596   0.957   2.175 -1.3248 -1.9506  0.2620
  924SOL     OW 2770   1.143   3.057   2.878 -0.0504  0.4481  0.6783
  924SOL    HW1 2771   1.210   3.098   2.812 -2.5339  1.2378  0.8963
  924SOL    HW2 2772   1.071   3.123   2.904  2.5869 -1.8120 -0.7537
  925SOL     OW 2773   2.370   1.310   1.169 -0.6564  0.3604 -0.0057
  925SOL    HW1 2774   2.321   1.230   1.131  1.0270  2.1150  0.2235
  925SOL    HW2 2775   2.339   1.334   1.265 -0.8508  0.2539  1.1919
  926SOL     OW 2776   1.995   0.490   2.171 -0.3368 -0.0139 -0.4116
  926SOL    HW1 2777   1.972   0.450   2.081  0.3430 -1.1582 -2.3529
  926SOL    HW2 2778   1.923   0.547   2.216 -1.6822  0.2868 -0.1834
  927SOL     OW 2779   2.872   2.558   1.851  0.3268  0.1895 -0.0378
  927SOL    HW1 2780   2.960   2.609   1.835  3.8795 -1.9246 -0.3765
  927SOL    HW2 2781   2.881   2.490   1.923  1.1334  0.8242 -1.1062
  928SOL     OW 2782   0.606   0.988   2.659  0.3991 -1.0019  0.3794
  928SOL    HW1 2783   0.606   0.891   2.652  0.2826  2.4127  0.2865
  928SOL    HW2 2784   0.513   1.024   2.670 -2.3834 -1.3281  2.3204
  929SOL     OW 2785   2.840   0.061   0.825  0.0766 -0.1951  0.1492
  929SOL    HW1 2786   2.756   0.066   0.885 -0.0559 -2.3130  1.1853
  929SOL    HW2 2787   2.813   0.057   0.728  0.3747  2.1095  0.9263
  930SOL     OW 2788   2.448   0.216   1.495  0.6029 -0.0788  0.2093
  930SOL    HW1 2789   2.444   0.228   1.598 -0.4726  0.5789 -0.7104
  930SOL    HW2 2790   2.543   0.191   1.464  1.1422 -2.9648  1.0018
  931SOL     OW 2791   2.292   1.177   0.200  0.4889 -0.1529 -0.1270
  931SOL    HW1 2792   2.325   1.261   0.156 -1.9677  0.4492  3.2848
  931SOL    HW2 2793   2.375   1.132   0.236 -1.4571  1.6099  0.6362
  932SOL     OW 2794   2.476   1.550   1.596  0.2117  0.2683 -0.0827
  932SOL    HW1 2795   2.440   1.459   1.569 -2.2435  1.2893  0.2481
  932SOL    HW2 2796   2.434   1.618   1.536  0.1530 -0.2955  0.9692
  933SOL     OW 2797   3.047   2.595   1.469 -0.3494  0.0238  0.1350
  933SOL    HW1 2798   2.994   2.511   1.485 -1.0420  0.9215 -0.9452
  933SOL    HW2 2799   3.118   2.574   1.398 -1.7001  2.5066  5.0371
  934SOL     OW 2800   0.906   2.165   1.340 -0.2894 -0.0049 -0.4967
  934SOL    HW1 2801   0.882   2.184   1.244 -0.4046 -0.2831  2.4361
  934SOL    HW2 2802   0.888   2.246   1.401  2.7371  1.3443 -0.4683
  935SOL     OW 2803   2.507   1.693   2.264  0.1005  0.2355 -0.0002
  935SOL    HW1 2804   2.519   1.624   2.188 -3.4021 -1.6089 -0.8993
  935SOL    HW2 2805   2.587   1.695   2.326  0.6149  0.9931  1.7804
  936SOL     OW 2806   2.336   1.569   1.838  0.1450 -0.1792  0.2272
  936SOL    HW1 2807   2.390   1.555   1.753 -1.4823 -2.4837 -2.6149
  936SOL    HW2 2808   2.396   1.580   1.922 -2.9978  1.1976  3.9031
  937SOL     OW 2809   1.913   1.029   2.021  0.2626  0.5870  0.1669
  937SOL    HW1 2810   1.970   1.046   1.936  1.4649  1.1958 -1.8751
  937SOL    HW2 2811   1.969   0.989   2.092 -3.4638  1.7817 -0.1400
  938SOL     OW 2812   0.855   2.349   2.961  0.0284 -0.3413 -0.0517
  938SOL    HW1 2813   0.813   2.404   3.033  1.6601 -0.2244 -3.1592
  938SOL    HW2 2814   0.958   2.353   2.973  3.2260 -0.3126  0.7642
  939SOL     OW 2815   2.585   0.726   2.672  0.1508 -0.4147 -0.0544
  939SOL    HW1 2816   2.628   0.815   2.649 -0.1927  1.6012 -1.1905
  939SOL    HW2 2817   2.655   0.650   2.659  3.1331  2.0857  0.1607
  940SOL     OW 2818   1.090   1.879   1.100  0.3778  0.1834  0.5333
  940SOL    HW1 2819   1.115   1.930   1.187 -2.2994  1.3504  2.8555
  940SOL    HW2 2820   0.989   1.887   1.074 -0.7391  1.2686  0.2693
  941SOL     OW 2821   0.948   2.367   2.058  0.2508  0.4301 -0.2015
  941SOL    HW1 2822   0.949   2.370   2.161 -2.2410  0.5408  0.3255
  941SOL    HW2 2823   0.873   2.302   2.029 -0.2327 -1.9509  1.5587
  942SOL     OW 2824   0.412   2.241   2.951 -0.1191  0.1990  0.1031
  942SOL    HW1 2825   0.338   2.243   3.019  0.5193 -3.4847 -0.0683
  942SOL    HW2 2826   0.459   2.332   2.938  1.1957 -0.6430 -2.1581
  943SOL     OW 2827   1.796   2.739   1.762 -0.1389 -0.1283  0.8997
  943SOL    HW1 2828   1.785   2.648   1.805  0.8881  1.2013 -2.8329
  943SOL    HW2 2829   1.814   2.731   1.659  2.0814  0.2931 -3.0862
  944SOL     OW 2830   1.178   1.657   0.083  0.2526 -0.4772 -0.5173
  944SOL    HW1 2831   1.257   1.708   0.117  0.1546 -0.2931 -3.4571
  944SOL    HW2 2832   1.186   1.557   0.102  1.0980 -1.0205  1.7681
  945SOL     OW 2833   2.709   2.771   0.745  0.0447 -0.2392 -0.2000
  945SOL    HW1 2834   2.765   2.696   0.728 -0.8523  3.0743  3.9422
  945SOL    HW2 2835   2.728   2.853   0.684  1.7687  2.3676 -0.7685
  946SOL     OW 2836   1.256   1.681   2.765  0.2224  0.0472 -0.2119
  946SOL    HW1 2837   1.332   1.751   2.753 -1.0751  1.9251  0.6836
  946SOL    HW2 2838   1.207   1.695   2.855 -1.3032 -1.9287 -0.3677
  947SOL     OW 2839   2.574   0.636   1.938  0.5416  0.1687  0.2754
  947SOL    HW1 2840   2.511   0.717   1.913 -2.2940  0.6090 -4.8143
  947SOL    HW2 2841   2.638   0.628   1.860 -2.2256  0.2952 -2.0605
  948SOL     OW 2842   0.128   1.517   0.806  0.0392 -0.4852 -0.5243
  948SOL    HW1 2843   0.230   1.504   0.804 -2.0858  1.5256 -1.2347
  948SOL    HW2 2844   0.094   1.560   0.896  0.5122  0.4238  1.9274
  949SOL     OW 2845   0.830   0.708   2.302  0.3556 -0.8012  0.1384
  949SOL    HW1 2846   0.917   0.739   2.263 -2.3019  0.5295 -0.8640
  949SOL    HW2 2847   0.834   0.697   2.405  3.4255  0.9058 -0.6892
  950SOL     OW 2848   0.230   0.696   1.276  0.3861  0.4226  0.8666
  950SOL    HW1 2849   0.247   0.788   1.317  1.6935 -1.9408 -0.1840
  950SOL    HW2 2850   0.128   0.680   1.266 -2.0945 -1.9015  1.8398
  951SOL     OW 2851   0.992   1.473   2.401 -0.2259 -0.1566  0.5048
  951SOL    HW1 2852   1.083   1.429   2.383 -0.2381 -1.6420  1.1308
  951SOL    HW2 2853   0.979   1.566   2.366  2.9316 -0.6445  2.3433
  952SOL     OW 2854   1.786   2.177   0.832 -0.3323 -0.6704  0.5684
  952SOL    HW1 2855   1.870   2.122   0.850  1.0486  3.2047  3.6766
  952SOL    HW2 2856   1.723   2.180   0.915  0.3611  2.0063  0.0664
  953SOL     OW 2857   0.717   0.737   0.110 -0.5232  0.1829 -0.6531
  953SOL    HW1 2858   0.747   0.796   0.191  1.7062  0.3825 -1.5342
  953SOL    HW2 2859   0.620   0.703   0.116 -0.3870  0.8481  1.1604
  954SOL     OW 2860   2.150   0.843   1.081 -0.3245  0.3844  0.3021
  954SOL    HW1 2861   2.141   0.755   1.025  1.0756 -1.9019 -1.7566
  954SOL    HW2 2862   2.065   0.892   1.089  2.9983 -0.6305  3.3307
  955SOL     OW 2863   2.135   1.320   0.386 -0.1163  0.3907 -0.3837
  955SOL    HW1 2864   2.174   1.256   0.313  1.0871  0.6645  2.4680
  955SOL    HW2 2865   2.033   1.312   0.391  1.0150  1.2286  0.1997
  956SOL     OW 2866   1.054   0.595   1.897  0.2298  0.0991 -0.5902
  956SOL    HW1 2867   1.016   0.516   1.953  1.1811  1.3889  1.1406
  956SOL    HW2 2868   1.056   0.680   1.957  1.5593 -0.4236 -0.0304
  957SOL     OW 2869   1.805   0.186   1.318  0.0641  0.2354  0.1220
  957SOL    HW1 2870   1.725   0.255   1.320 -3.3734  1.0712  1.1927
  957SOL    HW2 2871   1.820   0.138   1.404  1.5810 -0.8748 -1.5183
  958SOL     OW 2872   0.139   2.051   0.609  0.1318 -0.7073  0.1344
  958SOL    HW1 2873   0.119   1.990   0.530  1.1492 -1.0392 -1.0293
  958SOL    HW2 2874   0.188   1.998   0.683  1.0057 -1.2960 -0.7119
  959SOL     OW 2875   2.207   1.195   1.905  0.3088 -0.3444  0.8327
  959SOL    HW1 2876   2.178   1.122   1.846 -0.1907  3.4902 -0.3447
  959SOL    HW2 2877   2.170   1.285   1.863  1.8966  0.3370 -1.6847
  960SOL     OW 2878   0.037   1.961   3.036  0.0917 -0.0944 -0.0603
  960SOL    HW1 2879   0.104   2.037   3.032  0.0330 -0.5862 -0.2199
  960SOL    HW2 2880   3.097   1.990   3.086 -0.8127  1.6623 -0.9861
  961SOL     OW 2881   0.528   1.690   1.511  0.5418  0.2647 -0.4781
  961SOL    HW1 2882   0.602   1.712   1.443 -0.5726 -1.7519 -1.2159
  961SOL    HW2 2883   0.560   1.709   1.609  0.0351  0.3263  2.4923
  962SOL     OW 2884   0.791   1.271   0.895  0.5690 -0.4757 -0.2303
  962SOL    HW1 2885   0.842   1.237   0.975 -3.0823 -0.3316 -1.7212
  962SOL    HW2 2886   0.854   1.321   0.834 -0.2772 -1.3258  0.2104
  963SOL     OW 2887   1.154   1.983   2.630  0.2876  0.5847 -0.3635
  963SOL    HW1 2888   1.247   1.975   2.585  1.2869  1.0924  1.1044
  963SOL    HW2 2889   1.152   2.025   2.720 -4.3346 -1.5147 -2.4156
  964SOL     OW 2890   0.116   3.054   2.069  0.2021  0.0548  0.2046
  964SOL    HW1 2891   0.074   2.983   2.002 -0.9255 -0.9487  1.5692
  964SOL    HW2 2892   0.197   3.019   2.122 -1.7496  0.9508  0.0681
  965SOL     OW 2893   0.520   2.136   2.693  0.2301 -0.3613 -0.3521
  965SOL    HW1 2894   0.458   2.056   2.690 -2.4071 -2.3595 -1.6035
  965SOL    HW2 2895   0.486   2.216   2.753  1.0818  2.0782 -0.4444
  966SOL     OW 2896   0.132   1.696   3.004 -0.5111 -0.4532  0.6203
  966SOL    HW1 2897   0.073   1.642   2.945  1.3286  1.0979  2.0723
  966SOL    HW2 2898   0.113   1.794   2.994 -2.0196  0.2526 -1.2239
  967SOL     OW 2899   2.008   3.106   0.202 -0.1047  0.0387 -0.3507
  967SOL    HW1 2900   2.070   3.025   0.226  0.7155  1.0381  0.9425
  967SOL    HW2 2901   1.926   3.068   0.156  3.7287  0.6702  1.1235
  968SOL     OW 2902   2.443   0.038   0.703  0.2041  0.1431  0.4851
  968SOL    HW1 2903   2.406   3.088   0.703 -1.8415 -2.0847 -0.3070
  968SOL    HW2 2904   2.396   0.098   0.636  2.0361 -1.8599  0.5265
  969SOL     OW 2905   0.361   1.093   2.045  0.0640  0.1290  0.1016
  969SOL    HW1 2906   0.422   1.159   2.000  3.0388  0.1428  0.1871
  969SOL    HW2 2907   0.260   1.118   2.030 -3.1784  0.9798 -0.1475
  970SOL     OW 2908   1.735   1.675   0.368 -0.5229  0.4953 -0.5334
  970SOL    HW1 2909   1.830   1.709   0.379 -0.6091  0.1788 -3.0284
  970SOL    HW2 2910   1.689   1.745   0.313  1.1217 -1.5884  1.5187
  971SOL     OW 2911   2.450   2.985   1.566  0.6285 -0.3755 -0.0433
  971SOL    HW1 2912   2.544   3.026   1.572  1.9355  3.1484 -0.7405
  971SOL    HW2 2913   2.422   2.981   1.467 -1.2689 -3.6771 -3.8283
  972SOL     OW 2914   2.743   0.220   1.096  0.9591 -0.7822 -0.2225
  972SOL    HW1 2915   2.680   0.177   1.029 -0.4052  0.6654 -1.1116
  972SOL    HW2 2916   2.754   0.318   1.074  0.5495  1.6430 -0.1863
  973SOL     OW 2917   0.495   0.720   2.662 -0.7528 -0.2565 -0.6249
  973SOL    HW1 2918   0.487   0.626   2.631 -2.5742  0.9757  0.5930
  973SOL    HW2 2919   0.432   0.781   2.609 -0.4023 -0.0945 -3.1270
  974SOL     OW 2920   2.694   1.231   2.193 -0.5368  0.5088  0.1737
  974SOL    HW1 2921   2.727   1.132   2.186  0.4182 -1.6169 -0.4316
  974SOL    HW2 2922   2.594   1.241   2.191  0.3855  1.6946  3.7283
  975SOL     OW 2923   0.891   0.239   1.706  0.3336 -0.2585 -0.4407
  975SOL    HW1 2924   0.948   0.314   1.666  0.5547 -1.6329 -0.7610
  975SOL    HW2 2925   0.946   0.162   1.745  1.3949  2.0829 -2.8209
  976SOL     OW 2926   1.348   1.647   1.488  0.7128  0.4301  0.2861
  976SOL    HW1 2927   1.326   1.740   1.516  1.3592 -2.7738 -1.2644
  976SOL    HW2 2928   1.300   1.575   1.547 -2.5872 -2.8551  2.2874
  977SOL     OW 2929   0.652   2.919   0.117  0.1681 -0.0946 -0.4820
  977SOL    HW1 2930   0.732   2.879   0.171  0.8596  0.6404  0.9735
  977SOL    HW2 2931   0.671   3.018   0.106  0.3219 -1.3153 -0.2532
  978SOL     OW 2932   2.437   1.278   2.268  0.1574 -0.4058  0.0620
  978SOL    HW1 2933   2.374   1.207   2.242 -1.3915  0.8760  1.0212
  978SOL    HW2 2934   2.385   1.361   2.306 -0.8941  0.8054 -0.0314
  979SOL     OW 2935   1.418   0.281   1.648  0.2086 -0.0067 -0.1660
  979SOL    HW1 2936   1.344   0.341   1.682 -0.5288 -0.5422 -0.2299
  979SOL    HW2 2937   1.504   0.287   1.697 -0.9889  0.3314 -0.9458
  980SOL     OW 2938   1.871   1.616   2.193  0.2725 -0.0231  0.3034
  980SOL    HW1 2939   1.918   1.559   2.259 -1.1632 -1.4523  0.2021
  980SOL    HW2 2940   1.774   1.582   2.195  0.5060  0.5443 -0.2355
  981SOL     OW 2941   1.791   0.492   1.591 -0.1431  0.1641  0.2879
  981SOL    HW1 2942   1.802   0.579   1.537 -0.4043  2.3770  1.3185
  981SOL    HW2 2943   1.874   0.438   1.604 -0.4601 -1.0504  1.9279
  982SOL     OW 2944   0.720   0.274   2.762 -0.5608  0.0426 -0.3390
  982SOL    HW1 2945   0.753   0.341   2.691 -1.9863  0.6948  1.6459
  982SOL    HW2 2946   0.634   0.307   2.802  1.1271  0.7914 -0.2011
  983SOL     OW 2947   2.122   0.666   0.138  0.6468 -0.4567 -0.6454
  983SOL    HW1 2948   2.018   0.679   0.131 -2.1069 -0.1596 -0.4931
  983SOL    HW2 2949   2.152   0.578   0.092 -1.9931 -0.5109 -2.0529
  984SOL     OW 2950   0.912   0.392   2.058 -0.8372  0.1014  0.6784
  984SOL    HW1 2951   0.894   0.295   2.024  0.1026 -1.1481 -0.1797
  984SOL    HW2 2952   0.831   0.440   2.090 -1.9958  2.5804  0.3176
  985SOL     OW 2953   1.445   2.013   2.208 -0.4220 -0.1248 -0.6183
  985SOL    HW1 2954   1.408   2.065   2.129  2.5521 -0.7481  1.7377
  985SOL    HW2 2955   1.471   1.916   2.181  1.1347 -0.0349  2.3029
  986SOL     OW 2956   2.658   2.993   1.920  0.0371 -0.2770 -0.6547
  986SOL    HW1 2957   2.600   2.982   2.004  1.1493 -0.5663 -0.3552
  986SOL    HW2 2958   2.678   3.092   1.904  1.6938 -2.3941  0.0721
  987SOL     OW 2959   1.942   1.185   1.304  0.2973 -0.0199 -0.4074
  987SOL    HW1 2960   1.946   1.126   1.221 -0.6320 -2.4164  0.4651
  987SOL    HW2 2961   1.901   1.275   1.280  1.7281  1.7156 -0.8467
  988SOL     OW 2962   2.728   1.715   2.442 -0.2493  0.2759 -0.1158
  988SOL    HW1 2963   2.814   1.758   2.480 -0.5932 -0.1232 -1.2963
  988SOL    HW2 2964   2.716   1.623   2.479 -2.4120 -0.9228  1.4178
  989SOL     OW 2965   1.097   2.359   0.184  0.1006  0.4645 -0.2540
  989SOL    HW1 2966   1.116   2.449   0.131  0.8311  2.2383 -0.8826
  989SOL    HW2 2967   1.086   2.369   0.286  1.9803 -1.4432  1.5189
  990SOL     OW 2968   2.021   0.413   2.977  0.0456  0.2025  0.3722
  990SOL    HW1 2969   1.974   0.499   3.001 -1.5906 -1.2107  0.1755
  990SOL    HW2 2970   2.048   0.416   2.878  2.0440 -0.0426  0.8469
  991SOL     OW 2971   0.999   0.430   0.790 -0.1910  0.0486  0.3667
  991SOL    HW1 2972   0.977   0.482   0.873  0.1281  0.1063 -0.7444
  991SOL    HW2 2973   1.015   0.493   0.705 -0.8109 -0.1380 -3.1256
  992SOL     OW 2974   2.432   0.816   1.093 -0.0983 -0.3406 -0.0328
  992SOL    HW1 2975   2.477   0.869   1.170  2.0267 -0.0256 -2.2157
  992SOL    HW2 2976   2.332   0.835   1.078 -3.9449  0.8042  0.3465
  993SOL     OW 2977   2.178   0.709   1.799  0.0426 -0.5368 -0.9985
  993SOL    HW1 2978   2.264   0.758   1.767 -0.6865 -0.0178  1.3956
  993SOL    HW2 2979   2.145   0.662   1.715  0.2247  0.5697 -0.6189
  994SOL     OW 2980   0.981   1.748   2.608  0.3199 -0.5602 -0.2135
  994SOL    HW1 2981   1.031   1.834   2.628 -2.1932 -0.0732  1.4819
  994SOL    HW2 2982   0.880   1.765   2.589  0.0898  0.3881  0.3601
  995SOL     OW 2983   2.076   1.064   2.968 -0.3660  0.1428  0.9578
  995SOL    HW1 2984   2.117   1.157   2.969 -1.4157  3.3171  0.6438
  995SOL    HW2 2985   2.145   1.012   2.916 -0.2817  3.5382 -0.3527
  996SOL     OW 2986   2.235   2.096   0.630  0.5506 -0.3060  0.3343
  996SOL    HW1 2987   2.153   2.051   0.667  2.6083  2.9466 -2.8953
  996SOL    HW2 2988   2.313   2.031   0.626 -2.6017  1.4425  0.3214
  997SOL     OW 2989   2.162   0.716   2.107  0.1304 -0.4170  0.5516
  997SOL    HW1 2990   2.164   0.624   2.147  0.8382  0.8995  2.9528
  997SOL    HW2 2991   2.155   0.689   2.008  2.7075 -0.9811 -1.5017
  998SOL     OW 2992   2.740   1.175   0.727 -0.2255  0.0369  0.0958
  998SOL    HW1 2993   2.815   1.232   0.765  2.4392 -0.2079  0.1518
  998SOL    HW2 2994   2.675   1.146   0.799 -0.2537 -0.7099 -0.3568
  999SOL     OW 2995   2.873   1.476   0.536  0.1260  0.1073  0.5627
  999SOL    HW1 2996   2.794   1.537   0.506 -3.2327  1.3057 -0.4442
  999SOL    HW2 2997   2.955   1.527   0.564 -0.1106  0.6995 -0.9271
 1000SOL     OW 2998   0.579   0.756   2.161  0.1246 -0.1962 -0.9345
 1000SOL    HW1 2999   0.666   0.748   2.211 -1.1434 -2.6753 -2.0764
 1000SOL    HW2 3000   0.493   0.747   2.221 -1.4636  0.9394  2.7418
   3.14513   3.14513   3.14513
