1000 SPC/Fw water molecules t= 341.00000 step= 341000
 3000
    1SOL     OW    1   2.407   0.243   1.189  0.1775  0.2022 -0.3714
    1SOL    HW1    2   2.426   0.147   1.180 -1.8500  0.9974 -1.3914
    1SOL    HW2    3   2.391   0.263   1.288 -3.0424  1.0777  1.3819
    2SOL     OW    4   2.716   2.536   1.081 -0.6061 -0.2420  0.4604
    2SOL    HW1    5   2.676   2.589   1.159 -2.4510  1.6749 -0.5766
    2SOL    HW2    6   2.680   2.439   1.093  1.2038  0.3341 -0.3203
    3SOL     OW    7   1.142   2.937   2.683 -0.3199 -0.4249  0.0630
    3SOL    HW1    8   1.169   2.976   2.774 -0.9840 -1.1798 -0.3280
    3SOL    HW2    9   1.046   2.960   2.659  2.3481 -2.1173  0.4140
    4SOL     OW   10   1.800   2.583   2.096  0.1163 -0.0749  0.1317
    4SOL    HW1   11   1.826   2.684   2.078  1.4645  2.0425 -1.2087
    4SOL    HW2   12   1.845   2.555   2.179 -0.1401  3.6159 -0.5012
    5SOL     OW   13   1.649   1.076   1.733 -0.2759 -0.0256  0.2502
    5SOL    HW1   14   1.700   0.999   1.689 -2.1230  1.1803  1.6385
    5SOL    HW2   15   1.574   1.035   1.787  0.8444 -0.1699 -3.1913
    6SOL     OW   16   1.922   2.799   0.886 -0.3395  0.2402 -0.3282
    6SOL    HW1   17   1.871   2.714   0.861  3.4970 -2.2771 -0.4259
    6SOL    HW2   18   1.980   2.777   0.966  1.2518  0.6219  0.9217
    7SOL     OW   19   1.989   1.261   1.004  0.0243  0.1523  0.3213
    7SOL    HW1   20   1.917   1.253   1.077 -0.6649 -1.3455 -1.3873
    7SOL    HW2   21   2.045   1.175   0.986 -1.9758  0.9722 -1.3135
    8SOL     OW   22   0.757   1.825   1.382  0.0719 -0.2841  0.2741
    8SOL    HW1   23   0.688   1.751   1.406 -3.2052 -0.5822  0.1220
    8SOL    HW2   24   0.730   1.914   1.427 -0.6665 -0.7002  0.6593
    9SOL     OW   25   1.181   2.228   2.007  0.5169 -0.3108 -0.6064
    9SOL    HW1   26   1.133   2.197   2.091 -0.5483  1.2939  1.1320
    9SOL    HW2   27   1.185   2.154   1.936 -0.2166 -1.9614 -1.8200
   10SOL     OW   28   0.323   2.073   0.799 -0.2809  0.1392  0.0628
   10SOL    HW1   29   0.408   2.017   0.809  2.7788 -3.0215 -2.5535
   10SOL    HW2   30   0.314   2.157   0.860  0.6297 -0.0454 -0.5837
   11SOL     OW   31   1.535   2.245   1.267 -0.5118 -0.2658 -0.2839
   11SOL    HW1   32   1.507   2.326   1.204 -2.1433 -1.2650 -0.9780
   11SOL    HW2   33   1.514   2.163   1.214  2.3740 -1.0708  1.2600
   12SOL     OW   34   2.604   0.407   2.198  0.1435  0.4848 -0.2608
   12SOL    HW1   35   2.628   0.466   2.120  0.0178  1.7638  0.9214
   12SOL    HW2   36   2.563   0.317   2.163 -1.6213 -0.0854 -0.4849
   13SOL     OW   37   2.691   2.721   0.685  0.5290  0.3986 -0.4301
   13SOL    HW1   38   2.649   2.741   0.778  1.9144  4.4735  3.2435
   13SOL    HW2   39   2.785   2.706   0.702 -1.0490  0.3310  0.5329
   14SOL     OW   40   1.541   1.622   3.003  0.2717 -0.0077 -0.3971
   14SOL    HW1   41   1.592   1.532   3.023  0.8473 -0.6913 -0.8521
   14SOL    HW2   42   1.584   1.667   2.920  0.6925 -1.5344 -1.0308
   15SOL     OW   43   2.739   2.686   1.647  0.3582  0.4280 -0.0554
   15SOL    HW1   44   2.816   2.727   1.594 -2.2000 -0.3316  2.1729
   15SOL    HW2   45   2.650   2.727   1.616  1.5119 -0.3240  1.3449
   16SOL     OW   46   2.845   2.825   0.300 -0.4707 -0.5152 -0.5197
   16SOL    HW1   47   2.889   2.891   0.363  0.0637 -1.0637  1.7481
   16SOL    HW2   48   2.886   2.732   0.317 -2.3989  0.2634 -1.6815
   17SOL     OW   49   0.199   0.447   1.028  0.3495  0.5603 -0.1493
   17SOL    HW1   50   0.244   0.538   1.043  1.4480  1.0186  0.1740
   17SOL    HW2   51   0.249   0.376   1.079  0.0004  0.1355 -5.3489
   18SOL     OW   52   2.119   0.553   0.408 -0.1165 -0.1106 -0.0155
   18SOL    HW1   53   2.059   0.630   0.420  1.9973  0.6888 -1.2641
   18SOL    HW2   54   2.166   0.536   0.501  1.4277 -0.9396  0.1302
   19SOL     OW   55   1.836   1.776   0.243  0.5828 -0.1079  0.0544
   19SOL    HW1   56   1.826   1.835   0.161  0.1367  0.3158 -2.0601
   19SOL    HW2   57   1.872   1.685   0.221  2.8072 -0.4754  2.1782
   20SOL     OW   58   2.380   2.092   2.128 -0.6883  0.0652  0.0704
   20SOL    HW1   59   2.319   2.018   2.149  1.7278  1.3838  0.4067
   20SOL    HW2   60   2.346   2.178   2.166  2.1048 -0.8197 -1.6074
   21SOL     OW   61   1.715   0.124   0.404 -0.8049  0.7137  0.5343
   21SOL    HW1   62   1.753   0.029   0.384  1.9072 -0.6278 -1.3795
   21SOL    HW2   63   1.787   0.193   0.416 -0.5625  1.0695  0.0473
   22SOL     OW   64   2.588   0.409   1.668  0.0325  0.1552  0.1915
   22SOL    HW1   65   2.522   0.350   1.722  0.6737 -0.2481  2.3003
   22SOL    HW2   66   2.594   0.506   1.702  1.6394  0.0024  2.6337
   23SOL     OW   67   0.510   0.660   1.689 -0.3171  0.4554 -0.0074
   23SOL    HW1   68   0.455   0.594   1.744 -1.2417  1.4064 -1.4890
   23SOL    HW2   69   0.565   0.715   1.755 -0.2347 -0.5871  1.0381
   24SOL     OW   70   2.586   2.516   0.495  0.0010  0.3029 -0.0125
   24SOL    HW1   71   2.649   2.452   0.442 -4.8205 -1.8709 -1.7656
   24SOL    HW2   72   2.644   2.585   0.542 -0.9955  2.3298 -1.5660
   25SOL     OW   73   1.303   2.584   2.603 -0.3419 -0.6654 -0.1322
   25SOL    HW1   74   1.401   2.607   2.585  0.9671 -2.3389 -1.2123
   25SOL    HW2   75   1.260   2.655   2.664 -0.5672  1.0842  0.9658
   26SOL     OW   76   1.083   2.440   0.239 -0.0069 -0.1699  0.3224
   26SOL    HW1   77   1.135   2.453   0.154 -0.6780  1.5815 -0.2909
   26SOL    HW2   78   1.137   2.437   0.321 -0.4304 -2.7591 -0.4267
   27SOL     OW   79   2.222   0.793   0.060  0.3584 -0.4814  0.8984
   27SOL    HW1   80   2.135   0.801   0.116  0.1289 -1.5571 -1.7179
   27SOL    HW2   81   2.286   0.871   0.067  0.9104 -0.7300 -0.1638
   28SOL     OW   82   1.139   1.514   1.035  0.0782  0.0257 -0.0392
   28SOL    HW1   83   1.135   1.486   0.939  1.8708 -1.3055  1.2783
   28SOL    HW2   84   1.136   1.429   1.096  3.3979  3.4870 -0.2294
   29SOL     OW   85   2.927   2.766   1.879  0.5066  0.4502 -0.0453
   29SOL    HW1   86   3.009   2.701   1.857  1.3548 -1.1412  0.1097
   29SOL    HW2   87   2.877   2.786   1.795  3.3313 -2.0437  0.1376
   30SOL     OW   88   1.208   0.068   1.252  0.3332 -0.4330  0.8312
   30SOL    HW1   89   1.279   3.079   1.224 -0.2882  2.1279 -3.2823
   30SOL    HW2   90   1.233   0.159   1.219 -0.0720  0.5917 -0.4036
   31SOL     OW   91   2.242   2.976   2.443 -0.0878 -0.3863 -0.2482
   31SOL    HW1   92   2.208   3.024   2.525 -0.2867 -1.0301 -2.9829
   31SOL    HW2   93   2.191   2.989   2.357  1.4681 -0.0612  0.2307
   32SOL     OW   94   0.870   1.370   0.369  0.2181 -0.4520 -0.0451
   32SOL    HW1   95   0.954   1.417   0.400  0.4203 -2.7795 -1.3476
   32SOL    HW2   96   0.795   1.377   0.437  1.7383  0.0393 -1.4886
   33SOL     OW   97   0.149   1.229   2.385 -0.0711  0.0896  0.1907
   33SOL    HW1   98   0.248   1.250   2.378  0.5704  0.6410 -3.1764
   33SOL    HW2   99   0.123   1.156   2.320 -2.0616  2.0801 -1.9989
   34SOL     OW  100   2.595   2.920   0.527 -0.6838  0.3198  0.3709
   34SOL    HW1  101   2.608   2.821   0.551 -1.7409 -0.8776  1.0154
   34SOL    HW2  102   2.688   2.960   0.517  0.6132 -0.6799 -1.3393
   35SOL     OW  103   2.476   2.880   2.035 -0.1943 -0.5140  0.5933
   35SOL    HW1  104   2.462   2.780   2.038  0.3233  0.6369 -0.9178
   35SOL    HW2  105   2.492   2.917   2.128 -0.3377 -1.2698 -0.7468
   36SOL     OW  106   2.115   2.188   2.988 -0.1757 -0.0764 -0.5494
   36SOL    HW1  107   2.197   2.217   2.938 -0.0509 -1.1932 -0.9161
   36SOL    HW2  108   2.033   2.167   2.928  0.7770 -0.0069  1.3690
   37SOL     OW  109   1.665   0.219   2.043  0.9819 -0.3169  0.0072
   37SOL    HW1  110   1.733   0.198   1.976 -2.0758 -1.3706 -0.4252
   37SOL    HW2  111   1.578   0.251   2.009 -0.8919 -2.5059  1.7223
   38SOL     OW  112   0.336   0.704   2.650 -0.3207 -0.3229  0.2073
   38SOL    HW1  113   0.347   0.676   2.552 -0.1135 -1.4187  2.5647
   38SOL    HW2  114   0.407   0.648   2.702  1.5154 -1.0393  2.4497
   39SOL     OW  115   1.958   1.308   1.489  0.3634  0.1788  0.1067
   39SOL    HW1  116   2.038   1.250   1.471 -2.1675  1.7322 -0.2824
   39SOL    HW2  117   1.926   1.292   1.586 -0.2844  0.1698  0.0144
   40SOL     OW  118   1.201   2.585   0.456 -0.0260  0.4822  0.0744
   40SOL    HW1  119   1.197   2.671   0.404 -1.0582 -0.3593 -2.9349
   40SOL    HW2  120   1.286   2.527   0.430  2.4305 -2.6574 -0.9249
   41SOL     OW  121   2.097   1.265   0.662  0.4328 -0.0217 -0.0281
   41SOL    HW1  122   2.031   1.337   0.687 -1.0039  1.8378 -0.1355
   41SOL    HW2  123   2.188   1.305   0.675 -0.2234 -0.2766 -0.7752
   42SOL     OW  124   0.878   0.230   1.311 -0.1688 -0.4257  0.1571
   42SOL    HW1  125   0.915   0.253   1.218  0.2697 -3.7999  0.4230
   42SOL    HW2  126   0.938   0.167   1.366  0.7644 -1.6290  1.2825
   43SOL     OW  127   0.108   1.515   2.273  0.1904 -0.1444  0.4254
   43SOL    HW1  128   0.053   1.440   2.316 -1.2367 -0.9679  1.4430
   43SOL    HW2  129   0.190   1.523   2.330 -2.0690 -0.6011 -0.3122
   44SOL     OW  130   2.449   0.000   1.611 -0.1432 -0.2412 -0.1191
   44SOL    HW1  131   2.467   0.094   1.646  3.1543  1.5008 -0.1831
   44SOL    HW2  132   2.484   3.005   1.676  1.7041 -2.8661  0.8737
   45SOL     OW  133   1.067   2.858   2.050 -0.7572 -0.0814  0.3290
   45SOL    HW1  134   1.081   2.861   2.152 -1.0105  0.9526  1.3331
   45SOL    HW2  135   1.131   2.795   2.008 -1.7782  3.3327 -0.8040
   46SOL     OW  136   1.126   2.403   2.515  0.1327 -0.0063  0.1947
   46SOL    HW1  137   1.204   2.466   2.529  2.0370  0.2809  0.1193
   46SOL    HW2  138   1.043   2.445   2.547  1.5079 -1.3916 -0.8924
   47SOL     OW  139   1.404   1.660   0.717 -0.0699 -0.1307  0.5407
   47SOL    HW1  140   1.425   1.610   0.628 -1.2882 -1.4807 -2.7403
   47SOL    HW2  141   1.476   1.647   0.788 -1.3532 -0.6512 -1.4497
   48SOL     OW  142   1.238   2.374   0.787 -0.2826  0.1123  0.4214
   48SOL    HW1  143   1.150   2.327   0.780 -0.9909 -1.4927  1.2509
   48SOL    HW2  144   1.221   2.465   0.816  0.9600 -2.0030 -1.4131
   49SOL     OW  145   2.216   3.038   2.886  0.1131  0.1357 -0.2723
   49SOL    HW1  146   2.161   3.040   2.803  0.0417  0.2210 -0.3171
   49SOL    HW2  147   2.173   2.976   2.958 -3.0747  0.4424  0.0488
   50SOL     OW  148   1.759   3.057   3.030  0.0345 -0.1855  0.2731
   50SOL    HW1  149   1.847   0.008   0.005  4.6693  1.3468  0.2557
   50SOL    HW2  150   1.731   0.055   2.968 -0.1484  1.4385 -0.9609
   51SOL     OW  151   2.341   0.507   1.414  0.4316  0.2986 -0.3382
   51SOL    HW1  152   2.332   0.603   1.453  0.0493  1.6692 -0.9756
   51SOL    HW2  153   2.434   0.493   1.388  0.3240  0.6607 -0.5742
   52SOL     OW  154   1.098   1.416   0.504 -0.0121  0.1528 -0.6279
   52SOL    HW1  155   1.141   1.496   0.456  1.8978  0.8347  0.2769
   52SOL    HW2  156   1.096   1.435   0.608 -1.5720  0.5474  0.2936
   53SOL     OW  157   0.144   1.661   2.583 -0.3822  0.0444 -0.5905
   53SOL    HW1  158   0.155   1.761   2.604  1.8446  2.2485  1.7938
   53SOL    HW2  159   0.119   1.600   2.662  1.6503 -0.3556  2.1286
   54SOL     OW  160   2.712   1.303   1.742 -0.1408  0.3300  0.4291
   54SOL    HW1  161   2.737   1.395   1.699  1.9280  1.6405  0.1996
   54SOL    HW2  162   2.678   1.313   1.841 -2.6420  2.2701 -2.1862
   55SOL     OW  163   2.302   1.909   0.552  0.2878 -0.2103  0.1919
   55SOL    HW1  164   2.299   1.853   0.639 -0.9366  0.4288  2.2103
   55SOL    HW2  165   2.252   2.000   0.569 -2.3381  2.0049  0.1805
   56SOL     OW  166   1.553   0.195   1.714  1.0539  0.3036  0.2304
   56SOL    HW1  167   1.610   0.280   1.711 -0.0067 -2.7434  0.2584
   56SOL    HW2  168   1.450   0.217   1.725 -0.2183  1.0493  2.1638
   57SOL     OW  169   1.605   1.185   2.584  0.0121  0.3109  0.1737
   57SOL    HW1  170   1.543   1.189   2.502 -0.5999  2.7294 -2.2093
   57SOL    HW2  171   1.686   1.122   2.580  1.8177  0.5772  1.2909
   58SOL     OW  172   3.070   0.570   1.149 -0.0791 -0.3174 -0.4277
   58SOL    HW1  173   0.086   0.535   1.115  2.4411 -0.9826  0.4933
   58SOL    HW2  174   3.007   0.584   1.074  1.8155  0.9889  0.2277
   59SOL     OW  175   1.581   2.757   0.193 -0.0434 -0.3343  0.2087
   59SOL    HW1  176   1.559   2.833   0.125 -2.7610  1.4301 -2.4717
   59SOL    HW2  177   1.594   2.800   0.286  0.4062  1.1863  2.3310
   60SOL     OW  178   2.789   1.776   2.833  0.7051  0.5655 -0.3822
   60SOL    HW1  179   2.836   1.788   2.921 -0.4554  2.4279 -2.0096
   60SOL    HW2  180   2.686   1.782   2.838  2.9446  0.5608 -3.2287
   61SOL     OW  181   0.789   2.656   0.832 -0.0652  0.6991  0.0270
   61SOL    HW1  182   0.824   2.737   0.887  0.4907  0.5186  2.1377
   61SOL    HW2  183   0.817   2.565   0.870  1.2850 -1.2827  0.2178
   62SOL     OW  184   1.681   1.475   2.598  0.1217  0.0766 -0.4380
   62SOL    HW1  185   1.690   1.542   2.672  0.2431  0.2335  0.0470
   62SOL    HW2  186   1.613   1.400   2.611 -0.2357 -0.2838  1.0536
   63SOL     OW  187   2.241   2.156   0.167  0.5938  0.2116 -0.6813
   63SOL    HW1  188   2.178   2.201   0.234 -0.9523  2.8855 -0.6560
   63SOL    HW2  189   2.229   2.195   0.076 -0.2084 -0.4499 -0.0524
   64SOL     OW  190   1.779   0.979   0.041  0.5932  0.9772  0.4507
   64SOL    HW1  191   1.712   0.942   3.048 -2.0554 -1.0965 -1.1197
   64SOL    HW2  192   1.752   0.935   0.134 -2.2585 -0.1437  0.7757
   65SOL     OW  193   1.942   1.858   2.261  0.6983 -0.0088  0.3644
   65SOL    HW1  194   2.040   1.860   2.252 -1.1331 -0.1081 -1.0961
   65SOL    HW2  195   1.893   1.867   2.174 -0.4247 -1.1354  2.8201
   66SOL     OW  196   0.312   1.155   1.069 -0.0076 -0.3153 -0.3243
   66SOL    HW1  197   0.307   1.164   0.971 -0.7512 -0.8197  1.9987
   66SOL    HW2  198   0.241   1.209   1.119  1.7991  0.3604  0.6197
   67SOL     OW  199   2.102   3.064   2.651  0.2604 -0.1537  0.0154
   67SOL    HW1  200   2.055   0.057   2.595  0.4931  0.8710  2.8383
   67SOL    HW2  201   2.031   2.992   2.677 -0.9005  2.2886  0.5947
   68SOL     OW  202   1.225   2.428   1.393 -0.0556 -0.0956 -0.0426
   68SOL    HW1  203   1.246   2.438   1.292 -0.6908 -1.1764 -0.0132
   68SOL    HW2  204   1.299   2.384   1.447  1.2510  0.0793  0.8114
   69SOL     OW  205   0.750   2.559   2.960 -0.0288  0.0597 -0.3148
   69SOL    HW1  206   0.727   2.602   3.052 -2.4059  2.9405  2.3599
   69SOL    HW2  207   0.777   2.464   2.972 -2.8612  2.3027 -0.2845
   70SOL     OW  208   0.091   0.595   2.306 -0.2056 -0.1880 -0.2232
   70SOL    HW1  209   0.124   0.627   2.215 -1.2897 -3.5470  0.5558
   70SOL    HW2  210   0.066   0.670   2.367  0.6066 -3.0262 -1.2944
   71SOL     OW  211   0.736   1.377   2.903  0.1298 -0.1636  0.0251
   71SOL    HW1  212   0.708   1.346   2.809  1.1521  1.7393 -0.3005
   71SOL    HW2  213   0.663   1.431   2.949  0.5610  1.5964  4.7367
   72SOL     OW  214   0.008   1.740   2.145  0.3304  0.0955 -0.2564
   72SOL    HW1  215   0.060   1.670   2.202  1.6193 -3.8515  2.0336
   72SOL    HW2  216   3.076   1.828   2.190 -2.7195 -0.4625 -0.2011
   73SOL     OW  217   1.750   1.260   0.378  0.2373 -0.2071  0.2671
   73SOL    HW1  218   1.812   1.241   0.300 -1.3419  1.1280  0.5651
   73SOL    HW2  219   1.779   1.221   0.470  1.1164 -0.2162  2.3525
   74SOL     OW  220   2.387   2.696   2.787 -0.4459  0.1890  0.0812
   74SOL    HW1  221   2.441   2.725   2.704  1.5093  3.8848  0.4725
   74SOL    HW2  222   2.295   2.651   2.769  0.5915 -1.8874 -1.3220
   75SOL     OW  223   2.008   2.031   0.886  0.2414  0.4980 -0.0354
   75SOL    HW1  224   1.968   2.096   0.954  1.7688  1.1779 -1.2835
   75SOL    HW2  225   2.018   1.936   0.923  2.6828 -2.3272  1.4089
   76SOL     OW  226   2.634   2.116   1.968 -0.1378 -0.5756  0.1120
   76SOL    HW1  227   2.536   2.130   1.999 -1.1730  0.9390  1.1853
   76SOL    HW2  228   2.651   2.175   1.884  0.5095  2.0301 -1.3746
   77SOL     OW  229   2.916   0.242   2.108 -0.5802  0.4026  0.6156
   77SOL    HW1  230   2.877   0.251   2.011  0.2023  2.4316  1.0165
   77SOL    HW2  231   2.924   0.334   2.150  0.9673 -1.7178  2.8991
   78SOL     OW  232   2.135   1.194   0.035 -0.0728  0.0386  0.0674
   78SOL    HW1  233   2.171   1.213   3.019  0.7838  2.1423 -4.6084
   78SOL    HW2  234   2.174   1.265   0.097 -0.5285 -1.5902 -0.0004
   79SOL     OW  235   2.506   1.535   2.525  0.2417 -0.2064  0.1497
   79SOL    HW1  236   2.467   1.484   2.442  0.2267 -1.1407 -3.4928
   79SOL    HW2  237   2.547   1.624   2.490 -0.4264 -1.2895 -2.1567
   80SOL     OW  238   1.496   1.721   1.569  0.2773 -0.2606  0.0465
   80SOL    HW1  239   1.577   1.736   1.511 -4.8270 -0.6148  0.7796
   80SOL    HW2  240   1.498   1.632   1.615  0.5077  0.4484 -2.9338
   81SOL     OW  241   2.000   0.701   1.975  0.3116  0.4514  0.1891
   81SOL    HW1  242   2.012   0.769   2.042  2.3189 -3.6807 -2.3983
   81SOL    HW2  243   2.000   0.750   1.882  2.3492 -1.9203 -1.4709
   82SOL     OW  244   1.736   1.734   1.435  0.1108  0.2670 -0.3404
   82SOL    HW1  245   1.816   1.676   1.454 -1.9116  0.7841 -1.1170
   82SOL    HW2  246   1.733   1.761   1.337  1.6110  1.0829  1.7260
   83SOL     OW  247   0.149   0.038   0.169  0.0892 -0.8453 -0.9043
   83SOL    HW1  248   0.217   0.078   0.105  1.8580  0.1009 -0.5100
   83SOL    HW2  249   0.058   0.081   0.157 -0.5121  1.5757 -0.2107
   84SOL     OW  250   0.482   0.888   3.079  0.0848 -0.0045  0.1473
   84SOL    HW1  251   0.525   0.838   0.078  1.0064  2.3936 -0.5406
   84SOL    HW2  252   0.382   0.870   3.068  1.3064  0.4226 -3.3680
   85SOL     OW  253   2.691   1.973   1.329  0.2436  0.7260 -0.3884
   85SOL    HW1  254   2.615   1.968   1.265 -0.5013 -2.8495 -0.9013
   85SOL    HW2  255   2.778   1.993   1.279  2.3598 -2.9660  2.4155
   86SOL     OW  256   0.465   2.569   1.173 -0.1893  0.6802  0.2381
   86SOL    HW1  257   0.518   2.491   1.202 -1.4892  1.7468  1.0728
   86SOL    HW2  258   0.498   2.606   1.085 -0.1852  0.2516 -0.4239
   87SOL     OW  259   0.495   2.336   2.391  0.3345 -0.4251  0.1826
   87SOL    HW1  260   0.554   2.381   2.320 -0.8498 -0.8783 -2.2126
   87SOL    HW2  261   0.436   2.263   2.347  1.2922 -0.3675 -3.6219
   88SOL     OW  262   0.046   2.290   0.232 -0.6090 -0.3941  0.7851
   88SOL    HW1  263   0.103   2.221   0.275  1.3794 -0.0041 -2.2002
   88SOL    HW2  264   3.036   2.256   0.192 -1.1553  1.3632  0.2336
   89SOL     OW  265   0.892   0.912   0.987 -0.0253 -0.1778  0.2766
   89SOL    HW1  266   0.929   0.823   0.952  2.5410  1.4429 -0.1600
   89SOL    HW2  267   0.903   0.917   1.086  0.6063 -2.5234 -1.8135
   90SOL     OW  268   0.208   1.050   1.692  0.4318  0.3066 -0.0932
   90SOL    HW1  269   0.153   1.139   1.688  0.3426  4.4045 -1.2892
   90SOL    HW2  270   0.288   1.065   1.755  2.0190 -0.9758  1.5871
   91SOL     OW  271   0.998   0.652   0.894 -0.0578 -0.2173 -0.0834
   91SOL    HW1  272   0.914   0.609   0.869  1.1492 -0.9978  2.8381
   91SOL    HW2  273   1.041   0.603   0.972 -0.3126  4.0750 -2.3599
   92SOL     OW  274   2.066   1.011   0.952 -1.0093 -0.5253  0.7794
   92SOL    HW1  275   2.092   1.023   0.852  0.3745  1.0420 -1.1528
   92SOL    HW2  276   2.034   0.917   0.978  2.6081  1.4295 -0.5114
   93SOL     OW  277   2.653   0.957   2.280  0.0920 -0.7868  0.6650
   93SOL    HW1  278   2.740   0.915   2.310 -2.1903  3.4450  0.2531
   93SOL    HW2  279   2.568   0.905   2.304  0.4812 -1.0854  0.6796
   94SOL     OW  280   1.974   1.726   2.540 -0.4768 -0.0704  0.2717
   94SOL    HW1  281   1.895   1.792   2.538 -0.7061 -0.0016  1.0521
   94SOL    HW2  282   2.059   1.777   2.557 -0.9712  0.8769 -1.1396
   95SOL     OW  283   2.754   0.704   1.504  0.3376 -0.2154  0.1250
   95SOL    HW1  284   2.854   0.724   1.506 -0.0515 -1.1658  0.1002
   95SOL    HW2  285   2.730   0.620   1.453  2.5019  3.9312  1.6356
   96SOL     OW  286   2.571   2.924   1.782 -0.8299  0.2508  0.2106
   96SOL    HW1  287   2.531   2.905   1.873  0.4943  0.5238 -0.3546
   96SOL    HW2  288   2.672   2.903   1.781  2.7316 -1.0262 -0.7770
   97SOL     OW  289   2.541   0.920   1.515  0.1567  0.0838 -0.5493
   97SOL    HW1  290   2.629   0.866   1.508  1.7825 -0.1816 -0.1150
   97SOL    HW2  291   2.540   0.991   1.593 -0.5767  2.0935 -0.3244
   98SOL     OW  292   1.687   2.269   1.670  0.0628  0.7510  0.1370
   98SOL    HW1  293   1.664   2.169   1.659  0.6483  0.8200  0.5740
   98SOL    HW2  294   1.734   2.284   1.761  0.1051  0.7044  0.2390
   99SOL     OW  295   0.523   2.433   1.585  0.0611 -0.0436 -0.5840
   99SOL    HW1  296   0.593   2.455   1.515  1.8450 -1.8555  0.3678
   99SOL    HW2  297   0.508   2.523   1.634  2.4353 -0.9370 -0.6005
  100SOL     OW  298   1.461   0.660   2.595 -0.0313  1.1748  0.0855
  100SOL    HW1  299   1.552   0.612   2.578  1.2862 -1.4364  2.0321
  100SOL    HW2  300   1.388   0.593   2.623 -2.1346  1.8719 -1.0268
  101SOL     OW  301   2.473   0.145   2.657  0.3256  0.1966 -0.1784
  101SOL    HW1  302   2.450   0.071   2.725 -0.1040 -3.4364  0.8045
  101SOL    HW2  303   2.535   0.210   2.703 -0.0325  0.3174  0.7481
  102SOL     OW  304   0.504   0.601   1.287  0.5096  0.1292 -0.2096
  102SOL    HW1  305   0.412   0.641   1.258 -2.3062 -0.4257 -1.8370
  102SOL    HW2  306   0.563   0.579   1.210  0.6340 -0.5089  4.4665
  103SOL     OW  307   0.983   0.622   2.536 -0.0113 -0.4922  0.0480
  103SOL    HW1  308   0.993   0.560   2.453 -2.4956 -1.1693  3.8063
  103SOL    HW2  309   1.059   0.686   2.546  0.2044 -3.0859 -0.3917
  104SOL     OW  310   1.183   0.838   2.543 -0.2663  0.1574 -0.1412
  104SOL    HW1  311   1.153   0.907   2.612  1.2047  1.8025  0.9048
  104SOL    HW2  312   1.262   0.877   2.491  2.7880  0.6624 -0.4422
  105SOL     OW  313   2.169   2.040   1.727  0.4842  0.3528 -0.9776
  105SOL    HW1  314   2.128   2.045   1.823 -0.7172 -0.2289  0.3108
  105SOL    HW2  315   2.270   2.047   1.742  1.6445  0.4493  0.9355
  106SOL     OW  316   1.714   2.919   0.413  0.0850 -0.0532 -0.2184
  106SOL    HW1  317   1.633   2.868   0.446  2.6137 -2.7779 -2.6027
  106SOL    HW2  318   1.790   2.855   0.386  1.4461  1.3099 -1.7756
  107SOL     OW  319   2.316   1.940   0.927  1.0049  0.4788 -0.2244
  107SOL    HW1  320   2.226   1.986   0.926  1.1605 -1.3641 -2.1345
  107SOL    HW2  321   2.308   1.849   0.875  1.7674 -1.5954 -2.2945
  108SOL     OW  322   2.581   0.071   1.354 -0.0988 -0.5662  0.1289
  108SOL    HW1  323   2.525   0.027   1.422  1.8592  1.4551 -0.3446
  108SOL    HW2  324   2.659   0.121   1.395  0.3233 -1.4087 -1.4386
  109SOL     OW  325   2.115   2.486   0.975 -0.7264 -0.4436  0.1407
  109SOL    HW1  326   2.141   2.434   1.062 -2.4166 -1.9714  0.5181
  109SOL    HW2  327   2.103   2.584   1.003 -1.3526 -1.0119  0.9322
  110SOL     OW  328   0.597   1.741   2.015  0.4556  0.6774  0.1597
  110SOL    HW1  329   0.592   1.714   1.918  1.4141  0.9449 -0.0516
  110SOL    HW2  330   0.527   1.810   2.040 -0.9460  0.3005  0.9587
  111SOL     OW  331   1.654   2.264   2.212 -0.3065  0.7526  0.0749
  111SOL    HW1  332   1.753   2.256   2.191 -2.7728  0.4240 -1.7540
  111SOL    HW2  333   1.600   2.271   2.125  0.3443 -1.2078 -0.4207
  112SOL     OW  334   1.555   1.691   2.408 -0.3034  0.2334  0.5312
  112SOL    HW1  335   1.529   1.699   2.305 -1.0488  1.8126 -0.3060
  112SOL    HW2  336   1.630   1.752   2.442  0.1273 -2.2646  2.5335
  113SOL     OW  337   1.672   1.995   1.556 -0.0057  0.0463  0.3533
  113SOL    HW1  338   1.587   1.986   1.616 -3.6896 -0.3035 -2.3154
  113SOL    HW2  339   1.703   1.898   1.534  0.7052 -0.1059  0.2549
  114SOL     OW  340   2.864   1.134   0.949  0.5421  0.3250 -0.2008
  114SOL    HW1  341   2.921   1.063   0.998  0.2843 -2.1623 -0.0824
  114SOL    HW2  342   2.765   1.098   0.945 -0.1538 -1.0632 -3.1483
  115SOL     OW  343   0.601   0.757   0.229  0.7309  0.0880 -0.3406
  115SOL    HW1  344   0.611   0.775   0.330  1.1303 -3.0905  2.6970
  115SOL    HW2  345   0.544   0.677   0.207 -1.5124  2.1187  1.0095
  116SOL     OW  346   2.630   1.742   2.412 -0.4219 -0.1713 -0.4309
  116SOL    HW1  347   2.607   1.815   2.347  1.2060 -1.2108  0.7163
  116SOL    HW2  348   2.713   1.772   2.466  0.5466  0.8440 -1.0439
  117SOL     OW  349   2.966   2.657   0.688 -0.6680 -1.3381  0.0384
  117SOL    HW1  350   3.004   2.591   0.624  0.7833  2.4526 -1.1481
  117SOL    HW2  351   3.018   2.663   0.775 -2.5038  1.6638 -1.7447
  118SOL     OW  352   0.694   1.410   2.597  0.2506 -0.2491  0.7234
  118SOL    HW1  353   0.701   1.511   2.585 -2.6047 -0.7263  0.1475
  118SOL    HW2  354   0.787   1.373   2.578  0.6890  1.4697  0.0740
  119SOL     OW  355   0.523   1.987   0.371 -0.0527 -0.4217 -0.0304
  119SOL    HW1  356   0.432   1.973   0.416  0.8141  1.5374  0.9629
  119SOL    HW2  357   0.555   2.086   0.378 -0.6081  0.4136  0.4785
  120SOL     OW  358   1.353   0.504   0.372 -0.4389  0.2595 -0.3330
  120SOL    HW1  359   1.423   0.433   0.385 -1.1408  0.4804 -0.7723
  120SOL    HW2  360   1.358   0.576   0.444 -0.8174  0.5925 -1.0108
  121SOL     OW  361   1.388   2.392   0.453 -0.8168 -0.1887 -0.1064
  121SOL    HW1  362   1.450   2.386   0.371 -0.6503  1.8704  1.5073
  121SOL    HW2  363   1.334   2.307   0.460  0.1289  0.1082  0.6071
  122SOL     OW  364   2.413   2.369   1.801 -0.4765 -0.5257 -0.4086
  122SOL    HW1  365   2.358   2.382   1.718 -1.0427 -0.3596  0.4448
  122SOL    HW2  366   2.506   2.328   1.785  1.5544 -1.0077 -0.2918
  123SOL     OW  367   0.779   1.627   0.658  0.5693  0.0226  0.1992
  123SOL    HW1  368   0.732   1.694   0.596  0.5176  1.0441 -0.0701
  123SOL    HW2  369   0.836   1.672   0.730 -2.7613 -1.1221  0.8860
  124SOL     OW  370   2.826   0.684   0.239  0.2644 -0.5565 -0.1689
  124SOL    HW1  371   2.874   0.636   0.172 -0.1937  3.5767  0.2192
  124SOL    HW2  372   2.755   0.624   0.280  0.9293  0.8655  1.1203
  125SOL     OW  373   0.593   0.809   0.482  0.0882  0.1468 -0.3438
  125SOL    HW1  374   0.499   0.786   0.516  1.9462  2.7863 -0.0708
  125SOL    HW2  375   0.602   0.907   0.503 -3.9728 -0.7257  0.3335
  126SOL     OW  376   2.974   1.884   0.741 -0.2521  0.0800  0.3399
  126SOL    HW1  377   2.951   1.835   0.831  1.6022 -0.9987  1.1041
  126SOL    HW2  378   3.077   1.899   0.729 -3.2787 -2.0371 -0.1384
  127SOL     OW  379   1.465   2.006   1.720 -0.0765  0.0717 -0.3304
  127SOL    HW1  380   1.513   1.937   1.777  1.6680 -1.8316  1.6033
  127SOL    HW2  381   1.368   2.016   1.748 -4.5618 -1.5457  0.7377
  128SOL     OW  382   0.963   1.106   0.217 -0.2118  0.9043 -0.2944
  128SOL    HW1  383   0.902   1.128   0.138 -0.0808 -0.2410 -3.6140
  128SOL    HW2  384   0.977   1.187   0.276  0.5898 -0.1339  0.9691
  129SOL     OW  385   1.655   1.826   1.200  0.2990  0.2484 -0.2566
  129SOL    HW1  386   1.605   1.911   1.207 -1.0534 -1.5686 -1.3871
  129SOL    HW2  387   1.686   1.805   1.105  0.1172 -1.0841  0.4097
  130SOL     OW  388   2.288   1.631   1.502 -0.5974  0.2210  0.3510
  130SOL    HW1  389   2.224   1.701   1.541 -0.4324 -0.2911  1.4059
  130SOL    HW2  390   2.307   1.558   1.571  0.4973 -0.2158  2.7574
  131SOL     OW  391   3.070   2.762   2.805 -0.8332  0.0189 -0.2823
  131SOL    HW1  392   0.009   2.739   2.707  0.4811  0.7772  0.2662
  131SOL    HW2  393   0.058   2.711   2.865 -0.9124  1.5560 -0.2726
  132SOL     OW  394   2.519   1.568   0.657 -0.4302  0.3036  0.4002
  132SOL    HW1  395   2.578   1.571   0.568  2.3535 -0.4117 -1.6636
  132SOL    HW2  396   2.580   1.575   0.743  0.1393 -0.5932  2.5500
  133SOL     OW  397   0.391   0.096   1.809 -0.9830 -0.6698  0.7558
  133SOL    HW1  398   0.426   0.094   1.905  1.4304  2.8281 -0.3845
  133SOL    HW2  399   0.444   0.160   1.752 -0.2593  1.3373  0.0010
  134SOL     OW  400   0.119   1.759   3.028  0.5478 -0.0894  0.0750
  134SOL    HW1  401   0.027   1.750   3.076  2.5517  0.8579  0.7129
  134SOL    HW2  402   0.115   1.833   2.959 -0.5066 -1.6849 -1.4819
  135SOL     OW  403   1.545   0.688   1.945  0.2770 -0.6283  0.5554
  135SOL    HW1  404   1.544   0.788   1.969  1.7474  2.4395  0.6914
  135SOL    HW2  405   1.560   0.676   1.844  0.5796  0.9032  1.2099
  136SOL     OW  406   2.700   1.572   0.455 -0.4474  0.0424 -0.7570
  136SOL    HW1  407   2.772   1.645   0.485  2.4214  2.4808  3.3714
  136SOL    HW2  408   2.685   1.570   0.358  1.3780  0.7788  0.4785
  137SOL     OW  409   2.956   1.775   0.996 -0.1027 -0.1286  0.1870
  137SOL    HW1  410   2.915   1.699   1.050 -2.0146 -1.2691  0.8729
  137SOL    HW2  411   3.042   1.805   1.042 -0.2695  0.7896  2.3742
  138SOL     OW  412   2.675   0.671   1.084 -0.0290 -0.0102 -0.3762
  138SOL    HW1  413   2.666   0.588   1.144 -0.1669 -2.4701 -1.4160
  138SOL    HW2  414   2.623   0.750   1.120 -2.6768  1.5820 -0.7021
  139SOL     OW  415   1.223   2.411   0.003 -0.3582  0.3516  0.2344
  139SOL    HW1  416   1.307   2.472   0.019  0.7475 -0.0745  1.2711
  139SOL    HW2  417   1.170   2.449   3.005  0.9633 -0.8580 -0.0245
  140SOL     OW  418   1.131   1.735   1.188 -0.4630  0.2572  0.4873
  140SOL    HW1  419   1.077   1.736   1.276  0.0401  2.1482 -0.9332
  140SOL    HW2  420   1.124   1.646   1.139 -0.2801 -1.0911 -1.1649
  141SOL     OW  421   1.188   2.210   0.432  0.0130 -0.0166 -0.3578
  141SOL    HW1  422   1.190   2.114   0.398  1.1802  0.6811  1.7456
  141SOL    HW2  423   1.147   2.219   0.523 -0.4522 -1.0473  0.5895
  142SOL     OW  424   0.798   0.459   0.842 -0.3984  0.5242 -0.9499
  142SOL    HW1  425   0.757   0.537   0.793  0.0004  0.5533  1.9117
  142SOL    HW2  426   0.835   0.389   0.776 -0.1574 -1.0941 -1.5739
  143SOL     OW  427   0.805   1.171   3.055  0.1301 -0.2408 -0.5132
  143SOL    HW1  428   0.787   1.233   2.977  1.5260 -0.6301  2.2230
  143SOL    HW2  429   0.789   1.080   3.025 -0.0949  1.2654  1.5948
  144SOL     OW  430   1.761   2.576   0.831 -0.0426 -0.6071  0.2929
  144SOL    HW1  431   1.700   2.612   0.757 -0.1594  2.9450  3.8252
  144SOL    HW2  432   1.823   2.502   0.801  1.9154  2.7234 -0.4753
  145SOL     OW  433   1.956   0.553   2.649 -0.0924 -0.6109 -0.5330
  145SOL    HW1  434   1.944   0.535   2.546 -0.4445  1.5900 -0.7117
  145SOL    HW2  435   2.043   0.513   2.687 -0.8713  1.1694  0.3728
  146SOL     OW  436   0.077   2.908   0.301  0.4983  0.1388 -0.0418
  146SOL    HW1  437   0.042   2.920   0.398  0.2335  1.1303  1.4398
  146SOL    HW2  438   0.091   2.996   0.250  2.1904 -3.7280  1.6958
  147SOL     OW  439   2.037   0.304   2.200  0.4148 -0.0218 -0.4049
  147SOL    HW1  440   2.119   0.282   2.256 -0.3084  2.3280  4.6161
  147SOL    HW2  441   2.062   0.360   2.120 -0.2237 -5.6624  1.8551
  148SOL     OW  442   1.377   0.316   1.996 -0.8599  0.3454 -0.4416
  148SOL    HW1  443   1.352   0.415   1.991  2.4266  2.2818 -1.2408
  148SOL    HW2  444   1.344   0.271   2.081 -0.5818  0.4052 -0.4693
  149SOL     OW  445   1.600   0.377   2.272  0.4655 -0.0640 -0.0700
  149SOL    HW1  446   1.619   0.479   2.254  2.5377  2.5357 -2.9148
  149SOL    HW2  447   1.639   0.317   2.204 -1.9212  3.3174 -0.5154
  150SOL     OW  448   0.014   0.105   2.941  0.0195  0.6689  0.5542
  150SOL    HW1  449   3.045   0.116   3.029  0.0043 -0.6407 -0.9277
  150SOL    HW2  450   3.028   0.087   2.864 -0.4405 -0.7368 -0.0041
  151SOL     OW  451   0.460   1.195   0.319 -0.3714  0.0332  0.1964
  151SOL    HW1  452   0.398   1.182   0.240  1.4262  0.8139 -1.5197
  151SOL    HW2  453   0.544   1.247   0.297 -1.2764 -1.2009  0.3205
  152SOL     OW  454   2.938   0.214   0.479  0.5919  0.2482  0.2021
  152SOL    HW1  455   2.912   0.271   0.398 -0.2178 -0.9193  1.0136
  152SOL    HW2  456   2.957   0.274   0.560 -1.0845 -0.2337 -0.3810
  153SOL     OW  457   2.663   0.474   1.387 -0.0343 -0.3402 -0.1092
  153SOL    HW1  458   2.659   0.448   1.484 -1.1869  0.7713 -0.4992
  153SOL    HW2  459   2.685   0.394   1.329 -1.5472 -2.1607  4.0181
  154SOL     OW  460   1.510   2.888   2.068 -0.4449  0.0161  0.0529
  154SOL    HW1  461   1.517   2.959   1.990 -1.0112  1.9725  0.1344
  154SOL    HW2  462   1.429   2.835   2.049  0.7240 -0.9072  0.5252
  155SOL     OW  463   0.170   1.872   0.720  0.1910 -0.4348 -0.2707
  155SOL    HW1  464   0.212   1.944   0.776  1.1550 -3.9628  0.3600
  155SOL    HW2  465   0.225   1.796   0.689 -4.2950 -0.4382  0.5401
  156SOL     OW  466   2.215   1.927   2.967  0.5805  0.6850  0.0882
  156SOL    HW1  467   2.217   1.902   2.871  0.1928 -0.6949  2.1117
  156SOL    HW2  468   2.202   2.030   2.984  0.8539  1.3370 -1.0388
  157SOL     OW  469   0.913   0.232   0.727  0.0418 -0.3851 -0.1053
  157SOL    HW1  470   0.906   0.311   0.659  0.1281  0.4579 -0.5857
  157SOL    HW2  471   1.007   0.239   0.772  0.4057 -1.0366  0.2461
  158SOL     OW  472   2.376   0.567   2.189  0.2908 -0.1691 -0.0958
  158SOL    HW1  473   2.443   0.493   2.216  1.1964 -2.9931  0.8176
  158SOL    HW2  474   2.408   0.632   2.119 -3.5209  0.1602  0.8712
  159SOL     OW  475   0.160   0.237   0.475  0.0835 -1.3937  0.1903
  159SOL    HW1  476   0.063   0.241   0.450  0.5188  0.9893  2.3785
  159SOL    HW2  477   0.212   0.157   0.436  0.1342 -0.6437 -0.0175
  160SOL     OW  478   1.553   2.014   2.010  0.1192  0.1665  0.0958
  160SOL    HW1  479   1.490   2.032   2.092  0.5047  1.6382 -0.1842
  160SOL    HW2  480   1.555   1.921   1.973  0.4243 -2.8485 -2.2918
  161SOL     OW  481   2.800   0.622   2.552  0.0173  0.0682 -0.1117
  161SOL    HW1  482   2.815   0.673   2.640  1.4022 -1.4844  1.3693
  161SOL    HW2  483   2.859   0.539   2.561 -2.1231  0.6366  1.2457
  162SOL     OW  484   0.924   2.494   1.729  0.2388 -0.7258  0.0196
  162SOL    HW1  485   0.954   2.529   1.637  2.1588  0.8187 -1.8848
  162SOL    HW2  486   0.858   2.563   1.777 -4.3948  4.2191  1.1211
  163SOL     OW  487   2.656   0.178   2.472  0.0979 -0.1065  0.1843
  163SOL    HW1  488   2.647   0.102   2.404  1.5715 -0.7343  0.4942
  163SOL    HW2  489   2.588   0.157   2.545 -1.9855 -1.8458  3.1914
  164SOL     OW  490   1.930   1.546   0.110  0.3688  1.1158 -0.4447
  164SOL    HW1  491   1.888   1.546   0.019  0.5583 -0.0497  0.9666
  164SOL    HW2  492   2.015   1.606   0.106 -1.9482  0.8021 -1.2867
  165SOL     OW  493   2.950   0.339   1.535 -0.5709  0.1650  0.4731
  165SOL    HW1  494   2.987   0.433   1.561 -1.5788 -0.2749  0.8536
  165SOL    HW2  495   3.000   0.306   1.448  0.4387  0.8751 -0.2362
  166SOL     OW  496   2.262   0.553   2.978  0.6975 -0.1098  0.7116
  166SOL    HW1  497   2.361   0.551   2.944  1.4532  1.0338 -1.1128
  166SOL    HW2  498   2.241   0.646   3.003  2.2571  0.8434  0.1471
  167SOL     OW  499   2.684   0.846   2.965 -0.4198 -0.7558 -0.6759
  167SOL    HW1  500   2.727   0.878   3.054 -0.0046  0.0076  1.5158
  167SOL    HW2  501   2.751   0.829   2.889  0.5130 -1.7219  0.8303
  168SOL     OW  502   1.937   2.887   2.782 -0.7235  0.0219 -0.2075
  168SOL    HW1  503   1.970   2.828   2.855 -1.5368  2.5177 -2.0807
  168SOL    HW2  504   1.873   2.963   2.805 -2.8254  1.2859 -1.4808
  169SOL     OW  505   0.132   1.484   0.881 -0.2083  0.7012  0.2180
  169SOL    HW1  506   0.055   1.425   0.854  3.1876 -1.5383  1.6976
  169SOL    HW2  507   0.213   1.462   0.823  0.6562 -1.9737  0.0675
  170SOL     OW  508   2.994   0.722   1.353 -0.3367  0.0133 -0.0948
  170SOL    HW1  509   3.034   0.692   1.443 -3.7724 -0.8771  0.8865
  170SOL    HW2  510   3.048   0.676   1.282  1.4874 -1.2419 -0.8832
  171SOL     OW  511   2.042   2.043   1.976  0.1452  0.2601  0.2933
  171SOL    HW1  512   1.965   2.038   1.906 -0.7693 -1.2703 -0.4269
  171SOL    HW2  513   2.080   1.950   2.012  1.3596 -2.5888  3.7804
  172SOL     OW  514   0.253   2.387   1.509  0.2568 -0.0231 -0.1030
  172SOL    HW1  515   0.247   2.289   1.487  2.4414 -2.4925  1.7093
  172SOL    HW2  516   0.347   2.416   1.537 -0.3159  3.4077 -2.7017
  173SOL     OW  517   1.427   0.948   0.132  0.2735 -0.1648 -0.3091
  173SOL    HW1  518   1.496   0.896   0.183  0.7179  0.5211  0.5767
  173SOL    HW2  519   1.380   0.888   0.066 -1.1356  1.4501  2.8400
  174SOL     OW  520   1.346   3.078   2.544  0.1192 -0.3953  0.3508
  174SOL    HW1  521   1.441   0.020   2.584  0.3551  1.4535 -1.3876
  174SOL    HW2  522   1.303   2.996   2.585  1.0765  2.1606  2.0857
  175SOL     OW  523   1.773   1.803   0.945 -0.3761  0.0638 -0.1025
  175SOL    HW1  524   1.867   1.763   0.947  1.1445 -0.4597  0.7923
  175SOL    HW2  525   1.707   1.735   0.907 -0.2462 -0.3949 -2.5143
  176SOL     OW  526   1.379   0.146   0.118  0.0462  0.0147  0.4530
  176SOL    HW1  527   1.425   0.191   0.201  1.5376  0.6485  1.4684
  176SOL    HW2  528   1.328   0.218   0.064 -3.0376  0.8138  1.9366
  177SOL     OW  529   0.683   0.938   2.904  0.0005 -0.3529 -0.2799
  177SOL    HW1  530   0.594   0.915   2.948 -1.1590 -2.6021  1.5505
  177SOL    HW2  531   0.662   0.988   2.821  0.4162 -0.1837  1.3894
  178SOL     OW  532   2.553   2.522   2.524 -0.7989  0.1347  0.3539
  178SOL    HW1  533   2.542   2.494   2.425  2.9137  0.2002 -2.3151
  178SOL    HW2  534   2.471   2.500   2.578 -2.6405 -0.7854  0.4543
  179SOL     OW  535   2.760   0.182   2.927  0.0968 -0.0735 -0.0177
  179SOL    HW1  536   2.826   0.126   2.874  1.8517 -0.5746 -1.4286
  179SOL    HW2  537   2.701   0.118   2.979 -0.8151 -3.7531 -0.5665
  180SOL     OW  538   1.778   1.173   0.634 -0.2633 -0.1796  0.3895
  180SOL    HW1  539   1.752   1.076   0.630 -0.6867 -0.3917 -2.2906
  180SOL    HW2  540   1.867   1.188   0.680  3.5476  0.2502 -0.5576
  181SOL     OW  541   1.964   1.464   2.587  0.2272  0.6387  0.1683
  181SOL    HW1  542   1.983   1.562   2.558  0.9728 -0.9731 -0.1607
  181SOL    HW2  543   1.862   1.457   2.594  0.2373 -1.8449 -0.6009
  182SOL     OW  544   2.785   2.630   2.539  0.3249 -0.0219 -0.0286
  182SOL    HW1  545   2.764   2.677   2.452 -0.3760 -0.7203  1.7361
  182SOL    HW2  546   2.700   2.583   2.556  1.7431  1.5401  0.5529
  183SOL     OW  547   1.934   0.854   2.265  0.1161  0.2154  0.7080
  183SOL    HW1  548   1.940   0.936   2.201  0.3096  2.0773 -2.9466
  183SOL    HW2  549   2.020   0.800   2.280 -0.5793 -0.4411 -0.3158
  184SOL     OW  550   0.091   1.313   1.682 -0.0369 -0.3210  0.1948
  184SOL    HW1  551   0.150   1.346   1.606  0.5868  2.5229  2.0812
  184SOL    HW2  552   0.083   1.390   1.746  2.1707  1.2652  2.0080
  185SOL     OW  553   1.666   0.385   0.759  0.5594  0.3770 -0.2809
  185SOL    HW1  554   1.663   0.398   0.857 -2.0501 -2.9886 -2.5342
  185SOL    HW2  555   1.573   0.384   0.721 -0.3663  0.3577  1.0726
  186SOL     OW  556   0.244   2.504   2.793 -0.8161  0.3578 -0.1087
  186SOL    HW1  557   0.169   2.456   2.739  0.8687 -1.5296 -1.7372
  186SOL    HW2  558   0.269   2.593   2.745  1.3761  0.3859  0.8435
  187SOL     OW  559   2.655   1.186   0.543  0.1048 -0.0360  0.0412
  187SOL    HW1  560   2.695   1.266   0.592 -2.0650 -1.4030  0.6106
  187SOL    HW2  561   2.565   1.170   0.581  2.0352  1.3360 -0.8898
  188SOL     OW  562   2.440   1.410   1.209 -0.4363 -0.1793  0.3598
  188SOL    HW1  563   2.504   1.346   1.263 -1.1117 -1.6904 -0.9583
  188SOL    HW2  564   2.465   1.401   1.106  3.0406 -1.7483  0.8184
  189SOL     OW  565   2.872   0.338   2.448  0.3839 -0.6077  0.1281
  189SOL    HW1  566   2.785   0.287   2.433 -1.9156  0.8391  1.5488
  189SOL    HW2  567   2.886   0.404   2.371 -0.6520  0.6403 -2.6425
  190SOL     OW  568   1.302   1.064   1.571 -0.8087 -0.5039  0.3277
  190SOL    HW1  569   1.365   1.146   1.584  2.1565 -0.8752  1.1394
  190SOL    HW2  570   1.205   1.102   1.567 -4.3609 -2.1112 -1.3973
  191SOL     OW  571   0.688   0.448   1.989  0.3156 -0.2298 -0.2182
  191SOL    HW1  572   0.651   0.469   1.898  3.3603  2.1755 -1.9964
  191SOL    HW2  573   0.758   0.374   1.978  1.2858  1.5911 -1.1133
  192SOL     OW  574   1.769   2.111   1.321  0.1854  0.4579  0.0004
  192SOL    HW1  575   1.749   2.069   1.411  3.4540 -2.4084 -0.5131
  192SOL    HW2  576   1.704   2.189   1.311  0.0550  1.9184  1.5258
  193SOL     OW  577   1.721   0.591   1.286  0.1583 -0.4452 -0.2557
  193SOL    HW1  578   1.655   0.518   1.324 -3.9898 -0.8004  0.7510
  193SOL    HW2  579   1.726   0.585   1.185  1.2900  1.2232  0.8586
  194SOL     OW  580   0.625   2.088   1.219 -0.2140  0.0594  0.5048
  194SOL    HW1  581   0.531   2.052   1.218  0.3515  1.5445 -0.4285
  194SOL    HW2  582   0.658   2.102   1.124  0.7849  0.8706 -0.6586
  195SOL     OW  583   1.539   0.307   0.308  0.1662  0.4855  0.6741
  195SOL    HW1  584   1.606   0.232   0.322  2.9529 -0.3930  2.1837
  195SOL    HW2  585   1.578   0.380   0.247 -2.2028  1.4468  2.0061
  196SOL     OW  586   0.284   1.364   1.499 -0.5355  0.3781  0.0842
  196SOL    HW1  587   0.301   1.465   1.483 -1.0256 -2.1359 -2.3579
  196SOL    HW2  588   0.360   1.334   1.556 -1.7819 -0.1348 -0.8328
  197SOL     OW  589   0.820   0.085   1.642 -0.3725 -0.1076 -0.3427
  197SOL    HW1  590   0.894   0.096   1.575  0.0863  1.7707 -1.1309
  197SOL    HW2  591   0.839   0.138   1.728 -0.5091  0.9118 -0.5592
  198SOL     OW  592   0.755   1.232   1.141 -0.3582 -0.3402 -0.3894
  198SOL    HW1  593   0.758   1.303   1.215  0.7692 -1.2556 -1.3867
  198SOL    HW2  594   0.694   1.162   1.166  4.1269  2.5019 -2.8022
  199SOL     OW  595   0.016   2.445   1.639  0.2950 -0.9263 -0.2308
  199SOL    HW1  596   0.057   2.525   1.684  2.9696  0.1806  0.3828
  199SOL    HW2  597   0.089   2.398   1.586 -0.5864 -0.5194 -1.7559
  200SOL     OW  598   1.751   1.573   1.779  0.4445  0.3931  0.1798
  200SOL    HW1  599   1.834   1.632   1.772  0.9297  3.5169  1.9045
  200SOL    HW2  600   1.767   1.509   1.858 -0.2768  0.7139 -0.6625
  201SOL     OW  601   0.538   1.996   2.153 -0.2899  0.0658  0.8333
  201SOL    HW1  602   0.583   2.043   2.227 -1.4922 -0.6355  0.4376
  201SOL    HW2  603   0.442   2.019   2.157  2.4206 -0.3321 -0.4615
  202SOL     OW  604   1.518   0.592   3.022  0.2324 -0.2587 -0.1955
  202SOL    HW1  605   1.596   0.607   2.954  1.8178  0.6641 -4.0628
  202SOL    HW2  606   1.470   0.682   3.045 -0.3284  0.2648 -1.3906
  203SOL     OW  607   1.273   2.686   1.949  0.4946  0.1570 -0.0076
  203SOL    HW1  608   1.357   2.632   1.952 -0.0280  0.2476  2.2559
  203SOL    HW2  609   1.200   2.614   1.949  1.2875 -0.3855  0.9646
  204SOL     OW  610   0.566   1.938   1.747 -0.1929 -0.4299 -0.0239
  204SOL    HW1  611   0.570   1.974   1.655  1.4383 -0.5038  0.4767
  204SOL    HW2  612   0.474   1.899   1.768  0.6146  2.2661  0.7681
  205SOL     OW  613   1.589   1.780   1.833 -0.0536  0.4006 -0.1633
  205SOL    HW1  614   1.645   1.699   1.806  0.6165  0.9471  1.1227
  205SOL    HW2  615   1.490   1.750   1.857 -1.8724  0.9759  0.7147
  206SOL     OW  616   0.199   1.502   2.003  0.7282  0.2505  0.4857
  206SOL    HW1  617   0.245   1.409   2.003 -0.1977 -0.1020  1.0071
  206SOL    HW2  618   0.153   1.520   2.092  1.5452  2.2779  1.0979
  207SOL     OW  619   0.747   2.831   2.068  0.3624  0.2122  0.3067
  207SOL    HW1  620   0.655   2.878   2.051  1.0356 -0.0245 -1.1941
  207SOL    HW2  621   0.801   2.896   2.131  3.4641  1.2096 -2.7331
  208SOL     OW  622   0.500   2.527   1.946  0.6330  0.0813  0.4717
  208SOL    HW1  623   0.515   2.594   1.868  0.7637  0.4942 -0.0577
  208SOL    HW2  624   0.522   2.428   1.924  0.9586  0.1856 -1.0309
  209SOL     OW  625   1.317   2.855   0.373  0.5969 -0.4924  0.2039
  209SOL    HW1  626   1.388   2.816   0.434 -1.8262  1.6357 -1.0337
  209SOL    HW2  627   1.289   2.943   0.414  1.9813  1.8992 -1.2286
  210SOL     OW  628   2.485   0.474   0.649 -0.4241  0.0111 -0.3231
  210SOL    HW1  629   2.518   0.396   0.590  3.0568  0.0352 -2.0026
  210SOL    HW2  630   2.519   0.567   0.619  2.3209  0.2296 -1.2359
  211SOL     OW  631   0.516   0.427   1.489 -0.2528 -0.3127  0.0844
  211SOL    HW1  632   0.502   0.496   1.417 -0.2284  4.0744  0.1568
  211SOL    HW2  633   0.564   0.470   1.571  1.7265 -2.2694  0.8975
  212SOL     OW  634   1.504   2.417   1.476  0.0164  0.2774  0.2191
  212SOL    HW1  635   1.544   2.373   1.562  0.5991  0.4250 -2.3471
  212SOL    HW2  636   1.526   2.359   1.393  0.7293  2.1618 -3.2930
  213SOL     OW  637   2.864   0.287   1.843  0.4272 -0.2777  0.4528
  213SOL    HW1  638   2.778   0.250   1.800 -3.0513 -1.5082  0.3439
  213SOL    HW2  639   2.941   0.270   1.781  1.0571  0.4232 -1.0988
  214SOL     OW  640   0.625   2.509   2.192  0.0161 -0.0208 -0.1462
  214SOL    HW1  641   0.572   2.524   2.107 -1.6193 -2.0287  1.4074
  214SOL    HW2  642   0.730   2.520   2.191  4.5081  0.2499 -1.3445
  215SOL     OW  643   2.749   1.544   1.620 -0.4806 -0.5102  0.1042
  215SOL    HW1  644   2.824   1.605   1.644  0.3068 -2.1346  2.3491
  215SOL    HW2  645   2.731   1.550   1.523  0.8238  2.7568 -0.0718
  216SOL     OW  646   0.641   1.096   2.257  0.4884 -0.3626 -0.8098
  216SOL    HW1  647   0.577   1.164   2.219 -1.1897 -0.8776 -0.9488
  216SOL    HW2  648   0.604   1.043   2.332 -1.4117  2.9607  0.2361
  217SOL     OW  649   2.667   0.349   1.105  0.1465 -0.3716 -0.1573
  217SOL    HW1  650   2.592   0.287   1.135  1.0373  3.5805  1.5683
  217SOL    HW2  651   2.749   0.297   1.086 -0.4474 -0.6351 -0.5614
  218SOL     OW  652   1.251   2.061   0.904  0.6891  0.3303 -0.1290
  218SOL    HW1  653   1.301   2.053   0.815 -0.3170 -1.1041 -0.3550
  218SOL    HW2  654   1.176   2.125   0.898  3.4015 -0.0266 -0.5348
  219SOL     OW  655   2.055   2.582   0.557  0.0830 -0.6953  0.2599
  219SOL    HW1  656   2.113   2.552   0.483  0.6392 -2.1439  1.2903
  219SOL    HW2  657   1.981   2.642   0.518 -1.5968  0.9977 -0.4308
  220SOL     OW  658   1.766   2.351   0.065 -0.6232  0.5477  0.1247
  220SOL    HW1  659   1.705   2.360   3.062 -0.3484 -0.3466 -0.4757
  220SOL    HW2  660   1.790   2.255   0.086 -0.6652  0.0109 -0.8876
  221SOL     OW  661   2.920   1.915   0.273  0.3638 -0.2031 -0.1841
  221SOL    HW1  662   2.847   1.988   0.276  1.5155  0.5252  2.0745
  221SOL    HW2  663   2.955   1.882   0.363 -2.1433  0.6451 -2.2537
  222SOL     OW  664   0.606   2.372   0.858  0.0145  0.1260 -0.6587
  222SOL    HW1  665   0.553   2.400   0.773  2.1767 -2.1263 -5.7696
  222SOL    HW2  666   0.705   2.403   0.853  2.2690 -0.5487 -0.2254
  223SOL     OW  667   1.079   0.185   0.318  0.3652  0.5079  0.4113
  223SOL    HW1  668   1.143   0.121   0.366  1.3487  1.8875 -0.7811
  223SOL    HW2  669   1.032   0.137   0.242  3.8458 -2.0429 -1.1259
  224SOL     OW  670   2.793   1.340   1.130 -0.1897 -0.3567  0.0418
  224SOL    HW1  671   2.801   1.260   1.065 -1.8350 -0.9591  1.0177
  224SOL    HW2  672   2.750   1.308   1.216  2.0213 -0.8931 -2.2935
  225SOL     OW  673   0.076   1.883   1.162 -0.5737  0.2888  0.2474
  225SOL    HW1  674   0.127   1.936   1.094  0.1829  1.1018 -0.8795
  225SOL    HW2  675   0.124   1.795   1.171 -1.4665  3.5049 -0.1275
  226SOL     OW  676   0.830   2.901   0.961 -0.0641  0.1241 -0.0642
  226SOL    HW1  677   0.760   2.950   0.906  0.0493  0.4965  0.0168
  226SOL    HW2  678   0.877   2.967   1.020 -5.1883  1.1831  0.7432
  227SOL     OW  679   1.010   1.386   1.669  0.6556 -0.0133 -0.0595
  227SOL    HW1  680   1.008   1.478   1.717 -0.3763  1.4750  3.3393
  227SOL    HW2  681   1.035   1.400   1.571  1.1400 -2.2096 -0.1154
  228SOL     OW  682   0.880   0.254   1.929 -0.1211  0.7526  0.3095
  228SOL    HW1  683   0.894   0.160   1.963  0.2078  1.9120 -0.5358
  228SOL    HW2  684   0.943   0.325   1.955 -3.3855  2.0310  2.1039
  229SOL     OW  685   0.092   0.836   2.439 -0.2519 -0.2838  0.6338
  229SOL    HW1  686   0.083   0.812   2.539  2.0741  1.3089 -0.5900
  229SOL    HW2  687   0.152   0.917   2.427 -1.4231 -0.7152  2.4609
  230SOL     OW  688   3.059   0.746   0.847  0.0736  0.8725 -0.5794
  230SOL    HW1  689   2.987   0.676   0.864 -0.1876  3.0406 -1.5880
  230SOL    HW2  690   3.034   0.832   0.892  0.5845  0.2756  0.9015
  231SOL     OW  691   1.364   3.055   2.282  0.3990  0.5269  0.0792
  231SOL    HW1  692   1.404   2.974   2.241 -1.3276 -2.2924 -1.1610
  231SOL    HW2  693   1.335   3.041   2.385 -1.7163 -2.2551  5.6923
  232SOL     OW  694   0.094   1.992   0.194 -0.0551 -0.1218 -0.2127
  232SOL    HW1  695   0.148   1.969   0.278 -0.6559  0.4263 -0.7276
  232SOL    HW2  696   3.077   1.956   0.196  0.3379 -2.5554 -1.1348
  233SOL     OW  697   1.394   2.397   2.753  0.4031 -0.0276  0.3601
  233SOL    HW1  698   1.367   2.305   2.717  1.8347  1.9432 -0.7927
  233SOL    HW2  699   1.344   2.476   2.700  0.5071 -1.9310 -1.2722
  234SOL     OW  700   0.668   1.142   1.776  0.4792 -0.5330 -0.4204
  234SOL    HW1  701   0.694   1.059   1.722  1.8586 -1.0262 -0.0155
  234SOL    HW2  702   0.750   1.186   1.811  1.3192 -1.7715  2.7151
  235SOL     OW  703   0.039   2.353   2.342 -0.4401 -0.6235 -0.0188
  235SOL    HW1  704   0.050   2.273   2.397  2.0635  0.9594 -1.2829
  235SOL    HW2  705   0.084   2.348   2.254  0.9968  1.2367  2.3687
  236SOL     OW  706   1.664   1.720   2.749 -0.1480 -0.3539 -0.0151
  236SOL    HW1  707   1.735   1.792   2.747 -1.4546 -1.1244  3.2068
  236SOL    HW2  708   1.577   1.753   2.701 -1.2628 -0.6336 -0.2693
  237SOL     OW  709   1.408   0.663   0.601 -0.5940  0.5742 -0.4692
  237SOL    HW1  710   1.335   0.715   0.649  0.4864  0.3760 -0.3589
  237SOL    HW2  711   1.499   0.716   0.583 -0.1969  0.2108 -0.4097
  238SOL     OW  712   0.876   2.596   2.122  0.0847 -0.2924  0.3349
  238SOL    HW1  713   0.817   2.681   2.116 -0.3435 -0.6641  2.9404
  238SOL    HW2  714   0.925   2.572   2.036 -1.1740  0.5560 -3.1412
  239SOL     OW  715   1.108   2.486   1.936  0.5764  0.3713  0.1234
  239SOL    HW1  716   1.061   2.489   1.843  0.2500  1.3737  0.1250
  239SOL    HW2  717   1.146   2.392   1.958  1.5534 -3.5318  1.7152
  240SOL     OW  718   1.795   3.019   0.843 -0.4706  0.2214  0.2502
  240SOL    HW1  719   1.848   2.932   0.871  2.2627 -0.3800  1.8261
  240SOL    HW2  720   1.849   3.075   0.775 -0.4588 -0.8997 -1.6102
  241SOL     OW  721   1.123   1.215   2.280 -0.3303  0.5163 -0.1823
  241SOL    HW1  722   1.115   1.116   2.313 -1.1823  0.2678  0.5424
  241SOL    HW2  723   1.032   1.260   2.279  1.7977  0.7501 -1.8824
  242SOL     OW  724   2.522   0.571   2.872  0.0306 -0.6099  0.7401
  242SOL    HW1  725   2.571   0.634   2.932 -1.2408 -1.0752  0.7649
  242SOL    HW2  726   2.507   0.620   2.778  1.7700 -1.2788 -3.9830
  243SOL     OW  727   0.881   0.508   1.416 -0.2579 -0.3061  0.2533
  243SOL    HW1  728   0.868   0.424   1.365  2.1038  1.0050 -1.3613
  243SOL    HW2  729   0.960   0.561   1.383  0.1936  0.6363 -0.5787
  244SOL     OW  730   1.336   2.789   3.004  0.1720  0.2106  0.3246
  244SOL    HW1  731   1.241   2.827   2.996 -0.6924 -1.4149  0.2241
  244SOL    HW2  732   1.410   2.856   3.025 -0.5510 -2.1383  2.4328
  245SOL     OW  733   2.023   2.713   3.002  0.1242 -0.0374  0.3382
  245SOL    HW1  734   1.943   2.706   3.061  2.1743 -2.4038 -1.4711
  245SOL    HW2  735   2.095   2.771   3.040 -0.6078 -2.7598 -1.8149
  246SOL     OW  736   0.713   0.735   1.440  0.0563 -0.2181  0.1566
  246SOL    HW1  737   0.624   0.717   1.402  0.3006  1.9223 -1.4234
  246SOL    HW2  738   0.764   0.648   1.447 -2.0505  0.0385 -0.2333
  247SOL     OW  739   0.418   0.401   1.815  0.1462 -0.0884  0.1779
  247SOL    HW1  740   0.391   0.359   1.899  1.3073  0.6678 -0.8896
  247SOL    HW2  741   0.352   0.385   1.742  3.1795  0.3367  2.5968
  248SOL     OW  742   2.965   1.560   1.886  0.0740  0.7339 -0.0504
  248SOL    HW1  743   2.972   1.466   1.917 -0.1827  0.4441 -2.6516
  248SOL    HW2  744   2.884   1.611   1.925 -2.3658  1.3877  0.1407
  249SOL     OW  745   0.158   0.297   2.824  0.2296 -0.1154  0.3987
  249SOL    HW1  746   0.231   0.275   2.757  0.2229 -0.2829 -0.8314
  249SOL    HW2  747   0.113   0.213   2.864  0.3937  0.3067  3.3191
  250SOL     OW  748   2.983   0.154   0.125  0.2601  0.1458  0.1128
  250SOL    HW1  749   2.975   0.250   0.165 -0.2948  2.9026  0.3766
  250SOL    HW2  750   2.904   0.099   0.161 -0.8508  3.5837  1.1003
  251SOL     OW  751   0.821   1.828   1.734  0.4421 -0.4392 -0.2457
  251SOL    HW1  752   0.870   1.910   1.702 -1.9363  0.1401  1.5688
  251SOL    HW2  753   0.717   1.835   1.744 -0.5916 -1.4616  2.8749
  252SOL     OW  754   1.949   2.166   1.129  0.0640 -0.1770  0.0745
  252SOL    HW1  755   1.867   2.150   1.187  1.2356  1.5746  1.0881
  252SOL    HW2  756   2.015   2.234   1.166  1.4829  1.2480 -1.2290
  253SOL     OW  757   1.750   1.871   2.437  0.1125  0.1765  0.3510
  253SOL    HW1  758   1.825   1.856   2.367 -1.4358 -0.4290  1.3574
  253SOL    HW2  759   1.745   1.969   2.469  0.7735  2.1639  0.8878
  254SOL     OW  760   0.819   2.234   2.177  0.2955 -0.2817 -0.2469
  254SOL    HW1  761   0.804   2.167   2.101 -0.3608 -0.8198  0.6061
  254SOL    HW2  762   0.754   2.311   2.161 -1.5005  1.1637 -0.7121
  255SOL     OW  763   1.026   0.074   1.469 -0.0436  0.4804  0.5608
  255SOL    HW1  764   1.092   0.060   1.393 -1.4673 -2.9122 -1.3971
  255SOL    HW2  765   1.073   0.059   1.558 -1.4021 -2.0132 -1.2825
  256SOL     OW  766   2.413   2.172   1.453 -0.1071 -0.5855  0.1121
  256SOL    HW1  767   2.339   2.154   1.386 -0.7446 -0.7302 -1.9917
  256SOL    HW2  768   2.503   2.194   1.402  3.3889 -1.1825 -0.2328
  257SOL     OW  769   0.313   2.200   2.774  0.6111  0.4064 -0.3529
  257SOL    HW1  770   0.247   2.251   2.835  2.4579  3.0282  2.9255
  257SOL    HW2  771   0.386   2.263   2.746 -2.5939 -0.9257 -0.2577
  258SOL     OW  772   0.345   1.444   2.832  0.5223  0.1198  0.1627
  258SOL    HW1  773   0.259   1.491   2.808  1.1416 -2.3786 -0.0370
  258SOL    HW2  774   0.367   1.371   2.765 -0.7377 -1.4744 -0.3211
  259SOL     OW  775   0.660   1.494   2.170  0.0303  0.1399  0.1063
  259SOL    HW1  776   0.640   1.566   2.097 -0.7745  1.2512  0.4024
  259SOL    HW2  777   0.740   1.516   2.226 -0.3821 -0.3098  0.8069
  260SOL     OW  778   1.830   0.831   1.339  0.2362 -0.0015  0.1518
  260SOL    HW1  779   1.775   0.901   1.287 -0.2222  0.0790 -0.6756
  260SOL    HW2  780   1.807   0.742   1.305 -2.5790  2.4590  1.2141
  261SOL     OW  781   1.161   3.054   0.736 -0.0331 -0.5360  0.5582
  261SOL    HW1  782   1.201   3.036   0.825 -0.0242 -0.7359 -4.6409
  261SOL    HW2  783   1.101   2.981   0.703 -1.2352  1.1194  0.5101
  262SOL     OW  784   2.021   2.171   2.583 -0.6263 -0.0952 -0.1267
  262SOL    HW1  785   2.058   2.135   2.497  0.2992 -0.5568  0.0879
  262SOL    HW2  786   1.955   2.248   2.566  0.0465  0.6690  0.6162
  263SOL     OW  787   0.101   1.562   2.841  0.3287  0.0140  0.0916
  263SOL    HW1  788   0.120   1.641   2.896  0.3940 -2.4364  0.1539
  263SOL    HW2  789   0.065   1.486   2.899 -2.0485 -0.0620 -0.0732
  264SOL     OW  790   0.404   1.932   1.260 -0.0206 -0.4435 -0.0252
  264SOL    HW1  791   0.414   1.848   1.201 -2.0426 -0.4815 -0.9491
  264SOL    HW2  792   0.349   1.911   1.339 -0.7253  1.0786  1.6249
  265SOL     OW  793   0.635   0.894   0.882 -0.3968  0.2446  0.0606
  265SOL    HW1  794   0.733   0.923   0.900  1.0175 -0.5358 -0.3015
  265SOL    HW2  795   0.589   0.976   0.843 -0.9053  0.2337  0.4628
  266SOL     OW  796   1.438   1.627   0.170 -0.4489  0.0137  0.1003
  266SOL    HW1  797   1.500   1.634   0.086  0.8005  0.1319 -1.0091
  266SOL    HW2  798   1.462   1.682   0.250 -0.0886 -1.4752 -3.6860
  267SOL     OW  799   0.780   0.950   2.575  0.0764  0.3262  0.1541
  267SOL    HW1  800   0.854   0.978   2.518 -2.0066  0.0670 -0.5782
  267SOL    HW2  801   0.741   0.858   2.550 -1.7861  0.9375  1.2954
  268SOL     OW  802   0.842   0.694   2.943 -0.1187 -0.1311 -0.3955
  268SOL    HW1  803   0.790   0.695   3.033  0.6940  0.2464 -0.7282
  268SOL    HW2  804   0.811   0.780   2.900  3.3990 -1.4872 -1.2037
  269SOL     OW  805   1.841   2.895   2.424 -0.6885 -0.0849  0.0001
  269SOL    HW1  806   1.901   2.950   2.490  1.8714 -1.4578 -0.2541
  269SOL    HW2  807   1.794   2.955   2.358  2.6722  1.3301  1.6313
  270SOL     OW  808   1.159   1.222   2.727  0.0550 -0.7999 -0.1320
  270SOL    HW1  809   1.260   1.226   2.737  0.8136 -0.0049 -1.6411
  270SOL    HW2  810   1.122   1.132   2.755  0.4280  0.3404 -1.9926
  271SOL     OW  811   3.030   0.566   0.106 -0.1282 -0.3609 -0.1216
  271SOL    HW1  812   0.052   0.573   0.103 -2.2076 -1.1665 -0.6910
  271SOL    HW2  813   2.994   0.528   0.015  0.6732  0.1540  0.8819
  272SOL     OW  814   2.278   1.207   2.599 -0.4620 -0.1575  0.0617
  272SOL    HW1  815   2.209   1.208   2.670  1.6522 -1.1302 -0.5703
  272SOL    HW2  816   2.346   1.128   2.607  2.1417 -3.1346 -0.5250
  273SOL     OW  817   0.246   0.193   2.196  0.4378 -0.2999 -0.4004
  273SOL    HW1  818   0.230   0.097   2.224 -0.0032  1.5842 -0.4503
  273SOL    HW2  819   0.240   0.258   2.277 -0.6324  0.9323 -0.0298
  274SOL     OW  820   0.127   0.329   2.002  0.0731  0.6994  0.0704
  274SOL    HW1  821   0.062   0.264   1.954 -2.2297 -0.8205  2.5174
  274SOL    HW2  822   0.188   0.275   2.064  0.4315 -2.6844 -0.5207
  275SOL     OW  823   1.671   1.461   0.699 -0.7067 -0.2765 -0.3748
  275SOL    HW1  824   1.665   1.368   0.663  1.7070  1.5370 -0.4765
  275SOL    HW2  825   1.682   1.530   0.626  3.1103  0.8957  0.9418
  276SOL     OW  826   0.485   0.947   2.437  0.5540  0.5756 -0.2064
  276SOL    HW1  827   0.467   0.847   2.433 -1.6679  0.8057  1.3059
  276SOL    HW2  828   0.498   0.977   2.531  1.7292 -0.6188  2.6772
  277SOL     OW  829   1.921   2.641   2.465 -0.3465 -0.4037  0.2109
  277SOL    HW1  830   2.017   2.636   2.432 -0.6228  1.9473 -0.1442
  277SOL    HW2  831   1.881   2.731   2.446  0.4605 -1.3146 -1.6222
  278SOL     OW  832   1.901   0.213   1.855 -0.4985 -0.1892  0.3086
  278SOL    HW1  833   1.901   0.315   1.853 -1.2872 -2.3444 -1.1076
  278SOL    HW2  834   1.905   0.164   1.766  4.1882 -1.3740  2.3521
  279SOL     OW  835   1.455   1.183   0.005  0.4980 -0.1468 -0.8008
  279SOL    HW1  836   1.381   1.237   0.045  0.2794  0.3352 -0.6536
  279SOL    HW2  837   1.456   1.092   0.050  1.7093  3.2087 -0.5504
  280SOL     OW  838   0.672   1.311   0.180  0.2764  0.2753  0.4830
  280SOL    HW1  839   0.744   1.308   0.252 -2.8526 -1.3090 -0.0759
  280SOL    HW2  840   0.717   1.288   0.090  0.2584  0.6409 -1.7414
  281SOL     OW  841   2.938   2.846   1.539 -0.1683  0.7395 -0.5613
  281SOL    HW1  842   3.039   2.845   1.565 -0.6775  0.8664  1.3389
  281SOL    HW2  843   2.898   2.930   1.571  0.5667 -1.5128 -0.2510
  282SOL     OW  844   0.012   2.341   0.809 -0.3744  0.4397  0.1393
  282SOL    HW1  845   0.088   2.349   0.741  0.0995 -0.5436 -2.1368
  282SOL    HW2  846   3.003   2.370   0.767  1.4694 -1.9295 -0.1818
  283SOL     OW  847   1.119   1.839   2.031  0.3308 -0.1589 -0.1659
  283SOL    HW1  848   1.147   1.860   2.125  1.2058  0.6078 -4.0376
  283SOL    HW2  849   1.019   1.806   2.032  1.1641 -0.4755 -1.3595
  284SOL     OW  850   1.913   0.326   0.413  0.3562 -0.2003 -0.0714
  284SOL    HW1  851   1.969   0.245   0.406  0.5322  0.2383 -3.0877
  284SOL    HW2  852   1.965   0.411   0.380  1.8272  3.1862  0.2266
  285SOL     OW  853   0.284   2.753   2.430  0.6455  0.4133  0.1392
  285SOL    HW1  854   0.206   2.698   2.401 -2.0524 -0.7534 -0.3775
  285SOL    HW2  855   0.369   2.724   2.376  1.0444  2.1194  0.1878
  286SOL     OW  856   2.172   2.602   1.341 -0.0077  0.5265  0.1385
  286SOL    HW1  857   2.274   2.591   1.332 -2.2165 -1.4534 -2.0099
  286SOL    HW2  858   2.138   2.687   1.298 -1.2021 -0.2902 -0.6128
  287SOL     OW  859   0.672   1.560   1.114 -0.6498  0.0522 -0.0337
  287SOL    HW1  860   0.662   1.494   1.035 -0.3945  0.3631 -0.8352
  287SOL    HW2  861   0.747   1.627   1.101 -0.6955  2.3399 -0.0766
  288SOL     OW  862   1.876   2.153   2.847  0.2814 -0.1478  0.3398
  288SOL    HW1  863   1.781   2.132   2.853  2.5613 -0.2191  0.1426
  288SOL    HW2  864   1.896   2.145   2.749 -0.1139 -1.8909 -0.5728
  289SOL     OW  865   0.472   1.910   2.453  0.1824  0.4521 -0.4069
  289SOL    HW1  866   0.552   1.958   2.414 -0.1005  0.0374 -0.2148
  289SOL    HW2  867   0.466   1.927   2.551 -1.0376 -1.4467  1.0042
  290SOL     OW  868   1.067   2.260   1.025 -0.2588  0.4669 -0.1745
  290SOL    HW1  869   1.153   2.312   1.040 -0.6341  1.8516  1.3054
  290SOL    HW2  870   1.063   2.171   1.073 -0.3386  1.3080  0.5086
  291SOL     OW  871   1.651   1.355   3.026  0.4140  0.2422 -0.0387
  291SOL    HW1  872   1.728   1.339   0.016  0.8479  0.4114  0.9584
  291SOL    HW2  873   1.584   1.277   3.038 -1.5729  0.8552  1.6031
  292SOL     OW  874   1.217   1.205   0.826 -0.2083 -0.2532 -0.0058
  292SOL    HW1  875   1.170   1.181   0.911 -3.0608  0.4014  0.9839
  292SOL    HW2  876   1.291   1.139   0.803  0.0329  0.0953  1.0031
  293SOL     OW  877   1.336   2.930   1.149 -0.3388  0.1679 -0.3198
  293SOL    HW1  878   1.434   2.924   1.176 -0.2858  2.8614  0.5619
  293SOL    HW2  879   1.321   2.908   1.051  4.0531 -1.0339 -0.3183
  294SOL     OW  880   2.776   1.034   2.597  0.1041  0.3814 -0.2663
  294SOL    HW1  881   2.807   1.098   2.674  1.7978 -0.1772  5.0837
  294SOL    HW2  882   2.815   1.067   2.508 -0.8723  0.2329 -1.6073
  295SOL     OW  883   1.545   2.008   2.646  0.6419  0.1321  0.6844
  295SOL    HW1  884   1.571   2.063   2.729 -1.6214 -0.1178  1.6244
  295SOL    HW2  885   1.597   2.036   2.559  0.7973 -1.0389 -0.0913
  296SOL     OW  886   2.152   1.080   2.309  0.5376 -0.4999 -0.0337
  296SOL    HW1  887   2.086   1.076   2.234  1.9827 -0.7931  2.2269
  296SOL    HW2  888   2.111   1.128   2.394 -1.8294 -0.0466  2.3055
  297SOL     OW  889   0.258   0.814   2.143 -0.2657 -0.2353  0.2602
  297SOL    HW1  890   0.214   0.783   2.054  0.7467 -0.2519  1.7651
  297SOL    HW2  891   0.218   0.907   2.164  1.6579  0.1512 -0.3130
  298SOL     OW  892   1.153   1.979   2.285  0.0600  0.4188  0.3873
  298SOL    HW1  893   1.112   2.070   2.285  0.2499 -2.3780  0.8037
  298SOL    HW2  894   1.131   1.934   2.374 -1.1820  1.1904 -0.5489
  299SOL     OW  895   0.681   2.913   2.456 -0.4193 -0.0821 -0.2670
  299SOL    HW1  896   0.738   2.935   2.374  1.3068  1.2508  1.4891
  299SOL    HW2  897   0.616   2.837   2.434 -4.0336 -1.8080  0.9795
  300SOL     OW  898   0.088   1.057   2.843  0.4646  0.0133 -0.1037
  300SOL    HW1  899   0.084   1.103   2.935  2.5340  0.7645 -1.3540
  300SOL    HW2  900   0.105   1.127   2.773  1.8404  0.8803 -1.4519
  301SOL     OW  901   1.466   1.271   1.589  0.4269 -0.3101  0.9803
  301SOL    HW1  902   1.529   1.200   1.627  0.8576  0.0655  1.0998
  301SOL    HW2  903   1.462   1.349   1.653  0.9564 -2.1583 -3.4788
  302SOL     OW  904   2.606   1.954   2.233 -0.0176 -0.0909 -0.5255
  302SOL    HW1  905   2.651   2.025   2.290 -2.4830 -0.2081 -0.2515
  302SOL    HW2  906   2.523   1.996   2.196  0.3027 -1.5727 -2.4293
  303SOL     OW  907   0.016   0.176   2.501 -0.0350  0.7959 -0.6458
  303SOL    HW1  908   0.100   0.223   2.466  3.4158  1.5457 -0.9370
  303SOL    HW2  909   3.010   0.233   2.492 -2.0380  0.0948 -0.0701
  304SOL     OW  910   0.025   0.653   1.607 -0.2347 -0.2988 -0.0076
  304SOL    HW1  911   0.122   0.686   1.586  0.6591  0.5546 -3.8740
  304SOL    HW2  912   0.032   0.579   1.678 -1.2548 -0.6903  2.2145
  305SOL     OW  913   2.817   3.036   1.686 -0.1833  0.5748  0.2513
  305SOL    HW1  914   2.846   3.054   1.783 -1.0462  0.5736 -2.2353
  305SOL    HW2  915   2.760   0.035   1.661 -0.6890 -0.8918 -0.6180
  306SOL     OW  916   2.673   1.260   1.355  0.1761  0.7936 -0.0031
  306SOL    HW1  917   2.650   1.163   1.383  3.5566 -0.5510  1.7129
  306SOL    HW2  918   2.750   1.292   1.413  1.4840 -0.8712 -1.4649
  307SOL     OW  919   2.031   0.243   1.093  0.2700 -0.1881 -0.4700
  307SOL    HW1  920   1.959   0.224   1.025  0.6555 -3.1372  2.6066
  307SOL    HW2  921   2.128   0.249   1.058  2.5079 -2.8220  1.1895
  308SOL     OW  922   2.987   2.084   1.222  0.2415 -0.3261 -0.3154
  308SOL    HW1  923   2.916   2.091   1.148 -0.9910  1.0602 -1.3465
  308SOL    HW2  924   3.057   2.014   1.205  1.3680 -1.9232  0.6813
  309SOL     OW  925   2.101   1.837   1.572 -0.1690  0.2117 -0.8894
  309SOL    HW1  926   2.057   1.874   1.491 -0.3870  1.4518  0.9475
  309SOL    HW2  927   2.125   1.917   1.632 -0.2731  0.2211  0.6304
  310SOL     OW  928   2.336   1.563   0.026  0.8167  0.0616  0.2732
  310SOL    HW1  929   2.284   1.650   0.060 -0.7372  0.8589  3.0834
  310SOL    HW2  930   2.297   1.520   3.022 -1.8799  0.4382  0.0576
  311SOL     OW  931   2.089   1.248   2.825  0.4308  0.6297  0.6351
  311SOL    HW1  932   1.998   1.285   2.812 -1.0660 -2.1901  1.1403
  311SOL    HW2  933   2.087   1.150   2.851  0.7078  0.3869 -0.5808
  312SOL     OW  934   1.453   2.269   2.003  0.3765 -0.8325 -0.3210
  312SOL    HW1  935   1.347   2.259   1.995 -1.6083 -0.6789  3.2265
  312SOL    HW2  936   1.487   2.177   1.968  1.0827 -0.6956 -1.2402
  313SOL     OW  937   0.344   2.890   1.048  0.4391 -0.2859 -0.1686
  313SOL    HW1  938   0.253   2.846   1.062 -2.1059  0.0705 -1.9230
  313SOL    HW2  939   0.421   2.831   1.011 -1.2841 -0.8693 -1.8828
  314SOL     OW  940   0.992   1.690   1.425 -0.1480 -0.7762  0.6382
  314SOL    HW1  941   0.908   1.745   1.430  0.5710 -0.4583  0.7178
  314SOL    HW2  942   1.055   1.728   1.498 -3.6725  0.3279  1.7107
  315SOL     OW  943   0.492   2.941   2.099 -0.1217 -0.0292  0.1063
  315SOL    HW1  944   0.470   3.038   2.119 -0.2556  1.1151  0.5303
  315SOL    HW2  945   0.405   2.886   2.082 -1.4098 -0.2825  2.7317
  316SOL     OW  946   0.045   2.102   0.955  0.3499  0.3590 -0.4329
  316SOL    HW1  947   0.018   2.179   0.890  0.8691  1.5052 -0.0645
  316SOL    HW2  948   0.133   2.128   0.997 -0.5308  0.0679 -2.7228
  317SOL     OW  949   1.691   0.635   0.411  0.4925  0.5251  0.6244
  317SOL    HW1  950   1.663   0.568   0.340 -0.7596  0.0697  1.3495
  317SOL    HW2  951   1.763   0.598   0.471  0.0998  1.0721  3.7145
  318SOL     OW  952   2.895   2.467   0.005 -0.0952 -0.8875 -0.3993
  318SOL    HW1  953   2.812   2.501   3.040  0.5986 -0.3995 -0.0573
  318SOL    HW2  954   2.928   2.538   0.070 -1.2922  1.0283  1.2684
  319SOL     OW  955   1.692   1.644   0.513 -0.1149  0.0960 -0.1909
  319SOL    HW1  956   1.595   1.615   0.521  3.2610  0.9786  1.8712
  319SOL    HW2  957   1.739   1.618   0.425 -1.7452 -1.4062 -2.7688
  320SOL     OW  958   0.683   2.370   2.596  0.5744 -0.4711 -0.1269
  320SOL    HW1  959   0.604   2.370   2.531 -4.2520 -3.1081 -2.4637
  320SOL    HW2  960   0.698   2.279   2.632 -0.3426 -0.9051 -0.7242
  321SOL     OW  961   0.938   2.949   0.279 -0.2460 -0.2312  0.4953
  321SOL    HW1  962   0.925   2.850   0.293 -0.3469  0.4625  1.3256
  321SOL    HW2  963   1.036   2.979   0.257  1.3734 -0.2138 -0.5443
  322SOL     OW  964   2.272   0.995   2.056 -0.0440  0.1570  0.3539
  322SOL    HW1  965   2.297   1.008   2.158  0.2262  1.2832  0.9281
  322SOL    HW2  966   2.332   0.923   2.018  2.6676 -0.2786  0.4976
  323SOL     OW  967   2.704   0.939   0.691 -0.0478 -0.1042  0.0716
  323SOL    HW1  968   2.805   0.910   0.683 -1.2842  0.0501  3.0424
  323SOL    HW2  969   2.678   1.014   0.626 -1.0098 -0.6218  0.2477
  324SOL     OW  970   0.215   0.385   2.411 -0.7840 -0.2065 -0.0710
  324SOL    HW1  971   0.180   0.468   2.361  0.9003 -0.4878  2.4188
  324SOL    HW2  972   0.308   0.402   2.450 -1.1825 -0.2190  2.1287
  325SOL     OW  973   0.918   0.225   2.272 -0.5384  0.2230  0.2313
  325SOL    HW1  974   0.997   0.172   2.228 -2.5532  0.6529 -1.2569
  325SOL    HW2  975   0.902   0.209   2.372 -0.1443  0.1253 -0.1330
  326SOL     OW  976   2.363   2.809   1.178  0.2363 -0.5874 -0.1820
  326SOL    HW1  977   2.454   2.761   1.193  1.0747  0.2285  0.7522
  326SOL    HW2  978   2.377   2.871   1.097 -0.1421  0.2809  0.4302
  327SOL     OW  979   1.699   0.864   0.270  0.7621 -0.7724 -0.4518
  327SOL    HW1  980   1.695   0.774   0.319  1.1284 -0.1010 -0.5082
  327SOL    HW2  981   1.629   0.928   0.317 -2.2052  0.7644  0.8438
  328SOL     OW  982   3.005   1.898   1.929  0.3087  0.2208  0.0347
  328SOL    HW1  983   3.045   1.826   1.990  1.4745  1.7058 -1.9083
  328SOL    HW2  984   2.966   1.976   1.984  1.8391  1.1182  2.3282
  329SOL     OW  985   2.347   2.623   1.910 -0.0635 -0.3636 -0.2931
  329SOL    HW1  986   2.383   2.529   1.888 -2.0864  1.8254  1.0282
  329SOL    HW2  987   2.309   2.681   1.833  0.7206 -0.4506 -0.2837
  330SOL     OW  988   2.358   1.437   1.722 -0.1483  0.2170 -0.4343
  330SOL    HW1  989   2.292   1.439   1.799 -2.1704  1.6487 -0.0239
  330SOL    HW2  990   2.436   1.502   1.743  2.5396 -0.6473 -1.1014
  331SOL     OW  991   2.817   2.063   1.015 -0.3686  0.2404  0.0437
  331SOL    HW1  992   2.908   2.027   0.985  0.1637 -2.8920 -1.6526
  331SOL    HW2  993   2.740   1.999   0.984 -0.0921 -0.0901  1.5828
  332SOL     OW  994   0.694   2.641   0.124 -0.1729 -0.5343  0.0741
  332SOL    HW1  995   0.631   2.719   0.131  1.3234  0.3338 -2.0560
  332SOL    HW2  996   0.764   2.659   0.195 -2.4005  0.2839 -2.6626
  333SOL     OW  997   1.940   0.202   2.540 -0.5901 -0.3832 -0.1658
  333SOL    HW1  998   1.851   0.174   2.499 -0.9189 -1.2594  0.6788
  333SOL    HW2  999   1.990   0.246   2.464 -0.3807 -2.4190 -1.0102
  334SOL     OW 1000   0.648   1.106   0.519  0.0055 -0.7662 -0.2371
  334SOL    HW1 1001   0.707   1.184   0.538 -0.5796  1.9071 -0.4714
  334SOL    HW2 1002   0.575   1.131   0.449  0.3190 -1.8025  2.1127
  335SOL     OW 1003   0.034   2.995   2.125 -0.5629  0.0237 -0.5233
  335SOL    HW1 1004   0.060   3.009   2.228  0.2884 -0.7654 -0.0325
  335SOL    HW2 1005   0.065   3.071   2.068 -0.7756 -1.0527  1.4277
  336SOL     OW 1006   2.837   0.030   2.254  0.6216 -0.1735  0.3358
  336SOL    HW1 1007   2.920   3.077   2.304 -1.1778 -0.0653  0.7869
  336SOL    HW2 1008   2.856   0.122   2.217 -0.5239  1.9270 -0.0882
  337SOL     OW 1009   1.575   1.602   0.918 -0.0866 -0.2295 -0.5660
  337SOL    HW1 1010   1.562   1.575   1.015  0.5465 -1.8689 -3.5210
  337SOL    HW2 1011   1.596   1.515   0.867  0.3697 -1.1358  2.5261
  338SOL     OW 1012   0.936   1.718   0.879  0.0138  0.2652 -0.2203
  338SOL    HW1 1013   1.001   1.647   0.913  0.0665 -2.7336 -1.0760
  338SOL    HW2 1014   0.905   1.774   0.961  2.1557 -0.2287  0.5039
  339SOL     OW 1015   3.005   0.934   1.069  0.4147 -0.0020 -0.2226
  339SOL    HW1 1016   0.022   0.949   1.104  0.7993  0.2565 -0.9630
  339SOL    HW2 1017   2.946   0.933   1.152  0.0252  0.9922  0.7862
  340SOL     OW 1018   1.511   2.526   1.971 -0.2493  0.7669  0.2676
  340SOL    HW1 1019   1.511   2.424   1.973  0.6730 -1.0069  0.2387
  340SOL    HW2 1020   1.564   2.567   2.049  1.6852  2.9178  0.1783
  341SOL     OW 1021   1.930   1.425   0.782  0.2559  0.4766  0.0323
  341SOL    HW1 1022   1.930   1.380   0.874  0.3914 -0.5508 -0.9847
  341SOL    HW2 1023   1.834   1.418   0.743 -0.5428 -1.4932  4.1852
  342SOL     OW 1024   2.794   1.406   0.631 -0.1578 -0.4180  0.4400
  342SOL    HW1 1025   2.773   1.453   0.545  2.6019  2.8378  0.9880
  342SOL    HW2 1026   2.754   1.469   0.704 -1.3071  1.7881  0.6471
  343SOL     OW 1027   2.597   1.083   1.726 -1.2156  0.0922  0.4880
  343SOL    HW1 1028   2.618   1.041   1.818  1.0160 -0.7109 -0.9719
  343SOL    HW2 1029   2.637   1.178   1.716 -0.4816 -0.5787 -0.6493
  344SOL     OW 1030   2.059   0.680   1.019  0.6244 -0.3719 -0.4861
  344SOL    HW1 1031   1.966   0.723   1.022  0.4820 -2.2594  1.3169
  344SOL    HW2 1032   2.077   0.644   1.114 -0.6525 -0.3326 -2.1393
  345SOL     OW 1033   0.283   3.033   2.355  0.0483  0.4574 -0.0893
  345SOL    HW1 1034   0.262   2.934   2.367  0.3161 -1.3521  1.3085
  345SOL    HW2 1035   0.366   3.052   2.411  0.1579 -0.8698  0.6161
  346SOL     OW 1036   2.591   1.599   0.173 -0.2069  0.1641  0.3812
  346SOL    HW1 1037   2.527   1.649   0.233 -0.7985 -2.8602 -2.2054
  346SOL    HW2 1038   2.538   1.543   0.101 -0.5707  0.6767 -2.2370
  347SOL     OW 1039   1.904   2.796   1.764 -0.0178 -0.0275 -0.5060
  347SOL    HW1 1040   1.948   2.731   1.702 -0.9504 -2.0351 -0.0899
  347SOL    HW2 1041   1.855   2.865   1.708 -1.3860 -2.8732  0.8568
  348SOL     OW 1042   0.987   1.102   1.671 -0.0366  0.1594  0.2231
  348SOL    HW1 1043   0.988   1.203   1.660  0.2747  0.1644  0.7115
  348SOL    HW2 1044   0.904   1.059   1.635 -1.4538 -2.0030 -0.0428
  349SOL     OW 1045   2.135   1.106   1.834 -0.2979  0.3775 -0.0390
  349SOL    HW1 1046   2.183   1.051   1.906 -0.6944 -3.9828 -1.3611
  349SOL    HW2 1047   2.204   1.143   1.769  0.1338  0.1027 -1.6050
  350SOL     OW 1048   2.376   2.320   0.531  0.1196  0.0035 -0.5968
  350SOL    HW1 1049   2.465   2.376   0.525 -0.8224  1.8403 -1.4472
  350SOL    HW2 1050   2.334   2.329   0.625  1.2216 -0.1925 -0.3728
  351SOL     OW 1051   0.156   0.229   1.390  0.6186 -0.0133 -0.3061
  351SOL    HW1 1052   0.214   0.171   1.328 -0.2117 -1.5098 -2.2055
  351SOL    HW2 1053   0.076   0.267   1.340  1.4760 -2.2211 -0.2304
  352SOL     OW 1054   1.814   2.350   1.895 -0.9867  0.9165 -0.0254
  352SOL    HW1 1055   1.797   2.439   1.934  0.0426  0.3786  1.9691
  352SOL    HW2 1056   1.887   2.303   1.947  1.0671  1.7009  0.5029
  353SOL     OW 1057   0.888   1.320   2.294  0.3636  0.0188 -0.8020
  353SOL    HW1 1058   0.822   1.243   2.289 -1.3707  1.1760  1.3435
  353SOL    HW2 1059   0.917   1.336   2.394 -0.3161  1.4081  0.5489
  354SOL     OW 1060   1.451   1.547   0.472  0.4256  0.1375  0.1025
  354SOL    HW1 1061   1.463   1.448   0.456  1.3368 -2.1093  0.7517
  354SOL    HW2 1062   1.363   1.583   0.430 -1.1882  0.4924 -0.7065
  355SOL     OW 1063   1.880   0.244   0.834  0.4503  0.1552 -0.2855
  355SOL    HW1 1064   1.920   0.179   0.758 -2.1195  0.0206 -1.6387
  355SOL    HW2 1065   1.805   0.303   0.794 -0.9083 -0.1268  0.2361
  356SOL     OW 1066   2.766   1.235   3.038  0.4537 -0.2451 -0.0874
  356SOL    HW1 1067   2.820   1.190   2.966 -1.6009  0.4575  0.8550
  356SOL    HW2 1068   2.724   1.167   0.028 -0.4086 -2.8489  2.0638
  357SOL     OW 1069   0.025   0.112   1.911  0.3622 -0.5317 -0.2979
  357SOL    HW1 1070   0.073   0.092   1.824 -1.9979 -3.1882  1.8711
  357SOL    HW2 1071   3.009   0.065   1.907 -2.9812 -0.5556 -2.3040
  358SOL     OW 1072   0.278   1.389   0.113 -0.6015  0.2341 -0.2112
  358SOL    HW1 1073   0.197   1.421   0.064 -2.6631  1.8018 -0.8602
  358SOL    HW2 1074   0.290   1.289   0.119  0.2456  0.2211  2.1484
  359SOL     OW 1075   2.738   2.965   2.755 -0.7179  0.2945  0.0451
  359SOL    HW1 1076   2.641   2.994   2.778  0.8516  1.6872  0.2969
  359SOL    HW2 1077   2.781   2.899   2.821 -1.0619 -1.5405  1.4872
  360SOL     OW 1078   1.686   0.980   1.179 -0.4160  0.2649 -0.7852
  360SOL    HW1 1079   1.695   1.073   1.221 -2.4834 -1.9183  0.0948
  360SOL    HW2 1080   1.591   0.954   1.165  2.7097  1.2784  0.1532
  361SOL     OW 1081   2.128   2.362   1.217 -0.1362  0.3654 -0.1324
  361SOL    HW1 1082   2.181   2.280   1.242  0.2853 -1.4348  3.0520
  361SOL    HW2 1083   2.137   2.443   1.282  1.4493  2.1984 -0.0862
  362SOL     OW 1084   1.424   0.582   1.136  0.2239 -0.1023 -0.0346
  362SOL    HW1 1085   1.447   0.556   1.226 -1.4342 -0.1613 -4.2306
  362SOL    HW2 1086   1.332   0.548   1.107  1.5173 -0.4577  1.8486
  363SOL     OW 1087   2.089   2.288   0.379 -0.5151 -0.4763  0.6125
  363SOL    HW1 1088   2.145   2.268   0.461  0.2362  0.5107  0.4326
  363SOL    HW2 1089   1.987   2.291   0.389  3.0393  0.5999  0.6257
  364SOL     OW 1090   0.139   0.384   0.784 -0.3980  0.2830 -0.0923
  364SOL    HW1 1091   0.225   0.376   0.726  3.7512 -0.2999  0.8200
  364SOL    HW2 1092   0.162   0.413   0.880 -0.8522  1.1531  0.2390
  365SOL     OW 1093   0.378   2.918   0.698  0.1789 -0.3140  0.2876
  365SOL    HW1 1094   0.303   2.982   0.682  2.4716  0.9118 -1.8758
  365SOL    HW2 1095   0.461   2.970   0.735 -0.8856  2.6475  1.0045
  366SOL     OW 1096   0.043   1.515   0.478 -0.5045  0.0804  0.4673
  366SOL    HW1 1097   0.050   1.416   0.504  0.1876 -0.1784 -1.8915
  366SOL    HW2 1098   0.131   1.548   0.441 -0.7544  0.0321 -1.1474
  367SOL     OW 1099   2.738   2.262   2.768 -0.5885  0.2448 -0.4116
  367SOL    HW1 1100   2.802   2.325   2.725  0.4451 -3.5122 -1.8337
  367SOL    HW2 1101   2.648   2.263   2.719 -1.1353 -0.2005 -0.0863
  368SOL     OW 1102   2.328   1.709   0.754  0.3841  0.0268  0.2334
  368SOL    HW1 1103   2.238   1.664   0.738 -0.2065  0.6923 -0.5688
  368SOL    HW2 1104   2.409   1.655   0.709 -2.2235 -1.8194 -2.1589
  369SOL     OW 1105   1.316   0.670   0.152  0.0986 -0.0661  0.0434
  369SOL    HW1 1106   1.278   0.628   0.065 -0.4721  0.0422 -0.2207
  369SOL    HW2 1107   1.345   0.602   0.216  2.8555  0.6764 -3.0579
  370SOL     OW 1108   0.623   0.030   1.045 -0.1009  0.0361 -0.2039
  370SOL    HW1 1109   0.595   0.094   1.121  0.1450  1.4070  3.9943
  370SOL    HW2 1110   0.605   3.017   1.079 -1.1806  1.1056 -1.7505
  371SOL     OW 1111   2.697   1.383   2.625  0.2331  0.0391 -0.1431
  371SOL    HW1 1112   2.630   1.455   2.594 -4.2689 -0.4451  0.0331
  371SOL    HW2 1113   2.641   1.304   2.663 -0.1266  0.9748  2.5316
  372SOL     OW 1114   0.731   0.701   2.500  0.5828 -0.9314 -0.0472
  372SOL    HW1 1115   0.709   0.674   2.402  0.1285  1.3847  1.0290
  372SOL    HW2 1116   0.822   0.665   2.530  1.0559 -1.9603 -1.0764
  373SOL     OW 1117   0.496   0.350   0.025  0.0327  0.6886 -0.0445
  373SOL    HW1 1118   0.497   0.341   3.000  0.0625 -2.5250 -1.9193
  373SOL    HW2 1119   0.589   0.339   0.056  1.3601 -0.4751 -0.3169
  374SOL     OW 1120   1.134   1.964   0.072  0.7841  0.3910  0.2738
  374SOL    HW1 1121   1.213   2.018   0.035  0.4600 -0.7708  0.8165
  374SOL    HW2 1122   1.144   1.868   0.039  1.4856  1.8910  0.9006
  375SOL     OW 1123   0.881   2.869   1.649 -0.6415 -0.2043  0.0742
  375SOL    HW1 1124   0.976   2.851   1.614 -0.4166 -1.2445  0.0938
  375SOL    HW2 1125   0.843   2.946   1.593 -0.7010  2.8677 -1.0323
  376SOL     OW 1126   0.238   2.577   1.988  0.8668 -0.1048  0.1591
  376SOL    HW1 1127   0.205   2.492   2.038  0.9845 -0.5153 -2.8402
  376SOL    HW2 1128   0.338   2.571   1.970 -0.3489  0.0997 -1.3757
  377SOL     OW 1129   2.613   2.016   0.028  0.2886 -0.4920 -0.1457
  377SOL    HW1 1130   2.589   1.996   0.124  0.0401 -0.2682  0.4604
  377SOL    HW2 1131   2.596   1.933   3.053  1.4997  2.7414 -1.3631
  378SOL     OW 1132   2.316   0.216   0.498 -0.0765  0.1879  0.1639
  378SOL    HW1 1133   2.269   0.275   0.569  0.5279  1.0497  0.2793
  378SOL    HW2 1134   2.348   0.123   0.537 -0.3083 -2.1201 -1.2029
  379SOL     OW 1135   0.953   0.714   0.505  0.2505 -0.3911  0.2247
  379SOL    HW1 1136   0.931   0.733   0.405 -0.8299 -1.0942 -2.5900
  379SOL    HW2 1137   0.978   0.803   0.550 -0.2217 -1.5345 -2.4633
  380SOL     OW 1138   2.680   2.279   1.761  0.2446  0.8566  0.3971
  380SOL    HW1 1139   2.759   2.342   1.762 -0.9455  0.4832  0.4168
  380SOL    HW2 1140   2.685   2.205   1.692 -0.8353 -1.5021 -1.0195
  381SOL     OW 1141   2.644   1.353   2.011  0.2625 -0.5841  0.4408
  381SOL    HW1 1142   2.618   1.457   2.018 -0.3407  4.1661 -1.2009
  381SOL    HW2 1143   2.632   1.298   2.100 -0.1107 -0.0739  2.8843
  382SOL     OW 1144   2.905   2.081   2.935 -0.0688 -0.1237  0.1883
  382SOL    HW1 1145   2.912   2.117   3.029  1.2505 -1.4819 -1.8888
  382SOL    HW2 1146   2.822   2.108   2.884 -0.1182  1.7382  2.1566
  383SOL     OW 1147   1.372   1.024   2.474 -0.3936 -0.3335  0.1105
  383SOL    HW1 1148   1.362   1.118   2.436 -0.7746 -0.9316 -0.3155
  383SOL    HW2 1149   1.449   0.980   2.423  1.0185 -1.5386 -0.1644
  384SOL     OW 1150   1.406   2.039   2.237  0.2549  0.3315 -0.2104
  384SOL    HW1 1151   1.429   2.132   2.268 -1.1313  0.4968 -0.3760
  384SOL    HW2 1152   1.307   2.021   2.255 -0.2051  1.1742  0.0650
  385SOL     OW 1153   2.696   2.711   0.111 -0.1855  0.7217 -1.0742
  385SOL    HW1 1154   2.656   2.618   0.125  1.0345  1.2070 -1.0372
  385SOL    HW2 1155   2.741   2.751   0.194 -1.4636  0.3500 -1.0116
  386SOL     OW 1156   1.555   0.969   0.848  0.9256  0.4806  0.1496
  386SOL    HW1 1157   1.512   1.021   0.773  0.7405 -0.5239  0.0795
  386SOL    HW2 1158   1.512   0.875   0.853  0.2480 -1.0280  0.5193
  387SOL     OW 1159   3.031   1.884   1.467 -0.4515 -0.3296  0.1539
  387SOL    HW1 1160   3.026   1.981   1.496  0.3039  1.0967  0.8221
  387SOL    HW2 1161   0.006   1.866   1.385 -0.5979 -1.1627  0.1541
  388SOL     OW 1162   0.515   1.209   1.551 -0.0092 -1.0964  0.1916
  388SOL    HW1 1163   0.569   1.185   1.633 -0.5894  0.9531  0.1933
  388SOL    HW2 1164   0.509   1.137   1.477 -1.7405 -0.0536 -0.1499
  389SOL     OW 1165   2.224   0.890   2.493 -0.0963  0.6004  0.0524
  389SOL    HW1 1166   2.171   0.889   2.577 -1.4237  1.4047 -1.7865
  389SOL    HW2 1167   2.220   0.979   2.442  0.1988  0.4517 -0.2667
  390SOL     OW 1168   1.018   1.501   0.048 -0.2650  0.7650 -0.3111
  390SOL    HW1 1169   0.943   1.558   0.082 -0.0631  0.9888  0.1318
  390SOL    HW2 1170   1.006   1.488   3.028 -0.6776  0.6393  0.0031
  391SOL     OW 1171   1.214   1.654   0.386  0.3787 -0.1207  0.3592
  391SOL    HW1 1172   1.183   1.743   0.425 -0.5439  1.0686 -2.2066
  391SOL    HW2 1173   1.231   1.661   0.285  0.8510 -0.7279 -0.2768
  392SOL     OW 1174   2.714   2.978   2.472  0.1689  0.1026  0.1090
  392SOL    HW1 1175   2.766   3.035   2.404  0.7732 -0.8290 -0.9077
  392SOL    HW2 1176   2.751   2.976   2.567  0.7664 -1.4557  1.8586
  393SOL     OW 1177   1.525   1.984   0.070 -0.1332  0.3462  0.5835
  393SOL    HW1 1178   1.510   1.970   0.171  1.1992  0.5241  0.0886
  393SOL    HW2 1179   1.443   2.037   0.035 -1.4816  1.1976  1.3295
  394SOL     OW 1180   0.661   0.331   2.242  0.3818  0.0354  0.5151
  394SOL    HW1 1181   0.747   0.280   2.252  1.1914  2.9016 -0.1124
  394SOL    HW2 1182   0.666   0.395   2.162  2.4125 -0.0714 -2.9235
  395SOL     OW 1183   0.295   1.615   1.385  0.7335 -0.1650 -0.2030
  395SOL    HW1 1184   0.274   1.710   1.426 -0.9373  1.4113  0.0232
  395SOL    HW2 1185   0.250   1.608   1.292  1.4810  0.5150  1.8199
  396SOL     OW 1186   2.223   1.494   2.881  0.1008 -0.0749  0.3425
  396SOL    HW1 1187   2.198   1.399   2.855  3.5146 -2.0115  0.3758
  396SOL    HW2 1188   2.140   1.549   2.904 -1.1619  1.3221  0.3106
  397SOL     OW 1189   0.232   0.818   3.041  0.2234 -0.3410 -0.1686
  397SOL    HW1 1190   0.188   0.757   2.972 -2.2007  1.4088 -0.7678
  397SOL    HW2 1191   0.161   0.889   3.069  1.0237 -0.7767  0.4235
  398SOL     OW 1192   0.840   2.331   0.198  0.0166 -0.2568  1.0283
  398SOL    HW1 1193   0.937   2.355   0.214 -0.3524 -0.3202 -1.7395
  398SOL    HW2 1194   0.788   2.412   0.179  2.9663 -1.3876  0.0312
  399SOL     OW 1195   1.858   2.381   2.569  0.4017  0.2882  0.0642
  399SOL    HW1 1196   1.831   2.407   2.661 -3.0489  0.0140 -2.7338
  399SOL    HW2 1197   1.878   2.469   2.516  0.9351  1.6473 -2.5050
  400SOL     OW 1198   2.940   1.173   1.767  0.8320  0.1879  0.3756
  400SOL    HW1 1199   2.843   1.210   1.759  0.9091  1.0173  0.6336
  400SOL    HW2 1200   3.008   1.225   1.716  0.8572 -1.2136 -1.5813
  401SOL     OW 1201   0.673   0.664   0.727  0.4848  0.1674 -0.0836
  401SOL    HW1 1202   0.711   0.683   0.637 -0.7319  0.5729  1.3612
  401SOL    HW2 1203   0.645   0.746   0.779  1.6065 -2.5758  0.8515
  402SOL     OW 1204   0.913   0.163   2.575 -0.9226 -0.0607  0.4265
  402SOL    HW1 1205   0.849   0.221   2.632  0.8009 -0.4574 -2.0540
  402SOL    HW2 1206   0.904   0.064   2.602 -0.8587 -3.3193  0.2408
  403SOL     OW 1207   2.540   1.613   1.783  0.0511 -0.0797 -0.3661
  403SOL    HW1 1208   2.566   1.622   1.880 -0.7525 -0.5751  0.4135
  403SOL    HW2 1209   2.621   1.613   1.723 -1.9605 -0.6555  1.6462
  404SOL     OW 1210   2.605   2.285   1.325 -0.0669 -0.1047 -0.5570
  404SOL    HW1 1211   2.672   2.352   1.361 -1.2955 -2.2042 -1.1888
  404SOL    HW2 1212   2.609   2.276   1.224  0.5722 -2.0891  1.3732
  405SOL     OW 1213   1.849   0.334   2.762 -0.0526 -0.1093  0.1921
  405SOL    HW1 1214   1.891   0.258   2.715 -0.6276  2.2151  2.4008
  405SOL    HW2 1215   1.891   0.423   2.727  3.0368  0.3268 -2.9821
  406SOL     OW 1216   1.201   1.704   0.031 -0.1798 -0.2726 -0.0788
  406SOL    HW1 1217   1.289   1.672   0.067 -1.3069  2.0261 -0.5954
  406SOL    HW2 1218   1.134   1.627   0.025 -0.4729  0.0840 -1.9673
  407SOL     OW 1219   1.823   1.844   0.621  0.5061  0.1790  0.0103
  407SOL    HW1 1220   1.802   1.837   0.722  1.8676 -1.6024 -1.2766
  407SOL    HW2 1221   1.779   1.768   0.566 -0.4779 -2.4458  0.8084
  408SOL     OW 1222   3.031   0.328   1.263 -0.3968 -0.2573  0.2848
  408SOL    HW1 1223   3.030   0.422   1.223  0.7884 -0.8369 -0.8312
  408SOL    HW2 1224   2.992   0.269   1.194 -0.8633  3.6163 -0.7246
  409SOL     OW 1225   2.291   1.360   0.214 -0.4003 -0.2052  0.1938
  409SOL    HW1 1226   2.290   1.418   0.296 -0.2609 -0.1483 -0.9820
  409SOL    HW2 1227   2.327   1.409   0.130  1.8958  0.4634 -2.4155
  410SOL     OW 1228   2.277   2.326   0.783 -0.0165 -0.7148 -0.5944
  410SOL    HW1 1229   2.229   2.400   0.832  0.2351 -1.3980  0.5118
  410SOL    HW2 1230   2.360   2.301   0.830 -4.1641 -0.2235  0.4907
  411SOL     OW 1231   0.339   0.026   0.374 -0.0901  0.4589 -0.0840
  411SOL    HW1 1232   0.262   0.047   0.307 -1.3884  0.6417  0.7792
  411SOL    HW2 1233   0.410   3.048   0.328  0.3354 -1.3327  0.4377
  412SOL     OW 1234   1.509   2.777   0.533 -0.0793 -0.5942  0.0181
  412SOL    HW1 1235   1.528   2.845   0.607 -0.4979  0.6262  2.3019
  412SOL    HW2 1236   1.517   2.684   0.569 -1.9747  0.6935 -1.9048
  413SOL     OW 1237   1.730   0.146   2.396 -0.2132  0.3175 -0.0682
  413SOL    HW1 1238   1.650   0.209   2.390  0.8248  0.2183 -1.7822
  413SOL    HW2 1239   1.745   0.097   2.309  0.4667 -1.3163  0.0157
  414SOL     OW 1240   3.034   0.636   0.472 -0.9351 -0.0387  0.0850
  414SOL    HW1 1241   2.979   0.656   0.391  0.4013  0.1754 -0.4985
  414SOL    HW2 1242   0.053   0.609   0.451  3.4550 -0.2794  1.0896
  415SOL     OW 1243   2.993   1.320   0.783  0.3555  0.1824 -0.4375
  415SOL    HW1 1244   2.956   1.250   0.845  0.8772 -0.0424  0.9739
  415SOL    HW2 1245   2.921   1.333   0.712  0.7690  0.2335  1.9677
  416SOL     OW 1246   0.069   0.832   2.702  0.4720  0.1006 -0.2219
  416SOL    HW1 1247   0.148   0.775   2.707 -3.2268  1.2120  0.7517
  416SOL    HW2 1248   0.073   0.917   2.762  0.1139 -0.9851 -0.4735
  417SOL     OW 1249   2.544   0.169   0.852 -0.3288  0.0348 -0.0851
  417SOL    HW1 1250   2.452   0.198   0.884  1.8839 -1.3085  0.0269
  417SOL    HW2 1251   2.609   0.244   0.834 -1.3889 -2.1528 -2.4384
  418SOL     OW 1252   0.866   2.965   2.668 -0.0734  0.2939  0.2779
  418SOL    HW1 1253   0.875   2.895   2.740  2.7556 -1.9877 -0.4174
  418SOL    HW2 1254   0.786   2.950   2.608  0.6318 -0.7041  5.0021
  419SOL     OW 1255   0.241   1.106   0.781  0.3682 -0.2345 -0.3990
  419SOL    HW1 1256   0.167   1.143   0.720 -3.2608  1.1964  0.0537
  419SOL    HW2 1257   0.236   1.007   0.806  1.0294  2.9097 -0.3712
  420SOL     OW 1258   2.939   1.364   1.478 -0.4056  0.0667 -0.4531
  420SOL    HW1 1259   3.000   1.412   1.547 -1.0758 -1.3316  1.5136
  420SOL    HW2 1260   2.964   1.264   1.457  0.3167 -1.5008 -0.7298
  421SOL     OW 1261   1.195   1.776   2.814 -0.0480 -0.1573  0.4548
  421SOL    HW1 1262   1.277   1.785   2.749 -1.1771  3.9671 -0.5236
  421SOL    HW2 1263   1.220   1.725   2.898  0.5013 -1.6112 -1.8412
  422SOL     OW 1264   2.483   0.714   2.642 -0.0284  0.6622  0.1364
  422SOL    HW1 1265   2.459   0.808   2.642  0.6171 -2.8056  1.3704
  422SOL    HW2 1266   2.520   0.677   2.551 -0.5123 -0.1832 -1.9332
  423SOL     OW 1267   1.902   1.487   0.377  0.2994  0.1338  0.1000
  423SOL    HW1 1268   1.917   1.492   0.278 -0.3567  0.7891  1.1894
  423SOL    HW2 1269   1.839   1.409   0.400 -1.4368 -0.3771 -0.6245
  424SOL     OW 1270   0.783   0.900   2.134  0.8922 -0.1432  0.2930
  424SOL    HW1 1271   0.730   0.981   2.180  0.0325  1.2366  0.0116
  424SOL    HW2 1272   0.874   0.919   2.103 -2.5832 -0.7315  0.6132
  425SOL     OW 1273   2.965   2.763   2.154 -0.1010  0.2123  0.3400
  425SOL    HW1 1274   2.942   2.751   2.053  0.2975  0.9965 -2.2150
  425SOL    HW2 1275   3.015   2.850   2.172 -0.1274 -1.4778  1.0875
  426SOL     OW 1276   2.329   2.540   0.319  0.3491 -0.0782 -0.2942
  426SOL    HW1 1277   2.422   2.551   0.356 -1.0769 -0.4029  3.0133
  426SOL    HW2 1278   2.296   2.442   0.338  0.5686 -1.5795 -0.8822
  427SOL     OW 1279   0.910   0.496   2.775 -0.5110  0.5640  0.1770
  427SOL    HW1 1280   0.929   0.543   2.684  4.3729  2.8524 -2.7755
  427SOL    HW2 1281   0.879   0.563   2.846 -0.4567 -2.7527  0.8490
  428SOL     OW 1282   2.557   1.251   2.821 -0.7964  0.2680  0.0436
  428SOL    HW1 1283   2.637   1.243   2.884  0.8347  0.3986 -0.7442
  428SOL    HW2 1284   2.490   1.320   2.854 -1.7141  2.0414 -0.6244
  429SOL     OW 1285   2.455   0.333   0.153 -0.1133 -0.4555 -0.2164
  429SOL    HW1 1286   2.421   0.425   0.178 -1.5278 -0.9914 -1.6648
  429SOL    HW2 1287   2.465   0.320   0.053 -1.8090 -0.5239  1.6430
  430SOL     OW 1288   1.300   2.508   2.229  0.2016  0.5997 -0.4091
  430SOL    HW1 1289   1.371   2.568   2.255  0.3955 -5.2347 -1.3718
  430SOL    HW2 1290   1.237   2.556   2.165 -0.8201  0.1752  0.3690
  431SOL     OW 1291   0.256   1.873   1.473  0.3871  0.4403 -0.2360
  431SOL    HW1 1292   0.202   1.961   1.464  2.3834 -1.7246  3.1423
  431SOL    HW2 1293   0.282   1.876   1.573 -0.8134  1.8793  2.2383
  432SOL     OW 1294   2.223   2.719   2.123 -0.0591  0.1188 -0.4402
  432SOL    HW1 1295   2.150   2.785   2.100 -1.8767 -1.1780  1.7509
  432SOL    HW2 1296   2.256   2.676   2.035 -0.5338 -0.0640 -1.0588
  433SOL     OW 1297   1.153   1.939   0.336 -0.6180 -0.2437  0.0622
  433SOL    HW1 1298   1.076   1.931   0.402 -0.2957 -1.6688  0.6735
  433SOL    HW2 1299   1.125   1.920   0.238 -3.5182  1.2633 -0.3007
  434SOL     OW 1300   0.185   1.928   2.639 -0.1311  0.1359 -0.0009
  434SOL    HW1 1301   0.288   1.920   2.640 -0.1132 -0.9400 -0.7227
  434SOL    HW2 1302   0.145   1.966   2.724 -4.0348 -0.9057  1.4882
  435SOL     OW 1303   3.068   1.055   0.466 -0.2959  0.1426  0.5862
  435SOL    HW1 1304   2.995   1.094   0.403  0.3754  0.8957 -1.4334
  435SOL    HW2 1305   3.040   0.976   0.530  0.0497 -3.0564  3.0328
  436SOL     OW 1306   0.531   2.675   1.698 -0.0479  0.7950  0.3173
  436SOL    HW1 1307   0.452   2.731   1.660 -1.0120  1.0447 -0.5487
  436SOL    HW2 1308   0.613   2.733   1.716  1.7098  0.0406  0.2628
  437SOL     OW 1309   0.826   3.044   0.680 -0.8748 -0.4937  0.0708
  437SOL    HW1 1310   0.882   0.054   0.685  2.5526  0.7298 -0.8842
  437SOL    HW2 1311   0.889   2.968   0.664  0.1533 -0.7324 -0.6266
  438SOL     OW 1312   0.240   2.304   0.622 -0.0986  0.3672  0.1678
  438SOL    HW1 1313   0.322   2.372   0.610 -0.1396  0.8074  0.5835
  438SOL    HW2 1314   0.277   2.211   0.647  0.5751 -3.0380  0.3584
  439SOL     OW 1315   0.800   2.259   1.596 -0.5892 -0.4687 -0.1810
  439SOL    HW1 1316   0.823   2.277   1.500  0.9035  0.8163  4.0496
  439SOL    HW2 1317   0.823   2.343   1.654 -3.9751  3.1499 -0.4640
  440SOL     OW 1318   2.045   2.935   2.213 -0.3930  0.2329  0.0260
  440SOL    HW1 1319   2.059   3.020   2.163 -0.4925  1.4743  1.3292
  440SOL    HW2 1320   1.968   2.881   2.173  0.9409  0.1365 -0.0466
  441SOL     OW 1321   0.076   0.433   1.753 -0.3224 -0.0510  0.2765
  441SOL    HW1 1322   0.157   0.406   1.698 -0.0702  0.8933 -0.1230
  441SOL    HW2 1323   0.086   0.384   1.844  0.5181  0.4057  1.4527
  442SOL     OW 1324   1.978   2.408   0.770 -0.2038 -0.0799 -0.4682
  442SOL    HW1 1325   2.017   2.459   0.688  0.0754 -1.2267 -0.9043
  442SOL    HW2 1326   2.021   2.426   0.863  0.6077  2.3209  0.6337
  443SOL     OW 1327   2.882   0.811   2.357  0.4549 -0.1874  0.5480
  443SOL    HW1 1328   2.844   0.738   2.415  1.3813  2.5044 -1.3384
  443SOL    HW2 1329   2.978   0.830   2.383  1.5089  0.8116 -1.4445
  444SOL     OW 1330   1.963   1.070   2.095  0.0939 -0.1677 -0.5095
  444SOL    HW1 1331   2.006   1.115   2.015  1.2088  4.0461  1.2109
  444SOL    HW2 1332   1.901   1.129   2.150 -1.1306  0.7783 -0.1806
  445SOL     OW 1333   2.988   2.602   1.283  0.1662  0.0301  0.0643
  445SOL    HW1 1334   2.977   2.704   1.292 -2.1634  0.4862 -0.7049
  445SOL    HW2 1335   3.023   2.579   1.187 -2.1093 -0.7962 -1.1116
  446SOL     OW 1336   2.777   1.595   1.116 -0.0607 -0.2844  0.2649
  446SOL    HW1 1337   2.737   1.626   1.204 -0.7275  1.7540 -1.0544
  446SOL    HW2 1338   2.772   1.496   1.111  3.2392  1.6529  0.1503
  447SOL     OW 1339   0.519   1.131   0.762 -0.1715  0.0755 -0.3070
  447SOL    HW1 1340   0.418   1.145   0.752  1.9873  1.4051  0.0492
  447SOL    HW2 1341   0.560   1.145   0.673  0.2979  0.1769  0.4123
  448SOL     OW 1342   1.330   1.723   1.911 -0.3432  0.3684 -0.5721
  448SOL    HW1 1343   1.253   1.763   1.968  1.3442  0.1786 -0.7027
  448SOL    HW2 1344   1.323   1.621   1.910  1.8626 -1.7326 -1.4444
  449SOL     OW 1345   1.478   1.283   0.428 -0.0792  0.2162  0.4381
  449SOL    HW1 1346   1.570   1.265   0.390 -0.3119 -1.6963 -0.5808
  449SOL    HW2 1347   1.409   1.244   0.365 -1.0270  0.8170  0.6063
  450SOL     OW 1348   2.757   2.691   2.285 -0.1189 -0.1930  0.1227
  450SOL    HW1 1349   2.838   2.733   2.236 -1.5691  1.1767 -1.5996
  450SOL    HW2 1350   2.686   2.661   2.219  1.5876 -0.0149  3.2267
  451SOL     OW 1351   2.348   0.370   2.587  0.2094 -0.7738 -0.4360
  451SOL    HW1 1352   2.419   0.435   2.548  0.9851  0.0972  1.0895
  451SOL    HW2 1353   2.399   0.293   2.630  0.8346  0.7391 -1.4614
  452SOL     OW 1354   1.630   0.415   1.063  0.0800  0.2198 -0.1489
  452SOL    HW1 1355   1.651   0.346   1.136  0.0034 -0.8539  0.9998
  452SOL    HW2 1356   1.552   0.473   1.085  2.0936 -1.5282  0.4322
  453SOL     OW 1357   1.777   0.872   1.601  0.3022 -0.1399 -0.2314
  453SOL    HW1 1358   1.791   0.875   1.502 -0.4193  1.7903  1.9870
  453SOL    HW2 1359   1.864   0.840   1.646  0.5874 -1.8379 -1.3032
  454SOL     OW 1360   2.906   1.725   0.515 -0.5805 -0.2598 -0.2657
  454SOL    HW1 1361   2.992   1.671   0.498  0.0712 -1.4910  0.1036
  454SOL    HW2 1362   2.909   1.770   0.607 -0.6881  3.5855  0.0974
  455SOL     OW 1363   2.842   3.037   0.501 -0.6420 -0.3007  0.2460
  455SOL    HW1 1364   2.872   0.053   0.481 -2.5993 -0.9174 -0.4155
  455SOL    HW2 1365   2.924   2.983   0.529 -0.6523 -2.2046  0.1232
  456SOL     OW 1366   0.118   2.812   1.149  0.1319 -0.5937 -0.4426
  456SOL    HW1 1367   0.040   2.855   1.200 -2.5359  0.2589 -2.1633
  456SOL    HW2 1368   0.175   2.745   1.208  1.8279  1.2458  1.5894
  457SOL     OW 1369   1.258   0.042   0.498  0.0438  0.2642 -0.4091
  457SOL    HW1 1370   1.211   0.016   0.584 -1.3184  0.3646  0.0476
  457SOL    HW2 1371   1.351   0.081   0.515 -1.3093 -1.8266 -0.3204
  458SOL     OW 1372   2.412   0.015   0.657  0.2480  0.3401 -0.5461
  458SOL    HW1 1373   2.443   0.059   0.748  0.4694  2.4314  1.4424
  458SOL    HW2 1374   2.458   3.007   0.636 -1.2463  0.9076 -0.0383
  459SOL     OW 1375   2.159   0.447   2.764  0.1808 -0.0913  0.2379
  459SOL    HW1 1376   2.229   0.415   2.698 -2.0892  2.4831  1.4799
  459SOL    HW2 1377   2.210   0.474   2.848  1.3205  0.2367  1.1009
  460SOL     OW 1378   2.842   2.778   2.928 -0.2638  0.1542  0.2646
  460SOL    HW1 1379   2.870   2.766   3.020  1.0084  2.4662 -0.4309
  460SOL    HW2 1380   2.929   2.770   2.870 -1.4931  0.4475 -0.4465
  461SOL     OW 1381   0.907   1.936   0.452 -0.4289 -0.1430 -0.3304
  461SOL    HW1 1382   0.940   1.910   0.547  2.2290  0.2189 -1.0435
  461SOL    HW2 1383   0.857   1.863   0.405  1.2510  2.7947  0.9481
  462SOL     OW 1384   2.418   2.219   0.988 -0.6744  0.1215  0.0049
  462SOL    HW1 1385   2.354   2.239   1.064 -0.4680 -2.4591 -0.8094
  462SOL    HW2 1386   2.407   2.128   0.948 -0.5162  3.3690 -2.0184
  463SOL     OW 1387   2.360   0.872   0.703  0.0705 -0.0193 -0.1791
  463SOL    HW1 1388   2.341   0.800   0.777  0.5198  0.0621  2.0980
  463SOL    HW2 1389   2.417   0.825   0.635  0.0243  2.9520 -0.5814
  464SOL     OW 1390   0.295   0.054   1.257 -0.1360 -0.5316  0.1521
  464SOL    HW1 1391   0.295   3.069   1.181  0.9961 -0.1701 -0.4557
  464SOL    HW2 1392   0.365   0.019   1.322 -0.5080 -0.7406 -0.8248
  465SOL     OW 1393   2.832   1.484   0.081  0.0386  0.2823  0.3298
  465SOL    HW1 1394   2.759   1.536   0.126 -0.1421  1.6190  0.0687
  465SOL    HW2 1395   2.794   1.406   0.025 -2.4578  0.3981 -0.9144
  466SOL     OW 1396   1.621   0.191   2.834  0.2959 -0.2051 -0.6219
  466SOL    HW1 1397   1.699   0.251   2.822  1.7538 -3.0117 -0.8014
  466SOL    HW2 1398   1.550   0.247   2.879 -0.2658 -1.7109 -1.5758
  467SOL     OW 1399   0.746   0.495   1.652  0.8913 -0.2921 -0.3525
  467SOL    HW1 1400   0.803   0.540   1.725 -0.4502  1.6867  0.5303
  467SOL    HW2 1401   0.794   0.478   1.566 -0.3795 -4.2573  2.0715
  468SOL     OW 1402   0.572   1.093   2.666  0.2964 -0.3092 -0.1525
  468SOL    HW1 1403   0.538   1.163   2.602  2.8699 -0.6207  0.4418
  468SOL    HW2 1404   0.649   1.043   2.623  0.2013 -0.3824  2.2865
  469SOL     OW 1405   0.220   2.178   0.030 -0.3612 -0.1197  0.5399
  469SOL    HW1 1406   0.174   2.266   0.018  1.1138 -1.2479  0.6143
  469SOL    HW2 1407   0.161   2.115   0.085 -0.4928 -4.9958 -3.6494
  470SOL     OW 1408   2.214   1.846   2.636 -0.2636  0.6381 -0.1835
  470SOL    HW1 1409   2.272   1.773   2.678  1.8256  0.5202  1.4723
  470SOL    HW2 1410   2.240   1.943   2.663  1.7165  1.4511  1.1089
  471SOL     OW 1411   2.616   1.234   2.238  0.4246 -0.0331  0.0999
  471SOL    HW1 1412   2.629   1.134   2.254  1.7061 -1.5356  0.5241
  471SOL    HW2 1413   2.680   1.287   2.291 -0.9453 -3.3059 -0.2346
  472SOL     OW 1414   0.418   2.695   0.564 -0.2732 -0.0287 -0.2262
  472SOL    HW1 1415   0.338   2.681   0.492 -0.1501  0.0176 -1.7401
  472SOL    HW2 1416   0.409   2.779   0.625 -2.3406  0.2638 -1.4427
  473SOL     OW 1417   0.642   0.005   2.944 -0.2260  0.0757  0.5039
  473SOL    HW1 1418   0.620   3.065   3.043 -0.6088 -0.2806  2.7352
  473SOL    HW2 1419   0.710   0.079   2.934  2.0044  1.6497 -0.5145
  474SOL     OW 1420   1.703   3.067   2.181  0.1634 -0.3319 -0.5038
  474SOL    HW1 1421   1.623   3.008   2.188  1.5027  1.5056  0.1222
  474SOL    HW2 1422   1.696   0.058   2.108 -1.4756 -0.2242 -2.7597
  475SOL     OW 1423   1.610   2.356   0.279  0.2824  0.4115  0.4495
  475SOL    HW1 1424   1.668   2.333   0.361 -2.0905  1.4772 -1.3204
  475SOL    HW2 1425   1.676   2.368   0.201  1.7305  1.5383  1.9174
  476SOL     OW 1426   0.239   0.832   0.848 -0.6206 -0.2801 -0.4947
  476SOL    HW1 1427   0.142   0.805   0.856  1.4484  1.7792  1.2232
  476SOL    HW2 1428   0.305   0.761   0.884  0.9655  1.7642 -3.0125
  477SOL     OW 1429   1.499   2.312   0.837 -0.3461 -0.1489  0.8002
  477SOL    HW1 1430   1.541   2.223   0.809 -1.8069  1.1722  0.1835
  477SOL    HW2 1431   1.400   2.313   0.828  3.0486 -1.9758  1.0005
  478SOL     OW 1432   0.331   2.131   2.294  0.0485  0.4320 -0.8348
  478SOL    HW1 1433   0.343   2.095   2.387  1.5813 -0.9404  1.1535
  478SOL    HW2 1434   0.274   2.070   2.231 -0.1723 -1.1976 -2.0064
  479SOL     OW 1435   2.491   0.488   0.932  0.2321 -0.2105 -0.1679
  479SOL    HW1 1436   2.539   0.504   0.845 -2.3362 -1.9190  1.9204
  479SOL    HW2 1437   2.554   0.445   1.004 -0.1758 -2.1647  1.3318
  480SOL     OW 1438   3.059   2.731   0.112 -0.3516 -0.0657  0.4556
  480SOL    HW1 1439   0.023   2.799   0.168 -2.6566 -3.2637 -0.6431
  480SOL    HW2 1440   0.035   2.713   0.026  0.9306  1.4277  0.8857
  481SOL     OW 1441   2.623   2.763   1.232 -0.5477 -0.0389 -0.3164
  481SOL    HW1 1442   2.592   2.763   1.331  2.8159  0.9824  0.2876
  481SOL    HW2 1443   2.692   2.842   1.221  1.7604  5.2323  0.2234
  482SOL     OW 1444   1.237   2.041   2.814  0.1038 -0.5613  0.2648
  482SOL    HW1 1445   1.212   1.943   2.821  1.1175  3.2190 -1.5355
  482SOL    HW2 1446   1.307   2.053   2.739 -0.2836  3.1870  0.3097
  483SOL     OW 1447   0.452   1.964   2.726 -0.4986  0.0249  0.8645
  483SOL    HW1 1448   0.483   1.887   2.784  0.3006  0.8769  0.6753
  483SOL    HW2 1449   0.402   2.036   2.778  2.5528  0.4485 -1.8451
  484SOL     OW 1450   0.924   0.892   1.271  0.5692  0.1036  0.0137
  484SOL    HW1 1451   0.852   0.868   1.341 -1.4012 -0.7330  1.1346
  484SOL    HW2 1452   1.008   0.934   1.318  0.1720  0.4626  1.2990
  485SOL     OW 1453   2.322   0.556   0.204  0.3256  0.1168 -0.3213
  485SOL    HW1 1454   2.244   0.550   0.273 -1.5898  1.1151  1.3266
  485SOL    HW2 1455   2.317   0.642   0.146 -1.8726 -0.5336  1.4506
  486SOL     OW 1456   1.711   0.264   1.268  0.2347 -0.1484 -0.3633
  486SOL    HW1 1457   1.640   0.214   1.320  1.1220  2.0460  0.2851
  486SOL    HW2 1458   1.800   0.284   1.320  2.7059  0.6946  0.3577
  487SOL     OW 1459   0.352   2.320   0.929  0.7012 -0.3286 -0.4659
  487SOL    HW1 1460   0.302   2.410   0.933 -1.5731  1.1582  3.3385
  487SOL    HW2 1461   0.451   2.345   0.911 -0.3901  3.8215  1.2681
  488SOL     OW 1462   2.409   1.132   0.625 -0.0221  0.0958  0.2731
  488SOL    HW1 1463   2.381   1.122   0.530  1.0065 -0.9960  1.3111
  488SOL    HW2 1464   2.394   1.042   0.676  0.2499  1.4940 -2.1481
  489SOL     OW 1465   1.765   0.040   1.097  0.2906  0.2990 -0.3812
  489SOL    HW1 1466   1.779   0.022   0.997 -1.1151 -0.9845 -0.0355
  489SOL    HW2 1467   1.742   0.134   1.116 -0.3558  0.6194 -0.4634
  490SOL     OW 1468   0.893   0.426   0.545 -0.3461 -0.1432 -0.7247
  490SOL    HW1 1469   0.807   0.402   0.498  3.5455 -0.3672 -0.6920
  490SOL    HW2 1470   0.919   0.521   0.525 -0.4754 -1.1476 -1.0997
  491SOL     OW 1471   0.483   2.455   0.618  0.2260  0.4320  0.4288
  491SOL    HW1 1472   0.519   2.411   0.534 -0.3216  2.0897  0.9729
  491SOL    HW2 1473   0.460   2.551   0.601  0.9222 -2.0528 -1.9603
  492SOL     OW 1474   0.975   1.334   2.547  0.2200  0.5327  0.3681
  492SOL    HW1 1475   1.027   1.275   2.613 -2.1543  0.5987 -1.9515
  492SOL    HW2 1476   1.031   1.419   2.541  0.9975  2.3376  2.6519
  493SOL     OW 1477   0.084   2.683   0.921 -0.1864 -0.9501 -0.2992
  493SOL    HW1 1478   0.020   2.609   0.954  1.6502 -1.6367  0.3839
  493SOL    HW2 1479   0.085   2.751   0.995 -2.6993 -0.0621  1.9333
  494SOL     OW 1480   2.689   2.064   0.311  0.0362 -0.1693  0.2171
  494SOL    HW1 1481   2.661   2.165   0.306 -1.4643 -0.1591 -0.5678
  494SOL    HW2 1482   2.625   2.007   0.365 -0.7605 -0.4329 -0.9166
  495SOL     OW 1483   2.540   1.857   2.840 -0.6116 -0.5153  0.9847
  495SOL    HW1 1484   2.507   1.952   2.834  0.8467  4.4511 -0.2843
  495SOL    HW2 1485   2.479   1.794   2.789  0.5469  0.2304  0.0895
  496SOL     OW 1486   2.735   0.196   1.543  0.5919  0.0808 -0.3926
  496SOL    HW1 1487   2.823   0.242   1.532 -1.1985 -2.7930 -2.1566
  496SOL    HW2 1488   2.671   0.261   1.588 -1.4715  0.2539 -1.1453
  497SOL     OW 1489   2.430   0.988   0.052  0.3036 -0.0080  0.4176
  497SOL    HW1 1490   2.368   1.036   3.060 -1.5596  1.6814 -3.4491
  497SOL    HW2 1491   2.507   0.945   0.005  1.0542  1.0856  0.7101
  498SOL     OW 1492   3.042   1.974   2.256 -0.0049  0.1314  0.6963
  498SOL    HW1 1493   2.963   2.033   2.222 -0.4902 -1.0779 -1.1810
  498SOL    HW2 1494   3.079   2.011   2.346  0.0393  1.0337  0.1845
  499SOL     OW 1495   0.886   2.286   2.939  0.2814 -0.0057  0.2418
  499SOL    HW1 1496   0.872   2.220   3.017  2.6058 -0.4159  2.8459
  499SOL    HW2 1497   0.950   2.252   2.867 -1.7684  0.5567 -4.0646
  500SOL     OW 1498   1.507   2.969   0.004 -0.1053 -0.2182 -0.1566
  500SOL    HW1 1499   1.600   2.989   3.048  0.0062  2.7064 -1.1358
  500SOL    HW2 1500   1.457   3.058   0.032 -0.2601  0.0220 -2.3984
  501SOL     OW 1501   1.585   3.034   1.837 -0.5643 -0.0515 -0.1102
  501SOL    HW1 1502   1.647   2.972   1.787  2.9126  1.0636  1.0092
  501SOL    HW2 1503   1.594   0.047   1.797  2.8665 -2.3021 -0.6065
  502SOL     OW 1504   2.978   0.817   2.096  0.6261  0.2276  0.0205
  502SOL    HW1 1505   3.039   0.739   2.065  0.6352 -1.7057 -2.8818
  502SOL    HW2 1506   2.958   0.807   2.199  2.4825  1.1798  2.5173
  503SOL     OW 1507   2.250   2.330   2.324  0.8838 -0.4380  0.5723
  503SOL    HW1 1508   2.214   2.392   2.252 -0.4947 -0.6626 -0.3462
  503SOL    HW2 1509   2.190   2.248   2.329 -3.3347  1.8283 -2.0246
  504SOL     OW 1510   1.605   0.678   1.676  0.1031 -0.8910  0.2738
  504SOL    HW1 1511   1.673   0.750   1.646 -2.4989 -3.3623  1.2122
  504SOL    HW2 1512   1.622   0.583   1.644 -0.5508  0.6523  0.2620
  505SOL     OW 1513   0.789   0.900   1.670 -0.2260 -0.0370 -0.6615
  505SOL    HW1 1514   0.757   0.823   1.612  0.0206  1.9432 -0.2483
  505SOL    HW2 1515   0.788   0.876   1.771 -0.5960 -0.0049  0.7212
  506SOL     OW 1516   0.400   0.708   2.345 -0.4125 -0.1036  0.4765
  506SOL    HW1 1517   0.336   0.744   2.274  0.6597 -2.1881 -0.3757
  506SOL    HW2 1518   0.493   0.693   2.303 -1.1935 -1.2716 -0.0643
  507SOL     OW 1519   0.350   2.858   3.052  0.8234  0.1058  0.1900
  507SOL    HW1 1520   0.421   2.842   2.979  2.3688  2.1522 -2.7127
  507SOL    HW2 1521   0.294   2.937   3.028 -0.4553  0.1299 -0.0000
  508SOL     OW 1522   1.355   0.767   1.647  0.0677 -0.2086 -0.0057
  508SOL    HW1 1523   1.454   0.751   1.648 -1.6225  1.9620  1.8813
  508SOL    HW2 1524   1.340   0.865   1.634 -0.4606  1.3057  0.8482
  509SOL     OW 1525   1.128   2.014   1.498  0.4262 -0.4391  0.3571
  509SOL    HW1 1526   1.175   1.926   1.527 -0.2610 -0.6308  3.2478
  509SOL    HW2 1527   1.192   2.092   1.500  1.0092 -0.4052 -1.5236
  510SOL     OW 1528   2.401   1.310   2.369  0.1972 -0.1275 -0.5704
  510SOL    HW1 1529   2.361   1.256   2.447 -1.5276  2.2158  0.5946
  510SOL    HW2 1530   2.482   1.268   2.326  0.1481  3.4216  2.9422
  511SOL     OW 1531   0.786   1.842   1.080  0.0969  0.2015 -0.0428
  511SOL    HW1 1532   0.734   1.907   1.021  2.7895  0.1116 -1.2998
  511SOL    HW2 1533   0.807   1.882   1.170 -0.0909  0.1032  0.5053
  512SOL     OW 1534   2.451   2.266   0.288 -0.0059 -0.2186 -0.1071
  512SOL    HW1 1535   2.376   2.221   0.234  3.0723  2.8927 -3.3773
  512SOL    HW2 1536   2.435   2.267   0.386  0.3229 -0.0965 -3.1082
  513SOL     OW 1537   2.875   1.755   2.568  0.4031  0.3752  0.3203
  513SOL    HW1 1538   2.957   1.694   2.558 -0.4837 -1.1796  0.1241
  513SOL    HW2 1539   2.860   1.766   2.667 -0.7792 -1.5598 -1.0340
  514SOL     OW 1540   0.076   2.611   2.335 -0.2698  0.3061 -0.5730
  514SOL    HW1 1541   0.076   2.506   2.335 -2.5115 -3.6433  0.4747
  514SOL    HW2 1542   0.026   2.645   2.256 -3.4954 -2.0832  0.8920
  515SOL     OW 1543   2.162   1.167   1.415 -0.4929 -0.2837 -0.7738
  515SOL    HW1 1544   2.189   1.161   1.316 -1.2363 -4.0581  1.5970
  515SOL    HW2 1545   2.241   1.148   1.479  0.9772  0.7985 -1.2386
  516SOL     OW 1546   2.626   2.283   3.016  0.4682 -0.3441  0.1335
  516SOL    HW1 1547   2.678   2.282   2.927 -0.8696  0.0627 -0.0433
  516SOL    HW2 1548   2.629   2.193   3.064 -0.7071  1.0225  0.8370
  517SOL     OW 1549   1.335   0.833   2.978 -0.0969  0.2175 -0.0850
  517SOL    HW1 1550   1.340   0.896   2.901  0.1086 -0.8781 -0.4661
  517SOL    HW2 1551   1.286   0.749   2.950  1.3897  1.9713  1.6997
  518SOL     OW 1552   3.028   3.000   2.412 -0.5035  0.2795 -0.0964
  518SOL    HW1 1553   0.004   3.077   2.450  0.5662  0.3201  0.4133
  518SOL    HW2 1554   3.060   2.913   2.463  1.2207 -2.3342  0.7641
  519SOL     OW 1555   1.466   1.757   2.151 -0.5344 -0.2949  0.1558
  519SOL    HW1 1556   1.431   1.737   2.054  1.0149  2.9622 -3.0868
  519SOL    HW2 1557   1.425   1.840   2.192  1.9887 -1.3218 -1.7037
  520SOL     OW 1558   3.030   2.739   2.526  0.2875 -0.2346  0.2204
  520SOL    HW1 1559   3.069   2.697   2.446 -0.3184 -0.7425  0.0780
  520SOL    HW2 1560   2.944   2.684   2.551 -0.9330 -0.5615 -0.1184
  521SOL     OW 1561   0.305   1.755   2.065  0.2702  0.1508 -0.1588
  521SOL    HW1 1562   0.364   1.736   2.146 -0.4245  2.7535 -2.1970
  521SOL    HW2 1563   0.278   1.667   2.019 -2.5816 -0.3361 -0.1502
  522SOL     OW 1564   0.791   2.696   1.841  0.1016  0.1919 -0.2184
  522SOL    HW1 1565   0.834   2.767   1.784  0.9531 -2.1832  1.4310
  522SOL    HW2 1566   0.762   2.730   1.931 -0.6038 -1.7115 -1.4421
  523SOL     OW 1567   0.231   2.631   1.317  0.3128  0.0016 -0.1587
  523SOL    HW1 1568   0.183   2.546   1.354  0.4851  0.5535 -2.1969
  523SOL    HW2 1569   0.310   2.603   1.258  1.5201  0.3919  1.4741
  524SOL     OW 1570   1.525   2.530   0.658 -0.1363  0.5818 -0.2927
  524SOL    HW1 1571   1.481   2.473   0.587  1.7497  2.1809  1.1551
  524SOL    HW2 1572   1.543   2.480   0.743 -1.3602 -0.7343 -1.2608
  525SOL     OW 1573   2.370   0.997   1.071 -0.0455 -0.1517 -0.3328
  525SOL    HW1 1574   2.334   1.094   1.091 -0.8768  1.5672 -2.0253
  525SOL    HW2 1575   2.296   0.928   1.054 -0.8668 -1.1499 -1.5787
  526SOL     OW 1576   0.993   2.214   0.668  0.2646  0.3498  0.0166
  526SOL    HW1 1577   0.914   2.235   0.605  0.5287  0.2113 -2.1368
  526SOL    HW2 1578   0.992   2.114   0.681 -1.9469  0.0071 -0.5404
  527SOL     OW 1579   2.617   1.925   0.875  0.1458 -0.0332 -0.2099
  527SOL    HW1 1580   2.672   1.948   0.793  0.4813  0.3500  1.0575
  527SOL    HW2 1581   2.514   1.936   0.860 -0.3999 -3.7257  0.8772
  528SOL     OW 1582   2.135   0.363   0.051 -0.3596 -0.2019  0.3452
  528SOL    HW1 1583   2.188   0.439   0.012  2.0887 -0.9844  1.9838
  528SOL    HW2 1584   2.193   0.315   0.120 -0.3852  0.4453  0.6584
  529SOL     OW 1585   1.157   1.042   1.893  0.5361 -0.5211 -0.1096
  529SOL    HW1 1586   1.179   1.139   1.927  0.0999  1.0662  0.7620
  529SOL    HW2 1587   1.100   1.049   1.807 -1.5936 -1.0122  2.1689
  530SOL     OW 1588   2.483   1.019   2.686  0.3271 -0.0609  0.4372
  530SOL    HW1 1589   2.518   1.101   2.740  1.0484  0.1726  1.4882
  530SOL    HW2 1590   2.553   0.990   2.621 -3.3510  0.8152 -0.5532
  531SOL     OW 1591   1.055   0.936   3.041  0.2177  0.1362  0.4815
  531SOL    HW1 1592   1.151   0.903   3.052  0.1318  0.0486  0.2502
  531SOL    HW2 1593   1.001   0.942   0.050 -1.0793 -0.7544 -1.1681
  532SOL     OW 1594   1.862   0.533   0.643 -0.5148  0.3789 -0.0658
  532SOL    HW1 1595   1.917   0.462   0.589  1.9163  0.3806  0.8388
  532SOL    HW2 1596   1.786   0.493   0.693  2.4942  1.8897 -1.2148
  533SOL     OW 1597   0.462   0.809   1.932 -0.2456 -0.0281  0.5152
  533SOL    HW1 1598   0.419   0.799   2.026 -1.6378 -3.0239  1.8692
  533SOL    HW2 1599   0.565   0.803   1.933  1.2366 -2.9653  0.1729
  534SOL     OW 1600   1.597   0.029   2.620  0.4948  0.0861  0.1375
  534SOL    HW1 1601   1.650   0.055   2.537  2.1891 -1.2577  2.6292
  534SOL    HW2 1602   1.617   0.084   2.703 -0.1374 -1.3508  1.3762
  535SOL     OW 1603   0.776   0.098   0.301 -0.8250 -0.2349 -0.8150
  535SOL    HW1 1604   0.744   0.116   0.394  0.0213 -0.6772  0.5900
  535SOL    HW2 1605   0.839   0.019   0.315 -1.4155  0.2102  1.6327
  536SOL     OW 1606   1.161   2.779   1.284  0.0176  0.1610  0.2390
  536SOL    HW1 1607   1.242   2.821   1.237  1.5397 -1.2221 -2.7676
  536SOL    HW2 1608   1.106   2.722   1.218  0.7753  0.9436  0.9863
  537SOL     OW 1609   1.849   2.836   2.034 -0.8155  0.3156  0.0746
  537SOL    HW1 1610   1.801   2.925   2.046 -2.0182  0.6628  1.9073
  537SOL    HW2 1611   1.874   2.811   1.935 -0.6362 -2.2199 -1.8589
  538SOL     OW 1612   0.298   2.753   2.710  0.1982 -0.1899  0.5202
  538SOL    HW1 1613   0.382   2.799   2.748 -0.1382 -1.5247  2.0833
  538SOL    HW2 1614   0.307   2.748   2.607 -0.0167  1.6507 -1.1197
  539SOL     OW 1615   2.877   1.837   1.683 -0.4988  1.2476 -0.1149
  539SOL    HW1 1616   2.934   1.835   1.600  0.0610  1.6122  2.6229
  539SOL    HW2 1617   2.938   1.881   1.757  3.7844  1.7075 -0.6895
  540SOL     OW 1618   2.525   2.341   2.293 -0.3533  0.2656 -0.3874
  540SOL    HW1 1619   2.576   2.258   2.320  3.4779 -1.9395  3.0092
  540SOL    HW2 1620   2.427   2.332   2.296  3.8318  2.4998 -0.1496
  541SOL     OW 1621   0.113   2.891   1.626  1.0596  0.5685 -0.0956
  541SOL    HW1 1622   0.105   2.987   1.647  0.0392 -0.9479  1.3118
  541SOL    HW2 1623   0.198   2.869   1.572  1.4084  1.2202 -1.5837
  542SOL     OW 1624   0.060   0.611   2.022  0.3803  0.6908 -0.3938
  542SOL    HW1 1625   0.087   0.660   1.934  3.8385  1.3540  0.8150
  542SOL    HW2 1626   0.080   0.510   2.014  0.9093 -0.2191  0.2666
  543SOL     OW 1627   0.670   0.510   1.099 -0.1529  0.0613 -0.4148
  543SOL    HW1 1628   0.742   0.494   1.032  0.4805 -1.2057  0.3361
  543SOL    HW2 1629   0.643   0.418   1.143 -1.6370  0.1623  0.7182
  544SOL     OW 1630   2.236   2.099   1.236  0.3129 -0.4358 -0.1489
  544SOL    HW1 1631   2.310   2.034   1.208 -3.9765  1.5811 -1.1458
  544SOL    HW2 1632   2.159   2.052   1.288 -1.0466 -1.0831 -1.4687
  545SOL     OW 1633   1.168   1.488   0.756 -0.0489  0.0838 -0.0037
  545SOL    HW1 1634   1.219   1.572   0.769 -1.6875  1.2296 -1.6606
  545SOL    HW2 1635   1.234   1.412   0.753  1.5814  1.8884 -0.9039
  546SOL     OW 1636   2.926   0.486   2.238  0.1020  0.0582 -0.4015
  546SOL    HW1 1637   2.899   0.520   2.147  2.7773 -0.2844 -1.6185
  546SOL    HW2 1638   3.016   0.530   2.253 -2.0225  0.5831  0.2773
  547SOL     OW 1639   3.020   0.425   2.725 -0.6079  0.8269  0.9579
  547SOL    HW1 1640   2.950   0.369   2.683 -1.0447 -1.6837  1.8323
  547SOL    HW2 1641   0.013   0.358   2.758 -0.5459 -2.3541  0.0738
  548SOL     OW 1642   2.461   2.296   2.716 -0.6012  0.3271  0.7143
  548SOL    HW1 1643   2.433   2.327   2.812  0.0154  1.4319  0.4142
  548SOL    HW2 1644   2.407   2.344   2.639 -3.6151  0.3348 -2.7526
  549SOL     OW 1645   2.216   0.502   0.651  0.0140 -0.4656  0.0351
  549SOL    HW1 1646   2.162   0.491   0.737  1.0103 -0.4700  0.4872
  549SOL    HW2 1647   2.313   0.486   0.674 -0.2253 -1.3717 -2.1434
  550SOL     OW 1648   2.345   1.365   0.742 -0.1645  0.2410  0.3483
  550SOL    HW1 1649   2.398   1.450   0.710 -2.5412 -0.3969  1.2207
  550SOL    HW2 1650   2.371   1.273   0.700 -1.1748  0.1004  0.9353
  551SOL     OW 1651   1.400   2.678   1.458  0.5619  0.0890  0.1156
  551SOL    HW1 1652   1.429   2.606   1.525  3.2764  1.5804  0.4520
  551SOL    HW2 1653   1.319   2.647   1.401 -4.5971 -1.6764 -0.7413
  552SOL     OW 1654   2.293   2.418   2.567 -0.0047 -0.6701  0.2689
  552SOL    HW1 1655   2.279   2.401   2.466 -3.3162  0.3742 -0.9968
  552SOL    HW2 1656   2.216   2.475   2.604 -0.2249 -2.6728 -1.3348
  553SOL     OW 1657   0.727   2.637   0.547  0.1450 -0.0782  0.2724
  553SOL    HW1 1658   0.749   2.649   0.648  2.2488  1.6602  1.8554
  553SOL    HW2 1659   0.641   2.681   0.521  2.1585  0.9144 -2.7653
  554SOL     OW 1660   2.025   2.613   1.604 -0.4009 -0.4690 -0.0807
  554SOL    HW1 1661   1.931   2.572   1.604 -0.3529 -2.1413 -0.8832
  554SOL    HW2 1662   2.083   2.587   1.525  0.0185  1.9213 -3.0766
  555SOL     OW 1663   1.908   2.258   2.129  0.2799 -0.1434 -0.0061
  555SOL    HW1 1664   1.950   2.349   2.145  0.0179  2.3241  0.7950
  555SOL    HW2 1665   1.972   2.183   2.103 -0.0174 -1.0854  0.6949
  556SOL     OW 1666   1.145   0.309   0.551  0.2097 -0.4571  0.6154
  556SOL    HW1 1667   1.056   0.355   0.534  1.9790 -2.0118  1.1848
  556SOL    HW2 1668   1.171   0.242   0.478  0.0148 -2.7469  0.9010
  557SOL     OW 1669   0.958   2.064   1.683 -0.0088  0.3644 -0.0935
  557SOL    HW1 1670   1.012   2.044   1.595 -0.9486 -1.9193  0.0439
  557SOL    HW2 1671   0.891   2.146   1.675 -0.5555 -2.0789  0.7792
  558SOL     OW 1672   2.793   1.383   2.365  0.3483 -0.0928  0.5185
  558SOL    HW1 1673   2.822   1.470   2.321  1.4088 -1.6878  0.3335
  558SOL    HW2 1674   2.740   1.406   2.451 -1.7814  1.8683  2.6858
  559SOL     OW 1675   2.075   2.472   2.136 -0.7153 -0.5042 -0.0999
  559SOL    HW1 1676   2.123   2.424   2.055 -0.2716 -1.0460 -0.1979
  559SOL    HW2 1677   2.104   2.571   2.129 -0.0220 -0.9867 -2.4607
  560SOL     OW 1678   0.495   0.333   2.465 -0.2183 -0.0309  0.0978
  560SOL    HW1 1679   0.531   0.338   2.371 -1.0874  1.1166 -1.5673
  560SOL    HW2 1680   0.490   0.231   2.494 -0.6111 -3.4819 -1.8398
  561SOL     OW 1681   1.159   0.425   0.222 -0.1251  0.6662  0.6465
  561SOL    HW1 1682   1.230   0.452   0.289 -2.7657  2.1171 -1.3819
  561SOL    HW2 1683   1.107   0.338   0.248  0.8526 -1.2031  0.6818
  562SOL     OW 1684   0.858   1.301   1.870  0.1082 -0.4421 -0.3945
  562SOL    HW1 1685   0.859   1.357   1.958  0.7751  3.2081  0.4642
  562SOL    HW2 1686   0.935   1.323   1.803  2.7937  0.6326  1.1103
  563SOL     OW 1687   1.904   2.104   0.127 -0.1207 -0.2197  0.0067
  563SOL    HW1 1688   2.000   2.108   0.092  2.8891  0.1564  0.9667
  563SOL    HW2 1689   1.910   2.069   0.223  1.5712 -0.4499 -3.5422
  564SOL     OW 1690   2.843   2.331   0.684  0.2388 -0.3210  0.1780
  564SOL    HW1 1691   2.766   2.376   0.737 -0.2094  1.0109  0.5514
  564SOL    HW2 1692   2.822   2.235   0.673  2.3731 -0.5491  1.5033
  565SOL     OW 1693   0.510   0.069   2.521 -0.5676 -0.0877 -0.0316
  565SOL    HW1 1694   0.474   0.055   2.615  2.4954  1.1388 -2.0538
  565SOL    HW2 1695   0.589   0.007   2.497 -0.2034  2.2933  0.9427
  566SOL     OW 1696   1.577   2.573   2.496 -0.2439 -0.3265 -0.1301
  566SOL    HW1 1697   1.624   2.636   2.566  1.6179 -0.4414  0.2916
  566SOL    HW2 1698   1.608   2.475   2.507 -0.2664  0.2067  2.1114
  567SOL     OW 1699   2.031   1.958   1.324  0.3572  0.1726  0.2484
  567SOL    HW1 1700   2.021   1.870   1.274 -0.8337 -1.6688  0.8701
  567SOL    HW2 1701   1.948   2.016   1.308  0.8588  1.3279 -0.8812
  568SOL     OW 1702   2.036   0.903   2.954  0.3237 -0.0194 -0.1992
  568SOL    HW1 1703   1.955   0.953   2.980  0.5964 -1.0168 -0.3002
  568SOL    HW2 1704   2.049   0.812   3.003  4.5828  0.4683 -1.3729
  569SOL     OW 1705   2.212   1.836   2.041 -0.1627  0.1320 -0.1021
  569SOL    HW1 1706   2.231   1.818   1.945  0.5021  2.0616  2.7334
  569SOL    HW2 1707   2.279   1.782   2.091 -1.1390  1.5758 -2.5340
  570SOL     OW 1708   2.885   3.022   1.941 -0.0499  0.0071 -0.2075
  570SOL    HW1 1709   2.869   3.051   2.037  0.1034 -0.0938 -1.6283
  570SOL    HW2 1710   2.909   2.922   1.936 -0.8249 -0.4905 -1.7971
  571SOL     OW 1711   0.189   0.929   1.200  0.1319 -0.6896 -0.3458
  571SOL    HW1 1712   0.223   1.010   1.152  1.9579 -2.7368  1.0924
  571SOL    HW2 1713   0.213   0.934   1.302  2.1173 -0.7776  0.2923
  572SOL     OW 1714   0.159   1.588   1.142 -0.0411 -0.1413  0.0489
  572SOL    HW1 1715   0.067   1.564   1.189 -0.3762  2.5254  0.0564
  572SOL    HW2 1716   0.151   1.555   1.044 -1.5994 -0.2056 -1.5065
  573SOL     OW 1717   0.941   0.529   0.121 -0.6355 -0.2119 -0.0953
  573SOL    HW1 1718   0.911   0.625   0.140 -1.3179  0.8944 -2.6984
  573SOL    HW2 1719   1.039   0.510   0.163 -0.2739  0.2997  1.2065
  574SOL     OW 1720   0.358   0.087   3.059  0.3371  0.3568  0.0124
  574SOL    HW1 1721   0.372   0.176   3.012 -2.5828 -2.3499  1.6148
  574SOL    HW2 1722   0.445   0.052   0.025 -1.0668  1.5408  2.1232
  575SOL     OW 1723   0.868   2.413   0.864 -0.1823 -0.4675  0.2962
  575SOL    HW1 1724   0.896   2.347   0.794 -1.2426 -0.2331  1.3804
  575SOL    HW2 1725   0.907   2.372   0.956  1.4505 -3.0628  1.8582
  576SOL     OW 1726   3.001   2.913   1.288 -0.3811 -0.6635  0.4260
  576SOL    HW1 1727   2.938   2.979   1.241 -1.2500  0.6412  1.9368
  576SOL    HW2 1728   2.965   2.888   1.385 -1.9292 -1.3131  1.1764
  577SOL     OW 1729   2.687   1.842   1.913 -0.3349  0.6350  0.5659
  577SOL    HW1 1730   2.653   1.934   1.937 -2.9788 -0.4328 -1.9400
  577SOL    HW2 1731   2.773   1.850   1.858  0.1998  1.4125 -0.0068
  578SOL     OW 1732   1.087   2.888   2.408  0.2507 -0.2391  0.1143
  578SOL    HW1 1733   1.061   2.791   2.389 -0.9995  2.5146 -1.2356
  578SOL    HW2 1734   1.119   2.893   2.505  0.8760 -0.5689  0.4647
  579SOL     OW 1735   1.828   1.768   2.041 -0.0533 -0.4233  0.3153
  579SOL    HW1 1736   1.728   1.762   2.019 -1.6577 -2.6711 -1.0092
  579SOL    HW2 1737   1.892   1.746   1.960  0.0669 -1.3257 -0.3555
  580SOL     OW 1738   1.640   0.643   2.198 -0.4190 -0.1799  0.9269
  580SOL    HW1 1739   1.619   0.649   2.099 -0.4923 -0.9746 -2.0550
  580SOL    HW2 1740   1.679   0.727   2.240 -2.9681 -4.7446 -1.7618
  581SOL     OW 1741   0.970   1.483   2.062  0.2820 -0.0447 -0.9625
  581SOL    HW1 1742   0.925   1.573   2.036 -0.5666  1.7739  2.9371
  581SOL    HW2 1743   0.937   1.450   2.154  0.5656 -0.2751 -1.7442
  582SOL     OW 1744   0.095   2.666   1.785 -0.1340  0.2503 -0.0856
  582SOL    HW1 1745   0.163   2.653   1.861  0.6420  1.4585  2.9524
  582SOL    HW2 1746   0.095   2.761   1.739 -0.4511 -3.1719  0.4984
  583SOL     OW 1747   1.369   1.390   1.375 -0.1173  0.1760  0.1622
  583SOL    HW1 1748   1.414   1.347   1.457  2.1739 -0.0856  1.1166
  583SOL    HW2 1749   1.267   1.395   1.379 -1.0188 -0.9516  2.2632
  584SOL     OW 1750   1.378   1.806   2.606  0.3817  0.0863  0.1633
  584SOL    HW1 1751   1.418   1.742   2.536  0.5448 -0.5221  0.4578
  584SOL    HW2 1752   1.437   1.890   2.607  2.4370 -2.0744 -1.9332
  585SOL     OW 1753   0.229   2.481   0.165 -0.5596  0.3886  0.2433
  585SOL    HW1 1754   0.266   2.487   0.069 -2.6804 -0.5357  1.3429
  585SOL    HW2 1755   0.151   2.416   0.172  1.3469  1.9525 -0.1411
  586SOL     OW 1756   1.938   2.012   0.392 -0.1588 -0.0074  0.3307
  586SOL    HW1 1757   2.000   2.003   0.475  2.0050 -2.0604 -1.6218
  586SOL    HW2 1758   1.904   1.918   0.370  1.0299 -0.1618  0.1650
  587SOL     OW 1759   2.775   2.048   0.661  0.1019  0.5610  0.3984
  587SOL    HW1 1760   2.862   2.000   0.699 -0.1395  0.9200  0.0469
  587SOL    HW2 1761   2.769   2.031   0.559 -1.6245  1.1580 -2.1760
  588SOL     OW 1762   2.286   0.252   0.887 -0.7795 -0.3571 -0.0418
  588SOL    HW1 1763   2.331   0.341   0.920  0.6777  0.2350 -1.4526
  588SOL    HW2 1764   2.199   0.279   0.838  0.6904  0.5565  1.4936
  589SOL     OW 1765   0.496   0.688   0.982  0.1372 -0.2393  0.3434
  589SOL    HW1 1766   0.562   0.624   1.020  0.5760  0.0591  0.4303
  589SOL    HW2 1767   0.539   0.775   0.944 -2.0181 -1.5314 -2.5984
  590SOL     OW 1768   2.584   2.467   0.139 -0.2573  0.2225 -0.3308
  590SOL    HW1 1769   2.592   2.417   0.049  1.0021  0.4613  3.0737
  590SOL    HW2 1770   2.534   2.402   0.203 -2.2905 -0.9140  2.2411
  591SOL     OW 1771   0.562   2.288   1.848  0.0973 -0.8510  0.3789
  591SOL    HW1 1772   0.645   2.233   1.860  0.9237 -0.2814  1.0248
  591SOL    HW2 1773   0.537   2.297   1.750  0.3917 -2.6123 -4.2971
  592SOL     OW 1774   0.684   1.438   1.607 -0.1157 -0.1025  0.5891
  592SOL    HW1 1775   0.779   1.411   1.619 -0.8096  2.1019 -0.9590
  592SOL    HW2 1776   0.616   1.364   1.584  0.8409  0.3472  0.5116
  593SOL     OW 1777   1.066   2.052   1.205  0.0228  0.4020  0.3630
  593SOL    HW1 1778   1.069   2.037   1.307  2.2146  2.4884  0.5278
  593SOL    HW2 1779   1.132   1.981   1.164  1.2057  0.0522  0.4889
  594SOL     OW 1780   0.525   1.489   3.019 -0.3579  0.2034 -0.4905
  594SOL    HW1 1781   0.479   1.491   0.033 -0.6081 -1.5375  2.8015
  594SOL    HW2 1782   0.453   1.465   2.950  0.3152  2.2538  0.6386
  595SOL     OW 1783   1.125   0.507   1.117 -0.0242  0.1961  0.1114
  595SOL    HW1 1784   1.174   0.423   1.137 -0.2761  2.9459 -1.4110
  595SOL    HW2 1785   1.116   0.561   1.205  0.7160 -2.9111 -0.6776
  596SOL     OW 1786   0.406   1.495   0.735 -0.2465 -0.0613 -0.6136
  596SOL    HW1 1787   0.463   1.469   0.819  1.1212 -0.0161  1.7738
  596SOL    HW2 1788   0.395   1.419   0.668  1.6522 -0.5191 -1.0230
  597SOL     OW 1789   0.083   1.985   2.891  0.7449  0.1240 -0.4257
  597SOL    HW1 1790   3.067   2.016   2.909  0.0619 -0.7084  1.6667
  597SOL    HW2 1791   0.152   2.046   2.935 -1.1870  0.9337 -0.6282
  598SOL     OW 1792   2.105   2.096   2.333  0.0235 -0.1180 -0.4226
  598SOL    HW1 1793   2.009   2.070   2.312  1.5343 -0.7130 -1.4091
  598SOL    HW2 1794   2.169   2.015   2.339 -1.2543  0.3769 -1.5394
  599SOL     OW 1795   1.410   0.399   0.680 -0.0896  0.1773 -0.4268
  599SOL    HW1 1796   1.415   0.497   0.651 -1.6755  1.4611 -1.4559
  599SOL    HW2 1797   1.318   0.363   0.655 -0.1013 -0.0671  1.0001
  600SOL     OW 1798   0.890   2.684   0.319 -0.1614  0.7361 -0.2275
  600SOL    HW1 1799   0.828   2.662   0.397 -0.2653  0.8373 -0.4144
  600SOL    HW2 1800   0.951   2.611   0.289 -1.3417  1.3758 -0.2115
  601SOL     OW 1801   0.627   0.294   1.249 -0.1739 -0.5419  0.2517
  601SOL    HW1 1802   0.582   0.315   1.334  2.8435 -0.2680 -2.3947
  601SOL    HW2 1803   0.727   0.269   1.278  0.5489  0.0704  1.4911
  602SOL     OW 1804   3.054   2.913   0.568 -0.2639  0.1637  0.3650
  602SOL    HW1 1805   3.037   2.845   0.642 -2.8305  0.8310 -2.1311
  602SOL    HW2 1806   0.002   2.998   0.607 -0.9781 -2.2307 -2.7799
  603SOL     OW 1807   0.931   2.566   2.642  0.0878  0.3085 -0.2000
  603SOL    HW1 1808   0.935   2.627   2.563 -1.7969 -1.0408  2.3107
  603SOL    HW2 1809   0.835   2.537   2.651 -3.0934  4.6914  3.5387
  604SOL     OW 1810   1.061   2.497   2.883  0.1186 -0.3585 -0.1605
  604SOL    HW1 1811   1.000   2.425   2.919  0.6439  2.5083  3.2566
  604SOL    HW2 1812   1.025   2.542   2.798 -0.1673 -0.0732 -0.2126
  605SOL     OW 1813   0.721   0.766   1.899 -0.4911  0.6588 -0.0963
  605SOL    HW1 1814   0.777   0.681   1.875  1.0986  0.2642  2.0942
  605SOL    HW2 1815   0.741   0.807   1.996 -0.9333  1.0865  1.5506
  606SOL     OW 1816   1.686   0.493   2.554 -0.1828 -0.4469  0.3433
  606SOL    HW1 1817   1.703   0.484   2.452 -0.1194 -0.5949 -0.2331
  606SOL    HW2 1818   1.648   0.403   2.591 -0.6280 -2.3922 -1.1533
  607SOL     OW 1819   0.157   1.274   1.273 -0.2902 -0.3786 -0.2436
  607SOL    HW1 1820   0.220   1.276   1.357  0.9323  1.1298 -1.2624
  607SOL    HW2 1821   0.117   1.364   1.249  1.5531 -0.5962 -0.4365
  608SOL     OW 1822   2.853   2.443   2.277 -0.1094 -0.0491  0.6233
  608SOL    HW1 1823   2.802   2.528   2.292 -2.5034  0.6083  0.9549
  608SOL    HW2 1824   2.944   2.444   2.319 -1.2817  1.7175 -2.7098
  609SOL     OW 1825   1.659   0.493   0.147 -0.2177  0.3082 -0.4877
  609SOL    HW1 1826   1.760   0.489   0.126  2.4750  0.3899 -0.7274
  609SOL    HW2 1827   1.598   0.519   0.070  0.0228 -2.4411  1.0915
  610SOL     OW 1828   0.972   2.670   1.065 -0.0512  0.2556 -0.1646
  610SOL    HW1 1829   0.937   2.764   1.032 -3.2637 -0.9590 -1.2071
  610SOL    HW2 1830   0.930   2.653   1.158  1.3605 -0.6346 -2.2216
  611SOL     OW 1831   0.891   0.838   0.233 -0.1278  0.1764 -0.3604
  611SOL    HW1 1832   0.791   0.833   0.223 -1.0719  0.6254 -2.1798
  611SOL    HW2 1833   0.914   0.933   0.261 -0.1654 -1.3300 -0.9749
  612SOL     OW 1834   1.380   0.687   2.324  0.6459 -0.9532  0.1195
  612SOL    HW1 1835   1.442   0.628   2.268  1.0826  1.0621  2.1431
  612SOL    HW2 1836   1.384   0.663   2.423  1.9064 -1.2929 -3.5468
  613SOL     OW 1837   1.999   0.801   0.473 -0.2227  0.2135  0.2657
  613SOL    HW1 1838   2.032   0.852   0.551 -2.4142 -0.3259 -3.6249
  613SOL    HW2 1839   1.988   0.867   0.394  1.8729  1.6155 -1.1787
  614SOL     OW 1840   1.799   0.508   1.935 -0.2911  0.3716 -0.5324
  614SOL    HW1 1841   1.781   0.454   2.023  1.5073 -2.9284  2.8109
  614SOL    HW2 1842   1.871   0.576   1.945 -1.4554 -0.5487  0.1624
  615SOL     OW 1843   0.661   2.080   0.929 -0.1356 -0.7380 -0.0337
  615SOL    HW1 1844   0.606   1.999   0.898 -1.5441  0.1934 -3.4503
  615SOL    HW2 1845   0.629   2.170   0.897  1.0904  2.2428 -0.2825
  616SOL     OW 1846   1.820   1.169   2.303 -0.0083  0.0493  0.1392
  616SOL    HW1 1847   1.767   1.261   2.296  0.7485  2.4903 -0.2392
  616SOL    HW2 1848   1.888   1.167   2.381  4.3965 -0.1868  0.0025
  617SOL     OW 1849   1.818   2.648   0.112 -0.8515 -0.3447 -0.1294
  617SOL    HW1 1850   1.722   2.677   0.121 -1.7573 -2.7267 -2.3253
  617SOL    HW2 1851   1.813   2.546   0.100 -1.2569  0.6783  1.3535
  618SOL     OW 1852   1.002   0.970   2.735 -0.3222 -0.5161  0.0328
  618SOL    HW1 1853   0.908   0.971   2.697  1.6677  1.0279 -0.1846
  618SOL    HW2 1854   1.002   0.954   2.835  0.2985  1.6173 -0.1526
  619SOL     OW 1855   2.532   1.314   0.953 -0.4803  0.1658 -0.0391
  619SOL    HW1 1856   2.572   1.221   0.958  0.7014  0.3630  1.1217
  619SOL    HW2 1857   2.465   1.329   0.879  3.3927 -0.5593  0.6686
  620SOL     OW 1858   2.468   2.793   3.048 -0.1774 -0.5701  0.4976
  620SOL    HW1 1859   2.446   2.782   2.947  0.0147  2.8940 -0.5896
  620SOL    HW2 1860   2.558   2.749   3.074 -0.9770 -1.6650 -0.9973
  621SOL     OW 1861   2.054   0.983   0.274 -0.4169 -0.4920 -0.2131
  621SOL    HW1 1862   2.132   1.016   0.218 -0.5631  1.5271  1.5369
  621SOL    HW2 1863   2.012   1.060   0.330 -1.7712  0.6022 -0.5863
  622SOL     OW 1864   1.027   2.176   2.703 -0.0472  0.4398 -0.2515
  622SOL    HW1 1865   1.065   2.243   2.635 -0.2332 -0.1196 -1.0990
  622SOL    HW2 1866   1.103   2.121   2.742 -0.7960  0.8911  2.9385
  623SOL     OW 1867   0.350   1.722   0.111 -0.1972  0.0451 -0.4496
  623SOL    HW1 1868   0.270   1.722   0.050  0.3129  4.0121  0.4613
  623SOL    HW2 1869   0.375   1.821   0.118 -0.3741  0.5277 -1.3152
  624SOL     OW 1870   0.401   0.045   2.761 -0.3567  0.2074 -0.0072
  624SOL    HW1 1871   0.483   0.024   2.814  0.6029 -0.5890 -0.2981
  624SOL    HW2 1872   0.315   0.002   2.807 -2.4461 -1.6325  1.8639
  625SOL     OW 1873   0.842   1.734   0.121 -0.0142 -0.4975  0.4378
  625SOL    HW1 1874   0.848   1.835   0.123  1.9354 -0.1681 -0.3860
  625SOL    HW2 1875   0.757   1.702   0.168 -1.0272 -0.1951  0.4623
  626SOL     OW 1876   2.679   0.223   0.234  0.0640  0.1244 -0.1178
  626SOL    HW1 1877   2.706   0.130   0.203 -1.9119  0.8124  0.9081
  626SOL    HW2 1878   2.593   0.261   0.195  0.2891 -1.2641  2.8117
  627SOL     OW 1879   1.433   1.233   2.792 -0.7689 -0.8322  0.2569
  627SOL    HW1 1880   1.451   1.214   2.886 -3.2419  0.1466 -4.5489
  627SOL    HW2 1881   1.511   1.197   2.736  1.6729  1.3485 -0.5397
  628SOL     OW 1882   1.433   0.902   2.711  0.3296 -0.3993 -0.3227
  628SOL    HW1 1883   1.420   0.803   2.695  0.3755 -0.6689  2.3088
  628SOL    HW2 1884   1.409   0.956   2.630 -1.0145 -0.0527 -0.9992
  629SOL     OW 1885   0.157   0.078   1.658 -0.1752  0.2326 -0.0258
  629SOL    HW1 1886   0.255   0.076   1.692 -0.3739  0.5262 -1.3171
  629SOL    HW2 1887   0.146   0.136   1.578  1.3367  1.6721  0.5969
  630SOL     OW 1888   2.653   0.950   1.970 -0.0188  0.2296 -0.6729
  630SOL    HW1 1889   2.673   0.978   2.067  2.5287 -1.0631  2.1811
  630SOL    HW2 1890   2.720   0.894   1.925 -3.2295  2.7223 -0.4251
  631SOL     OW 1891   2.094   0.950   0.678  0.2869 -0.3996 -0.3931
  631SOL    HW1 1892   2.103   1.040   0.631 -0.5277  2.1194  1.9087
  631SOL    HW2 1893   2.184   0.911   0.706  0.3739 -0.5421  1.3826
  632SOL     OW 1894   2.619   0.695   1.724  0.1638  0.6084 -0.0120
  632SOL    HW1 1895   2.684   0.713   1.797 -1.8476 -0.4532  0.1167
  632SOL    HW2 1896   2.666   0.714   1.636 -0.3536  1.5558  0.5437
  633SOL     OW 1897   0.921   2.787   2.875  0.1877  0.4107  0.2985
  633SOL    HW1 1898   1.010   2.808   2.925  3.1145  2.0201 -0.6492
  633SOL    HW2 1899   0.906   2.689   2.874 -0.0020  3.6361 -0.8575
  634SOL     OW 1900   1.426   2.567   0.052 -0.2360  0.3618  0.1178
  634SOL    HW1 1901   1.491   2.601   0.118  0.5636  0.9334  0.5262
  634SOL    HW2 1902   1.397   2.648   3.070  1.6157  2.4279 -1.1455
  635SOL     OW 1903   2.908   0.377   0.259  0.5465 -0.3277  0.0013
  635SOL    HW1 1904   2.962   0.449   0.219 -0.3408 -1.0075  3.7024
  635SOL    HW2 1905   2.841   0.330   0.197 -1.6258 -1.9191  3.8325
  636SOL     OW 1906   0.354   1.358   0.517  0.3128  0.3917 -0.0044
  636SOL    HW1 1907   0.395   1.297   0.443  0.4052  1.2369 -0.1177
  636SOL    HW2 1908   0.257   1.331   0.547 -0.8313  0.0229 -0.6171
  637SOL     OW 1909   0.252   2.681   0.359  0.4200  0.2902 -0.5485
  637SOL    HW1 1910   0.247   2.602   0.292  2.0285 -1.1281 -0.9941
  637SOL    HW2 1911   0.195   2.757   0.324  0.4638  0.6943 -0.7978
  638SOL     OW 1912   2.966   2.550   0.324 -0.0402 -0.1197  0.0758
  638SOL    HW1 1913   3.014   2.584   0.240  1.3539  0.7854 -1.8998
  638SOL    HW2 1914   3.039   2.529   0.397  2.0468  0.2394  2.3080
  639SOL     OW 1915   1.289   1.165   0.286 -0.3764 -0.5363 -0.1767
  639SOL    HW1 1916   1.323   1.086   0.242 -0.8042  0.0755  1.1300
  639SOL    HW2 1917   1.245   1.231   0.214 -1.6794  0.6181 -1.0801
  640SOL     OW 1918   1.521   2.463   1.060  0.8171  0.1919 -0.1595
  640SOL    HW1 1919   1.583   2.542   1.050 -1.4398 -0.7386 -1.8750
  640SOL    HW2 1920   1.513   2.420   0.969  2.9654  2.7704  3.0794
  641SOL     OW 1921   2.984   2.508   0.989 -0.1775 -0.2660  0.2520
  641SOL    HW1 1922   3.014   2.417   0.947 -0.2592 -1.3689 -0.1228
  641SOL    HW2 1923   2.890   2.502   1.031  1.0226  0.3581 -2.7105
  642SOL     OW 1924   0.619   2.984   1.759 -0.1631 -0.3972  0.0219
  642SOL    HW1 1925   0.687   3.039   1.708 -0.5234  0.2785  0.7562
  642SOL    HW2 1926   0.526   3.018   1.742  0.8766  0.8140 -0.3446
  643SOL     OW 1927   0.779   2.091   2.634 -0.2644 -0.4393  0.6263
  643SOL    HW1 1928   0.873   2.106   2.671 -1.1146 -2.6154 -0.5141
  643SOL    HW2 1929   0.718   2.051   2.700  0.8608 -0.1422 -4.7465
  644SOL     OW 1930   1.002   2.588   0.631  0.2132  0.2637 -0.8364
  644SOL    HW1 1931   1.077   2.582   0.565  0.1528 -0.3410  0.3263
  644SOL    HW2 1932   0.914   2.562   0.582  0.2394 -1.3935 -0.0093
  645SOL     OW 1933   1.352   1.471   1.949  0.2549  1.3184  0.0526
  645SOL    HW1 1934   1.270   1.411   1.965  1.3453 -2.3990  0.4261
  645SOL    HW2 1935   1.408   1.459   2.036 -0.8870  1.6174 -0.6811
  646SOL     OW 1936   0.307   1.118   0.102  0.0645 -0.5842 -0.5825
  646SOL    HW1 1937   0.229   1.051   0.116  0.2733 -0.1925 -0.8017
  646SOL    HW2 1938   0.399   1.074   0.085  0.5951 -2.1715  0.8187
  647SOL     OW 1939   1.157   0.236   0.857  0.7655 -0.1332 -0.1954
  647SOL    HW1 1940   1.217   0.306   0.813  0.7708 -1.4108  0.4910
  647SOL    HW2 1941   1.177   0.144   0.810 -2.1165  2.6492  1.9074
  648SOL     OW 1942   2.499   2.773   1.483 -0.3014  0.3987  0.2824
  648SOL    HW1 1943   2.428   2.798   1.551  0.0127 -1.8070  1.3974
  648SOL    HW2 1944   2.477   2.685   1.440  1.9270  1.1107 -0.3139
  649SOL     OW 1945   0.636   1.917   3.023 -0.3267  0.9214  0.5570
  649SOL    HW1 1946   0.719   1.969   3.043 -0.3995 -0.8659 -0.7713
  649SOL    HW2 1947   0.559   1.944   0.006 -0.6907  0.6469  1.2599
  650SOL     OW 1948   2.447   2.007   1.690 -0.2321  0.3588 -0.0846
  650SOL    HW1 1949   2.461   2.079   1.620  1.0036 -0.2285  1.8839
  650SOL    HW2 1950   2.531   1.955   1.718  0.2037 -5.1565  2.5034
  651SOL     OW 1951   0.191   2.991   2.851 -0.3709  0.0388 -0.6491
  651SOL    HW1 1952   0.147   2.913   2.804  0.2509  0.0196  1.2164
  651SOL    HW2 1953   0.122   3.051   2.901 -3.1333  2.5543  1.7827
  652SOL     OW 1954   2.143   1.743   0.079 -0.2722 -0.4793  0.1109
  652SOL    HW1 1955   2.147   1.802   3.074 -0.3412  1.3489 -0.7344
  652SOL    HW2 1956   2.166   1.796   0.163 -0.8902 -1.1580  0.9116
  653SOL     OW 1957   0.082   0.052   0.673 -0.5028 -0.2262 -0.3027
  653SOL    HW1 1958   0.134   0.068   0.763 -1.3395  0.8829  3.5164
  653SOL    HW2 1959   0.111   0.108   0.596 -1.0265  0.5730  0.3738
  654SOL     OW 1960   1.183   3.019   0.182  0.1359 -0.4669  0.4132
  654SOL    HW1 1961   1.251   2.950   0.214 -2.5209  2.2660 -1.7882
  654SOL    HW2 1962   1.237   0.013   0.129  1.3528  0.7925  1.6830
  655SOL     OW 1963   0.841   2.639   1.318  0.4453  0.8346  0.2599
  655SOL    HW1 1964   0.770   2.566   1.303 -0.7474  0.5248 -1.7101
  655SOL    HW2 1965   0.912   2.618   1.384 -0.2783 -1.6794 -1.9152
  656SOL     OW 1966   0.476   0.147   2.068 -0.2300  0.2803  0.1406
  656SOL    HW1 1967   0.545   0.206   2.108 -0.7151 -2.6625 -1.2130
  656SOL    HW2 1968   0.390   0.151   2.121  2.5834 -0.0735 -1.6060
  657SOL     OW 1969   1.950   0.532   2.329 -0.2952 -0.6442 -0.4841
  657SOL    HW1 1970   1.968   0.441   2.280  1.2120 -0.4634 -0.6714
  657SOL    HW2 1971   2.037   0.582   2.333 -0.8928 -1.3388  1.2117
  658SOL     OW 1972   2.084   1.686   1.218  0.2815  0.2925  0.4377
  658SOL    HW1 1973   2.034   1.618   1.276  2.2595  2.0999 -0.3174
  658SOL    HW2 1974   2.183   1.702   1.243  2.9380  0.2570  1.5724
  659SOL     OW 1975   2.670   2.584   2.928  0.0092  0.4901  0.3542
  659SOL    HW1 1976   2.721   2.676   2.936 -1.8858 -1.6978 -0.4771
  659SOL    HW2 1977   2.589   2.586   2.863 -1.9941 -1.8788  0.6836
  660SOL     OW 1978   1.140   0.636   2.985 -0.7400  0.2247  0.1867
  660SOL    HW1 1979   1.114   0.539   2.958 -0.2644 -2.0506 -0.2056
  660SOL    HW2 1980   1.063   0.699   2.968  1.4891 -2.6489 -1.6956
  661SOL     OW 1981   2.366   2.872   0.896  0.1120 -0.1800  0.1557
  661SOL    HW1 1982   2.303   2.819   0.828 -3.1856 -0.4836 -3.0737
  661SOL    HW2 1983   2.460   2.832   0.899 -0.4100  1.1347  1.5651
  662SOL     OW 1984   0.474   0.492   0.628 -0.0356  0.0195  0.4679
  662SOL    HW1 1985   0.526   0.553   0.688 -0.9842 -1.2842 -0.5946
  662SOL    HW2 1986   0.520   0.458   0.547  1.3456  1.0347 -0.1173
  663SOL     OW 1987   1.414   2.295   2.338 -0.2901  0.0768  0.2638
  663SOL    HW1 1988   1.504   2.293   2.293  0.4356 -0.8034 -0.5703
  663SOL    HW2 1989   1.356   2.373   2.297 -1.3457 -1.2779  0.8274
  664SOL     OW 1990   0.669   2.420   1.310  0.4144 -0.4356 -0.2361
  664SOL    HW1 1991   0.755   2.365   1.291 -2.0093 -0.7504  2.0281
  664SOL    HW2 1992   0.599   2.357   1.348 -1.2447 -0.2493 -1.1281
  665SOL     OW 1993   1.343   2.182   1.564 -0.5537  0.4362 -0.2284
  665SOL    HW1 1994   1.409   2.157   1.636 -1.2075  1.9258  0.6611
  665SOL    HW2 1995   1.379   2.176   1.467  1.9705  0.9818 -1.2156
  666SOL     OW 1996   0.533   2.829   2.822  0.3270 -0.4882  0.0257
  666SOL    HW1 1997   0.593   2.894   2.870 -1.9674 -1.3274  0.5598
  666SOL    HW2 1998   0.575   2.753   2.767 -2.6939  0.5728 -2.7602
  667SOL     OW 1999   1.551   1.546   1.180  0.2331 -0.0827  0.3420
  667SOL    HW1 2000   1.514   1.512   1.268  0.5526  0.9832  1.5853
  667SOL    HW2 2001   1.564   1.647   1.181 -1.0412  0.3123 -2.4474
  668SOL     OW 2002   1.117   0.058   2.163 -0.0157  0.4059 -0.0704
  668SOL    HW1 2003   1.198   0.038   2.219  2.7931  1.6194  2.3020
  668SOL    HW2 2004   1.089   3.067   2.088 -3.7066 -0.2458  3.4184
  669SOL     OW 2005   2.204   2.303   1.979 -0.5018  0.1780  0.0473
  669SOL    HW1 2006   2.277   2.310   1.912  0.5600 -0.4821  1.4141
  669SOL    HW2 2007   2.180   2.207   1.999  2.5924 -0.2000  0.7864
  670SOL     OW 2008   2.239   1.917   0.289 -0.1647  0.0458  0.4413
  670SOL    HW1 2009   2.258   1.913   0.390  0.5873  1.4772 -2.5331
  670SOL    HW2 2010   2.260   2.005   0.239  1.9311  0.4005  0.5301
  671SOL     OW 2011   1.409   0.924   1.172  0.0913  0.1791 -0.3730
  671SOL    HW1 2012   1.410   0.868   1.089 -1.4698  1.6262 -1.3408
  671SOL    HW2 2013   1.402   1.025   1.161 -0.3527 -0.0326  0.1662
  672SOL     OW 2014   2.377   1.660   2.187 -0.4082 -0.7395 -0.2478
  672SOL    HW1 2015   2.478   1.668   2.154  3.2958  0.3834 -1.0947
  672SOL    HW2 2016   2.343   1.570   2.165  1.1581  1.1708  0.6802
  673SOL     OW 2017   2.621   1.623   2.086  0.0275  0.2148  0.6023
  673SOL    HW1 2018   2.643   1.715   2.046  3.4540  1.0092  1.3140
  673SOL    HW2 2019   2.703   1.594   2.140  1.0614 -1.6098 -0.8112
  674SOL     OW 2020   1.010   2.642   2.362 -0.1919 -0.2686  0.0030
  674SOL    HW1 2021   1.102   2.595   2.367  2.0734 -1.2894 -0.5887
  674SOL    HW2 2022   0.956   2.606   2.279  2.9173  1.2257  1.9654
  675SOL     OW 2023   0.531   0.992   1.393 -0.0563 -0.0382 -0.0307
  675SOL    HW1 2024   0.533   1.021   1.294  1.5054 -0.2034  0.0516
  675SOL    HW2 2025   0.603   0.925   1.405 -2.6318  1.7967  2.0951
  676SOL     OW 2026   2.067   0.457   0.865  0.3805  0.0096 -0.0876
  676SOL    HW1 2027   1.976   0.430   0.830  1.2298 -0.5766 -0.4521
  676SOL    HW2 2028   2.059   0.543   0.921  2.4854 -0.3681 -0.6581
  677SOL     OW 2029   2.378   1.664   2.744 -0.1305  0.8751 -0.0244
  677SOL    HW1 2030   2.396   1.618   2.656 -1.5973 -2.0579 -1.0701
  677SOL    HW2 2031   2.317   1.603   2.804 -2.1532  0.1229  2.1324
  678SOL     OW 2032   0.240   0.044   0.885  0.5992  0.0192  0.1991
  678SOL    HW1 2033   0.292   3.060   0.944 -0.7120  1.5178  0.4060
  678SOL    HW2 2034   0.294   0.130   0.863 -0.2297  1.0906  0.7729
  679SOL     OW 2035   2.457   2.952   0.283 -0.3959 -0.4127  0.6718
  679SOL    HW1 2036   2.514   3.019   0.229 -2.5056 -0.5586  1.2171
  679SOL    HW2 2037   2.486   2.942   0.379 -0.8032 -2.9931 -2.5378
  680SOL     OW 2038   0.130   2.368   2.096 -0.2836  0.0240 -0.0756
  680SOL    HW1 2039   0.194   2.304   2.051 -1.4545 -0.3556 -1.6131
  680SOL    HW2 2040   0.036   2.359   2.060  2.3381  1.1497  0.4829
  681SOL     OW 2041   2.657   1.667   1.342  0.2610  0.1501 -0.0685
  681SOL    HW1 2042   2.685   1.756   1.378  1.4581  1.1222  0.7666
  681SOL    HW2 2043   2.562   1.655   1.326  0.6677  2.0222 -1.4193
  682SOL     OW 2044   2.951   2.362   2.034 -0.3999  0.3168 -0.4067
  682SOL    HW1 2045   2.914   2.398   1.944 -2.1977  0.8584 -3.1319
  682SOL    HW2 2046   2.902   2.410   2.117 -0.9161 -1.5689  3.6386
  683SOL     OW 2047   2.986   2.169   1.461  0.1833  0.1048  0.4210
  683SOL    HW1 2048   2.985   2.144   1.359  1.3948  0.9589 -1.2728
  683SOL    HW2 2049   2.940   2.259   1.479  0.3707 -0.5027  1.2852
  684SOL     OW 2050   2.142   1.410   2.373  0.3728 -0.0546 -0.3866
  684SOL    HW1 2051   2.090   1.417   2.463 -0.7287  0.6781 -0.6780
  684SOL    HW2 2052   2.234   1.361   2.388  0.2879 -2.8562  1.1377
  685SOL     OW 2053   1.480   0.964   0.405 -0.3880  0.0446  0.1006
  685SOL    HW1 2054   1.383   0.935   0.405 -2.6021  1.4712  1.2809
  685SOL    HW2 2055   1.531   0.932   0.489  2.2982 -0.7940  0.0205
  686SOL     OW 2056   0.594   3.063   0.776 -0.2149  0.0383  0.3586
  686SOL    HW1 2057   0.615   0.031   0.861 -0.6338  1.8846  0.0411
  686SOL    HW2 2058   0.684   3.045   0.729 -1.7608  0.5158  1.5454
  687SOL     OW 2059   1.487   1.406   2.177 -0.0302  0.3285  1.0727
  687SOL    HW1 2060   1.576   1.419   2.223 -1.1327 -2.4819 -1.5387
  687SOL    HW2 2061   1.430   1.353   2.243 -1.1205 -0.9725  2.0150
  688SOL     OW 2062   1.364   1.862   1.272  0.4080 -0.4171 -0.6529
  688SOL    HW1 2063   1.289   1.795   1.257  2.6211  2.0824  2.1555
  688SOL    HW2 2064   1.443   1.833   1.329  1.0273  0.8894  0.0384
  689SOL     OW 2065   1.996   0.283   1.382 -0.5731  0.3427  0.2273
  689SOL    HW1 2066   2.017   0.264   1.286 -1.5311  0.9648 -0.0777
  689SOL    HW2 2067   2.078   0.287   1.441  0.7451 -1.1230 -2.8291
  690SOL     OW 2068   3.021   1.456   1.232  0.1717 -0.1843 -0.0857
  690SOL    HW1 2069   2.994   1.431   1.327 -0.5212 -1.8096 -1.1539
  690SOL    HW2 2070   2.958   1.414   1.166 -2.2056 -2.6650 -0.9694
  691SOL     OW 2071   0.533   2.720   0.947 -0.5838  0.5252 -0.2755
  691SOL    HW1 2072   0.622   2.695   0.905 -0.6013 -1.0198  2.9671
  691SOL    HW2 2073   0.456   2.671   0.904  1.1418 -0.3544 -0.0065
  692SOL     OW 2074   2.242   0.442   1.765 -0.2910  0.1404 -0.0053
  692SOL    HW1 2075   2.262   0.534   1.722  1.6324 -0.4942  1.0451
  692SOL    HW2 2076   2.228   0.459   1.865  0.7808  0.8796  0.0055
  693SOL     OW 2077   0.196   1.999   2.102 -0.2147  0.2324 -0.5077
  693SOL    HW1 2078   0.234   1.905   2.077  1.8168 -0.4702  1.8598
  693SOL    HW2 2079   0.094   2.011   2.089 -2.4702 -0.5710 -4.1591
  694SOL     OW 2080   1.502   1.487   1.721  0.0095 -0.5602  0.1099
  694SOL    HW1 2081   1.602   1.510   1.728  1.9313  1.0582 -0.3380
  694SOL    HW2 2082   1.461   1.476   1.815 -0.7769 -0.2511  2.4615
  695SOL     OW 2083   0.560   1.045   1.139 -0.0328 -0.3638  0.1940
  695SOL    HW1 2084   0.460   1.065   1.124 -2.5020 -0.2161  1.5831
  695SOL    HW2 2085   0.600   1.006   1.055  1.8048 -0.0165 -1.0321
  696SOL     OW 2086   1.548   2.972   0.714 -0.3255  0.3722 -0.0753
  696SOL    HW1 2087   1.525   3.067   0.677 -0.4452  0.7479  0.1209
  696SOL    HW2 2088   1.638   2.981   0.751 -2.5067  0.2908 -0.1784
  697SOL     OW 2089   1.290   0.271   1.710  0.5113 -0.6089  0.0169
  697SOL    HW1 2090   1.261   0.286   1.803 -0.7153 -0.4241  1.5954
  697SOL    HW2 2091   1.221   0.208   1.658 -1.4599 -1.7868 -0.2575
  698SOL     OW 2092   1.805   1.424   1.989 -0.3342  0.1686  0.1574
  698SOL    HW1 2093   1.736   1.346   2.014 -1.7451 -1.7850  0.7170
  698SOL    HW2 2094   1.869   1.452   2.064 -1.2236  1.5632  0.1184
  699SOL     OW 2095   2.217   0.276   1.520  0.4973  0.1025  0.1277
  699SOL    HW1 2096   2.261   0.362   1.492  1.4873 -1.1134  0.7633
  699SOL    HW2 2097   2.207   0.273   1.622  0.4131  1.4976 -0.7597
  700SOL     OW 2098   0.874   2.059   0.055 -0.0022  0.4325  0.8107
  700SOL    HW1 2099   0.854   2.126   0.127  1.3149  1.1757 -0.1875
  700SOL    HW2 2100   0.959   2.002   0.084  2.3002 -2.5403  2.2040
  701SOL     OW 2101   2.127   2.579   2.697 -0.5759 -0.1740  0.4725
  701SOL    HW1 2102   2.052   2.636   2.655 -1.2902  5.3332  0.0301
  701SOL    HW2 2103   2.096   2.535   2.783  1.4597  2.7802  2.6148
  702SOL     OW 2104   0.964   3.041   1.145 -0.3461 -0.2811  0.3539
  702SOL    HW1 2105   0.940   0.054   1.118  0.3235 -0.7120 -1.6219
  702SOL    HW2 2106   1.060   3.034   1.186  0.1119 -2.2680 -1.5459
  703SOL     OW 2107   2.269   0.277   2.331 -0.0971 -0.0748  0.1260
  703SOL    HW1 2108   2.303   0.290   2.426 -0.5581 -0.8006 -0.9657
  703SOL    HW2 2109   2.343   0.247   2.267 -0.0484 -0.9486  2.8286
  704SOL     OW 2110   2.777   2.348   0.408 -0.3227  0.1326 -0.2370
  704SOL    HW1 2111   2.841   2.414   0.365  0.6422 -1.3283 -0.6951
  704SOL    HW2 2112   2.812   2.333   0.505  0.0110  2.1425 -0.2702
  705SOL     OW 2113   2.472   0.179   2.150 -0.1237  0.4923 -0.0570
  705SOL    HW1 2114   2.431   0.138   2.065  0.8919 -0.8275  2.0302
  705SOL    HW2 2115   2.510   0.100   2.204 -0.2451 -0.0960  3.8972
  706SOL     OW 2116   2.202   2.993   1.302 -0.3842 -0.2658 -0.0006
  706SOL    HW1 2117   2.258   2.927   1.255 -2.3981 -0.8358  1.4047
  706SOL    HW2 2118   2.123   3.019   1.248  0.9984 -2.4385  0.6467
  707SOL     OW 2119   0.862   2.974   2.275  0.4637  0.7182 -0.3706
  707SOL    HW1 2120   0.928   2.925   2.337  0.8424  0.6206 -1.0623
  707SOL    HW2 2121   0.897   3.061   2.238  0.5699  0.7255  0.2320
  708SOL     OW 2122   2.864   2.462   1.782  0.3938 -0.4961  0.3356
  708SOL    HW1 2123   2.816   2.548   1.756 -1.2203  1.6925  3.0808
  708SOL    HW2 2124   2.950   2.455   1.725 -1.3353  0.4083  0.8742
  709SOL     OW 2125   1.702   0.414   1.683  0.2943  0.0828  0.3179
  709SOL    HW1 2126   1.789   0.416   1.627  1.1444  0.4615  1.1846
  709SOL    HW2 2127   1.705   0.473   1.764 -0.8930  1.4203 -2.4523
  710SOL     OW 2128   1.173   0.215   2.527 -0.2139 -0.0641 -0.7330
  710SOL    HW1 2129   1.073   0.219   2.540  1.1339 -1.6036  1.4858
  710SOL    HW2 2130   1.200   0.118   2.547 -0.7852  1.3054  0.3837
  711SOL     OW 2131   0.752   1.676   2.548  0.1042  0.3694  0.3388
  711SOL    HW1 2132   0.838   1.701   2.597  0.3063  0.4586 -0.3713
  711SOL    HW2 2133   0.674   1.706   2.604  1.3230 -3.7208  1.7304
  712SOL     OW 2134   0.997   1.677   2.683  0.7465  0.5331 -0.0820
  712SOL    HW1 2135   0.972   1.592   2.738 -2.5194  0.6224 -3.5952
  712SOL    HW2 2136   1.077   1.720   2.727 -2.5954 -2.9961 -1.1145
  713SOL     OW 2137   1.953   1.193   2.538 -0.2343 -0.1571 -0.8505
  713SOL    HW1 2138   1.963   1.290   2.560 -0.5477 -0.0656 -0.9818
  713SOL    HW2 2139   1.927   1.136   2.621 -2.3083 -2.2453  1.0603
  714SOL     OW 2140   0.997   1.624   1.800 -0.2560 -0.0982 -0.2805
  714SOL    HW1 2141   1.035   1.620   1.895  0.8481  1.3267 -0.2923
  714SOL    HW2 2142   0.918   1.688   1.793 -1.3448 -0.7265  2.1439
  715SOL     OW 2143   1.958   0.193   2.958 -0.0680 -0.6360  0.2887
  715SOL    HW1 2144   2.052   0.237   2.955  2.2527  0.4444  0.1072
  715SOL    HW2 2145   1.897   0.249   2.899  1.1817  0.6151 -0.7300
  716SOL     OW 2146   2.768   2.490   1.421  0.0798 -0.2189 -0.4429
  716SOL    HW1 2147   2.746   2.525   1.515  1.6529  0.2944 -2.1704
  716SOL    HW2 2148   2.841   2.539   1.376 -0.9858 -2.0691 -0.4505
  717SOL     OW 2149   2.597   1.061   0.899  0.2267  0.1727  0.4053
  717SOL    HW1 2150   2.541   0.998   0.957  2.4082 -0.6581  0.8627
  717SOL    HW2 2151   2.627   1.013   0.813  1.0776  1.0320 -0.9886
  718SOL     OW 2152   1.225   1.787   1.612 -0.0795  0.3319  0.2104
  718SOL    HW1 2153   1.329   1.777   1.608  4.1530 -1.5303  0.4747
  718SOL    HW2 2154   1.184   1.750   1.697 -1.1243  2.0313  0.1935
  719SOL     OW 2155   2.557   0.316   2.834 -0.1669  0.6563  0.3880
  719SOL    HW1 2156   2.552   0.415   2.848 -0.9180 -0.2707 -0.2424
  719SOL    HW2 2157   2.642   0.276   2.865 -2.8445 -0.2635  1.6334
  720SOL     OW 2158   0.928   0.237   1.060 -0.6081 -0.2620  0.0353
  720SOL    HW1 2159   0.989   0.281   0.988  0.7897  0.7055 -1.0130
  720SOL    HW2 2160   0.832   0.248   1.026 -1.6802 -1.1811 -3.3284
  721SOL     OW 2161   2.568   0.724   0.574 -0.2062  0.1734  0.1815
  721SOL    HW1 2162   2.616   0.715   0.482 -1.3610 -1.9045 -1.6092
  721SOL    HW2 2163   2.617   0.788   0.632 -1.7263 -1.7691  1.6874
  722SOL     OW 2164   0.525   2.727   2.316  0.2329  0.3529  0.1021
  722SOL    HW1 2165   0.572   2.642   2.293 -2.0004  0.8419 -0.4603
  722SOL    HW2 2166   0.533   2.799   2.244  1.2872 -0.4328 -2.4084
  723SOL     OW 2167   1.523   0.124   0.582 -0.7808 -0.5735 -0.1033
  723SOL    HW1 2168   1.616   0.119   0.533  2.5973 -1.0039  1.8375
  723SOL    HW2 2169   1.504   0.220   0.613 -0.5182  0.1118 -0.0037
  724SOL     OW 2170   0.871   1.725   2.032 -0.2334 -0.1405  0.6394
  724SOL    HW1 2171   0.862   1.702   2.127 -0.9968  2.3498 -3.7640
  724SOL    HW2 2172   0.785   1.761   1.985 -2.1047  1.4379  0.6179
  725SOL     OW 2173   1.536   0.131   1.430 -0.0765 -0.2339 -0.3319
  725SOL    HW1 2174   1.548   0.173   1.518 -0.8540 -3.5356  0.3355
  725SOL    HW2 2175   1.514   0.030   1.440  0.0216 -2.4043  0.3175
  726SOL     OW 2176   2.191   2.784   0.309 -0.2428  0.5851 -0.1674
  726SOL    HW1 2177   2.263   2.854   0.313 -1.3008 -0.0935 -1.0109
  726SOL    HW2 2178   2.240   2.697   0.311  1.8083  1.7341 -1.5458
  727SOL     OW 2179   1.284   1.895   0.629  0.1149 -0.1247 -0.1873
  727SOL    HW1 2180   1.350   1.971   0.635 -2.2944 -0.1880 -0.9301
  727SOL    HW2 2181   1.315   1.805   0.667 -3.0368  0.7647 -0.9138
  728SOL     OW 2182   2.198   2.670   2.413 -0.1384 -0.4844  0.3724
  728SOL    HW1 2183   2.215   2.692   2.313  0.9694  0.7875 -0.2110
  728SOL    HW2 2184   2.213   2.754   2.471 -1.4146 -0.9242  0.3959
  729SOL     OW 2185   2.023   2.286   1.673 -0.1087 -0.5469 -0.2291
  729SOL    HW1 2186   2.033   2.183   1.684 -0.1210 -0.2414 -0.1704
  729SOL    HW2 2187   1.981   2.342   1.746  1.6246 -0.3205  1.8768
  730SOL     OW 2188   1.656   0.884   2.891 -0.1547  0.3812 -0.6005
  730SOL    HW1 2189   1.698   0.794   2.875 -3.1584 -0.6139 -2.7656
  730SOL    HW2 2190   1.577   0.898   2.832  3.7548 -2.0616  2.5885
  731SOL     OW 2191   0.716   2.927   1.310 -0.6074  0.2029 -0.4216
  731SOL    HW1 2192   0.778   3.002   1.283 -2.9368 -0.8756  1.7870
  731SOL    HW2 2193   0.758   2.834   1.300  2.9450 -0.6664  0.7025
  732SOL     OW 2194   1.335   0.282   1.100  0.1120 -0.1376  0.1883
  732SOL    HW1 2195   1.438   0.285   1.118 -0.0148 -2.7451  1.7958
  732SOL    HW2 2196   1.311   0.258   1.004 -0.9469  2.1125  0.1944
  733SOL     OW 2197   0.960   1.174   0.971  0.0974 -0.0215 -0.8232
  733SOL    HW1 2198   0.961   1.074   0.945  2.0316  0.7273 -0.5543
  733SOL    HW2 2199   0.886   1.196   1.039 -0.9762 -1.7167 -0.2604
  734SOL     OW 2200   2.906   2.496   2.729  0.3186  0.3326  0.3460
  734SOL    HW1 2201   2.871   2.550   2.648 -0.1525 -2.1152  1.3784
  734SOL    HW2 2202   2.882   2.529   2.823 -1.1595  0.1022  0.5639
  735SOL     OW 2203   1.152   2.832   1.563 -0.1365  0.4955 -0.3310
  735SOL    HW1 2204   1.153   2.832   1.459  0.8504  0.7573  0.3995
  735SOL    HW2 2205   1.242   2.847   1.604 -1.8451 -2.4908 -1.4362
  736SOL     OW 2206   1.796   1.913   3.057  0.1806  0.3669  0.3819
  736SOL    HW1 2207   1.694   1.897   3.063  0.9625  1.1951 -0.0347
  736SOL    HW2 2208   1.818   1.999   0.028 -0.9987 -1.3572 -0.3387
  737SOL     OW 2209   0.179   2.148   1.435  0.2231 -0.0019 -0.1568
  737SOL    HW1 2210   0.204   2.164   1.339 -0.2741  0.1129  0.5364
  737SOL    HW2 2211   0.085   2.172   1.465 -1.4485  2.8975  0.9006
  738SOL     OW 2212   1.793   2.460   2.823 -0.3419 -0.0307  0.2841
  738SOL    HW1 2213   1.715   2.439   2.883  1.1632  0.8402 -2.0446
  738SOL    HW2 2214   1.876   2.443   2.877  0.7949 -0.2839  1.1568
  739SOL     OW 2215   1.339   2.179   2.581 -0.0291  0.2361  0.6116
  739SOL    HW1 2216   1.317   2.240   2.505 -0.8240  3.1144  3.4871
  739SOL    HW2 2217   1.426   2.131   2.570 -2.3537 -0.7681  0.8653
  740SOL     OW 2218   1.148   2.622   0.853 -0.9911  0.1509  0.0155
  740SOL    HW1 2219   1.098   2.606   0.763 -1.7651  0.9401 -0.0432
  740SOL    HW2 2220   1.082   2.652   0.924  2.0891 -1.2691  0.4143
  741SOL     OW 2221   2.827   1.139   0.316  0.1671  0.2360 -0.1378
  741SOL    HW1 2222   2.757   1.143   0.391  0.3505  0.7004  2.7036
  741SOL    HW2 2223   2.856   1.232   0.300 -2.3245 -3.2298 -2.0751
  742SOL     OW 2224   0.863   1.659   2.311 -0.1876  0.2411  0.5173
  742SOL    HW1 2225   0.958   1.615   2.321  1.5884 -1.8312 -0.2610
  742SOL    HW2 2226   0.817   1.668   2.400  1.3670  0.0250 -1.9129
  743SOL     OW 2227   0.988   0.958   2.383 -0.5463  0.0403 -0.5475
  743SOL    HW1 2228   1.061   0.889   2.409  0.7267  2.1345 -1.0002
  743SOL    HW2 2229   0.976   0.960   2.282  0.7587  0.1550  1.2204
  744SOL     OW 2230   2.167   3.026   1.561 -0.2246  0.2627 -0.8139
  744SOL    HW1 2231   2.261   3.051   1.593  1.9557  0.4132  1.3473
  744SOL    HW2 2232   2.176   3.009   1.460  3.1281  1.8091  1.7930
  745SOL     OW 2233   1.727   1.329   1.144 -0.2904  0.3046  0.2186
  745SOL    HW1 2234   1.668   1.412   1.145 -0.9126 -1.7891  2.1325
  745SOL    HW2 2235   1.737   1.290   1.239 -0.0577  1.2738  1.6776
  746SOL     OW 2236   1.870   0.794   0.747  0.3565 -0.0743 -0.3397
  746SOL    HW1 2237   1.956   0.849   0.737 -0.5503  2.0957 -1.9469
  746SOL    HW2 2238   1.883   0.697   0.714  1.4238 -2.0480  3.2782
  747SOL     OW 2239   2.074   1.626   0.700 -1.2630 -0.1339 -0.5258
  747SOL    HW1 2240   2.016   1.557   0.744  0.7214  1.3921 -2.7000
  747SOL    HW2 2241   2.027   1.671   0.624 -0.3963  0.0744 -0.4116
  748SOL     OW 2242   0.272   1.620   0.391 -0.1901 -0.2437 -0.1560
  748SOL    HW1 2243   0.285   1.646   0.295 -1.7807 -1.4202  0.4206
  748SOL    HW2 2244   0.312   1.528   0.408  0.1291 -0.2608 -0.4895
  749SOL     OW 2245   0.045   2.352   2.671  0.4206  0.2574 -0.1636
  749SOL    HW1 2246   0.037   2.275   2.603 -1.0305  0.5078 -0.5458
  749SOL    HW2 2247   3.029   2.382   2.691  0.6774 -2.1334 -0.4463
  750SOL     OW 2248   2.328   0.709   0.920  0.2750 -0.1074  0.0607
  750SOL    HW1 2249   2.384   0.626   0.947 -1.1223 -1.1742 -1.6855
  750SOL    HW2 2250   2.235   0.713   0.961 -1.1025  2.0057  2.1873
  751SOL     OW 2251   2.785   3.064   0.169  0.2627  0.0775 -0.1289
  751SOL    HW1 2252   2.725   3.043   0.090  2.0560  1.9408  0.7468
  751SOL    HW2 2253   2.818   2.976   0.208  0.7477  0.0465 -1.4435
  752SOL     OW 2254   2.174   2.760   0.732 -0.4434 -0.2654  0.1342
  752SOL    HW1 2255   2.090   2.768   0.791 -2.4025  0.7893  0.6498
  752SOL    HW2 2256   2.158   2.695   0.660  1.4037 -1.1985  1.0528
  753SOL     OW 2257   1.927   1.526   2.227 -0.2044 -1.2333 -0.6373
  753SOL    HW1 2258   2.019   1.502   2.259  0.4654  1.9136 -0.5008
  753SOL    HW2 2259   1.900   1.624   2.231 -1.3974  0.4666  2.7495
  754SOL     OW 2260   2.280   2.380   1.578  0.5312  0.8525 -0.2017
  754SOL    HW1 2261   2.328   2.303   1.531  2.3245  2.4218  1.0047
  754SOL    HW2 2262   2.180   2.359   1.578 -0.5437  1.4387 -3.3447
  755SOL     OW 2263   2.578   0.935   1.228 -0.1229 -0.2522 -0.1831
  755SOL    HW1 2264   2.502   0.963   1.165 -1.2360  0.1880  1.0344
  755SOL    HW2 2265   2.538   0.907   1.317  2.3891  0.4093 -1.3414
  756SOL     OW 2266   0.991   1.451   2.857 -0.2946  1.0930  0.3187
  756SOL    HW1 2267   1.056   1.383   2.816  2.0004 -2.2403 -1.2350
  756SOL    HW2 2268   0.904   1.404   2.887  1.6583 -0.5250 -2.2664
  757SOL     OW 2269   1.703   2.674   1.078 -0.2629 -0.7605  0.0114
  757SOL    HW1 2270   1.721   2.640   0.987  0.5401  1.2041  0.6087
  757SOL    HW2 2271   1.754   2.616   1.141  0.4578 -1.4555 -0.9027
  758SOL     OW 2272   0.921   2.281   1.360  0.3862  0.3011 -0.0107
  758SOL    HW1 2273   1.003   2.337   1.374  0.0006  1.1515 -0.3190
  758SOL    HW2 2274   0.946   2.216   1.286 -0.6370 -2.1270 -0.0285
  759SOL     OW 2275   2.235   1.224   1.163  0.1076 -0.0710 -0.0047
  759SOL    HW1 2276   2.297   1.304   1.195  0.3272  2.7231  0.4881
  759SOL    HW2 2277   2.163   1.255   1.097  2.8532  3.2082 -1.0707
  760SOL     OW 2278   2.073   0.910   1.463  0.3039  0.0447 -0.0943
  760SOL    HW1 2279   2.009   0.871   1.398 -1.2740  0.6787  1.7082
  760SOL    HW2 2280   2.083   1.012   1.457 -0.7722  3.4398  2.2444
  761SOL     OW 2281   1.927   2.755   0.344 -0.3400  0.1038  0.0839
  761SOL    HW1 2282   1.898   2.718   0.249  0.4306 -1.0023 -2.7170
  761SOL    HW2 2283   2.026   2.781   0.344 -1.2992  2.5479 -2.7349
  762SOL     OW 2284   1.945   1.583   2.851 -0.1362  0.3419  0.5725
  762SOL    HW1 2285   1.944   1.527   2.766  0.7624 -0.3601 -2.1070
  762SOL    HW2 2286   1.927   1.683   2.828 -1.4255  0.9854 -0.9981
  763SOL     OW 2287   0.559   1.648   1.435 -0.6107  0.7129 -0.4547
  763SOL    HW1 2288   0.456   1.650   1.410 -2.0984  1.0678 -2.1263
  763SOL    HW2 2289   0.579   1.593   1.518  1.8717  1.3847 -1.6571
  764SOL     OW 2290   0.043   2.350   2.997  0.2906 -0.6005  0.3134
  764SOL    HW1 2291   3.032   2.362   3.039 -0.2230  0.9402  1.5351
  764SOL    HW2 2292   0.030   2.324   2.902  1.6206 -1.3940  2.0311
  765SOL     OW 2293   0.465   3.041   1.425 -0.0762  0.1804  0.1486
  765SOL    HW1 2294   0.535   2.983   1.378 -1.8925  2.1862 -0.0045
  765SOL    HW2 2295   0.505   0.034   1.484 -1.3923  0.8012  0.0195
  766SOL     OW 2296   2.885   2.099   2.058 -0.2721  0.3813 -0.3180
  766SOL    HW1 2297   2.933   2.190   2.053 -1.6482 -1.9342  0.5605
  766SOL    HW2 2298   2.787   2.102   2.031 -1.1047 -0.1316  1.0257
  767SOL     OW 2299   2.975   1.076   2.046 -0.1404 -0.0605  0.6754
  767SOL    HW1 2300   2.962   0.981   2.080  1.3031 -0.3342  1.5140
  767SOL    HW2 2301   2.986   1.075   1.945  0.1126 -2.3382  1.7548
  768SOL     OW 2302   0.792   0.269   2.811 -0.1136  0.0344  0.3683
  768SOL    HW1 2303   0.693   0.302   2.814 -0.6582  1.4781 -0.7123
  768SOL    HW2 2304   0.851   0.352   2.801 -1.6003  5.9067 -2.9799
  769SOL     OW 2305   2.101   2.763   1.100 -0.3121  0.3299  0.2753
  769SOL    HW1 2306   2.199   2.762   1.137  4.2309 -1.4948  2.6840
  769SOL    HW2 2307   2.064   2.858   1.106  0.5191  0.2958  1.5963
  770SOL     OW 2308   2.947   0.072   2.710  0.5154 -0.4268 -0.2963
  770SOL    HW1 2309   2.874   3.078   2.701  1.2531 -0.9801 -1.9647
  770SOL    HW2 2310   3.007   0.086   2.631 -0.9332  1.9223 -0.3715
  771SOL     OW 2311   1.829   2.025   1.821 -0.2217  0.4526 -0.3259
  771SOL    HW1 2312   1.782   1.993   1.730 -0.5305 -3.0474 -4.9065
  771SOL    HW2 2313   1.748   2.041   1.876  0.6051 -0.2510 -2.6525
  772SOL     OW 2314   1.200   0.293   3.058 -0.1922  0.1463 -0.1572
  772SOL    HW1 2315   1.193   0.356   0.056  1.6752 -0.0738 -3.3592
  772SOL    HW2 2316   1.112   0.253   3.024  1.2950 -3.2089 -0.6434
  773SOL     OW 2317   2.829   0.746   1.898  0.0192  0.0011 -0.0037
  773SOL    HW1 2318   2.874   0.774   1.987  2.1534 -1.6116  2.9992
  773SOL    HW2 2319   2.882   0.787   1.817 -1.4194 -0.7862 -1.2376
  774SOL     OW 2320   1.016   0.950   0.625  0.1030  0.6213  0.4668
  774SOL    HW1 2321   1.075   1.005   0.562  1.3077  1.2749 -0.7670
  774SOL    HW2 2322   0.939   1.006   0.657  1.1443  0.0706 -1.7176
  775SOL     OW 2323   2.587   3.059   3.055  0.2445  0.2977 -0.1399
  775SOL    HW1 2324   2.505   0.043   3.036 -1.7483  1.8846 -0.9715
  775SOL    HW2 2325   2.556   2.964   3.047  1.5563 -1.5626  1.1311
  776SOL     OW 2326   2.225   1.355   2.104  0.6106  0.1209  0.2455
  776SOL    HW1 2327   2.196   1.397   2.193  3.2623 -1.1991  1.1432
  776SOL    HW2 2328   2.286   1.273   2.123 -0.3216 -2.8426 -0.2036
  777SOL     OW 2329   0.086   1.254   2.650  0.1582 -0.1338  0.3181
  777SOL    HW1 2330   0.119   1.245   2.554 -0.5968  1.7916  0.2989
  777SOL    HW2 2331   0.099   1.348   2.687 -1.9693 -0.8550  0.8595
  778SOL     OW 2332   0.450   0.502   0.252  0.1236 -0.0552  0.0293
  778SOL    HW1 2333   0.469   0.449   0.165  1.3407 -2.0506  1.5442
  778SOL    HW2 2334   0.376   0.570   0.233  0.9954 -1.1669 -3.0972
  779SOL     OW 2335   0.559   0.539   2.635 -0.3836 -0.7482 -0.1839
  779SOL    HW1 2336   0.624   0.613   2.616 -2.6020  0.1168  2.3500
  779SOL    HW2 2337   0.572   0.454   2.579  0.9416 -5.4719  0.9019
  780SOL     OW 2338   2.027   0.804   2.692 -0.5070  0.0142 -0.0365
  780SOL    HW1 2339   2.018   0.834   2.789  0.4474 -2.4124 -1.1539
  780SOL    HW2 2340   1.996   0.706   2.677 -1.9610  0.6276  2.8843
  781SOL     OW 2341   2.963   0.896   1.724 -0.2344 -1.0775 -0.4967
  781SOL    HW1 2342   3.027   0.852   1.658  0.7473  0.6278 -0.4970
  781SOL    HW2 2343   2.980   1.001   1.731 -2.2071  4.3731  1.1917
  782SOL     OW 2344   0.603   1.713   2.800 -0.5825  0.4180  0.1825
  782SOL    HW1 2345   0.629   1.775   2.874  1.2553 -1.5341 -1.1626
  782SOL    HW2 2346   0.591   1.618   2.839  1.0287 -0.3487  1.6164
  783SOL     OW 2347   1.034   2.596   1.484 -0.3094 -0.4893 -0.1608
  783SOL    HW1 2348   1.073   2.675   1.536 -0.3207  0.2399  0.6474
  783SOL    HW2 2349   1.106   2.531   1.460  0.4754  3.5691  0.0002
  784SOL     OW 2350   1.437   0.348   2.931 -0.5769 -0.8101 -0.7930
  784SOL    HW1 2351   1.348   0.312   2.965  1.6677 -0.5473 -1.4450
  784SOL    HW2 2352   1.463   0.437   2.977  3.2241  1.0742  1.7291
  785SOL     OW 2353   1.035   0.453   2.026  0.2174 -0.6150 -0.2754
  785SOL    HW1 2354   1.011   0.417   2.114  0.6893  1.2663  0.7446
  785SOL    HW2 2355   1.133   0.479   2.023 -1.7422 -0.1602  3.1678
  786SOL     OW 2356   0.644   1.772   0.458 -0.4186 -0.3704 -0.2771
  786SOL    HW1 2357   0.611   1.717   0.377 -2.9177 -2.5369 -0.4257
  786SOL    HW2 2358   0.619   1.871   0.438 -0.3094  3.0093  1.2248
  787SOL     OW 2359   1.249   0.824   0.391  0.5806 -0.4770  0.3454
  787SOL    HW1 2360   1.185   0.769   0.439  0.5022 -0.6277 -2.4379
  787SOL    HW2 2361   1.267   0.789   0.296  0.7905  0.3232 -0.3657
  788SOL     OW 2362   2.365   1.672   1.263  0.0950 -0.2872  0.1978
  788SOL    HW1 2363   2.384   1.580   1.224  2.5637  0.2808  0.3475
  788SOL    HW2 2364   2.330   1.671   1.358 -2.3489 -0.0815 -0.5980
  789SOL     OW 2365   2.986   1.342   2.071  0.6117  0.1883 -0.3995
  789SOL    HW1 2366   0.008   1.349   2.080  1.9621  2.4702 -0.0147
  789SOL    HW2 2367   2.963   1.242   2.066  1.3032  0.0518 -0.1199
  790SOL     OW 2368   0.571   3.079   0.136 -0.0574 -0.5342 -0.8226
  790SOL    HW1 2369   0.570   2.986   0.173 -0.9519  1.0604 -1.4569
  790SOL    HW2 2370   0.637   0.055   0.194 -2.8035  0.2383  1.8592
  791SOL     OW 2371   0.248   0.682   0.204 -0.3408 -0.1506  0.4235
  791SOL    HW1 2372   0.244   0.754   0.278  0.9036  0.3679  3.6586
  791SOL    HW2 2373   0.234   0.720   0.109  1.4384 -0.3120  1.2946
  792SOL     OW 2374   1.781   0.782   2.504 -0.0894  0.3366 -0.0337
  792SOL    HW1 2375   1.773   0.686   2.537 -1.4972  3.9142 -1.0558
  792SOL    HW2 2376   1.834   0.784   2.416 -0.7194 -0.8119  0.6433
  793SOL     OW 2377   2.997   0.421   0.644  0.5866  0.0304  0.1101
  793SOL    HW1 2378   3.022   0.484   0.569  0.7306  2.3223  2.4515
  793SOL    HW2 2379   3.074   0.403   0.708 -2.0946 -0.9024  0.8488
  794SOL     OW 2380   0.275   0.343   1.594 -0.3197  0.1974 -0.2810
  794SOL    HW1 2381   0.364   0.368   1.547  5.1615 -0.8222  0.6736
  794SOL    HW2 2382   0.214   0.287   1.532 -0.6773 -1.7713 -0.0740
  795SOL     OW 2383   3.043   1.386   2.996  0.0053 -0.1949 -0.0650
  795SOL    HW1 2384   2.976   1.431   2.933  0.2002 -0.7406  1.0556
  795SOL    HW2 2385   2.999   1.377   0.005  0.2989  1.6078 -1.2693
  796SOL     OW 2386   0.045   0.965   0.099  0.2004 -0.2942  0.3478
  796SOL    HW1 2387   0.050   0.921   0.193  0.0071  0.1609  0.0797
  796SOL    HW2 2388   3.030   0.995   0.078 -0.7163  0.3553  1.2470
  797SOL     OW 2389   1.563   2.381   2.962  0.2553  1.0369  0.2610
  797SOL    HW1 2390   1.526   2.423   3.047  1.5626  0.8619 -0.7092
  797SOL    HW2 2391   1.494   2.381   2.884  0.2118 -0.1134 -1.9444
  798SOL     OW 2392   2.866   0.583   0.930  0.5673  0.1078 -0.3099
  798SOL    HW1 2393   2.836   0.493   0.907  2.6944 -0.9023  0.0992
  798SOL    HW2 2394   2.794   0.627   0.986  0.4942 -0.6375 -1.2208
  799SOL     OW 2395   2.438   0.769   1.976 -0.2166 -0.1346  1.2300
  799SOL    HW1 2396   2.520   0.829   1.964 -1.0260  2.2166 -2.9104
  799SOL    HW2 2397   2.406   0.746   1.883 -1.6156  1.4586 -1.6204
  800SOL     OW 2398   0.247   1.911   0.429 -0.0331  0.3986  0.0919
  800SOL    HW1 2399   0.230   1.944   0.523  0.9041 -0.4952  1.7639
  800SOL    HW2 2400   0.239   1.807   0.430  1.8817 -0.5677 -0.2944
  801SOL     OW 2401   1.504   2.042   0.690 -0.1882  0.4415  0.2119
  801SOL    HW1 2402   1.559   2.029   0.605  0.9294  0.7164 -1.6338
  801SOL    HW2 2403   1.559   2.031   0.773 -4.1187 -0.6191 -1.2754
  802SOL     OW 2404   1.399   1.514   2.792 -0.4500  1.1663  0.1406
  802SOL    HW1 2405   1.410   1.413   2.806 -1.6904 -2.3240  1.2224
  802SOL    HW2 2406   1.422   1.570   2.871 -0.2981 -2.9627  2.1126
  803SOL     OW 2407   0.130   2.105   1.767  0.8586 -0.1353 -0.1462
  803SOL    HW1 2408   0.042   2.158   1.766  0.7049  1.7648  1.6736
  803SOL    HW2 2409   0.199   2.167   1.808 -0.4163 -0.0604 -3.1602
  804SOL     OW 2410   1.262   2.455   1.118 -0.2170 -0.3629  0.4884
  804SOL    HW1 2411   1.361   2.458   1.092 -1.5963 -0.1635  0.3072
  804SOL    HW2 2412   1.212   2.536   1.087 -2.1881 -1.6291  1.2899
  805SOL     OW 2413   2.251   2.099   2.717  0.1284 -0.0489 -0.0614
  805SOL    HW1 2414   2.159   2.148   2.700 -3.1266  2.3183 -1.0327
  805SOL    HW2 2415   2.328   2.163   2.698  0.1249 -0.3984  1.8281
  806SOL     OW 2416   1.993   0.059   0.685  0.0610  0.2185 -0.4201
  806SOL    HW1 2417   2.080   0.013   0.725 -0.4002  2.4243  3.8575
  806SOL    HW2 2418   2.003   0.074   0.583  0.5273 -0.0562 -2.0586
  807SOL     OW 2419   2.947   1.164   2.414  0.1195  0.2141 -0.2835
  807SOL    HW1 2420   3.045   1.175   2.386  1.4156 -1.7388 -0.6764
  807SOL    HW2 2421   2.900   1.251   2.385 -0.4072  0.5602 -0.8467
  808SOL     OW 2422   0.660   1.405   0.545  0.3473 -0.3039 -0.0528
  808SOL    HW1 2423   0.563   1.399   0.531  1.8473 -2.0372 -1.0370
  808SOL    HW2 2424   0.688   1.495   0.588 -1.5125 -1.4347 -1.3032
  809SOL     OW 2425   2.739   0.486   1.967 -0.0510 -0.2912 -0.7417
  809SOL    HW1 2426   2.774   0.576   1.941  1.1526 -1.6412  0.8460
  809SOL    HW2 2427   2.791   0.419   1.911 -0.8007  0.3059  2.5996
  810SOL     OW 2428   1.318   0.509   1.559 -1.1657 -0.3360 -0.7870
  810SOL    HW1 2429   1.300   0.436   1.632 -2.0246 -2.9511 -2.7420
  810SOL    HW2 2430   1.341   0.601   1.601  0.7988  3.0997  0.5168
  811SOL     OW 2431   2.360   0.046   1.951 -0.2336 -0.6407  0.1938
  811SOL    HW1 2432   2.262   0.051   1.990 -0.6833  0.4298  0.1401
  811SOL    HW2 2433   2.390   3.025   1.954  0.0807  1.5457  2.4085
  812SOL     OW 2434   1.647   2.006   0.472 -0.0317  0.5746 -0.4361
  812SOL    HW1 2435   1.673   2.103   0.471  1.4816  1.5927 -1.6657
  812SOL    HW2 2436   1.726   1.949   0.504 -0.6839 -1.3058 -2.7481
  813SOL     OW 2437   1.102   0.781   1.727 -0.0784 -0.4947 -0.2358
  813SOL    HW1 2438   1.086   0.877   1.696 -0.9420  1.3919  0.1750
  813SOL    HW2 2439   1.201   0.753   1.706  2.6078 -1.5594 -0.3538
  814SOL     OW 2440   0.396   0.280   1.119  0.7872 -0.0820 -0.1464
  814SOL    HW1 2441   0.480   0.304   1.173  0.8163 -0.7631 -2.6155
  814SOL    HW2 2442   0.345   0.205   1.168  0.6744 -0.1027  0.8815
  815SOL     OW 2443   0.574   0.130   0.532  0.1352 -0.2247 -0.0975
  815SOL    HW1 2444   0.580   0.110   0.634  0.9799  0.9203 -0.7974
  815SOL    HW2 2445   0.484   0.115   0.493  0.9313  1.8613 -1.2958
  816SOL     OW 2446   2.242   1.859   2.345  0.4223  0.4258 -0.0573
  816SOL    HW1 2447   2.285   1.776   2.306  0.3745 -2.5377  0.5779
  816SOL    HW2 2448   2.254   1.861   2.445 -0.1520 -0.4009 -1.8813
  817SOL     OW 2449   0.991   2.860   0.607  0.2259  0.0673 -0.5138
  817SOL    HW1 2450   0.981   2.762   0.639  0.4371  0.8069 -1.2327
  817SOL    HW2 2451   0.981   2.863   0.503  2.6848  0.6768  0.5938
  818SOL     OW 2452   1.738   0.602   2.853 -0.4525  0.1574  0.5065
  818SOL    HW1 2453   1.765   0.575   2.762 -1.7025  1.6111  3.8743
  818SOL    HW2 2454   1.811   0.579   2.916 -2.1382 -0.7185 -1.7571
  819SOL     OW 2455   2.018   0.025   0.111 -0.0713 -0.5062 -0.2835
  819SOL    HW1 2456   2.074   3.020   0.105 -1.7970  0.5043  1.2737
  819SOL    HW2 2457   2.021   0.085   0.026 -0.5874  1.0676  0.4080
  820SOL     OW 2458   1.916   0.527   3.051  0.1210  0.4856  0.1650
  820SOL    HW1 2459   1.955   0.610   0.029  2.1611  1.6571  3.4993
  820SOL    HW2 2460   1.968   0.443   3.072 -1.3251  1.3725 -0.3693
  821SOL     OW 2461   2.737   0.352   0.750 -0.1973 -0.1825 -0.5455
  821SOL    HW1 2462   2.831   0.374   0.717  3.8113  1.6723  1.6980
  821SOL    HW2 2463   2.666   0.346   0.679  0.6714  1.0179 -0.5872
  822SOL     OW 2464   1.049   2.223   2.330  0.4914  1.0398 -0.1284
  822SOL    HW1 2465   1.064   2.294   2.403  1.1030 -0.3996  1.8926
  822SOL    HW2 2466   0.964   2.246   2.279 -1.9168  1.3839 -1.0844
  823SOL     OW 2467   0.237   1.586   1.759  0.6480  0.2642 -0.3639
  823SOL    HW1 2468   0.224   1.531   1.847 -0.6007  0.3164  0.4190
  823SOL    HW2 2469   0.150   1.610   1.706 -2.3308 -1.1067 -3.1204
  824SOL     OW 2470   1.474   2.715   2.296  0.2266  0.2547 -0.2954
  824SOL    HW1 2471   1.528   2.662   2.367  1.1743 -0.2396  1.1172
  824SOL    HW2 2472   1.528   2.766   2.228 -2.0552 -0.8440 -0.4606
  825SOL     OW 2473   1.624   0.815   0.583  0.1297  1.1596  0.0503
  825SOL    HW1 2474   1.660   0.742   0.522  1.2992  0.0450  0.2206
  825SOL    HW2 2475   1.692   0.831   0.656  0.3698 -1.9744 -3.9610
  826SOL     OW 2476   1.931   0.765   0.134 -0.6676 -0.2726 -0.0650
  826SOL    HW1 2477   1.979   0.845   0.174  1.3768 -0.2481 -0.7249
  826SOL    HW2 2478   1.829   0.783   0.127 -1.6520 -0.2031 -0.4473
  827SOL     OW 2479   0.473   1.696   2.280 -0.2553  0.4632  0.3720
  827SOL    HW1 2480   0.512   1.780   2.322 -0.5397 -0.5514  0.3918
  827SOL    HW2 2481   0.549   1.642   2.230  3.5518 -1.4462 -0.1922
  828SOL     OW 2482   2.344   1.188   1.649  0.5000 -0.2758  0.0757
  828SOL    HW1 2483   2.355   1.291   1.652  0.0235 -3.0445  0.4845
  828SOL    HW2 2484   2.431   1.142   1.669 -3.6548  2.0156  0.9583
  829SOL     OW 2485   0.425   1.753   0.645  0.5663  0.3151  0.5269
  829SOL    HW1 2486   0.413   1.663   0.688 -1.6948  2.3828  1.9627
  829SOL    HW2 2487   0.502   1.754   0.580 -0.2984 -0.6274  0.0807
  830SOL     OW 2488   1.396   0.758   0.949  0.3354  0.1922 -0.6238
  830SOL    HW1 2489   1.324   0.741   0.885  1.0658 -1.4874  1.3506
  830SOL    HW2 2490   1.403   0.691   1.028 -2.4308 -0.1499  0.6193
  831SOL     OW 2491   2.930   1.731   0.034  0.1506  0.3647  0.1454
  831SOL    HW1 2492   2.928   1.785   0.119  0.7400  0.5051 -1.9260
  831SOL    HW2 2493   2.905   1.632   0.046  2.5854  3.1210  1.0475
  832SOL     OW 2494   0.779   0.322   0.091  0.3109 -0.0532 -0.0296
  832SOL    HW1 2495   0.835   0.408   0.082  0.8005  1.3248  3.0685
  832SOL    HW2 2496   0.771   0.295   0.186  0.4229  2.5238 -3.3524
  833SOL     OW 2497   0.651   0.653   2.239 -0.2448  0.2501 -0.1629
  833SOL    HW1 2498   0.708   0.735   2.224  1.3226 -0.6953 -1.5767
  833SOL    HW2 2499   0.633   0.596   2.151 -1.6400 -0.5808 -0.1773
  834SOL     OW 2500   0.245   0.530   0.477  0.3326 -0.6088 -0.1896
  834SOL    HW1 2501   0.321   0.500   0.532 -2.7586 -3.2461 -0.6777
  834SOL    HW2 2502   0.218   0.456   0.415  2.1337 -0.0738 -1.5550
  835SOL     OW 2503   2.756   3.003   1.181 -0.7806  0.0639 -0.4511
  835SOL    HW1 2504   2.708   3.057   1.247 -1.2288 -2.5753  0.4839
  835SOL    HW2 2505   2.718   3.027   1.089  0.6065  0.7081 -0.0079
  836SOL     OW 2506   0.443   1.985   0.112  0.2295  0.1124 -0.4249
  836SOL    HW1 2507   0.371   2.058   0.110  5.2026  0.7478 -1.0976
  836SOL    HW2 2508   0.477   1.969   0.210  0.7356 -0.3656  0.8631
  837SOL     OW 2509   1.714   1.420   2.332  0.4452  0.3653  0.1689
  837SOL    HW1 2510   1.697   1.465   2.421 -2.7267  0.1507 -0.7649
  837SOL    HW2 2511   1.803   1.451   2.292 -0.7517 -1.7434  2.2709
  838SOL     OW 2512   0.273   0.945   1.467 -0.1036  0.0481  0.1166
  838SOL    HW1 2513   0.370   0.962   1.440  0.0003 -0.9472 -1.7738
  838SOL    HW2 2514   0.243   0.990   1.555  3.4575 -3.8070 -0.1694
  839SOL     OW 2515   0.608   1.370   0.910  0.0722 -0.0697 -0.1476
  839SOL    HW1 2516   0.624   1.326   1.000 -0.7302  1.0326 -0.0773
  839SOL    HW2 2517   0.653   1.329   0.829 -1.5245 -1.6039 -1.3216
  840SOL     OW 2518   2.115   0.065   2.050  0.0705 -0.0075 -0.5274
  840SOL    HW1 2519   2.058   0.102   1.975 -0.3034  0.2891 -3.2849
  840SOL    HW2 2520   2.111   0.139   2.124 -0.6352 -0.6451  1.8417
  841SOL     OW 2521   0.566   2.314   0.411  0.2355  0.0643  0.2753
  841SOL    HW1 2522   0.665   2.286   0.396  1.2934  0.0901 -0.9986
  841SOL    HW2 2523   0.533   2.358   0.325  0.6310 -1.3002  0.5698
  842SOL     OW 2524   0.380   0.287   0.833  0.8174 -0.0096 -0.1791
  842SOL    HW1 2525   0.415   0.300   0.929  1.0115 -1.1236  2.3239
  842SOL    HW2 2526   0.439   0.342   0.766  1.2525 -0.6660 -3.4316
  843SOL     OW 2527   0.464   1.316   2.513  0.1020 -0.2990  0.5039
  843SOL    HW1 2528   0.391   1.384   2.525  3.6463 -0.2094 -0.7717
  843SOL    HW2 2529   0.560   1.344   2.545  0.2647 -1.9824 -1.7286
  844SOL     OW 2530   1.327   2.141   3.052 -0.2246 -0.2158  0.2911
  844SOL    HW1 2531   1.322   2.106   2.959  1.2182  1.1425 -0.3631
  844SOL    HW2 2532   1.313   2.240   3.049 -0.6231 -1.7793 -0.4270
  845SOL     OW 2533   2.511   2.812   2.564 -0.3175  1.2915  0.4419
  845SOL    HW1 2534   2.585   2.865   2.514 -0.4123 -1.6559  2.7122
  845SOL    HW2 2535   2.495   2.729   2.509 -2.5528 -0.8699  0.5043
  846SOL     OW 2536   1.916   1.852   2.820 -0.2354  0.7263 -0.5541
  846SOL    HW1 2537   1.989   1.917   2.802  1.1567 -0.4186 -0.5297
  846SOL    HW2 2538   1.874   1.877   2.908  0.8076 -1.0352 -0.0616
  847SOL     OW 2539   2.377   0.146   2.987  0.0713  0.2434  0.2237
  847SOL    HW1 2540   2.312   0.089   2.937  1.8329  1.8292 -0.9854
  847SOL    HW2 2541   2.395   0.234   2.940 -1.4248  0.2579  0.3238
  848SOL     OW 2542   0.332   0.771   0.569  0.3118 -0.6803 -0.3243
  848SOL    HW1 2543   0.277   0.787   0.652 -0.8664  0.2927 -2.1476
  848SOL    HW2 2544   0.306   0.682   0.529  0.4538  1.9917 -2.9277
  849SOL     OW 2545   1.301   2.952   1.817 -0.4076 -0.4254 -0.3428
  849SOL    HW1 2546   1.396   2.985   1.810 -0.2450  0.6911 -4.0948
  849SOL    HW2 2547   1.294   2.865   1.868  0.4223 -1.3946 -1.9962
  850SOL     OW 2548   0.571   1.633   0.250  0.2728  0.7856  0.3328
  850SOL    HW1 2549   0.493   1.655   0.189 -0.3205 -1.4502 -1.6292
  850SOL    HW2 2550   0.592   1.535   0.236  0.3949 -0.9556 -0.2038
  851SOL     OW 2551   0.100   1.268   0.577 -0.6022 -0.2947  0.5389
  851SOL    HW1 2552   0.035   1.306   0.648  1.3555  1.9006 -2.6476
  851SOL    HW2 2553   0.050   1.194   0.528 -0.7048  2.8974  1.6495
  852SOL     OW 2554   1.778   2.502   1.506  0.3574  0.3531 -0.4571
  852SOL    HW1 2555   1.760   2.405   1.533 -2.0084 -1.5422  1.8999
  852SOL    HW2 2556   1.697   2.564   1.526 -2.5765  2.3928 -0.7984
  853SOL     OW 2557   2.949   1.368   0.310  0.0987 -0.2571  0.1299
  853SOL    HW1 2558   2.921   1.419   0.229  2.0318  0.4968 -0.6590
  853SOL    HW2 2559   3.015   1.422   0.369  2.3835 -0.6403  1.6689
  854SOL     OW 2560   1.658   1.218   2.018 -0.5858 -0.1467 -0.0710
  854SOL    HW1 2561   1.597   1.254   2.091  0.7387  0.8411  1.0436
  854SOL    HW2 2562   1.622   1.134   1.975  0.0810 -0.6273  3.1331
  855SOL     OW 2563   0.430   2.530   3.001 -0.5599  0.2686  0.0236
  855SOL    HW1 2564   0.362   2.509   2.927 -1.9254  1.4067  0.6664
  855SOL    HW2 2565   0.522   2.549   2.968 -1.0214  1.5656  0.9918
  856SOL     OW 2566   0.274   0.711   1.563  0.2056  0.1481 -1.1534
  856SOL    HW1 2567   0.368   0.682   1.595 -2.8105  0.6490 -3.0331
  856SOL    HW2 2568   0.289   0.797   1.507 -2.1608  1.2108  0.8226
  857SOL     OW 2569   1.160   1.281   2.020 -0.0947  0.2312  0.2310
  857SOL    HW1 2570   1.163   1.223   2.104 -2.2114  1.0433  0.3845
  857SOL    HW2 2571   1.091   1.355   2.036  0.5008  1.7624 -0.2344
  858SOL     OW 2572   0.319   1.531   2.446 -0.4830  0.2304 -0.4080
  858SOL    HW1 2573   0.257   1.589   2.502  0.4458  0.5042  0.0982
  858SOL    HW2 2574   0.398   1.581   2.406  0.7553  0.3627  1.9401
  859SOL     OW 2575   2.682   3.017   0.920  0.0388 -0.0360 -0.1167
  859SOL    HW1 2576   2.623   0.013   0.883 -4.3085 -0.1344 -1.7223
  859SOL    HW2 2577   2.775   3.028   0.875 -1.0868  3.7083 -1.1436
  860SOL     OW 2578   2.212   2.882   0.051 -0.0572  0.0488  0.0143
  860SOL    HW1 2579   2.203   2.849   0.144  1.7016  0.7662 -0.4941
  860SOL    HW2 2580   2.315   2.884   0.033 -0.3000  0.6234 -2.2950
  861SOL     OW 2581   0.658   0.377   0.435 -0.2602  0.1616  0.2743
  861SOL    HW1 2582   0.617   0.296   0.485  1.7877 -3.3418 -3.0575
  861SOL    HW2 2583   0.609   0.403   0.352 -0.9508  0.5351 -0.2611
  862SOL     OW 2584   1.283   0.587   2.017  0.0219 -0.1304  0.0510
  862SOL    HW1 2585   1.369   0.637   1.988  1.8368 -1.6397 -0.6805
  862SOL    HW2 2586   1.215   0.654   2.052  0.8205  2.6322 -0.7655
  863SOL     OW 2587   2.678   2.279   1.065  0.2065 -0.1580  0.5881
  863SOL    HW1 2588   2.587   2.261   1.019  0.6594 -0.7231 -0.5903
  863SOL    HW2 2589   2.744   2.199   1.054  0.2377  0.0209  1.3713
  864SOL     OW 2590   2.501   2.982   2.290  0.1079  0.0653 -0.1680
  864SOL    HW1 2591   2.414   2.970   2.346  0.6591  0.2263 -0.4262
  864SOL    HW2 2592   2.582   2.957   2.345 -0.0590 -0.2665 -1.4968
  865SOL     OW 2593   0.932   0.601   1.835  0.3336  0.4282  0.5250
  865SOL    HW1 2594   0.970   0.560   1.920 -1.7153 -3.1406 -1.6133
  865SOL    HW2 2595   0.996   0.672   1.800 -0.1701  0.7660 -0.3392
  866SOL     OW 2596   2.032   3.025   1.102  0.0833 -0.8016  0.5928
  866SOL    HW1 2597   2.076   3.063   1.018  1.4079  0.0295  1.6652
  866SOL    HW2 2598   1.935   3.058   1.109 -0.8991  2.5195  1.1746
  867SOL     OW 2599   2.631   2.430   0.825 -0.6385  0.0381  0.1834
  867SOL    HW1 2600   2.661   2.491   0.901 -1.6073  2.1174  2.0457
  867SOL    HW2 2601   2.587   2.477   0.751  1.1867  0.1512  0.2516
  868SOL     OW 2602   0.612   2.070   1.504 -0.0852  0.9817  0.1836
  868SOL    HW1 2603   0.670   2.128   1.562  1.4288 -1.8737 -0.5347
  868SOL    HW2 2604   0.624   2.081   1.406  1.2564 -0.5391  0.8793
  869SOL     OW 2605   2.356   2.341   2.950  0.0964  0.4156 -0.0927
  869SOL    HW1 2606   2.434   2.316   3.008 -0.2116  0.5484 -1.4452
  869SOL    HW2 2607   2.310   2.429   2.982  1.0950  2.3808  1.2802
  870SOL     OW 2608   2.038   1.757   0.963  0.0354  0.1373  0.0495
  870SOL    HW1 2609   2.077   1.703   0.883  0.0226  0.0577  1.2899
  870SOL    HW2 2610   2.077   1.726   1.055  2.2158  1.4753  0.0024
  871SOL     OW 2611   0.316   1.875   1.760  0.2676 -0.0435 -0.3810
  871SOL    HW1 2612   0.237   1.944   1.751 -2.5837 -0.1207 -0.0570
  871SOL    HW2 2613   0.293   1.801   1.827  0.8576 -1.3011  1.0179
  872SOL     OW 2614   0.462   1.309   2.237  0.8898  0.1592 -0.2508
  872SOL    HW1 2615   0.529   1.374   2.194  1.5008  1.7938 -0.4432
  872SOL    HW2 2616   0.467   1.320   2.341  0.3380 -0.7221 -0.8417
  873SOL     OW 2617   1.183   2.028   1.837 -0.3370 -0.4207  0.0747
  873SOL    HW1 2618   1.167   1.958   1.911  1.8525  0.8211 -1.1947
  873SOL    HW2 2619   1.102   2.058   1.781  2.4289  0.2959 -1.0410
  874SOL     OW 2620   1.472   0.997   1.909  0.1951  0.2552 -0.3510
  874SOL    HW1 2621   1.372   1.010   1.884  0.7755  2.4565 -0.8423
  874SOL    HW2 2622   1.485   0.968   2.005 -0.3589  0.2130 -0.3516
  875SOL     OW 2623   2.619   2.755   0.940  0.2893  0.5985  0.2187
  875SOL    HW1 2624   2.660   2.717   1.024 -0.1111 -0.8960 -2.0770
  875SOL    HW2 2625   2.641   2.854   0.933  1.4283 -2.7098 -2.4115
  876SOL     OW 2626   1.145   1.162   0.498  0.2803 -0.5440 -0.2893
  876SOL    HW1 2627   1.199   1.133   0.419 -1.7477 -2.1375  0.3497
  876SOL    HW2 2628   1.125   1.261   0.496 -2.9124 -1.3890 -0.3544
  877SOL     OW 2629   2.901   0.195   1.042 -0.0878 -0.0019 -0.1092
  877SOL    HW1 2630   2.880   0.205   0.943  0.4790  1.1899  0.3722
  877SOL    HW2 2631   2.972   0.116   1.050  1.7732 -1.7617 -2.2516
  878SOL     OW 2632   2.361   1.680   0.321 -0.0740 -0.5911 -0.6170
  878SOL    HW1 2633   2.287   1.635   0.369  0.3703 -0.3406 -2.4312
  878SOL    HW2 2634   2.332   1.773   0.297 -0.7889 -0.9441 -1.9298
  879SOL     OW 2635   2.449   1.917   1.180  0.0276 -0.9353  0.1464
  879SOL    HW1 2636   2.428   1.826   1.217  1.9417  1.5728  2.1868
  879SOL    HW2 2637   2.425   1.919   1.080 -0.9924 -2.1912  0.1563
  880SOL     OW 2638   0.315   2.583   0.846  0.1915  0.3412 -0.5032
  880SOL    HW1 2639   0.231   2.630   0.875  1.8044 -0.3793  1.0367
  880SOL    HW2 2640   0.328   2.580   0.748  0.7741 -1.6195  2.3252
  881SOL     OW 2641   1.196   0.757   0.761 -0.4076 -0.2424  0.2985
  881SOL    HW1 2642   1.146   0.836   0.723 -0.4184  2.4478  0.0572
  881SOL    HW2 2643   1.131   0.707   0.820 -0.1700  2.6418  0.5448
  882SOL     OW 2644   2.271   1.012   2.888  0.0396  0.4667  0.3130
  882SOL    HW1 2645   2.189   0.961   2.918 -1.1818  0.0066  1.1010
  882SOL    HW2 2646   2.332   0.955   2.836 -2.1944 -0.3125  1.8044
  883SOL     OW 2647   1.118   0.040   1.729  0.6927 -0.2350 -0.0756
  883SOL    HW1 2648   1.035   0.028   1.794 -1.4147  1.5671  2.3294
  883SOL    HW2 2649   1.186   3.047   1.758  0.1193 -1.8599  2.2485
  884SOL     OW 2650   2.874   0.056   0.761 -0.1347 -0.4169  0.3013
  884SOL    HW1 2651   2.957   0.096   0.726 -1.4974 -0.1784  0.9185
  884SOL    HW2 2652   2.809   0.055   0.686  2.6514  2.4640 -0.7688
  885SOL     OW 2653   1.204   0.868   1.367 -0.1411  0.1658  0.4318
  885SOL    HW1 2654   1.229   0.920   1.450 -2.4521 -0.5935 -0.4230
  885SOL    HW2 2655   1.283   0.862   1.306  0.9397 -1.0017 -0.6696
  886SOL     OW 2656   1.801   1.004   2.680 -0.3782 -0.1245 -0.4614
  886SOL    HW1 2657   1.856   0.929   2.638 -0.5832  1.3863 -0.5954
  886SOL    HW2 2658   1.742   0.966   2.753  0.4806 -2.1019  0.8392
  887SOL     OW 2659   1.813   0.793   1.018 -0.4062 -0.0658 -0.1798
  887SOL    HW1 2660   1.789   0.810   0.923  0.8919  2.0709 -0.3516
  887SOL    HW2 2661   1.748   0.843   1.078 -0.6449 -2.1624 -1.7408
  888SOL     OW 2662   2.005   1.689   1.800  0.1517 -0.2919  0.5088
  888SOL    HW1 2663   2.064   1.619   1.839 -1.2690  2.7415  0.7164
  888SOL    HW2 2664   2.041   1.722   1.712 -1.4565 -0.2814  1.8660
  889SOL     OW 2665   2.166   2.093   0.675  0.5480  0.2778 -0.6338
  889SOL    HW1 2666   2.205   2.178   0.704 -0.2283 -1.7148 -0.9569
  889SOL    HW2 2667   2.095   2.055   0.740 -1.0146 -1.4081 -0.0126
  890SOL     OW 2668   1.007   1.894   0.685 -0.3768 -0.0281  0.0705
  890SOL    HW1 2669   1.112   1.885   0.689  1.2900 -0.5561 -0.0786
  890SOL    HW2 2670   0.970   1.850   0.765  0.2272  0.5377  0.6845
  891SOL     OW 2671   2.566   0.499   2.467 -0.6789 -0.4779  0.0404
  891SOL    HW1 2672   2.648   0.544   2.505  0.2868 -0.8188  3.3257
  891SOL    HW2 2673   2.598   0.437   2.391  3.4020  0.9120 -0.8064
  892SOL     OW 2674   1.139   0.728   2.215  0.5295 -0.2155 -0.2796
  892SOL    HW1 2675   1.090   0.648   2.258  0.1860 -0.8967 -2.1106
  892SOL    HW2 2676   1.224   0.747   2.260 -1.5261  1.8866  0.2937
  893SOL     OW 2677   1.488   0.438   1.365 -0.3059 -0.2548  0.0159
  893SOL    HW1 2678   1.483   0.337   1.363  0.2155 -1.9403  1.9880
  893SOL    HW2 2679   1.444   0.477   1.443  0.3918 -3.0014 -1.7946
  894SOL     OW 2680   2.584   0.298   0.467  0.2407 -0.3197 -0.3467
  894SOL    HW1 2681   2.486   0.261   0.463 -3.5709 -0.7547 -0.4663
  894SOL    HW2 2682   2.639   0.264   0.384  2.2202 -0.4631 -2.1992
  895SOL     OW 2683   2.048   2.453   2.940 -0.4590 -0.5235  0.1127
  895SOL    HW1 2684   2.058   2.546   2.990  0.2925  2.7786  1.5737
  895SOL    HW2 2685   2.072   2.380   3.005 -0.3267 -3.4056 -0.8701
  896SOL     OW 2686   1.754   2.971   1.638 -0.0630 -0.0136  0.1820
  896SOL    HW1 2687   1.816   3.045   1.607 -2.4480 -0.0349  1.4486
  896SOL    HW2 2688   1.680   2.947   1.567 -0.3736  0.1047 -1.2864
  897SOL     OW 2689   0.313   2.202   1.956  0.0259 -0.3366 -0.0154
  897SOL    HW1 2690   0.408   2.231   1.929 -1.0542  0.3569 -0.5727
  897SOL    HW2 2691   0.296   2.116   2.009  0.9618 -0.2833  1.7936
  898SOL     OW 2692   2.342   1.785   1.801 -0.5862  0.1612  0.8532
  898SOL    HW1 2693   2.405   1.706   1.793  0.7543 -1.0531 -0.8103
  898SOL    HW2 2694   2.368   1.869   1.749  0.1424  1.4203 -2.8422
  899SOL     OW 2695   1.799   2.239   0.687 -0.3190 -0.0390  0.3602
  899SOL    HW1 2696   1.872   2.295   0.737  0.8159 -1.9349 -1.2190
  899SOL    HW2 2697   1.750   2.172   0.749 -1.4745 -1.1164 -0.4970
  900SOL     OW 2698   0.941   0.151   3.021  0.2188 -0.4403  0.1373
  900SOL    HW1 2699   0.910   0.180   2.928 -0.9103  0.0531 -0.1618
  900SOL    HW2 2700   0.881   0.194   0.010  2.5772 -0.6761 -2.5037
  901SOL     OW 2701   1.117   1.568   2.463  0.2949 -0.0625 -0.3317
  901SOL    HW1 2702   1.214   1.552   2.483 -2.3608  3.2073 -0.2515
  901SOL    HW2 2703   1.073   1.628   2.530 -0.6703  0.2701 -1.1062
  902SOL     OW 2704   2.897   0.427   2.988 -0.1660  0.0271 -0.0869
  902SOL    HW1 2705   2.946   0.437   2.897  1.4660  1.1272 -0.7255
  902SOL    HW2 2706   2.846   0.340   2.999  2.0862 -1.2063  1.0395
  903SOL     OW 2707   2.159   0.700   2.311  0.1757 -0.1287 -0.0874
  903SOL    HW1 2708   2.183   0.765   2.387  0.9510  0.4744 -0.0506
  903SOL    HW2 2709   2.241   0.648   2.269  1.8470  0.7767 -0.8679
  904SOL     OW 2710   1.646   0.976   2.357  0.1871 -0.0365  0.5006
  904SOL    HW1 2711   1.719   1.045   2.336 -1.5402  1.0375  0.7780
  904SOL    HW2 2712   1.672   0.904   2.419 -3.9377  2.7887 -2.1530
  905SOL     OW 2713   2.237   2.772   1.697  0.3893 -0.2418 -0.1614
  905SOL    HW1 2714   2.210   2.868   1.668  3.1346 -1.7796 -0.7967
  905SOL    HW2 2715   2.165   2.705   1.672  0.0001  0.6441  2.0280
  906SOL     OW 2716   1.840   2.278   0.439  0.5893  0.3821 -0.0535
  906SOL    HW1 2717   1.875   2.178   0.435  1.2827 -0.4499 -2.3016
  906SOL    HW2 2718   1.813   2.294   0.533 -2.1687  4.0323  1.0143
  907SOL     OW 2719   1.332   2.849   0.885 -0.1822  0.4455  0.1898
  907SOL    HW1 2720   1.406   2.880   0.827 -1.8739 -0.4908  1.1302
  907SOL    HW2 2721   1.262   2.793   0.835 -3.3809  2.1779  0.5836
  908SOL     OW 2722   1.718   2.141   2.469  0.1425 -0.0807 -0.2875
  908SOL    HW1 2723   1.742   2.220   2.527 -1.1506  1.2433 -1.0784
  908SOL    HW2 2724   1.719   2.166   2.369 -0.3059  0.1723  1.1683
  909SOL     OW 2725   2.176   0.483   2.031 -0.1273 -0.2592 -0.2232
  909SOL    HW1 2726   2.111   0.558   2.004 -0.1867 -1.1187  1.6189
  909SOL    HW2 2727   2.247   0.512   2.093 -2.0859 -0.6251 -0.3537
  910SOL     OW 2728   1.359   0.379   2.642 -0.5965  0.3622 -0.1841
  910SOL    HW1 2729   1.404   0.366   2.732 -0.8823  0.2734 -2.2341
  910SOL    HW2 2730   1.269   0.329   2.637 -2.2151  2.0394 -1.2633
  911SOL     OW 2731   2.774   0.962   0.112  0.3179 -0.4936  0.1999
  911SOL    HW1 2732   2.798   1.031   0.182  0.8017 -0.3484 -1.4455
  911SOL    HW2 2733   2.802   0.875   0.149 -2.1728  3.1397  0.9454
  912SOL     OW 2734   0.078   2.522   0.523  0.1010 -0.2805  0.3534
  912SOL    HW1 2735   0.136   2.436   0.544  0.0224 -2.0193  0.2081
  912SOL    HW2 2736   0.130   2.591   0.469  0.7636 -0.9161 -1.1031
  913SOL     OW 2737   2.729   2.140   2.366 -0.5637 -0.1421  0.4688
  913SOL    HW1 2738   2.787   2.216   2.323 -0.4336  0.7182  0.1715
  913SOL    HW2 2739   2.791   2.079   2.420  0.5659 -0.8345  0.4447
  914SOL     OW 2740   1.457   2.040   1.079  0.1867  0.1462 -0.1622
  914SOL    HW1 2741   1.423   1.974   1.149 -0.6280  3.1522 -0.7782
  914SOL    HW2 2742   1.381   2.070   1.018  1.6379  1.1650  0.9117
  915SOL     OW 2743   0.255   2.825   2.117 -0.4321  0.0296 -0.1847
  915SOL    HW1 2744   0.254   2.724   2.096  3.2948 -1.3067 -0.3706
  915SOL    HW2 2745   0.157   2.853   2.126  0.0043  0.7874  1.2614
  916SOL     OW 2746   0.567   0.178   1.580  0.4797  0.5014  0.0602
  916SOL    HW1 2747   0.664   0.166   1.606 -0.5488 -0.1359  0.6194
  916SOL    HW2 2748   0.553   0.275   1.544 -1.2252 -0.1112 -3.0898
  917SOL     OW 2749   2.624   0.558   0.321  0.2897  0.2832  0.6743
  917SOL    HW1 2750   2.619   0.470   0.368  3.2998  0.8768 -2.2791
  917SOL    HW2 2751   2.535   0.591   0.287  1.2796 -0.9034  1.6985
  918SOL     OW 2752   1.610   2.114   2.901  0.4248 -0.4287 -0.0099
  918SOL    HW1 2753   1.607   2.216   2.919  0.8166  0.9522  0.1387
  918SOL    HW2 2754   1.575   2.070   2.983  0.1062 -0.4200 -0.9156
  919SOL     OW 2755   1.603   2.920   1.195 -0.2057 -0.5649 -0.3321
  919SOL    HW1 2756   1.662   2.999   1.159  0.5781  2.8925  0.1339
  919SOL    HW2 2757   1.638   2.834   1.159 -3.0242  0.0648 -1.5155
  920SOL     OW 2758   1.297   0.328   2.286 -0.4070  0.2151 -0.1814
  920SOL    HW1 2759   1.272   0.258   2.354 -2.1426  0.6484  0.7883
  920SOL    HW2 2760   1.393   0.360   2.308  1.5322 -1.4918 -0.0534
  921SOL     OW 2761   2.844   0.820   2.754  0.5886  0.2502  0.5473
  921SOL    HW1 2762   2.806   0.878   2.679 -0.6864 -0.4363 -1.5466
  921SOL    HW2 2763   2.944   0.816   2.757 -0.3283  0.3835  1.5652
  922SOL     OW 2764   0.267   2.177   1.150  0.0194  0.0237  0.2845
  922SOL    HW1 2765   0.340   2.109   1.171  1.8092 -1.8693  1.2754
  922SOL    HW2 2766   0.300   2.244   1.078 -1.5833 -1.8140 -1.2424
  923SOL     OW 2767   0.538   1.615   1.780  0.4908 -0.8114 -0.9779
  923SOL    HW1 2768   0.600   1.559   1.724  0.9077 -2.7265  2.7222
  923SOL    HW2 2769   0.442   1.610   1.750  1.5028  2.3824  1.4121
  924SOL     OW 2770   1.691   2.682   2.702  0.0596 -0.9235 -0.2218
  924SOL    HW1 2771   1.737   2.592   2.730  1.3281 -0.6607 -2.9407
  924SOL    HW2 2772   1.752   2.756   2.674  0.8765 -2.0129 -0.6595
  925SOL     OW 2773   2.696   1.550   0.845 -0.5268 -0.5412  0.2987
  925SOL    HW1 2774   2.669   1.470   0.898  1.2073  2.8881 -1.1478
  925SOL    HW2 2775   2.752   1.621   0.897  3.2647  1.9943  0.1867
  926SOL     OW 2776   2.093   0.612   1.302  0.5755  0.0268  0.4970
  926SOL    HW1 2777   2.185   0.575   1.325 -0.3924  2.3102 -0.4068
  926SOL    HW2 2778   2.019   0.582   1.363  1.3443  1.4657 -3.6179
  927SOL     OW 2779   1.931   0.078   1.570 -0.1312 -0.2685  0.0217
  927SOL    HW1 2780   1.942   0.162   1.513 -1.1067  0.8637 -0.8114
  927SOL    HW2 2781   2.018   0.020   1.571  2.4453 -0.0707  1.6941
  928SOL     OW 2782   0.149   1.068   2.156 -0.1941  0.1144  0.6483
  928SOL    HW1 2783   0.206   1.134   2.101  1.2615  0.0979 -1.8009
  928SOL    HW2 2784   0.053   1.079   2.122  0.4258  2.8488  1.7288
  929SOL     OW 2785   2.317   0.772   1.471  0.0666  0.4031 -0.0984
  929SOL    HW1 2786   2.226   0.818   1.453 -0.5151 -1.8989  2.4082
  929SOL    HW2 2787   2.395   0.838   1.455 -3.1692  1.2462  0.1883
  930SOL     OW 2788   2.506   2.588   2.151 -0.1839  0.3074  0.1650
  930SOL    HW1 2789   2.443   2.587   2.070  0.2443  0.6565  0.4119
  930SOL    HW2 2790   2.498   2.510   2.214  1.9672  1.3926 -0.9120
  931SOL     OW 2791   1.709   1.227   1.392 -0.1845  0.5816  0.4713
  931SOL    HW1 2792   1.645   1.241   1.468 -1.5702 -0.8067 -0.2731
  931SOL    HW2 2793   1.798   1.264   1.420 -2.6757  2.2380  3.1137
  932SOL     OW 2794   0.423   1.081   1.866  0.0136 -0.4926 -0.9825
  932SOL    HW1 2795   0.442   0.990   1.911  1.3092  1.6622  0.2498
  932SOL    HW2 2796   0.511   1.116   1.825 -1.8829 -2.5683  0.4308
  933SOL     OW 2797   2.721   2.038   1.594 -0.5217  0.1524 -0.5721
  933SOL    HW1 2798   2.697   2.017   1.496 -3.0652 -1.2417  0.4062
  933SOL    HW2 2799   2.767   1.962   1.641  1.4935 -0.6303 -0.9169
  934SOL     OW 2800   0.750   2.061   1.974  0.1876  0.3490  0.6128
  934SOL    HW1 2801   0.682   2.015   2.033  2.0444  0.9894 -2.5538
  934SOL    HW2 2802   0.759   2.013   1.888 -0.6581 -2.2496  4.6203
  935SOL     OW 2803   3.048   1.583   1.636 -0.2436 -0.0066 -0.6118
  935SOL    HW1 2804   3.027   1.676   1.601 -0.1726 -0.4112  0.6779
  935SOL    HW2 2805   3.013   1.562   1.734  2.9146  2.5466  4.6588
  936SOL     OW 2806   3.051   1.135   1.423  0.5233 -0.2036 -0.1388
  936SOL    HW1 2807   2.985   1.070   1.379 -0.5112  0.2053  0.7577
  936SOL    HW2 2808   0.033   1.192   1.367  0.6042  1.5364  1.8608
  937SOL     OW 2809   1.883   0.518   1.491 -0.8578 -0.1713  0.5051
  937SOL    HW1 2810   1.934   0.430   1.460  2.0349 -4.2880 -1.8592
  937SOL    HW2 2811   1.816   0.546   1.416 -0.2017  1.2569 -1.6385
  938SOL     OW 2812   0.492   2.830   0.216 -0.0889 -0.1512  0.0571
  938SOL    HW1 2813   0.448   2.770   0.283  2.2765 -1.2612  1.1960
  938SOL    HW2 2814   0.429   2.851   0.139  1.6957 -1.2677 -0.5163
  939SOL     OW 2815   2.897   2.033   2.601 -0.0579  0.1499 -0.2804
  939SOL    HW1 2816   2.908   1.929   2.589 -1.0426 -2.3617 -1.3643
  939SOL    HW2 2817   2.814   2.055   2.657 -1.4412 -0.5462 -3.0656
  940SOL     OW 2818   1.440   1.871   0.326 -0.2282  0.0244 -0.0847
  940SOL    HW1 2819   1.349   1.916   0.343  0.1945 -1.3257  1.4602
  940SOL    HW2 2820   1.512   1.902   0.393  0.7960  1.3334  0.9765
  941SOL     OW 2821   2.314   2.560   0.044  0.2390 -0.3482 -0.2310
  941SOL    HW1 2822   2.320   2.545   0.145 -0.3379 -0.5341 -3.1820
  941SOL    HW2 2823   2.369   2.643   0.017  0.6924  1.6131 -1.6272
  942SOL     OW 2824   1.681   2.061   0.903 -0.7580 -0.0412  0.0585
  942SOL    HW1 2825   1.754   1.996   0.934 -2.3465  0.8847 -0.1760
  942SOL    HW2 2826   1.609   2.061   0.970  3.5826 -1.6285  0.5583
  943SOL     OW 2827   2.020   0.845   1.735  0.7723 -0.0798  0.5176
  943SOL    HW1 2828   2.063   0.848   1.642 -2.6274  2.2256  1.7312
  943SOL    HW2 2829   2.045   0.935   1.781 -0.0801  0.7033  3.2274
  944SOL     OW 2830   1.478   0.908   2.164  0.6086 -0.2960  0.0703
  944SOL    HW1 2831   1.550   0.950   2.222 -3.0798 -0.2535 -1.0265
  944SOL    HW2 2832   1.433   0.834   2.216 -0.9259 -3.0529 -1.1963
  945SOL     OW 2833   2.447   2.501   1.411  0.1794 -0.5024 -0.0271
  945SOL    HW1 2834   2.504   2.435   1.361 -1.0205  0.3784  1.5227
  945SOL    HW2 2835   2.410   2.448   1.490  1.5211 -0.0519  1.7757
  946SOL     OW 2836   0.197   0.910   0.365  0.0799  0.1894 -0.1493
  946SOL    HW1 2837   0.121   0.978   0.379 -0.9115 -0.9328 -1.8600
  946SOL    HW2 2838   0.256   0.913   0.446 -1.1479 -2.1261 -1.1384
  947SOL     OW 2839   1.843   2.499   1.228 -0.4745  0.0007  0.0345
  947SOL    HW1 2840   1.827   2.491   1.327 -0.9146  1.1913  0.1026
  947SOL    HW2 2841   1.931   2.448   1.211 -0.3709  1.9210  2.6803
  948SOL     OW 2842   0.437   1.703   1.073  0.1075 -0.4334 -0.0524
  948SOL    HW1 2843   0.379   1.628   1.100  0.6537 -1.7171  0.4559
  948SOL    HW2 2844   0.532   1.667   1.081 -1.5439  0.5426 -2.5730
  949SOL     OW 2845   1.101   1.283   1.167  0.2611 -0.1843  0.2676
  949SOL    HW1 2846   1.035   1.256   1.096 -0.0835 -0.0575  0.8636
  949SOL    HW2 2847   1.186   1.230   1.166  0.2433 -2.7126  0.7835
  950SOL     OW 2848   0.291   0.673   1.145  0.4384  0.1077 -0.2755
  950SOL    HW1 2849   0.369   0.686   1.080  2.3871 -0.6138  0.7126
  950SOL    HW2 2850   0.243   0.763   1.159  1.3236  3.1122 -1.8963
  951SOL     OW 2851   0.701   2.073   2.380 -0.0317 -0.2779  0.0069
  951SOL    HW1 2852   0.744   2.135   2.308  1.2316  0.9619 -0.6977
  951SOL    HW2 2853   0.734   2.093   2.471  1.3133 -2.5876 -3.6094
  952SOL     OW 2854   1.268   1.385   0.111 -0.1757  0.0683  0.3226
  952SOL    HW1 2855   1.348   1.448   0.116 -1.1472 -2.2910 -1.8289
  952SOL    HW2 2856   1.182   1.435   0.117  0.0174 -0.5537 -0.2046
  953SOL     OW 2857   1.105   2.973   2.994 -0.5235  0.1045  0.0022
  953SOL    HW1 2858   1.138   2.977   0.012  2.1063  0.6608  2.5944
  953SOL    HW2 2859   1.014   3.018   2.988  2.9938  0.2043  1.3217
  954SOL     OW 2860   1.869   1.222   0.113 -0.0454  0.2120 -0.1224
  954SOL    HW1 2861   1.835   1.131   0.085  1.3686  2.1337  0.8620
  954SOL    HW2 2862   1.965   1.233   0.082  1.9712 -1.2348 -0.1889
  955SOL     OW 2863   0.154   2.679   2.994  0.3187  0.2095 -0.0010
  955SOL    HW1 2864   0.239   2.728   3.021 -2.7953  1.1756 -0.3831
  955SOL    HW2 2865   0.180   2.607   2.926  0.7152  0.9965 -0.7880
  956SOL     OW 2866   1.155   0.606   1.356  0.2910 -0.2530 -0.0005
  956SOL    HW1 2867   1.161   0.709   1.376  0.5969  2.4981  1.2682
  956SOL    HW2 2868   1.204   0.552   1.425  0.2622 -0.7381 -1.3573
  957SOL     OW 2869   1.109   1.426   1.410  0.0019  0.0553  0.1558
  957SOL    HW1 2870   1.075   1.525   1.412  0.0109  1.0164 -1.2289
  957SOL    HW2 2871   1.059   1.377   1.333 -0.7233 -1.5408  0.3198
  958SOL     OW 2872   0.515   1.869   0.869  0.1439 -0.0959  0.8374
  958SOL    HW1 2873   0.512   1.808   0.955  0.5613  2.0750  0.9382
  958SOL    HW2 2874   0.481   1.825   0.784 -0.3403  0.4661  0.5418
  959SOL     OW 2875   1.379   1.195   1.156  0.2497 -0.2099 -0.1593
  959SOL    HW1 2876   1.444   1.215   1.077 -4.0662 -0.6834 -0.0208
  959SOL    HW2 2877   1.396   1.238   1.246 -0.2577 -0.1218 -1.9513
  960SOL     OW 2878   2.900   1.165   2.802 -0.2972  0.0368 -0.1375
  960SOL    HW1 2879   2.915   1.226   2.723 -0.7548  1.4366  1.7131
  960SOL    HW2 2880   2.957   1.083   2.803 -1.1950 -3.6183  2.4000
  961SOL     OW 2881   0.816   1.436   1.335 -0.0117  0.2833  0.1425
  961SOL    HW1 2882   0.783   1.503   1.267 -1.5398 -1.6286  2.7822
  961SOL    HW2 2883   0.789   1.471   1.427  2.0226  0.0302  0.2431
  962SOL     OW 2884   0.848   1.247   0.723  0.4895 -0.6266 -0.0533
  962SOL    HW1 2885   0.893   1.309   0.652  0.9892  0.7978 -2.3475
  962SOL    HW2 2886   0.895   1.244   0.812 -1.1939 -1.0232  0.7194
  963SOL     OW 2887   1.368   1.532   2.524 -0.2560  0.3316  0.1963
  963SOL    HW1 2888   1.452   1.570   2.477 -0.8985 -3.2512 -2.2896
  963SOL    HW2 2889   1.393   1.501   2.619 -0.0293 -2.5428  1.4798
  964SOL     OW 2890   0.633   2.614   2.715  0.3171 -0.0547  0.2988
  964SOL    HW1 2891   0.628   2.525   2.671  0.0578  1.1350 -0.4784
  964SOL    HW2 2892   0.681   2.610   2.802  0.9317 -1.1446 -0.9340
  965SOL     OW 2893   0.539   2.420   0.169 -0.0407  0.8253  0.0621
  965SOL    HW1 2894   0.593   2.491   0.119 -0.5298  0.8489  1.0173
  965SOL    HW2 2895   0.443   2.427   0.156  1.6523 -0.0579  0.1381
  966SOL     OW 2896   2.863   1.504   2.821 -0.2377  0.4504 -0.3353
  966SOL    HW1 2897   2.808   1.466   2.744 -0.2281  2.8355  2.8729
  966SOL    HW2 2898   2.843   1.601   2.838 -0.8620  1.0619 -2.0923
  967SOL     OW 2899   2.464   2.981   2.797  0.1958 -0.1875 -0.0561
  967SOL    HW1 2900   2.484   2.916   2.716 -2.3718 -4.2972 -2.5780
  967SOL    HW2 2901   2.364   2.982   2.823  0.1003 -2.0198 -3.8541
  968SOL     OW 2902   2.068   0.101   0.384  0.1985  0.1184  0.0698
  968SOL    HW1 2903   2.037   0.063   0.292 -0.5096 -0.8198 -1.6690
  968SOL    HW2 2904   2.168   0.114   0.394 -3.4193 -4.3503 -1.0704
  969SOL     OW 2905   0.302   1.256   2.032  0.2881 -0.3787  0.3765
  969SOL    HW1 2906   0.360   1.201   1.963  3.2817 -3.3831 -2.2005
  969SOL    HW2 2907   0.357   1.280   2.117 -0.2681 -0.0419 -0.0530
  970SOL     OW 2908   1.552   1.235   0.940  0.7151  0.8558 -0.1117
  970SOL    HW1 2909   1.636   1.268   0.990  1.4848  3.9335  0.1486
  970SOL    HW2 2910   1.575   1.140   0.907 -1.0809 -0.8291  0.8726
  971SOL     OW 2911   2.186   0.002   0.876 -0.6577 -0.3153  0.2485
  971SOL    HW1 2912   2.245   2.992   0.867  0.5041 -0.5092  0.2471
  971SOL    HW2 2913   2.241   0.091   0.883  1.1011  1.0789  2.2024
  972SOL     OW 2914   0.351   2.789   1.526  0.4353 -0.3168 -0.7292
  972SOL    HW1 2915   0.322   2.719   1.457  3.5068  0.4090  3.8023
  972SOL    HW2 2916   0.392   2.875   1.489  2.7098 -1.6880 -1.5489
  973SOL     OW 2917   0.508   0.336   2.833  0.3094 -0.6798 -0.1153
  973SOL    HW1 2918   0.531   0.413   2.773 -0.1191  0.9156 -0.2346
  973SOL    HW2 2919   0.471   0.257   2.779  1.5169 -4.0517  0.8335
  974SOL     OW 2920   2.104   1.440   1.874 -0.7562 -0.2311  0.5228
  974SOL    HW1 2921   2.027   1.377   1.845 -0.3497  0.7316  2.3225
  974SOL    HW2 2922   2.145   1.411   1.962 -2.5688  4.9125 -0.3212
  975SOL     OW 2923   0.028   0.014   1.065 -0.4576  0.2314  0.3448
  975SOL    HW1 2924   0.055   3.023   1.134  2.0784 -1.7072 -1.8491
  975SOL    HW2 2925   0.109   0.029   1.005  0.3748 -1.3182 -0.8908
  976SOL     OW 2926   1.006   1.888   2.492 -0.1612 -0.0080 -0.5079
  976SOL    HW1 2927   0.990   1.824   2.570  0.4651 -1.8633 -0.3795
  976SOL    HW2 2928   0.982   1.985   2.516 -0.8737 -0.7661  0.4013
  977SOL     OW 2929   0.836   2.200   0.424  0.3748  0.1435 -0.0925
  977SOL    HW1 2930   0.846   2.233   0.332  2.8432 -1.7350  2.1615
  977SOL    HW2 2931   0.861   2.101   0.431 -0.1484  1.5087  1.2930
  978SOL     OW 2932   2.873   1.581   2.189 -0.3267 -0.0632 -0.3837
  978SOL    HW1 2933   2.905   1.498   2.139 -1.2387 -1.0443  1.1613
  978SOL    HW2 2934   2.939   1.661   2.180  2.7379  0.7482  1.8427
  979SOL     OW 2935   1.533   2.935   1.443 -0.3474 -0.6304 -0.2367
  979SOL    HW1 2936   1.565   2.944   1.344  0.2840 -0.4477 -0.3693
  979SOL    HW2 2937   1.491   2.845   1.458  0.2062 -0.6139  0.7757
  980SOL     OW 2938   1.366   1.287   2.388  0.3202  0.2393 -0.3613
  980SOL    HW1 2939   1.274   1.268   2.348 -0.7868 -0.6376  0.4557
  980SOL    HW2 2940   1.361   1.375   2.444 -1.4462  1.0966  0.5161
  981SOL     OW 2941   2.431   0.246   1.801  0.5835  0.0917  0.0564
  981SOL    HW1 2942   2.356   0.320   1.811 -4.2231  2.6719 -0.0191
  981SOL    HW2 2943   2.413   0.164   1.859  1.3406  0.1714  1.3089
  982SOL     OW 2944   0.102   0.574   2.911 -0.0368  0.6731 -0.1420
  982SOL    HW1 2945   0.030   0.565   2.840  1.1748 -2.4254  1.3990
  982SOL    HW2 2946   0.165   0.495   2.898 -2.8930 -0.3197  1.2500
  983SOL     OW 2947   2.462   0.784   2.374  0.7837 -0.0237  0.2653
  983SOL    HW1 2948   2.377   0.822   2.417  1.0517  0.7117 -0.5803
  983SOL    HW2 2949   2.459   0.686   2.338 -0.6116 -1.1382  1.1114
  984SOL     OW 2950   0.927   3.046   1.909  0.2627  0.2742 -0.1772
  984SOL    HW1 2951   0.980   2.962   1.941  1.1385 -1.7269  1.5755
  984SOL    HW2 2952   0.832   3.023   1.894 -0.4419 -0.2696  0.6414
  985SOL     OW 2953   1.956   1.572   1.435  0.3839 -0.8256 -0.2744
  985SOL    HW1 2954   1.968   1.474   1.456 -0.8500  1.9087 -0.7956
  985SOL    HW2 2955   1.978   1.634   1.513 -0.1114  2.3320  0.8766
  986SOL     OW 2956   2.358   0.685   1.741  1.0053 -0.5367 -0.1568
  986SOL    HW1 2957   2.461   0.665   1.739 -0.6286  2.3914  0.1660
  986SOL    HW2 2958   2.336   0.747   1.661  0.2243 -2.0414  0.7805
  987SOL     OW 2959   2.868   0.957   1.316 -0.0550 -0.4263 -0.2057
  987SOL    HW1 2960   2.915   0.867   1.327 -1.4003  0.9262  0.3897
  987SOL    HW2 2961   2.764   0.948   1.297 -2.8195  0.8992 -0.5725
  988SOL     OW 2962   0.196   0.779   1.862  0.1534 -0.3925 -0.4105
  988SOL    HW1 2963   0.159   0.857   1.798 -0.1513  5.2552 -2.6422
  988SOL    HW2 2964   0.297   0.780   1.862 -1.3164  0.3164  1.8850
  989SOL     OW 2965   2.171   1.517   0.460 -0.0771 -0.8847 -0.7756
  989SOL    HW1 2966   2.170   1.536   0.558  1.1353 -2.0156 -2.1423
  989SOL    HW2 2967   2.076   1.508   0.424 -0.4623 -1.3214 -0.9458
  990SOL     OW 2968   1.065   0.459   2.343 -0.3330  0.5161 -0.4580
  990SOL    HW1 2969   1.004   0.391   2.300 -0.2483  3.7485  0.1281
  990SOL    HW2 2970   1.164   0.422   2.340 -1.2968  1.5409  1.3293
  991SOL     OW 2971   1.431   1.123   0.656 -0.8349 -0.0994 -0.0114
  991SOL    HW1 2972   1.493   1.201   0.625  1.7347  0.5318 -0.1640
  991SOL    HW2 2973   1.353   1.111   0.590  0.8532  2.4212 -1.7788
  992SOL     OW 2974   2.039   1.207   0.410 -0.3231 -0.0540  0.5087
  992SOL    HW1 2975   2.079   1.291   0.366  2.1550  0.1602 -0.6760
  992SOL    HW2 2976   2.054   1.213   0.511  0.5696 -2.1788 -1.9875
  993SOL     OW 2977   2.967   0.852   0.614  0.7611 -0.0937  0.4266
  993SOL    HW1 2978   3.001   0.800   0.694 -0.2590 -0.3373  0.4061
  993SOL    HW2 2979   2.962   0.785   0.535  0.0055 -1.5424  0.7181
  994SOL     OW 2980   0.046   2.113   2.492 -0.1443  0.0362 -0.1931
  994SOL    HW1 2981   3.038   2.079   2.528 -0.6139 -0.4359  0.2781
  994SOL    HW2 2982   0.121   2.069   2.543 -3.1573  1.5490 -2.3732
  995SOL     OW 2983   1.817   1.250   2.809  0.2598  0.1063 -0.0074
  995SOL    HW1 2984   1.786   1.158   2.782 -2.7563  0.9195  0.3530
  995SOL    HW2 2985   1.749   1.296   2.864  0.1952  0.4587 -2.2012
  996SOL     OW 2986   2.371   1.102   0.323 -0.1078 -0.2664  0.3666
  996SOL    HW1 2987   2.342   1.195   0.303 -0.0829  1.1343  1.3509
  996SOL    HW2 2988   2.424   1.066   0.244 -1.0205  0.3895 -0.5531
  997SOL     OW 2989   1.907   1.248   1.741  0.5044 -0.2501 -0.1266
  997SOL    HW1 2990   1.990   1.197   1.766 -2.5061  1.8412 -2.7208
  997SOL    HW2 2991   1.822   1.192   1.756 -0.0612  0.1419 -1.1016
  998SOL     OW 2992   2.567   1.867   0.500  0.0476  0.1748 -0.1533
  998SOL    HW1 2993   2.468   1.880   0.523 -0.5993 -1.2278  0.0070
  998SOL    HW2 2994   2.587   1.768   0.512  1.2909 -2.6914 -1.2310
  999SOL     OW 2995   2.859   2.221   0.099 -0.4602  0.3362  0.4676
  999SOL    HW1 2996   2.776   2.211   0.156 -0.9355  2.3480  0.4856
  999SOL    HW2 2997   2.868   2.314   0.064  1.3620 -0.9193  3.1541
 1000SOL     OW 2998   1.037   0.956   2.121 -0.2610 -0.2035  0.2160
 1000SOL    HW1 2999   1.097   0.875   2.150  2.3500 -0.4888  0.7480
 1000SOL    HW2 3000   1.077   1.001   2.035  3.1660 -0.9652  1.0031
   3.07886   3.07886   3.07886
