1000 SPC/Fw water molecules t= 347.00000 step= 347000
 3000
    1SOL     OW    1   2.458   0.235   1.420  0.2808  0.5638 -0.3150
    1SOL    HW1    2   2.403   0.270   1.498 -1.1744 -0.4506 -1.3556
    1SOL    HW2    3   2.507   0.150   1.440  0.5388 -0.8836  1.3921
    2SOL     OW    4   2.824   2.503   1.020 -0.0855  0.0835  0.0308
    2SOL    HW1    5   2.754   2.523   1.093  0.7760  0.1061 -2.1589
    2SOL    HW2    6   2.820   2.410   0.980 -2.0131  1.8348 -0.5173
    3SOL     OW    7   1.431   2.879   2.828  0.0981 -0.0705  0.1036
    3SOL    HW1    8   1.423   2.980   2.810 -3.0259  0.9340  0.1364
    3SOL    HW2    9   1.337   2.849   2.866  0.6124 -1.9009  0.0310
    4SOL     OW   10   1.814   2.519   2.416  0.2933  0.6481 -0.0150
    4SOL    HW1   11   1.862   2.552   2.336 -0.5035  0.8353 -1.6894
    4SOL    HW2   12   1.872   2.503   2.496  0.5906  0.4948 -0.5679
    5SOL     OW   13   1.616   0.732   1.898 -0.3460  0.1862 -0.3354
    5SOL    HW1   14   1.700   0.739   1.955 -0.5003  0.9353 -2.2649
    5SOL    HW2   15   1.624   0.778   1.807 -2.2188  2.1935 -0.7201
    6SOL     OW   16   2.302   2.704   0.698  0.3930  0.3307  0.4103
    6SOL    HW1   17   2.278   2.711   0.599  2.1620  0.7659  0.3713
    6SOL    HW2   18   2.304   2.794   0.742  0.7024 -1.3400  0.7391
    7SOL     OW   19   1.745   1.255   1.191  0.6793  0.0427  0.1101
    7SOL    HW1   20   1.744   1.337   1.259 -0.4614  1.7208  1.8495
    7SOL    HW2   21   1.665   1.275   1.127 -1.5669  0.1370 -0.5575
    8SOL     OW   22   0.842   1.986   1.408  0.4737 -0.5260  0.0021
    8SOL    HW1   23   0.796   1.929   1.484  0.4073 -1.1933  2.6728
    8SOL    HW2   24   0.925   1.938   1.372  0.2857 -0.3393 -0.9433
    9SOL     OW   25   1.162   2.419   2.065  0.2561  0.0503  0.2016
    9SOL    HW1   26   1.077   2.357   2.064  1.5168 -1.3036 -1.3159
    9SOL    HW2   27   1.227   2.394   1.993  0.7143 -0.5355  1.0967
   10SOL     OW   28   0.546   2.162   0.763 -0.2913 -0.6253  0.2318
   10SOL    HW1   29   0.617   2.143   0.835  0.7982  2.1624 -1.3968
   10SOL    HW2   30   0.496   2.248   0.788  1.7426  1.2575  1.5113
   11SOL     OW   31   1.462   2.371   1.523  0.0766  0.2488  0.4525
   11SOL    HW1   32   1.480   2.454   1.466 -2.1269 -2.1801  1.3867
   11SOL    HW2   33   1.436   2.297   1.461  3.7705  1.3049 -0.2751
   12SOL     OW   34   2.556   0.531   2.431  0.1522  0.0802 -0.2264
   12SOL    HW1   35   2.606   0.520   2.347 -1.9675  0.0179  0.3370
   12SOL    HW2   36   2.454   0.531   2.409 -1.6722  1.6524 -0.8977
   13SOL     OW   37   2.863   2.870   0.704 -0.2423  0.2349  0.2832
   13SOL    HW1   38   2.919   2.819   0.774 -0.6507  0.3900  1.2933
   13SOL    HW2   39   2.900   2.963   0.687  0.3634 -0.2376  1.5676
   14SOL     OW   40   1.476   1.600   2.671  0.1693 -0.2654 -0.2198
   14SOL    HW1   41   1.551   1.547   2.628  1.9388 -0.2882  0.1424
   14SOL    HW2   42   1.511   1.658   2.745 -1.3853  3.7436  0.1487
   15SOL     OW   43   2.597   2.822   1.473 -0.1864 -0.0185  0.0422
   15SOL    HW1   44   2.677   2.785   1.525  0.5469 -1.9675 -0.8166
   15SOL    HW2   45   2.528   2.751   1.463 -0.2990  2.0811 -1.2222
   16SOL     OW   46   2.805   2.776   0.476  0.3044 -0.1882  0.5360
   16SOL    HW1   47   2.830   2.808   0.570 -0.0679  0.5449  0.6392
   16SOL    HW2   48   2.877   2.731   0.420 -0.0553 -2.1755  0.2451
   17SOL     OW   49   0.175   0.574   1.152 -0.2046 -0.4134 -0.3277
   17SOL    HW1   50   0.209   0.670   1.141  0.6667 -2.4884  1.0497
   17SOL    HW2   51   0.242   0.529   1.215  0.4983  0.6362 -0.0415
   18SOL     OW   52   2.014   0.148   0.288 -0.3529 -0.0427 -0.1786
   18SOL    HW1   53   1.948   0.151   0.367 -0.8905 -0.1063 -0.3799
   18SOL    HW2   54   1.972   0.103   0.208  1.9367  2.3943  2.7313
   19SOL     OW   55   1.819   1.614   3.048  0.1544 -0.3592 -0.3781
   19SOL    HW1   56   1.732   1.665   3.033  0.4843 -0.4131  0.7225
   19SOL    HW2   57   1.809   1.545   0.017 -0.1256 -1.0383  1.0659
   20SOL     OW   58   2.339   1.882   2.151 -0.0534  0.0762 -0.5068
   20SOL    HW1   59   2.381   1.792   2.133 -2.2390 -0.5747  0.7496
   20SOL    HW2   60   2.387   1.937   2.223 -0.5387  0.3367  1.7228
   21SOL     OW   61   1.809   2.994   0.528 -0.5439  0.4692 -0.0501
   21SOL    HW1   62   1.864   2.965   0.611 -0.9240  2.1550 -1.2231
   21SOL    HW2   63   1.861   2.959   0.444  2.6271  0.9254 -0.6304
   22SOL     OW   64   2.683   0.685   1.972  0.2423 -0.6293  0.0235
   22SOL    HW1   65   2.648   0.608   1.913  2.0785  1.6725 -0.2744
   22SOL    HW2   66   2.729   0.751   1.908  3.5197 -0.8771 -3.1758
   23SOL     OW   67   0.418   0.727   2.103 -0.2209  0.4029  0.0016
   23SOL    HW1   68   0.357   0.732   2.187 -0.3504  3.7168  0.4217
   23SOL    HW2   69   0.441   0.628   2.082  0.5055 -0.1256  0.7984
   24SOL     OW   70   2.783   2.451   0.463  0.1515 -0.0487 -0.0087
   24SOL    HW1   71   2.884   2.450   0.484 -1.1750  0.3030 -0.9934
   24SOL    HW2   72   2.731   2.492   0.541 -0.7692 -0.8702  0.9730
   25SOL     OW   73   0.906   2.714   2.840 -0.1248 -0.2070 -0.2289
   25SOL    HW1   74   0.824   2.666   2.861  0.9866  2.2764  1.5129
   25SOL    HW2   75   0.890   2.817   2.848 -0.3927  2.0600 -0.7060
   26SOL     OW   76   1.242   2.761   0.291  0.0050 -0.5555  0.1087
   26SOL    HW1   77   1.241   2.663   0.286 -0.0549  3.2180  1.3608
   26SOL    HW2   78   1.295   2.800   0.369  1.3716 -1.1901  0.3543
   27SOL     OW   79   2.297   0.709   0.286  0.2312 -0.2771  0.1802
   27SOL    HW1   80   2.205   0.761   0.274 -5.7356 -0.4662 -0.1291
   27SOL    HW2   81   2.375   0.771   0.272 -1.6146 -0.5316 -0.2685
   28SOL     OW   82   0.980   1.594   0.989 -0.4910 -0.1630  0.2855
   28SOL    HW1   83   0.952   1.557   0.900  1.7419  0.1559 -1.0464
   28SOL    HW2   84   1.073   1.630   0.984 -1.5151  0.2749  0.9144
   29SOL     OW   85   2.821   3.012   1.684 -0.0357  0.3591 -0.1463
   29SOL    HW1   86   2.896   3.020   1.618 -1.0126 -4.2399  0.8829
   29SOL    HW2   87   2.768   2.927   1.665 -1.4886 -0.2757 -0.2074
   30SOL     OW   88   1.373   0.116   1.241  0.5473  0.4496 -0.0199
   30SOL    HW1   89   1.363   0.024   1.198 -0.0315  1.4155  1.0333
   30SOL    HW2   90   1.408   0.176   1.167  0.0876 -0.6620 -0.1497
   31SOL     OW   91   2.330   3.046   2.474  0.2050 -0.2382  0.1714
   31SOL    HW1   92   2.267   3.057   2.554  0.6262 -0.4279  0.6604
   31SOL    HW2   93   2.270   3.043   2.386 -2.3201 -0.8733 -0.7115
   32SOL     OW   94   0.948   1.330   0.332 -0.3745  0.2966 -0.3878
   32SOL    HW1   95   0.930   1.399   0.258 -0.4642 -0.3610  0.3637
   32SOL    HW2   96   0.886   1.329   0.412  0.0697 -2.0626  0.0250
   33SOL     OW   97   0.042   1.055   2.556 -0.0339 -0.5117 -0.0895
   33SOL    HW1   98   3.076   1.017   2.495  0.8645 -1.3401  0.8949
   33SOL    HW2   99   0.120   1.093   2.505 -1.5591  0.5646  2.4746
   34SOL     OW  100   2.629   3.099   0.762 -0.3720 -0.3171 -0.9515
   34SOL    HW1  101   2.655   3.017   0.713  1.8041  0.7730  0.7042
   34SOL    HW2  102   2.691   0.016   0.841 -1.0611  1.5984  0.1735
   35SOL     OW  103   2.393   3.030   1.922  0.3471  0.9228 -0.7454
   35SOL    HW1  104   2.410   2.929   1.933  0.7898 -1.0687  0.5790
   35SOL    HW2  105   2.457   3.088   1.978 -0.2298 -1.1521 -2.0134
   36SOL     OW  106   2.112   2.049   0.109 -0.5139 -0.1209 -0.4814
   36SOL    HW1  107   2.178   2.122   0.081 -0.2206  2.8564  1.7713
   36SOL    HW2  108   2.110   1.967   0.049  0.3071 -2.9281 -1.4377
   37SOL     OW  109   1.888   0.121   2.051  0.1853 -0.1529  0.1624
   37SOL    HW1  110   1.956   0.056   2.017 -3.4921  0.3906  0.2745
   37SOL    HW2  111   1.808   0.135   1.985 -1.7810  0.0592 -0.4856
   38SOL     OW  112   0.240   0.459   2.951  0.3796  0.0272 -0.6398
   38SOL    HW1  113   0.334   0.438   2.991  3.7171 -1.8532  0.4840
   38SOL    HW2  114   0.190   0.535   2.999 -2.2108  0.7639  0.4116
   39SOL     OW  115   1.863   1.471   1.562 -0.1815 -0.5940  0.1446
   39SOL    HW1  116   1.961   1.433   1.548  0.6905  0.5093 -2.0574
   39SOL    HW2  117   1.846   1.491   1.659  0.0882  0.8583 -1.2082
   40SOL     OW  118   1.250   2.485   0.302  0.1350 -0.4234  0.2757
   40SOL    HW1  119   1.172   2.452   0.239 -0.7363  1.2872 -2.1782
   40SOL    HW2  120   1.331   2.511   0.247 -1.6176  0.6089 -0.7105
   41SOL     OW  121   2.050   1.399   0.736 -0.1703  0.0751 -0.3957
   41SOL    HW1  122   1.972   1.437   0.786  0.8062  0.8444 -1.4003
   41SOL    HW2  123   2.124   1.466   0.721  1.6669  0.7258  1.4969
   42SOL     OW  124   0.740   0.244   1.238  0.1628  0.5565 -0.3755
   42SOL    HW1  125   0.732   0.292   1.150  1.1307 -1.4282  0.3897
   42SOL    HW2  126   0.827   0.192   1.252 -1.5870  3.7968 -0.5121
   43SOL     OW  127   0.100   1.621   2.426 -0.3176 -0.5934 -0.0233
   43SOL    HW1  128   0.086   1.551   2.494  0.4586 -0.6152 -0.3219
   43SOL    HW2  129   0.185   1.682   2.441  1.2646  1.0896 -1.9831
   44SOL     OW  130   2.107   3.010   1.591 -0.2015 -0.1734  0.2669
   44SOL    HW1  131   2.057   3.048   1.511  4.5054 -0.8879  1.6154
   44SOL    HW2  132   2.200   3.053   1.587 -0.2063  2.2374 -0.4494
   45SOL     OW  133   1.015   3.040   2.298 -0.2568  0.0882  0.5738
   45SOL    HW1  134   1.074   2.999   2.369 -2.3932  1.2393 -2.1784
   45SOL    HW2  135   0.937   2.983   2.263  0.7230 -1.5656 -2.0605
   46SOL     OW  136   1.074   2.277   2.332 -0.3154  0.4022 -0.3798
   46SOL    HW1  137   1.154   2.259   2.388 -1.6979 -1.1292 -0.7016
   46SOL    HW2  138   1.005   2.336   2.381 -5.0116 -1.4186  1.0140
   47SOL     OW  139   1.134   1.698   0.714  0.2123  0.0483 -0.5035
   47SOL    HW1  140   1.189   1.701   0.631 -2.1873  2.9587  2.5441
   47SOL    HW2  141   1.188   1.683   0.802  0.8044 -1.0567  0.6793
   48SOL     OW  142   1.244   2.450   0.846 -0.0069  0.1441 -0.3718
   48SOL    HW1  143   1.207   2.461   0.752  0.6232 -1.6919 -1.2894
   48SOL    HW2  144   1.343   2.434   0.831 -1.2104  2.2795 -0.7103
   49SOL     OW  145   2.322   0.093   3.047  0.4901 -0.4774 -0.4409
   49SOL    HW1  146   2.307   3.099   3.075  2.3726 -2.0394 -2.0459
   49SOL    HW2  147   2.250   0.158   3.088 -2.1712  0.5531  0.0194
   50SOL     OW  148   1.636   0.068   0.018 -0.1556 -0.1613  0.7410
   50SOL    HW1  149   1.739   0.062   0.030  0.6591  1.5039 -1.3460
   50SOL    HW2  150   1.611   0.112   3.033 -0.5294  2.5420 -0.7652
   51SOL     OW  151   2.296   0.790   1.385 -0.1693  0.2725  0.1539
   51SOL    HW1  152   2.323   0.881   1.418 -0.3866 -2.1553 -1.4053
   51SOL    HW2  153   2.374   0.732   1.401  0.8566 -0.1998 -0.7534
   52SOL     OW  154   0.932   1.557   0.165 -0.4081  0.3659  0.2748
   52SOL    HW1  155   0.968   1.632   0.226 -0.8312 -1.6876 -0.6690
   52SOL    HW2  156   0.949   1.578   0.066  0.4666 -1.0247  1.7529
   53SOL     OW  157   0.082   1.476   2.662 -0.7416 -0.2802  0.1245
   53SOL    HW1  158   0.102   1.424   2.749  2.2176  2.1452  0.5781
   53SOL    HW2  159   0.034   1.559   2.690  0.5500  0.1126 -3.0346
   54SOL     OW  160   2.861   1.099   1.733 -0.4177  0.3074 -0.1491
   54SOL    HW1  161   2.917   1.022   1.772 -0.1520  0.9353  2.3002
   54SOL    HW2  162   2.793   1.142   1.796 -2.3365  2.0535  0.3087
   55SOL     OW  163   1.962   1.836   0.564  0.2698 -0.2721 -0.2400
   55SOL    HW1  164   2.040   1.778   0.580 -1.9438  0.0583 -0.5738
   55SOL    HW2  165   1.985   1.936   0.563  2.7585  2.7400 -5.6243
   56SOL     OW  166   1.640   0.431   1.785  0.4871  0.4272 -0.1953
   56SOL    HW1  167   1.685   0.497   1.719 -1.1450  3.6838 -0.1978
   56SOL    HW2  168   1.548   0.393   1.754 -0.3764  0.4817  2.1483
   57SOL     OW  169   1.416   1.228   2.619 -0.4528 -0.0011  0.1612
   57SOL    HW1  170   1.430   1.268   2.530  0.4735 -0.7746  0.7926
   57SOL    HW2  171   1.427   1.126   2.606 -0.6939 -2.8458  0.8221
   58SOL     OW  172   3.090   0.840   1.261  0.4955 -0.0776 -0.1849
   58SOL    HW1  173   0.068   0.832   1.318  0.0194 -0.3157 -0.9616
   58SOL    HW2  174   3.029   0.757   1.275 -1.7329 -1.0778  0.6746
   59SOL     OW  175   1.610   2.848   0.046  0.3444 -0.4600  0.1007
   59SOL    HW1  176   1.550   2.931   0.042 -1.8631 -2.6322  1.2136
   59SOL    HW2  177   1.657   2.834   0.135 -0.0460 -2.2629  0.0488
   60SOL     OW  178   2.908   1.937   2.736  0.3316 -1.1079 -0.3604
   60SOL    HW1  179   2.946   1.998   2.667  1.4750 -0.8063  2.9055
   60SOL    HW2  180   2.811   1.904   2.716 -2.9685  0.0879  0.2549
   61SOL     OW  181   0.784   2.638   0.898  0.0845 -0.4440 -0.3698
   61SOL    HW1  182   0.754   2.709   0.832 -2.1179 -2.0625  1.1140
   61SOL    HW2  183   0.869   2.664   0.949 -1.3437  0.2423  1.8285
   62SOL     OW  184   1.689   1.488   2.543 -0.4073 -0.0993  0.7008
   62SOL    HW1  185   1.684   1.491   2.440 -4.0385 -4.1585 -3.6214
   62SOL    HW2  186   1.693   1.393   2.574 -0.2537  2.3308 -2.2920
   63SOL     OW  187   2.148   1.945   0.370  0.4429 -0.9004  0.2370
   63SOL    HW1  188   2.115   2.000   0.290 -1.3374 -0.1790 -4.1066
   63SOL    HW2  189   2.125   1.844   0.361  0.7930 -0.4108 -0.8897
   64SOL     OW  190   1.753   0.963   3.024  1.0357 -0.0211  0.0417
   64SOL    HW1  191   1.697   0.886   2.980  1.8836 -1.4346  1.5305
   64SOL    HW2  192   1.766   1.048   2.967 -1.0686 -0.3647  1.8870
   65SOL     OW  193   2.088   1.834   2.225  0.1285  0.9667 -0.2807
   65SOL    HW1  194   2.173   1.881   2.199  0.2512 -0.5601  0.2115
   65SOL    HW2  195   2.071   1.761   2.153  0.6933  0.3493  0.4942
   66SOL     OW  196   0.262   1.195   1.209  0.3420 -0.6077  0.3458
   66SOL    HW1  197   0.249   1.212   1.307  1.5335  1.6942 -0.6605
   66SOL    HW2  198   0.294   1.281   1.162  0.8400  1.5923  0.9419
   67SOL     OW  199   2.137   3.023   2.692  0.2236  0.1272 -0.4494
   67SOL    HW1  200   2.117   0.020   2.700 -4.3252  2.6441  0.8026
   67SOL    HW2  201   2.067   2.978   2.637  1.6783  2.9013 -2.4879
   68SOL     OW  202   1.103   2.457   1.496  0.0878  0.3364 -0.0853
   68SOL    HW1  203   1.158   2.526   1.447 -2.0718  0.8666 -0.1644
   68SOL    HW2  204   1.148   2.366   1.489  0.5690 -1.1088 -1.4328
   69SOL     OW  205   0.809   2.452   0.025  0.2621 -0.7195  0.2838
   69SOL    HW1  206   0.747   2.498   0.094 -0.1187  0.8474  0.4065
   69SOL    HW2  207   0.906   2.455   0.063  0.4183  0.1330  0.3247
   70SOL     OW  208   0.253   0.749   2.326  0.2828 -0.2593 -0.6066
   70SOL    HW1  209   0.162   0.766   2.290  3.7625 -1.4167  0.2651
   70SOL    HW2  210   0.284   0.817   2.395  2.1837 -0.5117 -1.1020
   71SOL     OW  211   0.504   1.334   2.841  0.6497  0.2950 -0.1094
   71SOL    HW1  212   0.586   1.374   2.801 -0.7654 -0.5036  2.0966
   71SOL    HW2  213   0.431   1.316   2.771  0.8063 -2.3308 -0.7065
   72SOL     OW  214   2.845   1.420   2.255  0.7236  0.3846  0.2041
   72SOL    HW1  215   2.937   1.459   2.245 -1.7829 -0.8368 -0.0417
   72SOL    HW2  216   2.782   1.497   2.229  3.1768 -1.1519  1.2114
   73SOL     OW  217   1.589   1.400   0.629  0.0108 -0.0301  0.3584
   73SOL    HW1  218   1.653   1.478   0.652 -2.0021 -1.4186 -0.4254
   73SOL    HW2  219   1.636   1.309   0.627 -1.8720  0.3289  0.3222
   74SOL     OW  220   2.528   2.640   2.641 -0.2475  0.4164  0.6965
   74SOL    HW1  221   2.563   2.723   2.592  0.7242  0.9777  0.0629
   74SOL    HW2  222   2.428   2.639   2.646  1.0659 -2.6703 -3.1788
   75SOL     OW  223   1.893   2.252   1.067  0.4692 -0.2392 -0.2218
   75SOL    HW1  224   1.932   2.336   1.109  1.5001  0.1994 -0.9441
   75SOL    HW2  225   1.867   2.179   1.137 -0.2262 -1.6073 -2.8641
   76SOL     OW  226   2.709   2.100   2.091 -0.1128  0.2434  0.7168
   76SOL    HW1  227   2.723   2.015   2.137  0.9957  0.8050 -0.5661
   76SOL    HW2  228   2.689   2.085   1.990 -1.0922  0.0788 -0.9308
   77SOL     OW  229   3.078   0.192   2.013  0.1801 -0.1031  0.0852
   77SOL    HW1  230   3.063   0.234   1.920 -1.3577 -0.0419 -1.1504
   77SOL    HW2  231   2.988   0.208   2.065  1.1919 -0.2935  2.1811
   78SOL     OW  232   2.310   1.130   3.059 -0.1235 -0.0171 -0.3325
   78SOL    HW1  233   2.268   1.194   2.991  0.1624  2.1173  0.0214
   78SOL    HW2  234   2.255   1.111   0.041  0.5138  0.8085  1.5175
   79SOL     OW  235   2.754   1.433   2.532 -0.3872  0.2276  0.1633
   79SOL    HW1  236   2.814   1.380   2.596  0.8479 -2.1475 -0.9887
   79SOL    HW2  237   2.780   1.437   2.432 -0.3797  1.1143 -1.0839
   80SOL     OW  238   1.472   1.428   1.457 -0.1233 -0.1324  0.1218
   80SOL    HW1  239   1.447   1.505   1.522 -3.2394  0.8158  2.4989
   80SOL    HW2  240   1.525   1.357   1.507 -1.5302  0.4745  0.4391
   81SOL     OW  241   2.056   0.807   2.024 -0.4224 -0.8563  0.0474
   81SOL    HW1  242   1.959   0.822   2.054  0.2681  2.7399  0.6975
   81SOL    HW2  243   2.098   0.892   1.994  0.1723 -1.2144 -1.4613
   82SOL     OW  244   1.728   1.793   1.598  0.1389 -1.1328  0.3441
   82SOL    HW1  245   1.777   1.826   1.681  0.6708  0.4365 -0.9318
   82SOL    HW2  246   1.696   1.871   1.540  0.9928  0.4499 -1.3595
   83SOL     OW  247   0.137   0.082   0.195 -0.4744 -0.3133  0.0609
   83SOL    HW1  248   0.160   0.039   0.103  0.3459 -0.6216 -1.3819
   83SOL    HW2  249   0.130   0.186   0.192  3.5439  2.6164  0.4917
   84SOL     OW  250   0.491   1.055   0.083  0.6896  0.0168  0.3597
   84SOL    HW1  251   0.583   1.008   0.083 -1.1299  0.5204 -0.5759
   84SOL    HW2  252   0.412   0.990   0.071 -3.2612 -1.0252 -0.2025
   85SOL     OW  253   2.544   1.938   1.195 -0.5359  0.5279  0.6344
   85SOL    HW1  254   2.494   1.891   1.115  1.2573 -4.0683  2.7064
   85SOL    HW2  255   2.624   1.994   1.160 -0.7250 -0.6241  2.8872
   86SOL     OW  256   0.541   2.617   1.233 -0.2450 -0.6058 -0.4506
   86SOL    HW1  257   0.598   2.534   1.249 -3.6220  1.9297  0.6958
   86SOL    HW2  258   0.504   2.621   1.137 -1.5449  0.8108 -1.2323
   87SOL     OW  259   0.686   2.273   2.430 -0.3359 -0.1621 -0.4888
   87SOL    HW1  260   0.728   2.187   2.398 -2.2926 -3.4671  2.6296
   87SOL    HW2  261   0.654   2.267   2.527  1.1558 -0.5180  1.6288
   88SOL     OW  262   3.042   1.757   0.413 -0.1500 -0.4189  0.3604
   88SOL    HW1  263   3.096   1.832   0.367  0.1398  1.8078 -2.9882
   88SOL    HW2  264   3.006   1.695   0.342 -0.7930  0.5872  0.1275
   89SOL     OW  265   0.943   0.945   1.055  0.7610 -0.2261  0.2499
   89SOL    HW1  266   1.038   0.931   1.043 -0.7492  1.8137 -0.6525
   89SOL    HW2  267   0.907   0.903   1.140  2.0148  0.4193  1.0069
   90SOL     OW  268   0.317   1.348   1.876  0.2780 -0.5167  0.4406
   90SOL    HW1  269   0.299   1.410   1.801  2.8737  0.0973  2.6627
   90SOL    HW2  270   0.409   1.305   1.864 -3.3093 -1.1231  1.2655
   91SOL     OW  271   1.185   0.791   0.982 -0.5069  0.1272  0.1807
   91SOL    HW1  272   1.093   0.744   0.966 -2.5261  1.5091  2.2723
   91SOL    HW2  273   1.260   0.719   0.981 -1.5872 -0.3352  0.3294
   92SOL     OW  274   1.939   1.101   1.038  0.8620 -0.3377  0.6590
   92SOL    HW1  275   1.859   1.155   1.065  0.9027 -0.8476 -1.9066
   92SOL    HW2  276   2.025   1.152   1.008 -1.2768 -0.6462 -2.6772
   93SOL     OW  277   2.725   1.030   2.484  0.4065 -0.4524 -0.1531
   93SOL    HW1  278   2.676   0.939   2.476  0.9953 -1.2014 -0.0237
   93SOL    HW2  279   2.818   1.027   2.445 -2.6328 -0.1420  0.3569
   94SOL     OW  280   2.024   1.710   2.724 -0.1093 -0.0855 -0.9311
   94SOL    HW1  281   2.061   1.695   2.631  1.1839 -0.0984  1.0157
   94SOL    HW2  282   2.056   1.799   2.759  1.3439 -1.3161 -0.5516
   95SOL     OW  283   2.723   0.743   1.448 -0.0414  0.4108 -0.0898
   95SOL    HW1  284   2.798   0.676   1.420  3.3782 -1.5101  1.1230
   95SOL    HW2  285   2.634   0.692   1.445  0.7334 -3.6498 -1.6509
   96SOL     OW  286   2.547   3.094   1.497  0.0900  0.1201 -0.0875
   96SOL    HW1  287   2.473   0.003   1.563  0.6706  0.1801 -0.4377
   96SOL    HW2  288   2.564   2.993   1.489  1.4201  1.5791  0.5557
   97SOL     OW  289   2.603   1.168   1.466  0.3536 -0.4960  0.3039
   97SOL    HW1  290   2.611   1.098   1.390  2.2044  0.0549 -2.7315
   97SOL    HW2  291   2.694   1.215   1.480 -1.2615 -1.7429  0.0382
   98SOL     OW  292   1.545   2.369   1.981  0.3903 -0.3432  0.0997
   98SOL    HW1  293   1.629   2.422   2.011 -0.6130  1.9331  0.9427
   98SOL    HW2  294   1.541   2.277   2.030  1.4882 -1.5053 -1.5694
   99SOL     OW  295   0.302   2.620   1.370 -0.4145 -0.7557  0.2465
   99SOL    HW1  296   0.379   2.614   1.301 -0.5305  2.0451 -1.5171
   99SOL    HW2  297   0.326   2.688   1.445 -0.2051 -0.3036 -1.7900
  100SOL     OW  298   1.436   0.521   2.671 -0.0639 -0.1539  0.6273
  100SOL    HW1  299   1.508   0.447   2.660 -2.1322  2.2081 -0.8501
  100SOL    HW2  300   1.402   0.518   2.768 -0.2596  1.0940  1.6303
  101SOL     OW  301   2.537   0.104   2.513 -0.1303 -0.7229  0.5085
  101SOL    HW1  302   2.462   0.033   2.517 -0.7226 -1.1031  0.0221
  101SOL    HW2  303   2.569   0.124   2.603 -1.8884 -1.2624 -0.6570
  102SOL     OW  304   0.486   0.749   1.503 -0.2323 -0.0914  0.4231
  102SOL    HW1  305   0.534   0.787   1.585  0.2256  0.2687 -1.5685
  102SOL    HW2  306   0.543   0.762   1.422 -1.4690  2.3473  0.0498
  103SOL     OW  307   0.731   0.904   2.367  1.1519 -0.3791 -0.3472
  103SOL    HW1  308   0.685   0.812   2.359 -0.5095  0.2948 -1.3913
  103SOL    HW2  309   0.738   0.927   2.469  1.5788 -0.0591  2.5166
  104SOL     OW  310   0.698   0.948   2.626 -0.5796 -0.0923 -0.4294
  104SOL    HW1  311   0.715   0.857   2.663 -2.1132  2.4351 -2.0137
  104SOL    HW2  312   0.635   1.004   2.685 -1.4673  0.7580  3.0272
  105SOL     OW  313   2.039   2.199   1.613  0.1118 -0.0249  0.2325
  105SOL    HW1  314   2.060   2.102   1.586  0.4595 -0.6062 -0.2634
  105SOL    HW2  315   2.003   2.250   1.534  1.0429 -0.5212  1.3320
  106SOL     OW  316   1.702   2.814   0.299  0.0127  0.0985 -0.4988
  106SOL    HW1  317   1.692   2.738   0.366 -0.8366  0.7729  1.4861
  106SOL    HW2  318   1.798   2.836   0.284 -0.8038 -2.4610 -1.7142
  107SOL     OW  319   2.200   2.002   1.021 -0.8416  0.8546  0.6039
  107SOL    HW1  320   2.209   2.068   0.945  1.0844 -0.9056 -0.9790
  107SOL    HW2  321   2.215   1.905   0.989  0.3542  0.4549 -2.2938
  108SOL     OW  322   2.769   3.091   1.312 -0.1781 -0.0802 -0.2242
  108SOL    HW1  323   2.691   3.097   1.376  1.5274 -0.2324  0.3674
  108SOL    HW2  324   2.834   0.054   1.340 -2.4223 -1.2878 -2.8068
  109SOL     OW  325   1.972   2.413   0.834 -0.1426 -0.0496 -0.0661
  109SOL    HW1  326   1.940   2.361   0.918 -0.9933  1.8886 -0.4899
  109SOL    HW2  327   2.066   2.455   0.853  1.2365  2.6106  1.0112
  110SOL     OW  328   0.841   1.653   2.056  0.3114  0.1444  0.2211
  110SOL    HW1  329   0.801   1.559   2.039  3.4868  0.4607  1.1877
  110SOL    HW2  330   0.770   1.725   2.064  0.7154  0.0098 -0.0351
  111SOL     OW  331   1.832   2.121   2.045  0.1882  0.2709  0.4763
  111SOL    HW1  332   1.853   2.147   1.949 -0.5793 -1.3552  2.4061
  111SOL    HW2  333   1.737   2.073   2.051 -3.7046 -0.6950 -0.0062
  112SOL     OW  334   1.804   1.734   2.564 -0.0468  0.2370 -0.4522
  112SOL    HW1  335   1.768   1.644   2.541  1.5766 -0.3194  0.3066
  112SOL    HW2  336   1.887   1.722   2.626  0.3560 -2.6753  3.7283
  113SOL     OW  337   1.534   1.970   1.801  0.1566  0.3677 -0.4665
  113SOL    HW1  338   1.606   1.952   1.873  1.3015 -1.2884  1.0435
  113SOL    HW2  339   1.446   1.919   1.818  0.0830 -0.1431  0.2726
  114SOL     OW  340   0.015   1.203   1.118 -0.1813 -0.2817 -0.0328
  114SOL    HW1  341   0.102   1.151   1.101  1.5120 -0.3154 -1.3448
  114SOL    HW2  342   3.085   1.184   1.210  3.4910  0.9687 -1.3219
  115SOL     OW  343   0.427   0.524   0.390 -0.0714  0.1600  0.3565
  115SOL    HW1  344   0.451   0.599   0.456 -1.6286  2.4156  0.3317
  115SOL    HW2  345   0.506   0.457   0.378  0.7438  0.0701 -0.4882
  116SOL     OW  346   2.771   1.879   2.242  0.1445  0.2470  0.2335
  116SOL    HW1  347   2.704   1.910   2.312  1.5270  0.5188 -2.1799
  116SOL    HW2  348   2.865   1.871   2.281 -1.6013 -0.8602 -0.3110
  117SOL     OW  349   0.044   2.643   0.732 -0.4446  0.4908  0.4068
  117SOL    HW1  350   3.101   2.596   0.658  1.6393 -0.9851  1.5945
  117SOL    HW2  351   0.099   2.580   0.791  2.0332 -0.2718 -0.2841
  118SOL     OW  352   0.743   1.526   2.783  0.2522  0.2271 -0.1989
  118SOL    HW1  353   0.741   1.621   2.821 -3.3387 -1.9561 -1.9424
  118SOL    HW2  354   0.726   1.531   2.683  1.5708  0.7369 -0.1502
  119SOL     OW  355   0.493   2.051   0.519 -0.2469 -0.7426 -0.0363
  119SOL    HW1  356   0.503   2.085   0.617 -0.1906  1.5147  2.1643
  119SOL    HW2  357   0.508   2.121   0.449  1.9618  0.7232  0.2427
  120SOL     OW  358   1.429   0.381   0.332 -0.1767  0.8059  0.0472
  120SOL    HW1  359   1.499   0.330   0.271 -0.3108 -0.7567 -0.7241
  120SOL    HW2  360   1.457   0.481   0.347  1.1466  1.6480 -0.8551
  121SOL     OW  361   1.496   2.439   0.764  0.2111 -0.2349 -1.1083
  121SOL    HW1  362   1.565   2.376   0.815  0.0224 -2.5301 -0.3412
  121SOL    HW2  363   1.511   2.458   0.664  1.9480  3.1118 -1.0807
  122SOL     OW  364   2.515   2.410   1.827 -0.9393  0.6920 -0.1837
  122SOL    HW1  365   2.414   2.400   1.830 -0.8931  0.1596 -1.2418
  122SOL    HW2  366   2.567   2.320   1.810  0.5829  2.6164  0.1382
  123SOL     OW  367   0.671   1.562   0.631 -0.0559  0.1626 -0.0812
  123SOL    HW1  368   0.649   1.555   0.534 -1.3530  2.9814  2.6359
  123SOL    HW2  369   0.762   1.522   0.651  2.3967  1.2115 -2.8742
  124SOL     OW  370   3.036   0.798   0.319 -0.1426 -0.3414 -0.6758
  124SOL    HW1  371   2.985   0.709   0.340  0.7848 -1.1274 -1.3120
  124SOL    HW2  372   2.980   0.885   0.319  0.9143  0.1350  0.3116
  125SOL     OW  373   0.521   0.718   0.567  0.4662  0.4643  0.3773
  125SOL    HW1  374   0.472   0.709   0.657 -0.9328 -2.1054  2.0793
  125SOL    HW2  375   0.596   0.787   0.576 -0.0377  1.8881 -1.0307
  126SOL     OW  376   2.772   1.854   0.822 -0.1294 -0.1241 -0.1263
  126SOL    HW1  377   2.858   1.860   0.877  5.3121 -0.7484  0.2879
  126SOL    HW2  378   2.747   1.943   0.779  1.4267  2.1027  1.6503
  127SOL     OW  379   1.475   2.507   1.754  0.3640  0.0791  0.1858
  127SOL    HW1  380   1.502   2.457   1.839  0.2925 -1.2071 -1.4957
  127SOL    HW2  381   1.473   2.452   1.667 -0.0226 -1.5266  2.4278
  128SOL     OW  382   0.948   1.031   0.345  0.0379  0.2364 -0.4549
  128SOL    HW1  383   0.858   0.996   0.377  0.7881  0.5384 -4.6938
  128SOL    HW2  384   0.956   1.132   0.336 -0.5529  0.1036  0.3133
  129SOL     OW  385   1.669   2.048   1.446 -0.1004  1.1234 -0.2511
  129SOL    HW1  386   1.670   2.099   1.530 -2.8725 -4.0592 -4.0701
  129SOL    HW2  387   1.570   2.047   1.411 -1.4865 -1.2769 -3.3278
  130SOL     OW  388   2.242   1.596   1.452 -0.1386 -0.1778  0.1806
  130SOL    HW1  389   2.178   1.652   1.506 -1.0487  1.3981 -0.1728
  130SOL    HW2  390   2.291   1.527   1.513  0.7950 -0.2887  2.1366
  131SOL     OW  391   2.986   2.768   2.832 -0.4634 -0.5382 -0.1787
  131SOL    HW1  392   2.961   2.800   2.738 -2.1398 -1.1612  2.5521
  131SOL    HW2  393   3.029   2.677   2.830 -1.5139  1.9957  2.1083
  132SOL     OW  394   2.504   1.724   0.540  0.2794  0.0592 -0.2014
  132SOL    HW1  395   2.529   1.681   0.449  0.6169 -2.8885 -4.0971
  132SOL    HW2  396   2.548   1.676   0.620 -1.6683  2.2081  1.4965
  133SOL     OW  397   0.496   0.054   1.822 -0.1521 -0.5382  0.0691
  133SOL    HW1  398   0.458   0.055   1.914 -1.2436 -0.3997  3.4050
  133SOL    HW2  399   0.528   0.147   1.796  0.7034 -0.2290 -0.9179
  134SOL     OW  400   0.082   1.918   3.041 -0.3321 -0.5052 -0.6318
  134SOL    HW1  401   3.094   1.876   3.044  4.4977 -0.5482  1.2260
  134SOL    HW2  402   0.087   2.007   2.989 -0.8788 -0.9872 -3.5759
  135SOL     OW  403   1.428   0.530   2.004  0.2343  0.1838 -0.4704
  135SOL    HW1  404   1.495   0.557   1.930 -1.4624  0.6266  0.4002
  135SOL    HW2  405   1.442   0.593   2.083 -3.0659 -1.5361  2.3418
  136SOL     OW  406   2.603   1.614   0.302  0.4010 -0.2402  0.3097
  136SOL    HW1  407   2.666   1.548   0.346 -1.7361 -1.2548 -0.8485
  136SOL    HW2  408   2.557   1.563   0.232  2.3039 -0.5825  1.2845
  137SOL     OW  409   2.605   1.636   0.798  0.6110  0.4419  0.2991
  137SOL    HW1  410   2.637   1.539   0.806 -4.0362  0.5825  1.1023
  137SOL    HW2  411   2.677   1.705   0.805 -2.8351 -0.6256  2.7125
  138SOL     OW  412   2.752   0.739   1.067 -0.2323 -0.1861  0.3990
  138SOL    HW1  413   2.712   0.706   0.972 -2.1234  1.1976 -2.8066
  138SOL    HW2  414   2.766   0.838   1.067  0.1706  1.3287 -0.3693
  139SOL     OW  415   0.644   2.618   2.929  0.2953  0.0073 -0.3126
  139SOL    HW1  416   0.663   2.523   2.961 -0.0113 -0.1996 -1.7068
  139SOL    HW2  417   0.665   2.689   2.999  0.0300  0.4789 -1.2725
  140SOL     OW  418   1.120   1.965   1.075  0.2628 -0.0987 -0.0944
  140SOL    HW1  419   1.172   2.000   0.997 -1.0840  1.2369  1.6040
  140SOL    HW2  420   1.020   1.947   1.054 -0.9600  0.0911  0.4343
  141SOL     OW  421   1.530   2.173   0.589 -0.1404 -0.2226 -0.0941
  141SOL    HW1  422   1.441   2.154   0.542 -0.5272  1.7716  2.6084
  141SOL    HW2  423   1.534   2.131   0.685  1.4898  0.4442  3.1050
  142SOL     OW  424   1.046   0.435   1.022 -0.3999  0.3860 -0.1432
  142SOL    HW1  425   1.032   0.522   0.974  1.9118  0.8750  0.9636
  142SOL    HW2  426   0.955   0.399   1.041 -1.4868  1.3905 -1.0927
  143SOL     OW  427   0.784   1.378   3.016  0.5628  0.5050  0.5300
  143SOL    HW1  428   0.773   1.425   2.928 -1.3111 -1.2186 -0.6866
  143SOL    HW2  429   0.786   1.273   3.005 -3.4738  0.2143  0.1239
  144SOL     OW  430   1.871   2.650   0.745 -0.2670 -0.1255  0.0925
  144SOL    HW1  431   1.787   2.675   0.801 -0.9467  3.1822  0.3713
  144SOL    HW2  432   1.924   2.575   0.791  0.2768 -0.1413 -1.0988
  145SOL     OW  433   1.827   0.702   2.595 -0.8015  0.5485  0.1538
  145SOL    HW1  434   1.869   0.613   2.557  1.5680 -2.4741  1.3787
  145SOL    HW2  435   1.891   0.740   2.664 -0.0739 -0.4510 -2.5571
  146SOL     OW  436   3.080   2.991   0.416 -0.0624 -0.1494 -0.5267
  146SOL    HW1  437   3.046   3.054   0.491 -1.8782  1.0957 -0.3035
  146SOL    HW2  438   0.000   3.049   0.335  0.2878  0.6943 -1.5816
  147SOL     OW  439   2.140   0.183   2.204  0.7267 -0.2925  0.7379
  147SOL    HW1  440   2.216   0.204   2.264  0.0597 -1.1701 -0.5669
  147SOL    HW2  441   2.141   0.235   2.116 -0.4300  0.2957 -2.5042
  148SOL     OW  442   1.296   0.288   1.970 -0.0559 -0.3226 -0.3680
  148SOL    HW1  443   1.344   0.378   1.995 -0.4299  1.6206 -0.0847
  148SOL    HW2  444   1.350   0.202   1.991  0.3002 -3.4012 -0.5802
  149SOL     OW  445   1.412   0.082   2.297 -0.2622 -0.4064 -0.0185
  149SOL    HW1  446   1.407   0.071   2.198 -0.6113  0.1200  1.7391
  149SOL    HW2  447   1.359   0.011   2.347  0.0411 -0.6862 -1.0147
  150SOL     OW  448   3.002   2.971   3.056 -0.1114 -0.9449  0.6647
  150SOL    HW1  449   2.995   2.904   2.979 -1.9139 -1.1104 -1.3555
  150SOL    HW2  450   2.915   3.007   3.093  1.6449  1.8574  1.5148
  151SOL     OW  451   0.522   1.261   0.314 -0.3564 -0.5261  0.0669
  151SOL    HW1  452   0.483   1.214   0.236  0.1616  1.4812 -1.3772
  151SOL    HW2  453   0.556   1.351   0.289 -0.1070 -1.1534 -1.5526
  152SOL     OW  454   0.035   0.243   0.638 -0.0088  0.3293 -0.4004
  152SOL    HW1  455   0.129   0.250   0.593  4.3338 -0.0363 -0.1180
  152SOL    HW2  456   3.096   0.328   0.670 -0.2018 -1.6715  2.3680
  153SOL     OW  457   2.509   0.602   1.434 -0.4813 -0.0943 -0.0006
  153SOL    HW1  458   2.467   0.552   1.512  2.1486  1.1614 -0.8343
  153SOL    HW2  459   2.549   0.538   1.359  1.8776 -1.2961 -0.6026
  154SOL     OW  460   1.462   0.085   2.038 -0.2866  0.3579  0.2586
  154SOL    HW1  461   1.539   0.119   1.979  2.1458  0.3324  1.4274
  154SOL    HW2  462   1.489   3.094   2.056  0.2609 -1.3033 -0.6895
  155SOL     OW  463   2.873   1.689   0.615  0.2231  0.1567 -0.5599
  155SOL    HW1  464   2.826   1.763   0.674 -0.7298  2.4137 -0.5784
  155SOL    HW2  465   2.955   1.728   0.564  0.8955  0.1073  1.1531
  156SOL     OW  466   2.443   1.913   2.898  0.4430  0.0045  0.0747
  156SOL    HW1  467   2.418   1.826   2.947 -1.5432 -2.3883  0.8321
  156SOL    HW2  468   2.360   1.967   2.861 -4.3061 -0.8570 -1.1880
  157SOL     OW  469   0.806   0.185   0.762 -0.5827 -0.2956  0.6661
  157SOL    HW1  470   0.772   0.260   0.701  0.0055 -1.5776  1.7185
  157SOL    HW2  471   0.883   0.129   0.721 -1.9917 -1.0725 -2.0121
  158SOL     OW  472   2.339   0.468   2.134 -0.0789  0.0595 -0.8446
  158SOL    HW1  473   2.365   0.396   2.071 -0.6619  3.7310  2.2591
  158SOL    HW2  474   2.377   0.564   2.117  3.4331 -1.9518  1.1482
  159SOL     OW  475   0.255   0.321   0.483 -0.1082  0.0023  0.2272
  159SOL    HW1  476   0.301   0.396   0.436  1.4858  1.1205 -0.2917
  159SOL    HW2  477   0.272   0.229   0.445 -1.2428 -1.5588  2.9222
  160SOL     OW  478   1.777   1.850   1.884  0.1849  0.4719  0.1630
  160SOL    HW1  479   1.820   1.886   1.967 -0.8989  0.7145  2.5522
  160SOL    HW2  480   1.785   1.749   1.875  0.6948  2.0937  0.4727
  161SOL     OW  481   2.726   0.289   2.777 -0.4265 -0.4360 -0.0875
  161SOL    HW1  482   2.749   0.226   2.857  1.5586 -1.6808  0.3857
  161SOL    HW2  483   2.812   0.307   2.728 -3.3622  0.2421  2.5520
  162SOL     OW  484   1.154   2.799   1.854  0.2287  0.6942  0.1315
  162SOL    HW1  485   1.086   2.747   1.798  2.0355 -1.6275 -2.1119
  162SOL    HW2  486   1.127   2.898   1.865  1.8468  0.4131 -1.3201
  163SOL     OW  487   2.813   0.126   2.426 -0.2257 -0.0985 -0.2727
  163SOL    HW1  488   2.832   0.038   2.378  1.2800 -0.2798 -0.5565
  163SOL    HW2  489   2.717   0.130   2.457  0.9741 -1.1422  1.9812
  164SOL     OW  490   2.220   1.771   0.094  0.3181 -0.4235 -0.2695
  164SOL    HW1  491   2.134   1.774   0.040 -0.8001 -0.9139 -1.2276
  164SOL    HW2  492   2.295   1.742   0.034 -1.5453  1.2951 -0.2361
  165SOL     OW  493   3.018   0.430   1.521 -0.0411  0.2521 -0.0295
  165SOL    HW1  494   3.085   0.494   1.561  0.3866 -2.1058 -1.6224
  165SOL    HW2  495   2.984   0.478   1.439  0.3234 -0.3551 -0.8988
  166SOL     OW  496   2.349   0.474   0.109 -0.4634 -0.2854  0.2222
  166SOL    HW1  497   2.447   0.498   0.113  1.0448  1.8896  3.5454
  166SOL    HW2  498   2.301   0.546   0.155 -0.5048 -0.8633 -0.7725
  167SOL     OW  499   2.737   0.824   0.094 -0.4050  0.6717 -0.8705
  167SOL    HW1  500   2.682   0.873   0.025 -0.9828 -1.4543 -0.4583
  167SOL    HW2  501   2.827   0.866   0.113  0.8346  1.0467  0.4382
  168SOL     OW  502   1.827   2.831   2.672 -0.2281 -0.6171 -0.2782
  168SOL    HW1  503   1.776   2.771   2.733 -1.3738  1.2531  2.0410
  168SOL    HW2  504   1.772   2.919   2.666 -0.7775  3.2048  1.0241
  169SOL     OW  505   0.086   1.562   0.848  0.2728  0.2737  0.4121
  169SOL    HW1  506   3.105   1.519   0.818  0.8668  0.1181 -1.3951
  169SOL    HW2  507   0.168   1.538   0.790 -1.0128 -0.3144 -0.4379
  170SOL     OW  508   3.052   1.088   1.376  0.2595 -0.3872  0.1662
  170SOL    HW1  509   0.017   1.077   1.444 -2.1009  2.0598 -3.2375
  170SOL    HW2  510   3.045   1.006   1.317  2.0275  1.0031  1.6927
  171SOL     OW  511   2.336   2.028   1.914  0.2357  0.2275 -0.2125
  171SOL    HW1  512   2.361   1.973   1.832  3.3345 -0.4788  0.4075
  171SOL    HW2  513   2.332   1.959   1.993 -1.2595 -1.8940  0.7298
  172SOL     OW  514   0.269   2.373   1.514  0.1759 -0.2471 -0.1124
  172SOL    HW1  515   0.250   2.300   1.451 -1.5249  2.1212  1.1401
  172SOL    HW2  516   0.262   2.463   1.464  1.6939  0.5166  0.1485
  173SOL     OW  517   1.238   0.978   3.048  0.0183  0.3322 -0.7088
  173SOL    HW1  518   1.289   0.893   3.028  0.1488 -0.1236  2.4499
  173SOL    HW2  519   1.245   1.048   2.973  3.1336 -0.8627 -1.1909
  174SOL     OW  520   1.232   0.118   2.620 -0.0783 -0.6537  0.3570
  174SOL    HW1  521   1.271   0.193   2.562  0.1742  1.0442  2.0308
  174SOL    HW2  522   1.303   0.083   2.683  0.7456  1.0062  0.7095
  175SOL     OW  523   1.580   1.906   1.063 -0.0822 -0.1429  0.4262
  175SOL    HW1  524   1.675   1.874   1.074 -0.6119 -0.3335 -2.3906
  175SOL    HW2  525   1.519   1.827   1.063  3.6749  1.5287  0.3096
  176SOL     OW  526   1.529   3.035   0.251  0.2739 -0.0263 -0.4285
  176SOL    HW1  527   1.582   2.952   0.272  1.3600 -3.0103  1.6661
  176SOL    HW2  528   1.561   3.083   0.168  1.9137 -0.8676  1.9654
  177SOL     OW  529   0.807   1.082   2.976  0.2149  0.2986  0.8719
  177SOL    HW1  530   0.813   1.038   3.070  0.9871  0.1355  2.7495
  177SOL    HW2  531   0.724   1.051   2.929  1.2345 -2.2476 -0.5594
  178SOL     OW  532   2.297   2.435   2.257 -0.2266 -0.1770 -1.0314
  178SOL    HW1  533   2.312   2.365   2.185 -0.0469  2.2714 -0.6178
  178SOL    HW2  534   2.349   2.520   2.235  5.3039  0.0539  1.0656
  179SOL     OW  535   3.040   0.107   2.773 -0.3154 -0.2135 -0.0757
  179SOL    HW1  536   2.963   0.078   2.828  3.4426 -1.6847 -1.5901
  179SOL    HW2  537   3.002   0.152   2.688  0.0388  1.7389 -1.7955
  180SOL     OW  538   1.998   1.163   0.638  0.2138  0.2284  0.5989
  180SOL    HW1  539   2.037   1.090   0.696 -2.4302  0.5196  0.3446
  180SOL    HW2  540   2.014   1.254   0.671 -1.1451 -4.0168 -0.0228
  181SOL     OW  541   1.969   1.159   2.574 -0.0623  0.0397 -0.2259
  181SOL    HW1  542   2.027   1.238   2.549  0.1661 -1.9534 -0.8758
  181SOL    HW2  543   1.873   1.190   2.600 -1.3113 -1.0222  0.7907
  182SOL     OW  544   2.626   2.546   2.208  0.8664 -0.7075  0.6150
  182SOL    HW1  545   2.543   2.608   2.235 -0.1609  0.7570  1.7901
  182SOL    HW2  546   2.591   2.448   2.194 -0.6693 -2.5104  0.3689
  183SOL     OW  547   1.834   0.533   2.244 -0.6719 -0.3651  0.0266
  183SOL    HW1  548   1.852   0.631   2.277  0.2023 -2.0253  2.0942
  183SOL    HW2  549   1.922   0.484   2.227  1.1133 -2.5236 -0.6997
  184SOL     OW  550   0.246   1.745   1.331  0.2828  0.8627 -0.3887
  184SOL    HW1  551   0.221   1.716   1.237 -2.6757 -0.0781  0.9277
  184SOL    HW2  552   0.343   1.778   1.332 -2.7408  2.1808 -0.1142
  185SOL     OW  553   1.975   0.229   0.607 -0.2448 -0.3610 -0.1477
  185SOL    HW1  554   1.956   0.281   0.695 -2.1622 -3.3076 -1.3270
  185SOL    HW2  555   2.060   0.172   0.626  2.4211 -2.1999 -1.3967
  186SOL     OW  556   0.002   2.498   2.798  0.0756 -0.1571  0.0296
  186SOL    HW1  557   3.062   2.422   2.748 -0.5760  0.7561 -0.3156
  186SOL    HW2  558   0.081   2.539   2.748 -2.6649 -0.8245 -0.2371
  187SOL     OW  559   2.797   1.227   0.444 -0.4869 -0.9412 -0.4824
  187SOL    HW1  560   2.802   1.326   0.443 -1.2219 -2.0480  1.2653
  187SOL    HW2  561   2.705   1.192   0.413  0.2748 -0.3430 -0.8023
  188SOL     OW  562   2.296   1.432   1.041  0.6914 -0.0826 -0.0190
  188SOL    HW1  563   2.369   1.456   1.109 -1.8945 -1.4380  0.4631
  188SOL    HW2  564   2.329   1.419   0.944 -2.4904  0.1316 -0.4455
  189SOL     OW  565   2.951   0.293   2.581 -0.0505 -0.6320  0.0491
  189SOL    HW1  566   2.904   0.239   2.508  3.3627 -0.0371 -0.4445
  189SOL    HW2  567   3.038   0.325   2.540  1.3686 -1.6717 -1.1616
  190SOL     OW  568   1.427   1.149   1.278  0.8998 -0.3211 -0.0143
  190SOL    HW1  569   1.463   1.125   1.185  0.4805 -0.0171 -2.4764
  190SOL    HW2  570   1.505   1.155   1.342 -1.7907 -1.0738  3.3300
  191SOL     OW  571   0.797   0.413   1.920 -0.5336 -0.4216  0.1972
  191SOL    HW1  572   0.883   0.359   1.942  0.8801  1.5678 -0.8868
  191SOL    HW2  573   0.830   0.497   1.878 -0.1180  0.3212  2.1994
  192SOL     OW  574   1.621   2.190   1.673  0.2147 -0.1926  0.0631
  192SOL    HW1  575   1.570   2.118   1.730 -0.9119 -0.7225  0.6905
  192SOL    HW2  576   1.563   2.243   1.608  0.8987 -1.7742 -0.0046
  193SOL     OW  577   1.753   0.548   1.121 -0.3231 -0.9237 -0.2288
  193SOL    HW1  578   1.716   0.459   1.148 -0.5799 -0.6145 -1.2837
  193SOL    HW2  579   1.674   0.611   1.093 -0.7320 -1.1176 -1.3902
  194SOL     OW  580   0.629   2.155   1.415 -0.6476  0.4785 -0.7465
  194SOL    HW1  581   0.563   2.078   1.414 -1.2998 -1.1777  0.4738
  194SOL    HW2  582   0.727   2.121   1.403 -0.1475 -1.9578 -0.2417
  195SOL     OW  583   1.634   0.239   0.219 -0.0561 -0.2445 -0.4937
  195SOL    HW1  584   1.620   0.175   0.139  2.0764  0.1356 -1.2499
  195SOL    HW2  585   1.674   0.183   0.295 -1.8865  0.9246  1.6159
  196SOL     OW  586   0.517   1.492   1.358  0.3665 -0.0577  0.2144
  196SOL    HW1  587   0.516   1.589   1.397 -1.9027  4.3820 -2.4328
  196SOL    HW2  588   0.524   1.415   1.427 -2.4168  2.1213  0.4082
  197SOL     OW  589   1.019   0.146   1.684 -0.0934 -0.2699 -0.5214
  197SOL    HW1  590   1.068   0.184   1.604  0.3034  1.9281  0.8845
  197SOL    HW2  591   1.022   0.216   1.762  0.3158  1.1185 -0.6377
  198SOL     OW  592   0.735   1.277   1.232 -0.3891  0.0943 -0.2315
  198SOL    HW1  593   0.702   1.369   1.224  2.4924 -3.9588  0.6657
  198SOL    HW2  594   0.806   1.265   1.303  1.7895  2.7027  0.2088
  199SOL     OW  595   0.033   2.530   1.680 -0.1561 -0.1235  0.3818
  199SOL    HW1  596   0.103   2.606   1.691  0.1827 -1.5284 -0.7393
  199SOL    HW2  597   0.078   2.444   1.695  0.5417  1.5418 -0.3385
  200SOL     OW  598   1.746   1.339   1.796  0.5189 -0.0459  0.0841
  200SOL    HW1  599   1.837   1.312   1.819 -4.5733  0.5357 -0.5618
  200SOL    HW2  600   1.688   1.334   1.882  1.9255 -1.1768 -1.3901
  201SOL     OW  601   0.615   1.802   2.141 -0.2342 -0.3477 -0.4662
  201SOL    HW1  602   0.607   1.824   2.240  0.9610  1.5064  0.8012
  201SOL    HW2  603   0.523   1.778   2.107  0.1724  1.4605  2.2914
  202SOL     OW  604   1.536   0.490   2.972  0.4565 -0.1361 -0.6989
  202SOL    HW1  605   1.634   0.517   2.962 -0.0828 -0.1192 -1.1438
  202SOL    HW2  606   1.482   0.568   2.998  0.7625 -0.9291  0.5030
  203SOL     OW  607   1.505   2.771   2.301  0.1712  0.3414 -0.5964
  203SOL    HW1  608   1.484   2.674   2.295 -1.0349  1.2732  1.5603
  203SOL    HW2  609   1.496   2.793   2.400  0.7703 -0.3418  0.8773
  204SOL     OW  610   0.745   1.897   1.650 -0.6479  0.0936  0.1268
  204SOL    HW1  611   0.840   1.881   1.680 -0.9433  0.5287 -1.7015
  204SOL    HW2  612   0.674   1.833   1.685 -0.1585  0.7862 -0.0146
  205SOL     OW  613   1.729   1.593   1.864  0.4672  0.0502  0.1227
  205SOL    HW1  614   1.720   1.496   1.833  1.1149  1.0357  1.3929
  205SOL    HW2  615   1.631   1.616   1.876  1.2361  2.3098  0.9595
  206SOL     OW  616   3.078   1.532   2.195 -0.3476  0.0154  0.0680
  206SOL    HW1  617   0.004   1.564   2.102 -0.0349  0.4062  1.7357
  206SOL    HW2  618   0.035   1.563   2.267  1.4900  1.1316 -0.1212
  207SOL     OW  619   0.736   2.850   1.962 -0.2609 -0.2098  0.6419
  207SOL    HW1  620   0.725   2.900   1.872  2.7488  0.8814 -2.0987
  207SOL    HW2  621   0.661   2.860   2.027  2.2373 -0.5658 -0.3385
  208SOL     OW  622   0.608   2.528   1.797  0.6593 -0.3007  0.0523
  208SOL    HW1  623   0.713   2.538   1.785  3.5474 -0.2216 -1.1382
  208SOL    HW2  624   0.575   2.463   1.725  0.9362 -0.8753 -0.2041
  209SOL     OW  625   1.347   2.921   0.499  0.6932  0.4111 -0.5013
  209SOL    HW1  626   1.433   2.885   0.541  0.5278 -0.6824  1.3738
  209SOL    HW2  627   1.352   3.021   0.485 -0.5587 -1.3403 -1.5070
  210SOL     OW  628   2.663   0.661   0.816 -0.4284  0.4020  0.3579
  210SOL    HW1  629   2.731   0.588   0.792 -0.4006 -1.6898 -0.9613
  210SOL    HW2  630   2.637   0.726   0.740 -2.1237 -0.3778 -0.0506
  211SOL     OW  631   0.579   0.287   1.758  0.6176 -0.5927 -0.3223
  211SOL    HW1  632   0.659   0.309   1.816 -2.5018  0.5325  1.6507
  211SOL    HW2  633   0.522   0.373   1.741 -0.9459  2.4100 -0.1036
  212SOL     OW  634   1.402   2.752   1.713 -0.6591  0.0994 -0.2379
  212SOL    HW1  635   1.312   2.769   1.750  1.2325 -0.3063  1.2162
  212SOL    HW2  636   1.439   2.655   1.727  0.8745 -3.0171  0.2877
  213SOL     OW  637   3.006   0.278   1.775 -0.4217 -0.2724  0.1937
  213SOL    HW1  638   3.021   0.314   1.681  2.3166  4.4421  0.0272
  213SOL    HW2  639   2.909   0.240   1.778 -0.4950 -0.6094  1.6960
  214SOL     OW  640   0.710   2.448   2.042 -0.1116  0.5325  1.2646
  214SOL    HW1  641   0.714   2.481   1.945  1.4074 -1.4217 -0.5732
  214SOL    HW2  642   0.757   2.515   2.102 -2.4524  1.2670 -1.4494
  215SOL     OW  643   2.598   1.632   1.622  0.1505 -0.0856  0.3223
  215SOL    HW1  644   2.701   1.634   1.603  1.2669  1.7059 -0.2124
  215SOL    HW2  645   2.544   1.664   1.538 -0.1188  1.8245 -1.1238
  216SOL     OW  646   0.493   1.167   2.054  0.0200 -0.2596  0.3265
  216SOL    HW1  647   0.527   1.073   2.074 -0.5322  0.9695  3.1082
  216SOL    HW2  648   0.540   1.234   2.120 -1.7867 -0.5119  0.2981
  217SOL     OW  649   2.586   0.397   1.253 -0.4358  0.0891  0.2294
  217SOL    HW1  650   2.556   0.324   1.317  0.6866 -2.7231  0.2324
  217SOL    HW2  651   2.656   0.360   1.187  1.1748  0.4813 -0.0003
  218SOL     OW  652   1.433   2.153   1.089  0.1743  0.0289 -0.5152
  218SOL    HW1  653   1.499   2.076   1.075 -0.1217 -2.1532  0.4635
  218SOL    HW2  654   1.365   2.142   1.017  0.7459 -0.4403 -1.0231
  219SOL     OW  655   1.732   2.642   0.495 -0.3976 -0.2881  0.8069
  219SOL    HW1  656   1.786   2.659   0.577  3.1979  0.8042  2.0979
  219SOL    HW2  657   1.677   2.557   0.509  2.0366  0.5733  0.5864
  220SOL     OW  658   1.628   2.424   0.231  0.3651  0.4290  0.0700
  220SOL    HW1  659   1.568   2.505   0.207 -2.2589  0.0032 -0.1606
  220SOL    HW2  660   1.719   2.440   0.188 -2.0919  0.8457 -0.2792
  221SOL     OW  661   2.733   1.806   0.132 -0.1380  0.1121 -0.3590
  221SOL    HW1  662   2.698   1.898   0.160 -1.3241 -0.9821 -1.8649
  221SOL    HW2  663   2.699   1.739   0.200 -1.1074 -0.6093 -0.3674
  222SOL     OW  664   0.831   2.368   0.858 -0.4697  0.2143  0.0498
  222SOL    HW1  665   0.798   2.467   0.875 -0.6427  1.3522  1.4274
  222SOL    HW2  666   0.919   2.348   0.907 -0.5345 -1.2489  0.2443
  223SOL     OW  667   0.854   0.102   0.270 -0.5440  0.2639 -0.0150
  223SOL    HW1  668   0.765   0.060   0.298 -0.4913 -0.1820 -1.0465
  223SOL    HW2  669   0.930   0.068   0.330 -2.8901  1.5706  1.2782
  224SOL     OW  670   2.768   1.029   1.073  0.3149 -0.5998  0.3453
  224SOL    HW1  671   2.722   1.100   1.016  0.5196  2.8978 -2.6833
  224SOL    HW2  672   2.730   1.034   1.169 -0.9084 -0.2182 -0.2816
  225SOL     OW  673   3.001   1.943   0.976  0.0370 -0.0220 -0.1504
  225SOL    HW1  674   3.040   2.038   0.966 -0.0944  2.7249  0.5937
  225SOL    HW2  675   3.008   1.915   1.071 -0.0238  0.5529 -0.5197
  226SOL     OW  676   0.909   2.963   0.998  0.5782 -0.6310  0.4961
  226SOL    HW1  677   0.940   2.872   1.027  1.3841  0.6924 -1.8965
  226SOL    HW2  678   0.834   2.994   1.050  0.4991 -1.3552 -1.7613
  227SOL     OW  679   1.175   1.546   1.528  0.0712  0.3841 -0.1511
  227SOL    HW1  680   1.162   1.513   1.435 -0.0240 -0.1136  2.4406
  227SOL    HW2  681   1.095   1.594   1.567  1.9242 -2.3436 -0.7282
  228SOL     OW  682   1.023   0.271   1.920 -0.5589 -0.0226 -0.1593
  228SOL    HW1  683   0.980   0.211   1.990  2.4018 -0.2098 -0.2375
  228SOL    HW2  684   1.124   0.284   1.937  2.9118 -0.6600  1.3565
  229SOL     OW  685   2.987   0.960   2.367  0.5076 -0.4186 -0.2363
  229SOL    HW1  686   2.940   0.875   2.332 -1.6866 -1.2257 -0.6325
  229SOL    HW2  687   3.075   0.964   2.308 -1.8867  1.3287  0.7140
  230SOL     OW  688   3.020   0.929   1.025  0.0376 -1.1170 -0.0344
  230SOL    HW1  689   3.060   0.884   1.106 -0.3476 -0.4851 -0.3484
  230SOL    HW2  690   2.926   0.966   1.051 -1.7064  0.1800  0.3142
  231SOL     OW  691   1.288   2.998   2.432 -0.1630 -0.4518  0.1489
  231SOL    HW1  692   1.356   2.924   2.443  2.3532 -3.1640 -0.7417
  231SOL    HW2  693   1.264   3.034   2.522  2.1625  0.8074  0.6014
  232SOL     OW  694   0.072   1.895   0.227 -0.1140 -0.3458 -0.5549
  232SOL    HW1  695   0.163   1.858   0.258  3.2351  0.0440 -2.2125
  232SOL    HW2  696   0.084   1.937   0.134  0.7513 -0.5258  0.0817
  233SOL     OW  697   1.325   2.525   3.025 -0.9832  0.2684  0.1023
  233SOL    HW1  698   1.380   2.483   2.949 -0.3951  2.6026 -2.2416
  233SOL    HW2  699   1.298   2.617   3.000  1.2314 -0.4226 -0.1901
  234SOL     OW  700   0.832   1.135   1.719  0.6356  0.5717  0.5743
  234SOL    HW1  701   0.850   1.107   1.620  1.2627 -1.8276 -1.7435
  234SOL    HW2  702   0.906   1.195   1.758  3.0083  0.9146 -0.0324
  235SOL     OW  703   0.474   2.309   2.126  0.3545  0.1795 -0.1954
  235SOL    HW1  704   0.392   2.319   2.069  1.7495 -1.3326 -1.6060
  235SOL    HW2  705   0.555   2.356   2.082  2.0276  0.9943 -0.3698
  236SOL     OW  706   1.646   1.834   2.764 -0.5982  0.3738 -0.7330
  236SOL    HW1  707   1.690   1.793   2.684 -0.4567  1.1002  0.5747
  236SOL    HW2  708   1.638   1.934   2.755 -0.2591 -0.2497 -1.8713
  237SOL     OW  709   1.451   0.636   0.374 -0.2874  0.5464  0.5460
  237SOL    HW1  710   1.518   0.672   0.443  0.5994  0.6930 -0.4949
  237SOL    HW2  711   1.437   0.712   0.311  2.2022 -1.7216  3.1605
  238SOL     OW  712   0.838   2.665   2.145  0.4105 -0.2593 -0.2251
  238SOL    HW1  713   0.792   2.726   2.075  1.1804 -1.9348 -2.0320
  238SOL    HW2  714   0.939   2.662   2.133 -1.1856 -0.8407 -0.4165
  239SOL     OW  715   1.109   2.680   2.102 -0.0309 -0.4856  0.2911
  239SOL    HW1  716   1.127   2.746   2.029  0.7946  1.3754 -1.0880
  239SOL    HW2  717   1.126   2.582   2.071  0.9345 -2.8557  1.5818
  240SOL     OW  718   1.991   2.922   0.726 -0.1274 -0.0259 -0.3721
  240SOL    HW1  719   1.954   2.828   0.760 -0.4629  0.8587 -0.5901
  240SOL    HW2  720   2.090   2.910   0.724  0.8558  0.2847  0.2972
  241SOL     OW  721   1.014   1.229   2.133  0.1409  0.7094  0.1846
  241SOL    HW1  722   1.090   1.159   2.131 -0.1424 -0.2483  1.3246
  241SOL    HW2  723   1.006   1.272   2.225  0.5376  2.7168  2.2593
  242SOL     OW  724   2.590   0.585   0.054  0.0034  0.2220 -0.0503
  242SOL    HW1  725   2.654   0.654   0.069 -1.4215 -2.2778 -1.3685
  242SOL    HW2  726   2.555   0.604   3.066  0.1758  2.4278  0.1090
  243SOL     OW  727   0.951   0.764   1.275 -0.1792 -0.4647  0.9279
  243SOL    HW1  728   1.052   0.757   1.261  1.4398  1.0765 -0.0637
  243SOL    HW2  729   0.924   0.753   1.373  0.0477  0.9271  0.5243
  244SOL     OW  730   1.436   0.052   2.779  0.0594 -0.3207 -0.5823
  244SOL    HW1  731   1.399   0.107   2.859 -1.8839 -0.3365  2.7916
  244SOL    HW2  732   1.538   0.043   2.773 -1.1562  0.6023 -0.7490
  245SOL     OW  733   2.110   2.919   2.956 -0.5306 -0.3537  0.5023
  245SOL    HW1  734   2.201   2.922   3.001  1.6028  0.2730 -4.0058
  245SOL    HW2  735   2.126   2.925   2.855  1.7828 -1.5826  1.0424
  246SOL     OW  736   0.897   0.742   1.545  0.1886 -0.0499  0.1974
  246SOL    HW1  737   0.988   0.754   1.589 -0.4036  0.3679 -0.2963
  246SOL    HW2  738   0.826   0.726   1.616  1.6642 -1.8992  0.2729
  247SOL     OW  739   0.414   0.447   2.018  0.0637 -0.3424 -0.2189
  247SOL    HW1  740   0.342   0.380   2.002  3.5419 -1.5760 -0.4861
  247SOL    HW2  741   0.460   0.482   1.935 -0.7109  0.0979 -0.1105
  248SOL     OW  742   3.050   1.813   1.908  0.0466  0.2762 -0.1589
  248SOL    HW1  743   3.091   1.721   1.892 -0.2708 -2.1012  1.9988
  248SOL    HW2  744   3.093   1.857   1.991  2.5815  2.1058  2.3015
  249SOL     OW  745   2.999   0.164   0.045 -0.3346  0.3921  0.6941
  249SOL    HW1  746   2.957   0.221   3.079 -0.9924  0.5269  0.9806
  249SOL    HW2  747   3.084   0.122   0.018  0.4827  2.9435  0.7358
  250SOL     OW  748   2.959   0.144   0.308 -0.7391  0.6349  0.5172
  250SOL    HW1  749   2.962   0.161   0.207  3.1592 -1.8343  0.9221
  250SOL    HW2  750   2.899   0.069   0.330  0.1981 -0.2376 -3.1174
  251SOL     OW  751   1.037   1.689   1.843 -0.0551 -0.1351 -0.4908
  251SOL    HW1  752   1.014   1.773   1.787  0.6991  0.8919 -0.2476
  251SOL    HW2  753   0.962   1.653   1.900 -2.0939  0.0235 -4.3982
  252SOL     OW  754   1.736   2.778   1.455 -0.8092  0.2554 -0.8228
  252SOL    HW1  755   1.787   2.749   1.542  0.9429 -1.8616  1.8094
  252SOL    HW2  756   1.795   2.773   1.368 -0.3768 -1.4424  0.7683
  253SOL     OW  757   2.091   1.715   2.471 -0.4873 -0.0817 -0.2440
  253SOL    HW1  758   2.072   1.759   2.377  1.3796  1.5921 -2.4725
  253SOL    HW2  759   2.178   1.668   2.469 -2.3951  2.0566  1.9669
  254SOL     OW  760   0.763   2.047   2.026 -0.0452  0.6482  0.1481
  254SOL    HW1  761   0.719   1.957   2.054 -0.0324  2.3146  0.5662
  254SOL    HW2  762   0.703   2.087   1.956  2.9949  0.6232  1.7820
  255SOL     OW  763   1.198   0.181   1.474 -0.3438  0.3233  0.7031
  255SOL    HW1  764   1.235   0.191   1.377  1.4578  1.6076  0.9557
  255SOL    HW2  765   1.195   0.083   1.497  0.0115  0.8093 -0.8843
  256SOL     OW  766   2.382   2.103   1.364 -0.7509  0.2757 -0.2627
  256SOL    HW1  767   2.292   2.068   1.329 -1.3573 -0.7304  1.6523
  256SOL    HW2  768   2.461   2.042   1.339 -1.4951 -1.3498  0.4883
  257SOL     OW  769   0.529   2.134   3.003  0.2534  0.1300  0.5136
  257SOL    HW1  770   0.611   2.192   2.979 -0.4643  2.4702  1.7659
  257SOL    HW2  771   0.450   2.194   3.024  0.5426  0.6985 -1.2044
  258SOL     OW  772   0.455   1.308   0.006  0.2492 -0.3967 -0.5026
  258SOL    HW1  773   0.476   1.314   3.013  0.8593  0.6168  2.7254
  258SOL    HW2  774   0.476   1.215   0.042  0.6207 -2.6031 -0.7364
  259SOL     OW  775   0.671   1.457   2.500  0.0771 -0.3358 -0.5231
  259SOL    HW1  776   0.703   1.361   2.497 -0.3352 -0.7164  1.6758
  259SOL    HW2  777   0.749   1.518   2.490  0.4703 -1.4709 -1.6150
  260SOL     OW  778   2.009   0.997   1.280 -0.1534 -0.5690 -0.2842
  260SOL    HW1  779   1.932   0.972   1.341 -2.6307  0.7598  1.6437
  260SOL    HW2  780   1.974   1.029   1.189  0.5645  2.3225 -1.2618
  261SOL     OW  781   1.225   0.245   0.930 -0.1621  0.0138 -0.0338
  261SOL    HW1  782   1.196   0.153   0.964 -1.5289  1.6875 -2.0970
  261SOL    HW2  783   1.157   0.320   0.953 -0.0028  1.8790  2.0594
  262SOL     OW  784   2.142   2.127   2.411 -0.2033  0.2833 -0.2607
  262SOL    HW1  785   2.121   2.224   2.434  0.8361 -0.5807  0.2453
  262SOL    HW2  786   2.070   2.076   2.366  3.8972  0.9414 -0.8948
  263SOL     OW  787   2.955   1.488   2.902 -0.2525 -0.3783 -0.4674
  263SOL    HW1  788   2.978   1.576   2.850  0.8664  1.4626  0.6225
  263SOL    HW2  789   3.039   1.467   2.961  2.6327  4.2714  0.5563
  264SOL     OW  790   0.378   1.884   1.004 -0.2495  0.1149  0.8353
  264SOL    HW1  791   0.463   1.867   1.056  1.0742  0.3027 -1.0953
  264SOL    HW2  792   0.394   1.869   0.902 -1.7147 -1.2006 -1.2684
  265SOL     OW  793   0.584   0.984   0.916  0.6114 -0.0278 -0.1234
  265SOL    HW1  794   0.556   1.065   0.858  0.2498  2.5621 -2.0406
  265SOL    HW2  795   0.585   1.016   1.013 -2.0408 -1.6478 -0.5320
  266SOL     OW  796   1.383   1.634   3.090  0.1694  0.4027  0.6408
  266SOL    HW1  797   1.473   1.675   3.069  1.9874  1.0279  0.3641
  266SOL    HW2  798   1.377   1.620   0.084 -1.1005 -1.5865 -0.1415
  267SOL     OW  799   0.748   1.194   2.450  0.2401 -0.0543 -0.1902
  267SOL    HW1  800   0.841   1.197   2.405  1.2163 -2.7156 -1.3002
  267SOL    HW2  801   0.709   1.100   2.431  0.7584 -0.0299 -0.4336
  268SOL     OW  802   0.781   0.921   0.088  0.4916  0.5751  0.6312
  268SOL    HW1  803   0.881   0.902   0.104  1.1369  2.3248  0.9072
  268SOL    HW2  804   0.733   0.875   0.165  1.0396 -0.1072  0.3897
  269SOL     OW  805   1.965   2.951   2.477  0.3380 -0.3116 -0.3821
  269SOL    HW1  806   1.917   2.983   2.392 -0.8411  3.8098 -0.2017
  269SOL    HW2  807   1.906   2.885   2.534 -2.0254  0.0339  2.1300
  270SOL     OW  808   1.096   1.276   2.623  0.1776  0.4257  0.1449
  270SOL    HW1  809   1.194   1.260   2.650  4.2134 -1.8131  1.1358
  270SOL    HW2  810   1.036   1.197   2.644  0.3693  0.5695  0.4535
  271SOL     OW  811   2.972   0.445   0.079  0.3082 -0.2867  0.3325
  271SOL    HW1  812   3.041   0.380   0.120 -1.6047  1.6564 -0.2284
  271SOL    HW2  813   3.015   0.527   0.037  2.0090  0.2163 -0.0750
  272SOL     OW  814   2.396   0.897   2.810  0.0082 -0.0416  0.2905
  272SOL    HW1  815   2.352   0.944   2.886  1.7494 -1.7616 -1.5669
  272SOL    HW2  816   2.477   0.949   2.774  1.5915  1.5962  2.3842
  273SOL     OW  817   0.235   0.256   1.961  0.4341 -0.1872 -0.5903
  273SOL    HW1  818   0.142   0.224   1.991 -0.6985 -0.3326 -0.9392
  273SOL    HW2  819   0.306   0.188   1.989 -0.5999  2.4367  0.3606
  274SOL     OW  820   3.090   0.511   1.960 -0.1771 -0.6486 -0.8183
  274SOL    HW1  821   0.058   0.470   2.018  0.5730  0.9307  1.7106
  274SOL    HW2  822   3.054   0.447   1.895  0.7998  1.6030  0.5086
  275SOL     OW  823   1.760   1.726   0.685 -0.2756 -0.3006 -0.1451
  275SOL    HW1  824   1.844   1.753   0.633 -2.7538  0.3947 -0.4025
  275SOL    HW2  825   1.674   1.736   0.637 -0.1848  1.3513  0.8327
  276SOL     OW  826   0.600   1.320   2.226  0.1749  1.1774  0.7018
  276SOL    HW1  827   0.668   1.305   2.297 -1.9020  1.1656 -1.5304
  276SOL    HW2  828   0.528   1.387   2.255  0.3715  1.4428 -0.8546
  277SOL     OW  829   2.130   2.698   2.469  0.5099 -0.1297 -0.4985
  277SOL    HW1  830   2.080   2.649   2.400  0.1575  1.7221  2.0393
  277SOL    HW2  831   2.088   2.788   2.487  2.2137  1.0854  0.5952
  278SOL     OW  832   2.116   2.883   1.870 -0.2548  0.6824  0.0261
  278SOL    HW1  833   2.027   2.909   1.836  1.3420 -0.5977  1.5001
  278SOL    HW2  834   2.182   2.948   1.835  1.3834  0.4322  2.2689
  279SOL     OW  835   1.597   1.300   3.087 -1.0587 -0.3860  0.2641
  279SOL    HW1  836   1.507   1.342   3.076 -1.3239  3.1667 -2.0956
  279SOL    HW2  837   1.601   1.228   0.058  1.6770 -0.8575  2.8540
  280SOL     OW  838   0.642   1.468   0.167 -0.4246  0.6294 -0.5937
  280SOL    HW1  839   0.737   1.490   0.168 -2.9377 -1.7606  1.9826
  280SOL    HW2  840   0.622   1.409   0.086 -1.0430 -3.5660  2.1195
  281SOL     OW  841   3.021   3.049   1.497  0.0392 -0.3303  0.2701
  281SOL    HW1  842   0.009   3.059   1.529 -1.9857  3.1951 -3.8583
  281SOL    HW2  843   2.991   0.035   1.465  0.8707 -0.5874 -0.2167
  282SOL     OW  844   2.875   2.121   0.700  0.5244  0.2447  0.3358
  282SOL    HW1  845   2.965   2.161   0.668  0.1043 -2.0800  2.7481
  282SOL    HW2  846   2.796   2.146   0.636 -0.4714 -1.6569 -0.9221
  283SOL     OW  847   1.166   1.948   2.080  0.3080 -0.5311  0.6911
  283SOL    HW1  848   1.227   2.001   2.145  2.4433  0.3409  0.4124
  283SOL    HW2  849   1.101   1.891   2.134  2.4420  0.5397  0.3327
  284SOL     OW  850   2.005   2.932   0.349 -0.2842 -0.3011 -0.0429
  284SOL    HW1  851   2.088   2.989   0.350  1.2863 -1.0792  2.1855
  284SOL    HW2  852   1.990   2.892   0.257 -3.0413  0.6192  2.1166
  285SOL     OW  853   3.048   2.709   2.288 -0.6229  0.2834 -0.0986
  285SOL    HW1  854   3.093   2.780   2.346  1.0958  0.7968  1.9371
  285SOL    HW2  855   2.972   2.663   2.337  0.1234 -1.2687 -3.9188
  286SOL     OW  856   2.163   2.559   1.394 -0.3131  0.0932  0.4122
  286SOL    HW1  857   2.137   2.635   1.456  1.2604 -2.1141  0.8768
  286SOL    HW2  858   2.237   2.498   1.430  1.2021 -2.7779  0.5881
  287SOL     OW  859   0.434   1.579   0.785  0.0006 -0.5167  0.1074
  287SOL    HW1  860   0.396   1.528   0.866  0.6525  0.0107  1.2946
  287SOL    HW2  861   0.527   1.546   0.763  0.7948  1.6627  2.7532
  288SOL     OW  862   1.976   1.972   2.815 -0.1176  0.1698  0.5030
  288SOL    HW1  863   1.891   1.969   2.762 -1.2947 -1.3015 -1.9037
  288SOL    HW2  864   2.054   2.013   2.761 -2.9751 -0.8325 -0.4695
  289SOL     OW  865   0.372   1.691   2.553 -0.2188 -0.1337  0.2033
  289SOL    HW1  866   0.397   1.785   2.542 -1.1119 -2.1203 -2.0118
  289SOL    HW2  867   0.424   1.647   2.475  2.5313  1.4349  0.1884
  290SOL     OW  868   1.132   2.184   1.222 -0.3048  0.2649  0.3426
  290SOL    HW1  869   1.159   2.171   1.319 -0.5651  0.6160  1.9721
  290SOL    HW2  870   1.145   2.099   1.168  0.0013 -1.1630  0.2636
  291SOL     OW  871   1.827   1.270   2.896 -0.0121 -0.4127 -0.0398
  291SOL    HW1  872   1.876   1.350   2.865  0.1530 -2.3828  2.4762
  291SOL    HW2  873   1.780   1.295   2.984  0.2067 -1.3915  5.5477
  292SOL     OW  874   0.957   1.216   0.738 -0.5125 -0.1076  0.2052
  292SOL    HW1  875   0.939   1.222   0.841 -1.5075 -1.5088  0.6861
  292SOL    HW2  876   1.052   1.200   0.720 -2.1190 -0.7391  0.5352
  293SOL     OW  877   1.404   2.950   1.088 -0.2771  0.0749 -0.1108
  293SOL    HW1  878   1.500   2.943   1.057 -0.0572 -1.4272  0.2634
  293SOL    HW2  879   1.340   2.954   1.014 -1.0626  0.2950  0.6660
  294SOL     OW  880   2.977   0.792   2.920  0.1135 -0.4898  0.2026
  294SOL    HW1  881   2.997   0.891   2.936 -0.2110  1.4383 -0.9555
  294SOL    HW2  882   2.887   0.783   2.873  1.9014  0.0653 -2.4045
  295SOL     OW  883   1.604   2.086   2.709 -0.1936  0.1390  0.7621
  295SOL    HW1  884   1.646   2.129   2.791 -1.0214 -2.6840 -1.3834
  295SOL    HW2  885   1.642   2.129   2.627 -0.0610  0.0738  0.0075
  296SOL     OW  886   1.802   0.816   2.081 -0.0581  0.3028  0.4039
  296SOL    HW1  887   1.726   0.884   2.059 -4.4378  2.3527 -2.1877
  296SOL    HW2  888   1.825   0.811   2.180  0.2063 -0.4541  0.3497
  297SOL     OW  889   0.087   0.949   2.207  0.0423 -0.5377 -0.0555
  297SOL    HW1  890   0.030   0.916   2.127 -1.3016 -1.3092  1.6728
  297SOL    HW2  891   0.140   1.033   2.187  0.8218 -0.0390 -1.5252
  298SOL     OW  892   1.310   2.122   2.238  0.0047 -0.1400  0.4978
  298SOL    HW1  893   1.259   2.206   2.200 -1.5117  0.3605  2.1128
  298SOL    HW2  894   1.316   2.126   2.341 -1.2712  0.4551 -0.2091
  299SOL     OW  895   0.540   2.757   2.493 -0.1457  0.5479  0.4129
  299SOL    HW1  896   0.640   2.770   2.507  0.0849  0.8951  1.5065
  299SOL    HW2  897   0.526   2.690   2.420  1.2686  1.8012  1.3300
  300SOL     OW  898   0.173   0.844   2.654 -0.8152 -0.1060  0.1179
  300SOL    HW1  899   0.123   0.757   2.638  0.3138  0.8173  2.2487
  300SOL    HW2  900   0.115   0.926   2.644 -0.3579 -0.1772 -0.5371
  301SOL     OW  901   1.835   0.957   1.507  0.4648 -0.6038 -0.2167
  301SOL    HW1  902   1.886   0.890   1.562 -1.5227  0.9492  0.7278
  301SOL    HW2  903   1.809   1.030   1.567  0.6973  0.3537 -1.6449
  302SOL     OW  904   2.607   1.981   2.433  0.0295 -0.4462 -0.3558
  302SOL    HW1  905   2.588   1.939   2.524  0.3732 -0.4794  2.4069
  302SOL    HW2  906   2.518   2.022   2.395 -1.9059  0.9809 -1.8360
  303SOL     OW  907   0.079   0.079   2.410 -0.2178 -0.0310 -0.0711
  303SOL    HW1  908   0.156   0.017   2.440  2.3870 -1.0997 -1.9300
  303SOL    HW2  909   0.082   0.173   2.461  0.9972  4.3084 -3.8740
  304SOL     OW  910   0.175   1.058   1.553 -0.4605 -0.0868  0.5983
  304SOL    HW1  911   0.196   1.150   1.507  0.0153 -0.1077 -2.0195
  304SOL    HW2  912   0.188   1.067   1.653  0.7856  0.6048  1.0274
  305SOL     OW  913   2.958   0.175   1.373  0.0410  0.5659 -0.0318
  305SOL    HW1  914   2.974   0.263   1.413  0.1635 -2.2660  0.5100
  305SOL    HW2  915   3.025   0.157   1.299  1.3536  1.6854  0.3453
  306SOL     OW  916   2.496   1.461   1.242 -0.6880  0.0929 -0.4188
  306SOL    HW1  917   2.472   1.543   1.296 -1.3439  1.7146 -1.6983
  306SOL    HW2  918   2.593   1.469   1.214 -1.8158  2.0622 -0.3767
  307SOL     OW  919   2.130   0.147   0.974 -0.2720 -0.3915 -0.1463
  307SOL    HW1  920   2.159   0.055   1.004  2.5352 -2.3124 -1.6083
  307SOL    HW2  921   2.154   0.217   1.043  1.3706 -1.3097  0.0519
  308SOL     OW  922   2.776   2.093   1.150  0.9245  0.5273  0.2265
  308SOL    HW1  923   2.794   2.143   1.062  0.2744  0.2167 -2.8472
  308SOL    HW2  924   2.847   2.024   1.169 -0.9267  2.3520 -0.0633
  309SOL     OW  925   2.118   1.959   1.530 -0.4584 -0.1590  0.5125
  309SOL    HW1  926   2.112   1.959   1.425 -0.8851  0.8615  1.0472
  309SOL    HW2  927   2.067   1.875   1.559 -0.1173  0.6816  1.1886
  310SOL     OW  928   2.392   1.434   2.848 -0.2134  0.5049  0.1842
  310SOL    HW1  929   2.385   1.517   2.903  2.1609 -1.7285 -2.2185
  310SOL    HW2  930   2.312   1.373   2.856  1.0897  1.2011 -1.1897
  311SOL     OW  931   2.079   1.025   2.792 -0.2255  0.3173  0.0133
  311SOL    HW1  932   2.030   1.060   2.711 -0.1767  3.0456  0.0117
  311SOL    HW2  933   2.052   0.932   2.821 -1.3994 -0.8023 -1.8778
  312SOL     OW  934   1.560   2.139   2.145  0.4194  0.7260  0.2008
  312SOL    HW1  935   1.609   2.208   2.199 -1.2235 -0.0107 -1.3677
  312SOL    HW2  936   1.470   2.119   2.182  1.3020 -1.7241 -0.0321
  313SOL     OW  937   0.356   2.855   0.979 -0.2850 -0.0297  0.2113
  313SOL    HW1  938   0.294   2.880   0.898  0.8612  2.8053 -1.2262
  313SOL    HW2  939   0.390   2.762   0.985 -1.5593  0.3243  1.9034
  314SOL     OW  940   0.731   1.709   1.337  0.1003 -0.3336 -0.5191
  314SOL    HW1  941   0.645   1.723   1.389  1.8574  1.0801  0.1512
  314SOL    HW2  942   0.712   1.680   1.239 -2.7640 -0.3458  0.1249
  315SOL     OW  943   0.558   2.902   2.141  0.1595 -0.0339  0.7687
  315SOL    HW1  944   0.604   2.982   2.180 -2.1102 -1.4336 -2.5657
  315SOL    HW2  945   0.456   2.912   2.153 -0.1939 -0.8698  0.1895
  316SOL     OW  946   0.030   2.206   0.966  0.1688  0.0999 -0.0831
  316SOL    HW1  947   3.072   2.270   1.017  1.1527  1.1919 -0.3137
  316SOL    HW2  948   0.115   2.191   1.024 -0.0042  0.7565  0.4528
  317SOL     OW  949   1.876   0.655   0.381  0.0759 -1.0860 -0.1849
  317SOL    HW1  950   1.821   0.587   0.333  1.4135  2.6785  2.4200
  317SOL    HW2  951   1.942   0.606   0.441  2.3799  0.5666 -1.2817
  318SOL     OW  952   2.907   2.533   0.024  0.2863 -0.1571 -0.0388
  318SOL    HW1  953   2.821   2.516   0.086 -1.1280 -1.6597  2.6128
  318SOL    HW2  954   2.919   2.630   0.006 -0.3847 -0.9100  0.2111
  319SOL     OW  955   1.456   1.454   0.225 -0.0284 -0.0873 -0.4693
  319SOL    HW1  956   1.415   1.459   0.316 -1.5789  0.3271 -0.1411
  319SOL    HW2  957   1.555   1.448   0.234 -0.8960 -1.2520 -0.5158
  320SOL     OW  958   0.620   2.274   2.706 -0.3703 -0.0663  0.2299
  320SOL    HW1  959   0.597   2.174   2.706  1.6035 -1.4390  0.0710
  320SOL    HW2  960   0.665   2.303   2.795  0.2557  1.2241  1.6209
  321SOL     OW  961   1.014   2.920   0.211 -0.0448 -0.6382 -0.5948
  321SOL    HW1  962   1.019   2.960   0.122 -1.2036  1.6323  1.5766
  321SOL    HW2  963   1.083   2.844   0.227  2.2651  1.3087 -0.0718
  322SOL     OW  964   2.120   0.579   2.247  0.1928 -0.0549  0.0844
  322SOL    HW1  965   2.092   0.654   2.184 -0.1039  2.7980 -2.3254
  322SOL    HW2  966   2.191   0.526   2.196  0.2585  1.5675 -1.4972
  323SOL     OW  967   2.754   1.049   0.651 -0.1138 -0.5418 -0.0900
  323SOL    HW1  968   2.840   1.004   0.687  0.4276  1.7361  1.4032
  323SOL    HW2  969   2.773   1.119   0.581 -0.2674  0.1478  0.2691
  324SOL     OW  970   0.310   0.445   2.392 -0.0482  0.0442  0.2974
  324SOL    HW1  971   0.258   0.519   2.345 -0.3183  2.6689  3.4826
  324SOL    HW2  972   0.358   0.383   2.333 -0.1586  1.9689  3.3132
  325SOL     OW  973   0.684   3.089   2.274 -0.5636  0.3484 -0.3326
  325SOL    HW1  974   0.693   0.075   2.239  0.8159 -1.4264  1.2155
  325SOL    HW2  975   0.683   3.085   2.376 -0.0547  2.0537 -1.1814
  326SOL     OW  976   2.446   2.643   1.030  0.1389  0.4936 -0.7965
  326SOL    HW1  977   2.519   2.621   1.094  0.0870  0.6385 -1.0756
  326SOL    HW2  978   2.487   2.674   0.942 -2.5544  0.5129  1.1211
  327SOL     OW  979   1.667   1.044   0.175  0.1978  1.0366  0.6769
  327SOL    HW1  980   1.612   0.983   0.237  1.0145 -0.6753  0.1323
  327SOL    HW2  981   1.690   1.002   0.082  0.6557 -0.3146 -3.9230
  328SOL     OW  982   0.294   2.016   2.124  0.2959 -0.0908  0.3818
  328SOL    HW1  983   0.338   2.070   2.196 -2.1283  0.7340 -1.5970
  328SOL    HW2  984   0.194   2.010   2.144 -0.8774  2.1671  0.5207
  329SOL     OW  985   2.782   2.729   1.654 -0.4573 -0.0895 -0.1248
  329SOL    HW1  986   2.865   2.692   1.605  0.6199  0.6917 -0.6954
  329SOL    HW2  987   2.740   2.656   1.709  1.3838  2.9662 -2.0704
  330SOL     OW  988   2.458   1.304   1.817 -0.7580 -0.2473  0.1481
  330SOL    HW1  989   2.403   1.310   1.899  0.2349 -0.6309 -0.5041
  330SOL    HW2  990   2.557   1.325   1.832 -1.5214 -0.2191  2.1418
  331SOL     OW  991   2.807   2.252   0.931 -0.5860  0.3398  0.3714
  331SOL    HW1  992   2.844   2.204   0.850  0.3428 -0.5774  0.4148
  331SOL    HW2  993   2.706   2.271   0.917  3.1555 -1.0625  1.6900
  332SOL     OW  994   0.653   2.657   0.173  0.0880 -0.9457  0.3089
  332SOL    HW1  995   0.562   2.709   0.167  0.6272 -0.7906  3.4045
  332SOL    HW2  996   0.725   2.709   0.232  2.2029  2.5696 -1.7186
  333SOL     OW  997   1.932   0.221   2.458  0.3999  0.2937  0.0088
  333SOL    HW1  998   1.830   0.217   2.426  0.7283  0.3359 -1.2244
  333SOL    HW2  999   1.989   0.191   2.380 -1.1399 -2.5920 -0.1223
  334SOL     OW 1000   0.729   0.927   0.487 -0.2293 -0.4801 -0.5291
  334SOL    HW1 1001   0.774   0.962   0.573  1.2479 -1.1557  1.3279
  334SOL    HW2 1002   0.634   0.974   0.478 -1.7519  1.0527  0.0203
  335SOL     OW 1003   0.306   2.970   2.203  0.4011 -0.2192  0.1726
  335SOL    HW1 1004   0.319   2.940   2.303  1.0725 -1.0155  2.4778
  335SOL    HW2 1005   0.207   3.006   2.186 -1.9234  1.1785 -2.2771
  336SOL     OW 1006   2.898   3.046   2.238 -0.7580  0.1904 -0.1239
  336SOL    HW1 1007   2.838   2.963   2.220 -0.6102 -0.6714  0.9228
  336SOL    HW2 1008   2.987   3.038   2.184 -1.1110  0.3790 -4.3257
  337SOL     OW 1009   1.294   1.616   0.931 -0.1780  0.0283 -0.3172
  337SOL    HW1 1010   1.356   1.649   1.007  0.6511  0.8713 -0.3487
  337SOL    HW2 1011   1.325   1.525   0.895  1.1448 -2.6974 -0.5467
  338SOL     OW 1012   0.874   1.852   0.954 -0.0470  0.4960  0.0342
  338SOL    HW1 1013   0.901   1.769   1.002 -1.5168  0.0573 -0.4218
  338SOL    HW2 1014   0.807   1.823   0.883  2.2402  1.5421  0.9631
  339SOL     OW 1015   0.289   1.287   1.472 -0.4805  0.6371 -0.0656
  339SOL    HW1 1016   0.244   1.376   1.494  0.9644  1.9536  1.7619
  339SOL    HW2 1017   0.384   1.289   1.506 -0.1606  0.2488  1.3273
  340SOL     OW 1018   1.764   2.782   2.165  0.5492 -0.1042 -0.0761
  340SOL    HW1 1019   1.757   2.699   2.104 -0.2821 -1.6116  1.5860
  340SOL    HW2 1020   1.687   2.784   2.229  0.6035 -2.2794 -2.0362
  341SOL     OW 1021   1.849   1.516   0.864 -0.5647  0.6008 -0.1252
  341SOL    HW1 1022   1.848   1.532   0.970 -0.3106  3.2443  0.6463
  341SOL    HW2 1023   1.810   1.593   0.816 -1.6516 -0.8368 -0.9789
  342SOL     OW 1024   2.958   1.466   0.770  0.1797  0.3396  0.0242
  342SOL    HW1 1025   2.922   1.550   0.722 -1.6222  0.6335  0.4002
  342SOL    HW2 1026   2.886   1.429   0.828  2.7023  3.0568 -3.8204
  343SOL     OW 1027   2.871   1.244   1.500  0.6104  0.1976 -0.5598
  343SOL    HW1 1028   2.864   1.200   1.591  0.1240  1.0024  1.5915
  343SOL    HW2 1029   2.932   1.185   1.442  0.1770 -0.9187  0.4457
  344SOL     OW 1030   1.987   0.579   1.001  0.0408  0.7585  0.1463
  344SOL    HW1 1031   1.892   0.566   1.036 -2.8270 -2.2410  0.1611
  344SOL    HW2 1032   2.037   0.642   1.065  1.1415  2.3889  0.5814
  345SOL     OW 1033   0.352   2.953   2.467  0.4280  0.8223 -0.0165
  345SOL    HW1 1034   0.426   2.881   2.468  0.9922 -1.5080  0.6484
  345SOL    HW2 1035   0.384   3.051   2.475 -0.2653 -1.0159 -1.0129
  346SOL     OW 1036   2.317   1.310   0.227  0.1681  0.0763  0.1991
  346SOL    HW1 1037   2.269   1.401   0.205 -1.4856  2.0533 -0.3320
  346SOL    HW2 1038   2.267   1.225   0.203  1.4541  2.2783 -0.9516
  347SOL     OW 1039   2.062   2.782   2.102  0.2627  0.0641 -0.1490
  347SOL    HW1 1040   1.962   2.783   2.123  0.1170  2.0148 -1.6061
  347SOL    HW2 1041   2.072   2.829   2.013 -0.4961 -0.4233  0.9466
  348SOL     OW 1042   0.988   1.302   1.459 -0.3365 -0.2900 -0.2861
  348SOL    HW1 1043   1.058   1.305   1.385  1.0757 -0.2244  0.9166
  348SOL    HW2 1044   0.985   1.209   1.500 -2.5732  1.3885 -0.4247
  349SOL     OW 1045   2.441   1.041   1.871 -0.2331  0.1204  0.0405
  349SOL    HW1 1046   2.474   0.971   1.805  3.2938  1.9955 -0.9217
  349SOL    HW2 1047   2.429   1.132   1.830 -0.8581  0.4910 -1.4318
  350SOL     OW 1048   2.314   2.298   0.314 -0.8443 -0.4352 -0.3939
  350SOL    HW1 1049   2.226   2.251   0.335  0.5070 -0.8961  1.1706
  350SOL    HW2 1050   2.372   2.302   0.399 -0.8302 -0.0615 -2.8797
  351SOL     OW 1051   0.351   0.329   1.551  0.2602 -0.9024  0.1010
  351SOL    HW1 1052   0.424   0.265   1.518 -1.1535  1.1167  0.3642
  351SOL    HW2 1053   0.282   0.281   1.613 -2.2803  0.9187 -0.2902
  352SOL     OW 1054   1.982   2.456   1.933  0.2282  0.3632 -0.4133
  352SOL    HW1 1055   1.996   2.416   2.024 -1.5054  2.5739 -2.5473
  352SOL    HW2 1056   1.923   2.391   1.880 -0.9531 -0.8521  0.0176
  353SOL     OW 1057   0.795   1.370   2.036  0.3913  0.1773  0.5479
  353SOL    HW1 1058   0.720   1.358   2.106 -0.7510 -2.1970  1.8402
  353SOL    HW2 1059   0.886   1.337   2.072 -0.6599  1.0195 -2.2922
  354SOL     OW 1060   1.290   1.706   0.486 -0.5418  0.6036 -0.5182
  354SOL    HW1 1061   1.309   1.603   0.477  0.8340 -2.4877 -0.6036
  354SOL    HW2 1062   1.286   1.750   0.393  0.5646  1.4428 -1.0125
  355SOL     OW 1063   1.916   0.005   0.909  0.0377  0.6102 -0.3399
  355SOL    HW1 1064   1.939   3.049   0.833  0.0182  3.0026 -1.2069
  355SOL    HW2 1065   1.986   0.080   0.919  0.5675 -1.3298 -0.3974
  356SOL     OW 1066   2.754   1.160   0.066 -0.1369  0.3455  0.4671
  356SOL    HW1 1067   2.781   1.249   0.025 -0.7157 -1.7895  3.0919
  356SOL    HW2 1068   2.820   1.119   0.135 -0.7506 -1.3113 -0.2795
  357SOL     OW 1069   0.060   3.088   2.157 -0.7098 -0.5537 -0.6582
  357SOL    HW1 1070   0.086   0.024   2.248 -0.4741  1.0806  0.9921
  357SOL    HW2 1071   0.022   0.058   2.100  0.7276 -0.0519  0.5919
  358SOL     OW 1072   0.118   1.272   0.446 -0.0713  0.1571 -0.1471
  358SOL    HW1 1073   0.162   1.181   0.444  0.4601  1.0653  0.1149
  358SOL    HW2 1074   0.072   1.289   0.535  1.0556 -1.2674 -0.0794
  359SOL     OW 1075   2.610   2.979   2.738 -0.0544  0.2158  0.5290
  359SOL    HW1 1076   2.629   2.935   2.647  0.8162  0.6759  0.5191
  359SOL    HW2 1077   2.527   3.034   2.743  1.4112 -2.1212  1.3625
  360SOL     OW 1078   1.489   0.832   1.244 -0.2313 -0.0332 -0.4209
  360SOL    HW1 1079   1.580   0.875   1.261  0.3779 -0.7725  0.8038
  360SOL    HW2 1080   1.430   0.895   1.185  0.1261  1.4413  0.3524
  361SOL     OW 1081   2.340   2.341   1.113  0.1861  0.1782 -0.2085
  361SOL    HW1 1082   2.341   2.294   1.208  0.0005  0.9155  1.8921
  361SOL    HW2 1083   2.242   2.363   1.089  2.5916 -0.1589 -2.6511
  362SOL     OW 1084   1.452   0.468   1.182  0.0107 -0.3539  0.0642
  362SOL    HW1 1085   1.498   0.472   1.272  2.6609 -1.1386  1.8631
  362SOL    HW2 1086   1.457   0.379   1.132 -1.1933 -0.0707  0.6720
  363SOL     OW 1087   2.032   2.260   0.359  0.8720  0.0974 -0.6724
  363SOL    HW1 1088   2.000   2.226   0.449 -1.4817 -1.9236  0.3197
  363SOL    HW2 1089   2.003   2.352   0.333  0.3859 -3.2610 -2.3158
  364SOL     OW 1090   0.113   0.463   0.916 -0.2214  0.4278  0.2364
  364SOL    HW1 1091   0.108   0.373   0.970 -2.7239  0.3605 -2.3602
  364SOL    HW2 1092   0.137   0.544   0.971  1.8027 -2.1300 -0.3248
  365SOL     OW 1093   0.328   3.034   0.638 -0.3525 -0.0425 -0.0055
  365SOL    HW1 1094   0.272   3.003   0.717 -1.4973  0.8025 -0.1416
  365SOL    HW2 1095   0.421   3.061   0.668 -2.3380  0.6802 -0.3072
  366SOL     OW 1096   2.977   1.584   0.207 -0.1612  0.2604  0.0523
  366SOL    HW1 1097   3.055   1.512   0.209  1.8877  0.2331  2.8961
  366SOL    HW2 1098   2.982   1.644   0.125 -0.4093  2.9795  0.8325
  367SOL     OW 1099   2.658   2.438   2.512 -0.4297  0.3783  0.1322
  367SOL    HW1 1100   2.608   2.506   2.564  0.0846 -1.5127 -0.5730
  367SOL    HW2 1101   2.683   2.477   2.420  1.8355 -1.7554 -0.3028
  368SOL     OW 1102   2.196   1.712   0.592 -0.3932  0.2409 -0.2868
  368SOL    HW1 1103   2.216   1.615   0.569 -0.5011 -0.4211 -0.5040
  368SOL    HW2 1104   2.280   1.766   0.613 -1.3353  1.0868 -1.6460
  369SOL     OW 1105   1.273   0.539   0.106 -0.1799  0.4922 -0.3481
  369SOL    HW1 1106   1.172   0.556   0.106 -0.2786  0.2924 -0.7218
  369SOL    HW2 1107   1.305   0.477   0.179  0.3255  1.3434 -1.0717
  370SOL     OW 1108   0.603   2.969   1.049  0.7187  0.5804 -0.4930
  370SOL    HW1 1109   0.589   3.062   1.095 -1.3196  3.0028 -2.8495
  370SOL    HW2 1110   0.517   2.909   1.054 -1.0550 -1.5873  1.6211
  371SOL     OW 1111   2.816   1.285   2.764  0.3222  0.8933 -0.0318
  371SOL    HW1 1112   2.866   1.358   2.813 -1.7623  0.5858 -1.2096
  371SOL    HW2 1113   2.731   1.269   2.820  3.3285  1.8762  0.3908
  372SOL     OW 1114   0.509   0.541   2.553  0.1858 -0.1139 -0.2284
  372SOL    HW1 1115   0.443   0.511   2.478 -0.1622 -1.4494  0.7366
  372SOL    HW2 1116   0.458   0.595   2.627  0.6122 -2.9660 -2.3131
  373SOL     OW 1117   0.476   0.369   3.026  0.7167 -0.4316  0.9998
  373SOL    HW1 1118   0.565   0.398   2.981  1.6938 -1.3751 -1.5732
  373SOL    HW2 1119   0.483   0.275   3.054  2.4353  2.6640 -0.8715
  374SOL     OW 1120   1.321   2.014   0.037  0.3489 -0.3727  0.1093
  374SOL    HW1 1121   1.274   2.106   0.038 -0.2799  2.4792  4.2103
  374SOL    HW2 1122   1.271   1.936   3.098 -1.5846 -0.9693  2.1949
  375SOL     OW 1123   0.819   0.075   1.509 -0.4733 -0.4048  0.8882
  375SOL    HW1 1124   0.871   0.057   1.419 -3.1799  0.6046  1.7116
  375SOL    HW2 1125   0.884   0.110   1.581  0.0820 -0.3521  2.3190
  376SOL     OW 1126   0.194   2.617   1.973 -0.0465 -0.0855  0.1156
  376SOL    HW1 1127   0.191   2.521   2.015  0.4297 -2.0998  2.1843
  376SOL    HW2 1128   0.293   2.654   1.978  4.5255  3.7224 -1.0346
  377SOL     OW 1129   2.757   2.407   2.925  0.9908 -0.7545  0.4284
  377SOL    HW1 1130   2.806   2.451   3.003  1.2476  0.8824 -1.8198
  377SOL    HW2 1131   2.711   2.320   2.956 -0.5146  0.2454  1.5362
  378SOL     OW 1132   2.261   0.411   0.634 -0.0657 -0.4454 -0.5539
  378SOL    HW1 1133   2.306   0.458   0.712  0.7153  1.8363 -1.1564
  378SOL    HW2 1134   2.261   0.308   0.645  0.5153 -3.7901  0.4230
  379SOL     OW 1135   1.208   0.579   0.522  0.3492 -0.0408 -0.1655
  379SOL    HW1 1136   1.303   0.578   0.485 -1.6732 -0.6700  1.1877
  379SOL    HW2 1137   1.151   0.650   0.478 -0.1351 -0.7271  1.7399
  380SOL     OW 1138   2.693   2.194   1.806 -0.3883  0.6898  0.7562
  380SOL    HW1 1139   2.790   2.231   1.807  1.0891  0.9908  1.6754
  380SOL    HW2 1140   2.682   2.131   1.721 -1.4067 -2.0965 -0.9951
  381SOL     OW 1141   2.736   1.292   1.914 -0.4569  0.1389 -0.0808
  381SOL    HW1 1142   2.775   1.385   1.919 -0.9860  1.5871  1.0252
  381SOL    HW2 1143   2.750   1.239   2.000 -1.4406  1.6500  0.7214
  382SOL     OW 1144   2.964   2.273   2.751 -0.5560  0.4097  0.4956
  382SOL    HW1 1145   2.876   2.295   2.803  0.3156 -0.5661  0.0921
  382SOL    HW2 1146   2.937   2.234   2.660 -1.1693  0.7296 -0.9837
  383SOL     OW 1147   1.259   0.779   2.371 -0.1426 -0.3365  0.5979
  383SOL    HW1 1148   1.164   0.807   2.341 -1.0858  1.1779  2.6072
  383SOL    HW2 1149   1.309   0.859   2.401  0.9567  0.3481 -0.1196
  384SOL     OW 1150   1.634   1.898   2.403  0.3165  0.4993 -0.2556
  384SOL    HW1 1151   1.704   1.849   2.457 -0.2921  2.3371 -0.9318
  384SOL    HW2 1152   1.640   1.996   2.437 -0.5661  0.5532 -1.0566
  385SOL     OW 1153   2.593   2.720   0.278 -0.1286 -0.7274 -0.3567
  385SOL    HW1 1154   2.626   2.635   0.233  0.0881  5.2600 -0.0291
  385SOL    HW2 1155   2.649   2.758   0.356  0.2105  0.9950  2.2075
  386SOL     OW 1156   1.729   1.160   0.628 -0.1013  0.6144  0.6044
  386SOL    HW1 1157   1.732   1.080   0.692 -1.5306  2.3045  0.2792
  386SOL    HW2 1158   1.822   1.178   0.602 -2.1723 -1.2134 -0.7499
  387SOL     OW 1159   2.964   1.917   1.260  0.3112  0.1454  0.0680
  387SOL    HW1 1160   3.023   1.922   1.344 -0.0300  0.4927  0.3551
  387SOL    HW2 1161   2.900   1.836   1.265  0.7081  0.4468 -1.8054
  388SOL     OW 1162   0.545   1.275   1.540 -0.4243 -0.0636  0.1866
  388SOL    HW1 1163   0.584   1.312   1.624  0.3585  1.6674 -0.8349
  388SOL    HW2 1164   0.598   1.191   1.510 -0.6372  1.4224 -1.0831
  389SOL     OW 1165   2.300   0.842   2.548  0.5737 -0.2245 -0.0392
  389SOL    HW1 1166   2.312   0.862   2.649 -0.7759 -4.0252 -0.0696
  389SOL    HW2 1167   2.222   0.894   2.507  0.1247 -1.2418 -2.9183
  390SOL     OW 1168   0.971   1.644   3.017 -0.5089 -0.0424 -0.5696
  390SOL    HW1 1169   1.067   1.653   2.981 -2.1777 -2.1849  2.4725
  390SOL    HW2 1170   0.923   1.557   2.987 -1.0651  2.7134  0.4103
  391SOL     OW 1171   1.264   1.904   0.281 -0.1909  0.5511 -0.1033
  391SOL    HW1 1172   1.365   1.899   0.302 -1.3793  1.1278 -0.4445
  391SOL    HW2 1173   1.242   1.940   0.187 -1.6163 -1.9617 -0.2953
  392SOL     OW 1174   2.682   2.837   2.208 -0.2203 -0.5343 -0.1582
  392SOL    HW1 1175   2.678   2.875   2.110 -0.3225  1.7725 -2.1826
  392SOL    HW2 1176   2.696   2.734   2.208  1.9098 -0.1691 -0.9587
  393SOL     OW 1177   1.485   2.197   0.276  0.1814  0.2356 -0.6968
  393SOL    HW1 1178   1.525   2.286   0.244  0.2450  1.2607 -0.9486
  393SOL    HW2 1179   1.400   2.207   0.333 -2.0875 -1.9353 -2.1431
  394SOL     OW 1180   0.735   0.254   2.212 -0.1957  0.3654  0.2839
  394SOL    HW1 1181   0.819   0.236   2.270  2.1460  4.1060 -1.7341
  394SOL    HW2 1182   0.746   0.346   2.173  2.2621 -2.7894  0.3118
  395SOL     OW 1183   0.384   2.004   1.469  0.1706  0.1430  0.2762
  395SOL    HW1 1184   0.344   1.952   1.548 -0.7550 -0.6066  2.3067
  395SOL    HW2 1185   0.316   2.066   1.433 -1.2819 -0.6067 -1.5962
  396SOL     OW 1186   2.169   1.275   2.871  0.0907 -0.1967 -0.3892
  396SOL    HW1 1187   2.125   1.186   2.855 -0.5410  0.0901 -0.5788
  396SOL    HW2 1188   2.106   1.351   2.851  2.1609  0.6548 -1.7931
  397SOL     OW 1189   0.130   0.342   0.189 -0.2634 -0.5273  0.2840
  397SOL    HW1 1190   0.197   0.411   0.158 -0.7361 -0.0909  1.5984
  397SOL    HW2 1191   0.081   0.373   0.275  1.3531  0.1197  0.8327
  398SOL     OW 1192   0.892   2.516   0.388  0.0310  0.0044 -0.8341
  398SOL    HW1 1193   0.948   2.492   0.309 -2.0992 -0.4736  0.9519
  398SOL    HW2 1194   0.830   2.595   0.372 -1.4883 -0.0323 -0.5697
  399SOL     OW 1195   1.929   2.495   2.654  0.0165  0.1375 -0.1942
  399SOL    HW1 1196   1.900   2.504   2.753 -0.4579 -0.8875  1.7934
  399SOL    HW2 1197   2.012   2.442   2.638  0.2960 -0.8397 -1.4676
  400SOL     OW 1198   0.152   1.529   1.486  0.8887  0.5040 -0.2393
  400SOL    HW1 1199   0.054   1.516   1.490  0.1825  1.4890  0.0264
  400SOL    HW2 1200   0.182   1.612   1.432 -0.0195 -1.8116  1.5579
  401SOL     OW 1201   0.959   0.665   0.894  0.0159  0.3134 -0.3892
  401SOL    HW1 1202   0.948   0.647   0.796  0.4823  1.7684  1.6220
  401SOL    HW2 1203   0.878   0.710   0.928  2.2822 -1.6060 -3.4943
  402SOL     OW 1204   0.737   3.070   2.534  0.3849 -0.0921 -0.1143
  402SOL    HW1 1205   0.828   3.098   2.569  1.2449  0.6986 -2.4358
  402SOL    HW2 1206   0.662   3.084   2.601 -0.0105  0.0133  0.7755
  403SOL     OW 1207   2.795   1.552   1.913  0.4895  0.2562 -0.2152
  403SOL    HW1 1208   2.746   1.642   1.908  0.8339 -0.3621  0.5645
  403SOL    HW2 1209   2.894   1.570   1.928 -1.5610  2.0827  3.1178
  404SOL     OW 1210   2.724   2.164   1.415 -0.4112 -0.0183  0.0136
  404SOL    HW1 1211   2.739   2.255   1.454  1.6066 -1.9658  0.5015
  404SOL    HW2 1212   2.716   2.161   1.313  0.4183  0.6533 -0.0519
  405SOL     OW 1213   2.094   0.201   2.705  0.0692 -0.7241 -0.3929
  405SOL    HW1 1214   2.047   0.201   2.618  0.2195  1.6147  2.1916
  405SOL    HW2 1215   2.161   0.279   2.712  1.9630  1.0743 -0.7629
  406SOL     OW 1216   1.205   1.694   2.898 -0.1713 -0.2182 -0.3727
  406SOL    HW1 1217   1.266   1.666   2.979 -0.1228 -2.0851  1.4635
  406SOL    HW2 1218   1.211   1.638   2.815 -1.2802  1.4372 -0.2092
  407SOL     OW 1219   1.967   1.872   0.852  0.1775 -0.3738 -0.0684
  407SOL    HW1 1220   1.875   1.846   0.830 -0.9503 -0.5978  3.3392
  407SOL    HW2 1221   1.992   1.952   0.795  0.4007  0.5892 -2.0053
  408SOL     OW 1222   3.094   0.393   1.196 -0.4317  0.0941  0.2942
  408SOL    HW1 1223   0.073   0.450   1.171  3.6793 -1.1798  0.3404
  408SOL    HW2 1224   0.001   0.289   1.189  0.6605 -0.8874  1.9410
  409SOL     OW 1225   1.935   1.360   0.433 -0.5371  0.1358  0.1625
  409SOL    HW1 1226   1.933   1.462   0.420  0.4536  5.8719 -0.4360
  409SOL    HW2 1227   1.989   1.336   0.516 -0.9206 -2.9399 -1.5962
  410SOL     OW 1228   2.410   2.254   0.568 -0.1145 -0.2369  0.0646
  410SOL    HW1 1229   2.353   2.288   0.644  2.3579  1.4918 -1.8421
  410SOL    HW2 1230   2.404   2.153   0.558 -3.1453 -1.0388 -1.7441
  411SOL     OW 1231   0.313   0.067   0.416  0.4882 -0.2944 -0.4719
  411SOL    HW1 1232   0.251   0.051   0.336  0.3614 -1.7240 -0.8093
  411SOL    HW2 1233   0.304   3.098   0.489  0.9645 -4.3460  0.0706
  412SOL     OW 1234   1.574   2.903   0.642  0.7061 -0.4119 -0.0913
  412SOL    HW1 1235   1.538   2.988   0.685  0.8035 -0.3332 -3.7540
  412SOL    HW2 1236   1.648   2.932   0.575  1.7802  0.2828 -0.6717
  413SOL     OW 1237   1.646   0.103   2.431  0.2201  0.5482  0.0483
  413SOL    HW1 1238   1.551   0.099   2.395 -1.0764  0.6808  0.0541
  413SOL    HW2 1239   1.707   0.036   2.390 -0.5212  2.3293  0.2482
  414SOL     OW 1240   3.081   0.755   0.578  0.1203  0.5544 -0.2756
  414SOL    HW1 1241   3.061   0.778   0.481  1.6792 -1.5950  0.4507
  414SOL    HW2 1242   0.064   0.790   0.617 -0.2287 -0.1769 -0.7035
  415SOL     OW 1243   3.020   1.455   1.177 -0.4072  0.2951  0.3466
  415SOL    HW1 1244   3.049   1.370   1.132 -0.1485 -0.0298 -0.5723
  415SOL    HW2 1245   3.082   1.532   1.151 -0.1759 -0.3615  1.8980
  416SOL     OW 1246   0.310   0.955   2.895 -0.6942 -0.1904 -0.3123
  416SOL    HW1 1247   0.310   0.895   2.977 -0.5364  2.0222  2.0130
  416SOL    HW2 1248   0.277   0.913   2.807 -1.0902  0.4346 -0.2703
  417SOL     OW 1249   2.454   0.301   0.956  0.1068 -0.6946  0.9266
  417SOL    HW1 1250   2.542   0.290   1.003 -2.1939 -0.3454 -0.4319
  417SOL    HW2 1251   2.463   0.372   0.879 -0.5122  2.2576  2.3341
  418SOL     OW 1252   0.616   3.055   2.842 -0.4620  0.0167 -0.0868
  418SOL    HW1 1253   0.592   3.096   2.929  0.6783 -0.3890 -3.2346
  418SOL    HW2 1254   0.555   2.975   2.817 -0.1145 -0.0717 -2.9331
  419SOL     OW 1255   0.230   1.204   0.811  0.6374 -0.0257 -0.8395
  419SOL    HW1 1256   0.139   1.233   0.770 -0.2774 -1.4520 -1.7340
  419SOL    HW2 1257   0.220   1.120   0.869 -0.6118  0.7206 -0.8542
  420SOL     OW 1258   2.764   1.732   1.296  0.4189 -0.5787 -0.1631
  420SOL    HW1 1259   2.797   1.726   1.394 -0.1502  0.5977  0.0010
  420SOL    HW2 1260   2.682   1.791   1.291  2.1787 -3.4167 -0.4236
  421SOL     OW 1261   1.134   1.943   2.819  0.0189  0.9951 -0.7092
  421SOL    HW1 1262   1.200   1.969   2.748 -0.2422 -1.8862  1.2910
  421SOL    HW2 1263   1.154   1.848   2.853 -0.5592 -2.3324  1.2527
  422SOL     OW 1264   2.525   0.619   2.901  0.1317  0.2792 -0.1160
  422SOL    HW1 1265   2.450   0.685   2.865 -1.3872  2.2437  1.8956
  422SOL    HW2 1266   2.533   0.536   2.838  1.4616  0.7036 -0.8427
  423SOL     OW 1267   1.741   1.450   0.156  0.2721  0.3242  0.0078
  423SOL    HW1 1268   1.800   1.372   0.194  1.6631 -2.8306 -0.1211
  423SOL    HW2 1269   1.675   1.414   0.084 -2.9075  0.3080 -3.4035
  424SOL     OW 1270   0.807   0.844   1.927  0.5372  0.1416  0.3306
  424SOL    HW1 1271   0.732   0.862   1.997 -1.7560  2.0490 -2.8405
  424SOL    HW2 1272   0.898   0.853   1.969 -2.8739 -1.5090 -0.0934
  425SOL     OW 1273   3.059   2.695   2.026 -0.4846 -0.3462 -0.5590
  425SOL    HW1 1274   0.048   2.660   1.984  0.2058 -1.4159 -4.4138
  425SOL    HW2 1275   3.068   2.712   2.125  0.5009 -0.6021 -1.9126
  426SOL     OW 1276   1.990   2.571   0.296  0.7885 -0.1182 -0.8946
  426SOL    HW1 1277   2.071   2.615   0.338  1.2024  0.8308 -1.1620
  426SOL    HW2 1278   1.906   2.593   0.355 -2.2689 -0.5754  2.5163
  427SOL     OW 1279   0.638   0.698   3.017  0.6993 -0.0371 -0.0411
  427SOL    HW1 1280   0.737   0.688   3.000 -3.9955  0.8967 -1.9972
  427SOL    HW2 1281   0.622   0.777   3.077  1.5463  0.3982  1.9805
  428SOL     OW 1282   2.590   1.233   2.912  0.0380 -0.5034  1.0699
  428SOL    HW1 1283   2.557   1.162   2.976 -0.9970  1.6600 -1.0543
  428SOL    HW2 1284   2.505   1.286   2.881 -1.0118 -0.0373  3.0036
  429SOL     OW 1285   2.588   0.293   0.387 -0.2143  0.7514 -0.7760
  429SOL    HW1 1286   2.532   0.369   0.421 -0.0945  0.4091  0.0002
  429SOL    HW2 1287   2.631   0.314   0.297  2.1272  1.4511 -0.4191
  430SOL     OW 1288   1.388   2.518   2.276 -0.0832  0.6208 -0.3824
  430SOL    HW1 1289   1.341   2.514   2.370  0.8094  1.3294  1.2719
  430SOL    HW2 1290   1.332   2.478   2.202  0.1665 -2.0726  0.3848
  431SOL     OW 1291   0.026   1.871   1.483 -0.0064  0.0845 -0.2245
  431SOL    HW1 1292   0.056   1.930   1.559 -0.0876 -1.8576  0.0510
  431SOL    HW2 1293   0.112   1.830   1.446 -0.9264  1.1264  0.7866
  432SOL     OW 1294   2.348   2.763   1.977  0.3657  0.3659  0.4536
  432SOL    HW1 1295   2.250   2.781   1.958 -1.4187 -0.4932  2.1332
  432SOL    HW2 1296   2.385   2.682   1.928  0.8143  1.3711 -0.4636
  433SOL     OW 1297   1.294   2.116   0.454  0.5726  0.1580 -0.3133
  433SOL    HW1 1298   1.209   2.151   0.502  1.0902 -0.5389  1.3104
  433SOL    HW2 1299   1.278   2.044   0.381  0.8116  2.3814 -0.3741
  434SOL     OW 1300   0.156   1.984   2.670  0.0866  0.3587  0.0501
  434SOL    HW1 1301   0.178   1.882   2.677 -0.3892 -0.4296 -1.9916
  434SOL    HW2 1302   0.127   2.027   2.759 -0.9929 -0.7915 -0.0657
  435SOL     OW 1303   3.089   1.241   0.701  0.3747  1.1344  0.1496
  435SOL    HW1 1304   3.032   1.326   0.724 -0.4735  3.0270 -0.9063
  435SOL    HW2 1305   3.041   1.155   0.726  0.8918 -0.8418 -0.7130
  436SOL     OW 1306   0.828   2.850   1.534  0.2359  0.0870  0.3407
  436SOL    HW1 1307   0.765   2.811   1.458 -3.5754 -1.3457  0.3081
  436SOL    HW2 1308   0.775   2.898   1.603  2.0210 -2.2908 -2.5777
  437SOL     OW 1309   0.830   2.873   0.714 -0.1170  0.3181  0.1985
  437SOL    HW1 1310   0.837   2.932   0.799 -3.2046 -0.6835 -0.5480
  437SOL    HW2 1311   0.924   2.864   0.669  1.7151  0.7432 -1.3121
  438SOL     OW 1312   0.077   2.125   0.713  0.4398  0.2990 -0.0486
  438SOL    HW1 1313   0.093   2.027   0.695 -0.0328 -0.9714 -1.7262
  438SOL    HW2 1314   0.055   2.152   0.809 -0.2238  2.2560  0.1546
  439SOL     OW 1315   0.876   2.498   1.812 -0.1465 -0.0242  0.3765
  439SOL    HW1 1316   0.932   2.576   1.772  1.2302  0.8152 -0.3238
  439SOL    HW2 1317   0.934   2.436   1.870  1.3450  1.4707 -0.2273
  440SOL     OW 1318   2.196   2.998   2.237 -0.1557 -0.0395 -0.9774
  440SOL    HW1 1319   2.134   3.071   2.208  1.6909  0.3809  0.2146
  440SOL    HW2 1320   2.165   2.912   2.192 -1.0923 -1.3029 -0.7854
  441SOL     OW 1321   0.119   0.591   1.607 -0.3524 -0.3057 -0.6093
  441SOL    HW1 1322   0.148   0.645   1.691  0.9045  1.3513  2.1454
  441SOL    HW2 1323   0.189   0.591   1.535 -0.9713 -1.1517 -1.3342
  442SOL     OW 1324   1.872   2.301   0.594  0.2265  0.6332 -0.4314
  442SOL    HW1 1325   1.771   2.308   0.581 -1.8406 -0.7964  1.0565
  442SOL    HW2 1326   1.912   2.381   0.645  0.3837 -0.8251  0.7483
  443SOL     OW 1327   2.878   0.674   2.548  0.1540  0.3075  0.7023
  443SOL    HW1 1328   2.970   0.663   2.589 -0.9534  1.0705  0.5712
  443SOL    HW2 1329   2.809   0.707   2.616  2.1957  1.8290  2.9639
  444SOL     OW 1330   1.607   1.038   1.994  0.2824 -0.3592  0.5063
  444SOL    HW1 1331   1.558   1.018   1.905 -0.4526 -1.0372 -0.1263
  444SOL    HW2 1332   1.633   1.136   2.007  2.1952 -0.7969  1.6466
  445SOL     OW 1333   2.977   2.612   1.480  0.4928  0.3351 -0.4619
  445SOL    HW1 1334   3.042   2.582   1.554 -1.1640 -2.4397 -0.4315
  445SOL    HW2 1335   3.017   2.691   1.427  1.1649  0.2727 -3.3006
  446SOL     OW 1336   2.748   1.494   1.147 -0.0095  0.2400 -0.5742
  446SOL    HW1 1337   2.753   1.587   1.195 -2.8301 -1.9057  0.7154
  446SOL    HW2 1338   2.839   1.452   1.169 -0.2221 -1.4013 -0.9985
  447SOL     OW 1339   0.482   1.174   0.748 -0.4043 -0.4326 -0.2120
  447SOL    HW1 1340   0.383   1.168   0.763  1.5596 -0.1027 -2.2978
  447SOL    HW2 1341   0.522   1.137   0.662 -0.6274  1.6671  3.5881
  448SOL     OW 1342   1.476   1.638   1.973 -0.3196  0.0533 -0.2766
  448SOL    HW1 1343   1.399   1.701   1.946 -1.1698 -2.2391 -0.8487
  448SOL    HW2 1344   1.435   1.548   2.007  1.2821  1.6427  2.8143
  449SOL     OW 1345   1.358   1.438   0.475  0.2617  0.0576  0.2168
  449SOL    HW1 1346   1.439   1.410   0.532  0.7849  0.5990 -2.0247
  449SOL    HW2 1347   1.296   1.359   0.465 -0.9698 -0.5836  0.5208
  450SOL     OW 1348   2.702   2.896   1.931  0.8486  0.0334 -0.1597
  450SOL    HW1 1349   2.661   2.808   1.899 -2.0232 -1.7595 -0.8008
  450SOL    HW2 1350   2.803   2.901   1.909 -0.0625 -0.8568  3.2230
  451SOL     OW 1351   2.259   0.416   2.721  0.4213 -0.0367 -0.4213
  451SOL    HW1 1352   2.233   0.464   2.634 -1.4431 -1.9910 -2.1300
  451SOL    HW2 1353   2.358   0.398   2.728  0.1741  2.9859  1.1812
  452SOL     OW 1354   1.858   0.379   0.833  0.3618  0.2433 -0.2034
  452SOL    HW1 1355   1.794   0.436   0.776 -2.0025  0.4243 -0.3958
  452SOL    HW2 1356   1.908   0.435   0.900  1.1672  0.8156  2.2126
  453SOL     OW 1357   1.874   0.744   1.746  0.0282  0.0972 -0.0023
  453SOL    HW1 1358   1.890   0.722   1.844  4.5241 -0.7954  3.2102
  453SOL    HW2 1359   1.960   0.751   1.691 -1.3206  1.2338  0.1169
  454SOL     OW 1360   2.812   1.500   0.427 -0.2047  0.0690  0.2025
  454SOL    HW1 1361   2.869   1.528   0.349 -2.1905 -1.7800 -0.2619
  454SOL    HW2 1362   2.826   1.567   0.503  1.4199 -0.3040 -0.6065
  455SOL     OW 1363   2.947   0.034   0.628 -0.2965 -0.4141  0.8101
  455SOL    HW1 1364   3.000   0.122   0.642 -1.5289  0.3602 -1.6510
  455SOL    HW2 1365   2.852   0.069   0.630  0.4552 -0.4006 -1.5719
  456SOL     OW 1366   0.195   2.932   1.194 -0.5638 -0.0127 -0.1233
  456SOL    HW1 1367   0.265   2.923   1.128 -1.5301 -1.6776  1.0074
  456SOL    HW2 1368   0.221   2.871   1.274 -2.0780  2.8751  2.7425
  457SOL     OW 1369   1.376   0.098   0.430  0.3051 -0.4772 -0.4494
  457SOL    HW1 1370   1.401   0.196   0.443 -1.8254 -1.1127  0.4087
  457SOL    HW2 1371   1.432   0.049   0.367  1.0094  1.7871  1.7527
  458SOL     OW 1372   2.327   2.940   0.815 -0.4380 -0.0173 -0.4829
  458SOL    HW1 1373   2.275   2.969   0.898  0.5066 -0.9841 -1.8271
  458SOL    HW2 1374   2.430   2.946   0.826 -1.7292  0.2375  0.3001
  459SOL     OW 1375   2.180   0.503   2.952  0.0810 -0.1162 -0.2929
  459SOL    HW1 1376   2.212   0.449   2.877  2.8549  1.4499  0.0320
  459SOL    HW2 1377   2.262   0.524   3.013  1.7040  0.3129  2.7576
  460SOL     OW 1378   2.759   2.774   2.992 -0.8773 -0.0065  0.2493
  460SOL    HW1 1379   2.669   2.748   2.961 -0.4234  2.1441 -0.6322
  460SOL    HW2 1380   2.825   2.783   2.917 -0.2654 -4.0930  1.5740
  461SOL     OW 1381   0.915   1.823   0.318 -0.2868  0.1718  0.1737
  461SOL    HW1 1382   0.993   1.835   0.382  0.0892 -2.4040 -1.2722
  461SOL    HW2 1383   0.827   1.828   0.366 -1.7289 -1.7273 -0.1603
  462SOL     OW 1384   2.227   2.221   0.809  0.0045 -0.1856  0.7234
  462SOL    HW1 1385   2.312   2.171   0.835 -0.4310 -1.6920  0.6674
  462SOL    HW2 1386   2.233   2.317   0.820 -0.8502 -1.8822 -0.6973
  463SOL     OW 1387   2.357   0.947   0.664 -0.1342 -0.5945  0.1049
  463SOL    HW1 1388   2.348   0.977   0.761 -1.2979 -0.1502 -2.3497
  463SOL    HW2 1389   2.442   0.893   0.650  0.8580 -3.3392  1.6313
  464SOL     OW 1390   0.530   0.079   1.191  0.4827 -0.2190  0.1823
  464SOL    HW1 1391   0.466   0.051   1.267  0.4029 -1.7074 -0.6920
  464SOL    HW2 1392   0.610   0.143   1.217  0.2046  0.6959  0.5874
  465SOL     OW 1393   2.527   1.434   0.104  0.2471  0.4119 -0.8470
  465SOL    HW1 1394   2.463   1.369   0.150  2.9673  2.8499  2.8020
  465SOL    HW2 1395   2.595   1.385   0.044  0.7646  2.6411 -1.6068
  466SOL     OW 1396   1.756   0.234   2.866 -0.5947 -0.2186  0.1812
  466SOL    HW1 1397   1.832   0.192   2.923 -2.1050  3.0356  0.7633
  466SOL    HW2 1398   1.774   0.337   2.867  1.4532  3.8509  0.9271
  467SOL     OW 1399   1.114   0.458   1.492  0.0996 -0.5628 -0.0618
  467SOL    HW1 1400   1.146   0.362   1.489  1.3432 -0.6318  1.0596
  467SOL    HW2 1401   1.134   0.508   1.406 -0.1097 -2.0049  1.5236
  468SOL     OW 1402   0.553   1.050   2.812  0.3458  0.3336  0.4345
  468SOL    HW1 1403   0.455   1.020   2.822 -2.0238 -0.8298  0.4086
  468SOL    HW2 1404   0.558   1.150   2.813  0.0342 -0.4537  0.9737
  469SOL     OW 1405   0.395   2.153   0.249 -0.3997  0.7489  0.1622
  469SOL    HW1 1406   0.312   2.209   0.244  1.4719 -2.2765  0.2910
  469SOL    HW2 1407   0.473   2.213   0.258  0.5505 -1.9140 -1.1583
  470SOL     OW 1408   2.338   1.541   2.490 -0.3932 -0.3075  0.1051
  470SOL    HW1 1409   2.401   1.593   2.550  2.1353 -0.1711 -1.9715
  470SOL    HW2 1410   2.383   1.518   2.404 -0.5457 -2.6668  0.2275
  471SOL     OW 1411   2.771   1.154   2.149  0.4030 -0.5253  0.0057
  471SOL    HW1 1412   2.685   1.120   2.187  1.4658  2.7089  0.3497
  471SOL    HW2 1413   2.810   1.229   2.202 -1.4115 -2.5996 -3.4987
  472SOL     OW 1414   0.410   2.687   0.515 -0.4580 -0.2189  0.4287
  472SOL    HW1 1415   0.355   2.656   0.432 -1.8674  0.6110  0.1482
  472SOL    HW2 1416   0.355   2.730   0.586 -0.9562 -1.6713 -0.4654
  473SOL     OW 1417   0.586   0.125   0.004 -0.5824 -0.0104 -0.2076
  473SOL    HW1 1418   0.676   0.165   0.033 -1.0467  1.1165  1.5563
  473SOL    HW2 1419   0.577   0.034   0.042  0.3392 -0.4118  0.7801
  474SOL     OW 1420   1.820   3.044   2.257  0.5728 -0.3905 -0.1880
  474SOL    HW1 1421   1.804   2.956   2.214 -0.7791  0.4401  0.9717
  474SOL    HW2 1422   1.837   0.016   2.193 -2.1635 -2.4140 -2.0867
  475SOL     OW 1423   1.592   2.409   0.506 -0.2066 -0.1568  0.2441
  475SOL    HW1 1424   1.567   2.317   0.541 -0.2708 -2.0832 -0.4974
  475SOL    HW2 1425   1.593   2.402   0.404  0.7707  0.2488  0.4400
  476SOL     OW 1426   0.171   0.963   0.948 -0.4176 -0.0783 -0.0851
  476SOL    HW1 1427   0.067   0.956   0.948 -1.1154  0.0886  1.0072
  476SOL    HW2 1428   0.218   0.906   1.021  2.0383 -3.1542 -0.2454
  477SOL     OW 1429   1.583   2.402   1.219 -0.4243  0.0450  0.2407
  477SOL    HW1 1430   1.535   2.311   1.206 -2.0360 -1.0166 -2.3619
  477SOL    HW2 1431   1.683   2.382   1.225  1.7410 -1.3059 -0.8272
  478SOL     OW 1432   0.505   1.917   2.424 -0.1844  0.0873 -0.1752
  478SOL    HW1 1433   0.585   1.901   2.482  0.1226  0.2656  1.1219
  478SOL    HW2 1434   0.480   2.013   2.409 -1.1946 -1.2401  3.1035
  479SOL     OW 1435   2.396   0.550   1.128 -0.5862 -0.4617  0.3890
  479SOL    HW1 1436   2.392   0.538   1.026  2.2335 -0.5208 -1.6008
  479SOL    HW2 1437   2.469   0.484   1.158 -0.8755 -3.2021  1.8707
  480SOL     OW 1438   3.049   2.736   0.355  0.2104  0.1381  0.4282
  480SOL    HW1 1439   3.066   2.829   0.387  0.6078 -3.9253 -0.3694
  480SOL    HW2 1440   3.077   2.727   0.257 -0.3063 -0.0952 -0.9338
  481SOL     OW 1441   2.660   2.581   1.200 -0.6400  0.0268 -0.2174
  481SOL    HW1 1442   2.609   2.560   1.287  0.7388  0.0070  3.7012
  481SOL    HW2 1443   2.720   2.665   1.220  0.7869  1.6064 -1.4996
  482SOL     OW 1444   1.407   2.268   2.899  0.4647  0.4754 -0.0198
  482SOL    HW1 1445   1.353   2.184   2.918 -0.5503 -1.7106  1.6956
  482SOL    HW2 1446   1.508   2.251   2.915  2.5034 -0.0609  1.3948
  483SOL     OW 1447   0.451   2.022   2.780  0.6407  0.4913 -0.1175
  483SOL    HW1 1448   0.458   2.072   2.869 -0.0084  1.0558  2.6722
  483SOL    HW2 1449   0.367   1.961   2.785 -2.2241  0.4917 -0.4115
  484SOL     OW 1450   0.957   1.025   1.462  0.5357 -0.0485  0.2066
  484SOL    HW1 1451   0.988   0.942   1.509 -0.1450  0.3685 -2.2328
  484SOL    HW2 1452   1.022   1.058   1.387  0.5961 -0.3540  1.9566
  485SOL     OW 1453   2.421   0.502   0.438 -0.1915  0.6974  0.1459
  485SOL    HW1 1454   2.385   0.468   0.527  0.5466  0.3431  0.4475
  485SOL    HW2 1455   2.358   0.574   0.406 -2.3043  2.6573  1.4862
  486SOL     OW 1456   1.934   3.099   1.204 -0.4324  0.6577 -0.2065
  486SOL    HW1 1457   1.832   0.001   1.208  0.7539 -0.7681 -0.2858
  486SOL    HW2 1458   1.974   3.098   1.111  0.0171 -2.2232 -0.0246
  487SOL     OW 1459   0.449   2.305   1.111 -0.1730  0.0074  0.1540
  487SOL    HW1 1460   0.442   2.372   1.037  2.0224 -1.9028  0.0950
  487SOL    HW2 1461   0.502   2.333   1.193 -1.3824  1.6204 -0.3974
  488SOL     OW 1462   2.345   1.222   0.597  0.4650  0.1998  0.2130
  488SOL    HW1 1463   2.410   1.196   0.521 -0.9307 -0.5486  0.4042
  488SOL    HW2 1464   2.314   1.139   0.643 -1.1970  0.5964  0.0064
  489SOL     OW 1465   1.706   0.158   0.859  0.0363 -0.3024 -0.1718
  489SOL    HW1 1466   1.768   0.240   0.850  1.9711  0.1335  1.2307
  489SOL    HW2 1467   1.760   0.080   0.898  0.3283  1.0948 -0.6574
  490SOL     OW 1468   1.062   0.355   0.629  0.1147 -0.1228  0.0724
  490SOL    HW1 1469   0.992   0.421   0.669 -0.1255 -0.4521  0.5497
  490SOL    HW2 1470   1.133   0.410   0.578 -3.9910  0.2936  1.9672
  491SOL     OW 1471   0.452   2.384   0.548  0.5661 -0.3437 -0.7482
  491SOL    HW1 1472   0.511   2.325   0.491 -0.3299  0.0867 -0.6077
  491SOL    HW2 1473   0.468   2.485   0.542  1.1688  1.0617 -1.1039
  492SOL     OW 1474   0.968   1.356   2.397 -1.1439  0.3622  0.5185
  492SOL    HW1 1475   1.008   1.312   2.480  2.5308  0.7289 -1.3571
  492SOL    HW2 1476   0.960   1.457   2.413  0.2474 -2.3808  1.2669
  493SOL     OW 1477   0.139   2.496   0.930  0.4895 -0.3018  0.1610
  493SOL    HW1 1478   0.078   2.413   0.947 -2.1883  0.1866 -1.8225
  493SOL    HW2 1479   0.144   2.544   1.018 -0.6707 -0.6094  0.0280
  494SOL     OW 1480   2.594   2.179   2.976  0.2241 -0.6765 -0.4815
  494SOL    HW1 1481   2.541   2.102   2.931 -2.9348 -1.8519 -2.2268
  494SOL    HW2 1482   2.543   2.191   3.061 -0.0055 -3.8893  0.7266
  495SOL     OW 1483   2.581   1.862   2.663 -0.6739 -0.0019 -0.0115
  495SOL    HW1 1484   2.523   1.898   2.736  0.3422 -3.8330 -1.4227
  495SOL    HW2 1485   2.577   1.761   2.659 -1.1893 -1.0651 -0.0499
  496SOL     OW 1486   2.745   0.419   1.554  0.5010 -0.0753 -0.2970
  496SOL    HW1 1487   2.837   0.449   1.584  0.4827  1.0472  0.6219
  496SOL    HW2 1488   2.749   0.361   1.471 -1.6497 -1.2109 -0.0176
  497SOL     OW 1489   2.507   0.874   0.240 -0.1229 -0.0837 -0.2815
  497SOL    HW1 1490   2.553   0.887   0.148 -0.0003  0.4574  2.1251
  497SOL    HW2 1491   2.563   0.824   0.305 -0.9032  1.8988  1.4234
  498SOL     OW 1492   0.398   2.143   2.360 -0.0953 -0.5785 -0.3666
  498SOL    HW1 1493   0.396   2.218   2.293  3.5431 -1.5283 -1.0649
  498SOL    HW2 1494   0.311   2.132   2.411  1.1285  2.0166 -0.0239
  499SOL     OW 1495   1.032   2.381   0.172 -0.0014  0.5599  0.0880
  499SOL    HW1 1496   0.965   2.325   0.228 -2.2897 -0.6336  1.6935
  499SOL    HW2 1497   1.083   2.317   0.108 -1.5174  0.9209 -0.0504
  500SOL     OW 1498   1.255   2.900   0.016  0.2292 -0.3451 -0.1655
  500SOL    HW1 1499   1.196   2.982   3.103  0.9686 -1.9570 -0.8598
  500SOL    HW2 1500   1.273   2.889   0.117  1.2261  2.1792  2.0332
  501SOL     OW 1501   1.659   0.175   1.879  0.1764 -0.0284 -0.0335
  501SOL    HW1 1502   1.688   0.143   1.786 -2.3051  2.0093  0.3903
  501SOL    HW2 1503   1.623   0.269   1.867  0.8724 -3.4188  1.3887
  502SOL     OW 1504   2.879   0.688   2.292 -0.1840  0.0385  0.0587
  502SOL    HW1 1505   2.886   0.666   2.391  0.9208 -1.4512  2.7578
  502SOL    HW2 1506   2.819   0.623   2.247  1.6892 -0.3859 -1.2263
  503SOL     OW 1507   2.400   2.120   2.284 -0.1941 -0.2459  0.2666
  503SOL    HW1 1508   2.404   2.204   2.226 -0.5092  0.0257 -1.1646
  503SOL    HW2 1509   2.309   2.118   2.332 -0.0401  0.5333 -0.8384
  504SOL     OW 1510   1.537   0.406   1.463  0.2307  0.5327  0.2375
  504SOL    HW1 1511   1.607   0.467   1.507  0.2747  1.9294 -0.0950
  504SOL    HW2 1512   1.491   0.356   1.537  1.8359  0.6565 -1.6697
  505SOL     OW 1513   1.075   0.875   1.696 -0.2545  0.0549  0.4243
  505SOL    HW1 1514   1.139   0.794   1.687 -0.8869  0.9755 -2.6558
  505SOL    HW2 1515   1.054   0.890   1.792  3.8622 -0.0792 -1.2399
  506SOL     OW 1516   0.388   0.950   2.532  0.0739 -0.5038 -0.1154
  506SOL    HW1 1517   0.304   0.921   2.589  0.9384  1.0228 -0.9210
  506SOL    HW2 1518   0.471   0.907   2.566  0.3852  0.8776 -1.0649
  507SOL     OW 1519   0.297   2.874   3.020  0.5851 -0.0243  0.1723
  507SOL    HW1 1520   0.357   2.853   2.942  1.7475  2.9778  0.2673
  507SOL    HW2 1521   0.252   2.964   3.018  1.7015 -1.4992  0.4539
  508SOL     OW 1522   1.510   0.793   1.514  0.3091  0.1355  0.3369
  508SOL    HW1 1523   1.588   0.726   1.507  0.2986 -1.2729 -0.5505
  508SOL    HW2 1524   1.476   0.824   1.424 -0.7305  0.2789 -0.4240
  509SOL     OW 1525   1.032   1.897   1.659  0.2520 -0.2396  0.0381
  509SOL    HW1 1526   1.090   1.953   1.719 -0.9656 -2.2459 -0.3483
  509SOL    HW2 1527   1.067   1.892   1.563 -1.8814  0.6044 -2.0815
  510SOL     OW 1528   2.300   1.112   2.302 -0.3090 -0.5151 -0.3584
  510SOL    HW1 1529   2.357   1.169   2.367  1.2253  2.8584 -0.1886
  510SOL    HW2 1530   2.366   1.059   2.238  0.1065  0.6079 -1.7219
  511SOL     OW 1531   0.618   1.875   1.115 -0.3165 -0.5027 -0.6021
  511SOL    HW1 1532   0.653   1.936   1.045 -0.0679 -2.9631 -0.2654
  511SOL    HW2 1533   0.695   1.855   1.178 -0.5172 -0.1415 -0.8127
  512SOL     OW 1534   2.551   2.210   0.156  0.3231  0.1332 -0.1797
  512SOL    HW1 1535   2.456   2.241   0.178 -0.7730 -2.0768  0.6567
  512SOL    HW2 1536   2.581   2.129   0.206  1.3662  0.1639 -2.4758
  513SOL     OW 1537   2.964   1.781   2.370 -0.4872 -0.9414 -0.4106
  513SOL    HW1 1538   3.038   1.713   2.392  2.2958 -2.5605  0.4444
  513SOL    HW2 1539   2.884   1.769   2.425  4.5263  1.3908 -0.6682
  514SOL     OW 1540   0.251   2.571   2.441 -0.4775 -0.3038  0.0245
  514SOL    HW1 1541   0.180   2.521   2.391  0.0686  3.7730  0.5493
  514SOL    HW2 1542   0.348   2.549   2.415 -1.5524 -1.7103  4.3832
  515SOL     OW 1543   2.096   1.332   1.464  0.0968  0.3584 -0.0656
  515SOL    HW1 1544   2.094   1.357   1.362 -1.6076  0.6754 -0.2532
  515SOL    HW2 1545   2.188   1.354   1.497 -1.7211  1.9663  1.9479
  516SOL     OW 1546   2.561   2.247   2.685  0.3487 -0.1848 -0.1747
  516SOL    HW1 1547   2.584   2.315   2.611 -0.1619  0.1403 -0.0179
  516SOL    HW2 1548   2.635   2.245   2.757 -0.1538 -1.9561 -0.6107
  517SOL     OW 1549   1.339   0.703   3.004  0.1263  0.0975 -0.7501
  517SOL    HW1 1550   1.268   0.704   2.936  0.7944  2.4021  2.6248
  517SOL    HW2 1551   1.324   0.640   3.083 -0.9724 -0.0036  0.2560
  518SOL     OW 1552   3.006   2.961   2.487  0.2979 -0.0500 -0.2046
  518SOL    HW1 1553   2.987   3.051   2.447 -0.9005  1.0256 -1.0403
  518SOL    HW2 1554   3.082   2.959   2.555  1.5343  0.1725 -1.6221
  519SOL     OW 1555   1.642   1.719   2.180  0.1897 -0.5756  1.0263
  519SOL    HW1 1556   1.561   1.712   2.114 -1.5538 -0.5352  0.7649
  519SOL    HW2 1557   1.615   1.793   2.244 -0.4924  1.3837  0.4101
  520SOL     OW 1558   2.830   2.759   2.501  0.3228 -1.2117  0.1804
  520SOL    HW1 1559   2.737   2.799   2.481 -1.3778 -0.9753  1.7445
  520SOL    HW2 1560   2.906   2.830   2.512 -0.3023 -2.7448  2.2835
  521SOL     OW 1561   0.531   1.711   1.747 -0.0546 -0.8723  0.1607
  521SOL    HW1 1562   0.494   1.753   1.833 -0.8379  0.7103  1.1040
  521SOL    HW2 1563   0.606   1.640   1.770  0.8072  0.2826  1.6806
  522SOL     OW 1564   1.102   3.062   1.868  0.1522 -0.2042 -0.2102
  522SOL    HW1 1565   1.057   0.007   1.785 -0.5861  1.4264 -1.6635
  522SOL    HW2 1566   1.086   0.001   1.958 -0.9039 -0.9287 -1.2379
  523SOL     OW 1567   0.094   2.632   1.191  0.2877  0.4777 -0.0263
  523SOL    HW1 1568   0.018   2.702   1.201 -0.8180 -2.5548  0.2424
  523SOL    HW2 1569   0.167   2.629   1.264  1.7240 -0.7952  2.2361
  524SOL     OW 1570   1.619   2.709   0.827 -0.3806 -0.3500  0.1826
  524SOL    HW1 1571   1.568   2.620   0.820 -0.8172  1.6154 -2.6305
  524SOL    HW2 1572   1.583   2.776   0.759  0.6341  1.7220  3.1714
  525SOL     OW 1573   2.357   1.047   0.918 -0.0370  0.1421  0.4915
  525SOL    HW1 1574   2.272   1.099   0.945  1.2977  0.5100  0.1663
  525SOL    HW2 1575   2.374   0.975   0.988 -0.3726  0.5143  0.7721
  526SOL     OW 1576   1.108   2.153   0.665  0.5843 -0.3476  0.2721
  526SOL    HW1 1577   1.057   2.243   0.645  2.0335  4.4107 -0.4034
  526SOL    HW2 1578   1.047   2.073   0.655 -1.4455 -2.1810  0.8416
  527SOL     OW 1579   2.452   2.043   0.816  0.2164 -0.1204  0.4072
  527SOL    HW1 1580   2.448   2.026   0.716  1.6759  2.1387 -0.1272
  527SOL    HW2 1581   2.449   1.955   0.868  0.2856  1.2599  2.2539
  528SOL     OW 1582   2.147   0.266   0.079  0.3689  0.1246  0.1625
  528SOL    HW1 1583   2.203   0.355   0.090  4.2582  0.0397 -0.1452
  528SOL    HW2 1584   2.104   0.235   0.169 -1.4072 -1.0243  0.6241
  529SOL     OW 1585   1.260   1.067   1.753 -0.3372  0.0315 -0.7242
  529SOL    HW1 1586   1.186   1.000   1.728  1.0834  1.1194 -1.0580
  529SOL    HW2 1587   1.222   1.161   1.759  0.0991  1.6734 -1.5501
  530SOL     OW 1588   2.627   1.017   2.734  0.7522 -0.3199  0.5505
  530SOL    HW1 1589   2.634   1.094   2.798  0.8147  0.8868 -0.4144
  530SOL    HW2 1590   2.669   1.036   2.642 -1.3215 -0.0083  0.3411
  531SOL     OW 1591   1.050   0.906   0.122 -0.2859 -0.0563  0.9223
  531SOL    HW1 1592   1.120   0.947   0.053  1.9692  0.9680 -0.2929
  531SOL    HW2 1593   1.037   0.964   0.205  0.5760  0.7865  0.4588
  532SOL     OW 1594   2.015   0.503   0.551 -0.0742 -0.0046 -0.2193
  532SOL    HW1 1595   2.108   0.487   0.593  0.4849  0.0165 -0.2672
  532SOL    HW2 1596   1.973   0.417   0.524  2.6813  2.2406  1.2174
  533SOL     OW 1597   0.598   0.929   2.122 -0.2102 -0.5993 -0.3909
  533SOL    HW1 1598   0.540   0.842   2.112 -1.5281 -1.1065  0.6884
  533SOL    HW2 1599   0.647   0.929   2.211 -0.0292  2.5646 -1.6439
  534SOL     OW 1600   1.708   3.100   2.729 -0.3752 -0.2062  0.0123
  534SOL    HW1 1601   1.679   0.020   2.635  0.2909 -1.0303  1.0096
  534SOL    HW2 1602   1.721   0.079   2.784 -2.3266  0.5762  0.4085
  535SOL     OW 1603   0.590   0.028   0.391 -0.3864  0.1090 -0.2359
  535SOL    HW1 1604   0.492   0.052   0.398  0.4053 -0.2286  0.8347
  535SOL    HW2 1605   0.611   3.059   0.458 -0.6019 -0.9770  2.8113
  536SOL     OW 1606   1.221   2.883   1.275 -0.1261  0.0935  0.1327
  536SOL    HW1 1607   1.282   2.909   1.203  0.0465  0.7115  2.1783
  536SOL    HW2 1608   1.225   2.783   1.295 -2.3357 -0.3354  1.0572
  537SOL     OW 1609   2.015   2.558   2.257 -0.2651 -0.3886  0.1923
  537SOL    HW1 1610   2.054   2.623   2.193 -1.2740  0.3594 -0.8963
  537SOL    HW2 1611   2.058   2.468   2.249 -0.2848  0.5468  0.2125
  538SOL     OW 1612   0.220   2.629   2.700 -0.0702  0.2477  0.7126
  538SOL    HW1 1613   0.295   2.583   2.744  0.3189  0.5053 -0.4722
  538SOL    HW2 1614   0.221   2.611   2.600 -1.4020 -1.7044 -3.6064
  539SOL     OW 1615   2.885   1.935   1.731  0.6321 -0.5817  0.4853
  539SOL    HW1 1616   2.923   2.032   1.717  1.9732 -0.0595  0.1434
  539SOL    HW2 1617   2.929   1.900   1.814 -0.0767  0.9284 -1.3351
  540SOL     OW 1618   2.660   2.637   1.894  0.4223  0.4180 -0.4932
  540SOL    HW1 1619   2.729   2.591   1.950 -2.5596  0.4732 -0.0265
  540SOL    HW2 1620   2.605   2.560   1.854  1.6283  0.2687 -0.2265
  541SOL     OW 1621   0.172   3.043   1.582 -0.2893  0.1331  0.2377
  541SOL    HW1 1622   0.182   0.031   1.622  2.6054  1.7786 -0.5824
  541SOL    HW2 1623   0.241   3.017   1.514  0.1318  0.6782 -0.8121
  542SOL     OW 1624   3.046   0.789   2.054  0.1650 -0.3547  0.0700
  542SOL    HW1 1625   2.963   0.764   2.110  1.7285 -0.6526 -0.2293
  542SOL    HW2 1626   3.072   0.706   2.005 -1.7663  0.7968  0.3574
  543SOL     OW 1627   0.667   0.737   1.289 -0.1779 -0.6286  0.3592
  543SOL    HW1 1628   0.762   0.763   1.270  0.8652  0.2460 -1.5619
  543SOL    HW2 1629   0.663   0.646   1.331  1.6345  1.4727 -1.3708
  544SOL     OW 1630   2.122   2.041   1.271  0.2337  0.0265  0.4367
  544SOL    HW1 1631   2.142   2.044   1.170  1.9917  1.3636 -2.1357
  544SOL    HW2 1632   2.023   2.035   1.280  2.6701  1.3611  0.4447
  545SOL     OW 1633   0.932   1.503   0.700  0.0872 -0.0376 -0.3909
  545SOL    HW1 1634   1.002   1.574   0.674  2.4618  2.0195  0.8121
  545SOL    HW2 1635   0.974   1.412   0.703  0.3867  2.2795 -0.3230
  546SOL     OW 1636   2.837   0.230   2.160 -0.2886 -0.3852  0.1033
  546SOL    HW1 1637   2.805   0.323   2.181  0.6877  0.3102 -2.4930
  546SOL    HW2 1638   2.863   0.189   2.244 -1.1904  2.6490 -2.2581
  547SOL     OW 1639   0.148   0.318   2.544  0.4977  0.4027  0.1589
  547SOL    HW1 1640   0.150   0.327   2.649  1.0593 -3.0193  2.5555
  547SOL    HW2 1641   0.214   0.384   2.509 -0.7585  0.6296 -0.3576
  548SOL     OW 1642   2.322   2.243   2.821 -0.3410 -0.2830  0.0735
  548SOL    HW1 1643   2.414   2.262   2.781  0.4856  0.5304 -1.7100
  548SOL    HW2 1644   2.274   2.335   2.821 -2.1705  3.7046  0.7144
  549SOL     OW 1645   2.404   0.556   0.828 -0.1056 -0.4808 -0.0275
  549SOL    HW1 1646   2.324   0.614   0.812 -0.0323 -0.9606 -0.0471
  549SOL    HW2 1647   2.491   0.609   0.815  0.1707  1.8235  0.4240
  550SOL     OW 1648   2.273   1.464   0.498 -0.1560 -0.1431  0.6796
  550SOL    HW1 1649   2.275   1.472   0.398  0.8511  0.2187  1.2341
  550SOL    HW2 1650   2.312   1.375   0.527  0.1576  2.3814 -1.6495
  551SOL     OW 1651   1.383   2.945   1.513  0.3653 -0.2505 -0.0947
  551SOL    HW1 1652   1.382   2.872   1.584  0.8018  2.2437  0.9558
  551SOL    HW2 1653   1.304   2.932   1.453 -0.5305 -0.2010 -2.5611
  552SOL     OW 1654   2.179   2.391   2.513  0.2052  0.6446  0.7121
  552SOL    HW1 1655   2.219   2.459   2.574  0.5055  0.0847 -2.5883
  552SOL    HW2 1656   2.211   2.405   2.416  2.5606  2.1213 -0.9890
  553SOL     OW 1657   0.616   2.902   0.546 -0.2429 -0.0709 -0.1045
  553SOL    HW1 1658   0.659   2.904   0.637  1.1142  0.2506 -0.1373
  553SOL    HW2 1659   0.561   2.819   0.531 -0.0120  0.5410 -0.0607
  554SOL     OW 1660   1.732   2.581   1.965 -0.0612  0.8904 -0.3020
  554SOL    HW1 1661   1.815   2.545   1.918  0.0313  0.9401 -1.5814
  554SOL    HW2 1662   1.696   2.653   1.904  2.6543 -1.1288  1.0604
  555SOL     OW 1663   2.001   2.288   2.162  0.0402 -0.1013  0.7511
  555SOL    HW1 1664   2.095   2.259   2.138 -1.4626 -0.8402  2.0090
  555SOL    HW2 1665   1.931   2.236   2.110 -0.5751 -1.0955  0.1491
  556SOL     OW 1666   1.016   0.077   0.630 -0.4505 -0.0265  0.0493
  556SOL    HW1 1667   1.046   0.174   0.627 -0.8729  0.1104 -0.2504
  556SOL    HW2 1668   1.033   0.035   0.538  1.5459  3.1071 -0.1150
  557SOL     OW 1669   0.938   2.228   1.670 -0.0619  0.6682 -0.1210
  557SOL    HW1 1670   0.849   2.196   1.642  3.2638  2.1861  1.2767
  557SOL    HW2 1671   0.938   2.331   1.680 -3.2816  2.3396 -1.3083
  558SOL     OW 1672   2.537   1.245   2.479 -0.3938 -0.0087  0.2684
  558SOL    HW1 1673   2.580   1.165   2.518 -3.1058  3.2115 -1.3817
  558SOL    HW2 1674   2.573   1.324   2.527 -1.5828 -1.4083 -2.4611
  559SOL     OW 1675   2.238   2.234   2.042 -0.1873  0.6376 -0.6207
  559SOL    HW1 1676   2.230   2.137   2.038  0.6508  4.0777 -1.0413
  559SOL    HW2 1677   2.263   2.273   1.954 -1.1837  1.7200  0.3516
  560SOL     OW 1678   0.474   0.297   2.224 -0.2269 -0.6833 -0.0649
  560SOL    HW1 1679   0.468   0.357   2.138 -0.1998 -0.1755 -0.5505
  560SOL    HW2 1680   0.566   0.268   2.247 -1.5142 -2.0971 -2.8974
  561SOL     OW 1681   1.112   0.328   0.257  0.1563  0.3901  0.0125
  561SOL    HW1 1682   1.211   0.337   0.284  2.2586 -1.2227  2.1080
  561SOL    HW2 1683   1.081   0.234   0.274  1.4590 -3.9304  0.5394
  562SOL     OW 1684   1.216   1.490   1.824 -0.1685 -0.0592 -0.1259
  562SOL    HW1 1685   1.143   1.563   1.832 -1.7732  2.0293 -0.5210
  562SOL    HW2 1686   1.249   1.488   1.726  0.7418 -1.2449 -0.6863
  563SOL     OW 1687   1.884   2.417   0.098  0.4903 -0.2743 -0.0135
  563SOL    HW1 1688   1.875   2.318   0.111 -0.6171  0.5141 -0.0741
  563SOL    HW2 1689   1.955   2.463   0.158 -0.0559  1.9700 -0.9634
  564SOL     OW 1690   2.675   2.011   0.311  0.3756  0.3141 -0.0466
  564SOL    HW1 1691   2.675   2.089   0.379 -1.0450  1.0657  1.9848
  564SOL    HW2 1692   2.588   1.953   0.312 -2.2776 -2.1553  1.2702
  565SOL     OW 1693   0.422   0.124   2.493  0.3667  0.0575 -0.4097
  565SOL    HW1 1694   0.416   0.186   2.573  0.6547  0.0503 -2.7027
  565SOL    HW2 1695   0.422   0.175   2.407  1.3315 -2.5140  1.9253
  566SOL     OW 1696   1.618   2.610   2.560 -0.5049  0.0365 -0.1113
  566SOL    HW1 1697   1.632   2.569   2.649 -1.9159  4.2125 -2.4511
  566SOL    HW2 1698   1.698   2.594   2.499 -1.1590  1.4207  1.8836
  567SOL     OW 1699   1.846   2.061   1.241  0.3026 -0.0365  0.1693
  567SOL    HW1 1700   1.834   1.969   1.200 -0.5871  0.0075  0.3874
  567SOL    HW2 1701   1.774   2.081   1.311 -2.7935 -2.9203  0.8205
  568SOL     OW 1702   2.044   0.735   2.863  0.2941 -0.1457  0.1580
  568SOL    HW1 1703   2.014   0.762   2.960 -1.8681 -0.6233  1.4614
  568SOL    HW2 1704   2.099   0.650   2.859 -1.9054  1.4733 -0.9367
  569SOL     OW 1705   2.411   1.644   2.052 -0.1868 -0.0322 -0.6668
  569SOL    HW1 1706   2.404   1.650   1.949 -0.6747 -0.0383  0.3837
  569SOL    HW2 1707   2.394   1.545   2.078  0.2385 -0.7675 -0.7315
  570SOL     OW 1708   2.758   0.152   1.775  0.7842  0.1671  0.1348
  570SOL    HW1 1709   2.691   0.134   1.848 -1.0026 -1.8330 -0.7642
  570SOL    HW2 1710   2.777   0.066   1.726  3.4095  2.3163  0.4121
  571SOL     OW 1711   0.230   0.824   1.410 -0.5126 -0.3654  0.1044
  571SOL    HW1 1712   0.329   0.807   1.427 -0.5576  0.6268  0.8688
  571SOL    HW2 1713   0.194   0.896   1.469  0.3117 -1.0896 -0.8288
  572SOL     OW 1714   0.073   1.848   0.756  0.2747  0.1478 -0.1872
  572SOL    HW1 1715   0.004   1.908   0.803 -0.9453  0.6478 -0.7137
  572SOL    HW2 1716   0.070   1.751   0.791 -0.5128 -1.0708  2.0839
  573SOL     OW 1717   0.859   0.459   0.266  0.2243  0.2117 -0.0813
  573SOL    HW1 1718   0.848   0.548   0.315 -0.7261  1.2459  0.1746
  573SOL    HW2 1719   0.956   0.427   0.280  2.0766  0.3959  1.7351
  574SOL     OW 1720   0.136   3.091   3.053 -0.1259  0.3124  0.7237
  574SOL    HW1 1721   0.170   0.023   2.960  0.0640  0.4467 -3.3351
  574SOL    HW2 1722   0.036   3.056   3.046 -0.9431  0.3595 -4.8376
  575SOL     OW 1723   1.037   2.333   1.021  0.0369  0.0943  0.0027
  575SOL    HW1 1724   1.080   2.270   1.092  3.0945 -1.7875  0.3910
  575SOL    HW2 1725   1.107   2.354   0.950 -2.4354  0.1165 -0.0588
  576SOL     OW 1726   3.018   2.843   1.329 -0.4318 -0.3815  0.5106
  576SOL    HW1 1727   2.928   2.838   1.281 -2.2529 -0.0920  0.0115
  576SOL    HW2 1728   3.021   2.909   1.408  0.3111  0.5110 -0.3022
  577SOL     OW 1729   2.690   1.787   1.870 -0.7309  0.3031 -0.2303
  577SOL    HW1 1730   2.638   1.730   1.809  0.9530  2.4013 -1.6349
  577SOL    HW2 1731   2.761   1.838   1.820  0.9781  0.2240 -1.2829
  578SOL     OW 1732   1.048   2.866   2.500  0.0552  0.4531  0.1168
  578SOL    HW1 1733   0.971   2.866   2.434 -2.7471 -0.8206  1.0592
  578SOL    HW2 1734   1.059   2.773   2.545 -0.1941 -1.7168  1.2346
  579SOL     OW 1735   1.976   1.616   2.061 -0.0483 -0.9060  0.3510
  579SOL    HW1 1736   1.874   1.606   2.050 -1.5514 -0.0048 -1.4703
  579SOL    HW2 1737   2.027   1.592   1.977  1.2002  0.2949  0.4852
  580SOL     OW 1738   1.834   0.510   1.966  0.0920 -0.1398  0.0329
  580SOL    HW1 1739   1.753   0.464   1.923  1.4943  0.6563  1.3907
  580SOL    HW2 1740   1.817   0.532   2.064  2.9685  2.8771  0.1571
  581SOL     OW 1741   1.039   1.280   1.839 -0.2990 -0.2118 -0.0967
  581SOL    HW1 1742   1.015   1.250   1.931 -1.3569 -1.1749 -1.0830
  581SOL    HW2 1743   1.086   1.368   1.846 -0.6067  0.4367 -0.9263
  582SOL     OW 1744   0.186   2.795   1.729 -0.0205  0.2980  0.0147
  582SOL    HW1 1745   0.180   2.792   1.829  0.6749 -1.9383 -1.8650
  582SOL    HW2 1746   0.146   2.874   1.684  0.4281 -1.3849 -0.5298
  583SOL     OW 1747   1.326   1.441   1.222 -0.3042 -0.0671  0.1917
  583SOL    HW1 1748   1.356   1.422   1.320  0.1661  0.3074  3.6417
  583SOL    HW2 1749   1.225   1.412   1.205 -3.0697 -1.2140  0.4103
  584SOL     OW 1750   1.335   2.007   2.655  0.3512  0.0805  0.4904
  584SOL    HW1 1751   1.327   1.939   2.580  0.9002 -1.1189  0.0127
  584SOL    HW2 1752   1.429   2.027   2.689  0.9567 -0.5343 -0.6514
  585SOL     OW 1753   0.197   2.353   0.305 -0.4654 -0.8109 -0.6380
  585SOL    HW1 1754   0.170   2.329   0.401 -0.4814  1.6690 -0.4185
  585SOL    HW2 1755   0.125   2.341   0.235 -0.6122 -1.8929  0.2708
  586SOL     OW 1756   1.860   2.118   0.182  0.1725  0.3563 -0.0344
  586SOL    HW1 1757   1.921   2.156   0.257  0.4715 -1.1170  0.9994
  586SOL    HW2 1758   1.923   2.080   0.108  1.3172 -1.2986 -2.0497
  587SOL     OW 1759   2.369   1.962   0.550 -0.2635 -0.0893 -0.2476
  587SOL    HW1 1760   2.426   1.885   0.513 -1.0958 -0.7734 -1.3937
  587SOL    HW2 1761   2.284   1.978   0.493 -0.9805  1.0706  1.0602
  588SOL     OW 1762   2.179   0.362   1.135 -0.2266  0.1279 -0.1733
  588SOL    HW1 1763   2.095   0.416   1.106 -2.0556 -0.4027 -1.8989
  588SOL    HW2 1764   2.256   0.429   1.140  1.3884 -0.9805 -1.4054
  589SOL     OW 1765   0.548   0.708   1.042  0.1069 -0.2298  0.5893
  589SOL    HW1 1766   0.595   0.724   1.129  0.2334 -1.2241 -1.4125
  589SOL    HW2 1767   0.560   0.783   0.975  0.9928 -0.8501 -0.0046
  590SOL     OW 1768   2.687   2.447   0.193  0.0103  0.2101  0.1369
  590SOL    HW1 1769   2.631   2.365   0.181  2.9773  3.5301 -1.6980
  590SOL    HW2 1770   2.737   2.455   0.284 -1.1164  1.9447 -0.7639
  591SOL     OW 1771   0.401   2.767   1.561  0.0183 -0.0125 -0.0753
  591SOL    HW1 1772   0.491   2.753   1.601 -2.1837  0.2411  2.7853
  591SOL    HW2 1773   0.329   2.753   1.632 -1.3056 -2.0436 -4.4921
  592SOL     OW 1774   0.889   1.544   1.575  0.7513  0.2277 -0.3385
  592SOL    HW1 1775   0.855   1.602   1.499  0.7623  0.6414 -1.9328
  592SOL    HW2 1776   0.908   1.450   1.547  2.2445  2.2285  1.8453
  593SOL     OW 1777   1.099   1.810   1.367 -0.0648 -0.5298 -0.1644
  593SOL    HW1 1778   1.057   1.720   1.343 -0.2572  0.1128 -0.8905
  593SOL    HW2 1779   1.098   1.874   1.286 -0.0042  0.9038  0.3290
  594SOL     OW 1780   0.249   1.719   2.809 -0.1717  0.2396  0.0055
  594SOL    HW1 1781   0.288   1.708   2.903  3.2997  2.0613  1.1838
  594SOL    HW2 1782   0.309   1.680   2.737  0.8587  3.7333 -1.8392
  595SOL     OW 1783   1.350   0.568   0.927 -0.0426 -0.0786 -0.4139
  595SOL    HW1 1784   1.356   0.514   0.842  2.1384  1.1978 -1.5156
  595SOL    HW2 1785   1.390   0.520   1.007  0.1636  3.7191 -1.1803
  596SOL     OW 1786   0.237   1.466   0.614 -0.5559  0.5551  0.0919
  596SOL    HW1 1787   0.324   1.491   0.660 -0.9682 -0.3619 -1.8719
  596SOL    HW2 1788   0.252   1.385   0.557  0.7209  0.8271 -0.8430
  597SOL     OW 1789   0.096   2.154   2.887 -0.0725  0.0194 -0.4537
  597SOL    HW1 1790   0.008   2.166   2.841  0.9444 -1.7201  1.0389
  597SOL    HW2 1791   0.118   2.238   2.938 -1.7621 -2.0798 -0.8983
  598SOL     OW 1792   1.891   2.041   2.290  0.4307  0.2294 -0.1802
  598SOL    HW1 1793   1.873   2.076   2.195 -0.0692 -0.9806 -1.1003
  598SOL    HW2 1794   1.942   1.955   2.279 -1.7553  1.6275  4.2254
  599SOL     OW 1795   1.634   0.524   0.715  0.3666  0.9349  0.1242
  599SOL    HW1 1796   1.614   0.603   0.654  0.0982 -0.5086  1.2702
  599SOL    HW2 1797   1.548   0.472   0.729 -1.9033  4.2128  1.5236
  600SOL     OW 1798   0.800   2.774   0.365 -0.0864 -0.0389  0.0079
  600SOL    HW1 1799   0.747   2.818   0.440 -0.2498 -1.2981 -1.0216
  600SOL    HW2 1800   0.883   2.827   0.341  0.8056 -0.6338 -1.7239
  601SOL     OW 1801   0.672   0.478   1.381  1.1925  0.4102  0.7023
  601SOL    HW1 1802   0.734   0.473   1.459 -1.3028  0.5918 -4.0107
  601SOL    HW2 1803   0.688   0.398   1.317  1.3903  0.0447 -0.7630
  602SOL     OW 1804   0.151   2.899   0.803  0.2616  0.1242  0.4631
  602SOL    HW1 1805   0.093   2.830   0.752 -1.3357  0.0924 -0.8596
  602SOL    HW2 1806   0.086   2.958   0.859  0.5283  2.1866  1.1539
  603SOL     OW 1807   1.050   2.610   2.593  0.1900 -0.0809 -0.4345
  603SOL    HW1 1808   0.994   2.545   2.535 -1.7334  2.1577 -0.0739
  603SOL    HW2 1809   1.004   2.631   2.683 -0.0960 -1.0545  0.1356
  604SOL     OW 1810   0.461   2.824   2.779  0.2171  0.0305 -0.2042
  604SOL    HW1 1811   0.424   2.774   2.699  0.1074  2.4717  3.7749
  604SOL    HW2 1812   0.538   2.771   2.812 -1.8642  2.7959 -0.3114
  605SOL     OW 1813   0.933   0.634   1.844  0.3093  0.0950  0.0311
  605SOL    HW1 1814   1.020   0.631   1.895  0.0316 -0.9289  1.0240
  605SOL    HW2 1815   0.871   0.705   1.882  1.0479 -2.9571  0.7235
  606SOL     OW 1816   1.594   0.287   2.633  0.3735  0.4337  0.0757
  606SOL    HW1 1817   1.664   0.270   2.704 -0.3796 -2.7103  0.6582
  606SOL    HW2 1818   1.605   0.211   2.563  0.4049 -0.5355 -1.7399
  607SOL     OW 1819   0.367   1.443   1.122  0.3709  0.2675  0.2202
  607SOL    HW1 1820   0.427   1.456   1.202  0.2281 -0.2610 -2.0556
  607SOL    HW2 1821   0.302   1.520   1.127  0.8004  0.9313  1.4717
  608SOL     OW 1822   3.081   2.371   2.124  0.4824 -0.2047 -0.1778
  608SOL    HW1 1823   3.005   2.423   2.083 -0.7525 -0.4737 -1.4608
  608SOL    HW2 1824   3.098   2.404   2.222 -1.7097  1.2362  5.8462
  609SOL     OW 1825   1.785   0.472   0.225 -0.2369 -0.5545  0.2903
  609SOL    HW1 1826   1.842   0.476   0.142 -1.3999 -2.6439  1.6739
  609SOL    HW2 1827   1.731   0.381   0.223  1.0808 -0.3894  0.9700
  610SOL     OW 1828   0.995   2.711   1.080  0.1456  0.0644 -0.0641
  610SOL    HW1 1829   1.098   2.693   1.076  0.3361 -2.3161  0.3709
  610SOL    HW2 1830   0.948   2.651   1.148  0.2944 -0.8071 -0.1283
  611SOL     OW 1831   0.840   0.704   0.401 -0.5621 -0.3066 -0.5249
  611SOL    HW1 1832   0.772   0.776   0.424  0.5482 -0.9879 -1.3475
  611SOL    HW2 1833   0.938   0.736   0.415 -1.8251 -0.6924 -0.3156
  612SOL     OW 1834   1.206   0.601   2.565 -0.0960 -0.0609  0.3641
  612SOL    HW1 1835   1.214   0.672   2.490  2.2040  1.1533  1.9496
  612SOL    HW2 1836   1.297   0.578   2.601 -2.1206 -0.4448  3.6865
  613SOL     OW 1837   2.058   0.828   0.265 -0.0083  0.3467 -0.1555
  613SOL    HW1 1838   2.092   0.869   0.356  1.4711  1.5620  1.8982
  613SOL    HW2 1839   1.971   0.777   0.283 -0.1325  1.0530  0.0912
  614SOL     OW 1840   2.109   0.574   1.913 -0.2203  0.2826  0.3824
  614SOL    HW1 1841   2.009   0.555   1.915 -1.5560  0.8251 -0.2200
  614SOL    HW2 1842   2.128   0.666   1.952 -2.6454 -2.5087 -2.9861
  615SOL     OW 1843   0.740   2.080   0.948 -0.2886 -0.1039 -0.0566
  615SOL    HW1 1844   0.817   2.017   0.934 -0.7461 -0.2776  1.7157
  615SOL    HW2 1845   0.776   2.175   0.952 -0.5801 -0.2942  0.8764
  616SOL     OW 1846   1.469   1.050   2.227  0.1931  1.1229 -0.0040
  616SOL    HW1 1847   1.487   1.151   2.240  0.6924 -0.7342 -0.7426
  616SOL    HW2 1848   1.530   1.012   2.156  0.9214 -1.1674  2.4802
  617SOL     OW 1849   1.951   2.859   0.071  0.1702  0.3780 -0.2803
  617SOL    HW1 1850   2.020   2.872   3.096  2.5849 -0.3695 -0.5417
  617SOL    HW2 1851   1.894   2.775   0.054 -0.4746 -1.7495 -1.0447
  618SOL     OW 1852   0.909   1.102   2.692  0.3539  0.0633  0.4665
  618SOL    HW1 1853   0.844   1.035   2.649 -0.7542 -0.5344 -0.7169
  618SOL    HW2 1854   0.913   1.099   2.794 -2.9234  1.5154  0.0565
  619SOL     OW 1855   2.351   1.444   0.790 -0.5350  0.4709 -0.0579
  619SOL    HW1 1856   2.374   1.355   0.748 -0.6422 -0.1869  2.2618
  619SOL    HW2 1857   2.405   1.516   0.744 -1.4625  2.0162  0.4538
  620SOL     OW 1858   2.431   2.664   0.042 -0.4249 -0.0324  0.4301
  620SOL    HW1 1859   2.476   2.634   3.057 -2.3700 -1.0884  1.6215
  620SOL    HW2 1860   2.497   2.693   0.115 -1.3738 -3.0155  0.3749
  621SOL     OW 1861   2.132   1.097   0.156  0.4277 -0.1570  0.8314
  621SOL    HW1 1862   2.035   1.128   0.154  0.2895  1.2305  0.4988
  621SOL    HW2 1863   2.134   0.998   0.171  2.2601  2.7534 -0.2246
  622SOL     OW 1864   1.315   2.517   2.530 -0.3981  0.0490  0.7055
  622SOL    HW1 1865   1.223   2.564   2.544  0.9372 -0.5423 -1.3491
  622SOL    HW2 1866   1.393   2.566   2.574 -1.6327  1.2757  0.0215
  623SOL     OW 1867   0.300   1.773   3.093  0.5113 -0.6270  0.3285
  623SOL    HW1 1868   0.214   1.823   3.071  2.4275  0.0370 -0.6443
  623SOL    HW2 1869   0.358   1.821   0.056 -0.5085  1.1194 -1.6192
  624SOL     OW 1870   0.368   0.272   2.779  0.0739 -0.0097 -0.1158
  624SOL    HW1 1871   0.386   0.299   2.879 -1.0403 -0.8335  4.2384
  624SOL    HW2 1872   0.294   0.200   2.773  0.2125  1.4318  1.2746
  625SOL     OW 1873   0.897   2.003   0.110  0.3024  0.1345 -0.1916
  625SOL    HW1 1874   0.936   1.931   0.174 -0.1866  3.1159 -1.3774
  625SOL    HW2 1875   0.802   1.976   0.082 -0.7760 -2.4434  1.7430
  626SOL     OW 1876   2.904   0.566   0.363 -0.0315 -0.5416  0.0597
  626SOL    HW1 1877   2.874   0.530   0.276  0.2127 -1.2444  2.1543
  626SOL    HW2 1878   2.975   0.504   0.407 -2.5116 -0.6332  1.4594
  627SOL     OW 1879   1.313   1.144   2.852  0.2724 -0.0013 -0.6307
  627SOL    HW1 1880   1.354   1.197   2.928  1.1680  1.0945  2.9139
  627SOL    HW2 1881   1.354   1.159   2.761  0.5775  0.9650  0.5660
  628SOL     OW 1882   1.149   0.688   2.823  0.1551 -0.2381  0.8368
  628SOL    HW1 1883   1.050   0.707   2.848  1.1374 -1.3879  0.3750
  628SOL    HW2 1884   1.164   0.675   2.724 -1.1937  1.6804 -1.8669
  629SOL     OW 1885   0.146   0.230   1.694 -0.7401  0.6730  0.2864
  629SOL    HW1 1886   0.044   0.228   1.699 -2.5455 -1.1426 -2.3923
  629SOL    HW2 1887   0.185   0.217   1.788 -0.0510 -1.6690  1.7360
  630SOL     OW 1888   2.590   0.847   2.222  0.0951  0.0403  0.5475
  630SOL    HW1 1889   2.596   0.819   2.320  1.1586 -0.0815  1.4681
  630SOL    HW2 1890   2.669   0.816   2.172 -1.6750 -0.8957 -0.4844
  631SOL     OW 1891   2.024   0.934   0.813 -0.0146 -0.2957  0.1028
  631SOL    HW1 1892   2.003   0.952   0.907  0.5802 -0.9792  0.3561
  631SOL    HW2 1893   2.086   0.854   0.802 -0.1535 -1.4008  1.7433
  632SOL     OW 1894   2.808   0.768   1.714 -0.4074  0.0384 -0.3567
  632SOL    HW1 1895   2.886   0.828   1.738 -1.1053 -1.0822 -0.2647
  632SOL    HW2 1896   2.807   0.733   1.618  0.3998 -3.0338 -0.8556
  633SOL     OW 1897   0.727   2.837   3.052  0.1574 -0.6473  0.4061
  633SOL    HW1 1898   0.796   2.901   3.010  0.6394  2.8640 -3.6202
  633SOL    HW2 1899   0.703   2.875   0.032 -0.0204 -2.5404 -3.5115
  634SOL     OW 1900   1.189   2.732   2.932 -0.0117 -0.3232 -0.2583
  634SOL    HW1 1901   1.214   2.790   3.013  2.3628  1.0524 -0.9439
  634SOL    HW2 1902   1.093   2.744   2.900 -2.1379  0.1903  1.6983
  635SOL     OW 1903   3.062   0.363   0.407  0.8705 -0.3153 -0.0081
  635SOL    HW1 1904   3.091   0.340   0.500 -2.8313 -0.5767  1.7405
  635SOL    HW2 1905   3.019   0.279   0.366  0.0967 -1.1201  0.7429
  636SOL     OW 1906   0.518   1.060   0.490  0.6904  0.0929  0.2877
  636SOL    HW1 1907   0.547   1.137   0.433 -3.3374 -0.1793  1.8029
  636SOL    HW2 1908   0.417   1.051   0.488 -0.8558  0.6178  0.3005
  637SOL     OW 1909   0.261   2.603   0.267 -0.1469 -0.2917 -0.4362
  637SOL    HW1 1910   0.249   2.505   0.299  2.2097 -0.7541 -1.9144
  637SOL    HW2 1911   0.198   2.626   0.195 -1.7167 -1.4601 -1.0951
  638SOL     OW 1912   3.045   2.508   0.507 -0.5101  0.5334  0.1058
  638SOL    HW1 1913   3.047   2.572   0.426  1.3012  0.6757  0.0709
  638SOL    HW2 1914   0.017   2.440   0.507  1.0554 -0.7628  1.5851
  639SOL     OW 1915   1.289   1.152   0.147 -0.1112  0.2847 -0.2367
  639SOL    HW1 1916   1.266   1.082   0.078 -1.6856  1.1299  1.2321
  639SOL    HW2 1917   1.307   1.241   0.099  0.3551 -1.5422  0.3371
  640SOL     OW 1918   1.519   2.620   1.387 -0.6744  0.3559 -0.8789
  640SOL    HW1 1919   1.596   2.673   1.426 -0.2662 -1.2862  0.9995
  640SOL    HW2 1920   1.545   2.542   1.324 -1.5950  0.5709  1.7537
  641SOL     OW 1921   3.058   2.386   1.168  0.8659  0.1166 -0.6153
  641SOL    HW1 1922   0.003   2.469   1.204 -0.2187 -3.0639  2.2605
  641SOL    HW2 1923   2.961   2.409   1.161 -0.0051 -1.9831 -1.1262
  642SOL     OW 1924   0.682   3.016   1.715 -0.1928  0.1198 -0.3693
  642SOL    HW1 1925   0.725   3.075   1.644 -0.9138 -2.6835  1.4298
  642SOL    HW2 1926   0.602   3.054   1.768 -2.1352  1.9689  0.7361
  643SOL     OW 1927   0.765   2.256   2.937 -0.2129 -0.1706 -0.3588
  643SOL    HW1 1928   0.780   2.318   3.016  0.1226 -1.4091 -1.7442
  643SOL    HW2 1929   0.854   2.201   2.920  1.1689 -0.9322  2.8322
  644SOL     OW 1930   1.184   2.519   0.597 -0.1598  0.1730  0.0258
  644SOL    HW1 1931   1.223   2.509   0.501 -0.1432 -1.0645 -1.8362
  644SOL    HW2 1932   1.095   2.478   0.604  2.1463  1.5073 -0.3158
  645SOL     OW 1933   1.384   1.340   1.986 -0.2739  0.2222 -0.0639
  645SOL    HW1 1934   1.333   1.398   1.916 -1.9851  1.3824  0.2239
  645SOL    HW2 1935   1.322   1.282   2.040 -1.0996  1.2616  1.5042
  646SOL     OW 1936   0.248   1.006   0.484 -0.1886 -0.0083 -0.4129
  646SOL    HW1 1937   0.257   0.927   0.550  1.3779  0.7229  2.0144
  646SOL    HW2 1938   0.213   0.972   0.394  1.2874  1.3235 -1.0917
  647SOL     OW 1939   1.352   0.422   0.702  0.0257 -0.0972 -0.5312
  647SOL    HW1 1940   1.289   0.458   0.626  0.7777  0.2683 -3.5577
  647SOL    HW2 1941   1.314   0.335   0.747 -1.6699 -1.1319 -2.0668
  648SOL     OW 1942   2.253   2.744   1.188  0.4454 -0.7817  0.2067
  648SOL    HW1 1943   2.241   2.673   1.261  1.2472 -0.3291  1.8498
  648SOL    HW2 1944   2.324   2.702   1.121  2.6711  0.1407 -0.7559
  649SOL     OW 1945   0.625   1.928   0.031  0.1288  0.1675  0.1600
  649SOL    HW1 1946   0.590   2.008   3.083  0.8474 -0.3811  1.8674
  649SOL    HW2 1947   0.555   1.908   0.101  0.3499 -0.3727  0.3931
  650SOL     OW 1948   2.364   1.897   1.671  0.0439 -0.2625  0.4832
  650SOL    HW1 1949   2.296   1.950   1.619  1.1690 -1.2954 -3.2928
  650SOL    HW2 1950   2.459   1.922   1.639  2.7060 -1.0187 -1.6839
  651SOL     OW 1951   0.195   0.064   2.794  0.2942  0.8594 -0.4363
  651SOL    HW1 1952   0.218   3.072   2.786  0.5582  0.8126  0.0647
  651SOL    HW2 1953   0.093   0.073   2.778 -0.8710  0.7022 -0.1994
  652SOL     OW 1954   2.473   1.677   3.068  0.0295 -0.0987  0.2499
  652SOL    HW1 1955   2.555   1.739   3.059 -1.9933 -0.5775  1.4568
  652SOL    HW2 1956   2.494   1.591   0.017  0.3757  0.2237  0.1637
  653SOL     OW 1957   0.099   0.155   0.888  0.3640 -0.0501  0.2258
  653SOL    HW1 1958   0.198   0.178   0.911  0.8823 -1.6298 -0.7760
  653SOL    HW2 1959   0.080   0.191   0.793  1.4805 -0.0453 -0.3678
  654SOL     OW 1960   1.101   0.031   0.384  0.4807  0.2974  0.0765
  654SOL    HW1 1961   1.112   3.054   0.325  1.0355 -0.3400  2.7280
  654SOL    HW2 1962   1.194   0.059   0.416 -1.3281  1.0434  0.7789
  655SOL     OW 1963   0.664   2.848   1.309  0.3316  0.0558 -0.4135
  655SOL    HW1 1964   0.651   2.912   1.229 -1.7326 -1.5386 -0.4252
  655SOL    HW2 1965   0.611   2.764   1.296 -0.2748 -0.6061  3.0555
  656SOL     OW 1966   0.408   0.087   2.084  0.2696  0.2494 -0.2085
  656SOL    HW1 1967   0.368   0.004   2.132 -0.5162  2.6489 -2.1584
  656SOL    HW2 1968   0.432   0.161   2.149 -0.4054 -0.0033 -1.4989
  657SOL     OW 1969   1.945   0.468   2.540  0.0535 -0.0043  0.1052
  657SOL    HW1 1970   1.935   0.369   2.510 -0.8559 -3.2927  0.4947
  657SOL    HW2 1971   2.045   0.498   2.522  2.5421  0.1126 -2.6672
  658SOL     OW 1972   1.872   1.555   1.147  0.2913 -0.3151 -0.4818
  658SOL    HW1 1973   1.806   1.525   1.223  0.7611 -2.1316 -0.1292
  658SOL    HW2 1974   1.965   1.520   1.167  2.4682  2.8711  0.0501
  659SOL     OW 1975   2.547   2.595   2.906 -0.4119 -0.0303  0.3725
  659SOL    HW1 1976   2.528   2.600   2.807  0.3427 -2.7862 -0.3045
  659SOL    HW2 1977   2.613   2.524   2.930  0.4014  0.7380  0.0530
  660SOL     OW 1978   1.025   0.626   0.090 -0.4839 -0.6282 -0.1961
  660SOL    HW1 1979   0.945   0.595   0.142 -0.0787 -1.1707  0.8597
  660SOL    HW2 1980   1.041   0.727   0.100 -0.5274 -1.4344 -0.5950
  661SOL     OW 1981   2.630   2.818   0.872 -0.4470 -0.0606  0.1538
  661SOL    HW1 1982   2.725   2.834   0.836  1.1745  1.0758  0.8079
  661SOL    HW2 1983   2.607   2.893   0.935  0.6614  0.2114 -0.7830
  662SOL     OW 1984   0.529   0.423   1.068 -0.1821  0.4848  0.6434
  662SOL    HW1 1985   0.482   0.394   1.151 -1.1266 -1.0931 -1.7047
  662SOL    HW2 1986   0.539   0.527   1.059  0.6057  1.3083 -0.5583
  663SOL     OW 1987   1.603   2.354   2.313 -0.0907 -0.0706 -0.0275
  663SOL    HW1 1988   1.688   2.407   2.334 -4.0004 -1.1911  1.0971
  663SOL    HW2 1989   1.522   2.418   2.305 -1.7628  0.3016 -0.2517
  664SOL     OW 1990   0.670   2.384   1.265 -0.0894 -0.2941 -0.1276
  664SOL    HW1 1991   0.764   2.424   1.263  1.0660 -1.2988 -0.8301
  664SOL    HW2 1992   0.670   2.292   1.313  0.4035 -3.0216  0.4540
  665SOL     OW 1993   1.162   2.188   1.495 -0.3934 -0.3237  0.1956
  665SOL    HW1 1994   1.073   2.182   1.548 -1.2245 -0.9131 -3.3785
  665SOL    HW2 1995   1.238   2.135   1.538  2.0175 -0.2450 -0.4642
  666SOL     OW 1996   0.147   2.887   2.637 -0.4598  0.4396  0.3135
  666SOL    HW1 1997   0.230   2.890   2.577  3.3457 -0.0400 -3.5755
  666SOL    HW2 1998   0.144   2.797   2.687 -0.3901 -0.6495  1.7161
  667SOL     OW 1999   1.430   1.675   1.179  0.1025 -0.0735 -0.4673
  667SOL    HW1 2000   1.401   1.580   1.206 -1.3469 -0.4603  0.4000
  667SOL    HW2 2001   1.392   1.743   1.247  2.3955  2.1315  0.3508
  668SOL     OW 2002   0.962   0.220   2.360  0.3606 -0.5187 -0.3346
  668SOL    HW1 2003   0.949   0.257   2.457 -2.0702 -0.5733 -1.0808
  668SOL    HW2 2004   0.974   0.120   2.355 -0.7786  0.1351  0.7901
  669SOL     OW 2005   2.288   2.246   1.721 -0.2702  0.4344  0.0056
  669SOL    HW1 2006   2.302   2.174   1.790  0.0862 -0.7442 -1.4444
  669SOL    HW2 2007   2.201   2.244   1.675  0.6530  2.3465  0.6585
  670SOL     OW 2008   1.797   1.890   0.349  0.3731 -0.1640  0.1343
  670SOL    HW1 2009   1.830   1.864   0.440  0.5338 -0.4332 -0.5045
  670SOL    HW2 2010   1.839   1.974   0.310  1.1077 -2.9575 -0.8259
  671SOL     OW 2011   1.411   0.995   1.041  0.3229  0.0102 -0.6808
  671SOL    HW1 2012   1.370   0.926   0.981  0.8327  1.9589 -0.4870
  671SOL    HW2 2013   1.425   1.083   0.994 -0.7092 -1.2627 -0.1003
  672SOL     OW 2014   2.500   1.437   2.288  0.8028  0.2402 -0.2366
  672SOL    HW1 2015   2.568   1.507   2.263 -0.1995 -2.7652 -0.6974
  672SOL    HW2 2016   2.546   1.350   2.325  3.0039 -0.2526  1.6840
  673SOL     OW 2017   2.662   1.628   2.189 -0.1982  0.0085 -0.3792
  673SOL    HW1 2018   2.590   1.634   2.117 -0.0394  1.6530 -0.0822
  673SOL    HW2 2019   2.722   1.710   2.177 -0.7437  0.9464 -1.6452
  674SOL     OW 2020   0.886   2.455   2.441  0.6370  0.0281 -0.5269
  674SOL    HW1 2021   0.848   2.534   2.388 -0.0873  1.4648 -0.2334
  674SOL    HW2 2022   0.814   2.384   2.437 -0.5948 -1.4929  0.8332
  675SOL     OW 2023   0.662   1.035   1.434 -0.7175  0.4393 -0.8741
  675SOL    HW1 2024   0.624   0.995   1.349  1.8277  0.3640  0.1246
  675SOL    HW2 2025   0.763   1.040   1.427 -0.6903  2.4722  1.0734
  676SOL     OW 2026   2.154   0.663   0.784  0.0386  0.1241  0.3553
  676SOL    HW1 2027   2.110   0.652   0.695  0.0787 -2.4539 -1.1076
  676SOL    HW2 2028   2.089   0.635   0.859 -1.5256 -1.5314  0.1104
  677SOL     OW 2029   2.548   1.578   2.681 -0.3988 -0.1747  0.3064
  677SOL    HW1 2030   2.611   1.521   2.623  0.9042  0.1419  0.2758
  677SOL    HW2 2031   2.489   1.525   2.750 -0.1974 -0.9609 -1.2093
  678SOL     OW 2032   3.052   2.956   1.028 -0.0083  0.3487 -0.6978
  678SOL    HW1 2033   3.019   2.863   0.995  0.2866 -0.1193 -0.1276
  678SOL    HW2 2034   0.020   2.946   1.100  1.9722 -0.4059  2.3332
  679SOL     OW 2035   2.505   0.040   0.376  0.6910  0.0040  0.3002
  679SOL    HW1 2036   2.546   0.132   0.389  0.3511 -0.3035  1.2667
  679SOL    HW2 2037   2.586   3.083   0.357  2.7934 -1.6725  0.4115
  680SOL     OW 2038   0.215   2.354   2.011  0.0303  0.2438  0.3202
  680SOL    HW1 2039   0.203   2.344   1.909 -0.8083  2.3190 -1.6256
  680SOL    HW2 2040   0.119   2.344   2.051  1.1962  0.7129  0.2559
  681SOL     OW 2041   2.465   1.734   1.407 -0.3184 -0.1559 -0.3650
  681SOL    HW1 2042   2.465   1.820   1.351 -1.9938 -0.3134  1.1347
  681SOL    HW2 2043   2.367   1.697   1.422 -0.1237  0.0837  0.0546
  682SOL     OW 2044   2.942   2.160   2.233  0.0448  0.3534 -0.0048
  682SOL    HW1 2045   2.865   2.142   2.173  2.2603  0.0014  1.8183
  682SOL    HW2 2046   2.966   2.262   2.229  0.7612 -0.9469 -0.2385
  683SOL     OW 2047   3.007   2.218   1.367 -0.7405 -0.7577 -0.2271
  683SOL    HW1 2048   2.915   2.171   1.360  1.9044  0.0083 -2.8837
  683SOL    HW2 2049   3.038   2.275   1.284  0.8712  0.3467  2.2687
  684SOL     OW 2050   2.087   0.972   2.407  0.5845  0.1348 -0.0518
  684SOL    HW1 2051   2.037   1.048   2.458  0.1419  0.8892  0.8848
  684SOL    HW2 2052   2.168   1.013   2.358  0.6639  0.7662 -0.8127
  685SOL     OW 2053   1.479   0.995   0.555  0.0728 -0.7210  0.4954
  685SOL    HW1 2054   1.473   0.937   0.639 -1.0636  0.2346  1.5484
  685SOL    HW2 2055   1.552   1.066   0.554 -1.0297 -0.5991  1.6684
  686SOL     OW 2056   0.564   3.096   0.792 -0.6909  0.0155  0.3246
  686SOL    HW1 2057   0.562   3.054   0.888  0.6860  1.5557 -0.0249
  686SOL    HW2 2058   0.653   0.044   0.774 -2.1058  1.7671 -0.1230
  687SOL     OW 2059   1.474   1.307   2.353 -0.1684  0.2726  0.3142
  687SOL    HW1 2060   1.551   1.374   2.346  0.1544  0.4180 -1.3571
  687SOL    HW2 2061   1.386   1.351   2.323 -2.2914  1.2376 -2.0148
  688SOL     OW 2062   1.367   1.810   1.405  0.6242 -0.0537 -0.1759
  688SOL    HW1 2063   1.268   1.787   1.393  0.7360  0.7421  0.7131
  688SOL    HW2 2064   1.402   1.760   1.480 -1.9917  3.9184 -1.5781
  689SOL     OW 2065   2.106   0.367   1.380  0.3003  0.0595 -0.1987
  689SOL    HW1 2066   2.146   0.343   1.291  2.6700  1.5633  3.1427
  689SOL    HW2 2067   2.181   0.391   1.448  3.4234 -1.4097 -0.1909
  690SOL     OW 2068   0.193   1.688   1.071 -0.3514 -0.4256 -0.4179
  690SOL    HW1 2069   0.256   1.767   1.048  0.0270  0.4203  3.8708
  690SOL    HW2 2070   0.151   1.650   0.984  0.7408 -2.3808 -1.1696
  691SOL     OW 2071   0.490   2.619   0.974  0.7139 -0.6600 -0.2523
  691SOL    HW1 2072   0.585   2.591   0.942 -1.4493 -0.8473 -2.2681
  691SOL    HW2 2073   0.428   2.558   0.921  1.3390  2.6370 -1.0444
  692SOL     OW 2074   2.325   0.588   1.733 -0.3556  0.2438  0.4249
  692SOL    HW1 2075   2.362   0.678   1.735 -3.1008  0.2805  0.9115
  692SOL    HW2 2076   2.254   0.577   1.798 -1.3372 -0.1283  0.0897
  693SOL     OW 2077   0.315   2.104   1.864 -0.1562  0.3807 -0.3652
  693SOL    HW1 2078   0.416   2.104   1.855 -2.2773 -0.9843 -0.5554
  693SOL    HW2 2079   0.296   2.083   1.960  0.7231 -1.6446  0.1299
  694SOL     OW 2080   1.591   1.219   1.604 -0.1201  0.1431 -0.2964
  694SOL    HW1 2081   1.674   1.255   1.653  0.7974 -2.6797  1.4694
  694SOL    HW2 2082   1.544   1.141   1.648 -0.2540 -3.1056  1.4044
  695SOL     OW 2083   0.542   1.097   1.158  0.1221 -0.4246 -0.0319
  695SOL    HW1 2084   0.454   1.136   1.180  1.0730  3.8447  1.4337
  695SOL    HW2 2085   0.615   1.160   1.188  0.1508 -1.8289 -0.4045
  696SOL     OW 2086   1.476   0.079   0.713 -0.3845 -0.0602 -0.4756
  696SOL    HW1 2087   1.495   0.095   0.613  1.0874  1.4728  0.3574
  696SOL    HW2 2088   1.543   0.134   0.766  1.7745  0.4574 -2.9271
  697SOL     OW 2089   1.383   0.312   1.703  0.4327 -0.2424  0.2509
  697SOL    HW1 2090   1.341   0.324   1.795  0.7798  1.2465 -2.1756
  697SOL    HW2 2091   1.362   0.218   1.670 -0.3124  1.3498  1.8756
  698SOL     OW 2092   2.094   1.240   2.161  0.9807 -0.4671  0.6896
  698SOL    HW1 2093   2.152   1.178   2.209 -0.5903  1.9448 -2.1088
  698SOL    HW2 2094   2.049   1.303   2.227 -1.1685  0.3584  3.0796
  699SOL     OW 2095   2.309   0.368   1.582 -0.1474  0.0032  0.2569
  699SOL    HW1 2096   2.309   0.452   1.635 -1.1658  0.1762 -1.8528
  699SOL    HW2 2097   2.249   0.296   1.619  0.0729  1.7597 -2.3035
  700SOL     OW 2098   0.899   2.145   0.323 -0.1875 -0.0772  0.1569
  700SOL    HW1 2099   0.891   2.096   0.235 -2.1700 -1.1684  1.9206
  700SOL    HW2 2100   0.915   2.079   0.397 -0.7495  0.0828 -0.6540
  701SOL     OW 2101   2.263   2.599   2.677 -0.6381  0.0364 -0.3304
  701SOL    HW1 2102   2.208   2.633   2.600  2.1360 -0.1939  1.2215
  701SOL    HW2 2103   2.203   2.567   2.757 -1.8982 -1.4604  2.0464
  702SOL     OW 2104   1.142   3.104   0.989  0.1509 -0.6219 -0.1622
  702SOL    HW1 2105   1.042   3.069   0.995 -2.4841 -3.1436 -0.4000
  702SOL    HW2 2106   1.182   3.051   0.915  1.4326 -0.0434 -0.1222
  703SOL     OW 2107   2.382   0.242   2.323 -0.2102  0.1281 -0.2447
  703SOL    HW1 2108   2.432   0.221   2.409  0.8973  0.6604 -1.9954
  703SOL    HW2 2109   2.422   0.319   2.270 -0.5945  0.0897  1.3793
  704SOL     OW 2110   2.972   2.084   0.196  0.2169  0.8281  0.7447
  704SOL    HW1 2111   2.873   2.066   0.218  0.9628  2.6457 -2.4715
  704SOL    HW2 2112   3.031   2.004   0.218  0.4314 -0.3733  1.0932
  705SOL     OW 2113   2.547   0.321   2.011 -0.4368 -0.2206 -0.6120
  705SOL    HW1 2114   2.566   0.347   1.914  0.4201  3.0913 -0.8659
  705SOL    HW2 2115   2.525   0.221   2.018 -0.6575  1.9526  0.5363
  706SOL     OW 2116   2.216   3.012   1.067 -0.2640  0.0204  0.2721
  706SOL    HW1 2117   2.232   2.924   1.116  0.3231  0.2542 -2.4097
  706SOL    HW2 2118   2.269   3.085   1.106 -2.1567 -1.5290 -0.3339
  707SOL     OW 2119   0.810   2.826   2.359  0.1716  0.2870 -0.3162
  707SOL    HW1 2120   0.819   2.751   2.288 -0.0736 -0.8544 -1.2788
  707SOL    HW2 2121   0.731   2.885   2.340  1.9530 -0.2791  0.1473
  708SOL     OW 2122   2.912   2.416   1.806 -0.3209 -0.1490  0.0975
  708SOL    HW1 2123   2.900   2.436   1.904  1.1426 -2.4466  0.0967
  708SOL    HW2 2124   2.995   2.464   1.773 -1.8233  3.1420 -1.5696
  709SOL     OW 2125   1.747   0.563   1.565  0.7261  0.0474  0.0481
  709SOL    HW1 2126   1.804   0.525   1.487  1.0049  0.7287 -2.4094
  709SOL    HW2 2127   1.797   0.612   1.636 -0.9335  0.1276 -4.5296
  710SOL     OW 2128   0.996   3.104   2.624  0.5668 -0.2341 -0.2152
  710SOL    HW1 2129   1.032   3.013   2.587 -3.3634 -1.9412 -1.4241
  710SOL    HW2 2130   1.072   0.068   2.615 -1.9100  2.7413 -2.4955
  711SOL     OW 2131   0.692   1.922   2.704  0.1517 -0.1440  0.5209
  711SOL    HW1 2132   0.602   1.966   2.726 -0.5698 -0.5042 -3.0069
  711SOL    HW2 2133   0.731   1.865   2.778 -2.6398  0.2364 -0.2415
  712SOL     OW 2134   0.984   2.117   2.988  0.0455  0.1364  0.0082
  712SOL    HW1 2135   0.935   2.068   3.063  2.9231  1.8188 -0.6689
  712SOL    HW2 2136   1.037   2.062   2.924  0.7685  0.3342  1.3988
  713SOL     OW 2137   1.879   0.803   2.335  0.3026  0.1039 -0.7248
  713SOL    HW1 2138   1.955   0.869   2.356  0.9810 -1.4869  0.0248
  713SOL    HW2 2139   1.838   0.769   2.425  0.3665 -0.7806  1.8628
  714SOL     OW 2140   1.299   1.803   1.882 -0.8119 -0.5340 -0.2397
  714SOL    HW1 2141   1.265   1.876   1.947  0.0992  0.0196 -1.7420
  714SOL    HW2 2142   1.221   1.752   1.843 -0.4961  0.7613 -0.7487
  715SOL     OW 2143   2.006   0.170   2.970 -0.4048 -0.3955  0.0791
  715SOL    HW1 2144   2.060   0.212   3.047  2.1220  0.5567  2.6409
  715SOL    HW2 2145   2.049   0.183   2.878  1.6964 -4.5294 -1.2738
  716SOL     OW 2146   2.787   2.417   1.534 -0.0803 -0.1491  0.0698
  716SOL    HW1 2147   2.805   2.417   1.634 -2.7673 -1.5616 -4.1684
  716SOL    HW2 2148   2.858   2.478   1.492 -0.6919 -0.4241  0.1937
  717SOL     OW 2149   2.588   1.154   0.855 -0.2458 -0.1320  0.1430
  717SOL    HW1 2150   2.500   1.105   0.863  1.6180 -0.0264 -2.6863
  717SOL    HW2 2151   2.640   1.112   0.777  1.9136  3.1389 -0.9541
  718SOL     OW 2152   1.485   1.681   1.627  0.0779  0.1273  0.0408
  718SOL    HW1 2153   1.579   1.704   1.611 -1.5654 -0.0710  2.4003
  718SOL    HW2 2154   1.456   1.719   1.719  0.2303  0.7332  2.3199
  719SOL     OW 2155   2.710   0.368   0.162  0.1160 -0.1845  0.3767
  719SOL    HW1 2156   2.659   0.446   0.118 -0.9281  0.0596 -1.6772
  719SOL    HW2 2157   2.809   0.375   0.136 -1.3197  0.9651 -1.8881
  720SOL     OW 2158   0.791   0.358   0.983  0.1124 -0.1761  0.6568
  720SOL    HW1 2159   0.686   0.378   0.981 -1.5854 -2.1355  3.0912
  720SOL    HW2 2160   0.812   0.295   0.901 -0.0440  1.5049 -2.5305
  721SOL     OW 2161   2.600   0.836   0.605  0.3298  0.3612 -0.0178
  721SOL    HW1 2162   2.620   0.786   0.519  4.9577 -1.1315 -1.3752
  721SOL    HW2 2163   2.656   0.918   0.616  0.0196 -1.4753  4.1482
  722SOL     OW 2164   0.525   2.512   2.361 -0.8825  0.6750 -0.0761
  722SOL    HW1 2165   0.587   2.433   2.379 -0.3301 -1.3196  3.3091
  722SOL    HW2 2166   0.501   2.515   2.262  0.7207 -2.1337  1.3576
  723SOL     OW 2167   1.709   0.139   0.475  0.1005  0.2057  0.0136
  723SOL    HW1 2168   1.726   0.041   0.492  1.4984 -0.7948  0.6519
  723SOL    HW2 2169   1.772   0.194   0.533 -1.3230 -2.1306 -0.6048
  724SOL     OW 2170   0.984   1.811   2.247 -0.0854 -1.2611 -0.2191
  724SOL    HW1 2171   0.939   1.840   2.336 -0.4537 -0.7235 -0.7363
  724SOL    HW2 2172   0.936   1.757   2.183  1.8837  0.6960  0.1579
  725SOL     OW 2173   1.666   0.036   1.216 -0.3614 -0.7492  0.5901
  725SOL    HW1 2174   1.576   0.076   1.185 -1.8068  2.2119 -1.8891
  725SOL    HW2 2175   1.650   3.100   1.306 -0.6302  0.4120  0.0132
  726SOL     OW 2176   2.386   2.854   0.378 -0.0199 -0.2333 -0.8304
  726SOL    HW1 2177   2.390   2.955   0.394  2.0114 -1.6287 -1.9097
  726SOL    HW2 2178   2.467   2.813   0.331 -2.3692  1.6934 -0.1104
  727SOL     OW 2179   1.258   2.090   0.884 -0.5228  0.7112 -0.8715
  727SOL    HW1 2180   1.335   2.040   0.839 -0.9197 -2.7372 -0.8738
  727SOL    HW2 2181   1.192   2.117   0.816  3.7868 -0.0449  2.1497
  728SOL     OW 2182   2.390   2.698   2.253 -0.4971  0.1146 -0.0033
  728SOL    HW1 2183   2.369   2.726   2.159  0.4691 -1.9315  0.6542
  728SOL    HW2 2184   2.349   2.755   2.328  1.0415 -0.2878 -0.5326
  729SOL     OW 2185   1.955   2.315   1.391  0.1028 -0.1371 -0.4123
  729SOL    HW1 2186   1.996   2.400   1.353  0.7181 -1.5711 -0.6079
  729SOL    HW2 2187   1.953   2.243   1.320 -1.5502  1.4012  1.3131
  730SOL     OW 2188   1.585   0.782   2.886  0.1366 -0.0021 -0.1535
  730SOL    HW1 2189   1.492   0.763   2.924  0.2121 -0.3659  1.4732
  730SOL    HW2 2190   1.586   0.767   2.783  0.4377 -0.5581 -3.4391
  731SOL     OW 2191   0.989   0.127   1.251 -0.3041  0.5609 -0.1132
  731SOL    HW1 2192   1.035   0.118   1.162  0.5930  0.4514 -1.6838
  731SOL    HW2 2193   1.034   0.066   1.317 -0.8585  1.2987 -1.4366
  732SOL     OW 2194   1.490   0.242   1.012 -0.0167  0.0307  0.0024
  732SOL    HW1 2195   1.407   0.256   0.953 -1.0056 -0.9542 -0.2767
  732SOL    HW2 2196   1.565   0.189   0.965 -0.9367 -1.4912 -1.1721
  733SOL     OW 2197   0.895   1.205   1.004 -0.4403 -0.5644  0.1635
  733SOL    HW1 2198   0.912   1.104   1.010 -1.6375  0.8267 -0.5264
  733SOL    HW2 2199   0.821   1.236   1.064  2.4422 -2.1816 -1.2582
  734SOL     OW 2200   2.943   2.488   2.507  0.0723 -0.0043 -0.5211
  734SOL    HW1 2201   2.850   2.448   2.532 -1.4682 -0.9764  0.7855
  734SOL    HW2 2202   2.935   2.585   2.515 -1.1581  0.6302  0.1640
  735SOL     OW 2203   1.037   3.025   1.413 -0.1335  0.5123  0.1221
  735SOL    HW1 2204   1.106   2.971   1.361  3.1193 -1.5078 -1.1080
  735SOL    HW2 2205   0.960   2.967   1.447 -0.9935 -0.7984  1.9763
  736SOL     OW 2206   1.599   1.788   3.043  0.1506  0.4774  0.3716
  736SOL    HW1 2207   1.618   1.814   2.946 -0.1888  1.2227  2.7806
  736SOL    HW2 2208   1.603   1.872   3.095 -1.9912 -0.1923 -0.1223
  737SOL     OW 2209   0.186   2.165   1.368  0.1196 -0.0382  0.0273
  737SOL    HW1 2210   0.224   2.145   1.277  0.5360 -3.1602  4.6994
  737SOL    HW2 2211   0.084   2.144   1.373 -0.3040 -1.1709  0.7736
  738SOL     OW 2212   1.856   2.523   2.908  0.3147 -0.2370 -0.9972
  738SOL    HW1 2213   1.794   2.600   2.889 -1.0480  0.1599  0.2112
  738SOL    HW2 2214   1.864   2.496   3.008 -1.8115 -0.4948 -1.1856
  739SOL     OW 2215   1.282   2.218   2.489  0.0735  0.5206 -0.0101
  739SOL    HW1 2216   1.295   2.316   2.513 -2.8314 -0.1413  0.5821
  739SOL    HW2 2217   1.284   2.154   2.571  0.0236 -1.1478 -0.9687
  740SOL     OW 2218   1.262   2.649   1.049  0.1776  0.2647 -0.2906
  740SOL    HW1 2219   1.258   2.570   0.985 -0.3386  0.9372 -1.9448
  740SOL    HW2 2220   1.324   2.721   1.015  0.7849 -0.7192 -0.4180
  741SOL     OW 2221   2.924   1.042   0.313  0.2820 -0.0981  0.0263
  741SOL    HW1 2222   2.878   1.109   0.375  2.1523  1.0271 -0.5929
  741SOL    HW2 2223   2.995   1.095   0.257  0.5190  1.9433 -1.6455
  742SOL     OW 2224   0.926   1.631   2.505  0.1740 -0.2765 -0.0867
  742SOL    HW1 2225   1.027   1.629   2.502 -3.3603 -0.6492  1.1587
  742SOL    HW2 2226   0.881   1.724   2.504 -1.2306  1.2067 -0.3148
  743SOL     OW 2227   1.004   0.835   2.331  0.5840 -0.2799 -0.0612
  743SOL    HW1 2228   0.909   0.872   2.321  0.1646  1.8829 -2.9639
  743SOL    HW2 2229   0.994   0.735   2.345 -3.4162  1.6346  2.6224
  744SOL     OW 2230   2.155   2.735   1.588 -0.6436 -0.5701 -0.7525
  744SOL    HW1 2231   2.175   2.713   1.685  0.8653 -1.0045 -0.4070
  744SOL    HW2 2232   2.156   2.833   1.564  0.2436 -1.7242  0.9261
  745SOL     OW 2233   1.720   1.446   1.348  0.0313 -0.1231  0.1744
  745SOL    HW1 2234   1.622   1.443   1.380  1.4098 -1.2716 -1.1294
  745SOL    HW2 2235   1.782   1.470   1.421 -0.8192  1.0681 -2.5665
  746SOL     OW 2236   1.747   0.926   0.770 -0.0403  0.4392  0.3318
  746SOL    HW1 2237   1.851   0.924   0.777  1.9671  0.9293  0.0420
  746SOL    HW2 2238   1.710   0.895   0.863 -0.6571 -1.7791  1.0685
  747SOL     OW 2239   2.176   1.714   0.947 -0.7122  0.6300 -0.2048
  747SOL    HW1 2240   2.095   1.770   0.925 -0.9166  1.2280 -1.1361
  747SOL    HW2 2241   2.150   1.620   0.979 -0.7609  2.1581 -1.8393
  748SOL     OW 2242   0.263   1.494   0.039 -0.4653  0.7193  0.8426
  748SOL    HW1 2243   0.289   1.591   0.021  0.3339 -1.1180  1.2693
  748SOL    HW2 2244   0.340   1.429   0.024  1.6970 -1.0210 -0.0669
  749SOL     OW 2245   0.054   2.396   2.381 -0.1194  0.0026 -0.1521
  749SOL    HW1 2246   0.089   2.313   2.424  2.5101  2.7483  0.5125
  749SOL    HW2 2247   3.086   2.440   2.442 -1.9903 -0.2058  2.6488
  750SOL     OW 2248   2.119   0.716   1.181  0.2674 -0.6147  0.3886
  750SOL    HW1 2249   2.208   0.678   1.213 -1.0482  2.5771  0.8868
  750SOL    HW2 2250   2.074   0.785   1.239  1.5056 -0.6891 -0.1873
  751SOL     OW 2251   2.742   2.993   0.328 -0.5955  0.4041  0.3749
  751SOL    HW1 2252   2.728   2.975   0.226  2.5187  0.1754 -3.5019
  751SOL    HW2 2253   2.771   2.907   0.371 -1.4483 -0.5543 -0.4164
  752SOL     OW 2254   2.634   2.553   0.665  0.3628  0.2309  0.0090
  752SOL    HW1 2255   2.534   2.536   0.644 -2.7176 -0.8339 -0.4014
  752SOL    HW2 2256   2.647   2.616   0.744  1.2788  0.3896 -0.6882
  753SOL     OW 2257   1.967   1.456   2.287  0.3391  0.1339  0.1461
  753SOL    HW1 2258   2.029   1.479   2.366 -1.6842  2.7683  0.2292
  753SOL    HW2 2259   1.975   1.520   2.209  1.6147  1.2522 -0.2410
  754SOL     OW 2260   2.330   2.354   1.464  0.6632 -0.3868  0.1591
  754SOL    HW1 2261   2.378   2.273   1.426 -1.7840 -1.0245 -2.0376
  754SOL    HW2 2262   2.287   2.328   1.557 -2.3256 -2.4073  1.2257
  755SOL     OW 2263   2.459   0.844   1.075  0.2069 -0.4021 -0.0353
  755SOL    HW1 2264   2.534   0.789   1.045  0.9869  1.3994  1.4354
  755SOL    HW2 2265   2.388   0.787   1.114  1.6096 -0.1521 -2.9750
  756SOL     OW 2266   1.057   1.368   2.948 -0.5222  0.0793  0.4126
  756SOL    HW1 2267   1.024   1.375   2.850 -1.2982 -1.6800 -0.3625
  756SOL    HW2 2268   0.981   1.350   3.012  1.7064 -1.4922 -0.7112
  757SOL     OW 2269   1.806   2.621   1.053  0.0874  0.4059  0.3178
  757SOL    HW1 2270   1.820   2.705   1.102  0.2903 -0.3008 -1.4162
  757SOL    HW2 2271   1.704   2.609   1.033 -3.4740 -0.9227  2.3535
  758SOL     OW 2272   0.939   2.474   1.251  0.4328 -0.2150 -0.8348
  758SOL    HW1 2273   0.999   2.465   1.338  0.7377 -1.4179  3.3234
  758SOL    HW2 2274   0.978   2.423   1.173  0.0243  1.8659  0.9737
  759SOL     OW 2275   2.154   1.251   0.934 -0.0706  0.4328  0.3226
  759SOL    HW1 2276   2.215   1.308   0.990 -1.9553 -0.0503  0.6400
  759SOL    HW2 2277   2.135   1.293   0.842  1.5386  0.4295  1.4122
  760SOL     OW 2278   2.146   1.085   1.566 -0.2977 -0.3777  0.5373
  760SOL    HW1 2279   2.098   1.032   1.491 -2.0558  0.8996 -1.6209
  760SOL    HW2 2280   2.122   1.184   1.553  1.5744 -1.5186 -1.4477
  761SOL     OW 2281   2.161   2.733   0.467  0.1388  0.0057 -0.7239
  761SOL    HW1 2282   2.074   2.787   0.455 -2.4715  0.1706 -0.8253
  761SOL    HW2 2283   2.244   2.780   0.433  0.6294 -3.2528  1.4843
  762SOL     OW 2284   1.991   1.487   2.877  0.0914 -0.0215 -0.0564
  762SOL    HW1 2285   2.023   1.558   2.816  1.1368  0.1363  1.3629
  762SOL    HW2 2286   1.946   1.539   2.953  1.6225  1.8461 -0.7701
  763SOL     OW 2287   0.518   1.750   1.488  0.0127  0.3732 -0.3152
  763SOL    HW1 2288   0.481   1.842   1.468  0.6509 -0.4299  0.3284
  763SOL    HW2 2289   0.522   1.721   1.586 -1.5623  1.8731 -0.6673
  764SOL     OW 2290   0.105   2.405   3.024  0.6970  0.1566  0.4574
  764SOL    HW1 2291   0.039   2.374   3.094  1.9387 -0.6831  1.7666
  764SOL    HW2 2292   0.061   2.443   2.941  2.8378  2.6514  2.0759
  765SOL     OW 2293   0.555   0.148   1.524  0.1311 -0.0603 -0.1940
  765SOL    HW1 2294   0.653   0.124   1.507 -0.6160 -1.8841  1.0604
  765SOL    HW2 2295   0.554   0.190   1.617 -0.8897 -3.4857 -1.6302
  766SOL     OW 2296   0.046   1.994   2.252  0.1570  0.7471  0.8518
  766SOL    HW1 2297   3.083   2.073   2.240  1.8702  0.3700 -2.7459
  766SOL    HW2 2298   3.097   1.909   2.275  1.5315 -1.5884  1.1717
  767SOL     OW 2299   3.032   1.351   1.772 -0.0293  0.2905  0.1885
  767SOL    HW1 2300   3.080   1.269   1.810  0.2102  1.0302  0.3851
  767SOL    HW2 2301   2.970   1.314   1.700  0.6895 -1.7241 -0.2352
  768SOL     OW 2302   0.885   0.392   2.924 -0.3031  0.3796 -0.3170
  768SOL    HW1 2303   0.849   0.330   2.998 -3.6604 -1.0621 -2.3992
  768SOL    HW2 2304   0.812   0.399   2.852 -1.1605 -3.2592 -0.2134
  769SOL     OW 2305   2.234   2.512   0.883 -0.3345  0.0815 -0.0889
  769SOL    HW1 2306   2.305   2.524   0.951 -2.9768 -0.8322 -3.0020
  769SOL    HW2 2307   2.237   2.592   0.821  0.5631 -1.7859 -1.3445
  770SOL     OW 2308   2.806   0.028   2.894  0.1313  0.0795 -0.1964
  770SOL    HW1 2309   2.773   0.032   2.992 -0.7182 -0.4775  2.8318
  770SOL    HW2 2310   2.746   3.067   2.850  1.0619 -0.7815  1.3801
  771SOL     OW 2311   1.849   2.231   1.800  0.0085 -0.5502 -0.0356
  771SOL    HW1 2312   1.933   2.237   1.735  1.3652  1.8166 -2.2023
  771SOL    HW2 2313   1.753   2.220   1.757  0.3718 -1.0932  0.8410
  772SOL     OW 2314   1.128   0.240   2.974 -0.3140  0.1919 -0.6475
  772SOL    HW1 2315   1.077   0.327   2.993  1.9032  2.9905 -1.4469
  772SOL    HW2 2316   1.128   0.222   2.876 -1.1929 -0.3880  0.3358
  773SOL     OW 2317   3.029   0.904   1.800  0.4350 -0.7623 -0.1311
  773SOL    HW1 2318   3.045   0.832   1.870 -0.0765 -0.0995  0.5658
  773SOL    HW2 2319   0.010   0.959   1.796  0.1834 -2.0795  3.6392
  774SOL     OW 2320   1.083   0.802   0.458 -0.5105 -0.3965 -0.3097
  774SOL    HW1 2321   1.039   0.879   0.407 -3.2909  1.1827 -0.6455
  774SOL    HW2 2322   1.137   0.841   0.532  1.0368  0.0195 -0.9191
  775SOL     OW 2323   2.714   2.997   0.053 -0.6663  0.0640 -0.0625
  775SOL    HW1 2324   2.649   3.071   0.028  1.1614  1.1664  1.4224
  775SOL    HW2 2325   2.734   2.921   3.091 -0.9460  0.1378 -2.5484
  776SOL     OW 2326   2.511   1.076   2.128  0.0413 -0.0162  0.0081
  776SOL    HW1 2327   2.492   1.069   2.026  2.5453  1.6774  1.0205
  776SOL    HW2 2328   2.540   0.985   2.164  2.4841  0.4918 -0.4670
  777SOL     OW 2329   2.997   1.061   2.789  0.0589 -0.3129  0.6110
  777SOL    HW1 2330   3.065   1.062   2.710 -2.1008 -2.4436 -1.1375
  777SOL    HW2 2331   2.924   1.129   2.778 -0.6626 -0.4176  0.2247
  778SOL     OW 2332   0.615   0.322   0.364  0.0764 -0.0691  0.2051
  778SOL    HW1 2333   0.688   0.340   0.298  0.1795 -0.1011 -1.5752
  778SOL    HW2 2334   0.600   0.221   0.374 -0.6307  0.5316  0.0461
  779SOL     OW 2335   0.451   0.646   2.822 -0.5233  0.4191 -0.1475
  779SOL    HW1 2336   0.507   0.687   2.898 -0.9987  1.4076  2.7114
  779SOL    HW2 2337   0.385   0.577   2.854  0.3536 -0.9749 -1.4937
  780SOL     OW 2338   1.565   0.747   2.615  0.3875 -0.2234  0.2102
  780SOL    HW1 2339   1.513   0.666   2.642  2.6992  5.3746 -0.5066
  780SOL    HW2 2340   1.666   0.736   2.603 -0.7161  2.4510 -0.9497
  781SOL     OW 2341   0.177   1.106   1.837  0.0275 -0.6964  0.3999
  781SOL    HW1 2342   0.224   1.017   1.866 -0.0941 -0.2743 -1.8866
  781SOL    HW2 2343   0.207   1.186   1.895  0.5280  1.4588  1.1499
  782SOL     OW 2344   0.747   1.766   2.923 -0.0615  0.4089 -0.7766
  782SOL    HW1 2345   0.685   1.785   2.999  2.9643 -2.7752 -0.8137
  782SOL    HW2 2346   0.840   1.763   2.961 -0.2119  0.5192  0.2500
  783SOL     OW 2347   1.008   2.679   1.665  0.8157 -0.5137 -0.7743
  783SOL    HW1 2348   0.943   2.746   1.620  0.4688  0.9623 -0.7065
  783SOL    HW2 2349   1.037   2.608   1.601  0.7407  1.0782  0.6946
  784SOL     OW 2350   1.399   0.235   2.990  0.2343 -0.1149  0.1061
  784SOL    HW1 2351   1.298   0.247   3.004  2.0165  1.9660  3.2488
  784SOL    HW2 2352   1.446   0.324   2.988  1.0542  2.1034  0.8230
  785SOL     OW 2353   1.168   0.413   2.243 -0.1204 -0.1982 -0.2030
  785SOL    HW1 2354   1.103   0.333   2.234  0.1306  0.9621 -0.9804
  785SOL    HW2 2355   1.241   0.406   2.311  0.3011 -1.7097 -0.0313
  786SOL     OW 2356   0.660   1.860   0.427 -0.6376  0.1901 -0.4587
  786SOL    HW1 2357   0.618   1.766   0.408 -1.0035 -2.3631  0.8135
  786SOL    HW2 2358   0.592   1.923   0.471  0.6893  1.0682  0.9892
  787SOL     OW 2359   1.440   0.924   0.298  0.3680  0.2528  0.3958
  787SOL    HW1 2360   1.400   1.003   0.246  0.6539 -1.6936  1.0850
  787SOL    HW2 2361   1.453   0.947   0.397  1.9541 -2.6315 -1.7719
  788SOL     OW 2362   2.125   1.511   1.225  0.5124  0.2275  0.0698
  788SOL    HW1 2363   2.187   1.492   1.148 -1.2740  0.0437  2.0951
  788SOL    HW2 2364   2.181   1.560   1.291  2.0191  3.2267 -0.8127
  789SOL     OW 2365   0.052   1.557   1.935  0.3361  0.0287 -0.2772
  789SOL    HW1 2366   0.114   1.602   1.863  0.6321  2.0986  0.1811
  789SOL    HW2 2367   0.029   1.460   1.912  1.0408  0.8625  1.2774
  790SOL     OW 2368   0.574   2.985   0.155 -0.4708 -0.0552 -0.0735
  790SOL    HW1 2369   0.516   2.901   0.159 -3.6725 -0.9575 -0.3323
  790SOL    HW2 2370   0.560   3.038   0.239 -2.7440  0.8670  0.7220
  791SOL     OW 2371   0.357   0.548   0.116  0.1978 -0.0542  0.3386
  791SOL    HW1 2372   0.362   0.529   0.217  2.3556  0.2899 -0.1905
  791SOL    HW2 2373   0.424   0.495   0.064  0.7997  1.4217  0.5249
  792SOL     OW 2374   1.607   0.496   2.377  0.0583  0.0369  0.2029
  792SOL    HW1 2375   1.648   0.488   2.470 -1.6079 -1.6330  1.6278
  792SOL    HW2 2376   1.681   0.478   2.312 -0.6155 -2.1404  2.1122
  793SOL     OW 2377   3.066   0.496   0.705  0.0264  0.0096  0.2941
  793SOL    HW1 2378   3.073   0.590   0.660 -0.1309 -0.2390 -0.0277
  793SOL    HW2 2379   0.021   0.488   0.790  2.6938 -0.8213  1.8781
  794SOL     OW 2380   0.452   0.522   1.730  0.3003  0.6566  0.1838
  794SOL    HW1 2381   0.486   0.612   1.715 -0.1131 -6.3903  1.2313
  794SOL    HW2 2382   0.381   0.498   1.664  1.3000  2.0140  1.6308
  795SOL     OW 2383   3.087   1.160   0.115  0.1138 -0.4086  0.4076
  795SOL    HW1 2384   3.102   1.256   0.143  0.4410  0.3811 -1.5690
  795SOL    HW2 2385   3.104   1.159   0.015 -0.4072  0.8666  0.5748
  796SOL     OW 2386   0.300   0.794   0.013  0.1535 -0.0557 -0.4732
  796SOL    HW1 2387   0.319   0.695   0.034  0.2972 -1.2743 -2.3080
  796SOL    HW2 2388   0.246   0.831   0.093 -0.2496 -1.5975  1.5665
  797SOL     OW 2389   1.444   2.634   0.138  0.1475 -0.1127 -0.0963
  797SOL    HW1 2390   1.503   2.707   0.102 -2.7945 -1.3739  1.2836
  797SOL    HW2 2391   1.409   2.578   0.063 -0.7477  2.0338 -0.1999
  798SOL     OW 2392   2.910   0.557   1.282  0.2759 -0.6166  0.2837
  798SOL    HW1 2393   2.975   0.490   1.240  1.1333  1.3454 -0.8167
  798SOL    HW2 2394   2.853   0.593   1.209 -0.2706  0.4325  0.7892
  799SOL     OW 2395   2.387   0.731   2.052  0.0404 -0.1503  0.3556
  799SOL    HW1 2396   2.436   0.744   1.964 -1.0583  0.8757 -1.3657
  799SOL    HW2 2397   2.412   0.800   2.118  0.7939  0.3644  0.6085
  800SOL     OW 2398   0.263   1.895   0.527 -0.4685 -0.0635  0.1515
  800SOL    HW1 2399   0.177   1.894   0.588 -1.6251 -1.7875 -2.5497
  800SOL    HW2 2400   0.322   1.979   0.526 -0.7210  1.8104 -0.2407
  801SOL     OW 2401   1.510   1.976   0.798  0.3275 -0.4644  0.1718
  801SOL    HW1 2402   1.528   1.920   0.713 -3.9963  0.3891 -0.0266
  801SOL    HW2 2403   1.554   1.941   0.884  0.6477 -0.7127 -0.5350
  802SOL     OW 2404   1.193   1.535   2.644 -0.7332  0.0870 -0.2961
  802SOL    HW1 2405   1.160   1.439   2.618 -3.0537 -2.9102 -0.8628
  802SOL    HW2 2406   1.292   1.554   2.638 -2.0678  1.1012  0.9264
  803SOL     OW 2407   2.994   2.165   1.641 -0.3129 -0.1861  0.0863
  803SOL    HW1 2408   2.999   2.184   1.540  1.2596 -2.1164 -1.0582
  803SOL    HW2 2409   3.070   2.209   1.693 -2.7391 -0.7009  1.1146
  804SOL     OW 2410   1.259   2.611   1.330  0.3291 -0.1234 -0.6047
  804SOL    HW1 2411   1.359   2.614   1.357 -0.5547 -2.0285  0.5201
  804SOL    HW2 2412   1.252   2.601   1.226 -2.2869 -1.1701  0.9394
  805SOL     OW 2413   2.214   2.047   2.675  0.4608 -0.1036 -0.1044
  805SOL    HW1 2414   2.253   2.127   2.721 -0.5971 -2.4616  1.9206
  805SOL    HW2 2415   2.187   2.070   2.578 -0.0824 -3.3427  2.0309
  806SOL     OW 2416   2.218   0.141   0.721  0.1065  0.9128 -0.2649
  806SOL    HW1 2417   2.198   0.161   0.820  1.6164  0.4102 -1.5541
  806SOL    HW2 2418   2.276   0.061   0.709 -1.7019 -1.8724  1.0986
  807SOL     OW 2419   2.733   0.773   2.763  0.3751  0.0096 -0.0895
  807SOL    HW1 2420   2.661   0.709   2.796  0.6567  2.4300 -1.1726
  807SOL    HW2 2421   2.701   0.869   2.736  0.3074  3.6480 -0.2001
  808SOL     OW 2422   0.772   1.255   0.543 -0.2689 -0.0576 -0.2026
  808SOL    HW1 2423   0.695   1.302   0.589  0.3933 -2.6499 -1.9644
  808SOL    HW2 2424   0.844   1.230   0.611 -1.5562 -1.6467  0.7348
  809SOL     OW 2425   2.691   0.490   2.179 -0.0980  0.1958  0.3154
  809SOL    HW1 2426   2.658   0.398   2.148  3.0590  1.3014  0.2051
  809SOL    HW2 2427   2.679   0.558   2.107  1.7766  0.4761  0.9101
  810SOL     OW 2428   1.187   0.533   1.252 -0.0550  0.0045  0.6696
  810SOL    HW1 2429   1.135   0.490   1.171  0.7560 -0.0715  0.6665
  810SOL    HW2 2430   1.282   0.514   1.225  0.3230 -0.6171 -3.4850
  811SOL     OW 2431   2.347   0.030   1.671  0.1797  0.1542 -0.7438
  811SOL    HW1 2432   2.272   0.094   1.680  2.9816 -2.6528  1.5321
  811SOL    HW2 2433   2.383   0.002   1.761  2.4919  0.6573  1.2966
  812SOL     OW 2434   1.624   2.069   0.037  0.6276  0.2756 -0.1254
  812SOL    HW1 2435   1.533   2.083   0.080 -0.4952  0.7381  1.5648
  812SOL    HW2 2436   1.699   2.077   0.104 -0.4601 -2.7518  0.4232
  813SOL     OW 2437   1.271   0.697   1.663  0.2570 -0.4359  0.5606
  813SOL    HW1 2438   1.234   0.604   1.642 -0.5607  1.1409  1.1435
  813SOL    HW2 2439   1.343   0.730   1.597  2.2082  2.0966  1.2236
  814SOL     OW 2440   0.381   0.465   1.333  0.2083 -0.1859 -0.3386
  814SOL    HW1 2441   0.478   0.470   1.357  1.3978  1.4080  0.2797
  814SOL    HW2 2442   0.337   0.414   1.413  2.4816 -2.6149  1.7547
  815SOL     OW 2443   0.659   0.380   0.625  0.2048 -0.4689  0.5138
  815SOL    HW1 2444   0.663   0.350   0.525  1.2358 -0.3713 -4.9271
  815SOL    HW2 2445   0.559   0.395   0.644  1.1985 -2.3183  0.8487
  816SOL     OW 2446   2.171   1.332   2.522 -0.1446  0.4342  0.7740
  816SOL    HW1 2447   2.203   1.291   2.608 -2.1102  1.0404 -0.5068
  816SOL    HW2 2448   2.233   1.402   2.490  0.8274 -2.1821  1.7609
  817SOL     OW 2449   1.102   2.821   0.590  0.1238  0.4393  0.3187
  817SOL    HW1 2450   1.118   2.727   0.623 -0.5579 -0.0330  2.2447
  817SOL    HW2 2451   1.186   2.862   0.547 -0.3319 -1.1835 -2.2873
  818SOL     OW 2452   1.789   0.507   2.908 -0.2253  0.1479 -0.2913
  818SOL    HW1 2453   1.835   0.514   2.996 -3.7236 -2.9459  0.5657
  818SOL    HW2 2454   1.816   0.583   2.837  2.6860  5.3364 -3.2826
  819SOL     OW 2455   1.901   0.019   0.081 -0.4637  0.1105 -0.1277
  819SOL    HW1 2456   1.930   3.027   0.086  0.6859  2.5279  2.7038
  819SOL    HW2 2457   1.936   0.064   3.102  1.9900  1.8246  1.9776
  820SOL     OW 2458   1.972   0.553   0.041  0.2126  0.5626 -0.4969
  820SOL    HW1 2459   1.969   0.656   0.037  2.3677 -0.9967 -1.1273
  820SOL    HW2 2460   2.049   0.519   3.094 -0.9283 -0.2817 -1.6443
  821SOL     OW 2461   2.799   0.419   0.766 -0.4532 -0.2825  0.6937
  821SOL    HW1 2462   2.890   0.459   0.756 -3.3261  1.1383 -0.8796
  821SOL    HW2 2463   2.785   0.334   0.710 -0.7423  0.3680 -4.4573
  822SOL     OW 2464   0.930   2.265   2.010 -0.4683  0.5053  0.0033
  822SOL    HW1 2465   0.840   2.314   2.025 -3.0537 -0.4994  1.8779
  822SOL    HW2 2466   0.918   2.167   2.002  1.7658  0.6877  0.4391
  823SOL     OW 2467   0.232   1.625   1.727 -0.2905  0.0811 -0.0643
  823SOL    HW1 2468   0.331   1.613   1.731  2.1191  0.6697  1.7897
  823SOL    HW2 2469   0.193   1.594   1.637  0.0297  0.0028 -2.4428
  824SOL     OW 2470   1.446   2.821   2.558  0.3638 -0.6976 -0.2020
  824SOL    HW1 2471   1.516   2.746   2.560 -0.7290  0.5281 -0.1747
  824SOL    HW2 2472   1.424   2.843   2.658 -0.8186  1.2760  2.1426
  825SOL     OW 2473   1.652   0.743   0.547  0.1733 -0.3573  0.0376
  825SOL    HW1 2474   1.712   0.728   0.463  0.9508 -0.0793 -0.1566
  825SOL    HW2 2475   1.689   0.812   0.613  0.6098 -1.2158 -1.6457
  826SOL     OW 2476   1.971   0.826   3.099 -0.0168  0.1226 -0.1863
  826SOL    HW1 2477   2.011   0.836   0.086 -2.9117 -0.1234  2.0171
  826SOL    HW2 2478   1.895   0.897   3.079 -2.3305  1.1076 -0.2173
  827SOL     OW 2479   0.371   1.782   1.972  0.1519  1.0583  0.3218
  827SOL    HW1 2480   0.323   1.852   2.029  0.3308  1.5227 -0.4208
  827SOL    HW2 2481   0.349   1.689   2.012 -1.2194 -2.4176  3.2494
  828SOL     OW 2482   2.360   1.358   1.566  0.3896 -0.1622  0.1203
  828SOL    HW1 2483   2.392   1.346   1.667 -0.7782  2.5153  2.5456
  828SOL    HW2 2484   2.419   1.303   1.502  1.5676  0.5471 -1.0340
  829SOL     OW 2485   0.296   1.644   0.415  0.4379  0.9347 -0.5576
  829SOL    HW1 2486   0.268   1.557   0.464  1.0404  2.8538 -1.4256
  829SOL    HW2 2487   0.246   1.720   0.466  2.2206  1.7159  0.3132
  830SOL     OW 2488   1.431   0.830   0.811 -0.5483  0.2675 -0.5349
  830SOL    HW1 2489   1.530   0.818   0.786  2.8748  2.3421 -0.4099
  830SOL    HW2 2490   1.381   0.743   0.824  0.3243  2.5367 -0.8702
  831SOL     OW 2491   2.911   1.818   3.049  0.5824  0.1167  0.0729
  831SOL    HW1 2492   2.861   1.874   2.982  2.0841 -0.0504  1.0721
  831SOL    HW2 2493   2.852   1.799   0.023  3.7643 -0.6341 -0.9756
  832SOL     OW 2494   0.832   0.277   0.074  0.1555  0.3531  0.3096
  832SOL    HW1 2495   0.845   0.371   0.115 -0.3038  1.6222  2.1026
  832SOL    HW2 2496   0.857   0.203   0.138 -1.3937 -0.4884  0.1196
  833SOL     OW 2497   0.627   0.662   2.341  0.7468  0.0219 -0.0259
  833SOL    HW1 2498   0.665   0.593   2.275  0.2829 -0.5339  0.2317
  833SOL    HW2 2499   0.597   0.623   2.428 -0.9077  1.3860  1.7785
  834SOL     OW 2500   0.405   0.397   0.715  0.5356  0.2914 -0.0816
  834SOL    HW1 2501   0.399   0.335   0.798  0.8805 -4.5772  1.0479
  834SOL    HW2 2502   0.335   0.370   0.644 -0.8364 -0.6740  1.5539
  835SOL     OW 2503   2.757   2.845   1.202 -0.0834  0.3798  0.4665
  835SOL    HW1 2504   2.726   2.922   1.263  0.5107  0.8251  1.6189
  835SOL    HW2 2505   2.738   2.874   1.109 -0.9027 -1.8608 -0.3606
  836SOL     OW 2506   0.399   1.889   0.201 -0.0444 -0.2173 -0.6728
  836SOL    HW1 2507   0.410   1.992   0.214 -1.6328  1.1694  2.0416
  836SOL    HW2 2508   0.416   1.843   0.289  0.7953 -1.2387 -0.2446
  837SOL     OW 2509   1.697   1.476   2.271 -0.5428 -0.1933 -0.3840
  837SOL    HW1 2510   1.677   1.569   2.225  2.8824  0.8225 -2.8317
  837SOL    HW2 2511   1.800   1.457   2.278  2.2167  0.0528  2.1562
  838SOL     OW 2512   0.591   0.889   1.740  0.1542  0.6366  0.3907
  838SOL    HW1 2513   0.620   0.974   1.689  0.3218 -0.1917  0.2574
  838SOL    HW2 2514   0.656   0.875   1.819  1.5164  2.5924  0.8293
  839SOL     OW 2515   0.549   1.376   0.945 -0.3923  0.0545  0.2047
  839SOL    HW1 2516   0.464   1.381   1.005 -3.2883 -0.9234  1.6085
  839SOL    HW2 2517   0.544   1.302   0.873 -0.9837 -1.3567 -2.8031
  840SOL     OW 2518   2.144   0.199   1.686 -0.5430  0.3739 -0.1885
  840SOL    HW1 2519   2.066   0.148   1.648  0.6604  0.5182 -1.4326
  840SOL    HW2 2520   2.124   0.232   1.781 -0.5012 -0.5502 -1.7277
  841SOL     OW 2521   0.644   2.269   0.401  0.6972  0.5932  0.1139
  841SOL    HW1 2522   0.734   2.223   0.385  1.6739 -2.0593  0.6084
  841SOL    HW2 2523   0.636   2.344   0.326 -0.0329  2.2052 -0.9884
  842SOL     OW 2524   0.378   0.203   0.936 -0.1607  0.5231 -0.2102
  842SOL    HW1 2525   0.416   0.268   1.003  0.5973  1.2945  1.8516
  842SOL    HW2 2526   0.442   0.126   0.915 -1.1986 -0.3820 -1.1358
  843SOL     OW 2527   0.132   1.398   2.924  0.1288  0.2904  0.2405
  843SOL    HW1 2528   0.180   1.431   3.010  0.5837 -1.5183  1.3699
  843SOL    HW2 2529   0.096   1.302   2.942 -0.8736 -4.1526  0.5382
  844SOL     OW 2530   1.188   2.251   3.101 -0.0930  0.0428 -0.6049
  844SOL    HW1 2531   1.116   2.223   3.032 -0.0242  0.9268 -0.9379
  844SOL    HW2 2532   1.239   2.334   3.075 -0.4342 -3.5983  2.3579
  845SOL     OW 2533   2.579   2.867   2.450  0.2097 -0.1319  0.4840
  845SOL    HW1 2534   2.607   2.868   2.353 -0.0331 -2.5778 -1.0785
  845SOL    HW2 2535   2.502   2.926   2.461  0.0814  0.8362 -0.5129
  846SOL     OW 2536   1.989   1.840   3.076  0.1859 -0.0634 -0.3322
  846SOL    HW1 2537   1.974   1.881   2.985  1.6674 -1.9490  1.7331
  846SOL    HW2 2538   1.924   1.763   3.090  0.2612  1.5013  1.0444
  847SOL     OW 2539   2.605   0.128   3.095 -0.4747 -0.4716  0.2743
  847SOL    HW1 2540   2.506   0.129   3.082  1.2473 -2.0433  2.0900
  847SOL    HW2 2541   2.649   0.190   0.064  0.6955 -0.6603  1.8663
  848SOL     OW 2542   0.396   0.658   0.800 -0.0692 -0.5861  0.2533
  848SOL    HW1 2543   0.448   0.656   0.888 -2.7018  1.7571 -0.4349
  848SOL    HW2 2544   0.393   0.566   0.754 -0.3859  1.7620 -0.1561
  849SOL     OW 2545   1.460   2.905   2.048  0.8274  0.5510 -0.2273
  849SOL    HW1 2546   1.478   2.833   2.118 -1.8808 -2.9308 -0.5666
  849SOL    HW2 2547   1.366   2.891   2.005 -0.6924 -0.3988  1.5607
  850SOL     OW 2548   0.556   1.608   0.374 -0.8591 -0.2871 -0.1513
  850SOL    HW1 2549   0.455   1.610   0.399  0.4806  0.5905 -0.0403
  850SOL    HW2 2550   0.573   1.552   0.293 -1.2847  3.4338 -0.3712
  851SOL     OW 2551   0.052   1.399   0.197 -0.1414  0.1305  0.0480
  851SOL    HW1 2552   0.135   1.432   0.149 -0.5765  2.8964 -1.2540
  851SOL    HW2 2553   0.086   1.352   0.283  1.3105  1.7386  0.2004
  852SOL     OW 2554   1.625   2.820   1.830 -0.1860  0.1884 -0.4188
  852SOL    HW1 2555   1.547   2.792   1.770 -1.7241  1.7747 -0.7820
  852SOL    HW2 2556   1.585   2.855   1.918  0.2310 -0.4364  0.5121
  853SOL     OW 2557   2.799   1.439   0.033  0.5253  0.3557 -0.3689
  853SOL    HW1 2558   2.833   1.475   3.050 -0.9777  1.8282  0.1898
  853SOL    HW2 2559   2.856   1.473   0.111  0.5030  2.5881 -0.0812
  854SOL     OW 2560   1.632   1.321   2.039 -0.0656  0.7053  0.6114
  854SOL    HW1 2561   1.667   1.374   2.120 -0.2066 -1.9479  1.7546
  854SOL    HW2 2562   1.531   1.320   2.025  0.6473  0.0012 -0.4925
  855SOL     OW 2563   0.391   2.371   3.007 -0.1205  0.3727 -0.2947
  855SOL    HW1 2564   0.296   2.404   3.026 -0.2167  2.0230  0.2780
  855SOL    HW2 2565   0.420   2.406   2.916  3.0834 -1.4095 -0.1020
  856SOL     OW 2566   0.315   0.878   1.858  0.0479  0.0469  0.3842
  856SOL    HW1 2567   0.327   0.831   1.949  0.5639 -3.6445 -0.8786
  856SOL    HW2 2568   0.399   0.882   1.802 -0.7438 -0.4076 -1.7029
  857SOL     OW 2569   1.235   1.088   2.071  0.2951 -0.2921  0.4590
  857SOL    HW1 2570   1.249   1.053   1.973 -2.1637  0.9160 -1.5862
  857SOL    HW2 2571   1.310   1.057   2.135 -2.2212  0.4682 -1.4752
  858SOL     OW 2572   0.302   1.325   2.629 -0.6913  0.1942  0.1699
  858SOL    HW1 2573   0.238   1.402   2.650 -0.3191  1.0965  2.2643
  858SOL    HW2 2574   0.279   1.277   2.544  0.0990 -0.4357  0.0989
  859SOL     OW 2575   2.587   3.026   1.053  0.3846  0.8230 -0.1468
  859SOL    HW1 2576   2.515   3.091   1.072 -0.2967 -1.1151 -0.6139
  859SOL    HW2 2577   2.669   3.070   1.089 -0.1585  0.6382  1.1051
  860SOL     OW 2578   2.324   2.933   0.034  0.3186 -0.3524  0.5574
  860SOL    HW1 2579   2.313   2.956   0.135  2.7328 -0.7930  1.6031
  860SOL    HW2 2580   2.380   2.849   0.019  0.8697  0.9111 -0.2838
  861SOL     OW 2581   0.877   0.546   0.649  0.2225 -0.1967  0.0202
  861SOL    HW1 2582   0.788   0.491   0.648 -1.0719 -0.2147  0.9391
  861SOL    HW2 2583   0.895   0.593   0.563  1.3479 -0.7814 -0.7348
  862SOL     OW 2584   1.336   0.300   2.444 -0.1204  0.3516  0.0860
  862SOL    HW1 2585   1.424   0.342   2.461 -2.2829 -3.0554 -0.9815
  862SOL    HW2 2586   1.339   0.220   2.379 -0.3345 -1.6978  0.9725
  863SOL     OW 2587   2.543   2.297   0.910  0.1710 -0.0355  0.3891
  863SOL    HW1 2588   2.492   2.328   0.994  0.3404 -2.2517 -0.0936
  863SOL    HW2 2589   2.499   2.219   0.863 -0.0188 -0.7102 -1.6990
  864SOL     OW 2590   2.629   0.053   2.015 -0.3893  0.0305 -0.0480
  864SOL    HW1 2591   2.638   3.059   1.984 -1.4989 -2.1381 -1.0056
  864SOL    HW2 2592   2.707   0.074   2.078  3.3865  1.7661  0.9723
  865SOL     OW 2593   1.155   0.619   2.030 -0.7224 -0.2950 -0.5500
  865SOL    HW1 2594   1.129   0.568   2.108  1.6891  0.9502 -1.3738
  865SOL    HW2 2595   1.254   0.615   2.015 -2.3673  1.8226 -0.6546
  866SOL     OW 2596   1.946   2.806   1.224 -0.2766  0.3572 -0.3020
  866SOL    HW1 2597   2.044   2.804   1.209 -1.9240  0.3327 -0.0986
  866SOL    HW2 2598   1.906   2.896   1.201 -2.0039  0.7297  0.1157
  867SOL     OW 2599   2.673   2.207   0.502 -0.7030 -0.0651 -0.2517
  867SOL    HW1 2600   2.729   2.291   0.484  1.0216 -0.5410 -1.5774
  867SOL    HW2 2601   2.577   2.238   0.520  0.5532 -0.5372 -0.4551
  868SOL     OW 2602   0.549   2.323   1.610  0.0276 -0.2452  0.4530
  868SOL    HW1 2603   0.456   2.355   1.586 -2.5956 -1.2735  3.3112
  868SOL    HW2 2604   0.592   2.255   1.546 -1.2071  1.3592  2.9384
  869SOL     OW 2605   2.264   2.216   3.085 -0.5572  0.0462 -0.4612
  869SOL    HW1 2606   2.283   2.230   2.986 -1.4764  2.3807 -0.5021
  869SOL    HW2 2607   2.244   2.303   0.021  0.2811 -0.3520 -2.4408
  870SOL     OW 2608   1.860   1.820   1.114 -0.0430  0.5660  0.4814
  870SOL    HW1 2609   1.919   1.846   1.039 -1.3187  2.4688  1.9621
  870SOL    HW2 2610   1.862   1.716   1.131 -0.2555 -1.9945  2.6888
  871SOL     OW 2611   0.261   1.895   1.682 -0.6788  0.1377 -0.5853
  871SOL    HW1 2612   0.246   1.801   1.713  0.2843  2.4406 -0.9665
  871SOL    HW2 2613   0.256   1.961   1.760 -4.2266 -0.6169  2.1605
  872SOL     OW 2614   0.344   1.397   2.322  0.7142 -0.1936 -0.4916
  872SOL    HW1 2615   0.368   1.429   2.415 -1.4805  1.0663 -0.1403
  872SOL    HW2 2616   0.274   1.324   2.324 -1.2554 -0.3872 -0.6002
  873SOL     OW 2617   1.148   2.109   1.809  0.3475 -0.0280 -0.0043
  873SOL    HW1 2618   1.137   2.095   1.909 -2.9715 -1.0819  3.4607
  873SOL    HW2 2619   1.068   2.156   1.769 -1.2756 -2.6680 -0.7536
  874SOL     OW 2620   1.522   1.000   1.732 -0.5341 -0.1958  0.0330
  874SOL    HW1 2621   1.426   1.025   1.743  3.6175 -0.2659 -2.2546
  874SOL    HW2 2622   1.531   0.937   1.654 -0.7511  0.1554  0.0084
  875SOL     OW 2623   2.964   2.699   0.903 -0.0535  0.1605  0.1287
  875SOL    HW1 2624   2.916   2.624   0.955  0.4323 -2.1660 -1.2656
  875SOL    HW2 2625   3.033   2.658   0.839  2.0901  1.7785  0.7440
  876SOL     OW 2626   1.189   1.231   0.401 -0.1663  0.4070 -0.3988
  876SOL    HW1 2627   1.248   1.194   0.325 -1.7657  1.3569  1.0960
  876SOL    HW2 2628   1.096   1.251   0.360  0.2249  0.6580  1.5723
  877SOL     OW 2629   2.728   0.296   1.034  0.1806 -0.0985  0.3567
  877SOL    HW1 2630   2.766   0.203   1.017  0.3387  0.2351  0.9134
  877SOL    HW2 2631   2.736   0.360   0.954 -1.1820  2.5640  0.9356
  878SOL     OW 2632   2.183   1.531   0.220  0.6896 -0.2504  0.0290
  878SOL    HW1 2633   2.097   1.532   0.265  3.8294 -1.1237 -0.5393
  878SOL    HW2 2634   2.215   1.623   0.188  0.9361  0.1913  1.6649
  879SOL     OW 2635   2.438   1.788   0.969 -0.3348  0.1026 -0.4118
  879SOL    HW1 2636   2.352   1.736   0.959  1.1381 -0.6957 -0.8461
  879SOL    HW2 2637   2.506   1.746   0.905 -0.7964  1.4414 -1.6561
  880SOL     OW 2638   0.386   2.392   0.804  0.5032  0.3597  0.2329
  880SOL    HW1 2639   0.294   2.429   0.826 -0.1582  3.5787  0.5291
  880SOL    HW2 2640   0.415   2.420   0.712  1.4315 -1.7960  2.4799
  881SOL     OW 2641   1.118   0.930   0.728  0.3197  0.3832  0.5465
  881SOL    HW1 2642   1.020   0.927   0.723  3.9668  0.6543 -0.1660
  881SOL    HW2 2643   1.154   0.902   0.818 -0.3733  4.6574 -1.3673
  882SOL     OW 2644   2.580   1.009   3.071 -0.0409 -0.1494  0.5234
  882SOL    HW1 2645   2.482   1.034   3.086 -2.5938  1.4784 -1.1046
  882SOL    HW2 2646   2.643   1.076   0.013 -2.2914 -0.7590 -1.4707
  883SOL     OW 2647   1.362   0.040   1.719 -0.5425 -0.0301 -0.5828
  883SOL    HW1 2648   1.272   0.016   1.759  1.3856  1.7042  2.1556
  883SOL    HW2 2649   1.378   3.090   1.636 -0.0198  2.1992 -1.5901
  884SOL     OW 2650   2.846   0.043   1.041  0.1926 -0.0980  0.3067
  884SOL    HW1 2651   2.833   0.045   1.143 -1.1124  0.7350  1.1229
  884SOL    HW2 2652   2.929   3.089   1.033  0.8622 -1.9535  0.1418
  885SOL     OW 2653   1.176   1.052   1.303 -0.7767  0.4425 -0.0642
  885SOL    HW1 2654   1.270   1.099   1.289  3.7331 -0.1561  0.4919
  885SOL    HW2 2655   1.195   0.955   1.327 -0.3060  2.7779 -2.7896
  886SOL     OW 2656   1.509   0.994   2.532  0.2521 -0.2345  0.5240
  886SOL    HW1 2657   1.518   1.004   2.431  1.8676 -0.7061  1.6913
  886SOL    HW2 2658   1.532   0.895   2.552 -1.6420 -1.6640 -2.3777
  887SOL     OW 2659   1.668   0.863   1.027  0.1022  0.4466 -0.1337
  887SOL    HW1 2660   1.584   0.891   1.073  0.0759 -2.0943 -1.3797
  887SOL    HW2 2661   1.744   0.877   1.095 -2.3093  0.6583 -0.9774
  888SOL     OW 2662   2.108   1.531   1.837 -0.2898 -0.7063 -0.3110
  888SOL    HW1 2663   2.091   1.432   1.844 -1.2118  1.0743 -0.4105
  888SOL    HW2 2664   2.206   1.562   1.810  3.0911  0.4842 -0.2114
  889SOL     OW 2665   2.011   2.082   0.673 -0.0368  0.1231  0.1386
  889SOL    HW1 2666   2.093   2.133   0.707 -2.7707 -0.1637 -1.4909
  889SOL    HW2 2667   1.934   2.148   0.660 -0.7129 -1.5619 -0.3127
  890SOL     OW 2668   0.995   1.927   0.613  0.3369  0.1282  0.6722
  890SOL    HW1 2669   1.051   1.844   0.634  3.3988 -2.0077 -2.0521
  890SOL    HW2 2670   0.903   1.915   0.661 -1.4448 -0.2759 -2.1815
  891SOL     OW 2671   2.516   0.407   2.691  0.2194 -0.2457  0.3702
  891SOL    HW1 2672   2.598   0.360   2.729  0.7878  1.5288  1.1544
  891SOL    HW2 2673   2.542   0.449   2.602 -0.1086  0.9776 -0.3372
  892SOL     OW 2674   0.966   0.562   2.349  0.2224 -0.1286  0.0597
  892SOL    HW1 2675   0.927   0.518   2.432  2.5862  1.5320 -1.9179
  892SOL    HW2 2676   1.054   0.516   2.320  1.8026 -0.5150 -0.7198
  893SOL     OW 2677   1.696   0.314   1.257  0.2047 -0.0185  0.3481
  893SOL    HW1 2678   1.712   0.210   1.247  0.3695 -3.4750  0.2287
  893SOL    HW2 2679   1.636   0.344   1.332 -0.4067  2.9267 -0.8047
  894SOL     OW 2680   2.716   0.194   0.612 -0.4465  0.4576  0.7344
  894SOL    HW1 2681   2.647   0.127   0.640 -0.0318  0.2279  1.4678
  894SOL    HW2 2682   2.691   0.228   0.514 -1.2119  1.1383 -1.0906
  895SOL     OW 2683   2.140   2.458   2.892  0.4137 -0.0052  0.0823
  895SOL    HW1 2684   2.036   2.452   2.899 -1.3360  1.8333 -0.2906
  895SOL    HW2 2685   2.178   2.516   2.970 -1.4268  1.3804 -0.0082
  896SOL     OW 2686   1.781   0.078   1.629 -0.3441 -0.1320 -0.0523
  896SOL    HW1 2687   1.854   0.122   1.568  0.2096  0.7032 -0.2496
  896SOL    HW2 2688   1.710   0.024   1.576 -1.5242 -1.4643  0.5454
  897SOL     OW 2689   0.137   2.267   1.742 -0.2161 -0.0471  0.0127
  897SOL    HW1 2690   0.203   2.312   1.678  2.3725 -1.1894  1.2981
  897SOL    HW2 2691   0.182   2.182   1.779  0.7766 -1.3402 -0.3888
  898SOL     OW 2692   2.360   1.641   1.749 -0.1852 -0.0310 -0.0869
  898SOL    HW1 2693   2.430   1.580   1.709 -0.7622 -0.2549  0.4517
  898SOL    HW2 2694   2.354   1.734   1.707 -1.0826  0.2131 -2.3343
  899SOL     OW 2695   1.662   2.293   0.905 -0.5274 -0.4160  0.0819
  899SOL    HW1 2696   1.759   2.287   0.944  1.1730 -1.4038 -0.3299
  899SOL    HW2 2697   1.598   2.253   0.970  2.2912  1.7875 -0.2746
  900SOL     OW 2698   0.885   3.024   2.874 -0.7431 -0.1012 -0.6140
  900SOL    HW1 2699   0.785   3.045   2.876 -1.1951 -1.5006 -0.7516
  900SOL    HW2 2700   0.925   3.068   2.794 -1.2272 -3.6641  2.5567
  901SOL     OW 2701   1.207   1.657   2.318  0.2562 -0.1921 -0.3964
  901SOL    HW1 2702   1.267   1.712   2.376 -1.8698 -1.9240 -0.3335
  901SOL    HW2 2703   1.132   1.712   2.281 -0.5662  0.1181 -0.6040
  902SOL     OW 2704   0.007   0.623   2.720  0.2530 -0.1749  0.0370
  902SOL    HW1 2705   3.056   0.668   2.788  0.8714 -1.3112  0.9330
  902SOL    HW2 2706   0.020   0.522   2.730  2.7395 -3.5350 -2.0263
  903SOL     OW 2707   2.198   0.563   2.506 -0.3737 -0.2589 -0.7557
  903SOL    HW1 2708   2.223   0.655   2.541  3.0390 -1.0754 -1.3315
  903SOL    HW2 2709   2.194   0.566   2.403 -0.0731 -1.8226  0.5955
  904SOL     OW 2710   1.486   0.693   2.207  0.1966  0.1286 -0.0013
  904SOL    HW1 2711   1.544   0.629   2.267  1.0123  0.0086 -1.7386
  904SOL    HW2 2712   1.424   0.754   2.266 -1.7535 -0.7998  2.8965
  905SOL     OW 2713   2.206   2.516   1.820 -0.7359  0.6857  0.2241
  905SOL    HW1 2714   2.116   2.509   1.866  0.0883  1.5979 -3.0604
  905SOL    HW2 2715   2.209   2.447   1.748 -0.8662 -2.6558 -0.1053
  906SOL     OW 2716   1.538   1.936   0.313 -0.0645 -0.4618  0.3771
  906SOL    HW1 2717   1.637   1.913   0.302  0.7276 -0.1537 -1.3240
  906SOL    HW2 2718   1.527   2.037   0.297 -0.5060  1.5963  0.0710
  907SOL     OW 2719   1.266   2.927   0.822  0.1570  0.0717  0.1596
  907SOL    HW1 2720   1.280   3.012   0.773 -2.2577 -2.5613  0.8960
  907SOL    HW2 2721   1.202   2.865   0.765 -2.7533 -0.6380 -0.3846
  908SOL     OW 2722   1.728   2.165   2.473 -0.1260 -1.2710  0.0187
  908SOL    HW1 2723   1.685   2.239   2.415 -1.4074  1.1270 -1.3469
  908SOL    HW2 2724   1.826   2.157   2.446 -2.6973 -2.4435 -2.4023
  909SOL     OW 2725   2.072   0.280   1.933  0.1215 -0.1185 -0.1302
  909SOL    HW1 2726   1.979   0.273   1.981  2.9707 -1.5231 -0.3255
  909SOL    HW2 2727   2.096   0.378   1.923 -0.6855 -1.2859  0.7728
  910SOL     OW 2728   0.891   0.655   2.939 -0.3510 -0.7208 -0.0737
  910SOL    HW1 2729   0.905   0.563   2.910  1.9997  1.3666  1.4574
  910SOL    HW2 2730   0.961   0.673   3.007  0.0089  1.7447  3.3495
  911SOL     OW 2731   0.156   0.931   0.227 -0.3074  0.9457  0.0994
  911SOL    HW1 2732   0.106   1.013   0.189 -0.6796 -2.1004 -1.0205
  911SOL    HW2 2733   0.089   0.852   0.254 -2.3273 -1.6496  1.4106
  912SOL     OW 2734   0.175   2.313   0.559 -0.2336 -0.2334 -0.4058
  912SOL    HW1 2735   0.139   2.240   0.625  0.1929 -0.4494 -1.0681
  912SOL    HW2 2736   0.277   2.306   0.558 -2.4453 -1.5038  3.0544
  913SOL     OW 2737   2.552   2.315   2.107 -0.1231 -0.3380  0.1724
  913SOL    HW1 2738   2.608   2.230   2.104 -0.3789  0.6699 -1.9223
  913SOL    HW2 2739   2.539   2.356   2.012  1.9785 -4.1891  0.7229
  914SOL     OW 2740   1.418   2.080   1.372  0.3044 -0.2451  0.1262
  914SOL    HW1 2741   1.421   1.975   1.382  0.7631  3.5184  0.8219
  914SOL    HW2 2742   1.388   2.099   1.277 -0.6902  0.8962  0.8303
  915SOL     OW 2743   0.465   2.681   1.973  0.3153 -0.2891 -0.3110
  915SOL    HW1 2744   0.523   2.633   1.902 -0.2998  0.9691 -1.0142
  915SOL    HW2 2745   0.513   2.762   2.022  1.2323  3.3793 -0.3154
  916SOL     OW 2746   0.840   0.414   1.587  0.0306 -0.5371  0.2688
  916SOL    HW1 2747   0.932   0.453   1.572 -0.4943  1.3862 -2.9463
  916SOL    HW2 2748   0.846   0.326   1.634  1.9181 -1.5178 -3.7485
  917SOL     OW 2749   2.627   0.686   0.387 -0.0971  0.2764 -0.2624
  917SOL    HW1 2750   2.716   0.633   0.375 -0.9814 -2.4997  1.8774
  917SOL    HW2 2751   2.552   0.617   0.397 -3.8550 -0.1335  1.0177
  918SOL     OW 2752   1.688   2.214   2.918  0.5369 -0.0155 -0.1995
  918SOL    HW1 2753   1.757   2.278   2.943 -3.8212 -0.9430 -1.6377
  918SOL    HW2 2754   1.681   2.144   2.988  1.1414 -0.4198  0.0288
  919SOL     OW 2755   1.657   2.930   0.994 -0.0521  0.0166  0.6786
  919SOL    HW1 2756   1.701   3.022   0.976 -0.0812  0.0380 -0.9078
  919SOL    HW2 2757   1.678   2.866   0.920 -0.8265  1.2863  0.8310
  920SOL     OW 2758   0.990   0.407   2.584 -0.2606  0.3584  0.1113
  920SOL    HW1 2759   0.937   0.451   2.654  0.2238  0.4002 -1.1161
  920SOL    HW2 2760   1.082   0.450   2.573  1.3302  0.8437 -1.1816
  921SOL     OW 2761   0.032   0.654   3.089 -0.1157 -0.1431  0.3028
  921SOL    HW1 2762   3.063   0.666   3.019 -0.4216 -0.3060  1.7482
  921SOL    HW2 2763   0.102   0.724   3.072  1.9750  1.0249 -1.3774
  922SOL     OW 2764   0.259   2.110   1.104 -0.0392 -0.0719  0.5282
  922SOL    HW1 2765   0.291   2.028   1.052 -1.1762  2.0584  2.1101
  922SOL    HW2 2766   0.336   2.177   1.117  0.7950 -0.5493  0.0824
  923SOL     OW 2767   0.701   1.518   1.805  0.3058 -0.1398  0.6412
  923SOL    HW1 2768   0.783   1.529   1.740  1.3220 -1.0068 -5.6463
  923SOL    HW2 2769   0.708   1.437   1.864 -1.8685  0.6674 -1.5751
  924SOL     OW 2770   1.656   2.735   2.894  0.3955  0.8007  0.0590
  924SOL    HW1 2771   1.584   2.779   2.839  1.7283 -1.9796 -1.2479
  924SOL    HW2 2772   1.666   2.778   2.989 -4.3726 -2.9148 -0.3843
  925SOL     OW 2773   2.715   1.389   0.893  0.0461  0.0608  0.1689
  925SOL    HW1 2774   2.664   1.299   0.872  0.9716 -0.2571  0.3072
  925SOL    HW2 2775   2.698   1.404   0.991  0.3124  1.0736 -3.2910
  926SOL     OW 2776   2.058   0.769   1.536  0.7294  0.1572 -0.2103
  926SOL    HW1 2777   2.140   0.793   1.481 -1.3430 -3.0932  1.0671
  926SOL    HW2 2778   1.995   0.708   1.477 -1.2618  2.7613 -2.3374
  927SOL     OW 2779   1.979   0.137   1.443  0.2241  0.1146  0.2338
  927SOL    HW1 2780   2.021   0.225   1.421 -1.2126  1.1923  2.9453
  927SOL    HW2 2781   1.964   0.077   1.360 -0.7020 -1.3981 -1.3483
  928SOL     OW 2782   0.252   1.163   2.422  0.2269  0.0608  0.4089
  928SOL    HW1 2783   0.235   1.152   2.319 -4.6376  0.9422  1.3698
  928SOL    HW2 2784   0.313   1.096   2.465  1.3808 -0.7840 -0.0245
  929SOL     OW 2785   2.394   0.981   1.539 -0.2163 -0.4151 -0.1242
  929SOL    HW1 2786   2.308   1.034   1.549  2.1520 -0.4003 -1.5377
  929SOL    HW2 2787   2.472   1.048   1.536  0.0447 -0.9099  1.1011
  930SOL     OW 2788   2.858   2.527   2.066  0.7047 -0.8050  0.4908
  930SOL    HW1 2789   2.935   2.596   2.074 -0.1399 -2.4207  0.3051
  930SOL    HW2 2790   2.781   2.544   2.135  2.5486  0.5538  1.7116
  931SOL     OW 2791   1.691   1.000   1.287  0.0968  0.4391  0.1883
  931SOL    HW1 2792   1.748   0.979   1.369 -1.1667 -2.8265  0.0966
  931SOL    HW2 2793   1.688   1.097   1.254  1.0132 -3.0728  0.1995
  932SOL     OW 2794   0.603   1.235   1.814 -0.1591  0.1906 -0.0092
  932SOL    HW1 2795   0.582   1.204   1.912 -0.1875 -0.8941  0.1526
  932SOL    HW2 2796   0.688   1.191   1.779  2.5018 -0.1376  0.1201
  933SOL     OW 2797   2.630   2.013   1.612  0.3891  0.3373  0.4131
  933SOL    HW1 2798   2.666   2.071   1.535 -1.9832  0.2756 -2.5507
  933SOL    HW2 2799   2.697   1.938   1.643  2.6241 -2.9397  2.1856
  934SOL     OW 2800   0.575   2.115   1.788 -0.4538 -0.3164  0.4299
  934SOL    HW1 2801   0.619   2.034   1.744  0.9105 -0.8021 -0.0387
  934SOL    HW2 2802   0.545   2.185   1.717  1.9580  1.2634 -1.8641
  935SOL     OW 2803   2.847   1.697   1.554  0.3439 -0.0028 -0.0145
  935SOL    HW1 2804   2.907   1.772   1.588 -1.7624 -0.5437  0.4549
  935SOL    HW2 2805   2.900   1.613   1.533 -2.0367 -2.3119  0.5611
  936SOL     OW 2806   2.986   1.494   1.443  0.7593  0.0771 -0.3122
  936SOL    HW1 2807   2.955   1.405   1.478 -2.7741  2.3190  0.5875
  936SOL    HW2 2808   3.003   1.485   1.344  0.7918 -1.5803  1.4916
  937SOL     OW 2809   1.918   0.586   1.360  0.1099  0.8750  0.3144
  937SOL    HW1 2810   1.996   0.520   1.359  1.6246 -2.0992 -0.2978
  937SOL    HW2 2811   1.873   0.596   1.269 -2.2806  2.9366 -1.1852
  938SOL     OW 2812   0.427   2.773   0.138 -0.1797  0.0992  1.0095
  938SOL    HW1 2813   0.368   2.734   0.207  0.5336  0.9083  1.0142
  938SOL    HW2 2814   0.373   2.808   0.061 -0.9265 -1.3456  2.5132
  939SOL     OW 2815   2.864   2.123   2.525 -0.3802  0.0589  0.2480
  939SOL    HW1 2816   2.904   2.149   2.432 -2.2900  2.8083  0.8019
  939SOL    HW2 2817   2.771   2.078   2.511 -0.3386 -0.2733  0.2536
  940SOL     OW 2818   1.523   1.786   0.581  0.8368 -0.3490 -0.2377
  940SOL    HW1 2819   1.443   1.725   0.559  1.3202 -3.1868  0.4999
  940SOL    HW2 2820   1.533   1.862   0.512  1.0103 -0.3000 -0.1689
  941SOL     OW 2821   2.240   2.472   0.098 -0.5971 -0.6709 -0.3835
  941SOL    HW1 2822   2.250   2.426   0.187  2.9388 -0.7435 -2.3448
  941SOL    HW2 2823   2.310   2.547   0.081  4.6106  2.5936  0.0193
  942SOL     OW 2824   2.003   2.486   1.170 -0.4183  0.1739 -0.0809
  942SOL    HW1 2825   1.935   2.536   1.113  0.8386 -0.1727  0.9251
  942SOL    HW2 2826   2.036   2.533   1.253 -0.1428 -2.5674  0.1808
  943SOL     OW 2827   2.155   1.021   1.846 -0.5329 -0.6832  0.1373
  943SOL    HW1 2828   2.134   1.012   1.747  0.3296  2.0298 -0.6590
  943SOL    HW2 2829   2.252   1.029   1.871  1.6734  0.6159  2.6226
  944SOL     OW 2830   1.367   0.825   1.935 -0.4689 -0.0723 -0.0962
  944SOL    HW1 2831   1.461   0.790   1.934 -0.8214  1.8004  4.4053
  944SOL    HW2 2832   1.311   0.781   1.865  2.3071  0.0990 -2.3429
  945SOL     OW 2833   2.552   2.528   1.429  0.2408  0.7612 -0.1298
  945SOL    HW1 2834   2.628   2.472   1.463 -2.2918  1.0741 -2.7323
  945SOL    HW2 2835   2.470   2.466   1.424 -0.2188  0.9379  0.8786
  946SOL     OW 2836   0.226   0.839   0.712  0.0024  0.1563  0.0086
  946SOL    HW1 2837   0.209   0.897   0.794  0.6315  0.7704  1.3761
  946SOL    HW2 2838   0.277   0.756   0.743  0.4036  1.5559 -1.2752
  947SOL     OW 2839   1.870   2.976   1.809  0.0440  0.5240  0.2549
  947SOL    HW1 2840   1.774   2.938   1.806  1.0700 -3.3939 -1.2610
  947SOL    HW2 2841   1.886   3.050   1.743  1.2916 -1.4654  0.2516
  948SOL     OW 2842   0.437   1.839   0.741  0.3655  0.1125 -0.8134
  948SOL    HW1 2843   0.374   1.863   0.666 -0.0970  2.8977  0.9897
  948SOL    HW2 2844   0.448   1.735   0.747 -2.0471  0.9285 -0.2227
  949SOL     OW 2845   1.089   1.290   1.206  0.0039 -0.0133 -0.1686
  949SOL    HW1 2846   1.026   1.277   1.127  3.3720  0.3548 -0.9278
  949SOL    HW2 2847   1.133   1.200   1.229 -1.0998  2.2686  0.3681
  950SOL     OW 2848   0.303   0.796   1.130 -0.1997  0.5567  0.2450
  950SOL    HW1 2849   0.390   0.770   1.086  0.7765 -0.2297  0.7849
  950SOL    HW2 2850   0.325   0.844   1.218  0.9780 -0.5478 -0.7153
  951SOL     OW 2851   0.851   2.114   2.277  0.4957  0.2219 -0.3289
  951SOL    HW1 2852   0.808   2.109   2.184  1.2966  1.4997  0.3133
  951SOL    HW2 2853   0.925   2.189   2.281  0.4773  0.7478 -1.6878
  952SOL     OW 2854   1.295   1.345   3.063 -0.1432  0.3460 -0.4104
  952SOL    HW1 2855   1.321   1.443   3.081  0.2045  1.1201 -1.1015
  952SOL    HW2 2856   1.209   1.336   3.011  0.4686  3.2277  1.7499
  953SOL     OW 2857   1.071   3.103   3.078 -0.1386  0.1150  0.1296
  953SOL    HW1 2858   1.104   0.094   3.063 -0.1548  0.0767  2.1397
  953SOL    HW2 2859   0.997   3.077   3.009 -1.0446 -0.8188  0.9124
  954SOL     OW 2860   1.874   1.202   0.201  0.3235 -0.3329 -0.0696
  954SOL    HW1 2861   1.800   1.129   0.204  0.3739  0.6520 -0.0702
  954SOL    HW2 2862   1.902   1.228   0.295  0.0648 -1.9984 -0.9336
  955SOL     OW 2863   0.054   2.671   0.092 -0.5052  0.3715 -0.5212
  955SOL    HW1 2864   0.088   2.751   0.040  0.9571 -1.2478  1.5601
  955SOL    HW2 2865   0.069   2.582   0.043  0.8329  3.6149  1.1284
  956SOL     OW 2866   1.225   0.786   1.314 -0.1830  0.3281  0.1561
  956SOL    HW1 2867   1.323   0.804   1.282  0.5498  0.9661 -0.7036
  956SOL    HW2 2868   1.212   0.685   1.302  1.6203  0.4820  2.3198
  957SOL     OW 2869   0.969   1.575   1.262 -0.4247 -0.2168  0.5440
  957SOL    HW1 2870   0.880   1.600   1.303  0.5507 -1.6053 -1.2802
  957SOL    HW2 2871   0.960   1.546   1.165 -1.0149  0.1471  0.5046
  958SOL     OW 2872   0.722   1.825   0.749 -0.0239  0.1673  0.0864
  958SOL    HW1 2873   0.639   1.884   0.757  0.0481  2.4079  1.3578
  958SOL    HW2 2874   0.698   1.742   0.688  0.9180 -1.3181  0.7796
  959SOL     OW 2875   1.501   1.296   1.061 -0.3836 -0.1630 -0.3769
  959SOL    HW1 2876   1.468   1.334   0.974 -1.1568  1.3269 -1.4115
  959SOL    HW2 2877   1.449   1.327   1.145  0.9478 -2.7962 -0.7965
  960SOL     OW 2878   0.087   1.104   2.964 -0.3317 -0.2038  0.0228
  960SOL    HW1 2879   0.007   1.074   2.903 -1.3422 -0.3555 -0.8269
  960SOL    HW2 2880   0.169   1.053   2.930 -1.4517 -2.7476 -2.2359
  961SOL     OW 2881   0.689   1.584   1.087  0.0648 -0.1549  0.6529
  961SOL    HW1 2882   0.682   1.500   1.029 -2.5334 -1.6605  0.4774
  961SOL    HW2 2883   0.631   1.664   1.053  0.4920  2.3801 -1.6625
  962SOL     OW 2884   0.849   0.957   0.733 -0.2629 -0.1809  0.0318
  962SOL    HW1 2885   0.875   1.056   0.745 -0.0985 -1.4078 -0.2576
  962SOL    HW2 2886   0.768   0.931   0.792  0.0880  1.4940 -0.6001
  963SOL     OW 2887   1.396   1.786   2.473 -0.2046 -0.5447 -0.0964
  963SOL    HW1 2888   1.484   1.818   2.433 -3.2263 -0.5510 -0.8039
  963SOL    HW2 2889   1.418   1.715   2.541  0.6493 -1.2855 -1.7599
  964SOL     OW 2890   0.459   2.494   2.778 -0.6480 -0.2647  0.4606
  964SOL    HW1 2891   0.532   2.552   2.822 -0.7920 -1.3249 -2.2090
  964SOL    HW2 2892   0.490   2.438   2.699  1.0456  0.4135 -0.8064
  965SOL     OW 2893   0.528   2.421   0.180  0.5591  0.4625  0.1166
  965SOL    HW1 2894   0.570   2.515   0.185  0.6852 -0.8504  0.2759
  965SOL    HW2 2895   0.464   2.414   0.103 -0.0403 -0.0867 -1.3365
  966SOL     OW 2896   3.073   1.713   2.785  0.0987  0.3588  0.7229
  966SOL    HW1 2897   0.061   1.742   2.816 -1.7648  0.1938  0.8223
  966SOL    HW2 2898   3.017   1.802   2.773 -1.0719  1.0050  0.9437
  967SOL     OW 2899   2.390   0.041   2.785 -0.2356  0.2206 -0.1960
  967SOL    HW1 2900   2.296   0.011   2.750 -0.6104 -1.0539  2.4639
  967SOL    HW2 2901   2.382   0.078   2.879 -0.9878  1.3163 -1.2032
  968SOL     OW 2902   2.229   3.092   0.324  0.0450  0.7654 -0.1266
  968SOL    HW1 2903   2.172   0.070   0.310  0.0820  1.0342  3.8762
  968SOL    HW2 2904   2.326   0.020   0.342 -1.0905  2.2110  0.9586
  969SOL     OW 2905   0.358   1.528   2.080  0.2354  0.0616  0.4550
  969SOL    HW1 2906   0.356   1.468   1.999  2.1084 -0.7391  0.5312
  969SOL    HW2 2907   0.365   1.471   2.163  0.4390  1.0477 -1.5715
  970SOL     OW 2908   1.382   1.381   0.822  0.4193  0.0857 -0.3454
  970SOL    HW1 2909   1.467   1.394   0.766  0.4646  1.0991  1.6887
  970SOL    HW2 2910   1.319   1.314   0.773  1.5414  1.3205 -1.1217
  971SOL     OW 2911   2.396   0.111   1.140 -0.1152  0.4472 -0.3742
  971SOL    HW1 2912   2.404   0.115   1.241 -1.5466  0.0224 -2.1213
  971SOL    HW2 2913   2.388   0.196   1.091 -0.5723 -1.9731 -3.0385
  972SOL     OW 2914   0.424   3.041   1.410 -0.1851 -0.2334  0.1312
  972SOL    HW1 2915   0.502   2.976   1.407  2.1200 -1.2638 -1.6314
  972SOL    HW2 2916   0.449   0.022   1.464  2.4015  2.3957 -0.3349
  973SOL     OW 2917   0.680   0.448   2.781  0.5799 -0.2054  0.2625
  973SOL    HW1 2918   0.631   0.536   2.809 -2.5638  2.0774  1.1158
  973SOL    HW2 2919   0.637   0.401   2.698 -1.3774  1.0330 -3.5375
  974SOL     OW 2920   2.344   1.366   2.075  0.2362  0.6215  0.1888
  974SOL    HW1 2921   2.253   1.328   2.088 -2.4034  1.2210  0.2695
  974SOL    HW2 2922   2.406   1.360   2.154 -0.3163 -0.7869 -3.5484
  975SOL     OW 2923   0.068   0.122   1.193 -0.0752  0.0952 -0.5089
  975SOL    HW1 2924   0.150   0.065   1.230  2.1931  0.0835  0.2134
  975SOL    HW2 2925   0.055   0.092   1.095  1.8243 -0.3934  0.2250
  976SOL     OW 2926   0.842   1.910   2.471 -0.2578  0.2098 -0.3510
  976SOL    HW1 2927   0.813   1.918   2.570 -2.4658 -0.3033  1.0133
  976SOL    HW2 2928   0.824   1.999   2.422 -1.1597 -0.1058  0.7281
  977SOL     OW 2929   0.954   2.359   0.610 -0.3443 -0.6102 -0.2368
  977SOL    HW1 2930   0.899   2.380   0.693  2.7646 -1.2744 -1.1990
  977SOL    HW2 2931   0.914   2.414   0.530 -0.7173  1.5733  0.0393
  978SOL     OW 2932   3.099   1.275   2.054 -0.0101  0.1641  0.1868
  978SOL    HW1 2933   3.031   1.205   2.057  0.2891  1.2120  1.7201
  978SOL    HW2 2934   3.066   1.363   2.096 -1.8506  1.9610  1.1025
  979SOL     OW 2935   1.632   3.017   1.448 -0.2577  0.1015 -0.3382
  979SOL    HW1 2936   1.675   2.921   1.451 -1.5472  0.5647  0.1058
  979SOL    HW2 2937   1.533   2.995   1.470  0.7501 -3.3018  0.8044
  980SOL     OW 2938   1.218   1.389   2.305 -0.2649 -0.8039 -0.2708
  980SOL    HW1 2939   1.128   1.341   2.342 -1.6337 -1.1253 -0.2028
  980SOL    HW2 2940   1.214   1.492   2.303 -1.8876 -2.3051 -1.3845
  981SOL     OW 2941   2.595   0.475   1.795  0.6888  0.9416 -0.2298
  981SOL    HW1 2942   2.509   0.518   1.756 -0.8220 -1.7596 -0.1137
  981SOL    HW2 2943   2.654   0.442   1.716  0.7196 -1.2211 -0.5362
  982SOL     OW 2944   0.061   0.356   2.788  0.2577 -0.0306  0.2071
  982SOL    HW1 2945   0.051   0.257   2.792  1.9366 -0.6191  0.3961
  982SOL    HW2 2946   0.138   0.393   2.848  0.3769  0.4744  4.7267
  983SOL     OW 2947   2.574   0.802   2.473 -0.0878 -0.4738  0.2979
  983SOL    HW1 2948   2.484   0.825   2.511  1.1222 -1.5415  0.8791
  983SOL    HW2 2949   2.583   0.698   2.478 -0.2868 -2.2003  0.9896
  984SOL     OW 2950   0.939   0.079   2.080 -0.2980  0.2444 -0.0531
  984SOL    HW1 2951   0.977   0.032   2.162  1.6461  2.1889 -0.3477
  984SOL    HW2 2952   0.838   0.087   2.072 -0.5414 -0.4594 -0.3829
  985SOL     OW 2953   2.032   1.713   1.567 -0.1348  1.2760 -0.2145
  985SOL    HW1 2954   1.947   1.669   1.533 -0.9620  0.6152 -1.2298
  985SOL    HW2 2955   2.039   1.697   1.667 -0.5832 -3.2896 -0.1282
  986SOL     OW 2956   2.510   0.797   1.705  0.9945 -0.2743  0.3859
  986SOL    HW1 2957   2.612   0.781   1.693 -0.8572 -2.0098 -0.8838
  986SOL    HW2 2958   2.470   0.851   1.632  2.5582 -0.4707  0.9702
  987SOL     OW 2959   2.628   0.961   1.298 -0.3925  0.1794  0.5576
  987SOL    HW1 2960   2.677   0.888   1.356  1.3149 -1.4792  2.5166
  987SOL    HW2 2961   2.587   0.918   1.213 -3.0511 -0.2824  1.4148
  988SOL     OW 2962   0.239   1.164   2.135 -0.4566  0.4737 -0.3558
  988SOL    HW1 2963   0.170   1.209   2.076  2.1544 -2.2707  0.4658
  988SOL    HW2 2964   0.337   1.172   2.095 -0.3195 -0.6158  0.5218
  989SOL     OW 2965   1.898   1.624   0.313  0.1726  0.3502  0.4736
  989SOL    HW1 2966   1.853   1.715   0.318  0.1589 -2.2887 -0.8293
  989SOL    HW2 2967   1.850   1.561   0.254  1.4881  1.3096 -1.4100
  990SOL     OW 2968   0.748   0.531   2.148 -0.0979  0.0192 -0.0817
  990SOL    HW1 2969   0.833   0.547   2.201  0.9939 -2.0085  1.3275
  990SOL    HW2 2970   0.761   0.524   2.047  0.4326  1.2719 -2.3429
  991SOL     OW 2971   1.218   1.177   0.677  0.1364 -0.1254 -0.1711
  991SOL    HW1 2972   1.195   1.080   0.699 -0.7238  0.1409  2.3106
  991SOL    HW2 2973   1.218   1.197   0.575 -2.1981  1.1469  1.8158
  992SOL     OW 2974   2.109   0.942   0.512  0.3550 -0.2771 -0.0091
  992SOL    HW1 2975   2.181   0.923   0.577 -1.2578 -0.8152 -1.0108
  992SOL    HW2 2976   2.055   1.028   0.532 -0.9944  2.1716  0.6097
  993SOL     OW 2977   2.974   0.984   0.759 -0.2169 -0.2809  0.2708
  993SOL    HW1 2978   2.987   0.985   0.861 -1.0376 -2.1016  2.4929
  993SOL    HW2 2979   2.997   0.894   0.713  1.3011 -0.2659 -2.2398
  994SOL     OW 2980   0.135   2.151   2.462 -0.3481  0.2686 -0.0351
  994SOL    HW1 2981   0.101   2.088   2.393  1.4773  3.5172  0.6702
  994SOL    HW2 2982   0.157   2.104   2.549  1.8472  0.5056  2.1691
  995SOL     OW 2983   1.708   1.220   2.644  0.0772  0.0346 -0.3590
  995SOL    HW1 2984   1.627   1.156   2.634 -2.7352 -1.6759 -1.2210
  995SOL    HW2 2985   1.731   1.240   2.738  1.0516 -0.3856 -2.0327
  996SOL     OW 2986   2.528   1.157   0.370  0.0163 -0.0469  0.5514
  996SOL    HW1 2987   2.477   1.214   0.298 -0.7423 -0.5749 -1.9706
  996SOL    HW2 2988   2.502   1.059   0.367 -0.1388  1.2262 -0.6313
  997SOL     OW 2989   2.014   1.266   1.905  0.0392 -0.2549  1.0617
  997SOL    HW1 2990   2.052   1.180   1.862  1.1609  1.0317 -0.3452
  997SOL    HW2 2991   2.041   1.274   2.003  1.4219 -0.8295 -0.2152
  998SOL     OW 2992   2.464   1.856   0.262  0.6425 -0.4297  0.2384
  998SOL    HW1 2993   2.374   1.847   0.215  3.9987 -1.1962  2.0264
  998SOL    HW2 2994   2.498   1.764   0.287 -0.7283  0.2283  2.2991
  999SOL     OW 2995   3.079   2.334   0.131 -0.2722 -0.1004 -0.6985
  999SOL    HW1 2996   3.050   2.244   0.154  0.9960  4.7301 -1.1622
  999SOL    HW2 2997   2.999   2.398   0.112 -2.3760 -1.6279 -0.4862
 1000SOL     OW 2998   1.073   0.870   2.000  0.8037 -0.0989  0.5742
 1000SOL    HW1 2999   1.126   0.791   2.033 -0.0635  0.5979  0.0771
 1000SOL    HW2 3000   1.107   0.952   2.047 -2.0309 -0.9668 -2.9078
   3.10494   3.10494   3.10494
