1000 SPC/Fw water molecules t= 459.00000 step= 459000
 3000
    1SOL     OW    1   2.843   2.952   1.545 -0.3107 -0.8862 -0.2098
    1SOL    HW1    2   2.877   2.995   1.459 -0.9453  2.1217 -0.4047
    1SOL    HW2    3   2.763   2.895   1.525  2.4413 -0.7513  0.4721
    2SOL     OW    4   2.867   0.235   0.078  0.0882  0.0360 -0.5717
    2SOL    HW1    5   2.904   0.144   0.052 -0.7989  0.3814  0.7991
    2SOL    HW2    6   2.783   0.232   0.133 -1.0220 -0.4385  1.7176
    3SOL     OW    7   1.234   2.718   0.153 -0.1858 -0.5353  0.2832
    3SOL    HW1    8   1.253   2.630   0.107  0.4911  0.0347  0.2820
    3SOL    HW2    9   1.310   2.788   0.143  1.8997  0.8486 -0.1043
    4SOL     OW   10   1.303   2.564   2.486 -0.3405 -0.2549 -0.7699
    4SOL    HW1   11   1.404   2.559   2.519  2.6040 -1.5922  0.2939
    4SOL    HW2   12   1.243   2.526   2.562 -1.3234 -0.7445  3.1522
    5SOL     OW   13   2.320   0.254   2.175 -0.0460 -1.2070  0.1164
    5SOL    HW1   14   2.343   0.209   2.086  2.8041 -0.9848 -1.0249
    5SOL    HW2   15   2.350   0.353   2.183 -3.7909  1.6973  0.4259
    6SOL     OW   16   2.598   1.873   1.157  0.2300  0.0436 -0.3476
    6SOL    HW1   17   2.605   1.775   1.133  1.1333  0.9485 -0.3494
    6SOL    HW2   18   2.525   1.894   1.227 -0.2417  1.0941  3.1844
    7SOL     OW   19   1.163   2.139   0.494  0.0458  0.1963  0.1591
    7SOL    HW1   20   1.103   2.107   0.569 -0.6203 -0.3403  0.6307
    7SOL    HW2   21   1.147   2.077   0.413 -0.5491  1.0011 -2.9503
    8SOL     OW   22   0.087   0.727   0.598  0.5355  0.2951 -0.5212
    8SOL    HW1   23   0.175   0.726   0.549 -2.0688  0.2081  0.5815
    8SOL    HW2   24   0.022   0.781   0.542  0.6023  2.3666  1.0272
    9SOL     OW   25   0.153   2.944   1.535  0.1822  0.5474  0.1231
    9SOL    HW1   26   0.212   2.862   1.549 -1.2150  1.0717  0.2030
    9SOL    HW2   27   0.072   2.927   1.594  1.1148 -2.0018  0.8694
   10SOL     OW   28   1.167   2.402   0.387  0.8720  0.0827 -0.4137
   10SOL    HW1   29   1.158   2.314   0.439 -0.1455  1.8187  1.0210
   10SOL    HW2   30   1.208   2.472   0.447  0.2099  1.7986 -1.5490
   11SOL     OW   31   2.178   0.993   1.355 -0.4809  0.1450  0.1937
   11SOL    HW1   32   2.184   0.919   1.286 -1.5981  0.0840  2.1070
   11SOL    HW2   33   2.131   0.962   1.442  0.2018 -0.5955  2.0365
   12SOL     OW   34   0.349   0.756   2.057 -0.1677  0.4248 -0.3592
   12SOL    HW1   35   0.387   0.753   1.963  1.1173  1.7618  1.2489
   12SOL    HW2   36   0.406   0.699   2.122 -0.1526  1.4382  2.1919
   13SOL     OW   37   2.020   0.212   0.357  0.2315  0.0519  0.3492
   13SOL    HW1   38   1.928   0.167   0.354  0.1471  1.9897  0.7568
   13SOL    HW2   39   2.020   0.301   0.308  1.0548  3.0971  2.0010
   14SOL     OW   40   1.996   2.084   0.087 -0.1468 -0.6912 -0.1163
   14SOL    HW1   41   2.088   2.039   0.085 -1.6548  3.2370 -4.4841
   14SOL    HW2   42   1.929   2.032   0.037  1.0453  2.4526  2.1160
   15SOL     OW   43   0.126   2.785   2.540  0.0788 -0.0435 -0.1755
   15SOL    HW1   44   0.098   2.803   2.441  2.2731 -0.2580 -2.5979
   15SOL    HW2   45   0.115   2.869   2.594  1.1170 -3.8838 -0.1637
   16SOL     OW   46   2.938   0.723   1.201  0.4553  0.1716 -0.0622
   16SOL    HW1   47   2.929   0.704   1.101 -1.2499 -0.6549 -1.9913
   16SOL    HW2   48   2.904   0.645   1.250 -0.8415  0.3308  0.3207
   17SOL     OW   49   0.706   0.218   0.955  0.5042 -0.1028  0.4034
   17SOL    HW1   50   0.679   0.132   1.007 -0.3748 -0.7550 -1.4718
   17SOL    HW2   51   0.795   0.205   0.906  0.6118 -0.7675 -2.0365
   18SOL     OW   52   0.095   0.183   0.623 -0.2816 -0.2732  0.1590
   18SOL    HW1   53   0.104   0.191   0.725 -1.4312  1.1890 -0.2836
   18SOL    HW2   54   0.168   0.128   0.585  0.3776 -1.3871  0.5542
   19SOL     OW   55   1.465   1.052   1.169 -0.0732 -0.4592  0.8256
   19SOL    HW1   56   1.474   1.102   1.079  2.0853 -0.1590  2.2264
   19SOL    HW2   57   1.369   1.062   1.201  0.5534 -1.6456  0.8038
   20SOL     OW   58   2.302   1.896   2.509 -0.1646  0.0488  0.5851
   20SOL    HW1   59   2.344   1.986   2.504 -0.2915  0.5063 -2.4695
   20SOL    HW2   60   2.369   1.834   2.549 -2.8665  2.7526 -0.4709
   21SOL     OW   61   1.333   2.969   0.414  0.3600  0.2730 -0.3890
   21SOL    HW1   62   1.395   2.920   0.482  0.5564  1.4740 -1.0206
   21SOL    HW2   63   1.386   2.967   0.328 -3.9715  0.1442 -1.5275
   22SOL     OW   64   2.381   0.897   0.158 -0.1361  0.3499  0.1866
   22SOL    HW1   65   2.378   0.988   0.196  1.8405  0.0351  0.2290
   22SOL    HW2   66   2.435   0.844   0.224 -1.6677  1.6087 -2.4286
   23SOL     OW   67   1.045   0.351   2.178  0.4012 -0.1227  0.2571
   23SOL    HW1   68   0.995   0.266   2.200 -1.9574 -0.0801 -1.7522
   23SOL    HW2   69   1.144   0.337   2.194 -1.0363  1.5431 -1.3274
   24SOL     OW   70   1.922   2.346   0.934  0.5364  0.4709 -0.2777
   24SOL    HW1   71   2.006   2.401   0.948 -0.0530 -0.3035 -0.0755
   24SOL    HW2   72   1.846   2.407   0.905  3.7314  1.5631 -1.1349
   25SOL     OW   73   1.691   3.063   2.706  0.1795  0.9414  0.7321
   25SOL    HW1   74   1.650   0.062   2.708  0.1236 -1.8976 -0.7580
   25SOL    HW2   75   1.617   3.003   2.667  1.2097  0.2486  0.1248
   26SOL     OW   76   1.294   2.901   2.702 -0.3459 -0.6989 -0.5982
   26SOL    HW1   77   1.379   2.908   2.648 -1.8115 -1.0349 -2.4962
   26SOL    HW2   78   1.261   2.810   2.702  1.0877  2.3303  0.4094
   27SOL     OW   79   1.149   0.370   1.048  0.3351  0.0348  0.1648
   27SOL    HW1   80   1.176   0.293   0.989  1.3230 -1.4665  0.5625
   27SOL    HW2   81   1.148   0.344   1.141 -0.6452  1.4913 -3.8374
   28SOL     OW   82   0.157   2.024   1.046 -0.1559  0.0301 -0.3879
   28SOL    HW1   83   0.258   2.011   1.033  0.2375 -0.7908 -0.2055
   28SOL    HW2   84   0.133   2.061   1.136  3.5602  2.6311  1.1182
   29SOL     OW   85   2.616   1.088   1.334 -0.6663 -0.1659 -0.2197
   29SOL    HW1   86   2.559   1.033   1.269 -1.3885  1.6178 -1.4730
   29SOL    HW2   87   2.568   1.079   1.425 -0.2675 -0.0898  1.5100
   30SOL     OW   88   1.755   2.975   1.382  0.3251  0.0045  0.4060
   30SOL    HW1   89   1.749   2.877   1.350 -1.2091  1.6107  0.3810
   30SOL    HW2   90   1.659   3.008   1.404 -3.5318  1.3574  1.1386
   31SOL     OW   91   1.369   2.837   1.208 -0.0015 -0.3083  0.2563
   31SOL    HW1   92   1.356   2.806   1.112 -1.0625  0.4539 -0.5934
   31SOL    HW2   93   1.433   2.780   1.264 -2.0924  1.8034  2.4522
   32SOL     OW   94   2.246   1.411   1.939 -0.0883 -0.6158  0.1802
   32SOL    HW1   95   2.319   1.421   1.867  2.6243 -1.0474 -0.3879
   32SOL    HW2   96   2.162   1.369   1.903 -0.7685  0.6544  0.0315
   33SOL     OW   97   2.177   2.889   2.537  0.1732 -0.0435  0.7696
   33SOL    HW1   98   2.215   2.857   2.628  0.4323 -0.3036 -1.1609
   33SOL    HW2   99   2.194   2.986   2.537 -0.0321  0.1656  1.5929
   34SOL     OW  100   2.005   0.854   0.794 -0.9564 -0.3327 -0.2226
   34SOL    HW1  101   2.014   0.791   0.711  1.5524  0.8911 -2.9883
   34SOL    HW2  102   1.913   0.902   0.796 -0.5905  3.6237 -1.2401
   35SOL     OW  103   0.232   1.446   1.907 -0.4973  0.2011 -0.1465
   35SOL    HW1  104   0.239   1.513   1.983 -3.2634 -0.0884 -2.2703
   35SOL    HW2  105   0.145   1.472   1.861 -0.2252 -1.3435  0.9199
   36SOL     OW  106   2.558   2.460   2.905  0.0211  0.1883 -0.0510
   36SOL    HW1  107   2.508   2.422   2.984  2.9657 -1.7882 -2.3315
   36SOL    HW2  108   2.502   2.510   2.842  1.1515 -2.3492  3.1723
   37SOL     OW  109   1.542   2.530   1.913 -0.5096  0.4018 -0.1558
   37SOL    HW1  110   1.616   2.601   1.928 -0.2758 -1.6976 -0.9017
   37SOL    HW2  111   1.456   2.546   1.961  1.5625 -0.4093 -1.2057
   38SOL     OW  112   0.878   1.209   2.333 -0.1014  0.3810  0.5796
   38SOL    HW1  113   0.852   1.148   2.407  1.3132  2.9913 -2.6169
   38SOL    HW2  114   0.903   1.158   2.247  0.1794  0.7101  1.0405
   39SOL     OW  115   1.795   0.470   1.750 -0.6860 -0.9276  0.1014
   39SOL    HW1  116   1.703   0.439   1.770 -0.0686  1.5732 -0.5942
   39SOL    HW2  117   1.860   0.396   1.749 -0.1776  2.4651  1.7425
   40SOL     OW  118   0.960   2.398   0.691 -0.4505 -0.5725  0.1672
   40SOL    HW1  119   0.892   2.392   0.613  0.0274  0.8000 -1.8052
   40SOL    HW2  120   0.950   2.333   0.766 -1.5222 -0.2700  1.5673
   41SOL     OW  121   2.336   2.057   1.074 -0.2734 -0.0796 -0.2918
   41SOL    HW1  122   2.364   2.065   1.170 -0.3720 -0.8064 -1.2235
   41SOL    HW2  123   2.332   2.152   1.033 -3.5714  1.6190 -0.4248
   42SOL     OW  124   2.376   0.536   0.329 -0.0987  0.0861  0.1605
   42SOL    HW1  125   2.320   0.535   0.246  1.0775  0.7221 -1.7950
   42SOL    HW2  126   2.431   0.449   0.332  0.6012 -0.2337  2.0415
   43SOL     OW  127   0.713   1.424   2.365 -0.0593  0.6715 -0.0044
   43SOL    HW1  128   0.631   1.384   2.410  0.6529 -1.0932 -0.1277
   43SOL    HW2  129   0.772   1.342   2.345 -2.7658 -1.2807  1.7435
   44SOL     OW  130   1.716   2.720   1.283  0.3845  0.3265 -0.2810
   44SOL    HW1  131   1.637   2.661   1.272  1.9993  2.8823 -1.8218
   44SOL    HW2  132   1.792   2.661   1.314  5.1572 -2.8253  0.6114
   45SOL     OW  133   0.487   2.334   2.840 -0.0140  0.3265 -0.1171
   45SOL    HW1  134   0.465   2.360   2.940 -2.3857  1.7880  3.1578
   45SOL    HW2  135   0.414   2.363   2.777  1.0047  0.4604 -0.2517
   46SOL     OW  136   0.570   2.689   2.123  0.2878  0.3892 -0.2406
   46SOL    HW1  137   0.610   2.681   2.030  0.5788  0.4985  0.7872
   46SOL    HW2  138   0.633   2.645   2.189  0.8150  1.8513  0.0829
   47SOL     OW  139   0.381   1.790   0.775  0.2257  0.4271  0.2386
   47SOL    HW1  140   0.477   1.758   0.753  0.2022 -0.7979  0.9840
   47SOL    HW2  141   0.381   1.859   0.854  0.5521  0.5339  1.5718
   48SOL     OW  142   0.761   2.938   1.366  0.1025  0.3291  0.3127
   48SOL    HW1  143   0.834   2.873   1.378 -2.3800 -0.4786 -2.5511
   48SOL    HW2  144   0.728   2.953   1.464  1.1545  0.4620  1.6506
   49SOL     OW  145   0.103   3.000   2.969 -0.0576 -0.4924 -0.1487
   49SOL    HW1  146   0.169   3.032   3.035 -1.6001 -0.5184 -3.9411
   49SOL    HW2  147   0.010   3.025   2.992  0.1687 -0.1626 -2.7679
   50SOL     OW  148   1.306   1.137   0.185 -0.1038 -0.1941 -0.5003
   50SOL    HW1  149   1.226   1.076   0.180 -0.2437 -0.6260  3.4985
   50SOL    HW2  150   1.275   1.234   0.191  0.6965  0.8216 -2.0458
   51SOL     OW  151   1.788   0.071   0.396  0.1296  0.0701 -0.4114
   51SOL    HW1  152   1.699   0.104   0.356 -0.8162  0.4228 -2.3204
   51SOL    HW2  153   1.808   0.098   0.494  1.0773 -0.6198  1.1477
   52SOL     OW  154   0.197   1.620   1.153 -0.3960  0.0819  0.5608
   52SOL    HW1  155   0.281   1.600   1.097  1.6671 -3.0125 -0.7217
   52SOL    HW2  156   0.116   1.597   1.096 -2.3081  0.2896  1.6969
   53SOL     OW  157   0.191   1.118   3.010  0.1268 -0.5446  0.2804
   53SOL    HW1  158   0.140   1.104   0.002  0.1125  0.3543 -0.2395
   53SOL    HW2  159   0.271   1.182   3.023 -0.6954  3.4930 -0.1068
   54SOL     OW  160   2.725   2.263   3.023 -0.2326  0.4474  0.0370
   54SOL    HW1  161   2.755   2.332   3.091  0.5557  1.0346  2.2497
   54SOL    HW2  162   2.646   2.301   2.967 -3.3146  3.7533 -1.3513
   55SOL     OW  163   2.564   2.289   1.160 -0.2743  0.1338 -0.0051
   55SOL    HW1  164   2.636   2.257   1.220 -1.6343  0.3483  0.1000
   55SOL    HW2  165   2.475   2.282   1.207  0.5274 -2.2305  1.0362
   56SOL     OW  166   1.804   0.451   1.102 -0.3503 -0.0519  0.2308
   56SOL    HW1  167   1.800   0.347   1.106  0.9731 -2.7912  0.4228
   56SOL    HW2  168   1.818   0.485   1.007 -0.7242 -1.1473  0.9962
   57SOL     OW  169   1.941   1.925   1.181 -0.0757 -0.6900  0.1012
   57SOL    HW1  170   1.914   1.855   1.117  3.2270  3.7697  1.9547
   57SOL    HW2  171   1.924   2.020   1.147 -1.1989  1.1885 -1.8975
   58SOL     OW  172   2.673   0.334   2.067  0.3380  0.0681 -0.1621
   58SOL    HW1  173   2.760   0.346   2.114  1.0130 -1.6782  0.6821
   58SOL    HW2  174   2.605   0.404   2.097 -1.1492 -1.8437 -0.9995
   59SOL     OW  175   1.413   2.302   1.895  0.4265  0.7992  0.1897
   59SOL    HW1  176   1.318   2.320   1.927  1.1949 -2.0450  2.0928
   59SOL    HW2  177   1.471   2.378   1.911 -2.9894 -4.4870 -3.0745
   60SOL     OW  178   0.924   2.393   2.991  0.0450  0.0249  0.0177
   60SOL    HW1  179   0.912   2.315   3.054 -0.6892 -0.7167  1.5050
   60SOL    HW2  180   0.880   2.476   3.028  1.8705 -2.4010 -1.3710
   61SOL     OW  181   0.572   2.059   0.211 -0.3579  0.0992  0.1818
   61SOL    HW1  182   0.624   2.126   0.159  0.9521 -2.0174 -1.0370
   61SOL    HW2  183   0.543   1.977   0.152  1.5109 -1.1030 -1.2473
   62SOL     OW  184   1.271   1.424   1.624  0.2665  0.1399 -0.2220
   62SOL    HW1  185   1.200   1.432   1.697 -1.7718  0.0119 -0.4849
   62SOL    HW2  186   1.231   1.380   1.539 -0.7650 -0.9313  2.3593
   63SOL     OW  187   1.001   2.011   0.674  0.3040 -0.5104 -0.3524
   63SOL    HW1  188   0.905   1.994   0.658  0.0833 -0.9823  0.0061
   63SOL    HW2  189   1.044   1.921   0.699 -1.5824 -0.8323  0.1927
   64SOL     OW  190   1.386   1.481   2.658 -0.1100  0.0224  0.1018
   64SOL    HW1  191   1.483   1.465   2.655  1.1155 -0.9508 -3.7404
   64SOL    HW2  192   1.360   1.542   2.737 -1.1732 -0.9290  1.4696
   65SOL     OW  193   1.680   1.886   1.797  0.8184 -0.2010  0.6673
   65SOL    HW1  194   1.742   1.959   1.763 -1.2008  0.2602 -0.4593
   65SOL    HW2  195   1.603   1.925   1.849 -0.0129  0.0863 -2.1187
   66SOL     OW  196   2.931   1.139   1.014 -0.0005 -0.4958  0.8532
   66SOL    HW1  197   2.942   1.120   1.113  3.3767  1.4697 -2.3149
   66SOL    HW2  198   2.876   1.064   0.975  0.5947  2.4076  2.3050
   67SOL     OW  199   2.165   2.504   0.898  0.7408 -0.0959 -0.4527
   67SOL    HW1  200   2.215   2.414   0.892 -0.7411 -2.1577  1.7981
   67SOL    HW2  201   2.213   2.575   0.845  0.0163 -1.2733  0.5278
   68SOL     OW  202   2.323   2.572   1.541  0.1937  0.2483 -0.6356
   68SOL    HW1  203   2.318   2.661   1.492 -0.2370  0.7213 -2.8397
   68SOL    HW2  204   2.359   2.589   1.635 -0.2603 -0.9414 -1.1246
   69SOL     OW  205   2.289   2.714   0.062  0.1521  0.2589  0.4015
   69SOL    HW1  206   2.282   2.650   3.082  0.1692  1.0751 -2.1260
   69SOL    HW2  207   2.266   2.810   0.045  1.2035  0.2969 -1.1485
   70SOL     OW  208   0.825   1.506   2.596 -0.0004  0.1784  0.4781
   70SOL    HW1  209   0.913   1.558   2.572 -0.1934 -1.8510 -1.0554
   70SOL    HW2  210   0.778   1.468   2.514 -1.0260 -1.6983  1.9499
   71SOL     OW  211   0.783   1.556   1.911 -0.2944 -0.2915 -0.0262
   71SOL    HW1  212   0.732   1.481   1.862  0.3526  0.4161 -1.5673
   71SOL    HW2  213   0.744   1.644   1.877  0.6126 -3.0587 -1.3033
   72SOL     OW  214   2.912   1.055   1.686 -0.1438 -0.4695 -0.1528
   72SOL    HW1  215   2.887   1.126   1.617 -0.0202  0.0338 -1.2972
   72SOL    HW2  216   2.828   1.030   1.740  1.1714  0.4794 -3.0265
   73SOL     OW  217   0.929   2.327   2.279 -0.0823  0.0082  0.1146
   73SOL    HW1  218   1.029   2.305   2.294  0.6022  0.2411  0.8998
   73SOL    HW2  219   0.899   2.322   2.181  0.8146 -1.0757  1.9947
   74SOL     OW  220   1.585   0.015   1.880 -0.1306 -0.3805 -0.1671
   74SOL    HW1  221   1.563   3.038   1.813  2.9621  0.2719 -1.0593
   74SOL    HW2  222   1.660   3.085   1.937 -2.0935  0.0855  0.0271
   75SOL     OW  223   1.101   3.077   0.519  0.5138  0.3842 -0.5950
   75SOL    HW1  224   1.147   0.064   0.554  0.8437 -0.7961 -0.9077
   75SOL    HW2  225   1.170   3.020   0.465 -0.8453 -0.1722 -4.0588
   76SOL     OW  226   0.586   1.944   2.627  0.5466 -0.0645  0.9663
   76SOL    HW1  227   0.684   1.925   2.625 -2.3221  0.0036  0.6211
   76SOL    HW2  228   0.529   1.876   2.575  1.4904 -2.0857  1.1629
   77SOL     OW  229   0.468   2.557   1.295 -0.6145  0.0949  0.5997
   77SOL    HW1  230   0.428   2.487   1.229 -2.7008 -2.9244 -1.4611
   77SOL    HW2  231   0.470   2.649   1.250 -1.4812 -0.5826  1.9221
   78SOL     OW  232   2.323   1.179   0.248  0.0768 -0.6006  0.6653
   78SOL    HW1  233   2.365   1.234   0.173 -0.0368  0.7590 -0.8375
   78SOL    HW2  234   2.357   1.205   0.341 -0.7828  2.0061  1.1993
   79SOL     OW  235   0.649   1.534   2.831  0.2237  0.4357  0.4063
   79SOL    HW1  236   0.652   1.458   2.899  0.6610 -0.7211  2.6543
   79SOL    HW2  237   0.717   1.523   2.758 -0.8325 -2.8250 -0.3625
   80SOL     OW  238   1.819   1.556   1.547  0.1730  0.1230 -0.1653
   80SOL    HW1  239   1.761   1.549   1.630 -1.0633  0.2359 -1.3545
   80SOL    HW2  240   1.877   1.476   1.529 -2.5118  0.0451  0.3255
   81SOL     OW  241   2.131   0.934   2.387  0.7112 -0.0451  0.1010
   81SOL    HW1  242   2.078   0.862   2.333 -0.1803  0.2840 -2.2318
   81SOL    HW2  243   2.159   1.010   2.324  2.2538 -1.3540 -3.1224
   82SOL     OW  244   1.716   1.721   1.373  0.5844 -0.2657 -0.4516
   82SOL    HW1  245   1.657   1.798   1.410 -3.5965  1.6965 -2.9237
   82SOL    HW2  246   1.777   1.686   1.442 -3.3261  1.2032  1.1116
   83SOL     OW  247   2.913   0.030   2.767  0.0134  0.2876  0.3414
   83SOL    HW1  248   2.941   0.041   2.666  3.2732  1.7709 -0.2550
   83SOL    HW2  249   2.899   3.025   2.793 -3.0874  0.6129  0.6107
   84SOL     OW  250   0.989   0.864   0.638 -0.0694 -0.5486  0.0658
   84SOL    HW1  251   0.906   0.881   0.586 -0.0051 -1.0274  0.8527
   84SOL    HW2  252   1.013   0.948   0.694  2.6085  0.4403 -0.3755
   85SOL     OW  253   2.164   1.750   1.300  0.1110  0.3543  0.5642
   85SOL    HW1  254   2.091   1.811   1.258 -0.8377  1.9534 -0.7422
   85SOL    HW2  255   2.161   1.651   1.269 -0.2330 -0.7929 -1.4110
   86SOL     OW  256   0.765   0.832   1.348  0.0206 -0.0949 -0.3950
   86SOL    HW1  257   0.712   0.852   1.268  0.5367 -1.1984  1.0525
   86SOL    HW2  258   0.701   0.838   1.429 -0.2395 -2.8230  1.0486
   87SOL     OW  259   3.054   2.259   2.431  0.1431  0.1691  0.3555
   87SOL    HW1  260   2.991   2.215   2.362 -0.8591  0.3222 -1.8196
   87SOL    HW2  261   2.999   2.334   2.478 -1.9532  2.4804 -2.0766
   88SOL     OW  262   0.153   2.907   0.309  0.3496 -0.2091 -0.6633
   88SOL    HW1  263   0.107   2.984   0.262  1.1887 -0.9279 -1.1788
   88SOL    HW2  264   0.239   2.930   0.353 -3.6736  0.7387 -2.1267
   89SOL     OW  265   1.267   0.179   0.666 -0.1121 -0.7856  0.1378
   89SOL    HW1  266   1.354   0.126   0.644 -2.1143 -1.8618  0.3654
   89SOL    HW2  267   1.273   0.273   0.631  0.3155 -0.0853 -0.4765
   90SOL     OW  268   2.824   0.969   2.098 -0.0108 -0.3951  0.0429
   90SOL    HW1  269   2.785   0.914   2.174 -1.6604  0.8576  1.1888
   90SOL    HW2  270   2.896   0.916   2.046 -1.4969 -0.8642  0.6788
   91SOL     OW  271   2.030   2.749   0.932 -0.0831 -0.1875  0.1053
   91SOL    HW1  272   1.940   2.742   0.981 -0.3756 -0.5796  0.5790
   91SOL    HW2  273   2.067   2.659   0.912 -0.1493  1.4156 -0.8306
   92SOL     OW  274   1.707   1.776   0.617 -0.1187  0.4594  0.5229
   92SOL    HW1  275   1.782   1.726   0.665 -1.0717 -1.1379 -0.5523
   92SOL    HW2  276   1.756   1.840   0.551 -1.7026  2.7868 -2.0508
   93SOL     OW  277   0.373   1.522   0.481  0.0169 -0.3375 -0.2121
   93SOL    HW1  278   0.300   1.583   0.522 -0.3487  1.5465  0.4359
   93SOL    HW2  279   0.462   1.564   0.484 -1.1765  1.6557 -0.5946
   94SOL     OW  280   0.695   2.445   1.431 -0.4841 -0.2853 -0.8161
   94SOL    HW1  281   0.767   2.427   1.368 -1.9794  0.0991 -0.7935
   94SOL    HW2  282   0.614   2.495   1.396  2.3187 -0.7020  1.8543
   95SOL     OW  283   0.127   0.900   0.819  0.1025 -0.1185  0.5259
   95SOL    HW1  284   0.193   0.843   0.874 -2.0970  1.9654  0.7144
   95SOL    HW2  285   0.068   0.842   0.758 -0.4667  1.0284 -0.3925
   96SOL     OW  286   0.621   2.701   1.849  0.2565  0.5860 -0.4522
   96SOL    HW1  287   0.551   2.779   1.844  1.8472 -1.3297  0.2370
   96SOL    HW2  288   0.596   2.630   1.782 -0.5456 -0.4389  1.7263
   97SOL     OW  289   2.500   0.901   0.849 -0.0344 -0.1564 -0.1142
   97SOL    HW1  290   2.556   0.919   0.930  2.0935  1.0236 -0.4836
   97SOL    HW2  291   2.401   0.906   0.879 -0.7755 -1.2826  0.3924
   98SOL     OW  292   0.342   2.051   2.014  0.1470 -0.0460  0.1975
   98SOL    HW1  293   0.334   1.946   2.023 -1.2482 -1.7012 -0.6013
   98SOL    HW2  294   0.255   2.098   2.042  1.4478 -1.7065 -0.1765
   99SOL     OW  295   3.006   0.440   1.538  0.2496 -0.6037 -0.0823
   99SOL    HW1  296   3.035   0.343   1.532 -0.2234  0.7969  0.9368
   99SOL    HW2  297   2.990   0.477   1.631 -1.0146 -1.1936 -0.6381
  100SOL     OW  298   2.025   0.374   2.500 -0.2334 -0.8247  0.0012
  100SOL    HW1  299   2.122   0.382   2.523  1.6173 -3.1437 -1.2269
  100SOL    HW2  300   2.000   0.281   2.484 -0.8036  4.1370  0.1209
  101SOL     OW  301   1.143   3.051   2.114 -0.2411 -0.4515  0.3834
  101SOL    HW1  302   1.146   3.005   2.205  4.0222 -2.6586  1.7766
  101SOL    HW2  303   1.050   3.083   2.087  2.4661  1.4991  1.4558
  102SOL     OW  304   0.927   0.657   1.750 -0.0051 -0.3722  0.2767
  102SOL    HW1  305   0.867   0.581   1.722  0.2273  0.8757  0.6226
  102SOL    HW2  306   1.024   0.652   1.711  2.2100  0.4921 -2.5193
  103SOL     OW  307   0.585   1.015   3.076  0.0360 -0.0033  0.2864
  103SOL    HW1  308   0.615   1.085   3.012 -0.3798  0.7423  1.6289
  103SOL    HW2  309   0.502   0.967   3.034 -3.4417 -0.6453  0.3560
  104SOL     OW  310   0.542   0.342   2.038  0.2465 -0.0393  0.5750
  104SOL    HW1  311   0.548   0.256   1.989 -0.8774  2.8633  1.0129
  104SOL    HW2  312   0.544   0.328   2.139  1.9277 -2.4831 -0.5055
  105SOL     OW  313   2.795   2.359   1.720 -0.3504  0.0129 -0.5871
  105SOL    HW1  314   2.819   2.261   1.725  2.0015 -0.8983 -0.7948
  105SOL    HW2  315   2.873   2.417   1.689  0.1872  0.0308 -1.0624
  106SOL     OW  316   0.916   2.940   0.658 -0.6089  0.3086 -0.8109
  106SOL    HW1  317   0.871   2.869   0.600 -0.2935 -1.4121 -1.1637
  106SOL    HW2  318   0.974   3.001   0.597  0.3746  1.9452 -0.5679
  107SOL     OW  319   2.852   2.005   1.149 -0.5666 -0.5811 -0.1372
  107SOL    HW1  320   2.871   1.996   1.051  0.8403 -1.6477 -0.9954
  107SOL    HW2  321   2.752   2.010   1.170 -2.7271  1.3272 -2.2709
  108SOL     OW  322   0.163   2.358   0.631 -0.5213 -0.0669  0.8822
  108SOL    HW1  323   0.100   2.334   0.554  1.2414 -0.9927 -2.5092
  108SOL    HW2  324   0.143   2.294   0.709 -2.4767 -2.7088 -0.8808
  109SOL     OW  325   1.647   2.972   0.717 -0.3000 -0.1248 -0.0916
  109SOL    HW1  326   1.735   2.976   0.671 -0.6905 -1.8115 -0.9465
  109SOL    HW2  327   1.662   3.002   0.816  0.3449 -0.7798  2.9389
  110SOL     OW  328   1.875   1.922   0.436 -0.2273  0.2979  0.1830
  110SOL    HW1  329   1.856   1.993   0.372  1.3789 -2.0689  1.5699
  110SOL    HW2  330   1.963   1.923   0.487 -1.6746 -0.9347  1.2771
  111SOL     OW  331   1.917   2.678   1.787  0.0138 -0.1801  0.0842
  111SOL    HW1  332   1.933   2.579   1.775  2.3324  0.1311 -1.5223
  111SOL    HW2  333   1.895   2.696   1.889 -1.0892  1.3390  2.3665
  112SOL     OW  334   1.683   2.276   2.439 -0.2559 -0.3949  0.0982
  112SOL    HW1  335   1.642   2.339   2.371  0.1903 -0.3437  3.1675
  112SOL    HW2  336   1.766   2.317   2.478 -1.0935  0.2072 -0.9863
  113SOL     OW  337   2.418   1.978   2.108 -0.3852 -0.2224  0.4317
  113SOL    HW1  338   2.363   1.894   2.127 -0.6151  0.6921  1.3585
  113SOL    HW2  339   2.356   2.060   2.101  1.6830  1.9582  1.1410
  114SOL     OW  340   0.106   1.211   1.091 -0.1475 -0.6721 -0.1699
  114SOL    HW1  341   0.065   1.201   0.998  0.6723  0.7496 -0.8602
  114SOL    HW2  342   0.055   1.265   1.158  2.2225  4.3182 -3.3553
  115SOL     OW  343   2.706   0.683   2.722 -0.4375  0.6423 -0.5526
  115SOL    HW1  344   2.736   0.780   2.722  0.8616 -0.6787 -1.2139
  115SOL    HW2  345   2.777   0.612   2.707 -0.8355 -0.1897  0.2721
  116SOL     OW  346   2.888   0.500   2.714 -0.4365 -0.0760 -0.2662
  116SOL    HW1  347   2.872   0.446   2.799 -0.8808  0.6631 -1.4083
  116SOL    HW2  348   2.896   0.429   2.645 -1.0814 -1.0150  1.1666
  117SOL     OW  349   2.660   2.783   0.649 -0.5021  0.4786 -0.1225
  117SOL    HW1  350   2.714   2.787   0.564 -0.2742  0.4499 -1.1831
  117SOL    HW2  351   2.696   2.844   0.721 -0.8710  0.0816 -1.8226
  118SOL     OW  352   0.857   2.106   2.417  0.6887  0.0712  0.6088
  118SOL    HW1  353   0.814   2.043   2.350  0.2085 -1.5635 -1.8085
  118SOL    HW2  354   0.858   2.197   2.382 -0.0010  0.8348  0.2229
  119SOL     OW  355   0.731   2.644   0.652 -0.0413  0.1347  0.3765
  119SOL    HW1  356   0.813   2.686   0.602  0.2455  0.9685 -2.4005
  119SOL    HW2  357   0.691   2.570   0.595  0.1077  0.7082 -0.5647
  120SOL     OW  358   1.334   0.666   0.754 -0.1583 -0.1613  0.0312
  120SOL    HW1  359   1.414   0.606   0.727 -1.3684 -0.2990 -0.1222
  120SOL    HW2  360   1.351   0.760   0.720 -0.1194 -2.5777  0.9176
  121SOL     OW  361   1.822   0.564   0.848 -0.2319  0.2457 -0.3769
  121SOL    HW1  362   1.798   0.658   0.831  0.8842 -4.0265  1.9069
  121SOL    HW2  363   1.882   0.526   0.778 -1.5668  0.3669 -0.1111
  122SOL     OW  364   1.985   1.526   2.399 -0.1114 -0.0947 -0.6823
  122SOL    HW1  365   1.898   1.542   2.348 -0.0920 -1.0507 -2.8793
  122SOL    HW2  366   2.047   1.496   2.326 -1.5256  2.7491  0.4453
  123SOL     OW  367   0.718   1.192   1.020  0.0313  0.7336  0.0947
  123SOL    HW1  368   0.742   1.101   0.988  1.1561  0.5852 -1.4466
  123SOL    HW2  369   0.640   1.229   0.967 -0.7919 -0.8637 -1.0621
  124SOL     OW  370   0.630   0.346   2.873  0.0355  0.1809 -0.6364
  124SOL    HW1  371   0.634   0.322   2.973  0.5810 -3.2490  1.4866
  124SOL    HW2  372   0.687   0.280   2.819  0.7924  0.2784 -0.1506
  125SOL     OW  373   0.877   2.953   3.064 -0.1993  0.2081  0.2791
  125SOL    HW1  374   0.968   2.969   0.009  0.0624  1.0020 -0.8684
  125SOL    HW2  375   0.827   3.039   3.047 -2.1794 -1.7714 -0.7790
  126SOL     OW  376   0.837   1.213   0.115 -0.0106  0.7617  0.1012
  126SOL    HW1  377   0.845   1.117   0.087  0.2656  0.3643  2.2343
  126SOL    HW2  378   0.796   1.218   0.211 -1.4682 -0.9587  1.1221
  127SOL     OW  379   1.231   2.347   0.951 -0.5648  0.2214 -0.3283
  127SOL    HW1  380   1.224   2.433   0.899 -0.3075  0.4599  0.4359
  127SOL    HW2  381   1.314   2.334   1.008  1.9758 -0.0592 -0.8663
  128SOL     OW  382   1.110   1.637   0.083  0.2112  0.4262 -0.6427
  128SOL    HW1  383   1.151   1.543   0.107  0.0032 -2.5180 -2.0578
  128SOL    HW2  384   1.162   1.709   0.129 -0.3959  0.5144 -1.0993
  129SOL     OW  385   1.861   1.693   1.894 -0.1132  0.2606  0.0161
  129SOL    HW1  386   1.851   1.601   1.856  0.4186  3.1378  1.2206
  129SOL    HW2  387   1.798   1.758   1.848  2.0324 -1.5123  0.3411
  130SOL     OW  388   2.125   1.784   1.817 -0.3485 -0.2227 -0.3071
  130SOL    HW1  389   2.052   1.743   1.876  0.0825 -1.1062  2.5538
  130SOL    HW2  390   2.104   1.770   1.716 -0.4235 -1.3658 -1.8275
  131SOL     OW  391   0.860   2.385   2.011  0.2090  0.0013  0.8268
  131SOL    HW1  392   0.928   2.365   1.936 -0.4835  1.9758  2.0068
  131SOL    HW2  393   0.766   2.386   1.971  1.1773 -0.2785  1.3798
  132SOL     OW  394   2.481   1.524   0.749 -0.5393  0.3224 -0.5012
  132SOL    HW1  395   2.571   1.560   0.773  2.9495 -1.1476 -0.4441
  132SOL    HW2  396   2.461   1.542   0.650 -0.0652 -1.0681 -1.6749
  133SOL     OW  397   0.657   1.819   1.844  0.0695 -0.1630 -0.2475
  133SOL    HW1  398   0.638   1.816   1.743  1.2324  0.7504 -4.4666
  133SOL    HW2  399   0.685   1.912   1.879  1.1530  1.8712 -1.2223
  134SOL     OW  400   3.073   1.530   0.971 -0.8206 -0.4497 -0.1922
  134SOL    HW1  401   3.050   1.470   0.893 -2.6329 -0.0116  0.2095
  134SOL    HW2  402   0.015   1.615   0.942 -1.9700 -1.6028 -1.8842
  135SOL     OW  403   1.920   1.068   2.852  0.0904  0.5094 -0.1102
  135SOL    HW1  404   2.009   1.110   2.877 -2.0227 -0.3265  0.3989
  135SOL    HW2  405   1.925   1.038   2.756 -0.7336 -0.1988  0.6777
  136SOL     OW  406   3.054   1.381   1.313 -0.4476  0.2124  0.0206
  136SOL    HW1  407   2.967   1.408   1.277 -1.5191 -2.4977  1.2068
  136SOL    HW2  408   0.014   1.464   1.341  2.4617 -0.7631 -0.8941
  137SOL     OW  409   2.128   1.417   0.371  0.0272  0.2353 -0.5699
  137SOL    HW1  410   2.106   1.373   0.282 -0.1391  0.9044 -1.5495
  137SOL    HW2  411   2.192   1.369   0.433  2.4751  3.0438 -0.2139
  138SOL     OW  412   2.583   0.522   0.676 -0.1235  0.4124  0.3956
  138SOL    HW1  413   2.522   0.540   0.758  2.6366 -1.5486  1.0320
  138SOL    HW2  414   2.529   0.467   0.608  0.0200 -2.3557 -2.1246
  139SOL     OW  415   2.568   2.977   3.048  0.3761 -0.0055 -0.6942
  139SOL    HW1  416   2.637   2.980   0.029  1.5551 -0.6694  1.8037
  139SOL    HW2  417   2.577   2.893   2.995  0.4133 -2.2506  1.1104
  140SOL     OW  418   0.632   1.659   1.205  0.4094  0.1451  0.1592
  140SOL    HW1  419   0.563   1.590   1.172  0.9390  0.4310  0.7333
  140SOL    HW2  420   0.593   1.752   1.212  0.4544 -0.8152 -2.1844
  141SOL     OW  421   1.132   1.382   0.624  0.1968 -0.2629 -0.4153
  141SOL    HW1  422   1.140   1.351   0.723 -0.3243 -0.7919  1.5461
  141SOL    HW2  423   1.173   1.318   0.560 -2.2576  1.1628 -0.7985
  142SOL     OW  424   1.517   0.776   1.007  0.2971  0.1481 -0.1150
  142SOL    HW1  425   1.425   0.743   1.030  1.7009 -0.5932  0.7998
  142SOL    HW2  426   1.550   0.824   1.091  1.0069 -0.3868  3.7293
  143SOL     OW  427   0.307   0.769   3.052  0.1104 -0.2001  0.3000
  143SOL    HW1  428   0.289   0.738   2.956 -3.5925 -1.2969 -0.1880
  143SOL    HW2  429   0.348   0.694   0.008 -2.3729  0.3462 -0.4311
  144SOL     OW  430   2.639   0.221   0.241 -0.1509  0.1413 -0.0459
  144SOL    HW1  431   2.545   0.235   0.195 -3.3352  2.5158 -1.9486
  144SOL    HW2  432   2.639   0.134   0.296  1.9044  0.2786 -0.5783
  145SOL     OW  433   2.245   0.031   2.649  0.2287  0.7214 -0.5099
  145SOL    HW1  434   2.247   0.082   2.560  2.0152 -1.6035 -1.0710
  145SOL    HW2  435   2.149   0.024   2.690  1.4471  1.3405 -0.8566
  146SOL     OW  436   2.807   2.811   0.426  0.2089 -0.0239 -0.5820
  146SOL    HW1  437   2.801   2.825   0.326  3.2661  0.7911 -0.2261
  146SOL    HW2  438   2.903   2.792   0.454  1.4159  1.1196 -0.9856
  147SOL     OW  439   1.350   0.786   2.690  0.6148  0.2174  0.0390
  147SOL    HW1  440   1.341   0.713   2.758 -0.0626 -0.1559  0.5857
  147SOL    HW2  441   1.279   0.855   2.709  0.6428  0.0129 -3.2071
  148SOL     OW  442   1.082   0.157   0.147 -0.3211  0.3051  0.6193
  148SOL    HW1  443   1.061   0.061   0.120  0.3254 -0.6641 -0.8481
  148SOL    HW2  444   1.048   0.234   0.087  2.8196 -2.4178 -2.0941
  149SOL     OW  445   1.306   0.801   2.395  0.0670  0.7533 -0.4430
  149SOL    HW1  446   1.370   0.793   2.474  1.4511 -1.1975 -1.0275
  149SOL    HW2  447   1.232   0.868   2.411  2.5677 -1.1555 -0.0833
  150SOL     OW  448   1.437   0.074   3.042  0.0374 -0.5671 -0.1909
  150SOL    HW1  449   1.526   0.036   3.007 -2.3021  0.9642 -1.2075
  150SOL    HW2  450   1.451   0.175   3.049 -0.3055  0.5358  0.9590
  151SOL     OW  451   0.681   1.374   3.051  0.0145 -0.1017 -0.3024
  151SOL    HW1  452   0.755   1.321   0.000 -0.5998  0.8982 -1.1452
  151SOL    HW2  453   0.660   1.451   0.018  0.2798 -1.5111 -1.3194
  152SOL     OW  454   0.862   0.345   1.379 -0.1990  0.3255  0.0505
  152SOL    HW1  455   0.773   0.385   1.404 -0.3552 -0.4530 -1.2945
  152SOL    HW2  456   0.902   0.315   1.467 -0.1382  0.2942 -0.7807
  153SOL     OW  457   2.572   2.968   1.881 -0.2013  0.0559 -0.0578
  153SOL    HW1  458   2.580   3.053   1.932 -1.2289 -1.6412 -3.3266
  153SOL    HW2  459   2.574   2.883   1.937  0.5260  0.6920  1.5071
  154SOL     OW  460   2.136   3.019   1.919  0.3275  0.5950  0.5097
  154SOL    HW1  461   2.132   2.961   2.005  0.8544  0.0019 -0.0715
  154SOL    HW2  462   2.105   2.966   1.834 -0.3170 -0.5798 -0.3841
  155SOL     OW  463   0.153   1.101   0.458 -0.1895  0.0985  0.3103
  155SOL    HW1  464   0.064   1.129   0.419  0.1282 -0.2434 -2.0482
  155SOL    HW2  465   0.153   1.101   0.558  0.9549  3.7355 -0.1369
  156SOL     OW  466   2.049   1.052   0.292  0.2952 -0.0540  0.0296
  156SOL    HW1  467   2.121   1.025   0.360  1.1320  1.9454  1.0039
  156SOL    HW2  468   2.081   1.134   0.240  0.8836 -1.0260 -0.5398
  157SOL     OW  469   0.675   2.650   2.873  0.4534 -0.0446 -1.0638
  157SOL    HW1  470   0.750   2.636   2.944  1.4462  1.4608  0.4694
  157SOL    HW2  471   0.585   2.640   2.922 -0.2351 -0.3007  0.2981
  158SOL     OW  472   2.020   0.911   1.568  0.1447  0.0908 -0.8318
  158SOL    HW1  473   1.978   0.858   1.642  2.0947  2.1447  0.6880
  158SOL    HW2  474   1.985   1.011   1.572 -1.5549  2.9685  0.4452
  159SOL     OW  475   0.207   0.230   0.150 -0.1460  0.2993 -0.7445
  159SOL    HW1  476   0.237   0.164   0.082  0.0198  0.7150  0.4957
  159SOL    HW2  477   0.286   0.269   0.209  2.6490  0.2375  0.8709
  160SOL     OW  478   2.487   1.998   1.845  0.0175  0.8319 -0.0642
  160SOL    HW1  479   2.525   2.091   1.837  1.3687 -0.6046 -1.0837
  160SOL    HW2  480   2.459   1.977   1.943  0.3755 -2.8725  0.9572
  161SOL     OW  481   0.149   0.557   0.277  0.4273  0.1620  0.3249
  161SOL    HW1  482   0.159   0.659   0.245  1.1487  1.7211  0.9156
  161SOL    HW2  483   0.098   0.504   0.206 -1.7028  0.5266  2.2013
  162SOL     OW  484   0.735   0.451   1.703  0.4490 -0.8973 -0.0047
  162SOL    HW1  485   0.679   0.485   1.779 -1.7729  0.4447 -3.4558
  162SOL    HW2  486   0.713   0.355   1.690  0.7133  1.1545 -0.9811
  163SOL     OW  487   2.650   3.031   2.231  0.4709  0.3726 -0.1528
  163SOL    HW1  488   2.623   3.068   2.321  1.9865 -1.4786  1.3450
  163SOL    HW2  489   2.618   3.084   2.146  0.2787  0.7668 -2.4079
  164SOL     OW  490   2.308   1.598   0.230  0.0200  0.0689  0.0954
  164SOL    HW1  491   2.222   1.615   0.176  0.2373 -2.6953  2.1847
  164SOL    HW2  492   2.289   1.522   0.297 -1.6298 -1.8825  1.6033
  165SOL     OW  493   0.276   2.935   0.706  0.7296 -0.1251  0.2224
  165SOL    HW1  494   0.313   3.008   0.644  1.0613  1.1299 -2.5039
  165SOL    HW2  495   0.342   2.856   0.708  0.0455  3.7478 -0.9409
  166SOL     OW  496   2.834   0.664   3.011  0.4524 -0.0123  0.3647
  166SOL    HW1  497   2.785   0.657   0.004 -0.2303  2.0907 -2.1407
  166SOL    HW2  498   2.768   0.702   2.941 -1.9245  0.2552 -0.6508
  167SOL     OW  499   2.173   0.444   0.469 -0.4222 -0.3194  0.1383
  167SOL    HW1  500   2.261   0.460   0.421 -0.9954  0.8292 -1.1845
  167SOL    HW2  501   2.132   0.360   0.426 -1.5808 -0.0514 -1.0818
  168SOL     OW  502   1.557   0.133   2.323 -0.0913 -0.3824 -0.3823
  168SOL    HW1  503   1.495   0.143   2.402 -0.7250 -2.4102 -0.4184
  168SOL    HW2  504   1.576   0.222   2.286 -1.6457 -0.7699  0.9791
  169SOL     OW  505   0.420   1.997   0.986  0.6184 -0.1538  0.0158
  169SOL    HW1  506   0.447   1.949   1.072  0.6882 -1.5720  0.7230
  169SOL    HW2  507   0.507   2.033   0.943 -0.2659 -2.4079 -0.7392
  170SOL     OW  508   0.301   0.103   1.505  0.2060  0.6227  0.6437
  170SOL    HW1  509   0.328   0.133   1.596  0.8131 -0.0856 -1.5258
  170SOL    HW2  510   0.245   0.014   1.511 -1.2549 -2.0748  0.0105
  171SOL     OW  511   2.334   1.319   2.350 -0.3615  0.0255 -0.1409
  171SOL    HW1  512   2.247   1.323   2.298  2.3213  1.4551 -0.4767
  171SOL    HW2  513   2.410   1.367   2.304 -1.5447  1.2481  1.6631
  172SOL     OW  514   1.112   1.696   0.941  0.6690  0.4402 -0.3199
  172SOL    HW1  515   1.020   1.672   0.984 -3.3416 -2.6969  0.9111
  172SOL    HW2  516   1.190   1.669   0.994 -0.4091 -0.6843  0.0763
  173SOL     OW  517   1.972   2.364   0.033 -0.6434  0.2901  0.1562
  173SOL    HW1  518   1.972   2.432   0.109  1.1665  3.7426 -1.0814
  173SOL    HW2  519   1.988   2.269   0.072  1.1022 -1.7393  1.3160
  174SOL     OW  520   1.928   0.820   0.210  0.2140  0.7517 -0.4245
  174SOL    HW1  521   1.917   0.828   0.108  1.5888  1.3701 -0.2396
  174SOL    HW2  522   1.987   0.898   0.243 -0.0347  2.5884 -1.5498
  175SOL     OW  523   0.611   1.787   1.595  0.5813  0.2723 -0.8923
  175SOL    HW1  524   0.538   1.715   1.585  0.8328 -1.0305  0.3748
  175SOL    HW2  525   0.585   1.875   1.553  0.2290 -3.8768 -1.9618
  176SOL     OW  526   0.681   0.259   0.424  0.3706  0.3533  0.3548
  176SOL    HW1  527   0.778   0.232   0.427 -1.1701  1.3192 -0.7547
  176SOL    HW2  528   0.656   0.297   0.514 -0.3976  0.3046 -0.4184
  177SOL     OW  529   2.997   1.447   0.043  0.3086 -0.4197  0.5980
  177SOL    HW1  530   2.965   1.394   3.054 -2.4102 -0.7331  0.7579
  177SOL    HW2  531   3.054   1.382   0.097  0.8662  0.2256 -1.7543
  178SOL     OW  532   2.797   2.302   2.080  0.2721 -0.1257 -0.1739
  178SOL    HW1  533   2.697   2.313   2.058  1.4002  1.9962  0.6583
  178SOL    HW2  534   2.830   2.388   2.122  1.1130 -4.2227 -3.4648
  179SOL     OW  535   2.250   0.182   2.956 -0.3867 -0.2319  0.1066
  179SOL    HW1  536   2.289   0.238   2.880  0.4337 -1.4079  0.3132
  179SOL    HW2  537   2.153   0.206   2.966 -0.1229  1.1069  0.6386
  180SOL     OW  538   2.405   0.530   0.889 -0.0340  0.7445  0.2056
  180SOL    HW1  539   2.308   0.537   0.863 -0.4627 -2.5140 -1.6740
  180SOL    HW2  540   2.414   0.583   0.972 -1.3153  1.1686 -1.5140
  181SOL     OW  541   3.046   0.005   2.535  0.6503  0.3060  0.1634
  181SOL    HW1  542   3.081   0.091   2.492  0.3943 -0.9615 -0.7097
  181SOL    HW2  543   3.014   3.036   2.461 -1.6532  0.9665 -0.8691
  182SOL     OW  544   2.511   2.346   2.379 -0.8874  0.2277  0.2559
  182SOL    HW1  545   2.591   2.403   2.401  0.2348  0.9395 -0.1985
  182SOL    HW2  546   2.501   2.333   2.280 -1.6527 -2.0488  0.1076
  183SOL     OW  547   2.530   1.093   1.582  0.0258 -0.1700  0.2452
  183SOL    HW1  548   2.548   1.173   1.640  1.5100  2.4694  1.3996
  183SOL    HW2  549   2.435   1.098   1.565  4.6362  2.1982  1.8745
  184SOL     OW  550   2.882   1.605   1.176 -0.2253  0.5398  0.3374
  184SOL    HW1  551   2.919   1.676   1.238  0.3710 -0.0283 -0.4843
  184SOL    HW2  552   2.946   1.584   1.098 -1.1208  1.2796  1.9316
  185SOL     OW  553   0.304   0.000   0.927  0.1674 -0.2813 -0.3130
  185SOL    HW1  554   0.285   3.048   0.840  1.2465  4.4729  2.3540
  185SOL    HW2  555   0.384   3.056   0.969 -1.6916  1.2491 -2.5357
  186SOL     OW  556   2.246   2.433   2.398 -0.0379  0.1199  0.3999
  186SOL    HW1  557   2.247   2.535   2.379  0.9555  0.4241  1.7512
  186SOL    HW2  558   2.339   2.396   2.398 -0.8504 -3.1023  1.0556
  187SOL     OW  559   0.367   1.346   0.678  0.0848  0.2115  0.0384
  187SOL    HW1  560   0.351   1.426   0.613  1.6570 -0.0651 -1.8592
  187SOL    HW2  561   0.283   1.294   0.692  2.2500 -1.4822  1.0372
  188SOL     OW  562   1.760   1.942   3.066  0.2103 -1.1666  0.0153
  188SOL    HW1  563   1.697   1.973   2.993  1.2246 -0.0531 -2.9106
  188SOL    HW2  564   1.709   1.884   0.036 -0.3778 -2.5577 -3.5263
  189SOL     OW  565   0.213   1.501   2.887  0.0394 -0.1006  0.2904
  189SOL    HW1  566   0.151   1.466   2.816 -1.9540  0.3511  1.7056
  189SOL    HW2  567   0.172   1.591   2.917  0.1319  3.6916 -1.3074
  190SOL     OW  568   2.448   0.654   2.592 -0.2963 -0.0746  0.4996
  190SOL    HW1  569   2.372   0.725   2.599  1.1611  1.5425 -0.8041
  190SOL    HW2  570   2.533   0.678   2.647 -2.6139 -2.6732  0.4806
  191SOL     OW  571   0.938   1.003   2.003 -0.4321  0.3100  0.2577
  191SOL    HW1  572   0.905   0.958   1.917  0.5640  3.1790 -0.3881
  191SOL    HW2  573   0.889   1.093   2.005 -0.2470 -0.0389 -2.8067
  192SOL     OW  574   1.706   1.115   1.968  0.3747  0.2563 -0.6420
  192SOL    HW1  575   1.629   1.184   1.967 -1.7960  1.0344 -0.3830
  192SOL    HW2  576   1.685   1.037   1.910  1.7081  0.3686 -0.5102
  193SOL     OW  577   1.350   2.821   0.938 -0.6090 -0.5426 -0.4912
  193SOL    HW1  578   1.372   2.750   0.872 -1.0441 -1.8380  0.1157
  193SOL    HW2  579   1.259   2.867   0.923  2.3355 -2.4056 -1.4458
  194SOL     OW  580   1.315   1.513   1.987 -0.2459 -0.3258  0.0328
  194SOL    HW1  581   1.416   1.522   2.010 -0.0622 -1.4477 -1.9807
  194SOL    HW2  582   1.284   1.597   1.947 -0.6137 -1.5388  1.9741
  195SOL     OW  583   1.847   0.157   0.662 -0.2235  0.3300  0.8533
  195SOL    HW1  584   1.902   0.245   0.667  0.2658  0.2525 -1.1355
  195SOL    HW2  585   1.847   0.101   0.750  0.9372 -1.3877 -0.5860
  196SOL     OW  586   0.901   1.479   2.146 -0.1807 -0.0001 -0.1131
  196SOL    HW1  587   0.850   1.483   2.061 -0.1823  0.8556  3.7418
  196SOL    HW2  588   0.832   1.474   2.221  0.7460  1.3371  0.2096
  197SOL     OW  589   0.529   0.331   2.310  0.4113 -0.2462  0.2120
  197SOL    HW1  590   0.495   0.405   2.377 -0.5963 -1.7089 -0.0524
  197SOL    HW2  591   0.494   0.245   2.345  2.0065  4.7730  0.3779
  198SOL     OW  592   2.839   1.198   1.440  0.6471  0.2423 -0.1021
  198SOL    HW1  593   2.750   1.167   1.406  2.9736 -0.8680  0.4114
  198SOL    HW2  594   2.914   1.153   1.394 -3.1764  2.3954  0.6379
  199SOL     OW  595   0.563   2.210   1.193 -0.3209 -0.1708 -0.0991
  199SOL    HW1  596   0.636   2.242   1.131  0.0619 -0.5638 -0.6877
  199SOL    HW2  597   0.485   2.276   1.188 -0.3454 -0.8756 -2.4761
  200SOL     OW  598   2.625   2.022   2.712 -0.0104 -0.6447 -0.1302
  200SOL    HW1  599   2.626   1.923   2.731  0.3620  0.5889 -0.1668
  200SOL    HW2  600   2.559   2.075   2.773  0.0641  0.4846  0.6001
  201SOL     OW  601   0.878   2.311   1.264  0.0736  0.4811  0.4016
  201SOL    HW1  602   0.956   2.253   1.283 -1.0933  0.3581  0.2573
  201SOL    HW2  603   0.846   2.289   1.167  1.8608 -0.6680 -2.3438
  202SOL     OW  604   0.756   2.232   0.110  0.5311 -0.0785 -0.3877
  202SOL    HW1  605   0.828   2.251   0.177 -0.0344  0.0552 -2.0631
  202SOL    HW2  606   0.788   2.158   0.050 -1.9766  3.0003  2.7352
  203SOL     OW  607   2.009   0.096   2.439 -0.3424  0.0248 -0.0840
  203SOL    HW1  608   2.053   0.106   2.351 -2.3404  0.9953  4.3375
  203SOL    HW2  609   1.916   0.062   2.434  2.2188 -0.0431  2.8942
  204SOL     OW  610   0.415   1.326   1.720 -0.0075 -0.0010  0.0353
  204SOL    HW1  611   0.361   1.359   1.798  2.2729  0.7566  0.1626
  204SOL    HW2  612   0.420   1.393   1.646 -3.2944 -2.8110  2.9157
  205SOL     OW  613   2.219   1.432   2.566 -0.2226  0.1520 -0.5301
  205SOL    HW1  614   2.262   1.367   2.502 -1.5794  0.1014  0.9083
  205SOL    HW2  615   2.131   1.469   2.536  1.5315 -1.3062 -0.4849
  206SOL     OW  616   3.008   2.068   2.623  0.3126 -0.0560  0.1316
  206SOL    HW1  617   2.996   2.112   2.533  0.4573  0.7177 -1.1664
  206SOL    HW2  618   0.003   2.022   2.637  4.1806 -0.2141  0.4418
  207SOL     OW  619   0.439   2.880   1.756  0.1955  0.2554  0.3489
  207SOL    HW1  620   0.357   2.924   1.805 -1.0314 -1.0118  0.5226
  207SOL    HW2  621   0.397   2.823   1.685  1.5960 -2.1309  0.4638
  208SOL     OW  622   0.185   2.547   1.297 -0.2189  0.1359 -0.0880
  208SOL    HW1  623   0.277   2.565   1.340  0.5803 -3.8915  0.8934
  208SOL    HW2  624   0.187   2.477   1.225 -1.9860  2.6232 -1.5413
  209SOL     OW  625   1.080   2.662   2.324  0.2683  0.2261 -0.0993
  209SOL    HW1  626   1.149   2.604   2.370 -1.3407 -0.0508 -1.0809
  209SOL    HW2  627   0.986   2.659   2.365  0.1926  0.2328 -1.6974
  210SOL     OW  628   2.912   1.215   2.184 -0.1654  0.5447  0.3668
  210SOL    HW1  629   2.971   1.198   2.265  0.8529 -1.0588  1.0770
  210SOL    HW2  630   2.878   1.123   2.147  0.7363 -2.5301 -1.6918
  211SOL     OW  631   1.271   2.793   2.055 -0.1596  0.4522 -0.3828
  211SOL    HW1  632   1.298   2.782   1.955  1.1933 -2.9718 -2.2362
  211SOL    HW2  633   1.226   2.880   2.071  1.4634  2.4031 -1.3274
  212SOL     OW  634   1.634   2.500   1.646  0.2221  0.4771 -0.5777
  212SOL    HW1  635   1.609   2.503   1.745 -1.4916 -2.9404  4.0882
  212SOL    HW2  636   1.604   2.584   1.598  1.4876 -1.6068  0.3992
  213SOL     OW  637   2.432   0.633   1.670  0.0243  0.0043 -0.0723
  213SOL    HW1  638   2.333   0.649   1.635 -1.2508 -1.2583 -1.1271
  213SOL    HW2  639   2.495   0.686   1.608 -2.7692 -0.6782  0.8155
  214SOL     OW  640   0.768   2.296   1.004  0.1870  0.8864 -0.0745
  214SOL    HW1  641   0.848   2.278   0.942  0.8095  2.5767  1.9423
  214SOL    HW2  642   0.737   2.392   0.993  0.4178 -1.1142  0.3934
  215SOL     OW  643   2.389   1.934   0.692 -0.3649  0.0834  0.1163
  215SOL    HW1  644   2.482   1.943   0.734  0.7321 -0.0635  0.6248
  215SOL    HW2  645   2.363   2.027   0.658  0.0622  3.7881  0.8655
  216SOL     OW  646   0.212   0.853   1.760 -0.1007 -0.1387  0.2348
  216SOL    HW1  647   0.159   0.937   1.781 -1.2914  1.7910 -0.8776
  216SOL    HW2  648   0.160   0.766   1.757  0.2296  0.7126  0.1248
  217SOL     OW  649   2.367   0.339   1.195 -1.1384 -0.2074 -0.0479
  217SOL    HW1  650   2.435   0.266   1.188 -0.3376 -2.5805  0.6515
  217SOL    HW2  651   2.281   0.315   1.147 -0.7636  1.3871  3.4187
  218SOL     OW  652   1.615   2.197   1.243  0.1878  0.2944  0.5103
  218SOL    HW1  653   1.702   2.182   1.203 -0.6623  0.1670 -1.0046
  218SOL    HW2  654   1.612   2.162   1.339  3.2563  2.1063  1.6852
  219SOL     OW  655   1.612   2.267   2.962 -0.2956  0.0061 -0.2314
  219SOL    HW1  656   1.635   2.357   2.913  1.1367  4.3777  2.5872
  219SOL    HW2  657   1.633   2.273   3.063 -0.1582  2.0780  1.9453
  220SOL     OW  658   1.592   2.528   2.814 -0.3895 -0.1938  0.0053
  220SOL    HW1  659   1.539   2.601   2.857 -0.3974 -0.0002  0.7832
  220SOL    HW2  660   1.680   2.522   2.871 -0.6857  2.8470 -2.1426
  221SOL     OW  661   0.112   2.445   1.862  0.4221 -0.5100  0.1914
  221SOL    HW1  662   0.190   2.498   1.898  1.6762 -0.9606 -0.0868
  221SOL    HW2  663   0.061   2.392   1.937  1.6776  2.9677  1.6403
  222SOL     OW  664   1.903   2.177   1.142  0.3069  0.2477 -0.1238
  222SOL    HW1  665   1.978   2.195   1.207 -0.9395  2.3058  1.1836
  222SOL    HW2  666   1.900   2.236   1.059  0.5701 -1.0089  0.1466
  223SOL     OW  667   1.204   2.492   1.728  0.4136  0.5377 -0.2122
  223SOL    HW1  668   1.102   2.490   1.716 -1.8125 -0.9210 -2.2743
  223SOL    HW2  669   1.234   2.495   1.824  0.0062 -2.9244 -0.6207
  224SOL     OW  670   2.721   2.196   1.370 -0.3148  0.0938 -0.4971
  224SOL    HW1  671   2.814   2.232   1.387  1.8453  1.5469 -1.6422
  224SOL    HW2  672   2.660   2.220   1.449 -1.9056  0.7151 -0.5582
  225SOL     OW  673   2.293   2.167   0.580 -0.3103  0.3864 -0.3332
  225SOL    HW1  674   2.199   2.199   0.565  0.1200 -0.2334  1.4933
  225SOL    HW2  675   2.366   2.222   0.533 -1.2119  0.2616  0.4083
  226SOL     OW  676   1.594   2.622   0.381 -1.0021  0.6387 -0.2487
  226SOL    HW1  677   1.588   2.525   0.412  0.7922 -0.4453 -1.7137
  226SOL    HW2  678   1.525   2.675   0.436 -1.8803 -2.5876 -2.6106
  227SOL     OW  679   2.134   1.179   0.912 -0.2267  0.4386  0.6215
  227SOL    HW1  680   2.045   1.140   0.939  1.3308 -3.9234 -0.7641
  227SOL    HW2  681   2.145   1.172   0.808  0.7250  2.3967 -0.6602
  228SOL     OW  682   1.559   0.220   2.745  0.3702 -0.0288  0.1849
  228SOL    HW1  683   1.531   0.241   2.843 -1.9931 -2.5076  1.5764
  228SOL    HW2  684   1.581   0.307   2.696 -1.6126  1.0565  0.0906
  229SOL     OW  685   3.039   1.257   2.905  0.1739 -0.2091  0.8771
  229SOL    HW1  686   0.020   1.199   2.942 -0.9052  0.0698  0.3608
  229SOL    HW2  687   3.017   1.227   2.811  0.0692  0.3933 -1.3503
  230SOL     OW  688   0.449   1.491   1.119 -0.2761  0.2538 -0.3406
  230SOL    HW1  689   0.404   1.419   1.175 -1.0748  0.1088  1.0290
  230SOL    HW2  690   0.469   1.455   1.026 -1.8033  2.9448  0.3183
  231SOL     OW  691   2.634   0.041   2.499  0.5188  0.6500 -0.1961
  231SOL    HW1  692   2.542   0.068   2.535  2.4182  2.1167 -0.7592
  231SOL    HW2  693   2.693   0.125   2.488  0.0801 -1.1355  1.2745
  232SOL     OW  694   2.983   2.113   0.276 -0.0522 -0.5657  0.1909
  232SOL    HW1  695   2.953   2.091   0.182  0.7510  0.9775 -1.1589
  232SOL    HW2  696   2.939   2.056   0.348 -1.1278  0.3752  3.2956
  233SOL     OW  697   1.575   2.377   2.225 -0.0542 -0.4319 -0.6725
  233SOL    HW1  698   1.504   2.458   2.216 -3.3756  2.9572 -0.1458
  233SOL    HW2  699   1.646   2.381   2.153 -3.4632 -1.8055 -1.2933
  234SOL     OW  700   1.268   1.607   1.337 -0.1996 -0.1072 -0.0370
  234SOL    HW1  701   1.370   1.585   1.361  2.7580  1.0318 -2.0213
  234SOL    HW2  702   1.272   1.696   1.288  1.2240  4.9081 -0.3738
  235SOL     OW  703   0.936   1.831   1.700  0.2126 -0.5018 -0.8067
  235SOL    HW1  704   0.886   1.885   1.626 -0.4367 -0.0914 -0.5066
  235SOL    HW2  705   0.933   1.732   1.678 -0.6479 -0.5476 -1.0098
  236SOL     OW  706   1.236   2.999   2.970  0.3712  0.1988 -0.8784
  236SOL    HW1  707   1.307   3.059   3.005 -2.0120  0.0703 -2.8392
  236SOL    HW2  708   1.261   2.957   2.879 -1.2322 -1.6457  0.8677
  237SOL     OW  709   1.195   0.061   1.451  0.6629  0.5451 -0.6428
  237SOL    HW1  710   1.157   0.007   1.372 -0.6315  1.3784  1.6183
  237SOL    HW2  711   1.275   0.116   1.418  0.7208 -0.8748  0.2465
  238SOL     OW  712   0.932   0.960   0.010 -0.0670  0.4225 -0.7221
  238SOL    HW1  713   0.960   0.956   3.006  0.7772 -2.4021  0.9236
  238SOL    HW2  714   0.879   0.882   0.035 -0.1843  0.8357 -1.4998
  239SOL     OW  715   2.830   0.944   2.794  0.5209 -0.4025  0.0660
  239SOL    HW1  716   2.904   0.991   2.744  1.7974 -2.1629 -0.9634
  239SOL    HW2  717   2.833   0.976   2.891 -0.4593  0.4908 -0.7158
  240SOL     OW  718   2.312   2.262   0.880  0.1170 -0.1585  0.0920
  240SOL    HW1  719   2.412   2.277   0.885 -4.0230 -1.5347  0.2007
  240SOL    HW2  720   2.289   2.223   0.789  1.1583  1.2521 -2.5940
  241SOL     OW  721   0.998   1.243   1.092 -0.3552 -0.0277 -0.2921
  241SOL    HW1  722   0.982   1.329   1.144 -0.4073 -0.1668  2.5585
  241SOL    HW2  723   0.915   1.185   1.093  0.8197  2.0380 -1.6751
  242SOL     OW  724   0.631   0.484   1.012 -0.3699 -0.1058  0.0652
  242SOL    HW1  725   0.729   0.519   1.024  3.3589 -0.8685  1.0928
  242SOL    HW2  726   0.646   0.385   0.991  2.1486 -1.4061  0.3435
  243SOL     OW  727   0.276   0.397   1.158  0.2860  0.8764  0.0217
  243SOL    HW1  728   0.254   0.493   1.133 -1.4021 -1.4366  3.1499
  243SOL    HW2  729   0.366   0.390   1.204 -1.4821  0.6958 -0.6778
  244SOL     OW  730   0.949   0.236   0.379  0.4242 -0.8207  0.1912
  244SOL    HW1  731   1.007   0.175   0.323 -0.6376 -0.3523  0.7154
  244SOL    HW2  732   0.963   0.338   0.355  2.6628  3.7475  1.4725
  245SOL     OW  733   2.037   0.671   0.558 -0.6048 -0.8703 -0.0549
  245SOL    HW1  734   2.084   0.588   0.527 -0.7415 -0.4668 -2.8196
  245SOL    HW2  735   1.954   0.691   0.504 -1.1222  0.0017 -0.5466
  246SOL     OW  736   0.358   0.486   1.709 -0.0009 -0.4023  0.1545
  246SOL    HW1  737   0.271   0.511   1.755  0.3726 -0.3286  0.3552
  246SOL    HW2  738   0.445   0.521   1.751  2.4339  0.9646  1.1223
  247SOL     OW  739   0.916   0.062   1.983  0.1796 -0.7824  0.3565
  247SOL    HW1  740   0.961   0.068   1.891  0.3707  2.1172  0.7521
  247SOL    HW2  741   0.819   0.036   1.981  1.5839  2.1113  0.7302
  248SOL     OW  742   0.540   1.671   2.057 -0.1340 -0.6293 -0.1754
  248SOL    HW1  743   0.603   1.717   1.991  0.7585  1.9611  0.1335
  248SOL    HW2  744   0.589   1.673   2.146 -0.5188  1.5074  0.0907
  249SOL     OW  745   0.503   2.717   0.185  0.0504  0.6397  0.5159
  249SOL    HW1  746   0.473   2.718   0.090  0.1406 -1.2894  0.2459
  249SOL    HW2  747   0.459   2.643   0.237  2.5828  0.6300  1.5799
  250SOL     OW  748   0.819   0.162   2.213  0.7416 -0.2152 -0.3700
  250SOL    HW1  749   0.731   0.107   2.216 -1.8759 -1.3579 -1.8680
  250SOL    HW2  750   0.863   0.156   2.119  0.7131  0.3744 -1.2196
  251SOL     OW  751   2.811   1.964   1.497  0.3069  0.0609 -0.0639
  251SOL    HW1  752   2.748   1.890   1.476  1.2816  0.0658 -1.3555
  251SOL    HW2  753   2.816   2.017   1.411 -1.5552 -1.0856 -0.5080
  252SOL     OW  754   1.900   0.048   1.633 -0.0160 -0.1509 -0.0570
  252SOL    HW1  755   1.877   0.072   1.730 -0.9763 -0.2881 -1.0640
  252SOL    HW2  756   1.949   3.053   1.627  0.9097  0.5340  4.2307
  253SOL     OW  757   2.045   1.977   2.512 -0.4998 -0.2247 -0.2751
  253SOL    HW1  758   1.977   1.908   2.486  1.1705  0.2949  0.5001
  253SOL    HW2  759   2.137   1.934   2.510 -3.1382  1.1132 -1.2081
  254SOL     OW  760   0.693   1.491   1.386  0.2273  0.8631 -0.3761
  254SOL    HW1  761   0.653   1.405   1.346  0.4510  1.5616  0.5893
  254SOL    HW2  762   0.689   1.569   1.323  1.6193  1.0695  0.5340
  255SOL     OW  763   0.686   2.992   1.632 -0.1967 -0.4194 -0.1819
  255SOL    HW1  764   0.772   2.967   1.689  1.6719 -0.6923  1.2821
  255SOL    HW2  765   0.605   2.938   1.664 -0.0127  0.5388 -0.5662
  256SOL     OW  766   0.112   2.629   0.720  0.1123 -0.2507  0.4141
  256SOL    HW1  767   0.126   2.540   0.674 -1.3359  1.1211  0.4650
  256SOL    HW2  768   0.183   2.647   0.795  1.6454 -0.4556  2.0214
  257SOL     OW  769   0.717   2.523   2.311 -0.1873 -0.1210  0.0460
  257SOL    HW1  770   0.786   2.448   2.321  1.7856  3.4381 -1.2082
  257SOL    HW2  771   0.625   2.498   2.353 -1.3652 -0.4528  2.7142
  258SOL     OW  772   1.318   1.702   1.627  0.4598 -0.3006  0.4943
  258SOL    HW1  773   1.401   1.691   1.682 -0.9852 -1.3427 -1.0510
  258SOL    HW2  774   1.286   1.608   1.595  0.5692 -3.5612 -0.2496
  259SOL     OW  775   1.140   1.063   2.186 -0.0425  0.4277 -0.4281
  259SOL    HW1  776   1.075   1.019   2.118  0.3007 -0.9038 -2.2238
  259SOL    HW2  777   1.150   1.160   2.162  2.7106 -0.9599 -0.1258
  260SOL     OW  778   2.545   0.667   2.337 -0.0082 -0.2080 -0.2882
  260SOL    HW1  779   2.517   0.643   2.433  1.7495  0.2501 -1.2758
  260SOL    HW2  780   2.529   0.765   2.315  0.4510  1.2883  0.4028
  261SOL     OW  781   0.855   1.445   0.868  0.1494 -0.6339  0.3477
  261SOL    HW1  782   0.782   1.427   0.795 -3.1150 -0.9385 -3.5398
  261SOL    HW2  783   0.918   1.367   0.877  0.2167  2.4963 -2.4925
  262SOL     OW  784   2.299   2.305   2.712  1.3138 -0.7622  0.1453
  262SOL    HW1  785   2.354   2.237   2.659 -1.0795  0.7875  1.6016
  262SOL    HW2  786   2.210   2.273   2.748  1.6235  1.6517  0.8184
  263SOL     OW  787   0.920   2.728   1.052  0.1866 -0.0455 -0.5281
  263SOL    HW1  788   0.985   2.786   1.003 -1.3208 -0.5324  3.2358
  263SOL    HW2  789   0.969   2.664   1.117 -2.1669  1.8682  0.6843
  264SOL     OW  790   0.141   1.925   0.328 -0.1580 -0.2955 -0.2860
  264SOL    HW1  791   0.044   1.900   0.291 -2.2577 -0.1750 -0.3281
  264SOL    HW2  792   0.146   2.027   0.346 -0.1187 -1.1743 -0.1757
  265SOL     OW  793   1.481   1.084   2.522  0.5882 -0.0122 -0.1666
  265SOL    HW1  794   1.491   1.059   2.425 -1.5218 -1.4689 -1.1883
  265SOL    HW2  795   1.385   1.115   2.544 -0.2442  3.1241  0.1889
  266SOL     OW  796   1.127   2.070   2.016 -0.2678  0.0205  0.6082
  266SOL    HW1  797   1.157   2.032   2.107 -0.5680 -0.7852 -1.0846
  266SOL    HW2  798   1.163   2.006   1.942  0.4928 -0.8402 -0.6544
  267SOL     OW  799   2.433   1.122   2.509  0.6107  0.2884  0.1982
  267SOL    HW1  800   2.509   1.157   2.563 -0.7911 -1.5280 -2.8377
  267SOL    HW2  801   2.388   1.199   2.457  0.1759 -2.2631  0.3402
  268SOL     OW  802   0.805   1.156   2.792 -0.0522 -0.1726  0.2239
  268SOL    HW1  803   0.705   1.182   2.789 -0.0872  2.1354 -3.7561
  268SOL    HW2  804   0.862   1.240   2.803  1.2386 -2.2667 -0.8146
  269SOL     OW  805   3.033   1.611   2.260 -0.1103 -0.0101 -0.4324
  269SOL    HW1  806   2.954   1.663   2.221  2.7170 -0.3615  0.2306
  269SOL    HW2  807   3.049   1.644   2.354 -3.1490  0.3734 -0.1797
  270SOL     OW  808   0.159   2.247   0.019  0.1041  0.5829  0.5790
  270SOL    HW1  809   0.195   2.230   3.019 -0.6812 -0.3631 -0.8733
  270SOL    HW2  810   0.071   2.195   0.045 -2.7341  1.9277 -0.9263
  271SOL     OW  811   0.226   0.343   0.437 -0.3753 -0.1149 -0.2751
  271SOL    HW1  812   0.165   0.282   0.487  3.7206  0.0439  0.5465
  271SOL    HW2  813   0.172   0.419   0.396  1.1775 -2.6120 -1.0692
  272SOL     OW  814   0.016   0.047   0.237  0.1914 -0.2330 -0.3834
  272SOL    HW1  815   0.079   0.121   0.207  1.7044  1.7213  1.4239
  272SOL    HW2  816   3.069   0.055   0.334 -2.7401  2.1585  2.3229
  273SOL     OW  817   0.218   2.968   1.896 -0.0597 -0.4774  0.5158
  273SOL    HW1  818   0.222   2.958   2.000  1.5368  1.0530  0.3314
  273SOL    HW2  819   0.177   3.057   1.867 -0.7219  1.4093  1.1335
  274SOL     OW  820   0.141   0.667   1.206  0.4261  0.2809  0.2013
  274SOL    HW1  821   0.052   0.713   1.205  4.6422 -1.2997  1.1977
  274SOL    HW2  822   0.145   0.625   1.301 -0.4035 -3.0725 -0.6449
  275SOL     OW  823   0.848   1.685   1.031  0.3065 -0.0441  0.1094
  275SOL    HW1  824   0.863   1.593   0.987  0.3132 -0.5719 -0.0458
  275SOL    HW2  825   0.769   1.675   1.099 -4.7839  1.5708  2.1134
  276SOL     OW  826   0.550   1.130   1.831  0.2980  0.1103 -0.2167
  276SOL    HW1  827   0.595   1.156   1.917 -1.6613 -1.4875 -1.6223
  276SOL    HW2  828   0.505   1.217   1.792 -2.7132  2.2188  0.0053
  277SOL     OW  829   1.252   1.913   1.805 -0.7829 -0.3514 -0.0928
  277SOL    HW1  830   1.215   1.990   1.752  1.0852  1.6941 -2.4352
  277SOL    HW2  831   1.250   1.834   1.745 -0.6642  1.5414 -0.3580
  278SOL     OW  832   2.239   2.705   1.962 -0.2236 -0.6705 -0.0196
  278SOL    HW1  833   2.215   2.778   2.025  1.5177  1.1859 -0.6968
  278SOL    HW2  834   2.184   2.624   1.978  0.8739  1.6987  0.9592
  279SOL     OW  835   1.382   1.669   2.877  0.3020  0.2979  0.1952
  279SOL    HW1  836   1.482   1.661   2.903  0.5746 -2.1681 -2.2732
  279SOL    HW2  837   1.340   1.745   2.923 -0.0073 -0.7616 -2.0298
  280SOL     OW  838   1.327   0.406   0.501 -0.4155 -0.2929 -0.3926
  280SOL    HW1  839   1.419   0.446   0.476  1.2695  0.0462  0.0517
  280SOL    HW2  840   1.262   0.483   0.506  2.2526 -0.4770  1.1582
  281SOL     OW  841   0.669   0.574   1.470 -0.8336 -0.0884 -0.1349
  281SOL    HW1  842   0.730   0.647   1.439  0.5440 -0.8814 -0.1653
  281SOL    HW2  843   0.690   0.549   1.567 -1.8691  1.1038  0.8110
  282SOL     OW  844   3.076   2.804   0.527  0.1414  0.6560 -0.0333
  282SOL    HW1  845   0.046   2.863   0.476  0.3860  1.8006  2.5512
  282SOL    HW2  846   0.032   2.740   0.585 -0.5045  1.7888  0.0409
  283SOL     OW  847   1.461   1.852   1.443 -0.0305 -0.1655 -0.6103
  283SOL    HW1  848   1.400   1.861   1.361 -2.5870 -1.2027 -1.1498
  283SOL    HW2  849   1.415   1.793   1.512 -1.3364  2.7446  1.2494
  284SOL     OW  850   2.656   2.768   1.250  0.4088 -0.2411 -0.4182
  284SOL    HW1  851   2.760   2.761   1.258  1.0593 -2.4044  1.6430
  284SOL    HW2  852   2.623   2.697   1.183 -3.5231 -1.6697 -1.0273
  285SOL     OW  853   0.498   2.470   0.895 -0.3040 -0.6269  0.3621
  285SOL    HW1  854   0.591   2.514   0.911  3.7700  0.1271  0.2439
  285SOL    HW2  855   0.504   2.415   0.812 -1.8892  1.3960  1.2124
  286SOL     OW  856   0.394   2.810   1.223 -0.6517  0.3781 -0.1352
  286SOL    HW1  857   0.444   2.894   1.201  0.3440 -2.3910  1.8273
  286SOL    HW2  858   0.294   2.829   1.229  3.8766  0.4058 -2.3967
  287SOL     OW  859   0.493   1.278   0.905  0.3623  0.6678 -0.1552
  287SOL    HW1  860   0.451   1.307   0.822 -2.0231 -3.7641 -0.2514
  287SOL    HW2  861   0.444   1.203   0.948  1.1836 -0.2275 -2.3633
  288SOL     OW  862   1.244   1.827   2.609  0.1705 -0.1971 -0.2981
  288SOL    HW1  863   1.249   1.779   2.700  0.4052 -1.0992  1.0377
  288SOL    HW2  864   1.341   1.838   2.581  0.5855 -1.9953  1.4752
  289SOL     OW  865   2.454   1.388   0.064  0.9526  0.2399 -0.3749
  289SOL    HW1  866   2.384   1.442   0.113  2.7328 -1.6063  0.4461
  289SOL    HW2  867   2.490   1.443   3.085 -0.7022  1.9922  0.5401
  290SOL     OW  868   1.125   1.325   0.885  0.0007  0.3784  0.1162
  290SOL    HW1  869   1.209   1.365   0.918 -1.5379  1.5139 -0.1402
  290SOL    HW2  870   1.071   1.283   0.965  0.8235  1.4096  1.4784
  291SOL     OW  871   0.996   0.949   2.854  0.5085 -0.7146  0.5718
  291SOL    HW1  872   1.093   0.976   2.834  0.8510 -1.9726 -0.1551
  291SOL    HW2  873   0.934   1.028   2.831 -1.4188  1.4346  0.2944
  292SOL     OW  874   1.631   1.759   0.118 -0.5905  0.0379 -0.0143
  292SOL    HW1  875   1.592   1.834   0.176 -0.0659  0.1321 -1.0820
  292SOL    HW2  876   1.570   1.682   0.114  3.0339  3.6937  0.9304
  293SOL     OW  877   1.584   2.991   0.992 -0.3572  0.9216 -0.4004
  293SOL    HW1  878   1.549   3.067   1.051 -0.6547 -1.9824  1.6094
  293SOL    HW2  879   1.507   2.934   0.959  1.8676  1.9236 -0.6722
  294SOL     OW  880   2.225   0.930   0.464 -0.0848  0.4120  0.2924
  294SOL    HW1  881   2.180   0.848   0.502 -1.7133 -1.2751 -0.2243
  294SOL    HW2  882   2.318   0.915   0.419 -1.5503  3.6242 -0.3203
  295SOL     OW  883   1.907   1.826   2.788  0.4854 -0.2336  0.2137
  295SOL    HW1  884   1.884   1.923   2.801  1.2706  1.7972 -2.8587
  295SOL    HW2  885   1.843   1.784   2.720  1.4258 -0.7809 -1.8081
  296SOL     OW  886   1.549   1.082   1.446  0.0574  0.0544 -0.4734
  296SOL    HW1  887   1.507   1.075   1.349 -1.3751 -2.0137 -0.7452
  296SOL    HW2  888   1.483   1.126   1.513 -3.4089  1.5967 -2.4929
  297SOL     OW  889   0.174   0.864   2.320 -0.1481 -0.0597  0.6115
  297SOL    HW1  890   0.113   0.808   2.265  1.2367  0.9463 -2.4241
  297SOL    HW2  891   0.157   0.843   2.419 -0.5171 -1.2096 -2.5010
  298SOL     OW  892   1.611   2.066   1.481 -0.2568  0.5359 -0.9259
  298SOL    HW1  893   1.564   1.978   1.489  0.7113  1.4527  1.0435
  298SOL    HW2  894   1.579   2.137   1.551 -1.1559  2.6948  1.0809
  299SOL     OW  895   1.007   0.316   2.649  0.6462 -0.5542  0.1966
  299SOL    HW1  896   1.076   0.242   2.665 -2.9615  0.3092 -0.5366
  299SOL    HW2  897   0.938   0.303   2.568 -1.9582  3.2234  1.2361
  300SOL     OW  898   2.328   1.711   0.531 -0.5418  0.3262 -0.1479
  300SOL    HW1  899   2.357   1.716   0.436  1.0186  0.4331  2.3073
  300SOL    HW2  900   2.360   1.793   0.581 -2.1590 -0.4054 -0.7939
  301SOL     OW  901   2.315   0.408   2.565  0.3233 -0.1212  0.1736
  301SOL    HW1  902   2.360   0.503   2.556 -0.0809 -0.3708 -1.9594
  301SOL    HW2  903   2.349   0.359   2.646 -0.0561  0.9680 -2.3220
  302SOL     OW  904   2.449   2.128   2.523 -0.5735 -0.3958  0.2139
  302SOL    HW1  905   2.532   2.104   2.579  0.5846  0.6300  1.6396
  302SOL    HW2  906   2.468   2.208   2.459 -1.5824 -1.1854 -0.1582
  303SOL     OW  907   0.239   2.477   2.347 -0.5559  0.2596 -0.7017
  303SOL    HW1  908   0.248   2.580   2.370  0.5716  0.2077  0.5588
  303SOL    HW2  909   0.272   2.420   2.425  0.8384  1.1616 -1.2728
  304SOL     OW  910   3.070   1.639   1.475  0.1072 -0.5049 -0.3330
  304SOL    HW1  911   2.987   1.591   1.509 -1.1837  1.6832  1.2603
  304SOL    HW2  912   3.052   1.709   1.402  2.0966  2.5040  0.9248
  305SOL     OW  913   0.196   0.378   2.092  0.1819 -0.4212 -0.5112
  305SOL    HW1  914   0.292   0.402   2.109 -0.6665  0.1878 -2.0457
  305SOL    HW2  915   0.167   0.305   2.159 -2.1981  0.6367  1.2566
  306SOL     OW  916   1.280   1.637   0.548 -0.5424  0.2574  0.2321
  306SOL    HW1  917   1.233   1.550   0.569 -0.9589 -0.3249  0.3141
  306SOL    HW2  918   1.372   1.615   0.509  0.5817  0.5809  0.7027
  307SOL     OW  919   0.018   2.982   0.745  0.4184 -0.7957  0.0276
  307SOL    HW1  920   0.113   2.947   0.768  2.1162  0.4987  1.4312
  307SOL    HW2  921   3.070   2.931   0.673 -1.8400 -1.1071  0.2350
  308SOL     OW  922   3.056   1.279   2.435  0.2178 -0.0005 -0.0359
  308SOL    HW1  923   0.013   1.348   2.484  0.2927  3.2036  0.1008
  308SOL    HW2  924   0.029   1.211   2.406  0.2095  3.8889  2.0943
  309SOL     OW  925   2.858   1.807   2.607  0.1272 -0.2292  0.1931
  309SOL    HW1  926   2.784   1.767   2.661 -0.8978 -0.2248 -3.3983
  309SOL    HW2  927   2.874   1.906   2.627  2.7417 -1.3563  0.3910
  310SOL     OW  928   2.149   0.459   0.145  0.3771 -0.0757 -0.2599
  310SOL    HW1  929   2.177   0.544   0.096  0.4883 -0.3556  1.5642
  310SOL    HW2  930   2.044   0.472   0.148 -3.0378  0.5863 -1.9723
  311SOL     OW  931   1.888   0.870   3.024 -0.2281  0.3266 -0.5025
  311SOL    HW1  932   1.908   0.952   2.963  0.9605  2.5801  0.7964
  311SOL    HW2  933   1.930   0.787   2.988 -1.3751  1.8556  0.0929
  312SOL     OW  934   1.177   1.940   2.248 -0.6967 -0.1049 -0.2128
  312SOL    HW1  935   1.277   1.926   2.247 -4.6788  1.2154  1.2341
  312SOL    HW2  936   1.126   1.851   2.249  3.7649 -0.0803 -0.8841
  313SOL     OW  937   3.025   0.829   0.386  0.7677  0.0438 -0.4133
  313SOL    HW1  938   3.087   0.804   0.305  1.7663 -1.9360  0.5284
  313SOL    HW2  939   2.957   0.753   0.397 -0.3743 -1.4765  0.3720
  314SOL     OW  940   0.337   1.834   1.453  0.5262  0.5991  0.1729
  314SOL    HW1  941   0.300   1.839   1.549 -0.2890  0.3420  1.3415
  314SOL    HW2  942   0.296   1.755   1.412 -1.3720 -0.8539  0.4292
  315SOL     OW  943   0.889   1.554   1.567  0.3045  0.2027 -0.4843
  315SOL    HW1  944   0.923   1.502   1.648  0.6884  3.7985  0.4877
  315SOL    HW2  945   0.807   1.513   1.527 -1.7165  0.1223  0.9174
  316SOL     OW  946   0.431   2.336   0.638 -0.1184 -0.3393 -0.1605
  316SOL    HW1  947   0.338   2.361   0.626  1.9395 -2.7174 -1.4712
  316SOL    HW2  948   0.447   2.240   0.609  0.0318  2.6761 -1.0085
  317SOL     OW  949   2.556   0.137   1.145 -0.5473  0.4911 -0.4990
  317SOL    HW1  950   2.651   0.131   1.184  2.1170  1.8689 -0.1280
  317SOL    HW2  951   2.555   0.178   1.049  0.8213 -0.0440  0.0303
  318SOL     OW  952   1.450   2.982   0.171 -0.7394 -0.5100 -0.5523
  318SOL    HW1  953   1.438   3.051   0.100  0.4408 -2.5617  2.0932
  318SOL    HW2  954   1.526   2.919   0.141  1.0858 -3.6117 -0.2894
  319SOL     OW  955   1.611   0.499   2.696  0.0967 -0.2029  0.1955
  319SOL    HW1  956   1.677   0.582   2.682  1.2474  3.1125 -1.0159
  319SOL    HW2  957   1.527   0.527   2.739  0.2264  0.1217 -2.4935
  320SOL     OW  958   2.919   1.862   1.902  0.1142 -0.3617 -0.4237
  320SOL    HW1  959   2.897   1.827   1.995 -0.6390 -0.7850  1.5445
  320SOL    HW2  960   3.001   1.812   1.867 -2.7947  0.0450 -0.1403
  321SOL     OW  961   0.044   2.471   2.900 -0.0297  0.3623  0.0550
  321SOL    HW1  962   3.085   2.499   2.983 -1.3000 -2.5486  2.6680
  321SOL    HW2  963   0.013   2.379   2.875 -2.8718  1.9620  0.7417
  322SOL     OW  964   2.777   0.684   2.164 -0.4946  0.5560 -0.3958
  322SOL    HW1  965   2.694   0.673   2.223  0.4515 -0.0032  0.6808
  322SOL    HW2  966   2.858   0.659   2.218  0.1796  0.4363 -1.8826
  323SOL     OW  967   1.910   1.365   0.532 -0.1957 -0.2378 -0.2012
  323SOL    HW1  968   1.965   1.414   0.460  0.0712  1.6780 -0.7207
  323SOL    HW2  969   1.882   1.270   0.506 -2.1078 -1.2527 -0.6336
  324SOL     OW  970   0.143   0.160   1.301  0.5871 -0.4263  0.4363
  324SOL    HW1  971   0.209   0.148   1.378 -0.6641  2.0889  2.1566
  324SOL    HW2  972   0.165   0.240   1.242 -1.2629 -2.4573  1.1631
  325SOL     OW  973   2.568   3.059   1.628  0.1561 -0.0290 -0.3387
  325SOL    HW1  974   2.610   0.057   1.610  0.0862  2.6612 -0.8434
  325SOL    HW2  975   2.591   3.014   1.716  1.3641  1.3468  2.5335
  326SOL     OW  976   1.613   2.788   0.061 -0.5913  0.0515 -0.6580
  326SOL    HW1  977   1.590   2.693   0.090 -0.0424  0.7867 -0.4343
  326SOL    HW2  978   1.701   2.817   0.110  1.2345 -1.2545  1.2086
  327SOL     OW  979   1.860   2.173   0.324  0.1786 -0.0971  0.1350
  327SOL    HW1  980   1.771   2.217   0.315  1.8191  2.4216 -1.1475
  327SOL    HW2  981   1.898   2.148   0.230  3.8887 -1.5573 -1.1877
  328SOL     OW  982   3.007   2.173   1.936 -0.1008 -0.0701  0.0495
  328SOL    HW1  983   3.005   2.070   1.929 -0.8233 -2.0368 -0.8072
  328SOL    HW2  984   2.928   2.202   1.988  4.3686 -2.1035 -0.8154
  329SOL     OW  985   3.003   2.248   1.162 -0.1501 -0.1966  0.1865
  329SOL    HW1  986   2.958   2.316   1.222  0.6009 -2.1991  0.7847
  329SOL    HW2  987   2.942   2.165   1.157  0.1504  1.1192  1.1418
  330SOL     OW  988   2.283   0.893   2.632 -0.3311 -0.0368  0.3553
  330SOL    HW1  989   2.208   0.897   2.565  1.4681  1.7156  0.2308
  330SOL    HW2  990   2.339   0.981   2.632 -0.2159 -2.5742  1.9726
  331SOL     OW  991   2.225   1.617   0.960  0.1040 -0.3572 -0.1535
  331SOL    HW1  992   2.244   1.585   0.867  1.9695  1.2464  0.2163
  331SOL    HW2  993   2.224   1.717   0.964 -1.9656  4.4241  1.0756
  332SOL     OW  994   0.084   2.697   1.053  0.0569  0.1291 -0.2437
  332SOL    HW1  995   0.174   2.725   1.010  0.3798 -2.0192  1.8267
  332SOL    HW2  996   0.079   2.739   1.147 -0.0694 -1.6805 -3.1856
  333SOL     OW  997   0.001   1.742   2.491  0.2173 -0.0445  0.1705
  333SOL    HW1  998   0.075   1.793   2.531 -1.7935  0.1260 -1.8524
  333SOL    HW2  999   3.013   1.770   2.539 -0.0020 -3.0202 -2.2444
  334SOL     OW 1000   0.606   0.896   1.118  0.2372  0.0849 -0.2052
  334SOL    HW1 1001   0.543   0.970   1.095 -0.6600 -0.1474  3.1383
  334SOL    HW2 1002   0.557   0.820   1.166  1.9444  1.9989  2.4444
  335SOL     OW 1003   0.185   1.561   2.156 -0.1684  0.6446 -0.4063
  335SOL    HW1 1004   0.094   1.592   2.196 -0.6444  1.2034 -1.5127
  335SOL    HW2 1005   0.219   1.474   2.201  1.9655 -0.3304  3.8983
  336SOL     OW 1006   2.149   2.883   2.158  0.4118 -0.8449 -0.4531
  336SOL    HW1 1007   2.087   2.815   2.198  0.8463  0.2899 -0.4892
  336SOL    HW2 1008   2.154   2.966   2.220 -2.8102 -1.7359  1.1042
  337SOL     OW 1009   1.002   0.705   1.230  0.0658  0.1408 -0.2811
  337SOL    HW1 1010   0.951   0.758   1.295  1.6560 -3.1938 -2.4361
  337SOL    HW2 1011   1.066   0.769   1.176  1.0211  1.0495 -0.4754
  338SOL     OW 1012   1.524   1.974   1.114 -0.5030  0.3853 -0.3479
  338SOL    HW1 1013   1.558   2.062   1.150  1.3788 -1.9878 -0.3955
  338SOL    HW2 1014   1.601   1.906   1.107  1.5302  0.3053  2.9247
  339SOL     OW 1015   0.137   2.023   1.346  0.2533 -0.5126 -0.1859
  339SOL    HW1 1016   0.222   1.977   1.375 -0.3109  1.3243  2.5540
  339SOL    HW2 1017   0.072   2.011   1.421 -1.1359  1.3091  0.2993
  340SOL     OW 1018   0.595   3.075   2.177  0.2934  0.3812 -0.1323
  340SOL    HW1 1019   0.648   2.992   2.146  1.4630 -1.0047  0.6490
  340SOL    HW2 1020   0.579   3.075   2.277 -0.2414  2.8194 -2.0791
  341SOL     OW 1021   1.875   1.577   0.706  0.6023 -0.3414  0.0378
  341SOL    HW1 1022   1.974   1.604   0.697  0.2929  2.3609 -1.1958
  341SOL    HW2 1023   1.857   1.493   0.652 -2.0307 -1.2943  1.1913
  342SOL     OW 1024   1.700   1.473   0.300 -0.6639 -0.4698  0.4292
  342SOL    HW1 1025   1.736   1.404   0.235 -1.2918  1.5790 -0.5597
  342SOL    HW2 1026   1.767   1.549   0.300  1.0834 -1.6892  1.6405
  343SOL     OW 1027   1.851   0.055   0.909 -0.3416  0.3153  0.7418
  343SOL    HW1 1028   1.809   0.105   0.986  0.1575 -1.1439 -0.3557
  343SOL    HW2 1029   1.936   0.011   0.944  0.8398  1.7779 -0.3391
  344SOL     OW 1030   2.796   0.339   2.928  0.0115  0.1701  0.1972
  344SOL    HW1 1031   2.804   0.322   3.029  1.4481 -0.2358 -0.0049
  344SOL    HW2 1032   2.749   0.258   2.879 -1.7736 -0.8345 -0.9827
  345SOL     OW 1033   1.294   2.572   1.465  0.4609  0.0441 -0.4797
  345SOL    HW1 1034   1.236   2.653   1.443  0.3571 -1.3488 -3.3782
  345SOL    HW2 1035   1.275   2.550   1.565  2.1945 -1.7251  0.7755
  346SOL     OW 1036   2.325   2.302   1.308  0.3071 -0.6587  0.0915
  346SOL    HW1 1037   2.230   2.278   1.291  0.4673 -0.6674 -1.4074
  346SOL    HW2 1038   2.339   2.282   1.407 -2.2913 -2.0103  0.4000
  347SOL     OW 1039   2.080   3.010   0.997 -0.3172  0.2909 -0.1482
  347SOL    HW1 1040   2.033   3.034   1.082 -1.9308 -1.1812 -3.3985
  347SOL    HW2 1041   2.068   2.913   0.977  1.2128  1.5484  3.1579
  348SOL     OW 1042   0.810   1.127   1.424 -0.1377 -0.8371 -0.1856
  348SOL    HW1 1043   0.817   1.038   1.375  1.0673  1.0428 -0.7690
  348SOL    HW2 1044   0.756   1.187   1.362  2.0262 -0.4297 -0.9063
  349SOL     OW 1045   2.442   0.313   2.801 -0.6993  0.3568 -0.3258
  349SOL    HW1 1046   2.481   0.406   2.822  0.3085  1.6117 -0.6693
  349SOL    HW2 1047   2.510   0.234   2.799  1.2417 -4.8833 -2.6389
  350SOL     OW 1048   2.081   2.229   2.880  0.1874 -0.3792 -0.6443
  350SOL    HW1 1049   2.053   2.157   2.944  3.1534 -1.6427 -2.5074
  350SOL    HW2 1050   2.059   2.317   2.922  0.5760 -2.3011 -2.0538
  351SOL     OW 1051   0.991   0.339   0.648  0.2865  0.1453  0.3453
  351SOL    HW1 1052   0.979   0.321   0.547 -1.2085 -0.1338  0.1113
  351SOL    HW2 1053   0.970   0.440   0.670 -0.5747  1.9813  1.3369
  352SOL     OW 1054   1.681   2.051   2.283 -0.0263  0.1661  0.1998
  352SOL    HW1 1055   1.656   2.126   2.346  0.8379  1.9705 -0.2908
  352SOL    HW2 1056   1.772   2.065   2.237  0.8771  1.0824  2.1875
  353SOL     OW 1057   0.141   0.801   0.165 -0.0166 -0.9199  0.0015
  353SOL    HW1 1058   0.192   0.793   0.077 -0.7590  0.8654  2.2450
  353SOL    HW2 1059   0.197   0.858   0.229  0.6812  1.1879  0.2497
  354SOL     OW 1060   0.856   2.336   2.715  0.0564 -0.5221  0.7886
  354SOL    HW1 1061   0.804   2.249   2.721  2.2103 -1.9468 -0.9606
  354SOL    HW2 1062   0.888   2.365   2.808  1.1229  0.4633 -0.3202
  355SOL     OW 1063   2.606   2.814   1.525 -0.0029 -0.6759 -0.4160
  355SOL    HW1 1064   2.569   2.912   1.529  3.0524  0.4664 -3.1562
  355SOL    HW2 1065   2.577   2.764   1.441 -0.1180 -1.7603 -0.3561
  356SOL     OW 1066   2.485   1.182   0.808 -0.1971 -0.5756  0.3527
  356SOL    HW1 1067   2.461   1.083   0.820 -1.1390  0.6459  1.5118
  356SOL    HW2 1068   2.454   1.237   0.882  0.0109  0.7075 -1.1301
  357SOL     OW 1069   2.825   0.182   1.228 -0.4381 -0.2198  0.2800
  357SOL    HW1 1070   2.835   0.082   1.241 -1.1311 -0.1302  0.9699
  357SOL    HW2 1071   2.823   0.222   1.136  0.8234  2.6839 -0.2426
  358SOL     OW 1072   1.164   2.148   1.229  0.3707 -0.2147 -0.4891
  358SOL    HW1 1073   1.200   2.160   1.131 -0.1166  0.2846 -2.1064
  358SOL    HW2 1074   1.236   2.165   1.298  1.3543  0.3551  0.3364
  359SOL     OW 1075   3.059   2.644   2.710  0.1096  0.3440  0.2930
  359SOL    HW1 1076   3.095   2.603   2.794 -0.0512  2.7496  0.0237
  359SOL    HW2 1077   0.042   2.681   2.655 -2.1744 -2.1332  1.2653
  360SOL     OW 1078   1.304   0.981   1.826 -0.3094 -0.6460 -0.2092
  360SOL    HW1 1079   1.302   0.979   1.927  0.6345 -1.5658 -0.5069
  360SOL    HW2 1080   1.278   0.889   1.792 -0.9013 -2.9311  0.7936
  361SOL     OW 1081   2.461   0.327   0.516 -0.1652  0.1433  0.7145
  361SOL    HW1 1082   2.556   0.307   0.486  0.6105 -1.4982  2.9402
  361SOL    HW2 1083   2.439   0.263   0.590 -0.6937 -1.6998  1.0641
  362SOL     OW 1084   0.364   0.071   0.561  0.0232 -0.1792 -0.0984
  362SOL    HW1 1085   0.421   0.068   0.477  0.9286 -0.4651  1.8516
  362SOL    HW2 1086   0.416   0.118   0.634  1.6353 -2.8281 -1.2350
  363SOL     OW 1087   0.769   1.310   0.342 -0.0869  0.2720  0.0315
  363SOL    HW1 1088   0.688   1.268   0.387  1.5853 -2.5408 -1.3344
  363SOL    HW2 1089   0.818   1.383   0.395  0.9993 -0.0493  1.0660
  364SOL     OW 1090   0.611   0.903   1.553 -0.1546  0.0275  0.2963
  364SOL    HW1 1091   0.547   0.864   1.624 -3.3363 -0.5096  0.5029
  364SOL    HW2 1092   0.614   1.005   1.549 -0.6248 -0.0344 -0.0516
  365SOL     OW 1093   2.816   1.362   0.649 -0.3901 -0.3316 -0.0225
  365SOL    HW1 1094   2.786   1.275   0.682  4.6289  1.3507 -1.3638
  365SOL    HW2 1095   2.780   1.442   0.702  1.2854 -1.8157 -0.9409
  366SOL     OW 1096   2.745   1.584   0.835 -0.3089 -0.2318 -0.5582
  366SOL    HW1 1097   2.709   1.590   0.930  1.1358 -0.6424  2.0935
  366SOL    HW2 1098   2.790   1.669   0.807 -0.3780  0.7777  1.0488
  367SOL     OW 1099   2.229   1.799   2.216 -0.4893 -0.0138 -0.3107
  367SOL    HW1 1100   2.257   1.756   2.305  4.4176 -3.1445  0.5844
  367SOL    HW2 1101   2.131   1.827   2.216  1.1371  1.2740  0.1025
  368SOL     OW 1102   2.629   1.587   1.078 -0.4515  0.0328  0.0449
  368SOL    HW1 1103   2.719   1.595   1.123  1.2174  1.8363 -0.8336
  368SOL    HW2 1104   2.587   1.499   1.107 -0.1954  0.4435  0.3139
  369SOL     OW 1105   2.201   2.521   2.954 -0.6750  0.2068  0.3400
  369SOL    HW1 1106   2.262   2.518   2.872  0.7250  0.6731 -0.4140
  369SOL    HW2 1107   2.129   2.593   2.939 -0.8341  2.3730 -0.8014
  370SOL     OW 1108   0.089   3.074   1.121 -0.3834 -0.1717 -0.3407
  370SOL    HW1 1109   0.106   0.057   1.192 -0.2136 -0.2262  1.1620
  370SOL    HW2 1110   0.152   3.070   1.040 -1.0461 -3.4818 -1.1239
  371SOL     OW 1111   0.999   1.788   2.998 -0.0306  0.1209 -0.5967
  371SOL    HW1 1112   0.962   1.873   3.041 -0.0841  0.6241  0.9269
  371SOL    HW2 1113   1.032   1.726   3.079  2.6042  0.3744  2.4837
  372SOL     OW 1114   1.067   0.948   0.237 -0.3538 -0.5851 -0.4522
  372SOL    HW1 1115   1.130   0.868   0.237  0.6851  2.0980 -2.3609
  372SOL    HW2 1116   1.002   0.942   0.157 -1.9411 -0.1731  1.3497
  373SOL     OW 1117   1.564   2.564   2.527 -0.2615  0.0973  0.7437
  373SOL    HW1 1118   1.645   2.572   2.468 -0.0813 -0.3101 -0.7715
  373SOL    HW2 1119   1.587   2.525   2.618 -0.3711  1.7555  0.0653
  374SOL     OW 1120   0.306   2.186   0.260  0.3107  0.1772 -0.1899
  374SOL    HW1 1121   0.383   2.129   0.226 -2.1196 -2.3166  2.8971
  374SOL    HW2 1122   0.255   2.226   0.182 -1.6953  0.2500  1.3276
  375SOL     OW 1123   0.718   1.356   1.724  0.5900 -0.1596 -0.3199
  375SOL    HW1 1124   0.624   1.343   1.684  0.0324 -1.0048  4.9230
  375SOL    HW2 1125   0.768   1.267   1.702  1.2189 -1.9281 -1.8577
  376SOL     OW 1126   0.584   2.370   1.917 -0.4747  0.2877  0.4204
  376SOL    HW1 1127   0.559   2.425   1.837  3.8612 -3.7751 -0.1950
  376SOL    HW2 1128   0.522   2.371   1.997  0.7904  0.7000 -1.5549
  377SOL     OW 1129   2.832   1.452   2.197  0.7988 -0.1966 -0.1474
  377SOL    HW1 1130   2.909   1.508   2.239 -1.3099  1.3775  0.0191
  377SOL    HW2 1131   2.857   1.355   2.193  1.2513  1.3671  1.0522
  378SOL     OW 1132   1.100   2.996   0.096  0.6317  0.0787 -0.8327
  378SOL    HW1 1133   1.155   2.987   0.012 -1.4906  2.1065  0.0732
  378SOL    HW2 1134   1.128   2.919   0.160  0.7394  1.0131  1.9645
  379SOL     OW 1135   2.011   0.373   0.673  0.4623 -0.4797 -0.0775
  379SOL    HW1 1136   2.064   0.402   0.586 -1.6083 -2.1520 -1.6871
  379SOL    HW2 1137   2.045   0.424   0.758 -0.8943  0.1172  4.1225
  380SOL     OW 1138   3.081   1.926   1.581  0.3920  0.3068  0.2744
  380SOL    HW1 1139   0.001   1.851   1.652 -1.0354 -0.7518  1.8689
  380SOL    HW2 1140   2.981   1.930   1.545 -3.9096 -0.7534 -2.0192
  381SOL     OW 1141   1.963   1.772   2.158 -0.3084  1.0955  0.5837
  381SOL    HW1 1142   1.909   1.749   2.243 -2.1845 -1.3835 -2.2769
  381SOL    HW2 1143   1.913   1.726   2.080 -0.9970 -1.0070  2.2149
  382SOL     OW 1144   0.178   0.288   2.697  0.0782  0.2440 -0.4091
  382SOL    HW1 1145   0.089   0.269   2.745  0.4577  1.2088 -0.6848
  382SOL    HW2 1146   0.166   0.337   2.608  0.0449  1.8361 -2.9658
  383SOL     OW 1147   1.637   1.411   2.638  0.2572  0.0780 -0.1641
  383SOL    HW1 1148   1.691   1.385   2.719  1.8140 -0.6379 -1.9991
  383SOL    HW2 1149   1.649   1.338   2.569 -1.9557 -2.4912 -1.8869
  384SOL     OW 1150   1.311   1.848   1.226  0.3879  0.1823 -0.1920
  384SOL    HW1 1151   1.385   1.890   1.169 -0.5288  1.7929  2.6245
  384SOL    HW2 1152   1.220   1.889   1.210  3.2176  0.6621  1.9186
  385SOL     OW 1153   1.794   2.561   0.827  0.2813 -0.0716  0.2083
  385SOL    HW1 1154   1.804   2.649   0.876 -0.8304  3.7604 -2.6859
  385SOL    HW2 1155   1.850   2.570   0.739 -0.8519  2.0111 -2.3025
  386SOL     OW 1156   1.957   1.694   1.019  0.8351 -1.2307 -0.3283
  386SOL    HW1 1157   1.876   1.634   1.042 -1.8578 -0.9298  0.6812
  386SOL    HW2 1158   2.040   1.638   1.007 -1.5796  3.1350  2.6651
  387SOL     OW 1159   0.162   2.263   1.478 -0.0227  0.1013 -0.2119
  387SOL    HW1 1160   0.149   2.198   1.395 -0.0345  0.2496 -2.5568
  387SOL    HW2 1161   0.135   2.223   1.565  0.9922  1.7316 -0.5937
  388SOL     OW 1162   2.943   0.521   1.801 -0.1045  0.2628  0.1649
  388SOL    HW1 1163   2.915   0.615   1.782 -4.0581 -0.0244  1.1814
  388SOL    HW2 1164   2.869   0.451   1.804 -0.4577  0.8326  0.5184
  389SOL     OW 1165   1.852   1.099   0.464  0.4568  0.0017  0.2764
  389SOL    HW1 1166   1.805   1.026   0.511 -0.0758  1.5819  0.3669
  389SOL    HW2 1167   1.922   1.065   0.392  1.4419  0.4335 -2.7335
  390SOL     OW 1168   1.046   2.029   2.591  0.9828 -0.4709 -0.4484
  390SOL    HW1 1169   0.976   2.057   2.519  0.2967  1.0254 -0.6041
  390SOL    HW2 1170   1.104   1.949   2.568 -0.6826 -0.0185  1.2262
  391SOL     OW 1171   0.677   2.129   2.813 -0.0934  1.4700 -0.0566
  391SOL    HW1 1172   0.621   2.210   2.823 -0.3796  0.2615  0.1171
  391SOL    HW2 1173   0.637   2.051   2.759 -0.3920  2.4544 -2.9357
  392SOL     OW 1174   3.036   2.830   1.696 -0.4980 -0.0966 -0.1165
  392SOL    HW1 1175   2.950   2.876   1.662  0.0111  0.5870 -1.5284
  392SOL    HW2 1176   3.037   2.833   1.798 -4.5647  3.4791  0.0368
  393SOL     OW 1177   1.831   2.510   0.231 -0.5085 -0.1675  0.4474
  393SOL    HW1 1178   1.903   2.491   0.299 -0.9983  0.0419  0.9369
  393SOL    HW2 1179   1.768   2.580   0.262  0.4107 -1.0997 -0.2839
  394SOL     OW 1180   0.758   0.510   2.201  0.2587  0.0846  0.2899
  394SOL    HW1 1181   0.745   0.407   2.218 -2.7198 -1.2712 -1.4391
  394SOL    HW2 1182   0.818   0.551   2.271 -0.0270  0.2385 -0.3476
  395SOL     OW 1183   0.345   1.298   1.275 -0.2087  0.1531  0.8452
  395SOL    HW1 1184   0.309   1.220   1.223  1.5493 -0.1824 -0.0023
  395SOL    HW2 1185   0.324   1.285   1.376 -1.9178 -0.9023 -1.4352
  396SOL     OW 1186   1.586   1.313   2.312 -0.8378 -0.2117  0.2870
  396SOL    HW1 1187   1.541   1.251   2.243  0.4327  0.4621 -1.8520
  396SOL    HW2 1188   1.518   1.383   2.345  1.3427  0.8388  1.8954
  397SOL     OW 1189   0.785   0.444   0.135 -0.3084  0.5344  0.3156
  397SOL    HW1 1190   0.799   0.467   0.232 -0.5208  2.4344  1.8165
  397SOL    HW2 1191   0.697   0.392   0.124 -1.9145  2.3580  0.1904
  398SOL     OW 1192   0.850   1.876   2.716 -0.2857  0.7148  0.2345
  398SOL    HW1 1193   0.887   1.809   2.781  0.2302 -1.5567 -1.0331
  398SOL    HW2 1194   0.923   1.930   2.666 -0.2828 -0.7683 -0.6534
  399SOL     OW 1195   2.642   1.544   2.459 -0.0574 -0.0397  0.3554
  399SOL    HW1 1196   2.625   1.487   2.379 -1.0581  3.7482 -2.0174
  399SOL    HW2 1197   2.652   1.642   2.428 -0.1240  1.4932 -0.1071
  400SOL     OW 1198   2.284   1.194   1.569  0.5728  0.4154  0.2698
  400SOL    HW1 1199   2.286   1.296   1.572  0.4672 -0.8596  1.0726
  400SOL    HW2 1200   2.215   1.154   1.504 -3.6938  0.3845 -0.5841
  401SOL     OW 1201   1.073   1.751   0.673 -0.2822  0.0620 -0.2094
  401SOL    HW1 1202   1.096   1.728   0.771  0.7765 -0.9643  2.2934
  401SOL    HW2 1203   1.142   1.708   0.614 -0.5833  0.6528  0.7888
  402SOL     OW 1204   0.047   2.566   2.175  0.2708 -0.0900 -0.2200
  402SOL    HW1 1205   0.102   2.525   2.253  0.2886  1.2733  0.9123
  402SOL    HW2 1206   0.113   2.586   2.099  1.1610 -0.0526 -0.3472
  403SOL     OW 1207   0.479   1.369   2.499  0.2056 -0.0574 -0.2986
  403SOL    HW1 1208   0.444   1.426   2.579  0.6120  0.6691 -1.8359
  403SOL    HW2 1209   0.466   1.269   2.523  1.7885 -2.1153 -0.5909
  404SOL     OW 1210   2.064   2.196   1.344 -0.4650  0.3348  0.5452
  404SOL    HW1 1211   2.091   2.263   1.415 -0.7154 -0.4539  0.6941
  404SOL    HW2 1212   2.021   2.116   1.380  1.1480  1.5188  1.3279
  405SOL     OW 1213   3.051   0.246   2.875 -0.0471  0.0010  0.1725
  405SOL    HW1 1214   2.985   0.299   2.933  0.1663  2.8445 -0.2466
  405SOL    HW2 1215   3.011   0.168   2.825  0.0693 -0.6981  1.5602
  406SOL     OW 1216   0.845   0.899   0.402 -0.2519  0.3796 -0.8138
  406SOL    HW1 1217   0.931   0.911   0.353 -1.1325  0.5227 -1.5206
  406SOL    HW2 1218   0.765   0.961   0.374 -3.7042  0.6035 -1.2178
  407SOL     OW 1219   1.849   2.363   2.641 -0.1795 -0.1772  0.2919
  407SOL    HW1 1220   1.882   2.268   2.657  0.3206  0.7513 -3.4373
  407SOL    HW2 1221   1.851   2.418   2.723 -0.6325  1.2694  1.5248
  408SOL     OW 1222   2.945   3.053   0.049  0.4113 -0.4983 -0.2239
  408SOL    HW1 1223   2.875   2.997   0.095  1.6545  1.5932 -2.4064
  408SOL    HW2 1224   3.018   3.093   0.104  0.7456 -2.5021 -3.7618
  409SOL     OW 1225   2.174   1.511   1.195  0.2374  0.0497 -0.2531
  409SOL    HW1 1226   2.206   1.543   1.108  1.4845 -0.1404  2.9518
  409SOL    HW2 1227   2.209   1.418   1.215  0.4592 -1.5678  1.0474
  410SOL     OW 1228   2.567   2.243   0.190  0.1397  0.7209 -0.0420
  410SOL    HW1 1229   2.522   2.308   0.122 -0.3749  0.3126  0.6722
  410SOL    HW2 1230   2.552   2.145   0.165  0.3649 -0.9162  3.5570
  411SOL     OW 1231   0.178   1.176   0.757  0.1288 -0.4819  0.0996
  411SOL    HW1 1232   0.093   1.233   0.765 -1.5047  0.8381 -0.4159
  411SOL    HW2 1233   0.153   1.077   0.767 -0.7011  0.8343  1.0583
  412SOL     OW 1234   2.051   2.467   0.391 -0.0016 -0.3674 -0.0269
  412SOL    HW1 1235   2.122   2.529   0.362 -1.4791 -3.0615  0.2674
  412SOL    HW2 1236   2.092   2.388   0.440 -2.5148  2.1550  1.1680
  413SOL     OW 1237   2.009   0.878   2.131  0.2364  0.2831 -0.1211
  413SOL    HW1 1238   1.915   0.851   2.154  1.0585  1.3677 -0.8804
  413SOL    HW2 1239   2.027   0.868   2.034  0.6296  1.6259  0.9108
  414SOL     OW 1240   2.735   0.336   0.454  0.0254  0.3794 -0.0439
  414SOL    HW1 1241   2.821   0.289   0.478  0.7152 -0.0795 -1.4253
  414SOL    HW2 1242   2.707   0.294   0.364 -0.2236  1.2729  1.0756
  415SOL     OW 1243   1.009   1.702   1.386 -0.2578 -0.2406 -0.3663
  415SOL    HW1 1244   1.099   1.649   1.394  1.2257 -0.5360 -0.1662
  415SOL    HW2 1245   0.943   1.660   1.451  2.2093 -0.3899  0.6125
  416SOL     OW 1246   0.507   2.984   2.925 -0.0756  0.3403 -0.2328
  416SOL    HW1 1247   0.480   3.043   2.845  2.1576 -3.7757 -0.7652
  416SOL    HW2 1248   0.496   2.887   2.904  2.7572  0.2914  0.4603
  417SOL     OW 1249   2.557   0.273   0.906  0.4899 -0.0772  0.4838
  417SOL    HW1 1250   2.516   0.366   0.892 -0.5797  1.6300  1.2642
  417SOL    HW2 1251   2.660   0.275   0.919 -1.3136 -2.5317  0.9510
  418SOL     OW 1252   0.197   0.633   2.823  0.6783  0.5114 -0.6432
  418SOL    HW1 1253   0.102   0.665   2.812  2.6455  0.3189 -0.3116
  418SOL    HW2 1254   0.194   0.539   2.863 -0.3023  0.4448  1.2053
  419SOL     OW 1255   0.303   1.174   1.523  0.0965  0.5924 -0.3192
  419SOL    HW1 1256   0.343   1.211   1.603  2.1320 -1.1561 -0.7543
  419SOL    HW2 1257   0.202   1.179   1.521  0.7180 -0.1322 -0.6103
  420SOL     OW 1258   0.618   1.644   0.716 -0.2167 -0.0426 -0.0943
  420SOL    HW1 1259   0.695   1.683   0.651  2.3076  0.0756 -2.6558
  420SOL    HW2 1260   0.665   1.622   0.805 -3.4902  1.1786  0.7373
  421SOL     OW 1261   2.363   2.583   2.733  0.0116 -0.0494  0.2552
  421SOL    HW1 1262   2.355   2.489   2.687 -2.4855 -1.9043  0.4336
  421SOL    HW2 1263   2.404   2.648   2.661  3.0443 -0.9243 -2.5116
  422SOL     OW 1264   3.061   0.712   2.754  0.1655 -0.2803 -0.3770
  422SOL    HW1 1265   3.032   0.618   2.742  0.7088  0.8141 -0.6613
  422SOL    HW2 1266   3.000   0.774   2.809 -1.3070  1.9606  1.7979
  423SOL     OW 1267   1.422   2.030   0.863 -0.1367  0.0038  0.3423
  423SOL    HW1 1268   1.458   2.006   0.954 -0.1072 -4.1588 -0.1714
  423SOL    HW2 1269   1.439   1.954   0.802 -3.8135  1.9531  1.3808
  424SOL     OW 1270   0.415   2.071   1.659  0.4345  0.4672  0.2937
  424SOL    HW1 1271   0.434   2.110   1.568  2.5554  0.0977 -2.1813
  424SOL    HW2 1272   0.493   2.075   1.723  0.1702 -0.7550 -1.8619
  425SOL     OW 1273   0.037   2.835   2.271 -0.1603 -0.3026  0.7300
  425SOL    HW1 1274   0.019   2.740   2.234  1.3823  1.6765 -0.4434
  425SOL    HW2 1275   3.053   2.895   2.268  0.3719 -0.5677  0.9086
  426SOL     OW 1276   1.613   0.912   0.559  0.2525  0.3800 -0.0963
  426SOL    HW1 1277   1.590   0.896   0.462  0.5470  1.6172 -0.5440
  426SOL    HW2 1278   1.531   0.915   0.616  1.3567 -0.1405  0.2870
  427SOL     OW 1279   0.613   0.990   0.255  0.0856  0.1596  0.5950
  427SOL    HW1 1280   0.521   0.981   0.299  2.0905 -0.8628 -1.0401
  427SOL    HW2 1281   0.597   1.009   0.155  1.0908 -0.9493 -0.0078
  428SOL     OW 1282   1.353   1.222   3.027  0.1931 -0.6207 -0.5157
  428SOL    HW1 1283   1.335   1.181   0.021  2.5264 -2.7417 -1.5887
  428SOL    HW2 1284   1.264   1.255   2.984 -4.0225  1.0702  1.8787
  429SOL     OW 1285   2.964   2.545   0.396  0.2226 -0.0819  0.5307
  429SOL    HW1 1286   3.028   2.573   0.323 -1.2645  0.8961 -3.0646
  429SOL    HW2 1287   2.949   2.619   0.459  2.3479 -2.2287 -2.4571
  430SOL     OW 1288   0.536   2.725   2.557 -0.1806 -0.5782 -0.3991
  430SOL    HW1 1289   0.581   2.634   2.576  0.9969 -0.6823 -1.2219
  430SOL    HW2 1290   0.472   2.755   2.630 -1.1899  2.5710  1.1637
  431SOL     OW 1291   2.741   1.129   0.752  0.1436 -0.0609 -0.2831
  431SOL    HW1 1292   2.639   1.132   0.781  0.1903 -2.0536  1.7187
  431SOL    HW2 1293   2.771   1.028   0.760  2.2645 -1.0287 -1.2191
  432SOL     OW 1294   2.137   2.457   2.021  0.1070  0.1237  0.3120
  432SOL    HW1 1295   2.180   2.391   2.084 -0.3792 -0.7048  2.5738
  432SOL    HW2 1296   2.135   2.421   1.924  0.7190  0.0847  1.7355
  433SOL     OW 1297   1.580   2.401   0.836 -0.0662 -0.1686 -0.3447
  433SOL    HW1 1298   1.585   2.328   0.768  1.1009  0.4166  0.5008
  433SOL    HW2 1299   1.665   2.454   0.827  0.3588  1.5328  0.9197
  434SOL     OW 1300   0.575   2.090   1.895  0.0327 -0.1376  0.2890
  434SOL    HW1 1301   0.581   2.190   1.912  2.0414 -0.3247  0.1779
  434SOL    HW2 1302   0.494   2.054   1.941 -0.9307 -2.4996 -0.2807
  435SOL     OW 1303   0.004   1.093   0.118 -0.6098  0.1689  0.4239
  435SOL    HW1 1304   3.053   1.105   0.212 -1.1203  0.5490  3.8656
  435SOL    HW2 1305   3.062   1.018   0.058 -1.2117 -2.0496 -0.5804
  436SOL     OW 1306   0.282   2.627   1.996  0.3307 -0.4546  0.1774
  436SOL    HW1 1307   0.289   2.722   1.956  1.5439 -0.9279 -0.2453
  436SOL    HW2 1308   0.352   2.601   2.061 -0.1044 -2.2398  0.1671
  437SOL     OW 1309   1.735   2.809   1.635  0.0395 -0.3968 -0.3053
  437SOL    HW1 1310   1.767   2.864   1.557 -2.6154  2.9502  3.0842
  437SOL    HW2 1311   1.810   2.763   1.688  2.2480 -0.9577  0.2600
  438SOL     OW 1312   0.185   1.725   0.566 -0.0516 -0.7560 -0.1842
  438SOL    HW1 1313   0.242   1.767   0.639  2.0893 -1.5486  0.6026
  438SOL    HW2 1314   0.154   1.800   0.501  0.3894 -0.1495 -2.1789
  439SOL     OW 1315   0.092   0.534   0.890 -0.0961  0.1037  0.3116
  439SOL    HW1 1316   0.187   0.571   0.894 -1.5910  2.3728 -1.8573
  439SOL    HW2 1317   0.089   0.431   0.901  1.1445  0.9617  1.3989
  440SOL     OW 1318   0.329   2.752   2.765 -0.2231 -0.2275 -0.2438
  440SOL    HW1 1319   0.291   2.679   2.715  2.0356  1.2977  2.3884
  440SOL    HW2 1320   0.266   2.832   2.779 -0.1863  2.5249  0.7036
  441SOL     OW 1321   2.824   0.878   0.761 -0.1409 -0.0317 -0.4252
  441SOL    HW1 1322   2.862   0.809   0.826 -1.2030  0.7562 -1.8405
  441SOL    HW2 1323   2.775   0.836   0.680 -1.3575 -0.3187  0.5682
  442SOL     OW 1324   1.268   2.218   2.563  0.2345  0.3555  0.2855
  442SOL    HW1 1325   1.321   2.219   2.475 -1.5117 -1.6658 -2.0340
  442SOL    HW2 1326   1.209   2.133   2.570 -1.4029  0.9733  0.0669
  443SOL     OW 1327   0.663   0.505   0.579 -0.6557  0.1582 -0.1370
  443SOL    HW1 1328   0.739   0.507   0.645 -1.9150 -3.0322 -1.0821
  443SOL    HW2 1329   0.693   0.552   0.496  2.2290 -1.5351 -0.2676
  444SOL     OW 1330   1.541   1.684   2.323 -0.1691 -0.2434  0.1446
  444SOL    HW1 1331   1.460   1.644   2.360  2.4581  0.7062 -0.4155
  444SOL    HW2 1332   1.515   1.767   2.270  2.1193 -1.5863  1.3081
  445SOL     OW 1333   3.064   0.498   0.620  0.1595  0.6397 -0.2534
  445SOL    HW1 1334   0.018   0.587   0.635  1.2177  2.5332  2.4366
  445SOL    HW2 1335   0.008   0.419   0.674 -0.0747 -1.9050  1.2534
  446SOL     OW 1336   1.971   0.687   1.091  0.4975 -0.6733  0.0085
  446SOL    HW1 1337   1.965   0.761   1.026  0.4518 -3.2904  4.6358
  446SOL    HW2 1338   1.883   0.650   1.131 -0.1644  1.2485  0.9549
  447SOL     OW 1339   2.982   1.095   0.355 -0.3275  0.8510  0.5628
  447SOL    HW1 1340   2.988   0.992   0.361 -1.0943 -1.2651 -1.2352
  447SOL    HW2 1341   2.899   1.137   0.387  2.4975  0.8824  0.5663
  448SOL     OW 1342   1.877   2.077   1.682  0.3336  0.1837  0.3163
  448SOL    HW1 1343   1.846   2.167   1.651 -1.0141  1.8857  1.0997
  448SOL    HW2 1344   1.910   2.022   1.598  0.7382  1.0197 -3.6280
  449SOL     OW 1345   0.904   1.490   0.481 -0.7613 -0.2842 -0.1694
  449SOL    HW1 1346   0.985   1.473   0.539 -1.1133  3.8020 -0.8811
  449SOL    HW2 1347   0.868   1.583   0.509 -1.5254  0.4699 -0.9672
  450SOL     OW 1348   2.758   2.701   1.992 -0.0472  0.1560 -0.3337
  450SOL    HW1 1349   2.680   2.746   2.039  0.1984  0.1922  0.1025
  450SOL    HW2 1350   2.745   2.686   1.891 -1.0476  1.6583 -0.9600
  451SOL     OW 1351   2.617   1.079   2.920 -0.2516  0.1464 -0.1060
  451SOL    HW1 1352   2.672   1.111   2.996 -3.3469  2.9491 -2.5382
  451SOL    HW2 1353   2.544   1.153   2.908 -2.0129  0.0714  0.7165
  452SOL     OW 1354   1.739   1.014   1.174 -0.7460 -0.1321 -0.0169
  452SOL    HW1 1355   1.787   0.957   1.240 -0.1935  2.0945 -1.8038
  452SOL    HW2 1356   1.640   1.022   1.197 -1.2299  1.2778 -1.1315
  453SOL     OW 1357   2.173   0.644   1.580  0.0768  0.0717 -0.2117
  453SOL    HW1 1358   2.144   0.743   1.565  0.7716  2.4281 -2.3568
  453SOL    HW2 1359   2.141   0.607   1.667  1.0662  3.5765  1.3732
  454SOL     OW 1360   2.786   1.320   2.964 -0.0020 -0.5707  0.3765
  454SOL    HW1 1361   2.882   1.291   2.934  2.6725 -0.6341  0.1767
  454SOL    HW2 1362   2.773   1.283   3.055  0.8330  0.9269 -1.1415
  455SOL     OW 1363   2.619   1.745   1.490 -1.0965 -0.1634  0.0944
  455SOL    HW1 1364   2.579   1.654   1.469  2.7909  1.6140  2.3789
  455SOL    HW2 1365   2.552   1.814   1.455 -0.1328  0.5585  1.8489
  456SOL     OW 1366   1.172   2.999   1.676  0.3224  0.0044 -0.1933
  456SOL    HW1 1367   1.172   3.041   1.580  0.2995  0.2424 -0.8541
  456SOL    HW2 1368   1.210   3.076   1.735 -2.2779  3.3531  0.0949
  457SOL     OW 1369   1.791   2.795   1.038 -0.1963  0.6625  0.4533
  457SOL    HW1 1370   1.774   2.770   1.135  0.7724  2.1283  1.1686
  457SOL    HW2 1371   1.730   2.870   1.013 -1.7663 -1.9441  0.4889
  458SOL     OW 1372   2.934   0.084   0.533 -0.3703  0.0108 -0.2229
  458SOL    HW1 1373   2.868   0.062   0.606 -0.3077 -1.3083 -2.3287
  458SOL    HW2 1374   3.023   0.112   0.577 -0.1472  2.0191  2.9089
  459SOL     OW 1375   1.576   1.114   0.163 -0.1290  0.3208 -0.6575
  459SOL    HW1 1376   1.485   1.153   0.174 -0.0062 -1.9984  2.3364
  459SOL    HW2 1377   1.580   1.063   0.075  0.4016 -0.2069 -0.6953
  460SOL     OW 1378   0.251   2.480   2.729 -0.6413  0.3824  0.1460
  460SOL    HW1 1379   0.203   2.471   2.813  2.2247  1.0964 -0.5557
  460SOL    HW2 1380   0.216   2.418   2.655 -2.2448 -0.8968  0.1294
  461SOL     OW 1381   0.653   1.587   0.119 -0.0822 -0.3074  0.2418
  461SOL    HW1 1382   0.740   1.597   0.164 -0.5662 -0.5605 -3.3574
  461SOL    HW2 1383   0.605   1.678   0.108 -0.9372  0.0042 -2.0089
  462SOL     OW 1384   1.966   1.899   0.836 -0.1800  0.4951 -0.1404
  462SOL    HW1 1385   2.053   1.931   0.881  2.4965 -2.4702  0.3999
  462SOL    HW2 1386   1.948   1.805   0.873  2.8781  1.1280  1.4992
  463SOL     OW 1387   2.874   0.600   0.415 -0.3074 -0.4398  0.1326
  463SOL    HW1 1388   2.949   0.578   0.481  0.4799 -2.2965 -1.4879
  463SOL    HW2 1389   2.804   0.526   0.415 -1.1446  1.7416  4.0134
  464SOL     OW 1390   0.846   2.303   0.472 -0.1431 -0.3792  0.1326
  464SOL    HW1 1391   0.901   2.285   0.389  0.0811  0.8114 -0.0487
  464SOL    HW2 1392   0.850   2.224   0.534 -1.9008 -2.2800 -1.3075
  465SOL     OW 1393   2.179   0.237   1.011 -0.2897 -0.0069  0.0331
  465SOL    HW1 1394   2.160   0.164   1.080 -0.0841  3.3168 -1.5226
  465SOL    HW2 1395   2.176   0.203   0.917  1.7774  0.7350 -2.7363
  466SOL     OW 1396   2.134   0.023   0.510  0.2379  0.0517  0.4817
  466SOL    HW1 1397   2.187   3.036   0.487 -0.5355 -1.9501  0.5281
  466SOL    HW2 1398   2.108   0.083   0.428 -2.6157  2.8436 -2.0708
  467SOL     OW 1399   1.326   0.420   2.101 -0.1330 -0.3274  0.4332
  467SOL    HW1 1400   1.360   0.488   2.163  0.3923 -0.1719 -0.7211
  467SOL    HW2 1401   1.371   0.419   2.009 -1.3573 -0.1973 -3.4683
  468SOL     OW 1402   2.739   0.313   1.802 -0.3007  0.1924  0.3092
  468SOL    HW1 1403   2.664   0.327   1.732 -1.0448  1.0013  0.7832
  468SOL    HW2 1404   2.708   0.296   1.896  0.4766  3.0342 -0.2490
  469SOL     OW 1405   1.029   2.260   1.847 -0.3256 -0.5570  0.0318
  469SOL    HW1 1406   1.038   2.193   1.927  1.3560 -2.2339  2.9583
  469SOL    HW2 1407   1.052   2.203   1.764  1.3800  0.5688 -2.8585
  470SOL     OW 1408   2.002   1.221   1.880 -0.1258 -0.5136 -0.5817
  470SOL    HW1 1409   2.070   1.160   1.839 -2.1991  0.6890 -0.0463
  470SOL    HW2 1410   1.929   1.177   1.933 -0.3646  1.9366 -2.5792
  471SOL     OW 1411   2.634   1.530   3.001 -0.0600  0.2235  0.5181
  471SOL    HW1 1412   2.699   1.458   2.964 -1.5064  0.4505 -2.3697
  471SOL    HW2 1413   2.687   1.587   3.062 -1.2472 -2.0651 -0.7489
  472SOL     OW 1414   0.610   2.457   0.495  0.3896 -1.0762  0.4083
  472SOL    HW1 1415   0.546   2.414   0.564  0.6408 -0.7567  1.2763
  472SOL    HW2 1416   0.690   2.394   0.478  1.9806  1.1874  4.1791
  473SOL     OW 1417   1.186   2.290   2.178  0.2250 -0.2355 -0.0123
  473SOL    HW1 1418   1.156   2.240   2.094  2.8076  1.2803 -3.8703
  473SOL    HW2 1419   1.276   2.267   2.222 -1.4332  1.6942 -0.4690
  474SOL     OW 1420   1.165   0.070   2.694  0.0446  0.0149 -0.2162
  474SOL    HW1 1421   1.150   0.111   2.788  2.1838  1.9845  2.4679
  474SOL    HW2 1422   1.195   3.068   2.700  2.4134  2.0009  0.0850
  475SOL     OW 1423   1.010   2.262   0.234  0.2406 -0.1820  0.5732
  475SOL    HW1 1424   1.078   2.324   0.276 -2.5252 -0.0228 -0.9143
  475SOL    HW2 1425   1.058   2.172   0.236  1.5198 -1.2161  1.6509
  476SOL     OW 1426   0.526   0.404   1.267  0.1112  0.0898 -0.3704
  476SOL    HW1 1427   0.581   0.430   1.352  1.0882  0.6366  0.8865
  476SOL    HW2 1428   0.565   0.457   1.188 -1.3449 -0.0487  0.2501
  477SOL     OW 1429   1.888   1.992   1.424 -0.2187  0.6119  0.6661
  477SOL    HW1 1430   1.898   1.970   1.326 -1.7274  2.3294  1.1858
  477SOL    HW2 1431   1.794   2.024   1.448 -0.6070  0.3668 -0.6634
  478SOL     OW 1432   2.949   0.914   3.074 -0.2307 -0.3686  0.4837
  478SOL    HW1 1433   2.883   0.935   0.054  2.0927 -0.8831 -0.5999
  478SOL    HW2 1434   2.931   0.822   3.041  3.2137  4.6310  2.5641
  479SOL     OW 1435   0.674   3.007   0.866 -0.4309  0.5040  0.5689
  479SOL    HW1 1436   0.691   2.970   0.964  3.6745 -0.0369  4.2191
  479SOL    HW2 1437   0.747   3.072   0.845 -1.8923 -2.8287 -0.5448
  480SOL     OW 1438   2.505   2.584   0.464 -0.3461 -0.4857  0.1650
  480SOL    HW1 1439   2.494   2.486   0.484 -3.1002  0.0688  0.8874
  480SOL    HW2 1440   2.535   2.635   0.546 -2.4496 -0.2211 -2.1856
  481SOL     OW 1441   2.833   0.503   1.299 -0.0608  0.6026  0.0223
  481SOL    HW1 1442   2.791   0.413   1.275  1.4371  0.6530 -1.9229
  481SOL    HW2 1443   2.875   0.496   1.391  0.3135 -0.5823 -1.9589
  482SOL     OW 1444   1.073   2.881   0.888 -0.4857  0.7699 -0.2975
  482SOL    HW1 1445   1.037   2.893   0.793  3.3720 -0.7768  1.3324
  482SOL    HW2 1446   1.046   2.956   0.950  2.0883 -1.8554 -0.7062
  483SOL     OW 1447   0.356   1.318   3.007 -0.3719 -0.0491  0.3438
  483SOL    HW1 1448   0.310   1.385   2.946  1.9970 -1.1702 -1.3362
  483SOL    HW2 1449   0.410   1.369   3.075 -1.6187 -0.1953 -1.1049
  484SOL     OW 1450   1.602   1.534   1.992 -0.4303 -0.4127  0.0165
  484SOL    HW1 1451   1.686   1.481   1.963 -0.8415  0.3161 -0.9523
  484SOL    HW2 1452   1.622   1.590   2.074 -0.7963 -0.2672 -0.9565
  485SOL     OW 1453   0.398   0.036   2.716 -0.3133  0.1430 -0.3677
  485SOL    HW1 1454   0.381   0.128   2.687 -2.2092  2.9398  0.2445
  485SOL    HW2 1455   0.311   3.083   2.724  0.4990  1.6630 -2.2335
  486SOL     OW 1456   1.502   0.077   0.564 -0.3465  0.5236 -0.2251
  486SOL    HW1 1457   1.559   3.096   0.602  0.9453  0.5239 -0.0807
  486SOL    HW2 1458   1.459   0.045   0.482  2.2726 -0.3679  0.1917
  487SOL     OW 1459   1.631   0.310   0.553 -0.0590 -0.0603  0.9230
  487SOL    HW1 1460   1.717   0.284   0.604  3.4497  0.6225 -0.7616
  487SOL    HW2 1461   1.566   0.231   0.562 -0.3386  1.1863  2.0767
  488SOL     OW 1462   2.241   0.927   0.907  0.1282 -0.9981  0.3829
  488SOL    HW1 1463   2.219   1.022   0.937  0.0873 -0.2444 -0.0801
  488SOL    HW2 1464   2.162   0.886   0.861  0.0889 -0.3301 -0.5186
  489SOL     OW 1465   1.159   2.971   1.270 -0.0630 -0.1009 -0.0470
  489SOL    HW1 1466   1.233   2.914   1.245 -3.3709  2.0991 -0.6133
  489SOL    HW2 1467   1.120   3.015   1.190  1.0388 -1.1227  1.1138
  490SOL     OW 1468   0.878   0.566   0.742 -0.4570 -0.2148  0.0787
  490SOL    HW1 1469   0.887   0.546   0.839  1.0797  0.7137 -0.9443
  490SOL    HW2 1470   0.912   0.662   0.731 -2.1458  1.5906 -0.1788
  491SOL     OW 1471   1.141   2.728   0.425 -0.3936 -0.1907  0.9554
  491SOL    HW1 1472   1.202   2.806   0.436 -2.5395  0.6788  1.7362
  491SOL    HW2 1473   1.152   2.701   0.328  0.0014  0.7710  0.3148
  492SOL     OW 1474   1.031   1.437   1.782 -0.3824 -0.1092  0.0113
  492SOL    HW1 1475   0.975   1.491   1.850 -1.7782  1.4200 -1.8769
  492SOL    HW2 1476   1.008   1.338   1.787  0.8134  1.2671 -1.1854
  493SOL     OW 1477   0.201   1.739   0.141  0.2614 -0.2082 -0.1026
  493SOL    HW1 1478   0.190   1.814   0.209  1.6621 -0.3318 -0.0641
  493SOL    HW2 1479   0.193   1.646   0.186 -0.0073 -3.4322 -0.7739
  494SOL     OW 1480   1.863   1.713   0.256 -0.6623 -0.8518  0.1113
  494SOL    HW1 1481   1.869   1.771   0.340  0.2039  0.8613 -1.1907
  494SOL    HW2 1482   1.785   1.738   0.198 -0.1365  2.5284 -0.6807
  495SOL     OW 1483   0.412   0.960   2.357 -0.2174 -0.5525  0.1953
  495SOL    HW1 1484   0.321   0.926   2.330  0.1766  1.8481  0.4753
  495SOL    HW2 1485   0.470   0.974   2.275 -0.2252  0.3219 -1.4280
  496SOL     OW 1486   0.514   0.021   2.442  0.2220 -0.4782 -0.0555
  496SOL    HW1 1487   0.562   0.023   2.528 -2.5397 -0.6231 -2.8523
  496SOL    HW2 1488   0.450   3.041   2.438  0.5041 -1.7730  0.7368
  497SOL     OW 1489   1.596   1.251   0.456  0.3664  0.3025 -0.1667
  497SOL    HW1 1490   1.613   1.337   0.402 -0.7764 -0.4032 -2.1915
  497SOL    HW2 1491   1.640   1.170   0.411 -2.8739 -1.5207  0.1828
  498SOL     OW 1492   2.800   2.828   0.146 -0.1931 -0.5349  0.2471
  498SOL    HW1 1493   2.860   2.778   0.081 -0.9514 -2.2046  1.6905
  498SOL    HW2 1494   2.705   2.790   0.157  1.5659  1.4667  1.5649
  499SOL     OW 1495   1.979   2.651   0.626 -0.1350 -0.1110  0.1110
  499SOL    HW1 1496   1.951   2.742   0.584 -3.2793 -0.5421 -1.5873
  499SOL    HW2 1497   2.005   2.594   0.545  0.0460  2.4798  0.4930
  500SOL     OW 1498   0.670   0.646   2.852  0.2946 -0.5422  0.0628
  500SOL    HW1 1499   0.590   0.691   2.820  4.3066 -2.0967  2.1114
  500SOL    HW2 1500   0.648   0.551   2.865 -1.7407  4.5268 -1.8829
  501SOL     OW 1501   1.497   2.924   1.705 -0.2516  0.1752 -0.1426
  501SOL    HW1 1502   1.580   2.868   1.679  0.9932 -1.8601  0.2141
  501SOL    HW2 1503   1.417   2.863   1.715 -0.0542 -1.5143  0.8945
  502SOL     OW 1504   0.152   0.101   2.154  0.2539 -0.4769  0.5564
  502SOL    HW1 1505   0.200   0.012   2.168 -0.1534  1.1646 -1.6587
  502SOL    HW2 1506   0.146   0.118   2.056  0.3152  2.6047  1.0888
  503SOL     OW 1507   1.788   2.294   2.042 -0.7042 -0.2827  0.3252
  503SOL    HW1 1508   1.842   2.371   2.079 -2.3846  0.1090  0.9134
  503SOL    HW2 1509   1.837   2.206   2.061 -0.6554 -1.1597  1.7013
  504SOL     OW 1510   2.051   0.275   1.609  0.4338  0.1649 -1.1866
  504SOL    HW1 1511   2.001   0.327   1.537  2.0249 -1.1461 -0.1067
  504SOL    HW2 1512   2.008   0.185   1.622  0.9434  0.3446 -0.1202
  505SOL     OW 1513   2.725   1.735   1.757  0.1068  0.3797  0.8434
  505SOL    HW1 1514   2.800   1.805   1.774  1.7423 -0.8905 -0.4257
  505SOL    HW2 1515   2.693   1.729   1.656 -1.9900 -1.4623  0.3177
  506SOL     OW 1516   0.267   1.350   2.307 -0.0890 -0.0545  0.2264
  506SOL    HW1 1517   0.344   1.354   2.370  1.0646 -0.3546  1.3531
  506SOL    HW2 1518   0.222   1.261   2.311 -1.3907  0.9094 -0.5709
  507SOL     OW 1519   0.132   2.860   1.263 -0.1406  0.5546 -0.2831
  507SOL    HW1 1520   0.113   2.938   1.196 -1.3924 -2.1740 -0.6676
  507SOL    HW2 1521   0.111   2.888   1.356  0.9490 -1.7618  0.9787
  508SOL     OW 1522   1.160   0.588   1.630 -0.1862  0.2087  0.4196
  508SOL    HW1 1523   1.139   0.569   1.530 -1.3410 -1.9545 -2.4019
  508SOL    HW2 1524   1.233   0.525   1.661  2.9295  0.2996  1.6374
  509SOL     OW 1525   1.838   2.356   1.750 -0.4228 -0.1476 -0.5852
  509SOL    HW1 1526   1.771   2.423   1.710 -2.2643  1.4736  0.6777
  509SOL    HW2 1527   1.810   2.328   1.846 -1.3896  1.6023  2.5198
  510SOL     OW 1528   2.417   1.248   2.919 -0.7189  0.4207  0.2109
  510SOL    HW1 1529   2.417   1.292   3.009 -1.4683  0.0736 -0.7839
  510SOL    HW2 1530   2.361   1.308   2.856 -2.8410 -0.8795  0.0906
  511SOL     OW 1531   0.466   1.524   1.527 -0.4614  0.1384 -0.3104
  511SOL    HW1 1532   0.378   1.564   1.496  3.6418  0.1597  0.2787
  511SOL    HW2 1533   0.546   1.529   1.466  3.1677 -0.6790  1.6039
  512SOL     OW 1534   2.638   1.943   0.343  0.5745 -0.3408 -0.0292
  512SOL    HW1 1535   2.682   1.998   0.416  0.5642 -0.6920 -0.9962
  512SOL    HW2 1536   2.666   1.972   0.251 -1.8086 -1.6236  1.3799
  513SOL     OW 1537   0.749   1.922   2.222  0.0449 -0.8125 -0.3280
  513SOL    HW1 1538   0.817   1.920   2.142  2.0744  0.8456  2.0465
  513SOL    HW2 1539   0.738   1.828   2.256  0.6941 -2.6117  0.3114
  514SOL     OW 1540   0.158   2.154   2.162  0.0781 -0.1701 -0.1360
  514SOL    HW1 1541   0.126   2.068   2.211  0.6309 -1.4413  1.1297
  514SOL    HW2 1542   0.084   2.220   2.134 -0.7174 -0.4752 -2.1712
  515SOL     OW 1543   1.826   1.425   1.840  0.7132  0.1200 -0.7616
  515SOL    HW1 1544   1.914   1.377   1.849  2.6300 -1.1845  1.6965
  515SOL    HW2 1545   1.772   1.382   1.768  1.7216 -0.8833  0.9721
  516SOL     OW 1546   2.265   2.631   0.316  0.0938  0.8197 -0.1278
  516SOL    HW1 1547   2.283   2.635   0.214 -1.3327 -0.0375 -0.6114
  516SOL    HW2 1548   2.350   2.616   0.367  0.5079  0.2686 -0.1272
  517SOL     OW 1549   0.914   1.640   0.250  0.4384 -0.0659 -0.2610
  517SOL    HW1 1550   0.999   1.638   0.193  0.4170  0.3374  0.3743
  517SOL    HW2 1551   0.907   1.573   0.328  1.0096 -1.4910  0.2593
  518SOL     OW 1552   2.023   2.821   1.401  0.1233  0.0722 -0.5678
  518SOL    HW1 1553   1.969   2.897   1.367 -1.6552 -1.8184  0.7437
  518SOL    HW2 1554   1.986   2.734   1.367 -1.2536  0.8096  0.2052
  519SOL     OW 1555   2.121   2.481   1.168  0.2461  0.2071  0.0183
  519SOL    HW1 1556   2.198   2.535   1.202 -0.7136 -0.4264 -0.8887
  519SOL    HW2 1557   2.120   2.481   1.066 -2.3491 -1.7380  0.5854
  520SOL     OW 1558   2.873   2.120   2.282  0.1021  0.1110 -0.7026
  520SOL    HW1 1559   2.787   2.072   2.306 -0.5485  1.2977  1.0661
  520SOL    HW2 1560   2.855   2.179   2.200  1.6466 -1.8698  0.0821
  521SOL     OW 1561   2.771   0.952   2.485  0.1325  0.0280  0.6703
  521SOL    HW1 1562   2.748   0.986   2.580 -1.8106  0.0259  1.0216
  521SOL    HW2 1563   2.697   0.983   2.418  1.0530  1.6454  0.3236
  522SOL     OW 1564   0.844   0.779   2.449 -0.5930  0.1448  0.3743
  522SOL    HW1 1565   0.885   0.693   2.491  0.2256 -0.9841 -0.3572
  522SOL    HW2 1566   0.873   0.795   2.352 -1.2704 -0.9296  0.1124
  523SOL     OW 1567   0.091   2.194   0.848  0.0992 -0.7184 -0.0219
  523SOL    HW1 1568   0.118   2.124   0.917  0.1317  3.2178  2.1020
  523SOL    HW2 1569   0.097   2.282   0.898  0.7698 -1.8098  0.5328
  524SOL     OW 1570   1.905   2.726   3.006  0.3763 -0.4745 -0.1174
  524SOL    HW1 1571   1.914   2.743   0.009 -0.6410  2.7068 -1.7508
  524SOL    HW2 1572   1.973   2.779   2.949 -1.7453 -0.9051  0.2918
  525SOL     OW 1573   2.418   0.600   1.146 -0.4630 -0.6518 -0.0617
  525SOL    HW1 1574   2.489   0.626   1.214 -0.3406 -0.3499 -1.0624
  525SOL    HW2 1575   2.387   0.508   1.170  0.1537  2.6082  1.5169
  526SOL     OW 1576   1.196   2.522   0.639 -0.1187 -0.0809 -0.2712
  526SOL    HW1 1577   1.107   2.476   0.667  2.3103  1.1647 -3.3297
  526SOL    HW2 1578   1.178   2.616   0.602  0.2332 -0.5106 -1.5219
  527SOL     OW 1579   2.256   2.912   0.411  0.3595 -0.5249  0.2706
  527SOL    HW1 1580   2.314   2.911   0.495 -0.1483  3.3895  1.0824
  527SOL    HW2 1581   2.215   2.819   0.391  0.4258 -1.7693  1.0625
  528SOL     OW 1582   1.545   0.876   0.301  0.2342 -0.0350 -0.6170
  528SOL    HW1 1583   1.596   0.953   0.260  2.2271 -0.9865 -2.2632
  528SOL    HW2 1584   1.505   0.818   0.227  1.5696  0.1279 -1.6903
  529SOL     OW 1585   1.359   1.461   2.385 -0.5947  0.3326  0.2469
  529SOL    HW1 1586   1.353   1.492   2.481  0.0324  3.0067  1.9360
  529SOL    HW2 1587   1.271   1.416   2.360  0.9559  2.5696  1.7578
  530SOL     OW 1588   2.364   0.304   0.084 -0.1384 -0.1324  0.3079
  530SOL    HW1 1589   2.289   0.371   0.100  0.4855  1.5237  0.9359
  530SOL    HW2 1590   2.339   0.243   0.006 -1.1939 -1.5947 -2.0127
  531SOL     OW 1591   1.593   0.943   3.009  0.2777  0.2185 -0.1200
  531SOL    HW1 1592   1.684   0.899   3.023 -0.0465 -0.6656 -4.6954
  531SOL    HW2 1593   1.581   0.964   2.908 -1.5014 -1.5995 -1.6075
  532SOL     OW 1594   1.580   0.504   0.746 -0.6429 -0.0586  0.2389
  532SOL    HW1 1595   1.572   0.429   0.678 -2.1147 -1.3892 -1.2974
  532SOL    HW2 1596   1.676   0.511   0.783 -0.2865  1.5096 -1.4263
  533SOL     OW 1597   0.454   0.723   2.726 -0.3940 -0.2484  0.0398
  533SOL    HW1 1598   0.469   0.757   2.632 -0.7377 -0.7996  1.7921
  533SOL    HW2 1599   0.381   0.651   2.732 -0.2487  0.3733  0.9943
  534SOL     OW 1600   1.528   0.328   3.018  0.3910 -0.5141  0.6145
  534SOL    HW1 1601   1.439   0.363   3.057 -0.8941  0.2169  3.3275
  534SOL    HW2 1602   1.594   0.369   3.080  0.9338  1.2106 -0.6352
  535SOL     OW 1603   0.436   2.676   3.001 -0.3471  0.7702 -0.2147
  535SOL    HW1 1604   0.413   2.580   3.033  0.7726  0.3671 -0.0400
  535SOL    HW2 1605   0.380   2.711   2.923  2.0068  0.3022  3.4002
  536SOL     OW 1606   0.667   3.052   0.416  0.1428 -0.5355 -0.6282
  536SOL    HW1 1607   0.712   0.045   0.427  0.2009  0.2642  1.3010
  536SOL    HW2 1608   0.679   2.995   0.504  1.1199 -2.6963  2.5465
  537SOL     OW 1609   1.588   0.542   0.134  0.0670  0.2172 -0.0598
  537SOL    HW1 1610   1.543   0.628   0.101 -2.2933 -0.0200 -2.9772
  537SOL    HW2 1611   1.565   0.520   0.229 -0.6046 -2.1153 -1.0483
  538SOL     OW 1612   2.703   2.017   0.073  0.3755 -0.9825  0.4423
  538SOL    HW1 1613   2.775   1.959   0.037 -1.0623  0.1426  2.9543
  538SOL    HW2 1614   2.710   2.108   0.026  0.0548  0.2966 -0.1171
  539SOL     OW 1615   2.234   1.990   0.056  0.3307  0.1546  0.0003
  539SOL    HW1 1616   2.296   1.956   3.079 -2.0351  0.6871  0.4837
  539SOL    HW2 1617   2.271   1.956   0.146  0.0862 -0.1184 -3.3608
  540SOL     OW 1618   0.895   2.678   1.801 -0.0164 -0.2060 -0.1372
  540SOL    HW1 1619   0.917   2.669   1.902  0.5739  0.5141  1.0425
  540SOL    HW2 1620   0.799   2.684   1.796  1.8535 -0.8896  0.0483
  541SOL     OW 1621   2.562   0.104   2.003  0.1600  0.1729  0.1377
  541SOL    HW1 1622   2.610   0.194   2.016  0.8112 -1.5806  0.0557
  541SOL    HW2 1623   2.474   0.123   1.959  0.9893  0.5748  4.7539
  542SOL     OW 1624   0.143   0.892   2.608 -0.4045 -0.2720  0.2464
  542SOL    HW1 1625   0.222   0.949   2.658  4.6938 -1.9236  2.0794
  542SOL    HW2 1626   0.122   0.812   2.658 -2.5406  1.6877  1.1498
  543SOL     OW 1627   0.289   0.794   1.009  0.0016  0.6434 -0.0507
  543SOL    HW1 1628   0.360   0.722   0.993 -2.1592 -1.2403  0.6358
  543SOL    HW2 1629   0.214   0.765   1.071 -3.4500 -0.8294  1.7282
  544SOL     OW 1630   2.632   0.696   1.329  0.0420  0.0428 -0.1384
  544SOL    HW1 1631   2.710   0.632   1.335 -0.8322 -0.8700 -2.5357
  544SOL    HW2 1632   2.616   0.744   1.419  4.8149  0.7707  1.3749
  545SOL     OW 1633   1.437   2.051   0.459  0.8291  0.2880  1.1262
  545SOL    HW1 1634   1.343   2.067   0.491  1.7350 -0.9194 -0.7205
  545SOL    HW2 1635   1.506   2.058   0.533 -0.7057  3.1558  0.6757
  546SOL     OW 1636   2.293   2.788   1.380 -0.1884 -0.3687 -0.1960
  546SOL    HW1 1637   2.196   2.807   1.393  2.3219  1.8171 -0.6027
  546SOL    HW2 1638   2.303   2.752   1.288  1.6788  0.9638  2.2149
  547SOL     OW 1639   0.499   2.369   2.458 -0.1421  0.0664 -0.1307
  547SOL    HW1 1640   0.491   2.265   2.472  2.3515  0.5692  1.1023
  547SOL    HW2 1641   0.562   2.419   2.525  2.1020  0.7143  1.9845
  548SOL     OW 1642   1.328   0.561   2.862  0.7858 -1.0179 -0.0388
  548SOL    HW1 1643   1.363   0.541   2.955  0.4581 -1.4455 -2.1750
  548SOL    HW2 1644   1.236   0.520   2.849 -0.5919  0.5446 -1.7984
  549SOL     OW 1645   2.778   0.937   0.191  0.2065 -0.4495 -0.2611
  549SOL    HW1 1646   2.766   0.838   0.198  1.0369  0.2390  2.1727
  549SOL    HW2 1647   2.743   0.979   0.278  0.1841  0.1091  2.0040
  550SOL     OW 1648   2.176   1.533   0.678  0.1932  0.1639  0.2350
  550SOL    HW1 1649   2.243   1.594   0.627 -0.3798 -3.2303  1.0903
  550SOL    HW2 1650   2.158   1.447   0.626  1.8750  1.1125 -1.0995
  551SOL     OW 1651   1.238   0.118   0.925  0.2035 -0.2779  0.1933
  551SOL    HW1 1652   1.328   0.127   0.974  4.3691 -0.6227  1.3979
  551SOL    HW2 1653   1.244   0.150   0.829  0.0799  0.4754 -0.3869
  552SOL     OW 1654   2.523   2.814   2.100  0.1603  0.1499  0.3857
  552SOL    HW1 1655   2.419   2.815   2.097 -0.9998 -0.8244  1.1535
  552SOL    HW2 1656   2.567   2.882   2.165  0.1924  3.3414  0.7132
  553SOL     OW 1657   0.434   2.823   2.316 -0.1583 -0.0756 -0.9164
  553SOL    HW1 1658   0.457   2.771   2.236  1.0448  1.7873  0.9955
  553SOL    HW2 1659   0.470   2.778   2.398 -0.6110 -0.8610  0.6020
  554SOL     OW 1660   0.507   3.049   1.169  0.0623  0.4434 -0.0506
  554SOL    HW1 1661   0.517   3.088   1.265  1.8639 -0.5919  3.5620
  554SOL    HW2 1662   0.596   3.035   1.122 -2.7336 -0.5291  0.1717
  555SOL     OW 1663   2.599   2.046   2.296  0.0447 -0.1736 -0.8291
  555SOL    HW1 1664   2.537   2.028   2.217  2.0625  3.7596 -1.3794
  555SOL    HW2 1665   2.560   2.125   2.347 -2.3414  1.4621  0.5019
  556SOL     OW 1666   0.985   0.362   3.077  0.3617 -0.2254 -0.0720
  556SOL    HW1 1667   0.909   0.409   0.037 -1.1052  0.6782 -0.0645
  556SOL    HW2 1668   1.001   0.420   2.992  1.4793  0.1400 -0.2368
  557SOL     OW 1669   0.264   1.818   2.339  0.3163 -0.4375 -0.7674
  557SOL    HW1 1670   0.184   1.875   2.326  2.1200 -0.2916  1.0649
  557SOL    HW2 1671   0.331   1.831   2.264 -0.5034 -0.7818  0.8814
  558SOL     OW 1672   2.244   0.694   2.847 -0.0423  0.2674 -0.2326
  558SOL    HW1 1673   2.250   0.772   2.783  0.7818  2.0951 -1.0977
  558SOL    HW2 1674   2.332   0.646   2.845  1.8623  3.2431 -1.1073
  559SOL     OW 1675   2.405   1.697   1.807  0.0268 -0.0467 -0.1612
  559SOL    HW1 1676   2.455   1.784   1.782  1.8217 -1.7174 -0.9676
  559SOL    HW2 1677   2.313   1.717   1.822  3.2602 -3.4419 -2.9784
  560SOL     OW 1678   2.096   0.830   1.887 -0.6226 -0.0914 -0.1620
  560SOL    HW1 1679   2.176   0.771   1.916  2.6122  1.5287  0.5720
  560SOL    HW2 1680   2.127   0.911   1.837 -1.3682  0.0752  1.9036
  561SOL     OW 1681   0.155   3.019   2.706 -0.4635  0.5222  0.3669
  561SOL    HW1 1682   0.070   3.042   2.653 -0.1717  0.8550 -0.4633
  561SOL    HW2 1683   0.128   3.007   2.803 -0.8149  0.3721 -0.7641
  562SOL     OW 1684   1.178   1.359   1.362  0.3281  0.1961  0.4436
  562SOL    HW1 1685   1.235   1.442   1.339 -0.9010  0.8645  0.9602
  562SOL    HW2 1686   1.080   1.376   1.359  1.3931 -4.0021  2.3860
  563SOL     OW 1687   1.040   0.131   2.939  0.1149 -0.0061 -0.0119
  563SOL    HW1 1688   1.091   0.059   2.995  1.6881 -1.3368  1.2257
  563SOL    HW2 1689   0.998   0.208   2.990 -0.0138  1.7721 -0.8688
  564SOL     OW 1690   2.955   2.047   0.775  0.2613  0.0078 -0.0248
  564SOL    HW1 1691   3.043   2.094   0.795  0.1041  1.2464  0.7823
  564SOL    HW2 1692   2.875   2.108   0.785  1.6481  0.1997 -0.1662
  565SOL     OW 1693   0.508   1.907   1.232  0.6794  0.1579 -0.6173
  565SOL    HW1 1694   0.429   1.883   1.295 -0.2733  1.2767  1.1232
  565SOL    HW2 1695   0.536   2.006   1.235  1.1525  1.1913  0.0941
  566SOL     OW 1696   1.401   2.603   2.255 -0.5914  0.0103  0.4674
  566SOL    HW1 1697   1.334   2.651   2.197 -2.9296 -0.1994 -1.0992
  566SOL    HW2 1698   1.381   2.591   2.353  0.1600 -1.0052 -3.1721
  567SOL     OW 1699   2.389   2.875   0.657 -0.4752  0.0920 -0.2110
  567SOL    HW1 1700   2.357   2.916   0.748 -0.4973  0.2250  1.2356
  567SOL    HW2 1701   2.488   2.850   0.660  1.3502 -1.1749 -1.3813
  568SOL     OW 1702   1.662   1.175   0.754  0.6373  0.2795  0.1879
  568SOL    HW1 1703   1.576   1.168   0.804  1.0241  2.7079 -2.5441
  568SOL    HW2 1704   1.650   1.199   0.656  1.3609  1.8010  0.6637
  569SOL     OW 1705   3.045   1.522   2.753  0.3502 -0.2982  0.0325
  569SOL    HW1 1706   3.004   1.570   2.834 -0.3193  0.9296  2.0242
  569SOL    HW2 1707   2.982   1.450   2.714  0.2185  2.2904 -0.4155
  570SOL     OW 1708   3.001   0.132   1.497 -0.0265 -0.4428 -0.3134
  570SOL    HW1 1709   3.062   0.104   1.422 -3.5377 -1.1308 -0.3524
  570SOL    HW2 1710   2.908   0.150   1.467 -1.3699 -0.4548  1.2804
  571SOL     OW 1711   0.355   0.203   1.765  0.0334 -0.2272 -0.5429
  571SOL    HW1 1712   0.435   0.145   1.793  0.9882  0.9448 -0.7983
  571SOL    HW2 1713   0.384   0.302   1.743 -0.4248  0.6404 -0.0764
  572SOL     OW 1714   3.028   2.574   1.396 -0.0810  0.6197  0.4228
  572SOL    HW1 1715   0.030   2.576   1.374 -0.3413  2.2907  0.5938
  572SOL    HW2 1716   3.016   2.578   1.497  0.1561 -3.0038  0.0768
  573SOL     OW 1717   0.824   0.681   3.077 -0.5390 -0.2566 -0.2884
  573SOL    HW1 1718   0.791   0.675   2.980  1.5500 -0.3585 -1.0329
  573SOL    HW2 1719   0.756   0.632   0.036  1.7035  1.8167 -0.4007
  574SOL     OW 1720   2.297   3.023   3.072  0.1805  0.0340 -0.2852
  574SOL    HW1 1721   2.261   0.020   3.054  0.1130 -0.5318  0.1906
  574SOL    HW2 1722   2.398   3.035   3.063 -0.5033  1.1737 -0.8226
  575SOL     OW 1723   1.478   2.582   1.269  0.4577  0.4882 -0.1839
  575SOL    HW1 1724   1.403   2.558   1.328  2.0760  0.5436 -3.1865
  575SOL    HW2 1725   1.501   2.500   1.210 -0.8145 -0.1951  0.5041
  576SOL     OW 1726   1.039   3.091   1.063  0.3200  0.3863  0.3610
  576SOL    HW1 1727   1.083   0.065   1.004  1.2831  1.2733  1.4922
  576SOL    HW2 1728   0.971   0.041   1.124  0.8603 -1.8771  2.0038
  577SOL     OW 1729   2.369   1.341   0.971 -0.1096 -0.0833 -0.0739
  577SOL    HW1 1730   2.378   1.417   0.904  0.9416 -1.9504 -1.3135
  577SOL    HW2 1731   2.276   1.293   0.955 -1.3938  1.2278  0.0522
  578SOL     OW 1732   1.593   0.513   0.401  0.0882  0.6169  0.1634
  578SOL    HW1 1733   1.629   0.440   0.471 -0.1956 -1.0724  0.7700
  578SOL    HW2 1734   1.661   0.587   0.390 -0.6922 -1.6370  0.8153
  579SOL     OW 1735   1.974   0.646   2.832 -0.1378 -0.3547 -0.4142
  579SOL    HW1 1736   2.072   0.665   2.821  0.5981  2.2389 -1.0690
  579SOL    HW2 1737   1.951   0.554   2.808  3.0352  1.3606  0.5594
  580SOL     OW 1738   1.793   0.769   2.215 -0.8360  0.0638 -0.0696
  580SOL    HW1 1739   1.803   0.678   2.264 -4.0793 -0.4402 -0.2032
  580SOL    HW2 1740   1.721   0.829   2.257  0.3587  0.3434 -0.9449
  581SOL     OW 1741   0.379   0.552   0.909  0.0003  0.4329  0.4327
  581SOL    HW1 1742   0.464   0.521   0.955  0.6625 -1.5867 -0.2352
  581SOL    HW2 1743   0.390   0.518   0.812  1.3726 -0.5110  1.4911
  582SOL     OW 1744   2.970   0.177   1.780  0.5980  0.3718 -0.0753
  582SOL    HW1 1745   2.981   0.133   1.686 -1.2016  0.3660 -1.1643
  582SOL    HW2 1746   2.880   0.228   1.787 -0.1691  2.7582 -2.1650
  583SOL     OW 1747   0.537   0.642   2.202 -0.3049 -0.0166  0.4701
  583SOL    HW1 1748   0.526   0.671   2.301  1.6495  0.5118  2.1311
  583SOL    HW2 1749   0.616   0.574   2.190  2.7606  0.0995  1.3875
  584SOL     OW 1750   1.579   2.023   2.876 -0.1213 -0.1360 -0.1124
  584SOL    HW1 1751   1.600   2.029   2.776 -1.6952 -1.4015  1.4556
  584SOL    HW2 1752   1.562   2.116   2.920  0.5659  2.1205 -0.3386
  585SOL     OW 1753   0.410   2.406   3.088 -0.3154 -0.0711 -0.2679
  585SOL    HW1 1754   0.310   2.380   0.004  2.1332  1.4418 -3.6596
  585SOL    HW2 1755   0.462   2.422   0.077 -1.8224  2.3401 -1.5286
  586SOL     OW 1756   1.925   2.114   2.702 -0.3076  0.2277 -0.0466
  586SOL    HW1 1757   1.989   2.161   2.766 -0.1783  1.8961 -0.9055
  586SOL    HW2 1758   1.968   2.057   2.633 -2.9041  1.0288 -0.0950
  587SOL     OW 1759   2.410   2.108   2.881 -0.4495 -0.5561 -0.0186
  587SOL    HW1 1760   2.335   2.172   2.855 -0.3943 -1.2764 -0.0332
  587SOL    HW2 1761   2.385   2.011   2.905  1.4660  0.8404  0.1951
  588SOL     OW 1762   2.952   0.664   0.934 -0.3061 -0.2790  0.5078
  588SOL    HW1 1763   2.901   0.609   0.865 -0.6036  2.2273 -1.8256
  588SOL    HW2 1764   3.050   0.632   0.933 -1.8466  1.7447  0.8829
  589SOL     OW 1765   0.975   0.521   0.388 -0.4429 -0.3147  0.3285
  589SOL    HW1 1766   0.891   0.578   0.380 -0.5144  2.9035 -0.2368
  589SOL    HW2 1767   1.039   0.556   0.460 -2.2961 -1.2988 -1.2657
  590SOL     OW 1768   2.027   2.228   0.559  0.1618 -0.3984  0.1571
  590SOL    HW1 1769   1.986   2.226   0.465 -1.7175  2.4976  0.2018
  590SOL    HW2 1770   1.968   2.178   0.622  0.2793 -1.5972 -1.5426
  591SOL     OW 1771   0.351   2.392   1.103  0.5274 -0.1033  0.1174
  591SOL    HW1 1772   0.250   2.381   1.085 -2.1454 -1.4311  0.2246
  591SOL    HW2 1773   0.407   2.415   1.024 -0.4007 -1.2701 -2.5736
  592SOL     OW 1774   1.380   0.708   1.272  0.1460 -0.2314  0.0183
  592SOL    HW1 1775   1.301   0.707   1.207 -2.1538 -1.4163  2.2538
  592SOL    HW2 1776   1.365   0.738   1.365 -0.2362 -0.3486 -2.1244
  593SOL     OW 1777   0.907   1.914   1.225  0.3023 -0.1817 -0.0147
  593SOL    HW1 1778   0.955   1.841   1.275  1.2433 -1.7415  0.7279
  593SOL    HW2 1779   0.902   1.916   1.127 -0.0438  3.7774  4.3431
  594SOL     OW 1780   1.093   1.997   0.259 -0.7313 -0.7177 -0.3064
  594SOL    HW1 1781   1.171   1.935   0.230 -0.0918  2.3753  2.2406
  594SOL    HW2 1782   1.003   1.962   0.227  5.3364  0.8217 -0.0900
  595SOL     OW 1783   1.705   0.593   1.500  0.6781  0.4104  0.1548
  595SOL    HW1 1784   1.778   0.559   1.435  0.4343  0.2698  0.4391
  595SOL    HW2 1785   1.712   0.541   1.588  1.5342 -2.0903  0.8514
  596SOL     OW 1786   2.836   0.781   1.745 -0.6865 -0.0990  0.4310
  596SOL    HW1 1787   2.902   0.806   1.820 -2.2992  0.7676 -1.0914
  596SOL    HW2 1788   2.893   0.769   1.660  2.6059 -3.1237 -0.3966
  597SOL     OW 1789   0.919   2.660   2.077  0.6870 -0.0527 -0.3605
  597SOL    HW1 1790   0.896   2.560   2.099 -3.1234  2.3630  0.2284
  597SOL    HW2 1791   0.995   2.692   2.130 -1.7726 -0.9705  0.4962
  598SOL     OW 1792   2.449   1.441   1.758  0.3892  0.2165 -0.0910
  598SOL    HW1 1793   2.447   1.544   1.768 -0.6743  0.9108 -2.2906
  598SOL    HW2 1794   2.543   1.403   1.741 -1.9177  2.7062 -0.7348
  599SOL     OW 1795   0.775   2.806   0.190 -0.1801  0.0394  0.1288
  599SOL    HW1 1796   0.678   2.788   0.208  2.1069 -0.6107  2.8892
  599SOL    HW2 1797   0.796   2.866   0.111  0.9057  1.3415  0.6065
  600SOL     OW 1798   3.004   2.121   3.078  0.1582 -0.1996 -0.3164
  600SOL    HW1 1799   2.971   2.027   3.050 -0.4439 -1.1345 -1.7556
  600SOL    HW2 1800   2.962   2.179   3.009  0.3322 -0.7032 -1.0738
  601SOL     OW 1801   0.477   0.706   1.250  0.8077 -0.1272 -0.1406
  601SOL    HW1 1802   0.389   0.694   1.202  1.0533  1.4419  2.1412
  601SOL    HW2 1803   0.477   0.663   1.344  2.2408  1.3325 -0.7929
  602SOL     OW 1804   0.532   0.232   0.732  0.1953  0.5688 -0.0994
  602SOL    HW1 1805   0.591   0.227   0.816 -0.0606 -0.0316 -0.3621
  602SOL    HW2 1806   0.484   0.320   0.715 -2.0716 -1.5675 -0.7844
  603SOL     OW 1807   0.431   0.409   2.702  0.0797  0.3073 -0.2852
  603SOL    HW1 1808   0.336   0.379   2.727 -3.7872  2.4210  1.6137
  603SOL    HW2 1809   0.497   0.374   2.773 -0.4290 -0.6103  1.3258
  604SOL     OW 1810   0.869   2.668   1.517 -0.1961  0.0785  0.1640
  604SOL    HW1 1811   0.904   2.677   1.607  1.6417 -0.3128 -0.6187
  604SOL    HW2 1812   0.799   2.594   1.504 -2.3059 -3.2998 -0.8736
  605SOL     OW 1813   1.399   1.137   2.207 -0.0512  0.4573  0.5934
  605SOL    HW1 1814   1.307   1.160   2.249 -1.8070 -2.1795  0.7193
  605SOL    HW2 1815   1.405   1.182   2.117  2.2449 -1.5380  1.4250
  606SOL     OW 1816   2.117   2.800   2.838  0.5075  0.2318 -0.0416
  606SOL    HW1 1817   2.068   2.891   2.836 -1.5019 -0.4558 -1.1264
  606SOL    HW2 1818   2.216   2.809   2.812 -2.3095  0.0771  0.8668
  607SOL     OW 1819   0.996   0.201   1.591  0.4095  0.3076 -0.0825
  607SOL    HW1 1820   1.046   0.254   1.665  0.5922 -0.3579  0.5213
  607SOL    HW2 1821   1.058   0.140   1.543 -0.9492  1.6736 -0.9604
  608SOL     OW 1822   0.151   1.938   2.616 -0.6164  0.2800  0.3555
  608SOL    HW1 1823   0.215   2.004   2.569  2.0528  1.7371  0.0667
  608SOL    HW2 1824   0.191   1.903   2.701 -3.2959  0.4685 -3.6116
  609SOL     OW 1825   1.035   1.208   0.382  1.2257 -0.4216  0.3734
  609SOL    HW1 1826   0.943   1.252   0.374  0.3147 -1.9937  1.6529
  609SOL    HW2 1827   1.035   1.106   0.369  3.7536 -2.6398 -0.2282
  610SOL     OW 1828   0.198   0.259   0.937  0.1045 -0.2543  0.4029
  610SOL    HW1 1829   0.257   0.179   0.925 -0.2743  3.1847  3.6135
  610SOL    HW2 1830   0.222   0.308   1.023  0.0622 -0.0025  1.6660
  611SOL     OW 1831   1.263   1.115   0.739  0.3158  0.5398 -0.4124
  611SOL    HW1 1832   1.166   1.137   0.731 -0.9652 -1.9784 -2.7074
  611SOL    HW2 1833   1.314   1.107   0.651  0.2091 -0.5543  0.8051
  612SOL     OW 1834   2.057   1.603   0.087  0.1564 -0.2147 -0.1364
  612SOL    HW1 1835   2.001   1.646   0.167 -2.5647 -0.3193  0.5060
  612SOL    HW2 1836   2.044   1.502   0.088  1.6352 -1.9884  1.3769
  613SOL     OW 1837   1.773   1.280   0.112  0.5758  0.2782 -0.2841
  613SOL    HW1 1838   1.735   1.323   0.026 -2.2662 -2.5990  0.9893
  613SOL    HW2 1839   1.726   1.193   0.132  1.0332 -1.8866 -2.7854
  614SOL     OW 1840   2.820   0.279   2.495  0.6397  0.5739 -0.2327
  614SOL    HW1 1841   2.802   0.329   2.404  0.9531  0.7538 -0.5125
  614SOL    HW2 1842   2.901   0.225   2.493 -0.8412  2.5866 -2.1593
  615SOL     OW 1843   0.831   1.751   0.584 -0.2729  0.2414 -0.1649
  615SOL    HW1 1844   0.925   1.762   0.620 -1.1612 -1.0276 -0.6263
  615SOL    HW2 1845   0.784   1.842   0.586  0.4375 -0.4478 -0.6874
  616SOL     OW 1846   1.585   0.941   2.726 -0.3766  0.0177  0.7727
  616SOL    HW1 1847   1.563   1.017   2.656 -2.2468  0.1503  0.2528
  616SOL    HW2 1848   1.522   0.859   2.712  0.5340 -0.2587 -0.1007
  617SOL     OW 1849   1.292   0.279   0.253  0.2324  0.0735 -0.3068
  617SOL    HW1 1850   1.307   0.321   0.344 -0.1726 -0.4424 -0.8955
  617SOL    HW2 1851   1.207   0.226   0.244 -0.6129  3.2428  0.1514
  618SOL     OW 1852   2.644   1.801   2.390 -0.1559  0.0240 -1.0443
  618SOL    HW1 1853   2.590   1.879   2.356  1.4011 -0.8091  0.1742
  618SOL    HW2 1854   2.692   1.836   2.476  2.2304  2.5327 -0.0820
  619SOL     OW 1855   2.222   1.878   0.910  0.1939  0.1064  0.1405
  619SOL    HW1 1856   2.247   1.951   0.978 -1.5002 -1.9577 -0.3965
  619SOL    HW2 1857   2.292   1.877   0.838  0.9469 -1.0048  0.4094
  620SOL     OW 1858   2.352   3.064   1.449 -0.4110  0.2646 -0.2817
  620SOL    HW1 1859   2.337   2.966   1.423  0.2115  0.7500 -0.3544
  620SOL    HW2 1860   2.432   3.078   1.508 -2.8885 -1.4571 -1.2403
  621SOL     OW 1861   2.876   1.769   0.703 -0.4599 -0.2574  0.0019
  621SOL    HW1 1862   2.926   1.693   0.650 -0.5923  1.6105 -0.5244
  621SOL    HW2 1863   2.930   1.853   0.714 -1.1996  1.3981 -1.9070
  622SOL     OW 1864   0.655   1.670   2.300  0.3625 -0.1151 -0.4141
  622SOL    HW1 1865   0.608   1.701   2.387  1.8445  0.6703  2.2543
  622SOL    HW2 1866   0.661   1.565   2.300 -0.2969 -1.3607  2.1904
  623SOL     OW 1867   2.887   2.833   2.790 -0.4109  0.1873 -0.0034
  623SOL    HW1 1868   2.972   2.781   2.759  0.0227 -1.6207  1.8780
  623SOL    HW2 1869   2.834   2.766   2.852 -1.4550  0.1326  3.0323
  624SOL     OW 1870   0.856   1.898   0.200 -0.0128 -0.0501  0.0471
  624SOL    HW1 1871   0.873   1.799   0.218 -1.0548  0.5206  1.9411
  624SOL    HW2 1872   0.759   1.925   0.218  0.8815  2.6616 -0.0563
  625SOL     OW 1873   0.500   2.012   2.272 -0.1382  0.2895 -0.6791
  625SOL    HW1 1874   0.592   1.967   2.250  0.9612 -0.7762 -1.3804
  625SOL    HW2 1875   0.462   2.057   2.190  0.3898 -0.0035  0.8237
  626SOL     OW 1876   0.282   2.481   0.271  0.1644  0.4010 -0.9107
  626SOL    HW1 1877   0.268   2.384   0.292 -0.4176 -0.5936  0.3497
  626SOL    HW2 1878   0.339   2.527   0.348  2.2439 -2.6935  0.1163
  627SOL     OW 1879   1.035   1.333   2.804 -0.1174 -0.3207 -0.2665
  627SOL    HW1 1880   1.032   1.432   2.801  2.0467 -3.8578 -0.1291
  627SOL    HW2 1881   1.104   1.297   2.739  1.5245  0.6171  0.7473
  628SOL     OW 1882   1.578   2.152   0.680 -0.5248 -0.2814  0.8797
  628SOL    HW1 1883   1.516   2.119   0.754  0.6806  1.6482 -0.9254
  628SOL    HW2 1884   1.675   2.144   0.707 -0.3527  0.4454 -1.5227
  629SOL     OW 1885   0.731   0.185   1.679 -0.3565 -0.9207 -0.4029
  629SOL    HW1 1886   0.699   0.091   1.667  0.2501  2.0343 -1.7099
  629SOL    HW2 1887   0.829   0.194   1.653  0.2950  1.4196  0.7120
  630SOL     OW 1888   2.528   0.373   1.634  0.2417 -0.5432 -0.3238
  630SOL    HW1 1889   2.451   0.307   1.618  0.7833 -0.5752 -1.0136
  630SOL    HW2 1890   2.495   0.465   1.662  1.5443  0.9348 -2.5023
  631SOL     OW 1891   1.525   0.388   1.021  0.2175  0.3479 -0.0201
  631SOL    HW1 1892   1.554   0.397   0.921 -1.0360  0.1316 -2.9270
  631SOL    HW2 1893   1.588   0.438   1.083 -0.7701  3.3820 -1.3577
  632SOL     OW 1894   2.625   0.759   1.920 -0.1160 -0.3579  0.4122
  632SOL    HW1 1895   2.657   0.720   2.010 -1.0372 -2.0575  4.3095
  632SOL    HW2 1896   2.694   0.757   1.849 -0.9103 -2.9389  1.9790
  633SOL     OW 1897   1.250   1.033   2.807 -0.4073  0.4400 -0.1609
  633SOL    HW1 1898   1.291   1.054   2.893 -1.3544 -0.9466 -1.5931
  633SOL    HW2 1899   1.274   1.101   2.733  0.4459  1.1777  0.9029
  634SOL     OW 1900   0.584   2.429   0.211 -0.2923 -0.0581  0.3625
  634SOL    HW1 1901   0.611   2.454   0.303 -1.2284  0.4625 -2.4988
  634SOL    HW2 1902   0.641   2.348   0.181  1.4741 -0.9303  1.4442
  635SOL     OW 1903   2.815   1.498   1.899 -0.1674 -0.3378  0.4754
  635SOL    HW1 1904   2.776   1.588   1.872  0.4962  0.2678 -0.1706
  635SOL    HW2 1905   2.825   1.497   1.999  0.8677  2.2446 -0.6961
  636SOL     OW 1906   0.042   1.718   3.041 -0.1964  0.5533  0.2844
  636SOL    HW1 1907   0.014   1.620   3.056 -2.8378 -2.6585  2.1611
  636SOL    HW2 1908   0.104   1.746   0.025 -0.4520  2.6132 -1.2217
  637SOL     OW 1909   3.072   2.303   0.422 -0.1597  0.3011 -0.5523
  637SOL    HW1 1910   3.035   2.231   0.356  0.7794  1.4683  1.5417
  637SOL    HW2 1911   3.022   2.390   0.414  1.4791 -1.4674 -1.7234
  638SOL     OW 1912   2.561   2.703   0.210  0.3494 -0.0640  0.0918
  638SOL    HW1 1913   2.543   2.678   0.307  2.1881 -1.2287  0.8570
  638SOL    HW2 1914   2.476   2.700   0.155 -0.3688  1.3126  0.4334
  639SOL     OW 1915   1.149   0.722   0.114  0.0135  0.0883  0.4363
  639SOL    HW1 1916   1.197   0.632   0.122 -1.5865  0.6854  2.2602
  639SOL    HW2 1917   1.054   0.707   0.079 -1.6480  3.0367 -3.8922
  640SOL     OW 1918   2.435   2.076   1.590  0.1722  0.0804  0.2244
  640SOL    HW1 1919   2.446   2.026   1.682 -0.4983  0.4039 -0.3895
  640SOL    HW2 1920   2.456   2.176   1.590  0.3070  0.2780 -1.1310
  641SOL     OW 1921   2.947   3.014   1.267  0.7247  0.4912 -0.7906
  641SOL    HW1 1922   2.942   2.914   1.244 -0.1826 -1.1459  2.2389
  641SOL    HW2 1923   3.020   3.061   1.224 -2.5633 -1.1140 -0.2042
  642SOL     OW 1924   1.534   0.829   1.572 -0.0040 -0.1852  0.5545
  642SOL    HW1 1925   1.587   0.751   1.530  2.6957 -2.4218  3.0215
  642SOL    HW2 1926   1.563   0.919   1.531  0.2811 -0.2008 -1.3157
  643SOL     OW 1927   0.899   1.915   1.988  0.7664 -0.1499  0.1006
  643SOL    HW1 1928   0.965   1.990   2.000  1.4015 -0.4680 -0.1067
  643SOL    HW2 1929   0.906   1.873   1.893  4.4581 -1.8975 -1.7724
  644SOL     OW 1930   1.850   0.124   1.902  0.4516 -0.5461 -0.0748
  644SOL    HW1 1931   1.846   0.060   1.982 -0.0400 -2.1894 -1.9032
  644SOL    HW2 1932   1.789   0.201   1.921 -0.2903 -0.3777  0.1861
  645SOL     OW 1933   1.658   1.297   1.673 -0.1369 -0.6084 -0.1500
  645SOL    HW1 1934   1.562   1.267   1.688 -0.7919 -0.7152 -2.2133
  645SOL    HW2 1935   1.710   1.228   1.621  0.1761  1.3487 -2.4182
  646SOL     OW 1936   1.360   2.407   0.214  0.3028 -0.8282  0.2001
  646SOL    HW1 1937   1.320   2.394   0.122 -0.1715 -1.3327  1.0312
  646SOL    HW2 1938   1.294   2.400   0.292  1.8655  0.2111 -0.0763
  647SOL     OW 1939   1.465   2.339   1.076  0.2360 -0.7746  0.5463
  647SOL    HW1 1940   1.498   2.348   0.982 -0.1688  0.5467  2.9659
  647SOL    HW2 1941   1.541   2.316   1.144  4.3642  1.3129  1.8087
  648SOL     OW 1942   2.962   2.301   1.433 -0.1179 -0.3109  0.4191
  648SOL    HW1 1943   3.023   2.269   1.508  3.2981  0.1800 -1.3322
  648SOL    HW2 1944   2.987   2.398   1.405  1.6429  1.3143  0.3271
  649SOL     OW 1945   1.096   2.424   2.642 -0.5715  0.3483 -0.0393
  649SOL    HW1 1946   1.155   2.348   2.617 -1.3172  1.3214 -0.5439
  649SOL    HW2 1947   1.000   2.399   2.654  1.4532 -0.0123  2.9063
  650SOL     OW 1948   2.903   1.863   3.061  0.3840  0.7949 -0.2825
  650SOL    HW1 1949   2.840   1.792   0.006 -2.6980  1.3995 -0.3215
  650SOL    HW2 1950   2.998   1.828   3.055  1.2600  2.6122  0.8806
  651SOL     OW 1951   2.467   2.307   2.111  0.1277 -0.1364 -0.4646
  651SOL    HW1 1952   2.371   2.279   2.100 -0.0635  0.7784 -1.2086
  651SOL    HW2 1953   2.502   2.316   2.019 -1.3044  1.6946 -2.2672
  652SOL     OW 1954   2.244   2.664   0.713  0.1556  0.4251  0.4984
  652SOL    HW1 1955   2.295   2.747   0.674  0.9029  3.1765 -5.5132
  652SOL    HW2 1956   2.143   2.666   0.682 -1.1600 -2.5760 -2.0616
  653SOL     OW 1957   0.043   1.187   1.526 -0.4161  0.2314 -0.1926
  653SOL    HW1 1958   3.080   1.108   1.554  3.2505 -1.4851  1.8556
  653SOL    HW2 1959   3.087   1.254   1.469 -1.9250 -0.1184  1.4157
  654SOL     OW 1960   1.036   0.495   2.844  0.1827  0.4619 -0.0096
  654SOL    HW1 1961   1.030   0.413   2.785  1.7032 -0.0695  1.2463
  654SOL    HW2 1962   1.004   0.576   2.789 -0.4703  0.9403  1.1363
  655SOL     OW 1963   1.137   0.896   1.080  0.1274 -0.3918 -0.1199
  655SOL    HW1 1964   1.187   0.975   1.126  0.1529  1.4386  0.6628
  655SOL    HW2 1965   1.201   0.842   1.018 -2.8599  0.6932 -0.4942
  656SOL     OW 1966   1.272   2.515   2.000 -0.5030 -0.0494 -0.0067
  656SOL    HW1 1967   1.241   2.466   2.082  1.1867 -1.2925 -1.3540
  656SOL    HW2 1968   1.241   2.612   1.992 -1.2705  0.0148  1.0752
  657SOL     OW 1969   2.047   1.329   0.105  0.0571  0.0601 -0.3913
  657SOL    HW1 1970   2.088   1.273   0.028  1.5336 -0.3120  2.7946
  657SOL    HW2 1971   1.946   1.307   0.113 -3.2635  1.3439  0.8159
  658SOL     OW 1972   1.511   2.253   1.661  0.4808  0.2728 -0.1417
  658SOL    HW1 1973   1.568   2.336   1.648 -0.7374  2.9019  1.7559
  658SOL    HW2 1974   1.445   2.271   1.736 -0.5272  3.0176  0.7430
  659SOL     OW 1975   2.815   1.632   0.072 -0.3701  0.1113  0.0364
  659SOL    HW1 1976   2.759   1.608   0.154 -0.9996 -2.2024  0.0466
  659SOL    HW2 1977   2.898   1.567   0.068 -1.6200 -0.4035 -0.6729
  660SOL     OW 1978   0.929   0.135   0.797 -0.3742  0.3699 -0.2700
  660SOL    HW1 1979   0.960   0.058   0.741  1.4183  1.7297 -0.7368
  660SOL    HW2 1980   0.954   0.224   0.758  1.0127 -2.2531 -0.8400
  661SOL     OW 1981   1.894   0.461   0.206 -0.4432 -0.1504  0.3048
  661SOL    HW1 1982   1.838   0.545   0.206  0.4406 -1.8342  0.7726
  661SOL    HW2 1983   1.869   0.385   0.141  0.2827  1.8651 -0.2462
  662SOL     OW 1984   0.402   0.465   0.654 -0.2300 -0.2613 -0.7053
  662SOL    HW1 1985   0.330   0.463   0.575 -3.2173  1.4782 -3.4035
  662SOL    HW2 1986   0.497   0.489   0.616  0.2690 -0.1175  0.5218
  663SOL     OW 1987   1.604   2.771   2.176 -0.2734 -0.0499  0.0304
  663SOL    HW1 1988   1.560   2.863   2.181 -2.3673  0.5567  1.3849
  663SOL    HW2 1989   1.536   2.708   2.219 -0.3965 -0.6947 -1.2758
  664SOL     OW 1990   0.551   2.486   1.666 -0.1363 -0.0534 -0.5476
  664SOL    HW1 1991   0.454   2.451   1.653 -1.9014 -2.1678  0.3755
  664SOL    HW2 1992   0.611   2.461   1.588 -3.9009  1.3232 -0.5208
  665SOL     OW 1993   1.296   2.289   1.492 -0.4056 -0.3223 -0.1311
  665SOL    HW1 1994   1.287   2.390   1.489  1.1500  1.4227  2.3504
  665SOL    HW2 1995   1.374   2.267   1.555  0.3842  3.7897  0.0188
  666SOL     OW 1996   0.952   2.967   2.532  0.0528  0.4283 -0.3809
  666SOL    HW1 1997   0.953   2.970   2.636 -1.1329 -0.9046  2.7928
  666SOL    HW2 1998   0.928   2.873   2.502  0.0442  0.5552  0.6520
  667SOL     OW 1999   2.612   0.831   1.566  0.1290 -0.0553  0.8239
  667SOL    HW1 2000   2.560   0.912   1.589 -0.2079 -0.8406 -0.8238
  667SOL    HW2 2001   2.701   0.829   1.607  0.1249 -2.0733 -2.0133
  668SOL     OW 2002   1.389   0.200   1.347 -0.6226 -0.2298  0.4424
  668SOL    HW1 2003   1.468   0.164   1.402 -0.4072 -0.5105  2.4516
  668SOL    HW2 2004   1.358   0.288   1.393  1.6461  0.4371  0.1536
  669SOL     OW 2005   2.573   2.568   1.093  0.1717  0.5918 -0.1114
  669SOL    HW1 2006   2.561   2.481   1.139 -2.0409 -0.3196  0.9959
  669SOL    HW2 2007   2.579   2.557   0.991 -0.0043 -2.4036 -0.6121
  670SOL     OW 2008   1.366   2.228   2.849  0.4214  0.0455 -0.0480
  670SOL    HW1 2009   1.460   2.243   2.880  0.0910  0.3613  0.1616
  670SOL    HW2 2010   1.349   2.240   2.749 -1.1374  1.6934  0.1511
  671SOL     OW 2011   0.532   1.191   0.502  0.1541  0.0834 -0.2913
  671SOL    HW1 2012   0.483   1.117   0.452  1.3560  0.3806  1.0773
  671SOL    HW2 2013   0.472   1.243   0.569 -1.2911  1.0389  1.0914
  672SOL     OW 2014   2.734   1.189   0.089  0.2774  0.1454  0.3507
  672SOL    HW1 2015   2.753   1.106   0.140  2.1525  0.2267 -2.5964
  672SOL    HW2 2016   2.695   1.258   0.154 -2.4482  0.4848 -2.5838
  673SOL     OW 2017   0.035   1.732   1.775  0.0766  0.3377 -0.4349
  673SOL    HW1 2018   0.027   1.636   1.758  3.5823  0.1092  1.6875
  673SOL    HW2 2019   0.134   1.765   1.777  1.7113  1.4173 -1.2979
  674SOL     OW 2020   1.109   2.103   1.629  0.3597 -0.2213  0.3341
  674SOL    HW1 2021   1.026   2.058   1.581 -1.9043 -1.3661 -2.4024
  674SOL    HW2 2022   1.162   2.150   1.557 -1.4866 -2.1191  1.2728
  675SOL     OW 2023   1.214   1.120   1.237  0.1304 -0.1558  0.0462
  675SOL    HW1 2024   1.239   1.176   1.318 -1.1423  0.8732  1.0879
  675SOL    HW2 2025   1.126   1.141   1.191 -0.3643  0.3914  0.7844
  676SOL     OW 2026   2.086   0.480   0.922  0.0255  0.0136 -0.1451
  676SOL    HW1 2027   2.044   0.549   0.985  1.4863 -0.0124  0.7100
  676SOL    HW2 2028   2.109   0.396   0.981  0.5553 -3.5169 -0.7151
  677SOL     OW 2029   2.544   0.505   0.078  0.6734  0.0008 -0.4259
  677SOL    HW1 2030   2.485   0.420   0.065 -0.5021  0.7664  0.8327
  677SOL    HW2 2031   2.568   0.542   3.082  1.5859  0.5001  1.3852
  678SOL     OW 2032   2.532   1.512   1.426  0.6127  0.2757  0.2466
  678SOL    HW1 2033   2.532   1.454   1.338  0.8485 -1.3684 -0.5049
  678SOL    HW2 2034   2.452   1.490   1.487 -2.2726  0.3642  2.3261
  679SOL     OW 2035   2.506   0.604   2.923  0.2506 -0.3050 -0.1345
  679SOL    HW1 2036   2.567   0.637   2.851 -4.5744 -1.9808  1.2758
  679SOL    HW2 2037   2.459   0.678   2.977 -0.6907  1.0638 -0.8083
  680SOL     OW 2038   0.685   1.187   2.062  0.0061  0.4673  0.6666
  680SOL    HW1 2039   0.661   1.096   2.099  1.2813 -1.4169  0.5367
  680SOL    HW2 2040   0.624   1.258   2.107 -2.4675 -0.5936 -0.1870
  681SOL     OW 2041   2.793   2.076   1.748 -0.1410  0.3748 -0.3211
  681SOL    HW1 2042   2.851   2.008   1.800  0.3445  1.8921 -0.7257
  681SOL    HW2 2043   2.807   2.057   1.646  2.0653 -1.0684 -2.2859
  682SOL     OW 2044   0.575   1.808   2.913 -0.0902 -0.4018 -0.1415
  682SOL    HW1 2045   0.544   1.855   2.827 -0.2141  1.6094 -0.0202
  682SOL    HW2 2046   0.629   1.723   2.894 -2.7007 -0.2106  0.8902
  683SOL     OW 2047   2.579   2.226   0.908 -0.0124 -0.2281  0.5091
  683SOL    HW1 2048   2.595   2.126   0.891  0.0749  0.0570 -0.1515
  683SOL    HW2 2049   2.578   2.243   1.003 -1.4524 -0.9309 -5.0443
  684SOL     OW 2050   2.453   0.984   1.915 -0.1730 -0.1831  0.6056
  684SOL    HW1 2051   2.514   0.901   1.928  0.4870  0.5207  1.1793
  684SOL    HW2 2052   2.453   1.049   1.996 -1.4211  0.9793 -4.3485
  685SOL     OW 2053   1.276   0.668   1.019 -0.8104 -0.2734 -0.4805
  685SOL    HW1 2054   1.293   0.667   0.916  0.4614 -2.4507 -1.5268
  685SOL    HW2 2055   1.265   0.578   1.052 -1.7505  2.4905  0.5292
  686SOL     OW 2056   0.551   0.263   0.037  0.2471  0.5167  0.3279
  686SOL    HW1 2057   0.583   0.180   3.083 -2.4897  0.2008  0.3996
  686SOL    HW2 2058   0.524   0.242   0.135  0.5762  0.7987 -2.5533
  687SOL     OW 2059   0.211   2.285   2.553  0.6533  0.1495 -0.6754
  687SOL    HW1 2060   0.128   2.283   2.491 -1.8541 -0.0398  2.0946
  687SOL    HW2 2061   0.284   2.220   2.525  0.6822 -2.1552 -0.9310
  688SOL     OW 2062   2.155   0.440   1.374  0.1659 -0.4639 -0.3199
  688SOL    HW1 2063   2.173   0.502   1.453 -0.0358  1.1624  0.3939
  688SOL    HW2 2064   2.240   0.420   1.319  1.9180 -2.1100  0.9898
  689SOL     OW 2065   1.715   0.809   0.814  0.6065  0.4375  0.1164
  689SOL    HW1 2066   1.678   0.855   0.734 -0.8161 -3.4901 -1.2274
  689SOL    HW2 2067   1.651   0.804   0.889  0.9944  2.0963 -0.6938
  690SOL     OW 2068   2.996   0.749   1.532  0.3081 -0.0790  1.0501
  690SOL    HW1 2069   2.968   0.771   1.439  0.7967  0.7871 -0.0382
  690SOL    HW2 2070   3.068   0.680   1.524 -2.3084  0.2289 -0.3653
  691SOL     OW 2071   0.058   1.042   1.834  0.3231  0.5858 -0.0672
  691SOL    HW1 2072   3.070   1.067   1.775 -1.9177  1.1691 -0.3780
  691SOL    HW2 2073   0.064   1.110   1.909  1.6692 -0.0238  0.7422
  692SOL     OW 2074   1.056   0.614   2.071  0.0293  1.0128  0.5094
  692SOL    HW1 2075   1.092   0.527   2.112 -1.9168 -0.2525  0.3637
  692SOL    HW2 2076   1.039   0.594   1.974  0.9060 -2.2682 -1.3213
  693SOL     OW 2077   0.495   1.373   2.133 -0.1823  0.0717 -0.0773
  693SOL    HW1 2078   0.498   1.465   2.091 -0.5510 -1.6252 -2.4541
  693SOL    HW2 2079   0.419   1.362   2.198 -0.4980  1.3221 -1.6404
  694SOL     OW 2080   1.519   1.634   0.450 -0.3284 -0.2906  0.5177
  694SOL    HW1 2081   1.571   1.567   0.388  2.0869 -0.3229 -2.7505
  694SOL    HW2 2082   1.583   1.671   0.515 -2.0452  2.2987 -0.3384
  695SOL     OW 2083   0.641   1.262   1.266  0.1121 -0.3067  0.6077
  695SOL    HW1 2084   0.666   1.266   1.169 -0.8324  0.4519  1.8029
  695SOL    HW2 2085   0.541   1.279   1.274  1.1476  2.1028 -2.1842
  696SOL     OW 2086   0.380   2.627   0.481  0.5513  0.0644 -0.0558
  696SOL    HW1 2087   0.369   2.686   0.561 -0.2064 -3.0738  0.7095
  696SOL    HW2 2088   0.460   2.564   0.485  0.7881  1.5720 -0.2460
  697SOL     OW 2089   1.464   0.486   1.405 -0.4982 -0.0796  0.4208
  697SOL    HW1 2090   1.554   0.527   1.441  0.0633  1.1826  3.1638
  697SOL    HW2 2091   1.423   0.544   1.331 -0.8306  2.4547  2.6672
  698SOL     OW 2092   1.511   1.513   1.413 -0.6247 -0.2717 -0.4923
  698SOL    HW1 2093   1.488   1.518   1.512  2.2321 -0.0010 -0.2461
  698SOL    HW2 2094   1.606   1.548   1.389  1.3497 -0.3351  0.7216
  699SOL     OW 2095   0.110   0.457   2.455  0.6764  0.0944  0.3008
  699SOL    HW1 2096   0.031   0.495   2.400 -1.5515  1.8130  1.1656
  699SOL    HW2 2097   0.198   0.503   2.433  0.3975  2.2761 -0.1033
  700SOL     OW 2098   1.457   2.801   0.584 -0.7322 -0.1258 -0.1688
  700SOL    HW1 2099   1.430   2.727   0.649 -0.1677 -2.4486 -0.6947
  700SOL    HW2 2100   1.517   2.867   0.633 -1.0062 -0.8117  0.0150
  701SOL     OW 2101   0.413   1.525   2.693 -0.2775  0.4063  0.6706
  701SOL    HW1 2102   0.331   1.518   2.750  1.1694  0.1111 -2.3603
  701SOL    HW2 2103   0.501   1.543   2.744  0.8529  1.3036  0.7396
  702SOL     OW 2104   0.374   0.499   0.020 -0.1983 -0.2001 -0.5466
  702SOL    HW1 2105   0.292   0.475   3.057  0.5531 -1.1447 -0.6663
  702SOL    HW2 2106   0.442   0.422   0.023  1.7697 -1.0381 -1.3595
  703SOL     OW 2107   1.765   3.054   2.433  0.6224 -0.1227  0.3689
  703SOL    HW1 2108   1.765   3.048   2.535 -1.5466 -0.2084  0.6509
  703SOL    HW2 2109   1.676   0.001   2.396 -2.4276  2.0470  0.5819
  704SOL     OW 2110   2.626   1.712   0.516 -0.5246  0.1197  0.6477
  704SOL    HW1 2111   2.630   1.800   0.465  1.5327  0.8869 -3.0348
  704SOL    HW2 2112   2.669   1.714   0.607 -2.1908 -2.8540 -0.3751
  705SOL     OW 2113   2.842   1.781   2.189 -0.0251 -0.6732  0.4199
  705SOL    HW1 2114   2.761   1.774   2.127  2.2770 -2.2006  2.5147
  705SOL    HW2 2115   2.806   1.812   2.280 -3.0139  0.4659  0.8355
  706SOL     OW 2116   2.951   2.512   0.807  0.5612 -0.0442 -0.3270
  706SOL    HW1 2117   2.873   2.567   0.840  2.7153 -0.0667  1.5598
  706SOL    HW2 2118   3.029   2.570   0.791 -0.1784 -0.1908  0.4683
  707SOL     OW 2119   0.880   2.763   0.430 -0.1297  0.2402  0.1392
  707SOL    HW1 2120   0.981   2.756   0.432  0.3275 -0.2307 -0.2712
  707SOL    HW2 2121   0.859   2.807   0.338 -2.0173 -0.3645 -2.8505
  708SOL     OW 2122   0.669   2.167   1.465  0.0187 -0.4895  0.1295
  708SOL    HW1 2123   0.642   2.170   1.366 -1.3403  3.6807 -2.7111
  708SOL    HW2 2124   0.714   2.254   1.488 -2.0978 -2.5574 -0.1811
  709SOL     OW 2125   1.757   3.069   2.109  0.0589  0.0041 -0.2983
  709SOL    HW1 2126   1.675   0.010   2.158  0.8738 -1.3496  0.5607
  709SOL    HW2 2127   1.774   2.973   2.142  0.8010 -2.5870  0.4454
  710SOL     OW 2128   1.524   2.907   2.559 -0.0400 -0.5776 -0.1647
  710SOL    HW1 2129   1.564   2.817   2.570  0.3267  3.8602 -2.4344
  710SOL    HW2 2130   1.488   2.907   2.462 -2.6225 -0.3253  0.4644
  711SOL     OW 2131   1.251   2.393   3.041  0.1350 -0.0394  0.5902
  711SOL    HW1 2132   1.154   2.414   3.037 -1.4219 -0.5429  0.8092
  711SOL    HW2 2133   1.288   2.322   2.977  3.9437 -2.9396 -0.2743
  712SOL     OW 2134   1.106   2.092   2.869 -0.3005 -0.0376  0.2616
  712SOL    HW1 2135   1.183   2.154   2.859  0.9249 -2.1632  3.6802
  712SOL    HW2 2136   1.065   2.067   2.779 -2.5967  2.5349 -1.4571
  713SOL     OW 2137   1.408   1.176   1.662 -0.1116  0.4515  0.0538
  713SOL    HW1 2138   1.349   1.258   1.659 -1.2277 -0.0373 -1.3603
  713SOL    HW2 2139   1.367   1.098   1.716 -1.3178  0.2985 -1.6888
  714SOL     OW 2140   1.364   1.428   1.016 -0.3121 -0.8792 -0.0691
  714SOL    HW1 2141   1.418   1.401   1.102 -1.1358  2.1384  1.8679
  714SOL    HW2 2142   1.376   1.531   0.998 -2.2041 -0.5000  2.1190
  715SOL     OW 2143   2.477   0.127   0.705 -0.2776  0.2329  0.4441
  715SOL    HW1 2144   2.379   0.111   0.698  3.2757  1.2803  2.1917
  715SOL    HW2 2145   2.501   0.193   0.782 -0.8610 -1.6146 -1.0630
  716SOL     OW 2146   0.514   2.799   0.748  0.0503  0.2081  0.0556
  716SOL    HW1 2147   0.598   2.757   0.706  1.4913  0.3581 -0.1339
  716SOL    HW2 2148   0.550   2.870   0.806  0.0205 -1.0822 -3.9562
  717SOL     OW 2149   3.037   0.485   0.048 -0.5280 -0.2901  0.1976
  717SOL    HW1 2150   2.975   0.543   3.085  1.3693  0.0273 -1.5399
  717SOL    HW2 2151   2.981   0.402   0.073 -1.9321  3.1327 -1.0518
  718SOL     OW 2152   1.660   1.710   1.122 -0.0297  0.2847 -0.1089
  718SOL    HW1 2153   1.670   1.729   1.224  2.8112  0.6623  0.3608
  718SOL    HW2 2154   1.659   1.610   1.101 -1.7062  1.6910  1.5762
  719SOL     OW 2155   2.747   2.338   0.487 -0.4124 -0.0355  0.1381
  719SOL    HW1 2156   2.771   2.334   0.587  1.4140 -0.4029  0.0238
  719SOL    HW2 2157   2.795   2.417   0.438  0.2562  1.9803  0.9554
  720SOL     OW 2158   0.918   1.004   0.911  0.1384 -0.0107 -0.1840
  720SOL    HW1 2159   0.986   0.952   0.967  1.6259  1.3516  2.1512
  720SOL    HW2 2160   0.950   1.086   0.862  0.5807  1.6495 -2.0269
  721SOL     OW 2161   1.473   0.140   1.088 -0.2054  0.4016 -0.1478
  721SOL    HW1 2162   1.496   0.230   1.039 -0.5487  1.3646 -2.3372
  721SOL    HW2 2163   1.434   0.164   1.179 -0.1656  1.3297 -1.5553
  722SOL     OW 2164   1.138   1.329   2.087 -0.4070  0.1635 -0.3314
  722SOL    HW1 2165   1.212   1.387   2.053  0.5231 -0.0284 -1.3967
  722SOL    HW2 2166   1.061   1.385   2.133 -1.8767  0.1063  2.9018
  723SOL     OW 2167   0.912   2.946   1.760 -0.4751  0.1194  0.8505
  723SOL    HW1 2168   1.011   2.957   1.729  1.4006  2.4565 -2.5734
  723SOL    HW2 2169   0.900   2.848   1.792  0.9843 -2.4852  0.3563
  724SOL     OW 2170   2.078   2.041   1.873 -0.2441  0.0637 -0.5760
  724SOL    HW1 2171   1.999   2.058   1.808 -0.3927  1.6918  0.8860
  724SOL    HW2 2172   2.104   1.943   1.863 -1.5645  1.9624 -1.6756
  725SOL     OW 2173   1.067   2.518   1.174 -0.3436 -0.1183 -0.1882
  725SOL    HW1 2174   1.158   2.485   1.200 -1.7011 -1.8481 -1.3891
  725SOL    HW2 2175   1.003   2.448   1.212  1.1003 -0.4302  2.7121
  726SOL     OW 2176   1.635   3.013   2.970  0.0497  0.1464 -0.3291
  726SOL    HW1 2177   1.640   2.923   3.024  0.4799 -2.4234 -0.7949
  726SOL    HW2 2178   1.671   3.014   2.874 -0.6189 -0.7038  0.2208
  727SOL     OW 2179   1.467   1.801   0.714 -0.3480  0.0925  0.3430
  727SOL    HW1 2180   1.407   1.784   0.633  1.6882 -0.9519 -0.6180
  727SOL    HW2 2181   1.565   1.775   0.688  5.2477 -0.3360 -0.9552
  728SOL     OW 2182   1.945   2.844   2.418 -0.5057  0.6682  0.5150
  728SOL    HW1 2183   1.885   2.924   2.387 -1.1425  0.4460  1.2444
  728SOL    HW2 2184   2.017   2.865   2.488 -0.2073  0.6543 -1.5388
  729SOL     OW 2185   2.413   1.897   1.384 -0.9620  0.0213  0.1710
  729SOL    HW1 2186   2.409   1.975   1.450 -0.6205 -1.8652 -4.4961
  729SOL    HW2 2187   2.323   1.856   1.363 -1.3196 -1.1164 -0.8585
  730SOL     OW 2188   1.819   0.548   2.422 -0.0792 -0.2201 -0.1089
  730SOL    HW1 2189   1.877   0.469   2.444 -2.5037 -1.7708 -0.8289
  730SOL    HW2 2190   1.800   0.612   2.497 -1.1592 -1.9648 -0.8545
  731SOL     OW 2191   0.507   0.130   1.359 -0.3250  0.1436  0.2041
  731SOL    HW1 2192   0.426   0.131   1.424  1.4964  1.0745  1.1897
  731SOL    HW2 2193   0.525   0.225   1.327 -0.9923  2.9985 -2.1180
  732SOL     OW 2194   1.764   0.181   1.131  0.3004  0.1325  0.2407
  732SOL    HW1 2195   1.666   0.162   1.146 -0.1482  0.9973  0.2683
  732SOL    HW2 2196   1.816   0.107   1.176  2.4953 -0.1897 -1.1814
  733SOL     OW 2197   0.938   1.453   1.251 -0.3865 -0.5101  0.6690
  733SOL    HW1 2198   0.865   1.427   1.317  1.6191  1.7614 -0.0622
  733SOL    HW2 2199   0.950   1.556   1.251  2.0669 -0.9176  0.8817
  734SOL     OW 2200   2.363   1.868   0.271 -0.7927  0.1181 -0.7144
  734SOL    HW1 2201   2.374   1.787   0.213 -1.3796  2.6090  0.4040
  734SOL    HW2 2202   2.454   1.904   0.304  1.7317 -1.0752  0.3143
  735SOL     OW 2203   0.345   0.712   0.474  0.0268  0.1630  0.1258
  735SOL    HW1 2204   0.393   0.662   0.401 -0.8227 -1.8699  1.3884
  735SOL    HW2 2205   0.409   0.747   0.545 -2.6326  0.2205 -1.2719
  736SOL     OW 2206   1.829   2.573   2.440  0.2228 -0.4588  0.2599
  736SOL    HW1 2207   1.857   2.527   2.523  2.1988  2.4568 -1.7162
  736SOL    HW2 2208   1.865   2.669   2.442 -0.5112 -0.6481 -2.0981
  737SOL     OW 2209   0.882   1.926   0.915  0.0061  0.4517 -0.4743
  737SOL    HW1 2210   0.872   1.835   0.950 -1.6352  0.3151 -2.1638
  737SOL    HW2 2211   0.965   1.970   0.951 -2.1454 -1.4794  0.4817
  738SOL     OW 2212   1.809   2.670   2.032  0.1106 -0.0772  0.0398
  738SOL    HW1 2213   1.728   2.699   2.090 -3.4736  1.1892  1.1701
  738SOL    HW2 2214   1.855   2.589   2.076  0.5018 -1.3303  0.8511
  739SOL     OW 2215   1.408   2.198   2.332  0.3034  0.3231  0.1917
  739SOL    HW1 2216   1.457   2.111   2.316 -4.2312  0.6949  2.0309
  739SOL    HW2 2217   1.470   2.277   2.304 -0.2916  1.9059 -0.2199
  740SOL     OW 2218   2.122   2.324   1.801  0.6090  0.5992  0.2297
  740SOL    HW1 2219   2.133   2.221   1.814 -2.6517 -2.2534 -2.9961
  740SOL    HW2 2220   2.027   2.343   1.781 -0.9112 -0.4265  0.5763
  741SOL     OW 2221   2.334   1.850   2.897 -0.1184  0.0743  0.1589
  741SOL    HW1 2222   2.242   1.809   2.915  0.8946 -2.5604  2.0579
  741SOL    HW2 2223   2.384   1.794   2.825  1.1985 -1.2563 -3.4731
  742SOL     OW 2224   0.553   1.215   2.816 -0.4813  0.4480  0.0103
  742SOL    HW1 2225   0.502   1.256   2.893  0.2836  1.9028  0.5564
  742SOL    HW2 2226   0.497   1.191   2.734  1.1563  0.2711 -0.8192
  743SOL     OW 2227   1.940   1.006   2.578  0.2678  0.3605 -0.0271
  743SOL    HW1 2228   2.010   0.976   2.510  2.8344 -0.0219 -2.1656
  743SOL    HW2 2229   1.871   1.063   2.533 -0.8829  0.3201  3.0169
  744SOL     OW 2230   2.167   0.115   1.297 -0.0852  0.6873 -0.2270
  744SOL    HW1 2231   2.142   0.193   1.357 -2.9836 -0.5123 -1.3243
  744SOL    HW2 2232   2.225   0.045   1.340  1.4466 -0.4703  1.8253
  745SOL     OW 2233   2.516   1.369   1.193 -0.0298 -0.5052  0.2725
  745SOL    HW1 2234   2.538   1.277   1.222  2.0111  1.2255  0.0736
  745SOL    HW2 2235   2.461   1.360   1.102 -1.1338  2.7203 -1.7835
  746SOL     OW 2236   2.586   1.943   0.891 -0.0086 -0.4152  0.4494
  746SOL    HW1 2237   2.565   1.944   0.990 -2.2022  1.3402 -2.1098
  746SOL    HW2 2238   2.638   1.859   0.861  1.0099 -2.6320  0.4516
  747SOL     OW 2239   1.834   2.894   0.190  0.2103 -0.5555 -0.1002
  747SOL    HW1 2240   1.902   2.950   0.138  0.2659  0.3297 -1.7303
  747SOL    HW2 2241   1.813   2.943   0.277 -1.6085 -1.8600 -1.7884
  748SOL     OW 2242   0.879   2.078   3.014  0.3207  0.5267 -0.0792
  748SOL    HW1 2243   0.960   2.078   2.955 -2.6384  1.1181  2.2617
  748SOL    HW2 2244   0.794   2.104   2.963 -0.8970 -2.4854  0.8524
  749SOL     OW 2245   2.899   0.361   2.237 -0.5262  0.2016  0.2882
  749SOL    HW1 2246   2.957   0.277   2.234  2.0058  0.3400  1.6568
  749SOL    HW2 2247   2.955   0.444   2.246 -0.8934  0.5707  0.8421
  750SOL     OW 2248   1.094   0.287   1.876 -0.2975 -0.7465 -0.3400
  750SOL    HW1 2249   1.187   0.247   1.890  0.2394 -1.5546  2.0283
  750SOL    HW2 2250   1.047   0.307   1.967 -3.4813  2.8636 -1.6409
  751SOL     OW 2251   2.565   2.354   1.870  0.1580 -0.1699 -0.1214
  751SOL    HW1 2252   2.651   2.364   1.822  1.5186 -0.5351 -1.0261
  751SOL    HW2 2253   2.506   2.428   1.834 -2.4815 -0.9155  2.5937
  752SOL     OW 2254   1.895   1.429   1.194 -0.0815 -0.4245 -0.7232
  752SOL    HW1 2255   1.878   1.385   1.104  1.5692  0.2372 -2.1910
  752SOL    HW2 2256   1.988   1.474   1.194  0.4923 -1.6835  0.1729
  753SOL     OW 2257   1.545   0.906   2.272 -0.6118  0.0248 -0.3770
  753SOL    HW1 2258   1.535   0.996   2.232 -0.2772  0.5188  1.0307
  753SOL    HW2 2259   1.456   0.861   2.287 -2.4049 -1.8567 -1.7804
  754SOL     OW 2260   0.093   2.416   1.024 -0.5715  0.0244  0.3820
  754SOL    HW1 2261   0.069   2.513   1.039  0.3745 -2.4081 -0.0061
  754SOL    HW2 2262   0.020   2.357   1.065 -5.1186 -0.1120  2.0838
  755SOL     OW 2263   2.551   2.939   1.080  0.0982 -0.1709  0.1026
  755SOL    HW1 2264   2.557   3.040   1.104 -0.5583  1.8480  0.6133
  755SOL    HW2 2265   2.590   2.884   1.155 -2.9040  2.5211 -1.7993
  756SOL     OW 2266   1.741   1.529   2.252 -0.5900  0.0345  0.4326
  756SOL    HW1 2267   1.702   1.435   2.260 -0.4973  2.3333  1.4851
  756SOL    HW2 2268   1.674   1.597   2.277  3.5531 -1.7722  0.6937
  757SOL     OW 2269   2.979   2.848   1.960  0.1426  0.3363  0.3658
  757SOL    HW1 2270   2.897   2.791   1.967 -1.4352 -2.5512  0.6783
  757SOL    HW2 2271   2.979   2.919   2.029  0.3931 -5.1909 -1.6088
  758SOL     OW 2272   0.340   2.733   1.545 -0.2361 -0.2387 -0.1610
  758SOL    HW1 2273   0.349   2.754   1.446 -0.3730  0.1882 -0.4908
  758SOL    HW2 2274   0.346   2.633   1.558 -1.4132  0.8701  1.3497
  759SOL     OW 2275   2.155   1.227   1.240  0.0969  0.0198  0.7174
  759SOL    HW1 2276   2.157   1.137   1.286  0.2681  0.7587  0.1682
  759SOL    HW2 2277   2.119   1.205   1.145  1.2034  0.9118 -3.4897
  760SOL     OW 2278   1.733   0.200   1.506  0.2256 -0.4272 -0.2185
  760SOL    HW1 2279   1.788   0.146   1.573 -3.7743  0.0732 -0.3994
  760SOL    HW2 2280   1.784   0.264   1.446  1.1489 -0.3986 -3.1354
  761SOL     OW 2281   2.171   0.144   0.743 -0.1870  0.5485  0.2057
  761SOL    HW1 2282   2.146   0.074   0.671  0.1831  0.7803 -0.3290
  761SOL    HW2 2283   2.127   0.234   0.716 -0.5128  0.2814 -0.0180
  762SOL     OW 2284   1.991   3.043   0.033  0.3393  0.6068  0.3532
  762SOL    HW1 2285   2.089   3.017   0.024 -1.4532 -0.3769 -2.6912
  762SOL    HW2 2286   1.935   3.013   3.045 -2.1236  1.1551 -3.3214
  763SOL     OW 2287   1.110   0.476   1.342 -0.1096  0.5184 -0.1129
  763SOL    HW1 2288   1.020   0.431   1.367 -0.9972 -1.5757 -1.4825
  763SOL    HW2 2289   1.086   0.563   1.303 -0.9583 -0.3303  1.0926
  764SOL     OW 2290   2.524   2.699   2.543 -0.6462 -0.3835  0.2733
  764SOL    HW1 2291   2.594   2.626   2.534 -1.9932 -1.3286  0.6759
  764SOL    HW2 2292   2.559   2.783   2.588  1.5871 -5.1275 -0.7234
  765SOL     OW 2293   3.022   1.101   2.671  0.4816 -0.5964  0.0798
  765SOL    HW1 2294   0.007   1.050   2.643  0.7703  2.0842  0.7461
  765SOL    HW2 2295   2.992   1.167   2.596 -1.2077 -0.1993 -1.5311
  766SOL     OW 2296   2.858   1.398   2.569 -0.4693 -0.0277 -0.2125
  766SOL    HW1 2297   2.774   1.433   2.522 -2.8323  0.6992 -0.0340
  766SOL    HW2 2298   2.923   1.364   2.500  0.2876  0.9405 -0.7924
  767SOL     OW 2299   3.092   2.187   1.668 -0.3314  0.8248 -0.1055
  767SOL    HW1 2300   3.082   2.088   1.649 -0.1523 -0.5871  0.9100
  767SOL    HW2 2301   3.073   2.201   1.768  0.8641 -1.2452  3.1481
  768SOL     OW 2302   0.902   0.692   2.721 -0.7819  0.1694  0.7610
  768SOL    HW1 2303   0.811   0.669   2.767  0.3097  0.8807  1.2437
  768SOL    HW2 2304   0.932   0.787   2.743  0.8839  0.4966  1.4714
  769SOL     OW 2305   1.369   2.648   2.933 -0.2866 -0.1826 -0.4028
  769SOL    HW1 2306   1.279   2.662   2.888  0.7990 -3.3354  2.9309
  769SOL    HW2 2307   1.384   2.551   2.959  0.3576 -0.1832  2.0519
  770SOL     OW 2308   0.865   0.127   2.488 -0.8529 -0.4030 -0.2091
  770SOL    HW1 2309   0.827   0.131   2.391  2.4557 -0.1389 -1.3276
  770SOL    HW2 2310   0.892   0.031   2.509 -2.4442  2.1604  2.2807
  771SOL     OW 2311   0.750   2.568   0.919 -0.6195 -0.0305 -0.2120
  771SOL    HW1 2312   0.756   2.588   0.818  1.6093 -0.3080 -0.0394
  771SOL    HW2 2313   0.812   2.633   0.975  0.0462 -0.3622  2.2955
  772SOL     OW 2314   2.719   1.143   0.413  0.2042  0.1234  0.2074
  772SOL    HW1 2315   2.667   1.221   0.380 -0.9810 -1.7447 -3.2553
  772SOL    HW2 2316   2.683   1.120   0.503 -1.7796  0.8346 -4.2009
  773SOL     OW 2317   1.649   0.911   1.811  0.1666  0.8087  0.2389
  773SOL    HW1 2318   1.743   0.874   1.793  1.8760 -2.3805  0.7763
  773SOL    HW2 2319   1.582   0.895   1.738 -2.3739  0.4955  1.3472
  774SOL     OW 2320   0.577   0.768   0.612  0.2419 -0.1785  0.1743
  774SOL    HW1 2321   0.618   0.808   0.697  1.2034 -1.9661  0.8525
  774SOL    HW2 2322   0.607   0.670   0.602  2.9467  0.2568  1.1603
  775SOL     OW 2323   1.575   0.139   0.258 -0.2176  0.0923  0.6487
  775SOL    HW1 2324   1.539   0.047   0.244  0.1674  2.6400 -1.1449
  775SOL    HW2 2325   1.499   0.208   0.254 -0.9073  0.3641 -0.1434
  776SOL     OW 2326   2.368   0.177   2.425  0.4417  0.2048  0.2182
  776SOL    HW1 2327   2.338   0.263   2.476 -1.6869  0.9854  1.1098
  776SOL    HW2 2328   2.369   0.191   2.320  0.0081  1.1229 -0.8004
  777SOL     OW 2329   1.087   1.300   3.052 -0.4811 -0.1604  0.3791
  777SOL    HW1 2330   1.073   1.297   2.953  0.4268  1.7477  0.0498
  777SOL    HW2 2331   1.000   1.275   3.091  2.6946  0.5693  1.0640
  778SOL     OW 2332   0.060   2.632   0.208  0.0609 -0.0217 -0.7208
  778SOL    HW1 2333   0.135   2.572   0.241 -1.6306  0.7990 -3.1079
  778SOL    HW2 2334   0.094   2.731   0.210  2.1741  1.6015 -1.9522
  779SOL     OW 2335   0.117   1.342   0.197  0.6399  0.4177  0.0297
  779SOL    HW1 2336   0.089   1.249   0.168 -0.5673 -0.3275  1.1721
  779SOL    HW2 2337   0.218   1.357   0.188 -0.1224  0.8093  0.7589
  780SOL     OW 2338   2.110   0.088   2.185  0.5464  0.1736  0.3199
  780SOL    HW1 2339   2.182   0.157   2.194  2.8956 -2.5359 -2.4322
  780SOL    HW2 2340   2.100   0.070   2.085  0.6184 -0.5337  2.6636
  781SOL     OW 2341   1.861   1.127   1.536 -0.0267 -0.3533 -0.8020
  781SOL    HW1 2342   1.788   1.087   1.480 -0.6855  1.6852  1.9041
  781SOL    HW2 2343   1.868   1.227   1.512 -0.9204 -3.0633  1.1407
  782SOL     OW 2344   1.922   2.056   2.185 -0.4647 -0.2742  0.0594
  782SOL    HW1 2345   1.995   2.094   2.246  0.5847 -0.4334 -2.6548
  782SOL    HW2 2346   1.936   1.959   2.166  0.0646  1.2282 -0.6162
  783SOL     OW 2347   1.302   0.038   1.887  0.0090 -0.0196  0.0585
  783SOL    HW1 2348   1.276   0.005   1.984 -1.5370  2.6357  1.7330
  783SOL    HW2 2349   1.404   0.022   1.879  2.6233 -1.3131 -0.1354
  784SOL     OW 2350   1.793   1.209   2.403 -0.0261 -0.2102 -0.9482
  784SOL    HW1 2351   1.852   1.191   2.322 -3.0897  1.1138  1.4814
  784SOL    HW2 2352   1.702   1.249   2.383  0.6528 -0.6498  1.3878
  785SOL     OW 2353   1.806   0.732   0.439 -0.5369  0.3913 -0.8902
  785SOL    HW1 2354   1.845   0.768   0.353  3.0870 -1.4086 -1.1848
  785SOL    HW2 2355   1.723   0.784   0.476  1.8572  1.1360 -0.7452
  786SOL     OW 2356   3.013   1.644   0.524 -0.6720 -0.0953  0.1382
  786SOL    HW1 2357   0.011   1.640   0.564  1.9075 -2.8015 -0.1798
  786SOL    HW2 2358   3.001   1.571   0.453  0.0881  1.6495  0.6246
  787SOL     OW 2359   1.519   1.983   0.206  0.6891  0.3873  0.1754
  787SOL    HW1 2360   1.477   2.002   0.298 -1.1007  0.2602  4.1554
  787SOL    HW2 2361   1.555   2.069   0.160  1.1948 -1.0229 -0.8755
  788SOL     OW 2362   2.081   1.700   1.550  0.0433  0.0986  0.7664
  788SOL    HW1 2363   2.109   1.747   1.463  0.6512  0.7561  3.2784
  788SOL    HW2 2364   1.984   1.666   1.537  0.7744 -2.1533 -1.3669
  789SOL     OW 2365   0.125   1.458   2.551 -0.4607 -0.2689  0.3059
  789SOL    HW1 2366   0.168   1.513   2.480 -0.7583  1.6394 -1.2060
  789SOL    HW2 2367   0.063   1.518   2.609  0.1814  0.5348 -0.3209
  790SOL     OW 2368   0.700   0.061   2.989  0.2735 -0.5931 -0.2055
  790SOL    HW1 2369   0.737   0.092   2.901  0.7995  2.3211  2.4368
  790SOL    HW2 2370   0.630   3.085   2.968  0.5735 -2.0597  0.1896
  791SOL     OW 2371   0.901   2.823   2.785 -0.1505 -0.4021 -0.4842
  791SOL    HW1 2372   0.808   2.780   2.791 -1.0516 -2.1784 -0.2117
  791SOL    HW2 2373   0.918   2.876   2.873  0.9961 -0.5527  1.2307
  792SOL     OW 2374   1.745   0.371   2.048  0.0729 -0.5339  0.3851
  792SOL    HW1 2375   1.735   0.406   2.145  1.0027 -0.7924  0.6242
  792SOL    HW2 2376   1.661   0.404   1.997 -1.7032  0.8160 -1.1838
  793SOL     OW 2377   2.934   0.039   2.044 -0.1109 -0.4678  0.4379
  793SOL    HW1 2378   2.977   0.073   1.957 -0.5643  0.1435  1.2790
  793SOL    HW2 2379   2.847   0.089   2.068  0.4220 -1.5622  0.1276
  794SOL     OW 2380   0.575   0.574   1.887  0.2063 -0.3849 -0.0223
  794SOL    HW1 2381   0.569   0.497   1.950 -0.7657  1.3131 -1.1652
  794SOL    HW2 2382   0.617   0.651   1.934  2.4529 -0.5411  1.6241
  795SOL     OW 2383   2.992   1.417   0.364  0.5149 -0.2731  0.0955
  795SOL    HW1 2384   3.003   1.351   0.438 -0.8364 -2.2166  2.4764
  795SOL    HW2 2385   3.071   1.408   0.300  0.6596  2.4826 -1.7333
  796SOL     OW 2386   2.762   2.647   2.917  0.2086 -0.3405  0.4693
  796SOL    HW1 2387   2.842   2.630   2.980  1.9843  0.9999  3.9760
  796SOL    HW2 2388   2.694   2.575   2.923  0.0861  1.4644 -0.2072
  797SOL     OW 2389   2.489   2.302   0.457  0.3514  0.1917 -0.6362
  797SOL    HW1 2390   2.505   2.292   0.357 -3.0386  1.5345  0.3395
  797SOL    HW2 2391   2.581   2.316   0.505 -0.4587  1.8774  0.0288
  798SOL     OW 2392   0.297   0.898   1.504  0.2491 -0.1541 -0.2085
  798SOL    HW1 2393   0.266   0.887   1.605  0.4125 -2.1414 -2.8345
  798SOL    HW2 2394   0.313   0.996   1.485 -0.3253 -0.1152 -0.1782
  799SOL     OW 2395   3.041   0.591   2.273  0.0448  0.1507  0.3501
  799SOL    HW1 2396   3.011   0.673   2.327  1.7158 -1.5096  0.5045
  799SOL    HW2 2397   0.006   0.624   2.196  1.1128 -1.2675 -1.0793
  800SOL     OW 2398   2.820   2.071   0.510 -0.0470  0.7588  0.5100
  800SOL    HW1 2399   2.796   2.166   0.478  0.3565  2.0074  2.6892
  800SOL    HW2 2400   2.878   2.075   0.592 -1.7115  1.3420 -0.7303
  801SOL     OW 2401   1.437   1.188   0.923 -0.5157  0.0005 -0.0957
  801SOL    HW1 2402   1.360   1.183   0.856 -0.3964 -1.0421  1.2235
  801SOL    HW2 2403   1.435   1.279   0.965  1.6715 -1.4365  1.1667
  802SOL     OW 2404   1.402   1.687   0.978 -0.8639 -0.6461  0.6720
  802SOL    HW1 2405   1.478   1.732   1.030  1.6365 -2.2407  1.1604
  802SOL    HW2 2406   1.397   1.723   0.880  1.1670 -0.2688 -4.1064
  803SOL     OW 2407   2.994   1.793   0.274  0.1003 -0.2539  0.0815
  803SOL    HW1 2408   2.974   1.757   0.367 -1.4964  0.0673  1.6495
  803SOL    HW2 2409   2.945   1.744   0.199  0.8941  0.2429  0.7211
  804SOL     OW 2410   1.406   2.616   0.768  0.1569  0.2322 -0.5577
  804SOL    HW1 2411   1.331   2.557   0.730  0.8811 -2.3254 -1.1011
  804SOL    HW2 2412   1.472   2.559   0.814 -2.0049  0.0275  1.3046
  805SOL     OW 2413   1.721   1.683   2.629  0.0019  0.0296  0.1220
  805SOL    HW1 2414   1.680   1.695   2.721 -0.2709 -0.2661  1.1120
  805SOL    HW2 2415   1.716   1.585   2.598  0.8102  0.2486 -0.2785
  806SOL     OW 2416   1.498   3.026   1.446  0.6140  0.1370 -0.8973
  806SOL    HW1 2417   1.492   3.004   1.546 -0.9612 -0.6836 -0.1558
  806SOL    HW2 2418   1.409   3.002   1.398 -0.5668 -3.3206 -0.6367
  807SOL     OW 2419   1.994   3.081   2.788 -0.1176  0.0615 -0.0168
  807SOL    HW1 2420   1.911   3.082   2.729 -0.1152  2.3230 -0.2717
  807SOL    HW2 2421   1.995   0.068   2.849 -3.1645 -1.9138 -0.8877
  808SOL     OW 2422   0.364   1.428   0.206  0.5376 -0.2299 -0.8877
  808SOL    HW1 2423   0.445   1.366   0.208  1.9285 -0.7825 -2.4771
  808SOL    HW2 2424   0.348   1.481   0.291  1.8219  0.9185 -0.0754
  809SOL     OW 2425   2.548   0.970   2.313 -0.3231 -0.1562 -0.0302
  809SOL    HW1 2426   2.496   1.012   2.236 -1.3133 -1.0706 -0.3656
  809SOL    HW2 2427   2.503   1.011   2.393  0.3899  0.9018 -0.0476
  810SOL     OW 2428   0.040   0.206   2.385  0.3925  0.0603 -0.2993
  810SOL    HW1 2429   0.060   0.301   2.408 -0.6090 -1.7199 -3.2626
  810SOL    HW2 2430   0.096   0.168   2.312  1.0394  2.1136  1.7833
  811SOL     OW 2431   2.166   2.345   1.535 -0.3701  0.1810 -0.5535
  811SOL    HW1 2432   2.146   2.331   1.639 -1.8948  3.3591  3.8354
  811SOL    HW2 2433   2.214   2.437   1.525 -1.5033 -0.6335 -2.3346
  812SOL     OW 2434   1.439   0.779   0.068  0.0215 -0.0980  0.8602
  812SOL    HW1 2435   1.340   0.766   0.051  1.2161 -1.7181 -0.9514
  812SOL    HW2 2436   1.477   0.846   0.007  0.4304 -1.2620  1.3553
  813SOL     OW 2437   2.022   0.395   2.037  0.1252  0.1350 -0.2115
  813SOL    HW1 2438   1.917   0.395   2.035 -2.7289 -0.9737 -0.3809
  813SOL    HW2 2439   2.064   0.312   2.076 -0.5377  0.8364 -0.2916
  814SOL     OW 2440   1.983   1.365   1.474 -0.8522 -0.4649 -1.0268
  814SOL    HW1 2441   2.077   1.409   1.479 -1.7408 -1.2420 -1.6393
  814SOL    HW2 2442   1.959   1.343   1.383 -0.6845  1.8906  0.9586
  815SOL     OW 2443   0.724   1.111   0.681 -0.5639  0.1445  0.0516
  815SOL    HW1 2444   0.668   1.049   0.740 -0.6589 -1.7426 -0.1655
  815SOL    HW2 2445   0.672   1.150   0.607  2.8810 -2.1034  1.4001
  816SOL     OW 2446   1.652   2.077   2.634 -0.3503  0.6594  0.3638
  816SOL    HW1 2447   1.752   2.065   2.655  0.3724 -2.4926 -1.6708
  816SOL    HW2 2448   1.644   2.147   2.561 -0.9103 -2.4105  2.2328
  817SOL     OW 2449   2.979   2.827   0.928  0.4155 -0.3976  0.0995
  817SOL    HW1 2450   3.005   2.886   0.851 -1.4727 -0.1492  1.0309
  817SOL    HW2 2451   3.055   2.779   0.969 -0.5853  0.0449  0.6206
  818SOL     OW 2452   1.282   0.420   0.008  0.2536  0.1601  0.3708
  818SOL    HW1 2453   1.191   0.421   3.064 -1.3861 -0.7273  2.0871
  818SOL    HW2 2454   1.286   0.361   0.088 -1.5638  3.3019  1.3713
  819SOL     OW 2455   0.704   0.866   0.841 -1.2308  0.0066  0.6642
  819SOL    HW1 2456   0.651   0.872   0.926 -0.4671  1.0870 -2.5012
  819SOL    HW2 2457   0.801   0.898   0.860 -0.3682 -0.2055  0.1433
  820SOL     OW 2458   2.217   0.777   1.201  0.9170  0.0916 -0.3686
  820SOL    HW1 2459   2.128   0.744   1.170  3.5292  0.5974 -1.0296
  820SOL    HW2 2460   2.278   0.695   1.188 -0.1129  0.1642  0.1072
  821SOL     OW 2461   2.628   0.008   0.381  0.0230  0.2797  0.5195
  821SOL    HW1 2462   2.673   0.037   0.469 -1.5357 -2.8279 -2.3083
  821SOL    HW2 2463   2.618   3.003   0.374  1.5211  2.1370 -1.1514
  822SOL     OW 2464   0.827   2.727   2.433  0.8134 -0.1194 -0.2221
  822SOL    HW1 2465   0.768   2.736   2.519  0.3536  1.9935  2.0322
  822SOL    HW2 2466   0.786   2.649   2.381  0.9666  0.3524 -1.5783
  823SOL     OW 2467   3.072   1.466   1.784  0.0192  0.4834 -0.0096
  823SOL    HW1 2468   2.975   1.474   1.818 -2.8685 -1.0120  1.7727
  823SOL    HW2 2469   3.069   1.414   1.695 -0.3104 -0.6663 -0.9428
  824SOL     OW 2470   0.826   2.898   2.179 -0.2031 -0.7800 -0.1684
  824SOL    HW1 2471   0.853   2.872   2.273  0.3429  0.6237 -2.2029
  824SOL    HW2 2472   0.848   2.819   2.114  0.4260 -3.4164 -0.8579
  825SOL     OW 2473   1.296   1.845   0.121  0.4195  0.4664  0.3962
  825SOL    HW1 2474   1.287   1.856   0.017  1.1089 -0.5303  1.4993
  825SOL    HW2 2475   1.370   1.893   0.166 -0.5695 -0.2130 -2.8617
  826SOL     OW 2476   1.148   2.666   2.725  0.6984  1.1657  0.1197
  826SOL    HW1 2477   1.061   2.715   2.742  0.3534  0.0229  2.1775
  826SOL    HW2 2478   1.128   2.567   2.696  0.8387 -0.9963 -1.6771
  827SOL     OW 2479   0.290   1.844   1.754 -0.1728 -0.0261  0.0842
  827SOL    HW1 2480   0.316   1.825   1.850  0.5538 -3.6307  1.4111
  827SOL    HW2 2481   0.329   1.929   1.718  0.0909  1.9402  1.5199
  828SOL     OW 2482   3.018   1.822   1.273 -0.4928 -0.3124 -0.0386
  828SOL    HW1 2483   0.006   1.859   1.227  0.1429 -0.8940  0.1604
  828SOL    HW2 2484   2.936   1.863   1.228  0.7670 -1.8779 -1.8594
  829SOL     OW 2485   2.940   2.570   0.011 -0.0267  0.4452  0.1495
  829SOL    HW1 2486   3.012   2.591   0.075 -3.4950 -1.2406 -0.6040
  829SOL    HW2 2487   2.892   2.485   0.038  1.3420 -0.5798  0.8067
  830SOL     OW 2488   1.124   0.643   0.569  0.4632 -0.3742  0.5792
  830SOL    HW1 2489   1.198   0.620   0.629 -1.6064  2.8204 -0.6909
  830SOL    HW2 2490   1.081   0.736   0.586 -0.9678  1.7080 -0.9162
  831SOL     OW 2491   2.822   2.347   0.181  0.6255 -0.0617 -0.4310
  831SOL    HW1 2492   2.729   2.311   0.199 -0.9479  1.2230  2.4624
  831SOL    HW2 2493   2.894   2.291   0.222  2.7813  2.3265 -1.4087
  832SOL     OW 2494   1.531   2.372   0.488  0.3772  0.8448  0.0711
  832SOL    HW1 2495   1.538   2.287   0.541 -0.4181  0.2758  0.4798
  832SOL    HW2 2496   1.484   2.343   0.403 -0.8130 -1.9182 -1.3645
  833SOL     OW 2497   0.542   0.754   2.462  0.4300 -0.0487 -0.4596
  833SOL    HW1 2498   0.643   0.760   2.477 -0.1733 -0.0294  1.1405
  833SOL    HW2 2499   0.501   0.848   2.443 -1.0934  1.4369 -1.5094
  834SOL     OW 2500   2.596   0.781   0.623 -0.0053  0.1562  0.4516
  834SOL    HW1 2501   2.607   0.684   0.634  1.2302  2.5891  0.4525
  834SOL    HW2 2502   2.545   0.822   0.703  2.7507  1.2231 -1.5227
  835SOL     OW 2503   2.471   0.497   2.149  0.3425 -0.0679  0.2739
  835SOL    HW1 2504   2.420   0.551   2.078  0.9816  1.0986  0.6563
  835SOL    HW2 2505   2.503   0.560   2.217 -1.2246  0.0534 -0.7348
  836SOL     OW 2506   0.711   2.001   0.627  0.0776  0.2257 -0.0754
  836SOL    HW1 2507   0.631   2.023   0.573  1.9708  0.1482  2.2873
  836SOL    HW2 2508   0.694   2.021   0.726 -0.2738  0.7800  1.3069
  837SOL     OW 2509   2.374   1.584   2.104  0.0075 -0.2750  0.4850
  837SOL    HW1 2510   2.334   1.677   2.121  1.4275 -1.1768  1.0659
  837SOL    HW2 2511   2.318   1.532   2.033  0.0896  0.3980 -3.0477
  838SOL     OW 2512   0.122   1.126   2.290 -0.0628 -0.1010  0.5030
  838SOL    HW1 2513   0.143   1.026   2.300  1.3651 -0.9919 -1.4375
  838SOL    HW2 2514   0.142   1.155   2.194  0.8080 -0.8816 -1.9804
  839SOL     OW 2515   0.323   3.095   0.025  0.4595  0.2816  0.0422
  839SOL    HW1 2516   0.406   3.060   3.069  0.2231  0.9248 -0.3568
  839SOL    HW2 2517   0.328   3.069   0.125  2.1235 -2.2821  0.9042
  840SOL     OW 2518   3.000   0.803   2.436 -0.3817  0.0592  0.3977
  840SOL    HW1 2519   3.027   0.780   2.530 -0.0175 -0.8251 -0.4384
  840SOL    HW2 2520   2.919   0.863   2.444  1.0267 -1.8226  0.9462
  841SOL     OW 2521   0.382   2.091   2.501  0.0357 -0.3030  0.0387
  841SOL    HW1 2522   0.451   2.046   2.560  1.5598  1.1565  0.5358
  841SOL    HW2 2523   0.405   2.071   2.403 -0.9887 -0.7065 -2.0588
  842SOL     OW 2524   0.860   0.091   1.233 -0.4383 -0.4456  0.2108
  842SOL    HW1 2525   0.799   0.027   1.286 -2.9342 -1.5454 -0.6790
  842SOL    HW2 2526   0.874   0.177   1.283  2.2406 -2.1479 -2.9561
  843SOL     OW 2527   0.475   1.734   2.495  0.3520  0.0545  0.0567
  843SOL    HW1 2528   0.392   1.756   2.441  1.9580  1.3866  0.0546
  843SOL    HW2 2529   0.471   1.646   2.547 -1.5306 -1.5904 -2.6061
  844SOL     OW 2530   1.489   1.908   2.165  0.3736 -0.2756  0.2472
  844SOL    HW1 2531   1.481   1.928   2.065  0.3659  0.2606 -0.1503
  844SOL    HW2 2532   1.564   1.967   2.202 -0.3021  0.3271 -2.8886
  845SOL     OW 2533   2.340   2.894   2.741 -0.0960 -0.0217 -0.0014
  845SOL    HW1 2534   2.441   2.907   2.742  3.3080 -0.2502 -2.1935
  845SOL    HW2 2535   2.299   2.982   2.714  0.2333  0.4141 -0.0268
  846SOL     OW 2536   2.094   1.672   2.919  0.2405  0.0023  0.2887
  846SOL    HW1 2537   2.025   1.736   2.880 -1.2370  3.6007 -1.4846
  846SOL    HW2 2538   2.086   1.666   3.016 -0.8950 -0.8024  0.1496
  847SOL     OW 2539   2.636   0.111   2.831 -0.0295  0.2999 -0.4933
  847SOL    HW1 2540   2.602   0.063   2.915  0.5907  1.0052  0.9371
  847SOL    HW2 2541   2.726   0.080   2.788 -0.8781 -1.1086  0.2585
  848SOL     OW 2542   2.743   0.659   0.174  0.1109  0.7091 -1.0666
  848SOL    HW1 2543   2.649   0.618   0.153 -2.9936  0.4770 -0.0947
  848SOL    HW2 2544   2.790   0.612   0.250  0.6707  1.5480 -1.5127
  849SOL     OW 2545   1.374   0.176   2.538  0.0362  0.3491 -0.3771
  849SOL    HW1 2546   1.280   0.144   2.567 -0.0122  0.6034 -1.9338
  849SOL    HW2 2547   1.425   0.190   2.628  1.0793 -0.7800 -0.5620
  850SOL     OW 2548   2.449   0.790   0.400 -0.3310  0.4691  0.3509
  850SOL    HW1 2549   2.427   0.694   0.367 -0.7263  1.3103 -0.4432
  850SOL    HW2 2550   2.494   0.792   0.494  2.3954 -0.7920  1.1617
  851SOL     OW 2551   0.341   1.068   1.009  0.3160 -0.0230  0.0500
  851SOL    HW1 2552   0.330   0.967   1.010  1.2216  0.1516 -1.4450
  851SOL    HW2 2553   0.246   1.115   1.016 -2.2504 -0.4382 -0.2767
  852SOL     OW 2554   1.250   0.813   2.056  0.3596 -0.2603  0.1678
  852SOL    HW1 2555   1.245   0.870   2.134  0.1819 -3.7853 -1.0018
  852SOL    HW2 2556   1.168   0.751   2.046  0.0670 -2.0607 -0.2254
  853SOL     OW 2557   1.798   1.297   2.848  0.2468 -0.6784 -0.1434
  853SOL    HW1 2558   1.866   1.326   2.783 -0.4067 -1.6042  1.3105
  853SOL    HW2 2559   1.827   1.207   2.877 -0.2647  1.0925  0.1061
  854SOL     OW 2560   1.456   1.238   1.958  0.7268  0.0518 -0.2062
  854SOL    HW1 2561   1.415   1.171   1.898  0.9076 -0.8104  3.3266
  854SOL    HW2 2562   1.417   1.328   1.940 -0.5031  1.2939 -1.3041
  855SOL     OW 2563   0.409   2.342   2.160 -0.2092 -0.2827 -0.0791
  855SOL    HW1 2564   0.336   2.265   2.156 -0.9287 -2.2361 -2.4529
  855SOL    HW2 2565   0.389   2.398   2.243 -1.8856  0.8729 -1.1272
  856SOL     OW 2566   1.122   0.990   2.447 -0.1835 -0.1127  0.2352
  856SOL    HW1 2567   1.041   1.025   2.494  0.4930  1.1265 -0.5048
  856SOL    HW2 2568   1.117   1.000   2.342  0.4182  0.9911 -1.2269
  857SOL     OW 2569   0.855   1.027   2.545 -0.1640  0.4268  0.1833
  857SOL    HW1 2570   0.800   1.044   2.627  1.4076 -0.5584 -1.2773
  857SOL    HW2 2571   0.865   0.926   2.525 -0.8026 -0.0207 -1.1788
  858SOL     OW 2572   0.138   0.520   1.851  0.3844 -0.4669  0.4018
  858SOL    HW1 2573   0.033   0.509   1.853 -1.1961 -1.9657  4.2323
  858SOL    HW2 2574   0.174   0.457   1.921  2.9647 -0.4113 -0.4618
  859SOL     OW 2575   2.324   2.956   0.909  0.4456  0.2311  0.4722
  859SOL    HW1 2576   2.402   2.961   0.977 -2.2247  0.9675 -0.8675
  859SOL    HW2 2577   2.230   2.985   0.943 -1.7614  0.9221 -0.2434
  860SOL     OW 2578   1.385   0.429   1.647 -0.0923  0.2528  0.0481
  860SOL    HW1 2579   1.431   0.344   1.680 -0.5434  0.1515  1.5899
  860SOL    HW2 2580   1.428   0.469   1.563  0.9675  0.5059 -0.8999
  861SOL     OW 2581   1.824   0.850   1.368  0.2243  0.0673  0.9296
  861SOL    HW1 2582   1.751   0.785   1.414 -1.3976 -1.6325  0.0909
  861SOL    HW2 2583   1.896   0.868   1.436 -2.3979 -1.6870 -2.0010
  862SOL     OW 2584   1.183   2.913   2.354 -0.4228 -0.2251 -0.1351
  862SOL    HW1 2585   1.162   2.813   2.333 -0.9835 -2.5802 -0.9202
  862SOL    HW2 2586   1.135   2.936   2.437 -0.4573  0.4403 -1.8672
  863SOL     OW 2587   2.670   0.191   1.457 -0.7061  0.5022 -0.0902
  863SOL    HW1 2588   2.608   0.257   1.497  0.9352  0.0322 -0.2066
  863SOL    HW2 2589   2.728   0.223   1.383  0.3502 -2.8171  0.9982
  864SOL     OW 2590   2.924   3.014   2.292  0.0729 -0.2357  0.1225
  864SOL    HW1 2591   2.825   3.005   2.283 -1.7347  1.0227 -0.1450
  864SOL    HW2 2592   2.968   3.066   2.216  1.9909 -1.0450 -0.0094
  865SOL     OW 2593   1.100   1.357   2.399  0.7883  0.3023 -0.6410
  865SOL    HW1 2594   1.025   1.284   2.397 -0.4614 -1.2242  2.3456
  865SOL    HW2 2595   1.061   1.445   2.434  1.1280  0.7202 -1.9579
  866SOL     OW 2596   2.729   2.910   0.877 -0.9988  0.6840  0.2993
  866SOL    HW1 2597   2.815   2.870   0.912  1.6136  0.3929  0.8658
  866SOL    HW2 2598   2.657   2.918   0.952 -1.1643 -3.1696  4.5096
  867SOL     OW 2599   2.924   2.744   1.215  0.0938  0.6153  0.0004
  867SOL    HW1 2600   2.944   2.731   1.116  0.9155 -1.9893 -0.1433
  867SOL    HW2 2601   2.956   2.664   1.274 -0.2354 -1.8745 -0.7885
  868SOL     OW 2602   2.818   1.475   1.510 -0.3010  0.0580 -0.3796
  868SOL    HW1 2603   2.720   1.501   1.505 -3.4153  2.1891  0.7735
  868SOL    HW2 2604   2.829   1.391   1.456 -1.1353 -0.0361 -1.0065
  869SOL     OW 2605   2.081   2.184   2.355  0.2633  0.3750  0.4953
  869SOL    HW1 2606   2.123   2.268   2.385 -1.6981 -3.0249 -0.9983
  869SOL    HW2 2607   2.058   2.116   2.422 -0.3089  1.0733 -3.6312
  870SOL     OW 2608   1.446   0.909   0.762  0.2529  0.1352  0.0097
  870SOL    HW1 2609   1.476   0.867   0.851 -1.9197 -1.7166 -0.7548
  870SOL    HW2 2610   1.382   0.989   0.770  1.2947 -0.6307 -2.7118
  871SOL     OW 2611   2.633   1.718   2.016  0.0775  0.0495 -0.0160
  871SOL    HW1 2612   2.543   1.670   2.026 -0.4066  3.2088 -0.3305
  871SOL    HW2 2613   2.657   1.732   1.919 -1.4478 -0.7819 -1.6569
  872SOL     OW 2614   1.107   1.601   2.811  0.8930  0.3307  0.1376
  872SOL    HW1 2615   1.026   1.652   2.851 -1.4217  0.0265 -0.5000
  872SOL    HW2 2616   1.176   1.595   2.885  0.1863 -0.2907  0.8043
  873SOL     OW 2617   0.922   1.170   1.670  0.1783  0.4844  0.4107
  873SOL    HW1 2618   0.926   1.070   1.698 -1.8360 -1.0605  0.6357
  873SOL    HW2 2619   0.891   1.179   1.571  2.1229 -0.2545  2.4649
  874SOL     OW 2620   1.278   0.813   1.518  0.3093  0.6536  0.0475
  874SOL    HW1 2621   1.369   0.832   1.551  0.7859  0.1810  0.1519
  874SOL    HW2 2622   1.219   0.755   1.579 -2.4024 -2.0726  1.4831
  875SOL     OW 2623   2.622   2.913   2.679  0.0560 -0.3183 -0.4491
  875SOL    HW1 2624   2.631   2.998   2.625  1.6928  0.9800 -0.0777
  875SOL    HW2 2625   2.721   2.878   2.702  0.5362 -0.3130 -1.8682
  876SOL     OW 2626   0.995   1.146   0.689  0.4831  0.0380 -0.2639
  876SOL    HW1 2627   0.896   1.122   0.696 -1.0954 -0.6315  0.3269
  876SOL    HW2 2628   1.018   1.217   0.621  1.3304  0.7160  1.5576
  877SOL     OW 2629   1.907   2.921   0.573  0.2458 -0.2866  0.4085
  877SOL    HW1 2630   1.841   2.961   0.511  1.0747  2.7871  0.5592
  877SOL    HW2 2631   1.996   2.969   0.563 -0.9860 -1.4003 -1.6110
  878SOL     OW 2632   2.182   2.233   0.266  0.1052 -0.0097  0.4143
  878SOL    HW1 2633   2.107   2.202   0.199 -3.1346 -2.0325 -1.5342
  878SOL    HW2 2634   2.224   2.150   0.309 -2.8874 -2.6896  1.9215
  879SOL     OW 2635   0.283   2.451   1.639  0.0717 -0.1770  0.2319
  879SOL    HW1 2636   0.231   2.466   1.726  0.4370 -0.2141  0.6244
  879SOL    HW2 2637   0.223   2.391   1.578  1.8194 -2.1513 -1.0348
  880SOL     OW 2638   0.065   1.768   0.865 -0.0950 -0.2867 -0.0312
  880SOL    HW1 2639   0.085   1.855   0.913 -0.7809 -0.2904 -1.6799
  880SOL    HW2 2640   0.134   1.752   0.790  1.3193 -0.0620 -2.2465
  881SOL     OW 2641   1.450   2.951   2.307  0.3260 -0.0085  0.0215
  881SOL    HW1 2642   1.353   2.927   2.314  2.4568  1.1323 -1.3888
  881SOL    HW2 2643   1.460   3.052   2.307 -0.0630  0.7494  1.0162
  882SOL     OW 2644   2.311   1.288   0.536  0.1859  0.1264  0.4983
  882SOL    HW1 2645   2.226   1.228   0.552 -2.8509 -3.6450 -2.3262
  882SOL    HW2 2646   2.375   1.297   0.620 -0.4564  3.3107 -0.4990
  883SOL     OW 2647   1.445   0.616   2.247  0.4543  0.1755  0.0350
  883SOL    HW1 2648   1.383   0.677   2.304 -3.3162  2.8180 -0.9515
  883SOL    HW2 2649   1.478   0.665   2.165 -1.6649  1.1068 -1.6014
  884SOL     OW 2650   0.116   0.118   1.883  0.3936  0.0085  0.2920
  884SOL    HW1 2651   0.033   0.161   1.840 -1.7778  2.2165  0.1645
  884SOL    HW2 2652   0.198   0.163   1.844  0.0554 -1.8327  1.7782
  885SOL     OW 2653   1.912   1.349   2.599  0.4218 -0.3719  0.3815
  885SOL    HW1 2654   1.920   1.435   2.541 -1.0323  1.7062 -0.2136
  885SOL    HW2 2655   1.876   1.277   2.542  1.8775 -0.8182  1.2991
  886SOL     OW 2656   1.874   0.392   2.735  0.0861 -0.1109  0.4338
  886SOL    HW1 2657   1.930   0.391   2.650  0.5111 -1.4767  2.8909
  886SOL    HW2 2658   1.772   0.406   2.720 -1.6747 -1.4502 -2.3016
  887SOL     OW 2659   1.119   2.772   1.447 -0.5102  0.3961 -0.7700
  887SOL    HW1 2660   1.134   2.859   1.398 -1.9996  2.1718  0.4243
  887SOL    HW2 2661   1.022   2.746   1.447 -0.2312 -0.9169  0.1219
  888SOL     OW 2662   2.254   1.456   1.565 -0.2377 -0.2619  0.5154
  888SOL    HW1 2663   2.200   1.542   1.575  0.0230  1.2716  0.4842
  888SOL    HW2 2664   2.334   1.462   1.627  1.2553  1.4475  0.0316
  889SOL     OW 2665   1.925   2.562   1.379  0.0589  0.2031  0.8027
  889SOL    HW1 2666   1.978   2.512   1.309  2.2442  0.0165  2.2186
  889SOL    HW2 2667   1.927   2.516   1.469  2.0701  1.5011 -0.9670
  890SOL     OW 2668   0.993   2.195   0.875  0.0536  0.3526 -0.4297
  890SOL    HW1 2669   0.996   2.129   0.794  0.0896  0.7883 -1.5341
  890SOL    HW2 2670   1.088   2.220   0.902  5.0724  1.1055  0.8429
  891SOL     OW 2671   2.589   1.336   0.293  0.1867  0.4508  0.4422
  891SOL    HW1 2672   2.525   1.351   0.213 -1.6969 -2.4298  0.7331
  891SOL    HW2 2673   2.640   1.421   0.316 -0.7594 -0.4783 -1.6396
  892SOL     OW 2674   2.421   1.627   2.596  0.5178 -0.6789  0.2396
  892SOL    HW1 2675   2.482   1.565   2.546 -0.9950  3.2736 -0.8063
  892SOL    HW2 2676   2.327   1.581   2.610 -2.3038 -2.3971  0.3553
  893SOL     OW 2677   2.302   2.703   1.111 -0.3301  0.7121  0.2847
  893SOL    HW1 2678   2.273   2.736   1.018 -3.2865  0.9773 -1.4757
  893SOL    HW2 2679   2.397   2.669   1.104 -4.0076  1.1565 -2.1241
  894SOL     OW 2680   2.845   0.475   0.768 -0.2663  0.4714  0.4608
  894SOL    HW1 2681   2.749   0.485   0.735  0.1373  0.9039 -0.6982
  894SOL    HW2 2682   2.913   0.496   0.694 -1.4347 -0.1331  4.2917
  895SOL     OW 2683   2.730   2.508   2.440 -0.3391 -0.0591  0.0932
  895SOL    HW1 2684   2.754   2.508   2.340 -1.0550 -0.7705 -1.3741
  895SOL    HW2 2685   2.812   2.483   2.496  0.0505 -0.1129 -1.4691
  896SOL     OW 2686   2.301   2.698   2.390  0.3367 -0.7227 -0.0613
  896SOL    HW1 2687   2.396   2.685   2.424  0.5794  2.4603  0.8651
  896SOL    HW2 2688   2.253   2.776   2.436 -2.0295  0.3632  1.6294
  897SOL     OW 2689   0.302   1.787   2.049 -0.9366 -0.8556 -0.2687
  897SOL    HW1 2690   0.244   1.718   2.088  1.9474  4.1783 -1.9075
  897SOL    HW2 2691   0.394   1.746   2.021  1.8558 -0.7431 -0.7938
  898SOL     OW 2692   0.014   1.940   2.307  0.8105 -0.0610  0.0269
  898SOL    HW1 2693   0.001   1.851   2.361  2.3107 -5.5507  2.4625
  898SOL    HW2 2694   3.026   2.003   2.303 -0.3645 -2.9954  1.4175
  899SOL     OW 2695   1.943   0.010   1.227  0.3383 -0.1716  0.2773
  899SOL    HW1 2696   1.895   3.070   1.307  1.2633  1.2824 -1.6676
  899SOL    HW2 2697   2.019   0.065   1.253 -4.0531 -1.1917  0.4291
  900SOL     OW 2698   1.343   1.186   0.494 -0.0824 -0.6066 -0.8363
  900SOL    HW1 2699   1.436   1.222   0.482 -0.1019 -3.5392 -0.9133
  900SOL    HW2 2700   1.316   1.125   0.416 -0.3529 -1.4415  2.7962
  901SOL     OW 2701   1.230   1.275   2.621  0.2633 -0.1859  0.0259
  901SOL    HW1 2702   1.189   1.300   2.531 -4.2299  1.7315  0.4392
  901SOL    HW2 2703   1.294   1.343   2.655 -1.0703 -0.0956  0.7747
  902SOL     OW 2704   2.793   2.297   0.754 -0.0147 -0.3309  0.0571
  902SOL    HW1 2705   2.873   2.352   0.788  0.4475 -0.4960 -1.8689
  902SOL    HW2 2706   2.711   2.298   0.815  0.4015  0.3603  1.0574
  903SOL     OW 2707   0.080   1.224   2.042 -0.3541 -0.9856  0.0473
  903SOL    HW1 2708   0.146   1.291   2.002  0.3992  1.3471 -4.1590
  903SOL    HW2 2709   3.091   1.266   2.079 -3.5268 -3.5446 -0.5290
  904SOL     OW 2710   1.157   1.396   0.186  0.0465 -0.2669  0.1881
  904SOL    HW1 2711   1.111   1.358   0.103  1.0166 -3.0449  4.4575
  904SOL    HW2 2712   1.125   1.352   0.270  3.4867  2.1689 -0.5101
  905SOL     OW 2713   2.537   2.323   1.562  0.1333  0.7764  0.1543
  905SOL    HW1 2714   2.497   2.399   1.517 -0.1401 -3.8045  0.5251
  905SOL    HW2 2715   2.587   2.359   1.642 -0.9569 -2.5434 -1.5483
  906SOL     OW 2716   1.817   2.477   2.942 -0.4284  0.0697  0.1158
  906SOL    HW1 2717   1.867   2.433   3.019  0.0642 -1.0654  1.0341
  906SOL    HW2 2718   1.849   2.577   2.946  0.6121  0.5996 -0.9130
  907SOL     OW 2719   0.320   2.672   0.889  0.1339  0.7708 -0.2583
  907SOL    HW1 2720   0.364   2.580   0.916 -1.0014 -1.9830 -1.6362
  907SOL    HW2 2721   0.388   2.735   0.853 -0.5681 -1.8471  0.1882
  908SOL     OW 2722   0.587   0.090   1.924  0.6946 -0.5900  0.7648
  908SOL    HW1 2723   0.576   0.043   2.013 -2.4753  3.3324 -0.9161
  908SOL    HW2 2724   0.602   0.024   1.850 -0.0359  0.5601 -1.1948
  909SOL     OW 2725   1.897   0.401   1.381  0.3747 -0.0870 -0.3332
  909SOL    HW1 2726   1.997   0.423   1.380  0.2434 -0.2669 -0.2325
  909SOL    HW2 2727   1.869   0.400   1.283 -1.3355  0.1397  0.1482
  910SOL     OW 2728   0.725   0.641   0.350  0.0525  0.4866  0.0980
  910SOL    HW1 2729   0.732   0.738   0.373 -1.9113 -1.8364  0.6773
  910SOL    HW2 2730   0.628   0.622   0.318 -1.3104 -1.9256  1.5420
  911SOL     OW 2731   0.153   0.426   2.978 -0.6952  0.5938  0.2486
  911SOL    HW1 2732   0.087   0.468   3.043  0.9457  1.8088  0.4029
  911SOL    HW2 2733   0.110   0.350   2.930 -0.1331  2.3968  1.9611
  912SOL     OW 2734   2.949   2.429   2.608 -0.5625 -0.4223  0.6720
  912SOL    HW1 2735   2.978   2.519   2.649  0.2423  1.5088  1.2347
  912SOL    HW2 2736   2.932   2.362   2.688 -1.0677 -2.4177  3.1334
  913SOL     OW 2737   2.352   2.355   0.058  0.0282  0.3312 -0.2297
  913SOL    HW1 2738   2.308   2.279   0.117 -0.1743 -1.1962  1.3435
  913SOL    HW2 2739   2.283   2.406   0.001 -0.4552  2.5972 -1.8036
  914SOL     OW 2740   1.543   1.660   1.757 -0.0867 -0.2303  0.4030
  914SOL    HW1 2741   1.548   1.598   1.837 -1.1824  0.2200 -0.8229
  914SOL    HW2 2742   1.583   1.748   1.783  0.6264 -0.4479  2.1034
  915SOL     OW 2743   2.867   2.536   2.177 -0.4581 -0.4954  0.2152
  915SOL    HW1 2744   2.969   2.527   2.198  3.0798  2.3528  0.4098
  915SOL    HW2 2745   2.840   2.591   2.092 -1.1064 -2.9098 -2.4818
  916SOL     OW 2746   3.004   0.854   1.963  0.3667 -0.1597 -0.6123
  916SOL    HW1 2747   3.061   0.921   1.910 -1.0991 -1.8482 -0.5115
  916SOL    HW2 2748   3.069   0.788   2.009 -1.5095 -1.9352  0.9984
  917SOL     OW 2749   1.956   0.210   2.937 -1.0878 -0.0094 -0.3228
  917SOL    HW1 2750   1.881   0.210   3.010 -1.9421  0.6446  1.1722
  917SOL    HW2 2751   1.929   0.277   2.858 -4.0012  2.0205  0.2373
  918SOL     OW 2752   1.890   2.494   2.198 -0.3039 -0.4289  0.2616
  918SOL    HW1 2753   1.871   2.512   2.295  0.3276  1.0994 -0.7808
  918SOL    HW2 2754   1.990   2.492   2.181 -2.5924 -0.1165 -0.5966
  919SOL     OW 2755   2.208   2.187   2.089 -0.4557 -0.6349 -0.6078
  919SOL    HW1 2756   2.149   2.160   2.168 -4.5305  1.2793  3.1336
  919SOL    HW2 2757   2.179   2.147   2.000 -0.5313 -1.9970 -0.5330
  920SOL     OW 2758   0.361   0.967   0.328  0.0080  0.3725  0.0032
  920SOL    HW1 2759   0.342   0.879   0.383  1.8675  1.5683  1.9622
  920SOL    HW2 2760   0.290   1.038   0.346  0.5332 -0.0548 -0.9807
  921SOL     OW 2761   2.668   1.151   2.659 -0.2018 -0.0882  0.5255
  921SOL    HW1 2762   2.661   1.119   2.755  1.2981  0.8430  0.8416
  921SOL    HW2 2763   2.739   1.221   2.647  0.6765  1.2172 -0.6553
  922SOL     OW 2764   0.494   1.846   0.067 -0.1533 -0.5677  0.0336
  922SOL    HW1 2765   0.521   1.844   3.065 -1.3582  0.9183 -1.9868
  922SOL    HW2 2766   0.411   1.787   0.073  2.5685 -0.9043 -2.9866
  923SOL     OW 2767   0.574   0.941   2.132 -0.2920 -0.6062 -0.8153
  923SOL    HW1 2768   0.520   0.899   2.060  0.7441  1.0662  1.5298
  923SOL    HW2 2769   0.651   0.882   2.169 -0.1615 -2.3326  2.0202
  924SOL     OW 2770   0.652   2.496   2.638 -0.3935 -0.7511 -0.3018
  924SOL    HW1 2771   0.727   2.433   2.617 -2.3110 -0.2112  0.1212
  924SOL    HW2 2772   0.664   2.520   2.736 -1.0885 -0.8708 -1.7441
  925SOL     OW 2773   1.847   1.419   0.927 -0.3610 -0.4891 -0.5828
  925SOL    HW1 2774   1.866   1.327   0.888 -0.1456  2.0694 -0.3369
  925SOL    HW2 2775   1.843   1.482   0.849  1.5378 -0.8760  0.3351
  926SOL     OW 2776   1.617   0.416   2.294  0.3665  0.6926 -0.1240
  926SOL    HW1 2777   1.558   0.499   2.283 -1.4454 -4.9755 -2.1574
  926SOL    HW2 2778   1.704   0.440   2.334  0.0147 -1.1202 -0.1133
  927SOL     OW 2779   2.720   2.676   1.737  0.1427 -0.3591  0.1019
  927SOL    HW1 2780   2.819   2.670   1.722 -2.0315  0.0143 -1.9040
  927SOL    HW2 2781   2.685   2.729   1.657  2.7884  1.2255  1.0524
  928SOL     OW 2782   0.301   0.998   2.799 -0.4992 -0.0807 -0.1850
  928SOL    HW1 2783   0.238   1.044   2.868  1.0769  2.9995  0.5511
  928SOL    HW2 2784   0.349   0.918   2.839  0.2843 -0.1508 -0.7492
  929SOL     OW 2785   3.040   0.128   0.897  0.2589 -0.1013  0.3736
  929SOL    HW1 2786   3.057   0.044   0.846  0.3790  0.6169 -0.5082
  929SOL    HW2 2787   0.034   0.160   0.938  2.4646  0.1877 -2.6174
  930SOL     OW 2788   2.307   0.140   1.891  0.5448  0.1788  0.1753
  930SOL    HW1 2789   2.242   0.058   1.899 -1.0306  0.6102 -1.5813
  930SOL    HW2 2790   2.316   0.160   1.793  1.3573 -0.8307 -2.2137
  931SOL     OW 2791   2.137   1.201   2.987 -0.3209 -0.8237  0.3823
  931SOL    HW1 2792   2.223   1.142   2.987  0.0926 -0.7597  1.0104
  931SOL    HW2 2793   2.154   1.283   2.929 -1.7087 -1.7900  0.0846
  932SOL     OW 2794   2.687   1.301   1.742 -0.1801 -0.2026 -0.1938
  932SOL    HW1 2795   2.755   1.353   1.792  2.2405 -2.3898  1.9373
  932SOL    HW2 2796   2.690   1.212   1.783 -0.8687 -0.3638 -1.4029
  933SOL     OW 2797   3.011   2.563   1.689 -0.0559 -0.3648 -0.5258
  933SOL    HW1 2798   3.068   2.506   1.755  1.5867 -1.4749 -0.7403
  933SOL    HW2 2799   3.031   2.662   1.682 -0.5649 -0.8845 -3.1989
  934SOL     OW 2800   0.738   2.921   1.104  0.2443 -0.1179 -0.4756
  934SOL    HW1 2801   0.802   2.844   1.090 -0.0520  1.9875  0.6774
  934SOL    HW2 2802   0.722   2.933   1.207 -2.5296  0.2509  2.1419
  935SOL     OW 2803   2.431   1.156   2.117  0.2255 -0.0928  0.2499
  935SOL    HW1 2804   2.520   1.203   2.138 -1.2560  0.0162 -1.5885
  935SOL    HW2 2805   2.349   1.211   2.147 -1.1674  4.9079  4.2071
  936SOL     OW 2806   2.227   1.047   1.787  0.1375 -0.5439  0.2593
  936SOL    HW1 2807   2.252   1.119   1.719  1.6954  2.0162  0.4160
  936SOL    HW2 2808   2.307   1.028   1.844 -4.3287 -1.1452  1.6441
  937SOL     OW 2809   1.894   1.135   2.146 -0.4603 -0.4273 -0.0463
  937SOL    HW1 2810   1.808   1.149   2.090  0.7935 -0.6707  1.3863
  937SOL    HW2 2811   1.952   1.056   2.125  0.6615  0.7536  1.0389
  938SOL     OW 2812   0.786   2.573   0.038  0.6758  0.5291 -0.1897
  938SOL    HW1 2813   0.707   2.516   0.078 -1.0054 -0.1924 -0.4617
  938SOL    HW2 2814   0.790   2.660   0.088 -0.4171  0.8673 -0.6194
  939SOL     OW 2815   2.510   0.850   3.029 -0.1249  0.2290  0.4735
  939SOL    HW1 2816   2.555   0.933   2.998 -0.7470 -2.9886  3.2780
  939SOL    HW2 2817   2.461   0.871   0.016  1.1414  1.0598  0.2077
  940SOL     OW 2818   1.136   1.956   0.945  0.2312  0.1539 -0.7464
  940SOL    HW1 2819   1.137   1.862   0.913 -0.2460  3.5978  1.7200
  940SOL    HW2 2820   1.223   2.008   0.921  2.1526  1.2111 -0.8713
  941SOL     OW 2821   0.894   2.006   1.491  0.2072  0.2428 -0.0263
  941SOL    HW1 2822   0.920   1.979   1.396 -1.7153  0.6190  0.2190
  941SOL    HW2 2823   0.802   2.052   1.492  1.5702  0.5815  1.5173
  942SOL     OW 2824   0.241   2.199   2.875  0.0678  0.1707  0.0656
  942SOL    HW1 2825   0.336   2.207   2.832 -1.4891  2.5331 -0.0351
  942SOL    HW2 2826   0.183   2.143   2.812  1.7613 -0.7937  0.2877
  943SOL     OW 2827   2.043   2.895   1.670  0.2667  0.4769  0.0045
  943SOL    HW1 2828   2.000   2.821   1.728 -0.6570  1.1067  1.2858
  943SOL    HW2 2829   2.056   2.857   1.576 -0.1995  0.8331  2.1661
  944SOL     OW 2830   1.302   1.914   2.964  0.3285  0.3544 -0.0903
  944SOL    HW1 2831   1.380   1.972   2.931  0.0143  2.6450 -3.7338
  944SOL    HW2 2832   1.210   1.951   2.948  1.5009  1.3090  4.2020
  945SOL     OW 2833   2.524   2.595   0.822  0.1714 -0.0652  0.0827
  945SOL    HW1 2834   2.428   2.595   0.790 -0.4322  0.1216 -1.3713
  945SOL    HW2 2835   2.580   2.668   0.784 -2.0798 -3.5613 -0.4165
  946SOL     OW 2836   1.070   1.600   2.519  0.9717  0.6355  0.2614
  946SOL    HW1 2837   1.112   1.684   2.492 -0.6196 -1.8032 -0.3656
  946SOL    HW2 2838   1.094   1.591   2.619 -0.0317 -1.5648  1.0998
  947SOL     OW 2839   0.093   0.696   2.067 -0.3668  0.5676  0.3507
  947SOL    HW1 2840   0.182   0.740   2.083 -1.3890 -1.9620 -1.0950
  947SOL    HW2 2841   0.101   0.622   1.992 -1.4018 -0.0029  2.9957
  948SOL     OW 2842   3.011   1.301   0.810 -0.2617 -0.0808 -0.5529
  948SOL    HW1 2843   2.974   1.264   0.898 -0.7705  2.8354 -0.9327
  948SOL    HW2 2844   2.942   1.317   0.742  0.7183 -0.6766  1.2683
  949SOL     OW 2845   0.889   0.787   2.196  0.1164  0.4588  0.3670
  949SOL    HW1 2846   0.956   0.715   2.164  0.7245  2.7135  2.7091
  949SOL    HW2 2847   0.870   0.850   2.122 -0.1647 -0.6040  3.6175
  950SOL     OW 2848   0.180   0.647   1.490  0.2749 -0.0723  0.1190
  950SOL    HW1 2849   0.223   0.740   1.484 -1.4705 -0.6690  0.8861
  950SOL    HW2 2850   0.234   0.588   1.555  0.7999 -1.0391 -0.5305
  951SOL     OW 2851   0.448   1.112   2.573  0.3309  0.0090  0.6159
  951SOL    HW1 2852   0.453   1.054   2.488  0.8301  2.4205  1.0885
  951SOL    HW2 2853   0.395   1.057   2.644 -0.0156 -2.0289 -1.2329
  952SOL     OW 2854   1.829   2.130   0.788  0.7199  0.2731  0.7008
  952SOL    HW1 2855   1.883   2.196   0.841  0.2081 -0.5088  0.1916
  952SOL    HW2 2856   1.864   2.034   0.801  2.8252  0.7524 -0.3249
  953SOL     OW 2857   0.437   0.262   0.309  0.5501 -0.1329 -0.3039
  953SOL    HW1 2858   0.528   0.273   0.352  1.5881 -2.5765 -1.1855
  953SOL    HW2 2859   0.358   0.285   0.372 -2.0833  0.6671  1.5383
  954SOL     OW 2860   2.476   0.897   1.178 -0.1016  1.2327  0.0078
  954SOL    HW1 2861   2.385   0.856   1.148 -0.4888 -1.3942 -1.1103
  954SOL    HW2 2862   2.535   0.821   1.205  0.3135  1.4840  0.3748
  955SOL     OW 2863   1.597   1.389   2.992 -0.3531 -0.0954 -0.0230
  955SOL    HW1 2864   1.665   1.340   2.931  0.1635 -1.2416  0.4647
  955SOL    HW2 2865   1.508   1.337   2.999 -1.0011 -2.8352 -2.3274
  956SOL     OW 2866   0.973   0.526   2.380  0.0352  0.1743  0.1818
  956SOL    HW1 2867   0.996   0.453   2.316 -1.2133  3.3803  3.0017
  956SOL    HW2 2868   1.012   0.518   2.473 -1.2286 -0.7208 -2.6169
  957SOL     OW 2869   1.539   0.219   1.692  0.5128  0.0281 -0.1643
  957SOL    HW1 2870   1.559   0.153   1.758  2.6195  4.1589 -1.4069
  957SOL    HW2 2871   1.601   0.204   1.612 -0.7360  0.4972  0.9800
  958SOL     OW 2872   0.512   2.114   0.463 -0.1042 -0.4897  0.3855
  958SOL    HW1 2873   0.570   2.128   0.383 -0.2881  0.6267 -0.0528
  958SOL    HW2 2874   0.408   2.116   0.442  0.1949 -1.6181  2.6285
  959SOL     OW 2875   1.879   0.754   1.752  0.3368 -0.2543  0.2964
  959SOL    HW1 2876   1.952   0.768   1.820  2.4951 -0.9181 -0.5867
  959SOL    HW2 2877   1.861   0.655   1.749  0.8373  0.3353  0.8908
  960SOL     OW 2878   0.230   1.838   2.877 -0.6030 -1.0318 -0.0563
  960SOL    HW1 2879   0.326   1.808   2.903 -1.5220  0.0043  1.6942
  960SOL    HW2 2880   0.155   1.787   2.927 -0.3159 -1.8217  1.5086
  961SOL     OW 2881   0.667   2.088   0.887  0.2733  0.1095 -0.2545
  961SOL    HW1 2882   0.681   2.168   0.949 -2.5395 -1.9047  0.4928
  961SOL    HW2 2883   0.748   2.022   0.897 -2.3594  0.5634  0.3600
  962SOL     OW 2884   0.236   1.594   1.403 -0.4041  0.0986 -0.0887
  962SOL    HW1 2885   0.227   1.594   1.299 -1.9893 -0.5508 -0.5998
  962SOL    HW2 2886   0.155   1.622   1.458  1.4807  0.3374 -0.1047
  963SOL     OW 2887   1.513   1.872   2.537  0.2665 -0.1440 -0.7004
  963SOL    HW1 2888   1.581   1.797   2.518 -0.4337 -1.2849 -1.3001
  963SOL    HW2 2889   1.568   1.957   2.564 -0.5974  1.3162 -1.7346
  964SOL     OW 2890   0.250   2.933   2.162 -0.4442 -0.2100 -0.1720
  964SOL    HW1 2891   0.163   2.889   2.189  2.5653 -0.4366 -0.4899
  964SOL    HW2 2892   0.323   2.909   2.234 -0.9567 -1.2685  0.5762
  965SOL     OW 2893   2.930   2.231   2.829  0.0531  0.2690  0.3529
  965SOL    HW1 2894   2.835   2.223   2.861 -2.1484 -0.4472 -0.9066
  965SOL    HW2 2895   2.955   2.166   2.752 -1.4485  1.6532 -2.1651
  966SOL     OW 2896   2.629   1.747   2.751 -0.0991 -0.0071 -0.2569
  966SOL    HW1 2897   2.574   1.698   2.681  0.3030  1.0024 -0.8069
  966SOL    HW2 2898   2.618   1.712   2.846  0.0723  1.2424  1.7615
  967SOL     OW 2899   1.782   0.172   0.080  0.3310  0.2309 -0.1924
  967SOL    HW1 2900   1.829   0.087   0.065 -2.8526  2.7214  2.9869
  967SOL    HW2 2901   1.705   0.152   0.147 -0.8301  0.9108 -1.1839
  968SOL     OW 2902   2.731   0.033   0.709  0.7044  0.3702 -0.5959
  968SOL    HW1 2903   2.715   3.045   0.767 -4.7119 -1.9850 -1.6406
  968SOL    HW2 2904   2.646   0.090   0.706 -1.3330 -2.1793 -1.6706
  969SOL     OW 2905   0.463   0.883   1.834  0.1490 -0.2306 -0.0757
  969SOL    HW1 2906   0.490   0.982   1.835 -0.7360 -2.6348  0.2205
  969SOL    HW2 2907   0.364   0.867   1.811  1.4940  0.3829  1.6925
  970SOL     OW 2908   1.678   1.647   2.903  0.6314  0.6802  0.4268
  970SOL    HW1 2909   1.670   1.553   2.939  1.4024 -0.4021  1.7997
  970SOL    HW2 2910   1.721   1.710   2.971  0.1443 -1.5298 -0.7189
  971SOL     OW 2911   2.312   0.206   1.608  0.0346  0.2528 -0.3331
  971SOL    HW1 2912   2.216   0.247   1.605 -2.7252  0.6023  4.4166
  971SOL    HW2 2913   2.333   0.144   1.533 -0.1735  2.4512  0.0630
  972SOL     OW 2914   2.827   0.279   0.970  0.0748  0.4976  0.5155
  972SOL    HW1 2915   2.844   0.369   0.929 -1.7520  2.5112 -0.3022
  972SOL    HW2 2916   2.900   0.211   0.949 -3.0592 -1.1629  0.4809
  973SOL     OW 2917   0.402   0.520   2.466  0.0086 -1.2940 -0.0332
  973SOL    HW1 2918   0.437   0.614   2.457  3.7504 -1.4010  2.1937
  973SOL    HW2 2919   0.434   0.480   2.557 -0.8710  1.0420 -0.4831
  974SOL     OW 2920   2.706   1.059   1.858 -0.9345  0.1393 -0.6151
  974SOL    HW1 2921   2.613   1.025   1.875  2.0330 -0.1803  0.1304
  974SOL    HW2 2922   2.766   1.026   1.940  2.6107  1.9998  4.8556
  975SOL     OW 2923   1.287   2.765   1.783  0.5139 -0.0009  0.6042
  975SOL    HW1 2924   1.223   2.840   1.767 -1.1258  0.1621  1.7684
  975SOL    HW2 2925   1.259   2.676   1.736  0.2172  0.0424 -0.2420
  976SOL     OW 2926   1.591   1.379   1.171 -0.0036  0.3560 -0.3311
  976SOL    HW1 2927   1.589   1.432   1.259 -0.3652  1.2784  0.4055
  976SOL    HW2 2928   1.686   1.354   1.141  2.1356  0.9392  0.3677
  977SOL     OW 2929   0.433   2.989   0.266  0.6222 -0.3696 -0.1330
  977SOL    HW1 2930   0.517   3.038   0.300  0.9589 -0.7878 -1.1807
  977SOL    HW2 2931   0.454   2.894   0.240  1.3759  0.2821  3.0143
  978SOL     OW 2932   2.107   1.342   2.174 -0.7015  0.1996 -0.4972
  978SOL    HW1 2933   2.139   1.386   2.092 -1.9545 -0.0502  3.7357
  978SOL    HW2 2934   2.047   1.257   2.161  2.5810 -1.1914 -0.5500
  979SOL     OW 2935   1.499   0.714   2.011 -0.3298  0.6788 -0.1379
  979SOL    HW1 2936   1.400   0.737   2.034 -0.5177 -1.3316 -1.0165
  979SOL    HW2 2937   1.557   0.794   1.983 -0.7934 -1.6771  3.1532
  980SOL     OW 2938   1.831   1.835   2.417 -0.1018 -0.0608  0.0984
  980SOL    HW1 2939   1.771   1.898   2.364 -1.2188  0.6904  0.0645
  980SOL    HW2 2940   1.777   1.791   2.490 -0.7416  1.2457 -0.8935
  981SOL     OW 2941   1.506   0.485   1.898  0.0425  0.9251  0.2812
  981SOL    HW1 2942   1.442   0.488   1.820  0.7890  0.9821  2.3570
  981SOL    HW2 2943   1.512   0.578   1.946 -1.9090  1.5357  0.8630
  982SOL     OW 2944   0.479   0.560   0.268  0.2885 -0.0574  0.1085
  982SOL    HW1 2945   0.427   0.497   0.327  0.5182  1.0692 -2.6723
  982SOL    HW2 2946   0.458   0.539   0.170 -0.8471 -1.6976 -0.9257
  983SOL     OW 2947   2.212   0.672   0.006  0.8365 -0.8185  0.0665
  983SOL    HW1 2948   2.255   0.758   0.037 -0.3873  1.4941 -0.3953
  983SOL    HW2 2949   2.211   0.676   2.999  2.0865  1.6093  0.0813
  984SOL     OW 2950   0.811   0.140   2.754  0.3118 -0.3024 -0.2001
  984SOL    HW1 2951   0.811   0.166   2.657 -0.2021  1.0762  1.3242
  984SOL    HW2 2952   0.904   0.118   2.784 -3.0604  0.0202  0.6459
  985SOL     OW 2953   1.471   2.008   1.900  0.0529  0.0004 -0.4501
  985SOL    HW1 2954   1.381   1.980   1.856 -1.2939  0.4110 -0.7368
  985SOL    HW2 2955   1.480   2.104   1.927  0.0676 -0.7159 -0.0598
  986SOL     OW 2956   2.464   2.595   1.795 -0.0365  0.1339 -0.2585
  986SOL    HW1 2957   2.557   2.637   1.786  2.6388 -0.4612 -3.0940
  986SOL    HW2 2958   2.406   2.647   1.860  3.2094 -2.4633 -0.8473
  987SOL     OW 2959   1.865   1.128   0.922  0.5143  0.2607 -0.9286
  987SOL    HW1 2960   1.833   1.080   1.009 -1.5732 -1.2159 -1.8841
  987SOL    HW2 2961   1.783   1.154   0.870 -2.2543  0.5942  1.7035
  988SOL     OW 2962   2.562   1.416   2.209  0.2434 -0.3211  0.5215
  988SOL    HW1 2963   2.663   1.441   2.208  2.6888  2.5740  0.5129
  988SOL    HW2 2964   2.504   1.490   2.172  0.1900  2.3339  0.7908
  989SOL     OW 2965   1.607   2.342   0.160 -0.1104  0.2724 -0.0385
  989SOL    HW1 2966   1.513   2.382   0.169  0.5525 -1.1848  2.8987
  989SOL    HW2 2967   1.681   2.409   0.177 -1.6179  0.8546 -0.7553
  990SOL     OW 2968   1.771   0.724   2.635  0.0630 -0.3201  0.5466
  990SOL    HW1 2969   1.732   0.808   2.668  3.3619 -1.6075 -0.9022
  990SOL    HW2 2970   1.863   0.708   2.675 -0.1210  1.3853 -0.6494
  991SOL     OW 2971   0.916   0.521   1.035 -0.4891 -0.4858  0.5829
  991SOL    HW1 2972   0.944   0.588   1.107 -1.1868 -0.4632  2.0796
  991SOL    HW2 2973   0.983   0.450   1.027 -1.0953 -1.4893 -3.0356
  992SOL     OW 2974   2.870   0.976   1.229  0.1886  0.1399  0.8403
  992SOL    HW1 2975   2.779   0.994   1.254  4.4300  1.5506  0.2442
  992SOL    HW2 2976   2.899   0.878   1.221 -1.4654  0.1430 -2.6378
  993SOL     OW 2977   2.341   0.615   1.951  0.1438 -0.3281 -0.2113
  993SOL    HW1 2978   2.255   0.576   1.915  0.6723 -0.5490  2.9933
  993SOL    HW2 2979   2.394   0.672   1.883  1.9873  0.8390  0.2520
  994SOL     OW 2980   1.032   1.735   2.142  0.2337 -0.0434  0.6300
  994SOL    HW1 2981   0.980   1.648   2.159 -0.4148 -1.8268 -2.3475
  994SOL    HW2 2982   0.985   1.801   2.081 -2.0868  0.3986 -0.1252
  995SOL     OW 2983   2.202   1.428   2.855  0.3712  0.4114  0.4639
  995SOL    HW1 2984   2.180   1.409   2.756 -1.2459  0.7778  0.8413
  995SOL    HW2 2985   2.174   1.524   2.877 -0.5397 -0.3172  0.1792
  996SOL     OW 2986   2.106   1.902   0.591 -0.0459 -0.4538  0.4316
  996SOL    HW1 2987   2.046   1.902   0.673 -0.7138  0.4736  2.0830
  996SOL    HW2 2988   2.183   1.836   0.592  0.9064 -1.0109  1.5911
  997SOL     OW 2989   2.100   0.496   1.788  0.3801  0.1285 -0.0001
  997SOL    HW1 2990   2.066   0.467   1.883  0.2542 -1.1392  1.1137
  997SOL    HW2 2991   2.083   0.418   1.725  0.2697 -0.8554  1.3409
  998SOL     OW 2992   2.111   1.135   0.620  0.3891 -0.7915  0.8294
  998SOL    HW1 2993   2.160   1.053   0.587  0.6044  0.4110  0.5838
  998SOL    HW2 2994   2.010   1.120   0.635  0.0273  1.3083  0.8147
  999SOL     OW 2995   2.744   1.543   0.325  0.0421  0.1866  0.2392
  999SOL    HW1 2996   2.713   1.611   0.399  0.2332 -3.5920  0.9839
  999SOL    HW2 2997   2.836   1.499   0.345  1.1493  1.6019  0.4424
 1000SOL     OW 2998   0.854   0.922   1.744 -0.2006 -0.1747 -0.3192
 1000SOL    HW1 2999   0.875   0.824   1.751 -0.2216  5.0559  0.2132
 1000SOL    HW2 3000   0.753   0.936   1.735  1.1560 -0.6380 -1.8351
   3.09575   3.09575   3.09575
