1000 SPC/Fw water molecules t= 250.00000 step= 250000
 3000
    1SOL     OW    1   2.773   2.354   1.062 -0.0078  0.2477 -0.4196
    1SOL    HW1    2   2.794   2.298   1.148  4.5516 -0.3311 -0.7800
    1SOL    HW2    3   2.694   2.307   1.019 -0.3418  1.3856 -0.0106
    2SOL     OW    4   1.702   1.824   1.154  0.5984  0.2322  0.1993
    2SOL    HW1    5   1.623   1.881   1.181  0.4369 -2.1352  1.4523
    2SOL    HW2    6   1.670   1.733   1.116 -1.1415  0.3187 -1.8892
    3SOL     OW    7   1.141   2.547   2.900 -0.0907 -0.2312 -0.0536
    3SOL    HW1    8   1.149   2.611   2.977  1.1604 -2.4042 -1.3221
    3SOL    HW2    9   1.139   2.610   2.819 -2.1640 -0.0588  0.8197
    4SOL     OW   10   1.915   1.892   1.760 -0.2641  0.2073  0.2840
    4SOL    HW1   11   1.999   1.913   1.822 -0.6671  0.2207  0.7851
    4SOL    HW2   12   1.930   1.913   1.659 -3.3143 -0.3777  0.8501
    5SOL     OW   13   1.637   1.081   1.415  0.7396  0.5974 -0.4512
    5SOL    HW1   14   1.614   1.085   1.316  1.0471  0.9848  4.3836
    5SOL    HW2   15   1.737   1.057   1.425  3.5855  0.0477 -0.1943
    6SOL     OW   16   2.487   0.104   0.165  0.2190 -0.1052 -0.0518
    6SOL    HW1   17   2.533   0.125   0.076 -0.5879  1.6129  2.7751
    6SOL    HW2   18   2.387   0.065   0.152 -1.3395 -0.2181  2.1625
    7SOL     OW   19   2.612   1.509   1.389  0.7048  0.1816 -0.1574
    7SOL    HW1   20   2.578   1.419   1.427 -1.6587  0.6225 -1.7241
    7SOL    HW2   21   2.706   1.511   1.351  0.3102 -0.8564 -0.2498
    8SOL     OW   22   1.095   0.254   0.944 -0.0359  0.0751 -0.0276
    8SOL    HW1   23   1.129   0.211   1.032 -0.1236  1.4430  1.5839
    8SOL    HW2   24   1.176   0.253   0.879 -0.2774 -1.4117  0.6106
    9SOL     OW   25   1.631   0.281   2.492 -0.2993 -0.5640  0.2057
    9SOL    HW1   26   1.687   0.350   2.434  0.1694  3.2133  1.0838
    9SOL    HW2   27   1.694   0.212   2.542 -0.5236 -0.5512  2.0214
   10SOL     OW   28   0.658   1.887   0.453  0.2888 -0.1895  0.2335
   10SOL    HW1   29   0.558   1.878   0.479  0.4928  2.4914  0.4004
   10SOL    HW2   30   0.711   1.805   0.480 -0.5331  0.0102 -0.7881
   11SOL     OW   31   1.151   1.150   0.171 -0.4612 -0.2359 -0.3729
   11SOL    HW1   32   1.141   1.194   0.262 -0.6484  1.4857  0.3729
   11SOL    HW2   33   1.242   1.176   0.130  0.3734  1.7473  0.8277
   12SOL     OW   34   3.003   0.210   1.798  0.5159 -0.3606 -1.1601
   12SOL    HW1   35   2.948   0.242   1.882 -0.4111  0.0159  1.8735
   12SOL    HW2   36   3.020   0.281   1.729  2.8371 -0.5009  0.7479
   13SOL     OW   37   1.420   0.176   0.442  0.5480 -0.4472 -0.3498
   13SOL    HW1   38   1.365   0.232   0.505  2.0305 -1.1522  0.8366
   13SOL    HW2   39   1.504   0.138   0.487  1.0474 -0.4633 -1.5404
   14SOL     OW   40   1.111   2.491   1.376 -0.2623 -0.5882 -0.3362
   14SOL    HW1   41   1.105   2.593   1.373  0.9336 -0.8834 -1.6309
   14SOL    HW2   42   1.204   2.457   1.376 -0.4521  0.4168 -0.0938
   15SOL     OW   43   2.515   1.296   1.504 -0.2254  0.0131  0.1999
   15SOL    HW1   44   2.535   1.205   1.464  0.5684  0.0720  0.7353
   15SOL    HW2   45   2.563   1.321   1.590  0.2667  0.1905 -0.0609
   16SOL     OW   46   2.084   2.732   0.314  0.0143 -0.0603 -0.6671
   16SOL    HW1   47   2.106   2.827   0.313 -3.0253 -0.2947 -0.8029
   16SOL    HW2   48   1.985   2.710   0.287 -2.5004 -3.1017 -0.4724
   17SOL     OW   49   0.945   0.114   1.288  0.0766 -0.3234 -0.3483
   17SOL    HW1   50   0.922   0.217   1.291  0.9217  4.0511  2.0330
   17SOL    HW2   51   0.874   0.058   1.332  0.3564  0.4198 -1.7727
   18SOL     OW   52   1.556   0.687   2.683  0.0375  0.0377  0.3368
   18SOL    HW1   53   1.590   0.674   2.779  3.4741 -0.2492  1.0160
   18SOL    HW2   54   1.629   0.742   2.637 -0.2014  3.7432 -2.5138
   19SOL     OW   55   1.816   1.966   0.122  0.4120 -0.1533 -0.7657
   19SOL    HW1   56   1.916   1.972   0.135  0.6005  3.3366 -0.6566
   19SOL    HW2   57   1.783   2.063   0.123  1.1060 -1.3556  2.8571
   20SOL     OW   58   2.099   2.221   1.749 -0.3203  0.1952  0.4164
   20SOL    HW1   59   2.188   2.174   1.731 -0.2477 -0.0137 -2.3201
   20SOL    HW2   60   2.074   2.214   1.848  1.0090  0.4854 -2.8591
   21SOL     OW   61   0.994   1.746   3.037  0.3521  0.4067  0.3832
   21SOL    HW1   62   1.060   1.689   3.090  1.6707 -1.2105  1.1087
   21SOL    HW2   63   0.919   1.783   0.000 -0.6824 -0.6239  1.5139
   22SOL     OW   64   1.909   2.872   1.437  0.5182  0.5795 -0.0532
   22SOL    HW1   65   1.891   2.963   1.391 -0.9277 -1.2307  2.2037
   22SOL    HW2   66   1.918   2.879   1.539 -0.0162 -0.6862 -1.9584
   23SOL     OW   67   2.913   0.778   2.002 -0.2091  0.5691  0.0176
   23SOL    HW1   68   2.832   0.803   1.946  0.6088  0.1827 -3.4071
   23SOL    HW2   69   2.899   0.793   2.101 -1.0725  0.6035 -0.9069
   24SOL     OW   70   2.261   2.602   0.831  0.1944  0.5339  0.0811
   24SOL    HW1   71   2.181   2.538   0.818  0.5031 -1.3379  0.2189
   24SOL    HW2   72   2.274   2.613   0.930  1.1945  0.9330  0.6515
   25SOL     OW   73   1.156   2.704   2.675 -0.6794 -0.0279  0.2473
   25SOL    HW1   74   1.257   2.694   2.655  2.3018 -0.7636  0.4060
   25SOL    HW2   75   1.119   2.789   2.637  0.6880  0.6970  0.8183
   26SOL     OW   76   2.131   2.661   2.988  0.2150  0.5179 -0.0940
   26SOL    HW1   77   2.089   2.754   2.966  0.3827 -0.0814 -1.9632
   26SOL    HW2   78   2.081   2.614   3.062 -1.3252 -1.1352 -2.1585
   27SOL     OW   79   2.947   1.958   2.876  0.2174  0.5503  0.2949
   27SOL    HW1   80   2.884   2.003   2.815  3.0419  1.1473 -0.4970
   27SOL    HW2   81   3.011   1.912   2.812 -1.9440  1.6021  0.6050
   28SOL     OW   82   2.863   0.944   1.664  0.7874 -0.4112  0.4697
   28SOL    HW1   83   2.796   0.952   1.738  1.1918 -1.6844 -2.0515
   28SOL    HW2   84   2.846   1.020   1.598 -1.0130 -1.7459 -1.0857
   29SOL     OW   85   2.411   2.441   1.365  0.1203 -0.1190  0.1507
   29SOL    HW1   86   2.342   2.512   1.367  2.2384 -0.7641 -2.0691
   29SOL    HW2   87   2.500   2.475   1.405 -0.1654  0.0829  0.7816
   30SOL     OW   88   1.582   0.576   0.073 -0.1162 -0.5086  0.6308
   30SOL    HW1   89   1.550   0.481   0.052 -0.3262 -1.3360 -2.3150
   30SOL    HW2   90   1.596   0.598   0.170  0.7316 -1.7831 -2.1497
   31SOL     OW   91   2.654   2.675   1.635  0.0323  0.1013  0.1869
   31SOL    HW1   92   2.659   2.688   1.534  0.4176 -0.1649  1.8637
   31SOL    HW2   93   2.749   2.674   1.670  0.1915  0.8685  0.0107
   32SOL     OW   94   0.807   1.686   1.472  0.4721  0.1535  0.2459
   32SOL    HW1   95   0.843   1.751   1.406 -0.1976  0.1847 -0.2464
   32SOL    HW2   96   0.851   1.595   1.450  1.4257 -1.2367 -0.5724
   33SOL     OW   97   0.514   2.692   2.475  0.4104 -0.2056 -0.2685
   33SOL    HW1   98   0.613   2.660   2.469  1.2616 -0.2512 -0.3797
   33SOL    HW2   99   0.512   2.791   2.493  2.0440  1.7539  0.9089
   34SOL     OW  100   1.400   3.072   0.793  0.3200  0.7127 -0.3450
   34SOL    HW1  101   1.452   3.067   0.877 -0.5677  1.0138  1.2760
   34SOL    HW2  102   1.439   3.019   0.721 -1.5180 -0.7599  1.5302
   35SOL     OW  103   2.140   3.024   1.031  0.0540  0.0031 -0.1749
   35SOL    HW1  104   2.040   3.050   1.035 -0.6219  1.0787  2.4745
   35SOL    HW2  105   2.187   3.032   1.122  0.5609  0.4847 -0.4998
   36SOL     OW  106   1.865   2.719   2.409 -0.2951  0.0433 -0.0710
   36SOL    HW1  107   1.776   2.678   2.384 -1.2104 -0.1584 -0.9650
   36SOL    HW2  108   1.922   2.660   2.467  0.2084 -2.0541  1.4005
   37SOL     OW  109   0.594   3.026   2.316 -0.1549 -0.3969 -0.3891
   37SOL    HW1  110   0.675   2.992   2.260  1.8316  0.5486  1.7765
   37SOL    HW2  111   0.588   2.981   2.406  2.2539  0.5423 -0.7565
   38SOL     OW  112   0.103   2.558   2.455  0.2561  0.0836  0.0776
   38SOL    HW1  113   0.191   2.539   2.501 -2.6003  0.7308 -0.2282
   38SOL    HW2  114   0.122   2.632   2.385  0.1671  3.6930  0.9197
   39SOL     OW  115   2.471   1.419   1.926 -0.1444 -0.1376 -0.2520
   39SOL    HW1  116   2.384   1.369   1.903 -1.5322 -0.5628 -1.3625
   39SOL    HW2  117   2.460   1.494   1.997  2.7139 -1.9932  1.5664
   40SOL     OW  118   0.704   2.927   0.057  0.3045 -0.0858  0.2229
   40SOL    HW1  119   0.746   2.846   0.006  0.7956  1.3470 -1.7116
   40SOL    HW2  120   0.766   2.947   0.137  1.2355 -1.1943  3.9969
   41SOL     OW  121   2.165   1.079   1.097  0.4193 -0.2571 -0.3411
   41SOL    HW1  122   2.256   1.042   1.111 -3.1979  1.3724 -2.4433
   41SOL    HW2  123   2.149   1.121   1.006 -0.6227  2.3713  1.0814
   42SOL     OW  124   0.610   0.564   1.036  0.0596  0.5352 -0.1876
   42SOL    HW1  125   0.664   0.605   0.960  1.6529 -0.8771  0.4961
   42SOL    HW2  126   0.565   0.635   1.093  0.7148  1.1988  0.2089
   43SOL     OW  127   2.174   1.335   2.579 -0.5716 -0.0690 -0.1109
   43SOL    HW1  128   2.194   1.238   2.597  0.1129  0.0283  0.2144
   43SOL    HW2  129   2.230   1.370   2.498  1.5776 -0.4068 -4.4552
   44SOL     OW  130   0.045   2.764   0.858  0.7912 -0.1975  0.0156
   44SOL    HW1  131   0.101   2.786   0.780  1.5524 -3.4455  4.7182
   44SOL    HW2  132   0.102   2.767   0.941 -2.4182 -0.5542  0.0400
   45SOL     OW  133   0.014   2.640   1.236  0.1823  0.2353  0.0658
   45SOL    HW1  134   0.062   2.696   1.165 -1.3195 -1.6126 -1.3866
   45SOL    HW2  135   3.017   2.609   1.203  0.6823  1.0105 -3.9872
   46SOL     OW  136   2.290   2.788   2.604  0.0386 -0.0105 -0.0584
   46SOL    HW1  137   2.294   2.739   2.514 -0.5798  0.1512 -0.1858
   46SOL    HW2  138   2.379   2.824   2.632  1.4227 -2.2988 -3.6552
   47SOL     OW  139   1.985   1.954   1.118  0.2440  0.2065  0.4961
   47SOL    HW1  140   2.032   1.898   1.040  0.7887  0.8620  0.5159
   47SOL    HW2  141   1.896   1.907   1.138 -1.3616 -0.9733 -1.1860
   48SOL     OW  142   0.709   1.634   0.217  0.2538  0.7315  0.1268
   48SOL    HW1  143   0.756   1.706   0.158  0.6032  1.5748 -1.7884
   48SOL    HW2  144   0.699   1.549   0.162  0.1843 -1.0336 -0.6237
   49SOL     OW  145   2.917   0.113   2.714  0.2803 -0.0162  0.0182
   49SOL    HW1  146   2.947   0.042   2.776  1.5372 -0.6724 -1.3313
   49SOL    HW2  147   2.869   0.084   2.626  0.8175  1.9352 -2.6371
   50SOL     OW  148   2.029   0.716   0.290 -0.0391 -0.4927  0.5174
   50SOL    HW1  149   1.996   0.815   0.273 -1.6982  3.9022 -2.6749
   50SOL    HW2  150   1.952   0.666   0.334 -1.3162  1.5986  0.2036
   51SOL     OW  151   2.249   0.772   0.854 -0.7673 -0.2854 -0.1199
   51SOL    HW1  152   2.327   0.841   0.841  2.3754  3.1462 -1.5745
   51SOL    HW2  153   2.200   0.781   0.768 -0.4628  1.1468  3.6141
   52SOL     OW  154   1.535   1.476   2.509 -0.0348  0.8098  0.0745
   52SOL    HW1  155   1.561   1.427   2.425 -1.4136  0.9379  0.8640
   52SOL    HW2  156   1.595   1.554   2.534 -2.7705 -0.7856 -0.6072
   53SOL     OW  157   0.654   1.900   2.139 -0.4175  0.4789 -0.3090
   53SOL    HW1  158   0.743   1.861   2.105 -0.5365 -1.4730 -1.3786
   53SOL    HW2  159   0.627   1.878   2.235 -1.6588  2.5487  0.9425
   54SOL     OW  160   2.237   0.263   1.003  0.5767  0.1108 -0.0818
   54SOL    HW1  161   2.319   0.218   0.969  1.0463 -0.7392 -0.1933
   54SOL    HW2  162   2.240   0.362   0.978 -0.0811  2.0555 -0.3657
   55SOL     OW  163   2.575   2.212   0.948  0.2403  0.1157  0.0170
   55SOL    HW1  164   2.520   2.125   0.968 -1.1765  0.2723  1.3334
   55SOL    HW2  165   2.610   2.203   0.850  0.3777 -0.5470  0.4300
   56SOL     OW  166   1.140   3.002   1.665 -0.5983  0.0098 -0.0478
   56SOL    HW1  167   1.156   3.017   1.768  1.0664 -2.3481  0.2470
   56SOL    HW2  168   1.136   3.089   1.614  0.1183  1.3432 -1.6075
   57SOL     OW  169   1.436   1.529   0.133 -0.0422  0.1990 -0.3571
   57SOL    HW1  170   1.432   1.593   0.214 -0.5277 -0.5515 -1.0625
   57SOL    HW2  171   1.531   1.505   0.109 -1.8971  0.2747 -0.6249
   58SOL     OW  172   3.023   0.875   2.531  0.1493 -0.0416  0.3115
   58SOL    HW1  173   0.022   0.887   2.499 -4.3474 -0.8970 -0.7089
   58SOL    HW2  174   2.990   0.782   2.508  1.0868  1.9131  0.8424
   59SOL     OW  175   0.780   2.762   2.768 -0.2914 -0.1462 -0.3616
   59SOL    HW1  176   0.838   2.810   2.837  2.3558 -0.6737  0.1683
   59SOL    HW2  177   0.827   2.689   2.718 -1.2740 -1.2113  1.4017
   60SOL     OW  178   2.571   2.277   0.406  0.5643 -0.6014 -0.1053
   60SOL    HW1  179   2.591   2.221   0.332  0.3061  0.9477  0.9126
   60SOL    HW2  180   2.636   2.356   0.400  2.3945  2.1798  1.5083
   61SOL     OW  181   1.300   1.985   0.580  0.2293  0.8675  0.5058
   61SOL    HW1  182   1.220   1.962   0.641 -0.5971 -0.8155 -1.0868
   61SOL    HW2  183   1.313   2.084   0.572 -1.6540  1.2347 -2.0155
   62SOL     OW  184   2.232   2.222   2.591  0.1394  0.0181 -0.8597
   62SOL    HW1  185   2.245   2.195   2.689 -1.2511 -3.0751  0.8498
   62SOL    HW2  186   2.145   2.192   2.550 -0.0538  0.8143 -2.7469
   63SOL     OW  187   2.376   2.728   3.067  0.2552  0.4416 -0.1155
   63SOL    HW1  188   2.283   2.713   3.027  0.3253  1.4738 -2.6456
   63SOL    HW2  189   2.410   2.818   3.032 -1.5131 -0.7803  2.8157
   64SOL     OW  190   1.674   1.044   2.668 -0.0045 -0.5817 -0.1959
   64SOL    HW1  191   1.705   1.114   2.599  1.7966 -0.3652  1.1918
   64SOL    HW2  192   1.716   0.953   2.660 -1.6540  0.7920  0.9855
   65SOL     OW  193   1.386   2.399   2.901 -0.7748 -0.4670 -0.0401
   65SOL    HW1  194   1.331   2.320   2.865 -1.4284 -1.1052  0.0258
   65SOL    HW2  195   1.330   2.484   2.912  0.6111  0.0981  0.0470
   66SOL     OW  196   0.241   1.294   1.987  0.1747  0.6117 -0.4203
   66SOL    HW1  197   0.332   1.333   1.984 -2.3663 -0.1984 -0.7326
   66SOL    HW2  198   0.242   1.218   1.917  2.4649 -1.2533  1.0916
   67SOL     OW  199   2.913   2.646   2.773  0.2315  0.0948  0.1707
   67SOL    HW1  200   2.834   2.650   2.711  0.5248  0.7968  0.9851
   67SOL    HW2  201   2.986   2.717   2.749 -0.3045  1.7701  1.0726
   68SOL     OW  202   0.762   2.570   1.475 -0.6093 -0.1960  0.2512
   68SOL    HW1  203   0.827   2.508   1.519 -2.1782  0.1671  1.5373
   68SOL    HW2  204   0.790   2.670   1.469  0.1201  0.8202  0.3419
   69SOL     OW  205   0.642   2.102   0.282 -0.0035 -0.0438  0.8642
   69SOL    HW1  206   0.640   2.171   0.354 -0.3305 -2.3330  2.7423
   69SOL    HW2  207   0.656   2.009   0.326  0.2255 -1.2416 -1.7276
   70SOL     OW  208   2.582   0.900   2.556 -0.2174 -0.2615 -0.3199
   70SOL    HW1  209   2.666   0.949   2.588  2.6399 -0.4244 -0.5625
   70SOL    HW2  210   2.591   0.798   2.560  1.9986  1.2447 -0.7777
   71SOL     OW  211   0.544   1.123   2.419  0.0394  0.5474 -0.3526
   71SOL    HW1  212   0.543   1.025   2.392 -1.6979  2.8938  3.3830
   71SOL    HW2  213   0.524   1.180   2.337  3.6211  1.4474 -0.5901
   72SOL     OW  214   0.339   1.946   0.780 -0.4579  0.0936  0.3577
   72SOL    HW1  215   0.374   1.941   0.685  2.8012 -0.0547  1.2465
   72SOL    HW2  216   0.250   1.905   0.793  0.6127 -1.4220  3.0156
   73SOL     OW  217   1.052   1.621   0.338  0.1007 -0.2690  0.2774
   73SOL    HW1  218   0.963   1.616   0.386  1.2086 -0.8795 -0.8051
   73SOL    HW2  219   1.121   1.679   0.389  3.0370  3.3728 -1.0521
   74SOL     OW  220   2.610   3.013   0.315 -0.2049 -0.3126 -0.4973
   74SOL    HW1  221   2.542   2.944   0.290 -0.0762 -0.2156  0.3180
   74SOL    HW2  222   2.575   0.005   0.274 -2.5591  0.1686 -1.1185
   75SOL     OW  223   2.396   1.660   2.056 -0.3010  0.0782  0.2367
   75SOL    HW1  224   2.303   1.641   2.093 -1.0886  0.8027 -0.4060
   75SOL    HW2  225   2.390   1.703   1.964  1.5864 -0.4019  1.9751
   76SOL     OW  226   1.904   2.543   1.709 -0.1391 -0.2006  0.1215
   76SOL    HW1  227   1.853   2.628   1.726 -0.6292 -0.5254 -1.7108
   76SOL    HW2  228   1.919   2.536   1.607 -3.0026 -0.2664 -1.9340
   77SOL     OW  229   2.501   0.429   1.471  0.1110 -0.0708 -0.1860
   77SOL    HW1  230   2.446   0.354   1.515 -0.5612 -1.6253 -2.1930
   77SOL    HW2  231   2.501   0.514   1.525 -0.7363  0.3052 -0.5625
   78SOL     OW  232   2.089   1.092   2.808 -0.1879 -0.0255  0.0432
   78SOL    HW1  233   2.137   1.073   2.893  0.0114  2.5802  1.0940
   78SOL    HW2  234   1.989   1.081   2.822  0.8429  1.4867 -3.1630
   79SOL     OW  235   0.099   1.501   2.073 -0.5448  0.2926  0.4730
   79SOL    HW1  236   0.137   1.411   2.043 -1.6450  0.5701  1.1763
   79SOL    HW2  237   0.106   1.570   1.999  2.1945  0.8595 -2.2426
   80SOL     OW  238   1.991   1.200   1.277 -0.3300  0.0546  0.4090
   80SOL    HW1  239   2.056   1.152   1.210  0.2261 -0.9001 -0.3682
   80SOL    HW2  240   1.934   1.268   1.230 -0.3309  0.6534 -0.8899
   81SOL     OW  241   1.340   0.455   1.417 -0.0161  0.4102 -0.7736
   81SOL    HW1  242   1.399   0.396   1.475 -2.2803 -2.4944  2.1303
   81SOL    HW2  243   1.282   0.406   1.349  0.8180 -1.4206  2.6797
   82SOL     OW  244   1.456   2.477   1.766  0.1532  0.6325 -0.1102
   82SOL    HW1  245   1.469   2.543   1.688  2.0456  0.4101 -0.8319
   82SOL    HW2  246   1.520   2.399   1.762  1.2415 -0.2634  2.8597
   83SOL     OW  247   0.534   0.004   0.693 -0.0840  0.2540 -0.0836
   83SOL    HW1  248   0.511   3.044   0.775  2.1824  0.3776 -2.0897
   83SOL    HW2  249   0.450   0.012   0.632  2.3877 -0.2170  2.0976
   84SOL     OW  250   0.253   0.949   2.921  0.1331  0.2796 -0.4466
   84SOL    HW1  251   0.316   0.970   2.846 -0.3853 -2.3648  0.8921
   84SOL    HW2  252   0.191   1.022   2.949  3.6452 -1.6400 -2.0906
   85SOL     OW  253   2.682   2.268   1.739 -0.1976  0.3195  0.3938
   85SOL    HW1  254   2.767   2.320   1.712 -2.0415  1.3918 -2.0276
   85SOL    HW2  255   2.599   2.328   1.744 -3.7189  0.2226 -0.4018
   86SOL     OW  256   2.903   2.388   1.629  0.8884 -0.7733  0.0180
   86SOL    HW1  257   2.889   2.487   1.627 -1.4041 -0.1406 -1.8839
   86SOL    HW2  258   2.956   2.358   1.550 -1.6987 -0.3676  0.0963
   87SOL     OW  259   0.519   2.800   0.226  0.3247 -0.6989  0.9426
   87SOL    HW1  260   0.530   2.702   0.216 -1.2717  2.6598  0.5329
   87SOL    HW2  261   0.592   2.858   0.180 -1.0499  1.5640 -0.6546
   88SOL     OW  262   0.262   1.933   1.173  0.7221 -0.6139  0.2534
   88SOL    HW1  263   0.245   2.029   1.137  1.5144  1.1354 -1.2736
   88SOL    HW2  264   0.354   1.929   1.209 -0.9212  0.0983 -1.1517
   89SOL     OW  265   0.968   0.933   1.658 -0.1924 -0.1525 -0.6420
   89SOL    HW1  266   1.031   1.005   1.624 -1.9458 -1.4132 -0.1938
   89SOL    HW2  267   0.984   0.928   1.760  1.7047  2.0843 -0.8470
   90SOL     OW  268   2.700   1.621   1.807  0.3574  0.3555 -0.3147
   90SOL    HW1  269   2.652   1.534   1.833  2.0804  1.4232  0.0904
   90SOL    HW2  270   2.654   1.653   1.724  0.6456 -0.2832  0.7660
   91SOL     OW  271   1.396   1.701   0.847  0.2570 -0.3733  0.3568
   91SOL    HW1  272   1.315   1.741   0.802  1.0490 -1.9097  0.6511
   91SOL    HW2  273   1.369   1.638   0.918  3.2882  1.1599  0.0376
   92SOL     OW  274   2.104   0.624   1.027  0.3185  0.6209  0.1103
   92SOL    HW1  275   2.148   0.689   0.964  1.3597 -0.0010  4.9574
   92SOL    HW2  276   2.147   0.619   1.119  0.3157  1.1452  0.7682
   93SOL     OW  277   2.253   1.386   0.203 -0.7329  0.0866  0.5655
   93SOL    HW1  278   2.230   1.290   0.230 -2.7406 -1.5908  2.4561
   93SOL    HW2  279   2.177   1.450   0.231 -0.7861  0.6256  3.5539
   94SOL     OW  280   2.230   2.215   2.220  0.0839 -0.4141  0.2492
   94SOL    HW1  281   2.275   2.149   2.285  0.5971  1.6396 -0.7964
   94SOL    HW2  282   2.291   2.235   2.140  0.7355  0.1936 -0.4759
   95SOL     OW  283   1.910   0.472   0.887 -0.0614 -0.1659  0.2568
   95SOL    HW1  284   1.984   0.525   0.936  0.6325  0.1081 -1.7141
   95SOL    HW2  285   1.924   0.368   0.881 -0.3880 -1.8793  1.8407
   96SOL     OW  286   2.837   2.940   1.545  0.2629 -0.4937  0.5132
   96SOL    HW1  287   2.775   2.877   1.495  0.7983  0.2738  0.3924
   96SOL    HW2  288   2.818   3.034   1.504  0.4101 -0.0747 -0.7259
   97SOL     OW  289   2.276   0.149   1.244  0.0995  0.0185  0.5698
   97SOL    HW1  290   2.257   0.205   1.163 -0.2372 -2.4977  1.5780
   97SOL    HW2  291   2.371   0.146   1.275 -2.2207  3.0254  0.8759
   98SOL     OW  292   1.622   2.295   1.554  0.0200  0.2942  0.0588
   98SOL    HW1  293   1.659   2.286   1.464 -0.3601  1.1153  1.6837
   98SOL    HW2  294   1.698   2.286   1.622  1.4627  1.0790 -0.0500
   99SOL     OW  295   2.583   2.874   1.787  0.4557 -0.3001  0.6204
   99SOL    HW1  296   2.614   2.857   1.879  0.5972 -1.7197 -1.8804
   99SOL    HW2  297   2.613   2.804   1.719 -0.8767  0.0301  1.9037
  100SOL     OW  298   0.462   0.905   2.677  0.4165 -0.7061  0.8852
  100SOL    HW1  299   0.556   0.950   2.690 -0.0642  3.3960 -0.5096
  100SOL    HW2  300   0.460   0.810   2.716 -0.2729 -0.3498 -2.7543
  101SOL     OW  301   1.985   0.763   2.961  0.1413  0.1006 -0.4923
  101SOL    HW1  302   2.029   0.718   2.880  0.9634  1.8233  0.0849
  101SOL    HW2  303   2.022   0.726   3.053  1.9415  2.4002  2.1656
  102SOL     OW  304   0.267   0.463   1.604 -1.1858 -0.3971 -0.0366
  102SOL    HW1  305   0.234   0.462   1.705  2.7131  0.4003  2.0505
  102SOL    HW2  306   0.301   0.372   1.570  1.6564 -3.7826  1.3100
  103SOL     OW  307   2.778   1.114   2.288  0.3024 -0.1323  0.4414
  103SOL    HW1  308   2.751   1.205   2.317  2.0391 -0.6941 -0.4412
  103SOL    HW2  309   2.787   1.101   2.187  0.0311  0.1591 -0.6185
  104SOL     OW  310   0.292   0.343   2.608  0.0959 -0.2935 -0.4130
  104SOL    HW1  311   0.390   0.371   2.592  0.5621  0.7650 -3.5824
  104SOL    HW2  312   0.239   0.426   2.635  0.4630  2.1536  0.2192
  105SOL     OW  313   1.950   1.620   1.244  0.2476 -0.4226 -0.0916
  105SOL    HW1  314   1.907   1.530   1.244  1.0034  0.7701 -0.0656
  105SOL    HW2  315   1.924   1.672   1.330 -1.3022  0.7727  1.3027
  106SOL     OW  316   1.876   0.170   0.519 -0.0393 -0.5041  0.7010
  106SOL    HW1  317   1.929   0.088   0.483 -0.2158 -0.2876 -0.5703
  106SOL    HW2  318   1.937   0.225   0.577  0.1688  2.8521  1.1959
  107SOL     OW  319   0.177   1.579   1.472 -0.3320 -0.1302  0.4515
  107SOL    HW1  320   0.236   1.574   1.383  1.3847  2.4638 -3.0988
  107SOL    HW2  321   0.116   1.660   1.476 -0.5564  0.5989  2.6984
  108SOL     OW  322   3.027   2.769   2.135  0.5452  0.4311  0.2512
  108SOL    HW1  323   3.058   2.805   2.045 -0.0932  2.1842  0.4153
  108SOL    HW2  324   3.016   2.670   2.136  1.3352  1.2148 -2.1624
  109SOL     OW  325   1.630   0.062   0.580 -0.1077  0.0686 -0.2436
  109SOL    HW1  326   1.729   0.092   0.572  0.4550  0.7844  0.9055
  109SOL    HW2  327   1.612   3.059   0.570 -0.6198 -0.8518 -1.3751
  110SOL     OW  328   0.394   2.200   2.258  0.4952 -0.1289 -0.5400
  110SOL    HW1  329   0.343   2.195   2.347 -2.9772 -0.2764  1.0025
  110SOL    HW2  330   0.363   2.125   2.196 -0.1814 -1.1149  0.4624
  111SOL     OW  331   1.687   2.428   2.140  0.1290  0.0936 -0.6545
  111SOL    HW1  332   1.750   2.364   2.191 -0.3867 -2.8697  1.6005
  111SOL    HW2  333   1.610   2.458   2.196 -0.4124 -0.9529  2.9823
  112SOL     OW  334   1.488   2.716   3.069 -0.1244  0.1588  0.6144
  112SOL    HW1  335   1.547   2.682   0.052 -1.6987  0.6450  0.3666
  112SOL    HW2  336   1.532   2.709   2.977  1.9817  3.6701  0.7514
  113SOL     OW  337   1.992   2.490   1.449 -0.2593  0.1004  0.1469
  113SOL    HW1  338   2.062   2.559   1.471 -0.2283 -0.7038  0.3085
  113SOL    HW2  339   1.922   2.527   1.385  0.1588 -1.3611 -6.2148
  114SOL     OW  340   2.899   0.801   0.840  0.5231 -0.0529 -0.4273
  114SOL    HW1  341   2.963   0.835   0.911 -0.5838 -1.0109  1.0008
  114SOL    HW2  342   2.936   0.712   0.803  1.0151 -2.3820  0.0750
  115SOL     OW  343   0.722   0.984   2.759 -0.0561  0.0398 -0.1211
  115SOL    HW1  344   0.699   1.076   2.791 -1.3485 -0.0351 -2.5111
  115SOL    HW2  345   0.706   0.920   2.842  0.8106 -1.1338  0.8167
  116SOL     OW  346   2.843   1.575   2.132 -0.3138 -0.2967  0.0785
  116SOL    HW1  347   2.856   1.490   2.071 -0.9989 -2.9042 -0.4508
  116SOL    HW2  348   2.917   1.644   2.122 -4.6403 -0.6357  0.3650
  117SOL     OW  349   2.797   0.008   0.721 -0.0313 -0.3607 -0.4912
  117SOL    HW1  350   2.885   3.091   0.674  0.6133  1.7332  0.3795
  117SOL    HW2  351   2.723   3.050   0.677 -1.4205 -2.4350 -0.8594
  118SOL     OW  352   1.165   2.012   1.597  0.1011 -0.3478 -0.2284
  118SOL    HW1  353   1.163   1.929   1.658  1.8609 -0.8407  1.1184
  118SOL    HW2  354   1.253   2.067   1.605  5.0163  1.8854  1.0436
  119SOL     OW  355   0.513   2.378   2.737 -0.4559 -0.4352  0.2571
  119SOL    HW1  356   0.573   2.375   2.821  0.5339  0.8058  0.3225
  119SOL    HW2  357   0.437   2.315   2.756  0.7031  1.0543 -0.5942
  120SOL     OW  358   0.763   0.766   2.945 -0.1929  0.6058  0.2367
  120SOL    HW1  359   0.735   0.668   2.935 -1.4839  0.7828 -2.2861
  120SOL    HW2  360   0.860   0.778   2.926 -1.6955 -1.1404 -0.8599
  121SOL     OW  361   1.545   2.779   1.024  0.6045  0.0289  0.0574
  121SOL    HW1  362   1.558   2.739   1.118 -0.1137 -0.9458  0.5694
  121SOL    HW2  363   1.553   2.704   0.957  0.0603 -1.6816  1.7418
  122SOL     OW  364   2.249   2.460   1.707  0.3584 -0.2124  0.0279
  122SOL    HW1  365   2.211   2.490   1.619  0.1828  2.2358 -1.2781
  122SOL    HW2  366   2.211   2.370   1.740  0.0199 -1.0853 -3.2353
  123SOL     OW  367   0.494   2.716   0.686 -0.6440 -0.4500  0.3434
  123SOL    HW1  368   0.481   2.795   0.753 -0.9183 -0.9194  5.9552
  123SOL    HW2  369   0.404   2.677   0.665 -0.0568  0.2398 -1.7643
  124SOL     OW  370   2.393   1.473   2.814  0.4678 -0.0904 -0.8331
  124SOL    HW1  371   2.442   1.398   2.764  1.0696  1.5010  1.1406
  124SOL    HW2  372   2.391   1.454   2.916 -0.6159  3.9755  1.8673
  125SOL     OW  373   0.712   1.108   0.515 -0.1396 -0.1482  0.3138
  125SOL    HW1  374   0.617   1.098   0.553  0.6740 -0.8925  1.6671
  125SOL    HW2  375   0.740   1.203   0.524 -1.0009 -0.5622 -1.7490
  126SOL     OW  376   2.679   1.672   0.784  0.5322  0.0997 -0.1462
  126SOL    HW1  377   2.712   1.768   0.795  2.1572 -0.6573 -1.2787
  126SOL    HW2  378   2.730   1.623   0.712 -0.9852 -2.8751  0.4687
  127SOL     OW  379   0.028   2.049   1.872 -0.1226 -0.2788 -0.4152
  127SOL    HW1  380   0.116   2.022   1.827  2.0217  0.4812  1.8567
  127SOL    HW2  381   0.037   2.027   1.972 -0.5258 -1.0339  1.4627
  128SOL     OW  382   1.139   0.897   0.095  0.0717  0.6171  0.2566
  128SOL    HW1  383   1.240   0.878   0.086 -1.6871  2.1126 -1.8872
  128SOL    HW2  384   1.116   0.997   0.115  1.3868  2.7629  0.7732
  129SOL     OW  385   2.456   0.966   0.819  0.1031  0.2020 -0.4386
  129SOL    HW1  386   2.454   1.065   0.838  0.5256 -2.1085 -2.2842
  129SOL    HW2  387   2.490   0.945   0.723 -2.1571  1.6443 -0.5424
  130SOL     OW  388   2.283   0.897   1.435 -0.3187 -0.1408 -0.0593
  130SOL    HW1  389   2.364   0.920   1.487 -1.7605  0.0083 -0.7126
  130SOL    HW2  390   2.305   0.928   1.341 -2.0209  0.2426  1.1873
  131SOL     OW  391   3.026   2.680   3.060 -0.4852 -0.0849  0.3017
  131SOL    HW1  392   2.956   2.669   2.980 -1.9019 -2.7796 -1.3507
  131SOL    HW2  393   3.030   2.599   0.025 -1.5863  0.5898  1.0260
  132SOL     OW  394   2.967   2.073   1.672 -0.3394 -0.8222 -0.2363
  132SOL    HW1  395   2.955   2.166   1.632 -1.2213 -2.9159 -0.7535
  132SOL    HW2  396   3.017   2.070   1.761 -1.1456 -0.3318 -0.3381
  133SOL     OW  397   1.183   0.359   1.218 -0.6744 -0.3149 -0.2129
  133SOL    HW1  398   1.272   0.343   1.171  2.1999 -0.4880  0.0683
  133SOL    HW2  399   1.106   0.355   1.153  1.8097 -1.9954  0.3814
  134SOL     OW  400   0.063   1.282   0.343  0.4601 -0.1744 -0.4763
  134SOL    HW1  401   3.062   1.293   0.308  1.1865  1.0648  1.3554
  134SOL    HW2  402   0.129   1.280   0.263  0.2419 -0.2966  0.2753
  135SOL     OW  403   2.316   1.195   1.714  0.1927 -0.3091  0.1544
  135SOL    HW1  404   2.342   1.239   1.626 -2.0572  1.4522 -2.3085
  135SOL    HW2  405   2.282   1.267   1.773  3.2997 -1.9322 -1.5527
  136SOL     OW  406   0.035   0.959   0.659 -0.6484 -0.6155 -0.1951
  136SOL    HW1  407   3.069   1.025   0.696  0.2983 -0.4896  0.7265
  136SOL    HW2  408   0.070   0.996   0.570  1.0330  1.7605 -2.5990
  137SOL     OW  409   2.636   1.076   1.439  0.0047 -0.2170 -0.2495
  137SOL    HW1  410   2.608   1.067   1.342  0.5173 -2.1868 -0.1201
  137SOL    HW2  411   2.724   1.131   1.443  2.0015  1.4740 -0.9790
  138SOL     OW  412   1.874   0.984   1.429  0.2075 -0.2514  0.4600
  138SOL    HW1  413   1.924   0.899   1.438 -1.5898  1.2540  1.3552
  138SOL    HW2  414   1.913   1.045   1.361 -0.8171  0.3527 -0.1564
  139SOL     OW  415   1.967   3.009   0.074  0.0721 -0.5861  0.1849
  139SOL    HW1  416   1.903   2.975   0.145 -0.1473 -1.6983 -3.8204
  139SOL    HW2  417   1.928   3.080   0.019 -3.5107 -4.0952  1.3194
  140SOL     OW  418   1.407   2.108   1.912  0.0368  0.6005 -0.0364
  140SOL    HW1  419   1.483   2.174   1.926  3.8416  1.4363  1.0536
  140SOL    HW2  420   1.443   2.010   1.912 -0.5613 -1.1008  0.7581
  141SOL     OW  421   1.629   2.222   0.623 -0.1108  0.1270  0.0227
  141SOL    HW1  422   1.708   2.240   0.559  2.5630  0.2873  0.6476
  141SOL    HW2  423   1.618   2.122   0.633  1.9331 -2.0829  1.8824
  142SOL     OW  424   0.442   0.851   0.172  0.1973 -0.0346 -0.0279
  142SOL    HW1  425   0.400   0.819   0.081 -1.5765 -4.2989 -2.0624
  142SOL    HW2  426   0.541   0.823   0.167  0.2486 -0.3500 -0.9323
  143SOL     OW  427   0.311   2.221   2.790 -0.5463  0.4967  0.7759
  143SOL    HW1  428   0.291   2.254   2.881  0.4746  1.0691 -0.2848
  143SOL    HW2  429   0.221   2.211   2.738  0.3395  0.5322  1.3147
  144SOL     OW  430   1.389   0.037   1.511  0.4402  0.2589 -0.0278
  144SOL    HW1  431   1.296   0.080   1.506 -2.1902  0.1361 -1.4341
  144SOL    HW2  432   1.429   0.028   1.417 -0.6852  1.9822 -1.0056
  145SOL     OW  433   2.354   1.297   0.568 -0.0277  0.0337  0.1580
  145SOL    HW1  434   2.391   1.372   0.513  1.5048 -1.3872  0.9807
  145SOL    HW2  435   2.415   1.280   0.650 -0.7963  0.9933  2.6071
  146SOL     OW  436   2.467   2.223   0.017  0.1894 -0.1774 -0.8273
  146SOL    HW1  437   2.515   2.226   3.026 -1.7133  1.0933 -0.1942
  146SOL    HW2  438   2.446   2.323   0.043 -1.0722 -0.4848  0.3555
  147SOL     OW  439   2.217   2.898   1.313  0.8608  0.5528  0.2377
  147SOL    HW1  440   2.169   2.988   1.339  0.8775  1.5422 -0.1954
  147SOL    HW2  441   2.314   2.912   1.279  1.0041  0.4230 -0.8558
  148SOL     OW  442   1.419   2.914   1.977 -0.0394 -0.7036 -0.4989
  148SOL    HW1  443   1.505   2.854   1.980  1.3444 -1.8050  0.6398
  148SOL    HW2  444   1.333   2.859   1.976 -1.1064  3.5438 -2.5719
  149SOL     OW  445   1.449   0.483   2.286 -0.1309  0.4142 -0.0375
  149SOL    HW1  446   1.546   0.448   2.274  0.1043  1.9081  0.2488
  149SOL    HW2  447   1.435   0.507   2.384  0.2855  1.5637  3.3311
  150SOL     OW  448   0.623   2.612   0.469  0.7846  0.0459 -0.1137
  150SOL    HW1  449   0.591   2.645   0.563  1.9389  0.8449 -0.4520
  150SOL    HW2  450   0.554   2.585   0.403 -1.7918  0.2445 -1.7986
  151SOL     OW  451   0.109   1.519   0.068 -0.2780 -0.4339 -0.0704
  151SOL    HW1  452   0.085   1.618   0.078  0.5433  0.6595 -1.5039
  151SOL    HW2  453   0.149   1.511   3.069  2.3552  0.0982 -2.2668
  152SOL     OW  454   3.033   3.059   0.586 -0.1502  0.3548  0.1051
  152SOL    HW1  455   3.030   2.958   0.563 -1.4565 -1.3388  0.4645
  152SOL    HW2  456   3.027   0.024   0.509 -2.1809  0.5247  0.4298
  153SOL     OW  457   2.252   0.018   0.796 -0.1326 -0.5912  0.4985
  153SOL    HW1  458   2.201   3.078   0.876  0.6194 -0.4050 -0.4663
  153SOL    HW2  459   2.299   3.036   0.752 -0.8833  1.5079 -0.6613
  154SOL     OW  460   1.052   0.356   1.693 -0.0171 -0.0788 -0.7787
  154SOL    HW1  461   1.013   0.312   1.777  0.2159 -0.6765  0.3032
  154SOL    HW2  462   1.112   0.434   1.720  0.3683  1.4917  0.4832
  155SOL     OW  463   2.591   1.156   1.163  0.4730 -0.1335  0.2301
  155SOL    HW1  464   2.676   1.157   1.100  3.6990 -0.3637 -1.7918
  155SOL    HW2  465   2.550   1.251   1.167  0.4761  0.5275 -2.1116
  156SOL     OW  466   2.691   2.167   0.181 -0.1170 -0.6555  0.2771
  156SOL    HW1  467   2.778   2.210   0.142  3.0994  1.1146 -3.4435
  156SOL    HW2  468   2.613   2.174   0.115  0.7815 -0.0548  1.0939
  157SOL     OW  469   1.009   0.186   0.052 -0.6412  0.3331 -0.0023
  157SOL    HW1  470   1.024   0.134   3.059 -2.1758 -1.2372 -1.7457
  157SOL    HW2  471   0.911   0.203   0.063 -2.3352 -0.1265 -0.2941
  158SOL     OW  472   2.403   0.273   2.744 -0.0970 -0.2150 -0.4905
  158SOL    HW1  473   2.486   0.243   2.691 -0.2326  0.3807  2.6607
  158SOL    HW2  474   2.323   0.213   2.738 -0.7397  1.4102 -2.0374
  159SOL     OW  475   0.439   0.062   0.068 -0.1436 -0.1146  0.1484
  159SOL    HW1  476   0.473   0.078   0.165 -2.2082  1.3678  2.3112
  159SOL    HW2  477   0.505   0.053   3.083  1.9495  2.3929  0.8549
  160SOL     OW  478   1.188   1.912   2.977 -0.5191 -0.0447  0.1354
  160SOL    HW1  479   1.149   1.978   2.911  2.0832  1.6243  1.0601
  160SOL    HW2  480   1.118   1.842   3.004 -1.8426  3.7053  1.0535
  161SOL     OW  481   3.003   1.773   2.357 -0.3388 -0.7217  0.7167
  161SOL    HW1  482   2.916   1.783   2.408  0.2607 -0.5686 -0.7471
  161SOL    HW2  483   3.046   1.679   2.373 -0.4766 -1.5969  0.5527
  162SOL     OW  484   0.146   2.400   1.277 -0.1990  0.4465 -0.3104
  162SOL    HW1  485   0.216   2.384   1.344 -0.8711  2.6109  0.2104
  162SOL    HW2  486   0.123   2.498   1.268  2.5736  0.2012  1.6337
  163SOL     OW  487   2.286   0.533   2.799 -0.1750  0.5170  0.2820
  163SOL    HW1  488   2.194   0.511   2.832  0.1716 -0.2851 -0.8742
  163SOL    HW2  489   2.331   0.445   2.764  1.1657 -2.5970 -0.7833
  164SOL     OW  490   2.891   1.588   0.620  0.0193  0.0859  0.2259
  164SOL    HW1  491   2.894   1.553   0.524  0.9730  0.0909 -0.1893
  164SOL    HW2  492   2.947   1.532   0.680 -1.2857  0.3269 -1.3421
  165SOL     OW  493   0.144   3.094   2.063  0.0294 -0.1193 -0.2089
  165SOL    HW1  494   0.151   3.017   2.000 -1.8644  2.4734 -0.3980
  165SOL    HW2  495   0.128   0.083   2.003 -0.8978  1.6639  2.0254
  166SOL     OW  496   2.116   0.801   0.604 -0.0494 -0.0232  0.1872
  166SOL    HW1  497   2.168   0.758   0.531  0.0961 -0.6707  2.0109
  166SOL    HW2  498   2.023   0.770   0.600  1.1635  0.7638  3.1243
  167SOL     OW  499   0.585   0.644   0.596  0.1812 -0.6226  0.3831
  167SOL    HW1  500   0.601   0.708   0.519  1.5191 -0.5310  2.7905
  167SOL    HW2  501   0.489   0.628   0.623 -2.0009 -1.0487  1.8372
  168SOL     OW  502   1.780   2.835   2.144 -0.5809 -0.2459 -0.2078
  168SOL    HW1  503   1.829   2.786   2.218 -2.0679  2.7035  1.2707
  168SOL    HW2  504   1.733   2.917   2.178  0.2533 -2.3044 -1.2099
  169SOL     OW  505   1.168   1.109   0.745 -0.1115  0.0135  0.2097
  169SOL    HW1  506   1.124   1.027   0.701  2.0770 -0.8001 -3.2992
  169SOL    HW2  507   1.108   1.157   0.813 -1.3597  2.3690  1.6159
  170SOL     OW  508   0.135   0.302   1.271  0.2520  0.0408 -0.3159
  170SOL    HW1  509   0.215   0.334   1.323 -0.6348  0.0832  1.0136
  170SOL    HW2  510   0.051   0.364   1.285 -0.7001 -1.0778 -0.8967
  171SOL     OW  511   0.935   2.825   1.737 -0.0411  0.7062 -0.2039
  171SOL    HW1  512   0.870   2.823   1.660  3.5489  1.9259 -0.5342
  171SOL    HW2  513   1.009   2.890   1.717 -0.1643  0.9556 -0.3317
  172SOL     OW  514   0.332   2.302   1.501  0.5489 -0.4101  0.2435
  172SOL    HW1  515   0.309   2.202   1.490 -1.2550  0.3831  1.3690
  172SOL    HW2  516   0.433   2.312   1.507 -1.1435  1.2974 -0.2157
  173SOL     OW  517   1.315   0.773   2.563  0.0823 -0.2031  0.1840
  173SOL    HW1  518   1.325   0.803   2.468 -1.1171  0.6801  0.9057
  173SOL    HW2  519   1.406   0.756   2.602  1.1340 -1.0599 -0.5214
  174SOL     OW  520   1.834   0.103   3.025 -0.2333  0.0412 -0.0738
  174SOL    HW1  521   1.792   0.174   3.087  1.8261  1.6036  1.7862
  174SOL    HW2  522   1.870   0.136   2.934 -0.5113  2.2917 -0.3263
  175SOL     OW  523   1.816   2.655   0.257 -0.3251  0.2345 -0.1803
  175SOL    HW1  524   1.714   2.651   0.270  0.4599 -0.3725 -0.4169
  175SOL    HW2  525   1.855   2.602   0.186  1.6041  5.6754  0.3811
  176SOL     OW  526   1.571   0.070   2.820  0.3828  0.0015 -0.6533
  176SOL    HW1  527   1.567   0.158   2.869 -1.7786 -1.9999 -1.7842
  176SOL    HW2  528   1.649   0.076   2.753 -0.6359 -1.5760  1.0525
  177SOL     OW  529   1.200   1.626   0.570  0.3217 -0.3136 -0.2177
  177SOL    HW1  530   1.238   1.537   0.599 -0.6202 -1.8553 -0.5139
  177SOL    HW2  531   1.110   1.651   0.612 -0.6537  2.2830  0.5360
  178SOL     OW  532   2.855   2.146   2.373  0.1640 -0.5674  0.0191
  178SOL    HW1  533   2.883   2.094   2.455 -0.8674  0.4414  0.7280
  178SOL    HW2  534   2.927   2.210   2.341 -0.2108  0.4805  1.6908
  179SOL     OW  535   0.341   2.512   2.559 -0.2583 -0.5761 -0.2762
  179SOL    HW1  536   0.398   2.592   2.524 -0.1957  1.0734 -0.7574
  179SOL    HW2  537   0.401   2.458   2.619 -1.8790  0.5539 -0.0179
  180SOL     OW  538   1.662   1.831   0.845 -0.5646  0.2977 -0.8126
  180SOL    HW1  539   1.706   1.859   0.937  1.8496 -0.1067  0.4641
  180SOL    HW2  540   1.566   1.803   0.859 -2.0268  2.4467 -0.0420
  181SOL     OW  541   2.042   1.117   2.351  0.1576  0.1961  0.0685
  181SOL    HW1  542   2.102   1.071   2.421 -0.4599  1.0510 -1.5473
  181SOL    HW2  543   2.080   1.083   2.261  0.1547 -1.4507  2.8698
  182SOL     OW  544   2.820   2.782   2.494 -0.2125  0.2171  0.1642
  182SOL    HW1  545   2.758   2.815   2.416 -2.1718 -0.0297  0.1025
  182SOL    HW2  546   2.875   2.852   2.538  1.3018  0.3697  0.1106
  183SOL     OW  547   1.209   0.544   2.143 -0.3403 -0.1243  0.7551
  183SOL    HW1  548   1.298   0.516   2.184 -1.1043 -3.7725  1.0565
  183SOL    HW2  549   1.233   0.588   2.053  1.9959 -2.3869 -0.8190
  184SOL     OW  550   0.756   0.755   1.783  0.1734  0.5400 -0.3542
  184SOL    HW1  551   0.669   0.742   1.828  3.8429  3.3605  0.3557
  184SOL    HW2  552   0.828   0.694   1.830 -0.8607 -1.6820  0.3917
  185SOL     OW  553   1.920   1.177   0.606 -0.8005 -0.4892  0.3298
  185SOL    HW1  554   1.867   1.163   0.526  3.7179 -2.4126  5.3863
  185SOL    HW2  555   2.018   1.150   0.579 -0.2148  0.9454 -1.0089
  186SOL     OW  556   0.059   2.171   2.663 -0.1038  0.0869  0.3961
  186SOL    HW1  557   0.042   2.072   2.668 -1.9431 -1.4135  1.1240
  186SOL    HW2  558   3.068   2.222   2.678  2.7102 -0.6498  0.5533
  187SOL     OW  559   2.434   1.478   0.393 -0.2491  0.0178  0.1508
  187SOL    HW1  560   2.444   1.582   0.394 -1.0097  0.5612 -2.0158
  187SOL    HW2  561   2.399   1.450   0.308  2.4959  0.0863  3.4980
  188SOL     OW  562   0.250   1.676   1.066  0.0862 -0.0342 -0.2829
  188SOL    HW1  563   0.328   1.660   1.000  0.5850  1.7245  4.6847
  188SOL    HW2  564   0.234   1.772   1.098  0.0234  0.8798  0.7004
  189SOL     OW  565   2.440   0.553   0.269 -0.2659 -0.2818  0.2253
  189SOL    HW1  566   2.414   0.581   0.174 -0.1062  0.6868  0.9444
  189SOL    HW2  567   2.487   0.465   0.258  0.8458  3.5204  0.6381
  190SOL     OW  568   1.171   1.670   2.062 -0.2703 -0.5385  0.4662
  190SOL    HW1  569   1.146   1.744   2.125  0.7436  0.7652  1.2028
  190SOL    HW2  570   1.133   1.584   2.093 -0.3636  3.7745 -2.1659
  191SOL     OW  571   2.710   0.328   1.758  0.3510  0.1115 -0.1192
  191SOL    HW1  572   2.654   0.244   1.742  1.7789 -0.6243 -1.2885
  191SOL    HW2  573   2.745   0.335   1.852  2.0869 -1.2490 -3.1868
  192SOL     OW  574   1.795   1.420   1.473  0.0772  0.4774  0.2774
  192SOL    HW1  575   1.888   1.374   1.486  0.0438  0.7399 -0.4058
  192SOL    HW2  576   1.768   1.467   1.557 -1.1435  1.5988  0.0074
  193SOL     OW  577   1.188   0.752   0.591  0.4731 -0.6705 -0.2543
  193SOL    HW1  578   1.083   0.741   0.572  0.0661 -1.1667 -1.3407
  193SOL    HW2  579   1.196   0.764   0.692 -0.8707  1.8188  2.4754
  194SOL     OW  580   1.260   2.854   1.138  0.0617 -0.2387 -0.2804
  194SOL    HW1  581   1.207   2.910   1.071 -1.8128 -0.5903 -0.4332
  194SOL    HW2  582   1.291   2.765   1.097  1.0626 -1.5759 -0.7392
  195SOL     OW  583   2.085   0.194   0.156 -0.7149 -0.1665  0.4368
  195SOL    HW1  584   2.112   0.113   0.099 -2.0446 -2.2591  0.8947
  195SOL    HW2  585   2.136   0.184   0.243  0.3326  0.5439 -0.1319
  196SOL     OW  586   0.586   2.358   1.423 -0.0472  0.8782 -0.0658
  196SOL    HW1  587   0.628   2.271   1.447 -1.7630  1.4753  0.1377
  196SOL    HW2  588   0.642   2.439   1.435 -1.0898 -1.4005  0.0496
  197SOL     OW  589   0.618   2.307   0.448 -0.5663  0.5613  1.0337
  197SOL    HW1  590   0.701   2.335   0.497 -0.7693 -2.4887 -2.4323
  197SOL    HW2  591   0.534   2.340   0.488 -1.4030 -2.1305 -2.5635
  198SOL     OW  592   0.922   0.984   0.675 -0.4433 -0.3681 -0.0515
  198SOL    HW1  593   0.924   0.990   0.777 -2.6610 -0.7706  1.6368
  198SOL    HW2  594   0.845   1.035   0.631  2.9109 -1.5284  2.4775
  199SOL     OW  595   3.084   2.970   1.384 -0.0347  0.4895  0.2959
  199SOL    HW1  596   2.990   2.963   1.422  1.8757  1.0643 -2.1597
  199SOL    HW2  597   0.030   2.882   1.379  1.0995  2.9716 -0.6231
  200SOL     OW  598   2.268   1.669   2.678 -0.0352  0.4228  0.2012
  200SOL    HW1  599   2.307   1.632   2.591 -0.2870  0.0255 -2.6020
  200SOL    HW2  600   2.325   1.623   2.746  0.2869  0.1186 -0.2349
  201SOL     OW  601   2.826   2.206   1.291 -0.2567 -0.2945  0.3084
  201SOL    HW1  602   2.908   2.198   1.346 -0.7194  1.4144 -0.7183
  201SOL    HW2  603   2.756   2.138   1.316  0.7009  0.2427  0.2253
  202SOL     OW  604   2.768   0.292   0.486  0.0301 -0.4373  0.1659
  202SOL    HW1  605   2.706   0.323   0.409 -0.7533 -0.1107  1.0953
  202SOL    HW2  606   2.841   0.235   0.445 -0.1692  1.6360 -0.7608
  203SOL     OW  607   1.030   2.200   2.111  0.0904 -0.1951  0.7669
  203SOL    HW1  608   1.082   2.172   2.194 -1.9534  1.8266  3.3282
  203SOL    HW2  609   1.026   2.305   2.109 -0.0926  0.4035  0.2585
  204SOL     OW  610   1.034   1.598   1.720  0.3517  0.5035  0.0645
  204SOL    HW1  611   0.942   1.628   1.733 -0.1112 -1.5970  1.4628
  204SOL    HW2  612   1.095   1.681   1.731 -3.1692  1.7275  1.2368
  205SOL     OW  613   0.905   2.080   1.660 -0.5990 -0.1522 -0.1363
  205SOL    HW1  614   1.007   2.076   1.637  2.6838 -1.5852 -3.7369
  205SOL    HW2  615   0.888   2.025   1.741 -0.5204  0.6454  2.9868
  206SOL     OW  616   0.211   0.591   2.701 -0.1148  0.2490  0.2338
  206SOL    HW1  617   0.298   0.624   2.740 -0.0046  1.1217  1.3849
  206SOL    HW2  618   0.140   0.637   2.757  2.7966  1.5588 -0.0755
  207SOL     OW  619   1.609   0.039   1.962  0.0321  0.2232 -0.0465
  207SOL    HW1  620   1.553   0.009   1.880 -0.8980  1.1674 -0.2347
  207SOL    HW2  621   1.622   3.051   2.016 -0.3013 -0.2111 -2.1042
  208SOL     OW  622   0.640   2.476   1.788  0.0779 -0.0275  0.0351
  208SOL    HW1  623   0.634   2.512   1.882  2.8618  2.9778 -1.3577
  208SOL    HW2  624   0.611   2.539   1.713 -0.6024 -1.7306 -0.1700
  209SOL     OW  625   1.881   1.027   3.016 -0.5881  0.4884  0.2570
  209SOL    HW1  626   1.904   0.931   2.997  1.3690  1.9710 -4.3133
  209SOL    HW2  627   1.779   1.041   3.010 -0.3225 -2.1141 -1.6067
  210SOL     OW  628   0.099   0.431   1.020 -0.0577 -0.1937  0.5875
  210SOL    HW1  629   0.055   0.352   0.976  0.7812 -1.6667 -1.4745
  210SOL    HW2  630   0.135   0.406   1.116  1.4571 -0.3430  0.4680
  211SOL     OW  631   0.874   0.814   1.324  0.0033  0.5706  0.2436
  211SOL    HW1  632   0.811   0.770   1.390 -2.6047  0.4775  1.2638
  211SOL    HW2  633   0.967   0.814   1.362 -2.8113 -0.7914 -2.1671
  212SOL     OW  634   1.184   2.262   1.053  0.2928 -0.2065  0.1877
  212SOL    HW1  635   1.143   2.256   1.148  0.3800 -2.6156  1.8209
  212SOL    HW2  636   1.105   2.263   0.990  2.0732  1.1618  1.4687
  213SOL     OW  637   2.065   0.187   2.050 -0.6099  0.4493  0.2094
  213SOL    HW1  638   1.978   0.201   2.001 -1.0666 -1.2820  0.0034
  213SOL    HW2  639   2.126   0.117   2.002  2.5616 -3.5640 -2.8167
  214SOL     OW  640   1.380   2.420   2.589 -0.3941  0.6975 -0.7071
  214SOL    HW1  641   1.405   2.383   2.679  3.3229  1.6147 -0.2553
  214SOL    HW2  642   1.423   2.513   2.580  1.9766  1.5484  2.2377
  215SOL     OW  643   3.064   1.721   1.372  0.1209 -0.3925  0.2084
  215SOL    HW1  644   3.009   1.789   1.429 -0.9146  0.5236 -2.1103
  215SOL    HW2  645   3.006   1.640   1.345  2.1048  2.2185  2.1653
  216SOL     OW  646   0.389   0.326   2.221  0.5004 -0.6421  0.0135
  216SOL    HW1  647   0.462   0.282   2.278  0.8993 -0.9170 -1.6650
  216SOL    HW2  648   0.398   0.282   2.131  0.0272 -1.2543  3.0190
  217SOL     OW  649   2.829   0.346   0.087 -0.0007 -0.5348  0.2473
  217SOL    HW1  650   2.813   0.441   0.063  0.5099  0.2441  1.5377
  217SOL    HW2  651   2.928   0.321   0.057  0.0520 -1.0921  3.0402
  218SOL     OW  652   1.688   1.999   2.174  0.2871  0.3343  0.0771
  218SOL    HW1  653   1.649   1.939   2.245 -0.2783  0.2982  0.1887
  218SOL    HW2  654   1.699   1.949   2.087  0.1283  0.8097  2.5819
  219SOL     OW  655   1.940   0.973   0.375 -0.4492 -0.0316 -0.5737
  219SOL    HW1  656   1.888   1.058   0.353  0.0920 -1.7311  1.2238
  219SOL    HW2  657   1.876   0.898   0.391 -1.2074 -3.1419  0.7941
  220SOL     OW  658   1.450   2.254   1.132  0.1681  0.0154  0.8900
  220SOL    HW1  659   1.469   2.153   1.131 -0.7059 -2.0502 -1.0604
  220SOL    HW2  660   1.383   2.276   1.059  1.2678 -0.4815 -1.1042
  221SOL     OW  661   0.244   0.762   0.013 -0.2591  0.7476 -0.0301
  221SOL    HW1  662   0.177   0.814   0.072  0.3375  1.6265  1.7337
  221SOL    HW2  663   0.255   0.811   3.021 -0.1052  0.7070  2.2036
  222SOL     OW  664   1.096   2.781   1.346 -0.1541 -0.4961 -0.8948
  222SOL    HW1  665   1.171   2.783   1.415 -0.8001 -1.4723  0.8582
  222SOL    HW2  666   1.143   2.820   1.263  0.0331  0.4737  0.1310
  223SOL     OW  667   1.445   0.467   2.554 -0.7143 -0.1771  0.4015
  223SOL    HW1  668   1.506   0.395   2.530  1.9750  2.8131 -0.4193
  223SOL    HW2  669   1.499   0.546   2.598 -0.7561  1.6603  0.4003
  224SOL     OW  670   2.840   0.899   1.119  0.5958 -0.7114 -0.6821
  224SOL    HW1  671   2.763   0.835   1.149 -3.2034 -0.6909  1.2073
  224SOL    HW2  672   2.897   0.917   1.202  0.8325  1.7598 -1.5058
  225SOL     OW  673   1.005   1.160   1.438 -0.0715 -0.4582  0.2037
  225SOL    HW1  674   0.910   1.135   1.442  4.2337  2.4186  1.8259
  225SOL    HW2  675   1.020   1.251   1.397  0.3922 -4.7955  1.7777
  226SOL     OW  676   1.185   3.008   0.081 -0.1083 -0.3315  0.3146
  226SOL    HW1  677   1.251   3.010   0.005 -3.2243 -0.0071  4.7735
  226SOL    HW2  678   1.225   3.029   0.171 -0.5491  2.2213 -1.1841
  227SOL     OW  679   0.733   1.465   1.205 -0.4328 -0.5352  0.7888
  227SOL    HW1  680   0.723   1.489   1.107  1.6943  3.5039  4.2489
  227SOL    HW2  681   0.684   1.532   1.265 -0.8300  0.3514 -2.7069
  228SOL     OW  682   0.349   2.697   1.286  0.5333  0.6239 -0.0229
  228SOL    HW1  683   0.379   2.787   1.316 -3.2453 -1.9904 -0.4139
  228SOL    HW2  684   0.308   2.648   1.366  0.5151 -1.2899 -0.4324
  229SOL     OW  685   2.372   1.002   0.391  0.0138  0.2829 -0.3346
  229SOL    HW1  686   2.342   0.899   0.385 -0.9198 -3.6768  2.4595
  229SOL    HW2  687   2.438   1.024   0.315 -0.8421  1.2858  2.1339
  230SOL     OW  688   0.709   1.247   1.943  0.7285  0.1576 -0.4366
  230SOL    HW1  689   0.685   1.157   1.894 -0.5976 -3.3239 -2.1881
  230SOL    HW2  690   0.781   1.241   2.011  0.7414 -1.5916 -1.6024
  231SOL     OW  691   1.418   2.126   1.625  0.2884 -0.2308 -0.4523
  231SOL    HW1  692   1.501   2.181   1.596  1.0058 -2.2429  1.8519
  231SOL    HW2  693   1.403   2.125   1.726  2.4616 -1.2810 -0.3691
  232SOL     OW  694   2.052   2.356   0.540  0.3863 -0.3542  0.2135
  232SOL    HW1  695   2.027   2.365   0.639  0.6266  1.9645  1.4089
  232SOL    HW2  696   2.148   2.327   0.540 -0.0734  1.3412 -2.8905
  233SOL     OW  697   0.829   2.447   3.033  0.2922 -0.0140  0.5869
  233SOL    HW1  698   0.852   2.544   3.063  0.1717  0.6624  0.0426
  233SOL    HW2  699   0.913   2.393   3.029 -0.7820 -1.7052 -0.3761
  234SOL     OW  700   1.028   0.230   2.455 -0.3732  0.0348 -0.4720
  234SOL    HW1  701   1.105   0.268   2.512 -1.9411  2.5015 -2.6390
  234SOL    HW2  702   0.970   0.162   2.510 -0.9249  0.8180 -1.5998
  235SOL     OW  703   0.038   2.077   3.033  0.5795  0.0033  0.0120
  235SOL    HW1  704   3.078   2.011   2.981 -0.2723 -0.7626  0.3306
  235SOL    HW2  705   0.094   2.019   3.092 -1.1530  0.1047 -0.4007
  236SOL     OW  706   1.987   2.586   2.639 -0.3714  0.2975  0.0005
  236SOL    HW1  707   1.960   2.489   2.645 -0.6824  1.0020  0.0061
  236SOL    HW2  708   2.077   2.600   2.692  0.9923 -0.4861  0.7942
  237SOL     OW  709   2.057   1.299   1.512 -0.0901  0.3879  0.0871
  237SOL    HW1  710   2.141   1.356   1.515 -3.1821 -1.7629 -0.5249
  237SOL    HW2  711   2.059   1.261   1.416  2.5058  0.4881  2.0563
  238SOL     OW  712   2.083   0.098   2.468  0.4107 -0.5351  0.5561
  238SOL    HW1  713   2.087   0.186   2.418  1.5398 -0.3264  0.9345
  238SOL    HW2  714   2.003   0.041   2.446 -1.5925  0.2497  0.7111
  239SOL     OW  715   0.478   1.732   1.748 -0.0496  0.3595 -0.5783
  239SOL    HW1  716   0.432   1.640   1.741 -0.3035 -1.4920  1.3811
  239SOL    HW2  717   0.565   1.733   1.698 -1.0958  1.4314  2.2761
  240SOL     OW  718   0.129   2.129   0.555 -0.3685 -0.2653  0.0744
  240SOL    HW1  719   0.041   2.138   0.504  0.3783  0.7948 -0.7918
  240SOL    HW2  720   0.121   2.071   0.635  0.7195  0.2096 -0.0876
  241SOL     OW  721   1.315   2.243   0.273  0.0985  0.5776  0.1124
  241SOL    HW1  722   1.349   2.235   0.371  1.9398 -1.1540 -1.8511
  241SOL    HW2  723   1.391   2.244   0.204 -0.4513  2.1561  1.5120
  242SOL     OW  724   1.778   1.193   0.346 -0.2190  0.0417  0.6234
  242SOL    HW1  725   1.790   1.232   0.249 -1.9962  2.0441 -1.3395
  242SOL    HW2  726   1.694   1.136   0.356  2.5852 -5.3585  1.0661
  243SOL     OW  727   0.855   0.008   1.971 -1.0567 -0.2878 -0.3829
  243SOL    HW1  728   0.956   3.088   1.947  1.3598 -1.1081  1.9781
  243SOL    HW2  729   0.847   0.061   2.061 -0.0685  0.1042  1.1507
  244SOL     OW  730   1.974   2.873   2.934  0.3683 -0.1033 -0.1297
  244SOL    HW1  731   1.892   2.864   2.875  0.0840 -0.2304 -1.0195
  244SOL    HW2  732   1.958   2.909   3.026  1.0223 -1.0286 -0.3456
  245SOL     OW  733   1.380   2.964   2.992 -0.3586  0.5131  0.1875
  245SOL    HW1  734   1.451   3.016   2.932  1.1758  0.9411 -3.4914
  245SOL    HW2  735   1.418   2.881   3.039 -1.0915 -0.8911  0.1238
  246SOL     OW  736   0.979   0.783   2.442  0.0580  0.0181 -0.3174
  246SOL    HW1  737   0.942   0.710   2.500  1.1895 -0.5931  1.2984
  246SOL    HW2  738   0.978   0.870   2.499 -1.7635  0.6428  1.1521
  247SOL     OW  739   0.191   0.457   1.857  0.2083  0.2807 -0.0699
  247SOL    HW1  740   0.250   0.518   1.915  3.7108 -1.5940 -0.8049
  247SOL    HW2  741   0.097   0.495   1.846 -1.7261 -0.4048 -0.7831
  248SOL     OW  742   0.686   0.875   2.049  0.0240 -0.6836 -0.1356
  248SOL    HW1  743   0.786   0.871   2.078  0.0778 -1.6833  1.6963
  248SOL    HW2  744   0.676   0.921   1.959 -0.7313 -1.8246 -0.4559
  249SOL     OW  745   2.093   0.588   0.075  0.0101  0.3110  0.5682
  249SOL    HW1  746   2.013   0.525   0.057 -1.3171 -3.5062  0.7228
  249SOL    HW2  747   2.072   0.638   0.165 -2.0482 -1.2636 -0.6601
  250SOL     OW  748   0.339   0.271   0.469 -0.0664 -0.1428 -0.4356
  250SOL    HW1  749   0.314   0.364   0.443 -0.7681  2.4001  1.4199
  250SOL    HW2  750   0.340   0.270   0.570 -0.0130  1.5126 -0.6835
  251SOL     OW  751   1.001   0.405   2.233 -0.3542  0.6763  0.7054
  251SOL    HW1  752   1.026   0.355   2.320  2.1437 -1.5403 -0.8766
  251SOL    HW2  753   1.082   0.458   2.199  1.6284  3.5477 -0.1608
  252SOL     OW  754   1.471   1.851   1.781 -0.1240 -0.1215  0.1210
  252SOL    HW1  755   1.525   1.804   1.713 -1.9977 -0.0879 -0.4243
  252SOL    HW2  756   1.373   1.844   1.757  0.1503 -0.5585  0.7203
  253SOL     OW  757   1.617   2.724   1.989  0.0614  0.5392 -0.7494
  253SOL    HW1  758   1.696   2.761   2.048 -0.0927  0.8271  0.9883
  253SOL    HW2  759   1.592   2.628   2.006 -1.3006  0.4347  0.5975
  254SOL     OW  760   0.755   2.163   2.085 -0.1261  0.2106 -0.4029
  254SOL    HW1  761   0.859   2.163   2.088 -2.6232 -2.5551  0.3543
  254SOL    HW2  762   0.714   2.071   2.078 -0.4390  0.4024 -2.1648
  255SOL     OW  763   1.352   0.595   0.445  0.1309  0.8644  0.1130
  255SOL    HW1  764   1.308   0.649   0.520 -1.1137 -0.6107  0.6171
  255SOL    HW2  765   1.278   0.566   0.382 -2.2546 -1.9633  2.3412
  256SOL     OW  766   1.998   1.948   1.511 -0.4257  0.0919  0.6033
  256SOL    HW1  767   1.990   2.049   1.488 -0.9749  0.4146 -1.0985
  256SOL    HW2  768   1.929   1.888   1.465  1.2267 -2.2860  2.2597
  257SOL     OW  769   0.233   2.264   2.468  0.1211  0.3031 -0.2588
  257SOL    HW1  770   0.270   2.351   2.504  0.0266  0.4814 -0.3403
  257SOL    HW2  771   0.155   2.231   2.529  1.1043 -0.2241  0.2619
  258SOL     OW  772   0.771   0.229   2.175  0.4124 -0.2199 -0.3631
  258SOL    HW1  773   0.839   0.298   2.188 -1.4712 -1.5185 -0.1844
  258SOL    HW2  774   0.723   0.201   2.260  0.5453  1.8278 -3.6062
  259SOL     OW  775   1.209   0.770   2.300 -0.2500 -0.2868 -0.2989
  259SOL    HW1  776   1.136   0.761   2.368  3.5788  0.1021 -1.1925
  259SOL    HW2  777   1.207   0.686   2.243  2.3276  1.2045  1.5718
  260SOL     OW  778   1.655   0.807   0.680 -0.3585  0.6792 -0.5492
  260SOL    HW1  779   1.627   0.864   0.758  0.2289  2.2343  0.2344
  260SOL    HW2  780   1.634   0.708   0.698  0.1327  0.0032 -1.3676
  261SOL     OW  781   0.632   0.028   2.961 -0.0904 -0.3934  0.6551
  261SOL    HW1  782   0.675   3.051   3.015 -0.8764 -0.1846  0.0438
  261SOL    HW2  783   0.565   3.084   2.891 -0.0714 -0.0443  0.3039
  262SOL     OW  784   2.676   3.025   2.904 -0.1144 -0.2754 -0.5604
  262SOL    HW1  785   2.769   2.984   2.889  0.8932 -1.2233 -4.1053
  262SOL    HW2  786   2.684   0.003   2.978  2.0810 -2.1199  0.6514
  263SOL     OW  787   0.281   2.034   0.361 -0.0992  0.0590  0.0483
  263SOL    HW1  788   0.229   2.081   0.440 -1.1588  2.8289 -1.4012
  263SOL    HW2  789   0.351   2.096   0.323 -0.9166 -0.3261  2.0281
  264SOL     OW  790   0.585   1.379   1.528  0.0166 -0.4492  0.5078
  264SOL    HW1  791   0.658   1.363   1.602 -3.6100 -0.2815  1.1609
  264SOL    HW2  792   0.503   1.419   1.568  1.8664 -1.9655  0.7149
  265SOL     OW  793   0.509   1.265   0.379 -0.2354  0.1529 -0.2396
  265SOL    HW1  794   0.456   1.185   0.344  0.0541 -0.0053 -0.6225
  265SOL    HW2  795   0.511   1.334   0.302  0.7431 -0.5331 -2.5815
  266SOL     OW  796   1.874   1.430   0.413 -0.4410 -0.4950  0.1905
  266SOL    HW1  797   1.826   1.338   0.392  0.5070  0.1940  0.0893
  266SOL    HW2  798   1.954   1.412   0.482  3.4193 -1.2738  0.3683
  267SOL     OW  799   0.006   0.429   3.092  0.4859 -0.1220 -0.4729
  267SOL    HW1  800   0.081   0.360   3.082  0.4755 -0.5677  3.1560
  267SOL    HW2  801   3.091   0.480   3.004  1.2486 -0.2196  0.7348
  268SOL     OW  802   0.456   3.035   2.758 -0.2773  0.0701 -0.2572
  268SOL    HW1  803   0.423   2.940   2.774 -0.7858 -0.0006 -0.8873
  268SOL    HW2  804   0.382   3.092   2.716  2.0676  1.2062  0.8152
  269SOL     OW  805   1.963   0.202   2.792 -0.4306 -0.0885 -0.5528
  269SOL    HW1  806   1.957   0.304   2.814 -0.6702 -0.0380  1.8730
  269SOL    HW2  807   2.057   0.173   2.774 -1.9183 -0.5898 -1.0789
  270SOL     OW  808   0.950   1.021   2.622  0.0107 -0.5268 -0.4816
  270SOL    HW1  809   0.858   0.998   2.665  0.6004  1.2702  0.4531
  270SOL    HW2  810   1.007   1.056   2.699  0.7697  1.0454  0.9849
  271SOL     OW  811   2.541   1.046   0.174 -0.1681  0.1419 -0.0667
  271SOL    HW1  812   2.559   0.967   0.119  2.8558  1.1828  1.2626
  271SOL    HW2  813   2.520   1.129   0.116 -0.2797  0.3311  1.4641
  272SOL     OW  814   2.749   1.792   2.452  0.0171 -1.3341 -0.0049
  272SOL    HW1  815   2.683   1.840   2.517 -1.9709  0.7396 -1.0958
  272SOL    HW2  816   2.704   1.742   2.379  0.9831  0.8925 -1.7536
  273SOL     OW  817   2.544   0.415   2.938 -0.1262 -0.0352 -0.0321
  273SOL    HW1  818   2.496   0.374   2.861 -0.1517  0.9562 -0.0271
  273SOL    HW2  819   2.591   0.504   2.919 -0.8968 -1.7985 -0.8678
  274SOL     OW  820   0.203   2.806   1.080  0.1474  0.1857 -0.1526
  274SOL    HW1  821   0.220   2.891   1.037 -2.2759 -2.1742 -1.6790
  274SOL    HW2  822   0.284   2.771   1.132  0.6474 -0.6749  2.3039
  275SOL     OW  823   2.110   1.440   0.777 -0.0946  0.1387  0.2614
  275SOL    HW1  824   2.008   1.436   0.794 -1.7930 -0.0620 -1.2163
  275SOL    HW2  825   2.122   1.475   0.681  0.8006 -0.1518 -2.2564
  276SOL     OW  826   0.191   1.276   2.735 -0.6192 -0.2296 -0.9831
  276SOL    HW1  827   0.285   1.282   2.691 -1.2084 -0.3268  1.8703
  276SOL    HW2  828   0.123   1.276   2.658 -0.0273 -0.0100  2.6397
  277SOL     OW  829   1.653   2.734   1.709  0.4853 -0.2502  0.6302
  277SOL    HW1  830   1.584   2.688   1.644 -1.1120  0.1989 -1.1088
  277SOL    HW2  831   1.636   2.717   1.807  2.2723 -0.5746  1.0710
  278SOL     OW  832   1.509   0.444   1.972  0.5509  0.3787  0.2319
  278SOL    HW1  833   1.501   0.422   1.876  1.6282  1.2176  0.6636
  278SOL    HW2  834   1.536   0.541   1.980 -0.8837 -0.3769  0.1976
  279SOL     OW  835   2.029   1.570   0.220 -0.0833 -0.3970 -0.1988
  279SOL    HW1  836   2.077   1.621   0.293 -0.4694 -1.0546  2.9795
  279SOL    HW2  837   1.951   1.520   0.265 -1.0655  1.1303  0.4282
  280SOL     OW  838   0.533   1.327   0.845 -0.3087 -0.0629 -0.8045
  280SOL    HW1  839   0.480   1.267   0.909 -1.8935  0.8211 -0.0764
  280SOL    HW2  840   0.531   1.291   0.752 -0.0958  0.6975  0.7177
  281SOL     OW  841   0.255   0.084   2.626  0.4345  0.3837 -0.7225
  281SOL    HW1  842   0.257   0.180   2.593  0.4431  0.9562  0.4256
  281SOL    HW2  843   0.214   0.022   2.554  0.5840 -1.9580  1.8458
  282SOL     OW  844   0.314   0.849   1.371  0.1527  0.4271 -0.0515
  282SOL    HW1  845   0.276   0.877   1.279  1.5478 -1.4620 -0.9833
  282SOL    HW2  846   0.254   0.772   1.407 -3.3778  1.9861  0.6204
  283SOL     OW  847   1.729   2.216   0.142 -0.6770  0.1097  0.0606
  283SOL    HW1  848   1.794   2.250   0.070  1.1565  0.7798 -2.7756
  283SOL    HW2  849   1.637   2.207   0.097  0.3524 -1.4302 -0.5012
  284SOL     OW  850   1.518   1.527   0.689  0.4821  0.9312 -0.4321
  284SOL    HW1  851   1.480   1.605   0.739 -0.1853  0.5197  2.0229
  284SOL    HW2  852   1.591   1.559   0.628 -0.8036  0.9752  0.7673
  285SOL     OW  853   2.972   2.989   2.877  0.0656  0.3617 -0.0578
  285SOL    HW1  854   3.002   3.007   2.972  0.7656 -0.5905 -0.0402
  285SOL    HW2  855   3.045   2.944   2.823 -0.6612  0.3250 -0.6585
  286SOL     OW  856   1.740   0.075   1.571 -0.0148  0.0587  0.5569
  286SOL    HW1  857   1.777   0.000   1.622 -1.7085  2.5885  1.3748
  286SOL    HW2  858   1.712   0.042   1.475  0.2276 -1.8067 -0.4462
  287SOL     OW  859   0.909   1.051   1.181  0.3586 -0.7055 -0.8838
  287SOL    HW1  860   0.900   0.954   1.213  0.5293  1.5027 -1.7986
  287SOL    HW2  861   0.845   1.110   1.238 -2.1554  1.0014  3.8448
  288SOL     OW  862   1.519   2.922   0.268 -0.1227 -0.3113 -0.1545
  288SOL    HW1  863   1.561   2.956   0.180 -1.6810 -0.9486 -1.1985
  288SOL    HW2  864   1.429   2.965   0.280  2.1767  2.1675  1.1302
  289SOL     OW  865   0.195   1.519   2.899  0.6648 -0.0876 -0.2123
  289SOL    HW1  866   0.112   1.540   2.849  2.0366 -2.1662 -0.5433
  289SOL    HW2  867   0.237   1.432   2.855 -1.6614 -1.7081 -0.4365
  290SOL     OW  868   1.136   2.739   0.680  0.3261  0.3554 -0.4496
  290SOL    HW1  869   1.043   2.702   0.707 -0.5732 -0.0914  1.5402
  290SOL    HW2  870   1.212   2.678   0.719  0.7387 -0.6806  0.0485
  291SOL     OW  871   2.319   2.050   2.785  0.6503 -0.4473 -0.5383
  291SOL    HW1  872   2.271   1.991   2.715 -2.8639 -1.8100 -4.0656
  291SOL    HW2  873   2.402   1.998   2.818  1.6122  0.1094 -0.2358
  292SOL     OW  874   1.072   0.927   1.957 -0.5130  0.2140  0.2609
  292SOL    HW1  875   1.150   0.858   1.943  3.2413  0.1144  3.5423
  292SOL    HW2  876   1.109   1.023   1.950 -1.5537  0.9320 -0.0678
  293SOL     OW  877   2.083   2.757   1.059  0.1657  0.1133 -0.3700
  293SOL    HW1  878   2.106   2.858   1.041  1.1308 -0.2406  1.1571
  293SOL    HW2  879   2.168   2.707   1.080 -2.9544  1.4199  0.6445
  294SOL     OW  880   0.103   0.579   2.450  0.1087  0.4602 -0.1181
  294SOL    HW1  881   0.137   0.594   2.546 -2.1945  2.1638  1.9827
  294SOL    HW2  882   0.179   0.615   2.389  1.5309  0.5666  0.0333
  295SOL     OW  883   1.299   1.896   0.323 -0.4190 -0.0134 -0.5154
  295SOL    HW1  884   1.292   1.950   0.412  0.0397  1.2831 -0.5395
  295SOL    HW2  885   1.354   1.812   0.338  1.0190  0.7101 -0.7327
  296SOL     OW  886   2.199   1.753   0.043  0.4120 -0.3335  0.3467
  296SOL    HW1  887   2.152   1.752   3.047 -0.8279 -1.9991  1.0902
  296SOL    HW2  888   2.212   1.652   0.067 -1.3048 -3.1381  0.7932
  297SOL     OW  889   2.350   0.572   0.036 -0.2911  0.0300 -0.2375
  297SOL    HW1  890   2.371   0.516   3.053  0.2857  2.9490  0.7574
  297SOL    HW2  891   2.251   0.560   0.064 -3.6775 -1.4714 -2.1030
  298SOL     OW  892   0.945   2.236   2.602 -0.0501  0.2428 -0.0729
  298SOL    HW1  893   1.013   2.276   2.536 -1.0515 -0.1739  1.7348
  298SOL    HW2  894   0.851   2.273   2.569 -2.9256  1.4518  0.2984
  299SOL     OW  895   1.043   2.941   2.587  0.1006  0.1731  0.3528
  299SOL    HW1  896   1.126   2.971   2.526  2.7769 -3.1083 -0.7081
  299SOL    HW2  897   0.992   3.020   2.628 -3.2933  0.8997  0.8592
  300SOL     OW  898   2.648   0.161   3.032 -0.0688 -0.1794  0.0691
  300SOL    HW1  899   2.689   0.234   3.089 -1.6870  0.4014 -0.2921
  300SOL    HW2  900   2.610   0.204   2.951  1.4090 -0.4128 -0.1473
  301SOL     OW  901   1.347   1.240   1.286  0.5710 -0.5299  0.0520
  301SOL    HW1  902   1.339   1.177   1.369 -0.6048  0.5265  0.7626
  301SOL    HW2  903   1.396   1.329   1.315  1.7070  1.1006  2.8728
  302SOL     OW  904   2.735   2.486   0.386  0.1717  0.3313 -0.0692
  302SOL    HW1  905   2.829   2.512   0.413  0.2009  0.4007  0.0992
  302SOL    HW2  906   2.718   2.503   0.286 -1.6137 -1.9243 -1.6361
  303SOL     OW  907   2.916   2.518   2.490 -0.4355  0.3152  0.4769
  303SOL    HW1  908   2.873   2.611   2.499  1.0887  1.0404 -1.3537
  303SOL    HW2  909   3.015   2.531   2.453  2.2149  1.7929  0.4148
  304SOL     OW  910   3.048   0.567   1.884  0.1283 -0.2840  0.0770
  304SOL    HW1  911   3.010   0.643   1.941  1.9099 -1.4888  2.4362
  304SOL    HW2  912   2.975   0.542   1.815  0.4300 -3.6843 -2.5082
  305SOL     OW  913   0.420   2.014   2.020 -0.8047  0.9081 -0.2949
  305SOL    HW1  914   0.483   1.948   2.063 -0.7096 -0.1153  1.1561
  305SOL    HW2  915   0.467   2.066   1.945 -1.1832  0.0108 -2.2596
  306SOL     OW  916   2.676   0.973   1.847  0.2385  1.1733  0.3643
  306SOL    HW1  917   2.677   1.063   1.900  0.5418 -0.3921  0.0734
  306SOL    HW2  918   2.604   0.911   1.890 -1.1448 -1.6567  3.4173
  307SOL     OW  919   1.788   1.092   1.727  0.1444  0.6468  0.1485
  307SOL    HW1  920   1.784   0.987   1.708  2.0485 -1.0225 -0.0779
  307SOL    HW2  921   1.852   1.142   1.665  0.0371  1.5630  1.1190
  308SOL     OW  922   2.646   1.685   1.110  0.3106  0.2341  0.3953
  308SOL    HW1  923   2.562   1.736   1.142 -2.2623 -0.1914  0.1461
  308SOL    HW2  924   2.663   1.695   1.011  1.5892  1.1101 -1.2714
  309SOL     OW  925   2.171   1.680   1.622  0.0915 -0.1092  0.3348
  309SOL    HW1  926   2.144   1.755   1.557 -1.9774 -0.6705 -0.2877
  309SOL    HW2  927   2.192   1.599   1.568  0.9889  1.3604  2.3103
  310SOL     OW  928   2.813   1.621   2.695 -0.5485 -0.4555  0.0361
  310SOL    HW1  929   2.807   1.698   2.629  3.7154 -0.6417 -2.5357
  310SOL    HW2  930   2.766   1.542   2.654  0.7014  1.3507  1.6340
  311SOL     OW  931   2.535   1.912   2.576  0.3662  0.2682 -0.5145
  311SOL    HW1  932   2.463   1.842   2.570 -1.9275  0.3749 -0.4066
  311SOL    HW2  933   2.496   1.998   2.539 -0.5513 -3.6409  0.4437
  312SOL     OW  934   2.420   1.804   1.198  0.4251  0.3649  0.0318
  312SOL    HW1  935   2.373   1.714   1.217  0.9351 -2.1556 -0.3536
  312SOL    HW2  936   2.357   1.886   1.192 -2.2842  1.0153  0.9098
  313SOL     OW  937   2.331   2.641   1.093 -0.5611  0.9063  0.0037
  313SOL    HW1  938   2.388   2.725   1.093 -0.4262 -1.6695  0.0008
  313SOL    HW2  939   2.386   2.560   1.115 -2.0079 -1.5053 -2.3216
  314SOL     OW  940   1.029   1.978   0.271 -0.0772 -0.0979 -0.2024
  314SOL    HW1  941   1.127   1.954   0.267 -0.9692 -1.2771 -1.8701
  314SOL    HW2  942   0.993   1.981   0.369  1.7131  1.5658  1.1106
  315SOL     OW  943   0.767   2.637   2.444  0.6507  0.7825 -0.3043
  315SOL    HW1  944   0.825   2.716   2.412  1.0303  0.6179  0.5700
  315SOL    HW2  945   0.832   2.583   2.497 -0.1168  1.3488 -0.0172
  316SOL     OW  946   0.032   0.679   0.668 -0.2478  0.4237 -0.3910
  316SOL    HW1  947   0.009   0.778   0.674  1.6334 -0.1957 -1.1223
  316SOL    HW2  948   3.064   0.629   0.607 -1.1695  1.3849  0.2960
  317SOL     OW  949   1.020   0.503   0.546 -0.2064  0.1450  0.5404
  317SOL    HW1  950   0.996   0.452   0.630  1.2255 -2.1857  0.3592
  317SOL    HW2  951   0.955   0.579   0.527  0.0254 -1.5268  0.4485
  318SOL     OW  952   3.014   2.435   0.483  0.2831  0.5938  0.2369
  318SOL    HW1  953   3.018   2.502   0.559 -1.2372  1.5143  1.2851
  318SOL    HW2  954   2.990   2.341   0.511  0.5461 -1.6377 -0.1031
  319SOL     OW  955   0.277   1.410   2.397 -0.1308  0.6060 -0.4169
  319SOL    HW1  956   0.332   1.357   2.471  2.3187 -0.6332 -0.4630
  319SOL    HW2  957   0.330   1.489   2.372  0.0478  1.5710  3.1386
  320SOL     OW  958   0.885   2.700   1.999 -0.1470  0.3645  0.4907
  320SOL    HW1  959   0.917   2.745   1.913  3.1257 -0.4877  1.4241
  320SOL    HW2  960   0.789   2.664   1.993  0.2534 -1.0790 -2.0902
  321SOL     OW  961   0.935   2.660   0.068 -0.0946  0.1850 -0.0899
  321SOL    HW1  962   1.038   2.676   0.061  2.9284  2.3708 -2.1486
  321SOL    HW2  963   0.898   2.632   0.157 -0.2672  2.5977 -0.2523
  322SOL     OW  964   2.645   1.175   2.038 -0.3951  0.0775 -0.0134
  322SOL    HW1  965   2.555   1.196   2.086 -2.3733 -1.4594  0.0610
  322SOL    HW2  966   2.716   1.244   2.056 -2.4681  0.8324  1.2647
  323SOL     OW  967   2.292   0.754   0.391 -0.5724  0.8322  0.3342
  323SOL    HW1  968   2.201   0.731   0.350 -0.1825 -1.2490  0.5742
  323SOL    HW2  969   2.357   0.679   0.363 -0.7315 -1.7212  1.6480
  324SOL     OW  970   0.217   2.579   0.049  0.6757 -0.0564 -0.2250
  324SOL    HW1  971   0.192   2.501   3.087 -1.1852  2.0151 -3.3045
  324SOL    HW2  972   0.312   2.607   0.025 -2.6104  2.8253  0.6099
  325SOL     OW  973   1.783   0.106   2.635 -0.5870 -0.0426 -0.2211
  325SOL    HW1  974   1.835   0.171   2.695 -1.1680  1.4086  0.8144
  325SOL    HW2  975   1.847   0.032   2.596  3.0827 -0.4343  0.5269
  326SOL     OW  976   2.222   2.647   1.477 -0.1663 -0.5940  0.1673
  326SOL    HW1  977   2.279   2.701   1.551  1.1174  2.2937  2.3478
  326SOL    HW2  978   2.186   2.721   1.417  0.0248  0.0066  0.6098
  327SOL     OW  979   1.580   0.322   2.895 -0.2497 -0.1105 -0.3759
  327SOL    HW1  980   1.508   0.326   2.969  1.5397 -0.7349 -1.1151
  327SOL    HW2  981   1.577   0.409   2.838 -1.6221  6.2574  1.0747
  328SOL     OW  982   2.748   1.383   2.314  0.2064  0.2309  0.2352
  328SOL    HW1  983   2.783   1.449   2.245  2.2317 -0.9559  0.5283
  328SOL    HW2  984   2.709   1.433   2.393  0.9964  1.4700 -0.5555
  329SOL     OW  985   1.807   0.172   1.847  0.0883  0.0683 -0.0787
  329SOL    HW1  986   1.793   0.158   1.746 -0.1628 -2.1370 -0.4224
  329SOL    HW2  987   1.747   0.105   1.899 -2.0999  0.7376 -1.6897
  330SOL     OW  988   2.555   1.701   1.585  0.3147 -0.2668  0.1813
  330SOL    HW1  989   2.510   1.792   1.564  0.1374 -0.4365  1.3866
  330SOL    HW2  990   2.579   1.653   1.499  0.8748 -1.6400 -0.1750
  331SOL     OW  991   0.446   1.185   1.400 -0.6169  0.2452  0.1754
  331SOL    HW1  992   0.367   1.219   1.347  0.1212  0.9885  1.4366
  331SOL    HW2  993   0.500   1.259   1.448  0.3369 -1.9159  0.0496
  332SOL     OW  994   0.628   0.324   1.132 -0.1394  0.6653  0.2153
  332SOL    HW1  995   0.621   0.415   1.081 -0.1803 -0.2948  1.0011
  332SOL    HW2  996   0.691   0.330   1.210 -2.4678 -1.4436 -0.3058
  333SOL     OW  997   2.347   2.785   1.668 -0.0230  0.4595  0.0102
  333SOL    HW1  998   2.449   2.798   1.686  1.2209 -0.6399 -1.1752
  333SOL    HW2  999   2.306   2.780   1.759  0.9017 -0.2808 -1.3783
  334SOL     OW 1000   0.920   1.456   1.403  0.0671 -1.1031 -0.0873
  334SOL    HW1 1001   0.886   1.438   1.308  1.6297  1.3989 -2.4322
  334SOL    HW2 1002   1.013   1.499   1.401 -0.1993  0.8061  1.1670
  335SOL     OW 1003   0.475   2.705   3.050 -0.5745  0.2597 -0.4815
  335SOL    HW1 1004   0.505   2.784   0.007  1.8678 -1.8454 -0.0525
  335SOL    HW2 1005   0.416   2.738   2.976 -0.4784 -0.0536 -0.4460
  336SOL     OW 1006   2.919   3.047   1.802  0.1572  0.2809 -0.4995
  336SOL    HW1 1007   2.943   0.050   1.813 -0.0594  0.7299 -1.0995
  336SOL    HW2 1008   2.919   3.021   1.704 -2.3075  1.0500  1.9339
  337SOL     OW 1009   2.549   2.077   0.624 -0.4916 -0.1542  0.0474
  337SOL    HW1 1010   2.510   1.984   0.610 -0.6742  0.7041  1.8313
  337SOL    HW2 1011   2.552   2.132   0.538 -0.3140  2.9662 -1.9308
  338SOL     OW 1012   1.101   2.033   1.322 -0.4679  0.2484 -0.1587
  338SOL    HW1 1013   1.116   2.038   1.424  1.8963  0.3900  2.9897
  338SOL    HW2 1014   1.073   2.131   1.292  1.0867  1.9211  1.3791
  339SOL     OW 1015   2.924   0.618   2.423 -0.4857 -0.2771  0.4459
  339SOL    HW1 1016   2.885   0.551   2.360 -0.2436  0.3608 -1.0321
  339SOL    HW2 1017   3.027   0.602   2.434 -2.7949 -0.4559  1.7650
  340SOL     OW 1018   1.555   3.051   1.023  0.0323  0.2146 -0.0223
  340SOL    HW1 1019   1.496   0.001   1.094 -1.6937 -1.8715 -1.4904
  340SOL    HW2 1020   1.544   2.949   1.023 -2.6597 -2.1209 -1.4047
  341SOL     OW 1021   1.617   1.575   1.118 -0.9185 -0.1470  0.4987
  341SOL    HW1 1022   1.517   1.559   1.089  0.1202 -1.9673 -3.7762
  341SOL    HW2 1023   1.673   1.491   1.101 -2.0894 -0.3172 -2.9825
  342SOL     OW 1024   0.146   1.067   0.910  0.1667  0.1552  0.4043
  342SOL    HW1 1025   0.083   1.147   0.896 -0.9562 -4.9612 -2.4818
  342SOL    HW2 1026   0.153   1.015   0.824 -3.0827 -1.9474  1.4503
  343SOL     OW 1027   2.015   0.458   1.384 -0.0601 -0.3585  0.2395
  343SOL    HW1 1028   1.923   0.482   1.354 -0.1690  0.2217 -0.0939
  343SOL    HW2 1029   2.084   0.482   1.313 -0.3473 -0.5165 -0.4821
  344SOL     OW 1030   2.183   2.287   0.991 -0.3346 -0.2212  0.3925
  344SOL    HW1 1031   2.218   2.253   0.902  0.9195  1.7100 -1.2053
  344SOL    HW2 1032   2.263   2.317   1.051  1.6512 -0.3421  1.5810
  345SOL     OW 1033   2.766   2.390   2.887  0.4357  0.4448 -0.3267
  345SOL    HW1 1034   2.757   2.485   2.929 -0.9710  1.8517  0.6751
  345SOL    HW2 1035   2.677   2.349   2.857 -0.1715 -1.0256 -3.2104
  346SOL     OW 1036   0.009   1.442   0.709 -0.3021  0.6028 -0.0797
  346SOL    HW1 1037   0.032   1.496   0.791 -3.6262  2.4679  0.3500
  346SOL    HW2 1038   0.087   1.441   0.644 -0.9922 -1.1554  2.0955
  347SOL     OW 1039   1.890   2.615   0.923 -0.0639 -0.4302  0.4563
  347SOL    HW1 1040   1.830   2.578   0.998 -0.4371 -0.2445  1.3588
  347SOL    HW2 1041   1.938   2.703   0.944  1.9876 -0.2455 -2.7097
  348SOL     OW 1042   1.338   1.287   2.583  0.4154 -0.4511 -0.3090
  348SOL    HW1 1043   1.341   1.186   2.577  0.9224  1.3699  0.0881
  348SOL    HW2 1044   1.431   1.329   2.566  2.1494  1.7350 -2.7335
  349SOL     OW 1045   2.321   1.131   2.237 -0.2692 -0.3639  0.7810
  349SOL    HW1 1046   2.309   1.090   2.146 -1.1766  0.8630  0.5215
  349SOL    HW2 1047   2.383   1.083   2.306 -2.9602 -0.1100  0.0161
  350SOL     OW 1048   0.052   1.993   1.348 -0.2772  0.0571  0.6528
  350SOL    HW1 1049   3.091   1.908   1.340  1.5365  2.7250 -1.3033
  350SOL    HW2 1050   0.126   1.996   1.278  0.0050 -0.1308 -1.5840
  351SOL     OW 1051   0.604   0.343   2.574  0.1758 -0.0614 -0.5665
  351SOL    HW1 1052   0.653   0.299   2.651 -0.4606  1.6055 -0.2065
  351SOL    HW2 1053   0.668   0.402   2.524 -1.1795 -0.3999 -1.2795
  352SOL     OW 1054   0.842   2.825   1.430 -0.2307 -0.2346  0.2057
  352SOL    HW1 1055   0.938   2.814   1.392  0.1627 -0.2327 -0.3479
  352SOL    HW2 1056   0.810   2.922   1.425 -1.3698  1.6410  0.4547
  353SOL     OW 1057   0.908   1.142   2.175 -0.2295 -0.2574 -0.0608
  353SOL    HW1 1058   0.873   1.142   2.271  0.9743 -2.3941  0.6014
  353SOL    HW2 1059   0.939   1.046   2.158  0.6780 -0.4086 -0.6551
  354SOL     OW 1060   1.844   1.385   0.769  0.3181 -0.0848  0.0592
  354SOL    HW1 1061   1.751   1.358   0.791  1.9178  0.3930 -1.0591
  354SOL    HW2 1062   1.885   1.302   0.718 -0.7008 -3.4469 -2.5529
  355SOL     OW 1063   2.381   0.428   0.586 -0.1287  0.3297 -0.0314
  355SOL    HW1 1064   2.447   0.505   0.586  0.8729 -0.3064 -1.0686
  355SOL    HW2 1065   2.418   0.344   0.549 -1.8804 -3.0567 -1.9191
  356SOL     OW 1066   2.860   1.078   2.560 -0.0809 -0.2623  0.0854
  356SOL    HW1 1067   2.806   1.086   2.472 -2.9248  0.0274  1.6745
  356SOL    HW2 1068   2.926   1.000   2.556  1.1794  1.7416  0.3905
  357SOL     OW 1069   0.530   2.936   1.645 -0.1638 -0.6571  0.1378
  357SOL    HW1 1070   0.618   2.985   1.681  1.8490  2.0774 -0.1903
  357SOL    HW2 1071   0.446   2.984   1.670  0.0257 -2.2090  1.0240
  358SOL     OW 1072   2.962   1.301   2.863  0.2102  0.4709  0.0417
  358SOL    HW1 1073   2.876   1.288   2.806  1.1385  2.2908 -2.9551
  358SOL    HW2 1074   3.011   1.389   2.841  3.5783  3.9914 -1.4713
  359SOL     OW 1075   2.702   2.654   2.975  0.1977 -0.0947 -0.2115
  359SOL    HW1 1076   2.700   2.744   3.019  0.2395 -0.5515 -2.0257
  359SOL    HW2 1077   2.675   2.658   2.876 -2.5481  2.2706 -0.6272
  360SOL     OW 1078   1.747   1.168   0.958 -0.6216  0.7282 -0.1781
  360SOL    HW1 1079   1.681   1.207   0.892  0.1943  0.6711  0.6316
  360SOL    HW2 1080   1.804   1.094   0.917 -0.1167 -0.9649 -1.7368
  361SOL     OW 1081   1.887   2.685   1.249 -0.0739 -0.2523 -0.2309
  361SOL    HW1 1082   1.879   2.753   1.322 -0.0111  2.1068  0.0483
  361SOL    HW2 1083   1.946   2.724   1.177 -1.6523 -2.4024  3.8813
  362SOL     OW 1084   1.361   1.519   1.044 -0.1735 -0.2439 -0.2442
  362SOL    HW1 1085   1.309   1.435   1.016  0.5718 -0.0291  0.1489
  362SOL    HW2 1086   1.311   1.554   1.127 -2.2143  0.8526 -1.5089
  363SOL     OW 1087   2.778   2.036   2.699  0.0074 -0.3784  0.3051
  363SOL    HW1 1088   2.678   2.025   2.663 -3.2618 -2.6734 -3.1313
  363SOL    HW2 1089   2.807   2.135   2.684 -0.9049  1.9309 -0.0870
  364SOL     OW 1090   2.058   0.451   1.665  0.0836  0.2517 -0.1475
  364SOL    HW1 1091   2.045   0.418   1.565  1.2004 -0.6696  0.2875
  364SOL    HW2 1092   2.156   0.467   1.684  0.5108 -0.5697  1.1015
  365SOL     OW 1093   2.854   2.591   1.162 -0.3406 -0.0658 -0.5794
  365SOL    HW1 1094   2.860   2.652   1.083  1.2189 -0.9620 -2.0836
  365SOL    HW2 1095   2.822   2.500   1.131 -1.9194  0.9611  0.6913
  366SOL     OW 1096   2.899   1.301   0.243  0.5117  0.1113 -0.0634
  366SOL    HW1 1097   2.889   1.308   0.145  1.0707 -1.7182  2.9422
  366SOL    HW2 1098   2.851   1.220   0.277  3.4746  5.1456 -2.9436
  367SOL     OW 1099   2.558   2.211   2.846 -0.1795 -0.3361 -0.0701
  367SOL    HW1 1100   2.529   2.248   2.757  2.9773 -0.7609  2.1748
  367SOL    HW2 1101   2.570   2.113   2.850  1.1293  2.6423  3.8955
  368SOL     OW 1102   2.674   1.981   1.346  0.2354  0.2117 -0.5119
  368SOL    HW1 1103   2.588   1.967   1.403 -0.5178 -2.0504 -1.4415
  368SOL    HW2 1104   2.687   1.908   1.271 -1.1621  0.1570  1.4919
  369SOL     OW 1105   0.704   0.419   0.459  0.3069  0.2655 -0.2973
  369SOL    HW1 1106   0.715   0.353   0.534  0.4026  0.3742  1.1442
  369SOL    HW2 1107   0.651   0.501   0.501  3.1645 -0.7367  2.0463
  370SOL     OW 1108   0.929   0.612   1.150 -0.2834 -0.1090 -0.3098
  370SOL    HW1 1109   0.889   0.680   1.221 -1.5288 -1.2651 -2.3137
  370SOL    HW2 1110   0.899   0.634   1.055 -1.9736 -1.3535 -3.1647
  371SOL     OW 1111   2.483   1.750   0.357  0.3076 -0.3001  0.0979
  371SOL    HW1 1112   2.581   1.756   0.325  3.2955 -0.4197 -0.7042
  371SOL    HW2 1113   2.422   1.817   0.310  0.1968  0.6719 -0.2550
  372SOL     OW 1114   0.198   0.898   2.492  0.1584  0.0463  0.0977
  372SOL    HW1 1115   0.272   0.897   2.559 -1.0673 -0.7358 -1.6266
  372SOL    HW2 1116   0.226   0.935   2.399 -3.0200  1.7888  1.5609
  373SOL     OW 1117   2.807   0.913   0.562 -0.8033 -0.1619  0.0465
  373SOL    HW1 1118   2.870   0.921   0.642  1.4182 -0.0684  2.1705
  373SOL    HW2 1119   2.799   0.819   0.535  1.0965  1.8757 -0.4946
  374SOL     OW 1120   0.452   2.208   0.052 -0.8186 -0.8232 -0.6130
  374SOL    HW1 1121   0.513   2.192   0.130 -0.2175 -0.8134  0.1496
  374SOL    HW2 1122   0.497   2.269   3.079 -0.0346 -0.5843 -1.3535
  375SOL     OW 1123   1.199   0.547   3.020  0.7423 -0.9068  0.3886
  375SOL    HW1 1124   1.147   0.554   2.932 -2.6454 -2.1820  0.2711
  375SOL    HW2 1125   1.142   0.596   3.090 -2.0168 -1.5203 -2.3867
  376SOL     OW 1126   3.093   2.827   1.888  0.6235  0.4268 -0.0868
  376SOL    HW1 1127   3.044   2.906   1.844 -0.5832 -1.0491 -0.1952
  376SOL    HW2 1128   0.089   2.815   1.845  0.6109 -0.7288 -1.3619
  377SOL     OW 1129   0.332   1.879   2.330  0.2114 -0.5325  0.3993
  377SOL    HW1 1130   0.239   1.919   2.353 -1.6746 -1.4316  1.3351
  377SOL    HW2 1131   0.321   1.785   2.297 -0.0048  2.3818  1.6787
  378SOL     OW 1132   1.679   0.899   0.418  0.1313 -0.2325  0.2116
  378SOL    HW1 1133   1.597   0.953   0.391 -0.4705  0.9146  2.0488
  378SOL    HW2 1134   1.677   0.887   0.516  0.7727 -0.8274 -0.5082
  379SOL     OW 1135   1.175   1.590   0.086 -0.0307 -0.3960 -0.2069
  379SOL    HW1 1136   1.134   1.616   0.178 -0.0401  2.1667 -0.8795
  379SOL    HW2 1137   1.278   1.577   0.089  0.1541  0.9531 -0.8822
  380SOL     OW 1138   2.455   2.266   2.036  0.4460 -0.1333 -0.5803
  380SOL    HW1 1139   2.516   2.229   2.109  0.8690 -0.9217 -0.6395
  380SOL    HW2 1140   2.509   2.332   1.979  0.1080  0.7543 -2.0802
  381SOL     OW 1141   0.177   0.872   2.014 -0.1143  0.3602  0.0158
  381SOL    HW1 1142   0.207   0.948   1.951  0.4889  1.0161  1.2576
  381SOL    HW2 1143   0.078   0.868   2.029  2.0869 -0.1157  1.0188
  382SOL     OW 1144   2.677   2.517   0.113 -0.5525  0.2000 -0.4390
  382SOL    HW1 1145   2.578   2.525   0.126  3.0478  0.5687 -0.8130
  382SOL    HW2 1146   2.707   2.558   0.027 -0.5575 -1.4378  3.1049
  383SOL     OW 1147   1.998   1.280   2.059 -0.4276  0.1717  0.5090
  383SOL    HW1 1148   1.933   1.206   2.033  0.6916  1.0295 -1.4470
  383SOL    HW2 1149   2.064   1.237   2.122 -1.4494 -1.4316  1.2051
  384SOL     OW 1150   0.636   2.304   2.272 -0.4412 -0.0712  0.2585
  384SOL    HW1 1151   0.673   2.246   2.196  0.0432 -2.1626  0.1893
  384SOL    HW2 1152   0.541   2.275   2.295  0.9205 -1.5588 -0.5492
  385SOL     OW 1153   2.680   2.318   0.683 -0.2987 -0.0833  0.0663
  385SOL    HW1 1154   2.651   2.296   0.584 -1.4617  2.2391 -2.1998
  385SOL    HW2 1155   2.614   2.386   0.721 -3.0380 -0.8320  2.5628
  386SOL     OW 1156   1.722   0.653   2.927  0.3037 -0.2690 -0.2725
  386SOL    HW1 1157   1.678   0.647   3.021 -1.3810  2.2564  0.1517
  386SOL    HW2 1158   1.811   0.705   2.939 -2.2781 -0.9451  0.2973
  387SOL     OW 1159   0.521   0.548   1.650  0.0936 -0.3475 -0.1050
  387SOL    HW1 1160   0.525   0.520   1.748 -0.5854 -0.5721 -1.3590
  387SOL    HW2 1161   0.427   0.542   1.611 -0.5844  1.7576 -2.4577
  388SOL     OW 1162   2.945   0.728   1.509 -0.1072 -0.0025  0.1046
  388SOL    HW1 1163   2.856   0.707   1.461 -1.9382  2.3529  1.1296
  388SOL    HW2 1164   2.928   0.799   1.583  2.4694 -0.2917  2.5086
  389SOL     OW 1165   1.783   1.323   2.766 -0.1239  0.0450  0.0224
  389SOL    HW1 1166   1.691   1.335   2.808 -0.6192 -1.6324 -0.5503
  389SOL    HW2 1167   1.780   1.244   2.703 -1.8951 -1.5042  0.4019
  390SOL     OW 1168   1.836   2.218   0.436 -0.1781 -0.4825  0.6356
  390SOL    HW1 1169   1.927   2.267   0.446  3.9853  1.4165 -0.7141
  390SOL    HW2 1170   1.803   2.216   0.339 -0.5253 -0.6761 -0.9022
  391SOL     OW 1171   1.290   2.590   1.085  0.7228 -0.1043 -0.3568
  391SOL    HW1 1172   1.188   2.589   1.094 -0.1059  0.2384  1.9412
  391SOL    HW2 1173   1.342   2.549   1.164  4.4373 -0.4834  1.2690
  392SOL     OW 1174   2.678   2.818   1.388  0.1565 -0.0661 -0.0945
  392SOL    HW1 1175   2.696   2.743   1.324  1.7494  3.5739  0.9942
  392SOL    HW2 1176   2.602   2.878   1.359 -0.8692  2.1050  1.5596
  393SOL     OW 1177   1.946   2.309   2.675  0.3018  0.3513  0.3571
  393SOL    HW1 1178   2.022   2.355   2.721 -0.7906  0.9264  0.1294
  393SOL    HW2 1179   1.942   2.212   2.708 -1.5736 -2.5701 -1.6882
  394SOL     OW 1180   0.493   2.711   2.782  0.6752  0.6015  0.3259
  394SOL    HW1 1181   0.463   2.617   2.760 -0.5360  1.9957 -0.8532
  394SOL    HW2 1182   0.590   2.722   2.787 -0.0056  0.2199 -0.5542
  395SOL     OW 1183   0.533   1.009   1.196  0.4476 -0.1906 -0.0802
  395SOL    HW1 1184   0.491   0.919   1.218 -1.5867  0.4639 -1.8481
  395SOL    HW2 1185   0.520   1.068   1.278 -0.5944 -0.6351  0.7934
  396SOL     OW 1186   1.955   1.521   2.559 -0.5428 -0.1056 -0.1871
  396SOL    HW1 1187   1.919   1.428   2.585 -0.3278 -3.0944 -1.6022
  396SOL    HW2 1188   2.046   1.518   2.520 -3.5058  0.0284  1.0915
  397SOL     OW 1189   2.634   0.240   2.600 -0.6981  0.3339 -0.4381
  397SOL    HW1 1190   2.691   0.167   2.562  0.6393  0.4998 -1.2733
  397SOL    HW2 1191   2.696   0.311   2.638  0.4779  0.8129 -0.9306
  398SOL     OW 1192   1.603   0.285   0.724  0.0746 -0.3679  0.0938
  398SOL    HW1 1193   1.605   0.198   0.674 -1.6878  3.9108  0.2810
  398SOL    HW2 1194   1.542   0.276   0.805  2.2480 -0.4490  0.9914
  399SOL     OW 1195   2.218   3.040   1.626  0.7123 -0.1047  0.4776
  399SOL    HW1 1196   2.161   3.055   1.539  1.4853  2.1026 -0.4935
  399SOL    HW2 1197   2.259   2.942   1.630  1.9649 -1.9106 -0.9191
  400SOL     OW 1198   3.052   2.311   1.886 -0.6375  0.1744  0.2826
  400SOL    HW1 1199   3.067   2.211   1.890  1.6471 -0.9283 -0.5557
  400SOL    HW2 1200   0.010   2.347   1.808 -2.9329  2.1980 -3.7667
  401SOL     OW 1201   0.535   0.137   0.307  0.1522 -0.4877  0.0232
  401SOL    HW1 1202   0.566   0.054   0.363 -1.1560 -1.4835 -0.4110
  401SOL    HW2 1203   0.474   0.193   0.366  0.3717 -1.6982 -0.3167
  402SOL     OW 1204   0.532   2.672   1.595  0.4966  0.2248  0.0520
  402SOL    HW1 1205   0.596   2.638   1.519 -3.4626 -1.8268  1.9829
  402SOL    HW2 1206   0.532   2.776   1.608 -0.8288  0.1081  0.1246
  403SOL     OW 1207   0.222   1.093   1.813 -0.4215  0.1403  0.1086
  403SOL    HW1 1208   0.123   1.087   1.804  2.3338 -2.0907 -0.3342
  403SOL    HW2 1209   0.270   1.071   1.724  0.5678  0.1595 -1.8684
  404SOL     OW 1210   2.799   2.412   2.018 -0.3992 -0.3501  0.3966
  404SOL    HW1 1211   2.896   2.411   1.977  0.1829  1.8906 -2.1044
  404SOL    HW2 1212   2.744   2.325   2.014 -1.9190  0.9187  0.2971
  405SOL     OW 1213   2.505   0.285   2.373  0.1590  0.4184  0.3992
  405SOL    HW1 1214   2.437   0.213   2.372 -0.4086  2.9356 -1.1507
  405SOL    HW2 1215   2.541   0.300   2.465 -1.8361 -1.2336 -0.5156
  406SOL     OW 1216   1.552   2.659   0.249 -0.5801  0.3070 -0.5663
  406SOL    HW1 1217   1.524   2.754   0.278 -0.8294  0.1100 -1.3192
  406SOL    HW2 1218   1.492   2.590   0.294 -3.3705 -1.2837  2.0423
  407SOL     OW 1219   1.683   1.606   0.466 -0.0079 -0.2138 -0.4129
  407SOL    HW1 1220   1.755   1.539   0.434  2.2572  2.6186  0.9855
  407SOL    HW2 1221   1.705   1.699   0.439 -1.8732 -0.6000 -0.9757
  408SOL     OW 1222   0.325   0.651   2.011 -0.3683  1.0252  0.4187
  408SOL    HW1 1223   0.324   0.624   2.108  1.9728  0.1100  2.0352
  408SOL    HW2 1224   0.275   0.741   1.995 -0.8369  3.2170  1.8437
  409SOL     OW 1225   2.826   1.342   3.085 -0.2481  0.0776 -0.3170
  409SOL    HW1 1226   2.786   1.434   3.060 -0.7202  2.3018 -0.7208
  409SOL    HW2 1227   2.891   1.312   3.014  1.2332  1.3521  0.4158
  410SOL     OW 1228   2.487   1.429   1.075  0.2550  0.4684  0.2949
  410SOL    HW1 1229   2.525   1.485   1.149  3.0899 -2.1014  0.0775
  410SOL    HW2 1230   2.421   1.468   1.007 -0.5661 -1.5328  2.7514
  411SOL     OW 1231   3.003   0.546   0.449 -1.0013  0.3774  0.1502
  411SOL    HW1 1232   3.063   0.565   0.365 -1.0863  2.3100 -0.1716
  411SOL    HW2 1233   2.967   0.448   0.452  0.2473  1.1134  0.8755
  412SOL     OW 1234   1.635   0.213   0.135  0.2880 -0.3050 -0.2379
  412SOL    HW1 1235   1.535   0.222   0.153 -2.4263  0.0879  0.7131
  412SOL    HW2 1236   1.681   0.263   0.210 -2.0410  0.8422  0.7705
  413SOL     OW 1237   1.255   0.522   1.703  0.1443  0.5133  0.1026
  413SOL    HW1 1238   1.314   0.440   1.717 -0.7383 -0.0227 -0.3960
  413SOL    HW2 1239   1.229   0.515   1.607  1.6002 -0.8680  0.8581
  414SOL     OW 1240   0.344   1.085   0.253 -0.2584 -0.2702  0.2670
  414SOL    HW1 1241   0.388   0.999   0.215 -0.3425  0.2857  2.5648
  414SOL    HW2 1242   0.320   1.159   0.182 -2.0381 -0.2388 -0.8873
  415SOL     OW 1243   0.168   1.467   0.500  0.3505 -0.0204 -0.1635
  415SOL    HW1 1244   0.122   1.551   0.465  3.4104 -0.7592 -2.1224
  415SOL    HW2 1245   0.133   1.387   0.448 -1.2666 -1.2707  1.1478
  416SOL     OW 1246   2.150   1.138   0.292  0.3210  0.0063  0.2715
  416SOL    HW1 1247   2.235   1.089   0.331  3.4626  1.1076  1.0037
  416SOL    HW2 1248   2.072   1.077   0.314  3.3536 -2.5899 -0.2487
  417SOL     OW 1249   2.899   2.996   0.282  0.4582 -0.2600  0.1487
  417SOL    HW1 1250   2.950   2.977   0.195  1.8479  0.0152  1.0055
  417SOL    HW2 1251   2.796   3.001   0.263 -1.6291 -1.6371 -0.5243
  418SOL     OW 1252   2.746   0.656   0.135 -0.2231 -0.0435 -0.8734
  418SOL    HW1 1253   2.657   0.673   0.088 -1.8370 -0.9596 -0.4308
  418SOL    HW2 1254   2.734   0.625   0.237  0.9940 -1.4489  2.0785
  419SOL     OW 1255   0.816   0.519   0.234 -0.6289  0.0358  0.4338
  419SOL    HW1 1256   0.799   0.439   0.174  4.2539  2.9649  1.8979
  419SOL    HW2 1257   0.781   0.499   0.329 -1.3141 -2.5263  1.3252
  420SOL     OW 1258   0.510   1.064   0.698 -0.1830 -0.7424  0.0351
  420SOL    HW1 1259   0.440   0.999   0.665 -2.2383 -0.0577  0.2783
  420SOL    HW2 1260   0.544   1.035   0.788  0.1893  0.0077 -1.3104
  421SOL     OW 1261   0.378   1.855   0.535 -0.8280 -0.0211 -0.6699
  421SOL    HW1 1262   0.384   1.754   0.527 -2.2550 -0.3229  0.7264
  421SOL    HW2 1263   0.320   1.895   0.464  0.2775 -0.5668  4.0994
  422SOL     OW 1264   2.809   0.306   1.480  0.0618 -0.3101 -0.3260
  422SOL    HW1 1265   2.712   0.333   1.477 -1.5322  0.1625 -0.0224
  422SOL    HW2 1266   2.850   0.298   1.573  2.5956  3.0823  0.5670
  423SOL     OW 1267   1.952   1.777   0.549  0.3507 -0.3078 -0.8501
  423SOL    HW1 1268   1.908   1.723   0.623 -1.5272  0.7902 -0.6010
  423SOL    HW2 1269   1.876   1.818   0.492  0.4907  4.3575 -0.8488
  424SOL     OW 1270   1.679   1.558   3.036  0.1551 -0.3634 -0.2784
  424SOL    HW1 1271   1.661   1.642   3.095  1.7042  1.1552 -3.3445
  424SOL    HW2 1272   1.767   1.513   3.066  0.0812  1.4023 -0.9356
  425SOL     OW 1273   0.402   2.771   1.971  0.3572  0.4056 -0.0046
  425SOL    HW1 1274   0.415   2.865   2.009 -0.7520  0.5506 -3.0568
  425SOL    HW2 1275   0.406   2.709   2.050  2.1034  1.3433  1.1149
  426SOL     OW 1276   2.430   2.949   2.958 -0.6094 -0.0846 -0.6763
  426SOL    HW1 1277   2.527   2.980   2.932  3.3712 -0.5065 -2.6105
  426SOL    HW2 1278   2.359   2.980   2.892 -0.6737 -1.7733  0.8065
  427SOL     OW 1279   0.497   1.400   1.987  0.5647  0.5529  1.0055
  427SOL    HW1 1280   0.576   1.342   1.962  2.2747  0.1426  0.4005
  427SOL    HW2 1281   0.517   1.495   2.004  0.1809 -1.8032  1.2875
  428SOL     OW 1282   2.309   1.406   2.349  0.0443 -0.1117 -0.0022
  428SOL    HW1 1283   2.343   1.316   2.307  0.9832 -1.6929 -1.6792
  428SOL    HW2 1284   2.262   1.461   2.279  0.5458  1.2686  0.3478
  429SOL     OW 1285   2.459   0.172   0.519 -0.2073 -0.0156  0.0140
  429SOL    HW1 1286   2.546   0.152   0.472 -3.5099 -1.2336 -0.7614
  429SOL    HW2 1287   2.435   0.096   0.582 -0.9283  1.6516 -1.8536
  430SOL     OW 1288   1.594   1.781   2.329  0.5541 -0.2759 -0.1361
  430SOL    HW1 1289   1.578   1.734   2.244  2.6178 -1.0218  0.5840
  430SOL    HW2 1290   1.657   1.723   2.384 -2.8903  0.7942  2.1717
  431SOL     OW 1291   2.962   1.691   1.749  0.3484  0.3557 -0.2190
  431SOL    HW1 1292   2.948   1.790   1.726 -0.7348 -0.5795 -1.0312
  431SOL    HW2 1293   2.871   1.649   1.763 -0.6177  1.8715  0.2399
  432SOL     OW 1294   1.038   2.467   2.052  0.5489  0.5115 -0.1355
  432SOL    HW1 1295   1.109   2.444   1.986  1.0963 -1.5904  2.4642
  432SOL    HW2 1296   0.970   2.533   2.012  1.5086  3.0979  0.6563
  433SOL     OW 1297   1.162   2.978   0.584 -0.2517 -0.0865  0.1090
  433SOL    HW1 1298   1.219   2.995   0.664 -0.8221 -1.6825  0.2987
  433SOL    HW2 1299   1.122   2.886   0.582 -0.4851  1.1719 -3.9720
  434SOL     OW 1300   0.333   2.411   2.117  0.5895 -0.9490  0.2534
  434SOL    HW1 1301   0.321   2.381   2.021 -1.3313 -0.4870 -0.3178
  434SOL    HW2 1302   0.352   2.334   2.177 -1.7238 -0.7205 -0.1856
  435SOL     OW 1303   0.612   1.413   0.560 -0.6775 -0.1717 -0.3222
  435SOL    HW1 1304   0.701   1.373   0.596  0.7124 -0.1498  3.6655
  435SOL    HW2 1305   0.559   1.353   0.497 -0.0938  0.6358 -0.2042
  436SOL     OW 1306   0.359   1.461   1.641  0.1992 -0.2278 -0.1916
  436SOL    HW1 1307   0.323   1.372   1.673 -1.1001 -0.8120 -3.1418
  436SOL    HW2 1308   0.282   1.520   1.603 -2.3248 -0.9205  0.1423
  437SOL     OW 1309   1.129   0.525   0.310 -0.2013 -0.1517  0.2356
  437SOL    HW1 1310   1.071   0.535   0.394  0.5440 -0.9336  0.9607
  437SOL    HW2 1311   1.082   0.560   0.229 -0.7464  0.5900 -0.1914
  438SOL     OW 1312   0.897   1.830   1.260  0.1218  0.2163 -0.1889
  438SOL    HW1 1313   0.836   1.834   1.176 -3.8482 -1.7665 -3.0816
  438SOL    HW2 1314   0.963   1.908   1.266 -0.1136 -2.9841  1.4818
  439SOL     OW 1315   1.564   2.121   2.556  0.5345 -0.1203  0.0915
  439SOL    HW1 1316   1.478   2.067   2.563  1.2556  0.9325 -2.3321
  439SOL    HW2 1317   1.645   2.066   2.583 -1.4126 -1.3303 -4.0419
  440SOL     OW 1318   1.744   0.495   1.309 -0.0002  0.4596 -0.1462
  440SOL    HW1 1319   1.724   0.578   1.364  0.3739 -2.4873 -1.3881
  440SOL    HW2 1320   1.713   0.499   1.208  1.2169 -0.5786 -2.3283
  441SOL     OW 1321   0.745   3.095   1.439  0.0299 -0.2181  0.4351
  441SOL    HW1 1322   0.661   0.040   1.398 -1.5847 -3.6230 -0.8927
  441SOL    HW2 1323   0.746   0.001   1.539  0.8596  0.8451 -0.9048
  442SOL     OW 1324   2.281   2.119   0.778  0.1026  0.1399  0.2988
  442SOL    HW1 1325   2.349   2.080   0.844 -0.1327  0.1536 -0.4811
  442SOL    HW2 1326   2.243   2.050   0.719 -0.6474  0.4718  1.5384
  443SOL     OW 1327   2.782   0.404   2.327 -0.2101 -0.1363 -0.3081
  443SOL    HW1 1328   2.695   0.365   2.295 -3.5451 -1.3795 -0.2557
  443SOL    HW2 1329   2.858   0.340   2.297  0.6267 -2.8086 -0.6778
  444SOL     OW 1330   1.781   1.224   2.460 -0.3103 -0.3935  0.4521
  444SOL    HW1 1331   1.724   1.273   2.392 -3.1987  1.6178  0.6677
  444SOL    HW2 1332   1.878   1.206   2.432 -0.5926 -1.5881  3.1280
  445SOL     OW 1333   2.468   1.947   1.513  0.1462 -0.3643 -0.3132
  445SOL    HW1 1334   2.414   2.026   1.481 -1.5230  1.1072 -0.6042
  445SOL    HW2 1335   2.513   1.979   1.600  0.0549  0.2226  0.1524
  446SOL     OW 1336   0.327   0.882   0.661  0.5558 -0.1215  0.0339
  446SOL    HW1 1337   0.338   0.777   0.668 -0.3691 -3.0155  0.4513
  446SOL    HW2 1338   0.230   0.909   0.638 -2.7364  1.1182  0.3827
  447SOL     OW 1339   0.824   1.753   0.888 -0.1544 -0.2435  0.0492
  447SOL    HW1 1340   0.817   1.846   0.932 -0.1842  1.9294 -0.6267
  447SOL    HW2 1341   0.741   1.695   0.912 -0.6311 -2.5091  1.2278
  448SOL     OW 1342   1.366   1.277   1.803 -0.5818  0.6645  0.0529
  448SOL    HW1 1343   1.294   1.229   1.860  1.2585 -2.5906  0.4381
  448SOL    HW2 1344   1.380   1.229   1.714  2.1874 -0.2093  0.5758
  449SOL     OW 1345   0.388   1.709   2.891 -0.2001  0.2430  0.0057
  449SOL    HW1 1346   0.312   1.641   2.875 -1.5150 -3.0344  2.7947
  449SOL    HW2 1347   0.392   1.736   2.991 -0.9064 -0.4843  0.9072
  450SOL     OW 1348   2.587   2.646   1.981  0.5353  0.5009  0.0116
  450SOL    HW1 1349   2.561   2.601   1.888  0.6135 -0.9678 -1.2110
  450SOL    HW2 1350   2.656   2.587   2.031  0.2810 -1.3205  0.5936
  451SOL     OW 1351   2.248   0.385   2.030  0.8279  0.1208 -0.2922
  451SOL    HW1 1352   2.178   0.308   2.034  0.5459  0.4797 -1.6156
  451SOL    HW2 1353   2.216   0.477   2.001 -0.5396 -0.6122 -2.0608
  452SOL     OW 1354   1.020   2.659   1.102 -0.0994 -0.2328  0.2907
  452SOL    HW1 1355   0.983   2.741   1.052 -1.5512  0.3601  2.6438
  452SOL    HW2 1356   0.992   2.660   1.198 -0.5421  0.0356  0.3604
  453SOL     OW 1357   0.891   1.111   0.920  0.2044 -0.4685  0.0369
  453SOL    HW1 1358   0.893   1.207   0.893 -0.2946  0.3642 -2.0497
  453SOL    HW2 1359   0.911   1.092   1.017  0.4317 -1.7769 -2.5580
  454SOL     OW 1360   2.991   1.191   0.775 -0.7066  0.2035  0.1982
  454SOL    HW1 1361   2.918   1.184   0.843  2.0582  1.3964  2.0075
  454SOL    HW2 1362   3.030   1.287   0.774 -0.4737 -2.3221 -1.0927
  455SOL     OW 1363   0.115   0.214   0.301 -0.0762 -0.0527  0.4675
  455SOL    HW1 1364   0.162   0.231   0.211  3.8587  2.0537 -0.1261
  455SOL    HW2 1365   0.175   0.233   0.376  0.9571 -1.4336  0.5872
  456SOL     OW 1366   2.314   2.278   0.556 -0.1141  0.5700 -0.0188
  456SOL    HW1 1367   2.346   2.247   0.650  1.1416  1.4823  2.0919
  456SOL    HW2 1368   2.388   2.291   0.486  2.3749  0.7976  1.0007
  457SOL     OW 1369   1.170   3.041   2.837  0.0042  0.0556  0.0143
  457SOL    HW1 1370   1.248   3.011   2.891 -0.1287  2.4306 -0.4408
  457SOL    HW2 1371   1.158   2.997   2.745  0.0609 -0.4577 -0.5909
  458SOL     OW 1372   2.671   2.648   0.600 -0.0545  0.5709 -0.7895
  458SOL    HW1 1373   2.617   2.602   0.675 -1.7383  0.9908  2.8754
  458SOL    HW2 1374   2.686   2.580   0.524 -1.1228  0.9175 -0.3100
  459SOL     OW 1375   2.494   0.406   2.141  0.2454  0.3894 -0.2527
  459SOL    HW1 1376   2.495   0.348   2.229 -0.3694  2.0305 -1.4054
  459SOL    HW2 1377   2.405   0.380   2.088 -1.3228 -0.2772 -1.2535
  460SOL     OW 1378   0.055   0.575   0.242  1.0398 -0.3448  0.3074
  460SOL    HW1 1379   0.055   0.663   0.195 -0.1216 -0.1448 -2.3940
  460SOL    HW2 1380   0.022   0.500   0.180 -0.1361  0.4310 -0.1156
  461SOL     OW 1381   0.539   1.886   1.193 -0.9376  0.2432 -0.2999
  461SOL    HW1 1382   0.533   1.919   1.093  2.3390  0.0224 -1.3643
  461SOL    HW2 1383   0.598   1.958   1.236 -2.0674 -2.5104  0.5246
  462SOL     OW 1384   2.903   2.772   0.987  0.1083  0.5500  0.1044
  462SOL    HW1 1385   2.994   2.771   0.938 -0.2543  0.2955 -1.7525
  462SOL    HW2 1386   2.852   2.853   0.952  2.3102 -1.1881  2.1305
  463SOL     OW 1387   2.577   1.219   3.052 -0.3282  0.7325 -0.2032
  463SOL    HW1 1388   2.613   1.195   2.956  2.2706 -0.7042 -3.3987
  463SOL    HW2 1389   2.658   1.252   0.007  0.6681  0.4812 -0.5855
  464SOL     OW 1390   0.496   2.462   1.195 -0.2339 -0.0375  0.8375
  464SOL    HW1 1391   0.526   2.425   1.287  1.3419  0.7000 -0.3861
  464SOL    HW2 1392   0.451   2.554   1.209  1.8777 -0.9778  1.2730
  465SOL     OW 1393   0.943   0.589   0.855 -0.0009 -0.2918  0.2836
  465SOL    HW1 1394   0.948   0.485   0.844  1.0788  1.5566  1.4470
  465SOL    HW2 1395   0.861   0.629   0.819  0.8657 -1.0478  1.4325
  466SOL     OW 1396   1.293   2.773   2.369  0.6881 -0.4771  0.0497
  466SOL    HW1 1397   1.223   2.705   2.341  0.4408  1.6324 -1.2819
  466SOL    HW2 1398   1.377   2.767   2.314 -2.0137  1.3238 -0.8056
  467SOL     OW 1399   0.951   0.316   1.961  0.3793  0.7119 -0.3775
  467SOL    HW1 1400   1.025   0.326   2.030  1.1078  0.2072  2.9584
  467SOL    HW2 1401   0.884   0.249   1.995 -3.4609 -0.4260 -0.3650
  468SOL     OW 1402   0.286   0.965   2.250 -0.2595 -0.2029  0.5453
  468SOL    HW1 1403   0.251   0.911   2.170 -0.9831 -2.7393  1.0946
  468SOL    HW2 1404   0.265   1.065   2.240  1.3079 -0.1766 -2.1345
  469SOL     OW 1405   0.404   1.679   0.841  0.4665  0.2351 -0.2030
  469SOL    HW1 1406   0.401   1.777   0.822 -1.5539  0.8193  0.7086
  469SOL    HW2 1407   0.406   1.623   0.754  3.0971  1.3031 -0.3015
  470SOL     OW 1408   2.357   2.088   1.849 -0.1838 -0.2192 -0.0936
  470SOL    HW1 1409   2.436   2.035   1.818 -1.9732  1.9683  0.6619
  470SOL    HW2 1410   2.380   2.149   1.931 -0.3530  1.2608  1.2590
  471SOL     OW 1411   1.234   0.325   2.608  0.4051 -0.0272  0.0268
  471SOL    HW1 1412   1.254   0.291   2.697 -0.8099 -0.4517 -2.5882
  471SOL    HW2 1413   1.309   0.379   2.570 -0.8951 -1.2430 -0.5502
  472SOL     OW 1414   0.283   2.571   1.534  0.2325  0.0980  0.3627
  472SOL    HW1 1415   0.295   2.474   1.523 -1.4976  3.8505 -0.2844
  472SOL    HW2 1416   0.361   2.621   1.574 -0.7987  2.1271  0.4155
  473SOL     OW 1417   0.557   0.197   2.366 -0.5842  0.4422 -0.1719
  473SOL    HW1 1418   0.573   0.228   2.461  2.3179  2.0079 -0.2837
  473SOL    HW2 1419   0.578   0.097   2.345  0.2950 -1.8830 -1.5640
  474SOL     OW 1420   1.791   0.197   1.189  0.2017 -0.6563 -0.3164
  474SOL    HW1 1421   1.787   0.296   1.219 -0.7128  2.0987  0.5582
  474SOL    HW2 1422   1.825   0.186   1.094 -0.4262  0.9618 -0.1250
  475SOL     OW 1423   1.981   0.752   1.336  0.2354  0.4927 -0.6447
  475SOL    HW1 1424   2.084   0.741   1.336  2.0712 -0.4184 -1.0098
  475SOL    HW2 1425   1.952   0.753   1.241  0.1371  0.7182 -1.2812
  476SOL     OW 1426   0.658   0.962   0.943 -0.3928 -0.1047  0.3187
  476SOL    HW1 1427   0.613   0.973   1.035 -3.2401 -0.2519  3.3782
  476SOL    HW2 1428   0.733   1.029   0.929  0.7599  3.9246 -0.4141
  477SOL     OW 1429   1.112   2.329   0.787 -0.0674 -0.4877 -0.2086
  477SOL    HW1 1430   1.102   2.325   0.687  1.8994 -0.1548  3.2731
  477SOL    HW2 1431   1.173   2.408   0.805 -0.8473 -0.2482 -0.0165
  478SOL     OW 1432   0.145   2.767   2.294  0.2881  0.0466  0.1904
  478SOL    HW1 1433   0.066   2.771   2.228 -1.7721 -1.2928 -1.4053
  478SOL    HW2 1434   0.238   2.753   2.254 -0.3159 -0.8322 -0.1323
  479SOL     OW 1435   2.453   0.495   1.216  0.0532  0.1767  0.3559
  479SOL    HW1 1436   2.473   0.461   1.312 -2.4459  1.6390  0.0006
  479SOL    HW2 1437   2.489   0.427   1.148  0.8311  0.7066  0.1344
  480SOL     OW 1438   0.333   2.308   0.482  0.0376 -0.1360 -0.3138
  480SOL    HW1 1439   0.306   2.313   0.386  0.3460  2.0171 -0.5629
  480SOL    HW2 1440   0.276   2.245   0.536 -2.6783 -0.9252  1.6643
  481SOL     OW 1441   2.001   2.216   1.472  0.1883 -0.1881  0.4599
  481SOL    HW1 1442   1.987   2.312   1.436 -1.5446  1.0216  0.3396
  481SOL    HW2 1443   2.000   2.210   1.572 -0.0912 -0.2433 -1.9102
  482SOL     OW 1444   1.415   2.769   2.726  0.1431 -0.6516  0.1256
  482SOL    HW1 1445   1.423   2.861   2.685 -0.8659  3.2153 -0.5575
  482SOL    HW2 1446   1.500   2.746   2.772 -3.3992 -1.9829 -0.6311
  483SOL     OW 1447   0.797   1.924   1.864  0.7277 -0.0260  0.5567
  483SOL    HW1 1448   0.850   1.877   1.938  1.0381  0.7658  1.0015
  483SOL    HW2 1449   0.764   1.854   1.794 -1.7352 -1.8054 -0.4219
  484SOL     OW 1450   0.853   0.376   1.284  0.6421  0.3431 -0.4070
  484SOL    HW1 1451   0.839   0.414   1.375 -0.4740  1.4732 -0.6672
  484SOL    HW2 1452   0.894   0.438   1.216  2.0704 -1.5258 -1.3924
  485SOL     OW 1453   2.144   1.057   0.015  0.2851 -0.0036  0.0303
  485SOL    HW1 1454   2.048   1.044   3.078  0.2995 -2.0281  2.3561
  485SOL    HW2 1455   2.148   1.111   0.097 -0.8754 -1.9803 -3.1274
  486SOL     OW 1456   2.062   0.041   1.403 -0.0943 -0.1240 -0.1896
  486SOL    HW1 1457   1.970   0.088   1.407 -0.9522  0.8474  1.9971
  486SOL    HW2 1458   2.120   0.088   1.333  0.6271  0.5525  0.3897
  487SOL     OW 1459   0.706   2.087   1.269  0.5893  0.0550 -0.2064
  487SOL    HW1 1460   0.731   2.174   1.225  0.9765 -2.2265  0.7157
  487SOL    HW2 1461   0.716   2.084   1.369  1.0863 -3.0507 -2.1336
  488SOL     OW 1462   2.210   2.221   2.959 -0.0048  0.0105 -0.1649
  488SOL    HW1 1463   2.234   2.152   2.886 -0.1100 -3.4343 -0.6040
  488SOL    HW2 1464   2.289   2.242   3.016 -0.7294 -1.5392 -0.0435
  489SOL     OW 1465   1.908   2.945   0.733 -0.1653  0.3067  0.4373
  489SOL    HW1 1466   1.856   2.860   0.705 -2.2436 -0.8276 -0.4695
  489SOL    HW2 1467   1.967   2.975   0.657  0.2026  1.3849 -2.2572
  490SOL     OW 1468   1.002   2.081   2.806  0.1020  0.0711 -0.0574
  490SOL    HW1 1469   0.970   2.136   2.724 -2.4945  2.2615  0.4968
  490SOL    HW2 1470   0.998   2.141   2.886  1.1712 -0.5169  0.0607
  491SOL     OW 1471   0.261   1.901   1.795  0.0621 -0.0164 -0.1833
  491SOL    HW1 1472   0.328   1.839   1.756 -2.0594  1.1388 -1.2963
  491SOL    HW2 1473   0.307   1.960   1.863 -0.2360  1.4948  1.1780
  492SOL     OW 1474   0.763   1.409   1.734 -0.6286 -0.3799 -0.3747
  492SOL    HW1 1475   0.857   1.390   1.694  0.1658 -1.0184 -0.9835
  492SOL    HW2 1476   0.744   1.348   1.812 -0.7084  0.2841 -2.3732
  493SOL     OW 1477   2.432   1.747   0.829  0.0004 -0.6919 -0.0330
  493SOL    HW1 1478   2.410   1.799   0.747  0.3225 -3.0052  0.7001
  493SOL    HW2 1479   2.527   1.701   0.832  3.9215 -0.8610  1.5103
  494SOL     OW 1480   3.070   1.831   1.006 -0.2972  0.2137 -0.2388
  494SOL    HW1 1481   0.010   1.805   1.098  0.9325 -0.9039  0.4745
  494SOL    HW2 1482   3.024   1.924   1.013 -0.2178 -0.5920  1.1376
  495SOL     OW 1483   2.288   2.716   0.574  0.1521  0.1846  0.5800
  495SOL    HW1 1484   2.216   2.767   0.523 -3.0207  2.3360 -0.6447
  495SOL    HW2 1485   2.254   2.657   0.650 -0.3725  1.8076 -0.4652
  496SOL     OW 1486   2.534   0.110   1.343 -0.1325  0.7306 -0.6242
  496SOL    HW1 1487   2.631   0.075   1.345 -0.9892 -0.5828 -1.1521
  496SOL    HW2 1488   2.487   0.117   1.431  0.8243 -0.4094  2.3925
  497SOL     OW 1489   2.510   1.281   2.691 -0.1216  0.5194  0.1598
  497SOL    HW1 1490   2.454   1.226   2.628 -0.0754 -1.4810 -1.3355
  497SOL    HW2 1491   2.601   1.235   2.718  0.5918 -0.9633 -2.1070
  498SOL     OW 1492   2.889   1.863   1.541  0.2102 -0.0797 -0.1239
  498SOL    HW1 1493   2.905   1.957   1.582 -3.3913  1.6382 -0.4877
  498SOL    HW2 1494   2.803   1.857   1.486  0.3258 -0.4011 -0.0908
  499SOL     OW 1495   1.159   2.351   2.425  0.6458  0.3216  0.0189
  499SOL    HW1 1496   1.148   2.433   2.367 -0.6711  0.1082  1.3813
  499SOL    HW2 1497   1.218   2.382   2.503  0.2452 -1.8763 -3.0284
  500SOL     OW 1498   1.276   1.380   0.653 -0.4188 -0.4742 -0.4381
  500SOL    HW1 1499   1.369   1.406   0.683 -1.8127  0.7281  0.7501
  500SOL    HW2 1500   1.249   1.297   0.704  0.8337 -0.3066  0.6951
  501SOL     OW 1501   1.584   0.329   1.478  0.1758  0.1664 -0.1262
  501SOL    HW1 1502   1.633   0.380   1.409  1.1561  0.0027 -0.0517
  501SOL    HW2 1503   1.628   0.237   1.486  1.6294 -1.1298  0.1508
  502SOL     OW 1504   2.696   0.608   1.785 -0.7137 -0.4206  0.2397
  502SOL    HW1 1505   2.700   0.616   1.886 -0.2768  3.2362  1.7371
  502SOL    HW2 1506   2.709   0.510   1.760  0.9115  1.0529  1.6215
  503SOL     OW 1507   2.616   1.684   2.237  0.0741 -0.1568 -0.0490
  503SOL    HW1 1508   2.531   1.684   2.176  0.9874 -0.9730  0.9211
  503SOL    HW2 1509   2.694   1.646   2.181 -0.8243 -1.0602  1.0986
  504SOL     OW 1510   1.409   1.530   1.780 -0.2396 -0.1593 -0.7103
  504SOL    HW1 1511   1.397   1.429   1.793 -1.3038  0.5409 -0.5363
  504SOL    HW2 1512   1.459   1.565   1.861  1.6632 -0.8386  0.3006
  505SOL     OW 1513   0.450   0.136   1.342  0.2545 -0.7669 -0.4595
  505SOL    HW1 1514   0.447   0.160   1.439  0.0778  0.8179  0.2025
  505SOL    HW2 1515   0.367   0.162   1.293  1.0233 -2.4002  3.0058
  506SOL     OW 1516   0.231   0.259   0.044 -0.1243 -0.3808  0.0089
  506SOL    HW1 1517   0.290   0.347   0.054  2.9196  2.1418  2.4586
  506SOL    HW2 1518   0.288   0.177   0.027 -0.2968  0.6118  1.1304
  507SOL     OW 1519   0.156   2.352   3.001 -0.5160 -0.4485 -0.3141
  507SOL    HW1 1520   0.092   2.394   2.932  1.2340  0.5531 -2.0548
  507SOL    HW2 1521   0.110   2.272   3.045 -2.0637 -0.5050  0.4292
  508SOL     OW 1522   1.144   0.145   2.131 -0.4592  0.5788  0.1477
  508SOL    HW1 1523   1.234   0.194   2.131  2.2156  2.9834  1.7713
  508SOL    HW2 1524   1.106   0.142   2.223 -3.3444  1.1993 -1.7489
  509SOL     OW 1525   1.455   1.948   1.202 -0.4211 -0.2578 -0.9776
  509SOL    HW1 1526   1.456   1.964   1.304  0.0095  2.1188  1.7293
  509SOL    HW2 1527   1.356   1.948   1.163 -2.3944  1.5092 -3.1112
  510SOL     OW 1528   2.503   0.924   1.599  0.1853 -0.3646 -0.3045
  510SOL    HW1 1529   2.541   0.942   1.689  0.3550  1.3488 -2.0017
  510SOL    HW2 1530   2.561   0.986   1.536  0.5923  1.3731  0.0445
  511SOL     OW 1531   1.222   1.665   1.219 -0.0935  0.3135  0.4402
  511SOL    HW1 1532   1.242   1.757   1.178 -0.7897  0.0852  2.5863
  511SOL    HW2 1533   1.193   1.674   1.318 -0.5367  0.1387 -1.0028
  512SOL     OW 1534   0.043   1.678   0.374 -0.0715 -0.2472  0.3965
  512SOL    HW1 1535   3.082   1.731   0.441 -0.4386 -2.6958 -2.2359
  512SOL    HW2 1536   0.017   1.706   0.278 -0.0939  0.2572  0.2416
  513SOL     OW 1537   0.217   1.269   0.115 -0.3409  0.4330  0.1559
  513SOL    HW1 1538   0.190   1.366   0.104  0.4715 -2.5376 -2.7150
  513SOL    HW2 1539   0.174   1.203   0.050 -2.2000 -0.7318 -1.4580
  514SOL     OW 1540   2.096   2.414   2.334 -0.2337  0.2721  0.3753
  514SOL    HW1 1541   2.046   2.405   2.426  0.0679 -0.2009 -0.6081
  514SOL    HW2 1542   2.135   2.326   2.301  0.1187  0.9863  1.4860
  515SOL     OW 1543   2.538   0.916   0.588  0.2647  0.4950  0.4111
  515SOL    HW1 1544   2.476   0.973   0.530 -1.0981  0.9363 -3.1485
  515SOL    HW2 1545   2.634   0.929   0.557  0.2091  1.3230  0.6768
  516SOL     OW 1546   2.428   2.830   0.222  0.2930 -0.0250  0.1722
  516SOL    HW1 1547   2.401   2.801   0.127 -2.4642 -0.3582  2.2719
  516SOL    HW2 1548   2.442   2.750   0.284 -2.1844 -0.5815  1.4257
  517SOL     OW 1549   0.615   1.710   2.753 -0.1031  0.6365  0.4401
  517SOL    HW1 1550   0.659   1.799   2.741 -0.4158  0.4084 -0.0885
  517SOL    HW2 1551   0.526   1.721   2.801  0.4844 -2.1922  0.6718
  518SOL     OW 1552   0.162   0.193   1.836 -0.1021 -0.0617  0.0134
  518SOL    HW1 1553   0.064   0.190   1.830  1.2317 -1.0887 -0.4569
  518SOL    HW2 1554   0.200   0.286   1.834 -0.3537 -2.4515  0.7307
  519SOL     OW 1555   1.397   1.244   0.108 -0.3478 -0.0863 -0.1019
  519SOL    HW1 1556   1.461   1.229   0.031  0.9472  2.6115 -0.6313
  519SOL    HW2 1557   1.391   1.343   0.136 -2.9038 -0.5652 -1.0595
  520SOL     OW 1558   2.685   2.793   2.235 -0.3306  0.0560  0.1142
  520SOL    HW1 1559   2.710   2.816   2.137  1.6745  0.2524 -2.4013
  520SOL    HW2 1560   2.701   2.694   2.253 -1.3342  2.0332  2.7120
  521SOL     OW 1561   0.170   1.946   2.097 -0.3861  0.8748  0.3894
  521SOL    HW1 1562   0.144   1.966   2.194  0.5318 -2.6303 -3.6690
  521SOL    HW2 1563   0.266   1.976   2.081 -0.6643 -0.2346  0.2805
  522SOL     OW 1564   1.422   0.055   1.782 -0.0485 -0.1100  0.1896
  522SOL    HW1 1565   1.359   0.008   1.843 -1.7698 -0.0304 -2.3564
  522SOL    HW2 1566   1.403   0.033   1.680  1.1369  0.4031  1.6803
  523SOL     OW 1567   1.933   2.193   1.022 -0.4787 -0.3004  0.4210
  523SOL    HW1 1568   1.937   2.097   1.050 -0.5011 -0.2040 -2.1137
  523SOL    HW2 1569   2.027   2.235   1.011  0.9144  3.0138 -1.4751
  524SOL     OW 1570   0.984   2.087   0.791  0.3688  0.3247  0.4462
  524SOL    HW1 1571   1.021   2.180   0.786 -0.2506  1.7044 -1.2143
  524SOL    HW2 1572   0.932   2.076   0.878  1.6243 -0.5695  0.0780
  525SOL     OW 1573   2.860   0.402   0.721  0.4450 -0.4171 -0.2202
  525SOL    HW1 1574   2.785   0.467   0.746 -0.3993  1.0878 -0.4556
  525SOL    HW2 1575   2.824   0.338   0.651  0.1636 -0.6582  4.3288
  526SOL     OW 1576   1.038   0.235   0.322  0.1375 -0.3074 -1.1709
  526SOL    HW1 1577   1.071   0.333   0.330  3.3584 -0.0837 -0.6093
  526SOL    HW2 1578   0.998   0.217   0.234 -0.8532  0.4978  4.3194
  527SOL     OW 1579   1.864   1.375   1.086 -0.0514 -0.4748  0.7225
  527SOL    HW1 1580   1.810   1.309   1.025 -0.8756 -3.7121  0.0230
  527SOL    HW2 1581   1.953   1.418   1.042  2.2900  3.3671 -2.6295
  528SOL     OW 1582   2.729   2.510   2.272 -0.1921 -0.3591 -0.1139
  528SOL    HW1 1583   2.802   2.497   2.342  1.3005 -2.9912 -0.5181
  528SOL    HW2 1584   2.753   2.458   2.190  1.2689  0.6654 -0.4790
  529SOL     OW 1585   0.832   1.179   2.427  0.3070 -0.0536 -0.3932
  529SOL    HW1 1586   0.871   1.134   2.508 -0.5157  0.5923 -1.0361
  529SOL    HW2 1587   0.732   1.166   2.422  1.0397  1.5630 -1.2459
  530SOL     OW 1588   1.772   0.806   2.595  0.3385  0.0481  0.4290
  530SOL    HW1 1589   1.824   0.845   2.519 -0.3932  0.2049  0.5573
  530SOL    HW2 1590   1.831   0.741   2.647  1.6386 -1.0427  1.2015
  531SOL     OW 1591   0.380   0.765   0.421  0.5131 -0.1947 -0.0525
  531SOL    HW1 1592   0.373   0.837   0.494 -1.2508 -0.3963 -0.5720
  531SOL    HW2 1593   0.393   0.810   0.329  0.6873  0.4592 -0.3320
  532SOL     OW 1594   1.568   1.298   0.807 -0.1200 -0.1998  0.5173
  532SOL    HW1 1595   1.516   1.229   0.749  0.4085 -2.0148 -0.9554
  532SOL    HW2 1596   1.559   1.392   0.765  0.6246  2.8539  1.5662
  533SOL     OW 1597   0.351   0.589   2.290 -0.3425 -0.2078 -0.3605
  533SOL    HW1 1598   0.388   0.495   2.280 -2.1621  1.1348 -1.8427
  533SOL    HW2 1599   0.412   0.645   2.352 -2.0518  2.7101 -1.8007
  534SOL     OW 1600   0.749   0.211   2.800  0.1944  0.1062 -0.2997
  534SOL    HW1 1601   0.822   0.265   2.845  1.6052 -1.5325 -0.5559
  534SOL    HW2 1602   0.709   0.148   2.869  2.9096 -0.0993 -1.3181
  535SOL     OW 1603   0.536   0.362   3.036 -0.1638 -0.1649 -0.5205
  535SOL    HW1 1604   0.477   0.419   3.094  0.7741 -0.0496 -2.3637
  535SOL    HW2 1605   0.484   0.304   2.974  4.2937  0.3795  2.0210
  536SOL     OW 1606   0.550   0.876   2.282  0.2070  0.1465  0.4290
  536SOL    HW1 1607   0.450   0.891   2.258 -1.8368  3.2626  2.8846
  536SOL    HW2 1608   0.608   0.883   2.198 -3.0082 -2.3830  0.3820
  537SOL     OW 1609   1.411   0.085   1.219  0.2476  0.5602  0.2712
  537SOL    HW1 1610   1.313   0.064   1.200 -0.7560 -0.3285  1.0107
  537SOL    HW2 1611   1.428   0.185   1.205 -1.9728  0.5945 -0.8478
  538SOL     OW 1612   0.632   2.017   3.073 -0.4447 -0.1523  0.2489
  538SOL    HW1 1613   0.543   2.068   3.086 -1.1366 -0.5078 -1.6589
  538SOL    HW2 1614   0.662   2.016   2.976  1.3397 -1.5614 -1.2634
  539SOL     OW 1615   2.212   1.361   1.896  0.2568 -0.0515  0.0617
  539SOL    HW1 1616   2.206   1.461   1.877  2.2595 -1.0169  1.6661
  539SOL    HW2 1617   2.130   1.328   1.954 -2.4275 -2.3369 -0.2785
  540SOL     OW 1618   1.722   1.718   1.659  0.3512 -0.5421  0.2231
  540SOL    HW1 1619   1.740   1.700   1.561 -1.2471  0.4204 -0.0706
  540SOL    HW2 1620   1.786   1.784   1.701  1.8116  1.4825  1.1197
  541SOL     OW 1621   0.762   1.690   1.724  0.0561 -0.1677  0.7530
  541SOL    HW1 1622   0.735   1.597   1.750  1.9039  1.6211 -1.5946
  541SOL    HW2 1623   0.783   1.687   1.621 -0.4827 -1.5220 -1.3855
  542SOL     OW 1624   1.904   0.884   2.383  0.9135  0.1892 -0.0926
  542SOL    HW1 1625   1.947   0.977   2.376  2.1905  2.0843 -0.1431
  542SOL    HW2 1626   1.977   0.818   2.353  1.6156 -2.3766  1.2970
  543SOL     OW 1627   0.937   0.776   0.516  0.0089 -0.3811  0.5515
  543SOL    HW1 1628   0.924   0.856   0.580 -0.6728 -0.4208 -0.8126
  543SOL    HW2 1629   0.855   0.763   0.457  1.1130  0.7770  0.9834
  544SOL     OW 1630   2.252   1.935   2.366 -0.8352 -0.2659  0.3014
  544SOL    HW1 1631   2.189   1.928   2.288  0.7245 -2.6862 -0.4411
  544SOL    HW2 1632   2.345   1.953   2.347 -3.1505  0.5904 -1.1763
  545SOL     OW 1633   1.780   1.796   1.412 -0.2377  0.0113  0.1682
  545SOL    HW1 1634   1.746   1.793   1.315  1.8445 -2.2844  0.4398
  545SOL    HW2 1635   1.697   1.824   1.469 -1.6058 -0.7994 -0.1655
  546SOL     OW 1636   0.369   0.250   2.860 -0.2846  0.2995  0.4645
  546SOL    HW1 1637   0.359   0.282   2.763 -0.0916  0.5384 -1.1744
  546SOL    HW2 1638   0.361   0.148   2.866  0.8517 -1.3931 -1.4784
  547SOL     OW 1639   2.505   0.813   0.030  0.1443 -0.2409  0.5769
  547SOL    HW1 1640   2.448   0.873   3.059  0.7513  1.8156 -1.5946
  547SOL    HW2 1641   2.440   0.742   0.066 -2.2406 -1.5712  2.9367
  548SOL     OW 1642   2.068   1.987   2.170  0.1883  0.1589  0.0226
  548SOL    HW1 1643   2.088   2.086   2.185 -1.3045 -1.4029 -0.0619
  548SOL    HW2 1644   2.086   1.952   2.075 -1.6149  1.6880  0.0692
  549SOL     OW 1645   2.138   0.235   0.624 -0.0194  0.1713 -0.1618
  549SOL    HW1 1646   2.186   0.146   0.636 -0.6530 -0.5759 -2.0839
  549SOL    HW2 1647   2.203   0.312   0.612  2.0611 -2.8869  1.3612
  550SOL     OW 1648   2.175   1.693   0.408  0.2586 -0.5361  0.4098
  550SOL    HW1 1649   2.206   1.776   0.354 -1.2708  1.8806  0.0174
  550SOL    HW2 1650   2.101   1.711   0.472  0.2179 -0.8452  1.1626
  551SOL     OW 1651   1.453   0.339   1.745 -0.3513  0.0320  1.2502
  551SOL    HW1 1652   1.408   0.247   1.761 -2.9339 -0.0390 -2.0503
  551SOL    HW2 1653   1.514   0.330   1.664  3.7195 -3.6073 -0.1393
  552SOL     OW 1654   0.018   2.247   2.301 -0.7015 -0.0384 -0.3692
  552SOL    HW1 1655   0.021   2.318   2.225 -1.6801 -1.1713 -1.9726
  552SOL    HW2 1656   0.100   2.261   2.366  1.3156  0.3269  1.4345
  553SOL     OW 1657   0.898   3.000   0.216  0.8338 -0.4647  0.5065
  553SOL    HW1 1658   0.986   2.995   0.171 -0.3141  0.0964 -1.1103
  553SOL    HW2 1659   0.891   3.080   0.276  0.3411 -1.4449 -1.8161
  554SOL     OW 1660   1.830   2.282   1.722  0.0927 -0.3185 -0.2595
  554SOL    HW1 1661   1.905   2.228   1.756 -3.0718 -1.2570 -1.7460
  554SOL    HW2 1662   1.853   2.382   1.716 -3.1157 -1.5669 -0.1903
  555SOL     OW 1663   1.139   2.073   1.907  0.3331  0.1252 -0.6999
  555SOL    HW1 1664   1.082   2.120   1.978 -0.2186 -1.5212  0.6700
  555SOL    HW2 1665   1.239   2.087   1.920  1.9379 -0.5134 -1.9888
  556SOL     OW 1666   1.145   1.850   0.796  0.2523  0.3853  0.5984
  556SOL    HW1 1667   1.087   1.774   0.760  1.2722  0.8175 -0.7083
  556SOL    HW2 1668   1.099   1.940   0.781  0.8400  2.5154  1.7626
  557SOL     OW 1669   1.614   2.286   1.916  0.1017 -0.3423 -0.1699
  557SOL    HW1 1670   1.699   2.276   1.858  0.3791 -1.5668  2.5242
  557SOL    HW2 1671   1.634   2.337   2.002  0.3188 -2.4282 -0.5495
  558SOL     OW 1672   0.389   0.214   1.580 -0.0430  0.0311  0.4517
  558SOL    HW1 1673   0.344   0.130   1.617 -0.6657 -1.3228  0.5967
  558SOL    HW2 1674   0.458   0.252   1.644  1.4429  0.9647 -2.0774
  559SOL     OW 1675   2.486   2.953   1.243  0.7322 -0.4690  0.2057
  559SOL    HW1 1676   2.528   2.934   1.149  5.6200  0.6136  0.9643
  559SOL    HW2 1677   2.493   3.051   1.267 -0.5641  2.5401 -0.2085
  560SOL     OW 1678   0.751   2.343   0.186  0.1205 -0.6486 -0.7453
  560SOL    HW1 1679   0.784   2.347   0.090 -0.7710 -0.2326 -2.2320
  560SOL    HW2 1680   0.736   2.243   0.215  0.0513 -5.3627  0.0978
  561SOL     OW 1681   1.019   0.650   0.097 -0.6688  0.3157 -0.2160
  561SOL    HW1 1682   0.948   0.620   0.161  3.7462  2.3804  0.0322
  561SOL    HW2 1683   1.035   0.754   0.104  0.3377  2.6858  0.6170
  562SOL     OW 1684   0.831   0.496   2.447  0.1374  0.0664  0.2720
  562SOL    HW1 1685   0.898   0.462   2.509  0.4705  1.0086 -1.4317
  562SOL    HW2 1686   0.856   0.488   2.347  2.3922 -0.2873 -1.4413
  563SOL     OW 1687   1.690   2.354   2.570 -0.2044  0.0782 -0.4006
  563SOL    HW1 1688   1.631   2.273   2.554  2.0120 -1.4300 -1.7601
  563SOL    HW2 1689   1.791   2.331   2.586  3.0111  0.9230  0.7869
  564SOL     OW 1690   0.152   1.037   0.423  0.3339 -0.2538  0.0039
  564SOL    HW1 1691   0.246   1.045   0.376  2.3310 -0.6733 -0.0303
  564SOL    HW2 1692   0.102   1.121   0.396  0.7785  0.7495 -0.5581
  565SOL     OW 1693   1.453   3.008   2.627 -1.1318  0.0537  0.1943
  565SOL    HW1 1694   1.399   3.053   2.550 -1.6894 -0.6330  0.1125
  565SOL    HW2 1695   1.471   3.080   2.695 -0.2438  0.5865 -1.1902
  566SOL     OW 1696   1.875   2.998   2.454 -0.0877 -0.0541 -0.1600
  566SOL    HW1 1697   1.886   2.899   2.470 -0.5702  0.9399  0.6949
  566SOL    HW2 1698   1.798   3.006   2.394  3.3503  0.3780 -0.1287
  567SOL     OW 1699   2.456   1.242   0.867  0.2225 -0.0294 -0.0940
  567SOL    HW1 1700   2.352   1.236   0.856 -1.9776 -1.8452 -1.0308
  567SOL    HW2 1701   2.496   1.308   0.936 -0.7367  2.3640 -1.6178
  568SOL     OW 1702   1.728   1.855   0.393  0.2034  0.0284 -0.2456
  568SOL    HW1 1703   1.760   1.915   0.318  0.4082  1.3442  2.4830
  568SOL    HW2 1704   1.668   1.908   0.457  0.6809  2.4806  1.1046
  569SOL     OW 1705   2.082   1.662   2.902  0.6491  0.1097  0.4643
  569SOL    HW1 1706   2.054   1.562   2.893  0.0002 -2.2067 -0.1307
  569SOL    HW2 1707   2.135   1.682   2.813  3.4342  1.4466 -0.6702
  570SOL     OW 1708   2.913   2.657   1.667  0.5723  0.2032  0.1877
  570SOL    HW1 1709   3.001   2.658   1.612  0.7029 -0.7880 -0.8488
  570SOL    HW2 1710   2.919   2.722   1.739  1.5552 -0.8538 -2.5056
  571SOL     OW 1711   0.110   0.305   2.333 -0.8704  0.2609 -1.0056
  571SOL    HW1 1712   0.205   0.320   2.294  0.4181  0.4621  0.0174
  571SOL    HW2 1713   0.091   0.383   2.397  3.1848 -3.3567  0.4443
  572SOL     OW 1714   1.002   1.371   0.853 -0.2946 -0.3732 -0.5540
  572SOL    HW1 1715   0.955   1.429   0.929 -1.8776  0.7040 -0.7068
  572SOL    HW2 1716   1.093   1.417   0.834  0.7274  1.5232  0.8378
  573SOL     OW 1717   0.948   0.337   2.894  0.0333  0.1118 -0.4692
  573SOL    HW1 1718   1.028   0.287   2.938 -2.2978  0.4475  0.1706
  573SOL    HW2 1719   0.981   0.402   2.823 -1.7399  2.6527 -0.0008
  574SOL     OW 1720   0.721   0.188   0.641 -0.0714  0.0311 -0.4037
  574SOL    HW1 1721   0.797   0.147   0.586  3.0194  1.3799 -1.5053
  574SOL    HW2 1722   0.650   0.115   0.664 -1.2126  2.0229 -1.5242
  575SOL     OW 1723   2.865   1.215   1.472  0.1056 -0.1602 -0.2088
  575SOL    HW1 1724   2.951   1.186   1.421 -2.2073  0.3847 -2.5459
  575SOL    HW2 1725   2.875   1.314   1.496  1.3370  4.5396  0.2414
  576SOL     OW 1726   2.335   0.458   1.728  0.3302 -0.2264 -0.0030
  576SOL    HW1 1727   2.313   0.464   1.828  0.9096  0.3132  0.9826
  576SOL    HW2 1728   2.379   0.370   1.696  1.0275 -2.8993  0.7734
  577SOL     OW 1729   2.906   1.296   2.042 -0.0824 -0.3531  0.1079
  577SOL    HW1 1730   2.996   1.303   2.086 -2.5891 -0.1618 -2.2822
  577SOL    HW2 1731   2.920   1.311   1.942 -2.5953 -0.8641 -0.6726
  578SOL     OW 1732   1.611   2.857   2.462  0.0647 -0.4672 -0.1068
  578SOL    HW1 1733   1.587   2.760   2.483 -1.0448  1.6461  0.3207
  578SOL    HW2 1734   1.555   2.921   2.513  0.1257 -1.3677  0.7261
  579SOL     OW 1735   2.003   2.247   2.000  0.0217  0.2811 -0.3757
  579SOL    HW1 1736   2.034   2.336   2.035 -0.4323 -1.7389  0.7793
  579SOL    HW2 1737   1.944   2.210   2.074 -2.4479 -1.5654 -0.0824
  580SOL     OW 1738   1.683   1.504   2.075 -0.0985  0.1720  0.1251
  580SOL    HW1 1739   1.613   1.571   2.047 -1.7547 -3.4834 -2.5729
  580SOL    HW2 1740   1.758   1.517   2.014 -0.7144 -0.2268  0.4284
  581SOL     OW 1741   1.394   1.005   2.655 -0.0372  0.2119  0.2486
  581SOL    HW1 1742   1.493   1.008   2.630 -1.0815 -1.0372 -1.3198
  581SOL    HW2 1743   1.345   0.933   2.599 -0.0639  0.1379 -0.0394
  582SOL     OW 1744   0.292   2.257   1.866 -0.3556 -0.0319 -0.8248
  582SOL    HW1 1745   0.375   2.200   1.853  1.9955  0.8079  1.2324
  582SOL    HW2 1746   0.229   2.256   1.785  0.1212 -0.4529 -2.3330
  583SOL     OW 1747   1.507   1.061   1.164 -0.3493 -0.2904 -0.2061
  583SOL    HW1 1748   1.492   1.059   1.066  1.9677 -0.8079  0.3297
  583SOL    HW2 1749   1.446   1.129   1.205  0.3153 -0.9726 -1.1450
  584SOL     OW 1750   1.078   2.294   0.517 -0.1423 -0.5948 -0.1771
  584SOL    HW1 1751   1.075   2.392   0.486 -0.2387  0.8653 -1.4831
  584SOL    HW2 1752   1.026   2.236   0.452 -0.1647 -1.3375  0.4146
  585SOL     OW 1753   2.918   2.263   0.017  0.2324  0.1933  0.0816
  585SOL    HW1 1754   2.976   2.189   3.085  0.6062  2.7259 -0.2899
  585SOL    HW2 1755   2.867   2.308   3.037  1.0640 -1.1579  1.7215
  586SOL     OW 1756   2.774   1.523   0.358  0.3453  0.8041 -0.1108
  586SOL    HW1 1757   2.835   1.459   0.306  0.6111 -2.4771 -0.4806
  586SOL    HW2 1758   2.681   1.489   0.354 -0.1261 -2.3909 -0.2851
  587SOL     OW 1759   1.083   1.427   2.988 -0.4386 -0.1844  0.0164
  587SOL    HW1 1760   1.163   1.369   2.963 -0.8590  1.3027  2.2160
  587SOL    HW2 1761   1.105   1.485   3.066  0.2866 -2.6731 -1.9969
  588SOL     OW 1762   0.313   0.258   0.732 -0.0196 -0.0328  0.6592
  588SOL    HW1 1763   0.234   0.194   0.758 -0.6835  1.0839 -0.4488
  588SOL    HW2 1764   0.316   0.335   0.796  0.5279 -0.7060 -3.9086
  589SOL     OW 1765   1.277   0.373   0.574  0.6495 -0.1021 -0.5071
  589SOL    HW1 1766   1.171   0.387   0.576 -1.9535  0.6972 -1.0566
  589SOL    HW2 1767   1.312   0.453   0.520 -0.2344  1.9641  0.8174
  590SOL     OW 1768   2.123   2.460   0.319  0.3156 -0.3029  0.0198
  590SOL    HW1 1769   2.093   2.416   0.408 -0.0964 -2.8079  3.1901
  590SOL    HW2 1770   2.104   2.558   0.325  0.7628 -2.8235  0.1764
  591SOL     OW 1771   0.228   2.791   1.744 -0.4724  0.2625 -0.3603
  591SOL    HW1 1772   0.305   2.766   1.808 -1.9811  1.6149  0.1781
  591SOL    HW2 1773   0.207   2.709   1.692  0.9210  0.7238  1.9443
  592SOL     OW 1774   3.017   1.785   2.094 -0.0786 -0.0907  0.4407
  592SOL    HW1 1775   3.010   1.787   2.200 -0.7517  0.0175  0.4417
  592SOL    HW2 1776   0.011   1.826   2.065 -0.2780 -0.3084 -0.6169
  593SOL     OW 1777   1.527   1.438   1.350 -0.0157 -0.1140 -0.3128
  593SOL    HW1 1778   1.615   1.414   1.404  0.7777  1.3160  0.7757
  593SOL    HW2 1779   1.541   1.505   1.274  1.5823  0.7405 -0.3631
  594SOL     OW 1780   0.641   1.221   2.832 -0.0504  0.5453  0.3679
  594SOL    HW1 1781   0.557   1.234   2.889 -0.5661 -1.7512  1.1880
  594SOL    HW2 1782   0.655   1.311   2.782  2.3548  0.3311  1.7332
  595SOL     OW 1783   1.422   0.984   0.896  0.0606  0.0868 -0.5690
  595SOL    HW1 1784   1.322   0.966   0.895 -0.4147  1.1652 -0.4366
  595SOL    HW2 1785   1.453   0.998   0.800 -2.2951 -2.1667 -0.2656
  596SOL     OW 1786   2.833   1.169   1.019  0.0755 -0.3084 -0.0308
  596SOL    HW1 1787   2.851   1.071   1.026 -0.8308  4.1218  1.4182
  596SOL    HW2 1788   2.880   1.226   1.089 -0.7134  0.0011  2.4277
  597SOL     OW 1789   0.893   2.378   1.729  0.2595  0.1609 -1.1602
  597SOL    HW1 1790   0.800   2.401   1.758 -5.3782 -0.8091 -1.5451
  597SOL    HW2 1791   0.906   2.277   1.733 -0.4039  0.1657 -2.1245
  598SOL     OW 1792   2.141   2.662   1.874 -0.0150 -0.0700  0.3340
  598SOL    HW1 1793   2.079   2.616   1.943 -1.5643  0.0347 -1.2774
  598SOL    HW2 1794   2.188   2.592   1.813  2.7313 -1.8821  0.5951
  599SOL     OW 1795   0.848   1.230   0.148 -0.4667 -0.2141  0.2690
  599SOL    HW1 1796   0.935   1.282   0.171  3.0447  1.2584 -1.0262
  599SOL    HW2 1797   0.866   1.143   0.100  2.6573 -0.6427 -1.8015
  600SOL     OW 1798   1.363   0.758   3.072 -0.0356  0.4445  0.0095
  600SOL    HW1 1799   1.296   0.690   3.038  1.4604 -0.6484  0.7235
  600SOL    HW2 1800   1.437   0.710   0.030 -0.9154  0.0551  0.5435
  601SOL     OW 1801   0.828   0.455   1.541 -0.2818  0.4079 -0.1121
  601SOL    HW1 1802   0.903   0.453   1.605 -2.0748  0.5790 -1.1115
  601SOL    HW2 1803   0.782   0.548   1.534  0.6589 -0.3934 -1.8127
  602SOL     OW 1804   0.517   2.058   0.950  0.3627  0.1453  0.2337
  602SOL    HW1 1805   0.437   2.025   0.893  0.6482 -1.5768 -0.8721
  602SOL    HW2 1806   0.526   2.161   0.942  0.2412  0.9178  0.8197
  603SOL     OW 1807   1.103   2.600   2.285 -0.1330 -0.3057 -0.1616
  603SOL    HW1 1808   1.090   2.560   2.197 -0.3745  0.4292  0.2190
  603SOL    HW2 1809   1.035   2.670   2.323 -0.0946  1.1595 -1.1039
  604SOL     OW 1810   0.205   1.931   0.103  0.0582 -0.1688  0.1154
  604SOL    HW1 1811   0.232   1.994   0.179  0.3322 -0.3664  1.4090
  604SOL    HW2 1812   0.284   1.878   0.066  0.5731 -0.0420  1.9218
  605SOL     OW 1813   2.092   1.620   1.873 -0.7038 -0.3282  0.0533
  605SOL    HW1 1814   2.005   1.564   1.882  2.6763 -2.4804 -0.0203
  605SOL    HW2 1815   2.110   1.653   1.778  0.1917 -0.3216 -0.1513
  606SOL     OW 1816   0.922   1.174   2.907 -0.1238  0.1094 -0.3536
  606SOL    HW1 1817   0.822   1.173   2.894  2.0285 -2.3061  1.0830
  606SOL    HW2 1818   0.951   1.258   2.955  0.6462 -0.7073  3.0084
  607SOL     OW 1819   1.183   0.997   1.052  0.0583  0.4369 -0.5286
  607SOL    HW1 1820   1.245   0.962   1.125 -0.1454  0.6658 -0.2842
  607SOL    HW2 1821   1.085   0.993   1.081 -2.2599 -0.3062  1.7153
  608SOL     OW 1822   2.779   2.132   1.962 -0.2240  0.0119 -0.1835
  608SOL    HW1 1823   2.769   2.175   1.871  1.2835  1.2513  1.5178
  608SOL    HW2 1824   2.807   2.034   1.948  0.7207  0.2883 -0.6471
  609SOL     OW 1825   2.222   0.148   0.392 -0.7820 -0.0964 -0.3716
  609SOL    HW1 1826   2.321   0.156   0.400 -2.5005 -0.8185  2.4858
  609SOL    HW2 1827   2.173   0.193   0.468  0.8252 -0.0731 -2.3520
  610SOL     OW 1828   3.063   2.247   1.433 -0.0812 -0.0939 -0.2119
  610SOL    HW1 1829   0.018   2.303   1.368 -0.7795  0.0291 -1.2197
  610SOL    HW2 1830   0.006   2.152   1.432  0.2056  2.6457 -0.1656
  611SOL     OW 1831   1.380   2.247   0.523  0.4717  0.3680 -0.1845
  611SOL    HW1 1832   1.482   2.240   0.548 -1.8883 -1.8512 -2.6608
  611SOL    HW2 1833   1.339   2.334   0.557 -1.4243 -0.2676  1.7210
  612SOL     OW 1834   0.731   0.007   1.711  0.2454  0.0717  0.3828
  612SOL    HW1 1835   0.774   3.089   1.804  0.9151  0.2110  2.7171
  612SOL    HW2 1836   0.717   0.110   1.688 -1.1623 -0.8482 -2.0940
  613SOL     OW 1837   2.958   1.828   0.511  0.5287  0.3392 -0.6783
  613SOL    HW1 1838   2.911   1.752   0.563  0.1726  0.6548 -1.1871
  613SOL    HW2 1839   2.904   1.870   0.440  0.1891 -3.5167  0.5617
  614SOL     OW 1840   1.935   0.552   2.217  0.1085  0.8226  0.0606
  614SOL    HW1 1841   1.979   0.626   2.272 -0.0967  0.7318  0.5831
  614SOL    HW2 1842   1.960   0.565   2.119 -0.2398 -0.4527  0.0135
  615SOL     OW 1843   1.079   1.292   1.154 -0.6069 -0.2662 -0.3434
  615SOL    HW1 1844   1.065   1.392   1.150  1.6981 -1.3261 -2.5650
  615SOL    HW2 1845   1.172   1.267   1.190  0.2840 -1.4435 -0.3888
  616SOL     OW 1846   1.593   1.793   0.062 -0.8439 -0.4153 -0.1204
  616SOL    HW1 1847   1.505   1.840   0.040 -1.1684  2.0507 -2.0090
  616SOL    HW2 1848   1.672   1.862   0.081  4.0129  3.7691  0.5556
  617SOL     OW 1849   1.991   3.046   0.431  0.0311  0.2117  0.8168
  617SOL    HW1 1850   2.084   3.002   0.417 -0.9939  0.4149  1.1499
  617SOL    HW2 1851   1.925   3.007   0.365  0.0801 -1.7592  0.3748
  618SOL     OW 1852   0.631   0.705   2.501 -0.0971 -0.1858 -0.1595
  618SOL    HW1 1853   0.621   0.763   2.419  2.0958 -0.8110  0.0279
  618SOL    HW2 1854   0.708   0.639   2.480  0.9895 -0.2625 -2.1772
  619SOL     OW 1855   2.843   1.560   1.257  0.0998  0.0227 -0.5037
  619SOL    HW1 1856   2.881   1.496   1.188  0.1329  2.3722  1.8974
  619SOL    HW2 1857   2.771   1.626   1.218 -2.4644  2.5425  0.0364
  620SOL     OW 1858   2.200   2.947   2.815  0.2840 -0.4621 -0.2838
  620SOL    HW1 1859   2.222   2.888   2.735 -0.5117  4.9797  0.4515
  620SOL    HW2 1860   2.109   2.913   2.857  2.2026  0.3695  1.6239
  621SOL     OW 1861   2.489   1.681   3.038  0.1000  0.3752 -0.2515
  621SOL    HW1 1862   2.444   1.589   3.043 -2.0327 -1.1789 -1.1423
  621SOL    HW2 1863   2.430   1.753   3.084 -3.5923 -0.7760 -0.0319
  622SOL     OW 1864   1.665   3.049   2.238 -0.1684  0.8326  0.4690
  622SOL    HW1 1865   1.618   3.063   2.323  3.6707 -1.3597 -2.9788
  622SOL    HW2 1866   1.658   0.039   2.188  1.4362 -0.8278 -0.0767
  623SOL     OW 1867   1.223   1.918   1.093  0.3938  0.2414  0.1846
  623SOL    HW1 1868   1.155   1.959   1.156 -0.4125 -1.0043  0.7385
  623SOL    HW2 1869   1.220   1.954   0.997  0.7090 -1.4967  0.9391
  624SOL     OW 1870   0.214   2.983   0.053 -0.2386 -0.5369 -0.2345
  624SOL    HW1 1871   0.251   2.947   0.142 -0.0145  1.9125  0.0929
  624SOL    HW2 1872   0.269   3.066   0.031  1.9439 -0.3923  0.3139
  625SOL     OW 1873   0.958   1.655   0.658  0.0095  0.3530  0.1127
  625SOL    HW1 1874   0.915   1.684   0.749 -2.2653 -0.7818  0.1471
  625SOL    HW2 1875   0.880   1.616   0.611 -0.0333  0.9545  2.2696
  626SOL     OW 1876   3.038   2.944   0.056  0.0861  0.1408 -0.3636
  626SOL    HW1 1877   0.038   2.968   0.062  0.3653  0.7031 -2.5815
  626SOL    HW2 1878   3.025   2.846   0.039  1.8907  3.1194  0.9265
  627SOL     OW 1879   1.305   1.774   2.787 -0.2815  0.0787  0.5061
  627SOL    HW1 1880   1.238   1.704   2.756 -2.3627 -0.3653 -0.6112
  627SOL    HW2 1881   1.262   1.837   2.852  3.6567 -2.5933 -1.9005
  628SOL     OW 1882   0.193   2.800   2.963  0.1604  0.3600 -0.3733
  628SOL    HW1 1883   0.140   2.729   3.016  1.4792 -1.4173 -1.2490
  628SOL    HW2 1884   0.206   2.888   3.015 -1.0510  0.6562  1.0538
  629SOL     OW 1885   0.658   2.935   2.573  0.1632  0.1013 -0.5425
  629SOL    HW1 1886   0.714   2.856   2.607  0.3755 -1.2928 -1.2397
  629SOL    HW2 1887   0.599   2.963   2.650  1.9695  0.9827 -0.1137
  630SOL     OW 1888   1.414   1.191   2.213 -0.6968  0.9979 -0.2688
  630SOL    HW1 1889   1.431   1.090   2.193  1.1516 -2.3570  0.8624
  630SOL    HW2 1890   1.323   1.212   2.187 -0.5489 -1.3505 -0.1430
  631SOL     OW 1891   2.170   1.076   0.600 -0.7059 -0.9037 -0.2536
  631SOL    HW1 1892   2.259   1.111   0.556  0.1025 -0.1189 -0.3138
  631SOL    HW2 1893   2.159   0.972   0.603 -2.1737  1.6492  1.7025
  632SOL     OW 1894   2.630   0.615   2.056  0.1445 -0.0557  0.1518
  632SOL    HW1 1895   2.662   0.656   2.143  0.2483  0.4510 -1.5022
  632SOL    HW2 1896   2.573   0.530   2.064 -0.0886 -0.5174  0.1665
  633SOL     OW 1897   0.834   1.851   0.128  0.1746 -0.2661  0.2344
  633SOL    HW1 1898   0.787   1.935   0.084  1.4849  0.7714  0.7285
  633SOL    HW2 1899   0.896   1.888   0.201 -1.9282  1.8149  0.0161
  634SOL     OW 1900   1.807   2.818   2.718  0.2186 -0.1634  0.2726
  634SOL    HW1 1901   1.756   2.889   2.662  3.2254  2.3376  0.8095
  634SOL    HW2 1902   1.852   2.743   2.663  2.0074  0.7788 -0.6735
  635SOL     OW 1903   1.915   0.377   0.073  0.3884 -0.3574 -0.2904
  635SOL    HW1 1904   1.989   0.312   0.101  1.7187  2.7490  0.8738
  635SOL    HW2 1905   1.834   0.354   0.132  0.3887 -3.4067  0.1044
  636SOL     OW 1906   0.893   1.335   0.613  0.0349  0.6945 -0.0230
  636SOL    HW1 1907   0.956   1.312   0.536 -2.0769  0.1861  1.8450
  636SOL    HW2 1908   0.928   1.317   0.709 -0.0854 -0.9065 -0.7473
  637SOL     OW 1909   2.956   2.161   0.535  0.1753  0.5428 -0.8844
  637SOL    HW1 1910   2.898   2.095   0.485 -0.0604  4.0951  1.5480
  637SOL    HW2 1911   2.962   2.137   0.635  0.9073 -2.1347  1.3274
  638SOL     OW 1912   0.926   2.568   2.646 -0.4466 -0.0053  0.5936
  638SOL    HW1 1913   1.024   2.597   2.642 -1.5045 -0.9122 -2.3704
  638SOL    HW2 1914   0.918   2.480   2.693 -2.0962 -1.0100 -0.0518
  639SOL     OW 1915   1.386   1.967   0.056  0.2026  0.1655 -0.3070
  639SOL    HW1 1916   1.306   1.954   3.096 -1.3618  0.5947  0.2450
  639SOL    HW2 1917   1.360   1.952   0.153 -0.8120 -2.0740 -4.4401
  640SOL     OW 1918   1.858   3.015   0.991 -0.1075 -0.0002  0.1546
  640SOL    HW1 1919   1.759   3.038   1.015  0.4728 -0.8064 -0.2077
  640SOL    HW2 1920   1.876   2.971   0.898 -1.8407  0.6064 -1.6493
  641SOL     OW 1921   3.067   2.830   0.434 -0.4279  0.1427  0.2228
  641SOL    HW1 1922   3.003   2.885   0.376 -1.9921  2.5013 -2.1155
  641SOL    HW2 1923   0.017   2.755   0.375  0.6412  2.9945 -1.7737
  642SOL     OW 1924   1.131   0.151   1.504 -0.0255 -0.4707 -0.2780
  642SOL    HW1 1925   1.071   0.144   1.424 -0.4650 -2.2592 -0.0499
  642SOL    HW2 1926   1.108   0.227   1.568  1.6774 -1.9799  2.1756
  643SOL     OW 1927   0.512   1.659   2.023 -0.0227 -0.1166 -0.7114
  643SOL    HW1 1928   0.560   1.729   2.081 -0.2411  0.1496 -0.0076
  643SOL    HW2 1929   0.485   1.702   1.932 -2.1709  0.2976  0.7300
  644SOL     OW 1930   0.520   2.507   0.249 -0.8626 -0.5898  0.1806
  644SOL    HW1 1931   0.611   2.456   0.241  0.4685  1.1691 -1.0571
  644SOL    HW2 1932   0.442   2.441   0.248  0.5901 -1.6453  1.3337
  645SOL     OW 1933   1.486   2.204   0.037 -0.4333  0.1056 -0.0326
  645SOL    HW1 1934   1.422   2.242   3.064  3.5785  0.7377  1.3291
  645SOL    HW2 1935   1.470   2.099   0.035 -1.0237  1.0634  1.4600
  646SOL     OW 1936   0.432   1.246   3.014 -0.0712 -0.1074  0.0692
  646SOL    HW1 1937   0.351   1.222   3.065 -0.1670 -2.6959 -3.2863
  646SOL    HW2 1938   0.489   1.310   3.067  0.9909 -0.1476  1.3186
  647SOL     OW 1939   0.651   3.021   1.059  0.4213  0.9701  0.4274
  647SOL    HW1 1940   0.657   3.007   1.159  0.2584  2.2151 -2.3841
  647SOL    HW2 1941   0.605   0.016   1.039  1.5594 -0.0951  0.0594
  648SOL     OW 1942   1.864   0.448   1.874  0.0727  0.5952 -0.2401
  648SOL    HW1 1943   1.803   0.365   1.865 -1.2353  0.5587 -0.7422
  648SOL    HW2 1944   1.927   0.454   1.794 -1.2760  2.6966  0.2273
  649SOL     OW 1945   1.329   1.991   2.631  0.2587 -0.1744  0.3342
  649SOL    HW1 1946   1.237   1.985   2.587 -1.7035  1.0514  0.2545
  649SOL    HW2 1947   1.343   1.904   2.684 -0.5247  0.5181  0.4291
  650SOL     OW 1948   2.793   1.862   1.929 -0.0662  0.1302  0.2480
  650SOL    HW1 1949   2.749   1.775   1.890 -2.9197 -2.2331 -0.4265
  650SOL    HW2 1950   2.862   1.837   1.998 -1.6007 -0.3715 -0.6120
  651SOL     OW 1951   1.217   0.215   2.853  0.8135 -0.0006  0.3595
  651SOL    HW1 1952   1.190   0.116   2.846  0.7941  0.4087 -0.5005
  651SOL    HW2 1953   1.280   0.236   2.924 -3.0506 -0.8372 -2.4721
  652SOL     OW 1954   2.854   1.795   3.081 -0.2457  0.3635  0.4494
  652SOL    HW1 1955   2.817   1.702   3.045  0.1115 -1.4487 -0.8486
  652SOL    HW2 1956   2.884   1.865   3.014  2.5794 -0.4899  3.1502
  653SOL     OW 1957   0.291   3.083   0.989  0.0601 -0.2432 -0.3358
  653SOL    HW1 1958   0.243   0.002   1.078  0.8688 -1.1859 -2.0111
  653SOL    HW2 1959   0.349   0.068   0.964 -0.3482  1.1101  2.2640
  654SOL     OW 1960   2.199   0.101   2.701  0.1019  0.0765 -0.1160
  654SOL    HW1 1961   2.155   0.086   2.608  1.3728  0.8915  0.0175
  654SOL    HW2 1962   2.217   0.012   2.748  0.4893  1.0856  1.0839
  655SOL     OW 1963   0.496   2.331   0.958 -0.5532  0.1386 -0.6171
  655SOL    HW1 1964   0.400   2.322   0.928  0.1471  0.5577 -1.8521
  655SOL    HW2 1965   0.496   2.377   1.052 -0.2240 -0.3136  1.0648
  656SOL     OW 1966   0.118   2.920   2.514 -0.4251 -0.0516  0.3697
  656SOL    HW1 1967   0.119   3.007   2.462 -2.6260  0.8483  1.1673
  656SOL    HW2 1968   0.120   2.846   2.442  0.4757 -0.0047  0.1215
  657SOL     OW 1969   2.420   0.562   2.400 -0.5188  0.3030 -0.1960
  657SOL    HW1 1970   2.399   0.630   2.327  1.7772 -0.3859  0.9052
  657SOL    HW2 1971   2.424   0.469   2.357  0.4016 -2.0500 -0.8443
  658SOL     OW 1972   2.068   1.847   0.887 -0.6023 -0.0422 -0.7083
  658SOL    HW1 1973   2.024   1.772   0.834  1.2968  2.2611 -0.1024
  658SOL    HW2 1974   2.090   1.932   0.835  2.5860  1.0686  0.5867
  659SOL     OW 1975   2.269   3.077   0.061 -0.3914  0.0727 -0.0838
  659SOL    HW1 1976   2.342   3.020   0.010  2.0919 -1.3703  3.4105
  659SOL    HW2 1977   2.182   3.034   0.044  1.6055  0.3269 -0.3422
  660SOL     OW 1978   1.572   1.349   2.918  0.3046 -0.0227  0.0832
  660SOL    HW1 1979   1.597   1.447   2.939  0.9061  0.0588 -2.0844
  660SOL    HW2 1980   1.479   1.344   2.881  1.0890 -0.1367  1.4822
  661SOL     OW 1981   2.420   2.377   1.096  0.3693 -0.5923 -0.2841
  661SOL    HW1 1982   2.494   2.325   1.047  1.0110 -1.8738 -2.4983
  661SOL    HW2 1983   2.416   2.349   1.193 -0.4868 -1.3151 -2.1628
  662SOL     OW 1984   0.689   0.836   0.419  0.6405  0.0725  0.7390
  662SOL    HW1 1985   0.693   0.800   0.324 -0.9856 -0.7261 -0.9871
  662SOL    HW2 1986   0.712   0.934   0.415  0.9130 -0.4106  0.3070
  663SOL     OW 1987   1.985   2.522   0.073  0.1781 -0.1602 -0.0965
  663SOL    HW1 1988   1.964   2.443   0.011  0.4604 -0.4208 -0.6771
  663SOL    HW2 1989   2.042   2.488   0.152 -3.1909 -1.7953  0.9777
  664SOL     OW 1990   0.680   2.129   1.545  0.1243  0.2270  0.4377
  664SOL    HW1 1991   0.610   2.114   1.617 -0.7817  1.2201 -2.5684
  664SOL    HW2 1992   0.773   2.108   1.586 -3.9809 -1.8743  1.1402
  665SOL     OW 1993   1.850   2.220   2.239 -0.3926 -0.3622 -0.0438
  665SOL    HW1 1994   1.915   2.207   2.317 -0.3025  1.5770  0.3683
  665SOL    HW2 1995   1.799   2.134   2.222  0.0535  0.1772 -1.0373
  666SOL     OW 1996   0.264   2.339   0.228  0.3731 -0.0663 -0.4577
  666SOL    HW1 1997   0.312   2.295   0.153  2.1170  0.4625 -0.1526
  666SOL    HW2 1998   0.171   2.380   0.201  1.9747  3.3557 -0.1812
  667SOL     OW 1999   2.132   1.574   2.154  0.1178 -0.4131 -0.6907
  667SOL    HW1 2000   2.042   1.580   2.200 -1.3538 -0.8574  0.8179
  667SOL    HW2 2001   2.118   1.580   2.055 -2.8627 -0.7496  1.0505
  668SOL     OW 2002   0.501   0.657   2.736  0.2209 -0.7988 -0.1740
  668SOL    HW1 2003   0.533   0.681   2.645  0.3428 -2.4915  0.4359
  668SOL    HW2 2004   0.570   0.590   2.772 -0.5669  0.1799  0.3714
  669SOL     OW 2005   1.669   2.374   2.843  0.8511 -0.3450 -0.0821
  669SOL    HW1 2006   1.571   2.374   2.874 -1.2404  0.2835 -0.0764
  669SOL    HW2 2007   1.677   2.370   2.743  1.6593 -0.9036  0.5493
  670SOL     OW 2008   2.541   1.913   2.869  0.5034  0.1222 -0.0274
  670SOL    HW1 2009   2.638   1.914   2.842 -2.7817 -1.4983 -2.6446
  670SOL    HW2 2010   2.518   1.823   2.914  2.1787 -0.9268  0.7246
  671SOL     OW 2011   0.397   1.165   1.002 -0.3347 -0.0238  0.0205
  671SOL    HW1 2012   0.321   1.119   0.953 -3.1262 -1.7376 -0.0318
  671SOL    HW2 2013   0.426   1.113   1.087 -1.0818 -1.6670  0.4865
  672SOL     OW 2014   2.536   0.947   2.285 -0.0102 -0.0074  0.3173
  672SOL    HW1 2015   2.609   1.016   2.257  0.0892 -0.3201  3.2494
  672SOL    HW2 2016   2.548   0.917   2.381  0.2971 -0.5564 -0.6271
  673SOL     OW 2017   2.311   2.727   2.093  0.1176 -0.2754  0.2730
  673SOL    HW1 2018   2.400   2.683   2.064  0.4781 -0.9257 -0.1915
  673SOL    HW2 2019   2.236   2.714   2.021  0.6542 -1.6949  0.7253
  674SOL     OW 2020   1.422   2.480   2.265 -0.2059 -0.0296 -0.1531
  674SOL    HW1 2021   1.370   2.472   2.177  0.1606  0.1976 -0.9925
  674SOL    HW2 2022   1.413   2.397   2.326  2.3161  0.4797  0.3230
  675SOL     OW 2023   0.534   0.696   1.288  0.1511  0.5928 -0.0575
  675SOL    HW1 2024   0.456   0.745   1.336  1.4506  1.0621 -1.2340
  675SOL    HW2 2025   0.606   0.682   1.352 -1.5452 -0.7067  0.0850
  676SOL     OW 2026   1.862   0.952   0.806  0.3041  0.4344  0.1550
  676SOL    HW1 2027   1.805   0.890   0.747 -1.0955  0.8587 -0.3549
  676SOL    HW2 2028   1.922   1.008   0.751 -3.9249 -1.2909  2.2627
  677SOL     OW 2029   3.064   1.533   2.760 -0.5661 -0.3879 -0.1179
  677SOL    HW1 2030   0.002   1.480   2.679 -0.6697  1.7170  2.7457
  677SOL    HW2 2031   2.984   1.595   2.736 -1.4364 -0.1208 -0.6857
  678SOL     OW 2032   2.412   2.007   0.980  0.2511  0.0824 -0.2434
  678SOL    HW1 2033   2.421   1.902   0.967  1.4942 -3.1484  1.6988
  678SOL    HW2 2034   2.341   2.023   1.049  1.7856 -0.2947 -2.2701
  679SOL     OW 2035   1.816   2.702   0.680 -0.8783  0.1697 -0.1222
  679SOL    HW1 2036   1.834   2.639   0.608  0.4607  1.9735  4.8860
  679SOL    HW2 2037   1.819   2.650   0.771  3.1050  0.2518  1.6015
  680SOL     OW 2038   0.403   2.652   2.219  0.0976  0.1158 -0.0592
  680SOL    HW1 2039   0.439   2.662   2.316 -0.2378  1.9654 -1.7514
  680SOL    HW2 2040   0.359   2.564   2.206 -0.1633  2.7021  0.3143
  681SOL     OW 2041   2.652   1.309   1.730  0.2759 -0.3451  0.1163
  681SOL    HW1 2042   2.743   1.300   1.774  1.4940 -2.0414 -0.3161
  681SOL    HW2 2043   2.585   1.343   1.800 -1.0991 -0.0442  0.7677
  682SOL     OW 2044   0.561   1.662   1.329 -0.1928  0.4395 -1.0368
  682SOL    HW1 2045   0.638   1.667   1.397  2.8322  0.7850  1.8553
  682SOL    HW2 2046   0.550   1.743   1.269 -0.5187  0.7576  0.1857
  683SOL     OW 2047   2.217   1.569   1.220  0.0671  0.4426  0.5206
  683SOL    HW1 2048   2.238   1.533   1.126 -2.3355  0.9460 -3.9555
  683SOL    HW2 2049   2.123   1.606   1.226 -1.3288 -1.4283 -1.6652
  684SOL     OW 2050   2.735   1.576   2.964  0.1496  0.7497  0.7552
  684SOL    HW1 2051   2.766   1.600   2.868  0.5165 -0.7686 -2.7704
  684SOL    HW2 2052   2.637   1.602   2.985 -0.5307  1.2439 -0.5407
  685SOL     OW 2053   1.626   1.079   3.006  0.3830 -0.0018  0.0893
  685SOL    HW1 2054   1.626   1.167   2.950 -2.0504  0.8189 -0.6463
  685SOL    HW2 2055   1.536   1.033   2.984  0.6521  0.4429 -1.8155
  686SOL     OW 2056   0.379   0.441   1.281 -0.1675  0.3269 -0.1084
  686SOL    HW1 2057   0.446   0.373   1.252 -0.7521  1.7316  0.7153
  686SOL    HW2 2058   0.423   0.534   1.288  2.3143  1.9381 -0.4366
  687SOL     OW 2059   1.214   2.116   2.305 -0.1370  0.3004 -0.0781
  687SOL    HW1 2060   1.312   2.129   2.275 -0.3894  1.6960  0.6601
  687SOL    HW2 2061   1.183   2.191   2.366 -2.4001  0.4363  0.8756
  688SOL     OW 2062   0.344   1.526   1.268 -0.2846  0.4215  0.2165
  688SOL    HW1 2063   0.428   1.573   1.295 -0.5433  2.5721 -2.1713
  688SOL    HW2 2064   0.304   1.574   1.186  0.5651 -2.2615  1.6587
  689SOL     OW 2065   1.412   1.121   1.575 -0.6345 -0.3323  0.6376
  689SOL    HW1 2066   1.495   1.098   1.522  0.5480 -0.5934  1.9926
  689SOL    HW2 2067   1.349   1.049   1.557  2.2019  2.3384 -0.9511
  690SOL     OW 2068   2.550   0.734   1.169  0.3103  0.2431  0.5916
  690SOL    HW1 2069   2.492   0.650   1.175 -1.8454  0.8924 -1.7839
  690SOL    HW2 2070   2.590   0.738   1.077 -0.4558 -0.5737  2.3452
  691SOL     OW 2071   0.575   2.182   1.840  0.0414  0.3315  0.1383
  691SOL    HW1 2072   0.666   2.143   1.863 -1.1983 -1.1344 -0.1159
  691SOL    HW2 2073   0.578   2.279   1.838  1.0560 -0.6256 -0.5660
  692SOL     OW 2074   1.966   0.162   0.888 -0.5816  0.3946  0.1375
  692SOL    HW1 2075   1.957   0.061   0.895 -2.7729  0.3289 -1.2433
  692SOL    HW2 2076   2.062   0.189   0.874 -2.5860  1.4565 -2.4787
  693SOL     OW 2077   0.162   1.202   2.226  0.2650  0.3169 -0.4807
  693SOL    HW1 2078   0.182   1.257   2.141 -2.8721 -0.2596  1.6556
  693SOL    HW2 2079   0.181   1.261   2.310  2.4187 -0.4577  1.4534
  694SOL     OW 2080   2.246   0.648   1.307  0.2486 -0.1556 -0.5906
  694SOL    HW1 2081   2.325   0.594   1.271  0.5137  0.7836 -0.2749
  694SOL    HW2 2082   2.278   0.726   1.366  0.7642  0.9341  2.1779
  695SOL     OW 2083   1.017   1.269   1.716  0.3748  0.1820  0.1341
  695SOL    HW1 2084   1.082   1.329   1.676 -4.8715 -2.9745 -2.4039
  695SOL    HW2 2085   0.980   1.212   1.639 -2.3465  0.9623  1.1534
  696SOL     OW 2086   1.206   2.732   0.017  0.0708  0.6317  0.1941
  696SOL    HW1 2087   1.193   2.831   0.038 -0.0892 -0.9338 -2.0252
  696SOL    HW2 2088   1.309   2.713   0.016 -0.4539  0.0838 -0.5473
  697SOL     OW 2089   0.950   0.336   0.739 -0.5913 -1.0678  0.1836
  697SOL    HW1 2090   0.876   0.286   0.691 -0.7351 -1.2951  1.1989
  697SOL    HW2 2091   1.002   0.295   0.819  2.3891  0.7343  3.3019
  698SOL     OW 2092   1.169   1.443   2.420  0.1481 -0.6156  0.3930
  698SOL    HW1 2093   1.217   1.369   2.470 -0.0504 -0.1608 -1.2167
  698SOL    HW2 2094   1.225   1.530   2.428  0.5274  2.2472  1.1140
  699SOL     OW 2095   1.676   0.879   1.183  0.0312 -0.1664 -0.1608
  699SOL    HW1 2096   1.610   0.954   1.177  0.8394 -2.1380 -0.4184
  699SOL    HW2 2097   1.771   0.910   1.174 -4.2817 -0.2212 -0.0839
  700SOL     OW 2098   0.869   2.880   0.497  0.5632  0.3918  0.2346
  700SOL    HW1 2099   0.818   2.861   0.412 -1.5949 -0.9215 -0.3435
  700SOL    HW2 2100   0.861   2.977   0.531  0.4015 -1.6322  0.7138
  701SOL     OW 2101   2.522   2.900   2.677  0.4486  0.2791  0.0333
  701SOL    HW1 2102   2.547   2.970   2.744 -1.5758 -0.6927  0.0691
  701SOL    HW2 2103   2.535   2.927   2.580 -0.0248  0.3381  0.0174
  702SOL     OW 2104   1.388   0.371   3.078 -0.0367 -0.2656 -0.0231
  702SOL    HW1 2105   1.366   0.322   0.068  1.4902 -0.8056  2.0462
  702SOL    HW2 2106   1.329   0.457   3.068 -0.8831  2.3105 -0.9738
  703SOL     OW 2107   2.559   2.957   2.427  0.3232 -0.0230  0.6649
  703SOL    HW1 2108   2.481   3.009   2.389  0.5011 -0.9147 -0.1895
  703SOL    HW2 2109   2.590   2.885   2.356 -0.4433 -2.9889 -1.7263
  704SOL     OW 2110   0.062   1.906   0.740 -0.2523  0.3398 -0.1787
  704SOL    HW1 2111   0.022   1.878   0.829  1.9695  0.4429  0.9195
  704SOL    HW2 2112   0.015   1.860   0.661  1.6116  2.0338 -0.5455
  705SOL     OW 2113   2.902   3.029   2.253 -0.1984  0.2440  0.2990
  705SOL    HW1 2114   2.948   2.947   2.287 -0.3599 -1.0950  0.8022
  705SOL    HW2 2115   2.833   3.013   2.175 -4.2857  1.6379 -2.5192
  706SOL     OW 2116   1.810   2.914   0.277 -0.0853  0.1960 -0.0135
  706SOL    HW1 2117   1.807   2.812   0.292  0.3983 -1.1950  0.7252
  706SOL    HW2 2118   1.712   2.936   0.253  0.2386 -1.4919  1.3841
  707SOL     OW 2119   0.894   1.804   2.077 -0.5538 -0.0564  0.4106
  707SOL    HW1 2120   0.971   1.838   2.136  0.7710 -0.1165  0.1329
  707SOL    HW2 2121   0.893   1.703   2.082 -1.1499 -0.9184 -0.4993
  708SOL     OW 2122   0.121   2.322   1.668  0.1839 -0.2211  0.2243
  708SOL    HW1 2123   0.044   2.313   1.605  0.9731 -1.7146  1.7131
  708SOL    HW2 2124   0.214   2.308   1.621  3.0862 -1.1808  1.3881
  709SOL     OW 2125   2.168   3.083   1.905  0.0810 -0.1299  0.4496
  709SOL    HW1 2126   2.095   3.018   1.929  1.0211  2.4451  0.8711
  709SOL    HW2 2127   2.176   3.088   1.805  0.1696  2.5599  2.6220
  710SOL     OW 2128   2.158   0.995   2.559  0.2324 -0.6151 -0.2395
  710SOL    HW1 2129   2.125   1.031   2.648 -1.4285 -0.7674 -1.1969
  710SOL    HW2 2130   2.180   0.897   2.567  2.3246 -1.4345  0.7310
  711SOL     OW 2131   1.069   2.282   2.977 -0.4195  0.0502  0.1538
  711SOL    HW1 2132   1.068   2.256   3.075 -0.2438 -1.1813  1.4360
  711SOL    HW2 2133   1.107   2.370   2.951 -0.4935 -1.7886 -0.4610
  712SOL     OW 2134   0.634   2.551   2.071 -0.0190  0.2819  0.1054
  712SOL    HW1 2135   0.554   2.604   2.101  1.0732 -1.4980 -1.3599
  712SOL    HW2 2136   0.664   2.490   2.149  1.2135 -1.9179  1.1154
  713SOL     OW 2137   1.804   1.239   0.097  0.5890 -0.0055  0.4654
  713SOL    HW1 2138   1.743   1.175   0.039  1.4040 -1.7709  0.7019
  713SOL    HW2 2139   1.835   1.323   0.044 -1.7450  1.5342  3.6162
  714SOL     OW 2140   0.748   1.216   1.333  0.0076  0.5225  0.1284
  714SOL    HW1 2141   0.687   1.246   1.411 -1.8550 -0.6026  0.1436
  714SOL    HW2 2142   0.739   1.287   1.259  2.4089 -0.4798  2.5058
  715SOL     OW 2143   1.915   0.451   2.896 -0.5968  0.0104  0.1465
  715SOL    HW1 2144   1.827   0.494   2.873 -1.3338 -0.2305 -1.6054
  715SOL    HW2 2145   1.921   0.434   2.997 -0.9251 -0.2637 -0.2802
  716SOL     OW 2146   2.791   2.894   2.002  0.0166 -0.3435  0.2310
  716SOL    HW1 2147   2.809   2.960   1.926  3.6521 -2.0387  0.3061
  716SOL    HW2 2148   2.877   2.871   2.045  1.1241 -0.6905 -2.9541
  717SOL     OW 2149   0.086   0.698   0.945  1.0154 -0.3401 -0.2438
  717SOL    HW1 2150   0.093   0.680   0.846  0.5296  0.2979  1.9314
  717SOL    HW2 2151   0.090   0.609   1.000  0.7392 -1.3336 -0.7658
  718SOL     OW 2152   0.527   1.329   2.250  0.3433 -0.4860 -0.6794
  718SOL    HW1 2153   0.592   1.393   2.296  0.2999  1.6485  1.7070
  718SOL    HW2 2154   0.492   1.350   2.156  1.2018  0.0358 -1.3506
  719SOL     OW 2155   2.400   1.428   3.083  0.7100 -0.2038  0.0992
  719SOL    HW1 2156   2.343   1.420   0.072 -1.1191 -0.4317 -3.4086
  719SOL    HW2 2157   2.444   1.337   3.067 -0.2624  0.6990 -1.2896
  720SOL     OW 2158   1.151   0.747   0.855 -0.7250  0.0262  0.0816
  720SOL    HW1 2159   1.083   0.673   0.868  0.6276  1.6428 -0.4081
  720SOL    HW2 2160   1.152   0.807   0.937  2.0281 -1.6208  2.9147
  721SOL     OW 2161   2.616   0.331   0.254  0.2432  0.3693 -0.2680
  721SOL    HW1 2162   2.697   0.329   0.188 -3.6707 -0.6152 -1.4867
  721SOL    HW2 2163   2.554   0.248   0.248  0.4737 -0.8553  1.0048
  722SOL     OW 2164   2.028   0.688   2.703 -0.3111  0.5861 -0.4717
  722SOL    HW1 2165   2.106   0.746   2.668 -1.2885  2.1242 -0.2225
  722SOL    HW2 2166   2.024   0.602   2.641 -0.6530 -1.2977  0.2856
  723SOL     OW 2167   2.757   0.657   0.408  0.9506 -0.0918  0.4898
  723SOL    HW1 2168   2.688   0.616   0.472 -1.6590 -0.8318 -2.7920
  723SOL    HW2 2169   2.847   0.609   0.415 -0.9063  0.1829 -0.2679
  724SOL     OW 2170   0.869   1.506   2.116  0.2812  0.2241  0.2406
  724SOL    HW1 2171   0.816   1.494   2.201  2.4097 -0.2408  0.3455
  724SOL    HW2 2172   0.946   1.438   2.116  2.0453 -0.3496 -0.2179
  725SOL     OW 2173   1.923   0.690   1.962  0.0217 -0.0949 -0.1627
  725SOL    HW1 2174   1.923   0.774   1.902 -1.0590  1.5087 -1.0890
  725SOL    HW2 2175   1.891   0.603   1.911 -1.9878 -0.2972  1.0891
  726SOL     OW 2176   1.520   2.880   0.639 -0.2220  0.7611 -0.5493
  726SOL    HW1 2177   1.595   2.834   0.685 -1.0852 -0.3226  2.3010
  726SOL    HW2 2178   1.489   2.838   0.554 -0.1357 -0.4534 -3.4798
  727SOL     OW 2179   1.475   1.659   2.058  0.1379  0.1313 -0.3215
  727SOL    HW1 2180   1.376   1.630   2.070  0.2611  0.2108 -0.3510
  727SOL    HW2 2181   1.482   1.753   2.019  1.3954 -0.4195  0.6138
  728SOL     OW 2182   1.828   2.943   1.707  0.0370  0.2359  0.5060
  728SOL    HW1 2183   1.755   2.874   1.701 -1.9280  1.8221 -1.1012
  728SOL    HW2 2184   1.872   2.937   1.802  3.6568  0.5685  1.4651
  729SOL     OW 2185   2.161   1.180   0.858 -0.0630 -0.5833 -0.0040
  729SOL    HW1 2186   2.160   1.278   0.833 -3.5875 -1.9358 -0.3766
  729SOL    HW2 2187   2.149   1.119   0.779 -1.7794  1.2271 -1.1123
  730SOL     OW 2188   0.436   1.294   2.593  0.1400  0.2003 -0.5804
  730SOL    HW1 2189   0.511   1.347   2.639 -1.5711 -1.7237  1.4480
  730SOL    HW2 2190   0.477   1.223   2.529  2.1791  1.5036  0.4090
  731SOL     OW 2191   0.116   0.072   0.771 -0.0822  0.2875 -0.1132
  731SOL    HW1 2192   0.061   0.021   0.699 -2.5224 -1.0853  0.1359
  731SOL    HW2 2193   0.124   0.014   0.855  0.3717 -0.9234  1.5264
  732SOL     OW 2194   1.266   0.951   0.380  0.1725  0.0840 -0.3403
  732SOL    HW1 2195   1.196   0.965   0.311  2.7161 -2.9314 -0.0932
  732SOL    HW2 2196   1.236   0.874   0.440  1.8613  1.4661 -0.5758
  733SOL     OW 2197   0.618   1.561   0.969  0.2605  0.4269  0.2385
  733SOL    HW1 2198   0.607   1.462   0.931 -2.5530 -2.7233 -0.0641
  733SOL    HW2 2199   0.545   1.617   0.927  0.1163 -0.9420 -1.2532
  734SOL     OW 2200   3.079   2.404   0.205  0.5232  0.5259 -0.1190
  734SOL    HW1 2201   3.024   2.361   0.128 -1.3244 -0.6150 -0.4315
  734SOL    HW2 2202   3.029   2.398   0.291  0.7677  2.7957  0.2380
  735SOL     OW 2203   1.428   0.658   1.236 -0.3193 -0.3308  0.1752
  735SOL    HW1 2204   1.429   0.596   1.313  0.0861 -0.2036 -0.9162
  735SOL    HW2 2205   1.520   0.698   1.214 -1.1275  1.6251 -0.7341
  736SOL     OW 2206   2.388   2.478   0.090 -0.3516 -0.5189  0.0619
  736SOL    HW1 2207   2.392   2.564   0.029  0.4108 -0.1626 -1.8803
  736SOL    HW2 2208   2.360   2.494   0.186  1.4830 -0.5179 -2.5524
  737SOL     OW 2209   2.676   0.553   0.816 -0.2126  0.2815 -0.2304
  737SOL    HW1 2210   2.628   0.481   0.869  0.2087 -0.2634 -1.0489
  737SOL    HW2 2211   2.661   0.641   0.869  1.2135 -1.4311  1.7352
  738SOL     OW 2212   2.485   0.085   0.942 -0.0940  0.0103  0.1322
  738SOL    HW1 2213   2.548   0.007   0.939  0.4515  2.7936 -0.4074
  738SOL    HW2 2214   2.393   0.068   0.899 -2.7902 -0.4758 -2.2542
  739SOL     OW 2215   1.338   2.502   0.369 -0.3085 -0.1012  0.5999
  739SOL    HW1 2216   1.327   2.420   0.309 -1.2621 -0.3933  1.7371
  739SOL    HW2 2217   1.240   2.531   0.391 -3.1326 -1.7418  1.0526
  740SOL     OW 2218   1.684   0.497   1.055  0.0901  0.5044  0.3803
  740SOL    HW1 2219   1.615   0.563   1.018  3.4597 -2.2979  0.4789
  740SOL    HW2 2220   1.766   0.504   0.993 -1.8926 -0.7346 -2.4333
  741SOL     OW 2221   2.635   0.794   0.928  0.1007 -0.2904  0.5496
  741SOL    HW1 2222   2.732   0.825   0.912  2.6293  0.2160 -0.6293
  741SOL    HW2 2223   2.578   0.867   0.886 -0.8607  4.3973  0.4115
  742SOL     OW 2224   0.636   1.458   2.705  0.1433 -0.5162 -0.0954
  742SOL    HW1 2225   0.715   1.460   2.638 -0.7254 -0.0240 -1.0316
  742SOL    HW2 2226   0.598   1.554   2.717  1.3758 -0.0673 -0.0284
  743SOL     OW 2227   1.551   0.713   1.997  0.3902 -0.6237 -0.2862
  743SOL    HW1 2228   1.534   0.762   1.908  1.7101 -2.7155  2.4331
  743SOL    HW2 2229   1.626   0.758   2.050  2.0291 -0.2301 -0.3716
  744SOL     OW 2230   2.143   1.004   1.666  0.4182 -0.2003  0.4586
  744SOL    HW1 2231   2.159   0.969   1.571  0.4365  0.2497 -1.2856
  744SOL    HW2 2232   2.206   1.086   1.686 -2.0903 -0.6118  1.4680
  745SOL     OW 2233   1.445   1.629   1.528 -0.0709  0.0823  0.4702
  745SOL    HW1 2234   1.489   1.566   1.461 -1.5642  1.1016  0.7649
  745SOL    HW2 2235   1.445   1.585   1.620  1.6658  0.3026  2.4223
  746SOL     OW 2236   1.880   1.657   0.789  0.3192  0.5824 -0.0098
  746SOL    HW1 2237   1.797   1.710   0.803 -0.6608 -1.8380  1.7693
  746SOL    HW2 2238   1.866   1.553   0.788  2.2611  0.4902 -0.2544
  747SOL     OW 2239   2.300   1.550   0.943  0.0899 -0.1600  0.6279
  747SOL    HW1 2240   2.342   1.630   0.904 -0.0451 -2.5016  1.3128
  747SOL    HW2 2241   2.235   1.510   0.880  1.2631  0.6255 -1.2609
  748SOL     OW 2242   0.789   1.996   0.995  0.0596 -0.1850 -0.1647
  748SOL    HW1 2243   0.711   2.039   0.944  3.2378 -0.2643  0.9228
  748SOL    HW2 2244   0.795   2.034   1.089  0.0288  1.1372  0.0492
  749SOL     OW 2245   2.320   3.024   2.127  0.8226  0.3264  0.1334
  749SOL    HW1 2246   2.264   3.046   2.042 -1.3662  0.5924 -1.2648
  749SOL    HW2 2247   2.331   2.920   2.131  1.5037  0.7139  0.9935
  750SOL     OW 2248   2.347   0.490   0.864  0.8156 -0.4421  0.2951
  750SOL    HW1 2249   2.385   0.477   0.771  1.8204  0.2300  0.5763
  750SOL    HW2 2250   2.278   0.570   0.865 -2.3280  2.6425 -2.7077
  751SOL     OW 2251   2.625   2.921   0.568  0.4617  0.0102 -0.1140
  751SOL    HW1 2252   2.657   2.827   0.583 -0.2137  2.5288  0.7251
  751SOL    HW2 2253   2.618   2.936   0.469  0.6196 -0.5683 -0.7505
  752SOL     OW 2254   0.173   2.880   0.645  0.3568 -0.2274 -0.0862
  752SOL    HW1 2255   0.107   2.874   0.569  3.5123 -0.0916  0.0286
  752SOL    HW2 2256   0.223   2.964   0.627 -0.9259 -0.3907  0.6632
  753SOL     OW 2257   1.759   0.842   2.116 -0.7174  0.1068  0.3325
  753SOL    HW1 2258   1.822   0.782   2.058  1.3054 -0.3048 -1.1022
  753SOL    HW2 2259   1.778   0.859   2.214  1.6467 -2.0945 -1.2435
  754SOL     OW 2260   1.340   2.419   2.002 -0.3675  0.0419  0.0267
  754SOL    HW1 2261   1.371   2.440   1.904  0.0723 -2.3535 -1.2869
  754SOL    HW2 2262   1.347   2.321   2.023  1.9232  1.7403  1.1405
  755SOL     OW 2263   2.554   0.649   0.594  0.0899 -0.1166  0.0036
  755SOL    HW1 2264   2.586   0.632   0.689 -0.1969  0.2067  1.0423
  755SOL    HW2 2265   2.541   0.754   0.588 -1.2183  2.4599  2.4313
  756SOL     OW 2266   1.016   1.599   2.779  0.4275  0.4134 -0.1184
  756SOL    HW1 2267   1.043   1.534   2.854  0.5656 -0.6708 -2.1315
  756SOL    HW2 2268   0.966   1.679   2.812 -1.9575 -2.4309  0.4460
  757SOL     OW 2269   0.962   0.070   0.534  0.4343  0.1986  0.1538
  757SOL    HW1 2270   1.039   0.007   0.550 -0.0844  0.7699  1.2694
  757SOL    HW2 2271   0.984   0.137   0.461  0.2721 -0.7226  1.4011
  758SOL     OW 2272   1.151   0.054   1.135  0.7658 -0.6384 -0.4250
  758SOL    HW1 2273   1.138   3.082   1.062  2.8728 -1.1665  2.5848
  758SOL    HW2 2274   1.065   0.057   1.201 -4.5597  0.6346  0.7043
  759SOL     OW 2275   0.318   0.614   0.681 -0.1043  0.6575 -0.5800
  759SOL    HW1 2276   0.219   0.602   0.668 -1.3638  1.2292  1.4686
  759SOL    HW2 2277   0.347   0.567   0.770  0.2022 -0.1672  0.3655
  760SOL     OW 2278   2.405   0.966   1.174 -0.6237  0.2239  0.3010
  760SOL    HW1 2279   2.451   0.875   1.179  0.0301  2.1870  0.5739
  760SOL    HW2 2280   2.472   1.044   1.169  2.4257  0.1790 -0.6586
  761SOL     OW 2281   1.755   0.491   0.669 -0.1174 -0.0672  0.2063
  761SOL    HW1 2282   1.696   0.408   0.683 -0.9418 -0.9235  2.1428
  761SOL    HW2 2283   1.809   0.495   0.752  0.0016 -0.9690  1.2494
  762SOL     OW 2284   2.170   1.980   0.572 -0.1443  0.7879  0.0612
  762SOL    HW1 2285   2.075   1.948   0.580  1.8093  2.5516  0.2459
  762SOL    HW2 2286   2.198   2.021   0.487  1.9590 -1.5034  1.1631
  763SOL     OW 2287   1.140   1.196   1.947  0.1418  0.1120  0.0754
  763SOL    HW1 2288   1.101   1.237   2.031  2.5496  0.3458 -1.0300
  763SOL    HW2 2289   1.078   1.229   1.869  2.2348  2.5953  0.8040
  764SOL     OW 2290   2.471   2.111   2.395 -0.1133  1.0156  0.0684
  764SOL    HW1 2291   2.469   2.191   2.456 -1.7475  0.6202  1.2392
  764SOL    HW2 2292   2.534   2.122   2.315  2.0129 -3.7524  1.7696
  765SOL     OW 2293   0.893   2.464   0.956  0.2554 -0.5257  0.1378
  765SOL    HW1 2294   0.870   2.491   0.860  0.6311 -0.0832  1.0550
  765SOL    HW2 2295   0.944   2.543   1.007  3.2788  2.5474  0.5591
  766SOL     OW 2296   0.034   1.511   2.335 -0.2393  0.7631 -0.1887
  766SOL    HW1 2297   0.118   1.463   2.355 -1.4955  1.2971 -0.7110
  766SOL    HW2 2298   0.042   1.524   2.237  0.2670  2.0603 -0.6178
  767SOL     OW 2299   2.265   0.729   2.602 -0.3189  0.3691 -0.0480
  767SOL    HW1 2300   2.269   0.660   2.679  0.0820 -1.1092  1.3444
  767SOL    HW2 2301   2.351   0.712   2.547  0.9275  0.3628 -0.4222
  768SOL     OW 2302   0.847   0.066   2.599 -0.5405 -0.1141 -0.4447
  768SOL    HW1 2303   0.808   0.116   2.678  0.3528 -1.4541 -1.3428
  768SOL    HW2 2304   0.780   3.091   2.562 -0.6233 -2.3756  0.3791
  769SOL     OW 2305   0.220   2.406   0.901  0.0459 -0.0570 -0.0553
  769SOL    HW1 2306   0.234   2.436   0.807 -0.6965 -2.0880 -0.7699
  769SOL    HW2 2307   0.130   2.440   0.941 -0.8507  2.3141 -0.1959
  770SOL     OW 2308   0.727   0.251   0.109 -0.3810 -0.3267  0.5387
  770SOL    HW1 2309   0.660   0.283   0.042 -2.0672 -2.3563 -0.9586
  770SOL    HW2 2310   0.681   0.229   0.196  0.0878  0.0380 -2.7304
  771SOL     OW 2311   1.091   1.791   2.536  0.0611  0.1190  0.4273
  771SOL    HW1 2312   1.041   1.750   2.615 -0.2724  0.4203 -0.9536
  771SOL    HW2 2313   1.181   1.753   2.509  0.6273  0.3286  1.3967
  772SOL     OW 2314   2.357   0.048   2.365 -0.7302 -0.0199 -0.8259
  772SOL    HW1 2315   2.332   3.094   2.277 -0.5356 -0.9424  1.5913
  772SOL    HW2 2316   2.280   0.044   2.432  1.9029  0.3318 -1.0444
  773SOL     OW 2317   1.430   0.192   2.105  0.0913  0.3979  0.0708
  773SOL    HW1 2318   1.399   0.269   2.043  0.3224 -1.4819 -1.1192
  773SOL    HW2 2319   1.494   0.132   2.049  0.6609 -0.9234 -1.3801
  774SOL     OW 2320   1.441   0.825   1.529 -0.2368  0.1884  0.5701
  774SOL    HW1 2321   1.383   0.873   1.458 -1.8223 -0.3841  0.2680
  774SOL    HW2 2322   1.511   0.751   1.497  3.4782 -0.7052  1.7052
  775SOL     OW 2323   2.223   2.970   0.355  0.0028  0.1545  0.2209
  775SOL    HW1 2324   2.221   3.074   0.373 -1.7401  5.6663 -0.3429
  775SOL    HW2 2325   2.300   2.938   0.295  1.1018 -0.1670 -1.1417
  776SOL     OW 2326   2.089   0.977   2.096  0.2755 -0.2226  0.2148
  776SOL    HW1 2327   1.994   1.014   2.066 -1.0012  0.8596 -1.1493
  776SOL    HW2 2328   2.151   0.971   2.018 -0.5199  1.3783  0.5546
  777SOL     OW 2329   0.001   1.319   2.530  0.2986  0.5628 -0.2098
  777SOL    HW1 2330   3.042   1.237   2.539  0.2391 -0.5673 -1.8626
  777SOL    HW2 2331   3.067   1.371   2.452 -0.2531 -0.3339 -2.1377
  778SOL     OW 2332   2.402   1.106   2.517 -0.3558 -0.2460 -0.1922
  778SOL    HW1 2333   2.302   1.082   2.526 -0.6070  1.4851 -0.5896
  778SOL    HW2 2334   2.468   1.044   2.561  1.6592  0.5132 -1.7506
  779SOL     OW 2335   2.851   0.395   2.637  0.0103 -0.2807  0.4018
  779SOL    HW1 2336   2.889   0.399   2.540  0.1159  0.1105  0.9815
  779SOL    HW2 2337   2.883   0.313   2.686 -0.6410  1.3418 -1.1755
  780SOL     OW 2338   2.291   2.621   2.357  0.9017 -0.2511  0.5061
  780SOL    HW1 2339   2.228   2.538   2.355 -0.6198 -2.1710 -0.0858
  780SOL    HW2 2340   2.304   2.673   2.269  1.8678  1.1928 -0.3404
  781SOL     OW 2341   3.041   1.061   1.850 -0.0983 -0.5238  0.5080
  781SOL    HW1 2342   3.012   1.022   1.943 -1.4995  0.5760  3.2086
  781SOL    HW2 2343   2.991   1.011   1.774  1.9702 -1.1881 -1.9629
  782SOL     OW 2344   1.899   2.284   3.016  0.4802 -0.7948 -0.6799
  782SOL    HW1 2345   1.837   2.301   2.934  0.2990 -1.8627  0.2342
  782SOL    HW2 2346   1.988   2.249   2.989 -0.9913 -1.7034 -0.0514
  783SOL     OW 2347   0.764   2.339   1.151 -0.0102 -0.2582 -0.1405
  783SOL    HW1 2348   0.694   2.410   1.170 -0.0779  0.9101  0.5900
  783SOL    HW2 2349   0.807   2.363   1.062 -2.6254 -0.9137 -1.5809
  784SOL     OW 2350   2.319   0.766   2.207  0.0858 -0.3691 -0.8088
  784SOL    HW1 2351   2.307   0.728   2.113  0.0126 -0.0418  0.4063
  784SOL    HW2 2352   2.387   0.843   2.214 -0.5698 -0.6500  0.8379
  785SOL     OW 2353   0.121   0.031   1.188  0.5543 -0.5019  1.0485
  785SOL    HW1 2354   0.120   0.133   1.211  2.7588  0.6224  2.1502
  785SOL    HW2 2355   0.085   3.063   1.257  1.3901 -0.5481 -1.0273
  786SOL     OW 2356   1.094   2.556   0.435  0.8213  0.0741 -0.2593
  786SOL    HW1 2357   1.083   2.644   0.480  0.7071 -1.9936  0.7924
  786SOL    HW2 2358   1.001   2.527   0.398 -1.6734 -0.4965  0.0938
  787SOL     OW 2359   1.334   0.236   0.810  0.1151  0.6716  0.0112
  787SOL    HW1 2360   1.329   0.285   0.722 -0.7759 -0.7767  0.3618
  787SOL    HW2 2361   1.353   0.137   0.795 -0.7371 -1.3117  0.3659
  788SOL     OW 2362   3.000   1.348   1.150 -0.4572  0.0860 -0.5302
  788SOL    HW1 2363   3.064   1.404   1.099 -0.4757  3.8847 -1.4391
  788SOL    HW2 2364   3.037   1.302   1.233  2.5933  0.0790 -1.4697
  789SOL     OW 2365   2.789   0.790   2.251 -0.0934  0.0391 -0.1101
  789SOL    HW1 2366   2.698   0.821   2.282 -0.0038 -0.0918 -1.0034
  789SOL    HW2 2367   2.826   0.726   2.315 -1.6125  1.0067  0.6132
  790SOL     OW 2368   1.117   0.726   2.738  0.5107  0.0469  0.0321
  790SOL    HW1 2369   1.202   0.743   2.681 -0.3671 -1.1598 -1.3073
  790SOL    HW2 2370   1.071   0.811   2.777  0.2681  1.9154  0.6660
  791SOL     OW 2371   0.121   2.675   0.278 -0.3373 -0.6048 -0.0798
  791SOL    HW1 2372   0.161   2.638   0.192 -2.5295  0.7465  1.4979
  791SOL    HW2 2373   0.066   2.600   0.322  4.6244  1.4086 -0.1810
  792SOL     OW 2374   1.245   0.703   1.926  0.2489 -0.1870  0.1710
  792SOL    HW1 2375   1.341   0.726   1.949 -1.3699  0.0063 -2.4993
  792SOL    HW2 2376   1.235   0.655   1.834 -3.7004  0.4160 -2.1665
  793SOL     OW 2377   3.008   0.421   1.296  0.0318  1.2667 -0.3973
  793SOL    HW1 2378   2.930   0.453   1.349 -0.0203 -1.2150 -0.8464
  793SOL    HW2 2379   2.971   0.397   1.204 -0.0761  0.7328  1.0041
  794SOL     OW 2380   2.954   0.215   2.232 -0.0534  0.3058 -0.1583
  794SOL    HW1 2381   2.936   0.115   2.250  0.2602  0.1307 -1.9903
  794SOL    HW2 2382   3.055   0.242   2.237 -0.8393  1.1115  0.4861
  795SOL     OW 2383   0.435   1.767   0.063 -0.2610 -0.0032  0.5419
  795SOL    HW1 2384   0.398   1.724   0.148  2.0838 -1.0366  0.1144
  795SOL    HW2 2385   0.532   1.794   0.077  0.5112 -1.0017 -0.9253
  796SOL     OW 2386   2.920   0.830   0.047 -0.4179  0.0020 -0.0661
  796SOL    HW1 2387   2.860   0.894   3.088  0.4956  0.8603  0.0066
  796SOL    HW2 2388   2.857   0.776   0.104 -1.6532  0.0748  0.5728
  797SOL     OW 2389   2.484   2.323   2.613 -0.1719 -0.0835 -0.0738
  797SOL    HW1 2390   2.385   2.307   2.610  0.5923  0.6370  1.0384
  797SOL    HW2 2391   2.513   2.410   2.576 -0.2215 -1.9451  1.0856
  798SOL     OW 2392   2.926   0.060   1.104  0.0797 -0.5958 -0.3832
  798SOL    HW1 2393   3.018   0.016   1.118  1.3443  0.8607  0.4279
  798SOL    HW2 2394   2.931   0.162   1.089 -0.3999 -0.1176 -0.6507
  799SOL     OW 2395   3.042   0.419   1.617 -0.2441  0.4737  0.1191
  799SOL    HW1 2396   0.007   0.393   1.540 -1.4768  1.9763 -1.0917
  799SOL    HW2 2397   2.987   0.498   1.588 -0.9750  1.7497  1.0606
  800SOL     OW 2398   0.313   1.675   0.303 -0.3560  0.7671  0.3713
  800SOL    HW1 2399   0.214   1.676   0.331 -2.1654 -0.0870  1.5680
  800SOL    HW2 2400   0.366   1.601   0.351 -0.7431 -3.8527  0.2118
  801SOL     OW 2401   1.573   1.933   0.610  0.6099 -0.0954  1.1788
  801SOL    HW1 2402   1.474   1.958   0.611  0.8760 -0.0706  1.0281
  801SOL    HW2 2403   1.603   1.897   0.699  2.1478  2.3267 -0.6083
  802SOL     OW 2404   1.384   0.987   2.922  0.8078  0.4795  0.0978
  802SOL    HW1 2405   1.387   0.981   2.820  1.3677  0.4534 -0.7661
  802SOL    HW2 2406   1.382   0.899   2.967 -1.4559  1.0608 -0.2455
  803SOL     OW 2407   1.178   1.831   1.816 -0.3338  0.0818  0.1395
  803SOL    HW1 2408   1.141   1.915   1.859  0.0767 -2.1014 -3.2475
  803SOL    HW2 2409   1.172   1.760   1.888  1.0211  1.7868 -0.2530
  804SOL     OW 2410   1.564   2.538   0.915  0.4102  0.1864 -0.7238
  804SOL    HW1 2411   1.632   2.470   0.886  0.0701  2.7532 -0.4069
  804SOL    HW2 2412   1.501   2.499   0.985 -0.0045 -2.6406  0.9411
  805SOL     OW 2413   0.035   2.473   2.097  0.3531  0.3303  0.2602
  805SOL    HW1 2414   3.084   2.425   2.017  0.4865 -1.8094 -1.6167
  805SOL    HW2 2415   0.134   2.463   2.090  1.4914 -2.7426  1.1360
  806SOL     OW 2416   0.323   3.069   0.521  0.2549 -0.5621  0.1318
  806SOL    HW1 2417   0.297   0.069   0.524  0.2572 -2.6580 -1.2877
  806SOL    HW2 2418   0.288   3.024   0.435  1.3521  1.6680  2.2170
  807SOL     OW 2419   2.702   0.889   2.929  0.6447 -0.2283  0.3303
  807SOL    HW1 2420   2.633   0.852   2.996 -0.3455  2.1617  0.2800
  807SOL    HW2 2421   2.725   0.810   2.870  1.5264  0.4101 -0.0532
  808SOL     OW 2422   1.309   2.574   0.809  0.1501  0.5508 -0.0987
  808SOL    HW1 2423   1.291   2.587   0.904  0.9047 -2.2339 -1.5718
  808SOL    HW2 2424   1.409   2.549   0.791  1.1630 -1.9428  0.6832
  809SOL     OW 2425   2.950   0.147   0.377  0.3881  0.3659 -0.0293
  809SOL    HW1 2426   2.904   0.078   0.314 -1.0150 -0.9507 -2.9566
  809SOL    HW2 2427   3.042   0.168   0.340 -1.5158 -1.1353  0.1945
  810SOL     OW 2428   1.268   1.295   0.946 -0.1454  0.2672  0.1213
  810SOL    HW1 2429   1.204   1.232   0.989  0.6287 -1.1574 -1.6692
  810SOL    HW2 2430   1.357   1.249   0.943 -0.3812 -0.3740  2.0186
  811SOL     OW 2431   1.463   2.903   1.353  0.1619 -0.0967 -0.2426
  811SOL    HW1 2432   1.442   2.955   1.441 -1.6103 -0.1545 -0.0823
  811SOL    HW2 2433   1.382   2.884   1.296 -1.5511  0.4133  1.2797
  812SOL     OW 2434   1.320   0.240   0.210  0.0400 -0.0787  0.0599
  812SOL    HW1 2435   1.383   0.231   0.293  0.7248 -0.7957 -3.8452
  812SOL    HW2 2436   1.226   0.213   0.236  1.0935 -1.3485 -1.2135
  813SOL     OW 2437   1.122   3.043   1.929 -0.1573  0.3518  0.0915
  813SOL    HW1 2438   1.147   0.023   1.997 -0.4122 -0.6506  4.0432
  813SOL    HW2 2439   1.136   2.953   1.971  1.2587 -0.3500 -0.0503
  814SOL     OW 2440   0.462   2.906   0.889  0.0327 -0.2101  0.1044
  814SOL    HW1 2441   0.522   2.907   0.975  0.7302 -1.9420 -1.1974
  814SOL    HW2 2442   0.393   2.978   0.906  1.5295  0.9938  1.4240
  815SOL     OW 2443   0.286   2.538   0.639  0.0281 -0.5552 -0.2839
  815SOL    HW1 2444   0.195   2.587   0.630 -0.2925 -0.3606 -0.8753
  815SOL    HW2 2445   0.304   2.470   0.563 -4.1371 -0.9408 -2.0606
  816SOL     OW 2446   2.631   1.467   2.546  0.7011  0.1763  0.5675
  816SOL    HW1 2447   2.587   1.398   2.612 -2.5068 -0.8290  0.0723
  816SOL    HW2 2448   2.549   1.527   2.514 -3.6016 -0.3510 -1.7467
  817SOL     OW 2449   1.651   2.648   2.865  0.3903  0.1030  0.0563
  817SOL    HW1 2450   1.669   2.550   2.863  0.3356 -0.8743  1.9437
  817SOL    HW2 2451   1.723   2.701   2.814 -1.1192 -1.7031 -2.0193
  818SOL     OW 2452   1.467   1.118   0.363 -0.4020 -0.0406 -0.1626
  818SOL    HW1 2453   1.459   1.177   0.275 -0.5705  0.5195 -3.0785
  818SOL    HW2 2454   1.384   1.066   0.385  0.4616 -0.6822  0.1528
  819SOL     OW 2455   1.849   1.804   2.899  0.1427  0.8383 -0.2932
  819SOL    HW1 2456   1.791   1.800   2.980  4.3872  0.5555 -4.8163
  819SOL    HW2 2457   1.936   1.751   2.912  2.0449  1.1351  0.7422
  820SOL     OW 2458   0.688   0.757   0.129  0.0147 -0.2337  0.1712
  820SOL    HW1 2459   0.714   0.793   0.034  0.4213 -0.5845  0.7154
  820SOL    HW2 2460   0.716   0.659   0.132 -0.5436 -1.4135 -1.0892
  821SOL     OW 2461   0.521   0.155   0.984  0.1070 -0.1583  0.0602
  821SOL    HW1 2462   0.540   0.190   0.888  0.0774  0.2614  0.5811
  821SOL    HW2 2463   0.552   0.232   1.049 -1.5310 -1.2233 -0.5751
  822SOL     OW 2464   1.578   2.583   2.459 -0.3736  0.2446 -0.1367
  822SOL    HW1 2465   1.616   2.502   2.510  2.1716 -0.7624  0.9606
  822SOL    HW2 2466   1.524   2.560   2.374 -1.3305  0.6936 -1.3203
  823SOL     OW 2467   0.909   0.856   2.176  0.0297  0.3162 -0.8681
  823SOL    HW1 2468   0.986   0.824   2.116  1.6455 -1.7352 -0.0964
  823SOL    HW2 2469   0.916   0.828   2.270 -2.5270  2.2373 -3.7195
  824SOL     OW 2470   2.385   0.176   1.559 -0.2205 -0.1091  0.0563
  824SOL    HW1 2471   2.310   0.113   1.545  3.2237  0.0192  1.5900
  824SOL    HW2 2472   2.437   0.156   1.648 -1.0293  0.1819 -0.1470
  825SOL     OW 2473   0.625   1.380   0.056  0.0649  0.3293  0.6876
  825SOL    HW1 2474   0.707   1.319   0.082  3.8378 -3.0304  0.4236
  825SOL    HW2 2475   0.651   1.431   3.067 -0.7521  0.9507  1.3456
  826SOL     OW 2476   2.013   0.483   2.522  0.5686 -0.3092  0.2740
  826SOL    HW1 2477   2.057   0.419   2.455 -1.4556 -1.2571 -1.6142
  826SOL    HW2 2478   1.913   0.498   2.495 -0.8716  1.5779 -1.0678
  827SOL     OW 2479   0.692   2.299   2.538 -0.0303 -0.2694  0.1260
  827SOL    HW1 2480   0.675   2.329   2.445 -1.4656 -0.8991  0.3297
  827SOL    HW2 2481   0.626   2.347   2.597  1.3040 -2.2130  0.4143
  828SOL     OW 2482   2.794   0.066   1.365  0.7061 -0.0506 -0.1737
  828SOL    HW1 2483   2.824   0.043   1.271 -0.1223 -1.0332 -0.8764
  828SOL    HW2 2484   2.818   0.162   1.388  0.2672 -0.4761  0.2255
  829SOL     OW 2485   1.182   1.553   1.497 -0.6657 -0.4039 -0.1102
  829SOL    HW1 2486   1.283   1.547   1.515 -2.0849 -0.9704  0.2267
  829SOL    HW2 2487   1.131   1.564   1.583  1.1738  0.5743 -1.8629
  830SOL     OW 2488   0.581   1.045   1.813 -0.9951  0.1680  0.4201
  830SOL    HW1 2489   0.617   1.039   1.714  0.6271  0.4304  0.6712
  830SOL    HW2 2490   0.481   1.034   1.819 -0.7523  0.4354 -2.9557
  831SOL     OW 2491   0.007   1.759   0.120 -0.2508  0.0902 -0.1530
  831SOL    HW1 2492   3.008   1.776   0.086  0.6861  0.9423  1.5127
  831SOL    HW2 2493   0.060   1.848   0.124 -0.3129  1.8797  1.0287
  832SOL     OW 2494   0.945   2.887   2.935  0.1933  0.1518  0.1720
  832SOL    HW1 2495   1.012   2.949   2.890  0.9495 -0.0575  0.8651
  832SOL    HW2 2496   0.992   2.847   3.016  2.5332 -0.5032 -0.9927
  833SOL     OW 2497   2.833   0.338   2.007  0.5444  0.1617 -0.7705
  833SOL    HW1 2498   2.843   0.269   2.082 -0.7723 -1.6990 -0.2751
  833SOL    HW2 2499   2.897   0.416   2.026 -1.1216 -0.3904  0.5424
  834SOL     OW 2500   0.199   0.862   1.122  0.1182 -0.0869 -0.1373
  834SOL    HW1 2501   0.179   0.957   1.089 -2.5042 -2.9214  1.9898
  834SOL    HW2 2502   0.158   0.798   1.059  0.7762 -0.0441  3.3097
  835SOL     OW 2503   2.546   2.851   1.001  0.0976  0.0451 -0.3439
  835SOL    HW1 2504   2.489   2.844   0.915 -2.9986 -0.9786 -1.0410
  835SOL    HW2 2505   2.626   2.914   0.995 -4.6827 -1.8295  1.1417
  836SOL     OW 2506   0.760   1.952   2.789 -0.0409 -0.2697 -0.1363
  836SOL    HW1 2507   0.717   1.988   2.707 -0.1684  0.4364  1.7039
  836SOL    HW2 2508   0.851   1.999   2.805 -0.8224  0.9005 -1.0133
  837SOL     OW 2509   1.964   2.033   2.758  0.5113  0.2091 -0.1474
  837SOL    HW1 2510   1.921   1.982   2.833 -1.5918  0.3050 -0.1765
  837SOL    HW2 2511   2.041   1.978   2.718 -0.5929 -2.0948 -2.5394
  838SOL     OW 2512   3.046   1.029   2.153 -0.4206 -0.2484 -0.2440
  838SOL    HW1 2513   2.983   1.036   2.236 -2.5601 -1.1527  2.3483
  838SOL    HW2 2514   0.043   1.069   2.171 -0.1761  0.7106 -0.8814
  839SOL     OW 2515   1.029   0.904   2.900 -0.0566 -0.6408  0.1691
  839SOL    HW1 2516   0.995   1.005   2.895 -1.9081 -1.0323  0.2096
  839SOL    HW2 2517   1.106   0.892   2.969  2.0562  1.3948  1.0971
  840SOL     OW 2518   1.597   0.655   0.337 -0.4744 -0.5214 -0.0335
  840SOL    HW1 2519   1.630   0.745   0.371 -0.7647  1.4925  0.4303
  840SOL    HW2 2520   1.502   0.637   0.368  0.8403 -1.3343 -0.0717
  841SOL     OW 2521   0.850   2.723   0.745  0.1423  0.1507 -0.1899
  841SOL    HW1 2522   0.759   2.672   0.743 -1.6161 -1.2166 -0.5822
  841SOL    HW2 2523   0.853   2.789   0.669  0.1284 -0.9297  0.6418
  842SOL     OW 2524   0.298   0.513   0.375  0.1179 -0.4016  0.3033
  842SOL    HW1 2525   0.199   0.547   0.362 -4.2896  0.1117  1.6795
  842SOL    HW2 2526   0.354   0.596   0.393 -0.0435 -0.5333  0.1285
  843SOL     OW 2527   0.711   0.710   1.512  0.1927 -0.2579 -0.2920
  843SOL    HW1 2528   0.746   0.758   1.597  0.5531  0.3068 -0.6185
  843SOL    HW2 2529   0.631   0.653   1.541 -4.1404  2.4414  1.6037
  844SOL     OW 2530   2.138   2.435   2.831  0.6435  0.4622  0.6969
  844SOL    HW1 2531   2.133   2.515   2.885  0.3179 -4.2853  1.4923
  844SOL    HW2 2532   2.174   2.361   2.887 -0.3843  0.0423 -0.3239
  845SOL     OW 2533   2.535   0.112   1.763  0.0294 -1.0505 -0.2702
  845SOL    HW1 2534   2.510   0.132   1.861  1.6356  1.5097 -1.1008
  845SOL    HW2 2535   2.567   0.016   1.759 -0.4201  0.6902 -1.0896
  846SOL     OW 2536   2.173   1.908   2.623  0.2204  0.5189 -0.1676
  846SOL    HW1 2537   2.203   1.814   2.654 -0.2946  0.3724  1.6563
  846SOL    HW2 2538   2.171   1.911   2.521  0.7689 -1.8155 -0.0957
  847SOL     OW 2539   1.962   2.866   1.951 -0.0881 -0.1871 -0.0897
  847SOL    HW1 2540   1.897   2.842   2.027  2.3976  1.4314  2.0826
  847SOL    HW2 2541   2.004   2.782   1.916  0.0853 -0.4391 -1.7204
  848SOL     OW 2542   0.279   2.899   0.306  0.0762  0.1955 -0.2435
  848SOL    HW1 2543   0.369   2.846   0.288 -0.5210  0.0254 -0.8850
  848SOL    HW2 2544   0.200   2.832   0.297  0.0322 -0.8590 -0.8264
  849SOL     OW 2545   0.412   2.945   1.376 -0.1579  0.4076 -0.6349
  849SOL    HW1 2546   0.410   3.035   1.332 -0.8066 -2.8731  1.7214
  849SOL    HW2 2547   0.469   2.945   1.462  1.0049  0.0100  0.6290
  850SOL     OW 2548   0.014   1.557   0.984  0.1744 -0.1581  0.5442
  850SOL    HW1 2549   3.033   1.621   0.979 -1.7524  0.8343  0.3549
  850SOL    HW2 2550   0.100   1.596   1.020 -0.4995 -0.4515 -2.5356
  851SOL     OW 2551   3.015   0.646   2.933  0.6320  0.2307 -0.1644
  851SOL    HW1 2552   3.065   0.698   2.862 -2.5149  0.6024  0.4277
  851SOL    HW2 2553   2.976   0.710   3.009 -2.1495  1.0906  0.2463
  852SOL     OW 2554   1.982   2.090   2.426 -0.0874  0.1841 -0.6118
  852SOL    HW1 2555   1.911   2.045   2.487 -1.7613 -1.0070 -0.9359
  852SOL    HW2 2556   1.998   2.035   2.346  0.7143  1.7314 -0.7175
  853SOL     OW 2557   0.767   1.635   0.478 -0.0227 -0.2403 -0.0899
  853SOL    HW1 2558   0.703   1.570   0.520  0.5091  3.7009 -0.2269
  853SOL    HW2 2559   0.756   1.633   0.380  3.1469 -1.3788  3.6208
  854SOL     OW 2560   1.658   1.326   1.762 -0.5593 -0.0897  0.7513
  854SOL    HW1 2561   1.561   1.306   1.746  0.0198 -2.4601 -2.3680
  854SOL    HW2 2562   1.704   1.235   1.766 -1.6820 -1.1238 -0.2796
  855SOL     OW 2563   0.298   1.921   2.753 -0.0871  0.0362 -0.8704
  855SOL    HW1 2564   0.343   1.851   2.811 -0.6406  0.0739  0.8523
  855SOL    HW2 2565   0.329   2.011   2.780 -1.0366  0.1271 -1.7384
  856SOL     OW 2566   0.288   3.075   1.671 -0.2721  0.1702 -0.1586
  856SOL    HW1 2567   0.255   2.980   1.677 -1.3134  2.1175 -2.1382
  856SOL    HW2 2568   0.255   0.038   1.746  0.1141 -0.7659 -1.7522
  857SOL     OW 2569   0.655   0.261   1.665 -0.6002  0.0810  0.7943
  857SOL    HW1 2570   0.647   0.297   1.759  0.3963  1.7846 -2.1298
  857SOL    HW2 2571   0.692   0.326   1.599 -1.3754 -0.2616 -0.8114
  858SOL     OW 2572   0.067   1.991   2.346  0.2596 -0.4314 -0.3125
  858SOL    HW1 2573   3.087   1.927   2.366  2.1984  1.8090 -1.6232
  858SOL    HW2 2574   0.034   2.087   2.336  0.6544  1.3310 -1.8846
  859SOL     OW 2575   2.044   2.431   0.796  0.0231  0.2554 -0.5840
  859SOL    HW1 2576   2.088   2.383   0.879  0.0794 -0.8642  1.7428
  859SOL    HW2 2577   1.969   2.498   0.834  1.4183  0.7764 -1.3477
  860SOL     OW 2578   1.845   0.614   0.441  0.3458 -0.3154  0.3102
  860SOL    HW1 2579   1.825   0.587   0.542  1.7530 -1.8919 -1.7655
  860SOL    HW2 2580   1.755   0.613   0.394  2.4489  0.7124  0.0052
  861SOL     OW 2581   0.374   0.447   0.931  0.0917 -0.0743  0.1491
  861SOL    HW1 2582   0.463   0.479   0.970 -0.1242 -0.8539  1.1930
  861SOL    HW2 2583   0.300   0.457   0.996 -0.0823  0.6758  0.6984
  862SOL     OW 2584   2.287   0.741   1.736  0.3270  0.0235 -0.3298
  862SOL    HW1 2585   2.336   0.662   1.700 -2.0332  0.9422  1.8347
  862SOL    HW2 2586   2.220   0.788   1.681  0.9657  0.2671  0.0056
  863SOL     OW 2587   0.248   1.280   1.237 -0.5158  0.2900 -0.4185
  863SOL    HW1 2588   0.284   1.258   1.144  3.8155  1.5809  0.1307
  863SOL    HW2 2589   0.272   1.378   1.262  0.1463  4.8122  1.3717
  864SOL     OW 2590   2.521   0.099   2.030  0.8227  0.0455  0.4265
  864SOL    HW1 2591   2.537   0.173   2.093 -2.6316 -1.0277 -0.0509
  864SOL    HW2 2592   2.463   0.030   2.078 -0.4641 -2.4824  0.9053
  865SOL     OW 2593   1.682   0.404   2.195 -0.4682 -0.0475  0.3580
  865SOL    HW1 2594   1.633   0.403   2.100 -1.1922 -1.0125 -1.3042
  865SOL    HW2 2595   1.780   0.435   2.188  2.3586 -1.1186 -1.5738
  866SOL     OW 2596   2.410   2.908   0.743 -0.3257 -0.1583 -0.3881
  866SOL    HW1 2597   2.375   2.827   0.694  1.5145  1.6298  1.4632
  866SOL    HW2 2598   2.501   2.926   0.702 -1.0925 -1.6302 -2.5454
  867SOL     OW 2599   2.552   2.539   0.822  0.2918 -0.0608  0.0776
  867SOL    HW1 2600   2.563   2.581   0.915  4.2143 -1.3324 -0.3633
  867SOL    HW2 2601   2.457   2.555   0.798 -0.5804  1.2884 -1.1941
  868SOL     OW 2602   1.544   1.654   2.814  0.4835  0.3445 -0.7615
  868SOL    HW1 2603   1.453   1.696   2.833 -0.8115 -0.4657  0.0035
  868SOL    HW2 2604   1.593   1.636   2.900 -1.1987  2.0209 -1.0887
  869SOL     OW 2605   2.402   1.861   0.588  0.6674  0.0982  0.3081
  869SOL    HW1 2606   2.426   1.809   0.505  2.0967  2.7431  3.0868
  869SOL    HW2 2607   2.307   1.897   0.580  2.3170 -2.6511 -0.4685
  870SOL     OW 2608   2.794   1.981   0.356  0.2898 -1.0128  0.1281
  870SOL    HW1 2609   2.769   1.888   0.327  1.0339  1.6853 -0.0525
  870SOL    HW2 2610   2.769   2.050   0.288 -0.4479 -0.3381 -0.5209
  871SOL     OW 2611   0.371   1.019   1.587 -0.2047 -0.4942  0.3354
  871SOL    HW1 2612   0.408   1.105   1.542  1.9449  0.0065 -0.5975
  871SOL    HW2 2613   0.337   0.962   1.511  2.1312  1.2284 -0.9552
  872SOL     OW 2614   0.312   1.630   2.218  0.1299  0.4554  0.6321
  872SOL    HW1 2615   0.243   1.569   2.172 -0.4862 -0.7089 -0.1516
  872SOL    HW2 2616   0.393   1.623   2.160 -2.1620  0.5694  0.2923
  873SOL     OW 2617   0.027   2.636   1.492 -0.2698 -0.3463  0.1433
  873SOL    HW1 2618   3.093   2.645   1.397  0.1938  1.4889  1.2207
  873SOL    HW2 2619   0.121   2.599   1.498 -2.3893  1.3810 -0.3120
  874SOL     OW 2620   0.924   0.595   1.901 -0.1932 -0.1046 -0.0230
  874SOL    HW1 2621   0.997   0.659   1.927 -0.8133 -0.8652  0.7996
  874SOL    HW2 2622   0.938   0.506   1.947  0.2249  0.2230 -2.1618
  875SOL     OW 2623   2.736   3.033   0.956  0.0981  0.4095  0.0629
  875SOL    HW1 2624   2.798   3.063   1.031  1.0967 -0.5247  1.0200
  875SOL    HW2 2625   2.762   3.075   0.865 -0.3210 -0.9705 -0.2167
  876SOL     OW 2626   1.147   1.352   0.383 -0.0433 -0.4037  0.1530
  876SOL    HW1 2627   1.109   1.447   0.379 -2.3849  2.5666 -0.0554
  876SOL    HW2 2628   1.205   1.346   0.466  0.7148  0.1306 -0.6662
  877SOL     OW 2629   1.155   0.749   1.270  0.6437  0.4562 -0.6655
  877SOL    HW1 2630   1.115   0.654   1.263  0.0092  1.2980  0.1582
  877SOL    HW2 2631   1.253   0.740   1.252 -2.6875  0.2820 -0.2621
  878SOL     OW 2632   2.235   2.188   0.229  0.0970  0.1289 -0.1392
  878SOL    HW1 2633   2.183   2.277   0.253 -0.3216 -0.1651 -0.3310
  878SOL    HW2 2634   2.300   2.200   0.154  0.6016 -1.6920  1.8670
  879SOL     OW 2635   2.607   2.012   1.734 -0.3503 -0.3404 -0.5824
  879SOL    HW1 2636   2.685   1.961   1.772 -1.2834  3.2134 -2.2894
  879SOL    HW2 2637   2.636   2.112   1.719 -0.2842  0.1543  0.0955
  880SOL     OW 2638   0.997   2.268   1.261  0.0736 -0.4897 -0.0603
  880SOL    HW1 2639   1.014   2.351   1.315  1.1209  0.4359 -2.7168
  880SOL    HW2 2640   0.898   2.261   1.230 -0.8718 -1.1456 -0.4895
  881SOL     OW 2641   0.933   1.995   0.519 -0.4137  0.1753 -0.1149
  881SOL    HW1 2642   0.923   2.031   0.614 -0.4468 -1.6925 -1.7420
  881SOL    HW2 2643   0.842   1.966   0.493  2.8884 -0.5645  1.7631
  882SOL     OW 2644   1.931   1.456   3.094 -0.7411 -0.4108  0.1943
  882SOL    HW1 2645   1.989   1.444   3.014 -1.6555  2.1285  2.4075
  882SOL    HW2 2646   1.990   1.500   0.070  0.8671  0.6407 -0.2988
  883SOL     OW 2647   1.691   0.730   1.423  0.2405  0.0512  0.2317
  883SOL    HW1 2648   1.709   0.808   1.358  0.8957 -2.6642  2.0183
  883SOL    HW2 2649   1.760   0.734   1.502 -0.6741 -1.4691 -0.7009
  884SOL     OW 2650   2.955   2.581   0.718 -0.1382  0.2487 -0.3621
  884SOL    HW1 2651   2.857   2.611   0.700  1.1447 -0.2597  0.6328
  884SOL    HW2 2652   3.005   2.659   0.765  0.0300  1.8801 -1.1900
  885SOL     OW 2653   1.091   1.351   2.179 -0.7391  0.1492 -0.1498
  885SOL    HW1 2654   1.012   1.286   2.201 -0.6510  2.0886 -0.1768
  885SOL    HW2 2655   1.116   1.395   2.269  0.3216  0.0015 -1.1875
  886SOL     OW 2656   0.873   1.459   2.575  0.2745 -0.0896  0.3331
  886SOL    HW1 2657   0.932   1.505   2.645  2.5420  0.2836  0.6247
  886SOL    HW2 2658   0.924   1.402   2.521 -3.1201  0.7022  4.7687
  887SOL     OW 2659   1.557   0.717   0.972 -0.1149  0.2118  0.2709
  887SOL    HW1 2660   1.607   0.781   1.033  3.1117  1.5033 -0.8964
  887SOL    HW2 2661   1.462   0.752   0.962  3.9515 -1.1939  2.5612
  888SOL     OW 2662   2.096   0.711   2.379  0.5178 -0.0086 -0.2622
  888SOL    HW1 2663   2.131   0.637   2.440 -0.7595  1.0350  0.3255
  888SOL    HW2 2664   2.171   0.732   2.316 -1.2400 -1.9688  1.0073
  889SOL     OW 2665   2.737   1.938   0.763  0.1026 -0.2973  0.2457
  889SOL    HW1 2666   2.653   1.976   0.711 -2.9629  1.2009  2.1722
  889SOL    HW2 2667   2.811   2.003   0.768 -1.4622 -1.1562 -0.7828
  890SOL     OW 2668   1.057   2.213   0.153 -0.1620 -0.4879 -0.0875
  890SOL    HW1 2669   1.152   2.249   0.177  4.8509  0.9978  0.9914
  890SOL    HW2 2670   1.032   2.118   0.187  1.1064 -3.6866  0.7334
  891SOL     OW 2671   2.749   0.627   2.839 -0.0962  0.8400  0.3653
  891SOL    HW1 2672   2.847   0.619   2.870  1.8385  0.3190  0.9271
  891SOL    HW2 2673   2.735   0.578   2.755  0.7678  0.3371  2.1543
  892SOL     OW 2674   3.012   2.103   1.076  0.3919  0.2373 -0.0295
  892SOL    HW1 2675   0.012   2.129   1.073 -1.3008 -3.3000 -0.6941
  892SOL    HW2 2676   2.968   2.148   1.155  3.1281 -0.7190  1.5927
  893SOL     OW 2677   1.439   0.320   1.067 -0.1455 -0.4730  0.2715
  893SOL    HW1 2678   1.398   0.296   0.975  0.3823 -0.0248 -0.1416
  893SOL    HW2 2679   1.536   0.359   1.060 -0.2854  1.2984  1.1679
  894SOL     OW 2680   2.871   0.342   1.065 -0.0853  0.3976 -0.1331
  894SOL    HW1 2681   2.935   0.312   0.991  0.0347 -3.0069  0.2446
  894SOL    HW2 2682   2.776   0.331   1.031 -0.0273 -2.2562  1.7339
  895SOL     OW 2683   1.704   1.679   2.578  0.5196  0.2922 -0.1034
  895SOL    HW1 2684   1.781   1.627   2.614 -1.2112 -2.6162  2.1140
  895SOL    HW2 2685   1.644   1.691   2.657  2.6033  1.1651 -0.1330
  896SOL     OW 2686   1.938   0.858   1.760 -0.0947 -0.2157 -0.3761
  896SOL    HW1 2687   2.010   0.924   1.727  0.4920 -2.4644  0.7824
  896SOL    HW2 2688   1.929   0.781   1.695  2.3925 -0.1383 -0.2430
  897SOL     OW 2689   0.004   1.158   1.340 -0.2118 -0.3644  0.2084
  897SOL    HW1 2690   0.097   1.185   1.319 -1.4885 -0.5975 -0.5702
  897SOL    HW2 2691   0.001   1.056   1.322  0.4274  1.3053 -2.1911
  898SOL     OW 2692   1.965   2.533   2.082 -0.2567 -0.4976 -0.1191
  898SOL    HW1 2693   1.889   2.464   2.058 -1.7919 -1.4790 -0.5426
  898SOL    HW2 2694   1.998   2.513   2.174 -0.6365  3.2477 -1.3114
  899SOL     OW 2695   1.008   1.582   1.047 -0.0208 -0.0612 -0.0624
  899SOL    HW1 2696   1.070   1.638   1.102  1.8030 -2.5968 -0.5634
  899SOL    HW2 2697   0.960   1.640   0.980  0.0193  0.6894  0.8662
  900SOL     OW 2698   0.957   2.799   2.367 -0.3977 -0.2304 -0.3613
  900SOL    HW1 2699   0.986   2.842   2.455  1.7380  1.0134 -1.1251
  900SOL    HW2 2700   0.917   2.867   2.303  2.1735 -1.8128  2.6447
  901SOL     OW 2701   0.713   1.534   2.351  0.0208 -0.2409  0.3291
  901SOL    HW1 2702   0.691   1.629   2.379  1.0910 -0.0578  0.7039
  901SOL    HW2 2703   0.769   1.499   2.432  1.9629  0.1507  0.3908
  902SOL     OW 2704   2.359   0.983   2.955 -0.3302  0.1162 -0.0573
  902SOL    HW1 2705   2.275   1.008   3.005  2.7750 -2.8825 -2.1000
  902SOL    HW2 2706   2.396   1.056   2.900 -2.0250  0.9524 -1.4988
  903SOL     OW 2707   2.042   1.389   2.865  0.0232  0.0994 -0.3787
  903SOL    HW1 2708   2.098   1.352   2.790 -2.3686 -1.9704  0.4775
  903SOL    HW2 2709   1.944   1.358   2.851  0.4654 -1.3723  0.4420
  904SOL     OW 2710   1.422   0.933   2.169  0.2091 -0.5922  0.3050
  904SOL    HW1 2711   1.475   0.867   2.113  0.5403 -0.1582  0.4731
  904SOL    HW2 2712   1.349   0.887   2.223  2.0402 -1.4162 -0.9461
  905SOL     OW 2713   2.548   0.358   0.974 -0.0344 -0.6568 -0.0767
  905SOL    HW1 2714   2.547   0.258   0.961 -1.6311  0.2632 -1.8122
  905SOL    HW2 2715   2.459   0.396   0.938 -0.0979 -1.0679 -0.9296
  906SOL     OW 2716   0.394   1.574   0.583  0.0442 -0.8608  0.4579
  906SOL    HW1 2717   0.467   1.503   0.574 -0.8653 -2.8365 -0.6636
  906SOL    HW2 2718   0.304   1.538   0.552  2.1442  0.1477  1.7565
  907SOL     OW 2719   1.283   3.070   0.345  0.0913  0.2472  0.0479
  907SOL    HW1 2720   1.214   3.047   0.415  3.0629  0.5205 -0.4748
  907SOL    HW2 2721   1.325   0.061   0.378  3.0244 -0.9948  1.5417
  908SOL     OW 2722   1.475   2.635   1.557 -0.1970 -0.1853 -0.0824
  908SOL    HW1 2723   1.484   2.580   1.476  2.4845 -0.5554  1.1365
  908SOL    HW2 2724   1.394   2.697   1.560 -2.2351  0.2077 -1.7966
  909SOL     OW 2725   2.498   0.804   1.926  0.0548  0.2004  0.0720
  909SOL    HW1 2726   2.544   0.715   1.953  2.1975 -1.7418  2.0500
  909SOL    HW2 2727   2.414   0.787   1.870 -0.6547 -1.0938  1.3118
  910SOL     OW 2728   1.236   3.033   2.391 -0.0735 -0.1553  0.7740
  910SOL    HW1 2729   1.292   0.019   2.363  0.1352  0.8733 -1.3127
  910SOL    HW2 2730   1.265   2.943   2.354 -1.2064 -0.0506 -0.9404
  911SOL     OW 2731   2.435   1.614   2.442 -0.1440  0.1742 -0.0219
  911SOL    HW1 2732   2.481   1.663   2.364 -1.0848  2.5869 -2.7724
  911SOL    HW2 2733   2.390   1.527   2.408 -0.3319 -0.0070  0.9966
  912SOL     OW 2734   2.309   2.182   1.426 -0.1112 -0.0009  0.5675
  912SOL    HW1 2735   2.336   2.278   1.420  0.5993 -1.4086  3.7569
  912SOL    HW2 2736   2.211   2.162   1.446  1.8198  1.5913  0.8845
  913SOL     OW 2737   2.513   2.492   1.763  0.5096 -0.1904  0.0402
  913SOL    HW1 2738   2.563   2.553   1.697 -1.7417  0.6830 -2.1193
  913SOL    HW2 2739   2.413   2.491   1.747 -0.3913 -0.1696 -0.2889
  914SOL     OW 2740   2.235   1.997   1.189  0.0632 -0.6798  0.0709
  914SOL    HW1 2741   2.257   2.061   1.267  1.4413  1.0236  3.1939
  914SOL    HW2 2742   2.137   2.000   1.166 -1.2613  1.7628 -1.0348
  915SOL     OW 2743   1.140   2.540   1.736  0.1813 -0.2672  0.3395
  915SOL    HW1 2744   1.068   2.476   1.708 -0.6249  2.5075 -0.7469
  915SOL    HW2 2745   1.230   2.501   1.716 -2.5834  1.6890  0.1751
  916SOL     OW 2746   0.182   2.203   1.081  0.4593 -0.2004 -0.0221
  916SOL    HW1 2747   0.186   2.259   0.996  1.2786 -1.7242 -2.5461
  916SOL    HW2 2748   0.178   2.268   1.159  0.2074 -1.1958 -2.2359
  917SOL     OW 2749   2.705   1.134   2.798 -0.5519  0.2366 -0.1763
  917SOL    HW1 2750   2.670   1.055   2.850 -1.2399  1.9013  1.8385
  917SOL    HW2 2751   2.753   1.097   2.719 -0.2807 -0.2126 -1.2778
  918SOL     OW 2752   1.758   1.956   2.582 -0.0329  0.5008  0.2766
  918SOL    HW1 2753   1.793   1.922   2.671  0.3511  0.4756  0.3724
  918SOL    HW2 2754   1.723   1.875   2.533 -2.0614  0.3488 -2.2531
  919SOL     OW 2755   1.731   2.233   1.282 -0.1621 -0.0039  0.3290
  919SOL    HW1 2756   1.682   2.198   1.203 -1.1947  1.2853  2.7547
  919SOL    HW2 2757   1.821   2.189   1.289  0.4138 -2.0724 -1.1589
  920SOL     OW 2758   1.031   0.488   2.665  0.6156 -0.2045  0.3546
  920SOL    HW1 2759   1.111   0.429   2.642  1.2099 -0.8465  1.0643
  920SOL    HW2 2760   1.064   0.579   2.705 -0.0499 -1.9103  0.2823
  921SOL     OW 2761   0.047   2.793   2.742 -0.4388 -0.6968  0.1688
  921SOL    HW1 2762   0.096   2.826   2.657 -0.3487  0.1778  1.6742
  921SOL    HW2 2763   0.115   2.799   2.819  2.1187  1.7624  0.9560
  922SOL     OW 2764   2.379   1.728   1.802 -0.0878 -0.4749 -0.6990
  922SOL    HW1 2765   2.469   1.712   1.761 -1.0212  0.3578  1.6583
  922SOL    HW2 2766   2.306   1.710   1.737  0.7807 -2.9359  0.8626
  923SOL     OW 2767   0.600   2.030   2.560 -0.4654 -0.3988 -0.3495
  923SOL    HW1 2768   0.503   2.004   2.551  0.6075 -1.7663  0.2695
  923SOL    HW2 2769   0.623   2.130   2.545 -0.0050  1.5804  0.7463
  924SOL     OW 2770   1.764   0.553   2.450  0.7041  0.3946 -0.0314
  924SOL    HW1 2771   1.801   0.548   2.357  1.8603  0.4209 -3.9491
  924SOL    HW2 2772   1.744   0.646   2.480  1.2830 -0.9199 -3.1020
  925SOL     OW 2773   0.064   0.870   0.164  0.3768 -0.3530  0.6536
  925SOL    HW1 2774   3.072   0.866   0.108 -1.6797  0.9171 -3.5299
  925SOL    HW2 2775   0.050   0.917   0.253 -0.3222 -0.1841 -0.5679
  926SOL     OW 2776   3.033   0.244   0.877  0.1591 -0.4523  0.2289
  926SOL    HW1 2777   0.013   0.187   0.844 -1.3865 -0.4220 -1.7690
  926SOL    HW2 2778   2.984   0.296   0.804  1.4320 -0.7835  0.8939
  927SOL     OW 2779   1.425   1.127   0.631 -0.2994  0.0832 -0.3890
  927SOL    HW1 2780   1.454   1.160   0.540  2.1809 -0.1807  1.0380
  927SOL    HW2 2781   1.324   1.113   0.646 -2.1966 -2.4779  0.9565
  928SOL     OW 2782   0.146   0.035   2.356 -0.5532 -0.0740  0.1899
  928SOL    HW1 2783   0.157   0.017   2.258 -0.8020  0.3606 -1.1543
  928SOL    HW2 2784   0.130   0.134   2.369 -1.7349 -0.2333 -1.9703
  929SOL     OW 2785   2.516   0.651   1.589  0.5837 -0.3033 -0.6643
  929SOL    HW1 2786   2.499   0.753   1.579 -0.6378 -1.7402 -3.9294
  929SOL    HW2 2787   2.578   0.649   1.669  0.1294  0.8088  1.1178
  930SOL     OW 2788   1.736   2.356   0.826  0.3992  0.5180  0.5156
  930SOL    HW1 2789   1.714   2.333   0.725 -1.2829 -2.1174 -1.2686
  930SOL    HW2 2790   1.818   2.304   0.862  0.5606  1.9414 -1.4693
  931SOL     OW 2791   1.915   0.931   1.079 -0.4178 -0.1873  0.4533
  931SOL    HW1 2792   1.901   0.922   0.979  0.0011  1.2915  0.1326
  931SOL    HW2 2793   2.005   0.969   1.104  1.0635 -2.3926 -1.7686
  932SOL     OW 2794   0.139   0.674   1.447  0.0177  0.0864  0.4081
  932SOL    HW1 2795   0.038   0.671   1.469 -1.4666 -0.9566 -0.8780
  932SOL    HW2 2796   0.187   0.597   1.491  0.4031 -0.1839  0.2333
  933SOL     OW 2797   2.135   1.893   1.913 -0.6515  0.1633 -0.0949
  933SOL    HW1 2798   2.135   1.791   1.902  0.2787  0.5767 -0.5704
  933SOL    HW2 2799   2.223   1.929   1.869  1.7382  0.3529 -2.1541
  934SOL     OW 2800   1.670   3.089   1.325 -0.0632  0.1806  0.0325
  934SOL    HW1 2801   1.697   0.068   1.259 -2.7044  1.6976 -1.6885
  934SOL    HW2 2802   1.583   3.048   1.301  1.9650  3.8277  0.3914
  935SOL     OW 2803   3.064   0.903   1.314 -0.3139  0.2539 -0.1497
  935SOL    HW1 2804   3.031   0.832   1.380  1.6382  1.0439  0.3778
  935SOL    HW2 2805   0.051   0.865   1.267  3.9776 -0.2158  0.7751
  936SOL     OW 2806   2.720   0.649   1.398  0.0155  0.5537  0.6224
  936SOL    HW1 2807   2.667   0.667   1.316 -1.3120 -0.1830  1.9423
  936SOL    HW2 2808   2.663   0.643   1.478 -1.4722 -1.4239 -2.2667
  937SOL     OW 2809   1.108   2.950   0.946  0.0854  0.2455  0.9787
  937SOL    HW1 2810   1.009   2.948   0.956  0.6060  0.8459  0.3487
  937SOL    HW2 2811   1.133   2.912   0.856  1.3763  1.8287  1.5675
  938SOL     OW 2812   2.901   2.170   0.795 -0.4385  0.1539 -0.0636
  938SOL    HW1 2813   2.923   2.177   0.891 -0.1788 -0.1827 -2.0022
  938SOL    HW2 2814   2.821   2.225   0.765  1.3139 -0.1357 -0.0452
  939SOL     OW 2815   0.043   1.884   2.680  0.2641  0.3389  0.3544
  939SOL    HW1 2816   0.034   1.799   2.620  2.3802 -0.1191 -2.3037
  939SOL    HW2 2817   0.141   1.899   2.705 -1.7893 -0.4912  0.5181
  940SOL     OW 2818   2.632   2.648   2.694 -0.4615  0.1440 -0.0975
  940SOL    HW1 2819   2.612   2.600   2.606  0.8062 -1.6319 -1.9678
  940SOL    HW2 2820   2.581   2.734   2.697  0.5265  0.5361  0.1040
  941SOL     OW 2821   1.644   3.044   0.080  0.0936 -0.0438  0.7030
  941SOL    HW1 2822   1.693   3.050   3.091 -1.8887 -0.0901  3.9704
  941SOL    HW2 2823   1.638   0.037   0.126 -0.3329  0.3262  1.4923
  942SOL     OW 2824   1.519   1.894   1.483 -0.2597 -0.4474  0.0470
  942SOL    HW1 2825   1.481   1.801   1.497  0.0258 -0.6515 -1.0880
  942SOL    HW2 2826   1.486   1.958   1.557  0.1183  2.1993 -2.3868
  943SOL     OW 2827   1.849   1.071   2.013 -0.1515 -0.4290  0.4761
  943SOL    HW1 2828   1.833   1.081   1.914 -0.0544 -0.3387  0.3337
  943SOL    HW2 2829   1.787   1.004   2.062 -1.3469 -0.4345 -0.4850
  944SOL     OW 2830   1.489   0.885   1.809 -0.7346  0.5707 -0.2374
  944SOL    HW1 2831   1.523   0.983   1.796  0.6633 -0.2323 -0.3644
  944SOL    HW2 2832   1.484   0.841   1.713  0.6662 -1.1580 -4.0524
  945SOL     OW 2833   2.687   2.519   1.393 -0.1313 -0.4199 -0.1063
  945SOL    HW1 2834   2.756   2.547   1.328 -0.1898 -2.0890  0.8230
  945SOL    HW2 2835   2.683   2.419   1.411 -0.6966 -2.8790 -0.8478
  946SOL     OW 2836   0.729   1.039   1.567 -0.1779  0.0922  0.1308
  946SOL    HW1 2837   0.809   0.985   1.603  2.1346  0.3983 -1.9581
  946SOL    HW2 2838   0.698   0.997   1.482 -0.4115  1.7544  0.7890
  947SOL     OW 2839   0.649   2.514   0.780 -0.1796 -0.0869 -0.3437
  947SOL    HW1 2840   0.615   2.445   0.843 -0.2117  0.7701 -4.4216
  947SOL    HW2 2841   0.573   2.584   0.770 -0.1225  0.7069  2.4150
  948SOL     OW 2842   2.917   1.293   1.777 -0.8736  0.4203  0.1261
  948SOL    HW1 2843   2.966   1.205   1.797  0.3191  0.2104 -0.2258
  948SOL    HW2 2844   2.962   1.346   1.700  0.3945  1.9517 -2.3458
  949SOL     OW 2845   0.631   0.364   1.913 -0.0403 -0.1126  0.2366
  949SOL    HW1 2846   0.676   0.292   1.963  0.7894 -0.0891 -1.7104
  949SOL    HW2 2847   0.653   0.452   1.960  2.4809  1.2934 -1.8035
  950SOL     OW 2848   0.701   0.711   0.820 -0.4615  0.2542 -0.0520
  950SOL    HW1 2849   0.679   0.808   0.842 -2.2413 -0.4725  0.8960
  950SOL    HW2 2850   0.645   0.681   0.737 -0.1603  0.6954 -1.3429
  951SOL     OW 2851   1.099   1.865   2.265  0.0525 -0.5247  0.4084
  951SOL    HW1 2852   1.138   1.956   2.252 -0.4941 -0.8565 -2.4646
  951SOL    HW2 2853   1.091   1.850   2.366 -0.8861  0.5356 -0.7560
  952SOL     OW 2854   1.308   1.249   2.897 -0.1119  0.3281  0.2154
  952SOL    HW1 2855   1.294   1.250   2.797 -1.1033  0.2059 -1.2540
  952SOL    HW2 2856   1.322   1.157   2.937  1.7063  1.3090  0.5955
  953SOL     OW 2857   1.153   2.789   1.987  0.1337 -0.1542  0.3185
  953SOL    HW1 2858   1.126   2.745   1.899 -0.8168  0.4140 -1.2896
  953SOL    HW2 2859   1.142   2.724   2.069 -0.6837  1.8120  1.3451
  954SOL     OW 2860   2.129   1.452   0.528 -0.0266 -0.2921  0.6637
  954SOL    HW1 2861   2.150   1.540   0.473  0.5951  3.1655 -2.7078
  954SOL    HW2 2862   2.207   1.385   0.532 -0.8942  0.2151  0.2773
  955SOL     OW 2863   2.892   2.281   2.676  0.0010 -0.0499  0.3698
  955SOL    HW1 2864   2.870   2.348   2.603  0.2610  1.5169  2.3662
  955SOL    HW2 2865   2.866   2.321   2.766  0.8473 -0.6845  0.5793
  956SOL     OW 2866   1.207   0.983   1.373  0.3855 -0.6504 -0.2532
  956SOL    HW1 2867   1.169   0.895   1.342 -0.1161  1.4544  0.6542
  956SOL    HW2 2868   1.143   1.061   1.378  0.0556  1.6987  1.0877
  957SOL     OW 2869   1.877   1.556   2.298 -0.2444 -0.1540  0.3162
  957SOL    HW1 2870   1.845   1.473   2.256 -1.4021 -2.9918  0.2695
  957SOL    HW2 2871   1.892   1.550   2.399 -0.2777 -0.9664  2.5738
  958SOL     OW 2872   1.597   2.680   1.298  0.4031  0.6700 -0.2512
  958SOL    HW1 2873   1.698   2.703   1.291 -1.2095  1.9153 -1.8720
  958SOL    HW2 2874   1.545   2.763   1.330 -0.0719  0.5340 -1.7433
  959SOL     OW 2875   1.677   1.890   1.937  0.4807 -0.3365 -0.4431
  959SOL    HW1 2876   1.762   1.903   1.880 -0.1091 -1.7823  0.8129
  959SOL    HW2 2877   1.596   1.877   1.877 -2.2927 -2.2641  1.2492
  960SOL     OW 2878   0.053   0.799   2.772  0.2434 -0.5135 -0.0486
  960SOL    HW1 2879   0.128   0.856   2.816  2.7003 -2.1679  0.2626
  960SOL    HW2 2880   0.006   0.865   2.708  1.6554  3.5316  1.0295
  961SOL     OW 2881   0.595   0.624   2.016 -0.1140  0.3846 -0.1290
  961SOL    HW1 2882   0.647   0.708   2.045 -0.6700 -0.9029  0.7783
  961SOL    HW2 2883   0.496   0.635   1.997  0.6256 -1.3322  1.3845
  962SOL     OW 2884   1.419   1.653   0.380 -0.1525 -0.8991  0.0679
  962SOL    HW1 2885   1.334   1.642   0.436 -0.6438  0.9200 -0.2613
  962SOL    HW2 2886   1.502   1.630   0.432 -2.3203  1.4064  1.7690
  963SOL     OW 2887   1.266   2.205   2.764 -0.2359  0.1051  0.0456
  963SOL    HW1 2888   1.174   2.185   2.796  1.7226 -0.4792  0.8950
  963SOL    HW2 2889   1.296   2.133   2.698  0.1092  0.8939  1.8032
  964SOL     OW 2890   0.860   2.505   0.359 -0.1924  0.1104  0.1784
  964SOL    HW1 2891   0.823   2.435   0.294 -0.0914  0.7024 -0.2848
  964SOL    HW2 2892   0.784   2.543   0.418 -0.2781  0.1441  1.8801
  965SOL     OW 2893   0.861   2.870   0.982 -0.3956 -0.5209  0.1107
  965SOL    HW1 2894   0.784   2.932   1.012  0.0261  2.6911 -0.2832
  965SOL    HW2 2895   0.839   2.812   0.901  0.1718  2.7483 -0.2863
  966SOL     OW 2896   0.112   1.184   2.964 -0.3828  0.2167  0.4562
  966SOL    HW1 2897   0.154   1.217   2.876 -0.4932 -1.5852  1.6066
  966SOL    HW2 2898   0.012   1.202   2.941 -1.0461  1.8703 -1.0691
  967SOL     OW 2899   1.252   2.771   1.566  0.2048  0.1414  0.2437
  967SOL    HW1 2900   1.225   2.867   1.583 -1.6451 -0.0206  0.8322
  967SOL    HW2 2901   1.189   2.713   1.626 -0.0094 -0.1606  1.5904
  968SOL     OW 2902   1.759   0.343   0.329  0.4759  0.4753  0.2456
  968SOL    HW1 2903   1.783   0.269   0.399  0.1515  1.8212  1.7658
  968SOL    HW2 2904   1.815   0.428   0.344 -1.5342 -2.6901 -0.9265
  969SOL     OW 2905   0.109   1.692   1.878  0.2543  0.3807 -0.1730
  969SOL    HW1 2906   0.029   1.675   1.822  0.3078 -1.1176  2.0732
  969SOL    HW2 2907   0.145   1.784   1.856 -2.3888 -1.0165 -2.3472
  970SOL     OW 2908   2.309   1.499   1.458  0.0599 -0.0970  0.4035
  970SOL    HW1 2909   2.283   1.515   1.360 -0.6471  1.4879  1.5654
  970SOL    HW2 2910   2.407   1.475   1.472  0.7788  2.9128 -1.0953
  971SOL     OW 2911   1.936   0.680   1.585 -0.3674  0.7322 -1.0130
  971SOL    HW1 2912   1.946   0.690   1.487 -0.9395 -0.0534  1.7355
  971SOL    HW2 2913   1.975   0.591   1.618 -0.0694 -2.9250  1.0929
  972SOL     OW 2914   0.412   3.005   2.104  0.3397  0.7425 -0.3524
  972SOL    HW1 2915   0.460   3.018   2.193 -1.4119  0.3125 -2.1170
  972SOL    HW2 2916   0.333   3.069   2.089 -2.3601 -0.8121  0.8687
  973SOL     OW 2917   2.775   1.070   0.319 -0.2706 -0.3335  0.1681
  973SOL    HW1 2918   2.683   1.043   0.290  1.1802 -2.1096  0.0304
  973SOL    HW2 2919   2.795   1.011   0.398 -0.3168  0.1130  0.5078
  974SOL     OW 2920   1.601   1.350   2.286 -0.0524  0.0603  0.2636
  974SOL    HW1 2921   1.520   1.289   2.256  1.1592 -2.9156 -1.3630
  974SOL    HW2 2922   1.642   1.401   2.204 -1.2545  0.6883 -0.3597
  975SOL     OW 2923   3.044   2.432   0.944 -0.4324 -0.1141  0.8725
  975SOL    HW1 2924   3.002   2.481   0.865 -1.9948 -1.2456 -0.5105
  975SOL    HW2 2925   2.973   2.368   0.985 -1.2430 -0.7813 -1.1735
  976SOL     OW 2926   3.054   1.440   1.605 -0.2533 -0.2626  0.0409
  976SOL    HW1 2927   0.031   1.437   1.536 -1.7951  1.6686  3.7842
  976SOL    HW2 2928   3.038   1.527   1.654  0.3082  0.1026 -1.2627
  977SOL     OW 2929   0.569   2.432   3.001  0.4151 -0.1683  0.0829
  977SOL    HW1 2930   0.525   2.521   3.025  1.0007 -0.1954 -1.4711
  977SOL    HW2 2931   0.672   2.433   3.020 -0.5395  2.6818  4.0668
  978SOL     OW 2932   0.611   1.786   2.401  0.0409  0.1694 -0.3136
  978SOL    HW1 2933   0.515   1.794   2.387  1.6585  2.3430  0.9828
  978SOL    HW2 2934   0.644   1.864   2.456  0.8292 -0.4783 -1.0228
  979SOL     OW 2935   1.411   2.471   1.306 -0.2619  0.2916  0.3233
  979SOL    HW1 2936   1.496   2.531   1.319 -1.4952  1.9468  1.1760
  979SOL    HW2 2937   1.435   2.379   1.267 -2.2775  2.6500 -1.3883
  980SOL     OW 2938   0.765   1.553   2.976 -0.1334  0.1817  0.1524
  980SOL    HW1 2939   0.702   1.609   2.923  1.2285 -2.1975  0.7080
  980SOL    HW2 2940   0.859   1.580   2.973 -1.3429  1.5010 -0.2074
  981SOL     OW 2941   2.784   0.014   2.492 -0.9021  0.0816  0.3686
  981SOL    HW1 2942   2.695   3.064   2.486  0.8456  2.4485 -2.5423
  981SOL    HW2 2943   2.836   3.095   2.403 -0.3148  2.6014 -1.3114
  982SOL     OW 2944   0.023   2.469   2.806  0.1124  0.1524 -0.5373
  982SOL    HW1 2945   0.084   2.490   2.731 -0.1580  2.7949 -1.7354
  982SOL    HW2 2946   3.032   2.521   2.790 -2.8781  2.9491 -3.1525
  983SOL     OW 2947   2.330   1.029   1.936  0.4630  0.2966  0.3867
  983SOL    HW1 2948   2.329   1.066   1.847 -0.2592  0.4709  1.4021
  983SOL    HW2 2949   2.391   0.949   1.953  1.9153 -0.1519 -3.0215
  984SOL     OW 2950   1.458   0.100   2.382 -0.3949  0.2020  0.1970
  984SOL    HW1 2951   1.509   0.173   2.434  0.5575 -0.2185 -0.9833
  984SOL    HW2 2952   1.448   0.131   2.285 -1.8454 -2.2866  2.2591
  985SOL     OW 2953   1.491   2.164   2.295  0.2004  0.4737  0.2671
  985SOL    HW1 2954   1.568   2.111   2.257 -2.2695  1.8657  0.7306
  985SOL    HW2 2955   1.498   2.178   2.397 -1.5493  3.5175 -1.3632
  986SOL     OW 2956   2.033   0.305   2.295  0.4514 -0.6010 -0.7037
  986SOL    HW1 2957   2.056   0.248   2.213 -0.0630  0.5106 -0.1602
  986SOL    HW2 2958   1.979   0.389   2.266  1.7738  1.2134  1.2103
  987SOL     OW 2959   2.204   0.656   1.964 -0.7936 -0.4010 -0.0310
  987SOL    HW1 2960   2.102   0.659   1.965 -0.5892 -3.1029 -1.6554
  987SOL    HW2 2961   2.245   0.693   1.879 -1.8128 -2.1854 -0.8083
  988SOL     OW 2962   2.625   0.643   2.547  0.2404 -0.0992 -0.2746
  988SOL    HW1 2963   2.714   0.597   2.538 -0.3821  1.0983 -0.4557
  988SOL    HW2 2964   2.547   0.593   2.499 -3.8020  0.2716 -0.5227
  989SOL     OW 2965   2.541   2.558   2.449  0.1118 -0.0825 -0.2006
  989SOL    HW1 2966   2.451   2.594   2.418 -0.5655 -0.1394  1.4320
  989SOL    HW2 2967   2.587   2.526   2.366 -2.8457  1.6689 -2.8939
  990SOL     OW 2968   0.357   0.497   0.091 -0.1010 -0.0549 -0.7198
  990SOL    HW1 2969   0.343   0.497   0.194 -1.0569 -0.4713  1.0434
  990SOL    HW2 2970   0.305   0.569   0.043 -1.0964  1.7126 -1.0040
  991SOL     OW 2971   0.725   0.498   2.907 -0.0197 -0.6888 -0.3847
  991SOL    HW1 2972   0.644   0.445   2.942 -0.2198  1.4356 -1.7672
  991SOL    HW2 2973   0.815   0.448   2.924  0.9740 -0.0185 -1.0323
  992SOL     OW 2974   2.643   2.140   2.211 -0.7010 -0.6313  0.2148
  992SOL    HW1 2975   2.712   2.127   2.284  1.7405  0.5837  0.5484
  992SOL    HW2 2976   2.691   2.118   2.123  1.6000  1.4315 -1.8947
  993SOL     OW 2977   0.600   2.998   0.418  0.2158 -0.5064 -0.0068
  993SOL    HW1 2978   0.573   2.984   0.515 -1.2325  1.8696 -2.0627
  993SOL    HW2 2979   0.580   2.917   0.361  0.9007  0.3868  2.7385
  994SOL     OW 2980   0.245   2.040   1.538 -0.5537 -0.0562  0.1531
  994SOL    HW1 2981   0.215   2.004   1.630 -1.0449  2.3974  0.0609
  994SOL    HW2 2982   0.202   1.985   1.462 -2.7232 -2.1355 -0.4035
  995SOL     OW 2983   2.275   1.908   0.253 -0.1955  0.1417 -0.0772
  995SOL    HW1 2984   2.248   2.003   0.242  0.6589 -1.6131 -1.7154
  995SOL    HW2 2985   2.249   1.855   0.171  0.3905  0.4740  0.7329
  996SOL     OW 2986   1.353   1.678   2.462  0.3188 -0.1865 -0.3772
  996SOL    HW1 2987   1.406   1.596   2.488 -0.0414  3.6601  3.1873
  996SOL    HW2 2988   1.412   1.736   2.402  1.0353  0.4607 -2.3240
  997SOL     OW 2989   1.829   1.532   1.829  0.1797 -0.0661  0.0720
  997SOL    HW1 2990   1.773   1.604   1.783 -1.5653  0.8250  0.0891
  997SOL    HW2 2991   1.779   1.442   1.822  1.8217 -1.8847 -1.8226
  998SOL     OW 2992   2.720   1.753   0.246 -0.1562 -0.5230  0.0675
  998SOL    HW1 2993   2.762   1.673   0.288 -0.0394  1.6488 -1.4069
  998SOL    HW2 2994   2.748   1.756   0.149  2.1928 -2.3009 -1.8852
  999SOL     OW 2995   2.415   2.598   0.359  0.4872 -0.3091  0.6461
  999SOL    HW1 2996   2.353   2.644   0.423  1.2348 -0.6180 -1.3482
  999SOL    HW2 2997   2.466   2.528   0.408 -2.0325 -1.7155 -1.1179
 1000SOL     OW 2998   0.810   2.900   2.159  0.4003  0.0089 -0.3966
 1000SOL    HW1 2999   0.837   2.946   2.074 -2.3487 -1.6066  1.9038
 1000SOL    HW2 3000   0.808   2.801   2.146 -0.9434  0.1612 -1.1679
   3.09563   3.09563   3.09563
