1000 SPC/Fw water molecules t= 471.00000 step= 471000
 3000
    1SOL     OW    1   2.692   2.903   1.714 -0.2085  0.3169 -0.3496
    1SOL    HW1    2   2.727   2.942   1.623 -1.0913  0.4622 -3.1544
    1SOL    HW2    3   2.673   2.973   1.788 -0.5103  1.6039 -0.0172
    2SOL     OW    4   2.739   2.825   3.001  0.8302  0.2044 -0.4248
    2SOL    HW1    5   2.768   2.859   3.096  0.7980  3.1121 -0.4609
    2SOL    HW2    6   2.821   2.779   2.964  0.3100  1.6333  0.3534
    3SOL     OW    7   1.161   2.475   0.048  0.7537  0.2894  0.3213
    3SOL    HW1    8   1.155   2.396   3.095 -0.3606  1.4030  0.6300
    3SOL    HW2    9   1.193   2.433   0.138  1.5920  2.1377  0.7238
    4SOL     OW   10   1.398   2.823   2.473 -0.3858 -0.1166 -0.2465
    4SOL    HW1   11   1.487   2.866   2.436  3.0015  1.4122  0.0643
    4SOL    HW2   12   1.357   2.883   2.547 -1.6443  1.3802 -1.5075
    5SOL     OW   13   1.974   0.140   2.362  0.1867  0.2080 -0.1843
    5SOL    HW1   14   1.957   0.107   2.267 -2.0371 -2.0368 -1.4347
    5SOL    HW2   15   1.909   0.096   2.426 -2.2689  2.2313  0.9691
    6SOL     OW   16   0.071   1.623   1.130 -0.3100 -0.0720  0.2136
    6SOL    HW1   17   0.172   1.640   1.134  0.6870  2.1899 -0.7332
    6SOL    HW2   18   0.014   1.693   1.084 -1.5847 -2.0761  3.3158
    7SOL     OW   19   1.229   1.832   0.595  0.3275  0.7195 -0.4819
    7SOL    HW1   20   1.156   1.769   0.630  2.0560  0.4215  1.1547
    7SOL    HW2   21   1.310   1.774   0.574  4.6236 -0.0925  0.1492
    8SOL     OW   22   0.220   0.562   0.354 -0.0471  0.0476  0.0271
    8SOL    HW1   23   0.304   0.621   0.351  2.4931  3.0076 -1.5020
    8SOL    HW2   24   0.156   0.577   0.279  1.5708  0.1593  0.9195
    9SOL     OW   25   0.133   2.934   1.717 -0.1189  0.5877 -0.1764
    9SOL    HW1   26   0.232   2.915   1.696  2.1489  0.1796 -1.7062
    9SOL    HW2   27   0.080   2.848   1.707 -0.5522  0.0990 -0.0155
   10SOL     OW   28   1.275   2.040   0.420  0.5344  0.2956  0.3904
   10SOL    HW1   29   1.262   1.958   0.478 -0.8159  0.6022  1.4617
   10SOL    HW2   30   1.316   2.112   0.478 -2.3342 -1.5937 -0.9166
   11SOL     OW   31   2.007   0.766   1.318 -0.4313 -0.1768 -0.1657
   11SOL    HW1   32   2.004   0.865   1.303 -2.2093 -0.3643 -0.9443
   11SOL    HW2   33   1.947   0.738   1.395 -1.5923  0.8313  0.4573
   12SOL     OW   34   0.310   0.853   2.114 -0.0986  0.5869  0.2932
   12SOL    HW1   35   0.293   0.933   2.052  2.8375  0.6077  4.3500
   12SOL    HW2   36   0.311   0.883   2.214  0.5566 -1.2724 -1.6043
   13SOL     OW   37   2.138   2.985   0.346 -0.3066 -0.3534 -0.5577
   13SOL    HW1   38   2.187   3.043   0.416  1.2391  3.2626 -1.4470
   13SOL    HW2   39   2.140   2.883   0.364  0.5199 -1.6022  2.5748
   14SOL     OW   40   2.211   1.996   0.156  0.1540 -0.2710  0.3307
   14SOL    HW1   41   2.295   1.966   0.109  0.4721 -1.4261 -1.4660
   14SOL    HW2   42   2.222   2.047   0.244 -0.4626 -1.9648  0.4967
   15SOL     OW   43   3.044   3.036   3.030  0.0908  0.3397 -0.0865
   15SOL    HW1   44   2.979   2.979   3.083 -0.3080 -2.7281  1.2931
   15SOL    HW2   45   0.013   3.055   3.090  0.6100  1.6403 -0.1761
   16SOL     OW   46   3.030   0.642   1.136 -0.3502 -0.0700  0.3013
   16SOL    HW1   47   3.031   0.575   1.063  1.5280  2.4893 -0.6430
   16SOL    HW2   48   2.961   0.615   1.207  2.0949 -1.0292 -1.3161
   17SOL     OW   49   0.611   0.456   0.961 -0.8574 -0.5198  0.2418
   17SOL    HW1   50   0.605   0.369   1.014  0.3250 -1.1767  2.3507
   17SOL    HW2   51   0.523   0.507   0.954  0.0243 -0.2593  1.0760
   18SOL     OW   52   3.033   0.013   0.876 -0.6155  0.8453  0.3204
   18SOL    HW1   53   2.942   0.006   0.829  1.8581  1.6810 -1.3064
   18SOL    HW2   54   3.099   0.082   0.834  1.3611  3.6093 -1.0496
   19SOL     OW   55   1.819   1.288   1.207 -0.2488  0.7221 -0.5165
   19SOL    HW1   56   1.778   1.276   1.111 -2.0001 -1.2511 -1.0195
   19SOL    HW2   57   1.891   1.356   1.211  1.3928  2.0931  1.0705
   20SOL     OW   58   2.166   1.862   2.475  0.0820 -0.2681 -0.1630
   20SOL    HW1   59   2.105   1.907   2.547  0.8370  0.3062 -0.6094
   20SOL    HW2   60   2.126   1.770   2.445 -0.5158 -0.1911  0.9303
   21SOL     OW   61   1.336   2.798   0.399 -0.6560  0.0010  0.6521
   21SOL    HW1   62   1.268   2.781   0.464  0.1276  1.3528 -4.7538
   21SOL    HW2   63   1.290   2.826   0.316 -0.7596  0.0961 -2.9136
   22SOL     OW   64   2.462   0.748   0.017 -0.2457 -0.3623  0.3768
   22SOL    HW1   65   2.534   0.810   0.056  0.2216 -0.6696 -2.0346
   22SOL    HW2   66   2.435   0.670   0.076  0.5656 -1.4918 -0.9627
   23SOL     OW   67   0.755   0.597   2.132  0.3089 -0.0887  0.5891
   23SOL    HW1   68   0.756   0.504   2.085  1.6585  1.4976 -0.2704
   23SOL    HW2   69   0.852   0.619   2.158  0.7191  0.0888  0.0987
   24SOL     OW   70   2.107   2.182   0.818  0.4810 -0.2363 -0.2734
   24SOL    HW1   71   2.176   2.218   0.877 -4.1493 -2.1774 -0.6739
   24SOL    HW2   72   2.034   2.249   0.808  1.4909 -1.9715  2.3001
   25SOL     OW   73   1.394   0.067   3.023  0.0904  0.0936  0.1950
   25SOL    HW1   74   1.398   0.126   2.943 -0.6290 -0.6481  1.2825
   25SOL    HW2   75   1.486   0.041   3.060 -0.1452 -0.0190 -1.5430
   26SOL     OW   76   1.043   2.876   2.742  0.1855  0.3369  0.2488
   26SOL    HW1   77   1.022   2.943   2.815  2.2128 -0.1978 -2.9029
   26SOL    HW2   78   1.054   2.784   2.784  0.6609 -1.0554  1.4489
   27SOL     OW   79   1.100   0.596   1.158  0.2956  0.0998  0.5355
   27SOL    HW1   80   1.093   0.543   1.070 -2.1427 -0.8673  1.1597
   27SOL    HW2   81   1.011   0.592   1.205  1.9643 -0.3796  0.4509
   28SOL     OW   82   0.353   1.995   1.117  0.1783 -0.6018  1.1053
   28SOL    HW1   83   0.412   2.058   1.062  1.1137  0.2561 -1.4664
   28SOL    HW2   84   0.330   2.028   1.211 -0.8133 -0.6088  2.1487
   29SOL     OW   85   2.667   1.130   1.049  0.3315  0.1009  0.2543
   29SOL    HW1   86   2.671   1.229   1.056 -2.2038 -2.2155  0.4649
   29SOL    HW2   87   2.674   1.090   1.142 -3.1021  1.7966 -0.0727
   30SOL     OW   88   1.505   3.097   1.718 -0.0289 -0.2403  0.1362
   30SOL    HW1   89   1.413   3.051   1.719 -1.0427 -0.3926 -1.3627
   30SOL    HW2   90   1.557   3.071   1.799  1.4478  0.0041  2.7145
   31SOL     OW   91   1.272   0.071   1.143  0.1257 -0.4702  0.0530
   31SOL    HW1   92   1.279   0.115   1.050 -1.5687 -1.9533  1.1506
   31SOL    HW2   93   1.321   3.089   1.139  0.6801 -2.4927 -3.0703
   32SOL     OW   94   2.427   1.181   1.907 -0.3355  0.5937 -0.7436
   32SOL    HW1   95   2.446   1.229   1.819  1.8078 -2.3848 -3.0514
   32SOL    HW2   96   2.361   1.109   1.885  2.0652  1.8276 -0.3867
   33SOL     OW   97   2.305   2.810   2.700  0.9930  0.2022  0.2993
   33SOL    HW1   98   2.221   2.797   2.753  3.0563 -0.0568  0.2783
   33SOL    HW2   99   2.295   2.895   2.637 -2.0275  1.5544 -1.1523
   34SOL     OW  100   2.044   0.895   3.060 -0.1141 -0.6072 -0.1711
   34SOL    HW1  101   2.132   0.931   3.096  3.8332  1.4853 -0.5749
   34SOL    HW2  102   2.039   0.795   3.038 -1.2783 -0.9099  0.2670
   35SOL     OW  103   2.685   1.310   1.433  0.4697  0.4945 -0.0820
   35SOL    HW1  104   2.612   1.356   1.480  5.4999  1.6958  0.5212
   35SOL    HW2  105   2.759   1.278   1.499 -1.5804 -0.7346  2.5221
   36SOL     OW  106   2.354   2.319   2.852  0.4282 -0.4012  0.2427
   36SOL    HW1  107   2.299   2.366   2.923  1.1030 -1.6771  1.7571
   36SOL    HW2  108   2.374   2.385   2.774  1.7827  0.0002 -2.9622
   37SOL     OW  109   1.852   2.970   1.787  0.4490 -0.2731 -0.3621
   37SOL    HW1  110   1.880   3.057   1.826  2.2999  0.2520 -1.5348
   37SOL    HW2  111   1.924   2.897   1.806  1.0229 -0.5321 -2.2076
   38SOL     OW  112   0.692   0.986   2.515 -0.1979 -0.1998 -0.3526
   38SOL    HW1  113   0.673   0.890   2.541 -0.9623 -1.5046  1.9787
   38SOL    HW2  114   0.610   1.044   2.497 -2.0050  0.0737 -1.7744
   39SOL     OW  115   1.531   0.646   1.718 -0.1338 -0.3590  0.5371
   39SOL    HW1  116   1.602   0.608   1.778 -1.9663 -0.8765  0.3852
   39SOL    HW2  117   1.435   0.634   1.749 -1.1986  0.4558  0.1765
   40SOL     OW  118   0.851   2.322   0.682 -0.1707 -0.0760 -0.1053
   40SOL    HW1  119   0.900   2.282   0.601 -1.2455 -0.0537  1.1334
   40SOL    HW2  120   0.901   2.395   0.728 -3.3766 -0.7018 -2.9268
   41SOL     OW  121   2.280   2.018   1.086 -0.0847 -0.6622 -0.2711
   41SOL    HW1  122   2.291   2.115   1.063 -0.9048 -2.8644  0.7932
   41SOL    HW2  123   2.366   1.980   1.128 -1.0001  0.4055 -1.9404
   42SOL     OW  124   2.217   0.325   0.618 -0.1089  0.5839 -0.2791
   42SOL    HW1  125   2.146   0.333   0.548  0.2353 -2.0131 -1.1304
   42SOL    HW2  126   2.306   0.321   0.567 -0.5537 -2.7852 -0.8290
   43SOL     OW  127   0.707   1.424   2.497  0.2003  0.0192 -0.0237
   43SOL    HW1  128   0.651   1.470   2.428  2.2907 -1.5507 -0.6487
   43SOL    HW2  129   0.779   1.363   2.456  0.3334  1.2610  2.0306
   44SOL     OW  130   1.945   2.995   1.115  0.7677 -0.3682 -0.5576
   44SOL    HW1  131   1.895   2.925   1.059  2.3130 -0.2658  1.4711
   44SOL    HW2  132   2.005   3.046   1.058 -2.4873 -0.2081 -1.4015
   45SOL     OW  133   0.470   2.271   2.784 -0.0861  0.0354  0.3782
   45SOL    HW1  134   0.392   2.247   2.848  0.0808  1.1172  0.1956
   45SOL    HW2  135   0.492   2.370   2.782  2.3255  0.0543 -0.7378
   46SOL     OW  136   0.699   2.752   2.378 -0.6986 -0.3405  0.3998
   46SOL    HW1  137   0.749   2.667   2.363 -0.1252  0.6513  1.5609
   46SOL    HW2  138   0.644   2.740   2.460  0.3904 -2.7464 -2.6697
   47SOL     OW  139   0.491   1.726   0.794 -0.0075 -0.3064 -0.0487
   47SOL    HW1  140   0.508   1.724   0.690  2.0137 -1.5636 -3.5613
   47SOL    HW2  141   0.555   1.791   0.839  0.6719 -0.1974 -1.4152
   48SOL     OW  142   0.744   2.644   1.435 -0.2158 -0.2680  0.0513
   48SOL    HW1  143   0.825   2.585   1.417  1.7102  0.4617 -0.3629
   48SOL    HW2  144   0.734   2.715   1.362  1.4788  2.1777 -2.0799
   49SOL     OW  145   0.142   3.008   0.094  0.1475 -0.2477  0.4932
   49SOL    HW1  146   0.152   2.966   0.185  1.3434 -1.4808  1.9358
   49SOL    HW2  147   0.163   2.935   0.021 -0.3870  0.7568 -1.7539
   50SOL     OW  148   1.698   0.669   0.483  0.2165 -0.8008  0.0631
   50SOL    HW1  149   1.612   0.708   0.445  0.7271 -3.3186 -1.9514
   50SOL    HW2  150   1.759   0.658   0.402 -1.4928 -0.6027 -0.5840
   51SOL     OW  151   2.092   2.998   0.718  0.3776  0.8478  0.1341
   51SOL    HW1  152   2.013   2.935   0.707 -3.1156 -0.6169  0.0211
   51SOL    HW2  153   2.125   3.029   0.628 -0.9510 -2.2546  0.6982
   52SOL     OW  154   0.490   1.745   1.167  0.1529  0.3306  0.2720
   52SOL    HW1  155   0.491   1.694   1.077 -1.6121  1.8698 -2.3662
   52SOL    HW2  156   0.475   1.841   1.151 -0.2694 -0.0707 -1.8667
   53SOL     OW  157   0.058   1.090   2.898 -0.0542  0.1530  0.1498
   53SOL    HW1  158   0.121   1.011   2.912  0.3016 -0.2696  0.5244
   53SOL    HW2  159   0.060   1.149   2.980 -1.7546  2.6549 -0.5994
   54SOL     OW  160   2.681   2.307   2.701  0.6653 -0.2472 -0.4050
   54SOL    HW1  161   2.626   2.274   2.780 -0.3665 -1.0686  1.7617
   54SOL    HW2  162   2.690   2.237   2.625  0.2083 -1.5408  2.5288
   55SOL     OW  163   2.560   2.212   1.267  1.0189 -0.4599  0.2019
   55SOL    HW1  164   2.645   2.263   1.292  1.0105 -0.5218  3.2107
   55SOL    HW2  165   2.483   2.268   1.235 -1.0103 -1.6433  0.7245
   56SOL     OW  166   1.474   0.722   1.399 -0.1509 -0.6931  0.4480
   56SOL    HW1  167   1.572   0.691   1.385  1.0593 -0.0141  0.6172
   56SOL    HW2  168   1.420   0.717   1.317  1.6761 -0.4227  2.3261
   57SOL     OW  169   1.887   1.743   1.010 -0.6502 -0.3501 -0.0724
   57SOL    HW1  170   1.924   1.798   0.935 -2.3180 -1.5582  0.2768
   57SOL    HW2  171   1.961   1.711   1.077  2.5135 -1.2678 -0.3120
   58SOL     OW  172   2.311   0.228   2.164  0.0335  0.4344  0.4751
   58SOL    HW1  173   2.268   0.232   2.256 -2.8886  0.5502 -0.8440
   58SOL    HW2  174   2.253   0.285   2.100  2.8224  1.7026  0.3185
   59SOL     OW  175   1.603   2.937   2.335  0.0420  0.3786 -0.1996
   59SOL    HW1  176   1.553   2.974   2.254  0.7661  1.5563  1.5001
   59SOL    HW2  177   1.701   2.918   2.313  1.3767  1.0370  1.4678
   60SOL     OW  178   1.339   1.921   2.910  0.4774  0.4960  0.3851
   60SOL    HW1  179   1.342   1.940   2.808 -0.0594  0.2301 -0.3715
   60SOL    HW2  180   1.243   1.928   2.940  1.7462 -1.2216 -0.9396
   61SOL     OW  181   0.654   2.064   0.089  0.1223  0.0447 -0.0222
   61SOL    HW1  182   0.622   1.969   0.062 -0.4041 -3.6742 -0.3220
   61SOL    HW2  183   0.715   2.097   0.011  0.1950 -1.0759 -1.5233
   62SOL     OW  184   1.423   1.762   1.485 -0.0372  0.3403  0.3939
   62SOL    HW1  185   1.407   1.770   1.586 -0.5564  0.3515  2.6788
   62SOL    HW2  186   1.522   1.767   1.455  0.6611  1.8081 -2.9095
   63SOL     OW  187   1.082   2.063   0.693 -0.8959 -0.3504 -0.0171
   63SOL    HW1  188   1.021   2.111   0.628  2.8946 -3.0137 -0.6327
   63SOL    HW2  189   1.113   1.980   0.648 -0.9050  2.8205 -1.4492
   64SOL     OW  190   1.893   1.439   2.533  0.5191  0.4977 -0.0353
   64SOL    HW1  191   1.818   1.472   2.593 -3.3846 -2.3436 -1.3280
   64SOL    HW2  192   1.942   1.515   2.486  1.1288  2.3224  0.7207
   65SOL     OW  193   1.693   1.751   1.417  0.3441  0.1438  0.0186
   65SOL    HW1  194   1.756   1.670   1.419  2.2085 -2.3217 -1.4296
   65SOL    HW2  195   1.736   1.836   1.447 -0.9704 -0.6722 -2.4615
   66SOL     OW  196   0.045   1.014   0.832  0.0237  0.1176 -0.2730
   66SOL    HW1  197   0.005   1.011   0.741  2.3449 -1.3309  0.5556
   66SOL    HW2  198   3.105   0.953   0.901  0.6922 -1.2636  1.2257
   67SOL     OW  199   2.302   2.286   1.021 -0.1960 -0.1053  0.0269
   67SOL    HW1  200   2.280   2.341   1.103 -1.5561 -0.3196  0.8866
   67SOL    HW2  201   2.376   2.326   0.959 -0.8632  1.7630 -0.0126
   68SOL     OW  202   2.387   2.735   1.644  0.6434  0.1593 -0.1009
   68SOL    HW1  203   2.420   2.727   1.549 -0.4755  0.3606  0.3091
   68SOL    HW2  204   2.349   2.823   1.660  0.6002  0.3205  0.1518
   69SOL     OW  205   2.455   2.744   2.944 -0.4959  0.5825 -0.1778
   69SOL    HW1  206   2.422   2.753   2.850  1.6415 -2.2790  0.3045
   69SOL    HW2  207   2.552   2.771   2.947 -1.0297  1.7383  0.1969
   70SOL     OW  208   1.027   1.492   2.480 -0.7737 -0.7021 -0.0785
   70SOL    HW1  209   1.033   1.504   2.379 -0.4654  1.4232  1.1642
   70SOL    HW2  210   0.977   1.408   2.509  0.4737  0.0577  2.2247
   71SOL     OW  211   0.765   1.653   1.836 -0.0345 -0.2459  0.9450
   71SOL    HW1  212   0.763   1.576   1.765  0.1336  1.0137 -0.8789
   71SOL    HW2  213   0.786   1.745   1.790 -0.0023  2.0870 -2.4026
   72SOL     OW  214   2.908   1.194   1.564 -0.2183 -0.0065  0.0240
   72SOL    HW1  215   2.901   1.193   1.667 -1.3131  0.0411  1.7231
   72SOL    HW2  216   3.000   1.230   1.538  0.0446  2.2612 -0.9085
   73SOL     OW  217   0.796   2.283   2.471 -0.2471 -0.0159  0.3692
   73SOL    HW1  218   0.823   2.375   2.437 -0.9999  0.2483  1.3245
   73SOL    HW2  219   0.818   2.268   2.572  0.4329 -0.8285  3.7073
   74SOL     OW  220   1.177   0.336   2.228  0.3545 -0.1966  0.5148
   74SOL    HW1  221   1.098   0.277   2.196 -0.8341 -2.1026 -1.3488
   74SOL    HW2  222   1.150   0.397   2.309  1.3024 -2.6543  1.8513
   75SOL     OW  223   1.190   0.043   0.651 -0.0414 -0.2102 -0.3968
   75SOL    HW1  224   1.118   0.021   0.717  1.2055  0.8679  0.1896
   75SOL    HW2  225   1.278   0.027   0.693 -1.6631  2.2513 -3.9699
   76SOL     OW  226   0.442   1.709   2.771 -0.4835 -0.7231 -0.4257
   76SOL    HW1  227   0.462   1.766   2.687 -0.7295 -1.7120 -1.4162
   76SOL    HW2  228   0.517   1.736   2.839  1.2007  2.6180 -1.5338
   77SOL     OW  229   0.645   2.501   0.785 -0.0607  0.3624 -0.1034
   77SOL    HW1  230   0.706   2.446   0.723  2.0622  3.5731  0.6880
   77SOL    HW2  231   0.548   2.480   0.766  0.8474  2.3814 -1.4319
   78SOL     OW  232   2.668   1.210   3.099 -0.1222 -0.4555 -0.8024
   78SOL    HW1  233   2.725   1.235   3.022 -2.4750 -2.5230  0.1861
   78SOL    HW2  234   2.650   1.293   0.049  1.7778  1.9102  0.4407
   79SOL     OW  235   0.730   1.552   2.724  0.4296 -0.3120 -0.3946
   79SOL    HW1  236   0.701   1.513   2.632 -1.8701 -0.3651  0.8599
   79SOL    HW2  237   0.714   1.653   2.721  0.0734 -0.8773 -1.6736
   80SOL     OW  238   2.174   1.203   1.459  0.1883  0.2500 -0.5599
   80SOL    HW1  239   2.122   1.213   1.543  0.9287  1.2555 -0.2145
   80SOL    HW2  240   2.242   1.278   1.438  0.5749  1.1295  1.8380
   81SOL     OW  241   1.956   0.995   2.419  0.2843 -0.1999 -0.5033
   81SOL    HW1  242   1.885   1.036   2.479 -0.1328 -1.6799 -1.2522
   81SOL    HW2  243   1.916   0.919   2.360  0.1826  0.3495  0.8185
   82SOL     OW  244   2.179   1.922   1.400 -0.5205 -0.1090  0.2445
   82SOL    HW1  245   2.136   2.010   1.369  0.4371  0.9837 -0.2982
   82SOL    HW2  246   2.183   1.915   1.503  0.6637 -3.2410  1.1876
   83SOL     OW  247   2.111   2.706   0.018 -0.1124  0.0965  0.0409
   83SOL    HW1  248   2.176   2.644   3.079 -0.8760  0.0701 -0.9826
   83SOL    HW2  249   2.099   2.795   3.083  0.3773  0.4413 -0.3279
   84SOL     OW  250   0.741   0.714   0.624 -0.6592  0.4147 -0.1640
   84SOL    HW1  251   0.839   0.714   0.644  0.6327 -0.1164 -1.7560
   84SOL    HW2  252   0.724   0.628   0.579  3.8726  1.4734 -1.4084
   85SOL     OW  253   2.111   1.480   1.272  0.2478 -0.1220  0.1605
   85SOL    HW1  254   2.115   1.409   1.201  2.7960 -1.0488  3.3788
   85SOL    HW2  255   2.131   1.572   1.233 -0.2319  0.9267  2.5511
   86SOL     OW  256   0.441   0.871   1.079 -0.3451  0.7425  0.4264
   86SOL    HW1  257   0.374   0.923   1.019 -1.4393 -0.1306  2.4504
   86SOL    HW2  258   0.534   0.915   1.082 -3.4955 -1.2979 -4.2522
   87SOL     OW  259   0.041   2.225   2.434  0.0929  0.2173 -0.4221
   87SOL    HW1  260   0.140   2.202   2.425  2.4578  0.4507 -0.6868
   87SOL    HW2  261   0.006   2.262   2.348 -1.7370 -2.0941  2.1658
   88SOL     OW  262   0.209   2.918   0.361 -0.2245  0.2926 -0.0234
   88SOL    HW1  263   0.157   2.909   0.451 -1.8849  1.1944 -0.8297
   88SOL    HW2  264   0.306   2.901   0.369 -3.9376 -0.5707 -2.2418
   89SOL     OW  265   1.342   0.202   0.898 -0.3835  0.5838  0.1062
   89SOL    HW1  266   1.410   0.138   0.856  0.4137  1.6884  0.2390
   89SOL    HW2  267   1.388   0.262   0.967  1.7486  2.4498  0.5370
   90SOL     OW  268   3.024   0.993   2.097 -0.0731 -0.3242 -0.2601
   90SOL    HW1  269   3.100   1.031   2.154 -2.5080 -1.1455 -0.9131
   90SOL    HW2  270   3.056   0.993   2.002  1.5797  1.3061  1.5721
   91SOL     OW  271   2.138   2.649   0.684 -0.1129  0.8321 -0.4218
   91SOL    HW1  272   2.111   2.573   0.625  0.4874 -0.9561 -0.7541
   91SOL    HW2  273   2.175   2.615   0.772  1.1159  0.5381  1.4125
   92SOL     OW  274   1.616   1.664   0.974 -0.5285  0.0999 -0.3477
   92SOL    HW1  275   1.721   1.664   0.973  0.9276  1.6012  0.0155
   92SOL    HW2  276   1.574   1.588   0.923 -1.1820  1.6742 -1.5639
   93SOL     OW  277   0.504   1.433   0.501  0.4349  0.1153  0.3360
   93SOL    HW1  278   0.590   1.380   0.516  3.2194  0.7890  0.7101
   93SOL    HW2  279   0.523   1.534   0.508 -2.5031  1.3225 -0.2937
   94SOL     OW  280   0.813   2.510   1.051 -0.4790 -0.6684 -0.5024
   94SOL    HW1  281   0.783   2.502   0.953  1.8873  0.6373  0.7697
   94SOL    HW2  282   0.744   2.462   1.109  1.5120 -1.8859  1.1517
   95SOL     OW  283   0.485   0.956   0.337 -0.1898 -0.1707  0.6560
   95SOL    HW1  284   0.425   0.993   0.410  0.6177 -0.3038 -0.4942
   95SOL    HW2  285   0.517   0.864   0.366  0.3183  1.8845  0.7136
   96SOL     OW  286   0.865   2.628   2.158  0.6373  0.1506  0.3166
   96SOL    HW1  287   0.833   2.646   2.065  3.2234 -1.1991  2.6422
   96SOL    HW2  288   0.914   2.539   2.160 -0.5362 -0.3589 -1.5544
   97SOL     OW  289   2.737   0.802   0.931 -0.4097  0.1371  0.3349
   97SOL    HW1  290   2.728   0.804   1.037 -1.9355  1.2930 -1.0272
   97SOL    HW2  291   2.660   0.861   0.893 -0.4634  1.7553  1.3451
   98SOL     OW  292   0.246   1.970   2.204  0.1170  0.1003  0.1382
   98SOL    HW1  293   0.256   1.892   2.138  1.4569 -3.6242 -0.1683
   98SOL    HW2  294   0.175   2.032   2.175  2.1280 -2.1501 -1.4299
   99SOL     OW  295   3.002   0.428   1.607  0.3562 -0.4012  0.2699
   99SOL    HW1  296   2.954   0.338   1.606 -0.1751 -1.1295 -0.7698
   99SOL    HW2  297   3.021   0.464   1.701  1.9127  0.4760 -0.3146
  100SOL     OW  298   2.211   0.266   2.409 -0.4867  0.9984  0.4880
  100SOL    HW1  299   2.239   0.274   2.506 -1.2159  0.0575 -0.0980
  100SOL    HW2  300   2.124   0.212   2.408  1.0355  2.4474 -0.9805
  101SOL     OW  301   0.974   3.073   1.952 -1.0128  0.1880 -0.1595
  101SOL    HW1  302   1.034   0.030   1.904 -0.8485  2.8257 -2.1399
  101SOL    HW2  303   0.930   0.001   2.038 -0.3616  1.1228  2.2821
  102SOL     OW  304   0.721   0.700   1.642 -0.0765  0.8089 -0.2553
  102SOL    HW1  305   0.677   0.757   1.715  0.8360  2.3025 -2.5138
  102SOL    HW2  306   0.806   0.660   1.675 -2.4054  3.2892 -0.9242
  103SOL     OW  307   0.467   0.822   2.774  0.0834 -0.2432  0.4469
  103SOL    HW1  308   0.380   0.850   2.824 -1.1993  0.0741  1.6689
  103SOL    HW2  309   0.540   0.894   2.776  1.1732  2.4900 -0.8176
  104SOL     OW  310   0.636   0.122   1.751  0.5667  0.6126  0.0011
  104SOL    HW1  311   0.722   0.173   1.736 -0.2288  1.1825  1.2932
  104SOL    HW2  312   0.592   0.140   1.841 -1.9057  0.4955 -2.0716
  105SOL     OW  313   2.738   2.655   2.013 -0.1939  0.1499  0.0235
  105SOL    HW1  314   2.723   2.648   1.913 -0.5160 -1.5160  1.1096
  105SOL    HW2  315   2.680   2.732   2.054  0.3192 -0.1324  0.2999
  106SOL     OW  316   0.575   3.108   0.804  0.0516 -0.5988 -0.4565
  106SOL    HW1  317   0.637   0.002   0.725  1.2667 -2.6355  2.1624
  106SOL    HW2  318   0.615   3.043   0.876  1.2796  0.6473 -0.4071
  107SOL     OW  319   2.990   1.875   1.085 -1.0264  0.0298 -0.1999
  107SOL    HW1  320   2.992   1.966   1.127  0.6727 -0.5086  0.2386
  107SOL    HW2  321   2.901   1.830   1.084  0.6793 -3.4176 -0.5070
  108SOL     OW  322   0.362   2.443   0.767  0.2523 -0.2599  0.3935
  108SOL    HW1  323   0.352   2.439   0.866  5.4386 -1.9468 -2.4136
  108SOL    HW2  324   0.360   2.344   0.733  2.7134 -2.5220  0.4632
  109SOL     OW  325   1.619   2.783   0.702  0.4096  0.5218  0.7206
  109SOL    HW1  326   1.624   2.811   0.798  1.4892 -1.0089 -3.6573
  109SOL    HW2  327   1.713   2.755   0.675 -0.2030  1.2775  0.1458
  110SOL     OW  328   1.813   2.016   0.743 -0.3085  0.3954  0.2585
  110SOL    HW1  329   1.836   1.917   0.723  0.8722 -3.5774  1.2489
  110SOL    HW2  330   1.833   2.043   0.837  1.6432  1.1651 -0.4418
  111SOL     OW  331   1.815   2.660   1.867 -0.6300  0.3739 -0.0472
  111SOL    HW1  332   1.898   2.618   1.825 -0.1682  0.3152 -0.2338
  111SOL    HW2  333   1.828   2.658   1.969  0.2930  0.5359  0.0915
  112SOL     OW  334   1.698   2.368   2.546 -0.5184 -0.0142 -0.7441
  112SOL    HW1  335   1.706   2.385   2.649 -1.2953  2.5697 -0.7763
  112SOL    HW2  336   1.637   2.439   2.505  2.5827  2.0619 -2.2676
  113SOL     OW  337   2.470   2.342   2.088 -0.1206  0.4430 -0.4206
  113SOL    HW1  338   2.490   2.398   2.172  1.6251  0.8899  1.8008
  113SOL    HW2  339   2.435   2.408   2.016  0.5224 -1.0291  0.6353
  114SOL     OW  340   0.209   1.043   1.561  0.4146  0.0242 -0.0790
  114SOL    HW1  341   0.190   1.134   1.525 -1.0363 -1.7314  0.3807
  114SOL    HW2  342   0.228   0.982   1.486 -2.0415  0.3834  0.4485
  115SOL     OW  343   2.574   0.547   2.839 -0.2408  0.0615 -0.4168
  115SOL    HW1  344   2.540   0.647   2.849 -1.8971  2.2968  3.8291
  115SOL    HW2  345   2.598   0.508   2.931  0.6244 -0.7254 -2.9191
  116SOL     OW  346   2.685   0.147   0.022 -0.7079 -0.5639 -0.1625
  116SOL    HW1  347   2.765   0.169   0.089  4.3204 -0.7786  1.0958
  116SOL    HW2  348   2.719   0.136   3.036 -0.6208  0.7256 -0.1301
  117SOL     OW  349   2.737   2.708   0.876 -0.4639 -0.9012  0.3343
  117SOL    HW1  350   2.654   2.756   0.843 -0.5785  2.7628  1.5604
  117SOL    HW2  351   2.717   2.643   0.948  2.3830  0.4250 -0.8437
  118SOL     OW  352   0.980   2.154   2.314  0.0345  0.6576 -0.1818
  118SOL    HW1  353   0.897   2.182   2.365  0.1526  1.0353  2.7502
  118SOL    HW2  354   1.045   2.118   2.386  1.6646  0.2429  2.7156
  119SOL     OW  355   0.704   2.614   0.231  0.0842  0.1984 -0.2045
  119SOL    HW1  356   0.651   2.701   0.221 -0.9919 -0.5320 -2.3545
  119SOL    HW2  357   0.804   2.642   0.245  2.6212  0.3346  2.0987
  120SOL     OW  358   1.460   0.785   0.396 -0.2250 -0.8280 -0.0437
  120SOL    HW1  359   1.394   0.719   0.360  1.9275  2.0478  1.3572
  120SOL    HW2  360   1.526   0.816   0.323  2.3285  0.7070  0.8293
  121SOL     OW  361   1.726   0.715   1.151 -0.5827 -0.1036 -0.3971
  121SOL    HW1  362   1.826   0.696   1.137  0.1092  0.4922  2.1636
  121SOL    HW2  363   1.715   0.808   1.195  0.2084  2.9146  1.0541
  122SOL     OW  364   2.051   1.683   2.116  0.0144  0.3111  0.2293
  122SOL    HW1  365   2.099   1.770   2.139 -0.3099 -0.5155  1.2597
  122SOL    HW2  366   1.956   1.692   2.083 -0.2241  0.0666 -1.5131
  123SOL     OW  367   0.331   1.048   0.519 -0.3271  0.0966  0.2897
  123SOL    HW1  368   0.303   1.142   0.534 -2.0284 -1.4430  2.4345
  123SOL    HW2  369   0.343   1.001   0.610  2.6304 -0.7759 -1.6494
  124SOL     OW  370   0.598   0.430   2.733 -0.4942  0.0421 -0.0658
  124SOL    HW1  371   0.632   0.410   2.827 -1.0762  0.5390  1.0870
  124SOL    HW2  372   0.670   0.450   2.670 -0.0597 -2.7685 -1.7283
  125SOL     OW  373   0.734   0.071   2.841  0.3321 -0.0008  0.3207
  125SOL    HW1  374   0.795   0.014   2.904 -0.0106 -0.2389 -2.5760
  125SOL    HW2  375   0.728   0.023   2.750  0.8908 -1.3490 -2.0934
  126SOL     OW  376   0.688   1.450   0.059  0.2937 -0.5552 -0.1544
  126SOL    HW1  377   0.660   1.389   3.094 -1.3553  0.6207 -2.1573
  126SOL    HW2  378   0.783   1.434   0.085 -0.4216  1.0381  0.0450
  127SOL     OW  379   1.230   2.682   0.884 -0.8117  0.6209  0.2906
  127SOL    HW1  380   1.269   2.743   0.961  2.0629  0.0941  1.9774
  127SOL    HW2  381   1.305   2.635   0.824  1.6999 -0.4964 -1.8516
  128SOL     OW  382   1.614   1.951   0.186  0.6194 -0.4095 -0.0084
  128SOL    HW1  383   1.513   1.938   0.174 -2.5944  1.2218  2.9241
  128SOL    HW2  384   1.660   1.941   0.097 -2.0219  0.4467 -1.0167
  129SOL     OW  385   1.951   1.636   1.706  0.0901  0.4103 -0.8110
  129SOL    HW1  386   1.970   1.629   1.604 -1.4968  3.5773 -0.9304
  129SOL    HW2  387   1.889   1.561   1.735 -0.5610 -0.7996  0.1270
  130SOL     OW  388   2.217   1.647   1.749 -0.1580 -0.0966  0.6024
  130SOL    HW1  389   2.113   1.638   1.751 -1.3811 -0.5887  0.0386
  130SOL    HW2  390   2.263   1.606   1.829  1.2237  0.2500  1.4912
  131SOL     OW  391   0.971   2.392   1.874  0.1025  0.0606  0.0116
  131SOL    HW1  392   1.006   2.480   1.828  3.3777  1.0028 -3.2499
  131SOL    HW2  393   0.881   2.367   1.839  2.1046  0.6016  1.3744
  132SOL     OW  394   2.604   1.483   0.746 -0.0023 -0.0381 -0.0635
  132SOL    HW1  395   2.685   1.425   0.716  1.6993  1.3263  1.2449
  132SOL    HW2  396   2.632   1.574   0.781 -1.0911 -0.3435  1.7488
  133SOL     OW  397   0.874   1.991   1.822 -0.2954 -0.0552 -0.2702
  133SOL    HW1  398   0.814   2.043   1.763  2.4548 -1.9442  1.0035
  133SOL    HW2  399   0.910   2.044   1.901  0.2326  0.1460 -1.5096
  134SOL     OW  400   3.064   1.697   0.833  0.2005  0.0748  0.2267
  134SOL    HW1  401   2.993   1.622   0.837  0.5746  0.9961  0.5181
  134SOL    HW2  402   0.044   1.671   0.797 -2.2371  3.6768 -2.6978
  135SOL     OW  403   2.058   1.401   2.818  0.1312 -0.2518 -0.1869
  135SOL    HW1  404   2.066   1.495   2.782 -0.7217 -0.9478  0.1198
  135SOL    HW2  405   2.071   1.327   2.752  0.1500  2.5561  0.9485
  136SOL     OW  406   3.070   1.582   1.394 -0.1593 -0.1421  0.4622
  136SOL    HW1  407   3.092   1.586   1.290  1.5031  0.8414 -0.8521
  136SOL    HW2  408   3.087   1.676   1.436 -2.0797 -2.9897  1.4744
  137SOL     OW  409   2.831   1.323   2.887 -0.1143  0.0162 -0.4282
  137SOL    HW1  410   2.794   1.356   2.802  1.0580 -2.8955  3.4151
  137SOL    HW2  411   2.828   1.400   2.952 -2.2146 -0.5153 -0.2863
  138SOL     OW  412   2.765   0.418   0.852  0.7357  0.2776 -0.1036
  138SOL    HW1  413   2.716   0.415   0.940 -1.8829 -1.8461 -0.7211
  138SOL    HW2  414   2.731   0.495   0.794 -0.1352  3.7619  2.9518
  139SOL     OW  415   2.156   2.438   2.639 -0.3095 -0.0275  0.0565
  139SOL    HW1  416   2.240   2.497   2.652  0.1968  3.6967  0.8485
  139SOL    HW2  417   2.169   2.394   2.545  2.6386  1.1492 -2.3589
  140SOL     OW  418   0.783   1.457   0.882  0.9570  0.5640 -0.3455
  140SOL    HW1  419   0.716   1.522   0.835 -0.5387  1.7093 -0.8727
  140SOL    HW2  420   0.835   1.395   0.819  1.9278  0.9318 -1.8141
  141SOL     OW  421   1.123   1.256   0.843  0.2022 -0.3936  0.0541
  141SOL    HW1  422   1.171   1.324   0.901  2.1256 -0.3130  3.5664
  141SOL    HW2  423   1.177   1.239   0.756 -0.0908  1.3419 -0.8507
  142SOL     OW  424   1.323   0.729   1.165  0.1641 -0.6343  0.0673
  142SOL    HW1  425   1.227   0.690   1.170  1.0259  0.1535  0.2000
  142SOL    HW2  426   1.380   0.692   1.084  3.6174 -0.8046 -0.4452
  143SOL     OW  427   0.315   0.568   2.967 -0.7910 -0.1118 -0.3759
  143SOL    HW1  428   0.229   0.620   2.977  0.1980 -0.1026  1.2899
  143SOL    HW2  429   0.345   0.561   2.868  0.6811 -0.2833  0.7780
  144SOL     OW  430   2.606   3.034   0.255 -0.0747  0.0275  0.1331
  144SOL    HW1  431   2.658   3.029   0.167  0.5061  2.0320 -1.6151
  144SOL    HW2  432   2.536   3.109   0.254  1.1910  0.7152 -1.6429
  145SOL     OW  433   2.291   3.054   2.564  0.4181  0.6650  0.3478
  145SOL    HW1  434   2.349   3.080   2.483  1.6194  1.0307 -1.1935
  145SOL    HW2  435   2.290   0.020   2.630 -1.6779 -2.1700 -0.0724
  146SOL     OW  436   3.050   2.554   0.492 -0.2264  0.2983  0.5209
  146SOL    HW1  437   0.012   2.490   0.464 -0.8449 -0.5041  1.8915
  146SOL    HW2  438   3.004   2.599   0.414  0.3212  1.2110  2.5535
  147SOL     OW  439   1.427   0.793   3.079  0.6135  0.4684  0.0065
  147SOL    HW1  440   1.328   0.803   3.073 -0.5714  0.4152  1.6601
  147SOL    HW2  441   1.450   0.695   3.102  1.2631 -2.1918 -0.0774
  148SOL     OW  442   1.223   0.137   0.110  0.1460  0.0627 -0.0249
  148SOL    HW1  443   1.279   0.164   0.185  4.2914 -1.7520 -2.2172
  148SOL    HW2  444   1.292   0.113   0.034  0.9145  0.6477  0.8410
  149SOL     OW  445   1.469   1.112   2.891  0.0544 -0.0040 -0.0050
  149SOL    HW1  446   1.527   1.054   2.949 -3.5057 -0.3230 -1.2480
  149SOL    HW2  447   1.413   1.049   2.838 -0.4065 -1.5724 -0.2966
  150SOL     OW  448   1.212   2.964   3.000  0.5752  0.1223 -0.9463
  150SOL    HW1  449   1.268   2.883   2.992 -4.3589  2.4623  0.6864
  150SOL    HW2  450   1.268   3.048   3.007  0.9014  0.8496  2.0505
  151SOL     OW  451   0.111   1.250   0.008  0.7817 -0.8368  0.1874
  151SOL    HW1  452   0.038   1.224   0.077 -1.8716 -2.5349  0.7249
  151SOL    HW2  453   0.206   1.228   0.034 -0.4998  1.2737 -0.3603
  152SOL     OW  454   0.750   0.275   1.464 -0.1426  0.5103 -0.1724
  152SOL    HW1  455   0.676   0.324   1.419  3.1135 -0.3624  1.8755
  152SOL    HW2  456   0.722   0.178   1.481  3.8962 -0.6996  2.2211
  153SOL     OW  457   2.610   3.045   1.936 -0.2906  0.8703 -0.0760
  153SOL    HW1  458   2.512   3.062   1.960  1.9625 -0.3347 -2.4316
  153SOL    HW2  459   2.662   0.016   1.929 -2.7973 -4.8881 -1.7134
  154SOL     OW  460   2.366   0.018   1.985  0.0718 -1.0905 -0.8149
  154SOL    HW1  461   2.324   3.048   2.041 -0.4456 -0.6809 -0.6352
  154SOL    HW2  462   2.346   0.111   2.025 -0.1866  1.2216  2.5884
  155SOL     OW  463   0.019   1.347   0.593 -0.4060 -0.1966 -0.3728
  155SOL    HW1  464   0.104   1.307   0.625 -2.0999  0.9492  0.1040
  155SOL    HW2  465   3.049   1.289   0.582  2.6298 -0.2994  1.0771
  156SOL     OW  466   1.757   1.258   0.144 -0.7846 -0.7046  1.1066
  156SOL    HW1  467   1.679   1.206   0.184  0.6630 -1.0822 -2.0711
  156SOL    HW2  468   1.789   1.211   0.056 -1.0777  0.8872  2.0155
  157SOL     OW  469   0.903   2.566   3.067 -0.3859 -0.0090  0.5405
  157SOL    HW1  470   0.974   2.536   0.019 -1.8076 -2.6337  0.0614
  157SOL    HW2  471   0.821   2.504   3.078  1.3292 -1.1532 -0.6781
  158SOL     OW  472   1.854   0.850   1.565 -0.3235  0.0205 -0.2254
  158SOL    HW1  473   1.940   0.883   1.607  0.6057  0.6438  1.6253
  158SOL    HW2  474   1.789   0.927   1.539 -0.3007  1.4159 -1.6016
  159SOL     OW  475   2.972   0.357   0.525  0.7111  0.0982 -0.3193
  159SOL    HW1  476   2.920   0.360   0.439 -0.3942 -0.0763  1.0271
  159SOL    HW2  477   2.940   0.278   0.577 -0.7564  2.6114  1.1295
  160SOL     OW  478   2.444   2.020   1.778  0.7678 -0.0315  0.3104
  160SOL    HW1  479   2.507   1.942   1.767  1.6061  0.0152 -0.9020
  160SOL    HW2  480   2.353   1.993   1.737 -0.3250 -0.9613 -0.5852
  161SOL     OW  481   0.140   0.169   0.108 -0.3984  0.2544 -0.1433
  161SOL    HW1  482   0.136   0.063   0.099 -1.2299  1.1337 -0.5110
  161SOL    HW2  483   0.196   0.191   0.191 -0.0647  0.2791  1.0262
  162SOL     OW  484   0.579   0.828   2.088 -0.2211  0.6307 -0.1933
  162SOL    HW1  485   0.479   0.814   2.108  1.1057 -0.6188 -0.3051
  162SOL    HW2  486   0.632   0.770   2.152  0.3186  0.3248 -0.6834
  163SOL     OW  487   2.865   3.107   2.615 -0.0474  0.3388  0.3139
  163SOL    HW1  488   2.832   0.092   2.597  2.2472  0.5062  2.4201
  163SOL    HW2  489   2.856   3.057   2.526  2.5282  0.7217  1.1702
  164SOL     OW  490   2.388   1.582   3.056  0.1752  0.1275  0.5628
  164SOL    HW1  491   2.345   1.657   3.003 -1.4853 -2.9753 -1.5468
  164SOL    HW2  492   2.327   1.497   3.052 -4.0228 -0.4447  0.6369
  165SOL     OW  493   0.408   0.082   1.245 -0.2025  0.9741 -0.4691
  165SOL    HW1  494   0.481   0.069   1.310 -1.7336  0.3547  2.4595
  165SOL    HW2  495   0.329   0.127   1.295 -1.1133  0.5520  1.8515
  166SOL     OW  496   2.898   0.174   0.194  0.0375 -0.3223  0.4446
  166SOL    HW1  497   2.997   0.170   0.176  3.2975 -0.3995  2.1637
  166SOL    HW2  498   2.877   0.102   0.262  1.2516  0.1542 -0.1638
  167SOL     OW  499   2.190   0.641   0.847 -0.6394 -0.3377 -0.3667
  167SOL    HW1  500   2.263   0.687   0.898 -2.6210  1.6700 -2.0364
  167SOL    HW2  501   2.213   0.543   0.836  0.7751  0.5922  0.7734
  168SOL     OW  502   1.090   0.516   2.417  0.0598 -0.7003 -0.4209
  168SOL    HW1  503   1.066   0.546   2.517 -3.2854  3.0351 -0.2388
  168SOL    HW2  504   1.052   0.585   2.354 -1.0766  0.8002  1.1276
  169SOL     OW  505   0.856   1.735   1.105  0.6702  0.3645  0.2593
  169SOL    HW1  506   0.947   1.781   1.104 -2.6123  2.2408 -2.5220
  169SOL    HW2  507   0.781   1.801   1.087 -0.7189 -3.2318  1.7989
  170SOL     OW  508   2.935   0.141   1.689 -0.2394 -0.0981 -0.0471
  170SOL    HW1  509   3.002   0.093   1.629  1.2225  2.4916  2.4752
  170SOL    HW2  510   2.860   0.078   1.697  3.2103 -0.1269  1.5000
  171SOL     OW  511   2.405   1.336   2.201  0.2077 -0.0276  0.2299
  171SOL    HW1  512   2.466   1.416   2.175  0.9739 -1.2267  1.7994
  171SOL    HW2  513   2.413   1.265   2.134 -2.5892  2.5585 -0.1618
  172SOL     OW  514   1.441   2.233   1.067  0.8637  0.1420 -0.1385
  172SOL    HW1  515   1.339   2.249   1.077 -0.3534  0.6870  0.4564
  172SOL    HW2  516   1.466   2.133   1.068  1.8878 -0.2679  1.2521
  173SOL     OW  517   2.228   2.445   3.061  0.9478 -0.4139  0.6080
  173SOL    HW1  518   2.149   2.400   3.110  1.5687  0.8465  1.8524
  173SOL    HW2  519   2.303   2.479   0.005 -1.0459 -2.1446 -1.5439
  174SOL     OW  520   1.834   0.641   0.243 -0.1840  0.2704  0.0029
  174SOL    HW1  521   1.858   0.578   0.167  0.6185  0.6117  1.9500
  174SOL    HW2  522   1.903   0.659   0.313 -1.3765 -3.8306 -1.5976
  175SOL     OW  523   0.717   1.924   1.384  0.0641 -0.3382 -0.8571
  175SOL    HW1  524   0.632   1.884   1.339  0.2307 -0.4126  1.3476
  175SOL    HW2  525   0.780   1.855   1.416 -0.5047  2.1149 -0.2660
  176SOL     OW  526   0.322   0.037   0.775  0.0871  0.1981 -0.3165
  176SOL    HW1  527   0.420   0.026   0.788 -0.3695  1.6405  1.6073
  176SOL    HW2  528   0.283   3.049   0.774  1.7618 -2.5713 -0.8849
  177SOL     OW  529   3.026   1.389   0.257 -0.1119 -0.3858  0.4970
  177SOL    HW1  530   3.034   1.288   0.246  0.3907 -0.6423 -0.1365
  177SOL    HW2  531   3.096   1.425   0.315 -2.3422 -0.7379 -3.7169
  178SOL     OW  532   2.780   2.422   2.164  0.2325 -0.1222  0.6352
  178SOL    HW1  533   2.753   2.501   2.109 -0.5139 -1.5887  1.8227
  178SOL    HW2  534   2.756   2.448   2.259 -0.3579  2.3557 -0.0985
  179SOL     OW  535   2.196   3.089   0.074  0.3147 -0.4505 -0.0143
  179SOL    HW1  536   2.219   0.065   0.028  2.2445 -0.1930  0.0513
  179SOL    HW2  537   2.200   3.100   0.175 -1.1861  0.5684 -1.5436
  180SOL     OW  538   2.398   0.632   0.570 -0.2104  0.1170 -0.6322
  180SOL    HW1  539   2.355   0.720   0.585  0.5916 -0.2881  1.3703
  180SOL    HW2  540   2.455   0.600   0.645  0.8714  1.3926 -1.0444
  181SOL     OW  541   3.090   3.092   2.769  0.0538  0.3376 -0.2736
  181SOL    HW1  542   3.007   0.016   2.725  0.4057  0.8594 -1.1269
  181SOL    HW2  543   3.067   3.048   2.859  2.1732 -1.8866 -2.3269
  182SOL     OW  544   2.689   2.103   2.461  0.1696 -1.1036  0.4014
  182SOL    HW1  545   2.674   2.125   2.360 -0.8753  3.3375 -1.4233
  182SOL    HW2  546   2.783   2.067   2.469 -3.5905  0.1593  0.1935
  183SOL     OW  547   2.733   0.780   1.551  0.5463  0.9186 -0.3278
  183SOL    HW1  548   2.789   0.847   1.495 -0.1816  1.3182 -1.5544
  183SOL    HW2  549   2.711   0.817   1.644  3.1146  0.9730  2.7260
  184SOL     OW  550   0.122   1.351   1.154  0.4215  0.1179 -0.2594
  184SOL    HW1  551   0.129   1.449   1.144  2.8520 -1.9208  1.2567
  184SOL    HW2  552   0.068   1.321   1.071 -0.3772 -1.6632 -0.8731
  185SOL     OW  553   0.026   0.016   1.232  0.3941 -0.2392 -0.3393
  185SOL    HW1  554   0.110   3.102   1.180  0.6945  0.8291 -1.9711
  185SOL    HW2  555   3.109   0.110   1.213 -3.8008  0.8354 -1.5996
  186SOL     OW  556   2.065   2.484   2.196  0.1374 -0.3691 -0.2498
  186SOL    HW1  557   2.014   2.442   2.115 -0.4404 -2.5416  1.4343
  186SOL    HW2  558   2.099   2.411   2.250 -1.5934  2.4689 -2.9005
  187SOL     OW  559   0.291   1.302   0.623 -0.2268  0.0340 -0.2425
  187SOL    HW1  560   0.363   1.368   0.585 -0.4678 -0.9998  1.7395
  187SOL    HW2  561   0.280   1.319   0.723  0.0441 -0.5205  2.7678
  188SOL     OW  562   1.881   1.734   3.016  0.3618  0.3571  0.0209
  188SOL    HW1  563   1.863   1.832   3.029  0.9294  2.2909 -2.6425
  188SOL    HW2  564   1.961   1.708   3.069  1.4904  1.7831 -1.3852
  189SOL     OW  565   0.020   1.748   2.990  0.4426  0.0336 -0.3170
  189SOL    HW1  566   0.020   1.640   2.990  2.2970 -3.9865 -0.3604
  189SOL    HW2  567   0.086   1.782   2.918 -1.6192  0.1651  0.5999
  190SOL     OW  568   2.031   0.483   2.421 -0.3208 -0.3796 -0.2147
  190SOL    HW1  569   2.077   0.577   2.410  1.1192  2.9366 -0.0290
  190SOL    HW2  570   2.096   0.412   2.387 -0.9603  1.3924 -0.3581
  191SOL     OW  571   0.876   1.304   2.135 -0.4748  0.3640  0.0808
  191SOL    HW1  572   0.798   1.302   2.072 -0.6861 -1.5987  0.7172
  191SOL    HW2  573   0.856   1.242   2.216 -2.5479 -0.1011  1.3062
  192SOL     OW  574   1.657   1.350   1.992 -0.4004  0.4318  0.7660
  192SOL    HW1  575   1.653   1.438   1.938 -3.0114  0.5612  0.6375
  192SOL    HW2  576   1.721   1.294   1.942  0.6189 -0.5222  1.3796
  193SOL     OW  577   0.843   0.043   0.666 -0.2102  0.3987 -0.5181
  193SOL    HW1  578   0.875   3.081   0.599  2.3991  0.2035  1.3557
  193SOL    HW2  579   0.891   0.024   0.757  1.9034 -2.3370 -0.1943
  194SOL     OW  580   1.541   1.481   1.661  0.1496 -0.5548  0.9401
  194SOL    HW1  581   1.507   1.479   1.567 -1.3964  0.5911 -0.0297
  194SOL    HW2  582   1.466   1.455   1.726  0.6269 -0.2092  2.1016
  195SOL     OW  583   1.660   0.107   0.806  0.3915  0.0708 -0.0407
  195SOL    HW1  584   1.628   0.199   0.776 -4.3744  1.2162  0.7277
  195SOL    HW2  585   1.746   0.119   0.860 -1.4993  2.4383 -0.6214
  196SOL     OW  586   1.025   1.701   2.046  0.1760 -0.6918  0.1973
  196SOL    HW1  587   0.932   1.746   2.065 -2.0544  1.8251 -0.4279
  196SOL    HW2  588   1.040   1.692   1.947 -0.1786  0.8753  0.4725
  197SOL     OW  589   0.484   0.286   2.526  0.1416  0.1449  0.2266
  197SOL    HW1  590   0.523   0.332   2.609  1.0715 -2.1735 -0.5074
  197SOL    HW2  591   0.487   0.187   2.535 -0.2169  1.0168  0.3727
  198SOL     OW  592   2.970   1.084   1.080  0.1603 -0.0169  0.2736
  198SOL    HW1  593   2.887   1.068   1.019 -0.3508 -0.2042 -0.9019
  198SOL    HW2  594   2.949   1.163   1.141  0.6113 -3.3019  2.9313
  199SOL     OW  595   0.597   2.377   1.162  0.3560  1.5021  0.1340
  199SOL    HW1  596   0.557   2.293   1.120 -0.3075  2.1381  1.3625
  199SOL    HW2  597   0.527   2.417   1.226  0.1176  0.9692 -0.7532
  200SOL     OW  598   2.889   1.876   2.730 -0.4973  0.2885 -0.1572
  200SOL    HW1  599   2.847   1.825   2.813 -0.0290 -2.0910  0.4355
  200SOL    HW2  600   2.866   1.829   2.645  4.2831 -0.6966  0.2009
  201SOL     OW  601   0.950   2.457   1.352 -0.0814  0.3595 -0.0479
  201SOL    HW1  602   1.009   2.454   1.265  0.5938  0.0119  0.7609
  201SOL    HW2  603   0.885   2.381   1.351 -0.8567  0.1658 -0.2427
  202SOL     OW  604   1.023   2.733   0.263  0.3468  0.3914  0.2100
  202SOL    HW1  605   1.035   2.641   0.216  0.3941  0.5213 -0.9153
  202SOL    HW2  606   1.085   2.805   0.225  0.3620  2.0634  1.8371
  203SOL     OW  607   1.861   3.030   2.766 -0.3580 -0.0751  0.1763
  203SOL    HW1  608   1.825   0.005   2.718 -2.2935 -0.6043 -0.3934
  203SOL    HW2  609   1.861   2.951   2.699  1.6492 -1.9260 -2.7980
  204SOL     OW  610   0.292   1.443   1.518  0.1545  0.0809 -0.5163
  204SOL    HW1  611   0.296   1.370   1.445 -0.9726  1.6596  0.4665
  204SOL    HW2  612   0.384   1.479   1.533  1.7389  1.0836 -0.3464
  205SOL     OW  613   2.252   1.392   2.412 -0.2471 -0.8644 -0.1471
  205SOL    HW1  614   2.313   1.376   2.330 -0.3426 -0.0430 -1.0357
  205SOL    HW2  615   2.167   1.337   2.399 -0.6730  3.2620 -1.6765
  206SOL     OW  616   0.408   1.924   2.959  0.9657 -0.1814 -0.0955
  206SOL    HW1  617   0.402   1.863   2.879  1.1902  0.6664 -0.1041
  206SOL    HW2  618   0.338   1.998   2.946 -2.4920 -0.5728 -0.0378
  207SOL     OW  619   0.744   2.679   1.870  0.5247  0.1973  0.8103
  207SOL    HW1  620   0.804   2.750   1.831  1.3779 -2.9631 -1.5612
  207SOL    HW2  621   0.733   2.602   1.805  0.5199 -0.8731 -2.3584
  208SOL     OW  622   2.997   2.695   1.425  0.4672 -0.0009 -0.6029
  208SOL    HW1  623   2.999   2.671   1.522 -0.9214  0.5198 -1.2113
  208SOL    HW2  624   3.067   2.760   1.406  1.0113 -1.1329 -1.8329
  209SOL     OW  625   1.257   2.753   2.250  0.1582 -0.8272 -0.1054
  209SOL    HW1  626   1.219   2.659   2.259  0.1789  1.5485  2.8881
  209SOL    HW2  627   1.314   2.780   2.330 -2.7735 -2.1704 -2.8222
  210SOL     OW  628   2.767   1.041   2.188  0.5912  0.4267  0.2568
  210SOL    HW1  629   2.870   1.038   2.186  0.9518  3.2373  1.2188
  210SOL    HW2  630   2.730   1.006   2.274  0.3766 -0.0932 -4.3745
  211SOL     OW  631   1.420   3.032   2.089 -0.7723 -0.0171 -0.2241
  211SOL    HW1  632   1.501   2.998   2.031  0.8852  1.2931 -1.6788
  211SOL    HW2  633   1.333   3.005   2.048 -0.3490  1.6118 -2.1991
  212SOL     OW  634   1.620   2.761   1.699  0.2657 -0.6451  0.0173
  212SOL    HW1  635   1.683   2.738   1.780 -0.4527  0.5177  3.3703
  212SOL    HW2  636   1.673   2.813   1.631  1.8229  0.7264 -0.0336
  213SOL     OW  637   2.332   0.579   1.793  0.3716 -0.0710  0.1530
  213SOL    HW1  638   2.327   0.591   1.694 -2.1372 -1.4010 -1.5505
  213SOL    HW2  639   2.427   0.558   1.814 -1.6106  0.4409 -2.1332
  214SOL     OW  640   0.761   2.155   0.861  0.2656 -0.4421 -0.0340
  214SOL    HW1  641   0.819   2.078   0.827  1.9582  0.0103 -1.4783
  214SOL    HW2  642   0.773   2.236   0.795  0.5838 -0.1319  1.9950
  215SOL     OW  643   2.472   1.811   0.670 -0.4290 -0.2269  0.0361
  215SOL    HW1  644   2.557   1.830   0.718 -0.6243 -0.1496  0.4053
  215SOL    HW2  645   2.470   1.840   0.571 -0.0977  0.1250  2.2803
  216SOL     OW  646   2.751   0.625   1.966 -0.1657 -0.3408  0.1043
  216SOL    HW1  647   2.702   0.677   2.041  0.1283  4.5817 -0.5915
  216SOL    HW2  648   2.690   0.593   1.889 -3.3172 -0.5792 -0.5354
  217SOL     OW  649   2.105   0.517   1.354  0.1666  0.1854 -0.2393
  217SOL    HW1  650   2.165   0.479   1.284 -1.2648  0.7457 -0.3953
  217SOL    HW2  651   2.070   0.607   1.323 -3.8084  0.2660  1.5811
  218SOL     OW  652   1.908   2.356   1.185 -0.2310 -0.0939  0.6805
  218SOL    HW1  653   1.950   2.438   1.145  0.5956 -3.2091 -0.2768
  218SOL    HW2  654   1.842   2.371   1.260  0.6414 -2.5295  1.9360
  219SOL     OW  655   1.967   2.324   3.098  0.0404  0.1409 -0.1172
  219SOL    HW1  656   1.981   2.225   3.072 -2.0643 -2.4260  0.4720
  219SOL    HW2  657   1.917   2.319   0.079  1.8434 -0.7246  1.6551
  220SOL     OW  658   1.544   2.667   0.086 -0.2209 -0.3541  0.1881
  220SOL    HW1  659   1.536   2.677   0.185 -2.8806  0.6417  0.1424
  220SOL    HW2  660   1.641   2.688   0.059 -0.3524 -1.7073  0.8306
  221SOL     OW  661   3.064   2.193   1.860 -0.3435  0.4468 -0.5499
  221SOL    HW1  662   2.966   2.227   1.861  1.6454 -0.3337  0.7600
  221SOL    HW2  663   3.083   2.149   1.950  0.9713  2.3618 -1.2963
  222SOL     OW  664   2.014   2.534   0.983 -0.8868 -0.1751 -0.2589
  222SOL    HW1  665   2.119   2.538   0.973  0.8063 -0.2387 -1.7622
  222SOL    HW2  666   1.981   2.473   0.913  0.2508  0.4984  2.4776
  223SOL     OW  667   1.413   2.535   1.447  0.1816 -0.0306 -0.0466
  223SOL    HW1  668   1.442   2.537   1.543  1.8637  1.7887 -1.7105
  223SOL    HW2  669   1.443   2.451   1.397  2.8439  1.5598 -0.6976
  224SOL     OW  670   2.764   2.377   1.370  0.3710  0.4155  0.0218
  224SOL    HW1  671   2.860   2.397   1.336  0.2026  2.5263 -2.8974
  224SOL    HW2  672   2.762   2.376   1.470 -1.6749  1.0910  1.0949
  225SOL     OW  673   2.196   1.988   0.612  0.3686  0.1632  0.1002
  225SOL    HW1  674   2.248   1.902   0.619  0.0367  0.9479 -2.3569
  225SOL    HW2  675   2.141   2.018   0.692 -1.2082 -1.4702 -0.3231
  226SOL     OW  676   1.264   2.397   0.300  0.2709 -0.4717 -0.2983
  226SOL    HW1  677   1.329   2.317   0.306 -1.0951  0.4844 -1.0032
  226SOL    HW2  678   1.281   2.463   0.376 -0.0079 -0.6098  0.0945
  227SOL     OW  679   2.210   0.984   0.567  0.0032 -0.1615 -0.3518
  227SOL    HW1  680   2.137   1.045   0.535 -2.1452 -0.5161 -1.1054
  227SOL    HW2  681   2.159   0.905   0.605  2.0083  0.4979 -0.3989
  228SOL     OW  682   1.842   0.471   0.031  0.0261  0.6421  0.2730
  228SOL    HW1  683   1.910   0.400   0.011  0.8542  2.6985  0.6990
  228SOL    HW2  684   1.767   0.423   0.077  1.3786  0.9328 -0.3075
  229SOL     OW  685   2.684   0.917   2.397 -0.0728 -0.0476 -0.0328
  229SOL    HW1  686   2.595   0.866   2.417  0.3825 -0.9706 -0.4422
  229SOL    HW2  687   2.711   0.960   2.483  0.6418 -4.1105 -0.5055
  230SOL     OW  688   0.444   1.280   0.992  0.4442  0.0483 -0.0938
  230SOL    HW1  689   0.476   1.284   1.089  0.3671  2.4784 -2.2969
  230SOL    HW2  690   0.511   1.230   0.927 -0.3777  0.2842 -1.0430
  231SOL     OW  691   2.611   0.272   2.759  0.0584  0.1262  0.1674
  231SOL    HW1  692   2.618   0.370   2.778  0.1719  0.5138 -1.1040
  231SOL    HW2  693   2.671   0.262   2.676  0.8431  0.3649 -1.2739
  232SOL     OW  694   2.910   2.042   0.621 -0.6091  0.2187 -0.0940
  232SOL    HW1  695   2.971   2.015   0.702  0.1208 -1.5064  1.1868
  232SOL    HW2  696   2.876   2.138   0.637 -2.4832  0.8807 -0.1050
  233SOL     OW  697   1.500   2.496   2.423  0.6642 -0.4497  0.7313
  233SOL    HW1  698   1.484   2.589   2.466  1.4414  0.2858  2.5363
  233SOL    HW2  699   1.512   2.501   2.317  0.5016  0.3449 -1.9362
  234SOL     OW  700   1.316   1.804   1.252 -0.1953 -0.3059 -0.0731
  234SOL    HW1  701   1.339   1.791   1.350 -1.0432 -0.9303 -0.4085
  234SOL    HW2  702   1.356   1.887   1.209 -3.1545  0.0606 -1.3522
  235SOL     OW  703   1.062   1.833   1.735  0.1829 -0.0058  0.5542
  235SOL    HW1  704   0.994   1.898   1.772  2.0361  0.1603 -2.7676
  235SOL    HW2  705   1.024   1.777   1.654  1.6622 -1.7862 -2.4092
  236SOL     OW  706   1.035   2.619   2.834  0.0416  0.0230 -0.2808
  236SOL    HW1  707   1.109   2.554   2.801  1.0566 -0.3061  0.3416
  236SOL    HW2  708   0.980   2.575   2.904  1.4707  2.2849 -2.1869
  237SOL     OW  709   0.633   0.024   1.420 -0.0588 -0.2978  0.4236
  237SOL    HW1  710   0.690   3.101   1.344 -1.4548 -0.0515  2.3497
  237SOL    HW2  711   0.620   3.057   1.483 -1.3460  5.3945 -0.2453
  238SOL     OW  712   1.078   0.870   0.325 -0.2122 -0.2386 -0.2874
  238SOL    HW1  713   1.145   0.866   0.401 -0.9598 -1.9923 -0.7938
  238SOL    HW2  714   1.018   0.951   0.328  1.8450  1.2895 -1.7404
  239SOL     OW  715   2.488   0.812   2.849 -0.0042 -0.1184  0.2941
  239SOL    HW1  716   2.408   0.831   2.788 -1.6573 -1.0127 -1.0117
  239SOL    HW2  717   2.453   0.802   2.946  0.3475 -2.0567  2.9492
  240SOL     OW  718   2.632   1.986   0.927  0.1052 -0.3246 -0.4905
  240SOL    HW1  719   2.604   1.976   1.023  1.4011 -0.3964  0.6062
  240SOL    HW2  720   2.678   1.903   0.890 -0.5129 -1.2999  0.3784
  241SOL     OW  721   1.053   1.553   0.955 -0.1937 -0.6195 -0.1227
  241SOL    HW1  722   1.111   1.485   0.994 -2.0126 -1.8606 -1.2571
  241SOL    HW2  723   0.965   1.560   1.003  1.4495  0.6472 -1.0927
  242SOL     OW  724   1.022   0.518   0.775 -0.4474  0.0400 -0.2708
  242SOL    HW1  725   1.034   0.618   0.749  0.4782  2.4960  0.7062
  242SOL    HW2  726   1.036   0.450   0.700 -0.7044 -0.5588  2.0513
  243SOL     OW  727   0.388   0.604   0.964  0.3822 -0.1721  0.2825
  243SOL    HW1  728   0.362   0.539   1.035 -0.6789  2.1752  0.5786
  243SOL    HW2  729   0.421   0.696   1.000  2.4883  1.0005 -1.7802
  244SOL     OW  730   1.273   0.196   0.368  0.1940 -0.0691 -0.3301
  244SOL    HW1  731   1.246   0.138   0.447 -1.0811  2.8120 -0.4039
  244SOL    HW2  732   1.203   0.264   0.347  2.5609 -0.6771 -2.1275
  245SOL     OW  733   2.038   0.724   0.403  0.1957 -0.3066 -0.2495
  245SOL    HW1  734   2.058   0.730   0.508  0.3038 -0.4330  1.0101
  245SOL    HW2  735   2.069   0.809   0.355 -0.5536  0.2800 -1.4250
  246SOL     OW  736   0.419   0.224   1.623  0.0210 -0.9479 -0.9650
  246SOL    HW1  737   0.501   0.161   1.616  0.9533 -5.4293  0.7309
  246SOL    HW2  738   0.438   0.326   1.628 -1.7020  0.3250 -0.4424
  247SOL     OW  739   1.085   0.122   1.777  0.3991 -0.0042  0.4263
  247SOL    HW1  740   1.151   0.156   1.711 -1.3137  2.7717  0.3876
  247SOL    HW2  741   1.006   0.183   1.777  2.4288 -0.0038 -0.2833
  248SOL     OW  742   0.529   1.712   1.934 -0.1677 -0.5104  0.2135
  248SOL    HW1  743   0.622   1.681   1.902  3.5100 -0.4372  0.5807
  248SOL    HW2  744   0.496   1.659   2.016 -0.2689  0.7957  1.6649
  249SOL     OW  745   0.501   2.425   0.213 -0.3668 -0.2975 -0.4625
  249SOL    HW1  746   0.411   2.471   0.232  1.1323 -0.0982 -0.8760
  249SOL    HW2  747   0.566   2.495   0.181  0.5766 -2.9717  1.2749
  250SOL     OW  748   0.769   0.361   2.011 -0.2728  0.5407 -0.2207
  250SOL    HW1  749   0.696   0.288   2.022 -0.9098 -2.5274  1.7532
  250SOL    HW2  750   0.797   0.364   1.911  0.5928  0.5319 -1.5312
  251SOL     OW  751   2.645   2.011   1.465  0.5486 -0.3778  0.1485
  251SOL    HW1  752   2.579   1.939   1.438  3.4696 -0.2154 -0.2343
  251SOL    HW2  753   2.591   2.097   1.488 -2.2742  3.2558 -1.0992
  252SOL     OW  754   1.339   0.460   1.847 -0.1206 -0.3884  0.8485
  252SOL    HW1  755   1.329   0.473   1.949 -0.1070 -1.3118  1.7251
  252SOL    HW2  756   1.438   0.449   1.829  0.1855  1.1690  0.9703
  253SOL     OW  757   2.402   2.051   2.219 -0.2487 -0.1261 -0.8668
  253SOL    HW1  758   2.418   2.134   2.165 -2.2320  1.2952  0.4444
  253SOL    HW2  759   2.411   2.063   2.323  0.0173  3.3340  2.8271
  254SOL     OW  760   0.770   1.503   1.203 -0.3203 -0.0034  0.1937
  254SOL    HW1  761   0.818   1.588   1.171 -0.5386  2.1201  1.2587
  254SOL    HW2  762   0.737   1.437   1.135  2.4438  0.1150  0.8074
  255SOL     OW  763   0.473   2.792   1.865  0.4391 -0.0467  0.3022
  255SOL    HW1  764   0.572   2.770   1.866  0.7020  2.1833 -2.0662
  255SOL    HW2  765   0.436   2.785   1.769  0.8628 -0.5819  0.2234
  256SOL     OW  766   0.405   2.718   0.779 -0.1533  0.0682 -0.3408
  256SOL    HW1  767   0.375   2.619   0.767 -3.8763 -3.6624  3.0621
  256SOL    HW2  768   0.507   2.732   0.766  3.3996  0.6821  2.5193
  257SOL     OW  769   1.177   2.518   2.303 -0.2680 -0.1002  0.2072
  257SOL    HW1  770   1.242   2.453   2.352  0.8541 -1.6344  1.1939
  257SOL    HW2  771   1.113   2.464   2.240  1.6409  2.6964 -0.3645
  258SOL     OW  772   1.418   2.134   1.948  0.1084  0.4707 -0.0313
  258SOL    HW1  773   1.331   2.176   1.911  0.1183  1.3006  0.9644
  258SOL    HW2  774   1.488   2.113   1.879 -1.5032 -1.0225 -1.2060
  259SOL     OW  775   0.934   0.846   2.399  0.1667 -0.1632  0.0399
  259SOL    HW1  776   0.873   0.904   2.335 -1.5301  1.3854 -1.8126
  259SOL    HW2  777   0.917   0.855   2.501  1.2007 -1.9323  2.0396
  260SOL     OW  778   2.599   0.568   2.566 -0.2101 -0.0875  0.2726
  260SOL    HW1  779   2.597   0.551   2.665  1.4658 -1.2420 -4.5009
  260SOL    HW2  780   2.570   0.480   2.517 -1.4409 -1.4057  1.5060
  261SOL     OW  781   0.877   1.257   0.730  0.0361 -0.0842 -0.5142
  261SOL    HW1  782   0.960   1.222   0.779 -1.5121  1.4592  1.7769
  261SOL    HW2  783   0.880   1.241   0.629 -3.4979 -0.5165  1.1110
  262SOL     OW  784   2.410   2.078   2.497 -0.9388 -0.2611  0.4396
  262SOL    HW1  785   2.369   2.002   2.548 -0.8603  1.4409  1.4993
  262SOL    HW2  786   2.516   2.074   2.509  2.5421  1.0869 -1.1957
  263SOL     OW  787   0.871   2.792   0.947  0.6519  0.1026 -0.3909
  263SOL    HW1  788   0.950   2.846   0.993  3.0843  1.4171  2.1234
  263SOL    HW2  789   0.864   2.704   0.992 -1.6052  1.9990 -2.6703
  264SOL     OW  790   2.836   2.216   0.343 -0.2278 -0.2418 -0.5864
  264SOL    HW1  791   2.831   2.232   0.445 -1.3779  2.3438  1.9089
  264SOL    HW2  792   2.779   2.130   0.329 -1.8593  1.3710  0.2323
  265SOL     OW  793   1.930   1.180   2.677 -0.3002  0.1920 -0.2165
  265SOL    HW1  794   1.835   1.142   2.663  2.0185 -0.1891  3.0657
  265SOL    HW2  795   1.946   1.264   2.620  0.5287 -1.9488 -0.0648
  266SOL     OW  796   1.231   1.932   2.109  0.2854  0.4636 -0.1439
  266SOL    HW1  797   1.260   2.009   2.047  0.2739  0.0263  1.5756
  266SOL    HW2  798   1.136   1.899   2.099  1.6478 -0.2647  0.5745
  267SOL     OW  799   2.455   0.795   2.473  0.1777 -0.1837 -0.3219
  267SOL    HW1  800   2.375   0.816   2.532 -1.2109  0.7558  0.2645
  267SOL    HW2  801   2.518   0.718   2.508  2.2370  0.8076  1.3512
  268SOL     OW  802   1.054   1.200   2.985  0.3814  0.0594 -0.7954
  268SOL    HW1  803   0.988   1.266   2.942 -2.3130 -0.8310  0.4275
  268SOL    HW2  804   1.138   1.245   3.016 -2.6202 -1.2672  1.5909
  269SOL     OW  805   3.105   2.119   2.117 -0.1492  0.0095 -0.2774
  269SOL    HW1  806   3.038   2.051   2.154 -0.7354  1.6503  0.9673
  269SOL    HW2  807   3.071   2.210   2.150  2.7681  1.9867 -0.7967
  270SOL     OW  808   3.100   1.910   0.118 -0.5835 -0.0203 -0.1344
  270SOL    HW1  809   3.028   1.881   0.181 -0.8264  1.5789  0.2008
  270SOL    HW2  810   0.012   1.839   0.045  1.8260  0.7732 -0.3628
  271SOL     OW  811   0.260   0.275   0.357 -0.3232 -0.3112  0.4153
  271SOL    HW1  812   0.294   0.250   0.447 -1.5595  0.8262 -3.0221
  271SOL    HW2  813   0.250   0.378   0.356  1.6149  0.0677 -1.0925
  272SOL     OW  814   0.055   2.788   0.570 -0.2080  0.4457 -0.0173
  272SOL    HW1  815   3.085   2.849   0.578  2.3425 -0.6757 -2.0187
  272SOL    HW2  816   0.026   2.696   0.551  4.3317 -0.0355  0.6524
  273SOL     OW  817   0.386   2.904   2.103 -0.0703  0.2580 -0.2690
  273SOL    HW1  818   0.285   2.910   2.104 -1.8532 -1.7946  0.4120
  273SOL    HW2  819   0.413   2.864   2.014  0.6661  1.8101 -0.6865
  274SOL     OW  820   0.322   0.448   1.177  0.0112 -0.3473 -0.0783
  274SOL    HW1  821   0.274   0.388   1.103 -1.8555 -0.5519 -0.8115
  274SOL    HW2  822   0.258   0.516   1.216 -1.9266  0.1587 -2.9310
  275SOL     OW  823   1.111   1.808   1.038 -0.1038 -0.1313 -0.1938
  275SOL    HW1  824   1.181   1.824   1.110  1.4378  0.9619 -1.5374
  275SOL    HW2  825   1.113   1.711   1.005 -0.7282  0.3669 -2.1874
  276SOL     OW  826   0.486   1.504   1.724  0.1372  0.1178 -0.2425
  276SOL    HW1  827   0.495   1.605   1.734  0.1288  1.0895  0.3986
  276SOL    HW2  828   0.437   1.467   1.805  2.1750 -0.5998 -2.4838
  277SOL     OW  829   1.211   2.253   1.848 -0.0398 -0.1533  0.2743
  277SOL    HW1  830   1.115   2.295   1.863  0.6565  0.7786 -0.3251
  277SOL    HW2  831   1.218   2.219   1.756  5.3055 -0.0575  1.8212
  278SOL     OW  832   2.229   2.939   2.141  0.3151  0.0677 -0.1487
  278SOL    HW1  833   2.206   2.841   2.117 -1.8094 -2.0809  1.1844
  278SOL    HW2  834   2.193   2.960   2.231  4.1529 -0.3607 -1.5832
  279SOL     OW  835   1.683   1.569   2.941 -0.3116  0.1553  0.4296
  279SOL    HW1  836   1.728   1.483   2.959  0.3468  1.2277 -0.1671
  279SOL    HW2  837   1.742   1.643   2.969  0.6305 -0.8052  0.0789
  280SOL     OW  838   1.744   0.391   0.524 -0.2323  0.2419  0.1215
  280SOL    HW1  839   1.703   0.367   0.614 -0.2918  2.6980  1.9619
  280SOL    HW2  840   1.738   0.494   0.520 -0.9494  2.6230  0.3568
  281SOL     OW  841   0.409   0.514   1.630  0.7925 -0.2542  0.2226
  281SOL    HW1  842   0.324   0.570   1.641 -0.7849  0.9494 -0.9786
  281SOL    HW2  843   0.495   0.550   1.673 -0.1584 -1.0400  0.1776
  282SOL     OW  844   0.194   2.894   0.787 -0.0035 -0.0566 -1.0397
  282SOL    HW1  845   0.128   2.844   0.736 -1.0805  1.1950  1.6828
  282SOL    HW2  846   0.271   2.831   0.795  0.4762 -0.9188 -0.1916
  283SOL     OW  847   1.464   2.309   1.323  0.2137  0.4583 -0.3196
  283SOL    HW1  848   1.438   2.292   1.226 -2.3540 -1.2804  1.3063
  283SOL    HW2  849   1.462   2.220   1.373 -3.9064  0.0100  0.5768
  284SOL     OW  850   2.439   2.668   1.367  0.2091  0.1516  0.2446
  284SOL    HW1  851   2.533   2.655   1.330 -0.6010  1.0435 -1.0793
  284SOL    HW2  852   2.372   2.612   1.310 -1.4598 -4.1671 -1.4051
  285SOL     OW  853   0.521   2.166   0.990 -0.3044  0.8297 -0.0469
  285SOL    HW1  854   0.617   2.190   0.956  2.8629  2.1484  0.1024
  285SOL    HW2  855   0.466   2.149   0.909 -0.6408 -0.7240 -2.4055
  286SOL     OW  856   3.094   2.660   1.712  0.6292 -0.1984  0.3764
  286SOL    HW1  857   3.032   2.682   1.789  0.2129 -1.1147 -1.6310
  286SOL    HW2  858   0.047   2.582   1.734 -0.2409  0.8229 -2.5098
  287SOL     OW  859   0.642   1.139   0.859  0.3921  0.3254 -0.7046
  287SOL    HW1  860   0.704   1.204   0.814  0.8514 -1.8897  0.0127
  287SOL    HW2  861   0.613   1.064   0.792 -3.5879 -0.0761 -1.2777
  288SOL     OW  862   1.146   1.849   2.590  0.2618 -0.0449  0.1553
  288SOL    HW1  863   1.195   1.865   2.501 -2.8757  1.0085  1.1986
  288SOL    HW2  864   1.195   1.789   2.656 -0.9704  0.0911 -0.3644
  289SOL     OW  865   2.551   1.529   2.766 -0.5865  0.2640 -0.1137
  289SOL    HW1  866   2.510   1.506   2.855 -0.3431  1.1572  3.1557
  289SOL    HW2  867   2.478   1.545   2.696  3.9657 -2.0456  0.9814
  290SOL     OW  868   1.245   1.374   1.063  0.1849  0.7648 -0.0646
  290SOL    HW1  869   1.228   1.285   1.117 -2.1882 -1.8251 -2.3154
  290SOL    HW2  870   1.310   1.440   1.113 -0.7624 -1.4109  0.3737
  291SOL     OW  871   1.162   0.910   0.065 -0.3493 -0.0076 -0.6308
  291SOL    HW1  872   1.135   0.873   0.157  0.0781  0.0078  1.2432
  291SOL    HW2  873   1.145   0.839   3.100 -0.9135 -0.9522  2.1586
  292SOL     OW  874   1.929   1.591   0.246  0.0502 -0.0761  0.8609
  292SOL    HW1  875   1.977   1.498   0.242 -1.5096  0.0848 -0.1568
  292SOL    HW2  876   1.830   1.577   0.250 -0.5931  0.9549  0.2020
  293SOL     OW  877   1.609   0.004   1.071 -0.0564 -0.6398 -0.6576
  293SOL    HW1  878   1.582   0.036   1.165 -1.3678  3.5262  0.7518
  293SOL    HW2  879   1.612   0.083   1.006 -1.2327 -1.0686  3.8569
  294SOL     OW  880   2.292   0.963   0.031 -0.1862  0.0356 -0.0017
  294SOL    HW1  881   2.342   0.876   0.015 -0.0191 -1.9018 -1.0778
  294SOL    HW2  882   2.255   0.966   0.129 -2.0044  2.2648  0.5392
  295SOL     OW  883   2.009   2.013   2.642  0.1671  0.2171 -0.0915
  295SOL    HW1  884   1.935   1.954   2.679 -0.8088 -3.2994 -1.6273
  295SOL    HW2  885   1.974   2.076   2.571 -1.7764 -0.6262  0.9787
  296SOL     OW  886   1.437   1.437   1.396  0.2151  0.0460  0.2266
  296SOL    HW1  887   1.432   1.488   1.310  0.3812 -0.7483  0.5271
  296SOL    HW2  888   1.342   1.434   1.438 -0.7431  1.1470  0.9318
  297SOL     OW  889   0.292   0.936   2.397  0.5501 -0.1957 -0.3650
  297SOL    HW1  890   0.289   0.846   2.435 -0.3244  0.3857  1.2408
  297SOL    HW2  891   0.366   0.986   2.443 -0.8052 -3.0904 -0.4323
  298SOL     OW  892   1.767   2.426   1.407 -0.2264 -0.5631  0.5151
  298SOL    HW1  893   1.715   2.356   1.456  2.1723 -0.3428 -1.9615
  298SOL    HW2  894   1.821   2.486   1.469 -1.8612  3.0444  0.3511
  299SOL     OW  895   1.093   0.573   2.679  0.1858  0.3848  0.1928
  299SOL    HW1  896   1.195   0.598   2.691  0.5363 -0.3462  0.2568
  299SOL    HW2  897   1.078   0.492   2.749 -0.1908 -4.0491  2.4781
  300SOL     OW  898   2.220   1.531   0.388  0.5765  0.0607 -0.2297
  300SOL    HW1  899   2.293   1.584   0.338  3.9697 -0.1637 -0.8812
  300SOL    HW2  900   2.165   1.473   0.322 -1.5981 -0.5136 -1.9772
  301SOL     OW  901   2.329   0.206   2.665 -0.5215 -0.2387 -0.9607
  301SOL    HW1  902   2.423   0.218   2.699 -3.1671 -0.2462  1.0307
  301SOL    HW2  903   2.274   0.171   2.744 -2.0559 -1.5205 -0.5876
  302SOL     OW  904   2.740   1.766   2.460  0.4102  0.3716 -0.4576
  302SOL    HW1  905   2.831   1.725   2.466 -1.1769 -0.7478 -1.5024
  302SOL    HW2  906   2.696   1.755   2.370 -0.0349  0.2044 -3.3510
  303SOL     OW  907   0.172   2.613   2.486 -0.0363  0.2451 -0.0404
  303SOL    HW1  908   0.225   2.543   2.439  0.7142 -1.6826 -0.4225
  303SOL    HW2  909   0.165   2.586   2.584  2.9217 -0.3350  1.4004
  304SOL     OW  910   2.893   1.275   1.247  0.1147  0.4380 -0.3485
  304SOL    HW1  911   2.803   1.309   1.280  1.0940  0.8141  0.0769
  304SOL    HW2  912   2.957   1.292   1.324  0.5140  2.6484  3.0726
  305SOL     OW  913   0.281   0.302   2.042  0.2567  0.2357 -0.3025
  305SOL    HW1  914   0.236   0.278   1.953 -1.0001  0.5558 -1.0332
  305SOL    HW2  915   0.222   0.264   2.119 -1.2709 -0.8679  2.2205
  306SOL     OW  916   1.224   1.462   0.525  0.1234 -0.1027  0.0339
  306SOL    HW1  917   1.207   1.361   0.542 -0.1214 -1.0378  0.4955
  306SOL    HW2  918   1.320   1.484   0.553 -0.4786 -1.0619  0.1663
  307SOL     OW  919   2.866   0.111   1.054 -0.4967 -0.5866  0.3752
  307SOL    HW1  920   2.936   0.067   0.992 -0.2407  0.9331 -0.5119
  307SOL    HW2  921   2.914   0.184   1.110  1.7986  0.9840  2.9106
  308SOL     OW  922   3.088   1.458   2.683 -0.1375 -0.5133  0.1335
  308SOL    HW1  923   3.058   1.537   2.627  1.7932 -1.0107  3.5129
  308SOL    HW2  924   3.066   1.373   2.636  1.7600 -1.9226 -0.4668
  309SOL     OW  925   0.196   1.852   2.761  0.0648  0.2533  0.1444
  309SOL    HW1  926   0.190   1.899   2.671  0.8420  2.5194  0.5098
  309SOL    HW2  927   0.253   1.765   2.755  0.9080 -1.4050  2.0501
  310SOL     OW  928   2.255   0.334   0.112 -0.4655  0.3391 -0.1370
  310SOL    HW1  929   2.282   0.379   0.023  0.3912  2.9191 -0.7609
  310SOL    HW2  930   2.201   0.399   0.171  2.9853  1.1617  1.5011
  311SOL     OW  931   2.084   1.036   2.824  0.2136  0.0955 -0.0211
  311SOL    HW1  932   2.023   1.090   2.763  2.3019 -1.2096  1.1415
  311SOL    HW2  933   2.038   0.989   2.903  1.6875 -1.0391  0.8202
  312SOL     OW  934   1.336   1.427   1.846  0.3360  0.0773  0.5967
  312SOL    HW1  935   1.325   1.508   1.913 -2.0941 -2.0762  0.2405
  312SOL    HW2  936   1.288   1.343   1.878 -2.7753  1.0315 -2.4567
  313SOL     OW  937   0.020   0.586   0.192 -0.4698 -0.0020  0.0271
  313SOL    HW1  938   0.019   0.518   0.120 -0.2169 -0.7655  0.9534
  313SOL    HW2  939   3.047   0.577   0.249 -2.1430  2.3215 -0.5066
  314SOL     OW  940   0.269   1.931   1.547 -0.0703 -0.0350 -0.1000
  314SOL    HW1  941   0.301   1.977   1.631 -2.8045 -0.2516  0.8693
  314SOL    HW2  942   0.339   1.864   1.506  0.4383 -0.9293 -1.4222
  315SOL     OW  943   1.108   1.641   1.353 -0.5593 -0.0797  0.4403
  315SOL    HW1  944   1.164   1.616   1.435  0.9662  0.4468  2.3586
  315SOL    HW2  945   1.161   1.705   1.291 -0.6823  0.8478  1.3097
  316SOL     OW  946   0.225   2.230   0.620  0.1020 -0.3777  0.3475
  316SOL    HW1  947   0.155   2.188   0.561 -1.6306  2.3740  0.8396
  316SOL    HW2  948   0.316   2.192   0.595 -1.9092  1.5711  2.0583
  317SOL     OW  949   2.536   0.125   1.286 -0.0882 -0.0398  1.0441
  317SOL    HW1  950   2.463   0.103   1.353 -0.9083 -0.7523 -2.3567
  317SOL    HW2  951   2.595   0.047   1.268 -1.8264  1.8145  1.8361
  318SOL     OW  952   1.176   2.930   0.162  0.2774 -0.0310  0.2389
  318SOL    HW1  953   1.234   2.917   0.083 -3.6328 -0.1061 -0.3608
  318SOL    HW2  954   1.171   3.029   0.189  0.1901  3.3889  2.9865
  319SOL     OW  955   1.761   0.072   2.541 -0.2223  0.0737  0.7072
  319SOL    HW1  956   1.687   0.145   2.535 -0.2911  3.2156 -1.3122
  319SOL    HW2  957   1.723   3.101   2.494  0.9675 -1.0560  2.2652
  320SOL     OW  958   2.616   2.066   1.975  0.1000  0.4653  0.3905
  320SOL    HW1  959   2.667   1.979   1.990 -0.4747  1.4305  1.9317
  320SOL    HW2  960   2.544   2.055   1.904 -2.2906  1.1367  6.6226
  321SOL     OW  961   0.218   2.534   3.089 -0.0408 -0.6434 -0.1686
  321SOL    HW1  962   0.240   2.556   0.079  1.5608 -0.7834  5.7117
  321SOL    HW2  963   0.204   2.431   3.085  2.7350 -3.7958  0.2997
  322SOL     OW  964   2.613   0.740   2.162  0.4897  0.7403  0.1603
  322SOL    HW1  965   2.583   0.834   2.178  1.7940 -1.3646 -0.0404
  322SOL    HW2  966   2.540   0.669   2.176 -2.5975 -0.1218  0.8043
  323SOL     OW  967   1.945   1.153   0.306 -0.3119 -0.1247 -0.5479
  323SOL    HW1  968   1.868   1.194   0.250 -0.2458 -0.4406 -1.2985
  323SOL    HW2  969   1.915   1.129   0.402 -1.5620 -0.6251 -0.6635
  324SOL     OW  970   0.062   0.404   1.388 -0.0057 -0.3732 -0.0237
  324SOL    HW1  971   0.113   0.493   1.388  2.7337 -0.0441  3.2076
  324SOL    HW2  972   0.006   0.403   1.471 -0.5967  1.6360 -0.0573
  325SOL     OW  973   2.848   3.038   1.499 -0.2525  0.6063  0.3656
  325SOL    HW1  974   2.949   3.005   1.498  1.8439 -0.9937 -0.8754
  325SOL    HW2  975   2.815   3.077   1.412  0.1781  1.7449 -0.2450
  326SOL     OW  976   1.545   2.583   0.359  0.0129 -0.3742  0.4794
  326SOL    HW1  977   1.461   2.621   0.404 -0.2201  1.8438  1.0230
  326SOL    HW2  978   1.554   2.485   0.390  0.6332 -2.0167 -0.1013
  327SOL     OW  979   1.975   2.231   0.364 -0.5781 -0.4640 -0.0242
  327SOL    HW1  980   1.904   2.165   0.403  2.0387 -1.4177  2.6529
  327SOL    HW2  981   2.069   2.187   0.368  1.0114 -0.2148 -1.8760
  328SOL     OW  982   2.789   2.265   1.875  0.3627 -0.0250  0.2769
  328SOL    HW1  983   2.726   2.193   1.912  0.2336  0.2496 -3.3592
  328SOL    HW2  984   2.795   2.338   1.944 -2.9887 -0.6173  1.4242
  329SOL     OW  985   0.130   2.346   1.283  0.6605 -0.1495  0.1921
  329SOL    HW1  986   0.081   2.374   1.372  1.5997 -1.7706 -1.4817
  329SOL    HW2  987   0.174   2.252   1.295 -0.9396 -3.3098  0.6659
  330SOL     OW  988   2.219   0.944   2.464  0.0020 -0.0650  0.5572
  330SOL    HW1  989   2.115   0.955   2.474 -0.5915 -0.3608 -0.4375
  330SOL    HW2  990   2.266   1.032   2.436 -2.6837  2.5866 -1.3072
  331SOL     OW  991   2.346   1.429   0.605 -0.1562  0.4348 -0.1554
  331SOL    HW1  992   2.291   1.451   0.521 -0.9403  2.6219  2.2877
  331SOL    HW2  993   2.434   1.480   0.605  0.7119  1.7392 -0.6429
  332SOL     OW  994   0.098   2.861   1.362 -0.3127  0.3386  0.6137
  332SOL    HW1  995   0.073   2.945   1.306  0.2094  1.5249  2.2333
  332SOL    HW2  996   0.197   2.857   1.377  0.1651 -0.5821  1.2813
  333SOL     OW  997   0.080   1.596   2.040  0.1285  0.2005 -0.0562
  333SOL    HW1  998   0.161   1.657   2.020  1.9786  2.3847 -0.4710
  333SOL    HW2  999   0.098   1.504   2.003  2.9700  2.1714  0.7216
  334SOL     OW 1000   0.249   0.934   1.313 -0.6116 -0.5070  0.2040
  334SOL    HW1 1001   0.155   0.950   1.286  2.3167 -2.1774  2.0101
  334SOL    HW2 1002   0.311   0.926   1.229  2.2523 -0.1064  0.5253
  335SOL     OW 1003   2.940   1.640   1.962  0.3886  0.5589  0.0266
  335SOL    HW1 1004   3.037   1.642   2.005  0.9155 -0.4115  2.6017
  335SOL    HW2 1005   2.907   1.544   1.949  0.3496 -0.1188 -0.4062
  336SOL     OW 1006   1.912   2.812   2.549 -0.6160  0.0442  0.0004
  336SOL    HW1 1007   1.896   2.715   2.526  2.2892 -0.0352 -3.6286
  336SOL    HW2 1008   1.987   2.815   2.620  2.4574 -0.3305  1.9437
  337SOL     OW 1009   0.629   0.721   1.202 -0.2230 -0.1180  0.3872
  337SOL    HW1 1010   0.617   0.737   1.302  3.1922 -0.3830  0.3366
  337SOL    HW2 1011   0.545   0.745   1.146 -3.4505  0.3269 -0.2741
  338SOL     OW 1012   1.534   2.471   0.999  0.3660 -0.3891 -0.1651
  338SOL    HW1 1013   1.587   2.519   1.075 -0.3088  1.5451 -2.4754
  338SOL    HW2 1014   1.497   2.378   1.029 -0.8270 -0.9865 -1.6431
  339SOL     OW 1015   0.274   2.146   1.368 -0.0530  0.2433  0.1815
  339SOL    HW1 1016   0.333   2.216   1.407 -2.3352 -1.8077 -2.4180
  339SOL    HW2 1017   0.246   2.067   1.430  0.3712 -2.6303  0.1372
  340SOL     OW 1018   0.558   0.186   1.998 -0.3714 -0.4516  0.0035
  340SOL    HW1 1019   0.582   0.106   2.059  0.6239  0.9586  1.1251
  340SOL    HW2 1020   0.460   0.217   2.025  0.3983  0.0140 -0.4643
  341SOL     OW 1021   1.905   1.380   0.664  0.0525 -0.3602 -0.4335
  341SOL    HW1 1022   1.942   1.333   0.748 -0.6633 -0.6941  2.2452
  341SOL    HW2 1023   1.960   1.468   0.648 -1.2198  1.9847  1.4378
  342SOL     OW 1024   1.686   1.371   0.519  0.3015 -0.5729  0.2452
  342SOL    HW1 1025   1.681   1.411   0.425 -2.5696  0.3132 -1.0545
  342SOL    HW2 1026   1.777   1.389   0.569 -0.4516  0.3213  1.4222
  343SOL     OW 1027   2.117   0.026   0.939 -0.1076  0.2513  0.0390
  343SOL    HW1 1028   2.214   0.052   0.963  0.3726  0.6775  1.7920
  343SOL    HW2 1029   2.118   3.086   0.846  2.8059  0.4825 -1.7356
  344SOL     OW 1030   2.833   0.064   2.909  0.5991  0.2565  0.5121
  344SOL    HW1 1031   2.907   0.000   2.942 -0.2743 -0.4881  0.3500
  344SOL    HW2 1032   2.772   0.016   2.845  0.4201 -0.8296 -1.2327
  345SOL     OW 1033   1.459   2.772   1.327 -0.1546  0.3343  0.4224
  345SOL    HW1 1034   1.516   2.838   1.373  0.8085 -2.5957  1.1473
  345SOL    HW2 1035   1.430   2.693   1.384 -0.1315 -1.1587 -2.9294
  346SOL     OW 1036   2.276   2.333   1.431  0.4339 -0.3142  0.2936
  346SOL    HW1 1037   2.231   2.247   1.415  2.6372  0.1394 -0.4089
  346SOL    HW2 1038   2.360   2.315   1.492  3.4399 -2.3064  2.7736
  347SOL     OW 1039   2.448   3.015   0.991 -0.3667 -0.0501 -0.2355
  347SOL    HW1 1040   2.403   3.105   0.971 -0.8513 -0.6967  0.7837
  347SOL    HW2 1041   2.418   2.981   1.083 -2.3737  2.4620  1.1725
  348SOL     OW 1042   0.673   1.061   1.388  0.2798  0.5639  0.8597
  348SOL    HW1 1043   0.676   1.060   1.282  2.1812 -1.6963 -0.8915
  348SOL    HW2 1044   0.622   0.976   1.414  1.7455 -0.4113  1.7121
  349SOL     OW 1045   2.271   0.180   2.960 -0.1163  0.1485 -0.6828
  349SOL    HW1 1046   2.307   0.272   2.994  1.2845  0.9845 -1.7257
  349SOL    HW2 1047   2.352   0.122   2.934 -0.5000 -2.7958 -1.2308
  350SOL     OW 1048   2.462   1.987   0.025  0.1907  0.0099 -0.1070
  350SOL    HW1 1049   2.539   1.921   0.046 -2.4206 -0.0484 -2.0595
  350SOL    HW2 1050   2.476   2.027   3.040 -0.6635 -0.4625 -3.9056
  351SOL     OW 1051   1.277   0.550   0.576  0.7366  0.0225 -0.7648
  351SOL    HW1 1052   1.235   0.460   0.599  2.4484  1.1974  0.1527
  351SOL    HW2 1053   1.278   0.566   0.478 -1.2108  1.7451 -2.2527
  352SOL     OW 1054   1.843   2.129   2.464 -0.3251 -0.0407  0.1533
  352SOL    HW1 1055   1.800   2.216   2.436 -1.0786 -0.2647  0.1233
  352SOL    HW2 1056   1.830   2.056   2.388  0.6695 -1.4008  0.4889
  353SOL     OW 1057   0.452   0.659   0.091 -0.0151 -0.1963  0.2854
  353SOL    HW1 1058   0.410   0.598   0.018 -3.8793  1.5665 -1.2222
  353SOL    HW2 1059   0.401   0.745   0.092  3.6708  0.2023  1.7689
  354SOL     OW 1060   1.157   2.052   0.184 -0.8978 -0.3214 -0.2386
  354SOL    HW1 1061   1.071   2.106   0.199 -1.1359 -1.2771  0.1528
  354SOL    HW2 1062   1.219   2.065   0.269 -0.8744 -4.4015 -0.1762
  355SOL     OW 1063   2.656   2.633   1.732 -0.1584  0.6463 -0.1240
  355SOL    HW1 1064   2.704   2.723   1.711  1.3202  1.7008 -2.7317
  355SOL    HW2 1065   2.561   2.642   1.701 -1.8868 -1.5690 -2.6993
  356SOL     OW 1066   2.720   1.016   0.582 -0.1775 -0.1749 -0.8253
  356SOL    HW1 1067   2.726   0.917   0.558  0.1109 -0.8785 -2.4780
  356SOL    HW2 1068   2.680   1.032   0.673  1.9775  2.2544  1.8432
  357SOL     OW 1069   2.678   0.302   1.093 -0.0266  0.0101  0.3128
  357SOL    HW1 1070   2.633   0.258   1.175  0.8817 -2.2154 -0.3410
  357SOL    HW2 1071   2.736   0.233   1.049 -0.3494  1.3767  0.2476
  358SOL     OW 1072   1.074   2.504   1.093  0.2205  0.0179 -0.4486
  358SOL    HW1 1073   0.975   2.516   1.090  4.0096 -1.8988 -1.4046
  358SOL    HW2 1074   1.118   2.569   1.029 -2.8122 -0.8405  1.0277
  359SOL     OW 1075   0.168   2.518   2.778  0.0227 -0.5384 -0.5457
  359SOL    HW1 1076   0.259   2.561   2.787  0.2066  0.2249  1.5881
  359SOL    HW2 1077   0.098   2.567   2.834  0.3600 -0.0286 -1.2905
  360SOL     OW 1078   0.747   1.122   1.783  0.0647  0.0573  0.4712
  360SOL    HW1 1079   0.804   1.115   1.697 -1.5641  1.1849 -2.6780
  360SOL    HW2 1080   0.691   1.037   1.797  0.0946  0.9737 -0.1439
  361SOL     OW 1081   2.542   0.003   0.562 -0.1542  0.1207 -0.1851
  361SOL    HW1 1082   2.623   3.101   0.620 -0.6021 -2.8457 -0.7809
  361SOL    HW2 1083   2.551   3.068   0.471 -1.3931  0.4217  0.8798
  362SOL     OW 1084   0.207   3.015   1.058 -0.3101  0.1472  0.2322
  362SOL    HW1 1085   0.189   2.989   0.958 -1.3362  0.2495 -2.4445
  362SOL    HW2 1086   0.308   3.010   1.080 -0.2831  3.8890  3.4948
  363SOL     OW 1087   0.800   1.338   0.431  0.5294  0.4061  0.4913
  363SOL    HW1 1088   0.754   1.253   0.394 -2.4583 -2.9356 -0.3641
  363SOL    HW2 1089   0.813   1.406   0.355  2.0547 -1.5093 -0.3440
  364SOL     OW 1090   0.646   1.296   1.556  0.7837 -0.2600 -0.1619
  364SOL    HW1 1091   0.641   1.203   1.506 -0.7442 -0.9491 -0.6685
  364SOL    HW2 1092   0.569   1.323   1.620 -4.0200  0.3644  0.2299
  365SOL     OW 1093   2.764   1.082   0.206 -0.1928 -0.5171  0.3624
  365SOL    HW1 1094   2.702   1.108   0.282  0.4164 -0.8063  2.2448
  365SOL    HW2 1095   2.726   1.113   0.113  0.5031 -0.5246 -0.7003
  366SOL     OW 1096   2.735   1.774   1.131 -0.6107 -0.0568  0.0720
  366SOL    HW1 1097   2.641   1.816   1.144  1.8207  1.4893  0.0290
  366SOL    HW2 1098   2.762   1.724   1.217 -0.1900 -0.2277 -0.7931
  367SOL     OW 1099   2.196   2.207   1.928 -0.1395 -0.4639  0.3949
  367SOL    HW1 1100   2.130   2.165   1.866 -0.4108  1.0219  0.7726
  367SOL    HW2 1101   2.291   2.169   1.918  0.0483 -0.5768  1.1892
  368SOL     OW 1102   2.782   1.397   1.030 -0.4510 -0.6096  0.5231
  368SOL    HW1 1103   2.823   1.394   0.933  2.4334 -1.5354 -1.4581
  368SOL    HW2 1104   2.847   1.360   1.098 -2.3701 -0.1332 -2.3484
  369SOL     OW 1105   2.443   2.582   0.048 -0.5804 -0.4390  0.3321
  369SOL    HW1 1106   2.451   2.615   0.140  0.8792 -0.1737 -0.3501
  369SOL    HW2 1107   2.440   2.662   3.096 -0.5232 -1.7011 -1.6956
  370SOL     OW 1108   0.011   3.100   1.550  0.0483  0.2396  0.7114
  370SOL    HW1 1109   0.064   3.028   1.600 -1.7973  1.8828 -1.4247
  370SOL    HW2 1110   0.060   0.031   1.476 -3.1763  0.2206  2.7252
  371SOL     OW 1111   0.721   1.814   2.725  0.1625 -0.1321 -0.1656
  371SOL    HW1 1112   0.802   1.802   2.665 -1.2760  0.4560  0.9470
  371SOL    HW2 1113   0.706   1.913   2.749  1.1044  4.6505  2.4449
  372SOL     OW 1114   0.935   1.113   0.250  0.3021  0.8425  0.4291
  372SOL    HW1 1115   0.884   1.073   0.330  2.6824  0.8326  1.8689
  372SOL    HW2 1116   0.904   1.066   0.161  0.1652 -2.5133  0.6351
  373SOL     OW 1117   1.496   2.499   2.950  0.3506 -0.4455  0.4500
  373SOL    HW1 1118   1.525   2.555   3.025 -2.1146 -1.0341 -1.1012
  373SOL    HW2 1119   1.394   2.501   2.942 -0.1447 -0.4598  2.5128
  374SOL     OW 1120   0.199   2.029   0.241  0.7986  0.2424 -0.1481
  374SOL    HW1 1121   0.264   2.080   0.182  0.6185  1.7728  0.9762
  374SOL    HW2 1122   0.115   1.992   0.194  0.7333 -0.8078 -0.5284
  375SOL     OW 1123   0.809   1.480   1.646  0.2062 -0.5702  0.1031
  375SOL    HW1 1124   0.739   1.409   1.614 -3.0338  2.5199 -1.6628
  375SOL    HW2 1125   0.903   1.444   1.636  2.8395 -1.0877 -2.1259
  376SOL     OW 1126   0.723   2.282   1.803  0.2620 -0.1998 -0.0289
  376SOL    HW1 1127   0.675   2.366   1.783  1.9635 -1.4206 -1.3633
  376SOL    HW2 1128   0.677   2.238   1.886  0.5241 -0.8849  1.1601
  377SOL     OW 1129   2.565   1.563   2.120 -0.2861  0.0523 -0.0208
  377SOL    HW1 1130   2.537   1.653   2.154  0.8516  1.0216 -4.3521
  377SOL    HW2 1131   2.664   1.550   2.094 -0.2044  0.1160 -0.0359
  378SOL     OW 1132   0.913   3.021   2.967  0.0712  0.2741  0.0115
  378SOL    HW1 1133   0.893   2.939   3.027 -0.5918 -3.0791  1.4966
  378SOL    HW2 1134   1.000   3.066   2.999 -0.3783  1.9209  0.0528
  379SOL     OW 1135   2.146   0.366   0.879 -0.2323  1.0321  1.3919
  379SOL    HW1 1136   2.174   0.339   0.782 -0.7591 -0.7556 -4.0587
  379SOL    HW2 1137   2.058   0.323   0.908  1.6941 -1.3066 -0.1909
  380SOL     OW 1138   2.925   2.038   1.450  0.6699  0.2946 -0.6640
  380SOL    HW1 1139   2.827   2.008   1.462  1.3028 -0.2301 -0.6442
  380SOL    HW2 1140   2.926   2.106   1.373 -1.2723  0.7077 -2.7264
  381SOL     OW 1141   1.742   1.825   1.853  0.3085  0.4572  0.1898
  381SOL    HW1 1142   1.726   1.910   1.800 -0.1717  2.6005 -0.8036
  381SOL    HW2 1143   1.822   1.777   1.820  1.5598  1.0255  0.6363
  382SOL     OW 1144   2.924   0.313   2.883  0.2752 -0.5711  0.2680
  382SOL    HW1 1145   2.980   0.313   2.799 -0.3074  0.3072 -0.3871
  382SOL    HW2 1146   2.883   0.223   2.898 -2.2046  0.3389  0.4412
  383SOL     OW 1147   1.684   1.489   2.678  0.1717 -0.5132 -0.2603
  383SOL    HW1 1148   1.631   1.406   2.699 -3.3809  1.0483 -0.3717
  383SOL    HW2 1149   1.703   1.540   2.771  3.0356 -0.7996  0.6445
  384SOL     OW 1150   1.163   2.258   1.087 -0.1392  0.3069  0.3268
  384SOL    HW1 1151   1.144   2.360   1.091 -3.1746  4.4965 -1.4571
  384SOL    HW2 1152   1.075   2.214   1.123 -2.1868 -1.4033  1.3507
  385SOL     OW 1153   1.908   2.395   0.769 -0.1996  0.2806  0.4830
  385SOL    HW1 1154   1.806   2.377   0.772  0.2646 -0.1111  0.2062
  385SOL    HW2 1155   1.928   2.423   0.672 -0.8415  1.6753  1.8987
  386SOL     OW 1156   2.096   1.932   0.900 -0.2024  0.1460  0.5692
  386SOL    HW1 1157   2.064   2.021   0.862  1.1663 -0.8811 -1.0076
  386SOL    HW2 1158   2.165   1.956   0.975 -0.4377  1.4360  0.4568
  387SOL     OW 1159   0.272   2.238   1.634 -0.3924  0.2907  0.3426
  387SOL    HW1 1160   0.185   2.194   1.607  2.7672 -0.2854  0.1610
  387SOL    HW2 1161   0.279   2.258   1.735  0.2076  2.2773  1.5165
  388SOL     OW 1162   3.002   0.528   1.889  0.1445  0.0617  0.1616
  388SOL    HW1 1163   2.948   0.574   1.961 -0.2737  0.8752  0.2392
  388SOL    HW2 1164   3.023   0.434   1.917 -2.5547 -0.3432 -0.1869
  389SOL     OW 1165   1.874   1.115   0.567 -0.4461  0.7555  0.5248
  389SOL    HW1 1166   1.907   1.195   0.623  1.7886  4.0522  3.4882
  389SOL    HW2 1167   1.773   1.118   0.581 -2.9524 -0.6727  2.1974
  390SOL     OW 1168   0.937   2.261   2.712  0.1025 -0.1468  0.3487
  390SOL    HW1 1169   0.972   2.353   2.714 -0.8055 -1.5303  0.5539
  390SOL    HW2 1170   0.993   2.194   2.652  1.4980  0.3906 -0.1054
  391SOL     OW 1171   0.848   2.155   2.994 -0.5176  0.1468  0.5982
  391SOL    HW1 1172   0.768   2.109   2.951  2.1155  4.3710  2.1187
  391SOL    HW2 1173   0.898   2.214   2.926 -1.7301  0.4705  2.4027
  392SOL     OW 1174   3.004   2.748   1.964  0.2110  0.7251  0.3399
  392SOL    HW1 1175   2.918   2.740   2.017  1.7606 -1.3855 -3.1165
  392SOL    HW2 1176   3.012   2.845   1.934 -1.3307 -2.7447 -0.1969
  393SOL     OW 1177   1.847   2.441   0.223 -0.3807  0.2009 -0.5032
  393SOL    HW1 1178   1.907   2.390   0.287 -0.0983  0.9209  0.4281
  393SOL    HW2 1179   1.749   2.432   0.255 -3.5740 -1.8521 -2.0432
  394SOL     OW 1180   0.595   0.604   2.358 -0.1651  0.3554  0.5640
  394SOL    HW1 1181   0.512   0.546   2.334 -1.4440 -1.2641 -1.0066
  394SOL    HW2 1182   0.665   0.601   2.281 -1.3198  0.4976 -1.2527
  395SOL     OW 1183   0.536   1.301   1.245  0.1499  0.3413  0.4623
  395SOL    HW1 1184   0.591   1.237   1.301 -1.4647  0.2125  0.8490
  395SOL    HW2 1185   0.541   1.397   1.285  0.9008 -0.2196 -1.6784
  396SOL     OW 1186   1.550   1.558   2.156  0.4216  0.4891  0.0592
  396SOL    HW1 1187   1.599   1.485   2.104 -1.9856 -1.6275  0.3261
  396SOL    HW2 1188   1.496   1.524   2.236 -1.2782  1.2744 -0.2612
  397SOL     OW 1189   0.911   0.458   3.062 -0.1864  0.1042 -0.1030
  397SOL    HW1 1190   0.855   0.501   0.027  1.1985 -0.1370 -1.5014
  397SOL    HW2 1191   0.853   0.400   2.999  0.4260 -1.1297 -1.8822
  398SOL     OW 1192   0.494   1.883   2.563 -0.2520 -0.1178 -0.4122
  398SOL    HW1 1193   0.496   1.987   2.574  0.2365  3.6953 -0.2885
  398SOL    HW2 1194   0.587   1.842   2.566 -1.1034  3.7762 -0.8537
  399SOL     OW 1195   2.955   1.944   2.277 -0.0831  0.2433  0.0299
  399SOL    HW1 1196   2.926   1.973   2.370  1.3965 -2.4951  1.0731
  399SOL    HW2 1197   3.035   1.881   2.286  0.2572 -0.2828 -1.0244
  400SOL     OW 1198   2.362   0.907   1.727 -0.3951 -0.3515  0.2448
  400SOL    HW1 1199   2.402   0.958   1.652 -1.0880 -0.8517  1.7854
  400SOL    HW2 1200   2.337   0.814   1.696 -0.0716 -1.1369 -1.4013
  401SOL     OW 1201   1.078   1.622   0.684  0.3621  0.6677  0.1759
  401SOL    HW1 1202   1.088   1.585   0.779  2.0963  0.2634 -1.6539
  401SOL    HW2 1203   1.126   1.556   0.620  2.0316 -1.5322  2.6006
  402SOL     OW 1204   0.041   2.579   2.140 -0.3808  0.1543 -0.1302
  402SOL    HW1 1205   0.002   2.631   2.063 -0.7817 -1.4894  1.2447
  402SOL    HW2 1206   0.138   2.600   2.157 -1.7150 -0.1188 -0.5570
  403SOL     OW 1207   0.444   1.602   2.199  0.5768 -0.4434  0.5453
  403SOL    HW1 1208   0.413   1.679   2.260 -0.1782  2.0549 -1.6388
  403SOL    HW2 1209   0.400   1.513   2.223 -0.4683  0.2819  3.2364
  404SOL     OW 1210   1.703   2.039   1.707  0.0829 -0.3507  0.2164
  404SOL    HW1 1211   1.638   2.118   1.696 -1.8432  1.9988 -2.0545
  404SOL    HW2 1212   1.733   2.019   1.608  1.1745 -0.4359 -0.5951
  405SOL     OW 1213   2.939   2.653   2.894  0.7504  0.5380 -0.2151
  405SOL    HW1 1214   2.954   2.594   2.978 -1.8227  0.6053 -1.5331
  405SOL    HW2 1215   2.917   2.597   2.809  0.3443 -1.1401  0.1148
  406SOL     OW 1216   0.640   1.159   3.098  0.0614  0.4064  0.0505
  406SOL    HW1 1217   0.727   1.108   3.096 -3.3714 -0.3652 -1.4699
  406SOL    HW2 1218   0.621   1.199   3.004  1.2998 -0.8710 -2.4173
  407SOL     OW 1219   1.992   2.514   2.850  0.0741  0.2386  0.1007
  407SOL    HW1 1220   2.056   2.479   2.777  0.5541 -1.3585  1.1964
  407SOL    HW2 1221   1.996   2.467   2.941  1.6523  2.4575  0.3681
  408SOL     OW 1222   2.846   2.899   0.133  0.5506  0.1624 -0.0739
  408SOL    HW1 1223   2.876   2.808   0.165  0.9928  0.6288 -0.4072
  408SOL    HW2 1224   2.880   2.973   0.197  2.5881  3.4333  1.3087
  409SOL     OW 1225   2.275   1.441   0.871  0.0434  0.4216 -0.2080
  409SOL    HW1 1226   2.280   1.545   0.878  0.2250 -1.3196 -0.7494
  409SOL    HW2 1227   2.300   1.412   0.775 -0.8881 -2.2716  1.1798
  410SOL     OW 1228   2.859   1.770   0.552 -0.0642 -0.1500  0.8521
  410SOL    HW1 1229   2.867   1.871   0.542  0.5076  0.4399 -0.5852
  410SOL    HW2 1230   2.945   1.726   0.527 -1.8120 -0.9252 -0.5824
  411SOL     OW 1231   0.228   1.387   0.881 -0.5462 -0.4619  0.5965
  411SOL    HW1 1232   0.217   1.488   0.866 -1.1134  1.8272  1.0382
  411SOL    HW2 1233   0.317   1.368   0.922 -1.4598 -1.7999 -0.6523
  412SOL     OW 1234   2.237   2.142   0.388  0.2135  0.1227 -0.7677
  412SOL    HW1 1235   2.313   2.207   0.395  0.1865  1.4434  1.2877
  412SOL    HW2 1236   2.232   2.096   0.479  0.0371  2.0554  2.1824
  413SOL     OW 1237   1.823   0.808   2.277 -0.3580  0.0139  0.2447
  413SOL    HW1 1238   1.760   0.858   2.216  0.2768  1.0741  2.9123
  413SOL    HW2 1239   1.910   0.781   2.222  2.8555  0.8763 -2.1740
  414SOL     OW 1240   2.891   3.047   0.350 -0.0776 -0.1134  0.0557
  414SOL    HW1 1241   2.795   3.028   0.335  0.6811 -1.1907 -1.0810
  414SOL    HW2 1242   2.924   3.000   0.431 -0.6943 -0.6244  1.2001
  415SOL     OW 1243   0.915   2.183   1.157  0.1101 -0.2247 -0.1143
  415SOL    HW1 1244   0.853   2.184   1.235  1.7813  1.2148 -1.2915
  415SOL    HW2 1245   0.883   2.134   1.080  1.3727 -0.2210  1.8640
  416SOL     OW 1246   0.381   2.854   2.838 -0.1091 -0.0553 -0.1517
  416SOL    HW1 1247   0.353   2.917   2.767 -1.1103 -3.3774  3.3717
  416SOL    HW2 1248   0.388   2.759   2.794 -0.4129 -2.5312 -3.2675
  417SOL     OW 1249   2.646   0.492   1.263  0.2869 -0.7431  0.3237
  417SOL    HW1 1250   2.645   0.443   1.177 -0.4867 -1.9836  3.3369
  417SOL    HW2 1251   2.685   0.431   1.341 -3.0141  0.8028  1.1957
  418SOL     OW 1252   3.091   0.394   0.009  0.0014 -0.0621 -0.1987
  418SOL    HW1 1253   0.052   0.319   0.016 -0.6430 -0.0298 -0.1561
  418SOL    HW2 1254   3.012   0.365   3.066 -0.2661  0.6714  0.3048
  419SOL     OW 1255   0.075   1.547   1.638  0.1437  0.0460 -0.6334
  419SOL    HW1 1256   0.004   1.550   1.567  0.1644  1.5453  0.2659
  419SOL    HW2 1257   0.167   1.521   1.601 -0.0532  0.7744  0.9632
  420SOL     OW 1258   0.595   1.694   0.545  0.2912  0.7568 -0.3523
  420SOL    HW1 1259   0.586   1.751   0.462 -0.6377  1.5744  1.3079
  420SOL    HW2 1260   0.683   1.639   0.540  1.3584 -1.8234 -0.9517
  421SOL     OW 1261   2.271   2.315   2.420 -0.0279 -0.1603  0.5263
  421SOL    HW1 1262   2.325   2.229   2.439  3.7800 -0.3070 -0.7719
  421SOL    HW2 1263   2.332   2.389   2.383  0.3321  3.5504 -0.8725
  422SOL     OW 1264   2.931   0.577   2.910  0.0855 -0.6200 -0.2608
  422SOL    HW1 1265   2.915   0.597   2.808 -0.8399 -0.9768 -1.7787
  422SOL    HW2 1266   2.926   0.479   2.931  1.7444  1.5521 -0.2245
  423SOL     OW 1267   1.378   2.252   0.568  0.2963 -0.8580 -0.4503
  423SOL    HW1 1268   1.374   2.340   0.517  0.0115 -0.0878 -2.0200
  423SOL    HW2 1269   1.317   2.254   0.653 -2.4884 -0.0700 -0.1577
  424SOL     OW 1270   0.622   2.059   1.621 -0.3441  0.5447 -0.2899
  424SOL    HW1 1271   0.579   2.144   1.591 -1.0494 -1.4577  3.1355
  424SOL    HW2 1272   0.639   2.002   1.538 -1.0709  0.6152  0.4702
  425SOL     OW 1273   2.939   2.826   2.595 -0.7966 -0.0435 -0.6926
  425SOL    HW1 1274   2.887   2.830   2.506  1.5574 -1.1171 -1.6031
  425SOL    HW2 1275   2.897   2.892   2.666  1.5130  1.9758  0.8754
  426SOL     OW 1276   1.807   0.699   0.741 -0.7758 -0.4613 -0.2691
  426SOL    HW1 1277   1.789   0.631   0.813  0.0776 -1.5822 -0.7033
  426SOL    HW2 1278   1.764   0.676   0.651  0.6306  1.7163  1.6557
  427SOL     OW 1279   0.379   1.177   0.056  0.1832  0.3140  0.0093
  427SOL    HW1 1280   0.361   1.100   0.120 -1.8273  0.4728  1.3038
  427SOL    HW2 1281   0.473   1.170   0.011  1.4630  0.0926 -1.4623
  428SOL     OW 1282   1.325   1.152   0.117 -0.1773  0.1351 -0.1678
  428SOL    HW1 1283   1.258   1.078   0.094  0.7753 -0.6597  3.9195
  428SOL    HW2 1284   1.344   1.211   0.031 -1.0231  3.0056 -2.6806
  429SOL     OW 1285   2.891   2.511   0.717  0.2674  0.0487 -0.2766
  429SOL    HW1 1286   2.836   2.590   0.746  3.4965 -2.3262 -2.2547
  429SOL    HW2 1287   2.952   2.541   0.641 -0.8212  2.8099  1.9210
  430SOL     OW 1288   0.516   2.551   2.475 -0.1224 -0.6188  0.0958
  430SOL    HW1 1289   0.611   2.517   2.461  3.1167  1.1785 -3.6594
  430SOL    HW2 1290   0.451   2.486   2.429 -2.1659 -2.7330  2.3581
  431SOL     OW 1291   2.981   1.106   0.534  0.0391 -0.1895 -0.0065
  431SOL    HW1 1292   2.896   1.051   0.550  0.1057 -2.1280 -0.8131
  431SOL    HW2 1293   3.061   1.045   0.511  0.7386 -1.8713  2.2563
  432SOL     OW 1294   2.177   2.699   2.075  0.2306  0.8889 -0.1716
  432SOL    HW1 1295   2.269   2.682   2.035 -1.0108  0.6729  0.4453
  432SOL    HW2 1296   2.136   2.621   2.128 -1.2116  2.8336 -0.7696
  433SOL     OW 1297   1.439   2.587   0.763 -0.4180  0.2405  0.1291
  433SOL    HW1 1298   1.489   2.549   0.847  0.9864  0.7475  0.8192
  433SOL    HW2 1299   1.502   2.666   0.731  1.3363  2.1442  0.5891
  434SOL     OW 1300   0.940   2.064   2.076 -0.3748 -0.1044  0.3850
  434SOL    HW1 1301   0.963   2.098   2.168 -1.7927 -2.5795  0.6647
  434SOL    HW2 1302   0.845   2.032   2.072  3.6395 -0.3707 -0.5233
  435SOL     OW 1303   3.020   1.131   0.163 -0.1902 -0.2246  0.1998
  435SOL    HW1 1304   2.923   1.119   0.198 -1.9014 -1.7529 -0.2873
  435SOL    HW2 1305   3.065   1.039   0.150 -0.3086 -2.5811 -3.1388
  436SOL     OW 1306   0.316   2.655   2.192  0.0788 -0.6476 -0.2443
  436SOL    HW1 1307   0.348   2.752   2.201 -0.3418  0.1133  1.5567
  436SOL    HW2 1308   0.345   2.600   2.270 -1.1491  1.9142  1.3970
  437SOL     OW 1309   1.878   2.926   1.524 -0.8200  0.0439  0.0167
  437SOL    HW1 1310   1.962   2.967   1.479  0.9275  1.2062  0.5814
  437SOL    HW2 1311   1.874   2.953   1.623 -1.1041  0.6504  1.0853
  438SOL     OW 1312   0.163   1.855   0.650 -0.0575 -0.2403  0.2187
  438SOL    HW1 1313   0.089   1.918   0.682 -1.3047 -0.8761  0.0405
  438SOL    HW2 1314   0.205   1.793   0.721  0.3320 -1.4961  0.0904
  439SOL     OW 1315   0.323   0.262   0.951  0.1032  0.7446  0.0786
  439SOL    HW1 1316   0.416   0.280   0.982  0.2132  0.3409 -0.8002
  439SOL    HW2 1317   0.299   0.186   0.895  0.3805  1.7832 -0.4145
  440SOL     OW 1318   0.087   2.877   2.448 -0.6720  0.6611  0.1484
  440SOL    HW1 1319   0.125   2.781   2.461 -2.9055  0.6520 -0.7403
  440SOL    HW2 1320   3.098   2.881   2.474 -2.8521  1.3602  0.7144
  441SOL     OW 1321   0.075   0.949   0.476  0.5193  0.1635  0.0465
  441SOL    HW1 1322   0.175   0.974   0.495 -1.4853  0.3890  2.2439
  441SOL    HW2 1323   0.042   0.887   0.549 -0.2471  0.8881  1.1104
  442SOL     OW 1324   1.333   2.266   2.589  0.5746  0.2153  0.4156
  442SOL    HW1 1325   1.376   2.338   2.535  1.3298  1.2949  0.5405
  442SOL    HW2 1326   1.395   2.189   2.604  0.2195  2.4126  0.3199
  443SOL     OW 1327   0.634   0.028   0.262  0.1623 -0.3880 -0.0689
  443SOL    HW1 1328   0.724   3.105   0.232 -0.4408  0.1461  1.4949
  443SOL    HW2 1329   0.606   0.112   0.212 -0.9633  0.4457 -0.0379
  444SOL     OW 1330   1.511   1.682   2.610 -0.6563 -0.4483 -0.1638
  444SOL    HW1 1331   1.550   1.723   2.528  0.0723 -1.4261  1.8498
  444SOL    HW2 1332   1.570   1.604   2.632 -1.8072  0.6095  1.9751
  445SOL     OW 1333   0.060   0.544   0.566 -0.0033  0.2154  0.0491
  445SOL    HW1 1334   0.006   0.459   0.563  0.1119  1.7299 -1.3401
  445SOL    HW2 1335   0.114   0.560   0.484 -0.5927  0.7456  1.3430
  446SOL     OW 1336   1.850   0.927   0.901 -0.1336  0.0229  0.3980
  446SOL    HW1 1337   1.829   0.846   0.837 -0.5272 -2.7188 -0.5625
  446SOL    HW2 1338   1.766   0.947   0.959  0.9125 -1.1463 -0.1050
  447SOL     OW 1339   0.059   0.867   0.234 -0.0603 -0.2041  0.6123
  447SOL    HW1 1340   0.050   0.767   0.223 -1.0612  0.5848 -0.4965
  447SOL    HW2 1341   0.059   0.893   0.336  2.6546  0.8041 -1.3082
  448SOL     OW 1342   1.794   2.024   1.453  0.3443  0.1426 -0.1547
  448SOL    HW1 1343   1.788   2.019   1.351 -0.8276  0.0162  4.4166
  448SOL    HW2 1344   1.890   2.029   1.484 -1.0921 -0.6400 -2.5283
  449SOL     OW 1345   0.935   1.448   0.207  0.1021 -0.7210 -0.4524
  449SOL    HW1 1346   0.974   1.355   0.201 -0.7200  1.0306 -2.1829
  449SOL    HW2 1347   1.012   1.518   0.234  1.9628  0.3034  1.5686
  450SOL     OW 1348   2.566   2.775   2.445  0.0220  0.3313  0.1345
  450SOL    HW1 1349   2.465   2.765   2.449  0.8426  1.0160 -1.9858
  450SOL    HW2 1350   2.599   2.810   2.352  0.9411  1.4267 -3.3511
  451SOL     OW 1351   2.242   0.817   2.709  0.2537 -0.0126 -0.2156
  451SOL    HW1 1352   2.200   0.894   2.768 -0.6083 -0.6919  0.4538
  451SOL    HW2 1353   2.215   0.836   2.615  0.9368 -1.0658 -1.2084
  452SOL     OW 1354   1.607   1.017   1.023 -0.7343  0.1903 -0.0471
  452SOL    HW1 1355   1.510   1.003   1.044  2.1178  1.2531 -3.0023
  452SOL    HW2 1356   1.662   1.019   1.106 -1.9932 -1.0627  0.0909
  453SOL     OW 1357   1.725   0.627   1.521  0.2244 -0.3722 -0.1977
  453SOL    HW1 1358   1.638   0.636   1.585 -2.8113 -1.2273  1.1719
  453SOL    HW2 1359   1.782   0.711   1.533 -2.3623  4.6359  0.0612
  454SOL     OW 1360   2.593   1.126   2.641  0.4867 -0.0936 -0.2179
  454SOL    HW1 1361   2.635   1.042   2.681 -1.5747  0.3645  1.1609
  454SOL    HW2 1362   2.507   1.155   2.689 -0.6016  0.3761  2.0408
  455SOL     OW 1363   2.784   1.672   1.388  0.3979 -0.4277  0.1169
  455SOL    HW1 1364   2.873   1.630   1.373 -3.8193  0.4205  1.2065
  455SOL    HW2 1365   2.763   1.697   1.482  0.4299  0.9827 -1.5003
  456SOL     OW 1366   1.288   2.973   1.511 -0.1906  0.0737  0.1475
  456SOL    HW1 1367   1.295   2.928   1.601 -2.1270 -4.5625 -4.1713
  456SOL    HW2 1368   1.360   2.933   1.448  4.8360  1.6320  0.4199
  457SOL     OW 1369   1.623   2.867   0.954 -0.1106 -0.4165 -0.5770
  457SOL    HW1 1370   1.686   2.795   0.992 -0.2207 -0.4327 -2.2679
  457SOL    HW2 1371   1.635   2.962   0.992  0.8673  1.7978  0.1293
  458SOL     OW 1372   2.958   2.847   0.989 -0.1806  0.5588 -0.3268
  458SOL    HW1 1373   2.872   2.801   0.963 -0.5893  2.4250  1.4955
  458SOL    HW2 1374   2.978   2.936   0.946 -1.1164 -1.1084 -1.0185
  459SOL     OW 1375   1.631   0.820   0.193  0.3477  0.0898 -0.2258
  459SOL    HW1 1376   1.580   0.813   0.108  0.3129 -0.1339  2.2476
  459SOL    HW2 1377   1.718   0.772   0.184 -1.7579  2.2238 -0.2211
  460SOL     OW 1378   0.449   2.625   2.722  0.2081 -0.4107 -0.5680
  460SOL    HW1 1379   0.461   2.613   2.618 -0.3185  1.1613 -1.1524
  460SOL    HW2 1380   0.538   2.594   2.769  3.1039 -3.7850  1.2615
  461SOL     OW 1381   0.327   1.378   0.242 -0.1728 -0.1508 -0.2708
  461SOL    HW1 1382   0.392   1.367   0.321  0.5306 -1.4473  0.8768
  461SOL    HW2 1383   0.358   1.312   0.166 -0.7953  0.1222 -1.5528
  462SOL     OW 1384   1.790   2.072   0.476  0.2155 -0.2909 -0.1999
  462SOL    HW1 1385   1.816   2.062   0.575 -0.9701  3.1988  1.4370
  462SOL    HW2 1386   1.771   1.978   0.443 -0.3643  0.5720  0.3006
  463SOL     OW 1387   2.443   0.307   0.461  0.2594  0.1956  0.0838
  463SOL    HW1 1388   2.441   0.393   0.411  0.6779 -1.9569  0.4722
  463SOL    HW2 1389   2.477   0.232   0.400  3.2174  0.5862 -3.9203
  464SOL     OW 1390   0.943   2.166   0.483 -0.2396 -0.8026  0.2938
  464SOL    HW1 1391   0.961   2.242   0.421  0.2250 -0.7280  0.9133
  464SOL    HW2 1392   0.881   2.094   0.442 -0.0661 -0.7322  1.8519
  465SOL     OW 1393   2.257   0.431   1.116 -0.5164 -0.4296 -0.3847
  465SOL    HW1 1394   2.198   0.424   1.033 -1.6771  1.5070  0.1563
  465SOL    HW2 1395   2.300   0.522   1.139 -1.1616  1.8781  0.7759
  466SOL     OW 1396   2.266   0.026   0.539 -0.4330  0.8169  0.2764
  466SOL    HW1 1397   2.234   0.120   0.540 -0.5180 -2.2533 -0.6865
  466SOL    HW2 1398   2.359   0.012   0.580 -4.1197  1.3338  1.9704
  467SOL     OW 1399   1.018   0.690   2.173 -0.7889 -0.1325  0.3985
  467SOL    HW1 1400   0.971   0.750   2.240  1.7092 -1.3983  3.2856
  467SOL    HW2 1401   1.097   0.739   2.127 -0.0025  0.3768 -1.8715
  468SOL     OW 1402   2.610   0.410   2.089 -0.4922 -0.1352  0.2523
  468SOL    HW1 1403   2.521   0.456   2.087  1.3549 -1.0197 -1.5392
  468SOL    HW2 1404   2.688   0.464   2.041  2.8770  0.1316 -0.3666
  469SOL     OW 1405   1.077   2.629   1.758  1.1403  0.4544 -0.2101
  469SOL    HW1 1406   1.115   2.600   1.671  2.4933 -2.1470  4.1710
  469SOL    HW2 1407   1.049   2.725   1.750 -0.5614  0.6569 -0.6553
  470SOL     OW 1408   2.116   1.184   1.954  0.1545 -0.0273 -0.0255
  470SOL    HW1 1409   2.177   1.108   1.998 -0.6841 -1.5999  0.4096
  470SOL    HW2 1410   2.134   1.277   1.995  1.2993  0.9756 -0.4153
  471SOL     OW 1411   0.017   1.481   2.996  0.2617  0.5371  0.1499
  471SOL    HW1 1412   3.101   1.430   2.912  1.6161 -2.0035  0.0898
  471SOL    HW2 1413   0.064   1.419   3.061  0.4792 -0.6744  0.8182
  472SOL     OW 1414   0.483   2.175   0.630  0.3097  0.1524 -0.2624
  472SOL    HW1 1415   0.502   2.088   0.584  0.5185  3.7091  0.3333
  472SOL    HW2 1416   0.555   2.239   0.601  3.3400  0.2052  2.4611
  473SOL     OW 1417   1.007   2.392   2.151 -0.4598  0.2774 -0.0041
  473SOL    HW1 1418   0.995   2.377   2.048 -0.0617  1.9403  0.3453
  473SOL    HW2 1419   0.989   2.305   2.194 -1.8442  2.1813 -2.4862
  474SOL     OW 1420   0.919   2.997   2.545  0.0562 -0.2961 -0.2580
  474SOL    HW1 1421   0.960   2.962   2.457 -2.4941  1.1731  3.0210
  474SOL    HW2 1422   0.966   2.949   2.624 -0.9100 -0.5606 -2.4077
  475SOL     OW 1423   0.993   2.432   0.304 -0.2051  0.0447  0.1644
  475SOL    HW1 1424   1.094   2.414   0.315  2.2900  0.6679 -1.4488
  475SOL    HW2 1425   0.945   2.378   0.232  0.5378  1.6319 -1.6381
  476SOL     OW 1426   0.812   0.666   1.009 -0.1977 -0.1222 -0.2069
  476SOL    HW1 1427   0.778   0.587   0.957 -1.0671 -2.8602  1.6162
  476SOL    HW2 1428   0.744   0.683   1.084  0.1488 -2.0747  0.1513
  477SOL     OW 1429   2.093   2.168   1.287 -0.1562 -0.2596 -0.3449
  477SOL    HW1 1430   2.128   2.117   1.208 -1.1904  1.4544 -0.1994
  477SOL    HW2 1431   2.013   2.226   1.268  0.5034 -0.8073 -0.2797
  478SOL     OW 1432   0.073   0.682   3.021  0.0486 -0.4110  0.8817
  478SOL    HW1 1433   3.098   0.661   2.974 -1.4517  1.1174 -2.9082
  478SOL    HW2 1434   0.060   0.650   0.008 -1.5781  0.6750  1.8531
  479SOL     OW 1435   0.770   3.098   1.197  0.3399  0.7133  0.0479
  479SOL    HW1 1436   0.785   0.078   1.160  2.2900 -2.4699 -1.2550
  479SOL    HW2 1437   0.860   3.062   1.242  1.1243 -1.0187  2.8778
  480SOL     OW 1438   2.687   2.474   0.317  0.5071 -0.0964  0.3968
  480SOL    HW1 1439   2.671   2.435   0.222 -0.3108  0.3871 -4.0707
  480SOL    HW2 1440   2.748   2.414   0.372  0.0504 -0.7826  1.3874
  481SOL     OW 1441   2.915   0.597   1.394  0.1798  0.5043 -0.2148
  481SOL    HW1 1442   2.866   0.673   1.440 -0.7712 -0.2784 -0.4538
  481SOL    HW2 1443   2.942   0.527   1.458  1.5601 -1.4745 -1.6626
  482SOL     OW 1444   1.015   3.111   0.856 -0.2474 -0.5980  0.8341
  482SOL    HW1 1445   1.009   0.096   0.893 -1.2980 -3.3866  0.6521
  482SOL    HW2 1446   1.031   3.046   0.935 -1.5135 -1.6382 -0.3450
  483SOL     OW 1447   0.245   1.522   2.674  0.1848  0.1903 -0.3079
  483SOL    HW1 1448   0.316   1.484   2.738  2.0208  2.1312  1.2831
  483SOL    HW2 1449   0.152   1.496   2.689  3.5604  0.4115  0.7021
  484SOL     OW 1450   1.764   1.710   2.117  0.1844 -0.1113 -0.1292
  484SOL    HW1 1451   1.745   1.752   2.024 -0.8296 -0.8864 -1.2638
  484SOL    HW2 1452   1.688   1.641   2.136 -2.7451 -0.5851  0.0647
  485SOL     OW 1453   0.288   2.990   2.582 -0.8257  0.2299  0.5020
  485SOL    HW1 1454   0.250   3.064   2.636  0.5014 -1.4241  1.0053
  485SOL    HW2 1455   0.215   2.934   2.537 -0.5476  0.2076 -0.4718
  486SOL     OW 1456   1.563   2.944   0.490  0.0682  0.3676 -0.9731
  486SOL    HW1 1457   1.596   2.899   0.578  0.7311 -0.3176 -1.0785
  486SOL    HW2 1458   1.485   2.894   0.450 -0.6074  0.6158 -0.3210
  487SOL     OW 1459   1.437   3.094   0.735  0.5880  0.1678  0.2707
  487SOL    HW1 1460   1.448   3.039   0.651 -1.3357 -0.4137  0.3486
  487SOL    HW2 1461   1.522   0.026   0.764  0.5743 -1.4136  1.7724
  488SOL     OW 1462   2.348   0.829   0.997  0.0574 -0.1250 -0.1907
  488SOL    HW1 1463   2.420   0.903   0.996  0.3303 -2.1168 -1.8756
  488SOL    HW2 1464   2.253   0.862   0.978  1.8826 -2.3733  2.0091
  489SOL     OW 1465   1.060   0.213   1.278 -0.1705 -0.0929 -0.3931
  489SOL    HW1 1466   1.126   0.159   1.225 -0.1820  0.6845 -0.2348
  489SOL    HW2 1467   0.972   0.231   1.221 -0.2594 -1.2824 -1.0027
  490SOL     OW 1468   0.733   0.598   0.129  0.3409 -0.3211 -0.0112
  490SOL    HW1 1469   0.728   0.594   0.228 -3.2781 -1.4890 -0.6878
  490SOL    HW2 1470   0.638   0.620   0.097 -0.0264 -0.8390  0.5053
  491SOL     OW 1471   1.015   2.986   0.499  0.0725 -0.2535  0.0279
  491SOL    HW1 1472   1.094   3.036   0.541  0.7783 -0.1184  0.9524
  491SOL    HW2 1473   1.030   2.888   0.503 -1.9999  3.5953  1.3753
  492SOL     OW 1474   1.228   1.456   1.577 -0.8003 -0.2423 -0.3743
  492SOL    HW1 1475   1.265   1.461   1.673  1.9790  0.0023  0.0703
  492SOL    HW2 1476   1.147   1.396   1.575  0.6927 -0.1439 -0.3949
  493SOL     OW 1477   0.528   1.821   0.332 -0.6989  0.3788  0.3776
  493SOL    HW1 1478   0.458   1.861   0.394 -1.8626 -0.7794  2.2172
  493SOL    HW2 1479   0.514   1.847   0.234 -0.4603 -0.0664 -1.7041
  494SOL     OW 1480   1.861   1.766   0.660  0.0121  0.5281 -0.2342
  494SOL    HW1 1481   1.935   1.698   0.687 -1.9166 -0.2421 -0.9257
  494SOL    HW2 1482   1.833   1.749   0.563 -0.0034 -3.5324 -0.9406
  495SOL     OW 1483   0.226   1.348   2.463  0.2455 -0.1702  0.5043
  495SOL    HW1 1484   0.216   1.408   2.542 -1.2298  1.2033 -1.2551
  495SOL    HW2 1485   0.135   1.307   2.439 -0.7552 -2.5383 -0.0991
  496SOL     OW 1486   0.491   0.010   2.471  0.4949 -0.5463  0.2974
  496SOL    HW1 1487   0.413   3.079   2.522 -2.2794  0.5167  2.4651
  496SOL    HW2 1488   0.520   3.067   2.388 -1.8256  2.4785 -1.1378
  497SOL     OW 1489   1.590   1.115   0.536  0.1721 -0.3744 -0.4889
  497SOL    HW1 1490   1.547   1.093   0.447 -0.2937 -0.2393  0.1253
  497SOL    HW2 1491   1.626   1.210   0.539  0.7537  0.2993 -0.0644
  498SOL     OW 1492   2.905   2.670   0.242 -0.1976  0.4311 -0.6285
  498SOL    HW1 1493   2.922   2.590   0.181 -0.5206  0.1508 -1.6008
  498SOL    HW2 1494   2.813   2.663   0.284  2.4125  2.1987 -1.9326
  499SOL     OW 1495   2.035   2.445   0.515  0.2460  0.6730 -0.0557
  499SOL    HW1 1496   2.026   2.350   0.491 -2.0074  0.9853  0.2248
  499SOL    HW2 1497   2.108   2.491   0.456  0.9066 -1.2866  2.9148
  500SOL     OW 1498   0.376   0.592   2.687  0.0403 -0.1572 -0.2321
  500SOL    HW1 1499   0.401   0.674   2.741 -1.6807 -2.0433  0.7151
  500SOL    HW2 1500   0.459   0.532   2.676  1.2141  0.6760  1.6604
  501SOL     OW 1501   1.339   2.865   1.783 -0.4427  0.0857 -0.1540
  501SOL    HW1 1502   1.435   2.841   1.797 -3.3915  1.8492  0.5970
  501SOL    HW2 1503   1.285   2.866   1.870  0.4375 -1.0195 -2.0305
  502SOL     OW 1504   0.245   0.182   2.292  0.3152 -0.3383 -0.2725
  502SOL    HW1 1505   0.273   0.085   2.275 -2.5127 -4.8270  1.9279
  502SOL    HW2 1506   0.224   0.200   2.391 -1.7854  1.8864  2.1797
  503SOL     OW 1507   1.494   2.473   2.159 -0.1415 -0.0430  0.5650
  503SOL    HW1 1508   1.551   2.410   2.103 -0.7431 -1.9380 -0.4606
  503SOL    HW2 1509   1.501   2.567   2.115  1.5593  0.3460 -1.6710
  504SOL     OW 1510   1.792   0.408   1.680  0.6142  0.4108  0.3768
  504SOL    HW1 1511   1.713   0.342   1.676 -2.1991  1.3963  1.8939
  504SOL    HW2 1512   1.784   0.478   1.600 -0.2516  3.0580 -2.6020
  505SOL     OW 1513   2.610   1.785   1.696  0.5647 -0.3718 -0.9054
  505SOL    HW1 1514   2.713   1.763   1.694  1.3438 -1.3876 -1.9784
  505SOL    HW2 1515   2.564   1.790   1.606 -2.2823 -2.1876  2.7323
  506SOL     OW 1516   0.091   1.374   1.866 -0.0555  0.1102 -0.3134
  506SOL    HW1 1517   0.008   1.318   1.871  2.3637  1.5721 -0.1638
  506SOL    HW2 1518   0.075   1.431   1.783  0.2364 -2.0397  2.3380
  507SOL     OW 1519   0.391   2.853   1.603  0.4656 -0.2949  0.2431
  507SOL    HW1 1520   0.474   2.909   1.615 -4.7835 -1.1160  0.2593
  507SOL    HW2 1521   0.416   2.759   1.569 -0.4409  1.3420  1.2792
  508SOL     OW 1522   0.938   0.744   1.447 -0.4863  0.0963  0.1587
  508SOL    HW1 1523   0.960   0.710   1.537  0.4086 -0.7296  1.7106
  508SOL    HW2 1524   0.885   0.674   1.394  0.0606  1.7331  2.4326
  509SOL     OW 1525   1.474   2.525   1.697  0.9849 -0.0129 -0.3880
  509SOL    HW1 1526   1.531   2.606   1.713  1.0910 -0.0285 -0.6277
  509SOL    HW2 1527   1.403   2.524   1.766  1.3199 -1.7975 -1.0525
  510SOL     OW 1528   2.317   1.153   2.769 -0.2388  0.0760  0.4193
  510SOL    HW1 1529   2.224   1.110   2.778 -0.1820 -2.2092  0.8102
  510SOL    HW2 1530   2.366   1.147   2.857 -2.2090 -0.3366 -0.8621
  511SOL     OW 1531   0.586   1.526   1.400  0.5556 -0.1924  0.4003
  511SOL    HW1 1532   0.660   1.543   1.329  0.7092  1.0524  0.3859
  511SOL    HW2 1533   0.610   1.448   1.456 -1.3612  4.7872 -1.2532
  512SOL     OW 1534   2.634   1.631   0.397 -0.4983  0.1615  0.4623
  512SOL    HW1 1535   2.661   1.726   0.432 -1.5670  2.4700  0.6693
  512SOL    HW2 1536   2.554   1.628   0.340  0.3637  1.1133  4.7803
  513SOL     OW 1537   0.735   1.807   2.340  0.0241 -0.0580  0.0734
  513SOL    HW1 1538   0.795   1.811   2.424 -1.8727  0.5491 -1.1110
  513SOL    HW2 1539   0.709   1.708   2.328  0.0313 -1.1128 -0.7461
  514SOL     OW 1540   0.014   2.151   1.598  0.0363  0.1868 -0.2867
  514SOL    HW1 1541   3.045   2.110   1.546 -0.8243 -0.5606  0.7024
  514SOL    HW2 1542   3.105   2.150   1.695 -0.1808 -1.2629 -2.0406
  515SOL     OW 1543   2.072   1.231   1.696  0.7994 -0.1663 -0.2609
  515SOL    HW1 1544   2.103   1.220   1.790 -4.4463 -1.0910 -0.7605
  515SOL    HW2 1545   1.977   1.277   1.691 -0.9505  0.6693  2.7046
  516SOL     OW 1546   2.436   2.746   0.284  0.2150 -0.0495 -0.6617
  516SOL    HW1 1547   2.390   2.801   0.220  1.0212 -3.4056  1.0492
  516SOL    HW2 1548   2.531   2.777   0.291  0.8960  0.2957  2.1393
  517SOL     OW 1549   1.113   1.564   3.099 -0.2932  0.0725  0.0215
  517SOL    HW1 1550   1.207   1.590   3.063  0.0428 -0.2824 -1.0863
  517SOL    HW2 1551   1.115   1.562   0.088 -2.5402  2.2518 -2.3731
  518SOL     OW 1552   1.585   2.962   1.478 -0.4033  0.3076  0.5485
  518SOL    HW1 1553   1.556   3.020   1.557 -0.8229 -0.5215 -2.0942
  518SOL    HW2 1554   1.684   2.961   1.456  1.5590  1.3793 -1.9806
  519SOL     OW 1555   2.277   2.590   0.914 -0.2724  0.4444 -0.0991
  519SOL    HW1 1556   2.320   2.666   0.965  1.7148 -3.1007 -2.2482
  519SOL    HW2 1557   2.349   2.519   0.887  0.7494 -0.2844  1.0140
  520SOL     OW 1558   3.039   2.342   2.216 -0.3478 -0.6634  0.1015
  520SOL    HW1 1559   2.939   2.350   2.225  0.9178 -0.4675 -0.6474
  520SOL    HW2 1560   3.084   2.436   2.201 -0.4028  2.6978 -0.0304
  521SOL     OW 1561   2.731   0.903   2.718  0.2041  0.2779 -0.6384
  521SOL    HW1 1562   2.658   0.850   2.760  2.6133 -0.7140 -1.0724
  521SOL    HW2 1563   2.808   0.840   2.698  1.6053  0.1164 -0.6794
  522SOL     OW 1564   0.918   0.775   2.679 -0.5014  0.1866  0.0476
  522SOL    HW1 1565   0.985   0.697   2.679  0.2098  0.0940 -1.7858
  522SOL    HW2 1566   0.825   0.743   2.641 -2.2786  2.8164 -1.1323
  523SOL     OW 1567   0.109   2.269   0.879 -0.2654  0.6489  0.2098
  523SOL    HW1 1568   0.168   2.329   0.936  1.3464 -4.0705 -0.3549
  523SOL    HW2 1569   0.153   2.254   0.787 -0.9588  0.4994 -0.2203
  524SOL     OW 1570   1.833   2.677   0.044  0.2602 -0.0208  0.0581
  524SOL    HW1 1571   1.828   2.607   0.118  0.7513 -2.1357  1.5546
  524SOL    HW2 1572   1.925   2.667   3.108  2.0931  2.4161 -0.7588
  525SOL     OW 1573   2.317   0.557   1.529 -0.0040  0.0054 -0.3508
  525SOL    HW1 1574   2.395   0.607   1.476  0.8431 -0.5025  2.0543
  525SOL    HW2 1575   2.234   0.546   1.467  0.2759 -1.0254 -1.4322
  526SOL     OW 1576   1.118   2.699   0.511 -0.0814 -0.3526 -0.1396
  526SOL    HW1 1577   1.062   2.702   0.598  1.1258  0.3321 -1.6425
  526SOL    HW2 1578   1.061   2.683   0.427 -2.6199  0.3891 -2.3068
  527SOL     OW 1579   2.409   2.784   0.574 -0.2496  0.5710 -0.1981
  527SOL    HW1 1580   2.319   2.751   0.607 -0.7021  0.5231 -1.6380
  527SOL    HW2 1581   2.417   2.779   0.474  1.7595  0.3879  0.4970
  528SOL     OW 1582   2.006   0.638   3.006  0.0225  0.3581 -0.0971
  528SOL    HW1 1583   1.926   0.586   3.040 -0.2528 -0.1988 -0.1860
  528SOL    HW2 1584   2.050   0.601   2.926 -0.8399  2.8675  0.2790
  529SOL     OW 1585   1.429   1.463   2.404  0.2305 -0.1114  0.1986
  529SOL    HW1 1586   1.422   1.540   2.472  1.0996 -0.7722 -1.4164
  529SOL    HW2 1587   1.410   1.367   2.442  2.0043  3.1694  0.1145
  530SOL     OW 1588   2.366   2.879   0.062  0.1946 -0.3196 -0.0041
  530SOL    HW1 1589   2.295   2.956   0.057 -0.5023  1.1534 -0.8989
  530SOL    HW2 1590   2.398   2.853   3.075 -0.9087 -0.1077 -1.4581
  531SOL     OW 1591   1.835   1.070   3.072  0.2030  0.3016 -0.4973
  531SOL    HW1 1592   1.905   1.003   3.104  0.0257  2.6095  0.1870
  531SOL    HW2 1593   1.764   1.022   3.016 -1.9945 -2.1660  0.0171
  532SOL     OW 1594   1.620   0.390   0.758 -0.0141  0.9924  0.2032
  532SOL    HW1 1595   1.556   0.464   0.734  1.5388 -1.9707  1.0110
  532SOL    HW2 1596   1.697   0.418   0.813 -2.3463 -0.8397 -1.2184
  533SOL     OW 1597   0.644   1.021   2.772  0.2013 -0.0015  0.5844
  533SOL    HW1 1598   0.638   1.118   2.800  1.9010 -1.5290  1.9587
  533SOL    HW2 1599   0.653   1.009   2.670 -0.6012 -1.8188 -0.8309
  534SOL     OW 1600   1.579   0.346   0.054  0.2543 -0.6194  0.4402
  534SOL    HW1 1601   1.587   0.250   0.093 -1.4214 -0.4707  0.7213
  534SOL    HW2 1602   1.576   0.349   3.061 -2.0548 -0.4702 -2.0672
  535SOL     OW 1603   0.685   2.420   3.088 -0.4968  0.3080 -0.8066
  535SOL    HW1 1604   0.598   2.478   3.076  0.0733  0.6254  0.0386
  535SOL    HW2 1605   0.671   2.356   0.054  2.1462 -1.1825 -0.3125
  536SOL     OW 1606   0.483   2.880   0.364  0.2859  0.8204  0.1331
  536SOL    HW1 1607   0.531   2.971   0.368  1.7645  0.4204  2.3973
  536SOL    HW2 1608   0.532   2.805   0.419 -0.2681 -0.3474 -0.0922
  537SOL     OW 1609   1.997   0.318   0.424 -0.4581 -0.1204 -0.2303
  537SOL    HW1 1610   1.978   0.229   0.374  0.4192 -1.4872 -1.7781
  537SOL    HW2 1611   1.912   0.355   0.467 -1.1311 -0.0688 -0.7146
  538SOL     OW 1612   2.506   2.093   2.891  0.3358  0.1764  0.1105
  538SOL    HW1 1613   2.440   2.170   2.890  2.0712 -0.2953  0.1511
  538SOL    HW2 1614   2.482   2.027   2.820  2.1333 -0.4653  2.4198
  539SOL     OW 1615   2.700   1.579   3.009 -0.3862  0.6053 -0.1825
  539SOL    HW1 1616   2.601   1.566   3.033  1.7150  1.6273 -0.7606
  539SOL    HW2 1617   2.759   1.547   3.083 -0.7216 -0.9400 -1.0732
  540SOL     OW 1618   0.895   2.871   1.761  0.5854 -0.5725 -0.0034
  540SOL    HW1 1619   0.922   2.948   1.822  2.0582 -3.1447 -2.2346
  540SOL    HW2 1620   0.948   2.870   1.672  5.0799  3.1116 -0.7491
  541SOL     OW 1621   2.423   3.098   2.325 -0.0193  0.1916  0.2253
  541SOL    HW1 1622   2.406   0.048   2.245 -1.7786 -1.4140 -1.5504
  541SOL    HW2 1623   2.442   2.999   2.296  0.5898  1.4453  0.6045
  542SOL     OW 1624   0.250   0.892   2.945 -0.4638 -0.0782  0.7320
  542SOL    HW1 1625   0.168   0.833   2.960  0.1358  0.8811  0.9765
  542SOL    HW2 1626   0.296   0.908   3.036 -0.6826 -0.6948 -0.4447
  543SOL     OW 1627   0.353   0.878   0.725  0.3649 -0.5285 -0.4598
  543SOL    HW1 1628   0.314   0.934   0.801 -1.0918  0.2057  0.3572
  543SOL    HW2 1629   0.301   0.786   0.719 -0.2886 -2.9173  0.7285
  544SOL     OW 1630   2.510   0.698   1.409 -0.2537  0.4142  0.5307
  544SOL    HW1 1631   2.561   0.628   1.352  1.1243  0.1148 -0.7334
  544SOL    HW2 1632   2.574   0.761   1.456 -0.4150  2.4405 -1.2209
  545SOL     OW 1633   1.505   1.784   0.562 -0.1498  1.3930  0.0175
  545SOL    HW1 1634   1.486   1.882   0.581  1.2662  0.5658  1.8879
  545SOL    HW2 1635   1.573   1.776   0.486  0.4256  2.6082  1.6037
  546SOL     OW 1636   2.223   2.526   1.630  0.0205  0.3324 -0.2330
  546SOL    HW1 1637   2.236   2.476   1.543 -0.7094  1.6362  1.1764
  546SOL    HW2 1638   2.272   2.615   1.640  2.1155 -2.2766  1.6314
  547SOL     OW 1639   0.600   2.409   2.208  0.5643  0.1355 -0.2831
  547SOL    HW1 1640   0.574   2.333   2.144 -0.3648  0.1284 -0.1027
  547SOL    HW2 1641   0.570   2.499   2.169  0.6182 -1.4023  3.3098
  548SOL     OW 1642   1.349   0.666   2.726 -0.1203  0.0302  0.0301
  548SOL    HW1 1643   1.382   0.676   2.821 -1.8698 -2.3922  0.1949
  548SOL    HW2 1644   1.413   0.622   2.660 -0.9949  1.3470 -0.6888
  549SOL     OW 1645   2.630   0.550   0.214  0.5407  0.4054 -0.2680
  549SOL    HW1 1646   2.528   0.544   0.232 -0.7224 -0.2030  0.4732
  549SOL    HW2 1647   2.666   0.646   0.231 -2.1309  2.9563 -5.0161
  550SOL     OW 1648   2.161   0.960   0.287 -0.1947 -0.5561  0.8441
  550SOL    HW1 1649   2.202   0.977   0.375  0.4959 -0.1950 -0.1335
  550SOL    HW2 1650   2.075   1.012   0.271 -1.7787  2.0035 -1.5334
  551SOL     OW 1651   1.522   0.341   1.044 -0.7971 -0.6712 -0.3190
  551SOL    HW1 1652   1.514   0.429   0.994  1.2199  0.9333  1.4875
  551SOL    HW2 1653   1.622   0.322   1.073  0.9657 -1.0455  1.4063
  552SOL     OW 1654   2.096   2.940   2.403  0.6713 -0.0083  0.4214
  552SOL    HW1 1655   2.023   2.914   2.473  2.4095  0.7871  0.3952
  552SOL    HW2 1656   2.163   3.007   2.442  1.8390 -0.9819 -2.7024
  553SOL     OW 1657   0.590   2.982   2.262  0.2555  0.2181  0.3486
  553SOL    HW1 1658   0.628   2.891   2.288  1.4818 -1.1389 -1.4486
  553SOL    HW2 1659   0.535   2.964   2.176  0.3895  0.9331 -0.8615
  554SOL     OW 1660   0.232   0.154   1.438  0.1963 -0.5162 -0.0266
  554SOL    HW1 1661   0.169   0.231   1.432  2.8143  0.6669  1.3898
  554SOL    HW2 1662   0.311   0.183   1.489 -1.6749  0.5810  2.8118
  555SOL     OW 1663   2.572   1.831   2.191  0.0033 -0.3996  0.2918
  555SOL    HW1 1664   2.510   1.911   2.181 -0.7327  0.0908 -2.9904
  555SOL    HW2 1665   2.659   1.836   2.137 -0.6140 -0.6183  1.0263
  556SOL     OW 1666   1.163   0.462   2.961  0.1482 -0.2087  0.0201
  556SOL    HW1 1667   1.170   0.377   2.907  1.4714 -0.4064 -0.1398
  556SOL    HW2 1668   1.088   0.453   3.026  2.3590  0.5866  0.6180
  557SOL     OW 1669   0.306   2.148   2.409 -0.2966 -0.1190  0.4621
  557SOL    HW1 1670   0.401   2.141   2.444  1.9297  1.2406  1.8883
  557SOL    HW2 1671   0.287   2.076   2.345  0.5900  4.1135 -0.8008
  558SOL     OW 1672   1.912   0.552   2.641  0.1489 -0.0452  0.0922
  558SOL    HW1 1673   1.927   0.551   2.541  0.1288  0.3908  2.6561
  558SOL    HW2 1674   1.885   0.459   2.678 -1.0753 -2.1262  0.4933
  559SOL     OW 1675   2.188   1.906   1.664  0.0208  0.0582 -0.3212
  559SOL    HW1 1676   2.197   1.808   1.695  1.3691  0.4540  2.0887
  559SOL    HW2 1677   2.094   1.946   1.679 -0.0860 -1.4916 -2.0908
  560SOL     OW 1678   2.044   0.822   2.121 -0.4289  0.9452  0.7334
  560SOL    HW1 1679   2.087   0.911   2.132 -0.6492  0.7009  1.2648
  560SOL    HW2 1680   2.057   0.774   2.032 -0.2479 -0.5857  2.0104
  561SOL     OW 1681   0.235   0.095   2.751  0.1745  0.1997 -0.0626
  561SOL    HW1 1682   0.139   0.058   2.748  1.7599  1.6269  0.8332
  561SOL    HW2 1683   0.267   0.101   2.849 -2.6767  1.3213  0.2163
  562SOL     OW 1684   0.913   1.722   1.505 -0.0544 -0.5055  0.0025
  562SOL    HW1 1685   0.972   1.699   1.427  1.6090  0.3150 -2.0035
  562SOL    HW2 1686   0.863   1.639   1.532 -0.8825  1.0887  0.1789
  563SOL     OW 1687   1.041   0.156   3.018  0.3933  0.4260  0.4685
  563SOL    HW1 1688   1.122   0.157   3.079  0.0646 -4.0435 -1.8899
  563SOL    HW2 1689   0.964   0.196   3.069  2.2713  1.6644  0.1165
  564SOL     OW 1690   2.980   2.375   0.933 -0.5073  0.2955  0.4456
  564SOL    HW1 1691   3.064   2.320   0.903  2.5250 -1.1760 -0.3697
  564SOL    HW2 1692   2.948   2.432   0.858  0.1015  0.8173 -0.6947
  565SOL     OW 1693   0.750   2.200   1.383  0.1675  0.5162 -0.0095
  565SOL    HW1 1694   0.723   2.099   1.375 -1.5233 -0.1133 -1.5404
  565SOL    HW2 1695   0.667   2.253   1.377  1.1238  1.5473  0.4601
  566SOL     OW 1696   1.223   0.109   2.523 -0.2296 -0.1628  0.4473
  566SOL    HW1 1697   1.225   0.013   2.559 -1.0728  0.1007  1.9124
  566SOL    HW2 1698   1.132   0.148   2.541 -2.6274 -1.3359 -0.0034
  567SOL     OW 1699   2.579   2.913   0.777 -0.0091  0.3755 -0.1738
  567SOL    HW1 1700   2.527   2.957   0.850  1.4117 -0.3453 -2.3427
  567SOL    HW2 1701   2.518   2.869   0.708  2.2228  2.9499 -1.5498
  568SOL     OW 1702   1.495   1.419   0.857  0.5100 -0.4342 -0.5343
  568SOL    HW1 1703   1.403   1.389   0.900  0.0186  2.2092 -1.5306
  568SOL    HW2 1704   1.482   1.433   0.757 -0.7040 -2.4336  0.2120
  569SOL     OW 1705   2.712   1.374   2.631  1.0953 -0.6715 -0.1754
  569SOL    HW1 1706   2.639   1.437   2.671  2.3954  0.1671  1.9187
  569SOL    HW2 1707   2.684   1.277   2.644  1.6707 -1.1480 -1.4045
  570SOL     OW 1708   2.985   0.241   1.958 -0.0714  0.4017  0.6752
  570SOL    HW1 1709   3.065   0.178   1.985  2.0931 -1.2385 -1.1912
  570SOL    HW2 1710   2.963   0.218   1.861 -0.8843  1.4660 -0.7246
  571SOL     OW 1711   0.231   0.135   1.792  0.1256 -0.5360  0.4004
  571SOL    HW1 1712   0.307   0.188   1.743  0.9152 -1.9620  0.3888
  571SOL    HW2 1713   0.195   0.049   1.743 -1.1905  0.1167 -2.0475
  572SOL     OW 1714   2.971   2.176   1.203  0.1382 -0.4245 -0.2104
  572SOL    HW1 1715   2.888   2.196   1.144 -1.3487 -0.1620 -1.3093
  572SOL    HW2 1716   3.053   2.239   1.186 -1.2147  1.1762 -1.2457
  573SOL     OW 1717   1.122   0.729   2.991  0.3024 -0.3120  0.0975
  573SOL    HW1 1718   1.029   0.720   2.961  1.0707  0.0107  0.4476
  573SOL    HW2 1719   1.161   0.638   2.977 -0.9608  0.3497  1.7277
  574SOL     OW 1720   2.408   2.561   2.686  0.1158 -0.2292 -0.2862
  574SOL    HW1 1721   2.501   2.585   2.715 -0.2354 -0.5750  0.5058
  574SOL    HW2 1722   2.347   2.641   2.698  0.4731 -0.4191  0.2469
  575SOL     OW 1723   1.337   2.834   1.101  0.1045  0.2320  0.5017
  575SOL    HW1 1724   1.343   2.810   1.198  0.6125  2.2124 -3.3571
  575SOL    HW2 1725   1.422   2.863   1.054  1.3215 -0.9108  1.5498
  576SOL     OW 1726   1.084   0.279   0.923 -0.4948 -0.1127  0.0024
  576SOL    HW1 1727   1.184   0.272   0.898 -1.3104  0.7044 -0.5920
  576SOL    HW2 1728   1.047   0.354   0.867 -2.9807 -0.7684 -1.3848
  577SOL     OW 1729   2.405   1.141   0.721 -0.6398 -0.3900  0.1919
  577SOL    HW1 1730   2.406   1.235   0.685 -0.0540  0.2742 -0.1893
  577SOL    HW2 1731   2.343   1.084   0.665 -2.1278  0.5766 -3.2120
  578SOL     OW 1732   1.823   0.469   0.912  0.0312 -0.2508 -0.7072
  578SOL    HW1 1733   1.851   0.372   0.918  2.2621 -0.4757 -3.1207
  578SOL    HW2 1734   1.882   0.527   0.979  1.9708  0.0691  1.0165
  579SOL     OW 1735   1.763   0.718   2.800  0.0145 -0.6600 -0.5735
  579SOL    HW1 1736   1.782   0.649   2.725  0.4769  3.1723  1.6051
  579SOL    HW2 1737   1.840   0.722   2.863 -1.7677 -0.0144  2.6401
  580SOL     OW 1738   1.406   1.017   2.127 -0.3305  0.2635  0.0135
  580SOL    HW1 1739   1.418   0.992   2.227  0.9680  1.1248 -1.4945
  580SOL    HW2 1740   1.354   1.107   2.114 -0.2739  1.1777 -1.3606
  581SOL     OW 1741   0.273   0.610   0.706  0.0677 -0.3975  0.0656
  581SOL    HW1 1742   0.282   0.596   0.807 -0.2295  0.4375  2.0476
  581SOL    HW2 1743   0.189   0.564   0.668 -1.5348 -0.4626  1.6274
  582SOL     OW 1744   2.701   0.186   1.951  0.1942  0.5507 -0.2306
  582SOL    HW1 1745   2.797   0.201   1.929 -2.5270  1.9937  1.5282
  582SOL    HW2 1746   2.669   0.263   2.005 -1.8158 -3.7583 -1.1977
  583SOL     OW 1747   0.223   0.622   2.479 -0.3788 -0.5038  0.3612
  583SOL    HW1 1748   0.284   0.608   2.562 -1.5691 -0.1232 -0.7170
  583SOL    HW2 1749   0.259   0.568   2.396  1.7114  2.9660 -1.9013
  584SOL     OW 1750   2.071   2.067   3.044 -0.0824 -0.5693  0.0169
  584SOL    HW1 1751   2.137   2.049   0.007 -0.2364  0.4845  0.0223
  584SOL    HW2 1752   2.130   2.063   2.959 -2.9088  0.8745  2.6942
  585SOL     OW 1753   0.289   2.210   2.967 -0.0329  0.3192  0.2959
  585SOL    HW1 1754   0.203   2.169   3.000  1.6297  2.1179  1.2448
  585SOL    HW2 1755   0.351   2.218   3.050  1.8787  1.1955  1.5823
  586SOL     OW 1756   2.053   1.598   2.371  0.0095 -0.2115  0.0832
  586SOL    HW1 1757   2.034   1.633   2.278 -1.4434  1.7222  0.7184
  586SOL    HW2 1758   2.142   1.545   2.376  2.6091 -1.7597  0.6576
  587SOL     OW 1759   2.558   1.857   2.640 -0.1723  0.1210 -0.2925
  587SOL    HW1 1760   2.563   1.777   2.696 -2.2173 -1.2412  0.0597
  587SOL    HW2 1761   2.623   1.858   2.562  0.2054  0.9309 -0.4722
  588SOL     OW 1762   3.053   0.288   1.176 -0.3687  0.5143 -0.1726
  588SOL    HW1 1763   3.034   0.357   1.105  2.0654 -1.0528 -1.3956
  588SOL    HW2 1764   3.093   0.335   1.262 -0.0753  0.6451 -1.5558
  589SOL     OW 1765   1.034   0.370   0.333  0.3098 -0.0441 -0.6338
  589SOL    HW1 1766   1.005   0.457   0.286 -0.7068 -2.3380 -1.9610
  589SOL    HW2 1767   0.968   0.293   0.316 -0.7688  1.4903  0.6929
  590SOL     OW 1768   2.498   1.888   0.423  0.1003  0.3866  0.0543
  590SOL    HW1 1769   2.400   1.865   0.399 -3.0304  0.3044 -1.8751
  590SOL    HW2 1770   2.547   1.944   0.354  0.7579 -0.7240  1.8809
  591SOL     OW 1771   0.379   2.467   1.314 -0.4121 -0.1852  0.1032
  591SOL    HW1 1772   0.282   2.431   1.311 -0.9965  0.3521  0.2743
  591SOL    HW2 1773   0.384   2.547   1.247 -0.4866 -0.9964  1.7372
  592SOL     OW 1774   1.343   0.993   1.127  0.0591 -0.7064 -0.3172
  592SOL    HW1 1775   1.281   1.054   1.185 -1.3021  2.1646 -1.0202
  592SOL    HW2 1776   1.340   0.894   1.154 -1.7444 -1.7689 -0.9301
  593SOL     OW 1777   0.927   2.254   1.604  0.2858  0.0914 -0.2817
  593SOL    HW1 1778   0.887   2.236   1.515  1.7031 -2.6392  0.9950
  593SOL    HW2 1779   0.854   2.250   1.675  2.2038 -0.8914 -1.2590
  594SOL     OW 1780   1.153   1.592   0.299  0.2065  0.2929 -0.0882
  594SOL    HW1 1781   1.157   1.543   0.388 -0.0755  2.4994 -2.2147
  594SOL    HW2 1782   1.243   1.613   0.254  1.2742  0.8777 -0.1602
  595SOL     OW 1783   1.674   1.033   1.497  0.1586 -0.3605  1.0980
  595SOL    HW1 1784   1.675   1.136   1.472  1.3052  4.9724 -1.7097
  595SOL    HW2 1785   1.576   0.999   1.510 -0.5547 -0.3223 -1.8161
  596SOL     OW 1786   2.997   0.754   1.732  0.4274  0.4213  0.5368
  596SOL    HW1 1787   2.993   0.666   1.779 -2.3756  2.6798  0.4123
  596SOL    HW2 1788   2.905   0.794   1.727  1.9995 -2.5422 -1.2772
  597SOL     OW 1789   1.198   2.902   2.016 -0.3119  0.1837  0.0317
  597SOL    HW1 1790   1.108   2.938   1.992  2.2792  0.0480  1.5412
  597SOL    HW2 1791   1.209   2.840   2.100  1.5308 -2.0586  3.7571
  598SOL     OW 1792   2.474   1.321   1.637  0.2588 -0.1832  0.7618
  598SOL    HW1 1793   2.412   1.366   1.570 -1.2033  0.3840  0.0398
  598SOL    HW2 1794   2.509   1.388   1.706 -1.7483  0.5176 -2.4561
  599SOL     OW 1795   0.856   2.829   0.016  0.4265  0.1308 -0.6649
  599SOL    HW1 1796   0.755   2.836   0.007  0.8024  1.8889  1.5567
  599SOL    HW2 1797   0.893   2.735   3.106  1.9725  0.5475 -0.8302
  600SOL     OW 1798   3.030   2.294   0.157  0.4067  0.0972  0.1383
  600SOL    HW1 1799   2.965   2.237   0.215 -0.8497 -1.3111  0.9459
  600SOL    HW2 1800   3.061   2.232   0.077  0.0160 -2.7190  1.4329
  601SOL     OW 1801   0.561   0.818   1.455 -0.3059  0.8178 -0.6703
  601SOL    HW1 1802   0.476   0.832   1.512  1.5169 -3.8911  1.4144
  601SOL    HW2 1803   0.626   0.767   1.520  2.0597 -0.9998  1.3141
  602SOL     OW 1804   0.560   0.194   1.035 -0.0780  0.6527  0.3153
  602SOL    HW1 1805   0.504   0.150   1.108 -0.5584 -4.1307 -0.1732
  602SOL    HW2 1806   0.590   0.124   0.965  0.6629 -1.2113  0.4899
  603SOL     OW 1807   0.166   0.302   2.605  0.5575  0.5800 -0.0019
  603SOL    HW1 1808   0.190   0.213   2.655  0.1620  1.4153 -1.0474
  603SOL    HW2 1809   0.232   0.372   2.620 -4.0807 -1.1824 -0.0479
  604SOL     OW 1810   1.133   2.601   1.486  0.4437 -0.1773 -0.2235
  604SOL    HW1 1811   1.226   2.563   1.468  0.0164 -1.9997 -0.5690
  604SOL    HW2 1812   1.072   2.538   1.439  2.7960  1.1183 -0.6237
  605SOL     OW 1813   1.417   1.154   1.802  0.8810 -0.3099  0.3342
  605SOL    HW1 1814   1.473   1.235   1.832  2.2661  1.8822 -0.1536
  605SOL    HW2 1815   1.322   1.160   1.837 -2.5927  1.1563  1.5592
  606SOL     OW 1816   2.057   2.767   2.778  0.3701  0.1659  0.4633
  606SOL    HW1 1817   2.030   2.677   2.825 -0.9836 -1.3375  1.2425
  606SOL    HW2 1818   2.041   2.847   2.839  2.5871  1.0118  1.8910
  607SOL     OW 1819   0.864   0.281   1.700  0.1257  0.1976 -0.1570
  607SOL    HW1 1820   0.957   0.327   1.689  1.2532  0.4871  0.5224
  607SOL    HW2 1821   0.814   0.280   1.606 -0.2924  0.3957 -1.2264
  608SOL     OW 1822   0.339   2.413   2.319 -0.6483  0.7718  0.4537
  608SOL    HW1 1823   0.307   2.324   2.358  1.0431  0.9268  0.6167
  608SOL    HW2 1824   0.429   2.394   2.270  0.1551 -0.1356 -2.2109
  609SOL     OW 1825   1.173   1.185   0.360 -0.2956 -0.0645 -0.3710
  609SOL    HW1 1826   1.077   1.169   0.326  0.2621  2.5013  1.9270
  609SOL    HW2 1827   1.247   1.196   0.292 -1.2715  1.6536  0.2302
  610SOL     OW 1828   0.472   2.928   1.167 -0.7057  0.6795 -0.1442
  610SOL    HW1 1829   0.551   2.944   1.106  0.6791  1.1689 -0.6343
  610SOL    HW2 1830   0.444   3.014   1.214 -1.9770 -0.5090  0.5795
  611SOL     OW 1831   1.250   1.196   0.623  0.0548 -0.3418  0.0149
  611SOL    HW1 1832   1.213   1.179   0.529  0.6320  0.2824  2.1501
  611SOL    HW2 1833   1.258   1.109   0.672 -0.2302  0.2380 -0.6926
  612SOL     OW 1834   2.093   1.746   0.093 -0.1856 -0.4741  0.0655
  612SOL    HW1 1835   2.080   1.835   0.142 -0.9641  2.1182  0.9413
  612SOL    HW2 1836   2.047   1.668   0.144 -2.0778 -3.5047 -2.2798
  613SOL     OW 1837   1.683   1.495   0.266 -0.0368  0.4448  0.0539
  613SOL    HW1 1838   1.689   1.414   0.204 -0.9744 -1.0125 -0.1235
  613SOL    HW2 1839   1.606   1.554   0.239  1.6118 -1.8440  1.1397
  614SOL     OW 1840   2.791   0.250   2.577 -0.1412  0.0160  0.8081
  614SOL    HW1 1841   2.728   0.299   2.507  1.7060 -0.8661  0.9067
  614SOL    HW2 1842   2.877   0.307   2.595  0.6193  2.9757  1.2887
  615SOL     OW 1843   0.827   1.587   0.555 -0.0447 -0.0157  0.7626
  615SOL    HW1 1844   0.829   1.502   0.502 -0.4187  0.5234  1.9199
  615SOL    HW2 1845   0.916   1.617   0.595  0.0148  2.2570 -1.4362
  616SOL     OW 1846   1.654   0.925   2.960  0.1907 -0.5240  0.5380
  616SOL    HW1 1847   1.671   0.854   2.887  1.4203 -1.5811  0.4944
  616SOL    HW2 1848   1.577   0.891   3.017 -1.3418  0.3217 -2.0586
  617SOL     OW 1849   1.544   0.251   0.320  0.4377  0.0176  0.5526
  617SOL    HW1 1850   1.579   0.315   0.388 -1.4918 -1.3780 -0.6208
  617SOL    HW2 1851   1.445   0.224   0.331 -1.3165  0.4237  2.4852
  618SOL     OW 1852   2.954   2.047   2.519 -0.3380  0.0993 -0.0194
  618SOL    HW1 1853   3.033   2.105   2.502 -1.5666 -0.1116 -0.0544
  618SOL    HW2 1854   2.958   1.988   2.602  1.1222 -0.0200 -1.9256
  619SOL     OW 1855   2.260   1.732   0.830  0.0464  0.4071  0.9216
  619SOL    HW1 1856   2.198   1.814   0.845  0.3667 -2.3256  2.4552
  619SOL    HW2 1857   2.343   1.754   0.777 -0.4473 -1.7459  0.8101
  620SOL     OW 1858   2.375   0.241   1.552 -0.1526  0.3399 -0.0912
  620SOL    HW1 1859   2.403   0.275   1.461 -1.2300 -0.0663 -0.3799
  620SOL    HW2 1860   2.291   0.184   1.547  2.2395  1.5299 -1.6572
  621SOL     OW 1861   3.059   1.991   0.819 -0.3189  0.6005 -0.1626
  621SOL    HW1 1862   3.061   1.917   0.888 -1.6351 -0.6410  0.0332
  621SOL    HW2 1863   3.065   2.081   0.868  1.0855  0.7845  2.1156
  622SOL     OW 1864   0.688   1.529   2.242 -0.0502  0.0652 -0.1478
  622SOL    HW1 1865   0.593   1.562   2.233 -0.9233 -1.2635 -0.9480
  622SOL    HW2 1866   0.725   1.470   2.165  3.2425 -1.0725 -2.5129
  623SOL     OW 1867   2.665   2.697   2.691 -0.3168  0.2092 -0.1777
  623SOL    HW1 1868   2.641   2.716   2.593 -0.8811  0.1871  0.4633
  623SOL    HW2 1869   2.767   2.687   2.703 -0.4714 -0.5596 -2.2841
  624SOL     OW 1870   1.007   1.834   0.287  0.2446  0.2807 -0.3248
  624SOL    HW1 1871   1.079   1.904   0.283  0.2657 -2.2131  2.3347
  624SOL    HW2 1872   1.051   1.748   0.319  0.1363  2.7293  1.1385
  625SOL     OW 1873   0.680   1.937   2.112  0.4488 -0.3655  0.6030
  625SOL    HW1 1874   0.675   1.892   2.200 -0.2422 -0.1150 -2.4292
  625SOL    HW2 1875   0.663   1.878   2.034 -0.8371  0.4441  1.7599
  626SOL     OW 1876   0.130   2.376   0.338  0.4539  0.8151  0.5470
  626SOL    HW1 1877   0.167   2.325   0.418  2.1164  2.0652  1.1830
  626SOL    HW2 1878   0.052   2.329   0.287  0.1556 -1.0042  2.0286
  627SOL     OW 1879   0.889   1.750   2.546 -0.4660 -0.6844 -0.2248
  627SOL    HW1 1880   0.888   1.651   2.573  2.4189  2.3561 -0.5278
  627SOL    HW2 1881   0.986   1.787   2.556 -0.4088  0.5283  0.1918
  628SOL     OW 1882   1.521   2.033   0.657  0.0010  0.1575 -0.2687
  628SOL    HW1 1883   1.481   2.120   0.630  0.4665 -1.5151  1.5005
  628SOL    HW2 1884   1.623   2.048   0.649  0.6926  2.2843 -0.3179
  629SOL     OW 1885   0.987   0.612   1.695 -0.1875  0.6987  0.0463
  629SOL    HW1 1886   1.023   0.678   1.756 -1.3439 -1.9458 -1.6646
  629SOL    HW2 1887   1.040   0.525   1.707  1.6237 -1.3510  0.2882
  630SOL     OW 1888   2.607   0.204   1.687 -0.1430 -0.2756 -0.0298
  630SOL    HW1 1889   2.526   0.219   1.627  0.2987  0.9348  1.6680
  630SOL    HW2 1890   2.590   0.165   1.774  0.8903  1.9624  0.9697
  631SOL     OW 1891   1.485   0.654   0.692  0.0072  0.4171  0.0416
  631SOL    HW1 1892   1.494   0.755   0.680 -0.7093 -0.7712 -1.7314
  631SOL    HW2 1893   1.408   0.622   0.640  2.4111 -0.9234  4.9133
  632SOL     OW 1894   2.383   0.555   2.148 -0.4366 -0.3491  0.0420
  632SOL    HW1 1895   2.319   0.613   2.198  2.1529 -0.7223 -2.9293
  632SOL    HW2 1896   2.341   0.464   2.131  0.3720  2.5668  0.3090
  633SOL     OW 1897   1.303   1.328   2.949  0.5166  0.0757  0.1136
  633SOL    HW1 1898   1.242   1.339   2.868  0.0434 -3.1740 -3.7813
  633SOL    HW2 1899   1.386   1.265   2.938  0.1923 -2.7668  0.8451
  634SOL     OW 1900   0.418   2.182   0.115 -0.6278 -0.1657  0.3244
  634SOL    HW1 1901   0.440   2.275   0.162  1.2021  2.6958 -0.4714
  634SOL    HW2 1902   0.508   2.136   0.088 -1.1745  1.5491  1.1796
  635SOL     OW 1903   2.780   1.413   1.897 -0.7020 -0.3486 -0.0891
  635SOL    HW1 1904   2.758   1.380   1.990 -2.5330 -0.6720 -1.4193
  635SOL    HW2 1905   2.694   1.428   1.845 -0.2884  0.4821 -0.7061
  636SOL     OW 1906   0.533   1.818   0.051 -0.1058 -0.2393 -0.2122
  636SOL    HW1 1907   0.516   1.720   0.079  1.2253  1.6416  1.0400
  636SOL    HW2 1908   0.468   1.859   3.092 -3.4861 -0.2791 -1.6819
  637SOL     OW 1909   0.023   2.118   0.472 -0.4771  0.0684 -0.5543
  637SOL    HW1 1910   0.034   2.068   0.384 -2.5159  0.6094 -0.3726
  637SOL    HW2 1911   3.044   2.091   0.514 -4.1007  0.7532  1.8015
  638SOL     OW 1912   2.717   2.686   0.498 -0.3938  0.4354  0.0811
  638SOL    HW1 1913   2.631   2.719   0.547 -0.7314  0.2415  0.1644
  638SOL    HW2 1914   2.709   2.592   0.455  1.2841  0.4082  1.5714
  639SOL     OW 1915   1.001   0.615   0.245 -0.1087 -0.2584 -0.4921
  639SOL    HW1 1916   0.914   0.604   0.194  2.2245  0.5934 -1.6003
  639SOL    HW2 1917   1.001   0.710   0.288 -0.2211  2.1372 -0.2990
  640SOL     OW 1918   2.319   2.480   1.891  0.0112 -0.1624  0.2708
  640SOL    HW1 1919   2.271   2.396   1.914  0.3870  1.5743 -0.3250
  640SOL    HW2 1920   2.305   2.499   1.797 -4.0324 -2.7912  3.5064
  641SOL     OW 1921   2.729   3.057   1.249  0.1043 -0.1838  0.2088
  641SOL    HW1 1922   2.779   0.001   1.179 -1.0674 -0.3011  1.1378
  641SOL    HW2 1923   2.747   2.959   1.245 -0.4650  3.2041 -1.6028
  642SOL     OW 1924   1.446   0.962   1.612 -0.1226 -0.1852 -0.1459
  642SOL    HW1 1925   1.435   1.036   1.685 -0.8030  0.1329  1.4235
  642SOL    HW2 1926   1.385   0.885   1.626 -1.6396  1.9357 -1.2571
  643SOL     OW 1927   1.049   1.486   2.223  0.6035  0.1450 -0.4880
  643SOL    HW1 1928   0.990   1.422   2.170  0.4305  2.8710  1.6198
  643SOL    HW2 1929   1.064   1.569   2.164 -2.8819 -0.4501 -2.8146
  644SOL     OW 1930   1.336   0.523   2.111 -0.0423 -0.0056  0.2782
  644SOL    HW1 1931   1.275   0.451   2.138  3.8855  4.6345  0.5506
  644SOL    HW2 1932   1.432   0.509   2.133  1.0137 -0.4732 -2.1490
  645SOL     OW 1933   1.820   1.330   1.690 -0.0615 -0.1001  0.3491
  645SOL    HW1 1934   1.740   1.363   1.633 -1.1734  0.1472  0.9076
  645SOL    HW2 1935   1.806   1.240   1.737  1.1201 -2.2938 -0.4618
  646SOL     OW 1936   1.449   2.230   0.176 -0.3482  0.4653  0.1350
  646SOL    HW1 1937   1.438   2.241   0.075  0.0784 -2.9952  1.5670
  646SOL    HW2 1938   1.477   2.136   0.195  0.6569  1.3788  0.1555
  647SOL     OW 1939   1.813   2.724   1.073 -0.0615  0.1992  0.2015
  647SOL    HW1 1940   1.888   2.667   1.042  1.8861 -0.8159 -2.8599
  647SOL    HW2 1941   1.760   2.670   1.142  1.8661  1.0814  0.1304
  648SOL     OW 1942   3.085   2.401   1.535 -0.3799  0.1145 -0.1312
  648SOL    HW1 1943   2.986   2.411   1.554  1.6695 -2.3247 -0.5392
  648SOL    HW2 1944   3.109   2.307   1.556  0.3224 -0.3915 -0.0422
  649SOL     OW 1945   1.226   2.410   2.798  0.1594 -0.0749 -0.5311
  649SOL    HW1 1946   1.214   2.345   2.877 -0.9395 -1.1503  2.0686
  649SOL    HW2 1947   1.288   2.368   2.730  0.1406 -2.8021  3.0454
  650SOL     OW 1948   2.675   1.835   0.088 -0.1468 -0.4121 -0.5413
  650SOL    HW1 1949   2.753   1.835   0.154  2.2268  1.8724 -0.4348
  650SOL    HW2 1950   2.708   1.828   3.103 -0.5567 -2.2014 -0.2128
  651SOL     OW 1951   2.702   2.169   2.201  0.3181  0.1362  0.4970
  651SOL    HW1 1952   2.712   2.271   2.196 -0.5081  2.7179  2.2605
  651SOL    HW2 1953   2.675   2.127   2.109  2.1210 -1.2768 -0.0029
  652SOL     OW 1954   2.419   2.341   0.445 -0.0328 -0.3026 -0.3452
  652SOL    HW1 1955   2.348   2.410   0.458  1.9628 -1.1081  2.7200
  652SOL    HW2 1956   2.510   2.382   0.430 -1.4510 -3.6907 -2.1170
  653SOL     OW 1957   2.870   1.753   1.683 -0.6173  0.2914  0.3629
  653SOL    HW1 1958   2.900   1.692   1.758  1.4978  0.8360 -0.1782
  653SOL    HW2 1959   2.934   1.832   1.686 -2.2824  1.0573  2.4117
  654SOL     OW 1960   0.873   1.027   3.106 -0.3455  0.3212  0.6707
  654SOL    HW1 1961   0.968   1.057   3.092 -0.4270  0.5685  0.1409
  654SOL    HW2 1962   0.851   0.933   3.055  0.6598 -1.5363  0.2529
  655SOL     OW 1963   0.961   1.084   1.089 -0.1292  0.5606  0.6536
  655SOL    HW1 1964   1.031   1.112   1.157 -1.2971  1.3549 -1.0449
  655SOL    HW2 1965   0.972   1.133   1.002 -1.0815 -0.4571 -0.2497
  656SOL     OW 1966   1.459   2.714   2.023  0.1392 -0.3399  0.2636
  656SOL    HW1 1967   1.393   2.649   1.980 -0.0961 -2.5752  0.7021
  656SOL    HW2 1968   1.414   2.762   2.105 -0.1983 -1.4189  2.1533
  657SOL     OW 1969   2.082   1.367   0.202  0.0250  0.4146  0.1961
  657SOL    HW1 1970   2.026   1.289   0.248 -1.4624 -3.7502  0.0694
  657SOL    HW2 1971   2.117   1.339   0.114 -2.1421 -0.3877  2.0200
  658SOL     OW 1972   1.867   2.635   1.543  0.2695  0.5979 -0.0113
  658SOL    HW1 1973   1.868   2.577   1.628  0.1988 -1.5770  1.1325
  658SOL    HW2 1974   1.900   2.731   1.558 -0.3322  3.9723 -1.0644
  659SOL     OW 1975   2.929   1.765   0.253 -0.6226  0.7141 -0.1362
  659SOL    HW1 1976   2.929   1.684   0.195 -0.4398 -2.5349  2.2341
  659SOL    HW2 1977   3.008   1.766   0.318  1.2907 -0.4676  1.8964
  660SOL     OW 1978   1.069   0.325   0.593 -0.2520  0.3908 -0.6014
  660SOL    HW1 1979   1.033   0.339   0.500  3.0851  0.1171  2.3782
  660SOL    HW2 1980   1.122   0.240   0.594 -0.9842  2.4245  0.5588
  661SOL     OW 1981   2.039   0.186   2.846  0.3758  0.0228 -0.2642
  661SOL    HW1 1982   2.131   0.186   2.895  0.6489  0.2395  1.1984
  661SOL    HW2 1983   1.969   0.146   2.908  2.1671  0.1168  1.9369
  662SOL     OW 1984   0.327   0.279   0.624  0.4287 -0.0088 -0.2517
  662SOL    HW1 1985   0.334   0.197   0.685 -0.0805  0.2453 -1.1894
  662SOL    HW2 1986   0.409   0.338   0.631 -0.1562 -2.4866 -0.4728
  663SOL     OW 1987   1.510   2.918   2.812  0.4503 -0.0684 -0.1031
  663SOL    HW1 1988   1.461   2.829   2.816 -0.3491 -1.3133 -1.7752
  663SOL    HW2 1989   1.577   2.931   2.887  1.0485  0.7715 -0.5625
  664SOL     OW 1990   0.535   2.487   1.754  0.6556 -0.5877 -0.3502
  664SOL    HW1 1991   0.466   2.497   1.833 -4.4046  2.3015  0.7194
  664SOL    HW2 1992   0.503   2.549   1.673 -0.7995  0.7209 -3.6535
  665SOL     OW 1993   1.637   2.590   1.215 -0.5283 -0.2032  0.2406
  665SOL    HW1 1994   1.562   2.647   1.251 -1.1908  0.1875 -1.5950
  665SOL    HW2 1995   1.675   2.518   1.278  1.6765  0.1690 -0.1294
  666SOL     OW 1996   1.008   2.887   2.278  0.2352 -0.8741 -0.4177
  666SOL    HW1 1997   1.103   2.851   2.290  0.0168 -0.1547 -1.2877
  666SOL    HW2 1998   0.948   2.812   2.244  0.7551  0.3492  0.0603
  667SOL     OW 1999   2.595   0.498   1.777 -0.1150 -0.3619  0.3000
  667SOL    HW1 2000   2.613   0.534   1.684  0.9231  4.3771 -0.8893
  667SOL    HW2 2001   2.591   0.398   1.771 -1.2434 -0.1329 -1.5429
  668SOL     OW 2002   1.184   0.428   1.401 -0.5099 -0.2112 -0.5712
  668SOL    HW1 2003   1.130   0.346   1.382  1.7801 -0.5645 -0.4764
  668SOL    HW2 2004   1.151   0.504   1.344  1.9848 -0.2258 -1.1971
  669SOL     OW 2005   2.241   2.538   1.241 -0.0662 -0.4864 -0.1531
  669SOL    HW1 2006   2.158   2.598   1.262 -0.9593  2.1601 -2.0705
  669SOL    HW2 2007   2.249   2.462   1.305 -1.2979  3.1049 -1.3124
  670SOL     OW 2008   1.461   2.236   3.013  0.1768 -0.0720 -0.0522
  670SOL    HW1 2009   1.483   2.335   3.008  1.4825  0.7309 -3.5848
  670SOL    HW2 2010   1.542   2.192   2.976  0.6399  1.1495 -1.3671
  671SOL     OW 2011   0.629   1.190   0.267  0.0370  0.0943 -0.4650
  671SOL    HW1 2012   0.666   1.172   0.175 -0.6245 -0.8295 -0.0786
  671SOL    HW2 2013   0.574   1.110   0.296  2.6446  2.3759  0.2566
  672SOL     OW 2014   2.807   0.805   3.004 -0.1715  0.4939 -0.6301
  672SOL    HW1 2015   2.801   0.875   2.936 -2.3597 -0.2219 -1.1159
  672SOL    HW2 2016   2.856   0.721   2.977  0.9146  0.5330  1.5477
  673SOL     OW 2017   0.007   1.837   1.473  0.1098 -0.0022 -0.3947
  673SOL    HW1 2018   3.048   1.907   1.458  2.1077  0.0432 -0.3381
  673SOL    HW2 2019   0.094   1.883   1.478 -2.0270  0.8920  0.5522
  674SOL     OW 2020   1.415   2.110   1.495  0.1345  0.0672 -0.3963
  674SOL    HW1 2021   1.323   2.109   1.545 -0.0576  1.1819 -0.7374
  674SOL    HW2 2022   1.436   2.016   1.463 -1.9650  0.5642  1.5460
  675SOL     OW 2023   0.993   1.375   1.297 -0.2674  0.6249  0.5463
  675SOL    HW1 2024   1.039   1.464   1.320  1.1384 -0.5015 -1.8809
  675SOL    HW2 2025   0.907   1.398   1.251  1.2874 -0.6265  1.4747
  676SOL     OW 2026   2.325   0.654   1.212 -0.3255 -0.3532  0.0076
  676SOL    HW1 2027   2.335   0.717   1.130  1.1020  1.2665 -3.5276
  676SOL    HW2 2028   2.384   0.687   1.285  0.3773  2.3372 -2.0388
  677SOL     OW 2029   2.486   0.188   0.209 -0.5484  0.3461  0.0523
  677SOL    HW1 2030   2.416   0.246   0.170  1.0833 -3.8811 -1.7285
  677SOL    HW2 2031   2.557   0.170   0.136  0.6005  1.8634 -2.0373
  678SOL     OW 2032   2.533   1.469   1.051  0.4004 -0.4494 -0.8780
  678SOL    HW1 2033   2.630   1.447   1.029 -0.0704 -0.3996 -0.4780
  678SOL    HW2 2034   2.470   1.455   0.974 -0.4623  1.2062  3.0549
  679SOL     OW 2035   2.606   0.446   3.081 -0.3524 -0.0350 -0.1556
  679SOL    HW1 2036   2.599   0.490   0.063 -0.0203 -1.2583 -2.1535
  679SOL    HW2 2037   2.624   0.345   3.091 -0.9642  1.1245  1.4988
  680SOL     OW 2038   0.337   1.360   2.214 -0.0797 -0.1200 -0.5120
  680SOL    HW1 2039   0.415   1.287   2.214  2.1877 -3.4471 -0.8469
  680SOL    HW2 2040   0.296   1.368   2.310  3.0674 -2.1114  1.3665
  681SOL     OW 2041   2.499   2.248   1.601 -0.4920  0.3467  0.2330
  681SOL    HW1 2042   2.598   2.285   1.601  1.3516 -0.0892  0.4950
  681SOL    HW2 2043   2.493   2.180   1.678  0.4890 -0.8823  1.3377
  682SOL     OW 2044   0.631   2.035   2.860 -0.5832  0.3714 -0.5583
  682SOL    HW1 2045   0.572   2.104   2.812 -1.7336  0.2895  1.3565
  682SOL    HW2 2046   0.566   1.984   2.923 -0.4825 -1.1423 -0.7743
  683SOL     OW 2047   2.533   1.940   1.200 -0.2854  0.1177 -0.5831
  683SOL    HW1 2048   2.508   1.894   1.287 -0.2655  0.5912  3.0972
  683SOL    HW2 2049   2.570   2.033   1.207 -0.3146 -1.9223 -0.1938
  684SOL     OW 2050   2.672   1.087   1.930 -0.2835 -0.4114 -0.4359
  684SOL    HW1 2051   2.573   1.109   1.928  0.1058  0.1228  0.1737
  684SOL    HW2 2052   2.702   1.083   2.029 -3.3162 -2.1059  0.0791
  685SOL     OW 2053   1.011   0.848   0.937  0.5271 -0.2289  0.3515
  685SOL    HW1 2054   1.008   0.930   0.995  2.5085 -1.7217  0.3009
  685SOL    HW2 2055   0.968   0.767   0.985  2.2439 -1.2557  0.2085
  686SOL     OW 2056   0.698   0.296   2.974 -0.3887 -0.3371  0.2904
  686SOL    HW1 2057   0.714   0.213   2.913  1.1128 -1.0496 -0.7407
  686SOL    HW2 2058   0.610   0.299   3.026  1.5817  0.5914  0.6318
  687SOL     OW 2059   0.582   2.201   2.060  0.0796  1.0708  0.3779
  687SOL    HW1 2060   0.495   2.167   2.017 -0.0574 -2.1402  0.7757
  687SOL    HW2 2061   0.641   2.113   2.073 -0.1792 -0.5087  0.1105
  688SOL     OW 2062   1.977   0.275   1.425 -0.5892 -0.6423 -0.1230
  688SOL    HW1 2063   1.903   0.250   1.360 -1.9412 -1.4797  1.9485
  688SOL    HW2 2064   1.995   0.374   1.429  0.1765 -0.2345 -1.0522
  689SOL     OW 2065   2.054   0.787   0.652 -0.0259  0.6038  0.0997
  689SOL    HW1 2066   1.961   0.783   0.695  1.8218  1.4703 -0.9548
  689SOL    HW2 2067   2.117   0.736   0.717  0.2244 -2.5584  0.0166
  690SOL     OW 2068   2.918   0.913   1.420  0.3398  0.4261  0.4498
  690SOL    HW1 2069   2.919   1.002   1.474 -0.8916  0.0134  1.0765
  690SOL    HW2 2070   2.974   0.926   1.337 -2.7001 -0.7376 -1.0674
  691SOL     OW 2071   0.046   0.966   1.840  0.3092 -0.3491  0.2557
  691SOL    HW1 2072   0.030   1.043   1.777  2.6888 -0.6615  1.2404
  691SOL    HW2 2073   0.017   0.878   1.795  2.2471 -1.6923  0.7813
  692SOL     OW 2074   0.811   0.975   2.174  0.2125 -0.0618 -0.6914
  692SOL    HW1 2075   0.733   0.927   2.130  2.7049 -1.0682  0.6756
  692SOL    HW2 2076   0.880   1.007   2.110  0.1757 -1.8399 -2.9775
  693SOL     OW 2077   0.358   1.353   1.932 -0.0998 -0.2807  0.9922
  693SOL    HW1 2078   0.261   1.353   1.895  0.1463 -0.8102  0.3626
  693SOL    HW2 2079   0.348   1.357   2.033 -1.3979  2.0734  1.2918
  694SOL     OW 2080   1.474   1.522   0.574  0.1307 -0.4742  0.0538
  694SOL    HW1 2081   1.549   1.453   0.560 -1.1751 -1.8390  1.6290
  694SOL    HW2 2082   1.502   1.617   0.570  0.9171 -0.4382 -3.6666
  695SOL     OW 2083   0.287   1.038   0.931  0.2089  0.1651 -0.1701
  695SOL    HW1 2084   0.321   1.132   0.957  0.5806  0.2283 -0.6410
  695SOL    HW2 2085   0.186   1.049   0.897 -2.5235  0.5005 -1.5473
  696SOL     OW 2086   0.602   2.383   0.478 -0.4458 -0.7613 -0.1646
  696SOL    HW1 2087   0.546   2.386   0.392  1.0351 -0.3499 -2.1558
  696SOL    HW2 2088   0.701   2.395   0.455 -1.4223 -1.8498  1.7394
  697SOL     OW 2089   1.250   0.724   1.618 -0.1118  0.0832  0.1149
  697SOL    HW1 2090   1.315   0.699   1.536  0.0836 -2.6802 -0.6382
  697SOL    HW2 2091   1.170   0.660   1.621 -2.1065 -2.6744  0.4922
  698SOL     OW 2092   1.682   1.571   1.860 -0.4264 -0.6503 -0.3878
  698SOL    HW1 2093   1.645   1.538   1.771  1.1693 -0.9272  2.3915
  698SOL    HW2 2094   1.689   1.669   1.854  1.0106 -2.3166  1.8384
  699SOL     OW 2095   3.065   0.679   2.464  0.0449 -0.3746  0.0520
  699SOL    HW1 2096   3.067   0.738   2.383  1.2629  1.4169 -2.1704
  699SOL    HW2 2097   0.051   0.648   2.479  3.0254  0.0406 -0.7850
  700SOL     OW 2098   1.653   2.337   0.767  0.2926  0.0519  0.2471
  700SOL    HW1 2099   1.581   2.266   0.738 -1.7939 -2.4331  0.0193
  700SOL    HW2 2100   1.608   2.417   0.815 -1.0063  0.8093 -1.2325
  701SOL     OW 2101   0.331   1.679   2.453  0.3730  0.0737 -0.1481
  701SOL    HW1 2102   0.288   1.630   2.529 -0.0546 -0.0508  1.5370
  701SOL    HW2 2103   0.375   1.764   2.485 -0.6129  0.3776 -1.6798
  702SOL     OW 2104   0.450   0.316   3.050  0.4669  0.1946  0.2066
  702SOL    HW1 2105   0.396   0.231   3.028 -0.2533 -2.8343 -0.4783
  702SOL    HW2 2106   0.417   0.399   3.004  0.8229  0.7067 -2.0230
  703SOL     OW 2107   1.591   0.341   2.911 -0.3231  0.6664  0.7998
  703SOL    HW1 2108   1.684   0.331   2.867  0.8789  0.9552  0.2233
  703SOL    HW2 2109   1.512   0.303   2.858 -0.6266 -1.4703 -0.9165
  704SOL     OW 2110   2.731   1.766   0.773  0.0745 -0.0207  0.3918
  704SOL    HW1 2111   2.810   1.747   0.834  2.5218  1.5145 -3.2553
  704SOL    HW2 2112   2.770   1.765   0.676  0.4830 -0.2666 -1.6578
  705SOL     OW 2113   2.797   1.845   2.055 -0.1681  0.2678  0.5686
  705SOL    HW1 2114   2.852   1.772   2.012 -2.1618  0.7272 -2.3023
  705SOL    HW2 2115   2.853   1.900   2.109 -1.0320 -3.1458 -2.4530
  706SOL     OW 2116   0.066   2.691   1.133  0.4019 -0.0845 -0.1496
  706SOL    HW1 2117   3.100   2.741   1.085  0.0436  0.8361 -1.2299
  706SOL    HW2 2118   0.101   2.745   1.214  0.0749 -0.5237 -0.4825
  707SOL     OW 2119   0.870   3.019   0.224 -0.1695 -0.0241 -0.5529
  707SOL    HW1 2120   0.940   3.015   0.299  0.9026  0.3081  1.1618
  707SOL    HW2 2121   0.894   2.943   0.159 -0.8921 -2.1957 -3.8990
  708SOL     OW 2122   0.513   2.288   1.553  0.9576 -0.5636  0.3658
  708SOL    HW1 2123   0.563   2.360   1.609  1.0410  3.8480  1.1385
  708SOL    HW2 2124   0.417   2.273   1.589 -1.9144 -1.7677 -0.1795
  709SOL     OW 2125   1.466   0.201   2.139 -0.3984 -0.0001  0.1353
  709SOL    HW1 2126   1.378   0.241   2.172  0.6669 -1.4108 -1.8724
  709SOL    HW2 2127   1.452   0.101   2.122 -0.4128  2.4253  1.0211
  710SOL     OW 2128   1.271   2.983   2.653 -0.1068  0.0031  0.4443
  710SOL    HW1 2129   1.176   2.970   2.693 -4.1812  1.4229  0.6194
  710SOL    HW2 2130   1.345   2.970   2.724 -2.1280 -1.0980  1.0545
  711SOL     OW 2131   1.085   2.116   2.546  0.3709 -0.2187  0.0449
  711SOL    HW1 2132   1.103   2.019   2.576 -0.3781 -1.2289  1.2585
  711SOL    HW2 2133   1.161   2.170   2.581 -1.7701 -0.4998 -2.5067
  712SOL     OW 2134   1.100   1.967   3.050  0.2407  0.4903  0.4053
  712SOL    HW1 2135   1.028   1.892   3.043 -3.6651 -2.2996 -0.7166
  712SOL    HW2 2136   1.109   2.004   0.035  2.7944 -1.5438  1.5947
  713SOL     OW 2137   0.976   1.065   1.939  0.3205 -0.3303 -0.0197
  713SOL    HW1 2138   0.900   1.114   1.889  0.4766 -0.3217 -1.5748
  713SOL    HW2 2139   1.027   0.991   1.885 -1.4495 -0.8493 -0.2458
  714SOL     OW 2140   1.433   1.557   1.156  0.0771  0.2864 -0.1258
  714SOL    HW1 2141   1.525   1.590   1.130 -1.4501 -1.7374 -0.2167
  714SOL    HW2 2142   1.372   1.639   1.165 -0.5010 -1.4000  0.9126
  715SOL     OW 2143   2.709   0.233   0.609 -0.0214  0.0834 -0.0384
  715SOL    HW1 2144   2.736   0.304   0.679 -0.6154  0.7486 -0.2129
  715SOL    HW2 2145   2.625   0.260   0.559 -1.3671  0.4694  0.4536
  716SOL     OW 2146   0.614   2.662   0.532  0.2006  0.4278 -0.2299
  716SOL    HW1 2147   0.706   2.678   0.557 -1.0558 -3.8220 -2.5204
  716SOL    HW2 2148   0.603   2.559   0.516  0.6817 -0.9496 -0.5488
  717SOL     OW 2149   2.868   0.467   0.286  0.1943 -0.0299 -0.0112
  717SOL    HW1 2150   2.893   0.380   0.239  1.7815  0.4824 -0.1492
  717SOL    HW2 2151   2.773   0.488   0.260  4.4032 -1.7711  0.8533
  718SOL     OW 2152   1.774   1.993   1.180 -0.7995 -0.1242  0.3818
  718SOL    HW1 2153   1.812   1.912   1.130  1.2993  0.2594 -1.6998
  718SOL    HW2 2154   1.764   2.075   1.115 -0.3201  0.5281 -0.0959
  719SOL     OW 2155   2.780   2.220   1.006  0.3089  0.1093 -0.6682
  719SOL    HW1 2156   2.748   2.140   0.946 -2.9188 -1.2338 -1.1581
  719SOL    HW2 2157   2.853   2.279   0.959  0.2841 -1.0832  1.7388
  720SOL     OW 2158   0.672   1.015   1.095 -0.7202  0.4165 -0.6342
  720SOL    HW1 2159   0.776   1.001   1.093  3.6594  0.3272  1.5854
  720SOL    HW2 2160   0.645   1.054   1.004 -2.7655 -1.2268 -1.5395
  721SOL     OW 2161   1.509   0.631   0.991  0.2672  0.2559  0.0103
  721SOL    HW1 2162   1.504   0.662   0.894 -0.9822 -0.9450 -1.3341
  721SOL    HW2 2163   1.590   0.661   1.040  1.1505 -5.1218  3.3377
  722SOL     OW 2164   1.264   1.349   2.184 -0.0496  0.1806  0.3555
  722SOL    HW1 2165   1.338   1.371   2.251 -1.5120  0.4274 -1.3181
  722SOL    HW2 2166   1.171   1.389   2.209 -1.4338  3.8380  0.1798
  723SOL     OW 2167   1.000   3.026   1.312 -0.0683  0.0031  0.3150
  723SOL    HW1 2168   1.051   3.107   1.336 -1.1718 -0.0695  0.6766
  723SOL    HW2 2169   0.994   2.963   1.388  0.0644 -1.1225  0.3494
  724SOL     OW 2170   1.989   2.110   1.652 -0.0754 -0.2000  0.0074
  724SOL    HW1 2171   1.991   2.204   1.614  2.1013  0.6614  0.4632
  724SOL    HW2 2172   1.907   2.100   1.714 -0.9374 -0.0400  2.2170
  725SOL     OW 2173   1.082   2.927   1.060 -0.2757 -0.4892  0.2050
  725SOL    HW1 2174   1.064   2.974   1.150  0.7508  4.9995  2.7323
  725SOL    HW2 2175   1.173   2.883   1.061 -2.2084  1.3384  2.4651
  726SOL     OW 2176   1.656   3.106   0.015  0.1175  0.5597  0.0910
  726SOL    HW1 2177   1.670   3.106   0.117  1.2379  0.0055  3.0129
  726SOL    HW2 2178   1.684   3.013   3.089 -2.4107 -1.3832  0.6055
  727SOL     OW 2179   1.457   1.866   0.887  0.4219  0.6190 -0.0076
  727SOL    HW1 2180   1.466   1.888   0.789  0.3955 -1.1942 -0.7030
  727SOL    HW2 2181   1.512   1.784   0.914  0.4542 -0.9178 -0.8096
  728SOL     OW 2182   1.950   0.039   2.109 -0.3281 -0.6506 -0.2916
  728SOL    HW1 2183   1.948   0.116   2.036  1.9438 -0.0027 -0.1552
  728SOL    HW2 2184   2.028   3.084   2.090  1.3429  0.0822  1.9194
  729SOL     OW 2185   2.459   1.817   1.468 -0.6093 -0.1947 -0.4655
  729SOL    HW1 2186   2.373   1.845   1.506  1.7739 -0.2528  1.6951
  729SOL    HW2 2187   2.459   1.718   1.440  0.1366  1.3341  2.1401
  730SOL     OW 2188   1.716   0.563   2.366 -0.5578 -0.4899 -0.4706
  730SOL    HW1 2189   1.799   0.506   2.373  0.9768  1.5693  1.2026
  730SOL    HW2 2190   1.743   0.659   2.353  1.7826 -0.6788  1.9194
  731SOL     OW 2191   0.536   0.409   1.338 -0.2938 -0.3486 -0.5108
  731SOL    HW1 2192   0.502   0.456   1.422 -0.5875  0.3929  2.4082
  731SOL    HW2 2193   0.491   0.443   1.258  2.6994  1.8395  3.8202
  732SOL     OW 2194   1.745   0.241   1.194  0.5048 -0.9178  0.4311
  732SOL    HW1 2195   1.756   0.338   1.225  0.1519  1.3919 -1.9235
  732SOL    HW2 2196   1.666   0.195   1.243 -0.7893  2.0288 -0.6327
  733SOL     OW 2197   0.911   1.066   1.550  0.2767 -0.3409 -0.3400
  733SOL    HW1 2198   0.824   1.037   1.507  0.2753  1.7002 -0.6574
  733SOL    HW2 2199   0.986   1.026   1.503 -0.5175  0.5306  2.2386
  734SOL     OW 2200   2.455   1.653   0.207 -0.4520 -0.6312  0.3243
  734SOL    HW1 2201   2.427   1.606   0.121 -0.5451  2.6697  0.7574
  734SOL    HW2 2202   2.526   1.721   0.187 -2.4662 -0.6685  0.3888
  735SOL     OW 2203   0.510   0.679   0.361  0.1250 -0.0335  0.1343
  735SOL    HW1 2204   0.483   0.660   0.263  0.0656 -1.7516  0.3485
  735SOL    HW2 2205   0.576   0.610   0.402 -2.0543 -4.1739  1.1525
  736SOL     OW 2206   1.697   2.434   2.813 -0.5933  0.5744  0.4593
  736SOL    HW1 2207   1.784   2.483   2.845  1.4871  0.8847  2.0949
  736SOL    HW2 2208   1.613   2.462   2.863  0.4758 -0.0239 -2.8774
  737SOL     OW 2209   0.913   1.920   0.866 -0.2645 -0.2284 -0.4660
  737SOL    HW1 2210   0.973   1.867   0.927 -0.0356  0.3189  0.0885
  737SOL    HW2 2211   0.969   1.964   0.791 -1.3159 -1.9866  1.3073
  738SOL     OW 2212   1.852   2.914   2.267  0.5323 -0.0975 -0.0823
  738SOL    HW1 2213   1.885   3.004   2.227 -1.9408 -1.6779 -1.7221
  738SOL    HW2 2214   1.910   2.885   2.344 -1.4858  1.2100  2.0312
  739SOL     OW 2215   1.581   2.154   2.177  0.0120 -0.0618 -1.2054
  739SOL    HW1 2216   1.582   2.229   2.251  0.2816  0.8434  2.1721
  739SOL    HW2 2217   1.516   2.176   2.103  2.4153  1.2810 -0.4988
  740SOL     OW 2218   1.667   2.408   1.946 -0.1906  0.5063 -0.1740
  740SOL    HW1 2219   1.712   2.497   1.926  0.7057 -3.2548 -1.0447
  740SOL    HW2 2220   1.644   2.348   1.867 -1.4205 -4.9333  0.6113
  741SOL     OW 2221   2.332   1.584   2.594  0.6342 -0.1271  0.2177
  741SOL    HW1 2222   2.298   1.502   2.541 -0.7035  0.6299  0.6528
  741SOL    HW2 2223   2.374   1.651   2.525  1.4125  1.6740 -2.6254
  742SOL     OW 2224   0.928   1.430   2.900  0.3650 -0.3883  0.1032
  742SOL    HW1 2225   0.972   1.487   2.971  0.5841 -1.0359 -0.0632
  742SOL    HW2 2226   0.865   1.488   2.844 -3.5753 -1.6882 -0.4925
  743SOL     OW 2227   1.702   1.127   2.505 -0.0991  0.2555 -0.2863
  743SOL    HW1 2228   1.681   1.123   2.405  0.6932 -0.1894 -0.2829
  743SOL    HW2 2229   1.643   1.191   2.548 -0.8602 -1.9303 -3.7128
  744SOL     OW 2230   2.105   2.979   1.343  0.3971 -0.0413  0.1169
  744SOL    HW1 2231   2.177   2.920   1.315 -3.3898  1.7750 -0.1897
  744SOL    HW2 2232   2.031   2.977   1.276  1.0997 -0.0174 -1.0004
  745SOL     OW 2233   2.552   0.988   0.865  0.2811 -0.0516  0.1893
  745SOL    HW1 2234   2.601   1.048   0.928 -0.2459 -0.7797 -1.3230
  745SOL    HW2 2235   2.484   1.053   0.818 -1.0783  3.4474 -1.2006
  746SOL     OW 2236   2.180   1.731   1.184 -0.3118 -0.4290 -0.3221
  746SOL    HW1 2237   2.200   1.773   1.092 -1.4829  0.0757 -1.8664
  746SOL    HW2 2238   2.184   1.799   1.261 -0.2406  0.0963  1.3486
  747SOL     OW 2239   2.067   2.694   0.295 -0.3142 -0.5469 -0.1556
  747SOL    HW1 2240   1.969   2.712   0.326 -1.8824 -0.5588  0.9897
  747SOL    HW2 2241   2.085   2.707   0.198 -2.1740 -0.1556 -2.0647
  748SOL     OW 2242   0.907   2.223   0.146  0.3088  0.1196  0.3181
  748SOL    HW1 2243   0.829   2.169   0.179 -1.1931 -0.4734 -2.2050
  748SOL    HW2 2244   0.917   2.208   0.043 -1.2804 -0.4127 -1.5316
  749SOL     OW 2245   2.892   0.270   2.275 -0.2472 -0.3234  0.5624
  749SOL    HW1 2246   2.989   0.252   2.295 -2.3196  0.7890 -2.7620
  749SOL    HW2 2247   2.881   0.371   2.269  0.4784  1.6405 -0.7589
  750SOL     OW 2248   1.110   0.857   1.797 -0.1275  0.1603 -0.7196
  750SOL    HW1 2249   1.162   0.854   1.890  0.6288 -0.3525 -0.6964
  750SOL    HW2 2250   1.179   0.822   1.729  0.9193 -0.1011  2.6699
  751SOL     OW 2251   2.444   2.727   1.966 -0.0870  0.1941 -0.7250
  751SOL    HW1 2252   2.424   2.634   1.935 -2.2674  0.2538  0.5834
  751SOL    HW2 2253   2.435   2.788   1.888 -0.0596  0.8758  2.7651
  752SOL     OW 2254   2.109   1.251   1.105  0.7450 -0.4956  0.0081
  752SOL    HW1 2255   2.081   1.243   1.008 -3.2318  0.8916 -0.3529
  752SOL    HW2 2256   2.208   1.236   1.132  1.1074 -1.6912  2.1984
  753SOL     OW 2257   1.366   1.198   2.449 -0.3335  0.1176 -0.3409
  753SOL    HW1 2258   1.267   1.176   2.471  0.8898  1.8787 -2.0378
  753SOL    HW2 2259   1.420   1.114   2.416 -1.0739  1.1223  1.0462
  754SOL     OW 2260   0.222   2.449   1.037  0.1190 -0.3738 -0.0171
  754SOL    HW1 2261   0.185   2.544   1.018 -2.5950  1.7951 -3.0737
  754SOL    HW2 2262   0.192   2.416   1.122  1.9955 -2.0835 -4.8591
  755SOL     OW 2263   2.457   2.911   1.237  0.0708 -0.3148 -0.3260
  755SOL    HW1 2264   2.544   2.943   1.280  1.2213 -0.6046 -0.2055
  755SOL    HW2 2265   2.437   2.817   1.267  0.4832 -1.2307  0.6094
  756SOL     OW 2266   1.918   2.059   2.090  0.4860 -0.3309 -0.1947
  756SOL    HW1 2267   1.827   2.024   2.128 -2.6482 -0.5077 -0.7380
  756SOL    HW2 2268   1.997   2.032   2.147  2.3290  0.6648  1.4853
  757SOL     OW 2269   2.950   3.025   1.982 -0.2567 -0.2621 -0.7376
  757SOL    HW1 2270   2.885   3.053   2.056 -1.4691  0.2749  2.3609
  757SOL    HW2 2271   3.020   3.098   1.969 -3.9774  1.7258 -0.5689
  758SOL     OW 2272   0.486   2.612   1.529  0.3779 -0.0707 -0.0500
  758SOL    HW1 2273   0.583   2.638   1.497  1.4369  3.1185  0.0580
  758SOL    HW2 2274   0.448   2.538   1.473  1.3091  0.2995 -3.3106
  759SOL     OW 2275   2.114   0.933   0.995 -0.4260 -0.0353 -0.0245
  759SOL    HW1 2276   2.025   0.898   0.962 -0.3538 -3.9839  1.3736
  759SOL    HW2 2277   2.106   1.006   1.064 -0.0844 -0.1583 -0.1135
  760SOL     OW 2278   1.446   0.403   1.479 -0.6157  0.1484  0.0038
  760SOL    HW1 2279   1.347   0.390   1.456  1.5100 -1.5183 -0.1666
  760SOL    HW2 2280   1.488   0.463   1.408  0.8556 -1.1149  0.6127
  761SOL     OW 2281   1.927   0.233   0.982  0.0743  0.2650  0.2220
  761SOL    HW1 2282   1.997   0.162   0.966 -2.4459  1.8285  1.2873
  761SOL    HW2 2283   1.870   0.213   1.065 -0.6068 -0.7989  2.3032
  762SOL     OW 2284   1.770   2.735   0.381 -0.0318 -0.5061 -0.0210
  762SOL    HW1 2285   1.712   2.819   0.365 -0.7090  1.7639  1.9210
  762SOL    HW2 2286   1.708   2.651   0.376  2.4433 -0.1613 -2.1902
  763SOL     OW 2287   0.856   0.524   1.303  0.0928 -0.0815  0.4162
  763SOL    HW1 2288   0.841   0.452   1.372 -0.7236  0.6019  0.0662
  763SOL    HW2 2289   0.774   0.553   1.248 -2.3893 -2.6825  0.5208
  764SOL     OW 2290   2.454   2.512   2.318  0.7570  0.1051 -0.5421
  764SOL    HW1 2291   2.534   2.536   2.374 -1.1788  1.5925  1.1572
  764SOL    HW2 2292   2.379   2.582   2.327 -1.8740 -0.4941 -0.7552
  765SOL     OW 2293   3.050   1.247   2.507 -0.2788 -0.1933  0.3647
  765SOL    HW1 2294   3.089   1.185   2.429  0.7673 -2.7601 -2.6191
  765SOL    HW2 2295   3.007   1.186   2.581  0.2593 -0.6505  1.1128
  766SOL     OW 2296   2.833   1.392   2.400  0.0095  0.4785  0.2279
  766SOL    HW1 2297   2.774   1.394   2.482 -1.6887  0.2343 -0.0574
  766SOL    HW2 2298   2.917   1.336   2.421  4.3778 -1.6758  0.3272
  767SOL     OW 2299   0.403   2.023   1.780  0.0193  0.2806  0.4376
  767SOL    HW1 2300   0.495   2.027   1.737  1.4813 -2.7608 -0.6908
  767SOL    HW2 2301   0.383   2.094   1.847  0.0511 -1.9021 -0.0430
  768SOL     OW 2302   0.817   0.808   2.947  0.6644 -0.2781 -0.5419
  768SOL    HW1 2303   0.822   0.832   2.848 -1.6805 -0.2107  0.8738
  768SOL    HW2 2304   0.771   0.724   2.973  2.0568  1.3462  0.6422
  769SOL     OW 2305   1.303   2.688   3.065  0.1002  0.5429 -0.6370
  769SOL    HW1 2306   1.247   2.609   3.079  1.3498 -0.0313 -1.0995
  769SOL    HW2 2307   1.396   2.678   0.001  1.2304 -0.2985  2.0889
  770SOL     OW 2308   0.948   0.167   2.521  0.4462 -0.5480  0.5977
  770SOL    HW1 2309   0.897   0.206   2.444 -0.2819 -4.6823  1.0598
  770SOL    HW2 2310   0.934   0.065   2.518 -0.2113 -0.3069 -2.8605
  771SOL     OW 2311   0.892   2.701   0.668  0.1334 -0.4738  0.1238
  771SOL    HW1 2312   0.940   2.617   0.694  1.2548  2.3898 -0.3656
  771SOL    HW2 2313   0.833   2.746   0.741 -2.8228  2.6533  0.1363
  772SOL     OW 2314   2.706   0.823   0.158 -0.0433 -0.5895  0.2543
  772SOL    HW1 2315   2.749   0.911   0.182  0.9226 -0.3722  1.1454
  772SOL    HW2 2316   2.741   0.792   0.063 -1.0060 -1.3397 -3.7797
  773SOL     OW 2317   1.708   0.935   1.821  0.3975  0.3369 -0.1180
  773SOL    HW1 2318   1.775   0.899   1.750  2.1784  0.3227 -2.1311
  773SOL    HW2 2319   1.622   0.965   1.786 -0.4279 -0.8384  0.1180
  774SOL     OW 2320   0.774   0.215   0.472  0.7058 -0.0213  0.1091
  774SOL    HW1 2321   0.804   0.162   0.556  1.6533  1.5624 -0.7016
  774SOL    HW2 2322   0.714   0.155   0.416 -0.1679 -0.4612  0.0696
  775SOL     OW 2323   1.680   0.036   0.302 -0.4414  0.0356 -0.0897
  775SOL    HW1 2324   1.653   3.094   0.387  0.8718  1.0963  1.1031
  775SOL    HW2 2325   1.625   0.125   0.299 -3.0122  1.9051 -0.5511
  776SOL     OW 2326   2.578   0.343   2.390  0.7748 -0.3442  0.3552
  776SOL    HW1 2327   2.618   0.359   2.296 -1.4349 -0.4269  0.3330
  776SOL    HW2 2328   2.497   0.281   2.389 -1.6265 -0.9807 -0.6500
  777SOL     OW 2329   1.405   1.554   3.031 -0.1972  0.6613  0.2037
  777SOL    HW1 2330   1.504   1.562   3.007  0.7864 -0.5900  0.1222
  777SOL    HW2 2331   1.368   1.474   2.981 -0.9439  1.3182  1.2407
  778SOL     OW 2332   0.267   2.585   0.260  0.0274  0.6506  0.2715
  778SOL    HW1 2333   0.211   2.502   0.294 -1.0563 -1.1732  0.9751
  778SOL    HW2 2334   0.260   2.656   0.335  0.2524  1.8976  0.4086
  779SOL     OW 2335   0.116   1.491   0.388  0.0670 -0.0694 -0.1292
  779SOL    HW1 2336   0.105   1.449   0.479  1.2345  1.1503 -0.9925
  779SOL    HW2 2337   0.208   1.471   0.349  0.6990 -0.2095  0.6725
  780SOL     OW 2338   1.928   0.188   1.873  0.0208 -0.0487 -0.6763
  780SOL    HW1 2339   1.992   0.226   1.802  0.2304  0.8623 -2.1398
  780SOL    HW2 2340   1.851   0.253   1.887 -0.5206  0.0955  0.9003
  781SOL     OW 2341   1.683   1.300   1.443  0.0482  0.8627  0.7074
  781SOL    HW1 2342   1.599   1.353   1.441  1.9240  1.2507  2.1026
  781SOL    HW2 2343   1.729   1.286   1.353 -1.6908 -2.2179  0.9176
  782SOL     OW 2344   1.927   2.317   1.988  0.6090  0.1728  0.3401
  782SOL    HW1 2345   1.834   2.356   1.986  0.7769 -0.8988 -1.5391
  782SOL    HW2 2346   1.921   2.219   2.023  1.7553 -3.6337  2.1385
  783SOL     OW 2347   1.251   0.807   2.046  0.0161 -1.0375 -0.1280
  783SOL    HW1 2348   1.305   0.891   2.070  3.0145  1.0762  0.1763
  783SOL    HW2 2349   1.304   0.725   2.065 -0.2196  0.4269  0.6694
  784SOL     OW 2350   1.687   1.170   2.216 -0.4369  0.0089  0.1617
  784SOL    HW1 2351   1.658   1.246   2.152 -1.1701 -0.4296  0.5376
  784SOL    HW2 2352   1.727   1.095   2.169  0.5620  2.1998 -0.7422
  785SOL     OW 2353   2.131   0.494   0.279 -0.1598 -0.4688 -0.3553
  785SOL    HW1 2354   2.088   0.581   0.308  0.9115  2.1310 -1.7979
  785SOL    HW2 2355   2.085   0.417   0.325  1.3857  2.2394 -1.5527
  786SOL     OW 2356   2.882   1.441   0.761  0.1378 -0.2792 -0.1847
  786SOL    HW1 2357   2.888   1.451   0.657 -0.5424  1.7842 -0.9514
  786SOL    HW2 2358   2.962   1.399   0.809 -1.0170 -0.1087 -0.6405
  787SOL     OW 2359   1.769   1.817   0.365 -0.9176 -0.1020 -0.1574
  787SOL    HW1 2360   1.700   1.857   0.306  1.0937  2.3036  1.9240
  787SOL    HW2 2361   1.811   1.735   0.323  0.2220  0.2463 -1.7068
  788SOL     OW 2362   2.328   1.414   1.426  0.0758  0.2461  0.0863
  788SOL    HW1 2363   2.403   1.475   1.397  3.3017  1.9657  2.1519
  788SOL    HW2 2364   2.245   1.444   1.381 -1.0722 -0.5064  2.4549
  789SOL     OW 2365   2.980   1.631   2.476 -0.1061  0.1308  0.6538
  789SOL    HW1 2366   2.932   1.550   2.438 -1.3135  1.1004 -2.3098
  789SOL    HW2 2367   3.053   1.663   2.411  2.5958  0.4128 -0.7335
  790SOL     OW 2368   0.658   2.954   2.618 -0.6092 -0.3741 -0.1021
  790SOL    HW1 2369   0.755   2.977   2.583  1.5996  0.1474 -0.8062
  790SOL    HW2 2370   0.581   3.011   2.581  2.4697 -0.5653 -0.0877
  791SOL     OW 2371   0.762   2.716   2.737 -0.1731  0.4337 -0.4263
  791SOL    HW1 2372   0.853   2.730   2.777 -1.6419 -0.2803  1.5066
  791SOL    HW2 2373   0.690   2.789   2.733 -0.3407 -1.0273  0.7804
  792SOL     OW 2374   1.604   0.439   2.158 -0.2461 -0.1994  0.4870
  792SOL    HW1 2375   1.555   0.350   2.156  0.5115  2.0000  1.8728
  792SOL    HW2 2376   1.647   0.458   2.252 -0.2784  0.5751  1.4775
  793SOL     OW 2377   2.753   0.023   2.195 -0.0543  0.1832 -0.1539
  793SOL    HW1 2378   2.798   0.102   2.241  3.8016  0.1992 -3.2472
  793SOL    HW2 2379   2.672   0.058   2.150 -0.7629  3.3498  1.3468
  794SOL     OW 2380   0.618   0.886   1.816 -0.1455 -0.1712  0.0821
  794SOL    HW1 2381   0.603   0.863   1.914 -0.2853  0.6958 -2.4133
  794SOL    HW2 2382   0.529   0.879   1.772  1.6267  1.3402  0.7720
  795SOL     OW 2383   2.833   1.454   0.474 -0.5426 -0.4127 -0.4766
  795SOL    HW1 2384   2.773   1.535   0.459  0.3310  1.9990 -1.9701
  795SOL    HW2 2385   2.887   1.438   0.390  2.0289 -0.0944  0.7880
  796SOL     OW 2386   2.885   2.477   2.692  0.5719 -0.6536  0.0619
  796SOL    HW1 2387   2.802   2.420   2.708 -0.9092  0.2999 -2.5378
  796SOL    HW2 2388   2.971   2.426   2.672  0.5925  3.2844  1.3984
  797SOL     OW 2389   2.659   2.364   0.072 -0.3132  0.1373  0.1868
  797SOL    HW1 2390   2.705   2.295   0.012  1.7058 -0.9145  1.3156
  797SOL    HW2 2391   2.586   2.407   0.017 -2.7930  1.8441 -1.3035
  798SOL     OW 2392   0.385   0.863   1.668  0.3203 -0.4329 -0.2546
  798SOL    HW1 2393   0.319   0.786   1.666  4.3598  1.7790  0.8344
  798SOL    HW2 2394   0.339   0.947   1.635 -3.8444  1.0326 -0.8840
  799SOL     OW 2395   2.861   0.539   2.272  0.2689 -0.2000  0.8077
  799SOL    HW1 2396   2.775   0.585   2.284  1.4962  0.7771 -0.2938
  799SOL    HW2 2397   2.940   0.603   2.242  2.2360 -0.2140 -0.6605
  800SOL     OW 2398   2.797   2.289   0.594  0.0590  0.3010  0.6071
  800SOL    HW1 2399   2.709   2.255   0.622 -0.2007  0.7681  2.0701
  800SOL    HW2 2400   2.833   2.366   0.649  0.4941 -0.5925  0.3213
  801SOL     OW 2401   1.250   0.956   0.794  0.0966  0.1200  0.2419
  801SOL    HW1 2402   1.188   0.938   0.873  0.2128 -2.9326  1.1505
  801SOL    HW2 2403   1.342   0.924   0.818 -1.9465  1.2986 -1.2661
  802SOL     OW 2404   1.510   1.964   1.137 -0.5648 -0.4610 -0.3549
  802SOL    HW1 2405   1.602   1.945   1.179  1.8471 -0.3053  4.5839
  802SOL    HW2 2406   1.493   1.930   1.041  2.3223 -0.6375 -3.3938
  803SOL     OW 2407   0.033   1.728   0.423  0.2278 -0.3576  0.0970
  803SOL    HW1 2408   0.070   1.635   0.410  0.2569  0.3010  0.4843
  803SOL    HW2 2409   0.084   1.795   0.473 -3.1642 -1.4554  0.0871
  804SOL     OW 2410   1.312   2.521   0.537  0.3502 -0.1233  0.5425
  804SOL    HW1 2411   1.242   2.592   0.528 -1.1001 -3.3092 -2.1696
  804SOL    HW2 2412   1.368   2.533   0.622 -0.2776 -0.4046  0.5248
  805SOL     OW 2413   1.359   1.885   2.406  0.5571 -0.5110  0.0298
  805SOL    HW1 2414   1.326   1.911   2.312  0.2886  1.6992  0.2734
  805SOL    HW2 2415   1.448   1.846   2.396 -1.9264  2.0017 -0.1828
  806SOL     OW 2416   1.522   0.118   1.306  0.2789 -0.0383 -0.0780
  806SOL    HW1 2417   1.524   0.154   1.402  1.2669  0.2638 -1.0582
  806SOL    HW2 2418   1.424   0.124   1.266 -0.7959 -0.0915  0.3815
  807SOL     OW 2419   2.029   2.981   2.949  0.1434  0.0535 -0.0911
  807SOL    HW1 2420   1.980   3.026   2.872  1.3402 -1.1383  1.1507
  807SOL    HW2 2421   2.047   3.041   3.030 -1.0268  1.7407  3.1777
  808SOL     OW 2422   0.466   1.583   0.109  0.2053 -0.7118  0.2130
  808SOL    HW1 2423   0.408   1.531   0.173 -0.9095 -0.5311 -2.6543
  808SOL    HW2 2424   0.560   1.543   0.099  2.1324  4.3354  0.0354
  809SOL     OW 2425   2.866   0.662   2.648 -0.0345 -0.0508  0.3467
  809SOL    HW1 2426   2.956   0.665   2.600  3.1217 -0.0185  3.4720
  809SOL    HW2 2427   2.801   0.601   2.598 -2.7311 -1.6538 -1.2975
  810SOL     OW 2428   3.036   0.395   2.625 -0.2096 -0.4503  0.6931
  810SOL    HW1 2429   3.019   0.471   2.558  0.0762  1.7552 -1.1660
  810SOL    HW2 2430   0.022   0.359   2.626 -0.4501 -0.8954  0.3388
  811SOL     OW 2431   1.979   2.429   1.748  0.2439  0.6735  0.1034
  811SOL    HW1 2432   1.994   2.378   1.834  0.7402 -0.7541  0.6023
  811SOL    HW2 2433   2.072   2.454   1.710  2.7293  1.5235  1.0672
  812SOL     OW 2434   1.306   0.578   0.293  0.5811  0.1447  0.7554
  812SOL    HW1 2435   1.205   0.557   0.281 -1.2329 -1.6044 -2.8926
  812SOL    HW2 2436   1.345   0.559   0.201 -1.5756  0.8384  1.1555
  813SOL     OW 2437   1.674   0.632   1.980  0.2090 -0.4614  0.3308
  813SOL    HW1 2438   1.636   0.568   2.050  2.0941 -0.2878  2.2804
  813SOL    HW2 2439   1.694   0.726   2.021 -0.5167 -0.6673  2.4142
  814SOL     OW 2440   2.002   1.037   1.288  0.2421 -0.3757  0.3506
  814SOL    HW1 2441   2.075   1.059   1.357 -0.4839 -1.1129 -1.4376
  814SOL    HW2 2442   1.991   1.117   1.224 -1.6332 -1.1199 -1.9354
  815SOL     OW 2443   0.598   0.947   0.646 -0.0897  0.0698 -0.0305
  815SOL    HW1 2444   0.659   0.865   0.648  0.9971  0.8372  1.5420
  815SOL    HW2 2445   0.504   0.915   0.664  2.1146  2.0138 -1.0386
  816SOL     OW 2446   2.228   2.065   2.817 -0.5488  0.4075 -0.1257
  816SOL    HW1 2447   2.270   2.155   2.816 -0.1068 -3.5174  0.4328
  816SOL    HW2 2448   2.164   2.054   2.736  2.2033 -1.3245 -3.1264
  817SOL     OW 2449   2.849   2.801   1.229  0.2562 -0.3963 -0.1128
  817SOL    HW1 2450   2.903   2.825   1.144 -0.5378  1.9500 -0.8525
  817SOL    HW2 2451   2.908   2.778   1.306 -0.1008  0.7464  0.4879
  818SOL     OW 2452   1.391   0.524   0.031  0.1341 -0.0681 -0.2060
  818SOL    HW1 2453   1.333   0.499   3.058  1.7931 -2.7075 -4.0822
  818SOL    HW2 2454   1.467   0.452   0.040  1.7644 -0.5823  0.3500
  819SOL     OW 2455   0.534   0.464   0.693  0.1148  0.2675 -0.2633
  819SOL    HW1 2456   0.460   0.536   0.693  2.0563 -0.2360  0.5454
  819SOL    HW2 2457   0.598   0.486   0.770 -3.8736 -0.4385 -2.2442
  820SOL     OW 2458   1.982   0.657   1.068  0.5425 -0.2341 -0.1023
  820SOL    HW1 2459   2.037   0.651   0.980 -0.3730 -0.4202  1.3383
  820SOL    HW2 2460   2.037   0.715   1.133  0.7900 -3.4773 -0.2450
  821SOL     OW 2461   2.922   2.894   0.575  0.1722  0.4539  0.2041
  821SOL    HW1 2462   2.887   2.969   0.635  0.1052 -0.1968  0.4059
  821SOL    HW2 2463   2.852   2.829   0.545  1.2168  1.8821  3.0682
  822SOL     OW 2464   0.899   2.539   2.542 -0.2450  0.1179 -0.4456
  822SOL    HW1 2465   0.977   2.586   2.498  0.0787  0.2798 -0.1118
  822SOL    HW2 2466   0.850   2.607   2.599 -0.6204 -0.0906 -0.8622
  823SOL     OW 2467   2.971   1.196   1.852 -0.2938  0.3669 -0.3475
  823SOL    HW1 2468   2.895   1.263   1.856  0.8246  0.7158 -0.1051
  823SOL    HW2 2469   2.944   1.100   1.881  0.1508 -0.3433  0.3451
  824SOL     OW 2470   0.852   3.086   2.206  0.2339  0.3066 -0.0915
  824SOL    HW1 2471   0.923   3.014   2.212 -0.5766 -1.5586 -1.1546
  824SOL    HW2 2472   0.766   3.048   2.246 -0.8906 -1.5560 -2.1361
  825SOL     OW 2473   1.368   1.906   0.074 -0.9562 -0.1879 -0.1195
  825SOL    HW1 2474   1.280   1.953   0.099 -1.3872  2.1353 -5.1954
  825SOL    HW2 2475   1.379   1.889   3.083  1.9897  2.2720 -1.7205
  826SOL     OW 2476   1.189   2.238   3.009  0.6416 -0.4946  0.0627
  826SOL    HW1 2477   1.287   2.214   2.989 -1.4112  1.2029 -0.2052
  826SOL    HW2 2478   1.136   2.151   3.004 -1.8175  1.2646  2.0441
  827SOL     OW 2479   0.262   1.788   1.988  0.2049 -0.3504 -0.6432
  827SOL    HW1 2480   0.210   1.817   1.906  0.6464 -1.6513 -2.4629
  827SOL    HW2 2481   0.358   1.770   1.962 -0.2628  0.2038 -0.3642
  828SOL     OW 2482   0.151   1.874   1.001 -0.3220  0.3623 -0.4439
  828SOL    HW1 2483   0.223   1.930   1.053  1.2155  2.0068  2.8447
  828SOL    HW2 2484   0.060   1.901   1.036 -0.5530  0.3139 -1.6601
  829SOL     OW 2485   2.905   2.484   0.014 -0.8272 -0.5223  0.7319
  829SOL    HW1 2486   2.976   2.419   0.042  1.8910 -0.6858  0.9520
  829SOL    HW2 2487   2.810   2.454   0.018  1.4225  3.0479 -1.0265
  830SOL     OW 2488   1.241   0.891   0.531 -0.2198  0.0405 -0.4238
  830SOL    HW1 2489   1.324   0.850   0.488  0.3747  0.9537  0.5317
  830SOL    HW2 2490   1.259   0.923   0.627  0.7328  1.2458 -0.8600
  831SOL     OW 2491   2.742   2.204   3.005 -0.3368 -0.1824 -0.2194
  831SOL    HW1 2492   2.672   2.147   2.959 -3.0890  0.6133 -1.7472
  831SOL    HW2 2493   2.834   2.193   2.963  3.2187  0.2325 -0.6525
  832SOL     OW 2494   1.624   2.324   0.378  0.3149  0.3796 -0.7300
  832SOL    HW1 2495   1.586   2.257   0.306 -0.9103 -2.1299 -2.0951
  832SOL    HW2 2496   1.704   2.282   0.422 -0.0688  2.5162 -0.3678
  833SOL     OW 2497   0.445   1.127   2.520 -0.1059 -0.2662 -0.2905
  833SOL    HW1 2498   0.373   1.129   2.593  0.6251 -0.7816 -2.1294
  833SOL    HW2 2499   0.444   1.213   2.463  2.1632  1.8628 -1.4232
  834SOL     OW 2500   3.000   0.810   0.921  0.6282 -0.8718  0.2101
  834SOL    HW1 2501   3.017   0.756   1.006 -0.7397  2.5047  2.2699
  834SOL    HW2 2502   2.900   0.818   0.911  0.1820 -1.8888 -1.3031
  835SOL     OW 2503   2.194   0.706   2.327 -0.0852 -0.2487 -0.1788
  835SOL    HW1 2504   2.245   0.789   2.356  0.7925 -3.4613 -2.1359
  835SOL    HW2 2505   2.148   0.723   2.233 -1.4438 -1.1906 -2.8443
  836SOL     OW 2506   0.796   1.984   0.350  0.8653  0.0348  0.0778
  836SOL    HW1 2507   0.702   1.939   0.342 -1.6778 -2.2769  0.9296
  836SOL    HW2 2508   0.870   1.934   0.294  1.4027  1.9679  0.4516
  837SOL     OW 2509   2.321   1.512   1.964 -0.5309  0.0828 -0.1636
  837SOL    HW1 2510   2.398   1.537   2.027 -0.3267  1.2487  2.8841
  837SOL    HW2 2511   2.256   1.454   2.022 -0.0794 -0.7187 -1.1196
  838SOL     OW 2512   0.084   1.144   2.277  0.7661  0.2597  0.8898
  838SOL    HW1 2513   0.158   1.079   2.308  1.5014  1.6624 -1.6155
  838SOL    HW2 2514   0.110   1.199   2.198  1.3504  1.3944 -0.8757
  839SOL     OW 2515   0.547   3.022   2.996  0.3007  0.3448  0.2210
  839SOL    HW1 2516   0.494   2.954   2.940 -1.2384 -2.6762 -1.3193
  839SOL    HW2 2517   0.599   3.084   2.936 -0.1150 -0.9022  0.5562
  840SOL     OW 2518   2.976   1.097   2.707 -0.1425 -0.3676  0.2749
  840SOL    HW1 2519   3.049   1.121   2.774  2.1262  2.0600  2.0221
  840SOL    HW2 2520   2.885   1.071   2.750  0.5277 -0.5126 -0.4116
  841SOL     OW 2521   0.549   2.140   2.543  0.0883 -0.1493  0.2227
  841SOL    HW1 2522   0.509   2.201   2.618 -0.7073 -0.1042 -0.9025
  841SOL    HW2 2523   0.625   2.185   2.491 -0.5939  1.5024  0.5220
  842SOL     OW 2524   0.848   0.204   1.069 -0.3632  0.6592 -0.1549
  842SOL    HW1 2525   0.905   0.261   1.010 -0.7742  0.0684  1.1289
  842SOL    HW2 2526   0.752   0.236   1.069  0.2066 -0.9349  0.6672
  843SOL     OW 2527   0.087   1.726   2.306 -0.6369 -0.4279  0.2290
  843SOL    HW1 2528   0.091   1.685   2.213 -0.0970  0.6057 -1.5909
  843SOL    HW2 2529   0.180   1.714   2.352  0.4634  1.0260  0.0424
  844SOL     OW 2530   1.757   1.934   2.267 -0.0558 -0.7830 -0.0126
  844SOL    HW1 2531   1.783   1.842   2.232  2.1396  1.0711 -1.5323
  844SOL    HW2 2532   1.662   1.959   2.239  1.0761 -0.1452 -0.8297
  845SOL     OW 2533   2.290   2.709   2.439 -0.1989 -0.4028 -0.7263
  845SOL    HW1 2534   2.295   2.720   2.537 -1.9834  1.7765 -2.3788
  845SOL    HW2 2535   2.200   2.756   2.414 -1.4027  0.3263  0.0451
  846SOL     OW 2536   2.241   1.802   2.975 -0.0554  0.3753  0.2040
  846SOL    HW1 2537   2.207   1.881   2.921  0.4872  3.4314 -0.5762
  846SOL    HW2 2538   2.193   1.789   3.068 -1.7302 -3.3914 -0.7496
  847SOL     OW 2539   2.495   0.077   2.891 -0.2744  0.3554 -0.4333
  847SOL    HW1 2540   2.532   0.161   2.848 -0.8435 -0.6911 -1.9001
  847SOL    HW2 2541   2.552   0.001   2.858 -0.0251  0.2270 -3.8204
  848SOL     OW 2542   2.389   0.541   0.314 -0.2371  0.3735 -0.5188
  848SOL    HW1 2543   2.301   0.501   0.282 -0.8094 -0.4941 -2.8711
  848SOL    HW2 2544   2.377   0.581   0.406 -1.4578 -0.1067  0.4796
  849SOL     OW 2545   1.352   0.228   2.795  0.1185 -0.0856 -0.7714
  849SOL    HW1 2546   1.271   0.275   2.761  1.2566 -1.1879 -0.3572
  849SOL    HW2 2547   1.395   0.185   2.711  0.9242 -0.0003  1.6296
  850SOL     OW 2548   2.803   0.764   0.472 -0.4272  0.0327  0.1553
  850SOL    HW1 2549   2.753   0.806   0.391  2.1102  1.2827 -4.0998
  850SOL    HW2 2550   2.887   0.722   0.435  1.8827 -0.2694 -1.1572
  851SOL     OW 2551   0.255   1.240   1.341 -0.5752 -0.2379  0.0265
  851SOL    HW1 2552   0.300   1.150   1.322 -0.3055  0.5980 -1.0035
  851SOL    HW2 2553   0.214   1.286   1.260 -0.7263  2.6825  0.9993
  852SOL     OW 2554   1.449   0.942   2.405 -0.0708  0.4384 -0.2732
  852SOL    HW1 2555   1.516   0.904   2.469 -2.4613  2.9067 -0.8232
  852SOL    HW2 2556   1.361   0.907   2.431  3.3952  2.4219  0.0379
  853SOL     OW 2557   2.201   1.361   3.062  0.7659 -0.6666  0.5768
  853SOL    HW1 2558   2.278   1.297   3.040  1.4980 -0.1628  2.2423
  853SOL    HW2 2559   2.146   1.387   2.980  0.2510 -1.0875 -0.4515
  854SOL     OW 2560   1.200   1.228   1.967 -0.5713  0.7242  0.0304
  854SOL    HW1 2561   1.118   1.171   1.981  0.9052 -1.8820 -1.0974
  854SOL    HW2 2562   1.217   1.275   2.058  0.2544  0.8397 -1.0806
  855SOL     OW 2563   0.313   2.492   1.957  0.4589 -0.3125  0.1265
  855SOL    HW1 2564   0.295   2.554   2.033 -0.6795  0.8914 -2.0499
  855SOL    HW2 2565   0.228   2.473   1.905 -2.4284  0.1440  0.7406
  856SOL     OW 2566   0.871   1.211   2.431 -0.6829  0.7570  0.4868
  856SOL    HW1 2567   0.947   1.187   2.487 -3.3222  0.0930  0.6598
  856SOL    HW2 2568   0.794   1.141   2.445 -0.9017 -1.2201 -1.5763
  857SOL     OW 2569   0.965   1.078   2.756 -1.0643  0.1138  0.8390
  857SOL    HW1 2570   0.987   1.081   2.855 -0.9058  0.7329  1.8697
  857SOL    HW2 2571   0.913   0.988   2.746  0.9517 -0.5765  0.2703
  858SOL     OW 2572   0.177   0.671   1.707 -0.1064 -0.0721 -0.0822
  858SOL    HW1 2573   0.094   0.682   1.646  0.7714  0.0438 -0.4726
  858SOL    HW2 2574   0.147   0.646   1.800 -2.2972 -0.8841  0.1419
  859SOL     OW 2575   2.346   0.150   1.059 -0.0573 -0.1664  0.0087
  859SOL    HW1 2576   2.428   0.123   1.116 -2.0075 -0.4002 -0.3026
  859SOL    HW2 2577   2.305   0.238   1.094 -1.0342  1.9398 -1.0383
  860SOL     OW 2578   1.098   0.957   1.413  0.1005 -0.3809 -0.0398
  860SOL    HW1 2579   1.036   0.874   1.420 -0.5089 -2.6568  0.7422
  860SOL    HW2 2580   1.182   0.935   1.466  1.1392  0.2145  1.9266
  861SOL     OW 2581   1.747   0.953   1.254  0.5168 -0.1306 -0.4708
  861SOL    HW1 2582   1.696   0.960   1.341  0.5747 -3.5596  0.0510
  861SOL    HW2 2583   1.836   0.992   1.275 -3.0255 -0.0726  1.3025
  862SOL     OW 2584   0.929   0.225   2.214 -0.1921 -0.2748 -0.1252
  862SOL    HW1 2585   0.895   0.130   2.202 -2.0529  0.7491 -1.0498
  862SOL    HW2 2586   0.872   0.288   2.154 -2.1385  2.3632 -1.1976
  863SOL     OW 2587   2.722   0.324   1.469  0.3208  0.0562 -0.1957
  863SOL    HW1 2588   2.708   0.306   1.567  1.2204 -0.4257 -2.2521
  863SOL    HW2 2589   2.793   0.265   1.423 -1.9252  0.3690 -1.3428
  864SOL     OW 2590   2.851   2.934   2.348  0.0750 -0.5334  0.0937
  864SOL    HW1 2591   2.865   2.845   2.298  0.6340 -0.2154 -1.9520
  864SOL    HW2 2592   2.788   3.001   2.296 -1.8441  1.2242  0.6249
  865SOL     OW 2593   1.110   1.176   2.573 -0.6643 -0.0429  0.1696
  865SOL    HW1 2594   1.051   1.131   2.646 -1.3868 -3.8251  1.7432
  865SOL    HW2 2595   1.164   1.250   2.617  2.3230 -2.3331 -3.0831
  866SOL     OW 2596   2.669   2.465   1.025  0.3745 -0.9587 -1.2430
  866SOL    HW1 2597   2.653   2.514   1.115 -1.8923  2.1330  0.0340
  866SOL    HW2 2598   2.722   2.378   1.036  0.1444 -1.0343  2.3263
  867SOL     OW 2599   2.664   2.616   1.263 -0.3317 -0.0969  0.4313
  867SOL    HW1 2600   2.736   2.688   1.230  0.7758 -1.5745  1.1384
  867SOL    HW2 2601   2.702   2.532   1.307  0.9848  0.7998 -0.2603
  868SOL     OW 2602   0.009   1.309   1.448  0.2176  0.0711 -0.1920
  868SOL    HW1 2603   0.085   1.277   1.387 -1.9272 -1.3573 -2.5836
  868SOL    HW2 2604   3.108   1.410   1.444 -1.0624 -2.6636  1.4046
  869SOL     OW 2605   2.150   1.925   2.202  0.1070 -0.4520  0.2787
  869SOL    HW1 2606   2.236   1.969   2.171 -2.1852 -1.8683  0.5263
  869SOL    HW2 2607   2.153   1.909   2.303 -0.8225 -1.0462 -1.5045
  870SOL     OW 2608   1.537   0.930   0.759 -0.2696 -0.1468  0.2893
  870SOL    HW1 2609   1.577   0.965   0.850 -0.1250 -3.3314  1.6338
  870SOL    HW2 2610   1.570   0.981   0.680 -0.6092 -1.4120 -1.1269
  871SOL     OW 2611   2.544   1.525   1.784 -0.2656  0.2351 -0.5881
  871SOL    HW1 2612   2.477   1.507   1.867 -0.5201 -0.3164  0.5576
  871SOL    HW2 2613   2.548   1.627   1.772  1.6233 -3.8036  1.3563
  872SOL     OW 2614   1.296   1.702   2.761  0.5005  0.0768  0.4427
  872SOL    HW1 2615   1.318   1.766   2.834 -1.9509 -3.2693  0.8978
  872SOL    HW2 2616   1.369   1.705   2.690  0.9795 -0.9717 -0.6533
  873SOL     OW 2617   1.029   1.282   1.650 -0.2533  0.4630  0.3024
  873SOL    HW1 2618   0.991   1.201   1.601 -1.9410  1.7957 -0.4663
  873SOL    HW2 2619   1.064   1.257   1.746  1.2877 -0.2640  2.7226
  874SOL     OW 2620   1.165   1.167   1.262  0.2639 -0.5021 -0.0119
  874SOL    HW1 2621   1.140   1.083   1.317 -1.7351 -1.1662 -0.4378
  874SOL    HW2 2622   1.108   1.247   1.300 -2.2512  1.0047 -3.0285
  875SOL     OW 2623   2.645   2.990   2.784 -0.1505 -0.0388  0.1741
  875SOL    HW1 2624   2.633   2.934   2.700  2.9654 -1.6336 -3.2728
  875SOL    HW2 2625   2.688   2.937   2.860  0.5207 -0.3696  0.1454
  876SOL     OW 2626   0.842   1.003   0.494 -0.4460  0.2021 -1.0425
  876SOL    HW1 2627   0.740   0.992   0.492  0.5314 -1.2604 -0.7702
  876SOL    HW2 2628   0.879   0.952   0.576  1.5579 -0.8087  0.5882
  877SOL     OW 2629   1.909   2.785   0.674  0.1050 -0.3920 -0.0211
  877SOL    HW1 2630   1.902   2.812   0.578  0.3816  1.0845  3.5278
  877SOL    HW2 2631   1.985   2.721   0.689  0.9027  0.1828 -1.7174
  878SOL     OW 2632   2.596   2.092   0.234 -0.7329 -0.0654  0.3721
  878SOL    HW1 2633   2.545   2.040   0.161 -0.1648  4.1323  1.1453
  878SOL    HW2 2634   2.642   2.167   0.184 -1.9246  0.3691 -0.9509
  879SOL     OW 2635   0.106   2.423   1.784 -0.1976  0.6909 -0.6148
  879SOL    HW1 2636   0.051   2.349   1.829 -0.1981  2.5747  0.7904
  879SOL    HW2 2637   0.091   2.418   1.684 -2.0994  2.2050 -0.4893
  880SOL     OW 2638   0.245   1.664   0.858  0.0443 -0.4682 -0.7888
  880SOL    HW1 2639   0.231   1.758   0.897  0.9307  3.6759  0.0749
  880SOL    HW2 2640   0.342   1.643   0.837  2.8502 -1.4863  2.1773
  881SOL     OW 2641   1.305   0.371   2.500 -0.0102 -0.5428  0.6210
  881SOL    HW1 2642   1.281   0.268   2.502 -0.0282 -2.6788 -0.9274
  881SOL    HW2 2643   1.220   0.418   2.469 -1.3662  0.1334 -0.0767
  882SOL     OW 2644   2.676   1.241   0.426 -0.0359  0.2318 -0.7981
  882SOL    HW1 2645   2.744   1.314   0.433 -1.3976 -3.7380  0.3745
  882SOL    HW2 2646   2.681   1.162   0.498  1.3709 -3.3513 -2.6024
  883SOL     OW 2647   1.512   0.538   2.533  0.4555  0.0190  0.0186
  883SOL    HW1 2648   1.573   0.557   2.453 -0.4133  3.5307 -0.9533
  883SOL    HW2 2649   1.426   0.482   2.502 -2.6230 -1.0020  0.0983
  884SOL     OW 2650   0.077   0.059   2.010  0.3317  0.1791  0.2758
  884SOL    HW1 2651   0.104   3.097   2.078  1.2521  2.1274 -1.0911
  884SOL    HW2 2652   0.133   0.049   1.923 -0.1269 -0.4147 -1.6761
  885SOL     OW 2653   2.025   1.279   2.356 -0.2589 -0.3518  0.5862
  885SOL    HW1 2654   2.011   1.177   2.357 -1.1934 -0.5111  0.2117
  885SOL    HW2 2655   1.942   1.330   2.386 -1.7543  0.0415 -1.1594
  886SOL     OW 2656   1.837   0.304   2.709 -0.6819  0.3497 -0.0859
  886SOL    HW1 2657   1.910   0.261   2.771 -1.0852  1.0006 -0.3536
  886SOL    HW2 2658   1.834   0.249   2.624 -0.7415 -1.1228  1.7908
  887SOL     OW 2659   1.016   2.859   1.514  0.0718  0.0456 -0.2070
  887SOL    HW1 2660   1.098   2.907   1.540 -0.9771 -2.0102 -2.3832
  887SOL    HW2 2661   1.043   2.761   1.511  1.6362 -0.8769  0.2595
  888SOL     OW 2662   2.630   1.042   1.324 -0.3356  0.3867  0.0376
  888SOL    HW1 2663   2.563   1.005   1.393  0.5466 -1.3897 -1.2221
  888SOL    HW2 2664   2.628   1.142   1.339  0.2193 -0.6300  1.5956
  889SOL     OW 2665   2.004   2.670   1.283 -0.4640 -0.2466 -0.0965
  889SOL    HW1 2666   1.966   2.746   1.224 -1.4021 -0.7367 -2.1985
  889SOL    HW2 2667   1.952   2.659   1.371 -0.4599  0.2876  0.2992
  890SOL     OW 2668   1.053   2.519   0.758 -0.4511  0.0565 -0.0458
  890SOL    HW1 2669   1.120   2.441   0.742  1.1525  0.8788 -0.1936
  890SOL    HW2 2670   1.104   2.590   0.812  0.7865 -1.0963 -0.8585
  891SOL     OW 2671   2.933   1.551   0.071  0.1988  0.5479  0.0534
  891SOL    HW1 2672   2.958   1.478   0.136 -0.4412  0.6525 -2.7949
  891SOL    HW2 2673   3.013   1.551   0.007  0.6886  0.7707 -0.7106
  892SOL     OW 2674   2.390   1.750   2.399  0.9384  0.3907 -0.8765
  892SOL    HW1 2675   2.448   1.779   2.320  1.9353 -2.1676 -0.6486
  892SOL    HW2 2676   2.316   1.810   2.435 -0.1980 -3.5310  0.1258
  893SOL     OW 2677   2.483   2.407   0.855  0.1150 -0.1033 -0.0880
  893SOL    HW1 2678   2.515   2.338   0.787 -0.1875  2.1192 -2.7067
  893SOL    HW2 2679   2.560   2.435   0.916 -3.2279  0.5501 -1.5504
  894SOL     OW 2680   3.082   0.785   0.656 -0.1266  0.3477 -0.6473
  894SOL    HW1 2681   3.039   0.791   0.750 -0.3083  0.9819  1.0989
  894SOL    HW2 2682   0.002   0.691   0.629  2.5775  1.2686  0.4258
  895SOL     OW 2683   2.752   2.474   2.435  0.2761 -0.2620 -0.0648
  895SOL    HW1 2684   2.829   2.477   2.506  0.1620 -1.6193 -2.6967
  895SOL    HW2 2685   2.676   2.425   2.476  0.9557  1.1533 -1.1277
  896SOL     OW 2686   1.934   2.544   2.525  0.2802 -0.2585  0.4881
  896SOL    HW1 2687   2.020   2.513   2.573 -0.2167  0.2746  1.8456
  896SOL    HW2 2688   1.859   2.483   2.551 -2.0715  2.6705 -2.4716
  897SOL     OW 2689   0.145   1.807   1.745  0.2081  0.4863 -0.3953
  897SOL    HW1 2690   0.122   1.707   1.745 -0.8940  1.8657  1.7359
  897SOL    HW2 2691   0.171   1.841   1.652 -0.1825 -1.0818  2.3288
  898SOL     OW 2692   0.293   2.223   1.933  0.3115 -0.1354 -0.3065
  898SOL    HW1 2693   0.238   2.203   2.017  1.8051 -1.0902  0.5752
  898SOL    HW2 2694   0.320   2.324   1.937 -0.8396  2.1041  0.4096
  899SOL     OW 2695   1.579   0.247   1.673  0.3238 -0.4120 -0.5257
  899SOL    HW1 2696   1.507   0.302   1.633  0.5390  1.7129  2.9855
  899SOL    HW2 2697   1.557   0.147   1.676  1.9504 -0.2807  3.1198
  900SOL     OW 2698   1.546   1.089   0.262 -0.2984 -0.1383  0.3484
  900SOL    HW1 2699   1.582   0.997   0.243 -3.2897 -0.0268 -0.0598
  900SOL    HW2 2700   1.466   1.116   0.207  0.5419  0.1359 -3.1100
  901SOL     OW 2701   1.524   1.261   2.673  0.0738  0.0448 -0.0876
  901SOL    HW1 2702   1.454   1.269   2.600  0.2506  0.0758  0.2123
  901SOL    HW2 2703   1.491   1.209   2.756  0.3293  1.4198  1.5922
  902SOL     OW 2704   2.973   2.471   1.203 -0.1633  0.2199  0.2898
  902SOL    HW1 2705   3.027   2.550   1.229 -0.8015 -0.7043  1.0403
  902SOL    HW2 2706   2.980   2.457   1.099 -0.4505 -0.6698 -0.9230
  903SOL     OW 2707   2.759   1.321   2.155 -0.3033  0.0781  0.3926
  903SOL    HW1 2708   2.773   1.364   2.249 -3.5020  2.0951  1.7022
  903SOL    HW2 2709   2.755   1.221   2.161 -0.9059 -1.3043 -1.7687
  904SOL     OW 2710   1.411   1.651   0.152  0.0936 -0.3374 -0.0722
  904SOL    HW1 2711   1.415   1.599   0.063  2.0913 -0.2369 -1.5635
  904SOL    HW2 2712   1.393   1.750   0.128  2.8657  3.2613 -0.5912
  905SOL     OW 2713   2.067   2.847   1.856 -0.3231 -0.2996  0.4768
  905SOL    HW1 2714   2.098   2.797   1.942  1.0177  1.9824  1.4585
  905SOL    HW2 2715   2.143   2.902   1.804 -1.1197  0.8261 -0.6044
  906SOL     OW 2716   1.711   2.886   2.987 -0.4981 -0.3509  0.0734
  906SOL    HW1 2717   1.763   2.815   3.043  1.9604  0.5219 -1.6232
  906SOL    HW2 2718   1.775   2.912   2.908  0.2790 -0.3436  0.6069
  907SOL     OW 2719   0.431   2.664   1.129 -0.2320 -0.1500  0.0322
  907SOL    HW1 2720   0.458   2.758   1.162 -2.6393  0.5483  0.5562
  907SOL    HW2 2721   0.422   2.651   1.026 -1.7587  0.9074 -2.5857
  908SOL     OW 2722   0.637   2.981   1.647  0.5944  0.0377 -0.4279
  908SOL    HW1 2723   0.618   3.079   1.682 -0.4257 -0.5962 -0.5432
  908SOL    HW2 2724   0.712   2.940   1.699  0.9732 -0.0040 -0.9902
  909SOL     OW 2725   1.726   0.481   1.284 -0.4622 -0.6567 -0.0231
  909SOL    HW1 2726   1.720   0.512   1.380 -0.3492  0.8355 -0.1813
  909SOL    HW2 2727   1.709   0.562   1.218 -1.0094 -0.8294 -0.5271
  910SOL     OW 2728   0.680   0.464   0.403 -0.0473 -0.2445 -0.1534
  910SOL    HW1 2729   0.720   0.410   0.477 -0.8460 -1.8048 -0.3569
  910SOL    HW2 2730   0.625   0.400   0.347  1.0625 -0.6730 -0.1286
  911SOL     OW 2731   0.316   0.074   3.007  0.2213 -0.2487 -0.3951
  911SOL    HW1 2732   0.264   0.068   3.091  2.8167 -2.6555 -2.7192
  911SOL    HW2 2733   0.402   0.020   3.010 -1.3375  0.0099 -0.7666
  912SOL     OW 2734   3.110   2.307   2.686 -0.5640 -0.2154 -0.0613
  912SOL    HW1 2735   0.070   2.372   2.725  2.5654  0.8626  0.4519
  912SOL    HW2 2736   0.019   2.280   2.588 -1.7152 -0.0791  0.8202
  913SOL     OW 2737   2.273   2.571   0.394  0.2004  0.1962  0.1580
  913SOL    HW1 2738   2.185   2.621   0.366 -1.1372  0.7854 -0.4591
  913SOL    HW2 2739   2.353   2.599   0.340  3.6397 -2.9306 -1.8776
  914SOL     OW 2740   1.338   1.620   2.007 -0.0984 -0.0191 -0.0188
  914SOL    HW1 2741   1.421   1.624   2.065 -1.0764  4.7064 -1.7599
  914SOL    HW2 2742   1.256   1.650   2.058  1.2889 -0.2787 -0.5129
  915SOL     OW 2743   2.920   2.677   2.287  0.0552 -0.0057 -0.2160
  915SOL    HW1 2744   2.999   2.624   2.253  0.2636 -1.4584  1.7084
  915SOL    HW2 2745   2.843   2.621   2.332 -1.5555  0.9907 -0.6716
  916SOL     OW 2746   3.056   0.709   2.155  0.8541 -0.0219 -0.1393
  916SOL    HW1 2747   3.036   0.804   2.124  1.2317  2.2931 -0.2946
  916SOL    HW2 2748   0.020   0.666   2.106 -0.3500 -1.6668  0.5826
  917SOL     OW 2749   1.892   0.133   3.068 -0.4280 -0.3107  0.1370
  917SOL    HW1 2750   1.954   0.107   0.032 -1.3196 -0.9090 -0.2542
  917SOL    HW2 2751   1.803   0.094   3.070  3.6478 -0.4639 -0.6189
  918SOL     OW 2752   1.849   2.668   2.128 -0.0586 -0.0503 -0.3669
  918SOL    HW1 2753   1.869   2.760   2.169 -0.6207  1.1465  0.6474
  918SOL    HW2 2754   1.868   2.592   2.188 -1.6975  4.9973 -0.0167
  919SOL     OW 2755   1.558   2.279   1.679 -0.5251  0.4122  0.0898
  919SOL    HW1 2756   1.542   2.377   1.685  1.2564  1.2987  0.7778
  919SOL    HW2 2757   1.502   2.239   1.606 -0.4794 -0.5483  1.7445
  920SOL     OW 2758   0.307   0.882   0.124  0.2621 -0.1997  0.1300
  920SOL    HW1 2759   0.212   0.881   0.161 -1.9406  2.9816  0.3928
  920SOL    HW2 2760   0.374   0.928   0.182  0.5392  1.3849 -2.3098
  921SOL     OW 2761   2.419   1.141   2.391 -0.0134 -0.1778 -0.0263
  921SOL    HW1 2762   2.393   1.226   2.347 -3.0378  0.3600  0.6373
  921SOL    HW2 2763   2.480   1.163   2.469  0.4179  0.5514  2.7677
  922SOL     OW 2764   0.931   1.781   3.079  0.1393 -0.1844  0.3865
  922SOL    HW1 2765   0.832   1.786   3.100 -0.6787 -2.3306  1.8586
  922SOL    HW2 2766   0.969   1.688   3.100 -1.3504 -1.3112  1.1198
  923SOL     OW 2767   0.573   1.202   2.223 -0.2238  0.4958  0.3286
  923SOL    HW1 2768   0.626   1.124   2.269  1.0334  1.1432 -0.9069
  923SOL    HW2 2769   0.614   1.238   2.134  2.8230  3.2677 -1.0713
  924SOL     OW 2770   0.672   2.476   2.801  0.3400 -0.2234 -0.6659
  924SOL    HW1 2771   0.686   2.405   2.875  1.5894 -1.4534  1.1744
  924SOL    HW2 2772   0.729   2.559   2.799 -0.8507 -3.9498 -2.8543
  925SOL     OW 2773   1.715   1.267   0.932 -0.2866 -0.1928 -0.1029
  925SOL    HW1 2774   1.674   1.171   0.932 -0.0373 -1.8535 -1.1247
  925SOL    HW2 2775   1.642   1.330   0.897  1.3850 -1.5419  2.5889
  926SOL     OW 2776   1.569   0.267   2.567 -0.2204  0.2038  0.1319
  926SOL    HW1 2777   1.481   0.272   2.516 -1.3233 -0.8938 -1.5129
  926SOL    HW2 2778   1.600   0.361   2.599  0.0102  0.8018  2.6880
  927SOL     OW 2779   2.588   2.860   2.182 -0.2924 -0.5024 -0.3569
  927SOL    HW1 2780   2.525   2.811   2.119  0.6931 -0.9803  0.0555
  927SOL    HW2 2781   2.645   2.933   2.133  1.5728  0.7304 -1.0297
  928SOL     OW 2782   0.616   1.277   2.836  0.1400 -0.2149 -0.7835
  928SOL    HW1 2783   0.518   1.315   2.838  0.0929 -0.5905 -0.4811
  928SOL    HW2 2784   0.687   1.341   2.806 -1.2873 -0.7661  0.9997
  929SOL     OW 2785   0.067   0.190   0.701  0.8468 -0.0526  0.2629
  929SOL    HW1 2786   0.104   0.266   0.644  1.4211 -0.0261 -0.5068
  929SOL    HW2 2787   0.129   0.111   0.694  1.6729  2.0263  0.6563
  930SOL     OW 2788   2.167   0.373   1.995  0.4898 -0.1265  0.8856
  930SOL    HW1 2789   2.069   0.401   2.000  0.2387 -1.2106  1.0182
  930SOL    HW2 2790   2.202   0.389   1.898  0.5780  2.6813 -4.4133
  931SOL     OW 2791   2.403   1.184   3.019  0.1255 -0.1221  0.6566
  931SOL    HW1 2792   2.348   1.109   3.064 -3.6007 -1.1264 -2.0789
  931SOL    HW2 2793   2.502   1.192   3.051 -0.6416  0.2283 -2.1957
  932SOL     OW 2794   2.519   1.570   1.333 -0.6340  0.1320  0.3439
  932SOL    HW1 2795   2.611   1.594   1.373 -3.2675  1.5895 -0.4513
  932SOL    HW2 2796   2.532   1.542   1.233 -1.1850  0.7860 -0.5394
  933SOL     OW 2797   2.766   2.392   1.641  0.2083 -0.0126 -0.7438
  933SOL    HW1 2798   2.780   2.334   1.722  1.0200  0.7742  0.6615
  933SOL    HW2 2799   2.723   2.484   1.668 -1.7037  3.0245  1.6935
  934SOL     OW 2800   0.672   2.960   0.999 -0.2585 -0.2674  0.1910
  934SOL    HW1 2801   0.742   2.903   0.953  0.2760  0.1382  0.9773
  934SOL    HW2 2802   0.711   2.999   1.085 -0.8426 -2.8312 -0.3913
  935SOL     OW 2803   2.427   0.914   2.241  0.5918  0.3418 -0.2428
  935SOL    HW1 2804   2.437   1.010   2.282  2.7988  0.0949  0.8130
  935SOL    HW2 2805   2.428   0.849   2.313  0.0553 -1.0022 -4.7063
  936SOL     OW 2806   2.272   0.964   2.030  0.0858  0.0423  0.4271
  936SOL    HW1 2807   2.318   0.913   1.956 -0.4222 -0.2331 -0.5281
  936SOL    HW2 2808   2.325   0.942   2.119  4.1162  2.2150 -0.1802
  937SOL     OW 2809   1.856   1.165   1.922 -0.0044 -0.4898  0.2335
  937SOL    HW1 2810   1.829   1.075   1.888  3.3428  0.7838  0.4933
  937SOL    HW2 2811   1.961   1.165   1.931  2.5617  0.9005 -2.0437
  938SOL     OW 2812   0.500   2.599   3.031 -0.3926  0.3755 -0.1643
  938SOL    HW1 2813   0.507   2.676   3.095  3.0977 -1.9249 -3.1657
  938SOL    HW2 2814   0.403   2.579   2.999 -1.8498  0.3336 -0.2770
  939SOL     OW 2815   2.327   0.443   2.990 -0.3960  0.0027  0.3035
  939SOL    HW1 2816   2.257   0.495   2.931  0.9430  1.8594 -1.1776
  939SOL    HW2 2817   2.422   0.469   2.961 -2.7716 -1.5511  2.0302
  940SOL     OW 2818   1.234   2.233   0.811 -0.2731  0.7048 -0.2498
  940SOL    HW1 2819   1.227   2.220   0.914  0.3564  1.7209 -0.3849
  940SOL    HW2 2820   1.202   2.145   0.769 -1.1175 -1.4497  0.0851
  941SOL     OW 2821   1.182   2.083   1.619  0.2047 -0.5520  0.1397
  941SOL    HW1 2822   1.108   2.151   1.592 -1.0276  1.6292 -0.7841
  941SOL    HW2 2823   1.149   2.007   1.680  2.1264  0.0854  3.5499
  942SOL     OW 2824   0.048   2.140   3.083 -0.5586  0.0855  0.4572
  942SOL    HW1 2825   0.039   2.049   0.023  1.6635 -0.4654  0.3123
  942SOL    HW2 2826   0.008   2.137   2.988  1.5627 -1.2325 -2.8541
  943SOL     OW 2827   2.160   0.069   1.489  0.1600 -0.4127 -0.2410
  943SOL    HW1 2828   2.147   3.098   1.428  1.0489  0.4757 -2.9638
  943SOL    HW2 2829   2.093   0.138   1.461 -0.4847 -1.7907  2.2343
  944SOL     OW 2830   1.676   2.125   2.856 -0.1417 -0.2869 -0.1017
  944SOL    HW1 2831   1.664   2.056   2.783  0.4080 -0.9693  0.0819
  944SOL    HW2 2832   1.713   2.219   2.828  1.9797 -3.2384  0.0973
  945SOL     OW 2833   2.568   2.178   0.676 -0.3146  0.0722  0.3163
  945SOL    HW1 2834   2.586   2.101   0.745 -2.3349  0.8403 -0.4464
  945SOL    HW2 2835   2.500   2.146   0.606 -0.0659  0.0796  0.0325
  946SOL     OW 2836   1.233   1.418   2.666 -0.3802  0.5258 -0.1371
  946SOL    HW1 2837   1.166   1.452   2.596 -1.2660 -0.7455  2.2098
  946SOL    HW2 2838   1.259   1.495   2.722  1.0583 -4.1632 -1.3166
  947SOL     OW 2839   0.192   0.622   2.026 -0.3820  0.4047 -0.1295
  947SOL    HW1 2840   0.229   0.714   2.055  2.1062 -1.4222  0.0181
  947SOL    HW2 2841   0.257   0.547   2.057  1.9116 -3.4010  0.3952
  948SOL     OW 2842   3.079   1.301   0.902 -0.1435  0.0749  0.3121
  948SOL    HW1 2843   0.065   1.318   0.871 -0.1113 -1.4096 -1.6865
  948SOL    HW2 2844   3.065   1.199   0.913 -2.4716  0.2307  0.7412
  949SOL     OW 2845   0.671   0.714   2.579  0.3785  0.0036  0.5239
  949SOL    HW1 2846   0.589   0.713   2.638  0.4021  0.8872  0.1493
  949SOL    HW2 2847   0.645   0.682   2.486 -1.7496 -4.1487 -2.4701
  950SOL     OW 2848   0.170   0.650   1.264 -0.0375 -0.4959 -0.4692
  950SOL    HW1 2849   0.077   0.637   1.224  0.5409  0.8516  0.1696
  950SOL    HW2 2850   0.200   0.747   1.281  1.6225 -1.0457  0.4830
  951SOL     OW 2851   0.233   1.125   2.687  0.3453  0.0109  0.0591
  951SOL    HW1 2852   0.137   1.109   2.653 -2.0264  1.8821 -3.3416
  951SOL    HW2 2853   0.231   1.111   2.791 -2.1268 -0.6464  0.1667
  952SOL     OW 2854   1.795   2.173   0.970 -0.9542  0.1557  0.1446
  952SOL    HW1 2855   1.728   2.207   0.903  0.0344 -1.2936  0.0271
  952SOL    HW2 2856   1.847   2.244   1.021 -1.3623 -0.5800  0.9444
  953SOL     OW 2857   0.517   2.837   0.082 -0.7214  0.5084 -0.6191
  953SOL    HW1 2858   0.487   2.880   0.170 -0.0638  2.9632  0.6013
  953SOL    HW2 2859   0.500   2.895   0.004  2.9862 -4.2789  2.5264
  954SOL     OW 2860   2.710   0.820   1.200 -0.7046  0.2601  0.5880
  954SOL    HW1 2861   2.707   0.905   1.254  0.1911 -1.9277 -0.6166
  954SOL    HW2 2862   2.724   0.741   1.261 -0.1087  1.4782 -0.8895
  955SOL     OW 2863   1.828   1.327   2.952 -0.0258 -0.2115 -0.3106
  955SOL    HW1 2864   1.916   1.342   2.897 -1.0753  1.8545  0.0386
  955SOL    HW2 2865   1.826   1.228   2.975  0.4620  2.5581 -1.7332
  956SOL     OW 2866   1.255   0.956   2.789  0.0185  0.0779  0.1859
  956SOL    HW1 2867   1.169   0.996   2.824 -1.3625 -1.7091  1.1199
  956SOL    HW2 2868   1.246   0.881   2.725  0.3052  0.7978  2.1858
  957SOL     OW 2869   1.120   0.390   1.663  0.0855 -0.2686  0.2675
  957SOL    HW1 2870   1.203   0.386   1.717 -1.9527  2.0395  2.8270
  957SOL    HW2 2871   1.142   0.404   1.567 -1.9353 -0.5182 -1.2277
  958SOL     OW 2872   0.333   1.972   0.484  0.0764  0.4147  0.0973
  958SOL    HW1 2873   0.261   1.934   0.545  0.7298  1.6526  0.5438
  958SOL    HW2 2874   0.289   1.988   0.392  1.1654 -0.1389  1.7522
  959SOL     OW 2875   2.077   0.932   1.690 -0.2831  0.2948  0.4113
  959SOL    HW1 2876   2.120   1.021   1.690 -6.3507 -2.0296 -0.1069
  959SOL    HW2 2877   2.082   0.893   1.783  2.5642  1.1004  0.6545
  960SOL     OW 2878   0.402   1.444   2.869  0.5102 -0.1587 -0.4400
  960SOL    HW1 2879   0.442   1.525   2.827  1.1710  1.1706  0.5730
  960SOL    HW2 2880   0.349   1.454   2.954 -1.2822 -1.7879 -0.8296
  961SOL     OW 2881   0.653   1.900   0.958  0.5319  0.2258 -0.2850
  961SOL    HW1 2882   0.635   1.998   0.965  2.3986 -2.2470  1.7864
  961SOL    HW2 2883   0.741   1.876   0.912 -2.6117 -1.8358 -0.5514
  962SOL     OW 2884   0.444   1.763   1.443  0.8572 -0.7170 -0.3012
  962SOL    HW1 2885   0.435   1.755   1.345  1.3093  0.4422 -0.0088
  962SOL    HW2 2886   0.481   1.672   1.477  1.0984 -2.8313 -0.9953
  963SOL     OW 2887   1.390   1.992   2.655  0.6992 -0.7254  0.3051
  963SOL    HW1 2888   1.347   1.959   2.570  0.0180  1.3738 -2.2793
  963SOL    HW2 2889   1.490   1.999   2.656 -3.8363 -4.2788  1.2824
  964SOL     OW 2890   0.087   2.926   2.140  0.3039 -0.3062 -0.3525
  964SOL    HW1 2891   0.091   2.894   2.235 -1.2143  0.9026 -3.6330
  964SOL    HW2 2892   3.106   2.927   2.103 -0.8362  0.5798  0.2473
  965SOL     OW 2893   2.998   2.126   2.859  0.2086  0.3392 -0.3910
  965SOL    HW1 2894   3.026   2.187   2.787 -1.8280  0.1576 -0.7953
  965SOL    HW2 2895   2.979   2.035   2.815  0.0384 -1.0054  0.7507
  966SOL     OW 2896   2.842   1.791   2.980  0.1276 -0.3588  0.4734
  966SOL    HW1 2897   2.781   1.707   2.990 -0.4798 -1.6235 -1.5264
  966SOL    HW2 2898   2.941   1.775   2.988  0.2139  1.5650 -0.5360
  967SOL     OW 2899   1.941   0.089   0.301 -0.5836  0.3038  0.1011
  967SOL    HW1 2900   1.844   0.053   0.304 -0.1586  1.3592 -0.0480
  967SOL    HW2 2901   2.010   0.014   0.305 -0.1022  3.1603 -2.9963
  968SOL     OW 2902   2.797   3.086   0.738 -0.0010  0.5340  0.0022
  968SOL    HW1 2903   2.728   3.023   0.783  0.0519 -0.9040 -1.4791
  968SOL    HW2 2904   2.751   0.063   0.713 -0.7487 -1.7491  1.3689
  969SOL     OW 2905   0.244   1.090   1.994 -0.0316 -0.0943 -0.2180
  969SOL    HW1 2906   0.180   1.060   1.925  1.5904  0.1277 -1.1300
  969SOL    HW2 2907   0.297   1.172   1.970 -0.0225  2.2527  1.1773
  970SOL     OW 2908   1.883   1.794   2.746 -0.0210  0.2063  0.1984
  970SOL    HW1 2909   1.966   1.738   2.735 -1.8052  0.1385  1.2234
  970SOL    HW2 2910   1.841   1.782   2.834 -2.3184  2.8331 -1.7492
  971SOL     OW 2911   2.103   0.330   1.699  0.0079 -0.1093 -0.0657
  971SOL    HW1 2912   2.039   0.319   1.626  3.3562 -1.7468  1.1056
  971SOL    HW2 2913   2.185   0.369   1.660 -1.1987  1.1599  1.2587
  972SOL     OW 2914   3.044   0.444   0.937  0.3507  0.0294 -0.2544
  972SOL    HW1 2915   2.955   0.464   0.894  5.1951  1.0242 -1.0803
  972SOL    HW2 2916   3.102   0.379   0.885 -1.6220  1.7793  0.8116
  973SOL     OW 2917   0.369   0.444   2.333 -0.4063 -0.3101  0.1688
  973SOL    HW1 2918   0.332   0.394   2.250  1.7228  1.2714  2.3988
  973SOL    HW2 2919   0.424   0.384   2.398 -0.9643  2.5800 -0.7952
  974SOL     OW 2920   2.733   0.865   1.808 -0.1069  0.8402 -0.1829
  974SOL    HW1 2921   2.708   0.954   1.859 -3.3565  0.3773 -2.6498
  974SOL    HW2 2922   2.719   0.783   1.871 -2.6384 -1.9805 -1.1821
  975SOL     OW 2923   1.627   2.911   1.959 -0.4109  0.0754 -1.0705
  975SOL    HW1 2924   1.721   2.926   1.914  2.1374 -0.9116 -1.9251
  975SOL    HW2 2925   1.610   2.808   1.974 -0.5981  0.7370 -0.0699
  976SOL     OW 2926   1.867   1.548   1.416 -0.4668 -0.0798  0.9005
  976SOL    HW1 2927   1.832   1.456   1.428  1.3156 -0.7191 -5.1981
  976SOL    HW2 2928   1.959   1.551   1.377 -2.1648 -1.8426  0.0502
  977SOL     OW 2929   0.179   2.814   3.044  0.4208 -0.1884  0.6316
  977SOL    HW1 2930   0.217   2.831   2.953 -0.3835 -0.0005  1.1214
  977SOL    HW2 2931   0.193   2.719   3.067  0.6819  1.1581 -1.0093
  978SOL     OW 2932   2.118   1.412   2.114 -0.7864 -0.1800 -0.2604
  978SOL    HW1 2933   2.092   1.506   2.090  0.2501 -1.7637  0.6030
  978SOL    HW2 2934   2.090   1.388   2.209 -0.5634 -0.0108  0.0748
  979SOL     OW 2935   1.190   0.916   2.475 -0.3619 -0.2791  0.6934
  979SOL    HW1 2936   1.134   0.857   2.417  1.0047 -0.2611 -0.3564
  979SOL    HW2 2937   1.142   1.002   2.505 -1.6665 -1.2676  0.9734
  980SOL     OW 2938   1.664   1.992   2.623  0.0063  0.6759  0.3940
  980SOL    HW1 2939   1.715   2.044   2.555 -0.1996 -1.3324 -1.3108
  980SOL    HW2 2940   1.720   1.917   2.662  2.0482 -0.4761  0.3574
  981SOL     OW 2941   1.653   0.883   2.082 -0.3149 -0.2713 -0.5614
  981SOL    HW1 2942   1.666   0.905   1.977  0.8615  2.6301 -1.4473
  981SOL    HW2 2943   1.569   0.931   2.113 -0.3527 -2.6261 -0.4255
  982SOL     OW 2944   0.509   0.257   0.212 -0.0263  0.1045 -0.1631
  982SOL    HW1 2945   0.429   0.264   0.274  2.3170 -0.5713  0.3324
  982SOL    HW2 2946   0.480   0.290   0.123  0.8428 -0.0362  1.1666
  983SOL     OW 2947   2.166   0.577   2.798 -0.0306  0.1983  0.1437
  983SOL    HW1 2948   2.205   0.670   2.777  3.4603 -0.2416 -1.6023
  983SOL    HW2 2949   2.097   0.554   2.724  0.4949 -2.4853 -3.9242
  984SOL     OW 2950   1.081   0.267   2.763  0.1565 -0.0051 -0.4111
  984SOL    HW1 2951   1.034   0.227   2.678 -1.3094 -0.8460  0.9491
  984SOL    HW2 2952   1.054   0.223   2.852 -2.3449 -0.6250 -0.6743
  985SOL     OW 2953   1.297   2.538   1.896  0.7934 -0.1031  0.0380
  985SOL    HW1 2954   1.299   2.443   1.930  0.4184 -0.3301  1.0465
  985SOL    HW2 2955   1.202   2.578   1.893  0.7246 -2.1841 -3.0234
  986SOL     OW 2956   2.237   2.987   1.686 -0.1857 -0.4124 -0.0618
  986SOL    HW1 2957   2.198   3.042   1.610  2.3596  0.9184 -1.7580
  986SOL    HW2 2958   2.294   3.056   1.736 -1.4261  4.1396 -1.6974
  987SOL     OW 2959   1.961   1.215   0.885  0.1421  0.8433 -0.7878
  987SOL    HW1 2960   1.962   1.113   0.891  0.8506 -2.0460 -0.2156
  987SOL    HW2 2961   1.864   1.249   0.898 -1.2864 -0.2630 -1.3980
  988SOL     OW 2962   2.410   1.046   1.496 -0.3453 -0.1274  0.3734
  988SOL    HW1 2963   2.319   1.066   1.459  3.8158 -0.9623  0.5417
  988SOL    HW2 2964   2.456   1.132   1.540  0.6167  0.2280  3.5496
  989SOL     OW 2965   1.789   1.986   3.045 -0.0815 -0.3142  0.4167
  989SOL    HW1 2966   1.735   2.040   2.970 -0.8278  1.6428  0.3699
  989SOL    HW2 2967   1.873   2.039   3.073  0.4257  1.8378  4.3834
  990SOL     OW 2968   1.615   0.888   2.620 -0.0958  0.4334 -0.3237
  990SOL    HW1 2969   1.648   0.976   2.583 -0.3371  0.4221  0.5893
  990SOL    HW2 2970   1.686   0.837   2.670 -0.3954 -0.6328 -1.1480
  991SOL     OW 2971   0.993   0.800   0.675  0.3358  0.2281  0.2299
  991SOL    HW1 2972   1.074   0.825   0.618  0.0331  0.1897 -0.8144
  991SOL    HW2 2973   1.009   0.818   0.773 -0.4195  0.0683  0.0131
  992SOL     OW 2974   3.103   0.905   1.199 -0.7933  0.2534  0.1154
  992SOL    HW1 2975   3.031   0.953   1.139 -2.2665  1.0238  1.5243
  992SOL    HW2 2976   3.082   0.806   1.220  0.7717 -0.7128  2.1807
  993SOL     OW 2977   2.111   0.706   1.871 -0.0233  0.3072 -0.0682
  993SOL    HW1 2978   2.040   0.632   1.880  0.7390  3.0403 -4.0432
  993SOL    HW2 2979   2.197   0.669   1.825  2.4205 -1.3764  1.0065
  994SOL     OW 2980   1.349   1.804   1.759 -0.1605 -0.7725  0.1441
  994SOL    HW1 2981   1.379   1.741   1.835  2.0571 -2.0578  1.7581
  994SOL    HW2 2982   1.245   1.810   1.763 -1.7984  0.8949  0.8760
  995SOL     OW 2983   2.124   1.664   2.759 -0.4195  0.3821  0.1680
  995SOL    HW1 2984   2.216   1.633   2.720  0.2095 -1.9029  0.8556
  995SOL    HW2 2985   2.140   1.717   2.843 -0.2047 -0.5853  1.8654
  996SOL     OW 2986   2.066   1.577   0.642  0.0357 -0.2834 -0.3027
  996SOL    HW1 2987   2.140   1.604   0.702 -0.2386  0.2419 -4.0513
  996SOL    HW2 2988   2.107   1.558   0.551  0.0224  1.3165  1.0112
  997SOL     OW 2989   1.920   0.517   1.881  0.0949  0.6650  0.0243
  997SOL    HW1 2990   1.837   0.562   1.925  0.2340  1.0534 -0.3301
  997SOL    HW2 2991   1.902   0.476   1.786 -0.5938 -0.4877 -0.4189
  998SOL     OW 2992   2.706   0.642   0.701 -0.3403 -0.5751 -0.0995
  998SOL    HW1 2993   2.720   0.718   0.774  2.3961  2.8471 -0.4077
  998SOL    HW2 2994   2.728   0.688   0.618  0.0705 -2.9845  3.6180
  999SOL     OW 2995   2.668   1.418   0.165  0.4719 -0.1273 -0.6241
  999SOL    HW1 2996   2.639   1.516   0.178  2.1498  0.4901 -1.2375
  999SOL    HW2 2997   2.662   1.374   0.255  1.1370  0.8729  0.3290
 1000SOL     OW 2998   0.659   1.301   1.966  0.4325  0.3333 -0.1720
 1000SOL    HW1 2999   0.572   1.343   1.928 -4.0077 -2.1092 -1.7486
 1000SOL    HW2 3000   0.703   1.245   1.892 -3.4656  0.7828 -1.3026
   3.11070   3.11070   3.11070
