1000 SPC/Fw water molecules
3000
    1SOL  OW       1   1.493   2.611   2.545  0.2294  0.6234 -0.6759
    1SOL  HW1      2   1.395   2.573   2.549 -0.6033 -1.5761 -0.8867
    1SOL  HW2      3   1.524   2.621   2.643  1.5391  2.2527  1.3116
    2SOL  OW       4   1.364   0.103   1.884  0.2779  0.1038 -0.3838
    2SOL  HW1      5   1.336   0.182   1.944  0.4132  0.8513 -3.4803
    2SOL  HW2      6   1.282   0.049   1.855 -2.9805  0.5042  1.1295
    3SOL  OW       7   0.744   0.996   2.841  0.1140 -0.4426  0.2901
    3SOL  HW1      8   0.695   0.956   2.756 -1.3453  0.0291  0.3915
    3SOL  HW2      9   0.683   1.033   2.915  1.8361  0.4644  0.0104
    4SOL  OW      10   1.971   1.466   2.793 -0.2840 -0.2968 -0.0677
    4SOL  HW1     11   2.063   1.450   2.839 -0.6582 -2.1641 -1.7116
    4SOL  HW2     12   1.913   1.383   2.783 -1.5696 -0.3724 -2.0054
    5SOL  OW      13   1.239   0.752   1.828 -0.3014  0.2470  0.0817
    5SOL  HW1     14   1.155   0.727   1.775  1.2606 -2.3097  5.1018
    5SOL  HW2     15   1.266   0.846   1.813 -1.7544  1.9954 -0.5369
    6SOL  OW      16   2.852   0.922   2.553  0.7807  0.0979  0.4751
    6SOL  HW1     17   2.795   0.864   2.616 -4.8983  0.0615  0.4032
    6SOL  HW2     18   2.799   0.937   2.467 -2.4312  2.3317 -1.3380
    7SOL  OW      19   2.680   1.422   1.718 -0.0749 -0.2932  0.2331
    7SOL  HW1     20   2.735   1.344   1.690  1.1476  1.0258  1.1215
    7SOL  HW2     21   2.578   1.400   1.731  1.4547 -1.6862 -0.0265
    8SOL  OW      22   2.676   2.914   2.979  0.4954 -0.4565  0.2235
    8SOL  HW1     23   2.717   2.823   2.976  1.1464  0.3294  2.2969
    8SOL  HW2     24   2.703   2.968   2.899  0.3153 -1.3156 -0.0365
    9SOL  OW      25   0.967   2.044   0.682  0.2966  0.0759  0.0440
    9SOL  HW1     26   0.907   1.959   0.674  2.2525  1.3114  0.6379
    9SOL  HW2     27   1.045   2.053   0.613  2.9483 -1.4466 -0.1105
   10SOL  OW      28   2.862   2.345   0.577 -0.1714 -0.5325 -0.3866
   10SOL  HW1     29   2.881   2.297   0.665  1.5364 -2.2917  1.4391
   10SOL  HW2     30   2.929   2.417   0.556  0.9440 -0.8937 -0.0263
   11SOL  OW      31   0.036   1.086   0.118  0.3948  0.1437 -0.1375
   11SOL  HW1     32   3.045   1.109   0.163  1.1961  0.2213  2.7906
   11SOL  HW2     33   0.075   1.172   0.085 -2.0301  1.1029 -1.1810
   12SOL  OW      34   2.607   2.492   0.527 -0.2313 -0.9247  0.0066
   12SOL  HW1     35   2.687   2.427   0.547 -2.8991 -2.6442  3.9939
   12SOL  HW2     36   2.623   2.561   0.454  0.1315  3.6448 -0.8689
   13SOL  OW      37   2.957   0.303   2.436 -0.0365 -0.2883 -0.2306
   13SOL  HW1     38   3.025   0.261   2.500 -0.8918  0.8300  1.6100
   13SOL  HW2     39   2.999   0.316   2.346  2.6791 -2.1727 -2.4446
   14SOL  OW      40   1.404   0.536   1.900  0.6829  0.1189  0.6112
   14SOL  HW1     41   1.505   0.519   1.907  1.6523  1.2308 -2.6487
   14SOL  HW2     42   1.383   0.631   1.868 -0.8441  2.2581  0.3298
   15SOL  OW      43   0.462   2.462   2.599 -0.8314 -0.5767  0.0316
   15SOL  HW1     44   0.455   2.563   2.601 -0.7926  0.4402  5.0604
   15SOL  HW2     45   0.536   2.436   2.534  0.5613  0.9082  1.9201
   16SOL  OW      46   1.950   0.692   2.999 -0.4281  0.0327 -0.4282
   16SOL  HW1     47   1.870   0.761   2.999 -0.6135  0.3597 -1.3661
   16SOL  HW2     48   1.919   0.603   2.960  0.5904  1.5210  0.6321
   17SOL  OW      49   0.076   0.190   1.578  0.3684 -0.0249 -0.4420
   17SOL  HW1     50   0.170   0.219   1.544  1.6017  1.3548  0.8277
   17SOL  HW2     51   0.047   0.243   1.657  1.8758  2.6459  0.7849
   18SOL  OW      52   1.353   0.788   3.057  0.1059  0.2102  0.4803
   18SOL  HW1     53   1.409   0.712   3.089 -0.1813  0.0083  1.1953
   18SOL  HW2     54   1.337   0.851   0.038  2.3401 -1.4918  1.4311
   19SOL  OW      55   2.785   1.169   1.678  0.0301 -0.5431  0.0853
   19SOL  HW1     56   2.768   1.145   1.579  0.4601 -0.2586  3.6664
   19SOL  HW2     57   2.775   1.084   1.738  1.4739  0.4168  1.5166
   20SOL  OW      58   1.552   2.595   2.822  0.7191 -0.4935  0.1494
   20SOL  HW1     59   1.647   2.629   2.794 -0.0869 -0.0925 -0.6594
   20SOL  HW2     60   1.515   2.640   2.905 -0.0716  0.3139 -1.2138
   21SOL  OW      61   1.079   1.404   1.506  0.0641  0.5813 -0.0869
   21SOL  HW1     62   1.079   1.304   1.487  0.4949 -1.7428 -1.5392
   21SOL  HW2     63   1.158   1.431   1.567  0.7563 -1.0269  3.4619
   22SOL  OW      64   1.725   2.499   1.583 -0.1006  0.0859 -0.0130
   22SOL  HW1     65   1.715   2.396   1.591 -0.9950 -0.0318  0.9193
   22SOL  HW2     66   1.824   2.520   1.570 -0.8537 -2.4844  1.5940
   23SOL  OW      67   2.162   1.490   0.971  0.0415  0.0152 -0.2733
   23SOL  HW1     68   2.079   1.519   0.923  0.2664  1.4644 -0.1178
   23SOL  HW2     69   2.134   1.453   1.063  2.2033  1.4191  0.6017
   24SOL  OW      70   1.265   0.781   1.323 -0.3445  0.0151 -0.1871
   24SOL  HW1     71   1.300   0.726   1.405 -1.6657 -2.0013  0.7624
   24SOL  HW2     72   1.313   0.745   1.242  2.3480  0.6696  0.1462
   25SOL  OW      73   1.252   2.386   1.762 -0.4297 -0.0949  0.0940
   25SOL  HW1     74   1.176   2.319   1.767 -1.3366  2.0672  0.5072
   25SOL  HW2     75   1.274   2.414   1.859 -0.7381 -1.2285 -3.1812
   26SOL  OW      76   0.540   0.365   0.411  0.2199 -0.8022  0.4350
   26SOL  HW1     77   0.470   0.333   0.477  1.9318 -2.0013  0.6064
   26SOL  HW2     78   0.538   0.468   0.402  0.6656  1.1269 -0.4134
   27SOL  OW      79   0.742   1.304   0.984  0.1024 -0.0176 -0.2504
   27SOL  HW1     80   0.838   1.275   0.980  1.8594 -0.4924  0.1615
   27SOL  HW2     81   0.694   1.275   1.069  1.8508 -1.0254  0.7950
   28SOL  OW      82   2.123   2.228   1.469 -0.2808  0.0245  0.1482
   28SOL  HW1     83   2.087   2.210   1.377  1.1671 -1.9654 -1.0426
   28SOL  HW2     84   2.133   2.139   1.519 -3.1434  0.5459 -3.2216
   29SOL  OW      85   1.858   1.859   2.401 -0.1659 -0.0506 -0.5815
   29SOL  HW1     86   1.927   1.927   2.427 -2.7406  1.2430  0.6974
   29SOL  HW2     87   1.878   1.768   2.439 -2.1728 -0.2600  1.2807
   30SOL  OW      88   2.732   2.998   0.884  0.1825  0.6068  0.5681
   30SOL  HW1     89   2.662   3.059   0.936  1.0399 -1.9530  0.2276
   30SOL  HW2     90   2.820   3.011   0.930  1.2688 -1.2966  0.7833
   31SOL  OW      91   2.573   1.839   2.457  0.2448  0.5043  0.1651
   31SOL  HW1     92   2.633   1.912   2.424  0.0219 -0.6576  1.0917
   31SOL  HW2     93   2.576   1.756   2.391 -1.2738 -0.3032 -0.5995
   32SOL  OW      94   1.306   2.656   1.759  0.2481  0.3599  0.1452
   32SOL  HW1     95   1.361   2.721   1.703  1.3990 -0.6578 -0.9573
   32SOL  HW2     96   1.320   2.557   1.731  0.4836  0.0424  0.5298
   33SOL  OW      97   0.311   1.233   2.669  0.0944  0.0879 -0.2427
   33SOL  HW1     98   0.216   1.196   2.643  0.5721 -1.6968  1.4529
   33SOL  HW2     99   0.368   1.245   2.586  0.5028  0.7341 -0.3319
   34SOL  OW     100   2.271   2.654   2.702 -0.2211  0.3041  0.2547
   34SOL  HW1    101   2.316   2.597   2.771  0.2073 -0.3417  1.5936
   34SOL  HW2    102   2.341   2.698   2.636  1.3666 -1.5050 -1.0835
   35SOL  OW     103   2.975   3.020   0.985 -0.1388 -0.1612 -0.7042
   35SOL  HW1    104   2.998   0.020   0.974 -1.6725  3.6771 -2.9118
   35SOL  HW2    105   3.039   2.964   1.042  2.5742 -3.0443 -1.6201
   36SOL  OW     106   2.332   2.307   2.625 -0.3407  0.3612 -0.3778
   36SOL  HW1    107   2.355   2.374   2.702  0.3030 -1.4087 -2.4676
   36SOL  HW2    108   2.390   2.319   2.541 -3.0643 -1.2906 -2.3121
   37SOL  OW     109   1.754   2.249   2.793 -0.5006  0.7868  0.2200
   37SOL  HW1    110   1.728   2.150   2.827 -0.0620  0.8879 -1.3739
   37SOL  HW2    111   1.843   2.284   2.839  0.6062 -1.4971 -0.0652
   38SOL  OW     112   0.348   0.240   1.514 -0.2155 -0.1312 -0.0263
   38SOL  HW1    113   0.414   0.237   1.590 -0.2894  0.1383  1.0402
   38SOL  HW2    114   0.387   0.215   1.423  0.8822  1.1416  0.3617
   39SOL  OW     115   1.563   1.911   2.686 -0.2437  0.3278  0.1611
   39SOL  HW1    116   1.464   1.887   2.687  1.6309  1.9031  0.6902
   39SOL  HW2    117   1.586   1.947   2.594 -0.6373 -1.5095 -1.2817
   40SOL  OW     118   0.662   1.508   0.852  0.0605  0.1887 -0.0855
   40SOL  HW1    119   0.627   1.486   0.756  0.8345  2.5523  1.0188
   40SOL  HW2    120   0.679   1.424   0.902 -0.2086 -0.0236 -0.6897
   41SOL  OW     121   2.337   2.856   2.142  0.8339 -0.5425  0.1604
   41SOL  HW1    122   2.344   2.789   2.064  0.5372 -0.9221  1.8919
   41SOL  HW2    123   2.363   2.802   2.225 -0.3890  0.7853  2.4319
   42SOL  OW     124   2.288   0.154   1.336 -0.2838  0.5189  0.0041
   42SOL  HW1    125   2.306   0.184   1.238 -1.0200 -0.3503 -0.4635
   42SOL  HW2    126   2.221   0.078   1.338 -0.1002  1.5110 -1.3069
   43SOL  OW     127   1.436   2.850   1.630 -0.5673 -0.3554  0.4127
   43SOL  HW1    128   1.517   2.795   1.656  1.0108 -0.8563  0.4399
   43SOL  HW2    129   1.437   2.945   1.659 -4.1260 -0.6557 -2.0049
   44SOL  OW     130   0.335   0.941   0.465 -0.2211  0.1417  0.5624
   44SOL  HW1    131   0.342   0.878   0.547  0.6782  0.2782 -3.4582
   44SOL  HW2    132   0.300   1.036   0.493  1.6021  0.1658 -0.4068
   45SOL  OW     133   0.706   1.694   2.000 -0.1201 -0.1110 -0.1241
   45SOL  HW1    134   0.701   1.608   1.947  0.0594 -4.1603  3.1366
   45SOL  HW2    135   0.788   1.754   1.978 -1.1207  2.6439  3.5190
   46SOL  OW     136   0.261   2.413   1.578  0.8046  0.3346  0.2630
   46SOL  HW1    137   0.223   2.505   1.547  0.9524 -1.2007 -0.5179
   46SOL  HW2    138   0.190   2.360   1.627 -0.2502  1.7769  2.8419
   47SOL  OW     139   0.999   1.287   1.899  0.0258  0.0348  0.5344
   47SOL  HW1    140   0.925   1.358   1.876  1.3966 -0.6874 -1.2112
   47SOL  HW2    141   1.050   1.312   1.986  1.8763 -1.1246 -0.5652
   48SOL  OW     142   1.821   2.772   0.030  0.2078  0.1277  0.1688
   48SOL  HW1    143   1.815   2.670   0.015  1.9637  0.2691 -0.2779
   48SOL  HW2    144   1.872   2.816   3.049  0.9870  1.1811  3.4515
   49SOL  OW     145   2.020   1.836   2.004 -0.1411  0.4785 -0.1674
   49SOL  HW1    146   2.046   1.917   2.063 -2.0696  1.1731 -0.4360
   49SOL  HW2    147   1.923   1.839   1.968  0.9328 -0.4249 -2.8470
   50SOL  OW     148   0.858   0.388   0.585 -0.1619 -0.6504 -0.0502
   50SOL  HW1    149   0.826   0.297   0.549 -1.5264 -2.6127 -0.0991
   50SOL  HW2    150   0.933   0.364   0.649 -1.8323  0.9681 -1.2269
   51SOL  OW     151   1.492   2.552   0.253  0.1597 -0.2251 -0.1235
   51SOL  HW1    152   1.397   2.574   0.219  0.2765 -0.3813  3.0712
   51SOL  HW2    153   1.539   2.487   0.190 -3.3041  0.3331 -0.0275
   52SOL  OW     154   0.201   1.099   1.213 -0.0568 -0.1908 -0.1885
   52SOL  HW1    155   0.197   1.078   1.314  0.0756 -0.1689 -1.4499
   52SOL  HW2    156   0.265   1.036   1.161 -2.4810 -2.1015  1.3680
   53SOL  OW     157   1.411   0.145   2.649 -0.2489  0.4166  0.0513
   53SOL  HW1    158   1.472   0.167   2.730 -2.2629  0.0042 -1.6855
   53SOL  HW2    159   1.325   0.108   2.684 -2.1100  1.6515  0.3786
   54SOL  OW     160   2.085   0.486   1.594  0.4445 -0.2318 -0.1454
   54SOL  HW1    161   2.120   0.583   1.588 -1.7676 -0.3318  4.0543
   54SOL  HW2    162   2.148   0.406   1.583 -0.3185 -0.0002 -1.0212
   55SOL  OW     163   2.481   0.109   0.242  0.1640 -0.0720 -0.2148
   55SOL  HW1    164   2.444   0.198   0.203 -0.9351  2.7279 -1.3990
   55SOL  HW2    165   2.566   0.091   0.185 -2.1267  4.7427  1.3045
   56SOL  OW     166   1.268   1.022   1.921  0.3450 -0.4404 -0.0197
   56SOL  HW1    167   1.258   1.099   1.859  0.0613 -0.5723 -0.8819
   56SOL  HW2    168   1.358   1.028   1.971 -0.6052  0.8953 -2.6289
   57SOL  OW     169   1.889   0.831   2.658 -0.2140  0.0397 -0.1635
   57SOL  HW1    170   1.913   0.730   2.641 -0.6371 -0.3330 -0.5253
   57SOL  HW2    171   1.849   0.874   2.578 -1.7947 -0.2212 -0.8134
   58SOL  OW     172   0.336   3.052   2.270  0.5870  0.0874  0.3930
   58SOL  HW1    173   0.297   3.037   2.181  1.2057 -0.3483  0.5997
   58SOL  HW2    174   0.427   3.010   2.272 -0.3356 -0.4919  2.4937
   59SOL  OW     175   0.853   2.690   1.862 -0.3105  0.0436  0.0248
   59SOL  HW1    176   0.923   2.737   1.798  0.5061  0.0160 -1.6577
   59SOL  HW2    177   0.758   2.725   1.854 -1.1198 -1.8278  2.3331
   60SOL  OW     178   2.301   2.092   2.792  0.1896  0.3509 -0.3712
   60SOL  HW1    179   2.303   2.166   2.725  1.4632  0.8580  1.2602
   60SOL  HW2    180   2.319   2.001   2.751  0.3447  2.4786 -2.1421
   61SOL  OW     181   0.835   1.781   0.318  0.3791  0.4200  0.7581
   61SOL  HW1    182   0.771   1.722   0.268  0.3764 -0.7087  0.4002
   61SOL  HW2    183   0.933   1.746   0.315 -2.3799 -0.3273  1.6897
   62SOL  OW     184   1.654   0.043   0.628  0.0588 -0.3348 -0.0196
   62SOL  HW1    185   1.723   0.110   0.664 -1.5346 -2.4298 -1.5882
   62SOL  HW2    186   1.690   3.040   0.644 -0.0738 -0.5284  1.5793
   63SOL  OW     187   2.231   0.756   0.511 -0.4558 -0.0042  0.4139
   63SOL  HW1    188   2.154   0.703   0.551 -2.2394  0.2710 -1.7116
   63SOL  HW2    189   2.318   0.713   0.529  0.7646 -0.7819  2.3832
   64SOL  OW     190   1.605   0.997   0.089 -0.2134 -0.1543 -0.2005
   64SOL  HW1    191   1.504   0.981   0.089 -1.4187  2.9443 -0.3816
   64SOL  HW2    192   1.638   1.090   0.093 -0.9545  0.6364 -1.9367
   65SOL  OW     193   0.150   1.552   2.212  0.3672  0.3173  0.0616
   65SOL  HW1    194   0.144   1.609   2.296  2.1518 -5.7140 -2.0718
   65SOL  HW2    195   0.054   1.526   2.178  4.0235  0.2203 -0.2320
   66SOL  OW     196   0.331   1.278   1.499  0.2868  0.1331 -0.4526
   66SOL  HW1    197   0.370   1.328   1.422 -1.2614  2.3303  0.5087
   66SOL  HW2    198   0.237   1.316   1.512  0.9128 -2.4721 -0.5187
   67SOL  OW     199   1.841   1.639   1.072 -0.2770  0.8080 -0.2076
   67SOL  HW1    200   1.845   1.632   1.173  3.1105 -1.5054 -2.3085
   67SOL  HW2    201   1.739   1.629   1.043  2.0916  0.4684  3.6949
   68SOL  OW     202   2.238   2.181   0.806  0.6029  0.3998 -0.0895
   68SOL  HW1    203   2.293   2.251   0.752  0.6130 -0.0654  1.3187
   68SOL  HW2    204   2.223   2.211   0.901 -2.0020 -0.3118  0.7342
   69SOL  OW     205   2.499   0.694   0.588 -0.1467  0.3008  0.1420
   69SOL  HW1    206   2.551   0.611   0.612  0.5587 -0.4671  0.0114
   69SOL  HW2    207   2.477   0.738   0.675  1.0661 -0.7467 -0.7487
   70SOL  OW     208   0.001   0.796   1.315 -0.0791  0.2812  0.9531
   70SOL  HW1    209   3.049   0.716   1.275  1.0676  1.2122  1.7033
   70SOL  HW2    210   0.101   0.799   1.299  0.9605 -1.2278 -2.2388
   71SOL  OW     211   0.711   2.191   0.706 -0.2070 -0.4254 -0.1715
   71SOL  HW1    212   0.694   2.266   0.775 -0.2502 -0.5870 -1.7999
   71SOL  HW2    213   0.799   2.142   0.716  1.5679 -0.4492  0.5526
   72SOL  OW     214   2.800   1.733   3.079 -0.0989  0.6155  0.1649
   72SOL  HW1    215   2.841   1.641   3.056 -0.9232 -2.2110 -0.9935
   72SOL  HW2    216   2.790   1.727   0.089  2.0772  0.5629 -0.6881
   73SOL  OW     217   0.593   1.045   0.440  0.1195 -0.5891  0.0801
   73SOL  HW1    218   0.656   1.038   0.519 -0.5356  2.0068  0.5434
   73SOL  HW2    219   0.503   1.001   0.455 -0.0833  0.2705  0.7393
   74SOL  OW     220   0.292   2.161   2.193  0.0964 -0.2553  0.2892
   74SOL  HW1    221   0.284   2.083   2.128  0.1772  1.4855 -1.4536
   74SOL  HW2    222   0.320   2.130   2.287 -2.7071 -0.4575  1.9895
   75SOL  OW     223   2.143   1.982   1.596 -0.3837  0.0729 -0.4962
   75SOL  HW1    224   2.049   1.935   1.595 -0.8464  1.0017 -1.2780
   75SOL  HW2    225   2.205   1.934   1.529 -3.6247  1.7737  2.8431
   76SOL  OW     226   1.030   1.672   1.079 -0.4433 -0.0293 -0.6527
   76SOL  HW1    227   0.954   1.724   1.128  2.7813  0.2465  0.6468
   76SOL  HW2    228   0.999   1.651   0.984  0.4192  0.5088 -1.9586
   77SOL  OW     229   1.862   0.978   1.167  0.4374  0.6488  0.2659
   77SOL  HW1    230   1.892   0.945   1.259  0.0509 -2.4778  1.0575
   77SOL  HW2    231   1.876   1.079   1.146 -0.8346  0.1048  1.4880
   78SOL  OW     232   1.607   0.345   0.872  0.1319  0.0603  0.1051
   78SOL  HW1    233   1.580   0.299   0.961 -1.0912 -4.1305 -0.2803
   78SOL  HW2    234   1.661   0.287   0.809 -0.2850  0.0472 -1.1846
   79SOL  OW     235   1.291   2.441   2.046  0.0005 -0.2032  0.3503
   79SOL  HW1    236   1.294   2.545   2.048  0.3880  0.6136 -1.9110
   79SOL  HW2    237   1.241   2.409   2.131  0.7530  1.9081  0.0784
   80SOL  OW     238   0.929   0.717   2.220 -0.2837  0.0958  0.1765
   80SOL  HW1    239   0.867   0.670   2.151  0.7205 -0.7207 -0.8421
   80SOL  HW2    240   0.935   0.663   2.307  0.6621 -0.1407  0.5398
   81SOL  OW     241   0.405   0.219   0.621  0.1398  0.1540  0.1420
   81SOL  HW1    242   0.473   0.282   0.672  2.3131 -0.5272 -1.6898
   81SOL  HW2    243   0.324   0.201   0.680 -3.6742  0.1157 -2.1035
   82SOL  OW     244   1.307   0.321   2.040 -0.0816 -0.2565  0.4956
   82SOL  HW1    245   1.358   0.399   2.002  0.8699  2.1652 -0.6338
   82SOL  HW2    246   1.217   0.352   2.073 -1.3363 -1.0225 -0.1937
   83SOL  OW     247   3.095   2.618   1.294 -0.2885  0.6179  0.4141
   83SOL  HW1    248   3.004   2.589   1.321  0.3595  1.5910 -0.3532
   83SOL  HW2    249   3.084   2.687   1.218  2.6701 -1.4419 -1.6205
   84SOL  OW     250   1.747   1.049   0.750  0.5979 -0.1983  0.2300
   84SOL  HW1    251   1.680   1.044   0.829 -2.6154 -1.1483  0.7670
   84SOL  HW2    252   1.743   1.138   0.695  0.6516  0.0180  0.4246
   85SOL  OW     253   1.968   2.665   1.567 -0.1882 -0.2630 -0.4978
   85SOL  HW1    254   1.921   2.728   1.497 -4.1724 -0.2046 -0.1739
   85SOL  HW2    255   1.984   2.713   1.654  2.7836  0.8874 -3.1982
   86SOL  OW     256   1.224   1.781   1.585  0.2489  0.1535  0.0632
   86SOL  HW1    257   1.219   1.802   1.485  2.3422 -1.0371 -1.3538
   86SOL  HW2    258   1.249   1.868   1.628 -0.3736  2.9900 -3.0101
   87SOL  OW     259   1.561   1.089   1.018  0.3885 -0.2277  0.6560
   87SOL  HW1    260   1.562   0.997   1.061 -2.0812  2.1778  2.3086
   87SOL  HW2    261   1.504   1.076   0.935  0.9417 -3.9388 -1.0697
   88SOL  OW     262   0.134   0.133   1.120  0.4611  0.3107 -0.3783
   88SOL  HW1    263   0.231   0.140   1.093 -0.1604  1.2517 -0.9024
   88SOL  HW2    264   0.083   0.156   1.037 -0.6274  0.0944 -0.1008
   89SOL  OW     265   2.669   1.472   2.019 -0.3771 -0.0043 -0.1574
   89SOL  HW1    266   2.728   1.544   2.060  2.6811 -1.5417 -0.6758
   89SOL  HW2    267   2.693   1.461   1.921 -0.8850 -2.3465 -2.4293
   90SOL  OW     268   3.068   2.553   0.173  0.2511  0.3843 -0.4251
   90SOL  HW1    269   2.995   2.621   0.150  1.2725 -1.6419 -0.4564
   90SOL  HW2    270   0.063   2.600   0.164 -1.6505 -1.2812 -3.8432
   91SOL  OW     271   0.493   0.922   0.846  1.0008 -0.1801 -0.2513
   91SOL  HW1    272   0.518   1.021   0.834 -0.6402  0.3828  0.5697
   91SOL  HW2    273   0.417   0.900   0.778 -0.6510  1.6121 -0.0447
   92SOL  OW     274   2.537   2.948   1.401  0.1317  0.1373  0.2728
   92SOL  HW1    275   2.611   2.877   1.396  0.1051 -0.9350  0.4174
   92SOL  HW2    276   2.486   2.949   1.491  0.2307  2.3686 -3.4610
   93SOL  OW     277   0.186   1.946   2.795 -0.2074 -0.9170  0.5393
   93SOL  HW1    278   0.183   2.007   2.877 -1.4824 -2.9726  1.0315
   93SOL  HW2    279   0.118   1.971   2.719 -0.9003 -0.5458 -3.5001
   94SOL  OW     280   2.085   2.483   1.875 -0.4372  0.1220 -0.2287
   94SOL  HW1    281   2.034   2.565   1.912 -0.2284  1.7483 -1.1111
   94SOL  HW2    282   2.048   2.460   1.784 -0.2791  2.8853  0.0602
   95SOL  OW     283   2.044   3.060   1.675 -0.2346 -0.7240  0.0201
   95SOL  HW1    284   1.943   3.046   1.677 -2.2657 -0.9944  2.8723
   95SOL  HW2    285   2.077   0.010   1.760 -2.6576  3.2228  0.0145
   96SOL  OW     286   1.562   1.046   2.373  0.2934 -0.8199 -0.1946
   96SOL  HW1    287   1.565   1.075   2.277 -1.0464  0.8286 -2.8224
   96SOL  HW2    288   1.542   1.124   2.433  0.2574  0.3428  0.3776
   97SOL  OW     289   2.586   0.279   1.073 -0.4081  0.3718 -0.5427
   97SOL  HW1    290   2.591   0.223   1.156 -1.1107  0.0830 -1.0435
   97SOL  HW2    291   2.521   0.235   1.008  0.7682 -5.1915  2.0690
   98SOL  OW     292   1.001   2.288   1.853  0.0488 -0.2005  0.0331
   98SOL  HW1    293   0.983   2.190   1.822 -0.5208 -0.7295 -0.1744
   98SOL  HW2    294   0.963   2.308   1.948  0.2983  2.1522 -0.9191
   99SOL  OW     295   0.741   0.597   1.888  0.4845  0.0263  0.2125
   99SOL  HW1    296   0.802   0.676   1.868 -0.1390  1.6847  1.8307
   99SOL  HW2    297   0.670   0.604   1.818 -0.5436 -0.1679  1.3324
  100SOL  OW     298   2.964   1.852   2.255 -0.2614  0.3399 -0.8226
  100SOL  HW1    299   2.953   1.952   2.235 -3.0484 -0.5622  0.2530
  100SOL  HW2    300   2.998   1.836   2.349 -0.1918  0.2416  1.7997
  101SOL  OW     301   0.457   0.397   2.959  0.1567 -0.1151  0.3459
  101SOL  HW1    302   0.476   0.307   3.009  1.1060  1.8624  1.9122
  101SOL  HW2    303   0.535   0.425   2.899 -1.1386 -2.6520  0.1273
  102SOL  OW     304   0.365   0.538   0.716 -0.7903  0.0409 -0.2013
  102SOL  HW1    305   0.327   0.477   0.789 -1.1674 -1.5164  1.5075
  102SOL  HW2    306   0.464   0.538   0.727 -4.0050  0.3532 -2.0706
  103SOL  OW     307   2.393   0.002   2.266 -0.6171  0.4017  0.5038
  103SOL  HW1    308   2.344   0.088   2.238 -1.9338  0.7872  1.3116
  103SOL  HW2    309   2.412   3.034   2.190  0.5066 -0.8200  2.5956
  104SOL  OW     310   0.134   2.815   1.707  0.1500  0.7214  0.6682
  104SOL  HW1    311   0.156   2.764   1.793  2.4714  0.8029 -0.7977
  104SOL  HW2    312   0.140   2.746   1.634  1.8768  0.2838 -0.2850
  105SOL  OW     313   0.700   2.418   2.451 -0.8280  0.0644  0.0267
  105SOL  HW1    314   0.673   2.472   2.367  0.5780  0.3945  2.4088
  105SOL  HW2    315   0.685   2.317   2.438 -3.5915 -1.1346  1.8070
  106SOL  OW     316   2.855   2.733   0.479  0.4621  0.9341 -0.2176
  106SOL  HW1    317   2.780   2.707   0.419  2.9803  2.0106 -2.0444
  106SOL  HW2    318   2.929   2.660   0.488 -0.8525 -0.2441  1.8214
  107SOL  OW     319   0.836   1.253   1.615  0.1694 -0.3203  0.2207
  107SOL  HW1    320   0.927   1.206   1.609  1.1314 -0.5960  0.3838
  107SOL  HW2    321   0.857   1.338   1.665  1.6825 -1.3112  0.6594
  108SOL  OW     322   2.237   1.434   1.944 -0.2067  0.9609 -0.5360
  108SOL  HW1    323   2.173   1.385   2.006 -1.4407  1.3809  1.3106
  108SOL  HW2    324   2.232   1.533   1.961 -3.4778  1.9006  0.1767
  109SOL  OW     325   1.823   2.474   0.024  0.5937  0.1701  0.0116
  109SOL  HW1    326   1.732   2.426   0.034  1.6906 -0.8784  0.0329
  109SOL  HW2    327   1.879   2.434   3.046  0.6542 -1.7149  0.0496
  110SOL  OW     328   0.107   2.229   0.953  0.1057  0.4274  0.3311
  110SOL  HW1    329   0.094   2.275   0.865 -0.0702 -0.9398 -0.2499
  110SOL  HW2    330   0.114   2.290   1.034  1.1473 -2.7074  1.2731
  111SOL  OW     331   2.912   1.159   2.700  0.1068 -0.2560  0.3082
  111SOL  HW1    332   2.830   1.198   2.747 -0.4248 -1.4646 -0.3309
  111SOL  HW2    333   2.891   1.064   2.658  1.4964  0.0286  1.3123
  112SOL  OW     334   0.115   2.971   1.295 -0.1529 -0.2596  0.4575
  112SOL  HW1    335   0.110   3.056   1.238  0.5549  0.1027  5.5798
  112SOL  HW2    336   0.099   2.982   1.397 -1.8883  0.1777 -2.1409
  113SOL  OW     337   3.002   2.342   0.041  0.0922 -0.5818  0.5091
  113SOL  HW1    338   3.016   2.432   0.086  0.4510 -2.4536 -0.3639
  113SOL  HW2    339   3.001   2.265   0.107  3.6067 -2.3379 -0.4018
  114SOL  OW     340   0.862   0.355   1.859 -0.2568  0.4318  0.0074
  114SOL  HW1    341   0.807   0.442   1.862 -2.1855 -0.0405  1.1918
  114SOL  HW2    342   0.917   0.336   1.775 -3.3263 -1.1499  1.6549
  115SOL  OW     343   0.637   1.584   2.594  0.6943 -0.1469 -0.0160
  115SOL  HW1    344   0.718   1.644   2.608  1.0990 -0.1371 -0.1990
  115SOL  HW2    345   0.666   1.483   2.579  0.3788  2.3604 -1.9708
  116SOL  OW     346   2.426   0.866   1.609 -0.5827 -0.0534  0.3292
  116SOL  HW1    347   2.474   0.908   1.523 -1.7140 -1.1114  0.9673
  116SOL  HW2    348   2.495   0.808   1.663  0.5000  2.5560  0.4718
  117SOL  OW     349   2.390   0.393   0.901  0.3399  0.1772  0.2586
  117SOL  HW1    350   2.480   0.440   0.919 -2.5685 -0.7983  0.1471
  117SOL  HW2    351   2.313   0.461   0.900  0.1097 -0.1611  0.3084
  118SOL  OW     352   2.600   2.299   1.628 -0.0922  0.4039  0.7045
  118SOL  HW1    353   2.501   2.324   1.634 -2.5107 -0.1504 -1.9972
  118SOL  HW2    354   2.658   2.305   1.709  2.8652  0.8690 -2.4544
  119SOL  OW     355   0.049   1.892   2.010 -0.8235 -0.6142 -0.3518
  119SOL  HW1    356   0.001   1.859   2.093  0.7744  0.4434  0.3925
  119SOL  HW2    357   0.149   1.902   2.019  0.0144  0.2480 -1.9661
  120SOL  OW     358   0.671   2.213   1.999 -0.4634  0.1226 -0.3998
  120SOL  HW1    359   0.668   2.187   1.901  1.5054 -0.9218  0.4517
  120SOL  HW2    360   0.680   2.134   2.058  2.2231 -2.0672  2.1225
  121SOL  OW     361   1.219   1.058   1.262 -0.1385  1.1402  0.1907
  121SOL  HW1    362   1.303   1.117   1.258 -0.8503  0.3099  2.5343
  121SOL  HW2    363   1.242   0.968   1.302  0.5888 -2.2794 -5.8948
  122SOL  OW     364   3.040   1.696   0.352 -0.0789  0.5600  0.5660
  122SOL  HW1    365   0.023   1.757   0.327 -1.7486  0.5183  2.8736
  122SOL  HW2    366   2.954   1.715   0.303  2.4911 -0.1029  1.9317
  123SOL  OW     367   0.522   0.313   2.603 -0.0865  0.0320 -0.2143
  123SOL  HW1    368   0.482   0.405   2.617 -0.4373 -2.3408 -2.0247
  123SOL  HW2    369   0.622   0.305   2.582 -0.4671 -0.0557 -1.2220
  124SOL  OW     370   2.205   1.123   2.531  0.0779  0.2730  0.0616
  124SOL  HW1    371   2.251   1.109   2.621 -0.1682  1.6727 -0.0730
  124SOL  HW2    372   2.281   1.151   2.467  2.1107  0.3983 -1.9120
  125SOL  OW     373   0.647   0.648   2.394 -0.0220  0.0112  0.2570
  125SOL  HW1    374   0.733   0.595   2.414 -0.2506 -0.1990  0.8652
  125SOL  HW2    375   0.622   0.647   2.295  1.4840  0.3676  0.4537
  126SOL  OW     376   2.926   2.776   0.119  0.5047 -0.8967  0.0158
  126SOL  HW1    377   2.945   2.830   0.201  2.5138  2.5733  1.6315
  126SOL  HW2    378   2.982   2.812   0.039  0.9111  2.1381 -2.5005
  127SOL  OW     379   3.059   1.583   2.792  0.3981  0.2235 -0.0402
  127SOL  HW1    380   3.025   1.532   2.877  0.9088 -0.2132 -0.4680
  127SOL  HW2    381   3.094   1.516   2.723  1.1292 -0.7268 -0.9573
  128SOL  OW     382   1.595   1.496   0.175 -0.0350 -0.0681 -0.1680
  128SOL  HW1    383   1.602   1.554   0.258 -0.6889  0.0436  3.6257
  128SOL  HW2    384   1.610   1.559   0.089 -0.6983  1.8407  0.6345
  129SOL  OW     385   1.493   1.611   0.730 -0.0963 -0.3346  0.0269
  129SOL  HW1    386   1.488   1.687   0.660  1.3485 -1.6104  1.0417
  129SOL  HW2    387   1.588   1.582   0.735 -1.4104 -1.4184 -0.7109
  130SOL  OW     388   1.733   0.475   2.672 -0.3453  0.2815 -0.2592
  130SOL  HW1    389   1.722   0.415   2.584  0.4065 -1.9644  1.0623
  130SOL  HW2    390   1.690   0.566   2.659  0.0263  0.3492  2.6235
  131SOL  OW     391   0.161   1.279   3.049 -0.6676 -0.7529 -0.1651
  131SOL  HW1    392   0.225   1.335   2.997 -2.3463  1.1116  0.8766
  131SOL  HW2    393   0.080   1.267   2.989 -0.4030 -2.2566  0.8302
  132SOL  OW     394   0.586   1.223   1.214 -0.9200  0.2406  0.2152
  132SOL  HW1    395   0.490   1.239   1.182  2.1659 -0.6710  0.8927
  132SOL  HW2    396   0.600   1.141   1.273 -1.1487 -1.8467 -1.2190
  133SOL  OW     397   0.257   1.853   1.617  0.0911 -0.5821 -0.0976
  133SOL  HW1    398   0.286   1.871   1.519  1.2144 -2.2091  0.9710
  133SOL  HW2    399   0.168   1.804   1.615 -1.3411 -0.7605 -0.8689
  134SOL  OW     400   0.251   1.171   0.540  0.7221  0.2092  0.1573
  134SOL  HW1    401   0.246   1.244   0.464 -0.9287 -0.1167 -1.1089
  134SOL  HW2    402   0.278   1.217   0.627  0.9645 -2.7521 -1.0685
  135SOL  OW     403   1.408   0.436   2.753 -0.0799 -0.2980 -0.3411
  135SOL  HW1    404   1.477   0.364   2.776  1.5644 -1.4948  2.8217
  135SOL  HW2    405   1.452   0.529   2.731  0.0173 -1.5694  2.0837
  136SOL  OW     406   1.687   2.750   1.681 -0.0223  0.1772 -0.4702
  136SOL  HW1    407   1.709   2.662   1.628  0.0021 -0.4327 -1.3000
  136SOL  HW2    408   1.675   2.735   1.777  2.8420  0.0758  0.6881
  137SOL  OW     409   2.421   2.745   0.943  0.5996  0.1894  0.0012
  137SOL  HW1    410   2.498   2.698   0.891  0.6359  1.0949  1.8443
  137SOL  HW2    411   2.350   2.792   0.890 -1.2408 -1.1694 -1.1033
  138SOL  OW     412   1.899   0.373   1.193 -0.2388 -0.1780  0.0827
  138SOL  HW1    413   1.891   0.442   1.270  1.4536  1.1216 -1.6396
  138SOL  HW2    414   1.984   0.402   1.141 -0.4451  1.2256  0.1387
  139SOL  OW     415   2.246   2.826   0.160  0.0884 -0.0132 -0.2631
  139SOL  HW1    416   2.209   2.918   0.126  2.2199  2.8522 -1.5554
  139SOL  HW2    417   2.244   2.762   0.079  1.4617  1.0682 -1.0572
  140SOL  OW     418   2.789   2.617   2.675  0.0802  0.0279 -0.2323
  140SOL  HW1    419   2.819   2.583   2.585  0.5125  0.2191  1.3950
  140SOL  HW2    420   2.751   2.549   2.741  0.0606  1.9927  1.7879
  141SOL  OW     421   1.532   1.271   2.510 -0.0817 -0.6699  0.1018
  141SOL  HW1    422   1.534   1.335   2.588  1.7421 -0.3463 -0.3843
  141SOL  HW2    423   1.611   1.282   2.450  0.2356  2.3679  1.2665
  142SOL  OW     424   1.787   1.865   1.895 -0.2871  0.3545  0.1399
  142SOL  HW1    425   1.706   1.840   1.838  1.9657  1.9964  1.2777
  142SOL  HW2    426   1.775   1.961   1.940 -2.7178  1.1875  0.8401
  143SOL  OW     427   0.817   2.560   0.330  0.0213  0.2351  0.5973
  143SOL  HW1    428   0.734   2.551   0.269  1.0212 -0.1264 -1.2658
  143SOL  HW2    429   0.813   2.478   0.395  1.9258  1.9198 -1.4913
  144SOL  OW     430   1.070   0.032   0.397  0.2784 -0.0316 -0.0288
  144SOL  HW1    431   1.096   3.035   0.377 -0.8938  0.1628  0.7554
  144SOL  HW2    432   1.095   0.051   0.493 -0.7424 -1.1083  0.0556
  145SOL  OW     433   1.973   2.091   0.121 -0.1766 -0.1018  1.3853
  145SOL  HW1    434   1.990   2.153   0.204 -1.5225  0.0035 -2.7649
  145SOL  HW2    435   2.008   2.139   0.037  0.1102 -0.6476 -1.2942
  146SOL  OW     436   2.209   1.396   2.888  0.1007  0.0648  0.2512
  146SOL  HW1    437   2.222   1.294   2.888 -0.8221 -0.0185  2.6810
  146SOL  HW2    438   2.275   1.449   2.948  2.3322 -0.7838  1.0333
  147SOL  OW     439   0.738   1.121   1.988  0.6761  0.3190 -0.2389
  147SOL  HW1    440   0.692   1.039   2.022  0.8531 -0.2867 -1.4742
  147SOL  HW2    441   0.832   1.107   1.965 -1.1924  1.2720 -1.7612
  148SOL  OW     442   1.105   2.565   0.319 -0.2723 -0.1722  0.9165
  148SOL  HW1    443   1.144   2.480   0.354 -1.0353  0.2096  2.5482
  148SOL  HW2    444   1.000   2.561   0.317  3.5449  0.2539  0.1831
  149SOL  OW     445   0.338   2.077   0.686 -0.0326  0.5036  0.2328
  149SOL  HW1    446   0.366   2.081   0.782  1.3873  0.6201  1.4358
  149SOL  HW2    447   0.419   2.071   0.623  0.6563  0.8242  0.6074
  150SOL  OW     448   0.637   2.537   1.494  0.7442  0.2122 -0.4019
  150SOL  HW1    449   0.582   2.489   1.569  0.0783  0.1475 -1.3900
  150SOL  HW2    450   0.716   2.479   1.474  1.6272 -0.1895  0.2875
  151SOL  OW     451   2.861   0.362   0.251  0.0142 -0.3589 -0.3127
  151SOL  HW1    452   2.769   0.395   0.222 -1.4285 -0.3910 -3.7177
  151SOL  HW2    453   2.932   0.369   0.179  0.0451  0.2050 -0.8234
  152SOL  OW     454   0.027   1.505   0.169 -0.2206  0.4604 -0.1038
  152SOL  HW1    455   3.077   1.579   0.220 -1.2920 -2.3907  1.9398
  152SOL  HW2    456   0.068   1.431   0.231  1.7657 -0.1784  2.0324
  153SOL  OW     457   0.751   2.619   1.155  0.1895 -0.1839  0.3852
  153SOL  HW1    458   0.660   2.640   1.196 -2.3551  0.8018 -1.8027
  153SOL  HW2    459   0.752   2.522   1.132 -1.2296 -0.6885  2.0612
  154SOL  OW     460   1.252   2.637   1.122  0.3194  0.0588  0.4072
  154SOL  HW1    461   1.323   2.592   1.184 -3.3376 -0.0961  0.5229
  154SOL  HW2    462   1.265   2.604   1.024 -0.3487  0.7968  3.8142
  155SOL  OW     463   2.721   2.655   0.008  0.2443  0.7351 -0.1771
  155SOL  HW1    464   2.713   2.561   0.050  0.5237 -1.4101  1.4970
  155SOL  HW2    465   2.795   2.707   0.051  0.3330  2.1949  3.0480
  156SOL  OW     466   2.235   2.459   0.393 -0.2309 -0.3368 -0.0170
  156SOL  HW1    467   2.192   2.535   0.340 -0.2892  1.3231 -0.6236
  156SOL  HW2    468   2.201   2.369   0.361 -2.2780  0.4991 -0.6679
  157SOL  OW     469   0.300   0.619   2.143  0.4811 -0.2209  0.1383
  157SOL  HW1    470   0.282   0.691   2.215 -0.4785  2.4555  0.2459
  157SOL  HW2    471   0.255   0.642   2.058  1.5624 -0.6739 -1.9192
  158SOL  OW     472   1.390   0.658   1.122  0.5802  0.5721  0.1029
  158SOL  HW1    473   1.338   0.595   1.063 -2.4368 -1.2184 -0.0406
  158SOL  HW2    474   1.452   0.720   1.069 -1.7942 -0.8258 -1.1943
  159SOL  OW     475   1.834   1.230   2.752  0.2139  0.1419 -0.3691
  159SOL  HW1    476   1.748   1.241   2.804  1.2196  0.3791 -2.0103
  159SOL  HW2    477   1.889   1.165   2.801 -0.6579 -1.9748  2.9014
  160SOL  OW     478   0.871   1.110   2.501  0.0458  0.6145  0.0187
  160SOL  HW1    479   0.812   1.033   2.543  1.4173  1.1788 -0.9838
  160SOL  HW2    480   0.934   1.080   2.430  1.1907  1.6113 -0.2688
  161SOL  OW     481   2.905   1.987   0.187  0.4963 -0.1188 -0.1312
  161SOL  HW1    482   2.996   2.014   0.158 -2.5594  0.3918 -2.1795
  161SOL  HW2    483   2.839   1.998   0.110  0.3434  0.6978 -0.8553
  162SOL  OW     484   2.900   2.154   1.094  0.0640 -0.1155 -0.2424
  162SOL  HW1    485   2.926   2.136   1.188  0.4052 -0.1298  0.9505
  162SOL  HW2    486   2.867   2.246   1.089 -1.3356  0.3237 -0.5539
  163SOL  OW     487   0.093   2.397   2.940  0.1988  0.9659 -0.8101
  163SOL  HW1    488   0.068   2.443   2.852  1.6774 -2.4729 -1.4890
  163SOL  HW2    489   0.013   2.389   2.997  0.7655  0.5441 -0.3000
  164SOL  OW     490   2.644   0.049   2.348 -0.1181 -0.0044 -0.2170
  164SOL  HW1    491   2.659   0.147   2.381  1.3044 -2.1703  1.1614
  164SOL  HW2    492   2.546   0.032   2.334 -0.9507  2.1406 -0.6950
  165SOL  OW     493   2.366   1.280   1.014  0.2303  0.0875  0.3559
  165SOL  HW1    494   2.304   1.360   0.999  1.5054 -0.0272  1.2751
  165SOL  HW2    495   2.399   1.284   1.112  0.6260 -1.4202 -0.0711
  166SOL  OW     496   1.947   1.849   0.945 -0.4927  0.1142  0.1147
  166SOL  HW1    497   1.906   1.771   0.993 -0.2015 -0.7196  0.1906
  166SOL  HW2    498   1.970   1.823   0.848 -0.2218  2.9076  1.6562
  167SOL  OW     499   2.538   1.494   2.714 -0.2220 -1.0909 -0.1934
  167SOL  HW1    500   2.565   1.567   2.782  0.8373  3.0352  0.2814
  167SOL  HW2    501   2.439   1.503   2.689  1.8351  0.3087  1.4214
  168SOL  OW     502   2.784   0.725   2.737 -0.0589  0.3497 -0.4776
  168SOL  HW1    503   2.769   0.765   2.829  2.5422 -1.7931  0.0564
  168SOL  HW2    504   2.854   0.646   2.744 -3.9637 -0.1599  0.0544
  169SOL  OW     505   0.782   1.401   2.850  0.4305  0.4595 -0.2254
  169SOL  HW1    506   0.750   1.364   2.761  2.6811 -0.6059  0.6934
  169SOL  HW2    507   0.861   1.458   2.837 -0.6985 -0.2324 -0.3853
  170SOL  OW     508   0.049   1.032   2.309 -0.0293 -0.4860 -0.3534
  170SOL  HW1    509   0.155   1.030   2.293  0.0282 -0.0528  0.3788
  170SOL  HW2    510   0.009   0.940   2.328 -0.0668 -0.9473  0.1321
  171SOL  OW     511   2.087   2.684   0.327  0.2945  0.8539 -0.6198
  171SOL  HW1    512   2.146   2.741   0.265  1.4994  0.2791 -0.3450
  171SOL  HW2    513   2.045   2.738   0.401 -2.2170  1.8772  1.1401
  172SOL  OW     514   1.193   0.483   2.555  0.0251 -0.0884 -0.4074
  172SOL  HW1    515   1.126   0.544   2.607  0.8091 -1.6676 -0.7557
  172SOL  HW2    516   1.259   0.452   2.626 -2.2622  0.2526  2.9991
  173SOL  OW     517   0.627   2.959   1.269 -0.1161  0.4524  0.2898
  173SOL  HW1    518   0.716   2.978   1.219  0.7342  1.1116 -0.6512
  173SOL  HW2    519   0.639   2.880   1.334 -0.3111 -1.0807  0.0559
  174SOL  OW     520   2.287   2.626   0.609 -0.3571  0.2731 -0.2295
  174SOL  HW1    521   2.286   2.561   0.529  1.0843  1.3745  0.3030
  174SOL  HW2    522   2.356   2.697   0.581  2.6474 -0.1182 -0.9070
  175SOL  OW     523   0.633   1.349   1.445  0.1091 -0.5270  0.2633
  175SOL  HW1    524   0.706   1.323   1.509 -0.3925 -1.5686  1.2958
  175SOL  HW2    525   0.652   1.304   1.351  2.5742  0.6364 -1.5661
  176SOL  OW     526   0.429   1.834   0.925 -0.0806 -0.2936 -0.1274
  176SOL  HW1    527   0.335   1.822   0.899  1.6211  1.1606 -0.8062
  176SOL  HW2    528   0.467   1.928   0.919 -0.4075  1.4825 -1.4837
  177SOL  OW     529   0.544   1.466   0.604  0.2510 -0.0845  0.1801
  177SOL  HW1    530   0.597   1.427   0.524 -2.9123 -0.0596 -0.7465
  177SOL  HW2    531   0.449   1.460   0.580  2.2315 -2.5941 -1.3658
  178SOL  OW     532   2.491   1.790   0.574 -0.4435 -0.0303 -0.1803
  178SOL  HW1    533   2.484   1.763   0.475 -0.4620  0.6196  0.7885
  178SOL  HW2    534   2.591   1.793   0.602  0.5982  0.3823 -1.3847
  179SOL  OW     535   0.866   2.811   0.375 -0.4320  0.0439 -0.5553
  179SOL  HW1    536   0.827   2.874   0.305 -3.6247 -1.3499  1.4297
  179SOL  HW2    537   0.834   2.717   0.353  4.7847 -1.8477 -0.3928
  180SOL  OW     538   1.125   0.161   1.351 -0.2860  0.2523 -0.3277
  180SOL  HW1    539   1.117   0.057   1.334 -0.4328  0.9488 -0.2256
  180SOL  HW2    540   1.213   0.185   1.398 -0.0431 -2.8379  3.2305
  181SOL  OW     541   1.191   0.692   2.096  0.2180 -0.3002  0.0209
  181SOL  HW1    542   1.210   0.722   2.000  0.2819 -0.3417  2.2420
  181SOL  HW2    543   1.097   0.725   2.124 -1.5018  0.0501 -0.7460
  182SOL  OW     544   2.658   1.242   2.761 -0.1783  0.3582 -0.4855
  182SOL  HW1    545   2.614   1.333   2.751  1.2818 -0.9615  0.4444
  182SOL  HW2    546   2.610   1.185   2.689 -0.6439  2.1628 -2.3544
  183SOL  OW     547   2.081   0.083   1.937 -0.1969 -0.3200  0.3940
  183SOL  HW1    548   2.089   0.011   2.011 -1.0039 -0.4172 -1.6217
  183SOL  HW2    549   2.133   0.169   1.961  1.6457  0.7322 -1.0393
  184SOL  OW     550   0.668   0.710   0.906 -0.4830  0.0408  0.5256
  184SOL  HW1    551   0.588   0.777   0.900  0.4170  0.2659 -0.2949
  184SOL  HW2    552   0.734   0.738   0.832 -0.3594 -0.7893 -0.6304
  185SOL  OW     553   2.232   0.922   0.139 -0.1219  0.2534 -0.2235
  185SOL  HW1    554   2.187   0.874   0.216 -1.1502 -1.5351 -1.1409
  185SOL  HW2    555   2.208   1.022   0.152 -0.2963 -1.0562  2.4765
  186SOL  OW     556   0.387   2.871   0.584 -0.3955 -0.0939  0.7152
  186SOL  HW1    557   0.428   2.955   0.552 -2.9436 -1.6584  1.1768
  186SOL  HW2    558   0.460   2.796   0.595 -1.2012 -0.9033 -1.3672
  187SOL  OW     559   1.716   1.902   2.194 -0.3315  0.0935  0.0974
  187SOL  HW1    560   1.730   1.992   2.146  1.0980  0.9825  0.2103
  187SOL  HW2    561   1.781   1.896   2.272 -1.0634  0.1957 -1.1849
  188SOL  OW     562   0.777   2.352   1.166  0.7175 -0.0484  0.4165
  188SOL  HW1    563   0.816   2.371   1.257 -1.1005  0.2583  1.8057
  188SOL  HW2    564   0.836   2.285   1.123 -0.6967 -0.5841 -1.7494
  189SOL  OW     565   1.924   1.076   0.403 -0.1685  0.2282 -0.2444
  189SOL  HW1    566   1.979   1.086   0.486 -0.1984 -2.8499 -0.8455
  189SOL  HW2    567   1.952   1.140   0.333 -1.8893 -2.7866  0.0390
  190SOL  OW     568   1.108   2.850   2.180 -0.6894  0.6452 -0.0540
  190SOL  HW1    569   1.154   2.798   2.109  3.0240  0.9637 -1.2807
  190SOL  HW2    570   1.177   2.878   2.251  0.7990  1.3087  2.0854
  191SOL  OW     571   2.881   0.531   1.545 -0.2375  0.2011 -0.1080
  191SOL  HW1    572   2.866   0.436   1.511  0.1463  0.1645  0.1989
  191SOL  HW2    573   2.827   0.606   1.497  1.8768  0.3617 -2.0348
  192SOL  OW     574   1.764   0.530   0.991 -0.1228  0.1192 -0.7641
  192SOL  HW1    575   1.713   0.456   0.944  2.0298  0.4737  0.6191
  192SOL  HW2    576   1.797   0.493   1.080 -0.7636 -1.0382 -0.9658
  193SOL  OW     577   1.298   0.394   1.101 -0.1407 -0.5325 -0.3451
  193SOL  HW1    578   1.250   0.306   1.080 -1.6087 -1.2487  0.7205
  193SOL  HW2    579   1.393   0.380   1.141 -0.4626  3.5875  0.4414
  194SOL  OW     580   1.217   1.844   0.488  0.6492  0.3340 -0.0986
  194SOL  HW1    581   1.191   1.810   0.580 -3.3376 -2.6798  0.6531
  194SOL  HW2    582   1.184   1.939   0.478 -0.9086 -1.8101  0.8626
  195SOL  OW     583   2.809   0.661   0.964 -0.3728  0.2402  0.2218
  195SOL  HW1    584   2.839   0.658   1.060  0.0925  1.6027 -1.1910
  195SOL  HW2    585   2.714   0.620   0.955  0.7530 -2.2046 -1.3814
  196SOL  OW     586   0.587   2.531   2.216 -0.1390  0.0746 -0.1556
  196SOL  HW1    587   0.682   2.544   2.175 -0.7827  2.3434 -1.3700
  196SOL  HW2    588   0.526   2.475   2.156  2.4536  0.5591 -1.9336
  197SOL  OW     589   2.175   0.344   2.646  0.2611  0.5918 -0.4573
  197SOL  HW1    590   2.147   0.346   2.545  0.1879 -1.0388  2.2316
  197SOL  HW2    591   2.150   0.257   2.694  0.8411  0.5914 -0.2487
  198SOL  OW     592   1.786   0.786   0.698  0.1722  0.4555 -0.0351
  198SOL  HW1    593   1.809   0.785   0.798  2.7859 -1.1222  1.6728
  198SOL  HW2    594   1.775   0.881   0.667  0.4788 -0.1429  3.3156
  199SOL  OW     595   2.702   0.680   1.412 -0.4871 -0.4441  0.3548
  199SOL  HW1    596   2.629   0.607   1.413  1.5853 -1.9079  0.4680
  199SOL  HW2    597   2.656   0.772   1.399  0.9285 -1.4795  1.7680
  200SOL  OW     598   1.192   2.839   2.656  0.1775  0.0088  0.0317
  200SOL  HW1    599   1.102   2.872   2.700 -0.1148 -0.1900  3.8783
  200SOL  HW2    600   1.269   2.870   2.712 -0.0047 -1.0620  2.1457
  201SOL  OW     601   2.164   2.926   1.178 -0.5495 -0.6570 -0.0699
  201SOL  HW1    602   2.264   2.928   1.157 -1.1763 -1.0165  0.9379
  201SOL  HW2    603   2.149   2.960   1.272  0.4896  0.1017 -5.2848
  202SOL  OW     604   2.660   0.465   0.630  0.3382  0.2562  0.6488
  202SOL  HW1    605   2.750   0.475   0.577 -2.8912  1.0734  0.6654
  202SOL  HW2    606   2.673   0.397   0.705  2.6158 -1.3447 -1.4008
  203SOL  OW     607   0.578   1.706   2.836 -0.3281  0.4710  0.4271
  203SOL  HW1    608   0.566   1.629   2.770 -2.0390  0.1777 -0.5215
  203SOL  HW2    609   0.677   1.732   2.848  0.2779  1.1891  3.7803
  204SOL  OW     610   0.062   1.684   1.838 -1.0306  0.1685 -0.3006
  204SOL  HW1    611   0.127   1.612   1.876  3.5390 -0.7797 -0.0123
  204SOL  HW2    612   0.061   1.769   1.895  1.3768 -0.0202  1.9779
  205SOL  OW     613   0.288   0.797   0.701  0.8629  0.4609 -0.6242
  205SOL  HW1    614   0.317   0.710   0.748 -0.5890  1.0321  1.3764
  205SOL  HW2    615   0.188   0.798   0.682  1.4047  3.4554 -0.3589
  206SOL  OW     616   0.604   2.001   0.027 -0.4394 -0.0616  0.2938
  206SOL  HW1    617   0.561   1.905   0.034 -0.3760  2.0811 -2.4158
  206SOL  HW2    618   0.701   1.997   0.002  0.8696 -1.0783 -2.3954
  207SOL  OW     619   1.058   2.795   1.714  0.3908  1.2906 -0.1786
  207SOL  HW1    620   1.151   2.751   1.711 -1.3377  0.3669 -0.0432
  207SOL  HW2    621   1.004   2.781   1.626 -1.0503 -0.5707 -2.5662
  208SOL  OW     622   1.842   2.827   1.395  0.7771  0.5427  0.8123
  208SOL  HW1    623   1.750   2.818   1.356 -1.2063  1.5053 -0.6961
  208SOL  HW2    624   1.861   2.924   1.421 -0.1774 -0.8937 -0.9550
  209SOL  OW     625   1.364   0.671   1.549  0.4340  0.5071 -0.5192
  209SOL  HW1    626   1.461   0.644   1.575  2.3062  1.6174 -0.1217
  209SOL  HW2    627   1.296   0.595   1.571 -0.0317  1.1091  0.3711
  210SOL  OW     628   1.152   0.913   0.464  0.3068  0.4724 -0.0258
  210SOL  HW1    629   1.160   0.812   0.483  0.4525 -2.2533  0.9609
  210SOL  HW2    630   1.244   0.956   0.472  0.8187  0.8334  0.6688
  211SOL  OW     631   0.914   2.770   2.328 -0.4075 -0.7484  0.1348
  211SOL  HW1    632   0.988   2.810   2.267 -0.5768 -0.2909  0.8969
  211SOL  HW2    633   0.860   2.853   2.360  1.4713 -0.0301  1.1950
  212SOL  OW     634   1.093   1.468   0.818 -0.3743  0.1765  0.7081
  212SOL  HW1    635   1.010   1.521   0.801  0.7725  0.7869 -0.3624
  212SOL  HW2    636   1.074   1.399   0.895 -1.1021  2.4596 -2.0449
  213SOL  OW     637   2.618   0.118   0.491 -0.2229 -0.0217  0.0252
  213SOL  HW1    638   2.590   0.057   0.565  1.9836 -1.0511 -1.5005
  213SOL  HW2    639   2.552   0.119   0.417  0.6566 -0.8319 -0.3366
  214SOL  OW     640   1.565   1.816   1.711 -0.0159 -0.2972 -0.5521
  214SOL  HW1    641   1.545   1.842   1.615 -3.8030  3.3256 -0.1248
  214SOL  HW2    642   1.553   1.715   1.727  2.0059 -0.3671 -0.7373
  215SOL  OW     643   2.805   1.384   1.276 -0.9824 -0.2032 -0.3013
  215SOL  HW1    644   2.892   1.422   1.305  0.0717 -1.7305  1.5554
  215SOL  HW2    645   2.764   1.445   1.203 -1.9028 -1.0951 -0.3584
  216SOL  OW     646   2.937   0.144   2.803 -0.6508  0.1512 -0.4451
  216SOL  HW1    647   2.990   0.158   2.716 -0.0944 -2.6413 -1.9789
  216SOL  HW2    648   2.906   0.233   2.849 -0.5338  0.2669  0.9827
  217SOL  OW     649   2.697   1.686   1.641  0.4848  0.2874 -0.0942
  217SOL  HW1    650   2.689   1.584   1.650  0.0171  1.4984 -1.4856
  217SOL  HW2    651   2.674   1.709   1.542  0.1197  0.7814  0.1675
  218SOL  OW     652   0.720   2.708   2.745 -0.3829 -0.8744  0.0451
  218SOL  HW1    653   0.738   2.803   2.721 -1.0750  1.3856  0.6984
  218SOL  HW2    654   0.807   2.656   2.750  1.3603 -0.5438 -0.1326
  219SOL  OW     655   2.626   2.140   2.766  0.1356  0.6542  0.0969
  219SOL  HW1    656   2.565   2.215   2.731 -0.1327 -1.6161  1.0336
  219SOL  HW2    657   2.686   2.173   2.837 -0.3970  2.7388  1.1298
  220SOL  OW     658   1.312   2.221   0.036 -0.3924  0.1996 -0.3521
  220SOL  HW1    659   1.220   2.240   0.078  0.5142  2.3906 -0.2602
  220SOL  HW2    660   1.306   2.239   3.027 -0.9429  1.7528 -1.1393
  221SOL  OW     661   2.453   1.240   0.668  0.3071 -0.2826  0.3571
  221SOL  HW1    662   2.408   1.323   0.713 -0.2926 -1.2061  1.5338
  221SOL  HW2    663   2.383   1.191   0.614 -1.8779  0.2086  0.5749
  222SOL  OW     664   1.702   0.942   0.344 -0.3946  0.0848 -0.2235
  222SOL  HW1    665   1.663   0.975   0.254 -4.5414  1.3724 -1.6292
  222SOL  HW2    666   1.781   1.007   0.363 -2.3641 -1.4858 -1.3872
  223SOL  OW     667   0.184   0.745   1.891 -0.2392  0.7445 -0.3874
  223SOL  HW1    668   0.108   0.797   1.846  0.8384  1.5319 -0.3042
  223SOL  HW2    669   0.276   0.787   1.885 -1.0946 -0.3350  3.3263
  224SOL  OW     670   1.214   2.951   0.792 -0.9824 -0.5383  0.0112
  224SOL  HW1    671   1.179   3.030   0.737 -0.3269  0.8928 -0.0715
  224SOL  HW2    672   1.263   2.983   0.875  1.0307 -1.8995  0.4351
  225SOL  OW     673   0.894   0.533   2.428 -0.2146 -0.3971 -0.0638
  225SOL  HW1    674   0.955   0.455   2.409 -0.0804  0.3255 -1.0682
  225SOL  HW2    675   0.893   0.565   2.526 -1.3366 -0.3342  1.8706
  226SOL  OW     676   1.131   0.948   0.832  0.4829 -0.0174 -0.6150
  226SOL  HW1    677   1.113   0.848   0.815 -0.9015 -0.6689  2.5874
  226SOL  HW2    678   1.095   0.980   0.922  0.4624 -1.3017  1.7192
  227SOL  OW     679   0.598   2.143   1.732  0.3898  0.3951  0.5872
  227SOL  HW1    680   0.591   2.243   1.723  2.4433 -0.4843 -0.3272
  227SOL  HW2    681   0.629   2.096   1.647 -2.1944 -1.6824 -2.6289
  228SOL  OW     682   0.163   1.839   0.215 -0.5887 -0.3001  0.3833
  228SOL  HW1    683   0.222   1.847   0.297 -2.1456  0.1364 -0.6459
  228SOL  HW2    684   0.211   1.779   0.148  0.8811 -2.3552  0.0029
  229SOL  OW     685   2.314   0.472   2.932 -0.0162 -0.2147 -0.5386
  229SOL  HW1    686   2.308   0.568   2.962 -1.3544 -0.7036  1.0960
  229SOL  HW2    687   2.256   0.450   2.854 -1.4532 -4.1022  1.0850
  230SOL  OW     688   2.753   0.957   0.545  0.3177 -0.3388  0.3173
  230SOL  HW1    689   2.798   1.034   0.592  1.7068  1.0927 -1.2478
  230SOL  HW2    690   2.807   0.913   0.472 -1.5917  1.4411  1.8204
  231SOL  OW     691   1.414   0.995   0.424  0.1162 -0.8137  0.3153
  231SOL  HW1    692   1.415   1.091   0.464  0.1879 -0.7855 -0.5297
  231SOL  HW2    693   1.508   0.957   0.427  2.0178 -0.7686  1.1184
  232SOL  OW     694   1.505   1.579   1.443 -0.3447  0.0077 -0.2627
  232SOL  HW1    695   1.451   1.537   1.368  0.0065 -1.0121  2.1644
  232SOL  HW2    696   1.497   1.522   1.529  0.4596  1.7898  0.9296
  233SOL  OW     697   0.423   0.279   2.064 -0.1709 -0.2668  0.5154
  233SOL  HW1    698   0.429   0.273   2.164  2.6852 -0.4618  1.3925
  233SOL  HW2    699   0.511   0.242   2.020 -2.6377  0.1641  0.2140
  234SOL  OW     700   0.748   0.371   2.916  0.2193 -0.2452  0.6610
  234SOL  HW1    701   0.713   0.348   3.010  0.5536  1.3128 -0.5523
  234SOL  HW2    702   0.759   0.470   2.900 -2.3641 -0.1995 -2.0730
  235SOL  OW     703   2.021   1.123   1.503  0.3896  0.1848 -0.8594
  235SOL  HW1    704   2.049   1.151   1.598 -3.2434 -1.4739 -1.4292
  235SOL  HW2    705   2.095   1.150   1.438  0.6054  1.2394 -1.8273
  236SOL  OW     706   1.411   0.196   0.291  0.3134  0.2905  0.0571
  236SOL  HW1    707   1.502   0.223   0.250 -0.5320 -1.3736 -0.5238
  236SOL  HW2    708   1.417   0.175   0.389  2.5138  1.3324  2.6972
  237SOL  OW     709   0.183   1.672   2.481 -0.1211 -0.5379  0.0817
  237SOL  HW1    710   0.152   1.580   2.517 -0.7103  0.9590  1.6867
  237SOL  HW2    711   0.280   1.671   2.444 -2.1183  1.8950  1.3089
  238SOL  OW     712   1.664   1.215   1.844  0.1663  0.4036  0.0772
  238SOL  HW1    713   1.698   1.218   1.941  0.1521 -1.3548 -0.3329
  238SOL  HW2    714   1.707   1.280   1.782 -0.5518  2.4728 -0.3622
  239SOL  OW     715   1.590   1.677   3.048 -0.0855  0.6334  0.1606
  239SOL  HW1    716   1.517   1.675   2.982 -0.2450  0.0243 -0.4314
  239SOL  HW2    717   1.683   1.662   3.005  0.1456  0.5275 -1.6413
  240SOL  OW     718   2.957   2.654   0.938 -0.0128 -0.2469  0.1095
  240SOL  HW1    719   3.018   2.730   0.967 -0.2524  0.4429 -1.9125
  240SOL  HW2    720   2.878   2.689   0.878 -1.2018  0.4293  0.8707
  241SOL  OW     721   0.202   0.797   2.913 -0.4704  0.7909  0.0366
  241SOL  HW1    722   0.263   0.873   2.893  0.9762 -3.0819 -0.1382
  241SOL  HW2    723   0.250   0.731   2.974 -0.5026 -2.7787 -3.0254
  242SOL  OW     724   1.518   2.811   2.116  0.0658 -0.8284  0.1414
  242SOL  HW1    725   1.526   2.822   2.219  2.2020  4.0421  0.1241
  242SOL  HW2    726   1.557   2.892   2.073  2.8432 -3.5758 -0.2149
  243SOL  OW     727   1.631   3.040   2.016 -0.2107 -0.5277  0.0098
  243SOL  HW1    728   1.577   0.018   2.063  1.0435 -0.3091 -0.2325
  243SOL  HW2    729   1.657   3.065   1.922  0.9914 -1.0397  0.7051
  244SOL  OW     730   2.357   0.535   2.615 -0.3307 -0.5171 -0.6444
  244SOL  HW1    731   2.291   0.459   2.637  0.3821  0.7536  2.2375
  244SOL  HW2    732   2.368   0.561   2.517 -0.0617  0.4128 -3.4747
  245SOL  OW     733   2.067   1.890   0.438  0.1995 -0.2426 -0.1163
  245SOL  HW1    734   2.080   1.975   0.497 -1.5812  2.1603  0.4912
  245SOL  HW2    735   1.995   1.898   0.367  0.8411 -0.4119 -2.1682
  246SOL  OW     736   1.704   0.263   0.197  0.0015  0.0491 -0.8417
  246SOL  HW1    737   1.720   0.172   0.237  0.2008 -1.0308 -1.6085
  246SOL  HW2    738   1.740   0.343   0.254 -1.9656 -0.8208 -0.5297
  247SOL  OW     739   1.826   2.105   2.022  0.0292 -1.1308 -0.1335
  247SOL  HW1    740   1.888   2.146   2.099  3.3380 -2.1746 -0.4011
  247SOL  HW2    741   1.830   2.151   1.929  3.1672 -0.3456 -1.8873
  248SOL  OW     742   0.451   2.336   2.081 -0.7003 -0.0341 -0.1449
  248SOL  HW1    743   0.378   2.275   2.120 -0.0010 -0.5063  0.2687
  248SOL  HW2    744   0.530   2.279   2.047  0.8938 -1.3272  0.2220
  249SOL  OW     745   1.003   2.953   2.815 -0.6599  0.1859 -0.0712
  249SOL  HW1    746   0.989   2.984   2.910 -2.9805 -1.1222 -3.5727
  249SOL  HW2    747   0.913   2.960   2.768  3.1324 -1.4948  1.6048
  250SOL  OW     748   2.535   0.450   1.448 -0.1734  0.1905  0.0572
  250SOL  HW1    749   2.612   0.389   1.482  2.0881 -0.7765  2.6132
  250SOL  HW2    750   2.461   0.452   1.515  0.2390  0.3245 -1.2478
  251SOL  OW     751   1.172   0.561   0.154 -0.0277  0.0741 -0.2615
  251SOL  HW1    752   1.207   0.550   0.058 -0.9270  0.9628 -1.7346
  251SOL  HW2    753   1.184   0.473   0.204 -1.1550 -0.1235  0.2086
  252SOL  OW     754   1.443   2.011   1.911 -0.2105 -0.3826  0.1412
  252SOL  HW1    755   1.430   1.983   2.009 -1.2191  1.6473  3.4751
  252SOL  HW2    756   1.492   1.935   1.859  0.3558  0.6614  1.1132
  253SOL  OW     757   1.060   2.247   0.130 -0.3352  0.0789 -0.2617
  253SOL  HW1    758   1.020   2.327   0.079 -0.6052 -0.5553  0.2376
  253SOL  HW2    759   1.009   2.244   0.217  0.8868 -3.8588 -2.0208
  254SOL  OW     760   2.140   0.483   1.095  0.7122  0.2516 -0.4646
  254SOL  HW1    761   2.159   0.537   1.007  3.1549  0.9171  0.6147
  254SOL  HW2    762   2.194   0.393   1.095 -0.3492  0.7139  2.4343
  255SOL  OW     763   1.023   0.040   1.620 -0.1704 -1.0766 -0.5807
  255SOL  HW1    764   1.040   0.011   1.523 -1.9083 -0.3610 -0.1130
  255SOL  HW2    765   1.084   3.089   1.687 -1.9287 -0.3716  1.1385
  256SOL  OW     766   2.669   1.749   1.350  0.6162 -0.5977 -0.1255
  256SOL  HW1    767   2.769   1.756   1.356  2.9552  2.6670  0.6126
  256SOL  HW2    768   2.631   1.840   1.326  0.6036 -2.0432 -2.2262
  257SOL  OW     769   3.082   2.870   2.996 -0.2048 -0.4596 -0.3539
  257SOL  HW1    770   0.087   2.853   3.001  2.9946  1.4118 -0.4123
  257SOL  HW2    771   3.062   2.971   3.006 -0.8581  0.3200 -0.3579
  258SOL  OW     772   0.512   2.219   1.170  0.5069  0.1192 -0.2067
  258SOL  HW1    773   0.610   2.251   1.171  0.5692 -2.2264 -2.9308
  258SOL  HW2    774   0.469   2.222   1.260  0.4896  2.8228  0.6518
  259SOL  OW     775   1.494   0.184   2.935 -0.2151  0.4022  0.1287
  259SOL  HW1    776   1.408   0.131   2.962  0.2254 -0.7354  0.6990
  259SOL  HW2    777   1.574   0.120   2.950  1.2112 -0.0504 -0.8967
  260SOL  OW     778   0.339   2.833   1.348 -0.2668 -0.2516  0.0422
  260SOL  HW1    779   0.252   2.834   1.298 -1.2617 -2.3538  1.4132
  260SOL  HW2    780   0.385   2.920   1.349  0.5203  0.3220  2.5214
  261SOL  OW     781   0.517   0.017   2.764 -0.1811 -0.3772 -0.4946
  261SOL  HW1    782   0.493   0.107   2.719 -1.8471  2.4474  0.5156
  261SOL  HW2    783   0.438   3.045   2.774  1.0351 -0.8491  1.1953
  262SOL  OW     784   1.697   2.464   2.398 -0.0784 -0.1436  0.1688
  262SOL  HW1    785   1.612   2.514   2.426  2.5599 -0.7586 -0.2345
  262SOL  HW2    786   1.752   2.431   2.478 -2.0174 -0.2566  2.7095
  263SOL  OW     787   0.245   1.638   0.014 -0.2536 -0.0470 -0.4732
  263SOL  HW1    788   0.180   1.569   0.058  0.8514 -3.0011 -1.2966
  263SOL  HW2    789   0.225   1.651   3.012 -0.5338  0.9191  0.2264
  264SOL  OW     790   0.949   1.234   0.195 -0.3959 -0.3244 -0.4624
  264SOL  HW1    791   0.910   1.304   0.134  1.0755 -0.1252  2.1928
  264SOL  HW2    792   0.946   1.265   0.290  1.2032 -1.7477 -1.3925
  265SOL  OW     793   0.728   2.412   0.883 -0.3985 -0.4796 -0.6542
  265SOL  HW1    794   0.735   2.417   0.984  1.2183  1.2447  0.4910
  265SOL  HW2    795   0.639   2.459   0.857 -0.5611 -1.2815 -0.5441
  266SOL  OW     796   2.780   1.105   1.410  0.1867  0.0353 -0.1083
  266SOL  HW1    797   2.806   1.028   1.341  0.6616  0.7547  0.0085
  266SOL  HW2    798   2.799   1.192   1.358 -0.3141  0.7634  1.1876
  267SOL  OW     799   0.751   1.012   0.645  0.0496 -0.3178  0.0057
  267SOL  HW1    800   0.759   0.914   0.665  1.4194 -0.6747 -1.2498
  267SOL  HW2    801   0.838   1.058   0.637  0.0098  1.3179  0.3833
  268SOL  OW     802   1.283   0.619   0.398  0.6272 -0.0590 -0.0444
  268SOL  HW1    803   1.383   0.646   0.381 -1.0747 -0.7795 -2.1576
  268SOL  HW2    804   1.235   0.607   0.308 -1.4205  0.8256 -1.7864
  269SOL  OW     805   2.183   0.723   1.588 -0.0083 -0.1210 -0.4726
  269SOL  HW1    806   2.116   0.786   1.633  0.8091  3.2883  1.9561
  269SOL  HW2    807   2.280   0.748   1.614  3.0092  1.5721  2.7606
  270SOL  OW     808   1.043   1.026   1.072  0.4958 -0.1094 -0.4852
  270SOL  HW1    809   1.127   1.037   1.133 -1.6355 -0.5782  2.1767
  270SOL  HW2    810   0.972   0.983   1.129  0.1468 -0.1468 -0.6349
  271SOL  OW     811   2.535   0.626   2.003  0.3862  0.0724  0.0148
  271SOL  HW1    812   2.442   0.643   2.044 -1.1433 -0.5228  0.0602
  271SOL  HW2    813   2.592   0.627   2.083  0.1180  2.7043  1.2599
  272SOL  OW     814   2.479   1.985   1.924  0.0501  0.3642  0.2476
  272SOL  HW1    815   2.474   1.886   1.901  0.4679 -0.1339  0.6723
  272SOL  HW2    816   2.407   2.038   1.876 -0.0254  0.9599 -1.7191
  273SOL  OW     817   0.341   2.545   2.933  0.5353 -0.1065  0.2229
  273SOL  HW1    818   0.269   2.482   2.971  2.7235 -0.5705  0.8618
  273SOL  HW2    819   0.408   2.496   2.880  1.2028 -0.4017  1.5746
  274SOL  OW     820   0.316   2.284   1.337 -0.0018 -0.3735 -0.1185
  274SOL  HW1    821   0.239   2.218   1.347 -0.9478  1.7829  2.5614
  274SOL  HW2    822   0.320   2.346   1.421 -0.8260 -0.0374 -0.4858
  275SOL  OW     823   1.234   1.249   1.761  0.5705  0.5432 -0.5555
  275SOL  HW1    824   1.140   1.261   1.807  0.1470  1.3920 -0.1499
  275SOL  HW2    825   1.266   1.335   1.719 -1.0392 -0.7735  0.0617
  276SOL  OW     826   0.472   1.600   2.359  0.4002 -0.2113  0.2812
  276SOL  HW1    827   0.477   1.507   2.320  1.3278 -1.2307 -0.2511
  276SOL  HW2    828   0.526   1.606   2.443 -0.4981  1.5091 -3.5791
  277SOL  OW     829   1.628   0.593   1.268 -0.2763  0.6093 -0.3149
  277SOL  HW1    830   1.698   0.668   1.256 -2.1346 -3.3387  0.2371
  277SOL  HW2    831   1.542   0.616   1.216  1.7439  0.9696  0.4452
  278SOL  OW     832   1.719   0.052   2.998 -0.2997 -0.4621  0.2006
  278SOL  HW1    833   1.728   3.074   2.930  1.3516  1.8047 -1.5959
  278SOL  HW2    834   1.807   0.110   3.001  0.6933 -0.3590  1.1708
  279SOL  OW     835   0.900   2.111   1.086 -0.4484 -0.4378  0.0812
  279SOL  HW1    836   0.985   2.103   1.029  0.5561 -0.0115  0.6778
  279SOL  HW2    837   0.845   2.022   1.084 -3.0675 -0.1175 -1.8136
  280SOL  OW     838   1.309   1.414   0.187 -0.1620  0.1917  0.0542
  280SOL  HW1    839   1.402   1.443   0.219 -0.0199 -0.3950  0.1940
  280SOL  HW2    840   1.243   1.441   0.261  0.3664  1.5499 -0.7400
  281SOL  OW     841   2.062   2.276   2.547 -0.5968  0.5060 -0.2406
  281SOL  HW1    842   2.037   2.323   2.457  1.1624 -2.0526 -2.6477
  281SOL  HW2    843   2.151   2.314   2.583 -0.5999  0.3958 -0.5606
  282SOL  OW     844   2.680   1.500   0.702  0.0368 -0.3296  0.5170
  282SOL  HW1    845   2.667   1.427   0.770  0.2417  1.7542 -3.4637
  282SOL  HW2    846   2.688   1.456   0.612 -0.4876  0.4996  0.1806
  283SOL  OW     847   1.802   2.683   2.737 -0.8047 -0.2330  0.4697
  283SOL  HW1    848   1.810   2.597   2.682  0.8775 -0.3962  0.3320
  283SOL  HW2    849   1.854   2.757   2.694  0.7823 -1.8274  0.0365
  284SOL  OW     850   2.886   0.399   2.907 -0.3993 -0.1068  0.0589
  284SOL  HW1    851   2.805   0.457   2.922  1.3139 -0.7942  0.9798
  284SOL  HW2    852   2.927   0.426   2.819  0.0050  2.3038  1.5582
  285SOL  OW     853   2.494   0.901   0.163 -0.0156  0.4190  0.4031
  285SOL  HW1    854   2.394   0.894   0.150  0.5472 -1.1641  1.8061
  285SOL  HW2    855   2.516   0.945   0.254  0.0746  2.2759  0.1513
  286SOL  OW     856   1.520   1.864   1.442  0.0695  0.4247  0.2611
  286SOL  HW1    857   1.424   1.874   1.404 -2.3883 -1.2507 -1.6881
  286SOL  HW2    858   1.546   1.768   1.433  0.8789 -1.8936  2.4516
  287SOL  OW     859   1.194   1.744   0.731 -0.1198 -0.4781 -0.0022
  287SOL  HW1    860   1.230   1.794   0.815  0.1029  1.7921 -0.1664
  287SOL  HW2    861   1.169   1.648   0.753 -0.2661 -1.0899 -4.4124
  288SOL  OW     862   3.074   2.480   1.867  0.4141  0.1856  0.1595
  288SOL  HW1    863   0.022   2.396   1.825 -1.0594 -0.5445  1.4268
  288SOL  HW2    864   2.981   2.490   1.829 -2.3130 -2.0655  3.0919
  289SOL  OW     865   0.269   1.583   0.471 -0.2077  0.4554  0.3721
  289SOL  HW1    866   0.176   1.549   0.492  0.2427 -2.2303 -1.4329
  289SOL  HW2    867   0.279   1.686   0.490 -1.0030  0.8175  0.4269
  290SOL  OW     868   0.800   2.995   2.417  0.0390 -0.4974  0.1868
  290SOL  HW1    869   0.834   3.092   2.411 -0.4188 -0.6285  0.3328
  290SOL  HW2    870   0.716   2.990   2.360  2.5045  0.7298  1.0289
  291SOL  OW     871   1.949   0.200   3.012 -0.2603 -0.1144  0.1192
  291SOL  HW1    872   1.949   0.293   2.966  0.6477  1.5793  0.9133
  291SOL  HW2    873   1.961   0.201   0.018  0.2000  2.1218 -0.4345
  292SOL  OW     874   0.745   3.079   1.710  0.9863  0.1811  0.1807
  292SOL  HW1    875   0.755   3.050   1.806 -0.6258 -0.3607  1.7288
  292SOL  HW2    876   0.833   0.011   1.676 -0.6725  1.2517 -0.3055
  293SOL  OW     877   1.658   2.230   1.609  0.0436 -0.3182  0.1846
  293SOL  HW1    878   1.565   2.264   1.583 -1.9928  1.8244  1.7565
  293SOL  HW2    879   1.681   2.138   1.563  2.2218  0.1624 -0.1839
  294SOL  OW     880   2.673   0.538   2.976  0.0492  0.0159 -0.1040
  294SOL  HW1    881   2.656   0.494   3.066  0.7401 -2.8759  1.4384
  294SOL  HW2    882   2.687   0.637   2.992 -0.1682  1.3356 -1.1859
  295SOL  OW     883   1.340   0.995   0.158  0.4623  0.5049  0.0533
  295SOL  HW1    884   1.268   1.068   0.147  1.4503  0.7230  0.4149
  295SOL  HW2    885   1.358   0.977   0.256 -1.8399  1.9628 -0.2107
  296SOL  OW     886   1.602   1.049   1.454 -0.1390 -0.3127 -0.2022
  296SOL  HW1    887   1.560   1.079   1.542 -0.1631  1.8474  2.0086
  296SOL  HW2    888   1.624   0.953   1.471  1.2421  2.0869  0.3111
  297SOL  OW     889   2.569   1.136   3.003  0.3164 -0.2204  0.6227
  297SOL  HW1    890   2.532   1.043   3.005  0.1796  0.6981 -0.3218
  297SOL  HW2    891   2.578   1.170   2.908 -0.1235 -1.3666  0.2601
  298SOL  OW     892   1.200   0.479   2.929  0.1330 -0.6416  0.0297
  298SOL  HW1    893   1.282   0.471   2.873 -2.8467 -0.3716 -0.6230
  298SOL  HW2    894   1.157   0.573   2.910 -1.7321  1.8211 -0.9649
  299SOL  OW     895   2.064   2.377   2.282 -0.2793  0.1539  0.3186
  299SOL  HW1    896   2.073   2.289   2.232 -1.4991 -0.4069  0.5914
  299SOL  HW2    897   2.002   2.435   2.224  0.8229 -1.5892 -0.5935
  300SOL  OW     898   2.968   0.189   1.347 -0.0052  0.1300 -0.0173
  300SOL  HW1    899   2.943   0.087   1.351 -1.0410  0.3097  0.3254
  300SOL  HW2    900   3.017   0.217   1.435  2.3195  0.4196 -1.0820
  301SOL  OW     901   1.661   0.795   2.065  0.3414  0.4139 -0.5456
  301SOL  HW1    902   1.755   0.804   2.108  2.0167 -1.1808 -2.3265
  301SOL  HW2    903   1.609   0.743   2.130 -0.4060 -3.1179 -0.3577
  302SOL  OW     904   0.241   0.342   2.790 -0.6614 -0.6096 -0.0331
  302SOL  HW1    905   0.330   0.374   2.829  0.9628 -0.8906  1.6495
  302SOL  HW2    906   0.219   0.251   2.825  0.6422 -0.3436 -0.6312
  303SOL  OW     907   1.303   1.521   1.647 -0.6544 -0.8804  0.0782
  303SOL  HW1    908   1.261   1.613   1.616  1.8527  2.4972  0.0772
  303SOL  HW2    909   1.400   1.529   1.676  0.5443  0.9611 -0.6322
  304SOL  OW     910   0.224   0.030   0.204  0.3004 -0.5364 -0.2857
  304SOL  HW1    911   0.247   0.111   0.146  2.1037  1.6477  5.1018
  304SOL  HW2    912   0.143   0.044   0.260 -0.1594 -0.3803 -0.7017
  305SOL  OW     913   1.536   0.629   0.043  0.2471  0.1175 -0.3686
  305SOL  HW1    914   1.630   0.667   0.034 -1.9338 -0.1711  2.1463
  305SOL  HW2    915   1.550   0.531   0.017  3.5720 -0.7928  2.6891
  306SOL  OW     916   0.592   1.116   3.040 -0.0781 -0.0915 -0.0906
  306SOL  HW1    917   0.573   1.213   3.018 -0.7882 -0.3523  1.7463
  306SOL  HW2    918   0.646   1.107   0.034 -2.0031  0.8625  0.4226
  307SOL  OW     919   2.963   0.521   2.037  0.7763  0.1325 -0.0671
  307SOL  HW1    920   3.051   0.485   2.073 -0.7273  0.1305  2.8686
  307SOL  HW2    921   2.974   0.570   1.946 -2.3799 -0.7386  1.2529
  308SOL  OW     922   0.994   0.243   2.083 -0.2923  0.5602 -0.3882
  308SOL  HW1    923   1.053   0.308   2.135  0.6548  2.0205  3.0344
  308SOL  HW2    924   0.946   0.295   2.003  2.3152 -0.0151 -0.0761
  309SOL  OW     925   1.967   0.631   0.165  0.8355 -0.6597  0.1068
  309SOL  HW1    926   1.983   0.653   0.069  0.3588 -0.1871  2.0395
  309SOL  HW2    927   1.984   0.712   0.221 -1.4566 -0.0490  2.3496
  310SOL  OW     928   1.376   1.124   2.926 -0.1928  0.4806 -0.5712
  310SOL  HW1    929   1.317   1.120   3.011  0.3264 -2.0072  0.2547
  310SOL  HW2    930   1.321   1.133   2.842 -1.0101  3.5140 -0.8938
  311SOL  OW     931   2.746   2.385   1.846  0.2153 -0.4084 -0.3044
  311SOL  HW1    932   2.696   2.425   1.927  0.4666 -0.7260  1.5000
  311SOL  HW2    933   2.794   2.462   1.799 -0.9706  1.7619  1.8061
  312SOL  OW     934   1.890   0.154   0.986 -0.2981 -0.2048 -0.1120
  312SOL  HW1    935   1.973   0.096   0.975 -1.3221 -1.5467  4.0356
  312SOL  HW2    936   1.889   0.212   1.064 -1.3927 -0.6176 -0.3282
  313SOL  OW     937   2.918   0.477   0.522  0.0768  0.4396  0.6520
  313SOL  HW1    938   2.945   0.566   0.479  2.4299  0.2465 -1.6526
  313SOL  HW2    939   2.914   0.409   0.445  1.9963  0.9990  1.3441
  314SOL  OW     940   2.638   1.311   0.935 -0.5510  0.0343  0.6986
  314SOL  HW1    941   2.652   1.401   0.972 -0.2752  0.4576  0.5585
  314SOL  HW2    942   2.544   1.269   0.964 -0.8069  1.4459  2.2207
  315SOL  OW     943   1.946   0.612   1.827 -0.0294  0.1729  0.4447
  315SOL  HW1    944   1.951   0.711   1.811 -2.2616  0.1877 -0.3089
  315SOL  HW2    945   2.002   0.562   1.759  3.3675  0.1531 -2.3448
  316SOL  OW     946   0.331   1.338   1.216 -0.0832 -0.0140 -0.4066
  316SOL  HW1    947   0.276   1.251   1.220 -0.9776 -2.9656 -0.4914
  316SOL  HW2    948   0.277   1.424   1.212 -1.6206 -2.8796  3.2578
  317SOL  OW     949   1.281   0.025   3.023  0.4041 -0.4604 -0.3034
  317SOL  HW1    950   1.218   0.104   3.032  0.7382  1.3527 -0.1976
  317SOL  HW2    951   1.243   3.039   3.076  0.6065 -1.2213 -0.0551
  318SOL  OW     952   1.303   2.517   0.876  0.2812 -0.1210 -0.1639
  318SOL  HW1    953   1.386   2.456   0.876  1.2859  1.8141  1.0396
  318SOL  HW2    954   1.226   2.458   0.849  1.6461  1.7067  0.0281
  319SOL  OW     955   1.033   1.503   2.813  0.1102 -0.1330 -0.1816
  319SOL  HW1    956   1.039   1.426   2.743 -2.7210  0.1305  1.9618
  319SOL  HW2    957   1.095   1.497   2.891  1.8159  1.7972 -0.7254
  320SOL  OW     958   0.078   1.986   1.038  0.1721  0.3758  0.2662
  320SOL  HW1    959   0.121   1.926   0.969 -1.3373 -1.0251  2.0484
  320SOL  HW2    960   0.076   2.086   1.015  1.2264  2.4980 -0.2232
  321SOL  OW     961   2.891   2.301   2.670 -0.0117  0.1192  0.2877
  321SOL  HW1    962   2.868   2.272   2.766 -1.0857  3.5140  2.4073
  321SOL  HW2    963   2.973   2.359   2.680 -1.7771  0.5029  0.3600
  322SOL  OW     964   0.209   2.623   1.903  0.4279  0.3940 -0.2932
  322SOL  HW1    965   0.129   2.560   1.890 -2.2582  0.0153 -1.0903
  322SOL  HW2    966   0.226   2.656   1.998 -1.3967 -1.0865 -2.4269
  323SOL  OW     967   2.720   0.311   0.832  0.0334 -0.8901 -0.1261
  323SOL  HW1    968   2.679   0.283   0.924  2.3633 -0.0935 -0.9726
  323SOL  HW2    969   2.792   0.245   0.794  0.1859  0.1850 -2.0081
  324SOL  OW     970   1.721   2.416   1.958  0.1078  0.6162  0.3905
  324SOL  HW1    971   1.772   2.366   1.889  4.3785  2.6782  0.0498
  324SOL  HW2    972   1.662   2.355   2.013 -0.0213  0.8633  0.6802
  325SOL  OW     973   1.989   0.576   2.637 -0.0937  0.0811 -0.4619
  325SOL  HW1    974   2.069   0.511   2.640 -1.0826 -0.4477 -0.4206
  325SOL  HW2    975   1.903   0.533   2.674  2.0178 -0.2995 -2.9172
  326SOL  OW     976   2.927   2.164   0.804  0.1774  0.0666 -0.0516
  326SOL  HW1    977   3.019   2.134   0.771 -0.2786 -1.7075 -2.6876
  326SOL  HW2    978   2.928   2.193   0.903  0.8702  1.8005 -1.5143
  327SOL  OW     979   2.686   0.042   0.073 -0.1372  0.0089  0.2245
  327SOL  HW1    980   2.790   0.058   0.090 -1.5557  0.0376  2.6417
  327SOL  HW2    981   2.675   3.063   0.005 -1.3180 -0.3007 -1.6118
  328SOL  OW     982   1.319   0.257   2.420  0.6461  0.0938  0.5218
  328SOL  HW1    983   1.252   0.190   2.389 -2.1536  1.6129 -0.1859
  328SOL  HW2    984   1.368   0.209   2.497  2.3968 -1.1458 -0.7746
  329SOL  OW     985   1.551   0.342   1.199  0.3818 -0.1765  0.2557
  329SOL  HW1    986   1.577   0.426   1.244  0.8127  0.7091 -0.6676
  329SOL  HW2    987   1.568   0.257   1.253  2.1302 -0.2353 -1.3072
  330SOL  OW     988   0.712   0.119   1.464  0.5472 -0.0813 -0.4087
  330SOL  HW1    989   0.626   0.108   1.409  0.6848 -0.0454  1.1718
  330SOL  HW2    990   0.711   0.063   1.549 -1.5094 -1.1287  0.0912
  331SOL  OW     991   0.356   2.098   2.451  0.0140 -0.3000  0.3471
  331SOL  HW1    992   0.412   2.027   2.502  0.3697 -2.4143 -0.0123
  331SOL  HW2    993   0.259   2.103   2.488  0.5772  0.8760 -0.1499
  332SOL  OW     994   2.287   2.687   1.919  0.3854  0.4943  0.2565
  332SOL  HW1    995   2.235   2.602   1.926 -1.0033 -0.7545 -0.2354
  332SOL  HW2    996   2.254   2.747   1.843 -3.0313 -0.0744  2.2955
  333SOL  OW     997   3.005   3.000   0.707 -0.5210  0.2384 -0.1944
  333SOL  HW1    998   3.092   2.955   0.674 -1.6091  0.0804 -2.3463
  333SOL  HW2    999   2.996   2.995   0.808 -1.5601  1.4667  0.6905
  334SOL  OW    1000   0.362   1.840   0.496  0.7369 -0.1015 -0.0281
  334SOL  HW1   1001   0.312   1.925   0.526 -0.5300 -2.1808 -0.4779
  334SOL  HW2   1002   0.440   1.828   0.559 -1.5941  0.5267  2.0070
  335SOL  OW    1003   2.374   0.122   1.765 -0.3569  0.4459  0.3752
  335SOL  HW1   1004   2.414   0.074   1.845  2.0205  1.7963 -0.9110
  335SOL  HW2   1005   2.399   0.221   1.773  0.6036 -0.1698 -0.9764
  336SOL  OW    1006   0.130   3.058   2.489  0.0911 -0.2540  0.0181
  336SOL  HW1   1007   0.125   2.971   2.531  3.3096 -0.0514  2.2060
  336SOL  HW2   1008   0.195   3.049   2.410  0.0853 -1.0216 -0.0469
  337SOL  OW    1009   0.356   2.048   1.759 -0.1828 -0.5968 -0.2040
  337SOL  HW1   1010   0.332   1.976   1.688 -1.3373  1.0915 -0.3871
  337SOL  HW2   1011   0.453   2.077   1.752 -0.9773  0.9884  1.5307
  338SOL  OW    1012   1.118   0.430   2.259 -0.3459  0.0003  0.0943
  338SOL  HW1   1013   1.148   0.522   2.220  2.8517 -0.6316 -0.5712
  338SOL  HW2   1014   1.157   0.404   2.344  0.5793  1.1575  0.2873
  339SOL  OW    1015   0.643   1.320   0.399 -0.1003  0.2460  0.2106
  339SOL  HW1   1016   0.609   1.366   0.315 -1.9535 -0.7732 -0.5658
  339SOL  HW2   1017   0.608   1.225   0.401  0.4967 -3.9441  1.7414
  340SOL  OW    1018   1.844   2.487   2.174  0.1722 -0.4611  0.1811
  340SOL  HW1   1019   1.783   2.486   2.258  3.0637  0.6125 -1.3401
  340SOL  HW2   1020   1.795   2.481   2.084  0.7194  3.1883  2.5121
  341SOL  OW    1021   2.890   0.177   0.432  0.0112  0.1150  0.9766
  341SOL  HW1   1022   2.861   0.246   0.359  1.0597 -0.8519 -0.9119
  341SOL  HW2   1023   2.808   0.133   0.469  0.2415 -0.4024  2.5614
  342SOL  OW    1024   2.235   1.946   2.284 -0.4600  0.3657 -0.2942
  342SOL  HW1   1025   2.267   1.851   2.274  1.0253  0.5075  1.7309
  342SOL  HW2   1026   2.181   1.956   2.370 -0.0784  1.4794  1.7833
  343SOL  OW    1027   2.841   3.034   1.437  0.4060  0.4643 -0.4380
  343SOL  HW1   1028   2.780   2.955   1.405  1.4990  0.7255  0.5423
  343SOL  HW2   1029   2.927   3.001   1.476  1.1467  1.1613 -2.1208
  344SOL  OW    1030   2.580   2.584   0.783 -0.3355  0.1105  0.1166
  344SOL  HW1   1031   2.663   2.643   0.766 -0.9115 -1.5298 -0.9170
  344SOL  HW2   1032   2.561   2.535   0.693  1.1859 -0.9586 -2.6689
  345SOL  OW    1033   2.222   2.338   1.042  0.4238 -0.0615  0.2786
  345SOL  HW1   1034   2.290   2.407   1.063 -1.0098 -0.0362 -0.0000
  345SOL  HW2   1035   2.137   2.380   1.000 -1.0340  0.4520  1.8856
  346SOL  OW    1036   0.971   2.489   1.668  0.4958 -0.0140 -0.1345
  346SOL  HW1   1037   1.006   2.413   1.721 -1.6910 -0.1550  1.2658
  346SOL  HW2   1038   0.937   2.556   1.733  0.3057 -0.9112  0.0581
  347SOL  OW    1039   1.801   2.186   1.253 -0.6112 -0.0003  0.4207
  347SOL  HW1   1040   1.803   2.290   1.274  1.8924 -0.4427  0.6150
  347SOL  HW2   1041   1.795   2.132   1.338 -2.2494 -1.0225 -1.6505
  348SOL  OW    1042   0.848   1.471   1.786  0.3802  0.2314  0.3279
  348SOL  HW1   1043   0.880   1.559   1.741  2.1894  0.4882 -1.1602
  348SOL  HW2   1044   0.750   1.462   1.784 -2.0789  0.9857 -0.4774
  349SOL  OW    1045   1.778   1.252   1.404  0.8516  0.2939 -0.1329
  349SOL  HW1   1046   1.702   1.181   1.423 -1.1757  3.0063 -0.5670
  349SOL  HW2   1047   1.870   1.206   1.412 -2.8770  1.0457  1.3252
  350SOL  OW    1048   2.735   1.960   0.980  0.5277 -0.7786 -0.3753
  350SOL  HW1   1049   2.811   2.008   1.032 -1.7804 -1.2454  0.3350
  350SOL  HW2   1050   2.732   2.014   0.894  0.9811  0.9263  1.4684
  351SOL  OW    1051   0.822   2.825   0.996 -0.1024 -0.3985  0.7899
  351SOL  HW1   1052   0.816   2.745   1.063  1.4098  1.9992  3.1383
  351SOL  HW2   1053   0.850   2.909   1.049  0.5775 -0.0722 -0.1876
  352SOL  OW    1054   1.129   0.742   2.889 -0.0055  0.1749  0.1289
  352SOL  HW1   1055   1.073   0.825   2.894 -1.9317  0.8012  0.7173
  352SOL  HW2   1056   1.217   0.761   2.938  0.9277  2.9063  2.3773
  353SOL  OW    1057   0.663   1.322   2.565  0.3520 -0.4845  0.3253
  353SOL  HW1   1058   0.713   1.235   2.547 -0.4940  0.2067 -1.2086
  353SOL  HW2   1059   0.566   1.307   2.538  1.8651 -0.2914  2.6810
  354SOL  OW    1060   2.227   2.863   1.710 -0.6403 -0.1117  0.1383
  354SOL  HW1   1061   2.317   2.900   1.675  0.3754 -0.7893 -1.1421
  354SOL  HW2   1062   2.155   2.935   1.699  2.0140 -0.8308  0.3274
  355SOL  OW    1063   1.958   0.990   2.855 -0.4638 -0.1659 -0.3279
  355SOL  HW1   1064   1.935   0.925   2.933  2.3991 -4.3904  1.5789
  355SOL  HW2   1065   1.953   0.933   2.773 -1.6547  2.4186 -2.2825
  356SOL  OW    1066   0.610   2.975   2.221 -0.3670 -0.2333 -0.0883
  356SOL  HW1   1067   0.588   2.886   2.259 -0.8349  0.0809 -1.8954
  356SOL  HW2   1068   0.632   2.974   2.120  1.8493 -1.9696  1.1902
  357SOL  OW    1069   2.753   0.360   2.080  0.6345 -0.2245  0.1042
  357SOL  HW1   1070   2.833   0.424   2.072 -2.6260  0.3245 -2.7856
  357SOL  HW2   1071   2.718   0.320   1.991 -0.0267  2.5797 -1.4693
  358SOL  OW    1072   0.101   1.420   1.493  0.4833 -0.3322 -0.5956
  358SOL  HW1   1073   0.063   1.407   1.398 -0.9788 -0.3194 -1.1846
  358SOL  HW2   1074   0.044   1.363   1.556 -0.5225 -0.6718  1.5609
  359SOL  OW    1075   2.061   2.122   2.154 -0.2003  0.1933  0.0647
  359SOL  HW1   1076   2.118   2.171   2.082 -2.1462  2.0172 -0.9673
  359SOL  HW2   1077   2.115   2.055   2.212 -1.0783 -0.1638  2.5596
  360SOL  OW    1078   0.898   2.124   2.850  0.2321  0.0278 -0.2496
  360SOL  HW1   1079   0.986   2.102   2.802  1.4532 -0.2251 -0.2789
  360SOL  HW2   1080   0.820   2.092   2.788 -2.7742 -0.3298 -2.6427
  361SOL  OW    1081   2.571   0.695   0.311 -0.4771 -0.4796 -0.3078
  361SOL  HW1   1082   2.544   0.709   0.410 -0.3042  0.1950  4.7678
  361SOL  HW2   1083   2.537   0.769   0.250 -1.8720 -0.7153  1.0759
  362SOL  OW    1084   1.806   0.798   0.973  0.1444 -0.0815 -0.0004
  362SOL  HW1   1085   1.818   0.698   0.998 -2.5151  2.3701  0.6950
  362SOL  HW2   1086   1.840   0.862   1.045  1.6453  1.7764 -1.2250
  363SOL  OW    1087   1.726   1.382   1.628 -0.2958 -0.6237 -0.0110
  363SOL  HW1   1088   1.734   1.336   1.537  1.8484 -0.4212  1.1389
  363SOL  HW2   1089   1.809   1.441   1.650  1.2297 -2.3945  1.8462
  364SOL  OW    1090   0.181   0.164   1.991  0.6717  0.2278  0.0130
  364SOL  HW1   1091   0.190   0.064   2.007 -0.3639 -1.0353  0.4874
  364SOL  HW2   1092   0.272   0.205   1.992  1.3572 -2.8118 -0.3993
  365SOL  OW    1093   1.530   0.884   2.862 -0.6021 -0.1267  0.2203
  365SOL  HW1   1094   1.516   0.982   2.893  0.7869  1.0202 -1.1804
  365SOL  HW2   1095   1.476   0.821   2.917  1.1103  0.0209  0.0801
  366SOL  OW    1096   2.093   1.792   2.727  0.0414  0.4381 -0.4874
  366SOL  HW1   1097   2.061   1.855   2.803 -1.6539  0.3297 -0.6983
  366SOL  HW2   1098   2.195   1.795   2.713  2.0910 -0.4931  0.1627
  367SOL  OW    1099   0.787   0.241   2.564 -0.1925  0.5334 -0.6781
  367SOL  HW1   1100   0.832   0.203   2.482 -0.7797 -3.8495  0.3377
  367SOL  HW2   1101   0.860   0.274   2.628 -0.5639  1.2470 -1.3868
  368SOL  OW    1102   0.039   1.677   1.567  0.0696 -0.3915 -0.5187
  368SOL  HW1   1103   0.019   1.669   1.667  1.6150 -0.5474  0.1884
  368SOL  HW2   1104   0.070   1.587   1.525 -0.0320 -2.5360 -2.1299
  369SOL  OW    1105   0.505   0.107   1.295 -0.1985 -0.4192 -0.5005
  369SOL  HW1   1106   0.498   0.154   1.205 -3.3129 -1.8148 -0.2132
  369SOL  HW2   1107   0.541   0.014   1.283 -2.8455 -0.1240 -2.5681
  370SOL  OW    1108   2.480   2.811   0.515 -0.0982 -0.1845 -0.4718
  370SOL  HW1   1109   2.514   2.831   0.420  0.2361  0.2855  1.6695
  370SOL  HW2   1110   2.533   2.869   0.580  1.8570  2.0249  1.2988
  371SOL  OW    1111   0.671   2.793   1.478 -0.3799  0.0546  0.6759
  371SOL  HW1   1112   0.602   2.850   1.526  0.1990  1.0342  0.8493
  371SOL  HW2   1113   0.655   2.697   1.502  0.4485 -1.5920  0.9586
  372SOL  OW    1114   2.566   2.669   1.896 -0.3474  0.6166 -0.3063
  372SOL  HW1   1115   2.596   2.595   1.958  1.0797 -2.5412 -1.5693
  372SOL  HW2   1116   2.462   2.678   1.910 -0.2184  0.5818 -1.4344
  373SOL  OW    1117   0.089   2.532   0.863 -0.2620  0.7271 -0.4108
  373SOL  HW1   1118   0.113   2.500   0.959 -1.4082 -0.9249 -1.4641
  373SOL  HW2   1119   3.094   2.580   0.870  1.4847 -1.3926 -3.0284
  374SOL  OW    1120   2.327   1.701   2.235 -0.5929  0.9515  0.3403
  374SOL  HW1   1121   2.420   1.672   2.256  0.0845  0.0013  0.4890
  374SOL  HW2   1122   2.312   1.708   2.131 -1.9885 -1.5031 -1.0798
  375SOL  OW    1123   0.150   0.592   2.721  0.2335 -0.0638 -0.0935
  375SOL  HW1   1124   0.153   0.677   2.783 -3.2414 -0.7994 -0.5972
  375SOL  HW2   1125   0.193   0.510   2.761  0.0722  0.5449  3.6094
  376SOL  OW    1126   2.827   2.512   1.289  0.0541 -0.1222 -0.1338
  376SOL  HW1   1127   2.847   2.457   1.201  2.1782 -2.2316 -2.4693
  376SOL  HW2   1128   2.742   2.484   1.337  2.5318  2.5363  1.7463
  377SOL  OW    1129   0.309   2.909   2.757 -0.6303 -0.6654 -0.5540
  377SOL  HW1   1130   0.298   2.865   2.850 -1.9567 -0.2581 -1.3318
  377SOL  HW2   1131   0.239   2.872   2.691  0.6228  3.2367 -2.0337
  378SOL  OW    1132   3.069   0.868   3.053  0.1823  0.1883  0.2967
  378SOL  HW1   1133   3.082   0.958   0.001 -1.0479 -0.6251  0.2777
  378SOL  HW2   1134   0.051   0.841   2.989 -0.6802 -2.4044  1.3872
  379SOL  OW    1135   1.897   0.399   2.245 -0.0048  0.0661  0.5542
  379SOL  HW1   1136   1.831   0.375   2.324  1.4658  0.4596  0.0878
  379SOL  HW2   1137   1.851   0.374   2.153  0.1235 -2.1033  0.3808
  380SOL  OW    1138   0.629   2.000   1.485  0.2345 -0.3804 -0.2196
  380SOL  HW1   1139   0.540   1.999   1.430 -0.8346  1.2177 -1.4667
  380SOL  HW2   1140   0.681   1.912   1.467  0.6595 -0.6578  0.9511
  381SOL  OW    1141   2.356   1.238   0.323  0.1785 -0.1258 -0.4564
  381SOL  HW1   1142   2.403   1.264   0.233 -0.9530 -1.7310  2.4814
  381SOL  HW2   1143   2.373   1.141   0.354  2.3648 -1.9633 -2.4527
  382SOL  OW    1144   2.221   1.713   1.260  0.1630 -0.0103 -0.1251
  382SOL  HW1   1145   2.137   1.664   1.288  0.3471  1.8757 -0.1387
  382SOL  HW2   1146   2.205   1.778   1.184 -1.7179 -0.3932 -1.6275
  383SOL  OW    1147   0.684   1.630   0.154 -1.1184 -0.6329 -0.1316
  383SOL  HW1   1148   0.609   1.680   0.102 -0.2115 -2.8634  0.9932
  383SOL  HW2   1149   0.653   1.535   0.165  1.2745 -1.4724  1.5664
  384SOL  OW    1150   0.485   2.722   2.591  0.5407  0.4779  0.2240
  384SOL  HW1   1151   0.423   2.787   2.632  1.8436  0.5901  0.7901
  384SOL  HW2   1152   0.571   2.712   2.641  2.1072 -0.4279  4.1579
  385SOL  OW    1153   2.422   2.059   0.624 -0.6607  0.4941  0.7783
  385SOL  HW1   1154   2.344   2.072   0.688  0.7641  0.7875  2.6141
  385SOL  HW2   1155   2.444   1.958   0.609  1.0325 -3.4112 -1.1804
  386SOL  OW    1156   2.215   0.610   0.878 -0.2332  0.0929 -0.0204
  386SOL  HW1   1157   2.134   0.632   0.813 -2.6125 -0.2088 -2.7446
  386SOL  HW2   1158   2.286   0.685   0.871  0.1039 -1.8278 -2.8008
  387SOL  OW    1159   1.501   1.036   2.029 -0.5515  0.0443  0.1014
  387SOL  HW1   1160   1.524   0.942   2.057  1.0858 -0.3622 -0.0026
  387SOL  HW2   1161   1.588   1.090   2.019  0.7823 -2.1009  0.7779
  388SOL  OW    1162   1.258   1.363   2.467  0.4354  0.5878 -0.1397
  388SOL  HW1   1163   1.351   1.332   2.499  1.3061  0.0347  0.6926
  388SOL  HW2   1164   1.255   1.464   2.442  1.2785  1.3460 -0.6084
  389SOL  OW    1165   1.282   0.937   1.583 -0.3026  1.0813 -0.3518
  389SOL  HW1   1166   1.330   0.848   1.558  0.1512  0.1286  0.8329
  389SOL  HW2   1167   1.348   1.007   1.616 -0.6669 -1.0308  1.2998
  390SOL  OW    1168   2.449   1.882   1.077  0.1008  0.2186 -0.6578
  390SOL  HW1   1169   2.352   1.909   1.091 -0.2247  0.0093 -0.8822
  390SOL  HW2   1170   2.514   1.960   1.073  2.5130  1.1779  1.2467
  391SOL  OW    1171   1.353   1.463   1.234  0.1873  0.0579 -0.0747
  391SOL  HW1   1172   1.252   1.447   1.229 -2.4810  1.7194  1.2242
  391SOL  HW2   1173   1.397   1.376   1.269 -1.3992 -0.7934  0.1836
  392SOL  OW    1174   2.221   0.038   0.344 -0.2853 -0.5449 -0.2485
  392SOL  HW1   1175   2.307   0.038   0.284 -0.9006  1.2805 -1.9703
  392SOL  HW2   1176   2.230   3.071   0.424  2.7802 -1.4643 -0.0723
  393SOL  OW    1177   1.987   1.944   2.916  0.7173 -0.2439 -0.8182
  393SOL  HW1   1178   1.895   1.973   2.894 -2.9190  0.7142 -1.3293
  393SOL  HW2   1179   2.044   2.027   2.939  1.1897 -0.9078 -0.6251
  394SOL  OW    1180   0.194   2.402   2.572 -0.0133  0.2254  0.7591
  394SOL  HW1   1181   0.164   2.305   2.572  0.0691  0.5761  0.1277
  394SOL  HW2   1182   0.293   2.410   2.589 -0.7300 -1.9331 -2.3389
  395SOL  OW    1183   0.525   0.254   1.718  0.0800 -0.6468 -0.0141
  395SOL  HW1   1184   0.496   0.351   1.739  1.1476 -0.5522 -1.3272
  395SOL  HW2   1185   0.579   0.211   1.795  1.1045 -1.6588  4.2298
  396SOL  OW    1186   2.538   0.108   2.786 -0.0727 -0.3924 -0.6776
  396SOL  HW1   1187   2.629   0.072   2.755 -0.4986 -0.5710  0.3602
  396SOL  HW2   1188   2.532   0.208   2.760 -3.4195  0.6254  0.2215
  397SOL  OW    1189   2.998   1.166   2.129  0.1534 -0.3748 -0.6064
  397SOL  HW1   1190   3.039   1.120   2.210  0.3575 -0.8971  0.4877
  397SOL  HW2   1191   3.009   1.269   2.126 -1.3629 -4.8605  1.5064
  398SOL  OW    1192   0.727   2.844   0.072  0.0697  0.4592 -0.3341
  398SOL  HW1   1193   0.685   2.778   0.008  2.2625 -1.3180 -3.2216
  398SOL  HW2   1194   0.663   2.878   0.140 -0.6007  1.2798  2.2368
  399SOL  OW    1195   1.164   0.163   1.064  0.1870 -0.0223  0.1255
  399SOL  HW1   1196   1.150   0.153   1.166 -0.4805 -0.6098 -0.4367
  399SOL  HW2   1197   1.079   0.142   1.015  1.8880  0.0813 -0.1961
  400SOL  OW    1198   1.491   2.338   2.796 -0.6793 -0.0668  0.0112
  400SOL  HW1   1199   1.517   2.438   2.800 -0.6701  1.5381 -1.7297
  400SOL  HW2   1200   1.573   2.278   2.810 -0.4072  0.2858 -1.4776
  401SOL  OW    1201   2.648   1.418   2.486 -0.7969  0.1836 -0.2084
  401SOL  HW1   1202   2.656   1.316   2.486 -0.7413  0.7760  0.6439
  401SOL  HW2   1203   2.612   1.452   2.579  0.2359  2.9319 -0.3951
  402SOL  OW    1204   3.023   0.454   0.038 -0.2811 -0.2242  0.1324
  402SOL  HW1   1205   0.031   0.458   0.036 -0.2086 -2.5686  0.1006
  402SOL  HW2   1206   2.986   0.445   3.040  2.1757  0.4063  0.1026
  403SOL  OW    1207   3.020   0.978   1.500 -0.7107  0.6073  0.1345
  403SOL  HW1   1208   2.932   1.032   1.480  2.4903  0.9162 -0.9367
  403SOL  HW2   1209   3.039   0.901   1.434  1.0387 -0.4779  3.4541
  404SOL  OW    1210   1.621   2.933   2.814  0.0803  0.7100  0.0027
  404SOL  HW1   1211   1.681   2.854   2.847  1.3523  3.3719  1.1626
  404SOL  HW2   1212   1.526   2.912   2.838  2.6396 -1.4364  2.0038
  405SOL  OW    1213   0.038   0.323   2.200  0.3835  0.0270  0.2417
  405SOL  HW1   1214   0.063   0.252   2.136 -3.8303 -0.5971 -1.9466
  405SOL  HW2   1215   0.119   0.342   2.254  2.3216 -1.2013 -0.3565
  406SOL  OW    1216   1.721   1.995   2.873 -0.2224 -0.5307  0.1333
  406SOL  HW1   1217   1.663   1.959   2.803 -0.3314 -0.7767 -0.0294
  406SOL  HW2   1218   1.693   1.975   2.970  0.9855 -0.8508  0.8820
  407SOL  OW    1219   1.843   0.109   1.821  0.3364 -0.4028  0.1660
  407SOL  HW1   1220   1.929   0.086   1.871 -0.7953 -0.0168 -0.0440
  407SOL  HW2   1221   1.871   0.172   1.750 -2.7927  0.6011  1.8284
  408SOL  OW    1222   0.172   2.961   2.020  0.0699  0.0994  0.2384
  408SOL  HW1   1223   0.205   2.875   2.059  3.7000 -0.9212 -2.7044
  408SOL  HW2   1224   0.071   2.966   2.017 -2.3761  0.5844 -0.1744
  409SOL  OW    1225   2.322   2.613   1.532 -0.3305 -0.1888  0.1132
  409SOL  HW1   1226   2.263   2.685   1.573  0.4684  2.3694 -1.6040
  409SOL  HW2   1227   2.303   2.604   1.430  1.5573 -0.4117 -2.0242
  410SOL  OW    1228   2.016   2.228   0.361  0.1916 -0.3844 -0.2686
  410SOL  HW1   1229   2.054   2.202   0.452 -0.5423  0.2142  0.2225
  410SOL  HW2   1230   1.929   2.284   0.377 -0.3341 -2.3691 -0.8576
  411SOL  OW    1231   3.039   0.214   0.955  0.2224 -0.6761  0.2593
  411SOL  HW1   1232   3.003   0.298   1.006  1.7965  1.4529  2.1038
  411SOL  HW2   1233   3.024   0.212   0.854 -2.7340  4.6414 -1.2342
  412SOL  OW    1234   1.095   2.992   1.336  0.0241  0.0919 -0.1491
  412SOL  HW1   1235   1.176   2.949   1.290 -0.8072 -0.5239 -2.5258
  412SOL  HW2   1236   1.046   2.920   1.392  2.8396 -0.2917 -0.6149
  413SOL  OW    1237   0.143   0.626   2.470 -0.1370 -0.6227  0.5401
  413SOL  HW1   1238   0.139   0.613   2.577 -0.8330 -0.1339  0.1804
  413SOL  HW2   1239   0.175   0.543   2.424  2.2033 -0.3103 -1.0072
  414SOL  OW    1240   2.928   1.450   2.429  0.1467  0.3206 -0.4459
  414SOL  HW1   1241   2.832   1.453   2.460  1.4926 -2.1085  0.5006
  414SOL  HW2   1242   2.977   1.541   2.427 -0.3783  1.7935 -1.5874
  415SOL  OW    1243   1.526   1.446   2.722  0.0425  0.2888  0.4431
  415SOL  HW1   1244   1.599   1.521   2.708 -2.4844  1.6774  0.8663
  415SOL  HW2   1245   1.438   1.492   2.751  0.0683 -1.4591  1.5030
  416SOL  OW    1246   0.839   2.590   2.116  0.0985  0.3948  0.3301
  416SOL  HW1   1247   0.845   2.625   2.020 -0.6200 -2.1914 -0.3714
  416SOL  HW2   1248   0.894   2.650   2.178  1.4364  1.8075 -0.0207
  417SOL  OW    1249   0.271   0.733   1.507  0.5143 -0.0854  0.1127
  417SOL  HW1   1250   0.227   0.822   1.510 -0.1017  1.4158  0.7152
  417SOL  HW2   1251   0.205   0.651   1.512 -0.1109 -0.3711  0.1214
  418SOL  OW    1252   0.013   3.007   1.564 -0.0974 -0.1840 -0.6353
  418SOL  HW1   1253   0.050   2.937   1.626  2.4804 -1.8486 -0.6884
  418SOL  HW2   1254   0.044   0.004   1.597  1.0597  1.0406 -2.1384
  419SOL  OW    1255   1.138   0.081   2.715  0.4603  0.0627  0.3783
  419SOL  HW1   1256   1.095   3.091   2.753  3.6198  0.4879  1.7582
  419SOL  HW2   1257   1.088   0.163   2.744  0.9556 -1.4452  2.3417
  420SOL  OW    1258   2.457   1.747   1.751 -0.0945 -0.0318  0.4529
  420SOL  HW1   1259   2.404   1.747   1.666  0.0608  4.9618 -3.1270
  420SOL  HW2   1260   2.555   1.736   1.723  1.1833  2.6701  2.0351
  421SOL  OW    1261   2.384   2.368   0.670  0.2370 -0.0835 -0.2188
  421SOL  HW1   1262   2.462   2.376   0.603  2.7915 -1.5054  1.1209
  421SOL  HW2   1263   2.339   2.458   0.692  1.6736  1.7926  1.4687
  422SOL  OW    1264   2.677   0.250   1.843 -0.1609  0.1121 -0.3400
  422SOL  HW1   1265   2.631   0.159   1.850 -0.6534  2.0547 -0.8876
  422SOL  HW2   1266   2.765   0.247   1.793  0.1112 -1.4335 -0.7007
  423SOL  OW    1267   0.617   2.151   2.433  0.3284  0.3477  0.6813
  423SOL  HW1   1268   0.653   2.100   2.350  0.9779  0.3131  0.2873
  423SOL  HW2   1269   0.513   2.154   2.429 -1.2276  0.1823 -1.0090
  424SOL  OW    1270   2.355   1.822   2.643 -0.4273 -0.6064  0.1438
  424SOL  HW1   1271   2.421   1.846   2.562 -0.4313 -1.9453  1.4333
  424SOL  HW2   1272   2.364   1.725   2.660  2.5943  1.4385 -0.3492
  425SOL  OW    1273   2.774   0.071   2.105  0.1328  0.0175 -0.3120
  425SOL  HW1   1274   2.798   0.166   2.095  2.8432 -0.4666  1.1848
  425SOL  HW2   1275   2.736   0.053   2.197 -0.0138  0.0211 -1.5267
  426SOL  OW    1276   2.958   2.968   2.053  0.9310  0.5588 -0.8392
  426SOL  HW1   1277   2.895   3.040   2.078 -0.5072 -2.2342 -1.2418
  426SOL  HW2   1278   2.968   2.904   2.131  0.5783 -1.1891 -0.4465
  427SOL  OW    1279   0.275   2.814   0.932 -0.1241  0.1524 -0.2857
  427SOL  HW1   1280   0.378   2.827   0.957 -0.4757 -1.2324 -0.5382
  427SOL  HW2   1281   0.264   2.727   0.881  1.6305  1.5885  4.0737
  428SOL  OW    1282   3.055   1.276   1.689  0.2840  0.0480  0.7435
  428SOL  HW1   1283   3.085   1.236   1.777 -0.1342 -0.9482 -1.6497
  428SOL  HW2   1284   2.956   1.255   1.670  0.4805 -2.5438 -2.7249
  429SOL  OW    1285   1.602   2.714   0.593  0.1157  0.3184 -0.4849
  429SOL  HW1   1286   1.559   2.743   0.512 -2.9590 -0.0492 -0.6013
  429SOL  HW2   1287   1.541   2.726   0.676  1.8479 -1.1783 -0.4365
  430SOL  OW    1288   0.919   2.520   0.727  0.4093  0.1658  0.2730
  430SOL  HW1   1289   0.974   2.594   0.769  0.7280 -1.7166  0.4663
  430SOL  HW2   1290   0.838   2.505   0.786  3.4104  0.6003 -0.5046
  431SOL  OW    1291   2.953   1.792   1.377 -0.4836 -0.4808 -0.2152
  431SOL  HW1   1292   3.007   1.789   1.288 -2.2144  3.9189  0.5849
  431SOL  HW2   1293   3.017   1.780   1.459  0.8581 -2.0831 -0.3614
  432SOL  OW    1294   1.367   1.645   2.870  0.0452  0.4051 -0.1590
  432SOL  HW1   1295   1.295   1.614   2.941 -1.6438 -1.8702 -0.9168
  432SOL  HW2   1296   1.348   1.737   2.835 -2.3216 -0.7470 -4.0304
  433SOL  OW    1297   0.922   0.149   2.363  0.0321 -0.8330  0.1745
  433SOL  HW1   1298   1.012   0.104   2.392  0.8370  0.7000  0.0747
  433SOL  HW2   1299   0.920   0.175   2.264 -2.2732  3.3937  0.3657
  434SOL  OW    1300   1.003   2.564   2.749 -0.2451 -0.4872  0.6642
  434SOL  HW1   1301   1.052   2.535   2.665 -2.4201  1.1821  1.4164
  434SOL  HW2   1302   1.066   2.567   2.832 -0.1667 -0.9381 -2.3962
  435SOL  OW    1303   0.271   2.814   2.997 -0.4735  0.4177  0.8796
  435SOL  HW1   1304   0.277   2.711   2.983 -1.2978  1.1985  0.1505
  435SOL  HW2   1305   0.309   2.843   3.088 -0.5359 -0.2459  0.3143
  436SOL  OW    1306   0.712   2.009   2.662  0.3108 -0.7504 -0.5809
  436SOL  HW1   1307   0.701   2.062   2.577 -2.1691  0.7241 -1.4344
  436SOL  HW2   1308   0.621   1.970   2.689 -1.1696  3.5811 -1.2053
  437SOL  OW    1309   1.441   2.216   2.554 -0.6445  0.2958  0.1064
  437SOL  HW1   1310   1.463   2.259   2.645  0.1189 -1.8668  0.9649
  437SOL  HW2   1311   1.527   2.172   2.513  1.0492  0.7779  1.9047
  438SOL  OW    1312   0.830   0.750   0.681 -0.3960 -0.3180  0.0430
  438SOL  HW1   1313   0.807   0.685   0.604 -3.8734 -1.7745  1.9811
  438SOL  HW2   1314   0.909   0.709   0.734  1.1230  0.5655 -0.9248
  439SOL  OW    1315   2.540   1.150   2.496  0.1563  0.2827  0.8377
  439SOL  HW1   1316   2.523   1.052   2.482  1.8173 -1.8634  0.6332
  439SOL  HW2   1317   2.490   1.209   2.429  1.0265  0.3629  0.1038
  440SOL  OW    1318   2.994   1.419   2.171  0.4558  0.5905  0.1095
  440SOL  HW1   1319   2.967   1.401   2.270 -2.5758  0.3666 -0.1178
  440SOL  HW2   1320   2.917   1.462   2.125  1.0510  0.1390  0.1581
  441SOL  OW    1321   0.492   1.800   2.154  0.0918  0.7069 -0.1335
  441SOL  HW1   1322   0.473   1.741   2.235  0.0548  0.1804 -0.4695
  441SOL  HW2   1323   0.576   1.764   2.109 -0.4230  2.1063 -0.6782
  442SOL  OW    1324   2.044   1.798   0.699 -0.0913  0.4028  0.0782
  442SOL  HW1   1325   2.135   1.791   0.735 -1.6051 -1.3898  1.3565
  442SOL  HW2   1326   2.048   1.840   0.608 -1.9083 -0.4435 -1.6522
  443SOL  OW    1327   2.975   2.946   0.352  0.2384  0.1082 -0.6929
  443SOL  HW1   1328   3.067   2.957   0.396  0.9299 -2.8923 -0.4635
  443SOL  HW2   1329   2.923   2.878   0.408  0.0894 -0.8206 -2.4945
  444SOL  OW    1330   1.547   1.544   1.766 -0.1484 -0.4860  0.7435
  444SOL  HW1   1331   1.533   1.542   1.868  0.7256  2.6711  1.3416
  444SOL  HW2   1332   1.614   1.473   1.737 -1.2744  1.1969 -0.3699
  445SOL  OW    1333   0.118   2.596   2.363 -0.3772 -0.0367  0.2797
  445SOL  HW1   1334   0.047   2.563   2.297  0.0492  0.1804 -2.0231
  445SOL  HW2   1335   0.155   2.519   2.419 -0.3604 -0.8521  0.3572
  446SOL  OW    1336   0.680   0.879   2.551  0.0278 -0.1689 -0.2857
  446SOL  HW1   1337   0.594   0.857   2.602 -2.2487  2.0024  0.6549
  446SOL  HW2   1338   0.713   0.802   2.489 -0.2465  3.7805 -0.8046
  447SOL  OW    1339   0.820   0.907   1.197  0.5757  0.1363 -0.0302
  447SOL  HW1   1340   0.745   0.954   1.249  2.4299  0.3413  1.9418
  447SOL  HW2   1341   0.773   0.843   1.134  1.1523  1.3217 -0.3096
  448SOL  OW    1342   1.736   1.173   2.121 -0.4501  0.1603  0.3236
  448SOL  HW1   1343   1.738   1.228   2.207 -0.8912 -1.0899  2.0645
  448SOL  HW2   1344   1.833   1.154   2.098  0.9808  1.8378  0.1952
  449SOL  OW    1345   2.504   1.309   0.107 -0.6731  0.0933  0.0115
  449SOL  HW1   1346   2.506   1.227   0.043 -0.8146 -0.8838 -3.1012
  449SOL  HW2   1347   2.599   1.326   0.144  0.4005 -0.4724 -0.6011
  450SOL  OW    1348   1.747   2.016   1.457  0.1713  0.0621 -0.4183
  450SOL  HW1   1349   1.818   1.964   1.514  2.5070 -0.4916 -0.7500
  450SOL  HW2   1350   1.663   1.955   1.440 -0.1058  2.4811  0.4522
  451SOL  OW    1351   1.531   0.812   0.967  0.1486  0.3387  0.0648
  451SOL  HW1   1352   1.481   0.863   0.887  1.5750  0.5037 -0.3734
  451SOL  HW2   1353   1.632   0.819   0.962  1.0990 -0.0998 -0.7650
  452SOL  OW    1354   0.624   0.996   1.366  0.1430  0.0972 -0.5583
  452SOL  HW1   1355   0.562   0.911   1.358 -1.0808 -0.6758  0.6728
  452SOL  HW2   1356   0.626   1.016   1.466  3.4080  0.4649  1.1711
  453SOL  OW    1357   0.742   1.746   1.435 -0.2189 -0.5496  0.3186
  453SOL  HW1   1358   0.813   1.709   1.499 -1.9144 -1.9139 -1.4566
  453SOL  HW2   1359   0.652   1.689   1.447  0.2760 -2.8259  1.1460
  454SOL  OW    1360   1.660   0.600   0.533  0.4386 -0.3994 -0.0631
  454SOL  HW1   1361   1.717   0.669   0.586 -1.2299  2.7724  0.8493
  454SOL  HW2   1362   1.603   0.652   0.463  1.7492 -1.2866  2.1033
  455SOL  OW    1363   1.254   0.459   1.666 -0.1288  0.2488  0.6991
  455SOL  HW1   1364   1.284   0.488   1.758  0.3345  2.7510 -0.2892
  455SOL  HW2   1365   1.166   0.413   1.676 -2.8056  0.2991  2.9848
  456SOL  OW    1366   1.796   2.879   0.290 -0.3131  0.0571 -0.5956
  456SOL  HW1   1367   1.713   2.826   0.319 -0.8638  1.3231 -2.2355
  456SOL  HW2   1368   1.815   2.867   0.191  0.9660 -3.7750  1.8228
  457SOL  OW    1369   1.734   0.922   1.824  0.4230  0.2403 -0.4970
  457SOL  HW1   1370   1.701   1.020   1.828  1.5126 -0.2390 -3.5727
  457SOL  HW2   1371   1.707   0.868   1.910  0.0168  1.1937  1.7838
  458SOL  OW    1372   1.635   0.222   1.513 -0.3159 -0.0823 -0.2937
  458SOL  HW1   1373   1.735   0.234   1.544 -0.7698  0.9471  1.0220
  458SOL  HW2   1374   1.631   0.151   1.442  0.2846  1.3335 -2.5040
  459SOL  OW    1375   2.734   2.268   2.440 -0.1026 -0.7648 -0.5958
  459SOL  HW1   1376   2.718   2.178   2.394  2.6681 -0.9629  0.4086
  459SOL  HW2   1377   2.799   2.263   2.517 -1.0170 -2.0212  0.4269
  460SOL  OW    1378   1.770   1.328   2.336 -0.0229 -0.7112  0.3067
  460SOL  HW1   1379   1.845   1.284   2.401  0.8803  0.4890 -0.0558
  460SOL  HW2   1380   1.749   1.426   2.360  1.5054  0.1782 -1.1349
  461SOL  OW    1381   0.637   2.535   0.135  0.2055 -0.1291 -0.2351
  461SOL  HW1   1382   0.627   2.587   0.049 -2.0457 -0.2583 -0.3926
  461SOL  HW2   1383   0.545   2.491   0.151  1.5028 -0.2419 -1.4241
  462SOL  OW    1384   1.923   2.723   2.300  0.6368  0.0091 -0.0522
  462SOL  HW1   1385   1.877   2.809   2.271 -0.4140  1.6084  1.5049
  462SOL  HW2   1386   1.888   2.638   2.252 -3.9250  0.7446  0.9929
  463SOL  OW    1387   2.320   2.342   1.625 -0.5361  0.0395 -0.6193
  463SOL  HW1   1388   2.257   2.309   1.556 -1.3066  1.2308 -1.6429
  463SOL  HW2   1389   2.312   2.447   1.622 -0.8810 -0.6618 -0.3661
  464SOL  OW    1390   2.736   2.759   1.398  0.4002 -0.2752 -0.2034
  464SOL  HW1   1391   2.781   2.683   1.349  2.0979 -2.3677  2.3395
  464SOL  HW2   1392   2.671   2.726   1.471 -1.7549 -2.0437 -1.6902
  465SOL  OW    1393   2.471   2.977   1.649  0.3561 -0.4766 -0.4243
  465SOL  HW1   1394   2.563   2.977   1.685 -1.6480 -3.6010  1.6711
  465SOL  HW2   1395   2.427   3.072   1.673 -2.5786 -0.5017 -1.3951
  466SOL  OW    1396   0.746   2.972   2.679  0.4003  0.0446 -0.5227
  466SOL  HW1   1397   0.674   3.044   2.706 -0.3141 -0.5491 -2.1476
  466SOL  HW2   1398   0.776   2.980   2.582 -1.4318  0.9056 -1.0965
  467SOL  OW    1399   0.825   2.378   0.532 -0.0069  0.6114 -0.2420
  467SOL  HW1   1400   0.758   2.313   0.574  1.0519 -0.5888 -2.7844
  467SOL  HW2   1401   0.870   2.433   0.604 -0.0578  1.2930  0.6686
  468SOL  OW    1402   2.847   2.248   0.320 -0.1292  0.0752  0.2718
  468SOL  HW1   1403   2.850   2.283   0.416 -1.3678  0.5979 -0.6769
  468SOL  HW2   1404   2.840   2.149   0.319 -0.2001 -2.1144 -1.5376
  469SOL  OW    1405   0.567   1.755   0.673 -0.3933  0.6825  0.1631
  469SOL  HW1   1406   0.532   1.766   0.769  2.1386  2.1590  2.2149
  469SOL  HW2   1407   0.538   1.665   0.636  0.9934  1.6524 -1.9450
  470SOL  OW    1408   1.638   0.051   1.024 -0.0893 -0.5195 -0.4477
  470SOL  HW1   1409   1.644   3.043   1.007  1.9430  0.0453 -2.1458
  470SOL  HW2   1410   1.725   0.100   1.009  0.7312  2.0603 -1.9799
  471SOL  OW    1411   0.205   2.155   2.985  0.5710 -0.3663  0.1365
  471SOL  HW1   1412   0.290   2.188   3.026 -2.1969 -0.1301  0.7360
  471SOL  HW2   1413   0.146   2.236   2.959  0.0870 -1.9356  1.9003
  472SOL  OW    1414   0.551   2.076   0.519 -0.1088  0.1372 -0.0562
  472SOL  HW1   1415   0.594   2.042   0.431 -1.0374 -0.2617  1.9613
  472SOL  HW2   1416   0.622   2.116   0.584 -0.6258  1.2596  2.7650
  473SOL  OW    1417   0.849   2.374   1.443 -0.0307  0.2277  0.1584
  473SOL  HW1   1418   0.905   2.414   1.519  0.7921  0.4497 -0.9980
  473SOL  HW2   1419   0.840   2.274   1.460 -0.1014 -0.9413  0.7668
  474SOL  OW    1420   2.881   0.364   1.139  0.0125  0.2383  0.4840
  474SOL  HW1   1421   2.897   0.312   1.226 -0.8022  0.3015 -0.7082
  474SOL  HW2   1422   2.792   0.331   1.098 -0.5706  0.1864  1.0440
  475SOL  OW    1423   0.156   0.527   1.730 -0.4157  0.3214  0.3934
  475SOL  HW1   1424   0.111   0.516   1.637 -0.6166 -3.9772 -1.2861
  475SOL  HW2   1425   0.152   0.621   1.771 -1.8457  0.9013  0.3686
  476SOL  OW    1426   0.758   0.001   0.719 -0.3569  0.0446  0.2255
  476SOL  HW1   1427   0.786   3.009   0.679 -1.2974 -2.3027  0.4344
  476SOL  HW2   1428   0.744   0.062   0.642 -0.3040  1.0005  0.5528
  477SOL  OW    1429   0.526   2.913   1.670  0.0360 -0.2010 -0.2787
  477SOL  HW1   1430   0.448   2.965   1.620 -1.0262 -0.0538  0.2974
  477SOL  HW2   1431   0.596   2.983   1.695  0.1078  1.2493  1.5691
  478SOL  OW    1432   1.271   2.023   1.687  0.0545 -0.0497  0.0265
  478SOL  HW1   1433   1.305   2.102   1.629 -3.0756 -1.5429  3.5162
  478SOL  HW2   1434   1.332   2.022   1.770 -0.2040  0.2831  0.6387
  479SOL  OW    1435   2.357   0.950   1.219  0.3472 -0.3133  0.3032
  479SOL  HW1   1436   2.310   0.864   1.249  1.1395  2.3784  3.6423
  479SOL  HW2   1437   2.320   0.980   1.131  1.5597 -0.6795 -0.4402
  480SOL  OW    1438   1.962   2.348   2.911  0.8887 -0.1526 -0.1741
  480SOL  HW1   1439   2.014   2.433   2.889  0.3303  2.5006  1.8648
  480SOL  HW2   1440   2.025   2.271   2.941  0.2141  3.0275 -1.8994
  481SOL  OW    1441   1.006   2.624   1.242  0.3472 -0.0840  0.3203
  481SOL  HW1   1442   1.077   2.617   1.170  0.2525  0.5974  0.5270
  481SOL  HW2   1443   0.909   2.622   1.199 -3.8257  0.8487 -0.7351
  482SOL  OW    1444   1.402   2.256   1.572  0.3148  0.0651 -0.4870
  482SOL  HW1   1445   1.357   2.314   1.640 -1.6091 -1.1647  1.0064
  482SOL  HW2   1446   1.358   2.268   1.477 -0.0051  2.5118  1.3736
  483SOL  OW    1447   0.612   0.630   2.131 -0.0298  0.0961  0.2616
  483SOL  HW1   1448   0.513   0.607   2.129 -2.2487  2.0805  1.4384
  483SOL  HW2   1449   0.658   0.592   2.050  1.0149 -1.0592 -0.4604
  484SOL  OW    1450   2.112   3.056   1.424  0.3591 -0.1038  0.6986
  484SOL  HW1   1451   2.040   0.031   1.389  4.2961  0.5004  0.4136
  484SOL  HW2   1452   2.108   3.048   1.523 -2.0691 -1.2019 -3.2295
  485SOL  OW    1453   1.801   0.228   0.732 -0.0042 -0.2071  0.0865
  485SOL  HW1   1454   1.857   0.207   0.815 -0.6680 -2.3968  1.8232
  485SOL  HW2   1455   1.856   0.267   0.659  2.3781 -1.9853  0.1782
  486SOL  OW    1456   2.231   2.653   3.052  0.2665 -0.3512 -0.0527
  486SOL  HW1   1457   2.146   2.647   2.990  1.8508 -0.4822  2.3795
  486SOL  HW2   1458   2.295   2.715   3.008 -0.8030 -1.7508  0.8224
  487SOL  OW    1459   1.083   1.448   1.242  0.3906 -0.7546  0.0566
  487SOL  HW1   1460   1.048   1.534   1.192 -0.4861  0.9220 -2.1439
  487SOL  HW2   1461   1.053   1.436   1.336  1.8498  0.1279  0.7208
  488SOL  OW    1462   2.621   2.477   2.078  0.6887 -0.2392  0.0447
  488SOL  HW1   1463   2.541   2.418   2.101 -1.8352  0.6941  3.7803
  488SOL  HW2   1464   2.694   2.463   2.144 -2.9921 -1.6680  0.1797
  489SOL  OW    1465   1.130   2.088   0.451 -0.7463 -0.0698 -0.4403
  489SOL  HW1   1466   1.044   2.075   0.393 -2.4021  1.3924  0.7385
  489SOL  HW2   1467   1.163   2.184   0.461  1.3265  1.6976 -0.0287
  490SOL  OW    1468   1.636   0.384   3.048 -0.0898  0.0372 -0.2820
  490SOL  HW1   1469   1.671   0.345   0.042  1.1159  0.8645  2.8988
  490SOL  HW2   1470   1.575   0.319   2.994 -1.3248  0.7482  0.0435
  491SOL  OW    1471   1.163   3.012   1.818  0.7659  0.0026 -0.1573
  491SOL  HW1   1472   1.112   3.009   1.907  1.8565 -0.3990 -2.9545
  491SOL  HW2   1473   1.160   2.920   1.770  0.9882 -0.7113 -2.2111
  492SOL  OW    1474   1.711   2.128   0.216  0.5782  0.4856 -0.0309
  492SOL  HW1   1475   1.810   2.110   0.209 -2.4052  3.9083 -1.0003
  492SOL  HW2   1476   1.658   2.067   0.150  1.7320 -0.5162 -2.9475
  493SOL  OW    1477   1.580   2.348   0.104 -0.1427  0.2526 -0.7890
  493SOL  HW1   1478   1.483   2.324   0.085 -3.6146 -0.1545 -0.8259
  493SOL  HW2   1479   1.627   2.272   0.155 -0.2047 -0.4490 -1.3377
  494SOL  OW    1480   0.513   0.802   0.106  0.0690 -0.3160  0.2050
  494SOL  HW1   1481   0.421   0.830   0.138 -0.9735  0.8504  1.8968
  494SOL  HW2   1482   0.574   0.880   0.097  0.6182  2.4273 -0.8293
  495SOL  OW    1483   2.498   0.589   1.206  0.4031 -0.1151 -0.4599
  495SOL  HW1   1484   2.400   0.622   1.213  1.4698  0.2455 -1.7033
  495SOL  HW2   1485   2.506   0.499   1.253  0.6176 -2.7456  1.7542
  496SOL  OW    1486   2.710   2.046   2.320  0.0284 -0.3720 -0.2268
  496SOL  HW1   1487   2.785   2.065   2.250  0.0106  0.4616 -1.1532
  496SOL  HW2   1488   2.622   2.038   2.272  0.1233 -0.7236 -0.2313
  497SOL  OW    1489   1.853   1.678   2.921 -0.3355 -0.2780 -0.1458
  497SOL  HW1   1490   1.907   1.767   2.906  0.9311 -2.4877 -0.6727
  497SOL  HW2   1491   1.895   1.586   2.891  1.5092  1.5149  1.2213
  498SOL  OW    1492   1.298   1.697   1.117  0.1575  0.1138  0.3728
  498SOL  HW1   1493   1.321   1.609   1.158  2.6129 -0.8170 -1.6619
  498SOL  HW2   1494   1.199   1.687   1.083  0.6456 -0.1041 -1.2662
  499SOL  OW    1495   2.601   2.002   1.348 -0.0603 -0.0987  0.3028
  499SOL  HW1   1496   2.597   2.081   1.286  2.3908  0.0405 -0.4645
  499SOL  HW2   1497   2.652   2.023   1.433  0.3973  2.4022  1.6665
  500SOL  OW    1498   0.606   2.674   3.004  0.0036  0.2601 -0.2705
  500SOL  HW1   1499   0.510   2.648   2.987  1.6017  4.9618  0.3251
  500SOL  HW2   1500   0.650   2.687   2.911 -0.5908  0.3831 -0.6312
  501SOL  OW    1501   1.341   1.983   0.143 -0.0546  0.4367  0.2959
  501SOL  HW1   1502   1.257   1.930   0.121  1.1859  1.1527 -1.3352
  501SOL  HW2   1503   1.345   2.069   0.091 -1.7928 -0.7354  1.1614
  502SOL  OW    1504   0.427   0.869   1.835  0.5235  0.3048  0.0804
  502SOL  HW1   1505   0.419   0.940   1.767 -1.5140 -2.1232  0.6860
  502SOL  HW2   1506   0.458   0.781   1.790 -0.9429  0.9171  0.5628
  503SOL  OW    1507   2.937   2.842   1.815  0.3985 -0.7708 -0.8911
  503SOL  HW1   1508   2.950   2.887   1.910 -0.8624  1.6855 -0.7547
  503SOL  HW2   1509   3.026   2.813   1.775  0.4490 -0.6642  2.1614
  504SOL  OW    1510   1.916   1.235   1.087  0.2393  0.4819  0.3591
  504SOL  HW1   1511   1.827   1.279   1.060 -1.0224  0.7123  2.8874
  504SOL  HW2   1512   1.977   1.295   1.139  2.6641 -0.6710  0.9068
  505SOL  OW    1513   2.047   2.599   2.863  0.2325 -0.3572  0.0377
  505SOL  HW1   1514   1.962   2.637   2.830  1.4151  0.2033 -0.2320
  505SOL  HW2   1515   2.116   2.641   2.799  0.6485 -1.3135  1.8944
  506SOL  OW    1516   2.682   2.899   1.804 -0.5804 -0.3384  0.2542
  506SOL  HW1   1517   2.785   2.886   1.798 -0.5254 -2.2480 -0.9041
  506SOL  HW2   1518   2.640   2.807   1.841  0.4490  0.9789 -3.0552
  507SOL  OW    1519   1.623   2.809   1.192  0.2598  0.6026 -0.8846
  507SOL  HW1   1520   1.623   2.718   1.235 -0.0908 -1.5263 -2.7491
  507SOL  HW2   1521   1.560   2.869   1.242  1.8656 -0.7365 -1.3672
  508SOL  OW    1522   1.608   0.582   1.639  0.0315 -0.0147 -0.0368
  508SOL  HW1   1523   1.622   0.506   1.569  0.2525  0.7053 -1.3562
  508SOL  HW2   1524   1.636   0.545   1.728 -0.6240  0.3240 -0.6705
  509SOL  OW    1525   0.904   2.035   0.015  0.2929  0.7047  0.3095
  509SOL  HW1   1526   0.896   2.068   3.015  0.6687 -1.3081  0.5485
  509SOL  HW2   1527   0.943   2.104   0.075 -2.0441  2.5032 -0.0222
  510SOL  OW    1528   0.605   0.385   0.765 -0.1169  0.1241  0.6269
  510SOL  HW1   1529   0.693   0.402   0.714 -1.4021 -0.1968 -0.8489
  510SOL  HW2   1530   0.615   0.387   0.866 -2.1560 -1.4877  0.9838
  511SOL  OW    1531   0.976   0.735   1.347 -0.2734 -0.1012  0.1299
  511SOL  HW1   1532   0.925   0.815   1.305  1.9878 -2.4918 -0.0599
  511SOL  HW2   1533   1.074   0.738   1.328  1.7806 -0.7177  0.3079
  512SOL  OW    1534   0.139   2.425   1.122  0.0107 -0.5001 -0.8043
  512SOL  HW1   1535   0.237   2.449   1.115 -0.8751  0.1012  2.0981
  512SOL  HW2   1536   0.106   2.452   1.210 -2.5963  0.6885 -2.6367
  513SOL  OW    1537   0.385   2.140   0.948 -0.6462  0.1025  0.0698
  513SOL  HW1   1538   0.432   2.184   1.024  0.0166 -1.4598  0.8374
  513SOL  HW2   1539   0.292   2.179   0.938  3.6003  0.7029  0.8867
  514SOL  OW    1540   0.436   0.025   0.444  0.2115 -0.4077  0.2208
  514SOL  HW1   1541   0.359   0.031   0.378  0.4322 -2.8107 -2.1341
  514SOL  HW2   1542   0.440   0.101   0.509  0.5048  0.7048  0.3101
  515SOL  OW    1543   0.125   0.364   0.316  0.2146  0.1159 -0.2547
  515SOL  HW1   1544   0.172   0.429   0.381  2.3020  0.3694  0.7259
  515SOL  HW2   1545   0.132   0.386   0.219 -0.1034  3.1996  0.3446
  516SOL  OW    1546   1.812   2.886   0.701 -0.1298 -0.4228 -0.1450
  516SOL  HW1   1547   1.761   2.815   0.649  2.1066  1.0548 -0.0713
  516SOL  HW2   1548   1.777   2.892   0.797  2.0375  0.3522  2.5429
  517SOL  OW    1549   1.816   2.550   0.585  0.1691 -0.4055  0.1395
  517SOL  HW1   1550   1.828   2.509   0.494 -0.5877  1.4010  1.0635
  517SOL  HW2   1551   1.720   2.594   0.597  1.1317 -2.8647 -1.9730
  518SOL  OW    1552   1.586   2.170   0.454 -0.1122 -0.0174 -0.1889
  518SOL  HW1   1553   1.502   2.115   0.455 -2.6309  0.6104 -0.5691
  518SOL  HW2   1554   1.634   2.151   0.370 -0.8895  1.6448  0.4814
  519SOL  OW    1555   0.135   2.097   0.396 -0.4261  0.4022  0.9361
  519SOL  HW1   1556   0.205   2.168   0.391  1.5722 -1.7673 -0.4739
  519SOL  HW2   1557   0.091   2.096   0.304  0.5770  0.0356  0.4409
  520SOL  OW    1558   1.844   2.230   1.794  1.4060  0.5247 -0.5445
  520SOL  HW1   1559   1.919   2.282   1.750  1.8039 -2.3265 -0.6557
  520SOL  HW2   1560   1.768   2.225   1.725 -2.7329 -0.3766 -1.3936
  521SOL  OW    1561   1.952   2.703   1.923 -0.4985 -0.8346 -0.3798
  521SOL  HW1   1562   2.004   2.777   1.967 -0.2206  1.8407 -1.3893
  521SOL  HW2   1563   1.855   2.715   1.939 -1.5538 -1.0917  1.7838
  522SOL  OW    1564   2.843   2.605   1.715 -0.1325 -0.2009  0.2121
  522SOL  HW1   1565   2.820   2.598   1.616 -2.3187  1.4957  0.7765
  522SOL  HW2   1566   2.860   2.700   1.746 -1.2971 -2.6006  0.1634
  523SOL  OW    1567   2.531   2.734   2.585  0.3897  0.0736 -0.2704
  523SOL  HW1   1568   2.506   2.823   2.628 -0.9761  0.2406  0.7673
  523SOL  HW2   1569   2.614   2.695   2.635 -1.6463  0.8760  0.3493
  524SOL  OW    1570   2.455   2.363   0.222  0.2329 -0.5030  1.0167
  524SOL  HW1   1571   2.469   2.263   0.252 -1.0731  3.5376 -0.0191
  524SOL  HW2   1572   2.422   2.414   0.303 -0.5781 -1.6308  1.2023
  525SOL  OW    1573   2.300   1.003   0.595  0.0782  0.8798 -0.1974
  525SOL  HW1   1574   2.218   1.055   0.624  2.5431 -0.9795  0.4784
  525SOL  HW2   1575   2.274   0.909   0.573  1.5229  0.2558 -2.3338
  526SOL  OW    1576   0.344   2.860   0.162 -0.1471 -0.5993  0.4172
  526SOL  HW1   1577   0.438   2.869   0.199  0.2846  1.9403 -1.4656
  526SOL  HW2   1578   0.294   2.943   0.196 -1.8380 -1.9417 -0.1649
  527SOL  OW    1579   3.018   1.496   0.837 -0.1284 -0.0161  0.8266
  527SOL  HW1   1580   2.990   1.558   0.912 -0.8427 -2.5731 -0.4909
  527SOL  HW2   1581   2.976   1.401   0.849 -2.2027  0.0959  0.1911
  528SOL  OW    1582   1.058   1.311   2.625 -0.1840 -0.3890  0.7425
  528SOL  HW1   1583   0.983   1.274   2.569  2.2283  1.2560  0.3518
  528SOL  HW2   1584   1.141   1.344   2.572  2.5635  0.5421  0.1190
  529SOL  OW    1585   1.541   0.714   0.318  0.0988 -0.5117 -0.0670
  529SOL  HW1   1586   1.524   0.674   0.226  1.8792 -0.0379  1.5675
  529SOL  HW2   1587   1.605   0.793   0.320 -0.3507 -0.6059 -3.0146
  530SOL  OW    1588   1.601   3.056   2.570 -0.2376  0.2645  0.2581
  530SOL  HW1   1589   1.536   0.042   2.576 -3.0070  0.9949  0.0839
  530SOL  HW2   1590   1.619   3.017   2.662 -0.5580  2.1677  0.7208
  531SOL  OW    1591   1.137   1.478   0.404 -0.5067 -0.6982  0.0619
  531SOL  HW1   1592   1.187   1.478   0.495 -3.1559  0.9349  0.4859
  531SOL  HW2   1593   1.043   1.447   0.424  1.7747  0.1041 -1.5625
  532SOL  OW    1594   2.810   0.839   0.294 -0.1364  0.0450  0.2820
  532SOL  HW1   1595   2.896   0.803   0.246 -1.0227 -2.6698 -0.2156
  532SOL  HW2   1596   2.737   0.768   0.288  0.3987  2.2690 -0.8335
  533SOL  OW    1597   0.439   0.219   2.343 -0.3981 -0.5368 -0.5422
  533SOL  HW1   1598   0.398   0.128   2.331  4.0114 -2.3855  0.4627
  533SOL  HW2   1599   0.485   0.226   2.436  0.0686  0.3119  0.6002
  534SOL  OW    1600   2.422   2.962   2.698 -0.1531  0.1380  0.4698
  534SOL  HW1   1601   2.344   2.972   2.632 -0.3124 -1.5130  1.6290
  534SOL  HW2   1602   2.459   3.054   2.727  4.4619 -1.8166  2.7694
  535SOL  OW    1603   0.974   0.634   2.670  0.6704 -0.3529 -0.0578
  535SOL  HW1   1604   1.033   0.692   2.731 -0.4788  1.1801  1.6491
  535SOL  HW2   1605   0.890   0.620   2.724 -0.5479  1.6244 -2.5426
  536SOL  OW    1606   0.590   2.702   0.609  0.1623  0.4830  0.2792
  536SOL  HW1   1607   0.684   2.736   0.595  1.3676 -0.8906 -1.3886
  536SOL  HW2   1608   0.576   2.652   0.694  0.4155  2.6041  0.5423
  537SOL  OW    1609   2.887   0.637   1.219 -0.1129  0.0051 -0.0083
  537SOL  HW1   1610   2.904   0.542   1.195  2.6358  1.2364  0.9976
  537SOL  HW2   1611   2.817   0.645   1.292 -0.8559  0.6298  0.7511
  538SOL  OW    1612   1.128   2.315   0.776  0.1125  0.3921  0.3006
  538SOL  HW1   1613   1.113   2.232   0.837  0.9908 -0.9229  2.0319
  538SOL  HW2   1614   1.038   2.352   0.741 -2.0645  3.1270  0.5914
  539SOL  OW    1615   1.670   0.525   1.901  0.2303 -0.3615 -0.3756
  539SOL  HW1   1616   1.732   0.601   1.920  0.5214  0.8653 -0.7044
  539SOL  HW2   1617   1.708   0.436   1.937  0.2851 -1.5236 -0.5218
  540SOL  OW    1618   2.010   2.839   2.683  0.2899 -0.2958  0.3349
  540SOL  HW1   1619   2.082   2.776   2.642 -2.6718 -1.9089  2.0724
  540SOL  HW2   1620   2.014   2.934   2.642  0.4445  0.5702 -1.9269
  541SOL  OW    1621   1.137   1.218   2.264 -0.4157 -0.4536 -0.0101
  541SOL  HW1   1622   1.198   1.242   2.340  1.7329  0.5772  1.7467
  541SOL  HW2   1623   1.090   1.128   2.274  0.6774 -1.7376 -0.0660
  542SOL  OW    1624   1.246   1.858   1.326  0.0210  0.2866  0.2478
  542SOL  HW1   1625   1.257   1.804   1.242  1.1945 -3.3233 -0.3329
  542SOL  HW2   1626   1.181   1.936   1.298  0.0475 -3.0262 -1.5649
  543SOL  OW    1627   1.271   2.658   0.128 -0.1407  0.6099 -0.4484
  543SOL  HW1   1628   1.271   2.759   0.103 -2.0537 -1.3471 -1.8107
  543SOL  HW2   1629   1.204   2.632   0.201  2.1714 -0.7610  2.2731
  544SOL  OW    1630   2.762   2.007   1.863 -0.5489 -0.6064 -0.1396
  544SOL  HW1   1631   2.661   2.010   1.877  0.1774  0.9599  2.6264
  544SOL  HW2   1632   2.798   1.913   1.861 -2.6068  1.1079 -1.5365
  545SOL  OW    1633   2.018   1.573   1.383  0.0996  0.6592 -0.0859
  545SOL  HW1   1634   1.918   1.566   1.389  2.8878 -0.8759 -0.2680
  545SOL  HW2   1635   2.065   1.580   1.475  0.6862  2.3434 -3.2517
  546SOL  OW    1636   2.584   0.380   2.758 -0.4038 -0.3036 -0.2236
  546SOL  HW1   1637   2.621   0.420   2.843 -0.8722 -0.7039  0.1089
  546SOL  HW2   1638   2.500   0.429   2.726 -0.8938  2.4139  2.8924
  547SOL  OW    1639   0.697   1.027   1.654 -0.3564 -0.4135 -0.6593
  547SOL  HW1   1640   0.741   0.976   1.732 -0.9758  2.7399  0.8646
  547SOL  HW2   1641   0.749   1.114   1.625  0.5525 -0.2767 -0.5691
  548SOL  OW    1642   1.434   1.953   0.400 -0.1190 -0.4811  0.3779
  548SOL  HW1   1643   1.360   1.897   0.446  1.6268  0.2742  0.1938
  548SOL  HW2   1644   1.399   1.977   0.306 -0.4245  0.5241  0.6868
  549SOL  OW    1645   1.756   0.857   3.009 -0.3053  0.2227  0.3553
  549SOL  HW1   1646   1.695   0.868   2.927  0.0640 -3.2368 -0.0188
  549SOL  HW2   1647   1.721   0.905   3.090 -0.3291 -2.0957 -3.6361
  550SOL  OW    1648   2.123   1.367   1.220 -0.3950 -0.3689 -0.5469
  550SOL  HW1   1649   2.173   1.298   1.276  2.2193  0.2191 -0.1579
  550SOL  HW2   1650   2.089   1.436   1.284 -0.1395 -0.3729  0.5615
  551SOL  OW    1651   1.662   2.879   0.937 -0.6406 -0.5428  0.6956
  551SOL  HW1   1652   1.578   2.845   0.889  1.3371  0.3649  0.8216
  551SOL  HW2   1653   1.657   2.844   1.035 -0.4396 -2.8084  1.6132
  552SOL  OW    1654   0.072   1.417   2.581  0.3526 -0.0595  0.1719
  552SOL  HW1   1655   0.131   1.333   2.572  1.0782  0.0554  0.1697
  552SOL  HW2   1656   3.081   1.397   2.533 -1.3502  1.8772 -0.8683
  553SOL  OW    1657   0.459   2.235   3.064  0.3458  0.5963  0.2755
  553SOL  HW1   1658   0.473   2.273   2.967  3.4154  0.3141 -1.2315
  553SOL  HW2   1659   0.519   2.155   3.083 -1.1282 -1.2966 -0.7606
  554SOL  OW    1660   0.991   1.100   0.607  0.0167 -0.0231 -0.4803
  554SOL  HW1   1661   1.048   1.114   0.691  0.4167 -2.4283 -0.0776
  554SOL  HW2   1662   1.033   1.028   0.544  1.3676 -1.9785  0.7632
  555SOL  OW    1663   0.742   2.986   1.964 -0.4646 -0.1477  0.2395
  555SOL  HW1   1664   0.842   2.974   1.970  2.4338 -0.1942 -2.1317
  555SOL  HW2   1665   0.698   2.897   1.935  2.1278 -1.1984 -0.2565
  556SOL  OW    1666   0.469   0.759   1.322 -0.4610 -0.2852  0.2047
  556SOL  HW1   1667   0.475   0.662   1.288 -0.5510  1.7111 -2.6328
  556SOL  HW2   1668   0.398   0.760   1.398  2.4144 -0.2498  0.2831
  557SOL  OW    1669   1.954   0.368   0.560 -0.0210  0.1824 -0.3166
  557SOL  HW1   1670   2.049   0.323   0.549  0.8780  0.0765 -0.8774
  557SOL  HW2   1671   1.910   0.394   0.471 -0.6876 -1.2976 -2.1808
  558SOL  OW    1672   1.010   0.983   2.002  0.4812  0.5998 -0.1417
  558SOL  HW1   1673   1.095   1.024   1.960 -0.5825 -0.3389 -3.3385
  558SOL  HW2   1674   1.016   0.990   2.102  0.7679  0.4080 -0.0413
  559SOL  OW    1675   0.952   3.001   3.089  0.0628 -0.6666  0.4906
  559SOL  HW1   1676   0.922   0.005   0.003  0.6862  1.4344  0.5839
  559SOL  HW2   1677   0.881   2.942   0.028 -0.6529 -2.1369 -1.1095
  560SOL  OW    1678   2.045   2.100   0.626 -0.0035  0.0945  0.5675
  560SOL  HW1   1679   2.123   2.130   0.683  1.8234  0.8101 -2.7973
  560SOL  HW2   1680   1.957   2.110   0.677 -1.2721 -1.8692  1.9196
  561SOL  OW    1681   1.224   2.345   0.489  0.6625  0.2024 -0.6707
  561SOL  HW1   1682   1.164   2.349   0.571 -0.1584 -3.0428  1.4832
  561SOL  HW2   1683   1.325   2.354   0.514 -1.4443 -2.6668  1.0372
  562SOL  OW    1684   0.866   1.546   2.205 -0.1587 -0.1441  0.5855
  562SOL  HW1   1685   0.809   1.461   2.223  0.6669  1.0103 -0.7612
  562SOL  HW2   1686   0.820   1.613   2.141 -0.3755  0.6808  1.0203
  563SOL  OW    1687   1.688   1.663   2.686 -0.4778 -0.1840  0.2512
  563SOL  HW1   1688   1.635   1.752   2.682 -0.8612 -1.1055 -1.3972
  563SOL  HW2   1689   1.762   1.670   2.758  1.0319  1.3145 -1.6379
  564SOL  OW    1690   3.070   0.970   0.863 -0.3419  0.0675  0.0668
  564SOL  HW1   1691   2.970   0.981   0.882 -0.6717  2.5956 -0.0493
  564SOL  HW2   1692   0.003   0.907   0.790  1.1236  1.6967  0.7344
  565SOL  OW    1693   0.527   0.652   0.389  0.2621 -0.5764 -0.4515
  565SOL  HW1   1694   0.514   0.711   0.303  0.0836  0.4682  2.0059
  565SOL  HW2   1695   0.624   0.651   0.415 -1.5696 -0.5568 -0.2685
  566SOL  OW    1696   0.239   2.620   0.199  0.1338 -0.0602  0.3218
  566SOL  HW1   1697   0.290   2.709   0.186  1.8173 -0.6295  0.9387
  566SOL  HW2   1698   0.296   2.540   0.171 -2.6096 -1.2619  0.3074
  567SOL  OW    1699   2.005   1.055   0.890 -0.6194  0.4348  0.2367
  567SOL  HW1   1700   1.988   1.112   0.972  0.4702 -1.9800  3.7096
  567SOL  HW2   1701   1.918   1.017   0.850 -2.1425 -1.0896 -0.4491
  568SOL  OW    1702   1.895   0.791   2.236 -0.0321  0.3913 -0.2374
  568SOL  HW1   1703   1.870   0.862   2.299 -0.9143  1.1410  0.7008
  568SOL  HW2   1704   1.971   0.739   2.275  1.2622  0.3334 -2.6588
  569SOL  OW    1705   1.388   1.053   0.807 -0.3953  0.7591  0.1235
  569SOL  HW1   1706   1.293   1.016   0.819  0.9354  0.6453 -0.1193
  569SOL  HW2   1707   1.399   1.112   0.723 -0.4530 -1.0553 -0.7001
  570SOL  OW    1708   2.200   2.268   1.982  0.7252 -0.2081  0.3315
  570SOL  HW1   1709   2.155   2.353   1.947 -0.7186  0.2240  0.7374
  570SOL  HW2   1710   2.244   2.211   1.908  0.4561  0.0412  1.2062
  571SOL  OW    1711   0.059   2.259   2.276  0.3867 -0.4317 -0.6525
  571SOL  HW1   1712   0.141   2.232   2.221 -2.1480  0.8203 -1.9518
  571SOL  HW2   1713   0.025   2.353   2.242 -2.3633  2.8448  0.6108
  572SOL  OW    1714   0.960   2.524   2.457 -0.3986  0.4067  0.1340
  572SOL  HW1   1715   0.965   2.625   2.431 -0.7405  2.2745  1.4684
  572SOL  HW2   1716   0.865   2.498   2.495 -1.1232  4.0292  2.1415
  573SOL  OW    1717   1.602   1.803   0.540 -0.4057  0.2388 -0.1228
  573SOL  HW1   1718   1.545   1.863   0.483  1.5367 -0.1925 -1.9382
  573SOL  HW2   1719   1.659   1.844   0.615  0.1879  2.1994 -0.1676
  574SOL  OW    1720   1.360   2.463   1.314  0.2248 -0.0897  0.4102
  574SOL  HW1   1721   1.282   2.485   1.375 -0.6518  3.0033  2.0500
  574SOL  HW2   1722   1.350   2.366   1.280  0.7267  1.7710 -0.7735
  575SOL  OW    1723   0.832   1.816   0.605  0.0209  0.0403  0.0372
  575SOL  HW1   1724   0.734   1.837   0.626 -0.2142 -1.6431 -0.2323
  575SOL  HW2   1725   0.835   1.770   0.516  1.8417  1.3039  1.4384
  576SOL  OW    1726   0.079   0.548   1.470 -0.2120 -0.0082  0.0715
  576SOL  HW1   1727   3.072   0.553   1.481  3.5876  2.4233 -0.8573
  576SOL  HW2   1728   0.106   0.491   1.392  1.1011  0.2284 -1.1142
  577SOL  OW    1729   2.419   0.304   0.651  0.1013 -0.0988  0.0089
  577SOL  HW1   1730   2.502   0.344   0.601  3.2342  0.9119 -1.4529
  577SOL  HW2   1731   2.412   0.348   0.746  1.9127  0.0709  1.2226
  578SOL  OW    1732   1.746   1.522   1.339 -0.5701  0.4097 -0.2021
  578SOL  HW1   1733   1.655   1.542   1.381 -0.4135  0.7338  0.0126
  578SOL  HW2   1734   1.767   1.425   1.333 -3.7600 -2.5987  1.0802
  579SOL  OW    1735   0.957   1.822   1.962  0.4140  0.2281 -0.0214
  579SOL  HW1   1736   0.982   1.912   1.994  0.4122  3.6378  0.2853
  579SOL  HW2   1737   1.046   1.762   1.963 -0.2885  0.9462 -2.4776
  580SOL  OW    1738   1.199   2.912   0.071 -0.1192 -0.3935  0.2954
  580SOL  HW1   1739   1.110   2.917   0.024 -1.0848 -1.0192  1.9042
  580SOL  HW2   1740   1.184   2.922   0.174 -0.6085  1.2213 -1.7901
  581SOL  OW    1741   0.416   0.618   2.579  0.2977  0.2982  0.5091
  581SOL  HW1   1742   0.326   0.599   2.535  0.5112 -1.0281  0.7614
  581SOL  HW2   1743   0.485   0.649   2.511  2.9241 -1.2132 -0.5256
  582SOL  OW    1744   1.276   2.703   2.038  0.0488  0.1994 -0.2540
  582SOL  HW1   1745   1.295   2.696   1.939 -1.8101  1.1859  0.5888
  582SOL  HW2   1746   1.358   2.736   2.081  2.8492  0.4103 -0.9527
  583SOL  OW    1747   1.137   2.510   1.445 -0.0205  0.1424 -0.4217
  583SOL  HW1   1748   1.074   2.528   1.372 -0.8305 -0.5903 -1.1039
  583SOL  HW2   1749   1.093   2.501   1.540 -0.3040  2.0327 -0.6241
  584SOL  OW    1750   2.142   2.167   3.009  0.1237 -0.7487 -0.2759
  584SOL  HW1   1751   2.217   2.139   2.942 -0.5248 -0.5965 -3.0520
  584SOL  HW2   1752   2.176   2.256   3.050  4.8875  1.0575  1.0120
  585SOL  OW    1753   2.210   1.103   2.858  0.1013 -0.0970  0.0867
  585SOL  HW1   1754   2.113   1.076   2.856 -0.4770 -0.7161 -3.5146
  585SOL  HW2   1755   2.269   1.033   2.898  0.4337 -1.4713 -0.1084
  586SOL  OW    1756   0.585   1.178   0.787  0.4321  0.0836 -0.7802
  586SOL  HW1   1757   0.632   1.223   0.866 -2.7997  1.3197  1.1969
  586SOL  HW2   1758   0.656   1.139   0.724  0.3091  0.7710  0.7779
  587SOL  OW    1759   1.786   2.409   0.811  0.0853 -0.0906  0.8890
  587SOL  HW1   1760   1.799   2.452   0.722  2.2972  2.8025  0.8120
  587SOL  HW2   1761   1.855   2.440   0.875  2.8802  1.4874  1.5593
  588SOL  OW    1762   0.607   0.467   1.485 -0.2523  0.4637  0.1556
  588SOL  HW1   1763   0.599   0.377   1.528  1.1103  0.6227  0.4557
  588SOL  HW2   1764   0.703   0.477   1.449  0.9823  0.9523  0.6715
  589SOL  OW    1765   1.517   2.337   0.818 -0.1198 -0.3164  0.1860
  589SOL  HW1   1766   1.606   2.352   0.866  0.2469  2.3038  1.5797
  589SOL  HW2   1767   1.523   2.352   0.720 -1.6974  0.7290 -2.3114
  590SOL  OW    1768   2.048   0.848   0.316  0.2592  0.3492  0.8783
  590SOL  HW1   1769   2.096   0.841   0.405 -2.5926  2.2794  1.0524
  590SOL  HW2   1770   1.999   0.935   0.306 -2.8925 -0.9436 -2.2557
  591SOL  OW    1771   1.888   1.864   1.641 -0.3989  0.4288 -0.5843
  591SOL  HW1   1772   1.918   1.766   1.627  1.0950 -1.5133 -1.1393
  591SOL  HW2   1773   1.855   1.884   1.736  2.1671  1.9776  1.0417
  592SOL  OW    1774   1.295   1.453   0.648 -0.1434  0.5150  0.2847
  592SOL  HW1   1775   1.215   1.447   0.713 -0.7939  0.9622  1.3113
  592SOL  HW2   1776   1.366   1.508   0.688  0.9587 -1.7584  1.4865
  593SOL  OW    1777   1.164   0.094   0.648  0.6192 -0.4533 -0.0298
  593SOL  HW1   1778   1.125   0.178   0.693  0.9262  0.6936  1.3739
  593SOL  HW2   1779   1.261   0.113   0.622  1.0459 -1.0847 -0.7861
  594SOL  OW    1780   2.546   0.379   2.254 -0.4049  0.1751  0.1322
  594SOL  HW1   1781   2.599   0.388   2.340 -0.6292 -0.9740  1.8307
  594SOL  HW2   1782   2.609   0.366   2.174  2.3195  0.7282 -0.8805
  595SOL  OW    1783   0.016   0.750   0.685 -0.0365  0.1613  0.4884
  595SOL  HW1   1784   3.090   0.671   0.740 -0.7042 -0.7068  2.9434
  595SOL  HW2   1785   0.002   0.731   0.586  3.0844  2.1659 -0.7784
  596SOL  OW    1786   0.122   0.793   1.050  0.6055 -0.6092  0.1416
  596SOL  HW1   1787   0.219   0.820   1.046  3.0048 -1.8260 -1.2932
  596SOL  HW2   1788   0.066   0.863   1.001  0.4876 -0.2742  1.7323
  597SOL  OW    1789   1.987   1.542   0.757  0.4671  0.4075 -0.3110
  597SOL  HW1   1790   2.008   1.633   0.715  1.4112  0.3883 -0.3371
  597SOL  HW2   1791   1.967   1.477   0.680 -1.7481  1.6211  0.8952
  598SOL  OW    1792   2.569   2.681   1.584 -0.0642  0.8980  0.4230
  598SOL  HW1   1793   2.465   2.678   1.563 -0.9490 -0.4643  0.4935
  598SOL  HW2   1794   2.580   2.663   1.687 -0.1548 -0.8286 -1.9125
  599SOL  OW    1795   2.752   1.694   0.241 -0.1922  0.2026  0.1223
  599SOL  HW1   1796   2.746   1.599   0.279 -3.8303 -0.2095 -1.4384
  599SOL  HW2   1797   2.661   1.741   0.242 -0.0276  2.4820 -3.2683
  600SOL  OW    1798   0.735   0.639   2.847 -0.3686  0.7237 -0.3069
  600SOL  HW1   1799   0.719   0.720   2.783 -1.2394 -2.6599  2.2678
  600SOL  HW2   1800   0.705   0.650   2.945  1.0886 -0.9833  0.6067
  601SOL  OW    1801   0.948   0.726   0.132  0.0731 -0.5834 -0.0617
  601SOL  HW1   1802   0.968   0.819   0.174 -0.3128  2.3544  0.7657
  601SOL  HW2   1803   1.028   0.664   0.153  1.0755 -1.2084 -1.1320
  602SOL  OW    1804   1.822   2.970   2.206  0.0098 -0.4878  0.3158
  602SOL  HW1   1805   1.765   2.988   2.122  1.5921  2.8970  0.1253
  602SOL  HW2   1806   1.810   3.046   2.272 -1.1089  4.5256  0.0687
  603SOL  OW    1807   0.120   2.802   2.588  0.0408 -0.3825  0.1969
  603SOL  HW1   1808   0.130   2.722   2.529 -0.6892 -0.9433 -0.5072
  603SOL  HW2   1809   0.030   2.808   2.638  0.2681  0.2235 -0.5302
  604SOL  OW    1810   2.989   0.497   2.662  0.4982  0.5221  0.0153
  604SOL  HW1   1811   3.082   0.539   2.666 -1.3657 -0.3885  3.5050
  604SOL  HW2   1812   2.957   0.484   2.566 -1.2971  0.9608 -0.3936
  605SOL  OW    1813   2.758   2.697   2.371 -0.6385 -0.0191 -0.7919
  605SOL  HW1   1814   2.659   2.694   2.351 -0.7023  0.7812 -0.1244
  605SOL  HW2   1815   2.782   2.780   2.428 -0.3133  1.4039  0.2171
  606SOL  OW    1816   3.024   2.050   2.671  0.3947  0.6239  0.7549
  606SOL  HW1   1817   2.969   2.139   2.674  0.2185 -1.8023 -1.3384
  606SOL  HW2   1818   2.965   1.979   2.708 -0.9750  2.2849 -0.9451
  607SOL  OW    1819   1.596   2.944   0.040 -0.0415  0.1172  0.2095
  607SOL  HW1   1820   1.671   2.884   0.062 -1.5712 -1.5061  0.2689
  607SOL  HW2   1821   1.630   3.035   0.013 -3.6316 -0.4845  0.6586
  608SOL  OW    1822   1.722   1.626   2.182  0.1534  0.2793  0.1424
  608SOL  HW1   1823   1.733   1.727   2.182  1.3265  1.7764 -1.1320
  608SOL  HW2   1824   1.697   1.590   2.273 -2.2940 -0.3197 -3.2255
  609SOL  OW    1825   2.947   0.648   1.787 -0.0898 -0.1941  0.2188
  609SOL  HW1   1826   2.990   0.734   1.758  2.5396  1.2427 -0.0149
  609SOL  HW2   1827   2.930   0.584   1.708  0.3432  1.7889 -0.7365
  610SOL  OW    1828   1.133   2.108   2.740  0.0955 -0.5088 -0.4552
  610SOL  HW1   1829   1.128   2.149   2.644 -2.4122  1.5542  0.3654
  610SOL  HW2   1830   1.165   2.176   2.807 -0.0975  0.7171 -0.7066
  611SOL  OW    1831   2.079   1.141   0.654  0.3579 -0.4046 -0.0995
  611SOL  HW1   1832   2.033   1.110   0.739  0.7013  0.7946  1.5485
  611SOL  HW2   1833   2.037   1.229   0.621 -0.0218  1.0357 -0.0865
  612SOL  OW    1834   1.251   2.888   2.402 -0.3931  0.2820 -0.1129
  612SOL  HW1   1835   1.351   2.866   2.394 -2.0748  1.5342 -5.5495
  612SOL  HW2   1836   1.220   2.862   2.496 -1.4851 -2.1629  1.0491
  613SOL  OW    1837   0.870   1.451   0.049  0.0037  0.1525  0.1177
  613SOL  HW1   1838   0.808   1.525   0.085  0.6801 -0.9658 -1.6743
  613SOL  HW2   1839   0.860   1.447   3.046 -0.6611  0.7325  0.5441
  614SOL  OW    1840   2.817   1.661   2.123  0.6164 -0.0850  0.5163
  614SOL  HW1   1841   2.882   1.709   2.189  0.9585 -0.5622  0.3967
  614SOL  HW2   1842   2.810   1.720   2.037 -1.1818 -0.6105  0.7879
  615SOL  OW    1843   2.197   1.497   2.380 -0.7162  0.0738 -0.1593
  615SOL  HW1   1844   2.137   1.564   2.439 -0.6881 -3.0997 -1.4913
  615SOL  HW2   1845   2.248   1.558   2.319 -1.0316  0.8871  0.6272
  616SOL  OW    1846   0.061   0.150   0.473 -0.1886  0.1646 -0.2031
  616SOL  HW1   1847   0.102   0.230   0.426  0.7758  0.0540 -0.9805
  616SOL  HW2   1848   3.063   0.145   0.442 -0.3331  0.7801  0.3577
  617SOL  OW    1849   1.277   2.074   2.392 -0.2274 -0.4876  0.1454
  617SOL  HW1   1850   1.346   2.120   2.454  0.9887 -1.3282  1.4164
  617SOL  HW2   1851   1.191   2.119   2.396 -3.8120  0.4740  3.6094
  618SOL  OW    1852   0.033   0.306   1.818  0.0317  0.1316 -0.4196
  618SOL  HW1   1853   0.073   0.247   1.892 -2.4595 -0.0217  0.7849
  618SOL  HW2   1854   0.090   0.389   1.806 -0.8419  1.3422 -1.5621
  619SOL  OW    1855   2.354   1.070   1.767  0.0419  0.2019 -0.1474
  619SOL  HW1   1856   2.384   0.995   1.710 -1.6010  1.1187 -0.1443
  619SOL  HW2   1857   2.398   1.062   1.860 -2.5832 -0.9965  2.9248
  620SOL  OW    1858   2.135   1.166   0.226 -0.1798  0.1404  0.1543
  620SOL  HW1   1859   2.222   1.206   0.266  1.1814 -0.7300 -2.6803
  620SOL  HW2   1860   2.077   1.247   0.185  0.7476 -4.3682 -0.7170
  621SOL  OW    1861   2.117   0.005   0.974  0.2958 -0.3636 -0.1096
  621SOL  HW1   1862   2.119   3.026   0.905  2.1677 -0.2615  2.7390
  621SOL  HW2   1863   2.103   3.059   1.064 -1.0464 -0.3496 -0.7351
  622SOL  OW    1864   2.114   0.331   2.402 -0.7520 -0.5322  0.7361
  622SOL  HW1   1865   2.036   0.355   2.340  0.6700 -2.4544 -0.0565
  622SOL  HW2   1866   2.184   0.286   2.341 -2.7788  1.2576 -1.0015
  623SOL  OW    1867   2.021   1.607   2.544  0.3557 -0.4011  0.6137
  623SOL  HW1   1868   1.954   1.555   2.601 -1.5110  2.3649 -2.3657
  623SOL  HW2   1869   2.061   1.676   2.605  2.0642  0.0622 -0.3198
  624SOL  OW    1870   1.978   2.869   0.492 -0.4028 -0.7106 -0.1837
  624SOL  HW1   1871   1.925   2.876   0.580 -1.1017 -4.8605  1.2055
  624SOL  HW2   1872   1.916   2.900   0.413 -1.4006 -0.3281 -0.0418
  625SOL  OW    1873   0.372   2.284   0.444  0.1195  0.0315  0.1406
  625SOL  HW1   1874   0.355   2.353   0.523 -0.8978  4.0229  0.9670
  625SOL  HW2   1875   0.430   2.207   0.479 -0.3030  0.1364  0.5821
  626SOL  OW    1876   2.413   0.913   2.933  0.2522  0.6289 -0.0824
  626SOL  HW1   1877   2.455   0.876   2.846 -0.3666  0.5935  0.4587
  626SOL  HW2   1878   2.393   0.831   2.993 -1.7101  0.4497 -0.7601
  627SOL  OW    1879   0.395   0.478   1.836  0.1446 -0.5231 -0.1194
  627SOL  HW1   1880   0.404   0.424   1.925  1.2349  3.6483 -0.1171
  627SOL  HW2   1881   0.299   0.494   1.800  0.6629 -2.3216  0.3148
  628SOL  OW    1882   1.910   0.256   1.609 -0.5299 -0.5868  0.0186
  628SOL  HW1   1883   1.976   0.334   1.599 -1.0392  0.5160  0.7037
  628SOL  HW2   1884   1.952   0.172   1.570 -0.5686 -0.2686  2.4126
  629SOL  OW    1885   2.943   1.497   3.055  0.0123 -0.0983  0.4894
  629SOL  HW1   1886   3.017   1.508   0.031  0.2083  2.2884 -1.0829
  629SOL  HW2   1887   2.893   1.406   3.069 -0.8271  2.2780 -2.5170
  630SOL  OW    1888   1.853   0.452   2.914 -0.7211 -0.4022  0.4628
  630SOL  HW1   1889   1.769   0.434   2.969  1.2546  0.9433 -0.3126
  630SOL  HW2   1890   1.822   0.442   2.818 -0.5763 -2.2271  2.2718
  631SOL  OW    1891   2.385   0.838   0.835  0.1521 -0.4979 -0.4422
  631SOL  HW1   1892   2.320   0.902   0.880  1.2343 -2.5412  1.2405
  631SOL  HW2   1893   2.469   0.879   0.801  2.4346  0.5477 -1.3839
  632SOL  OW    1894   2.643   2.174   0.755 -0.1973 -0.4286  0.0190
  632SOL  HW1   1895   2.566   2.123   0.702 -0.7895 -0.1354 -2.7270
  632SOL  HW2   1896   2.734   2.167   0.710  0.1197  0.7787 -0.6322
  633SOL  OW    1897   0.329   1.320   0.755  0.2670 -0.7159 -0.0008
  633SOL  HW1   1898   0.284   1.255   0.813 -1.4024  3.5257 -2.1501
  633SOL  HW2   1899   0.435   1.314   0.761 -1.8361 -2.4267  0.6678
  634SOL  OW    1900   1.745   0.029   0.374  0.0364  0.2579 -0.4833
  634SOL  HW1   1901   1.768   3.029   0.348 -2.4562 -0.9416  0.1753
  634SOL  HW2   1902   1.707   0.035   0.468  0.0879 -0.6228 -0.6042
  635SOL  OW    1903   2.741   0.294   1.496 -0.3164  0.2324  0.6718
  635SOL  HW1   1904   2.783   0.243   1.577 -1.5909 -1.6340 -1.6924
  635SOL  HW2   1905   2.716   0.236   1.418 -0.4646 -0.4691  2.8159
  636SOL  OW    1906   1.352   0.256   1.502 -0.0743 -0.4073 -0.2753
  636SOL  HW1   1907   1.453   0.248   1.521  2.5388  2.4162  1.3715
  636SOL  HW2   1908   1.308   0.316   1.566 -0.0042 -0.8145  0.5252
  637SOL  OW    1909   2.076   1.986   2.516 -0.4466  0.1961 -0.5878
  637SOL  HW1   1910   2.069   1.929   2.596  1.1159 -3.6789 -0.6441
  637SOL  HW2   1911   2.073   2.088   2.537 -1.0747 -0.1468  2.3612
  638SOL  OW    1912   1.127   2.855   0.342  0.2194  0.4014 -0.2174
  638SOL  HW1   1913   1.184   2.771   0.329  0.2679 -1.8250  0.3399
  638SOL  HW2   1914   1.035   2.826   0.376 -2.0905  2.4210 -1.4164
  639SOL  OW    1915   0.314   1.965   2.016 -0.1952  0.6373 -1.2024
  639SOL  HW1   1916   0.371   1.883   2.045 -0.1281  1.1001  1.2017
  639SOL  HW2   1917   0.346   1.995   1.922 -1.7276 -1.9550 -1.7758
  640SOL  OW    1918   0.038   0.189   2.612  0.1736 -0.1877  0.0725
  640SOL  HW1   1919   0.066   0.101   2.568 -0.0871  1.0243 -4.4375
  640SOL  HW2   1920   0.122   0.241   2.642  0.9996  0.0816 -0.6084
  641SOL  OW    1921   0.193   0.414   0.058 -0.6897 -0.1512  0.2848
  641SOL  HW1   1922   0.239   0.500   0.036  2.0070  0.1589 -2.1064
  641SOL  HW2   1923   0.245   0.330   0.036 -0.0441  1.3005 -1.4678
  642SOL  OW    1924   0.398   1.690   1.245 -0.0744  0.0061 -0.3566
  642SOL  HW1   1925   0.426   1.645   1.336  1.1903 -1.6336  0.4794
  642SOL  HW2   1926   0.477   1.688   1.181  2.3329  1.9986  0.7716
  643SOL  OW    1927   1.241   1.797   2.464 -0.4162 -0.1296  0.5751
  643SOL  HW1   1928   1.251   1.893   2.434  1.4452 -0.7140  1.0850
  643SOL  HW2   1929   1.155   1.755   2.435  0.2946 -0.4608 -1.0152
  644SOL  OW    1930   1.917   1.823   0.204 -0.0700  0.2097  0.1640
  644SOL  HW1   1931   1.919   1.906   0.150  0.0824  4.6057 -3.2040
  644SOL  HW2   1932   1.965   1.743   0.159  0.3224  0.3644 -0.5405
  645SOL  OW    1933   1.049   2.068   1.311 -0.3088 -0.0399  0.0669
  645SOL  HW1   1934   0.991   2.084   1.226  0.4697  0.1087  2.8686
  645SOL  HW2   1935   0.982   2.060   1.388  1.2461 -1.0257 -1.6321
  646SOL  OW    1936   0.894   0.170   0.052 -0.0472  0.4891  0.0387
  646SOL  HW1   1937   0.981   0.209   0.023 -0.5318 -0.6869  0.2927
  646SOL  HW2   1938   0.826   0.242   0.068 -1.2744  0.0252  1.5944
  647SOL  OW    1939   0.489   2.756   2.306  0.3418 -0.1982  0.0941
  647SOL  HW1   1940   0.488   2.745   2.409  0.8901  1.4425 -1.1095
  647SOL  HW2   1941   0.529   2.672   2.262  2.5353  1.3042 -2.1076
  648SOL  OW    1942   2.479   1.766   0.266  0.7463  0.3493  0.3021
  648SOL  HW1   1943   2.391   1.758   0.312 -1.3056  0.5305 -2.9447
  648SOL  HW2   1944   2.475   1.833   0.193 -0.2409 -1.1337 -0.2335
  649SOL  OW    1945   1.344   2.911   2.853 -0.5590  1.2219 -0.6037
  649SOL  HW1   1946   1.334   2.994   2.910  1.0622 -3.0247  0.0663
  649SOL  HW2   1947   1.357   2.831   2.917 -1.0515  4.0552  0.6358
  650SOL  OW    1948   0.829   1.760   2.630 -0.0869  0.2919 -0.3163
  650SOL  HW1   1949   0.903   1.765   2.701 -2.8235  0.2055 -1.4230
  650SOL  HW2   1950   0.782   1.853   2.619 -0.6788 -0.5797  0.5283
  651SOL  OW    1951   0.884   2.169   0.324  0.3322  0.0001 -0.4724
  651SOL  HW1   1952   0.803   2.112   0.309 -2.1703  0.9269 -2.0981
  651SOL  HW2   1953   0.875   2.241   0.395  2.8677  0.7274  0.0692
  652SOL  OW    1954   0.050   1.116   1.908  0.1668 -0.2357  0.1054
  652SOL  HW1   1955   0.035   1.022   1.878 -0.1993 -0.6500 -2.0081
  652SOL  HW2   1956   0.008   1.129   2.004  0.8780 -1.5421 -0.7020
  653SOL  OW    1957   2.485   2.018   3.042 -0.5548  0.6132  0.2219
  653SOL  HW1   1958   2.436   2.013   2.948 -3.8303  2.7588  1.4057
  653SOL  HW2   1959   2.412   2.013   0.018 -0.2164 -0.6384 -2.6741
  654SOL  OW    1960   2.413   2.306   2.151 -0.4396 -0.4003  0.1071
  654SOL  HW1   1961   2.328   2.321   2.092  0.3402  1.2855  3.5275
  654SOL  HW2   1962   2.441   2.204   2.162  0.9440 -0.8700 -0.8996
  655SOL  OW    1963   0.685   2.001   0.291  0.1811 -0.1996  0.0718
  655SOL  HW1   1964   0.738   1.915   0.285 -1.6543  1.7687 -2.9517
  655SOL  HW2   1965   0.632   2.017   0.204 -2.3310 -1.3007 -2.2748
  656SOL  OW    1966   0.064   2.057   0.125 -0.0013  0.4346  0.8982
  656SOL  HW1   1967   0.098   1.968   0.156 -2.4920 -0.9641 -3.4528
  656SOL  HW2   1968   0.108   2.080   0.037 -1.2768  1.7967  0.2357
  657SOL  OW    1969   0.202   1.355   0.334  0.4034  0.1781 -0.2526
  657SOL  HW1   1970   0.272   1.431   0.344 -2.2595  1.5669 -0.8282
  657SOL  HW2   1971   0.235   1.290   0.262  0.0819 -2.4568 -4.1746
  658SOL  OW    1972   0.504   1.568   1.452  0.0751 -0.1259 -0.2129
  658SOL  HW1   1973   0.558   1.479   1.439  0.7549 -0.4737 -0.3699
  658SOL  HW2   1974   0.462   1.584   1.544  0.7218 -0.3995 -1.7598
  659SOL  OW    1975   1.764   0.295   2.003 -0.4529 -0.4305  0.2693
  659SOL  HW1   1976   1.675   0.267   2.040 -0.2296 -2.7923 -0.6673
  659SOL  HW2   1977   1.798   0.226   1.935  2.7624 -0.7978  0.7492
  660SOL  OW    1978   0.243   0.554   0.454 -0.0655 -0.1218 -0.2251
  660SOL  HW1   1979   0.330   0.598   0.415  2.6821 -1.3673 -1.3227
  660SOL  HW2   1980   0.249   0.553   0.553  1.6923  0.1174  1.2754
  661SOL  OW    1981   1.014   1.310   1.013 -0.0710  0.7841 -0.3273
  661SOL  HW1   1982   1.039   1.212   1.039 -1.6781  1.4734  0.5602
  661SOL  HW2   1983   1.025   1.374   1.093 -0.7630 -2.8142  0.3967
  662SOL  OW    1984   2.036   0.022   2.597 -0.2320 -0.0943 -0.2564
  662SOL  HW1   1985   2.048   0.073   2.687 -0.8559  0.6280  1.0684
  662SOL  HW2   1986   2.126   3.083   2.565 -0.1007  3.4290  0.0825
  663SOL  OW    1987   2.006   1.393   0.539 -0.0299  0.1233 -0.4794
  663SOL  HW1   1988   2.095   1.422   0.498  0.7170 -1.2909 -0.8717
  663SOL  HW2   1989   1.933   1.400   0.468 -0.7657  0.4409  2.5965
  664SOL  OW    1990   0.828   2.824   0.644  0.2128 -0.1050 -0.1333
  664SOL  HW1   1991   0.881   2.801   0.724  0.0981 -4.5606 -1.1756
  664SOL  HW2   1992   0.879   2.818   0.553 -0.8050  0.6747  0.7560
  665SOL  OW    1993   0.991   0.323   2.788 -0.6810  0.0330 -0.1907
  665SOL  HW1   1994   1.061   0.379   2.832 -2.2481 -2.7189  2.6710
  665SOL  HW2   1995   0.904   0.319   2.840 -0.4884 -1.9858  1.0405
  666SOL  OW    1996   1.036   0.981   2.293  0.1917  0.5784 -0.3271
  666SOL  HW1   1997   0.994   0.890   2.278  0.5556  1.4064  1.9748
  666SOL  HW2   1998   1.106   0.975   2.367 -2.0719  0.1075  0.7409
  667SOL  OW    1999   0.922   1.969   2.303  0.1457 -0.3323  0.6933
  667SOL  HW1   2000   0.997   2.004   2.238 -1.3286 -0.4237 -2.3186
  667SOL  HW2   2001   0.961   1.897   2.364  0.8185 -1.4624  1.2958
  668SOL  OW    2002   2.449   1.079   2.035 -0.2823 -0.3804 -0.0949
  668SOL  HW1   2003   2.432   1.172   2.067  1.3261  1.3210  0.8873
  668SOL  HW2   2004   2.547   1.056   2.036  2.2882  3.2735 -1.4818
  669SOL  OW    2005   3.043   2.529   0.446  0.0233 -0.2568  0.2041
  669SOL  HW1   2006   0.034   2.572   0.485  1.9857  0.2956 -3.3048
  669SOL  HW2   2007   3.049   2.516   0.343  0.4240  0.8364  3.3134
  670SOL  OW    2008   2.275   1.582   1.599  0.7181 -0.0292  0.1041
  670SOL  HW1   2009   2.332   1.509   1.642 -0.4007 -0.0579  0.4344
  670SOL  HW2   2010   2.309   1.607   1.506 -0.0100  0.0961  0.3293
  671SOL  OW    2011   0.079   2.222   0.652  0.6989 -0.0361 -0.2724
  671SOL  HW1   2012   0.067   2.234   0.553  3.0559  1.4297  2.2711
  671SOL  HW2   2013   0.157   2.158   0.666 -1.5396  3.3100 -1.0752
  672SOL  OW    2014   1.368   1.274   2.120 -0.0797  0.0817 -0.4765
  672SOL  HW1   2015   1.407   1.182   2.096 -0.1451  0.2757  1.1579
  672SOL  HW2   2016   1.271   1.271   2.157 -0.6193 -0.0214  0.7099
  673SOL  OW    2017   0.008   1.764   1.145 -0.0521  0.0548 -0.1190
  673SOL  HW1   2018   0.087   1.694   1.145  1.0244  0.4793 -0.1890
  673SOL  HW2   2019   0.039   1.854   1.102  2.9649  3.6808 -0.9518
  674SOL  OW    2020   2.578   2.359   0.943  0.6307 -0.3535  0.5014
  674SOL  HW1   2021   2.590   2.275   0.884  0.5239 -0.7335 -1.7279
  674SOL  HW2   2022   2.563   2.440   0.880 -0.0799 -0.2424 -0.0812
  675SOL  OW    2023   3.034   1.160   1.151  0.3618 -0.0157 -0.8133
  675SOL  HW1   2024   2.976   1.096   1.204 -1.5648 -0.2314 -1.7151
  675SOL  HW2   2025   0.036   1.130   1.165 -2.0290 -2.1208  0.4199
  676SOL  OW    2026   2.268   1.180   1.340  0.6270  0.1932 -0.2309
  676SOL  HW1   2027   2.361   1.228   1.336  0.0712  1.2311  1.8377
  676SOL  HW2   2028   2.269   1.093   1.288  0.6041  0.1611  0.6617
  677SOL  OW    2029   1.954   1.578   2.042 -0.4000  0.3911 -0.3190
  677SOL  HW1   2030   1.869   1.593   2.100  1.0892  1.9167  0.7546
  677SOL  HW2   2031   2.002   1.666   2.019 -0.7630 -2.7402  1.9211
  678SOL  OW    2032   2.439   1.615   1.370  0.0724  0.2280 -0.2497
  678SOL  HW1   2033   2.527   1.665   1.356 -0.9374 -1.2886 -0.9396
  678SOL  HW2   2034   2.358   1.668   1.330 -1.0909  0.5393  0.3652
  679SOL  OW    2035   2.967   0.067   0.180 -0.0202 -0.2633 -0.0239
  679SOL  HW1   2036   2.921   0.138   0.237 -1.4934 -2.2440 -1.7208
  679SOL  HW2   2037   2.974   3.078   0.232  1.6142 -1.3197  0.6093
  680SOL  OW    2038   0.003   1.447   1.230  0.2931  0.4267 -0.2870
  680SOL  HW1   2039   0.056   1.497   1.163 -0.2698  1.4176  1.0357
  680SOL  HW2   2040   3.058   1.359   1.196 -0.2404  1.6191 -0.9746
  681SOL  OW    2041   1.427   2.772   0.794 -0.0211 -0.0493 -0.0515
  681SOL  HW1   2042   1.377   2.685   0.819 -1.7790  1.3046  1.2294
  681SOL  HW2   2043   1.364   2.851   0.778 -0.1592  2.1128  0.9179
  682SOL  OW    2044   2.574   2.438   1.372  0.0652  0.7113 -0.2894
  682SOL  HW1   2045   2.587   2.381   1.454  1.5663 -0.6228  1.7292
  682SOL  HW2   2046   2.499   2.503   1.386 -0.2541  1.4603  0.5428
  683SOL  OW    2047   2.365   1.286   2.350 -0.1696  0.2305 -0.0775
  683SOL  HW1   2048   2.403   1.309   2.256 -1.5965 -2.3336  2.1553
  683SOL  HW2   2049   2.300   1.360   2.376  1.4198 -0.7486 -0.3210
  684SOL  OW    2050   2.276   1.524   2.665  0.2794 -0.2370  0.3964
  684SOL  HW1   2051   2.218   1.493   2.588  0.9925  0.1891 -0.3981
  684SOL  HW2   2052   2.257   1.464   2.746  1.6619 -0.1762  0.8677
  685SOL  OW    2053   1.187   1.206   0.076 -0.2891  0.1302  0.5359
  685SOL  HW1   2054   1.088   1.215   0.106  0.7744  0.5236 -0.3257
  685SOL  HW2   2055   1.236   1.278   0.134 -0.2656 -2.1501 -0.3158
  686SOL  OW    2056   2.560   0.006   1.947 -0.2872 -0.5056  0.7412
  686SOL  HW1   2057   2.587   3.011   1.914  3.1584  1.6240 -3.7059
  686SOL  HW2   2058   2.626   0.036   2.016 -1.2109 -0.9795  0.4844
  687SOL  OW    2059   1.987   0.117   0.177 -0.5162  0.3180 -0.5631
  687SOL  HW1   2060   1.900   0.093   0.225 -0.7500 -1.3265  1.7919
  687SOL  HW2   2061   2.066   0.080   0.235 -1.0209 -2.2401  2.5248
  688SOL  OW    2062   1.299   1.874   2.726  0.2798  0.3335  0.5181
  688SOL  HW1   2063   1.273   1.845   2.632  1.1076 -2.7697  0.6199
  688SOL  HW2   2064   1.246   1.960   2.744  0.3069  0.1099  1.1043
  689SOL  OW    2065   2.412   1.345   1.732 -0.4429  0.1959  0.0630
  689SOL  HW1   2066   2.414   1.242   1.718 -0.4253  1.0121  0.5561
  689SOL  HW2   2067   2.336   1.369   1.798 -0.2418  0.3619  0.9830
  690SOL  OW    2068   2.857   1.727   1.042  0.2486 -0.6189  0.0802
  690SOL  HW1   2069   2.807   1.802   0.998  0.7755 -1.4122 -1.5902
  690SOL  HW2   2070   2.941   1.760   1.090 -0.1837 -0.3570 -0.9676
  691SOL  OW    2071   0.062   1.876   0.604  0.1635  0.5409  0.0262
  691SOL  HW1   2072   0.063   1.947   0.533 -0.3728 -2.9117  2.4142
  691SOL  HW2   2073   3.070   1.825   0.611 -0.0303  2.9471 -3.1869
  692SOL  OW    2074   3.062   0.043   3.020 -0.0009 -0.4634  0.3660
  692SOL  HW1   2075   3.033   0.064   0.019  1.1193 -0.7448 -1.2786
  692SOL  HW2   2076   3.002   0.084   2.947 -0.5021  4.6233 -0.8259
  693SOL  OW    2077   0.523   0.989   2.338 -0.8170  0.6085  0.2600
  693SOL  HW1   2078   0.542   0.989   2.237  2.4845 -0.5320  2.1487
  693SOL  HW2   2079   0.605   0.974   2.397  2.0314 -1.6020 -4.6946
  694SOL  OW    2080   3.080   0.878   1.762 -0.7988 -0.1606  0.4375
  694SOL  HW1   2081   2.990   0.909   1.801 -1.1027 -0.4212 -2.2536
  694SOL  HW2   2082   3.092   0.907   1.668 -1.7299 -1.2649 -0.4141
  695SOL  OW    2083   2.251   0.284   1.561  0.6318 -0.4558 -0.2540
  695SOL  HW1   2084   2.275   0.221   1.632  1.2209 -1.6870  2.9948
  695SOL  HW2   2085   2.271   0.238   1.468  0.6317 -0.9115 -0.2416
  696SOL  OW    2086   1.951   0.571   1.380  0.3573  0.1531 -0.0430
  696SOL  HW1   2087   2.007   0.530   1.457 -0.1760  1.5534  0.7659
  696SOL  HW2   2088   1.954   0.673   1.381 -1.2060  1.4187 -3.4395
  697SOL  OW    2089   1.726   0.318   2.455 -0.1089 -0.2021 -0.2803
  697SOL  HW1   2090   1.754   0.217   2.460 -0.1682 -1.8654 -2.3770
  697SOL  HW2   2091   1.641   0.322   2.414 -2.5486 -1.5471 -1.6560
  698SOL  OW    2092   2.757   1.996   3.058  0.0938  0.0321 -0.6122
  698SOL  HW1   2093   2.780   1.895   3.050 -1.6653 -2.4918 -1.1058
  698SOL  HW2   2094   2.656   2.003   3.054  1.6073 -0.7898 -0.4779
  699SOL  OW    2095   1.802   1.363   0.358  0.0433  0.0873  0.1856
  699SOL  HW1   2096   1.766   1.458   0.359 -0.3052  0.8662  1.0681
  699SOL  HW2   2097   1.804   1.329   0.264  2.1901  0.2145  0.7806
  700SOL  OW    2098   1.520   2.805   0.353 -0.2407 -0.5262  0.2289
  700SOL  HW1   2099   1.480   2.882   0.299  0.1461 -0.8041 -0.3676
  700SOL  HW2   2100   1.509   2.716   0.302 -1.5796  0.5467  1.8260
  701SOL  OW    2101   0.636   0.481   1.028 -0.6728  0.1264  0.0472
  701SOL  HW1   2102   0.564   0.489   1.100  0.8786 -3.1013 -2.0863
  701SOL  HW2   2103   0.640   0.567   0.979  1.0528 -2.7776  2.4211
  702SOL  OW    2104   1.728   2.029   1.030  0.1284  0.5605  0.3903
  702SOL  HW1   2105   1.752   2.102   1.096 -1.7739  0.7220  2.1178
  702SOL  HW2   2106   1.807   1.972   0.998 -2.0020 -0.2715 -3.0041
  703SOL  OW    2107   1.070   0.487   0.986  0.2785  0.4218  0.1999
  703SOL  HW1   2108   1.154   0.470   1.041  0.7630 -1.3683  0.9111
  703SOL  HW2   2109   0.986   0.443   1.020 -1.1544  2.3195  1.9675
  704SOL  OW    2110   1.775   2.984   1.620  0.4614  0.1353  0.0209
  704SOL  HW1   2111   1.700   3.040   1.662 -1.4278 -0.6634  0.4786
  704SOL  HW2   2112   1.754   2.886   1.633  2.1976 -2.4105  1.2884
  705SOL  OW    2113   2.864   1.115   0.235  0.3088 -0.3991 -0.1235
  705SOL  HW1   2114   2.815   1.025   0.256  0.9083  0.2890 -0.4812
  705SOL  HW2   2115   2.868   1.171   0.323 -1.5832 -0.6563  1.4735
  706SOL  OW    2116   0.692   0.331   0.092  0.3093 -0.5074  0.1196
  706SOL  HW1   2117   0.611   0.308   0.155  0.9342 -1.0568  2.0820
  706SOL  HW2   2118   0.706   0.432   0.087 -0.6088 -0.3005 -0.1649
  707SOL  OW    2119   1.806   0.062   2.446 -0.0796  0.2462 -0.0076
  707SOL  HW1   2120   1.900   0.043   2.479  1.7888  0.0170  1.8988
  707SOL  HW2   2121   1.736   0.016   2.502  2.0151  0.7888  1.4562
  708SOL  OW    2122   0.454   2.548   1.921 -0.7945  0.3252  0.2419
  708SOL  HW1   2123   0.441   2.469   1.984 -0.8932 -0.1599 -0.0568
  708SOL  HW2   2124   0.357   2.585   1.894  2.7690 -0.1162  0.9563
  709SOL  OW    2125   2.277   0.665   2.106  0.0680  0.5306 -0.0447
  709SOL  HW1   2126   2.247   0.759   2.086  0.6848 -2.5932  2.1391
  709SOL  HW2   2127   2.209   0.593   2.083  0.1619  0.5144 -0.8910
  710SOL  OW    2128   2.863   0.925   1.204 -0.5015 -0.2097  0.2739
  710SOL  HW1   2129   2.819   0.928   1.113 -2.3456 -1.3697 -0.8941
  710SOL  HW2   2130   2.916   0.844   1.228 -1.1173  1.7935 -1.7204
  711SOL  OW    2131   2.793   2.065   1.584  0.0812  0.6221  0.5081
  711SOL  HW1   2132   2.749   2.155   1.583 -2.5740 -1.3572  1.3746
  711SOL  HW2   2133   2.812   2.046   1.680 -1.4999  1.1760 -3.5415
  712SOL  OW    2134   2.807   2.959   2.482  0.5755  1.1109 -0.2568
  712SOL  HW1   2135   2.738   3.030   2.444  0.7016 -0.7201 -1.8140
  712SOL  HW2   2136   2.878   2.944   2.409 -0.0436 -1.5126 -2.4405
  713SOL  OW    2137   2.558   3.024   0.670 -0.1193 -0.0337 -0.1863
  713SOL  HW1   2138   2.631   3.014   0.736 -1.3759 -1.3740  1.6397
  713SOL  HW2   2139   2.479   3.078   0.714  3.2037 -1.1562 -2.4668
  714SOL  OW    2140   1.650   1.544   2.431  0.0227 -0.1891 -0.4107
  714SOL  HW1   2141   1.550   1.541   2.418 -1.6815 -0.7169  1.7197
  714SOL  HW2   2142   1.673   1.600   2.513 -1.7201 -2.5526  3.5508
  715SOL  OW    2143   0.195   1.162   0.912  0.4828 -0.0307  0.4279
  715SOL  HW1   2144   0.193   1.170   1.016 -0.6075 -0.3409  2.1947
  715SOL  HW2   2145   0.113   1.116   0.876 -2.2528  0.7019  0.4359
  716SOL  OW    2146   0.289   0.857   2.305 -0.2874  0.5117  0.0478
  716SOL  HW1   2147   0.232   0.837   2.386 -2.1931  2.9103 -0.8176
  716SOL  HW2   2148   0.374   0.899   2.336  2.2787  0.3018  3.5479
  717SOL  OW    2149   0.980   1.715   2.399  0.3067  0.6307 -0.4436
  717SOL  HW1   2150   0.911   1.719   2.473 -0.2821 -1.6626  2.4896
  717SOL  HW2   2151   0.955   1.648   2.325  1.2382  2.0507 -0.0691
  718SOL  OW    2152   0.740   0.170   0.497  0.0312 -0.0133 -0.6424
  718SOL  HW1   2153   0.668   0.235   0.471  0.6330  0.4356 -0.5590
  718SOL  HW2   2154   0.766   0.111   0.423  1.7439  0.6065  1.0093
  719SOL  OW    2155   2.759   3.049   2.739  0.1965  0.0361  0.5860
  719SOL  HW1   2156   2.776   3.026   2.637  2.2231  0.5655  0.5158
  719SOL  HW2   2157   2.837   3.094   2.777 -0.7297  2.6752  1.6327
  720SOL  OW    2158   1.547   0.201   2.123  0.1174  0.3393  0.3000
  720SOL  HW1   2159   1.562   0.259   2.208 -0.2103 -0.5180  1.4178
  720SOL  HW2   2160   1.452   0.221   2.087 -1.8928 -2.5273  0.6233
  721SOL  OW    2161   0.534   2.839   1.041 -0.4183 -0.3161 -0.0704
  721SOL  HW1   2162   0.548   2.892   1.127  2.9677  0.2216  0.3726
  721SOL  HW2   2163   0.623   2.815   1.000  3.9328 -0.5127  2.0775
  722SOL  OW    2164   1.414   1.980   2.176  0.2289 -0.5849 -0.4623
  722SOL  HW1   2165   1.510   1.949   2.199 -0.9548  0.8617  0.8362
  722SOL  HW2   2166   1.364   2.012   2.257  1.1199  1.8349  2.0242
  723SOL  OW    2167   1.462   1.200   1.278  0.2610 -0.2846 -0.6995
  723SOL  HW1   2168   1.488   1.185   1.182 -1.9093 -1.4606  0.3269
  723SOL  HW2   2169   1.505   1.128   1.337  0.7117  2.0377 -1.1593
  724SOL  OW    2170   0.407   2.415   0.150  0.9051 -0.6331  0.3451
  724SOL  HW1   2171   0.404   2.360   0.236  0.8204  1.0970  0.6121
  724SOL  HW2   2172   0.431   2.351   0.071 -2.8693 -1.5467  2.7199
  725SOL  OW    2173   0.298   1.232   1.997 -1.1369  0.6574 -0.2778
  725SOL  HW1   2174   0.386   1.229   1.936  1.6049 -2.1802  1.9963
  725SOL  HW2   2175   0.225   1.172   1.960  1.5608  0.2784 -0.9740
  726SOL  OW    2176   1.986   1.344   0.127  0.5416  0.7652 -0.4568
  726SOL  HW1   2177   1.913   1.310   0.065 -0.8433 -0.6874 -1.9466
  726SOL  HW2   2178   1.998   1.446   0.114  0.0243 -1.1739  0.3119
  727SOL  OW    2179   2.241   0.729   3.037  0.0491  0.6346 -0.2114
  727SOL  HW1   2180   2.244   0.801   0.014  0.6642  1.3338 -1.6122
  727SOL  HW2   2181   2.145   0.737   2.999 -0.9138  0.1116 -3.0011
  728SOL  OW    2182   1.725   1.478   0.799 -0.3445  0.5746  0.1020
  728SOL  HW1   2183   1.816   1.517   0.808  0.4187  1.5072 -2.1029
  728SOL  HW2   2184   1.708   1.435   0.888  0.6215 -1.3631  2.6226
  729SOL  OW    2185   1.702   0.829   1.575 -0.0407  0.1039  0.0107
  729SOL  HW1   2186   1.729   0.877   1.664  0.8204 -1.7451 -0.5927
  729SOL  HW2   2187   1.673   0.734   1.590 -1.9013  1.8188 -1.4201
  730SOL  OW    2188   0.597   0.909   2.068  0.3974 -0.1144  0.4165
  730SOL  HW1   2189   0.617   0.812   2.099  2.7938  0.4369 -0.5829
  730SOL  HW2   2190   0.533   0.906   1.986 -2.2891 -3.9026 -3.0729
  731SOL  OW    2191   0.806   0.608   0.433 -0.5063  0.6109 -0.1246
  731SOL  HW1   2192   0.822   0.524   0.492 -1.9842 -2.1672  0.7632
  731SOL  HW2   2193   0.876   0.603   0.360  0.2224 -0.4219 -1.2922
  732SOL  OW    2194   0.721   0.619   0.049  0.2194 -0.2153  0.2229
  732SOL  HW1   2195   0.807   0.661   0.091 -2.2494  1.0216 -2.3567
  732SOL  HW2   2196   0.637   0.673   0.075  1.1744  3.7979  1.5208
  733SOL  OW    2197   0.993   2.017   1.735 -0.7988 -0.1260 -0.5504
  733SOL  HW1   2198   1.091   2.020   1.714 -0.2450 -1.6447  1.4966
  733SOL  HW2   2199   0.975   1.932   1.786  0.3739  2.5532 -1.5661
  734SOL  OW    2200   0.888   1.659   0.832  0.2866  0.2664 -0.3049
  734SOL  HW1   2201   0.802   1.610   0.832  1.2838  2.8423 -0.9509
  734SOL  HW2   2202   0.887   1.725   0.759  1.9369 -2.1635  0.2276
  735SOL  OW    2203   2.994   0.539   0.787  0.4076 -0.2586 -0.3809
  735SOL  HW1   2204   2.965   0.496   0.700 -2.4272  0.2282  1.4795
  735SOL  HW2   2205   2.912   0.576   0.836 -2.0934 -0.0763  1.0994
  736SOL  OW    2206   1.133   2.040   2.137 -0.3353  0.0803 -0.2239
  736SOL  HW1   2207   1.217   1.983   2.144  3.0973 -0.0758  1.4149
  736SOL  HW2   2208   1.159   2.139   2.126  0.7812  2.3929  0.8382
  737SOL  OW    2209   3.025   1.207   2.927  0.1357  0.5824 -0.2111
  737SOL  HW1   2210   3.001   1.189   2.826  0.2878  0.3998 -1.5310
  737SOL  HW2   2211   2.938   1.219   2.977 -0.8091 -0.7681 -1.4724
  738SOL  OW    2212   1.316   1.913   0.946 -0.0232  0.5690 -0.7172
  738SOL  HW1   2213   1.335   1.844   1.021  0.8198 -0.6403  1.2149
  738SOL  HW2   2214   1.371   2.000   0.959 -2.4860 -2.5447 -0.9090
  739SOL  OW    2215   1.682   2.691   1.936 -0.0942  0.3816 -0.4594
  739SOL  HW1   2216   1.622   2.731   2.010 -0.1833  1.5618  0.3158
  739SOL  HW2   2217   1.683   2.587   1.945 -1.0401 -0.8996 -1.0135
  740SOL  OW    2218   2.257   2.582   1.292  0.5562 -0.2269 -0.0700
  740SOL  HW1   2219   2.302   2.561   1.200 -3.8587  0.1436 -1.8432
  740SOL  HW2   2220   2.157   2.588   1.284 -0.1833 -0.5341  1.0902
  741SOL  OW    2221   2.378   0.355   0.097 -0.1198  0.2583  0.1754
  741SOL  HW1   2222   2.312   0.404   0.152 -3.0160  0.9748 -0.5284
  741SOL  HW2   2223   2.370   0.390   0.000  2.5327 -0.5955 -1.3612
  742SOL  OW    2224   1.227   2.589   2.551  0.0880  0.1807  0.5127
  742SOL  HW1   2225   1.155   2.558   2.485  0.2853  0.6138  0.0046
  742SOL  HW2   2226   1.201   2.682   2.590 -1.9778 -1.8138 -2.3657
  743SOL  OW    2227   2.508   1.313   1.253 -0.5450  0.6698 -0.1332
  743SOL  HW1   2228   2.503   1.399   1.309  0.9171  1.8014  0.7318
  743SOL  HW2   2229   2.587   1.314   1.189 -0.6695  1.2004  1.7050
  744SOL  OW    2230   2.304   1.506   0.691 -0.3931  0.6157 -0.0234
  744SOL  HW1   2231   2.352   1.574   0.749  1.9152  3.3815 -1.1978
  744SOL  HW2   2232   2.216   1.483   0.727 -0.4487  0.5344 -1.9377
  745SOL  OW    2233   2.851   1.749   1.852  0.1064 -0.2865  0.1084
  745SOL  HW1   2234   2.781   1.732   1.780  2.5062  1.0017  0.5608
  745SOL  HW2   2235   2.937   1.696   1.840 -0.6292  0.1187 -1.8504
  746SOL  OW    2236   1.196   1.547   3.047 -0.2083 -0.0832 -0.5562
  746SOL  HW1   2237   1.154   1.627   0.002 -2.1848  0.9704 -1.0620
  746SOL  HW2   2238   1.233   1.472   0.009 -0.2573  1.0336 -0.5087
  747SOL  OW    2239   0.674   2.006   2.216  0.2114 -0.3337  0.1226
  747SOL  HW1   2240   0.768   1.985   2.252 -0.6892 -0.5407  0.2181
  747SOL  HW2   2241   0.608   1.928   2.215 -0.1487 -0.4329  0.8851
  748SOL  OW    2242   0.615   0.085   3.006  0.5428 -0.1476 -0.3663
  748SOL  HW1   2243   0.582   0.073   2.911 -0.4856  1.6137  0.3872
  748SOL  HW2   2244   0.683   0.017   3.043  0.7355 -0.9827  2.5910
  749SOL  OW    2245   0.553   1.404   2.988 -0.3720 -0.0626  0.6956
  749SOL  HW1   2246   0.633   1.393   2.922  3.1341  1.7898 -0.6385
  749SOL  HW2   2247   0.465   1.436   2.936 -0.1249 -1.8368 -1.6666
  750SOL  OW    2248   0.869   0.497   1.409  0.6174 -0.8099  0.3780
  750SOL  HW1   2249   0.900   0.593   1.391 -0.0006 -2.4528 -1.7920
  750SOL  HW2   2250   0.896   0.440   1.334 -1.8549  0.7064  0.6497
  751SOL  OW    2251   2.902   1.166   0.663  0.3959  0.2199  0.3920
  751SOL  HW1   2252   2.980   1.115   0.625  1.8332 -3.8975 -1.0724
  751SOL  HW2   2253   2.921   1.200   0.760  3.2400 -3.6647 -1.2976
  752SOL  OW    2254   0.607   2.763   1.875  0.5620  0.0082  0.0569
  752SOL  HW1   2255   0.549   2.809   1.801 -3.4481 -1.0659  3.7479
  752SOL  HW2   2256   0.557   2.680   1.901  0.9911  1.8910  0.4054
  753SOL  OW    2257   0.117   2.236   1.770 -0.0753  0.6839  0.6202
  753SOL  HW1   2258   0.036   2.195   1.817  1.2762 -2.3286 -1.1982
  753SOL  HW2   2259   0.197   2.175   1.776 -2.8873  0.4783  0.9644
  754SOL  OW    2260   2.951   2.055   1.351 -0.6576  0.0019  0.3900
  754SOL  HW1   2261   2.941   1.952   1.362 -0.2744 -0.7145 -1.9523
  754SOL  HW2   2262   2.912   2.101   1.433  0.1085 -0.1414  0.5744
  755SOL  OW    2263   2.510   0.991   0.412  0.5775  1.0039 -0.2523
  755SOL  HW1   2264   2.605   0.969   0.443 -0.9968  1.1237 -1.3647
  755SOL  HW2   2265   2.442   0.996   0.486 -0.6010  0.7064 -0.1006
  756SOL  OW    2266   2.220   1.732   0.302  0.1734  0.1679 -0.3771
  756SOL  HW1   2267   2.203   1.635   0.327  0.4767  3.1218 -0.9667
  756SOL  HW2   2268   2.163   1.792   0.362  1.6791 -0.6056 -0.1319
  757SOL  OW    2269   0.074   1.115   2.581  0.7299  0.0433  0.3083
  757SOL  HW1   2270   3.083   1.128   2.629 -4.0693 -1.9453  0.6395
  757SOL  HW2   2271   0.062   1.075   2.487  2.2205 -0.0872 -2.2652
  758SOL  OW    2272   1.914   0.889   1.410  0.3257 -0.0004 -0.1644
  758SOL  HW1   2273   1.825   0.868   1.454  0.4830 -1.2835 -0.0157
  758SOL  HW2   2274   1.954   0.974   1.451 -1.5820 -4.0242  1.2688
  759SOL  OW    2275   2.595   0.122   1.308 -0.0876 -0.4253 -0.4665
  759SOL  HW1   2276   2.508   0.165   1.347  2.7224  0.5206  1.6620
  759SOL  HW2   2277   2.600   0.022   1.333  0.4702 -0.3642  0.6723
  760SOL  OW    2278   0.193   0.997   1.465 -0.9783 -0.2487  0.3737
  760SOL  HW1   2279   0.095   1.004   1.481  0.5772 -0.5223  1.5166
  760SOL  HW2   2280   0.242   1.047   1.540  1.5047  0.3659  0.3436
  761SOL  OW    2281   1.519   0.415   2.298 -0.1288  0.3676  0.0348
  761SOL  HW1   2282   1.492   0.498   2.246  1.1174 -0.5076 -0.4091
  761SOL  HW2   2283   1.438   0.368   2.347 -0.2330 -0.5924 -0.7457
  762SOL  OW    2284   0.414   2.481   1.085 -0.0971 -1.4934  0.4726
  762SOL  HW1   2285   0.422   2.527   1.174  3.9879 -0.0342  0.0883
  762SOL  HW2   2286   0.452   2.386   1.098 -1.3066  0.5423  1.0548
  763SOL  OW    2287   1.444   0.654   2.204 -0.4329 -0.4923  0.0209
  763SOL  HW1   2288   1.409   0.672   2.297 -1.7066 -1.4173 -1.0881
  763SOL  HW2   2289   1.372   0.667   2.135 -1.3781  1.1363 -0.7806
  764SOL  OW    2290   3.007   2.773   2.739 -0.5980 -0.2253 -0.6968
  764SOL  HW1   2291   2.905   2.751   2.727  2.1863 -0.3595 -3.3478
  764SOL  HW2   2292   3.024   2.811   2.828 -2.3686  0.9246 -0.0048
  765SOL  OW    2293   0.108   2.140   2.510  0.2486 -0.6513 -0.1325
  765SOL  HW1   2294   0.071   2.172   2.420  1.2875 -0.8010 -0.7634
  765SOL  HW2   2295   0.028   2.100   2.566  2.5952  0.1473 -0.0096
  766SOL  OW    2296   2.831   2.245   2.952 -0.5937  0.7271 -0.1894
  766SOL  HW1   2297   2.874   2.300   3.021 -1.5828  0.1201 -1.3311
  766SOL  HW2   2298   2.827   2.153   2.986  1.8777  2.5900  1.5861
  767SOL  OW    2299   1.930   1.213   2.496  0.8563 -0.5294 -0.3087
  767SOL  HW1   2300   1.890   1.227   2.588  1.9132  1.4075 -1.9682
  767SOL  HW2   2301   2.029   1.200   2.508  0.8061  0.3622  0.2074
  768SOL  OW    2302   2.407   1.517   3.044 -0.6532 -0.3865  0.3754
  768SOL  HW1   2303   2.477   1.589   3.016 -2.0463 -2.3090 -1.4697
  768SOL  HW2   2304   2.451   1.446   0.006 -0.6677 -0.5402  0.8921
  769SOL  OW    2305   2.836   1.989   0.632 -0.1352 -0.5637 -0.0952
  769SOL  HW1   2306   2.804   1.905   0.679 -2.0317  0.0189 -0.9550
  769SOL  HW2   2307   2.864   2.064   0.699  0.2900 -1.1080 -0.4425
  770SOL  OW    2308   1.989   0.892   1.726 -0.5749  0.2216 -0.3781
  770SOL  HW1   2309   1.905   0.902   1.782 -0.8277  0.8563 -0.3886
  770SOL  HW2   2310   2.046   0.975   1.730  0.9773  1.5095  3.3898
  771SOL  OW    2311   2.496   2.700   2.320  0.8824  0.3006 -0.2248
  771SOL  HW1   2312   2.502   2.735   2.415 -2.1322  0.9579 -1.8235
  771SOL  HW2   2313   2.427   2.626   2.318 -3.3285  0.7425  0.7581
  772SOL  OW    2314   1.925   1.411   1.826  0.4130 -0.0726  0.2488
  772SOL  HW1   2315   1.937   1.472   1.904 -2.8320 -1.6202  3.5190
  772SOL  HW2   2316   1.999   1.341   1.820 -1.7105 -0.0942 -3.0504
  773SOL  OW    2317   1.095   1.431   2.104  0.4246  0.8228 -0.2513
  773SOL  HW1   2318   1.010   1.485   2.133  1.5168 -1.3635  0.6204
  773SOL  HW2   2319   1.101   1.350   2.162  0.1204 -0.7863 -0.8990
  774SOL  OW    2320   1.544   0.667   2.671 -0.4491  0.3742  0.0779
  774SOL  HW1   2321   1.556   0.754   2.719 -1.8026 -0.2640 -1.4810
  774SOL  HW2   2322   1.492   0.688   2.588  1.4844 -1.3690 -3.7059
  775SOL  OW    2323   1.720   1.284   0.592 -0.0712  0.6552  0.8968
  775SOL  HW1   2324   1.727   1.364   0.653 -0.1230 -1.3368 -1.8553
  775SOL  HW2   2325   1.756   1.301   0.494 -0.5320  1.3338  2.0889
  776SOL  OW    2326   2.450   1.327   2.107  0.1239 -0.0470  0.4570
  776SOL  HW1   2327   2.542   1.372   2.093 -2.3641  0.4646  0.1348
  776SOL  HW2   2328   2.383   1.362   2.033  2.8288 -0.2931 -0.3408
  777SOL  OW    2329   2.246   1.698   1.957 -0.7241 -0.1606 -0.5094
  777SOL  HW1   2330   2.167   1.763   1.953 -1.8529  1.5685 -0.3277
  777SOL  HW2   2331   2.312   1.715   1.877 -0.2176 -3.8267  0.0718
  778SOL  OW    2332   2.108   1.157   1.795 -0.4525 -0.1171  0.1380
  778SOL  HW1   2333   2.083   1.168   1.894  2.2109  0.3383  2.0889
  778SOL  HW2   2334   2.207   1.131   1.785 -0.0801  1.2490  0.0675
  779SOL  OW    2335   2.791   0.810   2.999  0.1139 -0.5072  0.0086
  779SOL  HW1   2336   2.743   0.868   3.064  1.8053  0.3631 -0.6314
  779SOL  HW2   2337   2.893   0.822   3.002 -2.8032  0.1393  2.5993
  780SOL  OW    2338   2.491   2.899   0.244 -0.2038 -0.1492  0.1914
  780SOL  HW1   2339   2.533   2.977   0.195 -1.0334 -2.2992 -0.8062
  780SOL  HW2   2340   2.400   2.873   0.204  1.9048 -2.3069 -0.7694
  781SOL  OW    2341   2.835   2.408   1.039 -0.3039 -0.2049  0.9071
  781SOL  HW1   2342   2.740   2.391   1.004 -0.4585  0.5421  1.3527
  781SOL  HW2   2343   2.868   2.500   1.006 -2.4760  0.6795 -1.3114
  782SOL  OW    2344   3.079   2.502   2.715 -0.2213  0.4899  0.5099
  782SOL  HW1   2345   0.061   2.491   2.649  0.8149  1.6937 -1.0850
  782SOL  HW2   2346   3.056   2.601   2.731  1.3091 -2.5360 -3.0254
  783SOL  OW    2347   0.942   1.636   1.595  0.1061 -0.3386 -0.1496
  783SOL  HW1   2348   0.976   1.557   1.540 -2.4416  4.2580 -2.4676
  783SOL  HW2   2349   1.011   1.708   1.595 -0.6669  1.7573  1.6401
  784SOL  OW    2350   2.260   1.745   0.020  0.2333 -0.0433 -0.4160
  784SOL  HW1   2351   2.331   1.679   3.086  0.2346  2.2248 -0.5218
  784SOL  HW2   2352   2.256   1.751   0.123  1.0734  0.1543 -2.1160
  785SOL  OW    2353   2.300   2.039   0.119  0.4597  0.1929 -0.7281
  785SOL  HW1   2354   2.202   2.045   0.109  2.3124  0.0327  0.6494
  785SOL  HW2   2355   2.329   2.061   0.214  2.2944 -0.4891 -3.9931
  786SOL  OW    2356   0.578   2.958   0.274  0.1210 -0.4133  0.1660
  786SOL  HW1   2357   0.672   3.006   0.275 -0.2235 -1.4306 -2.5708
  786SOL  HW2   2358   0.515   2.994   0.349 -2.0124  0.2196 -0.8441
  787SOL  OW    2359   1.555   0.028   1.721  0.3175 -0.9680 -0.9160
  787SOL  HW1   2360   1.486   0.051   1.794 -1.6219 -0.2823 -2.2909
  787SOL  HW2   2361   1.573   0.103   1.657 -1.1042 -0.5002  0.8879
  788SOL  OW    2362   0.298   0.958   0.202 -0.3249  0.0011  0.1280
  788SOL  HW1   2363   0.302   0.947   0.305  1.4754  0.6538  0.6876
  788SOL  HW2   2364   0.203   0.981   0.170  0.6750 -0.7443  0.8806
  789SOL  OW    2365   2.549   2.229   1.198  0.2722  0.0778  0.5966
  789SOL  HW1   2366   2.563   2.269   1.104  0.4050  1.4536 -4.9566
  789SOL  HW2   2367   2.541   2.301   1.268  2.4060 -0.3032  0.8013
  790SOL  OW    2368   1.481   2.938   1.375 -0.2373 -0.2348 -0.3780
  790SOL  HW1   2369   1.489   2.912   1.472 -1.2627 -2.9130  2.4327
  790SOL  HW2   2370   1.394   2.902   1.326  2.1604  0.7694  0.6765
  791SOL  OW    2371   0.356   0.625   3.046 -0.2345  0.0679 -0.1416
  791SOL  HW1   2372   0.422   0.695   3.082 -1.0692 -0.9743  0.4673
  791SOL  HW2   2373   0.401   0.541   3.012 -2.1034 -3.3211 -0.0357
  792SOL  OW    2374   1.596   2.583   1.352 -0.6994  0.0620  0.1541
  792SOL  HW1   2375   1.627   2.563   1.448  2.1901  1.0279  1.5621
  792SOL  HW2   2376   1.504   2.540   1.328  3.1290 -0.6256 -1.6404
  793SOL  OW    2377   0.552   3.082   0.891 -0.2204  0.3240  0.2933
  793SOL  HW1   2378   0.628   3.085   0.826  2.4513  0.6744 -3.6053
  793SOL  HW2   2379   0.531   2.994   0.929  0.0376 -1.4754 -0.0592
  794SOL  OW    2380   0.695   1.334   2.168  0.4316  0.3263  0.5068
  794SOL  HW1   2381   0.723   1.272   2.099  0.8620 -2.1197  0.4981
  794SOL  HW2   2382   0.601   1.367   2.156  4.3785 -1.2533  0.7032
  795SOL  OW    2383   0.453   1.257   2.430 -0.1729 -0.1503 -0.1023
  795SOL  HW1   2384   0.462   1.160   2.417  0.2368 -1.4514 -1.3035
  795SOL  HW2   2385   0.446   1.305   2.340 -0.5789 -0.0845 -1.2736
  796SOL  OW    2386   2.321   1.795   0.803  0.3243 -0.1960 -0.2603
  796SOL  HW1   2387   2.392   1.799   0.725 -0.1575  2.5587  0.9450
  796SOL  HW2   2388   2.351   1.832   0.892  0.5331  1.2734 -1.5845
  797SOL  OW    2389   0.225   0.067   2.883  0.0458  0.0305 -0.6555
  797SOL  HW1   2390   0.249   3.073   2.839 -0.4110  2.3209 -0.3455
  797SOL  HW2   2391   0.135   0.054   2.927 -2.0223 -1.7858  2.9625
  798SOL  OW    2392   2.290   2.128   1.779  0.4348  0.2285 -0.5909
  798SOL  HW1   2393   2.243   2.061   1.719  0.8845 -0.4752 -0.1783
  798SOL  HW2   2394   2.321   2.211   1.721  0.5943  0.8211  0.2476
  799SOL  OW    2395   3.021   1.709   2.484  0.4704 -0.1232 -0.1485
  799SOL  HW1   2396   2.986   1.754   2.564 -3.5176 -0.4219  1.6678
  799SOL  HW2   2397   0.030   1.706   2.479  1.9018 -0.7443  1.3049
  800SOL  OW    2398   1.047   0.806   1.618  0.1890 -0.0222  0.2427
  800SOL  HW1   2399   1.001   0.751   1.542 -0.4669 -0.1368 -0.9084
  800SOL  HW2   2400   1.117   0.866   1.576  1.5054  0.0388 -0.9133
  801SOL  OW    2401   0.004   1.030   0.530  0.2623  0.4509 -0.8978
  801SOL  HW1   2402   0.032   0.956   0.465 -0.3217 -1.3458 -2.1439
  801SOL  HW2   2403   0.080   1.093   0.547  0.4732 -0.6975  1.3447
  802SOL  OW    2404   2.706   1.995   0.378  0.0612  0.2699  0.0650
  802SOL  HW1   2405   2.773   1.965   0.312  1.9585 -0.3094  2.5012
  802SOL  HW2   2406   2.746   2.008   0.470 -1.8077 -0.4555 -1.8230
  803SOL  OW    2407   1.698   1.261   0.074  0.3179  0.0371  0.3755
  803SOL  HW1   2408   1.646   1.337   0.129  0.0594 -0.5404 -0.3818
  803SOL  HW2   2409   1.676   1.276   3.068 -2.2367  0.8073  0.1418
  804SOL  OW    2410   2.650   2.635   0.310 -0.0157  0.0757 -0.2238
  804SOL  HW1   2411   2.665   2.555   0.246  0.7919 -0.7700  0.9416
  804SOL  HW2   2412   2.614   2.714   0.267  1.7124  1.1197 -1.4844
  805SOL  OW    2413   0.006   1.523   0.535  0.1162  0.5422 -0.0846
  805SOL  HW1   2414   3.031   1.514   0.604  0.5036  0.0197  0.1183
  805SOL  HW2   2415   3.070   1.593   0.463 -2.3137  0.2814  2.8395
  806SOL  OW    2416   0.861   0.348   1.058 -0.2164 -0.0330  0.0658
  806SOL  HW1   2417   0.869   0.302   1.151  1.7107 -2.8512  0.6142
  806SOL  HW2   2418   0.773   0.399   1.047 -0.0499  2.0260 -0.3398
  807SOL  OW    2419   2.616   1.667   2.889 -0.3696  0.4109 -0.8553
  807SOL  HW1   2420   2.679   1.676   2.969 -0.5236 -2.9810 -0.7230
  807SOL  HW2   2421   2.612   1.752   2.833 -2.1340 -3.7467  1.4862
  808SOL  OW    2422   0.543   1.386   0.142  0.1024 -0.5341 -0.7389
  808SOL  HW1   2423   0.466   1.322   0.159 -3.0297  1.2794  0.6992
  808SOL  HW2   2424   0.549   1.408   0.041 -1.1135  0.6149  1.5227
  809SOL  OW    2425   2.585   1.613   2.296 -0.6522 -0.0453  0.3376
  809SOL  HW1   2426   2.598   1.530   2.358  3.4154  3.3577 -1.7790
  809SOL  HW2   2427   2.659   1.628   2.231  0.0674  0.5836  1.0265
  810SOL  OW    2428   1.159   0.290   0.253  0.0244 -0.2149 -0.4258
  810SOL  HW1   2429   1.102   0.228   0.310  1.6114  0.4033 -1.2425
  810SOL  HW2   2430   1.253   0.259   0.259  0.9012 -1.8401  1.6499
  811SOL  OW    2431   1.112   1.721   0.279  0.4649  0.2219 -0.5216
  811SOL  HW1   2432   1.118   1.620   0.305 -0.1038  0.1911  0.0196
  811SOL  HW2   2433   1.168   1.775   0.346 -1.0241  1.3404 -0.1537
  812SOL  OW    2434   0.662   0.192   1.947 -0.5252  0.2235  0.1535
  812SOL  HW1   2435   0.694   0.102   1.980  2.5037  1.7591 -0.1618
  812SOL  HW2   2436   0.745   0.248   1.922  1.4062 -0.1446  1.0348
  813SOL  OW    2437   1.251   0.941   2.449 -0.7684 -0.1968  0.3359
  813SOL  HW1   2438   1.227   0.973   2.544 -0.5554  4.5109  1.0464
  813SOL  HW2   2439   1.348   0.958   2.435 -2.6586  0.7667  1.2023
  814SOL  OW    2440   1.448   2.726   3.039 -1.0508 -0.0819 -0.3541
  814SOL  HW1   2441   1.399   2.679   0.016  1.6309 -0.2752  2.3275
  814SOL  HW2   2442   1.501   2.800   3.085  0.6283  2.4162  0.0056
  815SOL  OW    2443   0.539   0.648   1.708  0.4438  0.6966 -0.5713
  815SOL  HW1   2444   0.549   0.618   1.612  0.8612 -1.8420  1.4978
  815SOL  HW2   2445   0.483   0.581   1.767  2.3451  1.8019 -1.0320
  816SOL  OW    2446   2.273   2.515   2.341  0.6895 -0.3091 -0.4864
  816SOL  HW1   2447   2.349   2.454   2.376 -0.4235  2.3145  0.1964
  816SOL  HW2   2448   2.197   2.462   2.307 -1.4689  1.0044  3.2800
  817SOL  OW    2449   2.054   2.924   2.074  0.1741  0.0146 -0.4176
  817SOL  HW1   2450   1.975   2.928   2.139 -1.3012 -0.2951 -2.3021
  817SOL  HW2   2451   2.145   2.924   2.129 -3.6046 -0.7464 -0.2161
  818SOL  OW    2452   2.120   0.124   2.833 -0.0748  0.4156  0.4631
  818SOL  HW1   2453   2.216   0.120   2.869  1.4621 -0.1431  2.8159
  818SOL  HW2   2454   2.054   0.135   2.912 -1.3036 -0.9670  1.2438
  819SOL  OW    2455   2.922   1.813   2.719 -0.7949  0.2345  1.4119
  819SOL  HW1   2456   2.970   1.725   2.752  0.1017  0.2617 -2.0922
  819SOL  HW2   2457   2.826   1.815   2.747 -0.6408  1.2704 -2.6250
  820SOL  OW    2458   2.715   1.765   0.739 -0.6226  0.4532  0.2416
  820SOL  HW1   2459   2.693   1.783   0.838 -0.0400  0.0472  0.6675
  820SOL  HW2   2460   2.704   1.662   0.723 -3.5850  1.4938  0.8643
  821SOL  OW    2461   0.872   2.106   1.514 -0.0077  0.0469 -0.1397
  821SOL  HW1   2462   0.777   2.074   1.492 -0.2042 -1.6210 -1.6946
  821SOL  HW2   2463   0.897   2.086   1.613  0.6928 -0.8849  0.4161
  822SOL  OW    2464   0.265   2.718   2.152 -0.2441 -0.0549  0.6377
  822SOL  HW1   2465   0.208   2.673   2.219 -0.6751  4.7427  0.8935
  822SOL  HW2   2466   0.358   2.750   2.190 -0.9146 -2.3938  1.1181
  823SOL  OW    2467   1.547   2.838   2.394  0.2911 -0.4500 -0.7020
  823SOL  HW1   2468   1.566   2.914   2.458  0.8099  1.0130  2.5747
  823SOL  HW2   2469   1.549   2.750   2.446 -0.3885  2.2732 -1.2786
  824SOL  OW    2470   2.246   1.461   0.413  0.0314 -0.1576 -0.7890
  824SOL  HW1   2471   2.301   1.382   0.376  1.1211 -0.4598  0.4416
  824SOL  HW2   2472   2.278   1.485   0.508 -1.8632 -1.1663  1.5011
  825SOL  OW    2473   2.950   2.129   2.181 -0.2108 -0.0202 -0.1356
  825SOL  HW1   2474   3.027   2.166   2.237  0.1301  0.0758 -2.7775
  825SOL  HW2   2475   2.948   2.160   2.088  2.5760  2.0621  0.7841
  826SOL  OW    2476   0.212   1.689   2.840  0.0522 -0.0536 -0.3642
  826SOL  HW1   2477   0.125   1.652   2.797 -0.0789 -0.7844 -1.1647
  826SOL  HW2   2478   0.208   1.791   2.828 -1.2856 -1.2902  1.2645
  827SOL  OW    2479   3.011   2.100   1.893 -0.3608  0.2349  0.0186
  827SOL  HW1   2480   3.051   2.019   1.945  0.6801 -0.5671  1.0306
  827SOL  HW2   2481   2.914   2.087   1.869 -1.0561  0.7998 -1.2548
  828SOL  OW    2482   2.491   0.049   0.965  0.1186  0.5172  0.2353
  828SOL  HW1   2483   2.419   0.067   0.896  0.2105 -3.1212 -0.8013
  828SOL  HW2   2484   2.473   3.064   1.025 -0.4343  2.5100 -0.4967
  829SOL  OW    2485   1.857   2.428   2.622 -0.3399 -0.3410 -0.0118
  829SOL  HW1   2486   1.953   2.387   2.619  0.0461 -0.0913  0.9917
  829SOL  HW2   2487   1.809   2.368   2.687  1.0111  0.0750 -0.0408
  830SOL  OW    2488   1.338   3.066   0.993  0.3639 -0.1428 -0.4352
  830SOL  HW1   2489   1.434   0.003   1.002 -0.7383  1.9086  1.8495
  830SOL  HW2   2490   1.273   0.044   1.012 -0.9632  2.6439  0.5054
  831SOL  OW    2491   2.914   1.248   0.922 -0.3051 -0.3635  0.1025
  831SOL  HW1   2492   2.815   1.245   0.943 -2.0080 -2.4713  0.8719
  831SOL  HW2   2493   2.968   1.236   1.010 -2.0207  0.2752 -2.1124
  832SOL  OW    2494   1.290   2.211   1.249  0.3787 -0.6265  0.5843
  832SOL  HW1   2495   1.197   2.175   1.272 -3.5947  1.6385 -0.5516
  832SOL  HW2   2496   1.324   2.171   1.159  1.5632  0.6741 -1.8388
  833SOL  OW    2497   2.460   2.952   1.145  0.1035 -0.3098  0.6462
  833SOL  HW1   2498   2.480   2.946   1.246 -0.2233  1.4825 -0.4251
  833SOL  HW2   2499   2.466   2.862   1.099  0.5237 -1.8848  1.6741
  834SOL  OW    2500   0.454   0.491   1.238 -0.6594  0.5516  0.0254
  834SOL  HW1   2501   0.521   0.474   1.317  3.0575  0.2570  1.3862
  834SOL  HW2   2502   0.372   0.435   1.256  0.3442 -0.1572 -0.4463
  835SOL  OW    2503   2.860   0.751   2.142 -0.1644 -0.1307  0.3803
  835SOL  HW1   2504   2.936   0.771   2.205  0.2185 -0.1898  1.2975
  835SOL  HW2   2505   2.877   0.660   2.099 -1.5148 -0.2054 -1.3172
  836SOL  OW    2506   2.891   0.159   1.693 -0.2920 -0.3280  0.8286
  836SOL  HW1   2507   2.976   0.189   1.736 -2.4513  1.3899 -1.5761
  836SOL  HW2   2508   2.887   0.061   1.679  0.3513 -1.0701  0.9350
  837SOL  OW    2509   2.268   1.040   0.961  0.6066 -0.7564 -0.0119
  837SOL  HW1   2510   2.310   1.136   0.948  1.0049 -0.9827 -0.7257
  837SOL  HW2   2511   2.170   1.047   0.939  1.3966 -1.9701  0.7641
  838SOL  OW    2512   1.680   2.215   2.280  0.5449  0.4742 -0.1466
  838SOL  HW1   2513   1.681   2.305   2.331 -0.9513  1.2527  2.3474
  838SOL  HW2   2514   1.621   2.218   2.197 -0.8703  1.3460  1.0440
  839SOL  OW    2515   1.134   2.521   3.029  0.0538  0.0810  0.3949
  839SOL  HW1   2516   1.038   2.495   3.057  1.5199  2.9443 -1.8519
  839SOL  HW2   2517   1.180   2.588   3.090  0.5415 -1.2856 -1.5538
  840SOL  OW    2518   1.120   2.297   2.511  0.1350 -0.4344  0.9231
  840SOL  HW1   2519   1.199   2.352   2.530  0.1427 -1.3361 -0.8850
  840SOL  HW2   2520   1.030   2.347   2.504 -0.1808 -0.1813 -1.6114
  841SOL  OW    2521   2.461   2.048   2.190 -0.0083  0.2296  0.2470
  841SOL  HW1   2522   2.374   2.014   2.226  1.5325  1.1590 -2.8814
  841SOL  HW2   2523   2.475   2.015   2.094  0.1864 -1.9943  2.7220
  842SOL  OW    2524   2.085   1.356   2.178  0.6794 -0.9691 -0.2340
  842SOL  HW1   2525   2.128   1.379   2.270  0.7538 -0.4202 -1.1011
  842SOL  HW2   2526   2.031   1.436   2.142  0.5891  1.1817  0.2831
  843SOL  OW    2527   1.757   1.655   0.363  0.0153 -0.2510 -0.2082
  843SOL  HW1   2528   1.705   1.708   0.431 -1.6149  2.2926  0.0493
  843SOL  HW2   2529   1.819   1.718   0.321 -0.5356  0.1811  1.2914
  844SOL  OW    2530   2.437   2.808   2.927  0.3761  0.0198 -0.2612
  844SOL  HW1   2531   2.526   2.844   2.957  1.5126  1.6113 -1.7020
  844SOL  HW2   2532   2.418   2.848   2.836  2.6454  1.6859  2.1202
  845SOL  OW    2533   2.819   0.921   0.905 -0.7326  0.8121 -0.1224
  845SOL  HW1   2534   2.739   0.951   0.852 -0.1072 -0.5743 -3.7625
  845SOL  HW2   2535   2.820   0.820   0.922  0.8342  0.7825 -0.6897
  846SOL  OW    2536   0.440   1.920   2.667 -0.0523 -0.0766  0.5867
  846SOL  HW1   2537   0.351   1.938   2.710  1.5183  1.6377  0.8604
  846SOL  HW2   2538   0.478   1.829   2.698 -0.0003 -0.6747  1.6636
  847SOL  OW    2539   2.073   2.151   1.220 -0.0920 -0.6081  0.1374
  847SOL  HW1   2540   1.972   2.147   1.213 -1.5025 -1.5690  1.2068
  847SOL  HW2   2541   2.113   2.221   1.157 -0.0511  1.6150  1.0473
  848SOL  OW    2542   0.333   1.221   0.146 -0.1303 -0.0150  0.0628
  848SOL  HW1   2543   0.270   1.244   0.066 -1.3671 -0.2112  1.6545
  848SOL  HW2   2544   0.343   1.121   0.151 -0.4361  1.1272  0.0008
  849SOL  OW    2545   0.254   0.423   2.342  0.0238  0.0386 -0.4397
  849SOL  HW1   2546   0.318   0.346   2.355 -2.8044  0.6401 -0.1837
  849SOL  HW2   2547   0.291   0.485   2.271 -2.3566  1.7628 -2.5092
  850SOL  OW    2548   0.256   0.386   0.912 -0.2883  0.2069 -0.0416
  850SOL  HW1   2549   0.214   0.330   0.838  0.2237 -0.7670 -2.7798
  850SOL  HW2   2550   0.185   0.438   0.964 -0.1327  1.3555 -0.7699
  851SOL  OW    2551   2.255   2.983   2.484  0.0010 -0.3810  0.5687
  851SOL  HW1   2552   2.290   3.027   2.401  0.3707 -2.2381  1.5216
  851SOL  HW2   2553   2.217   2.891   2.466 -0.8776  0.0978 -2.3709
  852SOL  OW    2554   1.520   2.245   2.054  0.4817  0.2984  0.4181
  852SOL  HW1   2555   1.510   2.166   1.994  1.2798 -2.5291  0.9296
  852SOL  HW2   2556   1.440   2.307   2.048  0.3923 -2.9288  0.9304
  853SOL  OW    2557   2.366   0.105   2.985 -0.2410 -0.0298 -0.4981
  853SOL  HW1   2558   2.429   0.094   2.904  2.1476 -0.9775  1.6072
  853SOL  HW2   2559   2.415   0.160   3.057  1.4814  1.5999  0.1328
  854SOL  OW    2560   2.425   2.516   1.086  0.3485 -0.2509 -0.2335
  854SOL  HW1   2561   2.492   2.453   1.050 -1.8593  0.4928  1.0289
  854SOL  HW2   2562   2.404   2.591   1.016  0.5837  1.4488  0.4981
  855SOL  OW    2563   1.584   1.949   0.018 -0.1991  0.3516 -0.6596
  855SOL  HW1   2564   1.491   1.959   0.061 -1.6227 -1.4310  1.8130
  855SOL  HW2   2565   1.596   1.853   3.092  2.3322 -4.1916 -0.7441
  856SOL  OW    2566   2.933   0.181   0.700  0.3090  0.2140 -0.2504
  856SOL  HW1   2567   2.935   0.204   0.598 -0.2791  1.2095  2.9001
  856SOL  HW2   2568   2.933   0.082   0.711  0.8837  1.1511  2.8600
  857SOL  OW    2569   2.003   2.406   1.638  0.0053 -0.3108  0.2881
  857SOL  HW1   2570   2.036   2.341   1.567  2.3545  2.1721 -1.8969
  857SOL  HW2   2571   1.997   2.500   1.601  3.3380 -3.7507 -2.1745
  858SOL  OW    2572   0.257   1.516   1.946  0.2204  0.1529 -0.0048
  858SOL  HW1   2573   0.270   1.418   1.943  0.9475 -3.9127  0.3595
  858SOL  HW2   2574   0.221   1.547   2.036 -0.0064 -3.7310  0.8189
  859SOL  OW    2575   1.773   2.177   0.664 -0.6991  0.6422 -0.1139
  859SOL  HW1   2576   1.762   2.255   0.732  1.9308  2.9626  1.3164
  859SOL  HW2   2577   1.690   2.175   0.596 -0.8986  1.8383 -0.8013
  860SOL  OW    2578   1.866   2.494   0.305  0.0029 -0.1914 -0.4937
  860SOL  HW1   2579   1.939   2.561   0.322  0.4122  0.3383  0.8674
  860SOL  HW2   2580   1.855   2.490   0.206  2.3195 -0.3602  0.5059
  861SOL  OW    2581   2.449   2.094   0.337  0.1828 -0.5983  0.4281
  861SOL  HW1   2582   2.422   2.117   0.432  2.1543  0.6968 -0.0120
  861SOL  HW2   2583   2.541   2.050   0.339 -4.6804 -0.1584 -0.9638
  862SOL  OW    2584   2.160   3.051   0.007 -0.0856 -0.1128  0.0883
  862SOL  HW1   2585   2.231   0.011   3.064 -4.5730  0.8690  2.3275
  862SOL  HW2   2586   2.093   0.010   0.062 -1.4373 -0.7607 -0.8245
  863SOL  OW    2587   0.915   0.104   0.954  0.4163 -0.1334 -0.0009
  863SOL  HW1   2588   0.894   0.089   0.857  0.9429  2.8037  1.1104
  863SOL  HW2   2589   0.879   0.196   0.981  1.0886  0.7185 -2.0314
  864SOL  OW    2590   2.987   2.812   2.302 -0.0410 -0.0658  0.1585
  864SOL  HW1   2591   3.064   2.796   2.369 -3.5505  3.3437 -0.5500
  864SOL  HW2   2592   2.901   2.755   2.313  1.1589 -0.4538  1.7793
  865SOL  OW    2593   2.677   2.490   2.874 -0.1078  0.3353 -0.3097
  865SOL  HW1   2594   2.717   2.406   2.912  2.5971 -0.6866  1.2539
  865SOL  HW2   2595   2.673   2.554   2.949  0.7162  0.5254 -1.3933
  866SOL  OW    2596   2.503   0.762   2.721  0.2855  0.0734 -0.1756
  866SOL  HW1   2597   2.440   0.688   2.697 -0.8915 -0.8650  2.4863
  866SOL  HW2   2598   2.604   0.742   2.714 -0.7020 -1.5421 -0.7181
  867SOL  OW    2599   2.309   0.253   2.228  0.2313 -0.3032  0.1024
  867SOL  HW1   2600   2.276   0.295   2.142 -1.3276  1.9352 -1.2641
  867SOL  HW2   2601   2.401   0.286   2.260 -0.3304  2.7171  4.9227
  868SOL  OW    2602   0.365   1.919   1.370 -0.2816 -0.0807 -0.1421
  868SOL  HW1   2603   0.293   1.990   1.338 -1.4216 -0.7271  2.2466
  868SOL  HW2   2604   0.355   1.827   1.329 -1.5183  1.5999  0.9964
  869SOL  OW    2605   1.449   1.209   0.597  0.0435 -0.5465 -0.0762
  869SOL  HW1   2606   1.555   1.220   0.603  2.7813  1.1250  4.5507
  869SOL  HW2   2607   1.405   1.298   0.594  0.6472  2.6331 -0.7779
  870SOL  OW    2608   2.041   2.613   0.735 -0.0465 -0.8184  0.1656
  870SOL  HW1   2609   1.968   2.595   0.668  0.0057  1.6311 -1.2362
  870SOL  HW2   2610   2.133   2.599   0.686  0.7703 -1.0065 -0.2154
  871SOL  OW    2611   1.465   1.136   1.669  0.0991 -0.3475 -0.0791
  871SOL  HW1   2612   1.531   1.161   1.743  0.5672  0.6893  1.3978
  871SOL  HW2   2613   1.376   1.187   1.680 -0.7135 -0.9022 -0.8024
  872SOL  OW    2614   1.081   0.669   0.783 -0.2775 -0.9327 -0.6002
  872SOL  HW1   2615   1.078   0.617   0.872 -0.2291  0.7027  1.8089
  872SOL  HW2   2616   1.144   0.617   0.724 -2.5423 -0.1461  0.0095
  873SOL  OW    2617   1.812   0.964   2.419  0.3998  0.1606 -0.1561
  873SOL  HW1   2618   1.714   0.989   2.410  0.4932 -1.5005 -0.3896
  873SOL  HW2   2619   1.868   1.042   2.450 -2.1944  0.7241  1.1132
  874SOL  OW    2620   2.687   1.526   1.075 -0.0332  0.4930  0.0354
  874SOL  HW1   2621   2.763   1.595   1.072 -1.7662  2.8252  2.2401
  874SOL  HW2   2622   2.600   1.574   1.057  0.0662 -0.0335 -2.1582
  875SOL  OW    2623   0.354   0.172   0.013 -0.1808 -0.4383  0.4104
  875SOL  HW1   2624   0.300   0.130   3.034 -1.0137 -0.5653 -0.6486
  875SOL  HW2   2625   0.443   0.126   0.024 -0.4993 -2.2539  0.1894
  876SOL  OW    2626   1.338   0.676   2.457  0.5934 -0.2992  0.2434
  876SOL  HW1   2627   1.292   0.767   2.450  1.1709 -0.9098  0.0375
  876SOL  HW2   2628   1.275   0.601   2.485 -0.9706  0.6435 -2.9172
  877SOL  OW    2629   0.119   0.406   1.241 -0.0611  0.3626  0.1763
  877SOL  HW1   2630   0.109   0.304   1.242  2.2109  0.0056 -0.5751
  877SOL  HW2   2631   0.069   0.461   1.168  0.8256 -2.5145  1.9013
  878SOL  OW    2632   2.410   2.448   2.840  0.8989  0.6786 -0.6691
  878SOL  HW1   2633   2.502   2.481   2.867 -0.7739  2.0355  1.6116
  878SOL  HW2   2634   2.354   2.411   2.919  1.5655 -1.3775 -0.7503
  879SOL  OW    2635   2.174   1.946   1.100  0.6375  0.4260 -0.2374
  879SOL  HW1   2636   2.135   2.029   1.144  2.1096 -0.2473  1.0811
  879SOL  HW2   2637   2.102   1.902   1.040  1.7720 -0.3992  0.9425
  880SOL  OW    2638   0.516   1.192   1.859  0.0289 -0.0537  0.1865
  880SOL  HW1   2639   0.606   1.159   1.899  0.1538  0.7833  2.0129
  880SOL  HW2   2640   0.496   1.142   1.770 -1.9119 -0.2083 -0.0113
  881SOL  OW    2641   0.993   0.972   0.253 -0.3731  0.3167  0.0534
  881SOL  HW1   2642   1.047   0.956   0.338 -0.5906  1.0469 -0.5228
  881SOL  HW2   2643   0.956   1.067   0.248 -2.1653  0.9401 -0.6695
  882SOL  OW    2644   1.277   2.885   1.198  0.1914  0.1732 -0.0952
  882SOL  HW1   2645   1.264   2.787   1.175  2.7016  1.5946  0.8051
  882SOL  HW2   2646   1.286   2.937   1.112 -0.2311 -1.9366 -0.2651
  883SOL  OW    2647   2.092   0.638   2.381  0.1294  0.6030 -0.5163
  883SOL  HW1   2648   2.165   0.570   2.371  1.2096  2.3223  0.7165
  883SOL  HW2   2649   2.024   0.620   2.461  1.6473 -1.3544  0.1908
  884SOL  OW    2650   2.692   1.287   0.543  0.0518  0.2616 -0.1732
  884SOL  HW1   2651   2.604   1.257   0.590 -1.8233  0.1027 -0.2693
  884SOL  HW2   2652   2.776   1.248   0.585  0.1080  0.3943 -0.1717
  885SOL  OW    2653   1.567   1.583   1.028  0.3500  0.0621  0.2086
  885SOL  HW1   2654   1.493   1.619   1.087  2.0271 -1.2213  0.6857
  885SOL  HW2   2655   1.550   1.606   0.931 -0.2162 -1.1117 -0.5264
  886SOL  OW    2656   1.644   2.007   2.452  0.0635 -0.1586  0.1472
  886SOL  HW1   2657   1.661   2.082   2.385  0.0253 -1.1396  0.1862
  886SOL  HW2   2658   1.712   1.935   2.436  1.9048  0.6021  0.1607
  887SOL  OW    2659   0.863   3.035   1.157 -0.4621  0.4588 -0.1357
  887SOL  HW1   2660   0.854   0.010   1.083  0.1238 -1.0371 -1.5329
  887SOL  HW2   2661   0.947   3.047   1.213 -0.9109  0.2062 -2.2972
  888SOL  OW    2662   2.024   1.115   2.069 -0.3454 -0.2094  0.0279
  888SOL  HW1   2663   2.093   1.042   2.093 -1.6888 -1.4137 -0.7626
  888SOL  HW2   2664   2.048   1.207   2.108  2.0320 -0.9615 -1.6061
  889SOL  OW    2665   0.285   3.057   0.803 -0.0766 -0.6574  0.0453
  889SOL  HW1   2666   0.261   2.964   0.845  0.0652 -0.7640  3.6423
  889SOL  HW2   2667   0.379   3.079   0.813 -0.4897  2.8892 -1.6786
  890SOL  OW    2668   2.824   2.456   2.268  0.3332  0.1464  0.2163
  890SOL  HW1   2669   2.792   2.544   2.314  0.8453  0.8423  0.0827
  890SOL  HW2   2670   2.805   2.374   2.327 -5.4493  1.5338 -0.0703
  891SOL  OW    2671   0.495   2.566   0.840  0.5948  0.2434 -0.1735
  891SOL  HW1   2672   0.420   2.535   0.779 -1.9312  0.8746 -1.6122
  891SOL  HW2   2673   0.479   2.543   0.939  0.3788  0.4125 -0.0953
  892SOL  OW    2674   0.174   2.665   1.501  0.0543 -0.1262  0.2750
  892SOL  HW1   2675   0.090   2.656   1.441 -0.9452  0.2637  0.1646
  892SOL  HW2   2676   0.236   2.726   1.453 -1.7567 -2.9532  2.0484
  893SOL  OW    2677   0.041   0.544   1.021  0.2549  0.1139 -0.6510
  893SOL  HW1   2678   3.087   0.535   0.932 -1.6606 -1.6947  0.7189
  893SOL  HW2   2679   0.076   0.639   1.018 -0.6187  1.6570  1.3076
  894SOL  OW    2680   2.440   1.607   1.023  0.1096 -0.3426  0.3652
  894SOL  HW1   2681   2.349   1.580   0.988  2.2141  1.9300 -4.5835
  894SOL  HW2   2682   2.445   1.701   1.064  1.0816 -0.4908 -1.0173
  895SOL  OW    2683   1.707   1.916   0.749 -0.1963  0.0681  0.4174
  895SOL  HW1   2684   1.763   1.998   0.727  1.4930  1.2586 -0.3161
  895SOL  HW2   2685   1.671   1.915   0.841  0.0756  0.0634 -2.5672
  896SOL  OW    2686   1.633   0.070   1.304 -0.5269  0.0581  0.6053
  896SOL  HW1   2687   1.639   0.053   1.202  1.8408  0.5857 -0.6251
  896SOL  HW2   2688   1.550   0.022   1.343 -1.4194 -0.2395 -0.1788
  897SOL  OW    2689   1.455   2.131   1.004  0.3643  0.0204 -0.1268
  897SOL  HW1   2690   1.548   2.097   1.027  2.0933  0.0035 -1.0236
  897SOL  HW2   2691   1.449   2.198   0.924  0.8567  1.8747 -2.5607
  898SOL  OW    2692   2.069   0.503   2.043 -0.0912 -0.3188 -0.2256
  898SOL  HW1   2693   2.014   0.546   1.966  0.7366  0.4940 -0.1912
  898SOL  HW2   2694   2.011   0.500   2.126 -0.4472 -1.1917  2.5214
  899SOL  OW    2695   0.504   0.799   2.740  0.4963 -0.4078 -0.0749
  899SOL  HW1   2696   0.450   0.723   2.701 -0.9638 -1.2402  2.7095
  899SOL  HW2   2697   0.450   0.870   2.791  1.3145  0.3225 -1.3661
  900SOL  OW    2698   1.176   1.066   2.683  0.4331  0.3164 -0.0699
  900SOL  HW1   2699   1.120   1.025   2.758 -0.4993  1.9122 -0.4886
  900SOL  HW2   2700   1.161   1.166   2.675 -0.6366  1.1464 -0.9081
  901SOL  OW    2701   0.184   2.661   0.484 -0.2227 -0.0740 -0.8064
  901SOL  HW1   2702   0.220   2.747   0.523  0.4085  0.2296  0.9710
  901SOL  HW2   2703   0.207   2.658   0.386 -0.2054 -1.3513 -0.9104
  902SOL  OW    2704   1.423   0.176   0.582 -0.0175  0.3022 -0.3231
  902SOL  HW1   2705   1.444   0.274   0.612 -0.1879 -1.4393  0.8443
  902SOL  HW2   2706   1.506   0.120   0.597  4.6794  2.1975  2.6417
  903SOL  OW    2707   3.038   0.797   2.385  0.5012  0.2367 -0.5410
  903SOL  HW1   2708   0.019   0.728   2.404  0.2246  1.5950 -0.9263
  903SOL  HW2   2709   2.977   0.804   2.467 -2.3967  4.6057  1.7331
  904SOL  OW    2710   1.247   0.532   0.641  0.0011  0.4716 -0.2405
  904SOL  HW1   2711   1.342   0.499   0.664  0.7676  0.3099 -0.8833
  904SOL  HW2   2712   1.233   0.559   0.542 -0.6948  1.9388 -1.8819
  905SOL  OW    2713   2.463   0.407   1.846  0.0327  0.2688  0.0938
  905SOL  HW1   2714   2.487   0.498   1.883  1.4698 -1.0089 -2.6638
  905SOL  HW2   2715   2.547   0.346   1.847  0.7722  0.1405  0.5715
  906SOL  OW    2716   2.149   2.883   0.815  0.6343 -0.0526 -0.3376
  906SOL  HW1   2717   2.095   2.798   0.798 -0.5634 -0.2080  2.6170
  906SOL  HW2   2718   2.181   2.923   0.727 -1.9709 -0.7917 -1.7436
  907SOL  OW    2719   2.589   1.001   0.756 -0.2059  0.3977 -0.4269
  907SOL  HW1   2720   2.548   1.093   0.746  0.0962  2.1069 -1.8824
  907SOL  HW2   2721   2.631   0.976   0.663  2.1072  1.2487 -0.2658
  908SOL  OW    2722   2.239   2.964   0.534  0.0122 -0.2474  0.1470
  908SOL  HW1   2723   2.168   2.894   0.512 -0.2345 -1.5956  0.7986
  908SOL  HW2   2724   2.330   2.916   0.515 -1.7644 -0.7618 -0.5472
  909SOL  OW    2725   0.170   0.195   0.731 -0.5231  0.1364  0.2848
  909SOL  HW1   2726   0.112   0.205   0.647  0.5749 -0.6479 -1.5108
  909SOL  HW2   2727   0.179   0.098   0.763  0.7919  0.9795 -1.6911
  910SOL  OW    2728   2.236   0.311   1.981 -0.4227 -0.4309 -0.2380
  910SOL  HW1   2729   2.324   0.331   1.940  0.0756  1.5729  0.4469
  910SOL  HW2   2730   2.175   0.393   1.980  2.0614 -0.7754 -1.0063
  911SOL  OW    2731   1.939   2.921   2.928  0.3970  0.2591 -0.4102
  911SOL  HW1   2732   1.950   2.887   2.834 -0.5164  1.2660 -0.8944
  911SOL  HW2   2733   2.023   2.970   2.966  0.6920  1.0175  0.5090
  912SOL  OW    2734   0.366   0.914   1.098 -0.3030 -0.6453  0.6379
  912SOL  HW1   2735   0.434   0.862   1.151 -0.6106 -1.5600 -0.9664
  912SOL  HW2   2736   0.408   0.936   1.006 -0.2541  1.1808  0.6321
  913SOL  OW    2737   2.007   2.705   1.204 -0.4390 -0.4156  1.4986
  913SOL  HW1   2738   2.084   2.768   1.202 -0.0516 -2.1740 -2.3785
  913SOL  HW2   2739   1.932   2.750   1.253 -0.2384  0.1933 -0.9846
  914SOL  OW    2740   2.267   0.239   1.063  0.3452 -0.3616  0.1491
  914SOL  HW1   2741   2.327   0.279   0.992  1.2516  1.4847  0.6460
  914SOL  HW2   2742   2.222   0.158   1.019  0.0052 -2.1833 -0.8201
  915SOL  OW    2743   0.378   1.619   1.696  0.3268  0.4487  1.2261
  915SOL  HW1   2744   0.347   1.710   1.663 -0.5732  0.4968  1.1526
  915SOL  HW2   2745   0.320   1.594   1.773  0.0094  0.2118  0.5421
  916SOL  OW    2746   1.989   2.543   0.988  0.1052  0.1534  0.1933
  916SOL  HW1   2747   2.015   2.582   0.898 -0.2360  0.9605 -3.8106
  916SOL  HW2   2748   1.993   2.611   1.061 -1.4953 -1.5584 -0.2000
  917SOL  OW    2749   2.494   2.369   2.401 -0.5140  0.4516  0.5821
  917SOL  HW1   2750   2.590   2.335   2.417  1.7377 -0.6306 -1.0381
  917SOL  HW2   2751   2.468   2.344   2.305 -0.8385  2.6459  0.2332
  918SOL  OW    2752   3.059   2.484   2.157  0.1231  0.0611 -0.3918
  918SOL  HW1   2753   2.963   2.461   2.183 -0.5016  0.7509 -1.1733
  918SOL  HW2   2754   3.074   2.469   2.057 -1.4873 -3.5978 -1.2800
  919SOL  OW    2755   1.074   0.340   0.769  0.0731 -0.2698  0.5667
  919SOL  HW1   2756   1.142   0.386   0.707 -1.3304  0.0465 -2.3323
  919SOL  HW2   2757   1.069   0.379   0.864  1.2061 -2.1238 -0.1062
  920SOL  OW    2758   2.706   0.903   2.311  0.2731  0.2993 -0.1809
  920SOL  HW1   2759   2.727   0.853   2.225 -0.5657 -0.8759  3.5935
  920SOL  HW2   2760   2.615   0.885   2.348  0.2738  0.7490 -0.9463
  921SOL  OW    2761   2.010   1.627   1.656 -0.3163 -1.1921 -0.0530
  921SOL  HW1   2762   2.111   1.627   1.658 -0.4047 -0.1070 -0.9971
  921SOL  HW2   2763   1.974   1.564   1.726  1.2802 -0.7092 -2.9892
  922SOL  OW    2764   0.047   2.820   1.087 -0.3499  0.6122  0.1532
  922SOL  HW1   2765   0.067   2.882   1.165 -2.4537 -1.9685  0.7714
  922SOL  HW2   2766   0.132   2.810   1.032  0.0272  0.6976  0.3887
  923SOL  OW    2767   0.825   0.008   0.284 -0.9522 -0.1253  0.0892
  923SOL  HW1   2768   0.912   3.085   0.333 -0.6402 -0.3392  0.3239
  923SOL  HW2   2769   0.842   0.075   0.207 -0.6195  1.4492  0.1617
  924SOL  OW    2770   1.001   0.984   2.910  0.0097 -0.3547  0.6527
  924SOL  HW1   2771   0.906   0.997   2.878 -2.2053 -1.1293  0.5649
  924SOL  HW2   2772   1.028   1.047   2.986 -0.3676 -1.4728 -1.1298
  925SOL  OW    2773   0.201   1.546   0.829  0.0453 -0.2222 -0.5962
  925SOL  HW1   2774   0.256   1.469   0.789 -1.6577 -0.4989 -2.4519
  925SOL  HW2   2775   0.099   1.519   0.822  1.0734 -2.0099  0.1479
  926SOL  OW    2776   1.015   0.313   1.621  0.6027 -0.0325  0.3548
  926SOL  HW1   2777   1.039   0.215   1.613 -0.3390 -1.5674  1.5350
  926SOL  HW2   2778   0.963   0.354   1.543 -0.1979 -2.2323 -0.6404
  927SOL  OW    2779   1.136   2.334   2.235 -0.0741 -0.0567  0.1247
  927SOL  HW1   2780   1.129   2.332   2.333  1.6370 -0.2361 -0.2791
  927SOL  HW2   2781   1.044   2.320   2.188 -0.6216 -1.4787 -0.2428
  928SOL  OW    2782   1.000   3.041   2.038 -0.3998  0.2083 -0.5396
  928SOL  HW1   2783   1.018   0.043   2.068 -0.9656 -1.0829 -0.4652
  928SOL  HW2   2784   1.030   2.974   2.104 -0.2698  0.0484 -1.2471
  929SOL  OW    2785   0.129   2.052   1.300  0.2059 -0.0567  0.0328
  929SOL  HW1   2786   0.037   2.048   1.351 -0.5942  0.2106  2.7828
  929SOL  HW2   2787   0.116   2.027   1.201 -0.1713 -2.5421 -0.4151
  930SOL  OW    2788   2.154   2.734   2.447 -0.1817 -0.5014 -0.3044
  930SOL  HW1   2789   2.067   2.737   2.395 -2.3603 -0.8452 -0.1637
  930SOL  HW2   2790   2.204   2.649   2.416 -0.6096 -0.7841  1.5605
  931SOL  OW    2791   2.225   0.932   2.106  0.4305  0.0903  0.3071
  931SOL  HW1   2792   2.312   0.984   2.076 -1.3207 -0.1732 -0.1499
  931SOL  HW2   2793   2.241   0.911   2.203  0.7809 -0.2175  1.3441
  932SOL  OW    2794   2.012   0.615   0.660 -0.0777 -0.5911  0.3109
  932SOL  HW1   2795   1.935   0.673   0.687 -0.1390  0.2683 -1.2024
  932SOL  HW2   2796   1.979   0.522   0.634 -0.0629 -2.1908  1.2301
  933SOL  OW    2797   0.881   0.233   1.289 -0.3629  0.1586  0.6009
  933SOL  HW1   2798   0.812   0.191   1.349 -0.6815  0.9940 -1.5741
  933SOL  HW2   2799   0.973   0.203   1.319 -3.5384 -2.8573 -1.1817
  934SOL  OW    2800   2.215   0.874   2.373 -0.1674 -0.4026 -0.1641
  934SOL  HW1   2801   2.152   0.794   2.362 -1.3752 -1.0544 -0.4116
  934SOL  HW2   2802   2.172   0.936   2.442  2.3825  2.2711 -1.8989
  935SOL  OW    2803   2.565   0.919   1.385 -0.2255  0.4789 -0.0238
  935SOL  HW1   2804   2.629   0.999   1.383  1.1236 -4.1997 -0.7146
  935SOL  HW2   2805   2.480   0.935   1.327  0.8398  0.7019  0.5945
  936SOL  OW    2806   2.782   2.750   0.761 -0.1281 -0.4831  0.3601
  936SOL  HW1   2807   2.773   2.842   0.804  0.4919 -1.5789  2.0423
  936SOL  HW2   2808   2.799   2.763   0.662 -2.6862 -1.1716 -1.4164
  937SOL  OW    2809   2.258   2.393   0.002 -0.0897 -0.2756 -0.1995
  937SOL  HW1   2810   2.241   2.491   0.001 -1.6678 -1.2314  1.2116
  937SOL  HW2   2811   2.317   2.367   0.079 -1.0909  1.5825 -1.4716
  938SOL  OW    2812   2.705   2.415   0.157 -0.4567 -0.2770  0.3484
  938SOL  HW1   2813   2.607   2.386   0.163 -1.0585 -2.1876  1.1215
  938SOL  HW2   2814   2.754   2.341   0.205  2.0807  2.3187  0.4809
  939SOL  OW    2815   0.889   0.810   1.826 -0.4306  0.5675 -0.1928
  939SOL  HW1   2816   0.929   0.808   1.733 -0.6213  1.7700  0.2301
  939SOL  HW2   2817   0.938   0.881   1.884  1.1974  1.0773  3.1181
  940SOL  OW    2818   2.017   1.613   0.061 -0.0076  0.2110 -0.1380
  940SOL  HW1   2819   2.110   1.652   0.073  0.2368 -0.3375 -1.9864
  940SOL  HW2   2820   1.959   1.642   3.077  1.3101 -3.2214  0.9324
  941SOL  OW    2821   2.733   1.063   2.054  0.4517  0.7405  0.1599
  941SOL  HW1   2822   2.807   1.121   2.020  2.3117  0.0105  2.1027
  941SOL  HW2   2823   2.755   1.033   2.146 -3.2933  0.8662 -0.7446
  942SOL  OW    2824   1.918   0.124   1.346  0.3398 -0.1554  0.3376
  942SOL  HW1   2825   1.920   0.225   1.322  0.9120 -2.8872 -0.6507
  942SOL  HW2   2826   1.823   0.089   1.334 -2.5396  0.9625  3.4698
  943SOL  OW    2827   1.170   1.649   1.991  0.2759 -0.3878  0.2705
  943SOL  HW1   2828   1.262   1.651   1.942  1.0646 -0.6043  0.1799
  943SOL  HW2   2829   1.160   1.561   2.041  0.8425 -2.7675  1.0117
  944SOL  OW    2830   2.546   0.619   0.948 -0.7061  0.2746 -0.1413
  944SOL  HW1   2831   2.510   0.697   0.906 -1.2781 -0.7437  0.4289
  944SOL  HW2   2832   2.527   0.612   1.050 -0.3813  0.6212 -2.0065
  945SOL  OW    2833   2.686   0.289   2.472  0.3672 -0.3055 -0.1087
  945SOL  HW1   2834   2.656   0.315   2.563 -0.7543 -1.6304  1.0390
  945SOL  HW2   2835   2.788   0.308   2.465  2.2427  0.9393  1.0312
  946SOL  OW    2836   0.214   1.585   1.097  0.1069 -0.5094 -0.1125
  946SOL  HW1   2837   0.245   1.563   1.000 -0.0791  0.8891  1.3750
  946SOL  HW2   2838   0.276   1.649   1.144 -0.6778 -0.2161  2.9625
  947SOL  OW    2839   0.370   1.025   2.875 -0.3503 -0.4523  0.5342
  947SOL  HW1   2840   0.322   1.110   2.841 -0.1288  1.0663  1.0402
  947SOL  HW2   2841   0.454   1.047   2.928  0.9550 -1.9189  1.0132
  948SOL  OW    2842   1.107   1.140   1.487  0.0213 -0.1328  0.0280
  948SOL  HW1   2843   1.123   1.072   1.558 -3.1705  1.6786 -0.9251
  948SOL  HW2   2844   1.158   1.118   1.402 -1.1170 -0.9798  0.8562
  949SOL  OW    2845   1.016   1.765   2.815 -0.0356  0.0495  0.0517
  949SOL  HW1   2846   1.027   1.664   2.826 -0.9621  0.6337  1.0551
  949SOL  HW2   2847   1.053   1.812   2.896  2.3237 -1.2709 -0.3346
  950SOL  OW    2848   0.517   2.631   1.284  0.6335  0.2017  0.3856
  950SOL  HW1   2849   0.562   2.601   1.369  0.2748 -0.7481  3.5658
  950SOL  HW2   2850   0.445   2.701   1.303  1.5356 -1.7863  1.2181
  951SOL  OW    2851   0.820   2.392   2.834  0.1206 -0.0807 -0.6588
  951SOL  HW1   2852   0.880   2.462   2.793  0.2525 -1.2052 -1.4559
  951SOL  HW2   2853   0.851   2.298   2.821  0.8842 -0.3463 -1.7134
  952SOL  OW    2854   0.597   1.678   1.065  0.2781  0.5172 -0.5992
  952SOL  HW1   2855   0.642   1.604   1.010  0.3965 -0.8552 -2.5109
  952SOL  HW2   2856   0.531   1.735   1.013 -0.6018 -0.1810 -3.6944
  953SOL  OW    2857   2.661   1.879   2.714  0.1815  0.4125 -0.2573
  953SOL  HW1   2858   2.652   1.982   2.742  1.0414 -0.7915 -0.3963
  953SOL  HW2   2859   2.636   1.862   2.618  1.4119  0.7902 -1.6184
  954SOL  OW    2860   1.823   0.466   0.339  0.4736 -0.2069 -0.2535
  954SOL  HW1   2861   1.769   0.517   0.408 -2.1653 -0.3246  3.6423
  954SOL  HW2   2862   1.876   0.527   0.280 -1.4926 -0.2635 -0.9168
  955SOL  OW    2863   0.308   1.414   2.868 -0.3064  0.8813  0.3669
  955SOL  HW1   2864   0.270   1.504   2.848 -0.8975 -0.9107 -0.7084
  955SOL  HW2   2865   0.307   1.354   2.788 -0.0105 -2.3083 -0.9755
  956SOL  OW    2866   2.596   0.700   1.743  0.5250  0.1132 -0.6870
  956SOL  HW1   2867   2.645   0.626   1.693  1.8021 -0.2373  1.9649
  956SOL  HW2   2868   2.582   0.684   1.839  0.1599  0.3309  0.5572
  957SOL  OW    2869   1.810   2.439   1.294  0.2700 -0.1815 -0.3905
  957SOL  HW1   2870   1.889   2.483   1.243  0.8237  0.6485  0.5301
  957SOL  HW2   2871   1.722   2.491   1.282 -0.1672 -0.4012  0.8186
  958SOL  OW    2872   2.244   0.680   1.262 -0.5565 -0.3034  0.0814
  958SOL  HW1   2873   2.194   0.687   1.349  1.6829 -0.1461 -1.2773
  958SOL  HW2   2874   2.199   0.618   1.189  1.0444 -3.2686  0.0252
  959SOL  OW    2875   0.902   2.330   2.104 -0.5507  0.5386  0.3989
  959SOL  HW1   2876   0.881   2.431   2.113  0.2383  0.8851 -1.0444
  959SOL  HW2   2877   0.820   2.273   2.079  0.7519  0.1731 -1.0203
  960SOL  OW    2878   0.577   1.482   1.825  0.5959 -0.2403 -0.0257
  960SOL  HW1   2879   0.555   1.378   1.827 -1.3262  3.0765  3.8879
  960SOL  HW2   2880   0.507   1.536   1.777 -0.2614  0.4454  1.6795
  961SOL  OW    2881   2.615   0.462   0.162 -0.1913 -0.0556  0.4742
  961SOL  HW1   2882   2.529   0.415   0.138 -2.0766  0.8286 -1.0526
  961SOL  HW2   2883   2.594   0.542   0.221 -1.7136 -1.0972 -0.9947
  962SOL  OW    2884   2.803   1.260   3.095  0.3811 -0.0382 -0.0817
  962SOL  HW1   2885   2.724   1.214   3.058  2.1142 -0.0867 -1.5101
  962SOL  HW2   2886   2.821   1.233   0.095  0.7760 -2.2264  0.3572
  963SOL  OW    2887   2.743   1.417   0.314  0.1948  0.1407 -0.7943
  963SOL  HW1   2888   2.688   1.372   0.387  0.5211  0.0424  1.0596
  963SOL  HW2   2889   2.841   1.391   0.326  1.3409  1.1769 -1.0623
  964SOL  OW    2890   1.241   2.306   2.890 -0.3577  0.4978  0.2466
  964SOL  HW1   2891   1.334   2.321   2.846 -2.2691 -0.6082  0.2562
  964SOL  HW2   2892   1.205   2.395   2.925 -1.6318  0.2458 -3.4136
  965SOL  OW    2893   0.788   1.861   1.177 -0.0114 -0.2107 -0.1196
  965SOL  HW1   2894   0.721   1.806   1.124 -0.5136  2.3649 -0.4324
  965SOL  HW2   2895   0.783   1.828   1.272 -2.5888  0.4854  0.7852
  966SOL  OW    2896   2.976   1.312   0.403  0.4382 -0.3366 -0.1286
  966SOL  HW1   2897   2.969   1.269   0.493  1.8257  0.4268 -0.3766
  966SOL  HW2   2898   3.046   1.385   0.404  0.1213 -2.1161 -0.5418
  967SOL  OW    2899   1.140   0.025   2.444  0.8303 -0.2671 -0.1618
  967SOL  HW1   2900   1.173   0.045   2.538  1.0791  2.4963 -1.0051
  967SOL  HW2   2901   1.170   3.026   2.414 -0.7728 -2.2310 -0.6774
  968SOL  OW    2902   1.604   1.266   2.908 -0.1333 -0.1573  0.2782
  968SOL  HW1   2903   1.573   1.345   2.852  4.7400  3.0275 -0.8279
  968SOL  HW2   2904   1.521   1.205   2.916 -1.5724  0.3334 -1.7311
  969SOL  OW    2905   0.413   1.380   2.187 -0.2486 -0.8330  0.1766
  969SOL  HW1   2906   0.331   1.437   2.195 -0.4155 -0.8491  0.7080
  969SOL  HW2   2907   0.411   1.315   2.106 -2.3010  1.0734  0.2515
  970SOL  OW    2908   2.341   0.069   0.725 -0.1496  0.0328  0.8156
  970SOL  HW1   2909   2.248   0.033   0.701  0.9202 -1.6194  1.0533
  970SOL  HW2   2910   2.355   0.171   0.705 -3.4862 -1.1058  0.6931
  971SOL  OW    2911   1.067   1.795   0.007  0.4917  0.6232  0.1169
  971SOL  HW1   2912   1.091   1.779   0.105  0.6508  1.6519  3.4725
  971SOL  HW2   2913   0.996   1.864   0.004 -0.8852 -2.7866 -1.3203
  972SOL  OW    2914   0.560   2.351   2.834  0.0238  0.3742  0.3222
  972SOL  HW1   2915   0.661   2.342   2.841  0.9893  1.2590  0.9028
  972SOL  HW2   2916   0.534   2.373   2.737  1.8389  1.6972  2.3766
  973SOL  OW    2917   1.022   2.740   0.844 -0.6658  0.1344 -0.2559
  973SOL  HW1   2918   1.095   2.814   0.827 -0.5343 -0.1747  1.2595
  973SOL  HW2   2919   0.958   2.768   0.916 -0.6224  1.1212 -1.2970
  974SOL  OW    2920   2.475   0.873   2.477  0.1198  0.1097 -0.5451
  974SOL  HW1   2921   2.384   0.858   2.434  2.8182  1.5773  1.3386
  974SOL  HW2   2922   2.479   0.851   2.577 -0.2433 -2.0582 -1.1424
  975SOL  OW    2923   0.287   2.478   0.674  0.1768  0.1966  0.1109
  975SOL  HW1   2924   0.201   2.480   0.727  0.3885 -1.4518  0.6860
  975SOL  HW2   2925   0.275   2.544   0.595  0.0787 -2.6413  2.3899
  976SOL  OW    2926   1.094   2.077   0.913 -0.4088 -0.5245 -0.3139
  976SOL  HW1   2927   1.029   2.056   0.838 -0.8762  2.6380  1.0599
  976SOL  HW2   2928   1.177   2.019   0.915 -0.3336  0.4346  1.4210
  977SOL  OW    2929   0.903   1.319   0.445  0.0759  0.0727 -0.2923
  977SOL  HW1   2930   0.803   1.305   0.429  2.6671 -0.5292 -1.0084
  977SOL  HW2   2931   0.944   1.257   0.519  2.4895 -0.6038 -3.2600
  978SOL  OW    2932   0.497   1.742   3.093 -0.2992  0.0197  0.4248
  978SOL  HW1   2933   0.400   1.723   0.005 -0.6198 -0.3367  2.7783
  978SOL  HW2   2934   0.529   1.725   2.994 -1.5748 -0.5422  0.4647
  979SOL  OW    2935   2.178   0.456   0.244  0.4068 -0.3131  0.4901
  979SOL  HW1   2936   2.101   0.517   0.233 -2.4886 -2.1309 -2.1427
  979SOL  HW2   2937   2.157   0.388   0.310  3.4799 -1.7772 -2.5471
  980SOL  OW    2938   0.426   1.073   1.649  0.0489 -0.1268  0.1079
  980SOL  HW1   2939   0.527   1.046   1.648 -0.8570 -2.3938  1.1526
  980SOL  HW2   2940   0.402   1.152   1.588 -1.5225 -0.3743 -0.7508
  981SOL  OW    2941   2.360   1.915   1.462 -0.7875  0.3290 -0.2931
  981SOL  HW1   2942   2.314   1.870   1.381 -2.4802 -1.1511  1.2754
  981SOL  HW2   2943   2.445   1.960   1.432 -0.3418  0.6749 -3.8725
  982SOL  OW    2944   0.506   2.400   1.687  0.2385  0.0677  0.0309
  982SOL  HW1   2945   0.405   2.397   1.653 -4.5116 -1.6181 -0.7867
  982SOL  HW2   2946   0.505   2.453   1.773 -1.8261 -0.6592 -1.6442
  983SOL  OW    2947   0.950   2.803   1.456 -0.0499 -0.2207 -0.4339
  983SOL  HW1   2948   0.965   2.717   1.402  0.7660  2.5788  1.5415
  983SOL  HW2   2949   0.850   2.814   1.465  0.9305  0.1568  0.9471
  984SOL  OW    2950   2.378   0.568   2.341  0.1211  0.3337  0.0177
  984SOL  HW1   2951   2.425   0.490   2.289  0.0309  0.1196  3.7324
  984SOL  HW2   2952   2.345   0.636   2.275 -2.6496 -0.3679  0.2391
  985SOL  OW    2953   1.381   1.603   2.345  0.0034  0.4651  0.2529
  985SOL  HW1   2954   1.348   1.584   2.251 -2.9776 -0.5425 -4.1828
  985SOL  HW2   2955   1.327   1.680   2.386 -0.6271 -0.2953 -2.0164
  986SOL  OW    2956   1.414   3.016   0.224 -0.7168  0.1598  0.0733
  986SOL  HW1   2957   1.452   3.010   0.130 -2.0245 -1.0003 -0.5166
  986SOL  HW2   2958   1.380   0.014   0.244 -2.3537 -2.3765  2.3190
  987SOL  OW    2959   0.884   2.443   0.021  0.3484 -0.2390  0.4409
  987SOL  HW1   2960   0.855   2.421   3.021 -1.8414  0.8982 -0.0502
  987SOL  HW2   2961   0.803   2.471   0.074  0.1548 -1.4288 -1.6217
  988SOL  OW    2962   0.417   0.194   1.034 -0.1418 -0.1377 -0.1882
  988SOL  HW1   2963   0.456   0.127   0.967  0.5168  1.8772  0.2782
  988SOL  HW2   2964   0.391   0.290   1.002 -0.3790 -0.8790 -1.7204
  989SOL  OW    2965   2.180   0.263   0.481  0.1236  0.2611 -0.4227
  989SOL  HW1   2966   2.171   0.170   0.438 -1.0531 -1.8500  2.0205
  989SOL  HW2   2967   2.276   0.269   0.512  1.1731 -1.6572 -0.5966
  990SOL  OW    2968   3.008   0.697   0.162 -0.1292 -0.5759  0.0117
  990SOL  HW1   2969   3.056   0.767   0.104  1.0980 -0.6861 -2.9226
  990SOL  HW2   2970   3.005   0.605   0.113  0.3612  0.0371 -1.6628
  991SOL  OW    2971   0.697   1.004   0.185  0.2399 -0.2876  0.0769
  991SOL  HW1   2972   0.794   0.978   0.193 -0.5185 -0.5702  2.3303
  991SOL  HW2   2973   0.657   1.022   0.276  0.2444 -2.3603 -1.3782
  992SOL  OW    2974   1.671   1.331   1.015  0.2606  0.1012 -0.2810
  992SOL  HW1   2975   1.625   1.240   1.009 -0.1363  0.9088 -0.4604
  992SOL  HW2   2976   1.601   1.400   1.031 -1.4866  2.4401  4.7906
  993SOL  OW    2977   0.170   1.821   0.841 -0.5228  0.4355 -0.2247
  993SOL  HW1   2978   0.138   1.856   0.751  0.0601 -4.0491 -1.1884
  993SOL  HW2   2979   0.169   1.713   0.834  0.9117  0.2737 -0.1052
  994SOL  OW    2980   2.825   0.932   1.816 -0.0704  0.1255 -0.7152
  994SOL  HW1   2981   2.807   0.970   1.908 -1.2253  2.5909 -1.9455
  994SOL  HW2   2982   2.779   0.843   1.795  0.4463  0.0100  0.0230
  995SOL  OW    2983   3.087   0.692   0.416  0.1296  0.0464  0.0753
  995SOL  HW1   2984   0.079   0.639   0.419 -1.7437  0.3312 -0.1035
  995SOL  HW2   2985   3.054   0.695   0.319 -0.0146 -0.8664 -3.3409
  996SOL  OW    2986   1.501   2.397   0.533 -0.2584  0.2727  0.5420
  996SOL  HW1   2987   1.498   2.469   0.466  2.2148 -0.4767 -0.3208
  996SOL  HW2   2988   1.546   2.312   0.501  2.3020  1.3565  3.1503
  997SOL  OW    2989   1.510   1.523   2.021 -0.3015 -0.3401  0.3301
  997SOL  HW1   2990   1.448   1.450   2.059  0.5158  0.8153 -1.1975
  997SOL  HW2   2991   1.572   1.562   2.093 -2.0537 -2.4520  0.8901
  998SOL  OW    2992   0.129   2.968   0.544  0.0886 -0.8013  0.7238
  998SOL  HW1   2993   0.130   3.069   0.546 -0.0201  1.0912  1.0759
  998SOL  HW2   2994   0.227   2.935   0.567 -1.1027  0.0697  0.7245
  999SOL  OW    2995   1.150   0.242   3.083 -0.2900  0.3046 -0.2406
  999SOL  HW1   2996   1.137   0.320   3.015 -0.2803  0.4417 -0.9165
  999SOL  HW2   2997   1.155   0.280   0.086  1.3725 -2.5804  0.4615
 1000SOL  OW    2998   1.491   0.423   0.651 -0.4937  0.6684  0.5146
 1000SOL  HW1   2999   1.542   0.491   0.594  1.0984  0.9465 -4.1506
 1000SOL  HW2   3000   1.535   0.415   0.742 -0.1065  1.4202  0.0648
    3.095540047     3.095540047     3.095540047     0.000000000     0.000000000     0.000000000     0.000000000     0.000000000     0.000000000
