1000 SPC/Fw water molecules
 3000
    1SOL     OW    1   2.053   1.680   1.876  0.2064 -0.0832  0.1393
    1SOL    HW1    2   1.966   1.654   1.925  0.4572 -0.7065  0.1880
    1SOL    HW2    3   2.086   1.603   1.813 -0.1069 -0.3103  0.6860
    2SOL     OW    4   2.378   0.879   2.315 -0.0576  0.1721 -0.3415
    2SOL    HW1    5   2.283   0.894   2.277  2.7413 -0.3896 -0.0618
    2SOL    HW2    6   2.432   0.855   2.232 -3.6880  1.7064  4.0239
    3SOL     OW    7   0.664   0.047   3.158 -0.3160 -0.1365 -0.0917
    3SOL    HW1    8   0.749  -0.005   3.176  2.3720 -1.6856  0.9419
    3SOL    HW2    9   0.647   0.116   3.232 -0.1152  2.1136  1.3003
    4SOL     OW   10   2.761   1.658   3.746  0.1891 -0.0606 -0.0656
    4SOL    HW1   11   2.837   1.723   3.721  0.5288  0.6085  0.2783
    4SOL    HW2   12   2.673   1.703   3.781 -0.0762 -0.1000  0.4925
    5SOL     OW   13   3.339   3.766   0.399  0.2057  0.0833 -0.1359
    5SOL    HW1   14   3.310   3.749   0.494 -0.0391  0.2193 -0.4018
    5SOL    HW2   15   3.298   3.852   0.362  0.1630  0.7951  0.4681
    6SOL     OW   16   3.283   3.422   0.305 -0.1703 -0.1323 -0.0942
    6SOL    HW1   17   3.246   3.469   0.390  0.0545  0.6973  1.6002
    6SOL    HW2   18   3.385   3.410   0.308  2.2019  0.2905  0.6905
    7SOL     OW   19   3.680   0.741   1.606  0.0258  0.0198 -0.1611
    7SOL    HW1   20   3.582   0.712   1.605 -1.0611  0.2542 -0.4770
    7SOL    HW2   21   3.702   0.771   1.510  0.0524  1.2945 -0.5464
    8SOL     OW   22   1.092   0.398   1.387 -0.1976 -0.3048 -0.1280
    8SOL    HW1   23   1.187   0.378   1.417  7.3968 -1.0493  2.7077
    8SOL    HW2   24   1.070   0.497   1.389 -1.9946  8.5140 -0.0090
    9SOL     OW   25   3.059   0.189   2.411  0.1065 -0.0438 -0.2904
    9SOL    HW1   26   3.062   0.207   2.311  0.7500 -1.7347 -1.1453
    9SOL    HW2   27   3.100   0.099   2.432 -0.2447 -0.0147 -2.0170
   10SOL     OW   28   3.137   0.696   0.170 -0.3543  0.1485  0.1606
   10SOL    HW1   29   3.079   0.640   0.233  3.3007  2.4234 -3.4344
   10SOL    HW2   30   3.140   0.794   0.205 -0.0742 -5.4757 -2.3204
   11SOL     OW   31   3.435   2.884   0.178  0.2470 -0.1647  0.0915
   11SOL    HW1   32   3.467   2.819   0.104 -1.1781 -1.1416 -0.3521
   11SOL    HW2   33   3.519   2.931   0.215 -0.5393  0.4002  1.3530
   12SOL     OW   34   2.632   3.363   0.245 -0.4041 -0.0521 -0.1150
   12SOL    HW1   35   2.696   3.282   0.246  0.9079 -1.6397 -0.9868
   12SOL    HW2   36   2.585   3.370   0.335 -2.1993  0.8401  2.2227
   13SOL     OW   37   0.420   0.354   0.787  0.2474 -0.2374  0.1576
   13SOL    HW1   38   0.467   0.433   0.743  0.7816  0.8602 -0.7248
   13SOL    HW2   39   0.370   0.303   0.715 -0.9301 -1.2761 -1.1209
   14SOL     OW   40   3.177   3.485   0.558 -0.4008 -0.4045  0.1799
   14SOL    HW1   41   3.203   3.415   0.625 -1.2944  3.6642 -3.4799
   14SOL    HW2   42   3.076   3.487   0.547  4.1856  0.1910  0.5981
   15SOL     OW   43   2.809   0.772   2.247  0.1206  0.0318  0.0897
   15SOL    HW1   44   2.886   0.770   2.315 -0.7347  0.1364 -0.1896
   15SOL    HW2   45   2.822   0.844   2.174 -0.1078 -0.7433  0.3988
   16SOL     OW   46   3.082   2.065   2.606 -0.0388 -0.2764 -0.2210
   16SOL    HW1   47   3.160   2.006   2.639 -0.1050  0.2128 -0.3503
   16SOL    HW2   48   3.021   2.019   2.536 -0.2117 -0.2479  0.0839
   17SOL     OW   49   3.344   0.155   3.602  0.2626 -0.1199  0.2256
   17SOL    HW1   50   3.271   0.224   3.614 -0.4437  1.2465 -0.4117
   17SOL    HW2   51   3.404   0.187   3.525 -0.0251  1.2600 -1.2984
   18SOL     OW   52   0.993   0.762   3.065 -0.0493  0.0210 -0.1241
   18SOL    HW1   53   1.001   0.673   3.116 -0.1927 -0.2027  0.4425
   18SOL    HW2   54   0.956   0.737   2.973 -0.7327  0.4157 -0.8731
   19SOL     OW   55   0.945   1.322   2.244  0.0474 -0.0366  0.1340
   19SOL    HW1   56   1.016   1.385   2.210  0.2938  0.8764  0.3741
   19SOL    HW2   57   0.909   1.356   2.334  0.9090  1.0403  0.5896
   20SOL     OW   58   0.398   2.558   2.691  0.0974 -0.2066 -0.0566
   20SOL    HW1   59   0.482   2.513   2.655  0.1845  0.4156  0.2389
   20SOL    HW2   60   0.425   2.653   2.717  0.7214 -0.2636 -0.4159
   21SOL     OW   61   2.573   3.586   2.563  0.2345 -0.2478  0.0407
   21SOL    HW1   62   2.501   3.614   2.631 -0.8662  0.6190 -1.0648
   21SOL    HW2   63   2.554   3.644   2.479 -2.1212  1.0209  0.9471
   22SOL     OW   64   3.214   0.485   1.020  0.0025 -0.1554 -0.3695
   22SOL    HW1   65   3.271   0.492   1.105 -0.5272 -0.1422 -0.2898
   22SOL    HW2   66   3.230   0.395   0.974 -0.1055  0.7238 -0.5406
   23SOL     OW   67   2.724   0.199   0.971  0.0142 -0.0566  0.2279
   23SOL    HW1   68   2.704   0.099   0.973 -0.6749 -0.3721 -2.3709
   23SOL    HW2   69   2.715   0.265   1.050 -0.4725  2.2634 -1.2740
   24SOL     OW   70   3.271   1.895   2.720  0.0107 -0.3275  0.1603
   24SOL    HW1   71   3.304   1.809   2.766 -1.5763 -1.0977 -0.2449
   24SOL    HW2   72   3.333   1.973   2.738 -0.7082  0.7801 -0.8416
   25SOL     OW   73   2.019   0.411   1.898 -0.3517 -0.2037  0.1713
   25SOL    HW1   74   2.108   0.457   1.881  4.3930  2.3174  0.9249
   25SOL    HW2   75   1.962   0.371   1.823 -3.5595 -2.3415 -1.6115
   26SOL     OW   76   0.918   0.757   2.295 -0.1777  0.0191  0.0657
   26SOL    HW1   77   0.998   0.785   2.350 -1.5055  0.1427 -0.2695
   26SOL    HW2   78   0.850   0.829   2.317  0.5336 -0.1985 -0.0071
   27SOL     OW   79   2.068   0.930   2.615  0.4245  0.2012 -0.0119
   27SOL    HW1   80   2.037   1.024   2.591 -0.0785  0.0721 -0.6915
   27SOL    HW2   81   2.041   0.862   2.542 -0.1696 -0.3127 -1.3183
   28SOL     OW   82   1.486   3.586   1.887 -0.1394 -0.0009 -0.2669
   28SOL    HW1   83   1.423   3.661   1.911 -5.3445  3.4608  0.9819
   28SOL    HW2   84   1.558   3.594   1.958  3.9887 -0.2203  2.7966
   29SOL     OW   85   2.736   3.452   1.692 -0.0680  0.0866 -0.1244
   29SOL    HW1   86   2.769   3.447   1.790  0.2748  0.9184  1.1681
   29SOL    HW2   87   2.643   3.411   1.687 -0.5624 -0.7131  0.2258
   30SOL     OW   88   0.872   3.630   3.562  0.2505 -0.0546  0.2074
   30SOL    HW1   89   0.946   3.571   3.523  1.0343  0.5565 -0.0952
   30SOL    HW2   90   0.858   3.719   3.512  2.0701  0.8721 -0.0779
   31SOL     OW   91   2.935   0.078   3.476  0.1605  0.1085  0.0007
   31SOL    HW1   92   3.020   0.115   3.433 -2.3996 -0.6283  0.6237
   31SOL    HW2   93   2.957   0.054   3.574 -1.3150  0.0731 -0.6436
   32SOL     OW   94   3.487   0.582   3.371  0.1519  0.2305  0.0212
   32SOL    HW1   95   3.522   0.580   3.275 -0.9002  0.1561  0.7484
   32SOL    HW2   96   3.550   0.633   3.434 -1.3601 -0.8452 -0.3380
   33SOL     OW   97   3.443   3.483   3.568 -0.2373 -0.1509 -0.0476
   33SOL    HW1   98   3.524   3.432   3.602  0.7114 -0.1305 -0.1518
   33SOL    HW2   99   3.461   3.529   3.481 -0.2481 -0.1659 -0.7026
   34SOL     OW  100   0.885   3.239   3.131  0.1648  0.1036 -0.0522
   34SOL    HW1  101   0.849   3.145   3.154  0.0480  0.0969  0.2654
   34SOL    HW2  102   0.911   3.232   3.034  0.3380  0.8520  1.2694
   35SOL     OW  103   3.668   0.981   3.369 -0.0070 -0.0888 -0.3830
   35SOL    HW1  104   3.690   1.031   3.457 -0.7840  1.3779  0.1666
   35SOL    HW2  105   3.733   0.907   3.337  0.7462 -0.9819 -1.6413
   36SOL     OW  106   0.171   3.051   3.297  0.0170  0.2698 -0.1674
   36SOL    HW1  107   0.144   2.955   3.272 -1.6461 -1.9645 -0.3087
   36SOL    HW2  108   0.221   3.046   3.386  0.4386 -0.3290  1.1246
   37SOL     OW  109   0.521   3.735   0.918 -0.2532  0.0853  0.1176
   37SOL    HW1  110   0.561   3.805   0.853  3.3109  3.2159 -4.9983
   37SOL    HW2  111   0.564   3.650   0.879  2.8136 -4.2547 -3.3435
   38SOL     OW  112   3.468   3.752   2.336  0.0026 -0.1805 -0.0673
   38SOL    HW1  113   3.428   3.843   2.312 -0.5329 -0.8633 -0.2077
   38SOL    HW2  114   3.402   3.682   2.298 -0.9664  1.1916 -0.1362
   39SOL     OW  115   1.738   1.738   2.713  0.2713 -0.0399  0.3442
   39SOL    HW1  116   1.759   1.726   2.614  1.7044 -0.8619 -5.7693
   39SOL    HW2  117   1.653   1.791   2.729 -3.9693  2.3193  1.3634
   40SOL     OW  118   2.179   0.661   1.286  0.1301 -0.1605  0.0944
   40SOL    HW1  119   2.125   0.653   1.373 -1.8220 -0.0333  2.6304
   40SOL    HW2  120   2.134   0.602   1.216 -1.2106 -1.5440 -2.4355
   41SOL     OW  121   1.722   0.285   1.092 -0.0226  0.0169 -0.2532
   41SOL    HW1  122   1.699   0.363   1.028  0.4182  0.2339  0.3411
   41SOL    HW2  123   1.663   0.206   1.059  0.2591  0.0641  0.4406
   42SOL     OW  124   1.681   2.053   2.578 -0.2348  0.0824  0.1907
   42SOL    HW1  125   1.769   2.011   2.558  5.8537 -3.8945 -0.4120
   42SOL    HW2  126   1.636   2.086   2.497 -2.6905  1.1905 -4.5571
   43SOL     OW  127   1.786   0.933   1.440 -0.4399 -0.2807 -0.2254
   43SOL    HW1  128   1.784   0.841   1.485 -0.7272  6.8176 -4.2039
   43SOL    HW2  129   1.705   0.931   1.378  3.5908 -0.3088  2.8569
   44SOL     OW  130   2.638   3.328   2.494  0.0702  0.2203 -0.0685
   44SOL    HW1  131   2.679   3.357   2.405 -0.4469  0.0412  0.6299
   44SOL    HW2  132   2.599   3.411   2.537 -0.0509 -0.7950  0.3454
   45SOL     OW  133   2.371   1.253   1.900 -0.0288  0.0857 -0.3455
   45SOL    HW1  134   2.380   1.243   1.797  0.5139  1.2455  0.4806
   45SOL    HW2  135   2.433   1.333   1.924  0.6366  0.1533 -1.4520
   46SOL     OW  136   1.817   0.124   1.297 -0.2585  0.0347 -0.1955
   46SOL    HW1  137   1.904   0.068   1.291  0.6652  0.1484 -0.2897
   46SOL    HW2  138   1.791   0.175   1.213  0.1759 -1.2052  1.1524
   47SOL     OW  139   3.029   2.322   2.642  0.1853 -0.2281 -0.1106
   47SOL    HW1  140   2.926   2.330   2.651  0.8110  1.2708 -0.0969
   47SOL    HW2  141   3.069   2.229   2.628  0.2076  2.1484 -0.3649
   48SOL     OW  142   2.437   2.178   2.696 -0.1661 -0.0870  0.0539
   48SOL    HW1  143   2.487   2.146   2.614 -0.3162  1.3101  1.2224
   48SOL    HW2  144   2.367   2.113   2.733  0.7277  1.4982  0.2477
   49SOL     OW  145   3.267   3.281   0.725 -0.2227  0.5749  0.0183
   49SOL    HW1  146   3.224   3.192   0.706 -1.9009 -6.3761 -1.0738
   49SOL    HW2  147   3.366   3.266   0.729  5.9526 -1.8829  0.1152
   50SOL     OW  148   2.798   0.021   3.068 -0.3591  0.0349 -0.3528
   50SOL    HW1  149   2.874  -0.041   3.098  1.8058 -1.2996  0.8849
   50SOL    HW2  150   2.742   0.059   3.144 -1.8686  1.3618  3.0579
   51SOL     OW  151   2.068   0.475   0.117  0.0914 -0.2423  0.0393
   51SOL    HW1  152   2.122   0.500   0.202 -0.0776 -0.6508 -0.2066
   51SOL    HW2  153   2.024   0.555   0.074 -0.4479 -1.1273 -0.2260
   52SOL     OW  154   0.226   3.463   3.565  0.0697 -0.0717 -0.0537
   52SOL    HW1  155   0.124   3.452   3.566  1.0233 -0.8206 -0.8510
   52SOL    HW2  156   0.247   3.533   3.637  0.8031 -1.3132 -0.4739
   53SOL     OW  157   2.703   0.784   0.700 -0.2201  0.2839  0.1168
   53SOL    HW1  158   2.729   0.693   0.742 -0.5527  0.9824 -1.1687
   53SOL    HW2  159   2.609   0.821   0.723  0.7346 -0.2585 -0.4783
   54SOL     OW  160   3.463   0.545   0.774 -0.3047  0.5005 -0.0780
   54SOL    HW1  161   3.369   0.585   0.762 -1.1105 -1.8769 -3.2822
   54SOL    HW2  162   3.523   0.577   0.851  2.2591 -1.2417 -1.2674
   55SOL     OW  163   2.658   1.747   2.460 -0.2149 -0.0091 -0.0197
   55SOL    HW1  164   2.595   1.751   2.379  1.2213 -0.5409  0.9422
   55SOL    HW2  165   2.606   1.785   2.540  0.7707 -1.0234 -0.9976
   56SOL     OW  166   0.117   0.214   1.477 -0.2515  0.1996 -0.0701
   56SOL    HW1  167   0.156   0.301   1.440 -1.4081 -0.3681  0.5584
   56SOL    HW2  168   0.130   0.137   1.410 -0.1162  0.6280  1.1211
   57SOL     OW  169   2.366   1.974   2.120  0.1621  0.2106 -0.0098
   57SOL    HW1  170   2.326   2.022   2.202  0.8021 -0.6115 -1.4567
   57SOL    HW2  171   2.448   2.026   2.086 -1.3353 -0.0289  0.4918
   58SOL     OW  172   2.875   1.243   2.741  0.3025  0.0494  0.0783
   58SOL    HW1  173   2.855   1.236   2.842 -0.9529  0.3367  4.0303
   58SOL    HW2  174   2.795   1.217   2.685 -2.3154  0.0567 -1.3521
   59SOL     OW  175   0.488   0.135   2.526  0.0111 -0.0761 -0.1393
   59SOL    HW1  176   0.487   0.033   2.542 -1.2294  2.5231 -1.9488
   59SOL    HW2  177   0.433   0.144   2.440  0.6388 -2.1865  1.3543
   60SOL     OW  178   0.049   3.527   1.707 -0.0260  0.1232 -0.2083
   60SOL    HW1  179   0.042   3.625   1.676 -0.0254  0.0524 -0.0347
   60SOL    HW2  180   0.120   3.476   1.653 -0.2723 -0.3576 -0.2859
   61SOL     OW  181   2.859   0.739   0.480 -0.0575  0.0194  0.0040
   61SOL    HW1  182   2.798   0.761   0.561 -0.8320  0.2502  0.7834
   61SOL    HW2  183   2.953   0.708   0.509  1.6078 -0.3794  0.8833
   62SOL     OW  184   3.123   3.059   0.668 -0.2422 -0.3075 -0.5263
   62SOL    HW1  185   3.066   3.043   0.583  4.4092  2.2047  7.9243
   62SOL    HW2  186   3.167   2.973   0.706 -2.2995  4.2193 -1.2395
   63SOL     OW  187   1.468   0.579   1.139 -0.1004  0.4374  0.1072
   63SOL    HW1  188   1.537   0.574   1.068  2.7673 -0.6776 -2.6285
   63SOL    HW2  189   1.442   0.487   1.161 -1.2115 -5.7071  0.7937
   64SOL     OW  190   3.004   3.063   2.969 -0.2592 -0.0898 -0.3702
   64SOL    HW1  191   3.090   3.071   3.026  1.4979  1.4739  3.2048
   64SOL    HW2  192   2.944   3.148   2.969 -1.4644  2.7465  2.0958
   65SOL     OW  193   3.644   2.915   3.750 -0.0296  0.1619 -0.2595
   65SOL    HW1  194   3.707   2.909   3.669  1.2340 -0.0483 -0.7885
   65SOL    HW2  195   3.578   2.839   3.765 -0.0595 -0.4549  0.9898
   66SOL     OW  196   2.521   1.441   2.018  0.3396 -0.3581  0.0075
   66SOL    HW1  197   2.594   1.509   2.005  2.0540  2.9062  0.1700
   66SOL    HW2  198   2.448   1.485   2.074 -1.9020  2.0828  1.5511
   67SOL     OW  199   3.201   3.685   1.614  0.1937 -0.1422 -0.1027
   67SOL    HW1  200   3.292   3.733   1.621 -0.3968  0.9285  0.4871
   67SOL    HW2  201   3.201   3.593   1.568 -1.3493  0.6005  0.3795
   68SOL     OW  202   2.630   0.786   1.096  0.1804  0.2477 -0.0430
   68SOL    HW1  203   2.701   0.837   1.043 -0.1604 -1.1293  0.3483
   68SOL    HW2  204   2.561   0.848   1.139  0.2512 -1.3267  0.3598
   69SOL     OW  205   3.463   0.886   0.865 -0.0085  0.1688  0.0391
   69SOL    HW1  206   3.454   0.886   0.763 -0.0039 -1.1957 -0.4325
   69SOL    HW2  207   3.511   0.804   0.900  0.2768 -0.5439 -0.7894
   70SOL     OW  208   2.406   1.213   3.215  0.1403  0.3473 -0.4760
   70SOL    HW1  209   2.367   1.305   3.242 -0.6011 -0.7307 -0.1853
   70SOL    HW2  210   2.445   1.205   3.119 -0.5978 -0.3218  0.2885
   71SOL     OW  211   1.118   0.538   0.998  0.1885 -0.2584  0.1143
   71SOL    HW1  212   1.210   0.550   0.956 -1.5733  0.8821 -0.0136
   71SOL    HW2  213   1.092   0.450   1.043 -0.6192  2.1619 -0.2902
   72SOL     OW  214   3.662   0.430   3.587 -0.0150  0.1084  0.2411
   72SOL    HW1  215   3.649   0.532   3.587 -0.4090 -0.6008 -2.0251
   72SOL    HW2  216   3.692   0.391   3.676  0.0429 -0.7490 -0.9318
   73SOL     OW  217   1.606   3.378   2.356 -0.0364  0.0179 -0.2287
   73SOL    HW1  218   1.676   3.454   2.343 -1.1104 -1.6296  0.9511
   73SOL    HW2  219   1.526   3.405   2.298  2.7113 -0.1827  1.8980
   74SOL     OW  220   0.036   0.049   3.083  0.0577 -0.0740  0.1730
   74SOL    HW1  221  -0.021  -0.030   3.109 -0.4179  0.3840 -0.1883
   74SOL    HW2  222   0.121   0.009   3.045  0.1058  0.5833 -0.2752
   75SOL     OW  223   3.158   1.941   3.400  0.1428 -0.4362 -0.1297
   75SOL    HW1  224   3.083   1.883   3.369  0.2977  2.3123  2.1328
   75SOL    HW2  225   3.252   1.926   3.369 -2.0963  2.0710  2.4145
   76SOL     OW  226   2.903   0.997   1.322 -0.0131 -0.0735 -0.1217
   76SOL    HW1  227   2.846   1.081   1.318 -0.0058 -0.5089 -0.3665
   76SOL    HW2  228   3.002   1.016   1.304 -0.2232 -0.2449  0.7907
   77SOL     OW  229   2.648   0.605   1.833 -0.0072  0.0940  0.2734
   77SOL    HW1  230   2.566   0.658   1.800 -0.8251 -0.1474  0.5772
   77SOL    HW2  231   2.646   0.585   1.934 -0.8519 -0.2134  1.1151
   78SOL     OW  232   2.053   0.636   1.518 -0.2746  0.1616  0.2946
   78SOL    HW1  233   1.953   0.663   1.522  3.3090 -0.9776  0.4469
   78SOL    HW2  234   2.096   0.665   1.608 -1.8186 -1.8906 -4.2435
   79SOL     OW  235   2.066   3.353   1.820  0.0632 -0.2056 -0.1421
   79SOL    HW1  236   2.128   3.275   1.850  0.7417  0.4126  0.2716
   79SOL    HW2  237   1.968   3.344   1.793  0.1189  1.0481 -0.2283
   80SOL     OW  238   1.583   0.827   2.031  0.0657  0.0515 -0.0065
   80SOL    HW1  239   1.497   0.868   2.065  0.1079 -0.0525 -0.5283
   80SOL    HW2  240   1.587   0.847   1.933 -0.1310  0.5948 -0.3557
   81SOL     OW  241   3.596   0.892   3.786 -0.1947 -0.1895 -0.1826
   81SOL    HW1  242   3.546   0.957   3.847 -0.2662  0.6799 -0.2203
   81SOL    HW2  243   3.651   0.830   3.846  0.6248 -1.1388  0.2857
   82SOL     OW  244   1.567   0.189   1.830  0.2904 -0.2087  0.5287
   82SOL    HW1  245   1.512   0.199   1.918  5.1015  0.5253 -9.5920
   82SOL    HW2  246   1.654   0.141   1.853 -7.3819  4.0243 -2.9367
   83SOL     OW  247   2.370   0.096   2.225 -0.2011 -0.1262 -0.2391
   83SOL    HW1  248   2.440   0.036   2.267  1.3255 -0.4186  1.4650
   83SOL    HW2  249   2.353   0.182   2.277 -0.2398  0.4251  0.7014
   84SOL     OW  250   1.736   0.461   0.251 -0.4267 -0.1794 -0.0037
   84SOL    HW1  251   1.643   0.467   0.208  2.9180 -0.0305  2.3017
   84SOL    HW2  252   1.794   0.383   0.212 -1.5125  3.7774  2.2924
   85SOL     OW  253   0.103   0.281   2.170  0.0675  0.0977  0.1008
   85SOL    HW1  254   0.046   0.300   2.088 -0.7206  0.2269 -0.0473
   85SOL    HW2  255   0.189   0.332   2.180  1.0433 -0.4100  0.5070
   86SOL     OW  256   2.142   1.614   2.803 -0.0050  0.1775  0.1987
   86SOL    HW1  257   2.131   1.638   2.705 -0.4424  1.2900 -4.4224
   86SOL    HW2  258   2.185   1.524   2.806  2.1108 -3.1585 -0.3845
   87SOL     OW  259   2.870   0.942   2.879  0.0012  0.3759 -0.2597
   87SOL    HW1  260   2.861   1.032   2.916  0.2424 -7.4514  0.7498
   87SOL    HW2  261   2.883   0.915   2.784 -0.5483 -1.8685  4.6002
   88SOL     OW  262   2.421   1.254   2.331  0.3768  0.1918 -0.2047
   88SOL    HW1  263   2.381   1.182   2.393  2.4027  1.9781 -0.2727
   88SOL    HW2  264   2.517   1.280   2.354 -1.7947 -1.4114  1.1957
   89SOL     OW  265   0.869   0.069   3.422 -0.0506 -0.0542  0.0902
   89SOL    HW1  266   0.888   0.014   3.337  0.4230 -0.0209 -1.3733
   89SOL    HW2  267   0.936   0.146   3.429  0.8721  0.7994  1.1126
   90SOL     OW  268   1.594   1.244   2.774  0.0620 -0.0438 -0.0939
   90SOL    HW1  269   1.523   1.182   2.738 -0.3257 -0.4697  0.1270
   90SOL    HW2  270   1.599   1.333   2.724  0.7245  1.2227 -0.3122
   91SOL     OW  271   1.957   0.804   2.862 -0.0047  0.0692 -0.1021
   91SOL    HW1  272   1.933   0.862   2.782  0.1435 -0.2151  0.7055
   91SOL    HW2  273   2.048   0.762   2.845 -0.9003  0.2468 -0.6200
   92SOL     OW  274   2.867   0.155   0.352  0.0175 -0.1684  0.0788
   92SOL    HW1  275   2.841   0.122   0.257 -0.0395  0.9474  1.1562
   92SOL    HW2  276   2.922   0.086   0.405 -1.4401  1.6770 -0.1382
   93SOL     OW  277   0.995   0.267   1.607  0.0136 -0.0022  0.1861
   93SOL    HW1  278   0.906   0.218   1.591  0.6313  1.0228  0.9006
   93SOL    HW2  279   1.029   0.313   1.522  0.0601  0.4436  0.2128
   94SOL     OW  280   2.277   3.253   2.142  0.1961  0.0404 -0.1070
   94SOL    HW1  281   2.292   3.173   2.204 -0.8050 -0.6419  1.6821
   94SOL    HW2  282   2.181   3.285   2.162 -0.8453 -0.8102  0.4162
   95SOL     OW  283   0.645   3.698   1.493 -0.1958  0.1834  0.4088
   95SOL    HW1  284   0.581   3.739   1.422  1.5651  0.1499  0.2720
   95SOL    HW2  285   0.603   3.670   1.583  1.8117  0.2733 -0.5389
   96SOL     OW  286   0.403   2.857   2.523  0.0033 -0.0261  0.1025
   96SOL    HW1  287   0.491   2.877   2.475 -0.4082 -0.2758 -0.7625
   96SOL    HW2  288   0.421   2.841   2.624  0.5625 -0.2396  1.5628
   97SOL     OW  289   1.832   0.421   1.294  0.0539  0.6321  0.0955
   97SOL    HW1  290   1.861   0.354   1.363  1.0411 -2.3014  2.4731
   97SOL    HW2  291   1.791   0.370   1.220 -1.6800 -2.6621 -4.2666
   98SOL     OW  292   0.581   0.485   1.137 -0.1273  0.0242 -0.1051
   98SOL    HW1  293   0.571   0.565   1.199  1.5581 -2.1918 -2.5864
   98SOL    HW2  294   0.492   0.443   1.099  4.4963  0.4900  0.9438
   99SOL     OW  295   3.121   0.490   2.124  0.1113  0.0010 -0.2951
   99SOL    HW1  296   3.076   0.526   2.040 -0.4567 -0.6170 -0.8354
   99SOL    HW2  297   3.124   0.562   2.197 -0.0969  0.0904  0.4581
  100SOL     OW  298   1.558   1.466   2.609 -0.1009  0.1461 -0.1797
  100SOL    HW1  299   1.453   1.455   2.599  1.6851  0.3537  1.2840
  100SOL    HW2  300   1.603   1.497   2.520 -0.4821 -0.7943  1.4757
  101SOL     OW  301   2.447   0.781   3.141 -0.2110 -0.0114  0.1558
  101SOL    HW1  302   2.459   0.716   3.218  0.4961  0.9601 -2.1847
  101SOL    HW2  303   2.374   0.840   3.181  1.0761  0.1290 -1.3830
  102SOL     OW  304   2.954   1.803   3.611  0.0503  0.0774 -0.2533
  102SOL    HW1  305   2.970   1.786   3.511  0.1946 -0.6315  3.8668
  102SOL    HW2  306   2.915   1.897   3.620  1.3516 -2.7417  0.4142
  103SOL     OW  307   2.795   3.227   2.097  0.1024  0.0096  0.0624
  103SOL    HW1  308   2.754   3.139   2.134 -0.5186  0.3417 -0.6523
  103SOL    HW2  309   2.761   3.304   2.155  0.2805 -0.0291 -0.2912
  104SOL     OW  310   2.956   0.282   1.691  0.3062 -0.2354  0.2329
  104SOL    HW1  311   2.922   0.376   1.667  3.6434 -0.8997 -0.9430
  104SOL    HW2  312   3.044   0.288   1.640 -1.3195  2.4375  0.0850
  105SOL     OW  313   1.316   0.142   3.535  0.1931 -0.3448  0.3422
  105SOL    HW1  314   1.312   0.218   3.468 -2.7558  1.1679  5.0595
  105SOL    HW2  315   1.249   0.188   3.597  0.2773  2.9194 -4.8354
  106SOL     OW  316   1.446   0.531   0.390 -0.1722 -0.2383 -0.4414
  106SOL    HW1  317   1.369   0.598   0.402 -1.7014  2.5195  0.3388
  106SOL    HW2  318   1.531   0.572   0.429  1.1737  1.6634  1.0819
  107SOL     OW  319   2.148   0.672   2.199 -0.3407 -0.0010 -0.2746
  107SOL    HW1  320   2.136   0.767   2.165 -0.1362 -3.7450  0.7580
  107SOL    HW2  321   2.069   0.618   2.162  3.6961  3.0298  1.7738
  108SOL     OW  322   2.640   2.050   3.322 -0.0529  0.3028 -0.2693
  108SOL    HW1  323   2.729   2.096   3.332  2.8869  1.7853 -0.0290
  108SOL    HW2  324   2.617   1.978   3.390 -0.5343 -1.4786  1.4090
  109SOL     OW  325   3.010   0.563   1.879  0.1063  0.2273 -0.1234
  109SOL    HW1  326   2.929   0.546   1.820 -0.5006  0.5766  3.1082
  109SOL    HW2  327   3.094   0.588   1.824  0.2810  0.4465  2.7852
  110SOL     OW  328   2.641   0.859   1.549  0.2101  0.0914  0.0064
  110SOL    HW1  329   2.655   0.766   1.506 -0.1434 -0.0606 -0.1989
  110SOL    HW2  330   2.705   0.880   1.627  0.2983  0.4569  0.4466
  111SOL     OW  331   3.361   1.679   2.866 -0.0564 -0.3319 -0.2696
  111SOL    HW1  332   3.434   1.646   2.932 -0.6172 -0.1503  2.8594
  111SOL    HW2  333   3.282   1.661   2.931 -0.6394 -1.3951  1.9747
  112SOL     OW  334   1.170   1.040   2.366  0.2508 -0.1591  0.0726
  112SOL    HW1  335   1.135   1.090   2.448 -1.2005  2.0075  1.2016
  112SOL    HW2  336   1.090   1.040   2.300 -2.6883  0.9849 -1.6362
  113SOL     OW  337   2.276   3.538   2.228  0.0418 -0.1843 -0.0764
  113SOL    HW1  338   2.359   3.482   2.248  0.2211 -0.4757 -1.6596
  113SOL    HW2  339   2.257   3.547   2.128  1.4290 -0.5625 -0.5314
  114SOL     OW  340   0.334   0.687   1.077  0.1221 -0.0848  0.1896
  114SOL    HW1  341   0.326   0.587   1.060  0.6594 -0.5348  1.8914
  114SOL    HW2  342   0.347   0.700   1.177  0.0701 -2.8776  0.1488
  115SOL     OW  343   0.728   2.990   3.069 -0.2369 -0.2362  0.0313
  115SOL    HW1  344   0.668   3.022   3.145  1.2674 -1.0228  1.1506
  115SOL    HW2  345   0.710   3.030   2.976  1.2409 -0.2169 -1.2213
  116SOL     OW  346   0.863   2.572   2.552  0.0348  0.0168 -0.1704
  116SOL    HW1  347   0.780   2.514   2.563  0.1235 -1.9124 -1.0764
  116SOL    HW2  348   0.851   2.668   2.581  1.3393  1.2888  0.0356
  117SOL     OW  349   3.319   0.549   1.265 -0.1511  0.0123  0.0651
  117SOL    HW1  350   3.247   0.541   1.336 -0.3097 -0.9541  0.5644
  117SOL    HW2  351   3.343   0.646   1.245  0.6474  0.2720 -0.5033
  118SOL     OW  352   1.914   1.714   2.910  0.2679  0.1212 -0.3741
  118SOL    HW1  353   1.844   1.712   2.833  2.8117 -0.2627  1.4682
  118SOL    HW2  354   2.001   1.669   2.878 -3.2528  0.9192 -0.3529
  119SOL     OW  355   1.569   1.549   2.872 -0.2164  0.1637  0.1456
  119SOL    HW1  356   1.573   1.535   2.769  0.0269  1.2410  1.4988
  119SOL    HW2  357   1.652   1.607   2.887  0.4361 -0.6060 -0.5157
  120SOL     OW  358   2.767   0.550   1.074  0.0942 -0.0895  0.0335
  120SOL    HW1  359   2.712   0.635   1.092  0.2536  1.1027  0.0998
  120SOL    HW2  360   2.731   0.470   1.124  0.5893 -0.2546  0.3139
  121SOL     OW  361   1.602   1.124   1.758  0.1061 -0.1663  0.2344
  121SOL    HW1  362   1.671   1.166   1.695 -1.0369 -0.5727  0.9379
  121SOL    HW2  363   1.621   1.023   1.769 -0.0255  2.8720  0.0048
  122SOL     OW  364   3.296   1.172   1.472  0.1917  0.0931  0.0693
  122SOL    HW1  365   3.292   1.237   1.551 -0.0742  0.4582 -0.1792
  122SOL    HW2  366   3.381   1.113   1.473 -0.1029 -0.1600 -0.0458
  123SOL     OW  367   3.468   3.783   1.334  0.1511  0.0829 -0.0062
  123SOL    HW1  368   3.430   3.866   1.287 -0.4706  1.0690 -0.6204
  123SOL    HW2  369   3.410   3.703   1.307 -0.7109 -0.3930 -1.1238
  124SOL     OW  370   0.798   2.831   2.625  0.1444 -0.1671 -0.1302
  124SOL    HW1  371   0.733   2.866   2.556 -1.2549  1.3863 -1.2324
  124SOL    HW2  372   0.878   2.891   2.622  0.1537  0.4556 -0.1985
  125SOL     OW  373   1.000   1.165   2.545  0.7630  0.3315  0.2055
  125SOL    HW1  374   0.983   1.134   2.642  0.9344  0.5470 -0.0752
  125SOL    HW2  375   0.950   1.251   2.521  1.0277 -0.6190  0.5096
  126SOL     OW  376   0.014   3.586   0.527  0.2860 -0.2158  0.1743
  126SOL    HW1  377   0.059   3.545   0.445  1.1193  0.3697  0.4153
  126SOL    HW2  378   0.069   3.669   0.546  0.9872 -0.4307 -0.2235
  127SOL     OW  379   2.998   3.648   3.150 -0.1212  0.1606  0.0970
  127SOL    HW1  380   3.078   3.714   3.155 -2.2551 -1.0795 -0.2179
  127SOL    HW2  381   3.032   3.551   3.151 -2.0624  1.8455  0.1802
  128SOL     OW  382   1.939   0.200   0.519 -0.0040 -0.0371 -0.2387
  128SOL    HW1  383   1.898   0.275   0.575  1.0023 -1.5650 -0.0683
  128SOL    HW2  384   2.003   0.148   0.580 -0.8463  1.4279 -0.2511
  129SOL     OW  385   3.453   3.383   2.013  0.2828  0.1199  0.1567
  129SOL    HW1  386   3.544   3.371   2.058 -0.2556 -0.8509  0.3696
  129SOL    HW2  387   3.395   3.353   2.091  0.3117  0.7767  0.0838
  130SOL     OW  388   3.211   0.964   0.209  0.0430  0.1800  0.5631
  130SOL    HW1  389   3.304   0.996   0.181  2.5821  1.1295 -0.2545
  130SOL    HW2  390   3.140   0.988   0.138 -2.6796  1.1238 -2.3594
  131SOL     OW  391   3.308   1.642   3.259 -0.2232  0.0474  0.0309
  131SOL    HW1  392   3.245   1.640   3.178 -0.1861 -1.5280  0.9310
  131SOL    HW2  393   3.343   1.737   3.275  1.6036 -0.8907  0.4807
  132SOL     OW  394   2.443   3.298   1.740  0.3114 -0.0581  0.1103
  132SOL    HW1  395   2.495   3.218   1.779 -1.3437 -0.8401 -0.8850
  132SOL    HW2  396   2.443   3.388   1.788 -0.1171  0.0595 -0.3028
  133SOL     OW  397   0.670   0.447   2.743 -0.3376 -0.1866  0.2423
  133SOL    HW1  398   0.603   0.478   2.674  0.9901 -0.5143  0.8605
  133SOL    HW2  399   0.677   0.349   2.719 -0.5352  0.8926  0.2157
  134SOL     OW  400   1.805   0.081   1.567  0.0647  0.0543  0.1048
  134SOL    HW1  401   1.740   0.005   1.579 -1.8569 -2.1080 -0.0119
  134SOL    HW2  402   1.812   0.092   1.468  0.4809  0.8946 -2.6272
  135SOL     OW  403   1.012   0.311   1.137  0.2415  0.0136  0.2496
  135SOL    HW1  404   1.082   0.250   1.090 -2.8851  2.4626  2.9904
  135SOL    HW2  405   1.033   0.350   1.229 -0.1287 -1.8807 -4.1600
  136SOL     OW  406   2.593   3.749   1.460  0.1889  0.2446  0.0561
  136SOL    HW1  407   2.505   3.798   1.440 -0.5650 -1.1856 -0.1509
  136SOL    HW2  408   2.667   3.813   1.489  0.5751 -1.3533 -0.4881
  137SOL     OW  409   2.824   3.378   3.229 -0.0770  0.1448 -0.1183
  137SOL    HW1  410   2.752   3.443   3.259 -5.0480  4.6519  0.4412
  137SOL    HW2  411   2.894   3.342   3.295  5.2863 -2.9152  2.5293
  138SOL     OW  412   1.852   1.405   2.195  0.2710  0.2148  0.0734
  138SOL    HW1  413   1.945   1.393   2.239 -4.0214  0.0057 -1.6322
  138SOL    HW2  414   1.849   1.491   2.138 -0.8397 -3.8047  1.3200
  139SOL     OW  415   1.602   0.936   2.903 -0.1331 -0.0290 -0.1744
  139SOL    HW1  416   1.576   1.016   2.962  0.8537 -0.8286 -0.3200
  139SOL    HW2  417   1.670   0.954   2.828  0.1883 -0.5761  0.8359
  140SOL     OW  418   2.510   3.398   1.151  0.1092 -0.0396  0.1624
  140SOL    HW1  419   2.518   3.402   1.050  0.7748  0.1320 -0.3697
  140SOL    HW2  420   2.579   3.459   1.194  0.7876  0.6530 -0.3587
  141SOL     OW  421   3.768   3.463   2.681  0.0980  0.2058 -0.2831
  141SOL    HW1  422   3.800   3.419   2.767 -1.4836  0.9802  0.1873
  141SOL    HW2  423   3.819   3.432   2.598 -1.0429  0.8292 -0.2612
  142SOL     OW  424   0.557   0.699   3.210  0.0961  0.1903 -0.1719
  142SOL    HW1  425   0.492   0.773   3.182  1.1281 -0.3097  2.2328
  142SOL    HW2  426   0.584   0.633   3.137  0.6574  0.4165  1.9445
  143SOL     OW  427   1.330   1.474   2.963 -0.1226  0.2775 -0.2830
  143SOL    HW1  428   1.302   1.385   2.922  0.8331  0.3343 -0.8084
  143SOL    HW2  429   1.428   1.492   2.937 -0.8673 -0.4815  0.0469
  144SOL     OW  430   3.154   3.723   2.437 -0.2606 -0.0769 -0.2593
  144SOL    HW1  431   3.214   3.682   2.365 -2.0337 -0.2708  1.8433
  144SOL    HW2  432   3.081   3.655   2.460  1.8706  0.7160 -2.3309
  145SOL     OW  433   3.151   1.676   3.035 -0.2543  0.3142  0.3156
  145SOL    HW1  434   3.125   1.774   3.044  0.6425 -0.4572 -0.4149
  145SOL    HW2  435   3.065   1.624   3.048  0.2950  0.1663 -0.0571
  146SOL     OW  436   1.007   0.725   1.153  0.1310  0.1631  0.3290
  146SOL    HW1  437   0.943   0.778   1.097 -1.4138  0.8578 -2.4946
  146SOL    HW2  438   1.047   0.653   1.097  1.4852 -4.1401 -2.9080
  147SOL     OW  439   0.042   0.161   0.234 -0.3652  0.0578 -0.1250
  147SOL    HW1  440   0.128   0.113   0.263  0.8996  0.1170 -0.7912
  147SOL    HW2  441  -0.031   0.170   0.304 -0.2516  0.1593  0.1537
  148SOL     OW  442   1.086   2.401   2.563 -0.1618  0.0480  0.3723
  148SOL    HW1  443   1.080   2.338   2.646 -0.0163  1.0635 -1.6856
  148SOL    HW2  444   1.001   2.459   2.560  2.4444 -2.2300  0.7074
  149SOL     OW  445   1.833   2.876   2.190  0.2226  0.3041  0.5219
  149SOL    HW1  446   1.812   2.824   2.278  1.6006 -0.1337 -3.7130
  149SOL    HW2  447   1.916   2.937   2.190 -3.3003 -3.3682 -0.4790
  150SOL     OW  448   0.600   0.536   2.998  0.2241  0.1132  0.3228
  150SOL    HW1  449   0.512   0.585   2.980 -1.7341  0.8281  0.2467
  150SOL    HW2  450   0.642   0.502   2.911  1.5211 -1.0431 -0.8728
  151SOL     OW  451   2.853   3.779   2.130 -0.3428 -0.0762 -0.2531
  151SOL    HW1  452   2.843   3.824   2.221  0.0360  0.3437  0.8172
  151SOL    HW2  453   2.880   3.841   2.053  0.7937  0.0160 -1.6903
  152SOL     OW  454   3.170   0.125   2.887 -0.1359  0.0561 -0.1173
  152SOL    HW1  455   3.187   0.089   2.793  0.5532  0.3436  1.4621
  152SOL    HW2  456   3.081   0.171   2.908  1.7394 -0.7777  0.3250
  153SOL     OW  457   0.344   0.410   1.042  0.4760 -0.0928  0.1606
  153SOL    HW1  458   0.296   0.331   1.090 -0.1051 -1.1419  0.5011
  153SOL    HW2  459   0.364   0.385   0.944  0.2071 -1.4370 -1.0914
  154SOL     OW  460   1.070   3.541   2.373  0.1310  0.0466 -0.0722
  154SOL    HW1  461   1.065   3.553   2.271  0.2804 -1.5840  0.9391
  154SOL    HW2  462   1.116   3.609   2.435  0.1423 -2.5997  0.9212
  155SOL     OW  463   3.108   0.643   3.698  0.3651 -0.5440 -0.2908
  155SOL    HW1  464   3.108   0.672   3.795 -1.0907  1.6400  3.2529
  155SOL    HW2  465   3.021   0.677   3.664 -2.6062  1.4247 -1.0127
  156SOL     OW  466   2.642   0.067   1.893  0.2891 -0.1671 -0.0387
  156SOL    HW1  467   2.562   0.067   1.829 -1.4833  3.8800  0.5974
  156SOL    HW2  468   2.652   0.161   1.931 -1.4568  1.8868 -1.2611
  157SOL     OW  469   0.700   2.772   2.876  0.4270  0.2646 -0.2101
  157SOL    HW1  470   0.725   2.830   2.957 -1.3459 -2.6554 -1.8940
  157SOL    HW2  471   0.749   2.794   2.788 -2.1542 -1.4645  2.8238
  158SOL     OW  472   3.256   0.433   0.422 -0.0526 -0.0246 -0.2866
  158SOL    HW1  473   3.160   0.453   0.392  1.1674 -0.8172  0.6200
  158SOL    HW2  474   3.329   0.493   0.383 -0.8917 -1.3938  0.7804
  159SOL     OW  475   1.272   1.329   2.097  0.0253  0.1225 -0.2272
  159SOL    HW1  476   1.362   1.327   2.047 -1.0135  1.3141  1.1214
  159SOL    HW2  477   1.267   1.421   2.142  1.2983 -0.5812 -1.3691
  160SOL     OW  478   0.228   3.707   2.936  0.1010  0.1497  0.2630
  160SOL    HW1  479   0.181   3.713   2.845  1.0279  0.3109  0.0010
  160SOL    HW2  480   0.330   3.717   2.924 -0.0825  0.0681 -1.7780
  161SOL     OW  481   3.111   0.487   3.178  0.1402 -0.0506  0.0411
  161SOL    HW1  482   3.023   0.434   3.181 -1.2439 -2.5443  0.3416
  161SOL    HW2  483   3.113   0.586   3.206  1.1017  1.5665  0.9374
  162SOL     OW  484   1.240   3.242   2.071  0.1672  0.4546 -0.1894
  162SOL    HW1  485   1.161   3.237   2.135 -1.5338 -1.1061  1.6245
  162SOL    HW2  486   1.285   3.152   2.080  0.0904 -2.0695  0.7924
  163SOL     OW  487   0.110   0.004   3.505  0.0879 -0.2498  0.4430
  163SOL    HW1  488   0.171  -0.034   3.431 -0.8405 -0.2055 -0.4160
  163SOL    HW2  489   0.146   0.072   3.572 -1.5802 -0.5772  0.3617
  164SOL     OW  490   3.344   0.415   3.066 -0.1122  0.1479 -0.0654
  164SOL    HW1  491   3.344   0.395   2.966 -0.2584  0.0514  1.1500
  164SOL    HW2  492   3.254   0.448   3.100  2.3041 -1.0271 -0.0377
  165SOL     OW  493   2.952   3.739   0.500 -0.1439 -0.0636  0.2758
  165SOL    HW1  494   2.990   3.755   0.594 -1.1799  0.0917 -2.1263
  165SOL    HW2  495   2.859   3.699   0.510  0.8208  0.7174 -0.7582
  166SOL     OW  496   2.743   0.188   1.526  0.2891  0.2408  0.1600
  166SOL    HW1  497   2.669   0.243   1.573 -0.1517  0.2486  0.4154
  166SOL    HW2  498   2.830   0.179   1.578 -0.1573  0.7445  0.8916
  167SOL     OW  499   3.141   1.179   3.597 -0.2377  0.1797  0.2348
  167SOL    HW1  500   3.179   1.245   3.531  1.1619  0.4638 -0.3905
  167SOL    HW2  501   3.218   1.109   3.621  2.3603 -0.7649  0.1175
  168SOL     OW  502   0.144   0.825   3.602 -0.2034  0.2547 -0.4309
  168SOL    HW1  503   0.162   0.726   3.613 -0.9382 -1.4528  1.0095
  168SOL    HW2  504   0.213   0.862   3.535  1.4907  1.2880 -1.9581
  169SOL     OW  505   2.466   0.534   3.606 -0.0968 -0.0943 -0.0040
  169SOL    HW1  506   2.531   0.603   3.643  0.6241  0.1179 -0.5372
  169SOL    HW2  507   2.408   0.477   3.669  0.1702 -1.3611 -0.3388
  170SOL     OW  508   2.757   1.758   2.890  0.3746  0.0150 -0.4114
  170SOL    HW1  509   2.843   1.722   2.845 -2.8378  1.6355  2.1399
  170SOL    HW2  510   2.686   1.776   2.818  3.0769  0.4993  3.9715
  171SOL     OW  511   2.633   0.322   0.016  0.4158 -0.0484 -0.0764
  171SOL    HW1  512   2.569   0.285   0.085  0.2682  0.6254  0.9344
  171SOL    HW2  513   2.618   0.423   0.024 -1.6538  1.0276  0.6655
  172SOL     OW  514   2.925   2.631   3.231  0.0920 -0.0001  0.1833
  172SOL    HW1  515   2.954   2.728   3.226 -1.2675 -4.4703  1.3041
  172SOL    HW2  516   2.898   2.625   3.329  1.4193  2.0160 -3.8755
  173SOL     OW  517   1.406   0.132   2.312  0.2841  0.2358  0.0374
  173SOL    HW1  518   1.414   0.042   2.264 -0.4278 -0.4600 -0.6409
  173SOL    HW2  519   1.419   0.127   2.413 -0.0335  0.3272  0.4999
  174SOL     OW  520   1.210   1.215   2.845  0.0799 -0.0589 -0.0944
  174SOL    HW1  521   1.126   1.160   2.828 -0.0550 -0.1065 -0.2155
  174SOL    HW2  522   1.282   1.181   2.779 -0.0922 -0.4677 -1.0293
  175SOL     OW  523   2.825   3.635   3.373 -0.2794  0.2706  0.1162
  175SOL    HW1  524   2.875   3.608   3.287  1.0162 -1.3869 -2.7431
  175SOL    HW2  525   2.851   3.722   3.421 -0.1446  2.7735  2.9278
  176SOL     OW  526   0.335   3.591   1.405 -0.1113  0.2396 -0.1651
  176SOL    HW1  527   0.388   3.676   1.384 -0.4217 -1.2632  0.4311
  176SOL    HW2  528   0.306   3.540   1.320  0.9393  0.5721  1.4425
  177SOL     OW  529   3.662   0.709   3.563  0.0615  0.1334  0.1370
  177SOL    HW1  530   3.754   0.752   3.553 -1.2578 -0.1441 -0.3929
  177SOL    HW2  531   3.601   0.761   3.627  1.0171 -0.5724  0.0843
  178SOL     OW  532   2.288   3.672   1.272  0.0230  0.0509  0.1945
  178SOL    HW1  533   2.329   3.671   1.179 -0.7334 -0.3081  1.0034
  178SOL    HW2  534   2.313   3.579   1.303 -0.0686  0.6482 -0.1265
  179SOL     OW  535   3.435   2.597   2.527  0.0694  0.3002  0.1386
  179SOL    HW1  536   3.372   2.518   2.504 -0.2832 -0.5136 -0.2826
  179SOL    HW2  537   3.528   2.579   2.487 -0.4624 -0.7097  0.2692
  180SOL     OW  538   3.189   3.347   2.668 -0.5206 -0.1425 -0.1198
  180SOL    HW1  539   3.148   3.394   2.751  0.2185 -1.2745 -4.1621
  180SOL    HW2  540   3.114   3.302   2.614  2.2372  3.1651  2.3739
  181SOL     OW  541   1.833   2.286   2.312  0.0156  0.1361 -0.3164
  181SOL    HW1  542   1.894   2.276   2.392  3.2267 -1.1618  2.3395
  181SOL    HW2  543   1.778   2.369   2.303 -1.0451  1.7230 -1.6837
  182SOL     OW  544   3.160   3.408   3.193 -0.5352 -0.1617 -0.3317
  182SOL    HW1  545   3.228   3.476   3.221  0.9904  2.2214  0.8423
  182SOL    HW2  546   3.108   3.377   3.275 -1.6417  0.2116  1.8611
  183SOL     OW  547   1.387   0.092   0.851 -0.3142 -0.0821  0.3969
  183SOL    HW1  548   1.350   0.009   0.808 -2.8141 -5.0195 -1.8490
  183SOL    HW2  549   1.417   0.160   0.780  2.4293  5.7220 -4.1884
  184SOL     OW  550   1.993   0.758   2.419 -0.0157 -0.0729 -0.1460
  184SOL    HW1  551   2.051   0.718   2.346  1.0627 -0.5698 -0.3507
  184SOL    HW2  552   1.912   0.803   2.377 -1.2344  0.6313  0.0222
  185SOL     OW  553   2.381   2.798   2.106 -0.2869 -0.1554 -0.2053
  185SOL    HW1  554   2.298   2.832   2.058  0.3168  0.8989  0.2311
  185SOL    HW2  555   2.394   2.696   2.120  1.0556  1.7645  0.1869
  186SOL     OW  556   0.074   2.373   3.353  0.0342  0.0026 -0.1642
  186SOL    HW1  557   0.043   2.419   3.266 -0.6945  1.0722 -0.9538
  186SOL    HW2  558   0.102   2.440   3.425  0.6969  2.1622  0.6124
  187SOL     OW  559   0.987   1.063   2.799 -0.0950 -0.0292 -0.1100
  187SOL    HW1  560   1.035   0.977   2.771 -0.0005  0.2251 -0.0176
  187SOL    HW2  561   0.892   1.037   2.827  0.1540  0.1702 -0.1835
  188SOL     OW  562   0.891   0.653   2.045 -0.1767  0.0860  0.1321
  188SOL    HW1  563   0.894   0.710   2.130 -0.6729  2.5412  2.3968
  188SOL    HW2  564   0.952   0.571   2.055  1.3781 -1.9368 -1.3854
  189SOL     OW  565   2.751   2.291   2.661 -0.0231  0.3698  0.3201
  189SOL    HW1  566   2.719   2.319   2.568 -0.1753 -0.2896 -1.2682
  189SOL    HW2  567   2.717   2.351   2.736 -0.8283  1.2185  2.7748
  190SOL     OW  568   3.319   0.345   2.803  0.0864  0.4189 -0.0907
  190SOL    HW1  569   3.248   0.420   2.799 -2.8132  1.5762  0.0500
  190SOL    HW2  570   3.275   0.258   2.836 -1.7917 -2.9561  1.4237
  191SOL     OW  571   1.350   3.416   2.847  0.0069 -0.0817 -0.3100
  191SOL    HW1  572   1.265   3.400   2.796 -0.4234 -0.4421 -0.5711
  191SOL    HW2  573   1.421   3.432   2.776  0.6442  0.1142 -0.8928
  192SOL     OW  574   1.587   0.522   1.977  0.2822 -0.0982 -0.1217
  192SOL    HW1  575   1.497   0.564   1.948 -1.0141  1.5284  1.0736
  192SOL    HW2  576   1.589   0.535   2.080 -0.8064  1.6532  3.9097
  193SOL     OW  577   2.731   0.637   3.008 -0.4356 -0.2509  0.0639
  193SOL    HW1  578   2.743   0.636   3.111  1.3773 -0.6364 -2.5920
  193SOL    HW2  579   2.643   0.647   2.955  2.9118 -0.7118 -0.0189
  194SOL     OW  580   0.861   0.819   0.928  0.5067  0.4072 -0.2494
  194SOL    HW1  581   0.808   0.902   0.898  3.1505 -3.8537  1.4872
  194SOL    HW2  582   0.962   0.833   0.909 -5.7347 -0.9544  0.8978
  195SOL     OW  583   3.249   0.775   2.747  0.3797  0.3148  0.4661
  195SOL    HW1  584   3.254   0.761   2.646  0.0825 -1.3759 -7.3052
  195SOL    HW2  585   3.191   0.697   2.777 -4.4466 -5.5332  1.4269
  196SOL     OW  586   0.405   3.483   2.485 -0.1832  0.0060 -0.1973
  196SOL    HW1  587   0.362   3.396   2.517  0.1175 -0.8203  0.1871
  196SOL    HW2  588   0.431   3.467   2.387  0.0566 -0.2538 -0.0976
  197SOL     OW  589   2.869   0.479   2.846 -0.2991 -0.2631 -0.1286
  197SOL    HW1  590   2.821   0.540   2.913 -0.1338 -0.2703  1.6438
  197SOL    HW2  591   2.851   0.505   2.748  0.2317 -0.5802 -3.5805
  198SOL     OW  592   1.078   3.696   1.791  0.1711  0.3487 -0.7728
  198SOL    HW1  593   1.104   3.598   1.817  0.6637 -6.5943  2.1735
  198SOL    HW2  594   0.995   3.717   1.852 -5.8319  1.2666  4.8154
  199SOL     OW  595   2.306   0.280   0.720 -0.0899 -0.0337  0.1318
  199SOL    HW1  596   2.351   0.233   0.640 -0.0888 -0.0959  0.0963
  199SOL    HW2  597   2.376   0.293   0.795 -0.1987 -0.6818 -0.4409
  200SOL     OW  598   0.156   0.527   2.971  0.1242 -0.3720 -0.1926
  200SOL    HW1  599   0.242   0.581   2.963  1.7825  1.3003 -1.1599
  200SOL    HW2  600   0.105   0.533   3.059 -1.3848  0.0801  2.8328
  201SOL     OW  601   0.033   0.545   3.208 -0.1012 -0.0319 -0.0215
  201SOL    HW1  602  -0.063   0.531   3.174  1.8647  0.6951  0.6222
  201SOL    HW2  603   0.052   0.480   3.285 -0.1280  1.9039 -1.5848
  202SOL     OW  604   3.544   3.339   0.351 -0.1421 -0.0442 -0.0823
  202SOL    HW1  605   3.545   3.256   0.412  0.5567 -1.8385  0.3797
  202SOL    HW2  606   3.553   3.426   0.406 -0.2123  0.2189 -0.6876
  203SOL     OW  607   2.732   1.627   3.471 -0.7311 -0.1269 -0.2674
  203SOL    HW1  608   2.816   1.655   3.422  5.2950  0.4358 -0.3900
  203SOL    HW2  609   2.768   1.613   3.567  3.6150 -0.1183  5.4571
  204SOL     OW  610   2.336   1.482   3.244  0.2407 -0.0480 -0.1302
  204SOL    HW1  611   2.361   1.499   3.145 -0.0676  1.1955 -0.8652
  204SOL    HW2  612   2.255   1.542   3.267 -0.6422 -0.1194  0.0581
  205SOL     OW  613   3.010   0.463   0.698 -0.2255  0.0423 -0.2818
  205SOL    HW1  614   3.073   0.537   0.667 -0.2195 -0.2256  0.5348
  205SOL    HW2  615   2.962   0.426   0.614 -0.4543  0.1528  0.3669
  206SOL     OW  616   1.511   1.270   1.972  0.1340  0.1079  0.0092
  206SOL    HW1  617   1.531   1.215   2.056 -0.2757  0.1332  1.2623
  206SOL    HW2  618   1.541   1.227   1.885  0.0420 -0.1316 -0.4920
  207SOL     OW  619   2.324   1.561   2.162  0.0203  0.1142  0.2272
  207SOL    HW1  620   2.265   1.638   2.124  3.2998 -4.0610  1.8415
  207SOL    HW2  621   2.308   1.520   2.256  0.4589  1.7796 -4.0225
  208SOL     OW  622   2.443   2.131   3.162 -0.0607  0.0967  0.0334
  208SOL    HW1  623   2.516   2.116   3.234 -2.2953  0.7762 -1.6914
  208SOL    HW2  624   2.357   2.111   3.213  2.0992  0.0750 -1.1317
  209SOL     OW  625   3.445   0.090   1.932 -0.1173 -0.0454  0.0476
  209SOL    HW1  626   3.388   0.020   1.980  0.6503 -1.3149 -1.1082
  209SOL    HW2  627   3.419   0.187   1.950  1.1677  0.3552 -1.8147
  210SOL     OW  628   3.573   0.025   0.692  0.1017  0.2917 -0.1349
  210SOL    HW1  629   3.479  -0.015   0.696  2.7852 -2.2687  1.3413
  210SOL    HW2  630   3.628  -0.052   0.731 -2.5228 -0.9197  0.1883
  211SOL     OW  631   3.152   0.385   3.628  0.2620 -0.3519 -0.0563
  211SOL    HW1  632   3.140   0.478   3.668  0.4299 -1.0145 -0.9125
  211SOL    HW2  633   3.190   0.405   3.533 -0.7252  1.0818  1.4663
  212SOL     OW  634   3.115   0.699   0.581 -0.0438 -0.1268 -0.0357
  212SOL    HW1  635   3.161   0.698   0.673  0.0133 -0.6526  1.1235
  212SOL    HW2  636   3.159   0.776   0.530  0.4636  0.4909 -0.1897
  213SOL     OW  637   1.931   0.512   2.134 -0.1843  0.1363  0.0740
  213SOL    HW1  638   1.949   0.471   2.044  0.5056 -1.0522 -1.8545
  213SOL    HW2  639   1.907   0.436   2.195 -0.2740 -0.9007 -0.2554
  214SOL     OW  640   1.241   2.532   2.384 -0.1599 -0.0701 -0.0712
  214SOL    HW1  641   1.181   2.477   2.448 -1.8699 -2.0920  3.0252
  214SOL    HW2  642   1.323   2.564   2.436  1.9984  0.7731  2.0191
  215SOL     OW  643   2.613   0.777   3.583  0.3395 -0.1853 -0.1012
  215SOL    HW1  644   2.591   0.874   3.608  0.2132  2.2768 -0.5254
  215SOL    HW2  645   2.568   0.750   3.495 -0.7568  0.0492 -2.0715
  216SOL     OW  646   3.332   0.995   3.625  0.1246 -0.2911 -0.0511
  216SOL    HW1  647   3.388   0.955   3.701 -2.3680  1.4073 -2.9295
  216SOL    HW2  648   3.368   0.962   3.533 -1.6135  1.9070  3.4805
  217SOL     OW  649   2.936   3.687   1.255  0.0322 -0.1257 -0.1064
  217SOL    HW1  650   2.962   3.716   1.350  1.0237 -0.6404 -1.4994
  217SOL    HW2  651   3.015   3.668   1.193  0.7432  0.1233  1.6016
  218SOL     OW  652   3.267   2.818   3.050 -0.0812  0.2586  0.2257
  218SOL    HW1  653   3.343   2.882   3.073 -0.1986  0.0223 -1.1499
  218SOL    HW2  654   3.246   2.816   2.949  1.3718 -0.8680  0.5022
  219SOL     OW  655   2.027   0.765   0.990  0.1769  0.2154 -0.1481
  219SOL    HW1  656   2.013   0.676   1.040 -0.9132 -1.7222  1.4695
  219SOL    HW2  657   2.061   0.835   1.057  0.2885  1.4284  1.8769
  220SOL     OW  658   1.408   1.092   2.652 -0.3160  0.0221  0.3182
  220SOL    HW1  659   1.418   0.992   2.636  0.0586 -1.3465  0.4587
  220SOL    HW2  660   1.421   1.140   2.561 -0.6896  0.6216 -0.4540
  221SOL     OW  661   3.455   0.718   2.920 -0.0481  0.1995  0.2780
  221SOL    HW1  662   3.388   0.731   2.845  1.4047  0.8694  2.6101
  221SOL    HW2  663   3.417   0.748   3.011  0.9766 -0.3913 -3.4746
  222SOL     OW  664   0.920   0.261   2.240  0.0693  0.0766  0.0022
  222SOL    HW1  665   0.990   0.186   2.252  0.0318 -2.0967 -1.0678
  222SOL    HW2  666   0.833   0.210   2.218 -0.6994 -2.2754 -0.5466
  223SOL     OW  667   0.609   0.180   2.928 -0.1137  0.4710  0.3160
  223SOL    HW1  668   0.645   0.134   3.012 -0.3176  0.1835 -2.0289
  223SOL    HW2  669   0.533   0.246   2.945  1.0688 -0.6895 -1.4275
  224SOL     OW  670   1.531   1.918   2.761 -0.1183  0.2789 -0.1034
  224SOL    HW1  671   1.583   1.971   2.684 -2.7399 -2.8996  4.9430
  224SOL    HW2  672   1.522   1.984   2.844  0.9144 -2.8229 -4.5319
  225SOL     OW  673   2.546   3.681   0.299  0.0485 -0.3227 -0.5933
  225SOL    HW1  674   2.600   3.647   0.217 -5.6090  1.6379  4.4237
  225SOL    HW2  675   2.447   3.657   0.286  6.8518  1.5517 -1.1119
  226SOL     OW  676   2.403   2.441   2.636 -0.3002 -0.0334 -0.2659
  226SOL    HW1  677   2.424   2.345   2.666 -0.8871 -0.0015  0.7663
  226SOL    HW2  678   2.483   2.505   2.642 -0.0796  0.9090  0.3901
  227SOL     OW  679   2.004   2.229   2.521 -0.3751 -0.0019 -0.0355
  227SOL    HW1  680   2.096   2.266   2.489 -1.1246  0.0806  0.5860
  227SOL    HW2  681   1.995   2.248   2.622  0.7317  0.5812 -0.5672
  228SOL     OW  682   2.493   2.810   2.511 -0.2282 -0.0070 -0.1941
  228SOL    HW1  683   2.551   2.768   2.585  0.7498  1.3203  0.4863
  228SOL    HW2  684   2.520   2.908   2.502  0.7783 -0.4208  1.0115
  229SOL     OW  685   1.130   0.872   0.907 -0.3549  0.0213  0.0559
  229SOL    HW1  686   1.193   0.856   0.833  5.3960 -1.7438 -4.4417
  229SOL    HW2  687   1.186   0.865   0.992  4.6587 -1.0972  5.0477
  230SOL     OW  688   2.998   2.882   0.051  0.3174 -0.2095  0.8862
  230SOL    HW1  689   2.952   2.972   0.026  1.2893 -0.8882  0.7401
  230SOL    HW2  690   2.966   2.841   0.140  1.6031 -0.7675 -0.6984
  231SOL     OW  691   2.899   0.987   2.602 -0.1173  0.1215 -0.0217
  231SOL    HW1  692   2.800   1.007   2.596  2.2064  1.5807 -0.2804
  231SOL    HW2  693   2.960   1.068   2.617 -2.2514  0.2866 -0.1913
  232SOL     OW  694   2.944   2.471   2.361  0.0627 -0.2319 -0.2546
  232SOL    HW1  695   2.894   2.539   2.304 -0.9220  2.8818 -1.2129
  232SOL    HW2  696   2.994   2.518   2.438  0.8202  1.6614  1.4692
  233SOL     OW  697   3.460   3.362   1.447 -0.3239 -0.3158  0.1595
  233SOL    HW1  698   3.446   3.428   1.370  1.6861  0.8675  1.5014
  233SOL    HW2  699   3.509   3.421   1.515 -0.5318  1.3056 -1.1044
  234SOL     OW  700   1.505   1.226   2.432  0.0145  0.2628  0.0663
  234SOL    HW1  701   1.467   1.319   2.441  1.9719 -4.3574 -0.5208
  234SOL    HW2  702   1.608   1.231   2.421 -6.0748 -0.2805  0.4541
  235SOL     OW  703   2.497   1.093   0.105 -0.0798 -0.2030  0.0107
  235SOL    HW1  704   2.582   1.127   0.153  0.7639  1.3146  1.2696
  235SOL    HW2  705   2.439   1.023   0.155 -2.4300 -1.6256  2.4957
  236SOL     OW  706   0.026   3.784   1.635  0.0668  0.0567  0.0910
  236SOL    HW1  707   0.068   3.848   1.567  0.6532 -0.2231 -1.3288
  236SOL    HW2  708  -0.034   3.830   1.704 -1.2913 -0.4994  1.7970
  237SOL     OW  709   1.535   2.816   2.515  0.0456  0.1475  0.2575
  237SOL    HW1  710   1.503   2.724   2.535 -1.7289 -2.2802  1.4149
  237SOL    HW2  711   1.475   2.875   2.566 -2.6030  1.0346  1.6082
  238SOL     OW  712   3.704   2.565   2.460 -0.1247 -0.0801  0.2574
  238SOL    HW1  713   3.783   2.497   2.455  0.1879  3.2014  0.3435
  238SOL    HW2  714   3.743   2.660   2.454  1.9049 -3.8026  0.8923
  239SOL     OW  715   1.807   1.480   3.157  0.1226 -0.2126 -0.3112
  239SOL    HW1  716   1.883   1.462   3.222 -1.4874 -0.9850 -1.8392
  239SOL    HW2  717   1.801   1.572   3.115 -1.0154 -2.1098  0.5134
  240SOL     OW  718   2.170   0.238   1.301 -0.2129 -0.0310  0.0647
  240SOL    HW1  719   2.135   0.293   1.379  0.4517 -0.4773 -0.6310
  240SOL    HW2  720   2.118   0.149   1.292  0.7501  0.8214  0.0840
  241SOL     OW  721   0.070   0.378   3.416  0.1639  0.2091  0.1772
  241SOL    HW1  722  -0.008   0.394   3.481 -1.2787  0.7084  1.9794
  241SOL    HW2  723   0.063   0.286   3.370  0.5486 -1.4105 -1.0701
  242SOL     OW  724   2.576   0.335   1.686 -0.0389  0.1784 -0.2154
  242SOL    HW1  725   2.627   0.412   1.729 -0.6944  0.2534 -0.0318
  242SOL    HW2  726   2.482   0.370   1.663 -0.5066  0.3294  0.2435
  243SOL     OW  727   2.550   1.722   3.090 -0.2215  0.3774  0.1927
  243SOL    HW1  728   2.619   1.774   3.034  4.9293  5.0848 -4.4548
  243SOL    HW2  729   2.573   1.622   3.094  1.4116 -8.4185  0.4398
  244SOL     OW  730   1.306   1.747   2.875 -0.5912  0.6639 -0.2749
  244SOL    HW1  731   1.323   1.659   2.922  2.6933 -3.9200  1.3281
  244SOL    HW2  732   1.399   1.776   2.847  4.5757 -0.7866 -0.3341
  245SOL     OW  733   2.818   3.576   3.647  0.2806 -0.3303 -0.3508
  245SOL    HW1  734   2.785   3.587   3.549  2.2087 -0.4241  7.7287
  245SOL    HW2  735   2.907   3.523   3.651 -6.2895  4.1423 -0.0028
  246SOL     OW  736   3.704   3.566   0.117  0.3033 -0.4518 -0.3021
  246SOL    HW1  737   3.626   3.629   0.145  0.4123 -0.1524 -0.2874
  246SOL    HW2  738   3.674   3.470   0.091 -0.8176 -1.1265 -0.5538
  247SOL     OW  739   2.482   0.699   2.896  0.0001  0.1439 -0.1293
  247SOL    HW1  740   2.467   0.726   2.993 -0.4820  1.0699  1.7469
  247SOL    HW2  741   2.399   0.693   2.838 -2.3142 -0.6031 -1.0663
  248SOL     OW  742   2.792   0.928   0.918  0.2015  0.3570  0.2156
  248SOL    HW1  743   2.722   1.002   0.929 -1.9179  1.1673 -0.3030
  248SOL    HW2  744   2.773   0.880   0.831 -0.4984 -0.1328 -1.7437
  249SOL     OW  745   3.331   0.260   0.624  0.0955  0.2113 -0.0782
  249SOL    HW1  746   3.298   0.275   0.720  0.8366 -1.2201  1.9541
  249SOL    HW2  747   3.304   0.330   0.555  0.1909 -0.3425 -1.0877
  250SOL     OW  748   2.816   0.667   0.221  0.0870 -0.0222 -0.1425
  250SOL    HW1  749   2.870   0.582   0.206 -1.3225  1.3900  0.1983
  250SOL    HW2  750   2.836   0.692   0.318 -0.4485 -0.9779 -2.0652
  251SOL     OW  751   1.851   0.717   0.794  0.0043  0.1265  0.1835
  251SOL    HW1  752   1.914   0.747   0.870 -1.4216  0.9217 -0.5449
  251SOL    HW2  753   1.902   0.664   0.722 -1.2711  0.8640  1.0229
  252SOL     OW  754   3.081   0.435   2.536  0.5369  0.2821  0.0443
  252SOL    HW1  755   2.986   0.476   2.543 -4.5056  0.5783 -1.1998
  252SOL    HW2  756   3.076   0.343   2.489 -2.2941 -4.3449 -2.9039
  253SOL     OW  757   1.516   2.116   2.951  0.2359  0.0133 -0.2732
  253SOL    HW1  758   1.417   2.111   2.933 -5.7947 -0.5300 -1.5809
  253SOL    HW2  759   1.531   2.116   3.050  0.8915 -0.1664  4.5835
  254SOL     OW  760   2.546   3.075   2.424  0.3059 -0.1040  0.1306
  254SOL    HW1  761   2.604   3.047   2.344 -0.3222 -1.7251 -0.9379
  254SOL    HW2  762   2.569   3.161   2.474 -0.9032  0.3230  1.3681
  255SOL     OW  763   2.620   2.382   2.076 -0.4150  0.1177  0.0477
  255SOL    HW1  764   2.636   2.281   2.062  0.9677 -0.5496 -0.7681
  255SOL    HW2  765   2.692   2.431   2.021  0.7577 -0.9535 -0.8841
  256SOL     OW  766   2.199   0.967   2.981 -0.1017  0.2041  0.0385
  256SOL    HW1  767   2.099   0.983   2.978  0.9318  1.4984  0.5129
  256SOL    HW2  768   2.240   0.967   3.075 -0.0982  0.9528 -0.6166
  257SOL     OW  769   1.813   0.759   2.147  0.0186 -0.1078 -0.0185
  257SOL    HW1  770   1.716   0.772   2.112 -0.1769  0.2469 -0.3804
  257SOL    HW2  771   1.838   0.659   2.157 -0.1357 -0.8616  0.1634
  258SOL     OW  772   0.504   3.511   2.225 -0.1343 -0.2023  0.0849
  258SOL    HW1  773   0.599   3.472   2.227  0.0213  2.3401 -0.5997
  258SOL    HW2  774   0.494   3.611   2.205  2.3188  0.4710 -0.9749
  259SOL     OW  775   1.440   0.094   1.596  0.4059 -0.1740 -0.4634
  259SOL    HW1  776   1.336   0.082   1.602 -5.6573 -0.2191  1.4495
  259SOL    HW2  777   1.460   0.143   1.684  0.1437  2.3177  3.7174
  260SOL     OW  778   3.004   0.808   1.635  0.2374 -0.2059  0.0420
  260SOL    HW1  779   3.074   0.742   1.667  1.2108 -0.5661 -1.5427
  260SOL    HW2  780   2.971   0.785   1.541  0.8501 -0.7609 -0.6851
  261SOL     OW  781   1.840   0.372   0.706  0.0700 -0.0886 -0.0216
  261SOL    HW1  782   1.853   0.296   0.773 -0.8251  0.1525 -0.0093
  261SOL    HW2  783   1.741   0.396   0.717 -0.9490 -1.1182  0.6819
  262SOL     OW  784   0.310   0.705   1.955 -0.0258 -0.0388  0.1009
  262SOL    HW1  785   0.271   0.615   1.925  0.3115  1.3372  0.1666
  262SOL    HW2  786   0.235   0.776   1.949  0.6133 -0.7613 -0.1482
  263SOL     OW  787   3.113   0.886   3.492  0.0717 -0.0376 -0.1236
  263SOL    HW1  788   3.034   0.850   3.546 -3.7570 -1.2182  3.4843
  263SOL    HW2  789   3.190   0.919   3.552  3.8551  1.5667  3.7947
  264SOL     OW  790   1.642   0.517   2.274  0.0827  0.0333 -0.2965
  264SOL    HW1  791   1.635   0.415   2.259 -0.2058 -0.5730 -0.1222
  264SOL    HW2  792   1.709   0.535   2.349 -0.0350  0.0863  0.2921
  265SOL     OW  793   2.463   0.996   3.463  0.4742  0.2028  0.0864
  265SOL    HW1  794   2.451   1.092   3.496 -1.7831  0.9097  0.5894
  265SOL    HW2  795   2.554   0.977   3.422 -0.5945 -1.9944 -0.1638
  266SOL     OW  796   2.965   2.079   2.857 -0.0148 -0.1103 -0.1038
  266SOL    HW1  797   3.025   2.085   2.775  1.0656 -0.1689 -1.9332
  266SOL    HW2  798   2.869   2.055   2.833 -1.2895 -0.7797 -0.9847
  267SOL     OW  799   0.363   0.675   0.622 -0.2578  0.1096  0.3462
  267SOL    HW1  800   0.347   0.697   0.523  0.0399  0.6335 -1.8177
  267SOL    HW2  801   0.456   0.633   0.629  0.8773 -0.3418  0.6646
  268SOL     OW  802   0.132   0.057   1.966  0.2238 -0.0193  0.4667
  268SOL    HW1  803   0.196   0.137   1.979  0.0052  1.4558 -0.4451
  268SOL    HW2  804   0.051   0.089   1.912  0.3633  1.2584 -0.5750
  269SOL     OW  805   0.754   0.280   1.030  0.0175 -0.0173 -0.0705
  269SOL    HW1  806   0.703   0.366   1.049 -1.6625  3.4835  0.8556
  269SOL    HW2  807   0.851   0.276   1.064  5.0505 -0.0113  1.7940
  270SOL     OW  808   0.613   3.200   2.369 -0.0763 -0.0796 -0.2945
  270SOL    HW1  809   0.661   3.268   2.309  3.6333  0.9912 -0.2730
  270SOL    HW2  810   0.517   3.199   2.329 -3.4113 -1.9754  0.3131
  271SOL     OW  811   3.092   3.068   2.285  0.2032 -0.1559 -0.1884
  271SOL    HW1  812   3.191   3.068   2.314 -1.3371 -1.0753  1.0623
  271SOL    HW2  813   3.072   3.111   2.193 -1.3333 -0.5768  0.3222
  272SOL     OW  814   3.095   1.321   3.069  0.0398  0.2325  0.0999
  272SOL    HW1  815   3.179   1.263   3.083  3.8008 -2.7290  0.1237
  272SOL    HW2  816   3.073   1.371   3.155 -1.5071  1.9305  3.2592
  273SOL     OW  817   0.101   3.460   1.972  0.2573  0.0021  0.1239
  273SOL    HW1  818   0.065   3.476   1.878 -1.8791 -0.6414  0.4950
  273SOL    HW2  819   0.023   3.411   2.016 -0.8616 -0.0062 -1.6727
  274SOL     OW  820   0.304   0.247   0.564  0.0597  0.0683 -0.1847
  274SOL    HW1  821   0.237   0.170   0.560 -0.2710 -0.0482  0.2930
  274SOL    HW2  822   0.253   0.334   0.583  0.0803 -0.3351 -0.1518
  275SOL     OW  823   1.990   1.960   2.783  0.0209  0.1487 -0.1213
  275SOL    HW1  824   1.962   1.961   2.684 -0.1091  0.2897 -0.1266
  275SOL    HW2  825   1.956   1.881   2.836 -0.2225 -0.5176  0.4813
  276SOL     OW  826   2.918   1.570   3.114  0.2066  0.5025 -0.1535
  276SOL    HW1  827   2.825   1.552   3.077 -1.4936 -1.2990  0.0556
  276SOL    HW2  828   2.936   1.509   3.193 -1.0715 -2.2918  0.8206
  277SOL     OW  829   1.344   1.013   1.749 -0.0020 -0.0029  0.1898
  277SOL    HW1  830   1.422   1.080   1.756  1.1088  0.9376  0.2450
  277SOL    HW2  831   1.363   0.957   1.664  0.4027 -0.3528  0.1016
  278SOL     OW  832   3.294   3.788   0.671 -0.0036  0.1554 -0.2772
  278SOL    HW1  833   3.322   3.884   0.650 -0.1654 -2.4613  0.3416
  278SOL    HW2  834   3.200   3.774   0.711  1.2637  0.5110 -0.4157
  279SOL     OW  835   3.349   3.059   3.341  0.0174 -0.0070 -0.2319
  279SOL    HW1  836   3.373   3.146   3.392  1.2497  2.2829  0.2595
  279SOL    HW2  837   3.272   3.005   3.383 -1.8137 -2.0075  0.4082
  280SOL     OW  838   3.561   0.258   2.728 -0.3802  0.2398  0.1161
  280SOL    HW1  839   3.600   0.241   2.820 -1.4129 -0.4688 -1.9253
  280SOL    HW2  840   3.470   0.303   2.740  0.9976 -1.5231  0.0102
  281SOL     OW  841   3.545   0.125   3.789  0.0353  0.2977  0.1062
  281SOL    HW1  842   3.627   0.186   3.780 -1.3308 -0.3875 -0.3390
  281SOL    HW2  843   3.474   0.132   3.716  1.1257  0.3233  0.1062
  282SOL     OW  844   2.477   1.044   1.425  0.2617  0.2993  0.4801
  282SOL    HW1  845   2.429   1.096   1.499  0.1047 -0.7577 -1.2406
  282SOL    HW2  846   2.544   0.980   1.469 -0.5328  0.5208 -1.2436
  283SOL     OW  847   2.058   0.986   1.414  0.0140  0.1689 -0.2980
  283SOL    HW1  848   2.097   1.004   1.506  1.4103  1.3439  2.6904
  283SOL    HW2  849   1.958   0.965   1.415 -3.5928 -0.8185 -0.9192
  284SOL     OW  850   1.209   3.465   1.916  0.3857  0.0782  0.0005
  284SOL    HW1  851   1.300   3.492   1.885 -2.2488  0.0124  0.7148
  284SOL    HW2  852   1.215   3.372   1.955  0.2152  3.1329 -0.8294
  285SOL     OW  853   0.319   0.856   3.386  0.2139 -0.0286 -0.3068
  285SOL    HW1  854   0.376   0.778   3.419 -0.3587  2.1900 -1.7398
  285SOL    HW2  855   0.354   0.896   3.299 -0.3904 -1.1357  1.1521
  286SOL     OW  856   3.033   2.870   3.178 -0.2304 -0.1087  0.2810
  286SOL    HW1  857   3.125   2.856   3.135  0.9388  0.3589 -1.8625
  286SOL    HW2  858   2.985   2.938   3.118 -0.6908  1.8806 -2.2956
  287SOL     OW  859   1.893   0.138   0.839 -0.1072 -0.0047  0.0535
  287SOL    HW1  860   1.976   0.110   0.786 -0.6164 -0.6744 -0.4753
  287SOL    HW2  861   1.840   0.057   0.870  0.4896 -0.4034 -0.4889
  288SOL     OW  862   3.464   2.719   3.757  0.1153 -0.1347 -0.0756
  288SOL    HW1  863   3.363   2.709   3.745  0.8593  0.0505  1.0839
  288SOL    HW2  864   3.499   2.660   3.680  0.1209  0.2729  0.0539
  289SOL     OW  865   3.125   0.218   0.043  0.0767  0.0093  0.0245
  289SOL    HW1  866   3.075   0.131   0.021  0.6869  1.3022 -0.8959
  289SOL    HW2  867   3.123   0.291  -0.030  0.2309 -2.0791  1.6688
  290SOL     OW  868   1.399   0.211   2.036  0.1579 -0.1155  0.0640
  290SOL    HW1  869   1.338   0.285   2.000 -0.9066  1.3725 -0.7716
  290SOL    HW2  870   1.420   0.213   2.137  0.5328 -0.4681  1.3090
  291SOL     OW  871   3.610   3.316   0.094  0.0018  0.1235 -0.3049
  291SOL    HW1  872   3.589   3.324   0.194 -1.0527 -0.9081  1.0308
  291SOL    HW2  873   3.550   3.255   0.040 -0.3581 -1.1395 -0.5466
  292SOL     OW  874   0.727   0.346   1.340 -0.0347  0.2480 -0.2470
  292SOL    HW1  875   0.823   0.334   1.311  0.4985  0.3982  2.0468
  292SOL    HW2  876   0.655   0.361   1.269 -1.4856  0.7292  1.9143
  293SOL     OW  877   1.827   1.683   2.457  0.3620 -0.1759 -0.0548
  293SOL    HW1  878   1.926   1.669   2.472 -2.5511  1.0595 -1.3073
  293SOL    HW2  879   1.834   1.744   2.376  0.1641 -1.4944  1.7606
  294SOL     OW  880   2.957   3.280   0.665 -0.0535 -0.1238  0.0910
  294SOL    HW1  881   2.937   3.316   0.570 -1.8268  2.4765 -1.2270
  294SOL    HW2  882   3.016   3.194   0.678  0.1574 -1.0702  1.8774
  295SOL     OW  883   0.627   0.974   2.121  0.0847 -0.2035 -0.4158
  295SOL    HW1  884   0.544   1.006   2.068  1.3952 -0.5892 -0.0827
  295SOL    HW2  885   0.708   1.002   2.064 -0.9059 -0.1166 -0.7814
  296SOL     OW  886   1.685   2.252   2.771 -0.4296 -0.3243 -0.1497
  296SOL    HW1  887   1.682   2.181   2.692  0.0421  3.7065  4.9294
  296SOL    HW2  888   1.622   2.226   2.851  3.6840  1.7520 -5.0585
  297SOL     OW  889   1.962   2.257   2.786  0.0675  0.1295 -0.0497
  297SOL    HW1  890   1.986   2.166   2.821  0.8350 -1.9095  0.6063
  297SOL    HW2  891   1.860   2.272   2.794 -2.9155  0.6763 -0.0163
  298SOL     OW  892   1.262   0.347   0.474 -0.1123  0.2231  0.1239
  298SOL    HW1  893   1.174   0.403   0.475  1.3865 -1.4243 -0.6412
  298SOL    HW2  894   1.338   0.408   0.439 -1.7401 -1.3572  1.1448
  299SOL     OW  895   2.896   3.402   0.429 -0.0827 -0.4017  0.5360
  299SOL    HW1  896   2.940   3.473   0.364  2.1489  2.4140 -2.6121
  299SOL    HW2  897   2.797   3.424   0.454 -1.3640  0.2017  0.4993
  300SOL     OW  898   3.762   0.367   1.943  0.1578  0.3715  0.1558
  300SOL    HW1  899   3.682   0.431   1.946  0.2830 -0.9194  0.8529
  300SOL    HW2  900   3.839   0.424   1.907 -0.0585 -0.2697  0.3471
  301SOL     OW  901   3.156   3.391   0.946 -0.2367 -0.4247 -0.3526
  301SOL    HW1  902   3.065   3.348   0.957  4.1613  1.7722 -0.5187
  301SOL    HW2  903   3.193   3.357   0.856 -1.9005  1.2844  3.8534
  302SOL     OW  904   3.626   2.854   2.924 -0.0610 -0.1835  0.1116
  302SOL    HW1  905   3.577   2.780   2.873  0.3646  1.1433  0.8488
  302SOL    HW2  906   3.578   2.908   2.996  0.7121 -0.8685 -1.0322
  303SOL     OW  907   2.142   1.259   3.459 -0.5003  0.1858  0.1979
  303SOL    HW1  908   2.106   1.176   3.414 -0.3310 -0.8109 -0.8551
  303SOL    HW2  909   2.232   1.252   3.505  1.3961  0.3754 -0.0194
  304SOL     OW  910   0.248   3.423   2.202 -0.1058 -0.2020  0.1865
  304SOL    HW1  911   0.194   3.435   2.116  1.2990  0.9417 -1.5523
  304SOL    HW2  912   0.340   3.468   2.197  0.2991  0.0209 -3.0139
  305SOL     OW  913   2.765   3.394   2.746 -0.2336 -0.2264 -0.1086
  305SOL    HW1  914   2.737   3.335   2.668 -1.0884 -0.7595 -1.9783
  305SOL    HW2  915   2.799   3.340   2.826  0.1485  0.2413  1.4053
  306SOL     OW  916   0.295   2.659   3.345  0.1417  0.1299 -0.1972
  306SOL    HW1  917   0.362   2.735   3.361 -1.6919 -3.0077 -1.1256
  306SOL    HW2  918   0.311   2.612   3.256  0.3739  1.3189  2.1909
  307SOL     OW  919   2.790   3.720   1.704  0.1043 -0.1395  0.2716
  307SOL    HW1  920   2.746   3.751   1.791  1.3736 -1.1593 -0.3083
  307SOL    HW2  921   2.756   3.625   1.713 -0.1874  1.3522  0.5388
  308SOL     OW  922   2.280   0.333   2.352  0.0081 -0.0160 -0.3926
  308SOL    HW1  923   2.207   0.331   2.423 -0.0962 -0.0510 -4.1213
  308SOL    HW2  924   2.224   0.333   2.267  0.0568 -0.0443  4.7599
  309SOL     OW  925   1.851   1.144   1.597 -0.3226  0.0762 -0.1959
  309SOL    HW1  926   1.886   1.098   1.682  1.5080 -1.8698  3.1574
  309SOL    HW2  927   1.815   1.075   1.532 -0.6048 -1.2128 -1.1123
  310SOL     OW  928   2.967   3.537   2.163 -0.1546  0.1152 -0.0302
  310SOL    HW1  929   3.006   3.507   2.252 -0.2130  0.3924 -0.6986
  310SOL    HW2  930   2.933   3.633   2.151  0.4427  0.1325  0.1676
  311SOL     OW  931   1.050   0.448   2.103 -0.2343  0.1325  0.3966
  311SOL    HW1  932   1.103   0.497   2.176 -1.6969 -1.6628 -1.7122
  311SOL    HW2  933   1.002   0.373   2.152  1.7227  1.9713 -1.0358
  312SOL     OW  934   0.364   3.479   0.171  0.0824  0.0804 -0.2157
  312SOL    HW1  935   0.465   3.498   0.175  0.9376 -1.0556  0.0684
  312SOL    HW2  936   0.360   3.380   0.140  1.5204 -0.3335  0.0827
  313SOL     OW  937   2.448   2.293   2.950 -0.0159  0.5772 -0.1097
  313SOL    HW1  938   2.446   2.235   3.034  0.0240 -1.1865  1.1324
  313SOL    HW2  939   2.445   2.241   2.862 -0.3160 -1.0527 -1.3947
  314SOL     OW  940   1.363   0.814   2.869 -0.3019 -0.1841  0.0110
  314SOL    HW1  941   1.319   0.822   2.961 -0.4755  0.1736  0.0472
  314SOL    HW2  942   1.450   0.868   2.873  0.2298 -0.4338 -0.5408
  315SOL     OW  943   0.874   1.775   2.611 -0.1504  0.5707 -0.0065
  315SOL    HW1  944   0.834   1.703   2.672  1.2270 -4.0406 -1.1765
  315SOL    HW2  945   0.927   1.717   2.544  0.0968 -4.4062  0.5355
  316SOL     OW  946   3.467   0.578   2.568 -0.0729  0.2962  0.0184
  316SOL    HW1  947   3.528   0.514   2.515  0.9202  0.2900  0.4093
  316SOL    HW2  948   3.505   0.593   2.662  0.5139 -0.6511  0.8637
  317SOL     OW  949   2.497   0.500   1.309  0.2995 -0.0129  0.1872
  317SOL    HW1  950   2.471   0.518   1.211  0.9472 -0.9860 -1.0447
  317SOL    HW2  951   2.442   0.545   1.383  0.8268 -0.4170  1.5537
  318SOL     OW  952   2.875   3.663   0.935 -0.0397 -0.3260  0.2906
  318SOL    HW1  953   2.963   3.660   0.990  0.1816 -0.0386  0.3924
  318SOL    HW2  954   2.797   3.694   0.997 -1.1597 -0.3841 -0.6254
  319SOL     OW  955   3.077   1.414   2.805  0.0484  0.2469  0.1630
  319SOL    HW1  956   3.004   1.352   2.770  1.4978  0.6079  1.5558
  319SOL    HW2  957   3.105   1.402   2.902 -0.2504  0.0270 -0.4146
  320SOL     OW  958   3.113   3.638   1.051 -0.2233 -0.4678  0.0095
  320SOL    HW1  959   3.185   3.711   1.042  1.9417  1.8946  0.5444
  320SOL    HW2  960   3.139   3.544   1.019  0.5262 -2.3354  0.1328
  321SOL     OW  961   3.437   0.195   3.181  0.3611  0.0502 -0.2992
  321SOL    HW1  962   3.471   0.211   3.277  0.2120  0.1105  0.8964
  321SOL    HW2  963   3.398   0.282   3.141 -1.0368  0.7101 -0.1675
  322SOL     OW  964   0.552   0.119   1.127  0.4007 -0.2186 -0.2325
  322SOL    HW1  965   0.634   0.172   1.098 -1.4932 -1.2667  1.0435
  322SOL    HW2  966   0.538   0.052   1.052  0.2519  1.1231  1.7022
  323SOL     OW  967   3.740   3.442   3.550  0.1316  0.0119 -0.1410
  323SOL    HW1  968   3.731   3.453   3.448 -0.3012  1.0104 -1.0118
  323SOL    HW2  969   3.707   3.530   3.591 -0.9089  0.9906 -0.4429
  324SOL     OW  970   2.801   2.661   2.236 -0.2358 -0.0612  0.0040
  324SOL    HW1  971   2.833   2.751   2.272 -0.8101 -1.0627 -0.2636
  324SOL    HW2  972   2.707   2.642   2.272  0.3114  0.6639 -0.2524
  325SOL     OW  973   1.672   0.252   2.245 -0.1612  0.0833  0.0581
  325SOL    HW1  974   1.741   0.209   2.180  0.0974  0.5883  1.1250
  325SOL    HW2  975   1.604   0.184   2.283 -0.1782  1.1574 -0.5304
  326SOL     OW  976   2.891   2.891   2.347 -0.2096  0.0454 -0.1402
  326SOL    HW1  977   2.970   2.953   2.335  1.7709 -0.0843  0.4253
  326SOL    HW2  978   2.884   2.872   2.446  0.2431 -0.6434  1.5991
  327SOL     OW  979   0.133   0.094   0.810  0.0035 -0.1046  0.0355
  327SOL    HW1  980   0.183   0.033   0.877 -0.5737  0.6204  0.5518
  327SOL    HW2  981   0.136   0.061   0.712 -0.3418  0.5234  0.4544
  328SOL     OW  982   1.740   3.472   1.571 -0.0094 -0.3129  0.1723
  328SOL    HW1  983   1.815   3.516   1.518  1.4472  2.6183 -0.6115
  328SOL    HW2  984   1.688   3.556   1.597 -1.1745  2.9342  0.2616
  329SOL     OW  985   2.434   3.577   1.601 -0.0425 -0.1276 -0.1702
  329SOL    HW1  986   2.400   3.509   1.531  0.2412  0.0490  0.3185
  329SOL    HW2  987   2.506   3.643   1.570  0.6271 -0.2788  0.6168
  330SOL     OW  988   0.262   0.885   1.528  0.2539 -0.1374  0.0945
  330SOL    HW1  989   0.337   0.868   1.597  0.8561 -1.1312  0.1901
  330SOL    HW2  990   0.173   0.917   1.569 -0.2183 -0.7154 -0.0450
  331SOL     OW  991   1.284   3.374   2.518 -0.2366 -0.0398  0.1796
  331SOL    HW1  992   1.210   3.349   2.583  1.5150  1.2513 -2.3649
  331SOL    HW2  993   1.325   3.281   2.499 -2.1851  1.3941  0.3181
  332SOL     OW  994   3.240   3.021   0.063  0.2465  0.1504  0.1969
  332SOL    HW1  995   3.156   2.964   0.043 -1.1383 -1.5352  0.4542
  332SOL    HW2  996   3.308   2.959   0.108  0.5808 -1.3580  0.1217
  333SOL     OW  997   2.901   3.312   2.974 -0.0891  0.2869  0.3227
  333SOL    HW1  998   2.870   3.335   3.069  1.8265 -1.0878 -5.6754
  333SOL    HW2  999   2.984   3.370   2.958 -4.5087 -2.3325  1.7361
  334SOL     OW 1000   3.692   0.158   0.464  0.1179  0.2295  0.3953
  334SOL    HW1 1001   3.714   0.259   0.471  0.0752 -0.5301  0.3272
  334SOL    HW2 1002   3.619   0.124   0.526  0.0273  0.8264 -0.1870
  335SOL     OW 1003   2.512   3.341   2.043  0.0460 -0.0207  0.1599
  335SOL    HW1 1004   2.507   3.433   1.997  1.0299 -0.1583 -0.0915
  335SOL    HW2 1005   2.424   3.313   2.086  1.2963 -1.1587  0.3199
  336SOL     OW 1006   0.140   0.988   1.298  0.1305  0.1223  0.2819
  336SOL    HW1 1007   0.194   1.027   1.222  0.8819  0.4394  0.4613
  336SOL    HW2 1008   0.205   0.957   1.371  0.5922 -0.7231 -0.1200
  337SOL     OW 1009   0.206   3.033   2.482 -0.0604 -0.0509 -0.0950
  337SOL    HW1 1010   0.289   2.975   2.492 -1.6595 -0.8040  2.3720
  337SOL    HW2 1011   0.136   3.002   2.550  2.2028 -1.7723 -0.2233
  338SOL     OW 1012   0.266   3.746   1.007  0.2042  0.1832  0.1634
  338SOL    HW1 1013   0.363   3.737   0.975 -0.0328  0.2022  0.6641
  338SOL    HW2 1014   0.255   3.832   1.058  1.7306 -1.3827 -0.7537
  339SOL     OW 1015   2.886   2.479   3.011 -0.0060  0.0602 -0.2766
  339SOL    HW1 1016   2.891   2.537   3.095  0.0679  0.9507  1.0780
  339SOL    HW2 1017   2.890   2.382   3.045 -0.0372 -2.1395  0.4847
  340SOL     OW 1018   0.482   3.233   2.953  0.0197 -0.0359 -0.0139
  340SOL    HW1 1019   0.405   3.254   2.888 -0.7082  1.0864 -1.3435
  340SOL    HW2 1020   0.454   3.212   3.049  0.7708  0.1331  3.2973
  341SOL     OW 1021   3.670   2.245   3.501 -0.0244  0.1735 -0.0779
  341SOL    HW1 1022   3.671   2.299   3.588  1.2597  1.0410 -1.7839
  341SOL    HW2 1023   3.745   2.289   3.446 -0.1428  1.1546  1.6311
  342SOL     OW 1024   2.895   1.859   2.395 -0.2162  0.1844  0.0026
  342SOL    HW1 1025   2.814   1.802   2.423 -0.0375 -0.9134  0.6335
  342SOL    HW2 1026   2.974   1.808   2.434 -0.5392 -0.7221  0.0982
  343SOL     OW 1027   2.960   3.336   1.576  0.3455 -0.0113  0.0718
  343SOL    HW1 1028   2.929   3.257   1.519 -0.8508  0.4885  0.1915
  343SOL    HW2 1029   2.880   3.390   1.613 -1.2358 -1.1236 -0.6205
  344SOL     OW 1030   0.727   0.996   2.864  0.0505  0.1841  0.0737
  344SOL    HW1 1031   0.646   0.961   2.813 -1.1157  0.2926 -1.0800
  344SOL    HW2 1032   0.731   0.950   2.957  0.0563 -0.9305  2.3328
  345SOL     OW 1033   3.566   2.608   3.224 -0.0001 -0.1913  0.1610
  345SOL    HW1 1034   3.490   2.585   3.160 -1.5570 -0.2595 -1.5672
  345SOL    HW2 1035   3.659   2.572   3.200  1.7549 -0.4181 -0.6284
  346SOL     OW 1036   0.711   0.591   0.899  0.1091 -0.1079 -0.2643
  346SOL    HW1 1037   0.766   0.676   0.909  1.8434  3.1018 -0.3932
  346SOL    HW2 1038   0.657   0.573   0.981 -0.8327 -0.0459  1.9469
  347SOL     OW 1039   2.504   1.745   0.015  0.0209 -0.0301  0.0263
  347SOL    HW1 1040   2.458   1.663  -0.030  1.4530  1.5201  0.8570
  347SOL    HW2 1041   2.452   1.833   0.018  2.0783 -2.1567  0.3378
  348SOL     OW 1042   1.951   0.776   1.917 -0.2820  0.1341 -0.0176
  348SOL    HW1 1043   1.942   0.867   1.871 -0.3457 -0.3893 -0.0277
  348SOL    HW2 1044   1.909   0.769   2.010 -0.2615  0.8964  0.6895
  349SOL     OW 1045   2.176   1.780   2.093  0.2562 -0.0933 -0.1985
  349SOL    HW1 1046   2.242   1.858   2.088  1.4845  1.7312 -0.1045
  349SOL    HW2 1047   2.131   1.748   2.007 -1.4953 -1.8282 -1.3957
  350SOL     OW 1048   1.449   3.167   2.446 -0.2143 -0.2349  0.6636
  350SOL    HW1 1049   1.420   3.116   2.364 -0.8504 -1.0530 -4.5265
  350SOL    HW2 1050   1.530   3.220   2.415  3.9102  2.1906 -2.4989
  351SOL     OW 1051   3.020   3.210   2.508 -0.0499  0.0523  0.1195
  351SOL    HW1 1052   2.996   3.142   2.580 -1.9979 -0.9915  2.8052
  351SOL    HW2 1053   3.036   3.172   2.414 -0.4704  0.5403 -4.1350
  352SOL     OW 1054   0.456   0.625   3.449  0.1323  0.0620 -0.0104
  352SOL    HW1 1055   0.498   0.644   3.357  0.8283  0.9960 -1.7567
  352SOL    HW2 1056   0.528   0.581   3.507  0.8784 -0.5860  1.0411
  353SOL     OW 1057   2.703   3.639   0.516  0.2150  0.1501  0.0325
  353SOL    HW1 1058   2.670   3.544   0.536 -2.6113 -7.3336  1.6511
  353SOL    HW2 1059   2.651   3.665   0.431 -2.3609  2.0122 -3.8835
  354SOL     OW 1060   0.299   3.060   3.535 -0.1697  0.1380  0.2943
  354SOL    HW1 1061   0.202   3.076   3.558  1.9949 -2.6222 -2.1788
  354SOL    HW2 1062   0.374   3.123   3.563 -0.1153 -2.9911 -2.5842
  355SOL     OW 1063   1.836   1.625   2.034  0.1973  0.0672  0.0221
  355SOL    HW1 1064   1.820   1.702   2.099 -1.4100  2.5571  2.0971
  355SOL    HW2 1065   1.743   1.597   2.006 -4.0352 -0.4513 -0.9525
  356SOL     OW 1066   1.440   0.697   2.319 -0.0859 -0.1314 -0.0792
  356SOL    HW1 1067   1.350   0.654   2.300 -0.7415 -0.3615  0.0009
  356SOL    HW2 1068   1.519   0.637   2.295  0.8575 -0.4655  0.2009
  357SOL     OW 1069   1.796   3.785   1.878 -0.0340  0.3171  0.1844
  357SOL    HW1 1070   1.762   3.709   1.942 -0.8812 -4.2207  2.6043
  357SOL    HW2 1071   1.754   3.765   1.786 -0.8752 -0.8862 -3.4175
  358SOL     OW 1072   0.897   0.664   1.645 -0.4795 -0.1532 -0.5623
  358SOL    HW1 1073   0.935   0.728   1.712  3.0112  6.7866  6.4160
  358SOL    HW2 1074   0.924   0.569   1.662  2.3711 -8.1760  0.5017
  359SOL     OW 1075   2.663   2.070   3.016  0.0894  0.0239 -0.3372
  359SOL    HW1 1076   2.578   2.082   3.067 -1.0704  0.7347  0.7149
  359SOL    HW2 1077   2.727   2.139   3.050  0.1277  1.7913  1.1984
  360SOL     OW 1078   3.364   1.598   2.604 -0.0065 -0.2964 -0.2414
  360SOL    HW1 1079   3.292   1.529   2.582 -0.0387  0.2040 -1.1794
  360SOL    HW2 1080   3.377   1.620   2.703  0.5191  0.2403 -0.3042
  361SOL     OW 1081   3.498   3.634   0.968  0.6392 -0.0271 -0.4994
  361SOL    HW1 1082   3.578   3.696   0.987 -3.1878 -2.1706  0.9219
  361SOL    HW2 1083   3.496   3.595   0.874 -1.7464  1.9497  3.7549
  362SOL     OW 1084   3.066   2.544   2.797 -0.0166 -0.0524 -0.2021
  362SOL    HW1 1085   3.011   2.528   2.881 -1.7358 -2.3245  2.4315
  362SOL    HW2 1086   3.065   2.447   2.760 -0.7852 -4.5233 -0.4787
  363SOL     OW 1087   2.631   0.561   2.098 -0.0761  0.0586 -0.0597
  363SOL    HW1 1088   2.702   0.576   2.168 -1.6544 -0.8861  1.1137
  363SOL    HW2 1089   2.548   0.532   2.148  0.8289 -0.1842  2.6285
  364SOL     OW 1090   2.374   1.046   2.776 -0.2730 -0.2124  0.1567
  364SOL    HW1 1091   2.303   1.018   2.843 -0.5406  1.6558 -0.0151
  364SOL    HW2 1092   2.438   0.970   2.752 -0.0678  0.8922 -0.6526
  365SOL     OW 1093   0.995   2.662   2.327  0.0209 -0.4536 -0.2353
  365SOL    HW1 1094   0.939   2.622   2.403  1.3287 -0.4550 -0.9778
  365SOL    HW2 1095   1.089   2.623   2.320 -1.1690  0.7049 -0.0768
  366SOL     OW 1096   3.443   3.540   0.716  0.0301 -0.3533  0.1276
  366SOL    HW1 1097   3.352   3.589   0.721 -3.2305  1.1987  1.1611
  366SOL    HW2 1098   3.491   3.540   0.624  3.0599  0.7630 -3.4242
  367SOL     OW 1099   3.598   2.577   3.557  0.1856  0.0295 -0.2331
  367SOL    HW1 1100   3.700   2.583   3.547  0.6126 -0.2637  1.4980
  367SOL    HW2 1101   3.541   2.595   3.474 -1.5487 -0.7254 -0.0142
  368SOL     OW 1102   0.289   0.219   3.252  0.1612 -0.0121 -0.1304
  368SOL    HW1 1103   0.330   0.277   3.325  0.1131 -0.0718 -0.8268
  368SOL    HW2 1104   0.321   0.253   3.161 -0.1260 -0.5247  0.2024
  369SOL     OW 1105   1.125   0.223   3.716  0.2241  0.1497  0.1191
  369SOL    HW1 1106   1.094   0.124   3.734 -0.8927 -1.2768  3.4424
  369SOL    HW2 1107   1.128   0.253   3.815  0.2388 -1.0246  1.9345
  370SOL     OW 1108   2.025   3.308   1.391  0.0139  0.2260 -0.1166
  370SOL    HW1 1109   2.010   3.215   1.356  3.4619  0.3970  3.0169
  370SOL    HW2 1110   2.097   3.284   1.459 -2.4061 -3.5693 -2.0440
  371SOL     OW 1111   1.195   1.587   2.235 -0.4545 -0.2430 -0.3932
  371SOL    HW1 1112   1.293   1.617   2.234  1.1957  1.1651 -1.1356
  371SOL    HW2 1113   1.150   1.653   2.173 -0.1027  1.8940 -1.7443
  372SOL     OW 1114   2.187   0.324   2.100  0.0304  0.1297  0.0340
  372SOL    HW1 1115   2.109   0.350   2.039  0.1206 -0.4869 -0.3051
  372SOL    HW2 1116   2.241   0.261   2.039 -1.8127 -0.2008 -0.3270
  373SOL     OW 1117   2.677   3.751   0.756  0.0911 -0.2099 -0.2645
  373SOL    HW1 1118   2.694   3.709   0.664  0.4598  0.0019  1.8650
  373SOL    HW2 1119   2.758   3.733   0.819 -0.7848  0.6282 -2.2489
  374SOL     OW 1120   3.420   3.375   3.038 -0.1716 -0.0791 -0.0761
  374SOL    HW1 1121   3.474   3.448   2.990  0.9358  0.5898 -0.2021
  374SOL    HW2 1122   3.336   3.406   3.085 -1.4768 -0.2924  0.6845
  375SOL     OW 1123   0.203   2.224   3.133  0.0255 -0.1187  0.0622
  375SOL    HW1 1124   0.130   2.171   3.083  0.9861  1.4261  2.6021
  375SOL    HW2 1125   0.160   2.258   3.220  0.0496 -1.6593 -2.7754
  376SOL     OW 1126   1.106   3.376   2.725  0.1139  0.0748 -0.3188
  376SOL    HW1 1127   1.055   3.320   2.792 -0.3859  0.4317 -0.2555
  376SOL    HW2 1128   1.042   3.451   2.694 -1.1105  0.6788 -0.3005
  377SOL     OW 1129   1.652   0.646   0.528 -0.0259  0.1081  0.0827
  377SOL    HW1 1130   1.638   0.735   0.579  0.3670 -1.9072 -0.9393
  377SOL    HW2 1131   1.741   0.662   0.476 -1.9693  0.4702  1.8643
  378SOL     OW 1132   0.591   0.530   0.664  0.5290 -0.3510  0.0833
  378SOL    HW1 1133   0.640   0.565   0.747 -3.1538 -0.9724 -3.8936
  378SOL    HW2 1134   0.625   0.451   0.608 -2.2047  4.0705  2.2953
  379SOL     OW 1135   2.282   3.686   0.617 -0.0091 -0.0887 -0.0623
  379SOL    HW1 1136   2.309   3.769   0.564 -0.7520  0.4609 -0.5904
  379SOL    HW2 1137   2.342   3.653   0.692 -0.1313 -0.2787  1.3403
  380SOL     OW 1138   0.166   3.012   2.932  0.0306 -0.1962 -0.4253
  380SOL    HW1 1139   0.237   2.966   2.987  2.2293 -0.0352  0.2348
  380SOL    HW2 1140   0.212   3.101   2.904  2.2686  1.4340 -0.3122
  381SOL     OW 1141   3.042   1.021   0.014 -0.4669 -0.0077  0.2734
  381SOL    HW1 1142   3.061   1.079  -0.069 -0.6547 -0.1785  1.0330
  381SOL    HW2 1143   2.966   0.953   0.003  0.7791  0.7348 -0.3977
  382SOL     OW 1144   3.783   3.408   1.244  0.0898  0.3814 -0.0614
  382SOL    HW1 1145   3.774   3.327   1.306  0.0176  0.0352  0.6516
  382SOL    HW2 1146   3.744   3.490   1.292 -0.3627  0.6865  0.6474
  383SOL     OW 1147   2.747   1.399   0.018 -0.1212 -0.1283  0.4042
  383SOL    HW1 1148   2.798   1.348  -0.052  1.0172 -2.0538 -2.1985
  383SOL    HW2 1149   2.759   1.501   0.013  0.3026  4.0634 -0.3782
  384SOL     OW 1150   3.265   0.420   3.389  0.2869 -0.1480 -0.0718
  384SOL    HW1 1151   3.203   0.449   3.313 -1.0299 -0.4879 -0.9306
  384SOL    HW2 1152   3.354   0.469   3.394  0.3869 -0.9909  0.6350
  385SOL     OW 1153   3.723   1.019   0.461  0.6351 -0.1802  0.0136
  385SOL    HW1 1154   3.809   1.010   0.512 -3.4544 -1.3306 -2.8524
  385SOL    HW2 1155   3.698   0.924   0.438  1.2029  4.7760  1.5531
  386SOL     OW 1156   0.631   0.640   1.691  0.0185 -0.2261  0.3177
  386SOL    HW1 1157   0.722   0.671   1.657 -5.3987 -1.3410  2.8003
  386SOL    HW2 1158   0.612   0.603   1.784  1.2389  3.3979 -6.8632
  387SOL     OW 1159   2.418   1.539   2.629 -0.1510  0.3273  0.0482
  387SOL    HW1 1160   2.376   1.478   2.698  0.8188  1.5048 -0.6059
  387SOL    HW2 1161   2.502   1.585   2.665 -1.2661 -0.4336  1.3298
  388SOL     OW 1162   2.622   0.455   0.594 -0.0902 -0.0093  0.2859
  388SOL    HW1 1163   2.663   0.500   0.676 -1.7383 -0.3392 -1.8777
  388SOL    HW2 1164   2.606   0.359   0.627  0.4104  2.0194 -1.6903
  389SOL     OW 1165   2.053   2.656   2.052 -0.3851  0.3064  0.1307
  389SOL    HW1 1166   1.955   2.670   2.080  3.2026 -0.4297 -0.6072
  389SOL    HW2 1167   2.093   2.747   2.020 -2.1123 -3.0514  1.3622
  390SOL     OW 1168   3.489   3.176   2.862 -0.1501  0.2309  0.0219
  390SOL    HW1 1169   3.459   3.246   2.931  1.9468 -0.9328 -1.9892
  390SOL    HW2 1170   3.511   3.210   2.768 -0.2125  1.5460  3.8321
  391SOL     OW 1171   1.448   0.846   1.545 -0.1388 -0.1212 -0.1916
  391SOL    HW1 1172   1.473   0.884   1.451 -1.5599 -1.6856  4.8854
  391SOL    HW2 1173   1.390   0.759   1.543  2.5601  4.3409  0.1983
  392SOL     OW 1174   1.950   1.027   1.814 -0.2823  0.0265 -0.1982
  392SOL    HW1 1175   1.926   1.093   1.888  0.9901  0.2993 -0.0749
  392SOL    HW2 1176   2.052   1.012   1.807 -1.5511  0.9326  0.7904
  393SOL     OW 1177   2.988   0.775   2.450 -0.0127  0.1173  0.0513
  393SOL    HW1 1178   2.966   0.857   2.509 -0.7416  1.5545  1.4083
  393SOL    HW2 1179   3.086   0.748   2.458  0.2159 -0.3857  0.2368
  394SOL     OW 1180   3.069   2.634   2.544 -0.1411 -0.0502  0.0050
  394SOL    HW1 1181   3.084   2.609   2.641  0.5021  0.8534 -1.4658
  394SOL    HW2 1182   3.147   2.698   2.526 -1.0374 -1.0342  1.1363
  395SOL     OW 1183   2.053   3.043   2.208  0.0446  0.0568  0.1787
  395SOL    HW1 1184   2.141   3.025   2.260  0.6731 -2.0791  0.5384
  395SOL    HW2 1185   2.026   3.142   2.202 -1.2244  0.6540 -0.5139
  396SOL     OW 1186   2.384   0.534   2.202  0.2421  0.3495 -0.0263
  396SOL    HW1 1187   2.300   0.592   2.203 -1.7530  0.8337 -0.2257
  396SOL    HW2 1188   2.359   0.455   2.259 -2.0295 -0.7588  1.0764
  397SOL     OW 1189   2.883   3.632   2.828 -0.2330 -0.4185  0.3123
  397SOL    HW1 1190   2.831   3.683   2.897  1.4733 -1.1980 -1.5176
  397SOL    HW2 1191   2.823   3.550   2.808  1.3866  1.3373  0.4933
  398SOL     OW 1192   0.756   3.421   2.266 -0.0356  0.0919 -0.0926
  398SOL    HW1 1193   0.788   3.434   2.362 -0.7595 -1.0210 -0.0328
  398SOL    HW2 1194   0.829   3.417   2.194 -1.0208 -0.9355 -1.1003
  399SOL     OW 1195   2.978   3.780   3.736  0.1085 -0.0664 -0.0217
  399SOL    HW1 1196   3.056   3.741   3.787  4.2232 -0.6268  2.2883
  399SOL    HW2 1197   2.914   3.710   3.701 -2.5388 -1.2825 -2.0560
  400SOL     OW 1198   1.046   3.593   2.109  0.1342  0.4909  0.2204
  400SOL    HW1 1199   1.109   3.541   2.051  2.1218 -0.6498  0.9085
  400SOL    HW2 1200   0.977   3.657   2.068 -2.3476  3.2166 -0.2036
  401SOL     OW 1201   0.440   2.897   3.362 -0.1339 -0.3165 -0.1192
  401SOL    HW1 1202   0.397   2.946   3.441 -1.3379  0.4806  2.7160
  401SOL    HW2 1203   0.519   2.958   3.338  2.3647  1.9705 -0.4261
  402SOL     OW 1204   1.067   3.271   2.272 -0.1800  0.1037 -0.0612
  402SOL    HW1 1205   1.067   3.344   2.342  0.4599 -3.6257 -1.1815
  402SOL    HW2 1206   1.054   3.184   2.323  0.0884  2.9793  0.3062
  403SOL     OW 1207   0.379   0.684   1.353  0.0885 -0.0269 -0.2511
  403SOL    HW1 1208   0.449   0.627   1.400  0.3977 -0.6963 -0.7189
  403SOL    HW2 1209   0.337   0.759   1.408 -0.5879  0.0860 -0.5200
  404SOL     OW 1210   3.578   0.649   0.993 -0.0565 -0.1610 -0.1000
  404SOL    HW1 1211   3.536   0.565   1.037 -1.5064  0.3305 -0.0816
  404SOL    HW2 1212   3.679   0.636   0.978 -0.9330  1.5722 -0.8373
  405SOL     OW 1213   2.320   3.018   2.280  0.1069  0.0677  0.0036
  405SOL    HW1 1214   2.346   2.934   2.229  0.2943  0.2482 -0.0127
  405SOL    HW2 1215   2.393   3.045   2.347  0.6092  0.5715 -0.1272
  406SOL     OW 1216   2.365   3.466   0.476 -0.0016 -0.1681  0.0656
  406SOL    HW1 1217   2.321   3.533   0.539  0.4477 -1.3456 -1.8272
  406SOL    HW2 1218   2.333   3.493   0.383  0.0877 -0.3628  0.9797
  407SOL     OW 1219   0.659   3.399   3.065  0.1879  0.0308  0.0538
  407SOL    HW1 1220   0.735   3.341   3.100  1.0394  0.6376  0.6715
  407SOL    HW2 1221   0.585   3.344   3.019 -1.0942  1.0369 -0.3921
  408SOL     OW 1222   1.419   2.336   2.312  0.1037 -0.2562  0.1719
  408SOL    HW1 1223   1.342   2.402   2.317 -1.0235  1.9213 -0.1986
  408SOL    HW2 1224   1.500   2.395   2.294  0.4233  1.3544 -0.2202
  409SOL     OW 1225   1.266   0.043   3.122 -0.0937 -0.1434  0.1793
  409SOL    HW1 1226   1.281  -0.055   3.096  1.4698 -1.3968 -0.2621
  409SOL    HW2 1227   1.209   0.098   3.057 -0.4376  0.9121 -1.0899
  410SOL     OW 1228   3.015   0.633   1.126  0.0187  0.1046 -0.2164
  410SOL    HW1 1229   3.092   0.575   1.091  0.2668 -0.0556 -0.5017
  410SOL    HW2 1230   2.922   0.595   1.103 -0.6316 -0.0944 -0.1740
  411SOL     OW 1231   1.148   3.777   2.504  0.1503 -0.0896  0.0645
  411SOL    HW1 1232   1.134   3.811   2.408  1.1258  0.6247 -1.0685
  411SOL    HW2 1233   1.077   3.811   2.569 -0.0798  1.1527  1.1942
  412SOL     OW 1234   3.248   0.857   1.474  0.2304  0.0785 -0.1592
  412SOL    HW1 1235   3.172   0.875   1.539  0.7411  0.0880 -1.3205
  412SOL    HW2 1236   3.211   0.902   1.391 -0.1776 -0.8464  1.0537
  413SOL     OW 1237   3.428   0.226   2.268  0.0554 -0.0903  0.0775
  413SOL    HW1 1238   3.529   0.212   2.276  0.3043  0.7324  0.7478
  413SOL    HW2 1239   3.397   0.257   2.361  0.3526 -0.1261  1.1143
  414SOL     OW 1240   3.184   2.579   3.143  0.1882  0.0103  0.1021
  414SOL    HW1 1241   3.085   2.577   3.172 -0.2215  0.4876  0.1148
  414SOL    HW2 1242   3.221   2.669   3.108  0.2187  1.6819 -0.5356
  415SOL     OW 1243   0.960   0.100   2.662 -0.2942 -0.0117 -0.0423
  415SOL    HW1 1244   1.029   0.173   2.677 -0.4878 -1.1169 -0.4673
  415SOL    HW2 1245   0.870   0.146   2.660  1.3120  0.0848 -0.4038
  416SOL     OW 1246   0.490   3.730   2.872  0.1134  0.2297 -0.1693
  416SOL    HW1 1247   0.518   3.828   2.885  0.4971  0.8891 -1.3428
  416SOL    HW2 1248   0.498   3.716   2.771  1.0389  0.6612 -1.3416
  417SOL     OW 1249   1.533   1.891   2.310 -0.0059 -0.2753 -0.2021
  417SOL    HW1 1250   1.562   1.988   2.307  1.9753  3.8916 -0.8525
  417SOL    HW2 1251   1.471   1.880   2.389 -3.3859 -1.1589  3.6097
  418SOL     OW 1252   3.611   0.567   0.544 -0.0369  0.3196  0.1145
  418SOL    HW1 1253   3.549   0.554   0.625  0.5176 -0.3364  0.1463
  418SOL    HW2 1254   3.579   0.638   0.479  0.6635  0.4365  0.8673
  419SOL     OW 1255   1.701   2.456   2.579 -0.4035  0.1912 -0.0727
  419SOL    HW1 1256   1.796   2.487   2.558  3.9684  1.2030 -0.0374
  419SOL    HW2 1257   1.692   2.385   2.654  0.7063 -1.4152  2.3898
  420SOL     OW 1258   0.428   0.821   1.736  0.0036 -0.0134 -0.0043
  420SOL    HW1 1259   0.511   0.767   1.712  0.9196 -1.3819  1.0253
  420SOL    HW2 1260   0.386   0.774   1.817 -0.2814 -1.7947  1.8750
  421SOL     OW 1261   2.295   0.513   1.895  0.1346 -0.1831  0.0427
  421SOL    HW1 1262   2.322   0.484   1.990 -0.6479  0.2363 -2.2415
  421SOL    HW2 1263   2.334   0.448   1.825 -0.1532 -0.2010  1.7672
  422SOL     OW 1264   2.611   3.636   2.094 -0.0497 -0.1558 -0.1362
  422SOL    HW1 1265   2.695   3.691   2.074 -2.1099 -1.5919 -0.7552
  422SOL    HW2 1266   2.571   3.624   2.001  2.0261  0.8669  0.9159
  423SOL     OW 1267   2.110   0.087   0.700 -0.2487 -0.0539  0.0381
  423SOL    HW1 1268   2.165   0.005   0.670  0.6074  0.1111 -0.1314
  423SOL    HW2 1269   2.173   0.167   0.718  0.2727 -0.3176 -0.4209
  424SOL     OW 1270   0.077   3.427   2.417  0.0388  0.0475  0.2772
  424SOL    HW1 1271  -0.010   3.477   2.397  0.1773 -0.7303 -1.8364
  424SOL    HW2 1272   0.146   3.427   2.342 -1.6300 -0.0979 -0.7566
  425SOL     OW 1273   2.601   0.136   0.380 -0.3023 -0.2311  0.4363
  425SOL    HW1 1274   2.581   0.043   0.340 -0.3154 -3.2771 -2.0012
  425SOL    HW2 1275   2.701   0.153   0.367  4.5571 -0.5199 -1.4088
  426SOL     OW 1276   3.333   1.002   2.886  0.1253  0.0261  0.0840
  426SOL    HW1 1277   3.425   1.000   2.844 -1.9897 -2.0533  1.0363
  426SOL    HW2 1278   3.281   0.928   2.842  1.6625  1.4624  0.4967
  427SOL     OW 1279   0.479   0.524   2.558  0.0108  0.0223  0.0564
  427SOL    HW1 1280   0.528   0.572   2.482 -1.2864  1.4200 -0.0270
  427SOL    HW2 1281   0.413   0.449   2.530 -1.2148  1.1818 -1.3676
  428SOL     OW 1282   0.115   2.305   2.737  0.0671 -0.0185 -0.0342
  428SOL    HW1 1283   0.098   2.230   2.801 -0.2206  0.2768 -0.4458
  428SOL    HW2 1284   0.141   2.386   2.792  0.3516 -0.6899 -0.0672
  429SOL     OW 1285   0.132   3.778   1.326 -0.0655  0.1509  0.1651
  429SOL    HW1 1286   0.040   3.735   1.335 -1.2100 -0.5900  0.9296
  429SOL    HW2 1287   0.208   3.714   1.350  1.0139 -0.6382  0.9120
  430SOL     OW 1288   3.023   2.711   0.591  0.4772 -0.8153  1.0196
  430SOL    HW1 1289   3.013   2.636   0.643  1.4675 12.3286 -9.2425
  430SOL    HW2 1290   3.100   2.736   0.634-13.7127 -3.9473 -7.5551
  431SOL     OW 1291   3.270   2.817   0.686 -1.3951 -0.0102  0.4597
  431SOL    HW1 1292   3.296   2.862   0.601  5.3624  7.3314-14.6372
  431SOL    HW2 1293   3.342   2.772   0.737  9.7320 -5.6424  6.8433
  432SOL     OW 1294   2.148   0.688   1.763  0.0956 -0.0641 -0.0283
  432SOL    HW1 1295   2.218   0.628   1.809  0.8498 -0.9001  0.9860
  432SOL    HW2 1296   2.071   0.713   1.825 -1.8951  0.7746  1.8921
  433SOL     OW 1297   1.468   0.233   0.620 -0.1951 -0.1322 -0.1539
  433SOL    HW1 1298   1.386   0.256   0.562  2.3210 -1.0756  2.2839
  433SOL    HW2 1299   1.543   0.220   0.549 -1.3549  0.1504  1.0029
  434SOL     OW 1300   2.018   3.592   2.272  0.1684 -0.1154  0.3137
  434SOL    HW1 1301   2.031   3.683   2.229  1.3154  0.0084 -0.3911
  434SOL    HW2 1302   2.115   3.562   2.277  0.8612  1.9328 -0.1753
  435SOL     OW 1303   3.567   1.297   3.083 -0.1227 -0.1439  0.0157
  435SOL    HW1 1304   3.593   1.198   3.078  0.2505 -5.0351  0.0020
  435SOL    HW2 1305   3.658   1.339   3.085  3.1785  1.8446  0.2438
  436SOL     OW 1306   3.330   2.942   0.459 -0.1314  0.0934 -0.4252
  436SOL    HW1 1307   3.295   3.018   0.400  3.4626 -7.5213  5.2574
  436SOL    HW2 1308   3.310   2.857   0.407  2.2151  5.6550  4.0658
  437SOL     OW 1309   2.474   1.351   0.026  0.2307 -0.2781 -0.0620
  437SOL    HW1 1310   2.573   1.384   0.027 -3.4170 -2.3278  0.4828
  437SOL    HW2 1311   2.462   1.257   0.070  1.2573  4.2744 -1.1632
  438SOL     OW 1312   1.645   1.523   2.357  0.0104  0.0090 -0.0435
  438SOL    HW1 1313   1.686   1.472   2.277  0.2452 -2.3871 -4.9108
  438SOL    HW2 1314   1.703   1.594   2.402  2.7439  5.0006  3.4262
  439SOL     OW 1315   2.511   0.648   3.363 -0.1700 -0.0866 -0.0128
  439SOL    HW1 1316   2.607   0.614   3.344  0.7507 -0.4871 -0.0432
  439SOL    HW2 1317   2.479   0.593   3.444 -0.2844 -0.4550  0.5113
  440SOL     OW 1318   3.143   0.176   3.346 -0.1500 -0.1291 -0.1789
  440SOL    HW1 1319   3.201   0.258   3.361  0.3363  0.2207  0.1203
  440SOL    HW2 1320   3.169   0.125   3.264 -0.1118 -0.1163 -0.7890
  441SOL     OW 1321   2.329   0.149   1.947 -0.2325 -0.1447 -0.0067
  441SOL    HW1 1322   2.374   0.110   2.030 -0.8485 -0.0825  2.0201
  441SOL    HW2 1323   2.378   0.123   1.861 -0.7841  1.1698 -2.2595
  442SOL     OW 1324   1.371   0.611   1.808 -0.3081  0.4182  0.0803
  442SOL    HW1 1325   1.342   0.611   1.707  1.8763  0.4934  5.9815
  442SOL    HW2 1326   1.338   0.689   1.867  2.8844 -6.1998 -5.8957
  443SOL     OW 1327   2.942   0.242   2.958  0.1100 -0.0227 -0.3289
  443SOL    HW1 1328   2.900   0.323   2.912 -0.2789 -1.2343  0.0972
  443SOL    HW2 1329   2.869   0.172   2.972 -0.3488  1.4489 -0.7364
  444SOL     OW 1330   2.811   0.069   2.393  0.1096  0.0498 -0.1511
  444SOL    HW1 1331   2.817  -0.013   2.456 -0.9973  0.6071 -0.0091
  444SOL    HW2 1332   2.884   0.140   2.405 -1.4165 -0.8719 -0.4715
  445SOL     OW 1333   0.876   0.313   0.379 -0.3902  0.2333 -0.2381
  445SOL    HW1 1334   0.804   0.296   0.450  1.0358  0.1047 -1.8747
  445SOL    HW2 1335   0.827   0.337   0.294  1.1446 -0.3853  2.0580
  446SOL     OW 1336   1.552   0.399   1.665 -0.2335  0.3683 -0.4617
  446SOL    HW1 1337   1.560   0.320   1.736  0.3119 -4.6189  5.2190
  446SOL    HW2 1338   1.524   0.482   1.716 -1.2817  3.1219  2.4439
  447SOL     OW 1339   1.184   0.342   0.750  0.1478 -0.4045  0.0460
  447SOL    HW1 1340   1.215   0.316   0.658  2.6638 -2.4265 -6.5032
  447SOL    HW2 1341   1.089   0.375   0.769 -7.3015  2.3619  2.4533
  448SOL     OW 1342   2.355   0.126   0.489 -0.0316  0.0812 -0.0262
  448SOL    HW1 1343   2.281   0.179   0.438  0.3904 -1.0872  0.7434
  448SOL    HW2 1344   2.443   0.129   0.436 -1.1782 -0.5220  1.2349
  449SOL     OW 1345   2.571   3.744   2.338 -0.2094 -0.2630  0.0496
  449SOL    HW1 1346   2.650   3.805   2.358  0.1029  0.7014  0.3072
  449SOL    HW2 1347   2.588   3.701   2.247  0.0947 -0.9106 -0.7072
  450SOL     OW 1348   0.065   2.730   2.984  0.1869 -0.3886 -0.0973
  450SOL    HW1 1349  -0.022   2.773   2.955 -2.5115  1.5815  0.6397
  450SOL    HW2 1350   0.093   2.772   3.070 -0.5078  1.5556  1.5728
  451SOL     OW 1351   3.400   2.327   2.716 -0.0507 -0.3609 -0.0259
  451SOL    HW1 1352   3.495   2.366   2.708 -0.4294 -0.0201 -0.2269
  451SOL    HW2 1353   3.340   2.353   2.637  0.0818 -0.1205 -0.4415
  452SOL     OW 1354   3.088   3.403   0.110  0.0570 -0.1170  0.0546
  452SOL    HW1 1355   3.026   3.471   0.158  2.5264 -2.4499 -1.7072
  452SOL    HW2 1356   3.175   3.407   0.163 -4.3886  0.0509 -2.8155
  453SOL     OW 1357   2.773   0.966   2.053 -0.1468 -0.1868  0.2025
  453SOL    HW1 1358   2.730   1.057   2.066  0.1448 -0.2893  0.2742
  453SOL    HW2 1359   2.786   0.939   1.955  0.1475 -0.6589 -0.4174
  454SOL     OW 1360   3.342   3.552   1.277  0.1513  0.0542 -0.1019
  454SOL    HW1 1361   3.366   3.495   1.195 -0.2363  1.9368 -0.2482
  454SOL    HW2 1362   3.270   3.528   1.346  0.1939  1.6978 -0.3147
  455SOL     OW 1363   1.623   0.848   0.716 -0.4546 -0.1356  0.0222
  455SOL    HW1 1364   1.706   0.805   0.754  1.0924  0.5388 -0.0732
  455SOL    HW2 1365   1.643   0.947   0.715  0.4215  0.9395  0.1018
  456SOL     OW 1366   0.666   0.287   0.550 -0.2013 -0.0747  0.0154
  456SOL    HW1 1367   0.595   0.279   0.475 -1.5398 -0.2217 -1.7257
  456SOL    HW2 1368   0.658   0.229   0.636 -0.1524 -1.4295  1.3668
  457SOL     OW 1369   0.245   3.784   0.304 -0.2595  0.0211  0.0160
  457SOL    HW1 1370   0.211   3.688   0.293  0.6376  0.3818 -0.1363
  457SOL    HW2 1371   0.328   3.801   0.246 -0.9248 -1.1187  0.8622
  458SOL     OW 1372   0.465   0.275   0.349  0.1000 -0.0365  0.0687
  458SOL    HW1 1373   0.406   0.247   0.428 -0.0925 -0.7090  0.4971
  458SOL    HW2 1374   0.424   0.346   0.289  0.7882  0.3340 -1.5398
  459SOL     OW 1375   1.767   1.214   2.360 -0.4845 -0.1529  0.7292
  459SOL    HW1 1376   1.798   1.131   2.308  1.6285 -4.8987 -4.4041
  459SOL    HW2 1377   1.794   1.292   2.300  1.5163  4.6505 -4.5165
  460SOL     OW 1378   2.611   0.310   3.530  0.3408 -0.0621  0.0095
  460SOL    HW1 1379   2.549   0.388   3.528  0.7283 -0.8276  1.0614
  460SOL    HW2 1380   2.618   0.288   3.628  0.0348  0.4324 -0.8946
  461SOL     OW 1381   1.645   2.495   2.288 -0.2432  0.4862  0.3021
  461SOL    HW1 1382   1.637   2.575   2.226  0.3303 -4.9089  4.0959
  461SOL    HW2 1383   1.657   2.527   2.383 -0.5455 -2.1503 -4.8429
  462SOL     OW 1384   2.619   2.855   1.988 -0.0134 -0.0535  0.0187
  462SOL    HW1 1385   2.662   2.767   1.961  0.0335 -1.7001 -0.1821
  462SOL    HW2 1386   2.530   2.831   2.029 -0.9928 -0.4348  0.6897
  463SOL     OW 1387   3.336   2.026   3.045  0.2461 -0.0854  0.0651
  463SOL    HW1 1388   3.370   2.041   2.949 -1.0967 -0.4061 -0.0740
  463SOL    HW2 1389   3.237   1.996   3.047  0.4784 -0.2058 -1.4461
  464SOL     OW 1390   2.295   0.975   3.252  0.0312  0.0511 -0.1852
  464SOL    HW1 1391   2.336   0.946   3.342 -0.1506  0.9870  1.7348
  464SOL    HW2 1392   2.323   1.074   3.234 -0.8028  2.5129  0.8393
  465SOL     OW 1393   1.905   1.189   2.020  0.2806 -0.4018 -0.0329
  465SOL    HW1 1394   1.865   1.279   2.051  0.7734  3.6151  1.5309
  465SOL    HW2 1395   2.006   1.201   2.042  3.5499  1.6092  1.1048
  466SOL     OW 1396   0.811   1.525   2.759 -0.1237  0.0307 -0.0593
  466SOL    HW1 1397   0.889   1.497   2.820  0.6689 -0.7767  0.9009
  466SOL    HW2 1398   0.741   1.449   2.761  0.9634 -0.6989  0.5334
  467SOL     OW 1399   3.722   3.179   3.267  0.0384  0.1149 -0.3213
  467SOL    HW1 1400   3.710   3.162   3.167 -1.3588 -0.1305 -0.1080
  467SOL    HW2 1401   3.809   3.135   3.301  0.2473  0.3510  0.9473
  468SOL     OW 1402   2.706   0.612   1.447  0.3897  0.2235 -0.1592
  468SOL    HW1 1403   2.786   0.647   1.394  1.2251  0.8040  0.9967
  468SOL    HW2 1404   2.635   0.565   1.390 -1.1351 -0.0798  1.0889
  469SOL     OW 1405   0.653   0.562   1.954  0.0418 -0.0094 -0.0570
  469SOL    HW1 1406   0.749   0.597   1.973  0.5120  0.8565 -0.0933
  469SOL    HW2 1407   0.589   0.616   2.014  0.5311  0.4886 -0.4158
  470SOL     OW 1408   1.187   3.752   3.375  0.1342 -0.0507  0.2716
  470SOL    HW1 1409   1.211   3.792   3.283  0.5654  0.5257  0.2126
  470SOL    HW2 1410   1.233   3.812   3.445 -0.9758 -0.3289 -0.2545
  471SOL     OW 1411   2.300   2.074   2.365  0.3099  0.1301 -0.0391
  471SOL    HW1 1412   2.397   2.076   2.400 -0.6686  0.5826  0.0688
  471SOL    HW2 1413   2.259   2.167   2.375  1.2477 -1.2597  0.1493
  472SOL     OW 1414   3.080   1.936   3.053 -0.0392  0.2028  0.0657
  472SOL    HW1 1415   2.995   1.919   3.107 -0.1469  0.2905 -0.1519
  472SOL    HW2 1416   3.045   1.992   2.974  0.2698  0.3910 -0.5125
  473SOL     OW 1417   2.862   0.682   3.575 -0.3716 -0.1093  0.0440
  473SOL    HW1 1418   2.864   0.578   3.568  1.2251  2.9532 -0.0712
  473SOL    HW2 1419   2.768   0.726   3.570  3.3027 -0.4113 -0.4622
  474SOL     OW 1420   0.321   3.656   1.941 -0.0512  0.2047  0.0781
  474SOL    HW1 1421   0.243   3.721   1.951 -0.2867 -1.1030  0.1226
  474SOL    HW2 1422   0.267   3.570   1.948 -1.0165  1.5535  0.4724
  475SOL     OW 1423   3.611   2.859   3.320 -0.1581  0.0665 -0.0528
  475SOL    HW1 1424   3.583   2.929   3.252  0.3602 -0.8841 -0.8965
  475SOL    HW2 1425   3.587   2.768   3.279 -0.5210  1.1150 -1.1020
  476SOL     OW 1426   0.136   0.876   3.052  0.2595  0.3209 -0.1853
  476SOL    HW1 1427   0.060   0.862   2.986  0.4779  0.7476  1.4141
  476SOL    HW2 1428   0.099   0.852   3.145 -0.4135  0.7545 -1.9979
  477SOL     OW 1429   0.598   0.139   1.739  0.0257  0.1468  0.1374
  477SOL    HW1 1430   0.680   0.129   1.680 -0.3968  0.3958 -1.0195
  477SOL    HW2 1431   0.551   0.048   1.730  0.3532 -0.1352 -0.4219
  478SOL     OW 1432   0.898   3.788   1.983  0.2431  0.1110 -0.0923
  478SOL    HW1 1433   0.822   3.817   2.044  1.1093  0.2982 -1.7261
  478SOL    HW2 1434   0.936   3.877   1.949  1.0078 -0.7977  0.0737
  479SOL     OW 1435   2.238   2.336   2.432 -0.3021  0.1331  0.0277
  479SOL    HW1 1436   2.306   2.376   2.497 -1.2591 -0.5510  0.0581
  479SOL    HW2 1437   2.199   2.408   2.371 -0.3075  0.2317 -0.0046
  480SOL     OW 1438   2.553   2.607   2.336 -0.1477 -0.1293 -0.0138
  480SOL    HW1 1439   2.530   2.682   2.403  1.6598  1.9118  1.1637
  480SOL    HW2 1440   2.489   2.575   2.262  0.1966 -1.6356 -2.4045
  481SOL     OW 1441   3.322   0.318   2.037  0.2860  0.0148 -0.0113
  481SOL    HW1 1442   3.246   0.382   2.062  0.3733  0.0031  0.6352
  481SOL    HW2 1443   3.360   0.273   2.122 -0.3363  0.3399  0.8405
  482SOL     OW 1444   0.981   3.026   2.618  0.0636  0.4264  0.3024
  482SOL    HW1 1445   1.047   3.034   2.696 -1.5617 -0.8363 -3.8171
  482SOL    HW2 1446   0.913   3.104   2.618  2.2487 -3.7358 -2.5166
  483SOL     OW 1447   0.711   0.362   3.183 -0.0378  0.2493  0.0332
  483SOL    HW1 1448   0.747   0.398   3.273 -0.1815 -2.5267 -1.5414
  483SOL    HW2 1449   0.648   0.425   3.131  0.7530 -2.4247  1.1555
  484SOL     OW 1450   0.697   3.126   2.830  0.1574  0.2459  0.1240
  484SOL    HW1 1451   0.613   3.163   2.875  0.6710  0.8161  0.5214
  484SOL    HW2 1452   0.720   3.149   2.733  0.8485  0.4146 -0.3267
  485SOL     OW 1453   2.202   0.954   1.775 -0.1869  0.0375 -0.1260
  485SOL    HW1 1454   2.183   0.854   1.754 -0.0127  0.9629  0.0443
  485SOL    HW2 1455   2.280   0.962   1.844 -1.3969  0.1845 -1.3900
  486SOL     OW 1456   1.773   1.003   2.708 -0.0216  0.3112  0.1785
  486SOL    HW1 1457   1.754   1.102   2.711 -0.3915  2.5981 -0.6836
  486SOL    HW2 1458   1.768   0.968   2.613 -0.0123 -0.0353 -2.4236
  487SOL     OW 1459   3.741   3.592   0.797 -0.2477  0.2827 -0.1098
  487SOL    HW1 1460   3.739   3.506   0.854  0.4489 -0.2435 -0.5604
  487SOL    HW2 1461   3.768   3.554   0.707 -0.0431 -0.4724  0.7463
  488SOL     OW 1462   1.933   1.973   2.516  0.1877  0.1329 -0.1513
  488SOL    HW1 1463   1.989   1.918   2.448 -1.0219  0.7096  1.8668
  488SOL    HW2 1464   1.961   2.074   2.509 -0.9543 -2.2829  0.3792
  489SOL     OW 1465   2.211   3.313   1.590  0.2599 -0.0710  0.0520
  489SOL    HW1 1466   2.156   3.350   1.668 -0.3577 -0.0730  0.0556
  489SOL    HW2 1467   2.301   3.296   1.637  0.8017 -0.9180 -0.0599
  490SOL     OW 1468   2.614   3.391   0.547 -0.0974 -0.2129 -0.0524
  490SOL    HW1 1469   2.623   3.334   0.631 -0.7526 -0.1515 -0.6269
  490SOL    HW2 1470   2.517   3.411   0.521  0.5995 -1.0762  1.0213
  491SOL     OW 1471   0.162   2.715   2.513  0.0656  0.0530  0.5106
  491SOL    HW1 1472   0.179   2.614   2.513  1.2678  4.4051 -0.3608
  491SOL    HW2 1473   0.260   2.744   2.499 -3.7929 -2.5845  0.7021
  492SOL     OW 1474   2.498   1.763   2.244  0.4015 -0.1116  0.1292
  492SOL    HW1 1475   2.443   1.680   2.218 -2.3663 -2.8177 -1.5085
  492SOL    HW2 1476   2.452   1.843   2.202 -2.2067  2.7432 -2.0375
  493SOL     OW 1477   3.754   0.135   3.330  0.4044  0.0844  0.2043
  493SOL    HW1 1478   3.806   0.077   3.399  0.4346 -0.5936 -0.6629
  493SOL    HW2 1479   3.783   0.109   3.235  0.4106 -0.4189  0.5032
  494SOL     OW 1480   1.257   2.159   2.469  0.1375 -0.0286 -0.1036
  494SOL    HW1 1481   1.325   2.198   2.408  2.5583  0.1240 -1.8329
  494SOL    HW2 1482   1.187   2.222   2.504 -2.8635  1.7077  1.8429
  495SOL     OW 1483   0.314   0.700   2.695  0.3829  0.4855  0.3696
  495SOL    HW1 1484   0.357   0.628   2.636  1.2533 -1.2816 -2.4119
  495SOL    HW2 1485   0.212   0.684   2.687 -2.1580 -0.5779 -0.4834
  496SOL     OW 1486   0.848   2.868   2.245  0.5108 -0.1271 -0.1743
  496SOL    HW1 1487   0.819   2.865   2.148  0.1683  0.3983 -0.5493
  496SOL    HW2 1488   0.898   2.783   2.271  0.2703  0.0552  0.2948
  497SOL     OW 1489   2.238   0.777   2.784 -0.3308  0.0269  0.3930
  497SOL    HW1 1490   2.225   0.844   2.859 -0.2976 -0.2304 -0.0288
  497SOL    HW2 1491   2.192   0.829   2.709 -0.0173 -0.3317  0.1593
  498SOL     OW 1492   2.454   0.302   0.223 -0.0174  0.1585  0.0263
  498SOL    HW1 1493   2.503   0.230   0.277 -1.1676  0.1827 -0.9918
  498SOL    HW2 1494   2.458   0.395   0.269 -0.2670 -1.2503 -0.8232
  499SOL     OW 1495   2.227   2.033   3.296  0.4443  0.0792 -0.0923
  499SOL    HW1 1496   2.162   2.048   3.218 -2.6934  0.2016 -1.2420
  499SOL    HW2 1497   2.171   2.020   3.380 -2.0030  0.2711  1.1036
  500SOL     OW 1498   0.214   0.559   3.556  0.3712  0.0957  0.1034
  500SOL    HW1 1499   0.165   0.488   3.500  1.7823  1.4374  0.1265
  500SOL    HW2 1500   0.306   0.587   3.518 -1.2677 -0.7964  0.4133
  501SOL     OW 1501   3.501   1.140   0.366  0.0647  0.2594  0.0148
  501SOL    HW1 1502   3.595   1.101   0.390  3.5398 -0.5053 -0.3307
  501SOL    HW2 1503   3.449   1.171   0.449 -1.4188  1.9092  1.9564
  502SOL     OW 1504   2.692   3.000   2.205  0.0216 -0.1909  0.0539
  502SOL    HW1 1505   2.767   2.953   2.258 -0.9587 -0.0748  0.0320
  502SOL    HW2 1506   2.667   2.942   2.124 -0.5320  0.9211  0.7698
  503SOL     OW 1507   3.127   0.527   2.787 -0.6558  0.1931 -0.1103
  503SOL    HW1 1508   3.108   0.508   2.687  2.3092  1.7378  5.5973
  503SOL    HW2 1509   3.034   0.518   2.832  6.0636  0.8436 -1.1436
  504SOL     OW 1510   1.490   0.936   1.287  0.3136 -0.1511  0.4918
  504SOL    HW1 1511   1.490   1.027   1.249 -0.7373  5.4189 -1.8728
  504SOL    HW2 1512   1.423   0.884   1.237 -4.6879 -3.0609 -3.5748
  505SOL     OW 1513   1.354   0.385   1.472  0.4854  0.0745 -0.2927
  505SOL    HW1 1514   1.433   0.380   1.538 -3.9271  0.2530 -2.2762
  505SOL    HW2 1515   1.386   0.368   1.374 -2.0728  1.3772  5.5099
  506SOL     OW 1516   3.730   0.819   1.356  0.0950  0.0757 -0.0151
  506SOL    HW1 1517   3.759   0.730   1.314  1.0547  0.7027 -0.4388
  506SOL    HW2 1518   3.792   0.897   1.334  0.6389  0.0948  0.0765
  507SOL     OW 1519   2.110   0.027   2.148  0.2039 -0.1270  0.1881
  507SOL    HW1 1520   2.204   0.041   2.189 -0.2787 -0.6255 -0.3765
  507SOL    HW2 1521   2.123   0.006   2.048  0.2684  0.5864  0.3757
  508SOL     OW 1522   2.563   3.115   1.889  0.1468  0.0586 -0.0252
  508SOL    HW1 1523   2.594   3.024   1.926 -0.1326  1.9078  1.8094
  508SOL    HW2 1524   2.576   3.173   1.973  0.3086 -2.5584 -0.0073
  509SOL     OW 1525   0.234   3.521   1.166  0.2636 -0.2919  0.1541
  509SOL    HW1 1526   0.142   3.478   1.180 -0.4652  0.0864 -0.3284
  509SOL    HW2 1527   0.232   3.599   1.100  0.4673  0.2382  0.1304
  510SOL     OW 1528   0.473   0.040   0.165 -0.2231 -0.0897  0.1197
  510SOL    HW1 1529   0.538  -0.039   0.159 -1.1212 -0.1262 -0.1388
  510SOL    HW2 1530   0.512   0.115   0.222 -0.4651  0.1567 -0.4398
  511SOL     OW 1531   0.226   0.197   3.659  0.0026  0.1856  0.2537
  511SOL    HW1 1532   0.280   0.156   3.734  0.3895  1.1200 -0.0712
  511SOL    HW2 1533   0.284   0.247   3.591  0.2959  0.1629  0.1566
  512SOL     OW 1534   0.046   0.754   0.555  0.1304  0.0654  0.1079
  512SOL    HW1 1535   0.083   0.759   0.650  0.5810 -0.6016  1.7672
  512SOL    HW2 1536  -0.033   0.690   0.554 -0.6771 -0.3858  0.7586
  513SOL     OW 1537   2.679   2.378   2.415  0.2261  0.3444 -0.0514
  513SOL    HW1 1538   2.621   2.459   2.384  1.8956 -2.7141  1.2027
  513SOL    HW2 1539   2.777   2.384   2.388 -4.1297 -0.5355  1.8221
  514SOL     OW 1540   2.893   2.155   3.389  0.1249  0.2802  0.3176
  514SOL    HW1 1541   2.990   2.189   3.387 -3.7378 -0.1731 -0.5758
  514SOL    HW2 1542   2.864   2.108   3.476  0.6736  1.3431 -2.6703
  515SOL     OW 1543   1.788   2.761   2.422 -0.1018  0.1333  0.0816
  515SOL    HW1 1544   1.699   2.783   2.471 -0.7117  0.3022  1.1062
  515SOL    HW2 1545   1.843   2.693   2.480  0.3312 -0.7133  0.2989
  516SOL     OW 1546   2.046   2.210   2.155 -0.1452 -0.0569 -0.1854
  516SOL    HW1 1547   1.967   2.243   2.212  1.8815 -1.4258 -2.4074
  516SOL    HW2 1548   2.102   2.287   2.114 -1.8438 -2.1073  0.0421
  517SOL     OW 1549   3.363   0.211   1.202 -0.1076  0.3374  0.1512
  517SOL    HW1 1550   3.414   0.286   1.151 -0.5498 -0.5196 -0.3323
  517SOL    HW2 1551   3.279   0.243   1.252  1.3900 -0.0442 -1.0776
  518SOL     OW 1552   0.926   0.470   2.649  0.0349  0.0762  0.2684
  518SOL    HW1 1553   0.829   0.465   2.682 -1.7615  0.5045 -0.7081
  518SOL    HW2 1554   0.913   0.483   2.548 -1.5556 -0.6173 -1.4938
  519SOL     OW 1555   1.191   0.584   2.289  0.1202  0.0298  0.1889
  519SOL    HW1 1556   1.164   0.658   2.354  0.2915  0.5219  0.1216
  519SOL    HW2 1557   1.247   0.509   2.332 -0.4095 -0.5282 -0.6984
  520SOL     OW 1558   2.114   2.088   3.052 -0.0303  0.2916 -0.0229
  520SOL    HW1 1559   2.167   2.048   2.975 -1.4504  0.3329  2.5148
  520SOL    HW2 1560   2.123   2.191   3.061 -0.8287 -2.7875  0.9158
  521SOL     OW 1561   3.103   3.484   2.885  0.0371 -0.3522 -0.0205
  521SOL    HW1 1562   3.177   3.537   2.933  3.0467  3.1289  2.0332
  521SOL    HW2 1563   3.030   3.554   2.868 -4.9533  4.0067 -0.8972
  522SOL     OW 1564   0.041   0.340   0.825  0.3007 -0.0474  0.0843
  522SOL    HW1 1565  -0.057   0.319   0.818  0.0070  0.3287  0.1765
  522SOL    HW2 1566   0.087   0.249   0.822  1.2230 -1.1136 -0.3837
  523SOL     OW 1567   3.113   0.534   1.455 -0.1365 -0.0857 -0.0796
  523SOL    HW1 1568   3.153   0.557   1.546  0.4436  0.0455 -0.7857
  523SOL    HW2 1569   3.041   0.601   1.427 -0.2798 -0.3514  0.6283
  524SOL     OW 1570   0.446   2.816   2.790  0.0133 -0.1536  0.0169
  524SOL    HW1 1571   0.392   2.854   2.869 -1.4149  1.1828  2.0331
  524SOL    HW2 1572   0.544   2.801   2.819  2.9167 -1.0627  0.5290
  525SOL     OW 1573   2.729   3.440   2.257  0.0393  0.0852  0.0112
  525SOL    HW1 1574   2.657   3.488   2.202 -1.6932 -1.0837  0.5858
  525SOL    HW2 1575   2.828   3.466   2.249  1.4989 -1.1577  1.4103
  526SOL     OW 1576   2.702   0.970   3.335  0.0830  0.3047 -0.2406
  526SOL    HW1 1577   2.784   1.024   3.361 -1.3595 -0.7210  0.4837
  526SOL    HW2 1578   2.690   0.956   3.232 -1.2474 -0.7976 -0.0934
  527SOL     OW 1579   1.578   0.465   0.713  0.0372 -0.0584  0.2232
  527SOL    HW1 1580   1.537   0.378   0.676 -1.2975 -1.9095 -1.0984
  527SOL    HW2 1581   1.601   0.533   0.638  0.4919  1.9722 -2.3509
  528SOL     OW 1582   2.619   2.087   2.067 -0.1204  0.6775 -0.1220
  528SOL    HW1 1583   2.684   2.076   2.147  2.1555 -1.6005  1.0082
  528SOL    HW2 1584   2.666   2.030   1.997  1.8008 -0.5956 -0.4257
  529SOL     OW 1585   0.613   3.588   0.142  0.1202  0.1758  0.1130
  529SOL    HW1 1586   0.624   3.587   0.041  2.6288 -0.3365  0.7584
  529SOL    HW2 1587   0.702   3.553   0.174  0.3223  0.7915 -1.4613
  530SOL     OW 1588   3.697   3.358   2.131  0.0428 -0.0754  0.4406
  530SOL    HW1 1589   3.712   3.261   2.162  0.4271 -0.1641 -1.0184
  530SOL    HW2 1590   3.681   3.420   2.211 -0.3802  0.4253 -0.2995
  531SOL     OW 1591   1.297   3.770   1.943  0.1160  0.1695 -0.0647
  531SOL    HW1 1592   1.216   3.767   1.884  3.0925  0.5922  2.4652
  531SOL    HW2 1593   1.331   3.861   1.970 -1.5045 -2.8702 -0.2933
  532SOL     OW 1594   2.059   0.309   0.974 -0.0837  0.0966 -0.1156
  532SOL    HW1 1595   2.145   0.259   0.995  1.4385 -0.1983  0.2871
  532SOL    HW2 1596   1.990   0.250   0.930 -1.8874  0.1316 -0.6202
  533SOL     OW 1597   1.520   3.465   2.613 -0.2680  0.0708  0.1081
  533SOL    HW1 1598   1.424   3.453   2.579 -3.1026  1.1193 -0.4427
  533SOL    HW2 1599   1.600   3.423   2.563  1.9636 -0.2826  0.2077
  534SOL     OW 1600   2.979   0.905   3.124  0.0339 -0.3938  0.0084
  534SOL    HW1 1601   2.938   0.916   3.032 -0.4541 -0.3663 -2.9393
  534SOL    HW2 1602   3.014   0.992   3.170  1.4289  2.6148  2.2237
  535SOL     OW 1603   3.779   2.904   3.522 -0.3353  0.3101 -0.2806
  535SOL    HW1 1604   3.807   3.002   3.533  0.3816  0.1471 -0.8606
  535SOL    HW2 1605   3.706   2.886   3.451  0.4468 -0.2635  0.0522
  536SOL     OW 1606   3.334   0.815   3.140  0.2088  0.0938 -0.0249
  536SOL    HW1 1607   3.245   0.778   3.172 -3.6730 -0.0229  0.2841
  536SOL    HW2 1608   3.310   0.905   3.099 -2.4456  2.0338 -1.2095
  537SOL     OW 1609   1.587   1.534   2.001 -0.2079  0.3466  0.0054
  537SOL    HW1 1610   1.520   1.577   2.066 -0.4207  0.4813  0.1579
  537SOL    HW2 1611   1.553   1.438   1.980 -0.0492 -1.1843 -0.7331
  538SOL     OW 1612   0.531   0.866   2.719  0.2019  0.2610  0.2433
  538SOL    HW1 1613   0.436   0.831   2.713  2.1910  0.8603 -1.8832
  538SOL    HW2 1614   0.611   0.823   2.675 -3.2461  0.9280 -0.8754
  539SOL     OW 1615   2.396   1.246   3.566 -0.3796  0.2182  0.0863
  539SOL    HW1 1616   2.406   1.267   3.665  0.2163  0.2143  3.7321
  539SOL    HW2 1617   2.441   1.314   3.504  0.5643  2.6069 -3.7014
  540SOL     OW 1618   2.374   1.550   3.669  0.0488  0.1268 -0.0468
  540SOL    HW1 1619   2.422   1.521   3.586  0.9455 -1.4482 -1.7129
  540SOL    HW2 1620   2.390   1.480   3.739 -0.5659 -0.8698  1.5068
  541SOL     OW 1621   2.839   3.445   1.938 -0.0360 -0.0927 -0.0982
  541SOL    HW1 1622   2.810   3.354   1.973  0.4152  0.0037  1.0021
  541SOL    HW2 1623   2.897   3.488   2.011  0.2441 -0.6731  0.9507
  542SOL     OW 1624   1.452   1.648   2.217 -0.0451 -0.2087  0.7021
  542SOL    HW1 1625   1.516   1.590   2.273 -2.4662  2.2139 -1.8262
  542SOL    HW2 1626   1.471   1.749   2.235 -0.2000 -2.6454 -0.6126
  543SOL     OW 1627   0.042   2.112   2.921 -0.0251 -0.1650  0.2804
  543SOL    HW1 1628   0.007   2.018   2.942  1.2138  0.7172  0.0745
  543SOL    HW2 1629  -0.028   2.187   2.942  1.1508  0.1610 -0.3197
  544SOL     OW 1630   3.628   0.375   2.477 -0.0238  0.0415 -0.0040
  544SOL    HW1 1631   3.577   0.329   2.553  0.0134  0.4537 -0.0366
  544SOL    HW2 1632   3.652   0.309   2.401  0.8527  0.4780 -0.1862
  545SOL     OW 1633   3.332   1.717   2.364 -0.0399  0.3757 -0.0906
  545SOL    HW1 1634   3.413   1.721   2.302  0.0773 -0.0059 -0.0118
  545SOL    HW2 1635   3.359   1.677   2.454  0.1057 -0.0176 -0.4009
  546SOL     OW 1636   1.102   0.167   2.947 -0.1996  0.2267 -0.0664
  546SOL    HW1 1637   1.133   0.209   2.860  0.5363 -2.0048  1.2180
  546SOL    HW2 1638   1.040   0.235   2.993  0.4797 -1.1888  1.1821
  547SOL     OW 1639   1.767   0.616   1.803 -0.0268  0.1650  0.0332
  547SOL    HW1 1640   1.698   0.570   1.868 -0.1354  0.1946 -0.6201
  547SOL    HW2 1641   1.844   0.664   1.850 -1.7980 -0.4753 -2.2439
  548SOL     OW 1642   2.563   1.824   2.703 -0.0320 -0.0728  0.0736
  548SOL    HW1 1643   2.613   1.913   2.712  2.6589  2.3892  0.1648
  548SOL    HW2 1644   2.481   1.810   2.760 -1.4768 -1.6295  0.9714
  549SOL     OW 1645   3.015   3.474   2.427 -0.6225  0.1935  0.2555
  549SOL    HW1 1646   2.938   3.514   2.479  0.7542 -0.1828 -1.2845
  549SOL    HW2 1647   3.000   3.376   2.448 -0.6214  0.7864 -0.3818
  550SOL     OW 1648   0.011   0.583   1.244 -0.3048 -0.1809  0.1236
  550SOL    HW1 1649  -0.082   0.547   1.269 -0.2084 -0.3436  0.2045
  550SOL    HW2 1650   0.030   0.575   1.144 -0.1222 -0.4400 -0.4615
  551SOL     OW 1651   2.780   0.049   0.125  0.1546 -0.1162 -0.0808
  551SOL    HW1 1652   2.852   0.057   0.055 -1.7748 -0.5949  0.4663
  551SOL    HW2 1653   2.738  -0.041   0.128  1.0178  1.4763 -0.7524
  552SOL     OW 1654   3.488   2.659   2.798 -0.1491  0.1108 -0.2320
  552SOL    HW1 1655   3.456   2.598   2.874 -0.2824 -0.1992 -0.2614
  552SOL    HW2 1656   3.451   2.624   2.709 -0.3124 -0.0553 -0.5722
  553SOL     OW 1657   2.775   2.609   1.974  0.3007 -0.0923 -0.0705
  553SOL    HW1 1658   2.777   2.626   2.076 -2.1921  0.2678 -0.0251
  553SOL    HW2 1659   2.861   2.605   1.919 -0.3027  0.3230 -1.9343
  554SOL     OW 1660   0.620   0.633   2.364 -0.1023 -0.0549  0.2189
  554SOL    HW1 1661   0.702   0.575   2.348 -0.3545  0.3818 -1.4872
  554SOL    HW2 1662   0.583   0.664   2.275  0.2475 -0.5100  0.1852
  555SOL     OW 1663   1.266   0.298   3.290  0.0053 -0.2334  0.3178
  555SOL    HW1 1664   1.303   0.382   3.246  0.0908 -0.8718 -0.1045
  555SOL    HW2 1665   1.286   0.220   3.228  0.0857  1.1246  0.1042
  556SOL     OW 1666   2.320   0.427   0.016  0.0712  0.1805 -0.0325
  556SOL    HW1 1667   2.220   0.418   0.035 -1.0901 -0.8726  1.6000
  556SOL    HW2 1668   2.371   0.370   0.085 -0.1112 -0.9148  1.5027
  557SOL     OW 1669   3.469   2.998   3.103  0.1753 -0.1505 -0.1791
  557SOL    HW1 1670   3.453   3.065   3.029 -0.2790  1.0671  1.8293
  557SOL    HW2 1671   3.429   3.031   3.191 -0.1669  2.3784 -0.4914
  558SOL     OW 1672   2.017   1.439   3.320  0.2318 -0.1229  0.1759
  558SOL    HW1 1673   2.066   1.375   3.384  1.5552  0.1509 -0.5726
  558SOL    HW2 1674   2.061   1.533   3.323  2.6604 -0.4290  1.6857
  559SOL     OW 1675   0.045   3.170   3.576  0.0135  0.3065  0.0417
  559SOL    HW1 1676   0.033   3.151   3.676  0.4761 -0.3108  0.1931
  559SOL    HW2 1677   0.004   3.260   3.549  0.5342  0.5541 -0.1813
  560SOL     OW 1678   1.007   0.791   1.851  0.1102 -0.1780  0.2983
  560SOL    HW1 1679   1.106   0.816   1.868 -2.9775 -1.0004 -1.5947
  560SOL    HW2 1680   0.953   0.741   1.925  1.5491  0.3761 -2.7521
  561SOL     OW 1681   3.532   0.512   1.939 -0.1915 -0.0872  0.0636
  561SOL    HW1 1682   3.489   0.501   2.031  1.3775  0.1124  0.1108
  561SOL    HW2 1683   3.474   0.487   1.858  1.3271  0.1823 -0.3571
  562SOL     OW 1684   0.325   0.178   2.753  0.1070  0.2128 -0.0242
  562SOL    HW1 1685   0.378   0.176   2.665  0.9723 -0.1767 -1.4648
  562SOL    HW2 1686   0.225   0.180   2.737 -1.6397 -0.2420  0.1835
  563SOL     OW 1687   2.003   3.323   2.176  0.2362 -0.0035 -0.0096
  563SOL    HW1 1688   2.004   3.413   2.226  0.0170  0.5087 -0.0213
  563SOL    HW2 1689   1.928   3.326   2.105  0.3511  0.4214 -0.3668
  564SOL     OW 1690   2.138   2.479   2.707 -0.0439 -0.3072  0.2218
  564SOL    HW1 1691   2.081   2.410   2.758 -2.0650  0.8122 -0.2960
  564SOL    HW2 1692   2.237   2.465   2.686 -0.6538  1.8097 -0.5835
  565SOL     OW 1693   1.384   3.691   2.184 -0.0098  0.2883  0.0152
  565SOL    HW1 1694   1.348   3.697   2.089 -0.2384  0.2116  0.4817
  565SOL    HW2 1695   1.385   3.592   2.206 -0.2714 -2.4171  0.9361
  566SOL     OW 1696   3.001   3.603   0.276  0.0250 -0.0030  0.0237
  566SOL    HW1 1697   2.996   3.664   0.357 -0.4175  0.7300  0.6308
  566SOL    HW2 1698   3.072   3.644   0.217  0.1812 -0.7948 -0.7934
  567SOL     OW 1699   2.648   3.741   1.064  0.1260 -0.0040  0.2217
  567SOL    HW1 1700   2.547   3.735   1.049 -1.6959 -0.5716  0.0616
  567SOL    HW2 1701   2.656   3.685   1.149 -0.2257 -1.1581  1.6602
  568SOL     OW 1702   3.288   3.579   2.246 -0.1806 -0.0085  0.1031
  568SOL    HW1 1703   3.288   3.479   2.222 -0.0153 -0.0240 -0.3908
  568SOL    HW2 1704   3.257   3.634   2.165 -0.4381  0.0320 -0.1245
  569SOL     OW 1705   2.728   1.549   2.624  0.4060 -0.2985 -0.0490
  569SOL    HW1 1706   2.808   1.591   2.673  0.3124 -0.0443 -0.6503
  569SOL    HW2 1707   2.695   1.617   2.555  0.8646 -0.2905  1.7009
  570SOL     OW 1708   3.293   2.527   3.386  0.1365 -0.0442  0.0704
  570SOL    HW1 1709   3.251   2.537   3.294 -0.0998 -0.2530 -0.0649
  570SOL    HW2 1710   3.323   2.620   3.414 -0.0253  0.3806 -0.0972
  571SOL     OW 1711   1.061   2.216   2.764 -0.3237 -0.0474  0.1698
  571SOL    HW1 1712   0.999   2.248   2.840 -0.9540  1.8674  1.9443
  571SOL    HW2 1713   1.036   2.143   2.694  0.9940 -2.0961 -3.9700
  572SOL     OW 1714   1.610   3.692   1.671 -0.3165  0.0459  0.0742
  572SOL    HW1 1715   1.567   3.647   1.754  0.8881 -0.4661 -1.0456
  572SOL    HW2 1716   1.539   3.759   1.638  1.7915 -1.7898 -0.3572
  573SOL     OW 1717   0.708   0.189   2.678  0.0523 -0.0643 -0.0446
  573SOL    HW1 1718   0.632   0.178   2.610 -1.0350 -0.2229 -1.8193
  573SOL    HW2 1719   0.672   0.175   2.774 -0.4208 -0.4595  2.5490
  574SOL     OW 1720   0.259   0.698   0.375  0.1109 -0.1667  0.1109
  574SOL    HW1 1721   0.244   0.606   0.334 -0.0266  1.1658  0.9937
  574SOL    HW2 1722   0.167   0.725   0.412  0.2518 -0.8870 -0.3703
  575SOL     OW 1723   0.302   0.355   2.452 -0.0281 -0.1479 -0.1072
  575SOL    HW1 1724   0.219   0.380   2.506  0.9823  1.5692 -0.1713
  575SOL    HW2 1725   0.293   0.271   2.393  1.2910  0.9670 -0.5555
  576SOL     OW 1726   1.268   0.829   1.927 -0.0178 -0.0873  0.0504
  576SOL    HW1 1727   1.294   0.898   1.859  1.0048  0.6743 -2.6890
  576SOL    HW2 1728   1.275   0.865   2.020 -0.5518  0.3191  0.7515
  577SOL     OW 1729   3.670   3.354   0.990 -0.0437  0.1755 -0.0042
  577SOL    HW1 1730   3.730   3.363   1.072  1.1452  0.3237  1.3449
  577SOL    HW2 1731   3.572   3.355   1.020 -0.8280  0.1772  0.9934
  578SOL     OW 1732   3.599   3.096   2.466 -0.2957 -0.2178  0.1568
  578SOL    HW1 1733   3.597   3.182   2.521 -0.1993  0.7355 -0.4890
  578SOL    HW2 1734   3.602   3.002   2.509 -0.8609 -0.9102 -1.0469
  579SOL     OW 1735   3.527   0.384   1.057  0.0539 -0.2297 -0.2228
  579SOL    HW1 1736   3.605   0.350   1.113  1.5577 -0.2093  4.0366
  579SOL    HW2 1737   3.520   0.354   0.960 -2.0508 -0.4587 -3.4996
  580SOL     OW 1738   0.409   0.311   3.492  0.0565  0.0019 -0.0133
  580SOL    HW1 1739   0.456   0.396   3.523 -0.3218  1.3177  0.5659
  580SOL    HW2 1740   0.486   0.245   3.469  0.5560 -0.9908 -1.7226
  581SOL     OW 1741   3.017   0.476   0.289 -0.0302  0.0549  0.0320
  581SOL    HW1 1742   2.995   0.430   0.198  0.3340 -0.6392 -1.1316
  581SOL    HW2 1743   2.953   0.451   0.366 -0.8488  0.4581  2.6412
  582SOL     OW 1744   0.606   0.293   1.964  0.1883 -0.0476 -0.3455
  582SOL    HW1 1745   0.628   0.393   1.954 -0.1602 -0.3079  0.9505
  582SOL    HW2 1746   0.610   0.246   1.873 -0.7295  0.1384  1.2759
  583SOL     OW 1747   3.395   1.892   3.277  0.0673  0.0584 -0.1971
  583SOL    HW1 1748   3.475   1.934   3.325  0.8454 -0.1194  1.3511
  583SOL    HW2 1749   3.394   1.950   3.192  0.0602 -0.0126 -1.6239
  584SOL     OW 1750   2.472   0.886   0.796 -0.1115  0.0110 -0.1432
  584SOL    HW1 1751   2.504   0.964   0.853 -0.0333  1.2461  2.2009
  584SOL    HW2 1752   2.401   0.836   0.849 -1.3925 -0.1963  2.1893
  585SOL     OW 1753   3.380   0.626   0.265 -0.1077  0.3519  0.4512
  585SOL    HW1 1754   3.290   0.657   0.228 -1.6176  1.0658 -1.9940
  585SOL    HW2 1755   3.438   0.595   0.187  1.0086 -1.1060 -3.2727
  586SOL     OW 1756   2.147   1.455   1.739 -0.0654 -0.1828 -0.0051
  586SOL    HW1 1757   2.113   1.407   1.654 -2.5824 -0.0013 -3.8280
  586SOL    HW2 1758   2.209   1.407   1.803  1.4830 -0.0291  3.9627
  587SOL     OW 1759   2.171   2.416   2.017 -0.1354  0.0967  0.0652
  587SOL    HW1 1760   2.162   2.374   1.924  0.2533 -0.7651 -3.6105
  587SOL    HW2 1761   2.125   2.507   2.021 -2.4187  2.7651 -0.0073
  588SOL     OW 1762   2.459   3.600   0.795 -0.1733 -0.0282 -0.0749
  588SOL    HW1 1763   2.539   3.664   0.789 -0.0979  0.7609  0.5354
  588SOL    HW2 1764   2.480   3.501   0.810 -0.2154 -1.0184  0.8166
  589SOL     OW 1765   0.132   0.038   0.541  0.0830 -0.0830  0.0464
  589SOL    HW1 1766   0.045   0.085   0.513 -0.0831  0.2344 -0.1032
  589SOL    HW2 1767   0.190   0.015   0.460  0.2135 -0.8325 -0.5075
  590SOL     OW 1768   0.012   3.129   0.051  0.5124 -0.0892 -0.0130
  590SOL    HW1 1769  -0.046   3.210   0.075 -0.4095  0.0991  0.1171
  590SOL    HW2 1770  -0.049   3.048   0.037 -0.2195  0.0048  0.0691
  591SOL     OW 1771   0.244   3.268   2.841 -0.0691  0.1021 -0.3175
  591SOL    HW1 1772   0.167   3.325   2.877  2.8844 -1.8039 -0.6901
  591SOL    HW2 1773   0.228   3.276   2.739  1.0307 -0.8171  3.1690
  592SOL     OW 1774   1.076   3.516   3.420  0.1678 -0.0194 -0.0874
  592SOL    HW1 1775   1.119   3.609   3.415 -0.2467 -0.4897  1.4754
  592SOL    HW2 1776   1.122   3.444   3.364  0.2855 -0.9296  0.6933
  593SOL     OW 1777   3.230   0.657   2.474  0.2311 -0.0282  0.2351
  593SOL    HW1 1778   3.327   0.633   2.492 -3.0151  0.8807 -0.9643
  593SOL    HW2 1779   3.181   0.569   2.483  1.7945  2.0944 -0.4882
  594SOL     OW 1780   1.602   2.144   2.332  0.1643  0.1027 -0.2710
  594SOL    HW1 1781   1.524   2.213   2.322  2.2289 -1.0771 -0.7993
  594SOL    HW2 1782   1.691   2.192   2.311 -2.0348 -0.7671 -0.7354
  595SOL     OW 1783   0.741   0.769   2.584 -0.1147  0.0995 -0.0582
  595SOL    HW1 1784   0.708   0.685   2.533 -1.5072 -0.1286 -0.2416
  595SOL    HW2 1785   0.758   0.859   2.538 -1.6093  1.6211  0.2230
  596SOL     OW 1786   1.043   1.609   2.472  0.0229  0.1207 -0.0630
  596SOL    HW1 1787   1.096   1.606   2.561  0.2687  0.8698 -1.8209
  596SOL    HW2 1788   1.111   1.605   2.395  1.6282  0.5472  0.5219
  597SOL     OW 1789   1.790   0.686   1.544  0.1900  0.5471 -0.3258
  597SOL    HW1 1790   1.716   0.646   1.487 -2.9319 -1.4984 -1.5361
  597SOL    HW2 1791   1.772   0.652   1.638 -1.5486 -1.3458  3.8834
  598SOL     OW 1792   3.444   2.086   2.799  0.2062 -0.3804 -0.1298
  598SOL    HW1 1793   3.539   2.066   2.771  1.4197 -0.1296 -0.6587
  598SOL    HW2 1794   3.418   2.183   2.778 -0.0101  0.7126  0.3857
  599SOL     OW 1795   2.355   0.084   1.435  0.0763  0.1200  0.1696
  599SOL    HW1 1796   2.327  -0.004   1.394 -0.8468 -3.5898 -0.5064
  599SOL    HW2 1797   2.311   0.172   1.404 -1.5849  3.8308  0.0489
  600SOL     OW 1798   0.453   3.689   1.702  0.1950  0.1601  0.1515
  600SOL    HW1 1799   0.417   3.662   1.794 -0.5599  0.2515  1.4706
  600SOL    HW2 1800   0.391   3.646   1.633 -0.4009 -0.3063 -0.2851
  601SOL     OW 1801   3.309   0.030   1.014 -0.1252  0.1045  0.3208
  601SOL    HW1 1802   3.385  -0.037   0.998 -1.4777  0.0764 -0.5297
  601SOL    HW2 1803   3.331   0.094   1.091 -0.7387  0.5511  0.3416
  602SOL     OW 1804   1.394   0.097   2.578 -0.1156  0.1560  0.3985
  602SOL    HW1 1805   1.472   0.041   2.617 -0.4759  1.0277 -0.4909
  602SOL    HW2 1806   1.299   0.059   2.567  0.6149  1.0369 -0.2497
  603SOL     OW 1807   1.704   3.120   2.160 -0.0262  0.2254 -0.1659
  603SOL    HW1 1808   1.741   3.025   2.166  0.4266 -2.5958  1.7948
  603SOL    HW2 1809   1.689   3.159   2.253  0.0443  0.4561  3.2665
  604SOL     OW 1810   0.171   3.518   3.122  0.0738 -0.0812 -0.1435
  604SOL    HW1 1811   0.202   3.596   3.064  0.6545 -0.9927  0.2666
  604SOL    HW2 1812   0.242   3.493   3.191  0.8598  0.2306 -1.4161
  605SOL     OW 1813   3.693   0.136   1.829  0.1087  0.0673  0.3051
  605SOL    HW1 1814   3.725   0.228   1.858 -0.6631  0.2150 -0.1366
  605SOL    HW2 1815   3.604   0.104   1.868 -0.2394  0.2542 -0.4896
  606SOL     OW 1816   1.277   3.201   3.004  0.2044 -0.2306 -0.1869
  606SOL    HW1 1817   1.322   3.279   2.955 -0.5390 -0.3307  2.1261
  606SOL    HW2 1818   1.253   3.241   3.095  1.9628  1.2337 -2.2383
  607SOL     OW 1819   1.623   0.848   1.758  0.0237  0.1270  0.1792
  607SOL    HW1 1820   1.679   0.763   1.763  2.0476 -2.8715  0.3333
  607SOL    HW2 1821   1.563   0.842   1.674 -2.1782 -0.4859 -2.3403
  608SOL     OW 1822   2.691   3.579   0.101  0.0250  0.0823 -0.0531
  608SOL    HW1 1823   2.669   3.489   0.145 -1.5532 -3.7406  2.7706
  608SOL    HW2 1824   2.726   3.569   0.004  1.1596  1.6978 -3.5790
  609SOL     OW 1825   3.666   3.704   3.616  0.0096 -0.2509 -0.2097
  609SOL    HW1 1826   3.760   3.743   3.596  0.8868  1.0234  0.4823
  609SOL    HW2 1827   3.629   3.755   3.696  0.0394 -0.3292  0.6464
  610SOL     OW 1828   2.786   2.022   3.617  0.3414  0.3493 -0.0989
  610SOL    HW1 1829   2.759   2.077   3.698  0.1649  2.6436  3.4349
  610SOL    HW2 1830   2.712   1.960   3.582 -2.3936 -1.7312 -1.4458
  611SOL     OW 1831   1.927   1.382   2.705  0.2244 -0.1496 -0.1462
  611SOL    HW1 1832   1.902   1.353   2.802  0.8498 -1.2209 -0.0107
  611SOL    HW2 1833   1.879   1.468   2.678  0.1726 -0.9262 -0.7346
  612SOL     OW 1834   0.361   3.207   3.191 -0.1540  0.0242  0.1517
  612SOL    HW1 1835   0.348   3.299   3.237  0.9201 -1.3159 -1.1749
  612SOL    HW2 1836   0.282   3.147   3.218  0.1971  1.3535 -1.0537
  613SOL     OW 1837   2.885   1.256   3.630 -0.1666  0.0020  0.1685
  613SOL    HW1 1838   2.987   1.235   3.633  0.4442 -0.2400 -0.1326
  613SOL    HW2 1839   2.824   1.179   3.663  0.3115 -0.2275  0.6539
  614SOL     OW 1840   3.034   0.006   0.756  0.0844 -0.2908 -0.0472
  614SOL    HW1 1841   3.020   0.098   0.799 -1.6248  1.8193  1.3275
  614SOL    HW2 1842   2.986  -0.049   0.828 -1.4358 -0.6257  3.1575
  615SOL     OW 1843   1.317   0.547   3.144 -0.1612 -0.3055 -0.0380
  615SOL    HW1 1844   1.371   0.517   3.062  0.3035 -2.0360  0.1833
  615SOL    HW2 1845   1.310   0.649   3.155 -0.0721 -0.0414  1.4678
  616SOL     OW 1846   0.042   0.568   0.971  0.0529  0.0035 -0.0498
  616SOL    HW1 1847   0.054   0.479   0.920  0.4227 -0.0054 -0.3438
  616SOL    HW2 1848   0.102   0.640   0.932 -0.8693  0.0466  0.5225
  617SOL     OW 1849   3.508   1.557   3.072 -0.4306 -0.4716  0.0184
  617SOL    HW1 1850   3.517   1.458   3.068  1.5818  2.2759 -0.5499
  617SOL    HW2 1851   3.447   1.588   3.148 -0.0503  0.7987 -1.0891
  618SOL     OW 1852   1.824   0.546   2.484 -0.0400  0.0519 -0.1547
  618SOL    HW1 1853   1.752   0.568   2.554 -0.3236  0.2296 -0.6052
  618SOL    HW2 1854   1.899   0.615   2.471  0.0507  0.3074 -0.5498
  619SOL     OW 1855   0.915   0.696   2.805 -0.1399  0.1079 -0.2321
  619SOL    HW1 1856   0.935   0.606   2.758 -0.4353  1.1978  1.7239
  619SOL    HW2 1857   0.842   0.751   2.759  1.3390  0.0255  0.9541
  620SOL     OW 1858   0.150   2.436   2.493  0.0377 -0.0364  0.1619
  620SOL    HW1 1859   0.153   2.384   2.583  1.0646 -0.4884  0.9106
  620SOL    HW2 1860   0.240   2.418   2.447  0.5863 -0.4371 -0.4212
  621SOL     OW 1861   0.939   1.057   2.233  0.1431  0.1727 -0.1683
  621SOL    HW1 1862   0.939   1.160   2.241  0.0994 -1.8464 -0.6829
  621SOL    HW2 1863   0.925   1.030   2.136  0.5337  0.7939  1.2083
  622SOL     OW 1864   3.086   3.678   1.858  0.0293  0.0158 -0.0855
  622SOL    HW1 1865   3.119   3.676   1.761 -1.6404 -1.7895 -0.2993
  622SOL    HW2 1866   3.022   3.599   1.854  0.4361 -0.2135 -1.8233
  623SOL     OW 1867   2.190   2.348   3.034 -0.1876 -0.0755  0.1126
  623SOL    HW1 1868   2.163   2.445   3.024 -0.7362  0.2408 -0.4140
  623SOL    HW2 1869   2.288   2.334   3.006  1.0633 -0.0471 -0.2594
  624SOL     OW 1870   0.205   0.184   1.144  0.0662  0.0622 -0.0958
  624SOL    HW1 1871   0.197   0.112   1.216 -0.2032 -1.2372  1.7083
  624SOL    HW2 1872   0.116   0.230   1.135 -0.2339  0.5303 -0.2681
  625SOL     OW 1873   3.718   0.699   0.133 -0.2169  0.0468  0.1018
  625SOL    HW1 1874   3.809   0.661   0.104  0.7403 -0.3300 -0.3224
  625SOL    HW2 1875   3.640   0.640   0.098 -0.3586 -1.2855 -0.3407
  626SOL     OW 1876   3.612   1.995   3.405  0.0190  0.3522 -0.1403
  626SOL    HW1 1877   3.685   1.932   3.439  0.9401  0.8569  0.3955
  626SOL    HW2 1878   3.630   2.093   3.434  1.3781  0.3473  0.2366
  627SOL     OW 1879   0.516   0.721   2.128  0.0127 -0.1904  0.0918
  627SOL    HW1 1880   0.544   0.819   2.128  0.0358  1.6455 -0.2059
  627SOL    HW2 1881   0.430   0.721   2.073 -1.3616 -0.0741 -0.8360
  628SOL     OW 1882   1.462   0.551   2.897  0.1165 -0.2195  0.2579
  628SOL    HW1 1883   1.559   0.581   2.908 -0.4836  1.1684 -0.2629
  628SOL    HW2 1884   1.417   0.640   2.872  1.6595  0.3090  0.3511
  629SOL     OW 1885   0.856   0.467   3.399 -0.3148  0.1468  0.0359
  629SOL    HW1 1886   0.918   0.523   3.339  2.7267  0.9859 -1.8556
  629SOL    HW2 1887   0.918   0.388   3.425  3.2123 -2.7310  0.5308
  630SOL     OW 1888   2.689   3.573   1.276  0.1433 -0.0349  0.1477
  630SOL    HW1 1889   2.790   3.591   1.278 -0.9923 -0.0099  0.5512
  630SOL    HW2 1890   2.645   3.624   1.354  1.2248 -0.1122 -0.1775
  631SOL     OW 1891   3.438   1.082   0.115 -0.1334  0.1594  0.2923
  631SOL    HW1 1892   3.466   1.123   0.203 -1.2110  1.6908 -4.3530
  631SOL    HW2 1893   3.438   1.168   0.065  0.8712 -1.1615  4.5252
  632SOL     OW 1894   2.984   1.426   3.325  0.2059  0.0063  0.0797
  632SOL    HW1 1895   2.941   1.339   3.356  0.1611  0.3309 -1.1339
  632SOL    HW2 1896   3.039   1.465   3.402  0.8725 -0.7246 -1.3950
  633SOL     OW 1897   2.199   3.555   1.956  0.1839 -0.0835 -0.0687
  633SOL    HW1 1898   2.148   3.638   1.925 -0.5331  0.2417  0.2841
  633SOL    HW2 1899   2.148   3.479   1.909 -0.5612 -0.2224 -0.2307
  634SOL     OW 1900   3.219   0.188   0.298 -0.3965 -0.0400  0.0400
  634SOL    HW1 1901   3.241   0.279   0.344  0.2083  0.4935  0.7842
  634SOL    HW2 1902   3.171   0.194   0.207 -0.7005 -0.1938 -0.2358
  635SOL     OW 1903   0.872   0.498   2.381 -0.1313 -0.0712 -0.0473
  635SOL    HW1 1904   0.899   0.583   2.331 -0.2721 -0.8476  0.4262
  635SOL    HW2 1905   0.892   0.416   2.322  0.3975 -0.7614 -0.2940
  636SOL     OW 1906   0.446   3.741   3.552  0.2377 -0.0884 -0.2527
  636SOL    HW1 1907   0.386   3.731   3.470  1.3427  0.5112  0.7113
  636SOL    HW2 1908   0.381   3.700   3.619  0.7244  0.7477 -0.8060
  637SOL     OW 1909   3.024   3.345   3.417  0.1219 -0.2058  0.6726
  637SOL    HW1 1910   3.044   3.415   3.489 -1.5123 -3.7571 -5.0856
  637SOL    HW2 1911   3.024   3.249   3.451 -0.0591  7.6384 -2.3538
  638SOL     OW 1912   1.358   3.420   2.250 -0.1302 -0.0726 -0.0007
  638SOL    HW1 1913   1.315   3.365   2.175  1.1734 -0.3347 -1.6508
  638SOL    HW2 1914   1.300   3.419   2.334  0.4952  1.6808  0.1952
  639SOL     OW 1915   0.351   3.186   2.306 -0.0939 -0.5139 -0.2686
  639SOL    HW1 1916   0.293   3.121   2.358  0.8219 -0.1524 -0.9954
  639SOL    HW2 1917   0.306   3.266   2.260  0.4271 -0.5288 -0.1535
  640SOL     OW 1918   1.980   1.855   3.127  0.0290 -0.0616 -0.0396
  640SOL    HW1 1919   1.948   1.808   3.043 -0.9466 -0.8315 -1.8716
  640SOL    HW2 1920   2.011   1.947   3.098  0.1151  1.1030 -0.0279
  641SOL     OW 1921   2.366   0.767   0.570 -0.1885 -0.0440  0.2863
  641SOL    HW1 1922   2.331   0.682   0.614  0.4975  1.5715  0.6796
  641SOL    HW2 1923   2.395   0.828   0.648 -0.4421 -0.7720 -0.3640
  642SOL     OW 1924   2.826   1.876   3.130  0.1114  0.1012  0.1211
  642SOL    HW1 1925   2.760   1.955   3.118 -1.2241  1.4601 -0.5257
  642SOL    HW2 1926   2.815   1.815   3.048  0.1021  0.2698  0.6739
  643SOL     OW 1927   1.278   0.632   1.551  0.3697  0.6385  0.6135
  643SOL    HW1 1928   1.312   0.545   1.521  2.7943 -9.0288 -3.5688
  643SOL    HW2 1929   1.193   0.654   1.503 -8.1638  1.3100 -4.9850
  644SOL     OW 1930   1.806   3.276   1.743 -0.0692  0.0576  0.0494
  644SOL    HW1 1931   1.772   3.189   1.707 -0.1360  1.6136 -0.2909
  644SOL    HW2 1932   1.775   3.352   1.683 -0.5040 -1.0318  0.2672
  645SOL     OW 1933   1.365   1.908   2.525 -0.3261  0.0721 -0.0610
  645SOL    HW1 1934   1.400   1.902   2.625 -0.6404  0.7135 -0.8690
  645SOL    HW2 1935   1.327   2.002   2.506 -0.9289  0.3331  0.4488
  646SOL     OW 1936   0.188   2.528   2.858  0.2674 -0.0662 -0.0111
  646SOL    HW1 1937   0.141   2.614   2.889  1.2335 -0.2134 -0.3172
  646SOL    HW2 1938   0.268   2.544   2.795 -0.2546 -0.1488  1.3592
  647SOL     OW 1939   0.993   0.232   1.879  0.3831 -0.1437  0.2181
  647SOL    HW1 1940   0.993   0.249   1.776  0.7648  0.1055 -2.7513
  647SOL    HW2 1941   1.047   0.303   1.928  1.8561  1.1385  0.8570
  648SOL     OW 1942   0.447   0.043   1.361  0.1025 -0.1459  0.0077
  648SOL    HW1 1943   0.435   0.124   1.422  0.6310  1.4134  0.4336
  648SOL    HW2 1944   0.478   0.075   1.269  1.5297  0.8571 -1.0875
  649SOL     OW 1945   3.018   3.034   0.421 -0.4414 -0.0256  0.3784
  649SOL    HW1 1946   3.099   3.082   0.384  5.6095  2.5112 -4.2050
  649SOL    HW2 1947   3.004   2.941   0.389 -0.6198 -5.4290 -2.8332
  650SOL     OW 1948   3.586   0.777   0.361  0.0312  0.2011  0.1647
  650SOL    HW1 1949   3.659   0.760   0.289 -0.5446  1.2132  0.6139
  650SOL    HW2 1950   3.497   0.736   0.330  0.9873  0.4581  0.9968
  651SOL     OW 1951   2.254   2.013   2.813  0.0082  0.0683  0.2630
  651SOL    HW1 1952   2.305   1.929   2.843  1.8859 -1.2450  0.6163
  651SOL    HW2 1953   2.157   1.999   2.785 -2.9635  0.3495 -0.8671
  652SOL     OW 1954   2.965   0.135   1.914 -0.2346 -0.3749 -0.1614
  652SOL    HW1 1955   2.950   0.201   1.837 -0.5991 -0.3113  0.2483
  652SOL    HW2 1956   3.001   0.042   1.889 -0.5118 -0.1461  0.3895
  653SOL     OW 1957   1.454   0.819   2.562 -0.2270 -0.1305 -0.1054
  653SOL    HW1 1958   1.447   0.779   2.468  2.3326  0.7533  1.4292
  653SOL    HW2 1959   1.377   0.797   2.624  1.7018  0.9176 -0.0057
  654SOL     OW 1960   2.879   2.221   3.097  0.3204 -0.1975 -0.0563
  654SOL    HW1 1961   2.892   2.202   3.198 -0.1880  1.1788 -0.7565
  654SOL    HW2 1962   2.937   2.167   3.030 -0.1462  0.4557 -0.3674
  655SOL     OW 1963   2.844   0.563   2.578  0.0125 -0.0368 -0.3664
  655SOL    HW1 1964   2.880   0.648   2.533  0.5021 -0.4266  0.1517
  655SOL    HW2 1965   2.749   0.539   2.544  0.8216 -1.2050  0.4508
  656SOL     OW 1966   2.519   1.159   2.973 -0.0823  0.3243 -0.0944
  656SOL    HW1 1967   2.477   1.120   2.890  0.0342 -1.5443 -0.6650
  656SOL    HW2 1968   2.581   1.081   3.000  1.1253 -2.8178 -0.5502
  657SOL     OW 1969   3.162   2.453   3.612 -0.0509 -0.1895 -0.2017
  657SOL    HW1 1970   3.210   2.489   3.529 -0.7057 -1.0355  0.5663
  657SOL    HW2 1971   3.138   2.355   3.599  0.7740  0.3498 -0.8726
  658SOL     OW 1972   0.401   1.007   1.969  0.3284  0.0850  0.0787
  658SOL    HW1 1973   0.300   0.999   1.974  2.0179 -2.4921 -6.1880
  658SOL    HW2 1974   0.416   0.970   1.876 -6.7864 -0.2905  1.0556
  659SOL     OW 1975   3.367   0.702   3.634 -0.4354 -0.1726 -0.0770
  659SOL    HW1 1976   3.394   0.731   3.540  1.9293 -1.0518  2.3802
  659SOL    HW2 1977   3.271   0.679   3.661  3.4748 -0.7467  1.0631
  660SOL     OW 1978   0.198   0.483   1.848  0.0842  0.0594 -0.1485
  660SOL    HW1 1979   0.150   0.528   1.768 -0.2780  1.7175 -0.9387
  660SOL    HW2 1980   0.251   0.398   1.830  1.4470 -0.6793  0.0287
  661SOL     OW 1981   3.565   3.562   2.906 -0.0808 -0.2051  0.0349
  661SOL    HW1 1982   3.536   3.608   2.819 -0.0376  0.1002  2.1525
  661SOL    HW2 1983   3.649   3.506   2.894 -1.0017 -0.5657  1.5296
  662SOL     OW 1984   3.192   3.452   1.480  0.3314 -0.0006 -0.0402
  662SOL    HW1 1985   3.262   3.382   1.502 -4.5569 -1.2841  1.5315
  662SOL    HW2 1986   3.123   3.391   1.522  5.2759 -2.0776 -0.2955
  663SOL     OW 1987   2.132   1.857   2.364  0.1295  0.0332  0.1545
  663SOL    HW1 1988   2.129   1.830   2.266  0.1787  0.2641 -1.2817
  663SOL    HW2 1989   2.193   1.939   2.370  0.9923  0.3880 -0.2338
  664SOL     OW 1990   1.789   1.817   2.224 -0.0346  0.2884  0.1529
  664SOL    HW1 1991   1.843   1.887   2.167 -2.2947 -1.8588  1.7337
  664SOL    HW2 1992   1.695   1.847   2.255  2.4381 -0.5499 -0.6502
  665SOL     OW 1993   2.480   0.523   0.374 -0.0104 -0.0385  0.0252
  665SOL    HW1 1994   2.505   0.618   0.348 -0.2325  1.7079 -0.6273
  665SOL    HW2 1995   2.525   0.492   0.461  0.8902 -1.7401  1.9331
  666SOL     OW 1996   2.661   1.152   2.606  0.0656  0.1333 -0.0360
  666SOL    HW1 1997   2.579   1.090   2.615  1.9358  0.9702  0.4164
  666SOL    HW2 1998   2.661   1.193   2.512  0.7765 -0.7981  2.5607
  667SOL     OW 1999   0.358   2.867   3.075 -0.0939 -0.3211  0.1215
  667SOL    HW1 2000   0.347   2.765   3.069 -0.6352  3.3657 -0.0062
  667SOL    HW2 2001   0.386   2.902   3.164 -2.0361 -1.4621 -5.4336
  668SOL     OW 2002   2.454   3.559   1.871 -0.0589 -0.3696 -0.0876
  668SOL    HW1 2003   2.465   3.579   1.771  1.4742  0.1108 -0.0394
  668SOL    HW2 2004   2.359   3.559   1.908  0.3049 -0.4454  1.5827
  669SOL     OW 2005   0.551   0.514   1.471 -0.2455  0.2949  0.0886
  669SOL    HW1 2006   0.576   0.565   1.557  0.9176 -0.1857  1.1201
  669SOL    HW2 2007   0.630   0.465   1.430  1.2595 -0.7380 -0.2496
  670SOL     OW 2008   3.060   0.864   0.983  0.0428  0.1508  0.0096
  670SOL    HW1 2009   2.972   0.909   0.958  1.4454  0.5677 -0.8479
  670SOL    HW2 2010   3.049   0.784   1.046  1.1226  0.9856 -0.7817
  671SOL     OW 2011   3.640   0.239   1.423 -0.2576 -0.3118  0.1972
  671SOL    HW1 2012   3.733   0.235   1.465  1.5798  0.7832  1.0661
  671SOL    HW2 2013   3.576   0.163   1.442 -1.8332 -1.4365 -0.3576
  672SOL     OW 2014   0.772   0.145   1.528  0.0637  0.1149 -0.0535
  672SOL    HW1 2015   0.744   0.212   1.456 -0.4265  0.8245 -0.3358
  672SOL    HW2 2016   0.748   0.047   1.513 -0.6001 -0.0646  0.7159
  673SOL     OW 2017   3.501   3.727   0.188  0.0154  0.1397 -0.5019
  673SOL    HW1 2018   3.447   3.752   0.270  0.2844 -1.3996  0.0663
  673SOL    HW2 2019   3.511   3.798   0.114  0.3270 -0.2750 -0.9272
  674SOL     OW 2020   3.573   3.541   1.628 -0.0306  0.2034 -0.1476
  674SOL    HW1 2021   3.666   3.522   1.666 -0.0812 -0.7831  0.9530
  674SOL    HW2 2022   3.494   3.519   1.689  0.3566 -0.2226  0.7459
  675SOL     OW 2023   3.275   3.681   3.649  0.2823  0.1011 -0.1861
  675SOL    HW1 2024   3.344   3.609   3.622 -2.5605  2.0196  0.7393
  675SOL    HW2 2025   3.303   3.774   3.620 -0.8170 -3.7599  0.3781
  676SOL     OW 2026   3.496   3.676   2.667 -0.1635 -0.1123  0.0013
  676SOL    HW1 2027   3.571   3.731   2.623 -0.6266 -0.0686  0.8470
  676SOL    HW2 2028   3.455   3.605   2.605 -0.5669  0.0213 -0.0077
  677SOL     OW 2029   1.918   1.010   3.042  0.2246 -0.0525  0.0887
  677SOL    HW1 2030   1.826   1.022   3.083 -0.8219 -1.3039 -0.7127
  677SOL    HW2 2031   1.915   0.926   2.983 -2.3114 -0.5873  0.3239
  678SOL     OW 2032   2.002   0.568   0.616 -0.1863  0.1199  0.1659
  678SOL    HW1 2033   1.953   0.485   0.651  0.8503  0.2863  0.3901
  678SOL    HW2 2034   1.959   0.595   0.528 -0.0115  0.5377 -0.3045
  679SOL     OW 2035   1.157   1.579   2.710 -0.0042  0.1282 -0.1438
  679SOL    HW1 2036   1.107   1.528   2.782  1.7754  2.6870 -1.1260
  679SOL    HW2 2037   1.206   1.651   2.763 -1.8274 -1.1254  0.6719
  680SOL     OW 2038   3.172   1.416   2.553 -0.1714  0.2276  0.0328
  680SOL    HW1 2039   3.200   1.323   2.523  0.0708 -1.3495  1.5583
  680SOL    HW2 2040   3.142   1.406   2.651 -0.2379 -0.6625  1.0580
  681SOL     OW 2041   2.042   3.773   1.295 -0.1366  0.2245 -0.0393
  681SOL    HW1 2042   2.137   3.745   1.267  2.2672  0.0150 -0.1042
  681SOL    HW2 2043   1.996   3.702   1.353 -0.5708 -0.5306  1.3446
  682SOL     OW 2044   1.324   2.985   2.613 -0.2100 -0.5182 -0.0743
  682SOL    HW1 2045   1.261   2.950   2.548  3.1418  2.7081 -1.8652
  682SOL    HW2 2046   1.375   3.048   2.559 -3.1733 -2.8610 -2.1328
  683SOL     OW 2047   0.995   3.694   2.952  0.1189 -0.0675  0.1776
  683SOL    HW1 2048   0.894   3.683   2.936 -1.9844  0.2227 -0.3956
  683SOL    HW2 2049   1.021   3.792   2.932 -0.0799  2.5604 -0.1266
  684SOL     OW 2050   2.552   3.355   0.863  0.1880  0.1007  0.2191
  684SOL    HW1 2051   2.656   3.369   0.858 -0.6431  0.2603  0.1044
  684SOL    HW2 2052   2.532   3.257   0.890 -0.8721 -0.1572 -0.0537
  685SOL     OW 2053   2.994   2.785   0.316  0.2082 -0.0860  0.2192
  685SOL    HW1 2054   2.956   2.747   0.402 -0.9890  0.3387 -0.1385
  685SOL    HW2 2055   3.093   2.766   0.292  3.8227 -0.2193 -2.7770
  686SOL     OW 2056   2.899   1.429   2.445  0.1865 -0.1366 -0.0695
  686SOL    HW1 2057   2.839   1.471   2.515  0.8041 -0.7536 -0.0251
  686SOL    HW2 2058   2.996   1.442   2.474 -0.2719 -0.9508  0.3343
  687SOL     OW 2059   2.775   0.548   0.803 -0.2001 -0.0258 -0.0152
  687SOL    HW1 2060   2.766   0.542   0.905 -0.2077 -0.0966  1.5929
  687SOL    HW2 2061   2.864   0.524   0.760  0.5562 -0.2261 -1.1369
  688SOL     OW 2062   1.147   0.790   2.457 -0.3128 -0.0315  0.1371
  688SOL    HW1 2063   1.136   0.795   2.559  0.4253 -0.4617 -0.9618
  688SOL    HW2 2064   1.167   0.883   2.417 -0.1762 -1.0116 -0.2313
  689SOL     OW 2065   0.078   0.401   2.596  0.3042 -0.0043 -0.1156
  689SOL    HW1 2066   0.059   0.358   2.687 -0.5596 -1.0151  0.9271
  689SOL    HW2 2067  -0.011   0.400   2.545 -1.3925 -0.2840 -1.3869
  690SOL     OW 2068   2.331   0.411   1.633 -0.1571 -0.0870 -0.3424
  690SOL    HW1 2069   2.347   0.499   1.582 -1.4549 -0.4346 -0.1766
  690SOL    HW2 2070   2.244   0.376   1.592 -0.3058  1.0209 -0.9828
  691SOL     OW 2071   1.325   0.794   0.722  0.0902 -0.2291 -0.0572
  691SOL    HW1 2072   1.422   0.824   0.718  0.0480 -1.9672  0.2818
  691SOL    HW2 2073   1.327   0.705   0.770  2.0486  2.0028 -1.4013
  692SOL     OW 2074   1.869   0.280   2.438 -0.0718 -0.1837  0.2346
  692SOL    HW1 2075   1.864   0.376   2.472 -0.2017  1.1275  0.2685
  692SOL    HW2 2076   1.803   0.262   2.361 -0.1934 -0.8153 -0.5371
  693SOL     OW 2077   2.936   0.734   1.362  0.0947 -0.0519 -0.1179
  693SOL    HW1 2078   2.911   0.834   1.351  0.5391 -0.5131 -1.1669
  693SOL    HW2 2079   2.972   0.697   1.273  0.2407  1.0832 -0.2255
  694SOL     OW 2080   2.082   1.319   2.321  0.1804  0.2089 -0.3166
  694SOL    HW1 2081   2.052   1.262   2.402  0.5280 -0.7810 -0.0957
  694SOL    HW2 2082   2.150   1.381   2.360  0.5645  0.2401 -0.2002
  695SOL     OW 2083   3.141   2.919   3.428  0.0034  0.0190 -0.1623
  695SOL    HW1 2084   3.097   2.979   3.498  0.9759 -2.0768 -2.4072
  695SOL    HW2 2085   3.089   2.898   3.341  1.1517  0.8125  3.5595
  696SOL     OW 2086   2.572   0.872   2.694 -0.1600 -0.2637 -0.0998
  696SOL    HW1 2087   2.564   0.800   2.766 -0.8341  1.4685 -0.7152
  696SOL    HW2 2088   2.593   0.829   2.602 -0.0659  0.2955  0.8199
  697SOL     OW 2089   2.400   2.525   2.123 -0.1127  0.1643 -0.0301
  697SOL    HW1 2090   2.316   2.474   2.090 -1.6356 -0.4166 -0.1419
  697SOL    HW2 2091   2.484   2.470   2.103  0.4509  0.9166 -0.0777
  698SOL     OW 2092   0.619   0.173   0.805  0.1354  0.0739  0.0307
  698SOL    HW1 2093   0.539   0.237   0.808  1.4858 -1.4705  0.6243
  698SOL    HW2 2094   0.689   0.204   0.875 -0.2648 -0.4412 -1.2547
  699SOL     OW 2095   3.572   0.545   3.112  0.1918  0.1999  0.1983
  699SOL    HW1 2096   3.492   0.482   3.103 -2.7487 -1.3326 -0.9769
  699SOL    HW2 2097   3.558   0.617   3.041 -1.6262  2.0176 -2.0120
  700SOL     OW 2098   2.845   0.837   0.010  0.1083  0.2442 -0.3368
  700SOL    HW1 2099   2.842   0.778  -0.074  0.5221 -2.1437 -1.9038
  700SOL    HW2 2100   2.829   0.783   0.097  0.1280 -2.0335  2.8389
  701SOL     OW 2101   3.694   0.156   2.306 -0.0159  0.1755  0.0063
  701SOL    HW1 2102   3.685   0.063   2.265  1.6925  1.3419 -0.6648
  701SOL    HW2 2103   3.773   0.197   2.255 -0.5486 -1.7901  0.0364
  702SOL     OW 2104   2.604   0.199   0.649 -0.0145 -0.1656  0.0267
  702SOL    HW1 2105   2.633   0.129   0.716  0.5129  0.2380  1.0574
  702SOL    HW2 2106   2.595   0.177   0.553 -0.3258  0.7378 -2.5623
  703SOL     OW 2107   3.647   3.011   0.284  0.0388 -0.0816  0.1499
  703SOL    HW1 2108   3.614   3.048   0.374  1.3058 -0.0824 -0.2896
  703SOL    HW2 2109   3.735   3.053   0.261 -0.9048 -0.1050  0.7231
  704SOL     OW 2110   3.637   0.205   2.988  0.3375  0.0709 -0.1718
  704SOL    HW1 2111   3.563   0.204   3.062 -1.3498 -0.1383  1.0449
  704SOL    HW2 2112   3.716   0.153   3.031  3.0015 -1.1993 -0.3955
  705SOL     OW 2113   3.103   0.731   3.275 -0.2248 -0.2163  0.0346
  705SOL    HW1 2114   3.119   0.777   3.366 -0.2131 -0.0528 -1.4332
  705SOL    HW2 2115   3.046   0.790   3.209  2.1178 -1.1685  1.5191
  706SOL     OW 2116   2.567   1.085   0.964  0.0198  0.0729  0.1401
  706SOL    HW1 2117   2.515   1.051   1.046  0.6238  0.8040 -1.2341
  706SOL    HW2 2118   2.551   1.186   0.955 -0.0093 -1.0856  0.6510
  707SOL     OW 2119   3.288   0.994   1.044 -0.1524 -0.0441  0.0950
  707SOL    HW1 2120   3.198   0.959   1.009 -0.4326  0.4632 -0.4780
  707SOL    HW2 2121   3.361   0.971   0.974 -0.0024  0.4912 -0.2779
  708SOL     OW 2122   1.754   3.611   2.324  0.0612 -0.0381 -0.1976
  708SOL    HW1 2123   1.713   3.694   2.370 -3.2039  0.1375  0.5400
  708SOL    HW2 2124   1.854   3.593   2.317  1.3886 -1.9940 -1.4023
  709SOL     OW 2125   1.890   0.653   0.387 -0.2038 -0.0884  0.0824
  709SOL    HW1 2126   1.961   0.716   0.350  2.2525  2.4203 -0.2961
  709SOL    HW2 2127   1.851   0.590   0.317 -2.4645 -2.0720 -0.6313
  710SOL     OW 2128   1.298   1.411   2.550  0.0241 -0.2034  0.0736
  710SOL    HW1 2129   1.236   1.345   2.503 -2.1101 -2.1542 -2.8932
  710SOL    HW2 2130   1.252   1.478   2.614 -0.8912  4.1085  3.2419
  711SOL     OW 2131   3.568   0.275   0.790 -0.3151  0.1117 -0.1587
  711SOL    HW1 2132   3.570   0.182   0.746  0.0950  0.4631  0.0298
  711SOL    HW2 2133   3.511   0.344   0.744  0.6872 -0.5177 -0.2934
  712SOL     OW 2134   2.418   0.970   1.926 -0.1005  0.0957 -0.3081
  712SOL    HW1 2135   2.458   0.920   2.008  0.1074  0.0130  1.1890
  712SOL    HW2 2136   2.426   1.071   1.943 -0.2602 -0.8036  0.2112
  713SOL     OW 2137   0.471   0.259   1.525 -0.0064  0.1381  0.0061
  713SOL    HW1 2138   0.485   0.358   1.497 -0.2084 -0.8160 -0.5409
  713SOL    HW2 2139   0.531   0.220   1.598 -0.6601 -0.5882 -1.3225
  714SOL     OW 2140   1.146   1.121   1.974 -0.1198  0.2689 -0.5364
  714SOL    HW1 2141   1.202   1.102   1.891  0.3035  0.4068 -1.0125
  714SOL    HW2 2142   1.186   1.196   2.031  0.5432 -0.0897 -1.1581
  715SOL     OW 2143   1.340   0.395   2.399  0.1107 -0.0807  0.1148
  715SOL    HW1 2144   1.364   0.408   2.499  0.1319  0.6430 -0.7006
  715SOL    HW2 2145   1.363   0.303   2.362 -0.7541  0.9941  0.0730
  716SOL     OW 2146   1.711   0.912   2.454 -0.1064  0.0074  0.1833
  716SOL    HW1 2147   1.708   0.955   2.359  0.9861 -0.1697  0.9220
  716SOL    HW2 2148   1.618   0.879   2.484  0.7696  0.1442  0.7426
  717SOL     OW 2149   0.187   0.474   0.633  0.0346 -0.2412  0.0225
  717SOL    HW1 2150   0.248   0.558   0.633 -0.8146 -0.6198  0.5953
  717SOL    HW2 2151   0.137   0.454   0.721 -0.6503 -0.5139 -1.2051
  718SOL     OW 2152   1.253   0.822   3.111 -0.1166 -0.0737 -0.1190
  718SOL    HW1 2153   1.281   0.920   3.123  0.5185 -0.2901  0.3126
  718SOL    HW2 2154   1.152   0.807   3.100 -0.1858 -0.1287  0.0751
  719SOL     OW 2155   3.684   0.069   2.575 -0.2055  0.0164 -0.0918
  719SOL    HW1 2156   3.696   0.099   2.478  0.3262  0.6619 -0.9002
  719SOL    HW2 2157   3.643   0.144   2.631 -0.9630  0.0211  0.5764
  720SOL     OW 2158   0.007   3.675   2.127  0.1689 -0.0531 -0.1466
  720SOL    HW1 2159   0.052   3.754   2.080 -0.8869  0.4594  1.2965
  720SOL    HW2 2160   0.032   3.588   2.078 -0.9711 -0.1182  1.3514
  721SOL     OW 2161   0.374   2.242   2.923  0.4721 -0.0848  0.1419
  721SOL    HW1 2162   0.317   2.224   3.004 -1.2647  0.0235  3.6557
  721SOL    HW2 2163   0.335   2.242   2.830 -0.8591 -0.3615 -3.8116
  722SOL     OW 2164   2.762   0.593   3.288  0.0334 -0.2694 -0.2187
  722SOL    HW1 2165   2.801   0.504   3.255  1.4406 -0.8336  0.0963
  722SOL    HW2 2166   2.836   0.651   3.331  1.6066  0.0587 -0.1427
  723SOL     OW 2167   2.138   1.367   3.057  0.1835 -0.2248  0.1779
  723SOL    HW1 2168   2.050   1.342   3.010  2.6540 -0.2878  1.1116
  723SOL    HW2 2169   2.115   1.394   3.153  1.0764 -1.6697 -3.5488
  724SOL     OW 2170   2.691   1.256   3.217 -0.2214  0.0603 -0.1387
  724SOL    HW1 2171   2.600   1.232   3.248 -0.3839  1.1853 -0.4948
  724SOL    HW2 2172   2.759   1.219   3.283  1.3661  0.4945  0.2981
  725SOL     OW 2173   0.700   0.119   2.147  0.2393 -0.0208 -0.2859
  725SOL    HW1 2174   0.676   0.195   2.084  0.7477 -0.9906  0.3400
  725SOL    HW2 2175   0.628   0.053   2.170  0.4058 -0.4379 -0.1742
  726SOL     OW 2176   2.709   2.041   2.758  0.0561  0.1090 -0.0273
  726SOL    HW1 2177   2.679   2.041   2.858  0.4439 -0.4708 -1.1220
  726SOL    HW2 2178   2.720   2.134   2.711  0.2921 -0.5237  0.8602
  727SOL     OW 2179   1.966   1.182   2.537  0.1166  0.1876 -0.1556
  727SOL    HW1 2180   1.963   1.255   2.614 -0.0726 -2.8266 -1.0990
  727SOL    HW2 2181   1.887   1.174   2.474  1.7346 -0.9055  2.7969
  728SOL     OW 2182   3.406   0.796   1.210 -0.2087 -0.0909 -0.1846
  728SOL    HW1 2183   3.367   0.874   1.156  0.4882  0.1771 -0.0296
  728SOL    HW2 2184   3.499   0.781   1.170 -0.5566  0.6882 -1.0732
  729SOL     OW 2185   1.586   3.718   2.681  0.1453  0.3087  0.0113
  729SOL    HW1 2186   1.622   3.718   2.775  0.2031  0.7873  0.0195
  729SOL    HW2 2187   1.565   3.625   2.647 -0.2597  0.2614 -0.5609
  730SOL     OW 2188   2.015   0.527   1.115  0.0102 -0.0080 -0.2284
  730SOL    HW1 2189   2.033   0.448   1.050 -1.0253  2.4241  1.5280
  730SOL    HW2 2190   1.942   0.503   1.185  0.6735  0.6133 -2.0723
  731SOL     OW 2191   0.605   0.137   3.437  0.0650 -0.0525 -0.0339
  731SOL    HW1 2192   0.555   0.063   3.486 -1.1762  0.4268 -0.5288
  731SOL    HW2 2193   0.707   0.122   3.441  0.5757  1.3046 -0.4744
  732SOL     OW 2194   0.394   0.901   3.115  0.3439  0.0711 -0.0225
  732SOL    HW1 2195   0.439   0.985   3.076  0.9607  0.8800 -0.8627
  732SOL    HW2 2196   0.294   0.903   3.087 -0.9395  0.6258 -0.3420
  733SOL     OW 2197   1.043   0.274   3.449  0.5088  0.0404  0.3680
  733SOL    HW1 2198   1.118   0.292   3.381 -2.5616 -0.5113 -1.5203
  733SOL    HW2 2199   1.069   0.264   3.547 -2.8935 -0.4709  0.4051
  734SOL     OW 2200   3.193   3.146   3.138  0.0155  0.2350  0.0635
  734SOL    HW1 2201   3.245   3.117   3.222 -1.5426  1.7721 -3.3208
  734SOL    HW2 2202   3.172   3.246   3.153  0.1456 -2.9073 -0.2237
  735SOL     OW 2203   3.066   3.212   2.054  0.1257 -0.0068  0.1470
  735SOL    HW1 2204   2.965   3.215   2.074 -1.1612 -0.5930  0.2026
  735SOL    HW2 2205   3.094   3.249   1.964 -0.1111 -0.8716 -0.7530
  736SOL     OW 2206   1.330   2.992   2.280 -0.4731 -0.2061 -0.1962
  736SOL    HW1 2207   1.364   2.897   2.268 -1.1744  5.7117  0.6290
  736SOL    HW2 2208   1.227   2.982   2.291  5.5324  0.8501  0.2317
  737SOL     OW 2209   0.026   0.975   1.662  0.2577 -0.2746  0.0112
  737SOL    HW1 2210  -0.025   1.058   1.630  0.4769 -0.6152  0.0852
  737SOL    HW2 2211  -0.031   0.890   1.652  0.7974  0.2053 -0.0248
  738SOL     OW 2212   2.459   0.784   1.731  0.2640  0.3873 -0.1285
  738SOL    HW1 2213   2.443   0.852   1.804 -0.4869  0.1249 -0.1722
  738SOL    HW2 2214   2.523   0.820   1.661 -0.3697 -0.3400 -0.0530
  739SOL     OW 2215   1.040   0.658   1.411 -0.4025  0.5658 -0.1797
  739SOL    HW1 2216   1.015   0.700   1.314  2.0074 -3.7841  9.7943
  739SOL    HW2 2217   0.967   0.686   1.484  6.8867 -2.3547 -6.4177
  740SOL     OW 2218   3.124   3.341   1.810 -0.0030 -0.3244  0.1482
  740SOL    HW1 2219   3.070   3.334   1.723  0.7435 -0.5996  0.6653
  740SOL    HW2 2220   3.214   3.375   1.776 -0.9062 -0.4358 -0.1575
  741SOL     OW 2221   2.850   3.648   2.564 -0.1267  0.2884  0.0465
  741SOL    HW1 2222   2.754   3.610   2.552 -1.4433  0.5510 -1.0810
  741SOL    HW2 2223   2.879   3.657   2.664  0.7971  0.6851  1.1889
  742SOL     OW 2224   2.970   0.247   0.856 -0.1105  0.0400 -0.2100
  742SOL    HW1 2225   2.878   0.245   0.899  0.1055 -0.8468 -0.2299
  742SOL    HW2 2226   2.978   0.332   0.801  0.2137 -0.9234 -0.6124
  743SOL     OW 2227   2.558   2.129   2.433 -0.1492 -0.2638  0.2572
  743SOL    HW1 2228   2.591   2.226   2.426  2.4247  2.5240 -0.3185
  743SOL    HW2 2229   2.631   2.072   2.391  2.6121 -0.8346 -1.3435
  744SOL     OW 2230   0.092   0.553   1.618 -0.2408  0.0073 -0.0134
  744SOL    HW1 2231   0.018   0.623   1.604  0.6946  0.0830 -0.8246
  744SOL    HW2 2232   0.131   0.523   1.528 -0.8010  0.5199  0.4106
  745SOL     OW 2233   2.888   0.421   0.050 -0.1449  0.0965 -0.0263
  745SOL    HW1 2234   2.800   0.371   0.061  1.6192  0.9428 -0.1846
  745SOL    HW2 2235   2.914   0.435  -0.047  0.0245  0.0104  1.3726
  746SOL     OW 2236   3.422   2.294   3.382 -0.1865  0.0427  0.2741
  746SOL    HW1 2237   3.507   2.276   3.436  0.2204 -1.0348 -0.4918
  746SOL    HW2 2238   3.381   2.388   3.392 -0.7865  0.0160 -0.0992
  747SOL     OW 2239   0.244   3.713   2.478 -0.0621 -0.0279 -0.0285
  747SOL    HW1 2240   0.304   3.631   2.472  0.0751  0.6476  1.0546
  747SOL    HW2 2241   0.186   3.719   2.562  0.7202  0.2619 -0.1736
  748SOL     OW 2242   0.344   2.584   3.079  0.0727  0.4697  0.3599
  748SOL    HW1 2243   0.429   2.527   3.090  8.6142 -5.9301  0.9956
  748SOL    HW2 2244   0.274   2.559   3.009 -6.3609 -2.9977 -6.6082
  749SOL     OW 2245   0.300   3.236   0.072  0.1570  0.2576  0.2377
  749SOL    HW1 2246   0.215   3.184   0.055  3.3627  1.2165 -1.7041
  749SOL    HW2 2247   0.337   3.232  -0.022 -3.2755 -1.3401  1.2849
  750SOL     OW 2248   3.684   0.052   0.985 -0.1359  0.0503  0.5658
  750SOL    HW1 2249   3.767   0.018   0.933  0.9370  1.3572 -5.1784
  750SOL    HW2 2250   3.634   0.108   0.912  0.8898  0.0980 -4.2278
  751SOL     OW 2251   0.651   2.935   2.419  0.2063 -0.0482 -0.1800
  751SOL    HW1 2252   0.631   3.036   2.408 -0.7367  0.5024 -0.0668
  751SOL    HW2 2253   0.716   2.907   2.343 -0.0478  0.2443 -0.0018
  752SOL     OW 2254   3.719   0.702   1.885 -0.0340  0.0254 -0.3324
  752SOL    HW1 2255   3.713   0.715   1.784  0.6980  1.1313  0.1223
  752SOL    HW2 2256   3.650   0.635   1.920  0.8652  0.5845  0.1365
  753SOL     OW 2257   0.295   3.642   3.752 -0.0388  0.0822 -0.2135
  753SOL    HW1 2258   0.328   3.591   3.835  0.2732 -0.0014  0.5793
  753SOL    HW2 2259   0.209   3.693   3.775 -0.5574  1.0584 -0.5795
  754SOL     OW 2260   0.889   3.692   3.209  0.0595 -0.1772  0.0200
  754SOL    HW1 2261   0.940   3.684   3.121 -2.0678 -0.6999  1.6514
  754SOL    HW2 2262   0.864   3.596   3.237  0.9236  1.8373 -0.9813
  755SOL     OW 2263   0.646   0.481   3.574  0.3687 -0.0814  0.0103
  755SOL    HW1 2264   0.724   0.477   3.509 -1.1096  0.1060  1.9747
  755SOL    HW2 2265   0.671   0.461   3.670  0.1185  0.2276 -2.0532
  756SOL     OW 2266   2.167   1.192   2.082  0.3553  0.2215 -0.0176
  756SOL    HW1 2267   2.167   1.245   2.169 -0.5474 -2.8199 -3.3586
  756SOL    HW2 2268   2.245   1.232   2.029 -4.5895 -2.6051  3.0071
  757SOL     OW 2269   3.690   3.631   1.381 -0.2002 -0.0039  0.2837
  757SOL    HW1 2270   3.608   3.686   1.350  0.1087 -0.5884  0.7575
  757SOL    HW2 2271   3.669   3.598   1.476 -0.6772  0.2408 -0.4003
  758SOL     OW 2272   0.421   3.283   3.618  0.1342 -0.2411  0.1566
  758SOL    HW1 2273   0.341   3.346   3.605 -1.2159  0.5181 -1.1239
  758SOL    HW2 2274   0.508   3.310   3.573  0.9174 -0.3937 -0.4523
  759SOL     OW 2275   3.507   0.563   0.032 -0.0395  0.2260  0.0771
  759SOL    HW1 2276   3.464   0.623  -0.041 -0.4850 -1.2401  0.8877
  759SOL    HW2 2277   3.461   0.472   0.043 -0.2576  0.0428 -0.5668
  760SOL     OW 2278   1.675   0.257   0.449 -0.3465 -0.1695  0.1226
  760SOL    HW1 2279   1.685   0.334   0.381  1.8603  0.9250 -1.7113
  760SOL    HW2 2280   1.766   0.211   0.454  2.5871  0.0822 -1.2420
  761SOL     OW 2281   3.334   0.408   1.778 -0.1136 -0.1266 -0.0764
  761SOL    HW1 2282   3.335   0.348   1.694  0.3702 -0.7796 -0.7395
  761SOL    HW2 2283   3.321   0.361   1.867  0.4070 -0.3630  0.6102
  762SOL     OW 2284   1.946   2.547   2.519 -0.1102  0.0601  0.2471
  762SOL    HW1 2285   2.013   2.530   2.594 -0.3135  0.1294  0.8669
  762SOL    HW2 2286   2.003   2.543   2.434 -0.4866  0.6090 -0.6975
  763SOL     OW 2287   1.891   1.292   2.960  0.3493  0.1561 -0.6927
  763SOL    HW1 2288   1.846   1.346   3.036 -3.4288  0.5646  6.0772
  763SOL    HW2 2289   1.886   1.196   2.997 -0.7080 -4.5459  4.1848
  764SOL     OW 2290   0.377   0.674   2.951  0.2424  0.0703 -0.1797
  764SOL    HW1 2291   0.357   0.685   2.851 -0.3664 -1.5069  3.1507
  764SOL    HW2 2292   0.387   0.761   3.002 -0.2468 -2.9768 -0.1252
  765SOL     OW 2293   0.728   3.615   2.919 -0.1086 -0.2500  0.0475
  765SOL    HW1 2294   0.718   3.528   2.971  0.5373  1.3996 -1.5571
  765SOL    HW2 2295   0.639   3.666   2.910  1.6417 -1.0843 -0.9712
  766SOL     OW 2296   3.484   3.310   3.312  0.1051 -0.0503 -0.3716
  766SOL    HW1 2297   3.568   3.251   3.320 -1.3663  0.3437  0.9268
  766SOL    HW2 2298   3.459   3.346   3.219 -0.3241  0.3797  1.1315
  767SOL     OW 2299   1.238   0.174   1.065  0.0826 -0.0732 -0.0415
  767SOL    HW1 2300   1.280   0.144   0.978 -1.0747  0.5985  0.7233
  767SOL    HW2 2301   1.243   0.107   1.142 -0.6623  1.8867 -0.7520
  768SOL     OW 2302   0.012   0.409   0.445 -0.1877  0.0771  0.0663
  768SOL    HW1 2303  -0.073   0.463   0.464 -0.4404  0.6101  0.5822
  768SOL    HW2 2304   0.088   0.430   0.511  0.0381 -0.0724  0.0524
  769SOL     OW 2305   3.191   3.703   0.110 -0.0640 -0.2020 -0.1858
  769SOL    HW1 2306   3.235   3.694   0.016  0.0637  0.0399 -1.0279
  769SOL    HW2 2307   3.258   3.718   0.188  1.0949 -0.1429  1.0141
  770SOL     OW 2308   1.453   2.561   2.565  0.0253 -0.2015  0.4829
  770SOL    HW1 2309   1.546   2.517   2.569 -3.9956  1.3278  0.1122
  770SOL    HW2 2310   1.392   2.524   2.636  2.6908  1.9431 -2.6095
  771SOL     OW 2311   2.360   3.429   1.386  0.0891  0.0494 -0.0537
  771SOL    HW1 2312   2.403   3.389   1.302 -0.1032  0.7916  0.1857
  771SOL    HW2 2313   2.302   3.360   1.434  0.3828  0.3410  0.2062
  772SOL     OW 2314   2.479   0.331   0.926 -0.1863 -0.0337  0.0236
  772SOL    HW1 2315   2.485   0.426   0.966  0.6020 -0.0470 -0.0547
  772SOL    HW2 2316   2.575   0.297   0.925 -0.3439  0.8200  0.4517
  773SOL     OW 2317   3.709   3.107   2.217  0.1359 -0.1325  0.3460
  773SOL    HW1 2318   3.763   3.023   2.194  0.1325 -0.2145  0.3918
  773SOL    HW2 2319   3.670   3.111   2.312 -0.5950 -0.0928  0.7302
  774SOL     OW 2320   2.372   0.900   0.240 -0.1192 -0.2606 -0.1186
  774SOL    HW1 2321   2.362   0.826   0.168 -0.6117 -0.6923  0.5142
  774SOL    HW2 2322   2.450   0.872   0.301 -1.0625 -0.3176 -0.2295
  775SOL     OW 2323   0.596   3.121   3.284  0.0246 -0.1408 -0.0389
  775SOL    HW1 2324   0.624   3.185   3.357  1.2374  0.5403  1.1348
  775SOL    HW2 2325   0.504   3.149   3.251 -1.4125  0.5193 -0.9240
  776SOL     OW 2326   2.563   0.784   0.388 -0.2483  0.0484  0.3126
  776SOL    HW1 2327   2.506   0.781   0.471  0.6972  0.0464 -0.4291
  776SOL    HW2 2328   2.659   0.783   0.419 -0.6053  0.0012  0.7050
  777SOL     OW 2329   3.786   0.293   0.003  0.1462 -0.0452 -0.0738
  777SOL    HW1 2330   3.860   0.254  -0.058 -0.6158  0.8218 -0.8032
  777SOL    HW2 2331   3.801   0.256   0.097 -0.6208  0.9170 -0.2704
  778SOL     OW 2332   2.162   3.644   1.626  0.1426  0.1319  0.1318
  778SOL    HW1 2333   2.138   3.697   1.710 -0.9203 -0.3371 -0.2050
  778SOL    HW2 2334   2.261   3.623   1.615 -0.1172 -0.7584 -0.4602
  779SOL     OW 2335   1.785   1.201   3.221 -0.4890 -0.2319 -0.2923
  779SOL    HW1 2336   1.860   1.177   3.286  0.6725  2.7437  0.7683
  779SOL    HW2 2337   1.791   1.303   3.231  2.6146  0.2663  1.3163
  780SOL     OW 2338   1.621   0.573   1.368  0.0183  0.0360 -0.4062
  780SOL    HW1 2339   1.553   0.600   1.295  3.4172 -1.3251  2.9388
  780SOL    HW2 2340   1.703   0.512   1.340 -3.0063  2.7997  0.9871
  781SOL     OW 2341   1.343   0.542   0.835 -0.2415 -0.4943  0.0481
  781SOL    HW1 2342   1.283   0.465   0.805  0.0093  2.1717  0.7381
  781SOL    HW2 2343   1.439   0.529   0.803 -2.8928  0.8473  1.1321
  782SOL     OW 2344   1.133   0.832   2.724 -0.0247 -0.1691 -0.0345
  782SOL    HW1 2345   1.221   0.828   2.778  1.2643 -0.2039  1.0027
  782SOL    HW2 2346   1.057   0.775   2.763 -0.5705 -0.3141  0.7510
  783SOL     OW 2347   0.124   0.528   0.023  0.1221  0.0904  0.1413
  783SOL    HW1 2348   0.067   0.444   0.021 -0.0778 -0.7473 -0.7826
  783SOL    HW2 2349   0.167   0.539  -0.070 -0.5952 -1.1145 -1.2228
  784SOL     OW 2350   0.120   0.894   1.912  0.2571  0.0355  0.3265
  784SOL    HW1 2351   0.106   0.951   1.829  0.2540  0.5879 -0.7161
  784SOL    HW2 2352   0.046   0.826   1.927 -0.8021 -0.8188 -0.3004
  785SOL     OW 2353   3.414   0.893   3.394 -0.1427  0.0244 -0.0452
  785SOL    HW1 2354   3.510   0.929   3.390  1.5015  0.0089 -0.4999
  785SOL    HW2 2355   3.381   0.846   3.310 -0.0168  0.1931 -1.0781
  786SOL     OW 2356   3.049   3.125   3.581 -0.1702 -0.1003 -0.4050
  786SOL    HW1 2357   3.138   3.171   3.591  1.1419  0.8033  1.4142
  786SOL    HW2 2358   3.005   3.145   3.669 -1.1894  0.7446  2.7686
  787SOL     OW 2359   1.029   1.429   2.903  0.1359  0.0321 -0.0119
  787SOL    HW1 2360   1.039   1.461   3.000 -0.0727  0.8220  0.8111
  787SOL    HW2 2361   1.086   1.347   2.880 -0.1283 -0.6233 -1.1767
  788SOL     OW 2362   0.207   0.732   0.834 -0.0759 -0.1708  0.1065
  788SOL    HW1 2363   0.263   0.736   0.922 -0.0178  0.0183  0.6184
  788SOL    HW2 2364   0.271   0.725   0.753 -0.3501  0.5467  0.0966
  789SOL     OW 2365   2.290   0.184   1.059 -0.1513  0.1968  0.0616
  789SOL    HW1 2366   2.255   0.218   1.149  0.3898 -0.7086 -0.4105
  789SOL    HW2 2367   2.364   0.240   1.015  0.1806 -0.8782 -0.6132
  790SOL     OW 2368   2.362   0.921   3.704  0.0484  0.0132 -0.2250
  790SOL    HW1 2369   2.397   1.000   3.759 -0.1139  0.1497 -1.0129
  790SOL    HW2 2370   2.384   0.947   3.608 -0.7561  0.8502  1.6918
  791SOL     OW 2371   1.237   0.684   0.471 -0.0020  0.0154  0.0230
  791SOL    HW1 2372   1.256   0.744   0.553 -0.9492 -0.6977  0.1153
  791SOL    HW2 2373   1.148   0.636   0.484 -0.4409  0.7345  0.9210
  792SOL     OW 2374   3.146   0.283   1.352 -0.2645 -0.2177 -0.0464
  792SOL    HW1 2375   3.055   0.242   1.329 -1.7746 -1.4069 -0.9429
  792SOL    HW2 2376   3.125   0.376   1.390 -0.8691  1.7774  0.7914
  793SOL     OW 2377   3.545   3.117   0.510  0.3963 -0.2028 -0.5309
  793SOL    HW1 2378   3.469   3.048   0.515 -2.9190 -2.5087  1.3730
  793SOL    HW2 2379   3.550   3.166   0.601 -0.2450  2.0924  6.2081
  794SOL     OW 2380   1.782   3.329   2.010  0.1167  0.1022 -0.0653
  794SOL    HW1 2381   1.783   3.300   1.912 -0.3725 -0.6034  0.7607
  794SOL    HW2 2382   1.740   3.247   2.055  0.3144 -0.7780 -1.9152
  795SOL     OW 2383   0.081   3.713   2.703  0.0754  0.0552 -0.0780
  795SOL    HW1 2384   0.017   3.779   2.658 -0.5767  0.7384  0.6445
  795SOL    HW2 2385   0.040   3.619   2.706 -0.4881 -0.2003  0.8817
  796SOL     OW 2386   1.535   1.112   2.185 -0.1725  0.0302 -0.0814
  796SOL    HW1 2387   1.517   1.160   2.274  0.0493  1.4083  0.1023
  796SOL    HW2 2388   1.463   1.041   2.173 -1.1454 -0.4026 -0.3915
  797SOL     OW 2389   3.544   3.283   0.740  0.1533  0.3511  0.5832
  797SOL    HW1 2390   3.518   3.382   0.727  0.7072 -4.6094 -0.1562
  797SOL    HW2 2391   3.599   3.272   0.825 -2.7860 -1.3800 -5.4634
  798SOL     OW 2392   2.125   2.549   2.307 -0.2362 -0.1493  0.0834
  798SOL    HW1 2393   2.177   2.609   2.372  0.5761  3.5242  1.1590
  798SOL    HW2 2394   2.112   2.588   2.214 -0.2118  0.9043 -0.7823
  799SOL     OW 2395   3.008   2.237   2.245 -0.0249  0.0428 -0.2254
  799SOL    HW1 2396   3.085   2.251   2.180 -1.9205  1.3748  1.0367
  799SOL    HW2 2397   2.985   2.325   2.295  1.4884 -1.3735 -1.4529
  800SOL     OW 2398   0.813   3.660   2.671 -0.3056 -0.2349 -0.4011
  800SOL    HW1 2399   0.870   3.744   2.667  1.1625  1.4742  1.5498
  800SOL    HW2 2400   0.784   3.642   2.768  0.8063  0.5434  2.0705
  801SOL     OW 2401   0.537   2.390   3.070  0.1598 -0.3474 -0.0658
  801SOL    HW1 2402   0.567   2.339   3.153 -0.6318  2.1258 -2.1486
  801SOL    HW2 2403   0.485   2.327   3.006  1.9824  3.1266  2.5881
  802SOL     OW 2404   3.275   3.311   2.209  0.1335  0.1739 -0.1418
  802SOL    HW1 2405   3.297   3.243   2.284 -0.4557  0.0856 -0.4071
  802SOL    HW2 2406   3.194   3.278   2.156  1.0870 -0.4583  0.4057
  803SOL     OW 2407   2.152   2.906   1.995 -0.0780  0.0227 -0.0087
  803SOL    HW1 2408   2.109   2.943   2.079 -2.0987 -0.6226  2.4768
  803SOL    HW2 2409   2.187   2.968   1.923  0.4337  0.5808 -2.0502
  804SOL     OW 2410   3.195   2.684   3.761 -0.2115 -0.3530  0.2277
  804SOL    HW1 2411   3.174   2.601   3.705 -0.2767 -0.2589  0.1686
  804SOL    HW2 2412   3.115   2.746   3.774 -0.1460  0.0687  0.2999
  805SOL     OW 2413   1.246   0.402   1.927 -0.1669 -0.1957  0.0788
  805SOL    HW1 2414   1.182   0.438   1.993 -4.7115  1.9095  4.5738
  805SOL    HW2 2415   1.292   0.480   1.884  2.8283  3.9828 -3.1924
  806SOL     OW 2416   3.700   0.821   2.899  0.1931  0.2546 -0.0016
  806SOL    HW1 2417   3.751   0.772   2.825  1.7651 -0.3082 -0.9669
  806SOL    HW2 2418   3.603   0.787   2.903 -1.7544  0.0564  0.4024
  807SOL     OW 2419   2.969   3.768   1.512  0.0933 -0.0064 -0.2067
  807SOL    HW1 2420   2.901   3.751   1.588 -0.0906 -0.0231  0.6904
  807SOL    HW2 2421   3.062   3.747   1.549  0.7684 -0.1466  0.1468
  808SOL     OW 2422   2.132   0.942   2.184  0.5644 -0.6516  0.1573
  808SOL    HW1 2423   2.037   0.958   2.215-10.0203  2.7495  2.9466
  808SOL    HW2 2424   2.166   1.024   2.137  2.5014  9.0109 -5.3446
  809SOL     OW 2425   2.591   1.180   2.119  0.0418 -0.0620 -0.0082
  809SOL    HW1 2426   2.512   1.178   2.182  1.4908  3.0512 -3.3257
  809SOL    HW2 2427   2.574   1.272   2.080 -1.6027 -1.9819  2.5285
  810SOL     OW 2428   0.698   2.497   2.871  0.2216 -0.0135  0.2548
  810SOL    HW1 2429   0.648   2.465   2.952 -0.6956 -0.6380  0.9597
  810SOL    HW2 2430   0.703   2.599   2.880  0.5915  2.7579  0.1687
  811SOL     OW 2431   3.301   3.237   3.567  0.0243 -0.0594 -0.0174
  811SOL    HW1 2432   3.342   3.328   3.545 -0.3458 -2.0380  0.6673
  811SOL    HW2 2433   3.368   3.202   3.637 -1.7047  0.7366 -1.8609
  812SOL     OW 2434   2.828   0.526   1.664 -0.0065 -0.0579  0.2187
  812SOL    HW1 2435   2.758   0.559   1.731 -0.4884  1.3311  0.5196
  812SOL    HW2 2436   2.801   0.545   1.568 -0.5784  0.7153  0.6186
  813SOL     OW 2437   2.675   1.474   3.055  0.1108  0.1092  0.0092
  813SOL    HW1 2438   2.647   1.445   2.957 -0.1701  0.4580  1.5816
  813SOL    HW2 2439   2.672   1.389   3.113 -0.2030  2.8073 -1.8310
  814SOL     OW 2440   2.612   0.589   0.060  0.0413 -0.0863  0.0250
  814SOL    HW1 2441   2.525   0.643   0.067 -1.5061  0.1854 -0.2133
  814SOL    HW2 2442   2.687   0.625   0.121  0.6244 -0.9107  0.0892
  815SOL     OW 2443   0.743   0.876   3.101  0.1354  0.3200  0.1805
  815SOL    HW1 2444   0.840   0.844   3.100  0.4364  0.5738 -0.2166
  815SOL    HW2 2445   0.690   0.813   3.160 -0.4328  0.9125  0.4630
  816SOL     OW 2446   2.384   3.725   1.025 -0.1203  0.1774  0.1447
  816SOL    HW1 2447   2.343   3.819   1.025  0.6473  0.2762  0.7460
  816SOL    HW2 2448   2.388   3.683   0.931  0.2089 -0.1446  0.4916
  817SOL     OW 2449   3.404   3.399   1.060 -0.1494  0.0476 -0.0869
  817SOL    HW1 2450   3.438   3.491   1.028 -0.0912  1.7489  0.5710
  817SOL    HW2 2451   3.315   3.372   1.017 -1.1969 -0.2826  0.6857
  818SOL     OW 2452   1.100   0.272   0.200 -0.2520  0.1939 -0.2456
  818SOL    HW1 2453   1.184   0.286   0.254 -7.3150 -0.8321  3.2516
  818SOL    HW2 2454   1.030   0.268   0.274  8.6134  1.2812  1.1206
  819SOL     OW 2455   3.258   2.722   0.299 -0.3890 -0.0966  0.1076
  819SOL    HW1 2456   3.255   2.630   0.257 -0.0156 -0.3380 -0.5332
  819SOL    HW2 2457   3.324   2.772   0.238  0.4019 -0.7189  0.1084
  820SOL     OW 2458   2.446   0.098   1.706 -0.1233  0.3692 -0.0710
  820SOL    HW1 2459   2.395   0.068   1.623 -0.3903  0.3238  1.2724
  820SOL    HW2 2460   2.504   0.182   1.694 -1.2549 -0.4552  0.9251
  821SOL     OW 2461   2.088   3.788   1.866 -0.2409  0.1722  0.1220
  821SOL    HW1 2462   1.986   3.797   1.855  0.7818 -1.9207  0.9429
  821SOL    HW2 2463   2.138   3.876   1.862  0.3641 -2.3067  0.4276
  822SOL     OW 2464   3.159   1.585   3.488  0.0975 -0.3922 -0.2030
  822SOL    HW1 2465   3.131   1.668   3.546  2.1963  2.0856 -3.5352
  822SOL    HW2 2466   3.221   1.624   3.413 -0.6901  3.1213  1.8234
  823SOL     OW 2467   2.371   0.644   1.506  0.1016 -0.0249 -0.0423
  823SOL    HW1 2468   2.385   0.711   1.583 -1.3630  0.0601 -2.5535
  823SOL    HW2 2469   2.307   0.694   1.444  0.9693  1.0657  1.8753
  824SOL     OW 2470   2.656   0.943   3.065 -0.1583  0.2430 -0.0723
  824SOL    HW1 2471   2.588   0.869   3.083 -0.0944 -3.1508 -0.9754
  824SOL    HW2 2472   2.733   0.909   3.006  0.8549 -2.7999 -1.6792
  825SOL     OW 2473   0.086   2.802   3.245 -0.0383 -0.1720 -0.0723
  825SOL    HW1 2474  -0.007   2.802   3.286  0.2334  0.2937 -0.3089
  825SOL    HW2 2475   0.151   2.737   3.291 -0.1096  0.1839 -1.1653
  826SOL     OW 2476   1.934   1.981   2.072 -0.2918 -0.5639  0.0709
  826SOL    HW1 2477   1.976   2.068   2.104  1.4912  3.4105  1.5503
  826SOL    HW2 2478   1.988   1.933   1.999  2.0447 -2.9547 -3.2665
  827SOL     OW 2479   0.639   2.422   2.621  0.0173  0.1054 -0.1705
  827SOL    HW1 2480   0.673   2.330   2.597 -0.2293  2.1603  1.5946
  827SOL    HW2 2481   0.664   2.441   2.721  1.3017 -0.1858  3.1296
  828SOL     OW 2482   3.372   2.771   3.455 -0.1172  0.0455 -0.0201
  828SOL    HW1 2483   3.453   2.831   3.431  1.3477 -0.4735 -0.6030
  828SOL    HW2 2484   3.280   2.814   3.469 -0.1889 -0.7845 -0.3936
  829SOL     OW 2485   1.645   0.640   2.656 -0.0563 -0.0239  0.1751
  829SOL    HW1 2486   1.580   0.707   2.617  0.6575  0.0182 -0.8715
  829SOL    HW2 2487   1.665   0.651   2.755  0.9277 -0.3544  0.8682
  830SOL     OW 2488   2.157   0.793   0.373 -0.2027 -0.1904 -0.0152
  830SOL    HW1 2489   2.203   0.799   0.464 -0.0485  0.2976 -0.0064
  830SOL    HW2 2490   2.212   0.850   0.308  0.7221 -0.1112  0.5776
  831SOL     OW 2491   3.569   0.493   1.354 -0.5557 -0.1624  0.0135
  831SOL    HW1 2492   3.584   0.399   1.394 -0.5907  0.5795 -0.0285
  831SOL    HW2 2493   3.477   0.497   1.310  0.1967 -0.1244  0.3934
  832SOL     OW 2494   2.791   2.065   2.273 -0.1910 -0.0246  0.1700
  832SOL    HW1 2495   2.869   2.130   2.257  0.1664 -0.7670  0.0966
  832SOL    HW2 2496   2.840   1.985   2.311 -0.6149  0.4887 -0.1045
  833SOL     OW 2497   2.692   1.271   2.363  0.0331 -0.0869  0.1926
  833SOL    HW1 2498   2.772   1.332   2.383  1.9606  1.0307  0.5510
  833SOL    HW2 2499   2.695   1.235   2.267  0.0170 -1.1253 -1.2531
  834SOL     OW 2500   2.707   1.216   0.217  0.3401  0.0662  0.0957
  834SOL    HW1 2501   2.735   1.289   0.152 -2.0667 -3.8033  2.2001
  834SOL    HW2 2502   2.786   1.213   0.281 -3.2021  0.7869 -1.5718
  835SOL     OW 2503   2.132   1.680   3.282 -0.0670 -0.1490  0.1701
  835SOL    HW1 2504   2.221   1.733   3.283  1.8827  1.1628  0.4456
  835SOL    HW2 2505   2.068   1.741   3.230 -2.2397  1.8054 -1.4724
  836SOL     OW 2506   0.337   0.231   1.967  0.0903  0.1340  0.1428
  836SOL    HW1 2507   0.431   0.263   1.993  0.4098  0.4433 -0.6133
  836SOL    HW2 2508   0.319   0.236   1.866  0.9274  0.1005 -0.5676
  837SOL     OW 2509   3.410   2.494   3.016 -0.1798  0.0594  0.1222
  837SOL    HW1 2510   3.318   2.526   3.046 -1.2204  0.5311 -0.4843
  837SOL    HW2 2511   3.429   2.399   3.043 -0.0078 -0.3103 -0.4342
  838SOL     OW 2512   2.283   1.466   2.415  0.0705  0.1114 -0.3037
  838SOL    HW1 2513   2.336   1.389   2.376  0.9622 -1.4456 -0.7954
  838SOL    HW2 2514   2.336   1.511   2.490  0.3113  2.3450  2.1314
  839SOL     OW 2515   1.034   0.493   0.519  0.2193  0.1318 -0.2114
  839SOL    HW1 2516   0.991   0.504   0.612 -2.1860 -0.8438  1.9378
  839SOL    HW2 2517   0.972   0.434   0.464 -2.6068 -1.2077 -0.4673
  840SOL     OW 2518   0.018   3.397   2.938 -0.0297  0.2092 -0.2787
  840SOL    HW1 2519   0.071   3.434   3.018  0.1883 -1.5130  1.9803
  840SOL    HW2 2520  -0.011   3.304   2.971  0.2625 -0.4969  1.9316
  841SOL     OW 2521   1.625   2.718   2.112  0.2353 -0.5391 -0.0162
  841SOL    HW1 2522   1.576   2.740   2.028 -3.2535  0.6181 -7.4792
  841SOL    HW2 2523   1.697   2.779   2.143  7.6397  5.3293  3.8555
  842SOL     OW 2524   0.357   0.296   2.993 -0.1947  0.3768 -0.3537
  842SOL    HW1 2525   0.314   0.388   2.990  0.2032  0.9662  2.1059
  842SOL    HW2 2526   0.342   0.236   2.910  0.9376 -1.4588 -0.0050
  843SOL     OW 2527   1.872   0.315   1.683 -0.4049 -0.1243  0.0618
  843SOL    HW1 2528   1.853   0.219   1.648  1.2638  5.7006  1.3433
  843SOL    HW2 2529   1.790   0.378   1.690  2.7406 -2.7259 -0.4342
  844SOL     OW 2530   2.715   1.057   3.710 -0.3674  0.1015  0.1368
  844SOL    HW1 2531   2.634   1.080   3.764  1.4782 -1.0062 -0.2761
  844SOL    HW2 2532   2.757   0.969   3.739 -1.4787  1.5767 -0.1109
  845SOL     OW 2533   3.059   0.225   2.146  0.2775 -0.2450 -0.3286
  845SOL    HW1 2534   3.018   0.197   2.056  0.0855 -0.8652  0.4606
  845SOL    HW2 2535   3.074   0.326   2.138  0.0600  0.2323  0.4190
  846SOL     OW 2536   3.372   0.341   0.074  0.1232 -0.1446  0.3161
  846SOL    HW1 2537   3.435   0.261   0.079  0.3724 -2.5154 -0.7303
  846SOL    HW2 2538   3.277   0.304   0.065 -1.3262 -1.3941  0.2405
  847SOL     OW 2539   0.275   0.255   1.708  0.1223 -0.0099 -0.0449
  847SOL    HW1 2540   0.355   0.256   1.644  1.3624 -0.2122 -0.1231
  847SOL    HW2 2541   0.188   0.247   1.656 -0.9809 -0.0065  0.5631
  848SOL     OW 2542   0.309   3.751   3.319 -0.1984 -0.2014  0.2215
  848SOL    HW1 2543   0.374   3.700   3.258  0.9047 -0.6411 -0.4104
  848SOL    HW2 2544   0.301   3.845   3.279 -0.0135  1.1862  0.1262
  849SOL     OW 2545   2.098   0.001   0.284 -0.3802  0.0809  0.1900
  849SOL    HW1 2546   2.025  -0.024   0.351  3.3507  2.9926 -3.5146
  849SOL    HW2 2547   2.125   0.100   0.299 -2.7281 -6.0997  0.7317
  850SOL     OW 2548   0.228   3.283   2.576  0.0893 -0.1293 -0.1067
  850SOL    HW1 2549   0.160   3.328   2.513 -2.6903  0.7785 -2.0644
  850SOL    HW2 2550   0.221   3.183   2.551 -0.2636 -2.5144 -0.3212
  851SOL     OW 2551   0.674   1.288   2.749  0.1404 -0.2752 -0.0371
  851SOL    HW1 2552   0.703   1.218   2.817 -0.4622  1.0559 -1.3005
  851SOL    HW2 2553   0.636   1.227   2.675  1.0999  0.7882  1.9720
  852SOL     OW 2554   3.159   2.209   3.437  0.0326 -0.0671  0.0932
  852SOL    HW1 2555   3.161   2.107   3.431 -1.1376 -0.9168  1.7583
  852SOL    HW2 2556   3.254   2.241   3.412  0.5095  1.0157  0.6885
  853SOL     OW 2557   3.436   0.876   0.590  0.3316 -0.1653  0.2861
  853SOL    HW1 2558   3.507   0.861   0.518  0.9881  0.3706  0.3766
  853SOL    HW2 2559   3.342   0.899   0.555 -0.1102  0.2048  0.9674
  854SOL     OW 2560   3.237   0.254   0.889 -0.0722  0.0049  0.0835
  854SOL    HW1 2561   3.275   0.167   0.929 -0.1925 -1.2379  0.3530
  854SOL    HW2 2562   3.134   0.251   0.886 -1.3546 -0.2818  0.6706
  855SOL     OW 2563   0.082   2.625   3.515  0.0944  0.4891 -0.3527
  855SOL    HW1 2564   0.056   2.721   3.539 -1.0084  0.1592 -0.3462
  855SOL    HW2 2565   0.171   2.624   3.463 -0.3154 -1.5460 -0.2150
  856SOL     OW 2566   0.285   0.121   2.304 -0.2206 -0.2678 -0.0670
  856SOL    HW1 2567   0.270   0.039   2.365  1.1391  1.0676  1.7569
  856SOL    HW2 2568   0.214   0.157   2.240  0.9760  1.9319 -0.2442
  857SOL     OW 2569   2.236   3.152   1.891  0.0525 -0.0652 -0.0671
  857SOL    HW1 2570   2.257   3.184   1.987  0.5651  0.3607 -0.1307
  857SOL    HW2 2571   2.319   3.168   1.834  0.1418 -0.0531  0.2942
  858SOL     OW 2572   3.654   3.559   2.319 -0.1431  0.2818  0.1352
  858SOL    HW1 2573   3.576   3.618   2.347 -1.2439 -0.0648  0.6626
  858SOL    HW2 2574   3.712   3.598   2.244  1.0874 -0.8477 -0.4247
  859SOL     OW 2575   0.231   0.445   0.262 -0.1044  0.0141  0.0648
  859SOL    HW1 2576   0.201   0.482   0.171  0.0706  0.5674 -0.9938
  859SOL    HW2 2577   0.146   0.418   0.312 -0.5038  0.5484  0.5166
  860SOL     OW 2578   3.731   0.250   1.165 -0.2675 -0.1852  0.1645
  860SOL    HW1 2579   3.718   0.165   1.110 -0.9567  0.1450  0.8952
  860SOL    HW2 2580   3.693   0.244   1.260 -0.1819 -0.0647 -0.9355
  861SOL     OW 2581   3.550   3.310   2.631 -0.1064 -0.0688  0.0639
  861SOL    HW1 2582   3.484   3.370   2.582 -0.5125  0.4157 -0.4153
  861SOL    HW2 2583   3.631   3.372   2.642 -0.3354  0.1637  0.4321
  862SOL     OW 2584   1.134   0.300   2.708 -0.0836  0.2323  0.2041
  862SOL    HW1 2585   1.065   0.369   2.677 -0.2427 -0.2729  0.3910
  862SOL    HW2 2586   1.230   0.328   2.684 -0.1932 -0.7330  0.3849
  863SOL     OW 2587   0.544   3.675   2.610  0.1360 -0.2349 -0.1822
  863SOL    HW1 2588   0.645   3.654   2.609  0.4770  0.5315  0.3795
  863SOL    HW2 2589   0.499   3.591   2.571 -1.1921 -0.0965  0.7091
  864SOL     OW 2590   2.787   0.854   1.791 -0.0207 -0.0388  0.1890
  864SOL    HW1 2591   2.877   0.844   1.743  0.7559  0.6043  0.4315
  864SOL    HW2 2592   2.758   0.762   1.824 -1.1731 -0.2062  0.3672
  865SOL     OW 2593   0.340   3.440   3.318 -0.2572 -0.1462 -0.1518
  865SOL    HW1 2594   0.305   3.460   3.412  1.0543  0.8722  1.6861
  865SOL    HW2 2595   0.417   3.505   3.301  0.6984  1.4293  0.8545
  866SOL     OW 2596   2.212   1.357   2.736  0.1246 -0.0854 -0.0751
  866SOL    HW1 2597   2.241   1.260   2.731  0.8182  0.9190  1.0719
  866SOL    HW2 2598   2.112   1.360   2.717 -0.3467  0.5279 -0.3517
  867SOL     OW 2599   3.731   3.146   2.999  0.0582  0.1814 -0.1302
  867SOL    HW1 2600   3.650   3.136   2.940 -0.2767  0.3754 -0.1861
  867SOL    HW2 2601   3.809   3.087   2.972  1.1533 -1.3852 -0.5719
  868SOL     OW 2602   3.541   3.574   0.472  0.2253  0.1216 -0.2391
  868SOL    HW1 2603   3.495   3.649   0.420  0.9678 -1.1906  0.8269
  868SOL    HW2 2604   3.641   3.597   0.485 -1.3955 -0.3116 -0.0915
  869SOL     OW 2605   1.064   3.003   2.359  0.3766  0.1242 -0.3609
  869SOL    HW1 2606   0.990   2.958   2.303 -4.8564 -1.7939 -0.8662
  869SOL    HW2 2607   1.041   3.010   2.460 -2.2319  0.6204  4.3657
  870SOL     OW 2608   2.891   1.166   3.376 -0.0376  0.1293  0.0072
  870SOL    HW1 2609   2.885   1.194   3.474 -0.9984  1.0516  0.9362
  870SOL    HW2 2610   2.982   1.131   3.352 -0.9628  0.0522 -0.7821
  871SOL     OW 2611   2.600   0.784   2.434 -0.2662 -0.0470  0.4224
  871SOL    HW1 2612   2.673   0.790   2.366  2.0837  0.0027 -1.8525
  871SOL    HW2 2613   2.514   0.827   2.400 -2.7421  1.1253 -1.0746
  872SOL     OW 2614   3.445   0.009   1.659  0.1115 -0.1121  0.2361
  872SOL    HW1 2615   3.452   0.037   1.758 -0.5645  0.8835  0.5440
  872SOL    HW2 2616   3.509  -0.067   1.633  0.1649 -0.6583 -0.2393
  873SOL     OW 2617   0.778   3.212   2.587  0.1259 -0.1774  0.0493
  873SOL    HW1 2618   0.816   3.306   2.568  0.5564  0.6446 -0.4115
  873SOL    HW2 2619   0.714   3.191   2.509 -0.6275 -0.4378 -1.2364
  874SOL     OW 2620   1.047   0.541   3.210  0.0438 -0.2539 -0.2656
  874SOL    HW1 2621   1.148   0.535   3.205 -2.3507 -1.0248 -0.0716
  874SOL    HW2 2622   1.014   0.461   3.157  1.1749  0.7440  1.2489
  875SOL     OW 2623   2.213   0.530   0.340 -0.2084 -0.0116 -0.0253
  875SOL    HW1 2624   2.178   0.625   0.353  0.6223 -1.8995 -0.1627
  875SOL    HW2 2625   2.314   0.519   0.355 -1.1215  0.0957  0.0250
  876SOL     OW 2626   1.351   0.915   2.182 -0.0528 -0.0723  0.2792
  876SOL    HW1 2627   1.282   0.969   2.237  1.1796 -0.6441 -0.7945
  876SOL    HW2 2628   1.383   0.835   2.241 -0.9616  0.8363 -0.6676
  877SOL     OW 2629   1.706   0.047   2.464  0.0886 -0.2743  0.1163
  877SOL    HW1 2630   1.774   0.123   2.483 -0.9536 -0.7602  0.8426
  877SOL    HW2 2631   1.663   0.015   2.551  0.8640  1.1380 -0.3158
  878SOL     OW 2632   3.337   3.107   2.399 -0.0358  0.1052  0.2385
  878SOL    HW1 2633   3.438   3.113   2.400 -1.8250  0.1242  0.1702
  878SOL    HW2 2634   3.314   3.114   2.499  0.6959 -0.0991 -0.2684
  879SOL     OW 2635   1.673   0.528   0.959  0.0674  0.3000 -0.3821
  879SOL    HW1 2636   1.748   0.594   0.945 -2.1045 -1.0672  0.6572
  879SOL    HW2 2637   1.630   0.501   0.871  0.9638  0.6695  2.0675
  880SOL     OW 2638   2.457   0.583   1.043  0.0866  0.0937  0.0384
  880SOL    HW1 2639   2.529   0.654   1.062  1.2656  0.8226  1.1955
  880SOL    HW2 2640   2.376   0.621   0.992 -1.4797 -0.0954 -0.2932
  881SOL     OW 2641   1.709   3.589   2.050  0.0273 -0.1695  0.0677
  881SOL    HW1 2642   1.713   3.615   2.148  0.5373 -1.1860 -2.5306
  881SOL    HW2 2643   1.736   3.493   2.031 -0.4092  3.3758  1.8827
  882SOL     OW 2644   0.257   3.407   1.586 -0.1514  0.1329  0.0013
  882SOL    HW1 2645   0.307   3.319   1.578  0.5976 -0.8791 -0.4223
  882SOL    HW2 2646   0.288   3.470   1.511  0.2469  1.3120 -0.9748
  883SOL     OW 2647   0.628   3.580   3.665  0.3131 -0.0352 -0.3187
  883SOL    HW1 2648   0.563   3.642   3.614  0.4686 -0.1016  0.1804
  883SOL    HW2 2649   0.724   3.601   3.632  1.9031 -0.2325  0.9556
  884SOL     OW 2650   3.294   3.092   2.671 -0.2625 -0.2069 -0.1389
  884SOL    HW1 2651   3.258   3.189   2.673 -0.4068  3.3673  0.3087
  884SOL    HW2 2652   3.368   3.074   2.741  2.4028 -0.1885  2.5684
  885SOL     OW 2653   0.932   0.354   3.039 -0.1146 -0.2226 -0.2230
  885SOL    HW1 2654   0.910   0.400   2.950 -1.1588  1.4396 -2.1643
  885SOL    HW2 2655   0.849   0.336   3.097 -1.5048 -0.6135  2.1865
  886SOL     OW 2656   1.166   3.036   2.828 -0.4101  0.1010 -0.2364
  886SOL    HW1 2657   1.229   2.999   2.756  3.6052 -1.0223 -0.7818
  886SOL    HW2 2658   1.210   3.081   2.910  2.7619  0.6971  1.7748
  887SOL     OW 2659   3.532   0.244   3.428  0.1864  0.1864 -0.1691
  887SOL    HW1 2660   3.564   0.329   3.473 -0.0434 -0.4540 -0.9246
  887SOL    HW2 2661   3.617   0.199   3.393 -0.3671  0.0028  0.2274
  888SOL     OW 2662   0.124   3.532   0.290 -0.1407  0.1514 -0.1271
  888SOL    HW1 2663   0.050   3.534   0.220 -1.0612 -0.0412 -0.4163
  888SOL    HW2 2664   0.205   3.491   0.244  1.3391 -0.1160 -0.0014
  889SOL     OW 2665   2.863   0.416   3.549  0.1732  0.3627  0.2461
  889SOL    HW1 2666   2.935   0.353   3.514 -0.8381 -2.4198 -1.5446
  889SOL    HW2 2667   2.774   0.370   3.524  0.8105 -3.5765 -2.0270
  890SOL     OW 2668   3.472   2.247   3.120 -0.3292 -0.0943  0.2584
  890SOL    HW1 2669   3.457   2.268   3.219  1.4844  0.8515 -0.5703
  890SOL    HW2 2670   3.421   2.162   3.090  1.1187  0.0182 -2.7245
  891SOL     OW 2671   2.644   2.660   2.681 -0.1191  0.1197 -0.0968
  891SOL    HW1 2672   2.734   2.705   2.663  0.5920  0.4591 -0.3089
  891SOL    HW2 2673   2.662   2.593   2.756 -0.3750  0.6838  0.5846
  892SOL     OW 2674   3.275   0.044   2.648 -0.4528 -0.1047 -0.2671
  892SOL    HW1 2675   3.227   0.002   2.567 -0.7392  0.6184 -0.7261
  892SOL    HW2 2676   3.358  -0.012   2.672  1.0842  0.1184  1.0879
  893SOL     OW 2677   2.871   2.807   2.604  0.0661  0.0481 -0.0277
  893SOL    HW1 2678   2.941   2.734   2.586  0.8552 -0.5298  0.3280
  893SOL    HW2 2679   2.919   2.883   2.654  0.9676 -0.0883  0.5100
  894SOL     OW 2680   2.866   0.380   0.491 -0.0694  0.3176 -0.1909
  894SOL    HW1 2681   2.770   0.407   0.513 -2.1058 -0.9439 -0.0142
  894SOL    HW2 2682   2.864   0.294   0.435 -1.9255 -1.3769 -0.3703
  895SOL     OW 2683   3.115   1.765   2.531  0.0520 -0.0270  0.0001
  895SOL    HW1 2684   3.170   1.807   2.605  0.5330 -0.5211 -0.8496
  895SOL    HW2 2685   3.169   1.732   2.450  0.2050  0.2440  0.6038
  896SOL     OW 2686   1.321   1.081   3.074 -0.2526 -0.2959 -0.0284
  896SOL    HW1 2687   1.276   1.140   3.003  1.9110  1.3266 -0.1245
  896SOL    HW2 2688   1.416   1.117   3.069 -0.3995  0.5272 -1.7918
  897SOL     OW 2689   1.968   3.563   1.452  0.0820 -0.0275  0.1421
  897SOL    HW1 2690   2.045   3.587   1.514 -0.6156 -0.7831 -1.0403
  897SOL    HW2 2691   1.999   3.471   1.420  0.5818  1.7878  1.5861
  898SOL     OW 2692   1.541   0.112   1.344 -0.2995 -0.0927 -0.5091
  898SOL    HW1 2693   1.644   0.115   1.333  2.2385 -0.2230  0.2978
  898SOL    HW2 2694   1.511   0.111   1.442 -0.8927 -0.4047  3.5128
  899SOL     OW 2695   0.586   1.099   2.575 -0.0024  0.4891 -0.1368
  899SOL    HW1 2696   0.641   1.062   2.497  0.3443 -2.3060 -0.6772
  899SOL    HW2 2697   0.545   1.018   2.622  0.6726 -2.0662 -0.9567
  900SOL     OW 2698   0.958   3.206   2.875  0.2054  0.4116  0.2328
  900SOL    HW1 2699   0.863   3.172   2.846 -1.5618 -1.5325 -0.7176
  900SOL    HW2 2700   1.036   3.137   2.882  1.8596 -1.7393 -0.4591
  901SOL     OW 2701   3.599   2.865   2.602 -0.0763 -0.2658  0.1964
  901SOL    HW1 2702   3.692   2.884   2.639 -0.2591 -0.6507  0.2566
  901SOL    HW2 2703   3.557   2.795   2.661  0.3533 -0.0238  0.6118
  902SOL     OW 2704   2.347   1.071   2.507  0.0979  0.1568 -0.3333
  902SOL    HW1 2705   2.344   0.986   2.454 -0.2948 -0.9079 -0.6711
  902SOL    HW2 2706   2.336   1.064   2.608 -0.4986  0.7467  2.3108
  903SOL     OW 2707   2.947   1.756   3.336 -0.1829 -0.2356  0.2913
  903SOL    HW1 2708   2.896   1.811   3.268 -0.3255  0.1628 -1.6407
  903SOL    HW2 2709   2.972   1.670   3.291  0.1069 -1.1207 -1.0129
  904SOL     OW 2710   2.829   3.181   0.289  0.0488  0.0954  0.5235
  904SOL    HW1 2711   2.856   3.268   0.336 -2.3495 -5.7701 -3.8111
  904SOL    HW2 2712   2.875   3.108   0.341 -2.4385  3.5018 -2.5923
  905SOL     OW 2713   3.230   0.035   3.127 -0.0499  0.3344  0.0672
  905SOL    HW1 2714   3.197   0.061   3.033 -0.8328  0.3200 -1.2580
  905SOL    HW2 2715   3.314   0.087   3.153  1.9286  1.3078  1.8810
  906SOL     OW 2716   2.083   1.284   1.527 -0.1164 -0.2357 -0.0636
  906SOL    HW1 2717   2.088   1.293   1.427  0.2297  0.3624  2.9712
  906SOL    HW2 2718   1.992   1.242   1.545  2.6587  1.2991  0.1145
  907SOL     OW 2719   0.046   0.634   2.740  0.1953 -0.2164  0.0553
  907SOL    HW1 2720   0.071   0.598   2.833 -0.3188  1.8704 -1.7921
  907SOL    HW2 2721   0.049   0.561   2.666  0.4414  2.1998  0.5968
  908SOL     OW 2722   1.866   0.145   2.101 -0.1382  0.1310 -0.1414
  908SOL    HW1 2723   1.955   0.112   2.135 -1.6578 -0.2455 -1.6201
  908SOL    HW2 2724   1.839   0.097   2.020  0.5895 -0.4448  0.9485
  909SOL     OW 2725   3.362   3.491   1.791  0.1511 -0.1090 -0.0496
  909SOL    HW1 2726   3.292   3.561   1.816  0.1994  0.6002 -0.0391
  909SOL    HW2 2727   3.401   3.455   1.880  0.5614  0.1524  0.5871
  910SOL     OW 2728   2.585   0.525   2.489 -0.4074 -0.0599 -0.0347
  910SOL    HW1 2729   2.591   0.624   2.471  3.2717  0.4484  0.6358
  910SOL    HW2 2730   2.502   0.467   2.478  1.0696 -3.2836  0.4952
  911SOL     OW 2731   2.260   0.548   0.685 -0.2396  0.0067  0.3984
  911SOL    HW1 2732   2.280   0.449   0.699 -1.0698 -1.0068  0.3723
  911SOL    HW2 2733   2.163   0.551   0.653 -1.7301 -1.1569 -0.3905
  912SOL     OW 2734   3.424   0.659   1.537  0.0058 -0.1161  0.2631
  912SOL    HW1 2735   3.478   0.597   1.475 -0.2472 -0.2256 -0.5066
  912SOL    HW2 2736   3.366   0.722   1.482  0.8820 -0.2203 -1.0921
  913SOL     OW 2737   1.263   2.066   2.884 -0.2753 -0.1637 -0.1331
  913SOL    HW1 2738   1.235   1.968   2.886  0.6268  5.1740 -0.3351
  913SOL    HW2 2739   1.186   2.123   2.844  3.2419 -3.9541  1.9971
  914SOL     OW 2740   0.950   0.511   0.780  0.1660 -0.0529  0.2692
  914SOL    HW1 2741   0.855   0.529   0.814  1.5314 -0.4589 -1.5398
  914SOL    HW2 2742   1.013   0.537   0.858 -0.7465 -0.9846 -2.0140
  915SOL     OW 2743   3.214   0.677   0.833 -0.0546  0.1068 -0.1087
  915SOL    HW1 2744   3.219   0.597   0.897 -0.2246 -0.7799 -0.9620
  915SOL    HW2 2745   3.181   0.763   0.876 -0.5914  0.1212 -0.7241
  916SOL     OW 2746   0.001   2.499   3.125 -0.0014 -0.1330 -0.5787
  916SOL    HW1 2747   0.035   2.580   3.069 -1.3103 -3.2591  1.4284
  916SOL    HW2 2748  -0.035   2.427   3.061  1.3034  2.9692  1.5702
  917SOL     OW 2749   2.376   1.480   2.977 -0.1111 -0.0169 -0.3211
  917SOL    HW1 2750   2.289   1.429   2.986 -0.7628 -0.3237  0.7660
  917SOL    HW2 2751   2.451   1.437   2.927  0.3597 -0.3941 -0.5967
  918SOL     OW 2752   2.599   1.860   3.514 -0.0205  0.1296  0.2012
  918SOL    HW1 2753   2.498   1.853   3.540  4.7296  0.4969 -0.8975
  918SOL    HW2 2754   2.639   1.766   3.493 -0.5414  4.0714  0.3049
  919SOL     OW 2755   2.314   1.168   1.633 -0.1325 -0.1222 -0.6078
  919SOL    HW1 2756   2.279   1.087   1.682 -0.5818 -1.3584  0.9532
  919SOL    HW2 2757   2.240   1.216   1.589 -0.1518 -0.4237 -0.2779
  920SOL     OW 2758   0.635   3.381   3.478  0.0975 -0.0431 -0.0812
  920SOL    HW1 2759   0.631   3.447   3.556  0.1879 -1.6622 -0.9895
  920SOL    HW2 2760   0.702   3.402   3.404 -0.6450 -1.2176  0.7689
  921SOL     OW 2761   3.237   3.151   0.308 -0.0348 -0.0512 -0.0722
  921SOL    HW1 2762   3.242   3.116   0.211 -0.0733 -0.0469  2.6886
  921SOL    HW2 2763   3.251   3.253   0.310 -1.3617 -2.1320  1.0142
  922SOL     OW 2764   3.464   3.133   3.758  0.1225 -0.4104 -0.2039
  922SOL    HW1 2765   3.371   3.102   3.789  1.3133 -0.4144 -0.5631
  922SOL    HW2 2766   3.530   3.055   3.750 -1.1391  0.4177  0.4739
  923SOL     OW 2767   1.752   3.712   0.920  0.0569 -0.1437  0.3445
  923SOL    HW1 2768   1.773   3.616   0.946  0.3489 -0.8113 -0.6349
  923SOL    HW2 2769   1.680   3.762   0.974 -0.3537  0.6910 -0.6784
  924SOL     OW 2770   3.317   1.173   3.101 -0.0566  0.1050  0.0060
  924SOL    HW1 2771   3.313   1.113   3.016  2.4820  1.5338  1.1028
  924SOL    HW2 2772   3.408   1.221   3.109  0.9599 -1.3811 -1.0418
  925SOL     OW 2773   0.075   3.765   0.041 -0.1865 -0.1187  0.0151
  925SOL    HW1 2774   0.058   3.841   0.106 -0.1156 -0.8624 -0.2611
  925SOL    HW2 2775   0.012   3.686   0.057  0.5190  0.1581 -0.2170
  926SOL     OW 2776   3.020   3.015   2.701  0.2096  0.1786  0.3988
  926SOL    HW1 2777   2.995   3.019   2.799  0.5759 -1.1818 -3.5656
  926SOL    HW2 2778   3.119   3.009   2.678 -2.3546 -1.1858  0.1630
  927SOL     OW 2779   2.732   0.170   3.326 -0.0450 -0.1758 -0.2869
  927SOL    HW1 2780   2.808   0.124   3.377  1.6955 -0.0316 -0.3418
  927SOL    HW2 2781   2.665   0.219   3.385 -0.5179  1.2894  0.7774
  928SOL     OW 2782   3.501   0.982   1.464  0.3214  0.1665 -0.0184
  928SOL    HW1 2783   3.574   0.935   1.411  0.9432 -0.5158 -0.0887
  928SOL    HW2 2784   3.415   0.926   1.464  0.0692 -0.9273 -0.1657
  929SOL     OW 2785   3.669   2.323   2.956 -0.0889 -0.3124 -0.0205
  929SOL    HW1 2786   3.597   2.289   3.020 -2.5065 -2.2923  3.0541
  929SOL    HW2 2787   3.648   2.372   2.868  0.4808  1.4827 -3.2164
  930SOL     OW 2788   0.843   3.436   3.306  0.0802  0.1799 -0.0022
  930SOL    HW1 2789   0.844   3.356   3.242 -0.3179 -2.0260 -0.2285
  930SOL    HW2 2790   0.927   3.469   3.356  1.0166  0.5796  1.0812
  931SOL     OW 2791   2.370   1.802   3.285  0.0800  0.2831 -0.3310
  931SOL    HW1 2792   2.339   1.898   3.272  2.1635 -5.8383  0.9167
  931SOL    HW2 2793   2.441   1.776   3.216 -3.9982  1.6733  4.1152
  932SOL     OW 2794   3.077   3.490   3.645 -0.3620 -0.1075 -0.3114
  932SOL    HW1 2795   3.089   3.451   3.735  0.1061 -3.4513  6.2239
  932SOL    HW2 2796   3.144   3.563   3.630  5.1064  7.2898 -1.5470
  933SOL     OW 2797   2.278   0.720   0.890 -0.0047 -0.1658 -0.0429
  933SOL    HW1 2798   2.183   0.743   0.923  2.7286 -0.1603 -0.5465
  933SOL    HW2 2799   2.269   0.650   0.814  0.8416  1.3080  1.9853
  934SOL     OW 2800   1.119   0.073   2.246  0.1151  0.1705  0.1551
  934SOL    HW1 2801   1.217   0.096   2.233 -1.2650 -3.7128 -2.7400
  934SOL    HW2 2802   1.110  -0.008   2.186  5.3698  1.3410 -0.3786
  935SOL     OW 2803   2.954   1.652   2.729 -0.2247  0.0962  0.2237
  935SOL    HW1 2804   3.006   1.569   2.763  2.1481 -1.2380  0.0505
  935SOL    HW2 2805   3.012   1.692   2.653  2.4389 -0.5839 -1.0799
  936SOL     OW 2806   3.206   2.796   2.792 -0.3361 -0.3016 -0.2749
  936SOL    HW1 2807   3.157   2.704   2.794  0.2963  0.7868  0.9645
  936SOL    HW2 2808   3.236   2.815   2.696 -0.6987  0.1293  1.3466
  937SOL     OW 2809   1.576   1.175   3.044 -0.0338 -0.1461 -0.0271
  937SOL    HW1 2810   1.594   1.227   2.958 -1.3197  0.0655 -0.6278
  937SOL    HW2 2811   1.649   1.194   3.112 -0.6051 -0.2308  0.6397
  938SOL     OW 2812   2.082   0.369   1.523 -0.2235 -0.1419 -0.2383
  938SOL    HW1 2813   2.075   0.469   1.514 -1.1765  3.1464  0.8311
  938SOL    HW2 2814   2.009   0.338   1.585 -2.2422 -0.3784  2.1729
  939SOL     OW 2815   1.706   0.690   2.914  0.1285 -0.1738  0.2190
  939SOL    HW1 2816   1.808   0.701   2.917  0.4176  0.9395  0.0769
  939SOL    HW2 2817   1.654   0.777   2.922  0.8518  0.2917 -0.2743
  940SOL     OW 2818   1.050   3.752   3.727  0.0534 -0.8191 -0.2181
  940SOL    HW1 2819   0.965   3.725   3.680  1.4506  6.3734  1.8498
  940SOL    HW2 2820   1.130   3.694   3.743  0.2473  5.7383  1.7188
  941SOL     OW 2821   2.890   0.174   1.299  0.2530  0.0828  0.4067
  941SOL    HW1 2822   2.898   0.075   1.274 -0.6348  0.1990  1.3880
  941SOL    HW2 2823   2.841   0.169   1.389  0.4392 -0.5151  0.4046
  942SOL     OW 2824   3.212   0.626   1.699  0.3747 -0.0661 -0.1643
  942SOL    HW1 2825   3.289   0.668   1.647 -0.1138 -0.7387  0.2474
  942SOL    HW2 2826   3.253   0.539   1.738 -0.5907  0.2067  0.3645
  943SOL     OW 2827   2.869   0.362   3.193  0.2356 -0.2621  0.0618
  943SOL    HW1 2828   2.814   0.291   3.242  1.3950  0.6048 -0.7256
  943SOL    HW2 2829   2.904   0.321   3.106 -0.0937 -0.2853  1.6078
  944SOL     OW 2830   1.861   1.010   2.214 -0.0139 -0.2212 -0.2052
  944SOL    HW1 2831   1.842   0.916   2.179  0.8329  5.3175  2.3115
  944SOL    HW2 2832   1.864   1.065   2.128  0.0529 -1.8340  3.1534
  945SOL     OW 2833   3.270   1.343   3.435  0.2125  0.4113  0.2779
  945SOL    HW1 2834   3.234   1.431   3.462 -0.7077 -4.2619  0.2137
  945SOL    HW2 2835   3.350   1.349   3.379 -2.0823 -1.6459  1.9340
  946SOL     OW 2836   1.411   0.323   1.214 -0.1129  0.0304  0.1438
  946SOL    HW1 2837   1.342   0.281   1.150  0.8477 -1.0031 -0.2177
  946SOL    HW2 2838   1.478   0.255   1.252 -0.3070 -0.6956 -0.8940
  947SOL     OW 2839   3.192   0.933   0.472 -0.1723  0.1029  0.1955
  947SOL    HW1 2840   3.105   0.976   0.504  2.4160 -0.2820 -0.5980
  947SOL    HW2 2841   3.199   0.952   0.371 -0.5981 -0.2529  3.3118
  948SOL     OW 2842   0.733   2.174   2.539  0.1279 -0.0485  0.2090
  948SOL    HW1 2843   0.818   2.123   2.545-10.5884 -2.0691 -2.9419
  948SOL    HW2 2844   0.680   2.094   2.514  9.5279  1.4805  2.0465
  949SOL     OW 2845   2.291   3.608   0.239  0.3442 -0.3078  0.5126
  949SOL    HW1 2846   2.275   3.579   0.144 -2.5223 -0.0134 -4.6113
  949SOL    HW2 2847   2.217   3.677   0.256 -4.7953  3.5683 -1.0728
  950SOL     OW 2848   3.345   0.277   2.516 -0.0255 -0.1546  0.0323
  950SOL    HW1 2849   3.320   0.192   2.567  0.4400 -0.2604 -0.4108
  950SOL    HW2 2850   3.307   0.361   2.558 -0.1682  0.0585 -0.4967
  951SOL     OW 2851   2.865   1.198   3.000  0.2636  0.3414  0.3298
  951SOL    HW1 2852   2.791   1.207   3.076  1.8304  0.0886 -2.5703
  951SOL    HW2 2853   2.955   1.245   3.029 -3.5395 -1.4665 -1.8721
  952SOL     OW 2854   2.514   1.461   3.446 -0.2175 -0.1260 -0.0030
  952SOL    HW1 2855   2.602   1.514   3.440 -1.9975 -0.9317 -1.3221
  952SOL    HW2 2856   2.460   1.479   3.360  2.7696 -0.8248  3.1249
  953SOL     OW 2857   3.760   1.037   3.619 -0.1155 -0.3564 -0.1178
  953SOL    HW1 2858   3.696   0.994   3.688  1.1413 -0.4462 -0.4647
  953SOL    HW2 2859   3.843   0.975   3.623 -1.3442 -0.5092  0.9146
  954SOL     OW 2860   3.753   3.447   3.278  0.1543  0.1174  0.0562
  954SOL    HW1 2861   3.838   3.474   3.226 -0.4551 -1.3564 -0.5810
  954SOL    HW2 2862   3.747   3.345   3.267  0.6058  0.0025 -1.1809
  955SOL     OW 2863   3.335   3.600   3.220 -0.5242  0.2634 -0.0427
  955SOL    HW1 2864   3.295   3.685   3.181  1.4392 -2.1595  1.5829
  955SOL    HW2 2865   3.412   3.613   3.289 -2.7077  0.7812 -2.2786
  956SOL     OW 2866   0.527   3.607   3.204 -0.0346 -0.1426 -0.1323
  956SOL    HW1 2867   0.580   3.692   3.181 -0.7292 -0.9749  0.0850
  956SOL    HW2 2868   0.570   3.528   3.155 -0.7224  0.7791  0.3102
  957SOL     OW 2869   3.165   1.035   1.282 -0.2037  0.1193 -0.0987
  957SOL    HW1 2870   3.213   1.098   1.347  0.6714  0.2517 -0.0701
  957SOL    HW2 2871   3.212   1.038   1.192  0.3301  0.3956 -0.2769
  958SOL     OW 2872   2.358   0.700   0.063 -0.0564  0.0237 -0.1518
  958SOL    HW1 2873   2.350   0.768  -0.013 -0.0491 -0.0338  0.2700
  958SOL    HW2 2874   2.334   0.608   0.025  0.0381 -0.0350 -0.3676
  959SOL     OW 2875   3.128   1.077   3.282  0.1534 -0.0242  0.1244
  959SOL    HW1 2876   3.214   1.116   3.236 -1.9686 -0.6244  0.6360
  959SOL    HW2 2877   3.151   1.016   3.361 -0.9876  0.6201 -0.6206
  960SOL     OW 2878   0.889   1.008   1.978 -0.1665  0.0946 -0.0077
  960SOL    HW1 2879   0.972   1.066   1.970  3.0718  1.5214 -0.8150
  960SOL    HW2 2880   0.910   0.929   1.916  0.8537 -1.6323 -1.9643
  961SOL     OW 2881   1.561   0.061   1.055 -0.1284  0.2043 -0.1771
  961SOL    HW1 2882   1.487   0.073   0.987  0.4075 -0.0493  2.5082
  961SOL    HW2 2883   1.522   0.054   1.149 -0.5238  0.6123 -2.7607
  962SOL     OW 2884   2.097   1.645   2.527  0.2907 -0.0418 -0.0087
  962SOL    HW1 2885   2.159   1.571   2.490 -0.0151  1.4990 -0.7094
  962SOL    HW2 2886   2.118   1.727   2.468  1.5395 -2.2887  0.3466
  963SOL     OW 2887   2.604   1.400   2.811 -0.2778 -0.0266  0.0693
  963SOL    HW1 2888   2.648   1.450   2.733 -0.0182  2.0203 -0.3689
  963SOL    HW2 2889   2.606   1.299   2.800 -1.2435 -1.2306 -0.1422
  964SOL     OW 2890   0.866   3.457   2.515  0.2177 -0.0719 -0.0645
  964SOL    HW1 2891   0.844   3.531   2.583  0.7963 -0.8612  0.9483
  964SOL    HW2 2892   0.951   3.485   2.465  0.2613 -0.9561  1.0295
  965SOL     OW 2893   3.654   2.407   2.691 -0.1272 -0.1419  0.0634
  965SOL    HW1 2894   3.744   2.360   2.707  0.0703  0.8280 -1.2681
  965SOL    HW2 2895   3.656   2.483   2.622  1.2146 -1.0470  0.4729
  966SOL     OW 2896   3.263   2.391   2.497 -0.2780  0.0925 -0.1064
  966SOL    HW1 2897   3.264   2.320   2.425 -0.3910 -0.6942 -1.3233
  966SOL    HW2 2898   3.169   2.392   2.539 -1.8750 -0.7608  0.1146
  967SOL     OW 2899   1.890   0.267   0.157  0.1379  0.1948  0.0516
  967SOL    HW1 2900   1.964   0.334   0.139  2.4185  2.6722 -0.4306
  967SOL    HW2 2901   1.917   0.171   0.136  0.9162 -2.8499 -0.9046
  968SOL     OW 2902   0.975   2.028   2.589 -0.0163 -0.1034 -0.0327
  968SOL    HW1 2903   1.054   2.020   2.522 -0.5368 -0.7880  0.4753
  968SOL    HW2 2904   0.932   1.936   2.607  0.2111  0.2472 -1.0082
  969SOL     OW 2905   3.368   3.484   2.518  0.1384  0.0165  0.0148
  969SOL    HW1 2906   3.333   3.488   2.421  0.0315  1.1884 -4.3125
  969SOL    HW2 2907   3.294   3.430   2.566 -1.8062 -1.1387  2.9084
  970SOL     OW 2908   2.683   0.329   1.199  0.3100 -0.0362  0.1073
  970SOL    HW1 2909   2.616   0.366   1.267  3.3460 -1.8616  0.9854
  970SOL    HW2 2910   2.747   0.281   1.263 -3.0388  2.2393  1.9708
  971SOL     OW 2911   3.323   0.238   1.567 -0.5571 -0.2897  0.1368
  971SOL    HW1 2912   3.369   0.147   1.584 -1.0176  0.8399 -0.1710
  971SOL    HW2 2913   3.269   0.235   1.479 -0.3304 -0.8982 -0.0928
  972SOL     OW 2914   3.271   2.815   2.504 -0.1039 -0.3550  0.5512
  972SOL    HW1 2915   3.313   2.898   2.463  2.2273 -0.2508 -0.0675
  972SOL    HW2 2916   3.343   2.744   2.505  2.0717 -0.5843 -0.5792
  973SOL     OW 2917   2.155   0.261   0.366  0.3448 -0.3989 -0.0904
  973SOL    HW1 2918   2.068   0.252   0.417 -2.3682  0.0524  1.5541
  973SOL    HW2 2919   2.176   0.360   0.363  0.3546  3.3910 -0.1523
  974SOL     OW 2920   2.807   3.414   0.837  0.0918 -0.3287  0.3201
  974SOL    HW1 2921   2.863   3.361   0.773 -0.2645  0.1175 -0.0422
  974SOL    HW2 2922   2.847   3.503   0.862 -0.2395 -0.4414 -0.4218
  975SOL     OW 2923   2.431   0.972   1.169  0.2533  0.3677  0.0330
  975SOL    HW1 2924   2.458   1.005   1.263  0.4937  0.8491  2.0748
  975SOL    HW2 2925   2.331   0.951   1.157 -1.2878 -0.7292  0.0097
  976SOL     OW 2926   2.332   1.804   3.551  0.1051  0.1411  0.2983
  976SOL    HW1 2927   2.323   1.717   3.595 -0.1685 -3.4882  3.4260
  976SOL    HW2 2928   2.337   1.797   3.453  0.0586  1.4151 -2.1973
  977SOL     OW 2929   1.287   0.790   1.152  0.1860 -0.3383  0.0716
  977SOL    HW1 2930   1.189   0.762   1.174  4.7990  1.5567 -0.4322
  977SOL    HW2 2931   1.351   0.707   1.145 -3.0439  4.4801  0.6023
  978SOL     OW 2932   1.267   0.044   1.302 -0.3923 -0.2373 -0.2195
  978SOL    HW1 2933   1.361   0.053   1.334  0.7303 -0.5971  2.0584
  978SOL    HW2 2934   1.218   0.035   1.387  1.4955  0.7712 -0.7372
  979SOL     OW 2935   0.053   0.310   2.845 -0.1890 -0.1352 -0.1244
  979SOL    HW1 2936  -0.025   0.272   2.899  2.2377  0.3036 -1.2680
  979SOL    HW2 2937   0.097   0.389   2.898 -0.2035 -1.8769 -0.8701
  980SOL     OW 2938   2.251   2.684   2.498 -0.0907  0.3564  0.0202
  980SOL    HW1 2939   2.335   2.742   2.505 -0.5420  0.3108  0.3684
  980SOL    HW2 2940   2.225   2.641   2.586 -0.3990  0.5704  0.0597
  981SOL     OW 2941   1.210   3.554   3.040 -0.0525 -0.0597  0.0503
  981SOL    HW1 2942   1.269   3.515   2.966 -0.2501  0.8752  2.1154
  981SOL    HW2 2943   1.133   3.600   2.989  0.4912 -1.7367  0.7913
  982SOL     OW 2944   3.643   3.658   3.146 -0.0516  0.0526 -0.0836
  982SOL    HW1 2945   3.601   3.627   3.059 -0.0375 -0.4630 -0.9046
  982SOL    HW2 2946   3.674   3.579   3.203  0.0337 -0.8390  0.9996
  983SOL     OW 2947   2.038   1.060   3.285 -0.1863 -0.0846  0.1801
  983SOL    HW1 2948   1.989   1.048   3.196  1.2452  1.3695  0.9646
  983SOL    HW2 2949   2.131   1.018   3.294  0.3502  1.6698 -0.3421
  984SOL     OW 2950   3.228   3.783   2.070  0.0025 -0.1638 -0.1612
  984SOL    HW1 2951   3.190   3.870   2.107 -0.2869  0.0705  0.0040
  984SOL    HW2 2952   3.171   3.745   1.993 -0.0858 -0.3614 -0.3835
  985SOL     OW 2953   0.471   3.769   2.161  0.3642 -0.0818  0.2191
  985SOL    HW1 2954   0.391   3.818   2.199 -2.9148 -0.8371 -2.5963
  985SOL    HW2 2955   0.416   3.738   2.082 -3.3511  2.0580  0.1777
  986SOL     OW 2956   3.522   3.686   3.394  0.0156 -0.2354  0.0718
  986SOL    HW1 2957   3.572   3.704   3.483 -1.6925 -1.6186  0.9193
  986SOL    HW2 2958   3.573   3.711   3.307 -1.5458 -0.9192 -1.0654
  987SOL     OW 2959   1.393   0.381   2.668 -0.0386 -0.0451  0.1532
  987SOL    HW1 2960   1.430   0.285   2.654 -0.5448 -2.1816 -1.2273
  987SOL    HW2 2961   1.424   0.441   2.745 -0.3536  2.1283  1.0426
  988SOL     OW 2962   3.630   1.040   3.088 -0.0598  0.1466 -0.3435
  988SOL    HW1 2963   3.640   1.021   3.189 -0.8747  0.0120 -3.2582
  988SOL    HW2 2964   3.662   0.966   3.027 -0.4235  2.7074  1.7886
  989SOL     OW 2965   2.164   0.906   1.179  0.2881 -0.2591  0.3860
  989SOL    HW1 2966   2.181   0.810   1.211  0.4583  2.4123 -0.4015
  989SOL    HW2 2967   2.122   0.959   1.256  1.3842 -1.3179 -1.6294
  990SOL     OW 2968   0.874   1.403   2.493  0.2289  0.0951  0.3288
  990SOL    HW1 2969   0.805   1.411   2.568 -0.9565 -1.7382 -0.1059
  990SOL    HW2 2970   0.935   1.484   2.481  0.7054 -0.6970 -1.9007
  991SOL     OW 2971   0.202   0.455   1.378 -0.2053  0.0016 -0.0779
  991SOL    HW1 2972   0.285   0.513   1.371  0.2537  0.2992  0.1978
  991SOL    HW2 2973   0.128   0.495   1.319 -1.6999 -0.0178 -0.1137
  992SOL     OW 2974   2.657   2.447   2.857 -0.0700  0.3938  0.1652
  992SOL    HW1 2975   2.579   2.399   2.903  1.1659  1.0027 -0.6484
  992SOL    HW2 2976   2.737   2.465   2.919 -1.6150  0.2815 -1.0132
  993SOL     OW 2977   0.064   2.914   2.682 -0.1281  0.1265 -0.0422
  993SOL    HW1 2978   0.104   2.825   2.650 -0.2051  0.2636  0.4463
  993SOL    HW2 2979   0.097   2.926   2.778  0.7452  0.2106  0.1435
  994SOL     OW 2980   2.549   0.823   2.107 -0.2444  0.1702 -0.1346
  994SOL    HW1 2981   2.567   0.724   2.103  0.4526 -1.8936  0.6821
  994SOL    HW2 2982   2.639   0.870   2.095  2.7255  0.8166 -0.0689
  995SOL     OW 2983   1.168   0.059   1.579 -0.0519  0.3627 -0.2720
  995SOL    HW1 2984   1.133  -0.011   1.646 -0.0009  1.2284 -0.4218
  995SOL    HW2 2985   1.111   0.142   1.585  1.9327 -1.9480  0.4566
  996SOL     OW 2986   1.138   3.348   3.203  0.1692 -0.1738  0.1570
  996SOL    HW1 2987   1.163   3.430   3.148  0.9922  0.4513 -1.3808
  996SOL    HW2 2988   1.050   3.310   3.172 -0.4963 -1.3649 -1.0931
  997SOL     OW 2989   2.940   3.182   0.036 -0.0371 -0.4886 -0.3200
  997SOL    HW1 2990   2.885   3.175   0.121 -2.5655 -0.2182  4.3563
  997SOL    HW2 2991   3.005   3.257   0.062  2.6312  3.5271  1.7402
  998SOL     OW 2992   0.065   0.798   3.301 -0.0994  0.3193 -0.2293
  998SOL    HW1 2993   0.054   0.699   3.279  0.3162 -1.6358  0.4464
  998SOL    HW2 2994   0.157   0.809   3.345  2.3155 -0.3753  0.4643
  999SOL     OW 2995   0.732   0.966   2.380  0.1410 -0.0109 -0.0438
  999SOL    HW1 2996   0.673   0.961   2.296 -1.0794  0.1182 -1.3434
  999SOL    HW2 2997   0.821   1.009   2.349  1.4434  0.8787 -0.9983
 1000SOL     OW 2998   2.355   1.774   2.883 -0.2607 -0.1222  0.4814
 1000SOL    HW1 2999   2.277   1.712   2.861  3.7532  3.5857  0.3938
 1000SOL    HW2 3000   2.409   1.741   2.963 -1.4349  2.7595 -3.6008
   3.78958   3.78958   3.78958
