1000 SPC/Fw water molecules t=   8.00000 step= 8000
 2931
    1SOL     OW    1   0.749   1.064   0.100  0.3759  0.1861 -0.3016
    1SOL    HW1    2   0.760   1.043   0.205  0.9065 -0.9608  5.5039
    1SOL    HW2    3   0.651   1.106   0.086 -4.8145  2.2277 -0.9586
    2SOL     OW    4   1.952   0.475   1.327 -0.5633 -0.2583 -0.3760
    2SOL    HW1    5   1.978   0.450   1.429  1.3915 -1.4953  7.1762
    2SOL    HW2    6   1.955   0.580   1.318 -0.1099  6.6500 -0.4734
    3SOL     OW    7   0.165   0.466   2.690  0.1699  0.0155 -0.7069
    3SOL    HW1    8   0.136   0.378   2.636 -3.3480 -3.3156 -1.0871
    3SOL    HW2    9   0.087   0.490   2.765 -4.3576 -0.9195  1.6717
    4SOL     OW   10   0.825   1.354   0.334 -0.4014  0.1098 -0.2529
    4SOL    HW1   11   0.903   1.282   0.325  1.5726 -2.5242  2.2848
    4SOL    HW2   12   0.779   1.337   0.433  0.3680 -2.6431  4.0168
    5SOL     OW   13   1.563   1.573   0.776 -0.2758 -0.5182 -0.0911
    5SOL    HW1   14   1.534   1.612   0.871 -1.8108  0.9186  3.4760
    5SOL    HW2   15   1.643   1.639   0.738  5.7031  4.5015 -2.2904
    6SOL     OW   16   1.122   0.408   0.900  0.0613 -0.3667 -0.3134
    6SOL    HW1   17   1.093   0.505   0.863 -1.3574  4.9987 -2.0310
    6SOL    HW2   18   1.177   0.422   0.992  2.7766  0.6322  5.0551
    7SOL     OW   19   1.676   0.449   0.934  0.0391 -0.3129 -0.3025
    7SOL    HW1   20   1.591   0.384   0.918 -4.3527 -4.0367  0.1198
    7SOL    HW2   21   1.698   0.460   1.040  0.7272 -0.4836  6.3094
    8SOL     OW   22   1.116   1.711   0.145  0.1833 -0.5076 -0.0098
    8SOL    HW1   23   1.122   1.801   0.089 -0.5250  3.3904 -3.1780
    8SOL    HW2   24   1.029   1.657   0.106 -4.0830 -2.0795 -2.7634
    9SOL     OW   25   1.152   0.944   1.199  0.1752  0.5442  0.0582
    9SOL    HW1   26   1.142   0.873   1.119  0.1146 -3.4255 -4.5451
    9SOL    HW2   27   1.253   0.978   1.210  5.5510  1.9297  0.4586
   10SOL     OW   28   0.688   0.560   2.669 -0.2668 -0.0062 -0.1739
   10SOL    HW1   29   0.706   0.653   2.618  0.4170  5.7818 -2.9881
   10SOL    HW2   30   0.760   0.487   2.634  3.0515 -4.0775 -1.5780
   11SOL     OW   31   0.579   0.276   1.513 -0.5618  0.3133 -0.3806
   11SOL    HW1   32   0.596   0.226   1.607  1.3340 -2.4653  5.4345
   11SOL    HW2   33   0.674   0.282   1.464  5.2937  0.2331 -2.7537
   12SOL     OW   34   0.289   0.255   0.709 -0.4058  0.2176  0.4824
   12SOL    HW1   35   0.239   0.348   0.696 -3.7053  5.2639 -1.6514
   12SOL    HW2   36   0.297   0.211   0.611  0.2898 -1.5366 -6.0691
   13SOL     OW   37   1.267   1.711   0.747 -0.4084  0.7541  0.2917
   13SOL    HW1   38   1.325   1.649   0.813  2.3345 -3.0254  2.8653
   13SOL    HW2   39   1.309   1.698   0.647  2.7945 -0.3595 -4.9183
   14SOL     OW   40   0.783   1.278   2.141 -0.3434 -0.6423 -0.1217
   14SOL    HW1   41   0.761   1.325   2.237 -0.3624  1.7846  4.8840
   14SOL    HW2   42   0.889   1.260   2.142  5.0946 -1.0237  0.3476
   15SOL     OW   43   0.684   0.605   0.293 -0.4085  0.7277  0.3073
   15SOL    HW1   44   0.670   0.544   0.380 -0.9901 -2.5079  3.8376
   15SOL    HW2   45   0.649   0.549   0.208 -2.7560 -2.9389 -4.4878
   16SOL     OW   46   0.598   1.769   0.571 -0.1750 -0.5193 -0.2276
   16SOL    HW1   47   0.560   1.762   0.672 -2.2036 -0.6150  5.5315
   16SOL    HW2   48   0.705   1.765   0.573  5.7903 -0.8574 -0.2104
   17SOL     OW   49   1.619   0.638   1.888  0.1102 -0.2363  0.3678
   17SOL    HW1   50   1.600   0.537   1.868 -0.4937 -5.9299 -0.4037
   17SOL    HW2   51   1.595   0.702   1.804 -1.8558  4.4966 -5.2336
   18SOL     OW   52   0.201   1.662   0.226 -0.5875 -0.0586 -0.1211
   18SOL    HW1   53   0.246   1.563   0.234  2.8827 -3.7152  1.3385
   18SOL    HW2   54   0.258   1.721   0.297  2.3667  0.4401  3.0282
   19SOL     OW   55   2.518   1.147   1.380  0.0115 -0.3579  0.0016
   19SOL    HW1   56   2.507   1.188   1.281 -0.2375  1.9230 -5.4532
   19SOL    HW2   57   2.427   1.101   1.413 -4.5668 -2.8481  2.0522
   20SOL     OW   58   1.093   0.782   1.434  0.1487 -0.1418  0.2359
   20SOL    HW1   59   0.998   0.813   1.476 -6.1302  2.0811  2.6936
   20SOL    HW2   60   1.131   0.862   1.376  1.3506  3.7890 -1.7553
   21SOL     OW   61   0.401   1.354   1.422  0.3014  0.3106  0.2634
   21SOL    HW1   62   0.352   1.392   1.509 -1.6666  0.8400  3.8678
   21SOL    HW2   63   0.395   1.245   1.420 -0.4351 -3.6511  1.7142
   22SOL     OW   64   1.208   2.491   0.796  0.5044  0.3924  0.3699
   22SOL    HW1   65   1.182   2.421   0.720 -0.6197 -4.3521 -4.7337
   22SOL    HW2   66   1.198   2.447   0.893 -0.3884 -2.1639  6.5619
   23SOL     OW   67   0.408   0.015   1.751  0.4754 -0.1685  0.3184
   23SOL    HW1   68   0.376  -0.018   1.655 -2.0828 -2.0949 -5.2422
   23SOL    HW2   69   0.501   0.067   1.740  5.5238  3.1549  0.1780
   24SOL     OW   70   1.917   1.547   0.941 -0.2163  0.1522  0.1541
   24SOL    HW1   71   1.824   1.508   0.980 -5.6111 -3.2653  1.5764
   24SOL    HW2   72   1.944   1.488   0.855  1.2554 -3.3796 -4.8597
   25SOL     OW   73   0.063   2.705   1.658 -0.0274  0.0339  0.2110
   25SOL    HW1   74   0.162   2.728   1.622  4.4264  0.9759 -1.6588
   25SOL    HW2   75   0.063   2.705   1.766 -0.6099 -0.2647  5.6301
   26SOL     OW   76   2.531   1.245   1.137 -0.1403 -0.2065 -0.2213
   26SOL    HW1   77   2.633   1.270   1.166  5.9785  1.6840  1.4527
   26SOL    HW2   78   2.500   1.322   1.072 -1.3198  3.9385 -3.1489
   27SOL     OW   79   1.880   1.789   1.091  0.1132 -0.1246  0.4441
   27SOL    HW1   80   1.842   1.846   1.007 -1.3528  2.1977 -5.1145
   27SOL    HW2   81   1.895   1.688   1.061 -0.1729 -4.1588 -2.0258
   28SOL     OW   82   0.036   2.617   1.253 -0.3202  0.0242 -0.0827
   28SOL    HW1   83  -0.012   2.646   1.344 -2.9806  1.8518  5.2091
   28SOL    HW2   84   0.100   2.695   1.213  2.9677  3.8550 -1.5843
   29SOL     OW   85   2.756   2.456   0.811  0.1877 -0.3357 -0.3456
   29SOL    HW1   86   2.777   2.440   0.915  0.8595  0.2851  5.5543
   29SOL    HW2   87   2.744   2.564   0.800 -0.0324  5.4476  0.1916
   30SOL     OW   88   0.865   0.849   1.539  0.5082 -0.0222  0.0520
   30SOL    HW1   89   0.807   0.933   1.502 -4.4434  4.4405 -1.7117
   30SOL    HW2   90   0.797   0.782   1.588 -4.2563 -3.0047  2.5330
   31SOL     OW   91   0.116   0.475   0.959  0.2880  0.0175  0.2061
   31SOL    HW1   92   0.046   0.555   0.955 -4.7780  4.1042 -0.6814
   31SOL    HW2   93   0.210   0.511   0.997  5.4771  2.6184  1.9712
   32SOL     OW   94   2.132   0.818   1.488 -0.0922 -1.0617 -0.1323
   32SOL    HW1   95   2.139   0.774   1.588  1.0856 -1.7702  4.4020
   32SOL    HW2   96   2.215   0.884   1.479  3.6422  1.3635  0.4807
   33SOL     OW   97   1.735   0.232   1.261 -0.4317 -0.1239  0.6710
   33SOL    HW1   98   1.684   0.176   1.184 -2.7047 -3.5010 -3.4732
   33SOL    HW2   99   1.717   0.335   1.238 -1.5391  5.2244 -0.5675
   34SOL     OW  100   1.421   2.320   1.532  0.2956  0.1450 -0.3568
   34SOL    HW1  101   1.410   2.247   1.611 -0.8881 -4.0279  3.9811
   34SOL    HW2  102   1.335   2.311   1.469 -4.6452 -0.3404 -4.0072
   35SOL     OW  103   0.357   0.439   1.869  0.2382 -0.7472 -0.0384
   35SOL    HW1  104   0.357   0.375   1.784  0.8237 -1.1830 -4.0151
   35SOL    HW2  105   0.397   0.536   1.837  1.9043  2.2607 -2.5656
   36SOL     OW  106   2.126   1.531   1.129  0.3527 -0.2704 -0.1786
   36SOL    HW1  107   2.148   1.637   1.135  0.5112  4.8067 -0.9872
   36SOL    HW2  108   2.054   1.522   1.050 -2.9333  0.5303 -3.7968
   37SOL     OW  109   1.580   1.795   0.470 -0.0421  0.1606  0.2088
   37SOL    HW1  110   1.603   1.710   0.529  0.6321 -2.1181  2.3604
   37SOL    HW2  111   1.674   1.850   0.453  5.8685  2.6143 -0.0368
   38SOL     OW  112   2.757   1.807   0.892  0.1663 -0.1059  0.4459
   38SOL    HW1  113   2.666   1.767   0.848 -4.9367 -1.5724 -2.0079
   38SOL    HW2  114   2.747   1.913   0.893 -0.8993  4.3710  0.6180
   39SOL     OW  115   0.063   1.973   1.097 -0.7015  0.0374  0.1597
   39SOL    HW1  116   0.085   1.887   1.156  0.9752 -4.7866  2.8548
   39SOL    HW2  117   0.153   1.992   1.040  4.8099  1.0157 -3.4886
   40SOL     OW  118   1.846   1.557   1.683  0.4730 -0.3676 -0.0117
   40SOL    HW1  119   1.852   1.661   1.651  0.2488  5.6155 -2.3320
   40SOL    HW2  120   1.751   1.520   1.650 -4.1819 -1.8534 -2.3721
   41SOL     OW  121   0.601   0.554   2.212  0.1618 -0.1373 -0.1040
   41SOL    HW1  122   0.513   0.503   2.180 -6.0467 -2.7481 -1.8806
   41SOL    HW2  123   0.575   0.632   2.281 -2.4319  4.2347  4.2413
   42SOL     OW  124   1.942   0.484   0.896  0.1484  0.5931  0.0296
   42SOL    HW1  125   1.983   0.403   0.951  0.3553 -2.4238  1.8441
   42SOL    HW2  126   1.834   0.462   0.898 -4.0342 -2.0128  1.1271
   43SOL     OW  127   1.113   0.523   1.522  0.2833 -0.4672 -0.4152
   43SOL    HW1  128   1.103   0.630   1.511 -1.0413  5.1280 -0.0938
   43SOL    HW2  129   1.038   0.492   1.591 -4.3977 -1.5474  3.6586
   44SOL     OW  130   0.095   0.176   1.542  0.1609  0.1002  0.1409
   44SOL    HW1  131   0.033   0.265   1.533 -3.8377  4.7204 -1.6818
   44SOL    HW2  132   0.097   0.130   1.446  0.1601 -0.9935 -4.5429
   45SOL     OW  133   0.620   1.811   2.631 -0.1023 -0.1361  0.4223
   45SOL    HW1  134   0.656   1.909   2.612  0.5762  4.4418 -1.2773
   45SOL    HW2  135   0.577   1.771   2.539 -2.1920 -1.9598 -5.4688
   46SOL     OW  136   2.706   1.691   1.503 -0.1946  0.4256 -0.1627
   46SOL    HW1  137   2.796   1.636   1.473  3.0969 -3.0022 -1.5775
   46SOL    HW2  138   2.628   1.618   1.500 -2.5255 -3.3297  0.0185
   47SOL     OW  139   0.287   2.040   0.974 -0.8809 -0.0480 -0.0985
   47SOL    HW1  140   0.365   2.071   0.906  4.6460  2.2037 -4.2042
   47SOL    HW2  141   0.322   2.058   1.072  1.0057  1.2028  4.8312
   48SOL     OW  142   0.656   0.771   0.003 -0.3793  0.1680 -0.1966
   48SOL    HW1  143   0.742   0.786   0.065  3.8981  0.0836  2.8438
   48SOL    HW2  144   0.667   0.683  -0.058  0.9874 -3.7018 -2.6834
   49SOL     OW  145   1.251   0.436   1.142 -0.5368 -0.1501  0.5291
   49SOL    HW1  146   1.314   0.494   1.076  4.8662  1.7809 -2.7536
   49SOL    HW2  147   1.314   0.358   1.181  4.4439 -3.5673  1.6897
   50SOL     OW  148   2.181   0.970   0.590  0.6306  0.0326 -0.3345
   50SOL    HW1  149   2.186   0.922   0.494  0.9620 -2.0010 -5.5746
   50SOL    HW2  150   2.123   0.914   0.662 -2.6426 -2.3053  4.7642
   51SOL     OW  151   0.349   0.593   1.019  0.2294 -0.0025 -0.3241
   51SOL    HW1  152   0.319   0.685   0.972 -1.5701  5.1132 -2.7203
   51SOL    HW2  153   0.360   0.603   1.126  1.0593  0.2930  5.4457
   52SOL     OW  154   0.700   1.314   0.576 -0.0679 -0.1156 -0.4224
   52SOL    HW1  155   0.742   1.230   0.628  2.7493 -5.0517  2.6187
   52SOL    HW2  156   0.690   1.398   0.644 -0.4233  4.2554  4.5800
   53SOL     OW  157   0.388   1.780   0.386 -0.5609  0.2430  0.1420
   53SOL    HW1  158   0.418   1.725   0.474  2.3770 -1.9592  3.5870
   53SOL    HW2  159   0.482   1.798   0.335  5.0954  0.4504 -2.2016
   54SOL     OW  160   1.366   0.811   1.414  0.2561 -0.0414 -0.3450
   54SOL    HW1  161   1.301   0.880   1.464 -2.9854  3.7825  2.4711
   54SOL    HW2  162   1.341   0.712   1.446 -0.7669 -4.1647  1.3714
   55SOL     OW  163   1.473   1.804   1.553  0.4680  0.1373  0.0387
   55SOL    HW1  164   1.374   1.827   1.587 -4.9934  0.9548  0.2834
   55SOL    HW2  165   1.465   1.783   1.448 -1.3358 -0.7054 -5.3306
   56SOL     OW  166   0.424   0.883   2.811 -0.5451  0.2318  0.3384
   56SOL    HW1  167   0.524   0.841   2.823  6.6919 -2.7955  0.9615
   56SOL    HW2  168   0.400   0.902   2.710 -1.6478  1.0171 -4.8906
   57SOL     OW  169   1.766   0.923   1.231  0.1129  0.0278 -0.1004
   57SOL    HW1  170   1.803   1.020   1.204  2.1167  5.6182 -1.9630
   57SOL    HW2  171   1.718   0.878   1.146 -2.4210 -2.0831 -5.1398
   58SOL     OW  172   1.423   1.389   1.466  0.0111 -0.2977  0.4898
   58SOL    HW1  173   1.417   1.428   1.366 -0.4695  2.5215 -5.5278
   58SOL    HW2  174   1.367   1.456   1.529 -3.7255  4.8093  3.2398
   59SOL     OW  175   1.933   1.120   0.127  0.0264 -0.3656  0.5610
   59SOL    HW1  176   1.852   1.190   0.114 -4.6004  3.4568 -1.0078
   59SOL    HW2  177   1.987   1.121   0.036  2.6627  0.1908 -4.2941
   60SOL     OW  178   0.668   0.657   1.968 -0.1810 -0.2553 -0.4064
   60SOL    HW1  179   0.739   0.738   1.968  2.1421  2.5009  2.6632
   60SOL    HW2  180   0.649   0.635   2.072  1.0588  1.5557  5.0019
   61SOL     OW  181   1.253   1.421   2.814 -0.8511  0.0363 -0.4007
   61SOL    HW1  182   1.343   1.393   2.867  4.2869 -1.6201  3.2804
   61SOL    HW2  183   1.170   1.397   2.878 -4.4686 -1.3427  3.2619
   62SOL     OW  184   1.036   1.339   0.118 -0.2804  0.0776  0.5904
   62SOL    HW1  185   1.036   1.230   0.111  0.1195 -6.2038  0.3526
   62SOL    HW2  186   0.983   1.378   0.034 -2.6138  1.6166 -3.1914
   63SOL     OW  187   2.778   0.165   0.683 -0.7159  0.3284  0.4390
   63SOL    HW1  188   2.851   0.132   0.756  2.7971 -1.8016  3.2048
   63SOL    HW2  189   2.776   0.090   0.607  0.3890 -2.1694 -1.3587
   64SOL     OW  190   0.093   1.562   1.424  0.1435  0.2473  0.7460
   64SOL    HW1  191   0.150   1.574   1.335  2.3543  0.9572 -3.8069
   64SOL    HW2  192   0.062   1.458   1.436 -1.5820 -6.6005  0.4167
   65SOL     OW  193   0.694   1.210   1.239  0.1491 -0.6221 -0.2180
   65SOL    HW1  194   0.714   1.216   1.132  1.0165  0.1020 -5.4918
   65SOL    HW2  195   0.698   1.310   1.277  0.6391  4.7741  0.9642
   66SOL     OW  196   2.801   0.883   2.621  0.6892  0.1905 -0.1138
   66SOL    HW1  197   2.808   0.785   2.574  1.3212 -6.4247 -3.2822
   66SOL    HW2  198   2.701   0.904   2.647 -4.8770  1.1206  1.2744
   67SOL     OW  199   1.815   2.068   1.829  0.3339  0.0488  0.5591
   67SOL    HW1  200   1.729   2.032   1.777 -4.6935 -2.3483 -2.7159
   67SOL    HW2  201   1.904   2.033   1.780  5.1842 -1.8861 -2.7033
   68SOL     OW  202   0.361   0.450   0.066 -0.4560 -0.0319  0.1954
   68SOL    HW1  203   0.312   0.439  -0.029 -1.6478 -0.5821 -4.8800
   68SOL    HW2  204   0.469   0.448   0.051  5.8499 -0.2623 -1.6015
   69SOL     OW  205   0.686   2.360   1.986  0.0514 -0.8106 -0.1494
   69SOL    HW1  206   0.677   2.408   2.081 -0.7941  1.9418  3.6623
   69SOL    HW2  207   0.705   2.435   1.910  0.2592  3.3115 -3.3952
   70SOL     OW  208   0.507   1.150   1.612  0.2899  0.1326 -0.5836
   70SOL    HW1  209   0.504   1.233   1.682 -1.2837  3.3617  3.8359
   70SOL    HW2  210   0.427   1.083   1.643 -3.7100 -1.2352  2.5995
   71SOL     OW  211   1.613   2.379   2.188  0.2551  0.7253 -0.3046
   71SOL    HW1  212   1.667   2.436   2.261  2.7962  3.5141  3.6621
   71SOL    HW2  213   1.650   2.278   2.182  2.6472 -5.5097 -1.1202
   72SOL     OW  214   0.153   1.229   0.167 -0.1872 -0.4518 -0.0642
   72SOL    HW1  215   0.216   1.311   0.200  3.7509  3.7616  2.2995
   72SOL    HW2  216   0.190   1.136   0.204  1.7700 -3.8533  2.8591
   73SOL     OW  217   0.297   0.702   0.122 -0.1742 -0.1000  0.4040
   73SOL    HW1  218   0.347   0.765   0.050  2.6653  2.9356 -4.1915
   73SOL    HW2  219   0.322   0.600   0.102  1.2604 -5.6370 -1.2494
   74SOL     OW  220   0.070   0.219   2.576  0.4648  0.1836 -0.1963
   74SOL    HW1  221   0.012   0.149   2.520 -2.5119 -2.7825 -2.6091
   74SOL    HW2  222   0.038   0.214   2.680 -1.2570 -0.4772  5.4182
   75SOL     OW  223   2.458   1.858   1.150 -0.2917  0.4221 -0.3684
   75SOL    HW1  224   2.506   1.770   1.188  3.0959 -4.0200  2.4696
   75SOL    HW2  225   2.498   1.946   1.196  2.3487  5.0890  2.2659
   76SOL     OW  226   0.572   1.144   2.626 -0.0590  0.6360  0.2494
   76SOL    HW1  227   0.491   1.079   2.599 -4.9490 -3.1630 -1.7714
   76SOL    HW2  228   0.662   1.087   2.635  5.3669 -2.4642  0.9841
   77SOL     OW  229   1.734   1.040   0.423  0.6626 -0.5239 -0.0969
   77SOL    HW1  230   1.775   1.096   0.504  2.2044  2.1827  4.0763
   77SOL    HW2  231   1.634   1.014   0.455 -4.6718 -1.0535  2.4275
   78SOL     OW  232   1.440   0.468   0.684 -0.4492  0.0098 -0.1502
   78SOL    HW1  233   1.380   0.381   0.669 -1.6453 -3.8629 -0.2471
   78SOL    HW2  234   1.544   0.440   0.664  4.9524 -2.2115 -1.1117
   79SOL     OW  235   0.314   1.563   0.853  0.1021  0.3116  0.2543
   79SOL    HW1  236   0.301   1.457   0.868 -1.1665 -6.6447  0.6641
   79SOL    HW2  237   0.305   1.615   0.947 -0.2152  3.5255  5.8095
   80SOL     OW  238   0.127   1.641   0.506  0.7436  0.1265 -0.0929
   80SOL    HW1  239   0.119   1.681   0.606 -0.9130  2.8125  5.8530
   80SOL    HW2  240   0.039   1.671   0.454 -4.6650  2.1947 -2.1497
   81SOL     OW  241   0.894   1.625   0.039 -0.4149 -0.0627  0.4946
   81SOL    HW1  242   0.862   1.717  -0.009 -1.7118  3.2648 -3.3476
   81SOL    HW2  243   0.886   1.547  -0.035 -1.7268 -1.8497 -3.8443
   82SOL     OW  244   0.921   0.247   0.960 -0.3000  0.0674 -0.3740
   82SOL    HW1  245   0.936   0.141   0.965  0.7207 -6.3111  0.1165
   82SOL    HW2  246   1.007   0.300   0.926  4.5599  3.0926 -2.1235
   83SOL     OW  247   0.350   0.903   2.016  0.3566 -0.1355  0.5031
   83SOL    HW1  248   0.265   0.959   1.985 -2.7583  3.6961 -0.5798
   83SOL    HW2  249   0.439   0.962   2.028  3.8441  3.7377  0.6029
   84SOL     OW  250   0.346   1.036   0.905  0.0229 -0.8436  0.4287
   84SOL    HW1  251   0.323   1.095   0.993 -2.0352  3.5377  5.3405
   84SOL    HW2  252   0.297   1.079   0.819 -3.3286  2.3283 -4.6280
   85SOL     OW  253   0.385   1.161   0.482 -0.3079 -0.0864  0.0838
   85SOL    HW1  254   0.439   1.079   0.437  3.2029 -4.9191 -3.3266
   85SOL    HW2  255   0.430   1.254   0.453  2.4532  4.8027 -1.9489
   86SOL     OW  256   2.764   2.370   1.824 -0.4154  0.0437 -0.1541
   86SOL    HW1  257   2.820   2.346   1.913  1.3335 -0.8824  4.1724
   86SOL    HW2  258   2.828   2.379   1.737  2.1151  0.7127 -4.8876
   87SOL     OW  259   1.382   0.867   0.987  0.2129  0.2493 -0.3885
   87SOL    HW1  260   1.413   0.912   1.080  2.5215  2.5791  5.7296
   87SOL    HW2  261   1.302   0.800   1.003 -3.6780 -3.0142  0.7404
   88SOL     OW  262   0.689   0.452   1.279  0.1115 -0.1738  0.4726
   88SOL    HW1  263   0.626   0.428   1.195 -3.7445 -1.0976 -4.5462
   88SOL    HW2  264   0.780   0.395   1.275  4.5038 -2.7494  0.7851
   89SOL     OW  265   2.493   0.381   0.383  0.4127 -0.4216 -0.6543
   89SOL    HW1  266   2.542   0.478   0.378  3.1516  4.8333  0.3093
   89SOL    HW2  267   2.516   0.342   0.481  1.8380 -1.4531  4.9659
   90SOL     OW  268   0.523   1.675   2.420  0.3194  0.0996  0.3167
   90SOL    HW1  269   0.419   1.648   2.419 -4.2392 -1.0418 -0.0750
   90SOL    HW2  270   0.556   1.676   2.316  0.8867  0.7080 -4.7240
   91SOL     OW  271   1.441   2.021   0.530 -0.2660  0.0588  0.5382
   91SOL    HW1  272   1.389   2.071   0.449 -2.8557  1.6452 -5.2827
   91SOL    HW2  273   1.475   1.925   0.491  0.3498 -3.9448 -2.4034
   92SOL     OW  274   2.226   0.646   0.467  0.6327 -0.2877 -0.2010
   92SOL    HW1  275   2.151   0.646   0.544 -4.5371  1.2279  3.9667
   92SOL    HW2  276   2.209   0.734   0.410 -1.3649  5.4787 -2.7075
   93SOL     OW  277   1.546   0.941   0.783 -0.2730  0.3085 -1.0116
   93SOL    HW1  278   1.481   0.908   0.863 -3.9248 -2.0848  3.4491
   93SOL    HW2  279   1.558   0.858   0.716 -1.4019 -2.9261 -3.8753
   94SOL     OW  280   1.231   2.489   1.983 -0.5496 -0.3871  0.4207
   94SOL    HW1  281   1.258   2.483   1.880  1.0549 -1.1358 -5.9783
   94SOL    HW2  282   1.231   2.592   2.011 -0.0734  5.1334  2.0337
   95SOL     OW  283   1.127   0.749   1.017  0.1540  0.6503  0.2362
   95SOL    HW1  284   1.096   0.706   0.922 -1.7211 -3.2650 -4.4901
   95SOL    HW2  285   1.099   0.682   1.095 -1.6548 -3.8396  3.0779
   96SOL     OW  286   1.665   2.120   2.169  0.2483  0.8782 -0.5036
   96SOL    HW1  287   1.741   2.057   2.127  4.6206 -3.0758 -2.4226
   96SOL    HW2  288   1.582   2.062   2.202 -3.8755 -1.8979  0.6473
   97SOL     OW  289   1.692   1.825   1.277 -0.1625 -0.6776  0.6548
   97SOL    HW1  290   1.708   1.913   1.336  0.3508  4.2491  4.0016
   97SOL    HW2  291   1.761   1.823   1.194  3.4726 -1.2401 -4.1472
   98SOL     OW  292   1.621   0.664   0.778 -0.0883 -0.2686 -0.0879
   98SOL    HW1  293   1.523   0.648   0.738 -4.5055 -0.7197 -2.1751
   98SOL    HW2  294   1.647   0.577   0.836  2.2933 -5.2522  3.4430
   99SOL     OW  295   0.835   1.559   1.484  0.4009 -0.0677 -0.0032
   99SOL    HW1  296   0.823   1.538   1.589 -0.7557 -1.2336  5.2322
   99SOL    HW2  297   0.755   1.508   1.435 -3.8882 -2.8340 -2.8161
  100SOL     OW  298   2.639   2.292   1.143  0.2640 -0.1273 -0.5100
  100SOL    HW1  299   2.740   2.269   1.116  3.8022 -0.4886 -2.1260
  100SOL    HW2  300   2.634   2.365   1.224 -0.4773  3.5174  3.9539
  101SOL     OW  301   1.199   1.001   0.844 -0.4393 -0.2478  0.2927
  101SOL    HW1  302   1.280   0.950   0.893  3.9367 -3.5261  3.2479
  101SOL    HW2  303   1.222   1.106   0.832  0.7138  6.1627 -0.8918
  102SOL     OW  304   0.302   0.209   1.026  0.1108  0.0643 -0.3452
  102SOL    HW1  305   0.278   0.274   1.110 -0.6388  3.7071  3.3028
  102SOL    HW2  306   0.234   0.127   1.019 -1.5700 -3.3426 -1.0331
  103SOL     OW  307   1.436   0.249   1.203  0.1126  0.0612 -0.2664
  103SOL    HW1  308   1.420   0.143   1.191 -0.6090 -5.3572 -0.7158
  103SOL    HW2  309   1.468   0.267   1.304  2.1744  0.7026  5.6276
  104SOL     OW  310   0.320   1.506   1.222  0.1612 -0.0881 -0.4853
  104SOL    HW1  311   0.384   1.593   1.223  3.7858  4.8309 -0.4398
  104SOL    HW2  312   0.349   1.432   1.297  1.6974 -4.1695  4.0705
  105SOL     OW  313   1.552   1.263   0.360  0.2503  0.0568 -0.0014
  105SOL    HW1  314   1.460   1.248   0.413 -4.3911  0.3865  1.9890
  105SOL    HW2  315   1.616   1.175   0.359  3.4995 -3.7264 -0.5946
  106SOL     OW  316   1.260   1.348   0.280  0.3698 -0.1513 -0.0523
  106SOL    HW1  317   1.158   1.339   0.242 -4.3516 -1.8340  0.5841
  106SOL    HW2  318   1.255   1.290   0.370 -1.3507 -2.6529  3.1245
  107SOL     OW  319   1.102   1.441   0.956  0.1882  0.3145  0.3949
  107SOL    HW1  320   1.062   1.364   1.020 -1.6013 -3.2738  3.1559
  107SOL    HW2  321   1.033   1.457   0.874 -2.9055  1.5126 -4.0322
  108SOL     OW  322   0.989   0.029   1.266 -0.3659  0.0231  0.1986
  108SOL    HW1  323   1.081   0.077   1.296  5.5189  3.2496  2.2904
  108SOL    HW2  324   0.986   0.022   1.160 -0.6315 -1.1156 -5.9637
  109SOL     OW  325   0.706   0.376   0.870  0.2652  0.6318 -0.3186
  109SOL    HW1  326   0.651   0.328   0.792 -3.4380 -1.7532 -4.8377
  109SOL    HW2  327   0.786   0.311   0.896  4.9860 -3.3426  0.7881
  110SOL     OW  328   0.700   0.279   0.457 -0.3504 -0.0912 -0.6590
  110SOL    HW1  329   0.695   0.376   0.499 -0.0685  5.8321  2.5398
  110SOL    HW2  330   0.786   0.231   0.498  5.2706 -2.6602  2.3187
  111SOL     OW  331   1.479   1.322   0.092 -0.1064  0.6850  0.0490
  111SOL    HW1  332   1.483   1.317   0.199 -0.1194  0.0773  4.8281
  111SOL    HW2  333   1.444   1.224   0.059 -2.3021 -5.4526 -2.0922
  112SOL     OW  334   0.519   0.498   1.647  0.1527  0.3437  0.1777
  112SOL    HW1  335   0.536   0.414   1.584 -0.1849 -3.7444 -3.5520
  112SOL    HW2  336   0.423   0.540   1.624 -5.5107  1.8353 -2.0773
  113SOL     OW  337   0.481   0.216   1.265 -1.0336 -0.4173 -0.0450
  113SOL    HW1  338   0.523   0.260   1.352  1.6212  2.6826  2.6286
  113SOL    HW2  339   0.494   0.288   1.184  0.5877  3.4610 -2.7975
  114SOL     OW  340   0.196   2.496   1.821  0.8541  0.1084 -0.1634
  114SOL    HW1  341   0.161   2.470   1.723 -1.5882 -1.0905 -5.5126
  114SOL    HW2  342   0.131   2.570   1.862 -3.3249  4.1174  2.3816
  115SOL     OW  343   0.498   1.408   0.426  0.0777 -0.2667 -0.6371
  115SOL    HW1  344   0.456   1.486   0.486 -2.6313  4.3530  2.9150
  115SOL    HW2  345   0.583   1.370   0.476  4.6248 -2.3267  2.1356
  116SOL     OW  346   0.928   0.944   0.887 -0.5712 -0.5290 -0.1609
  116SOL    HW1  347   0.872   0.900   0.966 -1.3413 -2.3320  3.4984
  116SOL    HW2  348   1.031   0.906   0.887  1.8956 -3.3101  1.8878
  117SOL     OW  349   1.819   0.751   0.620  0.0324  0.2134 -0.0966
  117SOL    HW1  350   1.906   0.786   0.674  4.3080  2.0060  3.0578
  117SOL    HW2  351   1.745   0.714   0.690 -4.9128 -1.7549  3.9406
  118SOL     OW  352   0.109   2.393   1.590  0.0909  0.6324 -0.4110
  118SOL    HW1  353   0.041   2.354   1.517 -3.8319 -1.4003 -3.8222
  118SOL    HW2  354   0.200   2.333   1.593  5.0279 -2.5273  0.0314
  119SOL     OW  355   0.458   1.872   1.621  0.1714  0.4499  0.7829
  119SOL    HW1  356   0.370   1.872   1.558 -3.9808  0.4877 -2.2871
  119SOL    HW2  357   0.505   1.776   1.606  2.2319 -2.8222 -0.0988
  120SOL     OW  358   0.589   1.030   2.034  0.0020 -0.1643 -0.3678
  120SOL    HW1  359   0.539   1.096   2.102 -1.9692  3.3990  3.9151
  120SOL    HW2  360   0.654   0.963   2.087  4.2495 -4.2606  4.0600
  121SOL     OW  361   1.408   0.914   1.881  0.1812 -0.4742 -0.8498
  121SOL    HW1  362   1.420   0.905   1.987  0.3977 -0.3206  4.0573
  121SOL    HW2  363   1.349   1.005   1.867 -3.0809  4.4557 -0.1276
  122SOL     OW  364   2.750   0.602   0.677 -0.0688 -0.3284 -0.0702
  122SOL    HW1  365   2.764   0.622   0.784 -0.5216  2.0573  3.9187
  122SOL    HW2  366   2.723   0.697   0.635 -0.2986  3.7293  0.0776
  123SOL     OW  367   1.906   0.796   2.638 -0.1867  1.1300 -0.5030
  123SOL    HW1  368   2.009   0.806   2.669  6.0205  0.8052  1.1835
  123SOL    HW2  369   1.890   0.695   2.602 -0.1487 -4.6254 -2.0896
  124SOL     OW  370   0.189   0.500   0.695  0.2695  0.4446  0.0526
  124SOL    HW1  371   0.107   0.551   0.650 -2.3803  4.4104 -0.1268
  124SOL    HW2  372   0.170   0.492   0.801 -0.5843 -0.4110  5.1160
  125SOL     OW  373   2.363   1.379   2.082  0.5269 -0.1085  0.1658
  125SOL    HW1  374   2.351   1.391   2.188 -1.1142  0.6444  5.6010
  125SOL    HW2  375   2.278   1.427   2.037 -4.4709  3.0207 -1.7828
  126SOL     OW  376   1.565   1.566   1.649 -0.0302 -0.3580 -0.4069
  126SOL    HW1  377   1.499   1.526   1.723 -4.3011 -1.5245  3.4255
  126SOL    HW2  378   1.517   1.656   1.610 -3.3341  4.9064 -1.9834
  127SOL     OW  379   0.101   0.464   2.177 -0.3790  0.2521  0.5005
  127SOL    HW1  380   0.184   0.526   2.149  4.3526  3.0500 -1.5322
  127SOL    HW2  381   0.093   0.385   2.104 -0.4122 -4.3840 -3.5707
  128SOL     OW  382   1.645   2.807   0.006 -0.0833  0.8275 -0.4446
  128SOL    HW1  383   1.664   2.761   0.102  1.5340 -1.8102  4.5554
  128SOL    HW2  384   1.691   2.753  -0.075  2.4063 -2.8661 -4.2249
  129SOL     OW  385   0.735   0.209   0.064 -0.1353  0.2836  0.3633
  129SOL    HW1  386   0.833   0.179   0.031  4.2370 -1.5887 -2.9245
  129SOL    HW2  387   0.666   0.191  -0.017 -2.4877 -1.2312 -4.9192
  130SOL     OW  388   1.761   2.010   1.463  0.0275  0.0510 -0.2983
  130SOL    HW1  389   1.687   2.022   1.540 -4.5721 -0.4440  3.4706
  130SOL    HW2  390   1.839   2.084   1.469  4.9504  3.4257 -1.1580
  131SOL     OW  391   2.735   0.092   1.847 -0.2809 -0.1421 -0.5141
  131SOL    HW1  392   2.838   0.115   1.841  3.4901  0.9645  0.2860
  131SOL    HW2  393   2.701   0.090   1.951 -1.2401  0.6925  4.4022
  132SOL     OW  394   2.534   2.781   1.768  0.0386  0.3018  0.0941
  132SOL    HW1  395   2.542   2.674   1.775  0.2800 -6.3870 -0.2629
  132SOL    HW2  396   2.622   2.829   1.805  4.6392  3.3376  1.7326
  133SOL     OW  397   0.537   0.403   1.070  0.3792  0.1475  0.0955
  133SOL    HW1  398   0.601   0.384   0.986  3.8712 -1.0048 -5.2099
  133SOL    HW2  399   0.460   0.471   1.040 -3.9258  4.2636 -1.2369
  134SOL     OW  400   0.541   0.966   0.714  0.6944  0.5342 -0.1501
  134SOL    HW1  401   0.533   1.033   0.630 -1.1646  3.4827 -1.3982
  134SOL    HW2  402   0.476   1.006   0.790 -3.2598  3.4428  2.9469
  135SOL     OW  403   2.136   1.705   1.439  0.3282  0.2729  0.3307
  135SOL    HW1  404   2.106   1.603   1.457 -1.3121 -5.8423  0.1274
  135SOL    HW2  405   2.169   1.712   1.337  1.7943 -0.3684 -5.3756
  136SOL     OW  406   2.611   0.927   0.823  0.5276 -0.4911  0.0015
  136SOL    HW1  407   2.518   0.982   0.815 -5.3524  1.9438  1.3896
  136SOL    HW2  408   2.623   0.895   0.923 -0.0982 -1.2229  5.0253
  137SOL     OW  409   0.935   1.399   0.741  0.4158 -0.4889  0.3030
  137SOL    HW1  410   0.899   1.298   0.727 -1.2412 -5.7135 -0.7490
  137SOL    HW2  411   0.854   1.471   0.736 -3.7194  3.3507 -0.2136
  138SOL     OW  412   0.555   0.250   0.693 -0.3131 -0.1487  0.2500
  138SOL    HW1  413   0.448   0.266   0.698 -5.8750  0.8604  0.4052
  138SOL    HW2  414   0.587   0.252   0.591  0.7979  0.2130 -5.0906
  139SOL     OW  415   2.423   1.004   1.132  0.1771 -0.4412 -0.3477
  139SOL    HW1  416   2.459   1.105   1.121  1.9517  5.6229 -1.1695
  139SOL    HW2  417   2.317   1.004   1.119 -5.3329 -0.1455 -0.8456
  140SOL     OW  418   2.406   1.997   1.922 -0.6227 -0.0267  0.3062
  140SOL    HW1  419   2.428   1.922   1.847  1.2916 -3.6208 -3.5231
  140SOL    HW2  420   2.450   2.090   1.890  2.0330  5.4112 -1.5319
  141SOL     OW  421   0.720   0.459   1.812 -0.1163 -0.9156  0.3139
  141SOL    HW1  422   0.704   0.541   1.881 -1.6106  4.1084  4.3333
  141SOL    HW2  423   0.637   0.459   1.743 -5.2228  0.2173 -3.6469
  142SOL     OW  424   1.347   0.709   0.721 -0.3810  0.1259  0.4348
  142SOL    HW1  425   1.362   0.605   0.690 -0.3506 -5.8212 -3.1197
  142SOL    HW2  426   1.310   0.759   0.636 -1.9889  0.6361 -4.7580
  143SOL     OW  427   1.422   2.787   1.439 -0.4035  0.2742 -0.4159
  143SOL    HW1  428   1.507   2.726   1.418  4.3453 -3.1362 -0.4367
  143SOL    HW2  429   1.389   2.774   1.541 -1.6510 -1.2342  5.5556
  144SOL     OW  430   0.119   0.896   1.544 -0.1354 -0.1237  0.6757
  144SOL    HW1  431   0.133   0.803   1.491  0.6376 -5.2215 -2.2449
  144SOL    HW2  432   0.025   0.938   1.512 -5.3954  2.0804 -1.1671
  145SOL     OW  433   0.217   0.082   1.310  0.2744 -0.4176  0.4644
  145SOL    HW1  434   0.225   0.022   1.221  1.7953 -2.9940 -5.0748
  145SOL    HW2  435   0.249   0.183   1.290  2.2396  4.4065 -1.2365
  146SOL     OW  436   1.194   2.261   1.379 -0.1741  0.3117 -0.5052
  146SOL    HW1  437   1.202   2.164   1.425  0.0094 -3.9740  2.1618
  146SOL    HW2  438   1.094   2.270   1.341 -5.3210  0.5743 -2.7007
  147SOL     OW  439   0.863   1.765   0.526 -0.0265 -0.3561  0.6541
  147SOL    HW1  440   0.825   1.698   0.450 -2.3394 -3.5787 -3.3213
  147SOL    HW2  441   0.908   1.846   0.472  2.5354  3.6999 -2.0350
  148SOL     OW  442   1.351   0.523   1.400  0.7416  0.0049 -0.0282
  148SOL    HW1  443   1.251   0.515   1.440 -5.1228 -1.0521  2.2689
  148SOL    HW2  444   1.405   0.433   1.421  2.7215 -5.1259  1.6628
  149SOL     OW  445   0.560   1.356   0.895  0.0458  0.2802 -0.4507
  149SOL    HW1  446   0.457   1.323   0.890 -6.1147 -1.9094 -0.5005
  149SOL    HW2  447   0.620   1.269   0.916  3.4753 -4.7124  0.5258
  150SOL     OW  448   1.917   0.215   2.442  0.1126 -0.3191  0.2101
  150SOL    HW1  449   1.877   0.301   2.395 -2.5822  4.9023 -2.4989
  150SOL    HW2  450   1.846   0.133   2.438 -4.0711 -5.4334  0.0923
  151SOL     OW  451   2.404   2.065   0.838 -0.0404 -0.0471 -0.4889
  151SOL    HW1  452   2.411   2.136   0.918  0.4635  3.9499  4.8940
  151SOL    HW2  453   2.380   1.969   0.876 -1.4031 -5.3778  1.9754
  152SOL     OW  454   1.690   1.997   0.654  0.2500  0.2615  0.3634
  152SOL    HW1  455   1.765   2.059   0.608  4.6498  3.3086 -1.5845
  152SOL    HW2  456   1.592   2.015   0.613 -5.0689  0.1290 -1.0805
  153SOL     OW  457   2.457   0.840   1.359  0.2094 -0.1980  0.3492
  153SOL    HW1  458   2.403   0.918   1.415 -2.1823  4.1981  1.0407
  153SOL    HW2  459   2.468   0.874   1.258 -0.2694  2.5259 -2.1939
  154SOL     OW  460   1.129   1.916   2.443 -0.0087 -0.1350  0.0860
  154SOL    HW1  461   1.138   2.022   2.462 -0.1814  5.5046  0.1977
  154SOL    HW2  462   1.082   1.904   2.346 -2.4540 -0.0734 -5.0095
  155SOL     OW  463   1.415   2.350   2.812  0.3338  0.3139 -0.2841
  155SOL    HW1  464   1.346   2.270   2.837 -3.4856 -5.2146  1.6965
  155SOL    HW2  465   1.515   2.316   2.829  6.5485 -2.2502  0.7556
  156SOL     OW  466   2.525   0.106   0.997  0.2446 -0.2157 -0.3837
  156SOL    HW1  467   2.514   0.131   1.102 -0.4788  0.6663  5.5370
  156SOL    HW2  468   2.549   0.194   0.942  1.6946  3.7654 -3.0914
  157SOL     OW  469   0.684   1.527   0.745  0.4012 -0.0104 -0.5380
  157SOL    HW1  470   0.635   1.622   0.749 -2.3123  3.4138  0.1338
  157SOL    HW2  471   0.625   1.462   0.809 -3.6509 -3.7215  3.2335
  158SOL     OW  472   0.362   0.589   1.287  0.4283 -0.0215 -0.5851
  158SOL    HW1  473   0.280   0.644   1.329 -3.2319  3.6705  1.7740
  158SOL    HW2  474   0.452   0.624   1.333  4.8176  2.0367  2.4090
  159SOL     OW  475   1.422   0.980   1.219  0.2771  0.0542 -0.2694
  159SOL    HW1  476   1.408   0.905   1.292 -0.6631 -4.1676  3.6793
  159SOL    HW2  477   1.480   1.062   1.261  4.1206  5.5900  2.8146
  160SOL     OW  478   0.510   1.341   1.809  0.7176 -0.2088 -0.2970
  160SOL    HW1  479   0.513   1.449   1.819  0.2341  6.3966  0.7583
  160SOL    HW2  480   0.414   1.310   1.845 -4.4000 -0.0189  2.0302
  161SOL     OW  481   1.617   0.211   2.598  0.0429 -0.0791 -0.0018
  161SOL    HW1  482   1.669   0.128   2.552  2.0909 -3.8740 -2.6565
  161SOL    HW2  483   1.675   0.253   2.679  3.0398  1.9014  4.2739
  162SOL     OW  484   0.896   1.974   1.608  0.5790 -0.2062  0.1011
  162SOL    HW1  485   0.807   2.029   1.633 -4.2895  3.6581  0.9756
  162SOL    HW2  486   0.981   2.040   1.611  4.8790  3.1585  0.6414
  163SOL     OW  487   1.300   0.297   0.488 -0.2729  0.1369 -0.5772
  163SOL    HW1  488   1.236   0.256   0.564 -2.7957 -3.0423  3.9554
  163SOL    HW2  489   1.393   0.245   0.492  4.8638 -3.6606  0.3906
  164SOL     OW  490   2.832   0.247   1.000  0.2441 -0.1535  0.7320
  164SOL    HW1  491   2.891   0.335   0.977  4.1728  4.7979 -1.2964
  164SOL    HW2  492   2.874   0.167   0.947  2.5344 -2.6549 -2.0246
  165SOL     OW  493   1.612   0.675   0.446 -0.3741  0.4850  0.2534
  165SOL    HW1  494   1.689   0.713   0.510  3.9247  1.1737  2.3308
  165SOL    HW2  495   1.661   0.624   0.364  3.3162 -1.7838 -3.7007
  166SOL     OW  496   2.013   0.863   0.782  0.7950  0.2171  0.0539
  166SOL    HW1  497   2.020   0.809   0.874  0.8836 -1.3770  4.3389
  166SOL    HW2  498   1.930   0.932   0.790 -4.1780  3.1807  0.6730
  167SOL     OW  499   0.391   0.401   2.133 -0.0552  0.0330 -0.0747
  167SOL    HW1  500   0.379   0.299   2.164 -0.7744 -5.9343  1.9943
  167SOL    HW2  501   0.373   0.406   2.026 -1.2861 -0.3006 -6.0286
  168SOL     OW  502   1.826   1.050   2.631  0.5838  1.0547  0.1294
  168SOL    HW1  503   1.786   1.058   2.532 -0.7084  1.5074 -2.5964
  168SOL    HW2  504   1.863   0.947   2.635  2.2406 -3.8448  0.1326
  169SOL     OW  505   0.053   1.392   0.426  0.7898 -0.2261  0.4561
  169SOL    HW1  506   0.002   1.402   0.333 -1.8696  2.5255 -4.2782
  169SOL    HW2  507   0.092   1.490   0.450  2.1516  5.4768  0.3764
  170SOL     OW  508   2.331   0.595   1.379 -0.4040 -0.2956 -0.8735
  170SOL    HW1  509   2.317   0.589   1.485 -1.0492  0.3982  5.3966
  170SOL    HW2  510   2.376   0.691   1.360  2.0463  5.3510 -0.7326
  171SOL     OW  511   0.480   0.875   1.084 -0.0748 -0.4868 -0.1965
  171SOL    HW1  512   0.401   0.854   1.154 -2.9802 -0.6757  1.8960
  171SOL    HW2  513   0.439   0.932   1.002 -1.0695  1.3775 -2.9353
  172SOL     OW  514   0.569   2.804   1.236 -0.0797 -0.5051  0.2811
  172SOL    HW1  515   0.555   2.768   1.138 -0.9941 -2.5406 -5.8239
  172SOL    HW2  516   0.528   2.903   1.243 -3.6597  6.4835 -0.0720
  173SOL     OW  517   1.141   0.995   0.583 -0.6134  0.1415  0.0593
  173SOL    HW1  518   1.175   0.909   0.530  1.0723 -4.4030 -0.3505
  173SOL    HW2  519   1.157   0.973   0.688  0.7922 -3.1143  4.6236
  174SOL     OW  520   2.218   2.086   0.658 -0.5773  0.1854  0.0550
  174SOL    HW1  521   2.293   2.082   0.737  4.0956 -0.0611  4.4300
  174SOL    HW2  522   2.124   2.057   0.701 -5.0202 -0.8997  1.7593
  175SOL     OW  523   2.839   2.323   0.374  0.3460 -0.2454 -0.0178
  175SOL    HW1  524   2.732   2.321   0.359 -6.4809 -0.8942 -0.6259
  175SOL    HW2  525   2.862   2.385   0.459  1.5426  3.7036  4.8239
  176SOL     OW  526   1.481   0.295   1.466  0.1494 -0.6971  0.0008
  176SOL    HW1  527   1.561   0.344   1.519  4.5310  2.3643  3.5347
  176SOL    HW2  528   1.407   0.262   1.536 -3.2013 -2.2011  3.8354
  177SOL     OW  529   1.318   1.195   0.504  0.3365 -0.4822 -0.1349
  177SOL    HW1  530   1.337   1.285   0.563  1.1364  5.0039  3.5434
  177SOL    HW2  531   1.238   1.143   0.554 -4.2353 -3.0258  3.1173
  178SOL     OW  532   0.117   1.126   0.427 -0.1791 -0.3489 -0.1561
  178SOL    HW1  533   0.091   1.230   0.418 -1.8997  4.6441  0.0482
  178SOL    HW2  534   0.224   1.119   0.433  4.6233 -1.3948  0.1147
  179SOL     OW  535   1.359   2.743   1.705 -0.5096 -0.7079 -0.1649
  179SOL    HW1  536   1.318   2.829   1.755 -1.3929  3.7704  2.7813
  179SOL    HW2  537   1.465   2.731   1.722  5.2243 -0.2969  1.3448
  180SOL     OW  538   1.411   2.648   0.372  0.1054 -0.2129 -0.4034
  180SOL    HW1  539   1.400   2.751   0.346 -0.0151  7.7073 -1.5236
  180SOL    HW2  540   1.471   2.640   0.461  4.6338 -0.1579  6.1609
  181SOL     OW  541   1.633   1.265   1.076 -0.5684 -0.3975  0.2562
  181SOL    HW1  542   1.578   1.238   0.989 -3.5826 -2.0329 -4.4926
  181SOL    HW2  543   1.653   1.371   1.080  0.7836  5.8727  1.2477
  182SOL     OW  544   1.597   0.725   2.133  0.5616 -0.2312  0.3614
  182SOL    HW1  545   1.524   0.802   2.134 -3.6559  3.6245 -0.5521
  182SOL    HW2  546   1.593   0.683   2.034 -0.6619 -1.9344 -5.3669
  183SOL     OW  547   1.250   1.275   0.796 -0.4348 -0.3567 -0.0523
  183SOL    HW1  548   1.180   1.331   0.856 -4.0947  2.5391  3.3170
  183SOL    HW2  549   1.295   1.343   0.725  2.2415  2.8350 -4.4668
  184SOL     OW  550   0.527   2.476   1.620  0.0905 -0.3458  0.2207
  184SOL    HW1  551   0.477   2.509   1.709 -2.1155  1.2553  4.8022
  184SOL    HW2  552   0.493   2.532   1.533 -1.3825  2.9776 -5.4127
  185SOL     OW  553   1.067   0.676   1.833  0.0674 -0.2926 -0.0051
  185SOL    HW1  554   0.987   0.744   1.841 -4.7591  3.9753  0.4207
  185SOL    HW2  555   1.146   0.714   1.773  5.2649  2.0981 -4.2258
  186SOL     OW  556   0.492   1.944   2.212 -0.2395 -0.7318  0.1032
  186SOL    HW1  557   0.441   2.039   2.206 -3.8150  4.7173 -0.5080
  186SOL    HW2  558   0.491   1.896   2.116  0.6315 -3.2428 -5.4559
  187SOL     OW  559   2.213   1.232   0.839 -0.1100  0.0015  0.3245
  187SOL    HW1  560   2.273   1.145   0.822  3.1805 -4.8082 -0.6049
  187SOL    HW2  561   2.277   1.317   0.820  2.8536  4.2405 -0.8481
  188SOL     OW  562   0.113   0.212   0.373  0.4801 -0.1025  0.5969
  188SOL    HW1  563   0.080   0.280   0.449 -2.9604  3.0200  2.1770
  188SOL    HW2  564   0.019   0.185   0.325 -4.0281 -1.2315 -0.9169
  189SOL     OW  565   0.317   1.427   0.228 -0.4016 -0.1009  0.1283
  189SOL    HW1  566   0.381   1.447   0.143  3.3227  0.9578 -5.4933
  189SOL    HW2  567   0.378   1.417   0.315  2.7529 -0.6173  5.5134
  190SOL     OW  568   1.981   2.172   1.486 -0.0356  0.1560  0.0898
  190SOL    HW1  569   2.053   2.093   1.473  5.4423 -3.4240  0.7193
  190SOL    HW2  570   2.016   2.230   1.570  3.0738  1.6388  4.7582
  191SOL     OW  571   1.814   0.224   1.519  0.7379 -0.0780  0.5545
  191SOL    HW1  572   1.784   0.223   1.415 -2.4510  0.6922 -6.0813
  191SOL    HW2  573   1.757   0.302   1.565 -3.1134  4.2357  2.0021
  192SOL     OW  574   2.104   1.225   0.555 -0.2401 -0.2562  0.0417
  192SOL    HW1  575   2.181   1.299   0.540  3.9176  3.5485 -1.3107
  192SOL    HW2  576   2.152   1.134   0.583  2.4610 -5.2075  1.0070
  193SOL     OW  577   1.195   1.288   1.245  1.0782 -0.2277 -0.0441
  193SOL    HW1  578   1.127   1.276   1.330 -3.2465 -1.9021  2.9698
  193SOL    HW2  579   1.162   1.223   1.168 -1.9487 -3.5558 -2.4807
  194SOL     OW  580   0.599   0.671   1.401  0.2790  0.2666 -0.2068
  194SOL    HW1  581   0.637   0.692   1.499  2.7375  1.0203  5.5146
  194SOL    HW2  582   0.636   0.577   1.364  2.6642 -5.5467 -2.1120
  195SOL     OW  583   1.723   0.268   0.266  0.0892  0.7319  0.2275
  195SOL    HW1  584   1.777   0.174   0.250  1.4878 -4.2098 -0.5472
  195SOL    HW2  585   1.624   0.250   0.229 -2.4423 -1.3930 -0.9599
  196SOL     OW  586   1.025   2.164   1.873  0.1248 -0.4078 -0.4080
  196SOL    HW1  587   0.962   2.102   1.933 -3.6216 -4.2301  3.4228
  196SOL    HW2  588   1.002   2.266   1.895 -1.5481  6.1361  1.1794
  197SOL     OW  589   0.236   1.911   1.917  0.1025  0.2204 -0.7408
  197SOL    HW1  590   0.156   1.909   1.845 -4.6824  0.2429 -3.7118
  197SOL    HW2  591   0.193   1.923   2.014 -1.9281  0.4147  5.3379
  198SOL     OW  592   2.783   1.275   0.639 -0.0342  0.0260  0.3147
  198SOL    HW1  593   2.801   1.169   0.634  0.9407 -5.3070  0.1594
  198SOL    HW2  594   2.832   1.325   0.557  2.5487  2.8367 -3.9764
  199SOL     OW  595   0.279   1.189   1.801  0.4841  0.1248 -0.0660
  199SOL    HW1  596   0.234   1.096   1.828 -2.4534 -4.1527  1.9165
  199SOL    HW2  597   0.209   1.270   1.819 -4.2853  4.6472  0.9423
  200SOL     OW  598   2.294   2.484   0.930 -0.3470 -0.2574 -0.2174
  200SOL    HW1  599   2.388   2.532   0.907  4.7629  2.2621 -1.4143
  200SOL    HW2  600   2.221   2.558   0.955 -2.8200  3.6354  0.8197
  201SOL     OW  601   0.523   1.750   0.820  0.1517  0.3061 -0.1021
  201SOL    HW1  602   0.431   1.709   0.856 -3.3205 -0.4839  2.5317
  201SOL    HW2  603   0.565   1.805   0.904  1.2679  2.2442  4.4067
  202SOL     OW  604   0.231   1.982   0.358  0.0524  0.7343  0.2253
  202SOL    HW1  605   0.166   1.968   0.273 -3.6324 -1.1226 -5.3266
  202SOL    HW2  606   0.298   1.900   0.362  4.1883 -4.8126 -0.2543
  203SOL     OW  607   0.782   0.628   0.915  0.1170  0.5295  0.0726
  203SOL    HW1  608   0.783   0.648   1.020  0.0129  0.8581  5.9652
  203SOL    HW2  609   0.745   0.529   0.898 -2.1686 -5.4277 -1.0137
  204SOL     OW  610   1.450   0.738   0.030 -0.2174  0.0735  0.2372
  204SOL    HW1  611   1.513   0.820  -0.002  2.6393  4.8009 -1.4666
  204SOL    HW2  612   1.486   0.648  -0.013  1.5027 -4.0318 -2.0943
  205SOL     OW  613   0.130   2.062   1.536  0.0160  0.3347 -0.8455
  205SOL    HW1  614   0.213   2.120   1.569  4.8352  3.3672  0.5528
  205SOL    HW2  615   0.086   2.011   1.620 -3.4447 -3.1522  4.1017
  206SOL     OW  616   1.196   2.342   1.013 -0.2829  0.2515  0.3409
  206SOL    HW1  617   1.164   2.242   0.984 -0.7214 -5.0892  0.1221
  206SOL    HW2  618   1.249   2.322   1.105  1.6640 -2.7213  4.1722
  207SOL     OW  619   0.691   1.871   1.003 -0.1268  0.0804  0.7937
  207SOL    HW1  620   0.756   1.785   0.991  3.8310 -3.5103 -1.4276
  207SOL    HW2  621   0.724   1.938   0.926  2.9803  1.9844 -3.5166
  208SOL     OW  622   0.412   0.871   1.428  0.0529  0.0224 -0.0258
  208SOL    HW1  623   0.394   0.892   1.532 -1.3556  1.0648  5.3352
  208SOL    HW2  624   0.492   0.799   1.417  4.9467 -3.6686 -0.7376
  209SOL     OW  625   1.059   0.158   0.260 -0.0563 -0.2026 -0.4476
  209SOL    HW1  626   0.982   0.230   0.278 -3.9662  2.1864  2.5095
  209SOL    HW2  627   1.068   0.103   0.352 -1.4579 -1.4073  5.1739
  210SOL     OW  628   0.390   2.794   0.706  0.2042 -0.2333 -0.0317
  210SOL    HW1  629   0.360   2.852   0.620 -1.2101  4.1716 -4.0281
  210SOL    HW2  630   0.432   2.865   0.775  2.3925  4.3972  3.0365
  211SOL     OW  631   1.379   2.792   2.825 -0.1509  0.2257  0.0952
  211SOL    HW1  632   1.338   2.693   2.815 -1.8504 -5.6763 -0.4490
  211SOL    HW2  633   1.485   2.784   2.834  5.4033 -0.8528  0.4472
  212SOL     OW  634   2.824   1.006   0.681  0.0644  0.2200 -0.5006
  212SOL    HW1  635   2.732   0.977   0.725 -5.6550 -1.8742  2.0262
  212SOL    HW2  636   2.882   0.917   0.657  3.7616 -6.1316 -2.3207
  213SOL     OW  637   0.741   2.572   1.250  0.2783 -0.2879 -0.2670
  213SOL    HW1  638   0.681   2.656   1.227 -2.3066  3.4503 -1.4259
  213SOL    HW2  639   0.756   2.564   1.359  1.3131 -0.8324  5.7265
  214SOL     OW  640   2.267   1.129   2.143  0.2217 -0.2836  0.0665
  214SOL    HW1  641   2.316   1.215   2.101  3.8006  4.2493 -2.6818
  214SOL    HW2  642   2.194   1.162   2.215 -4.4729  1.1328  3.9975
  215SOL     OW  643   0.535   1.375   2.508 -0.0287  0.3753 -0.4469
  215SOL    HW1  644   0.455   1.419   2.562 -4.8885  2.7900  3.3990
  215SOL    HW2  645   0.553   1.278   2.549  0.8861 -6.0443  2.8834
  216SOL     OW  646   0.017   1.933   1.738 -0.3155  0.4070 -0.9671
  216SOL    HW1  647  -0.045   1.991   1.803 -3.6087  3.8231  2.3808
  216SOL    HW2  648  -0.000   1.829   1.756 -1.4212 -4.5657 -0.2573
  217SOL     OW  649   0.277   0.648   2.078 -0.2318 -0.3841  0.1564
  217SOL    HW1  650   0.311   0.750   2.064  2.3813  5.9140 -1.1172
  217SOL    HW2  651   0.311   0.589   1.994  1.7896 -2.2050 -3.7179
  218SOL     OW  652   1.306   2.482   1.728 -0.2144 -0.6567  0.3513
  218SOL    HW1  653   1.370   2.429   1.662  3.1617 -3.7811 -3.0188
  218SOL    HW2  654   1.325   2.586   1.716  0.8444  5.7066 -0.3356
  219SOL     OW  655   1.086   0.675   2.106  0.0639 -0.0101 -0.0712
  219SOL    HW1  656   0.990   0.653   2.146 -4.9105 -1.0108  2.2094
  219SOL    HW2  657   1.081   0.674   1.999 -0.0544  0.2706 -6.3621
  220SOL     OW  658   1.264   0.633   2.503  0.2486  0.0552  0.7204
  220SOL    HW1  659   1.255   0.596   2.402 -0.1421 -1.8812 -5.9336
  220SOL    HW2  660   1.366   0.667   2.515  5.9141  1.9269  0.7575
  221SOL     OW  661   0.732   0.858   2.169  0.1130 -0.1407 -0.1731
  221SOL    HW1  662   0.674   0.825   2.253 -3.1108 -1.6873  4.1368
  221SOL    HW2  663   0.817   0.913   2.207  4.7200  2.8936  2.4466
  222SOL     OW  664   0.226   1.151   1.530 -0.0020 -0.1466 -0.2549
  222SOL    HW1  665   0.192   1.049   1.524 -1.5580 -4.7834  0.9982
  222SOL    HW2  666   0.255   1.175   1.631  0.9902  0.2244  4.6193
  223SOL     OW  667   1.001   1.923   0.354 -0.0325 -0.3336  0.2942
  223SOL    HW1  668   1.099   1.919   0.311  5.1762 -0.8554 -2.4760
  223SOL    HW2  669   0.931   1.941   0.275 -4.2653  1.0387 -4.4609
  224SOL     OW  670   0.977   0.364   0.036  0.2896  0.6039 -0.8383
  224SOL    HW1  671   0.932   0.363   0.134 -2.4891 -1.4107  4.8294
  224SOL    HW2  672   0.996   0.260   0.014  0.5321 -5.3609  0.3396
  225SOL     OW  673   0.268   1.506   1.615  0.6174  0.0628  0.4469
  225SOL    HW1  674   0.194   1.547   1.547 -3.3941  2.2810 -3.2120
  225SOL    HW2  675   0.216   1.464   1.700 -1.3237 -1.5295  5.2888
  226SOL     OW  676   0.744   1.176   0.972 -0.3458  0.2196 -0.5029
  226SOL    HW1  677   0.845   1.197   0.946  3.2603 -0.4098 -1.3303
  226SOL    HW2  678   0.733   1.070   0.996  0.6645 -4.9970  0.0911
  227SOL     OW  679   0.399   1.170   2.160  0.0612 -0.3381 -0.3994
  227SOL    HW1  680   0.440   1.253   2.220  1.3477  2.9738  1.6359
  227SOL    HW2  681   0.349   1.210   2.074 -0.8691  1.3859 -2.5051
  228SOL     OW  682   0.880   0.587   2.263 -0.0708  0.3535  0.2900
  228SOL    HW1  683   0.924   0.494   2.230  2.7413 -4.7248 -1.8460
  228SOL    HW2  684   0.774   0.587   2.249 -5.0503  0.4243 -0.1657
  229SOL     OW  685   0.789   1.022   0.361 -0.3367  0.4789 -0.1516
  229SOL    HW1  686   0.874   1.083   0.384  5.2103  3.3110  1.5294
  229SOL    HW2  687   0.810   0.922   0.392  1.2931 -5.4198  1.7437
  230SOL     OW  688   2.043   1.400   1.770  0.2224 -0.2031  0.4697
  230SOL    HW1  689   1.956   1.457   1.750 -4.1295  3.8985 -1.1046
  230SOL    HW2  690   2.023   1.295   1.779 -0.1996 -6.7433  0.9472
  231SOL     OW  691   0.507   1.612   1.547  0.1400  0.4150 -0.0237
  231SOL    HW1  692   0.553   1.560   1.465  1.9105 -2.7038 -4.3892
  231SOL    HW2  693   0.406   1.574   1.556 -5.1109 -2.1050 -0.1707
  232SOL     OW  694   2.598   0.745   2.375  0.6343 -0.0888  0.4871
  232SOL    HW1  695   2.507   0.796   2.395 -3.3830  2.8426  0.8595
  232SOL    HW2  696   2.636   0.783   2.281  1.6731  2.5371 -5.0037
  233SOL     OW  697   1.817   0.427   2.324 -0.1837 -0.1184 -0.0928
  233SOL    HW1  698   1.868   0.442   2.231  3.5928  1.0708 -6.0550
  233SOL    HW2  699   1.722   0.382   2.307 -6.0036 -2.5204 -1.3282
  234SOL     OW  700   2.050   1.019   2.026 -0.2949  0.1993 -0.0399
  234SOL    HW1  701   2.147   1.052   2.059  4.8195  2.3254  1.2686
  234SOL    HW2  702   2.016   0.937   2.086 -2.3858 -4.6199  3.3611
  235SOL     OW  703   1.259   0.270   2.132  0.2713  0.4044  0.5518
  235SOL    HW1  704   1.235   0.174   2.172 -1.3039 -5.2500  3.0539
  235SOL    HW2  705   1.222   0.279   2.030 -1.4560  1.2268 -5.7191
  236SOL     OW  706   0.615   1.816   0.245 -0.0883  0.0879  0.1928
  236SOL    HW1  707   0.569   1.787   0.152 -2.7333 -1.4289 -5.1544
  236SOL    HW2  708   0.676   1.735   0.281  2.7981 -4.6605  2.0937
  237SOL     OW  709   1.051   1.256   2.167 -0.4697 -0.1590 -0.4056
  237SOL    HW1  710   1.054   1.359   2.196  0.5877  6.2678  1.6264
  237SOL    HW2  711   1.152   1.219   2.160  5.6180 -2.1074 -0.6365
  238SOL     OW  712   2.130   1.346   2.608  0.2339  0.1414 -0.3236
  238SOL    HW1  713   2.041   1.409   2.599 -3.2357  3.3416 -0.6513
  238SOL    HW2  714   2.103   1.259   2.666 -0.9000 -3.1788  2.4818
  239SOL     OW  715   2.722   1.413   2.182  0.6931 -0.0700 -0.2454
  239SOL    HW1  716   2.680   1.322   2.224 -1.2899 -5.0758  2.2834
  239SOL    HW2  717   2.660   1.494   2.214 -2.0961  4.3413  1.1192
  240SOL     OW  718   0.011   1.685   1.848 -0.0960  0.3048 -0.0779
  240SOL    HW1  719  -0.026   1.610   1.779 -3.2888 -3.7805 -3.1745
  240SOL    HW2  720   0.114   1.666   1.872  5.9404  0.2789  2.4556
  241SOL     OW  721   1.739   2.639   2.649 -0.2009  0.1362  0.5965
  241SOL    HW1  722   1.651   2.633   2.587 -4.1986 -1.1191 -2.8036
  241SOL    HW2  723   1.826   2.639   2.586  4.2966  0.0393 -2.9818
  242SOL     OW  724   2.754   1.381   0.881 -0.2684  0.1814  0.0502
  242SOL    HW1  725   2.769   1.348   0.779  0.5761 -1.9865 -6.0624
  242SOL    HW2  726   2.847   1.417   0.921  4.8605  2.1009  2.1587
  243SOL     OW  727   0.711   1.060   1.473  0.0410 -0.4407 -0.1402
  243SOL    HW1  728   0.722   1.110   1.379 -0.2683  2.0286 -4.4556
  243SOL    HW2  729   0.626   1.102   1.526 -5.0239  2.4324  2.1869
  244SOL     OW  730   0.435   0.713   1.860 -0.6027 -0.4403 -0.2447
  244SOL    HW1  731   0.532   0.688   1.900  5.0894 -0.9427  3.5539
  244SOL    HW2  732   0.394   0.793   1.921 -1.8604  4.6840  4.1858
  245SOL     OW  733   1.534   2.778   2.034 -0.3458 -0.1903 -0.4666
  245SOL    HW1  734   1.578   2.873   2.056  2.2061  5.4032  1.1032
  245SOL    HW2  735   1.612   2.707   2.012  3.6001 -3.6899 -1.6810
  246SOL     OW  736   1.256   1.139   1.882 -0.4656 -0.6358 -0.1244
  246SOL    HW1  737   1.349   1.183   1.911  4.8014  2.7521  1.5245
  246SOL    HW2  738   1.212   1.201   1.806 -2.0672  3.4722 -4.2210
  247SOL     OW  739   0.924   0.416   2.619 -0.4185  0.3033 -0.4321
  247SOL    HW1  740   0.934   0.412   2.726  2.8073 -0.1745  4.1879
  247SOL    HW2  741   1.025   0.407   2.580  5.9095 -0.3853 -0.5087
  248SOL     OW  742   0.505   1.715   1.205  0.0762  0.3446  0.1903
  248SOL    HW1  743   0.582   1.651   1.164  3.7679 -2.7470 -1.9658
  248SOL    HW2  744   0.551   1.804   1.246  2.8791  4.3838  2.0060
  249SOL     OW  745   0.554   2.119   2.679  0.8776 -0.1595  0.1624
  249SOL    HW1  746   0.502   2.071   2.597 -3.1460 -3.3758 -4.8252
  249SOL    HW2  747   0.512   2.079   2.768 -1.7046 -2.9343  3.5681
  250SOL     OW  748   2.278   0.628   2.367  0.1544  0.2271 -0.5765
  250SOL    HW1  749   2.308   0.673   2.458  1.2709  1.9182  3.1205
  250SOL    HW2  750   2.207   0.547   2.388 -3.0324 -3.5873  1.7664
  251SOL     OW  751   1.714   0.488   1.193 -0.7509 -0.4997 -0.2678
  251SOL    HW1  752   1.802   0.503   1.253  2.7908  2.1102  3.4466
  251SOL    HW2  753   1.642   0.562   1.222 -2.3610  3.5483  2.2196
  252SOL     OW  754   1.553   0.211   0.485 -0.4223  0.0704  0.0777
  252SOL    HW1  755   1.616   0.288   0.524  2.9097  4.2084  1.9277
  252SOL    HW2  756   1.609   0.116   0.479  3.4083 -6.3917 -0.4949
  253SOL     OW  757   1.587   1.884   2.000  0.5527 -0.1388 -0.6446
  253SOL    HW1  758   1.685   1.903   2.040  5.3034  0.7475  1.8266
  253SOL    HW2  759   1.514   1.947   2.047 -3.7707  3.0749  2.4812
  254SOL     OW  760   1.861   0.513   2.603 -0.0791  0.6707 -0.0164
  254SOL    HW1  761   1.815   0.451   2.678 -2.7615 -2.6374  3.1631
  254SOL    HW2  762   1.830   0.478   2.506 -1.9441 -1.6466 -3.6765
  255SOL     OW  763   0.301   0.330   1.553 -0.1011  0.5322  0.3511
  255SOL    HW1  764   0.220   0.257   1.548 -2.0929 -4.9395 -0.8207
  255SOL    HW2  765   0.390   0.287   1.512  1.7080 -3.4040 -1.4480
  256SOL     OW  766   1.352   0.133   2.627 -0.4871  0.4086  0.2979
  256SOL    HW1  767   1.350   0.069   2.714  0.4808 -2.9126  4.9987
  256SOL    HW2  768   1.449   0.179   2.623  5.4104  1.8189  0.5372
  257SOL     OW  769   0.728   2.443   0.525  0.4926 -0.2387  0.0356
  257SOL    HW1  770   0.688   2.459   0.425 -1.5915  0.7145 -5.8485
  257SOL    HW2  771   0.670   2.496   0.595 -2.9433  2.2548  3.3643
  258SOL     OW  772   0.854   1.650   2.320  0.5794 -0.0274  0.1111
  258SOL    HW1  773   0.789   1.736   2.331 -2.3331  5.2788  1.0674
  258SOL    HW2  774   0.803   1.562   2.353 -1.7063 -5.2724  1.8505
  259SOL     OW  775   1.383   0.913   2.631  0.2508  0.4501  0.0863
  259SOL    HW1  776   1.301   0.869   2.685 -3.2613 -1.8607  2.3359
  259SOL    HW2  777   1.456   0.833   2.617  3.3731 -3.1440 -0.8266
  260SOL     OW  778   0.439   2.605   1.856  0.6697 -0.0601  0.6347
  260SOL    HW1  779   0.424   2.709   1.834  0.1319  5.7923 -0.4962
  260SOL    HW2  780   0.343   2.557   1.858 -4.3644 -2.6341  0.7428
  261SOL     OW  781   1.336   0.908   0.213  0.3969  0.5484  0.0897
  261SOL    HW1  782   1.367   0.831   0.146  1.1907 -3.5781 -3.6956
  261SOL    HW2  783   1.239   0.879   0.255 -5.3824 -2.2603  2.1134
  262SOL     OW  784   1.472   0.994   0.428  0.8563 -0.3302  0.2113
  262SOL    HW1  785   1.408   1.073   0.462 -3.6295  3.4750  0.6327
  262SOL    HW2  786   1.431   0.970   0.331 -2.8675 -0.5216 -4.5025
  263SOL     OW  787   0.234   2.670   2.180 -0.2419 -0.5099 -0.4295
  263SOL    HW1  788   0.215   2.736   2.101 -1.0824  1.7972 -3.7017
  263SOL    HW2  789   0.233   2.721   2.277 -0.4357  2.4191  6.3756
  264SOL     OW  790   1.503   1.224   1.955 -0.2136 -0.0114 -0.1282
  264SOL    HW1  791   1.574   1.154   1.915  3.3795 -4.2236 -3.0056
  264SOL    HW2  792   1.530   1.254   2.053  1.3421  1.9211  5.0329
  265SOL     OW  793   2.316   0.037   2.167  0.4887  0.0494 -0.3588
  265SOL    HW1  794   2.309   0.109   2.246  0.0138  5.5117  6.0774
  265SOL    HW2  795   2.375  -0.043   2.200  3.7193 -4.9584  2.5454
  266SOL     OW  796   0.990   0.371   2.157 -0.2969  0.3768  0.4437
  266SOL    HW1  797   0.938   0.340   2.067 -2.9990 -1.9693 -5.6267
  266SOL    HW2  798   1.092   0.349   2.146  4.5175 -0.9756 -0.7759
  267SOL     OW  799   1.035   1.021   1.982 -0.2483 -0.1845  0.4841
  267SOL    HW1  800   1.007   1.042   2.083 -1.7569  1.0318  5.0631
  267SOL    HW2  801   1.126   1.071   1.954  5.0054  2.7143 -1.8552
  268SOL     OW  802   2.805   0.654   2.503  0.6537  0.0511  0.2545
  268SOL    HW1  803   2.839   0.561   2.463  1.1505 -4.1937 -2.4107
  268SOL    HW2  804   2.725   0.688   2.438 -3.5067  0.3027 -4.4515
  269SOL     OW  805   1.911   1.503   0.064 -0.3691 -0.2425  0.0143
  269SOL    HW1  806   1.893   1.555   0.155 -0.3555  2.9319  5.4177
  269SOL    HW2  807   2.018   1.496   0.055  6.0141 -0.8862  0.6862
  270SOL     OW  808   0.721   0.767   0.696  0.4063  0.1645  0.0053
  270SOL    HW1  809   0.745   0.725   0.792  1.5429 -1.3617  6.3526
  270SOL    HW2  810   0.656   0.852   0.710 -3.0975  5.2986  1.2568
  271SOL     OW  811   2.002   1.141   1.791 -0.0961  0.0225 -0.3722
  271SOL    HW1  812   1.998   1.078   1.877 -0.4760 -3.3575  4.7490
  271SOL    HW2  813   1.974   1.085   1.705 -1.5443 -3.1801 -5.2655
  272SOL     OW  814   1.021   2.318   2.632  0.1382  0.2054 -0.0133
  272SOL    HW1  815   1.000   2.349   2.733 -1.0242  1.3799  5.1392
  272SOL    HW2  816   1.098   2.241   2.633  4.8031 -4.3024 -0.0037
  273SOL     OW  817   1.804   0.828   1.948  0.3480  0.1256 -0.1035
  273SOL    HW1  818   1.732   0.749   1.947 -3.4097 -3.7557  0.7239
  273SOL    HW2  819   1.856   0.826   2.042  2.7805 -0.3070  4.9053
  274SOL     OW  820   2.621   0.618   0.375 -0.1422 -0.0140 -0.2983
  274SOL    HW1  821   2.627   0.676   0.464  1.4044  2.3844  3.8160
  274SOL    HW2  822   2.720   0.585   0.346  5.5392 -1.3259 -0.7839
  275SOL     OW  823   1.580   0.306   2.350 -0.4018 -0.4878 -0.2056
  275SOL    HW1  824   1.536   0.404   2.341 -2.5788  5.3322 -0.8405
  275SOL    HW2  825   1.579   0.274   2.452  0.3222 -2.7078  5.2181
  276SOL     OW  826   1.098   1.313   1.736  0.1709 -0.0848 -0.5187
  276SOL    HW1  827   1.009   1.261   1.711 -3.6250 -2.7986 -1.4600
  276SOL    HW2  828   1.082   1.369   1.828 -0.6736  2.8724  4.8594
  277SOL     OW  829   1.956   0.818   2.173 -0.2904  0.5964  0.3695
  277SOL    HW1  830   1.899   0.777   2.253 -3.0412 -1.4386  4.7619
  277SOL    HW2  831   2.047   0.762   2.158  5.4510 -2.7779 -1.0360
  278SOL     OW  832   1.912   2.729   1.871 -0.5329 -0.4351 -0.0537
  278SOL    HW1  833   1.870   2.826   1.856 -2.9652  4.3364 -0.3019
  278SOL    HW2  834   2.010   2.739   1.914  4.9920 -0.3830  2.7031
  279SOL     OW  835   2.724   0.100   1.378 -0.2272  0.0760 -0.3326
  279SOL    HW1  836   2.692   0.131   1.477 -2.0988  1.0355  4.6642
  279SOL    HW2  837   2.735  -0.006   1.385 -0.0105 -4.6511  0.3922
  280SOL     OW  838   0.077   0.524   1.770 -0.1370  0.4110  0.1029
  280SOL    HW1  839   0.026   0.472   1.690 -2.9400 -3.4531 -3.8647
  280SOL    HW2  840   0.085   0.457   1.854 -0.5349 -3.4872  3.5285
  281SOL     OW  841   2.108   1.113   2.758 -0.3373  0.7473 -0.2260
  281SOL    HW1  842   2.181   1.149   2.829  4.3957  2.6791  4.1597
  281SOL    HW2  843   2.112   1.006   2.761  0.0323 -5.9137  0.2043
  282SOL     OW  844   1.674   1.525   2.108 -0.3437  0.4210 -0.3050
  282SOL    HW1  845   1.773   1.486   2.116  5.2669 -1.9309  0.5903
  282SOL    HW2  846   1.659   1.563   2.009 -1.6773  2.2000 -5.4656
  283SOL     OW  847   0.343   1.486   2.650  0.0961  0.0011  0.4658
  283SOL    HW1  848   0.263   1.428   2.693 -4.4448 -3.0971  2.0803
  283SOL    HW2  849   0.303   1.544   2.570 -2.5632  3.0827 -3.3873
  284SOL     OW  850   2.659   0.945   1.765 -0.2806  0.3209 -0.1093
  284SOL    HW1  851   2.712   1.034   1.736  1.5689  4.9046 -1.7214
  284SOL    HW2  852   2.724   0.871   1.810  2.4027 -4.6202  2.4502
  285SOL     OW  853   0.488   1.490   0.036 -0.0407  0.2583  0.4500
  285SOL    HW1  854   0.447   1.480  -0.063 -3.5257 -0.3835 -4.4802
  285SOL    HW2  855   0.591   1.458   0.038  5.1018 -1.7105  1.5276
  286SOL     OW  856   1.406   0.912   2.167  0.5835 -0.2874 -0.6655
  286SOL    HW1  857   1.307   0.879   2.197 -5.4318 -2.1598  1.3567
  286SOL    HW2  858   1.453   0.953   2.254  2.7553  2.3266  4.6805
  287SOL     OW  859   2.115   0.338   1.811  0.0677  0.1460 -0.0425
  287SOL    HW1  860   2.019   0.383   1.835 -5.5136  2.5211  1.8498
  287SOL    HW2  861   2.163   0.309   1.903  2.2677 -1.5475  6.0084
  288SOL     OW  862   0.866   0.177   2.273 -0.4065 -0.0735  0.5142
  288SOL    HW1  863   0.922   0.262   2.237  2.4013  4.2559 -1.5112
  288SOL    HW2  864   0.866   0.103   2.196 -0.1620 -3.3417 -3.1189
  289SOL     OW  865   1.272   0.601   0.172 -0.4014  0.0085 -0.1132
  289SOL    HW1  866   1.346   0.658   0.119  3.7759  3.0825 -3.1364
  289SOL    HW2  867   1.309   0.572   0.269  2.0933 -1.7030  5.2307
  290SOL     OW  868   0.838   0.279   1.958  0.3500 -0.2075  0.1291
  290SOL    HW1  869   0.798   0.352   1.890 -2.1733  3.2913 -2.9400
  290SOL    HW2  870   0.751   0.229   1.999 -4.1625 -2.0949  1.7863
  291SOL     OW  871   0.661   0.323   2.361 -0.6615 -0.1447  0.9104
  291SOL    HW1  872   0.641   0.410   2.303 -0.7286  4.3161 -3.1232
  291SOL    HW2  873   0.745   0.272   2.315  4.2646 -1.6794 -3.0836
  292SOL     OW  874   1.300   0.412   2.814 -0.0901  0.1993 -0.7260
  292SOL    HW1  875   1.271   0.483   2.889 -2.2203  3.0282  3.2636
  292SOL    HW2  876   1.272   0.316   2.852 -1.7101 -4.9823  2.0289
  293SOL     OW  877   0.393   0.144   2.182  0.3962  0.2075  0.0572
  293SOL    HW1  878   0.429   0.103   2.275  1.7825 -1.7269  3.5667
  293SOL    HW2  879   0.316   0.080   2.142 -3.4517 -4.2038 -1.2122
  294SOL     OW  880   0.999   0.730   2.457  0.0354  0.1756  0.4935
  294SOL    HW1  881   0.950   0.667   2.384 -2.7038 -3.1800 -3.9435
  294SOL    HW2  882   1.082   0.677   2.498  3.1774 -2.3823  2.5917
  295SOL     OW  883   1.495   0.563   2.319  0.2533  0.0616  0.6573
  295SOL    HW1  884   1.536   0.618   2.237  2.7778  2.7779 -3.6892
  295SOL    HW2  885   1.393   0.539   2.294 -5.2690 -1.8090 -0.6077
  296SOL     OW  886   1.808   1.026   0.791  0.1527 -0.6720 -0.0859
  296SOL    HW1  887   1.705   0.993   0.799 -5.1043 -1.8082 -0.1765
  296SOL    HW2  888   1.810   1.101   0.715 -0.6620  3.3656 -4.3546
  297SOL     OW  889   1.497   2.742   2.531 -0.1725  0.0771  0.1404
  297SOL    HW1  890   1.459   2.712   2.435 -3.0473 -1.2213 -5.0674
  297SOL    HW2  891   1.427   2.811   2.575 -4.0310  3.0254  1.6914
  298SOL     OW  892   0.766   1.396   2.383 -0.1372 -0.0480 -0.2141
  298SOL    HW1  893   0.846   1.335   2.423  4.2758 -4.0590  1.9665
  298SOL    HW2  894   0.676   1.380   2.436 -4.3793 -1.5708  3.0567
  299SOL     OW  895   2.701   0.819   2.138  0.1431 -0.1170  0.0497
  299SOL    HW1  896   2.668   0.726   2.097 -1.4281 -5.2930 -1.6978
  299SOL    HW2  897   2.648   0.903   2.097 -2.8420  5.4772 -1.8891
  300SOL     OW  898   1.170   0.854   2.274  0.4445  0.0584 -0.0154
  300SOL    HW1  899   1.125   0.828   2.368 -1.7859 -1.5947  3.9000
  300SOL    HW2  900   1.132   0.784   2.200 -2.3551 -4.1738 -4.3318
  301SOL     OW  901   0.812   0.777   0.452  0.0315  0.6428  0.0610
  301SOL    HW1  902   0.773   0.772   0.553 -2.0504  0.0041  6.1162
  301SOL    HW2  903   0.756   0.707   0.394 -3.5084 -3.2990 -2.3386
  302SOL     OW  904   2.799   1.781   2.236  0.2407 -0.2146 -0.7874
  302SOL    HW1  905   2.727   1.861   2.236 -3.5139  2.4222  0.8449
  302SOL    HW2  906   2.776   1.729   2.328 -1.7516 -1.1069  4.0235
  303SOL     OW  907   0.536   2.325   0.069 -0.4737  0.3512  0.0243
  303SOL    HW1  908   0.626   2.327   0.010  4.6391 -0.2280 -2.2083
  303SOL    HW2  909   0.546   2.238   0.132  1.2863 -4.0530  3.1855
  304SOL     OW  910   1.300   1.168   2.176 -0.3981  0.1728 -0.4630
  304SOL    HW1  911   1.383   1.238   2.177  3.9022  3.2915 -0.2950
  304SOL    HW2  912   1.340   1.073   2.145  1.8654 -3.7488 -2.3323
  305SOL     OW  913   1.059   0.446   0.445 -0.4737 -0.2326 -0.1930
  305SOL    HW1  914   1.157   0.404   0.454  4.6832 -0.6827  0.8446
  305SOL    HW2  915   1.067   0.546   0.487  1.3170  4.2568  1.8646
  306SOL     OW  916   0.577   0.761   2.377 -0.4665  0.1091 -0.3574
  306SOL    HW1  917   0.647   0.781   2.455  3.6328  1.2771  4.2395
  306SOL    HW2  918   0.477   0.765   2.415 -6.1192  0.1124  1.8811
  307SOL     OW  919   1.241   0.507   2.264  0.1492  0.2738  0.3857
  307SOL    HW1  920   1.181   0.562   2.194 -3.5808  2.8951 -3.5341
  307SOL    HW2  921   1.250   0.406   2.230  0.6802 -4.7859 -1.3986
  308SOL     OW  922   1.984   0.223   0.045  0.2992 -0.0467  0.8054
  308SOL    HW1  923   1.949   0.144   0.107 -1.7576 -4.3755  4.1369
  308SOL    HW2  924   2.021   0.182  -0.047  2.3372 -2.5963 -4.4163
  309SOL     OW  925   1.065   1.008   2.648  0.0322  0.2863  0.4109
  309SOL    HW1  926   1.100   0.908   2.669  1.8086 -5.5782  1.5131
  309SOL    HW2  927   1.106   1.037   2.554  2.5004  2.1667 -4.6826
  310SOL     OW  928   0.875   0.757   0.168 -0.3194  0.8019  0.3437
  310SOL    HW1  929   0.804   0.692   0.216 -3.9861 -3.5168  2.5145
  310SOL    HW2  930   0.944   0.697   0.111  3.5000 -3.4211 -2.9340
  311SOL     OW  931   1.917   0.220   2.081 -0.0804  0.1575 -0.2457
  311SOL    HW1  932   1.978   0.151   2.138  3.3910 -4.2539  3.0071
  311SOL    HW2  933   1.958   0.319   2.086  2.0840  5.6729 -0.4057
  312SOL     OW  934   1.735   1.735   2.263  0.1992  0.5714  0.0120
  312SOL    HW1  935   1.840   1.756   2.253  5.9783  1.1435 -0.9945
  312SOL    HW2  936   1.705   1.660   2.192 -0.9315 -3.8805 -4.7255
  313SOL     OW  937   0.347   1.021   2.578  0.0791  0.3652 -0.0208
  313SOL    HW1  938   0.266   1.032   2.649 -3.1888  0.8840  3.8701
  313SOL    HW2  939   0.313   1.020   2.475 -1.7535 -0.0237 -6.4194
  314SOL     OW  940   1.631   0.105   1.038  0.2216  0.1776 -0.0328
  314SOL    HW1  941   1.555   0.049   1.090 -4.6588 -3.2571  2.5170
  314SOL    HW2  942   1.599   0.124   0.938 -1.8883  1.0989 -5.0909
  315SOL     OW  943   1.025   2.126   0.523  0.5716  0.0437 -0.1600
  315SOL    HW1  944   1.031   2.050   0.449  1.3026 -4.0713 -4.4887
  315SOL    HW2  945   0.922   2.153   0.538 -5.4855  1.5733  1.0310
  316SOL     OW  946   1.877   1.944   2.518  0.0461  0.6550 -0.1970
  316SOL    HW1  947   1.797   1.964   2.591 -3.6226 -0.0465  3.7828
  316SOL    HW2  948   1.905   1.841   2.524 -0.1333 -3.4026  0.1453
  317SOL     OW  949   1.278   1.214   2.642 -0.6721  0.0339 -0.3370
  317SOL    HW1  950   1.251   1.302   2.699 -2.2826  4.5114  2.8646
  317SOL    HW2  951   1.307   1.140   2.716  0.5388 -3.4796  3.5668
  318SOL     OW  952   0.887   0.165   2.537 -0.2391 -0.3062  0.4430
  318SOL    HW1  953   0.890   0.269   2.566  0.0369  6.9930  1.8887
  318SOL    HW2  954   0.879   0.161   2.430 -0.5993  0.1244 -6.6134
  319SOL     OW  955   2.599   1.030   0.435 -0.3932  0.3411  0.6309
  319SOL    HW1  956   2.696   1.001   0.400  5.2537 -1.2540 -0.9767
  319SOL    HW2  957   2.566   1.120   0.387 -2.7218  5.2069 -1.8007
  320SOL     OW  958   1.224   1.018   1.534  0.0575  0.0914 -0.3305
  320SOL    HW1  959   1.132   1.038   1.585 -5.3445  1.4993  2.6153
  320SOL    HW2  960   1.300   1.086   1.569  4.5262  4.5516  2.4028
  321SOL     OW  961   1.026   1.074   0.081  0.2133 -0.0856  0.5875
  321SOL    HW1  962   1.062   1.051  -0.017  3.1054 -1.1207 -4.4472
  321SOL    HW2  963   0.920   1.059   0.092 -5.4195 -0.7786  1.8215
  322SOL     OW  964   0.740   0.917   1.095  0.0896  0.0089  0.0959
  322SOL    HW1  965   0.631   0.912   1.093 -7.1012 -0.4124 -0.6403
  322SOL    HW2  966   0.775   0.824   1.136  2.0585 -5.8616  3.2046
  323SOL     OW  967   1.536   1.914   2.313 -0.1192  0.4132 -0.6209
  323SOL    HW1  968   1.616   1.846   2.289  4.6734 -3.2121 -1.7773
  323SOL    HW2  969   1.459   1.859   2.366 -5.1331 -2.8123  2.5870
  324SOL     OW  970   1.473   1.264   2.469 -0.3882 -0.1474 -0.1606
  324SOL    HW1  971   1.407   1.250   2.553 -4.3703 -0.7470  5.2920
  324SOL    HW2  972   1.571   1.286   2.505  5.5210  1.1329  2.1588
  325SOL     OW  973   0.476   2.690   0.179  0.3157  0.0309  0.4838
  325SOL    HW1  974   0.420   2.618   0.120 -3.1681 -4.1953 -2.5856
  325SOL    HW2  975   0.403   2.759   0.217 -3.4889  2.9126  1.6141
  326SOL     OW  976   0.904   1.393   2.711  0.0990 -0.4077  0.4149
  326SOL    HW1  977   0.943   1.332   2.635  2.3891 -3.6189 -4.0332
  326SOL    HW2  978   0.826   1.456   2.668 -5.2172  4.6441 -3.1266
  327SOL     OW  979   1.858   0.036   0.208 -0.5101 -0.1008  0.6642
  327SOL    HW1  980   1.896   0.019   0.307  1.1936 -0.9142  4.9386
  327SOL    HW2  981   1.896  -0.042   0.144  1.1560 -3.6570 -3.0471
  328SOL     OW  982   0.980   1.263   2.471 -0.4536 -0.8253 -0.5261
  328SOL    HW1  983   1.030   1.360   2.471  2.5222  6.1433 -0.2161
  328SOL    HW2  984   1.050   1.188   2.445  2.9844 -4.4143 -1.3129
  329SOL     OW  985   2.322   2.394   1.647  0.0059  0.2599 -0.8351
  329SOL    HW1  986   2.269   2.488   1.640 -2.9750  5.5389 -0.7360
  329SOL    HW2  987   2.272   2.329   1.716 -2.4990 -3.2081  2.4558
  330SOL     OW  988   2.671   2.038   2.209  0.1526  0.2967  0.1442
  330SOL    HW1  989   2.562   2.031   2.211 -5.4240 -0.4789  0.3375
  330SOL    HW2  990   2.704   2.050   2.108  1.6890  0.9174 -4.5722
  331SOL     OW  991   1.772   0.687   2.326 -0.0165  0.1057  0.8489
  331SOL    HW1  992   1.793   0.583   2.330  1.0680 -5.6911  0.2717
  331SOL    HW2  993   1.704   0.707   2.244 -3.6431  1.0617 -3.5120
  332SOL     OW  994   1.736   0.535   0.256 -0.2410  0.6204  0.4811
  332SOL    HW1  995   1.732   0.429   0.249 -0.3900 -6.6709 -0.7823
  332SOL    HW2  996   1.748   0.579   0.159  0.5605  3.2578 -6.3887
  333SOL     OW  997   2.551   0.348   0.646 -0.2438 -0.4323 -0.2567
  333SOL    HW1  998   2.598   0.334   0.741  2.0270 -0.5196  5.0932
  333SOL    HW2  999   2.514   0.451   0.641 -1.7840  5.2844 -0.1189
  334SOL     OW 1000   1.657   0.167   2.125 -0.1461 -0.1933 -0.6490
  334SOL    HW1 1001   1.630   0.184   2.227 -1.2651  0.3738  5.3200
  334SOL    HW2 1002   1.762   0.182   2.109  5.8891  1.1773 -0.9493
  335SOL     OW 1003   0.943   1.013   2.253 -0.4759 -0.2081  0.7255
  335SOL    HW1 1004   1.034   0.965   2.286  5.0064 -0.7091  2.5054
  335SOL    HW2 1005   0.960   1.118   2.261  1.3185  4.2210  1.9892
  336SOL     OW 1006   1.075   0.605   1.234 -0.2044  0.3837 -0.2732
  336SOL    HW1 1007   1.161   0.540   1.225  6.1522 -3.1781  0.9545
  336SOL    HW2 1008   1.095   0.663   1.321  2.7525  2.6053  5.1025
  337SOL     OW 1009   1.544   0.512   2.747  0.0367  0.4119 -0.5535
  337SOL    HW1 1010   1.448   0.464   2.761 -5.8543 -3.1831  0.4312
  337SOL    HW2 1011   1.621   0.443   2.773  4.1194 -3.6871  1.3463
  338SOL     OW 1012   0.803   1.027   2.682 -0.2843  0.2537 -0.6129
  338SOL    HW1 1013   0.788   1.037   2.787 -0.1420  1.0086  5.2869
  338SOL    HW2 1014   0.909   1.028   2.663  5.8408  0.0840 -0.7441
  339SOL     OW 1015   0.966   0.454   1.728 -0.1249 -0.1857 -0.3934
  339SOL    HW1 1016   1.010   0.544   1.768  2.2635  6.0308  2.3236
  339SOL    HW2 1017   0.862   0.454   1.750 -6.1425 -0.2651  1.7430
  340SOL     OW 1018   1.730   1.366   0.797  0.2193 -0.0292  0.7064
  340SOL    HW1 1019   1.653   1.293   0.816 -3.3612 -2.5641  1.0861
  340SOL    HW2 1020   1.678   1.460   0.788 -2.7138  3.2924  0.3255
  341SOL     OW 1021   0.037   2.461   2.568  0.2189 -0.4861  0.4310
  341SOL    HW1 1022   0.020   2.559   2.609 -1.0206  6.1011  3.1718
  341SOL    HW2 1023   0.082   2.472   2.472  2.6479  0.0471 -5.1927
  342SOL     OW 1024   1.740   2.772   0.765 -0.1747  0.5731 -0.4069
  342SOL    HW1 1025   1.782   2.773   0.864  2.3558 -0.2781  5.9956
  342SOL    HW2 1026   1.756   2.675   0.724  1.3183 -5.3081 -1.8699
  343SOL     OW 1027   0.412   0.162   0.101 -0.1137 -0.0318  0.0444
  343SOL    HW1 1028   0.467   0.156   0.009  2.3978  0.3791 -5.1165
  343SOL    HW2 1029   0.331   0.233   0.088 -3.8454  3.3768 -1.3355
  344SOL     OW 1030   0.420   0.494   0.550  0.5447  0.1474  0.4308
  344SOL    HW1 1031   0.333   0.497   0.612 -4.5559  0.3649  4.1903
  344SOL    HW2 1032   0.403   0.438   0.460 -0.6879 -3.5417 -5.5133
  345SOL     OW 1033   1.077   2.335   0.267 -0.2585 -0.3461 -0.1610
  345SOL    HW1 1034   1.177   2.376   0.258  5.6569  2.2900 -0.8607
  345SOL    HW2 1035   1.023   2.394   0.340 -3.3421  3.5793  4.7550
  346SOL     OW 1036   2.809   0.540   0.045  0.2997  0.0655 -0.8101
  346SOL    HW1 1037   2.742   0.623   0.041 -2.9267  4.5124  0.3658
  346SOL    HW2 1038   2.842   0.529   0.147  2.0877  0.2123  5.1860
  347SOL     OW 1039   0.648   0.972   1.773  0.2337 -0.1294 -0.4538
  347SOL    HW1 1040   0.612   1.040   1.698 -1.2199  2.3751 -3.9070
  347SOL    HW2 1041   0.630   1.014   1.871 -0.3183  2.0210  5.7444
  348SOL     OW 1042   1.242   2.004   1.894  0.4380 -0.3721  0.0755
  348SOL    HW1 1043   1.151   2.060   1.908 -4.0667  2.6117  2.2220
  348SOL    HW2 1044   1.299   2.007   1.985  2.2814  0.1034  4.4078
  349SOL     OW 1045   0.910   0.013   2.060 -0.2866  0.1965  0.2579
  349SOL    HW1 1046   0.965   0.034   1.971  3.2207  1.7406 -4.8420
  349SOL    HW2 1047   0.809  -0.012   2.035 -6.5399 -1.0392 -1.4802
  350SOL     OW 1048   1.818   0.143   1.841 -0.1147 -0.3931 -0.0621
  350SOL    HW1 1049   1.713   0.154   1.821 -6.1712  0.8339 -0.8111
  350SOL    HW2 1050   1.849   0.187   1.934  1.3946  2.8260  5.1967
  351SOL     OW 1051   2.008   1.474   1.487  0.2405  0.0353  0.0063
  351SOL    HW1 1052   1.945   1.496   1.573 -3.1229 -0.4355  3.1996
  351SOL    HW2 1053   1.972   1.379   1.450 -2.7171 -4.3844 -0.5324
  352SOL     OW 1054   1.472   1.006   2.408  0.0636 -0.0787 -0.3890
  352SOL    HW1 1055   1.476   1.112   2.419  0.1520  5.5047  0.2149
  352SOL    HW2 1056   1.425   0.964   2.497 -3.1860 -2.9492  4.9388
  353SOL     OW 1057   2.328   2.225   0.029  0.2002  0.2241 -0.3672
  353SOL    HW1 1058   2.344   2.121   0.022  1.0604 -5.6688  0.5056
  353SOL    HW2 1059   2.316   2.255   0.133 -0.4947  1.5923  6.2165
  354SOL     OW 1060   0.410   2.453   1.021  0.5589 -0.4830  0.0995
  354SOL    HW1 1061   0.370   2.465   1.119 -1.8999 -0.2140  5.3816
  354SOL    HW2 1062   0.336   2.409   0.957 -4.0562 -3.0701 -3.6570
  355SOL     OW 1063   2.538   2.498   0.611 -0.2281  0.3622 -0.5641
  355SOL    HW1 1064   2.601   2.412   0.600  2.7935 -3.8993 -1.4028
  355SOL    HW2 1065   2.539   2.530   0.714  0.1352  1.6220  5.0141
  356SOL     OW 1066   0.225   0.351   1.248  0.1176 -0.2512 -0.2590
  356SOL    HW1 1067   0.119   0.366   1.259 -5.1672  1.5528  0.7104
  356SOL    HW2 1068   0.278   0.443   1.270  1.9314  5.8035  1.0071
  357SOL     OW 1069   1.370   1.892   1.017  0.0403  0.0754  0.4125
  357SOL    HW1 1070   1.389   1.946   0.926  0.6676  3.0706 -5.2977
  357SOL    HW2 1071   1.274   1.844   1.012 -6.1956 -2.7511  0.0452
  358SOL     OW 1072   0.785   2.651   0.901  0.0796 -0.2382 -0.4335
  358SOL    HW1 1073   0.811   2.550   0.877  1.4992 -5.3399 -1.6821
  358SOL    HW2 1074   0.687   2.652   0.946 -5.6156  0.7677  2.3033
  359SOL     OW 1075   1.150   0.030   2.215  0.0521 -0.2559 -0.2777
  359SOL    HW1 1076   1.054   0.014   2.176 -4.2918 -0.7096 -2.1386
  359SOL    HW2 1077   1.150   0.032   2.323  0.0402 -0.4396  7.0049
  360SOL     OW 1078   0.663   2.757   0.487  0.4956 -0.1377  0.1749
  360SOL    HW1 1079   0.599   2.817   0.423 -4.4449  1.7884 -2.6398
  360SOL    HW2 1080   0.595   2.694   0.540 -3.1588 -2.3416  1.6714
  361SOL     OW 1081   0.123   2.276   2.758  0.1500 -0.1534  0.3343
  361SOL    HW1 1082   0.112   2.350   2.683 -0.4847  3.4398 -3.6231
  361SOL    HW2 1083   0.181   2.192   2.724  3.6403 -5.7932 -2.6163
  362SOL     OW 1084   0.966   0.114   2.792 -0.0187  0.1024  0.1521
  362SOL    HW1 1085   1.030   0.027   2.784  2.2923 -3.2984 -1.2748
  362SOL    HW2 1086   0.928   0.134   2.692 -1.3438  0.1135 -4.2206
  363SOL     OW 1087   0.024   2.781   0.527 -0.0551  0.4466  0.3737
  363SOL    HW1 1088   0.120   2.737   0.509  5.1252 -1.6172 -0.9041
  363SOL    HW2 1089  -0.026   2.787   0.432 -2.6069  0.6830 -5.1324
  364SOL     OW 1090   0.323   0.761   2.455 -0.0877 -0.2772 -0.2182
  364SOL    HW1 1091   0.273   0.761   2.551 -3.1107 -0.3483  6.1293
  364SOL    HW2 1092   0.298   0.848   2.401 -1.9201  4.5145 -2.8757
  365SOL     OW 1093   1.709   1.388   1.503  0.4317 -0.1367  0.1712
  365SOL    HW1 1094   1.732   1.469   1.433  0.8254  3.7617 -3.6638
  365SOL    HW2 1095   1.613   1.404   1.547 -2.4771  2.1484  2.2233
  366SOL     OW 1096   2.020   2.693   0.090 -0.3240  0.2901 -0.5038
  366SOL    HW1 1097   2.022   2.588   0.096 -0.5982 -4.6302  0.1982
  366SOL    HW2 1098   2.097   2.739   0.150  4.3960  3.0781  3.5967
  367SOL     OW 1099   0.555   0.147   2.718 -0.0347  0.2129  0.6402
  367SOL    HW1 1100   0.533   0.232   2.656 -1.5957  6.2024 -4.2578
  367SOL    HW2 1101   0.615   0.079   2.663  3.9967 -3.9063 -3.7884
  368SOL     OW 1102   2.117   2.699   0.985  0.0645 -0.3082 -0.0506
  368SOL    HW1 1103   2.089   2.739   1.081 -1.4103  1.8102  4.9874
  368SOL    HW2 1104   2.192   2.761   0.938  3.6745  3.7029 -3.2367
  369SOL     OW 1105   0.328   2.228   1.621 -0.1396  0.2976 -0.4559
  369SOL    HW1 1106   0.417   2.241   1.563  3.5049  1.2627 -3.2186
  369SOL    HW2 1107   0.352   2.197   1.722  0.9358 -2.0457  5.0596
  370SOL     OW 1108   2.648   2.046   0.279 -0.0052 -0.3488 -0.3888
  370SOL    HW1 1109   2.716   2.038   0.364  3.9564  0.0077  4.2404
  370SOL    HW2 1110   2.627   2.151   0.276 -0.2055  4.1759  1.3042
  371SOL     OW 1111   0.547   2.572   0.686 -0.1089 -0.3660 -0.3805
  371SOL    HW1 1112   0.486   2.653   0.717 -3.0621  4.7785  1.9389
  371SOL    HW2 1113   0.568   2.505   0.767  1.3067 -5.0732  5.4790
  372SOL     OW 1114   1.416   1.178   1.631 -0.4662  0.2401  0.6019
  372SOL    HW1 1115   1.412   1.265   1.568  0.8125  4.2675 -2.3644
  372SOL    HW2 1116   1.522   1.152   1.636  4.2813  0.0419 -0.1389
  373SOL     OW 1117   0.122   0.662   1.412 -0.1380  0.1553 -0.7022
  373SOL    HW1 1118   0.022   0.633   1.436 -5.2400 -1.9241  2.0230
  373SOL    HW2 1119   0.183   0.621   1.490  3.3991 -3.0085  4.4918
  374SOL     OW 1120   2.041   0.062   2.253  0.0037 -0.2192 -0.4086
  374SOL    HW1 1121   2.033   0.128   2.338  1.1239  1.5953  3.0195
  374SOL    HW2 1122   2.141   0.022   2.254  3.2776 -1.0672  0.8237
  375SOL     OW 1123   1.349   1.653   0.509  0.4698 -0.1857  0.3310
  375SOL    HW1 1124   1.254   1.667   0.455 -3.7594  0.9492 -3.5224
  375SOL    HW2 1125   1.422   1.709   0.457  2.6219  1.8719 -3.4036
  376SOL     OW 1126   2.785   2.227   1.438 -0.3334  0.3791 -0.5699
  376SOL    HW1 1127   2.853   2.152   1.473  3.6539 -3.9756  1.8460
  376SOL    HW2 1128   2.692   2.215   1.489 -5.1727 -0.7054  2.1997
  377SOL     OW 1129   0.965   1.778   1.214 -0.0620  0.0260 -0.5507
  377SOL    HW1 1130   0.889   1.810   1.282 -4.1211  1.3369  3.5812
  377SOL    HW2 1131   1.002   1.683   1.251  2.0493 -6.2453  2.4337
  378SOL     OW 1132   1.466   2.010   1.235  0.2926  0.0183  0.3208
  378SOL    HW1 1133   1.403   1.998   1.321 -2.9008 -0.8062  5.0979
  378SOL    HW2 1134   1.425   1.956   1.151 -2.2186 -2.9806 -4.4690
  379SOL     OW 1135   1.002   2.631   1.759  0.2360  0.3140 -0.0465
  379SOL    HW1 1136   0.978   2.550   1.825 -1.3525 -4.1214  3.4425
  379SOL    HW2 1137   1.035   2.588   1.665  2.2496 -2.2279 -5.0950
  380SOL     OW 1138   0.968   2.823   0.997  0.0237  0.0293  0.2538
  380SOL    HW1 1139   0.890   2.753   0.973 -4.2453 -3.7211 -0.8130
  380SOL    HW2 1140   1.050   2.809   0.929  4.3466 -0.1560 -3.9429
  381SOL     OW 1141   0.615   1.978   1.248 -0.4338  0.9772  0.5349
  381SOL    HW1 1142   0.681   1.942   1.325  2.9842 -0.8222  5.0508
  381SOL    HW2 1143   0.656   1.960   1.151  1.5793 -0.1585 -5.0318
  382SOL     OW 1144   0.132   0.786   0.670 -0.1285 -0.2672 -0.6803
  382SOL    HW1 1145   0.141   0.773   0.777  0.2251 -0.3421  4.1407
  382SOL    HW2 1146   0.229   0.768   0.625  4.4668 -0.8411 -1.7212
  383SOL     OW 1147   0.325   0.111   0.491 -0.0493  0.2669  0.6341
  383SOL    HW1 1148   0.236   0.130   0.435 -2.0430  0.5530 -3.4880
  383SOL    HW2 1149   0.408   0.100   0.420  1.4455  0.0804 -3.8829
  384SOL     OW 1150   0.957   2.517   0.416  0.7894  0.0631 -0.0626
  384SOL    HW1 1151   0.869   2.486   0.469 -4.5999 -1.5768  3.1615
  384SOL    HW2 1152   0.934   2.610   0.368 -1.0528  5.0346 -2.4524
  385SOL     OW 1153   1.098   2.491   1.548 -0.0495 -0.2023 -0.3445
  385SOL    HW1 1154   1.178   2.465   1.615  4.5998 -2.0733  3.3258
  385SOL    HW2 1155   1.033   2.407   1.536 -3.1028 -4.5983 -1.2458
  386SOL     OW 1156   0.556   0.067   2.391 -0.6693 -0.3988  0.3384
  386SOL    HW1 1157   0.589   0.170   2.381  1.5016  4.7967  0.8574
  386SOL    HW2 1158   0.609   0.020   2.473  2.9214 -2.0982  4.4760
  387SOL     OW 1159   0.455   1.109   1.290  0.0176  0.1354 -0.1189
  387SOL    HW1 1160   0.558   1.134   1.271  5.7088  1.5434 -1.0354
  387SOL    HW2 1161   0.453   1.020   1.351  0.6170 -5.1054  3.5184
  388SOL     OW 1162   1.329   0.038   0.633  0.7724  0.1933 -0.8984
  388SOL    HW1 1163   1.250   0.109   0.650 -4.4948  4.2367  0.1558
  388SOL    HW2 1164   1.293  -0.050   0.583 -1.2799 -4.0112 -3.1100
  389SOL     OW 1165   0.162   0.258   0.112 -0.0555  0.0755  0.5183
  389SOL    HW1 1166   0.139   0.250   0.216 -2.4370 -0.1220  5.8325
  389SOL    HW2 1167   0.073   0.282   0.058 -5.6779  1.5199 -2.3534
  390SOL     OW 1168   1.298   0.791   0.465 -0.5551 -0.0680  0.1663
  390SOL    HW1 1169   1.379   0.858   0.446  5.3949  2.9112 -1.5756
  390SOL    HW2 1170   1.331   0.694   0.434  3.2238 -5.6064 -1.5855
  391SOL     OW 1171   2.434   1.839   1.707 -0.2688  0.2503  0.4817
  391SOL    HW1 1172   2.489   1.853   1.617  3.3092  0.8854 -4.7479
  391SOL    HW2 1173   2.437   1.734   1.730  0.7701 -6.3615  0.6346
  392SOL     OW 1174   1.901   1.235   1.407  0.6054 -0.5385  0.5798
  392SOL    HW1 1175   1.878   1.210   1.307 -2.0044 -1.5230 -5.8960
  392SOL    HW2 1176   1.813   1.278   1.451 -6.0690  2.6738  3.1358
  393SOL     OW 1177   0.072   2.685   0.085 -0.1446 -0.0250 -0.7172
  393SOL    HW1 1178   0.079   2.578   0.091  0.3854 -5.8470 -0.0952
  393SOL    HW2 1179   0.005   2.721   0.158 -3.9370  2.7429  3.8833
  394SOL     OW 1180   0.315   2.313   2.423  0.3189 -0.0507 -0.2150
  394SOL    HW1 1181   0.342   2.333   2.524  1.7994  0.9558  6.2103
  394SOL    HW2 1182   0.247   2.385   2.381 -3.5302  3.6205 -2.8716
  395SOL     OW 1183   1.006   1.168   0.432 -0.1421 -0.0051 -0.6306
  395SOL    HW1 1184   1.067   1.091   0.472  3.8817 -3.0250  2.3812
  395SOL    HW2 1185   1.046   1.265   0.461  4.0948  6.2449  1.6691
  396SOL     OW 1186   1.670   1.660   1.879 -0.0515 -0.0900 -0.4867
  396SOL    HW1 1187   1.635   1.759   1.903 -1.9148  5.3498  0.9351
  396SOL    HW2 1188   1.638   1.629   1.781 -1.6641 -1.7826 -5.7548
  397SOL     OW 1189   0.767   2.830   1.411 -0.4969  0.0492  0.3549
  397SOL    HW1 1190   0.683   2.819   1.347 -4.6262 -0.7120 -3.1730
  397SOL    HW2 1191   0.857   2.824   1.353  4.5080 -0.3150 -2.7953
  398SOL     OW 1192   0.617   2.381   0.865  0.3566 -0.1977  0.0223
  398SOL    HW1 1193   0.540   2.394   0.940 -3.1950  0.2332  3.6247
  398SOL    HW2 1194   0.681   2.303   0.902  2.3487 -2.8957  1.2414
  399SOL     OW 1195   0.326   1.768   1.022  0.1414  0.0665  0.2359
  399SOL    HW1 1196   0.319   1.870   0.990  0.6082  5.6580 -1.0249
  399SOL    HW2 1197   0.405   1.760   1.094  4.7928 -0.0544  4.5476
  400SOL     OW 1198   0.726   1.370   0.081 -0.5773 -0.4963 -0.3006
  400SOL    HW1 1199   0.799   1.360   0.004  2.9334 -1.4107 -4.1757
  400SOL    HW2 1200   0.774   1.365   0.180  2.1668 -0.3855  5.0171
  401SOL     OW 1201   0.939   2.238   1.265 -0.7743  0.0855  0.2635
  401SOL    HW1 1202   0.972   2.149   1.213  0.6638 -4.9001 -2.1870
  401SOL    HW2 1203   0.918   2.315   1.193 -2.1346  3.8711 -2.6441
  402SOL     OW 1204   0.120   2.204   0.695 -0.5287  0.0640  0.0988
  402SOL    HW1 1205   0.103   2.274   0.617 -0.9316  3.4824 -4.1156
  402SOL    HW2 1206   0.151   2.108   0.660  2.3192 -7.0018 -2.6544
  403SOL     OW 1207   2.605   0.339   0.901  0.6064  0.0059 -0.5722
  403SOL    HW1 1208   2.696   0.309   0.949  5.7783 -2.0602  3.7340
  403SOL    HW2 1209   2.538   0.376   0.975 -3.4087  1.9921  4.9489
  404SOL     OW 1210   1.071   2.827   0.468 -0.1041  0.6170  0.3323
  404SOL    HW1 1211   1.119   2.740   0.510  2.0916 -5.2628  2.0416
  404SOL    HW2 1212   0.995   2.791   0.400 -4.8694 -1.8552 -3.6589
  405SOL     OW 1213   1.804   2.265   1.310  0.3658 -0.1738 -0.2691
  405SOL    HW1 1214   1.741   2.319   1.380 -2.1179  2.2142  4.7103
  405SOL    HW2 1215   1.890   2.228   1.364  3.9705 -1.1641  4.2145
  406SOL     OW 1216   2.564   1.913   1.484 -0.2149  0.2691  0.3471
  406SOL    HW1 1217   2.629   1.826   1.480  3.3756 -6.0146  0.3352
  406SOL    HW2 1218   2.566   1.966   1.393 -0.2312  3.8107 -4.3608
  407SOL     OW 1219   0.379   2.216   0.596  0.3628 -0.0899 -0.2098
  407SOL    HW1 1220   0.387   2.298   0.526  1.1988  3.9151 -3.6946
  407SOL    HW2 1221   0.283   2.219   0.642 -3.9305 -0.1448  2.2658
  408SOL     OW 1222   0.238   2.642   0.446 -0.0272  0.4839  0.0392
  408SOL    HW1 1223   0.248   2.709   0.364  0.4811  3.9212 -4.3972
  408SOL    HW2 1224   0.313   2.563   0.440  4.5657 -4.3470 -0.1253
  409SOL     OW 1225   0.764   2.050   0.803  0.0398 -0.7186  0.0594
  409SOL    HW1 1226   0.792   2.114   0.883  2.5219  3.9892  4.9413
  409SOL    HW2 1227   0.768   2.104   0.712  0.6369  3.3453 -5.3164
  410SOL     OW 1228   0.496   1.753   0.022 -0.0692  0.3576  0.3094
  410SOL    HW1 1229   0.481   1.648   0.032 -1.2039 -5.7751  0.9304
  410SOL    HW2 1230   0.544   1.776  -0.072  2.3754  1.3737 -5.4052
  411SOL     OW 1231   2.037   1.426   0.734 -0.2219 -0.0100 -0.3823
  411SOL    HW1 1232   2.112   1.505   0.729  3.7163  4.8992 -0.9869
  411SOL    HW2 1233   2.088   1.334   0.753  2.2896 -4.0419  0.5361
  412SOL     OW 1234   1.338   2.193   0.347 -0.0094 -0.1217  0.0192
  412SOL    HW1 1235   1.324   2.289   0.301 -0.5870  5.7622 -2.2938
  412SOL    HW2 1236   1.275   2.119   0.299 -3.8773 -4.7143 -2.9058
  413SOL     OW 1237   1.008   1.680   0.769 -0.0697 -1.0867  0.0974
  413SOL    HW1 1238   0.962   1.757   0.711 -2.9635  1.1807 -4.0123
  413SOL    HW2 1239   1.115   1.686   0.749  6.4348  0.3482 -1.1294
  414SOL     OW 1240   1.353   2.403   2.280 -0.2203  0.2469 -0.7503
  414SOL    HW1 1241   1.449   2.379   2.239  5.0717 -0.7006 -1.5778
  414SOL    HW2 1242   1.362   2.383   2.386  1.0091 -1.3996  5.2578
  415SOL     OW 1243   0.957   2.494   1.120  0.1017  0.0810 -0.7545
  415SOL    HW1 1244   1.036   2.532   1.183  4.0142  1.5317  1.8754
  415SOL    HW2 1245   0.862   2.527   1.159 -5.3271  1.4473  1.7143
  416SOL     OW 1246   0.068   2.218   1.195  1.1940  0.4120  0.0320
  416SOL    HW1 1247   0.021   2.225   1.290 -2.4685  0.1378  5.8541
  416SOL    HW2 1248   0.075   2.115   1.166  1.2793 -5.4552 -1.9467
  417SOL     OW 1249   1.269   2.759   2.009 -0.4427 -0.2872 -0.4947
  417SOL    HW1 1250   1.223   2.795   2.098 -3.5242  1.2105  4.8441
  417SOL    HW2 1251   1.375   2.764   2.012  5.8804 -0.3384 -1.0133
  418SOL     OW 1252   2.624   2.610   1.112 -0.3323 -0.1046 -0.0398
  418SOL    HW1 1253   2.652   2.559   1.204  1.4900 -1.8935  4.0572
  418SOL    HW2 1254   2.700   2.684   1.099  3.9438  3.2832  0.0007
  419SOL     OW 1255   0.188   2.764   1.087  0.8621 -0.0675  0.1875
  419SOL    HW1 1256   0.087   2.792   1.057 -4.4628 -0.0820 -3.7328
  419SOL    HW2 1257   0.224   2.701   1.008  0.0240 -2.2887 -4.1793
  420SOL     OW 1258   1.219   2.636   0.560 -0.3519  0.4150 -0.2255
  420SOL    HW1 1259   1.239   2.571   0.643  2.4367 -3.3719  1.9999
  420SOL    HW2 1260   1.288   2.622   0.478  2.3260 -1.3978 -2.1870
  421SOL     OW 1261   2.085   0.455   0.117 -0.2926  0.2683 -0.1440
  421SOL    HW1 1262   2.046   0.358   0.094 -2.0313 -5.9920 -1.0139
  421SOL    HW2 1263   2.153   0.440   0.199  3.8110 -1.0157  4.9721
  422SOL     OW 1264   1.255   1.995   1.407 -0.1970  0.5747  0.5776
  422SOL    HW1 1265   1.225   1.906   1.459 -2.6570 -4.0025  0.0353
  422SOL    HW2 1266   1.191   1.995   1.320 -4.3272 -1.6287 -3.0128
  423SOL     OW 1267   1.148   1.749   1.008  0.1051 -0.0336 -0.2107
  423SOL    HW1 1268   1.078   1.757   1.089 -3.1519 -0.0425  3.6662
  423SOL    HW2 1269   1.099   1.732   0.913 -2.1317 -0.7272 -4.1586
  424SOL     OW 1270   0.910   2.597   2.129 -0.5210 -0.1165  0.1498
  424SOL    HW1 1271   1.001   2.575   2.181  5.0745 -1.4993  2.7525
  424SOL    HW2 1272   0.910   2.698   2.097 -0.6334  5.0318 -1.5819
  425SOL     OW 1273   0.681   0.522   0.566  0.4906 -0.1543  0.2132
  425SOL    HW1 1274   0.715   0.604   0.625  1.9665  3.5050  2.7057
  425SOL    HW2 1275   0.574   0.509   0.577 -5.8804 -0.8455  1.6561
  426SOL     OW 1276   0.870   2.757   0.316  0.4778  0.3542  0.0546
  426SOL    HW1 1277   0.788   2.760   0.387 -4.5346  0.8335  3.4408
  426SOL    HW2 1278   0.826   2.775   0.220 -2.1293  1.1748 -4.4585
  427SOL     OW 1279   1.025   1.175   1.045  0.4736  0.0216 -0.4812
  427SOL    HW1 1280   1.037   1.095   0.973  1.4471 -3.2406 -3.5417
  427SOL    HW2 1281   0.978   1.138   1.136 -2.0894 -1.8871  5.1519
  428SOL     OW 1282   0.647   2.053   1.675  0.7132  0.6922 -0.2854
  428SOL    HW1 1283   0.635   2.086   1.775 -0.3950  1.8101  6.0470
  428SOL    HW2 1284   0.564   1.988   1.654 -5.2262 -4.0408 -1.4470
  429SOL     OW 1285   0.558   2.028   0.508  0.4761 -0.0294 -0.0048
  429SOL    HW1 1286   0.473   2.075   0.549 -3.8389  2.1040  2.2088
  429SOL    HW2 1287   0.557   1.923   0.531  0.3513 -6.9119  1.0282
  430SOL     OW 1288   2.624   2.494   2.431 -0.3658  0.5707 -0.0631
  430SOL    HW1 1289   2.706   2.456   2.488  3.1081 -1.9187  2.8638
  430SOL    HW2 1290   2.551   2.414   2.428 -4.3137 -4.4340 -0.2885
  431SOL     OW 1291   0.094   2.430   0.145 -0.3261  0.4488  0.1245
  431SOL    HW1 1292   0.043   2.387   0.229 -2.9942 -1.2002  5.1518
  431SOL    HW2 1293   0.098   2.360   0.064  0.3771 -3.4036 -4.0336
  432SOL     OW 1294   0.051   2.683   1.924  0.1272 -0.6586  0.0693
  432SOL    HW1 1295  -0.045   2.659   1.966 -5.8180 -1.7184  2.6497
  432SOL    HW2 1296   0.091   2.767   1.975  2.4245  4.1694  2.9354
  433SOL     OW 1297   0.386   2.259   1.320 -0.6875  0.0210 -0.1304
  433SOL    HW1 1298   0.473   2.250   1.383  4.9046 -0.0730  3.6274
  433SOL    HW2 1299   0.352   2.162   1.292 -1.8779 -5.7497 -0.9148
  434SOL     OW 1300   1.625   2.625   1.343  0.1505  0.4690 -0.3467
  434SOL    HW1 1301   1.562   2.587   1.265 -3.9834 -2.4679 -5.2900
  434SOL    HW2 1302   1.646   2.545   1.411  1.1024 -4.7347  3.6833
  435SOL     OW 1303   1.214   1.684   1.429 -0.4617  0.3915 -0.2554
  435SOL    HW1 1304   1.301   1.701   1.367  3.6045  0.3298 -4.3488
  435SOL    HW2 1305   1.144   1.627   1.369 -3.3523 -2.7310 -3.9551
  436SOL     OW 1306   2.123   1.687   0.309 -0.5826 -0.1143  0.8722
  436SOL    HW1 1307   2.109   1.729   0.210 -1.5032  2.6050 -4.8445
  436SOL    HW2 1308   2.085   1.586   0.312 -1.9448 -4.7791  0.6528
  437SOL     OW 1309   0.540   0.095   0.332 -0.3499 -0.5604  0.2865
  437SOL    HW1 1310   0.497   0.127   0.237 -3.1027  1.4420 -5.4582
  437SOL    HW2 1311   0.595   0.180   0.369  2.1201  4.2372  1.5021
  438SOL     OW 1312   0.255   1.604   2.423  0.5877 -0.2097 -0.2535
  438SOL    HW1 1313   0.218   1.704   2.440 -2.5256  6.6958  1.3497
  438SOL    HW2 1314   0.172   1.537   2.429 -5.0270 -3.6577 -0.0143
  439SOL     OW 1315   1.723   0.941   2.389  0.0777  0.4358  0.3125
  439SOL    HW1 1316   1.618   0.957   2.406 -5.6442  1.7337  1.6757
  439SOL    HW2 1317   1.744   0.836   2.384  1.2152 -5.6836  0.1576
  440SOL     OW 1318   0.707   2.820   2.592 -0.3580 -0.1572  0.0322
  440SOL    HW1 1319   0.791   2.883   2.570  3.4003  3.5370 -1.1001
  440SOL    HW2 1320   0.736   2.717   2.580  1.1135 -4.7075  0.1224
  441SOL     OW 1321   2.769   2.787   0.273  0.7219  0.0495 -0.2985
  441SOL    HW1 1322   2.734   2.886   0.266 -1.7204  5.4228  0.2147
  441SOL    HW2 1323   2.688   2.718   0.273 -4.1026 -4.6773 -0.3076
  442SOL     OW 1324   0.363   0.355   0.331  0.7946  0.1239  0.4157
  442SOL    HW1 1325   0.278   0.291   0.340 -3.2018 -3.0156  0.1079
  442SOL    HW2 1326   0.366   0.392   0.229  0.5837  2.0848 -4.7733
  443SOL     OW 1327   0.777   2.537   1.518 -0.1574  0.1252 -0.1614
  443SOL    HW1 1328   0.686   2.526   1.573 -4.7074  0.4274  2.1637
  443SOL    HW2 1329   0.835   2.446   1.526  3.2169 -4.4263  0.3726
  444SOL     OW 1330   2.406   1.994   2.186  0.2324  0.0764  0.2466
  444SOL    HW1 1331   2.411   1.976   2.079  0.4287 -0.7367 -6.2033
  444SOL    HW2 1332   2.413   1.901   2.238  0.3626 -4.6330  3.0537
  445SOL     OW 1333   0.633   0.158   1.747 -0.0163  0.6975 -0.0439
  445SOL    HW1 1334   0.712   0.087   1.732  4.9220 -3.2080 -1.5702
  445SOL    HW2 1335   0.627   0.185   1.850 -0.5540  2.3220  5.5865
  446SOL     OW 1336   0.820   2.210   1.002  0.5915 -0.9907  0.2457
  446SOL    HW1 1337   0.754   2.247   1.078 -3.9560  1.6709  4.5881
  446SOL    HW2 1338   0.872   2.290   0.955  3.3032  3.6919 -2.5662
  447SOL     OW 1339   0.082   2.456   0.587  0.1841  0.0356 -0.1694
  447SOL    HW1 1340   0.029   2.483   0.677 -2.1459  1.5711  3.9054
  447SOL    HW2 1341   0.135   2.542   0.550  2.6615  4.3780 -1.6047
  448SOL     OW 1342   0.507   0.093   0.904 -0.1687 -0.4534  0.0639
  448SOL    HW1 1343   0.557   0.153   0.832  2.3717  2.6110 -3.2222
  448SOL    HW2 1344   0.435   0.155   0.959 -4.3922  3.1630  3.7515
  449SOL     OW 1345   1.429   2.314   0.851  0.5136 -0.1561  0.5581
  449SOL    HW1 1346   1.399   2.352   0.754 -1.3361  2.9062 -4.4459
  449SOL    HW2 1347   1.354   2.343   0.923 -3.4626  1.6868  3.8281
  450SOL     OW 1348   1.127   2.365   0.571  0.7781 -0.0087  0.4958
  450SOL    HW1 1349   1.069   2.437   0.518 -2.6752  3.7258 -2.1258
  450SOL    HW2 1350   1.091   2.266   0.551 -1.6414 -6.4778 -1.1712
  451SOL     OW 1351   0.971   1.288   1.407  0.5857  0.5326 -0.3481
  451SOL    HW1 1352   0.916   1.297   1.499 -2.9163 -1.5403  3.1658
  451SOL    HW2 1353   0.938   1.192   1.365 -2.6114 -4.3393  0.2782
  452SOL     OW 1354   0.127   0.044   2.776  0.0663  0.1612  0.0278
  452SOL    HW1 1355   0.145   0.130   2.837  1.0991  4.4675  3.1435
  452SOL    HW2 1356   0.103  -0.041   2.837 -1.7457 -5.7032  3.4593
  453SOL     OW 1357   0.542   2.687   1.000  0.2582 -0.2984 -0.0113
  453SOL    HW1 1358   0.507   2.775   0.950 -2.0721  4.5172 -2.8898
  453SOL    HW2 1359   0.472   2.608   0.995 -4.2542 -4.5099 -0.3011
  454SOL     OW 1360   0.470   2.614   1.401  0.2279 -0.1162  0.4798
  454SOL    HW1 1361   0.513   2.690   1.340  1.9612  3.8992 -2.6884
  454SOL    HW2 1362   0.397   2.562   1.339 -4.1855 -2.7715 -3.0187
  455SOL     OW 1363   2.131   1.872   2.639  0.3644  0.0666 -0.5258
  455SOL    HW1 1364   2.157   1.837   2.738  1.8015 -2.1744  4.5508
  455SOL    HW2 1365   2.060   1.950   2.658 -1.6503  2.7253  0.4162
  456SOL     OW 1366   0.297   2.774   1.524  0.2400  0.0354  0.5124
  456SOL    HW1 1367   0.261   2.840   1.448 -1.9946  3.8191 -3.5841
  456SOL    HW2 1368   0.365   2.702   1.482  3.6637 -4.0831 -1.9198
  457SOL     OW 1369   1.249   1.958   0.240 -0.2709 -0.1660 -0.0675
  457SOL    HW1 1370   1.348   1.915   0.230  4.5575 -2.8239 -2.6083
  457SOL    HW2 1371   1.206   1.956   0.143 -0.6772 -0.9047 -4.8857
  458SOL     OW 1372   0.378   1.581   0.587  0.4973 -0.5727  0.2638
  458SOL    HW1 1373   0.366   1.574   0.693 -1.4256 -0.2078  5.1560
  458SOL    HW2 1374   0.279   1.602   0.548 -5.0460  0.8255 -0.7750
  459SOL     OW 1375   0.389   0.761   0.573 -0.2403 -0.0154  0.2313
  459SOL    HW1 1376   0.463   0.827   0.616  4.1146  2.9053  2.0228
  459SOL    HW2 1377   0.427   0.660   0.569  2.3450 -5.2986 -0.1393
  460SOL     OW 1378   1.384   2.270   1.204  0.0880  0.2031 -0.1040
  460SOL    HW1 1379   1.433   2.173   1.208  1.7061 -5.1825  1.1209
  460SOL    HW2 1380   1.306   2.269   1.280 -4.0642 -1.2361  4.2890
  461SOL     OW 1381   0.205   2.380   0.872  0.5657 -0.4710 -0.1196
  461SOL    HW1 1382   0.129   2.400   0.946 -3.5818  0.9463  3.9037
  461SOL    HW2 1383   0.168   2.305   0.805 -1.8511 -4.0687 -3.5798
  462SOL     OW 1384   0.202   0.819   0.942 -0.8100  0.1327 -0.1828
  462SOL    HW1 1385   0.260   0.905   0.915  2.1537  3.8405 -1.1421
  462SOL    HW2 1386   0.183   0.821   1.049 -1.7738 -0.2485  4.4676
  463SOL     OW 1387   1.016   2.473   0.041  0.2348  0.5109  0.4558
  463SOL    HW1 1388   0.929   2.533   0.016 -3.7575  3.0198 -1.5850
  463SOL    HW2 1389   1.013   2.443   0.144  0.2730 -1.3714  5.1902
  464SOL     OW 1390   2.401   2.253   1.025  0.2562 -0.3063 -0.3128
  464SOL    HW1 1391   2.360   2.349   1.001 -2.0559  5.3933 -1.6217
  464SOL    HW2 1392   2.497   2.270   1.070  5.9543  1.3870  2.1941
  465SOL     OW 1393   2.752   2.722   0.764  0.3050 -0.1867  0.6271
  465SOL    HW1 1394   2.647   2.727   0.755 -3.0000  0.9808 -2.4422
  465SOL    HW2 1395   2.800   2.747   0.669  0.7942  2.3410 -5.6532
  466SOL     OW 1396   2.242   1.925   0.453  0.0056 -0.5071  0.6061
  466SOL    HW1 1397   2.245   1.997   0.533 -0.7776  3.6266  4.9604
  466SOL    HW2 1398   2.316   1.944   0.379  4.5293  0.5647 -4.5406
  467SOL     OW 1399   0.646   2.325   1.173  0.6220 -0.4195 -0.4709
  467SOL    HW1 1400   0.671   2.423   1.211  1.5814  4.1867  1.6520
  467SOL    HW2 1401   0.551   2.299   1.217 -3.4153 -1.5226  1.5791
  468SOL     OW 1402   2.275   0.058   1.196 -0.1137 -0.1623 -0.6612
  468SOL    HW1 1403   2.196   0.122   1.233 -3.0698  3.6216  1.7066
  468SOL    HW2 1404   2.370   0.100   1.227  4.2636  3.2832  2.0987
  469SOL     OW 1405   1.036   1.849   2.207  0.0602  0.6163  0.0488
  469SOL    HW1 1406   1.128   1.792   2.196  4.7713 -2.2630 -0.2900
  469SOL    HW2 1407   0.952   1.783   2.224 -3.4905 -2.6990  1.1397
  470SOL     OW 1408   0.830   2.010   2.549  0.7765  0.0382  0.2829
  470SOL    HW1 1409   0.799   1.957   2.460 -1.1477 -3.3726 -4.1967
  470SOL    HW2 1410   0.811   2.115   2.541 -0.2630  5.8984  0.2017
  471SOL     OW 1411   1.597   2.005   1.681  0.4284  0.0964  0.1805
  471SOL    HW1 1412   1.520   2.071   1.713 -4.3652  3.5973  1.5683
  471SOL    HW2 1413   1.554   1.919   1.634 -2.3621 -4.8322 -2.6975
  472SOL     OW 1414   0.145   1.742   1.212 -0.0796 -0.1971  0.4726
  472SOL    HW1 1415   0.056   1.695   1.173 -4.2322 -2.3466 -2.8243
  472SOL    HW2 1416   0.216   1.739   1.131  3.3555 -1.0393 -4.1735
  473SOL     OW 1417   0.305   2.344   2.008  0.2238  0.1702  0.3098
  473SOL    HW1 1418   0.260   2.414   1.941 -1.9821  3.9670 -3.4673
  473SOL    HW2 1419   0.342   2.263   1.948  2.2871 -4.4276 -3.0282
  474SOL     OW 1420   1.004   1.727   1.672  0.2008 -0.0316  0.4068
  474SOL    HW1 1421   0.946   1.814   1.645 -3.0478  4.2281 -0.8021
  474SOL    HW2 1422   0.932   1.647   1.679 -3.6839 -2.9541  0.0873
  475SOL     OW 1423   2.020   2.367   1.682  0.2991 -0.1684  0.1330
  475SOL    HW1 1424   1.937   2.323   1.734 -2.7880 -2.4924  2.3700
  475SOL    HW2 1425   1.998   2.472   1.668 -0.4234  5.1813 -0.7127
  476SOL     OW 1426   1.258   0.175   0.087 -0.2355  0.4376 -0.3881
  476SOL    HW1 1427   1.167   0.165   0.146 -6.7023 -2.5827  3.7239
  476SOL    HW2 1428   1.280   0.076   0.057 -0.0620 -5.6981 -1.1168
  477SOL     OW 1429   1.271   1.654   2.690 -0.1172  0.5269  0.0769
  477SOL    HW1 1430   1.263   1.556   2.735 -0.9883 -5.6213  3.3803
  477SOL    HW2 1431   1.171   1.684   2.667 -5.6813  1.5551 -1.4989
  478SOL     OW 1432   0.760   0.793   2.565 -0.5095  0.0545 -0.1779
  478SOL    HW1 1433   0.766   0.884   2.621 -0.5885  5.2365  2.7524
  478SOL    HW2 1434   0.857   0.774   2.524  5.2446 -1.5286 -3.0031
  479SOL     OW 1435   0.381   2.133   1.872 -0.2757  0.3639 -0.4330
  479SOL    HW1 1436   0.481   2.116   1.907  5.6783 -0.8561  1.4666
  479SOL    HW2 1437   0.323   2.044   1.885 -4.0983 -4.2485  0.1016
  480SOL     OW 1438   0.945   0.354   1.209  0.1020 -0.2689  0.1373
  480SOL    HW1 1439   1.011   0.438   1.211  3.5281  3.3109 -1.4513
  480SOL    HW2 1440   0.944   0.314   1.108  0.9508 -1.3488 -5.9680
  481SOL     OW 1441   2.772   1.637   1.090 -0.0380 -0.1689  0.1130
  481SOL    HW1 1442   2.759   1.708   1.011 -0.7332  4.0092 -4.8793
  481SOL    HW2 1443   2.678   1.625   1.141 -5.5362 -0.6008  3.5978
  482SOL     OW 1444   1.672   2.294   0.045  0.5360 -0.6005 -0.3857
  482SOL    HW1 1445   1.656   2.294   0.150 -0.3838 -0.2162  5.1755
  482SOL    HW2 1446   1.731   2.380   0.020  3.3717  4.2969 -1.6097
  483SOL     OW 1447   2.230   0.412   0.338 -0.1960 -0.5270 -0.2138
  483SOL    HW1 1448   2.225   0.509   0.387  1.5040  4.0997  2.4174
  483SOL    HW2 1449   2.334   0.385   0.353  4.8478 -0.3530  1.2549
  484SOL     OW 1450   1.266   0.780   1.687 -0.0286 -0.2639 -0.7064
  484SOL    HW1 1451   1.238   0.865   1.626 -1.5889  3.2515 -2.8182
  484SOL    HW2 1452   1.331   0.818   1.764  2.1132  1.1167  2.6371
  485SOL     OW 1453   2.294   2.528   0.123  0.6840  0.0942 -0.1599
  485SOL    HW1 1454   2.273   2.621   0.176 -0.1981  3.3793  1.6008
  485SOL    HW2 1455   2.203   2.470   0.110 -3.2572 -2.4045 -0.1199
  486SOL     OW 1456   0.708   1.806   1.802  0.3550 -0.2599 -0.4001
  486SOL    HW1 1457   0.733   1.901   1.760  2.9651  3.7708 -0.4771
  486SOL    HW2 1458   0.784   1.791   1.880  4.1323 -0.2318  3.3254
  487SOL     OW 1459   1.760   1.933   0.904  0.2076 -0.4654 -0.3641
  487SOL    HW1 1460   1.739   2.011   0.975 -0.6019  3.5987  4.1766
  487SOL    HW2 1461   1.728   1.967   0.807 -1.7283  1.8843 -5.8333
  488SOL     OW 1462   1.040   1.537   1.289  0.1106 -0.0177 -0.6469
  488SOL    HW1 1463   0.967   1.510   1.363 -3.3598 -3.4619  2.8899
  488SOL    HW2 1464   1.090   1.447   1.257  1.5074 -5.0286 -1.2914
  489SOL     OW 1465   0.432   2.456   0.468  0.1847  0.1199 -0.3282
  489SOL    HW1 1466   0.475   2.493   0.560  2.9261  2.0097  4.3091
  489SOL    HW2 1467   0.504   2.452   0.387  4.3077  0.4173 -3.7315
  490SOL     OW 1468   1.164   0.773   2.710  0.3490  0.3899  0.1196
  490SOL    HW1 1469   1.106   0.712   2.779 -3.1004 -2.8922  4.1137
  490SOL    HW2 1470   1.207   0.710   2.634  2.5490 -2.8519 -3.3531
  491SOL     OW 1471   1.515   1.202   0.840  0.0134  0.3587 -0.3872
  491SOL    HW1 1472   1.526   1.099   0.809  0.5103 -5.7702 -2.3439
  491SOL    HW2 1473   1.414   1.234   0.825 -5.5652  1.9026 -1.2587
  492SOL     OW 1474   1.893   1.487   2.633 -0.0885 -0.0261 -0.0341
  492SOL    HW1 1475   1.892   1.498   2.740 -0.1055  0.9764  6.0673
  492SOL    HW2 1476   1.907   1.583   2.590  0.7021  5.4516 -1.9517
  493SOL     OW 1477   2.306   0.252   2.703 -0.1014 -0.0601  0.0601
  493SOL    HW1 1478   2.205   0.218   2.687 -6.0110 -1.9811 -0.6696
  493SOL    HW2 1479   2.301   0.345   2.757 -0.0969  4.3523  2.8241
  494SOL     OW 1480   0.998   1.026   1.695  0.2596  0.3722 -0.0439
  494SOL    HW1 1481   1.004   1.019   1.802 -0.2983 -0.4646  5.5265
  494SOL    HW2 1482   0.941   0.945   1.653 -2.4567 -3.8328 -2.0580
  495SOL     OW 1483   0.106   1.387   1.824 -0.0472 -0.4973  0.3025
  495SOL    HW1 1484   0.013   1.421   1.778 -5.2297  2.9931 -1.6970
  495SOL    HW2 1485   0.135   1.447   1.908 -0.5194  2.4048  3.7174
  496SOL     OW 1486   1.905   1.797   1.570 -0.0258 -0.1183 -0.3314
  496SOL    HW1 1487   1.991   1.769   1.512  4.7369 -1.7312 -3.4502
  496SOL    HW2 1488   1.840   1.865   1.518 -3.1486  3.9396 -3.0621
  497SOL     OW 1489   0.733   1.896   2.320  0.1354 -0.2207  0.1940
  497SOL    HW1 1490   0.790   1.980   2.285  1.9805  4.7543 -1.8651
  497SOL    HW2 1491   0.635   1.905   2.277 -4.5275  1.2353 -2.8427
  498SOL     OW 1492   1.428   2.308   2.005 -0.0922 -0.5718 -0.0688
  498SOL    HW1 1493   1.508   2.336   2.070  4.9296  1.3891  3.9487
  498SOL    HW2 1494   1.340   2.365   2.023 -4.9648  3.0519  1.4663
  499SOL     OW 1495   0.629   0.458   0.069 -0.3448  0.6242  0.1035
  499SOL    HW1 1496   0.676   0.363   0.084  2.2089 -5.2075  1.4208
  499SOL    HW2 1497   0.651   0.492  -0.030  0.6871  2.3035 -5.8367
  500SOL     OW 1498   0.688   2.497   2.217 -0.2640 -0.6475  0.1501
  500SOL    HW1 1499   0.611   2.570   2.224 -5.3488  4.1414  0.7064
  500SOL    HW2 1500   0.777   2.540   2.178  5.3447  2.3300 -2.5689
  501SOL     OW 1501   1.113   2.137   1.627  0.2956  0.5412 -0.6277
  501SOL    HW1 1502   1.089   2.153   1.731 -0.5790  0.2831  5.4802
  501SOL    HW2 1503   1.186   2.059   1.623  3.9406 -2.7722 -0.0105
  502SOL     OW 1504   0.184   0.048   2.026  0.2024 -0.4066 -0.1388
  502SOL    HW1 1505   0.129   0.110   2.094 -3.9455  4.2776  5.0012
  502SOL    HW2 1506   0.189   0.092   1.931  0.3844  1.7511 -5.2761
  503SOL     OW 1507   0.982   2.416   1.937 -0.6432 -0.6609 -0.2621
  503SOL    HW1 1508   1.084   2.437   1.965  4.7233  0.9085  1.8270
  503SOL    HW2 1509   0.920   2.467   2.008 -3.0393  1.4022  2.8307
  504SOL     OW 1510   0.355   2.783   2.667 -0.0426 -0.2647 -0.2033
  504SOL    HW1 1511   0.433   2.849   2.695  4.1428  2.3840  0.8246
  504SOL    HW2 1512   0.259   2.812   2.707 -5.2271  1.0636  1.9216
  505SOL     OW 1513   1.455   2.664   2.281 -0.0663  0.1629  0.0832
  505SOL    HW1 1514   1.392   2.578   2.262 -2.8277 -3.2976 -2.1469
  505SOL    HW2 1515   1.473   2.711   2.185  0.5160  2.0630 -5.3543
  506SOL     OW 1516   1.120   0.309   1.906  0.2400  0.3098  0.5001
  506SOL    HW1 1517   1.070   0.385   1.849 -2.9398  2.5466 -2.6040
  506SOL    HW2 1518   1.060   0.218   1.898 -2.9799 -2.5653 -1.2399
  507SOL     OW 1519   0.057   0.845   0.082 -0.4731 -0.0517 -0.0528
  507SOL    HW1 1520   0.144   0.782   0.086  3.7761 -3.0999  0.6611
  507SOL    HW2 1521   0.039   0.879   0.183 -0.5241  1.7970  6.0423
  508SOL     OW 1522   0.834   1.251   1.655 -0.2988  0.4392 -0.6425
  508SOL    HW1 1523   0.854   1.157   1.610 -0.7155 -3.9888 -2.9332
  508SOL    HW2 1524   0.785   1.233   1.750 -3.8285 -2.4589  6.5932
  509SOL     OW 1525   0.493   1.833   1.972  0.1960  0.2009 -0.1815
  509SOL    HW1 1526   0.564   1.841   1.892  3.6453  0.5791 -4.5618
  509SOL    HW2 1527   0.392   1.853   1.940 -5.6737  1.7071 -2.5363
  510SOL     OW 1528   1.621   2.715   1.722 -0.5706  0.2462 -0.3033
  510SOL    HW1 1529   1.620   2.614   1.757  0.0216 -5.3913  1.5436
  510SOL    HW2 1530   1.693   2.723   1.642  2.9954 -0.1004 -4.0528
  511SOL     OW 1531   1.252   2.556   2.788  0.5067  0.0689  0.0132
  511SOL    HW1 1532   1.157   2.517   2.827 -5.3931 -2.8659  2.7083
  511SOL    HW2 1533   1.321   2.476   2.784  3.4741 -4.3389  0.3315
  512SOL     OW 1534   0.723   1.216   1.888  0.3102 -0.6085 -0.0991
  512SOL    HW1 1535   0.732   1.201   1.994  1.2941 -1.6667  4.5272
  512SOL    HW2 1536   0.629   1.264   1.863 -4.6131  2.1409 -2.6049
  513SOL     OW 1537   1.384   1.706   1.976 -0.1786  0.5461  0.2864
  513SOL    HW1 1538   1.466   1.774   1.982  4.6025  3.9638  0.4240
  513SOL    HW2 1539   1.414   1.612   1.933  1.8562 -4.9663 -2.3261
  514SOL     OW 1540   0.513   1.199   0.050 -0.7279 -0.7245  0.4736
  514SOL    HW1 1541   0.520   1.182  -0.057  0.6456 -0.9267 -5.3896
  514SOL    HW2 1542   0.581   1.280   0.075  2.9830  3.4824  0.5912
  515SOL     OW 1543   0.587   1.639   2.151 -0.0807  0.3661  0.3000
  515SOL    HW1 1544   0.541   1.717   2.091 -1.7371  4.4561 -3.3860
  515SOL    HW2 1545   0.652   1.582   2.085  3.0918 -2.9289 -3.9788
  516SOL     OW 1546   0.504   2.683   2.233  0.0651  0.0253 -0.1850
  516SOL    HW1 1547   0.513   2.756   2.312  1.0070  3.5176  3.4319
  516SOL    HW2 1548   0.401   2.660   2.213 -5.4548 -1.6523 -1.1395
  517SOL     OW 1549   1.678   1.988   2.682  0.0222  0.2738 -0.3778
  517SOL    HW1 1550   1.623   2.024   2.766 -3.0631  2.5206  4.8249
  517SOL    HW2 1551   1.670   1.881   2.674 -0.6725 -6.4887 -0.5762
  518SOL     OW 1552   1.030   1.734   2.603 -0.3136 -0.6817 -0.1206
  518SOL    HW1 1553   0.940   1.770   2.645 -3.9240  1.7328  0.9679
  518SOL    HW2 1554   1.064   1.811   2.533  0.9010  4.2444 -3.7779
  519SOL     OW 1555   0.813   1.986   0.175  0.0821  0.0662 -0.0414
  519SOL    HW1 1556   0.804   2.093   0.178 -0.5267  6.7049  0.2440
  519SOL    HW2 1557   0.723   1.942   0.211 -4.9565 -2.7395  2.1584
  520SOL     OW 1558   0.860   1.873   2.775  0.0209 -0.4289  0.0071
  520SOL    HW1 1559   0.841   1.935   2.690 -0.9152  3.6409 -5.4954
  520SOL    HW2 1560   0.831   1.925   2.863 -1.9383  3.3599  5.4587
  521SOL     OW 1561   0.829   2.635   2.759  0.5753 -0.2710 -0.2911
  521SOL    HW1 1562   0.921   2.682   2.728  4.9711  2.4188 -1.3487
  521SOL    HW2 1563   0.773   2.703   2.823 -2.1493  4.3375  3.4207
  522SOL     OW 1564   0.298   1.309   0.886  0.2465  0.2577  0.0183
  522SOL    HW1 1565   0.249   1.252   0.806 -2.5268 -3.5143 -4.8403
  522SOL    HW2 1566   0.260   1.280   0.982 -1.8381 -0.7922  4.7530
  523SOL     OW 1567   1.094   1.495   2.489 -0.2746 -0.5951  0.4411
  523SOL    HW1 1568   1.054   1.587   2.528 -2.7549  3.9854  2.8063
  523SOL    HW2 1569   1.195   1.508   2.451  4.8900 -0.4186 -1.8960
  524SOL     OW 1570   1.106   1.664   0.415  0.6553 -0.3032 -0.0230
  524SOL    HW1 1571   1.100   1.688   0.309 -0.5111  1.4838 -5.8575
  524SOL    HW2 1572   1.023   1.708   0.466 -4.4488  3.2501  1.8531
  525SOL     OW 1573   0.353   0.920   1.685  0.0567  0.7275 -0.0287
  525SOL    HW1 1574   0.385   0.839   1.748 -0.0412 -4.5143  3.5719
  525SOL    HW2 1575   0.249   0.909   1.656 -4.7846 -2.0275 -0.2859
  526SOL     OW 1576   2.513   1.531   1.467  0.0307  0.6871  0.4981
  526SOL    HW1 1577   2.413   1.514   1.429 -4.6322 -0.3652 -1.2768
  526SOL    HW2 1578   2.539   1.443   1.523  0.5675 -4.1491  2.5571
  527SOL     OW 1579   2.044   2.076   0.344  0.2449 -0.3712 -0.2156
  527SOL    HW1 1580   1.964   2.058   0.275 -4.1319 -1.1183 -3.6583
  527SOL    HW2 1581   2.101   1.986   0.355  3.0175 -5.4462  0.4424
  528SOL     OW 1582   0.829   0.240   1.417 -0.0468  0.2652  0.1963
  528SOL    HW1 1583   0.891   0.269   1.334  3.7122  0.6282 -5.4633
  528SOL    HW2 1584   0.804   0.136   1.408 -1.2073 -5.8329 -1.1924
  529SOL     OW 1585   0.908   2.292   1.524 -0.4469  0.1249  0.2642
  529SOL    HW1 1586   0.982   2.228   1.569  3.9345 -3.1702  2.5729
  529SOL    HW2 1587   0.889   2.265   1.421 -1.3826 -1.6338 -5.0378
  530SOL     OW 1588   0.265   1.615   1.905 -0.1942 -0.1966 -0.6314
  530SOL    HW1 1589   0.275   1.658   2.004  0.2862  2.8984  6.2628
  530SOL    HW2 1590   0.356   1.635   1.852  5.3311  1.1393 -3.7878
  531SOL     OW 1591   1.431   1.464   1.853 -0.1175  0.4081  0.0538
  531SOL    HW1 1592   1.458   1.365   1.885  1.5868 -5.4817  1.7437
  531SOL    HW2 1593   1.343   1.457   1.792 -4.8319  0.1721 -3.0181
  532SOL     OW 1594   0.659   2.761   2.027 -0.3935  0.3591 -0.3895
  532SOL    HW1 1595   0.592   2.728   2.104 -3.9174 -1.4432  4.4985
  532SOL    HW2 1596   0.679   2.682   1.958  0.7139 -4.2942 -4.4862
  533SOL     OW 1597   1.151   2.096   2.186  0.0674  0.4177 -0.2785
  533SOL    HW1 1598   1.112   2.175   2.250 -2.1511  4.4137  3.1378
  533SOL    HW2 1599   1.087   2.009   2.188 -3.1310 -3.7027 -0.1935
  534SOL     OW 1600   1.050   2.290   2.355 -0.0242  0.1560 -0.3171
  534SOL    HW1 1601   1.031   2.300   2.461 -1.2319  0.5032  5.3003
  534SOL    HW2 1602   1.072   2.387   2.313  0.7462  4.7277 -2.0713
  535SOL     OW 1603   1.103   2.019   1.183 -0.0364  0.1433  0.3517
  535SOL    HW1 1604   1.130   2.039   1.080  0.9889  0.7447 -5.7538
  535SOL    HW2 1605   1.050   1.926   1.184 -2.6362 -4.5846 -0.1109
  536SOL     OW 1606   0.848   1.500   1.746 -0.3124  0.0241  0.0207
  536SOL    HW1 1607   0.932   1.498   1.815  4.4474 -1.1332  2.9215
  536SOL    HW2 1608   0.832   1.400   1.708 -1.4178 -5.7618 -2.0151
  537SOL     OW 1609   1.184   1.098   2.419 -0.1898 -0.4272 -0.1930
  537SOL    HW1 1610   1.239   1.145   2.501  2.7828  2.4332  4.3685
  537SOL    HW2 1611   1.239   1.115   2.328  3.3316  1.0482 -4.5895
  538SOL     OW 1612   1.726   2.336   2.553 -0.0090  0.4002  0.9098
  538SOL    HW1 1613   1.667   2.251   2.524 -2.4165 -3.9468 -0.8977
  538SOL    HW2 1614   1.698   2.425   2.499 -1.8675  5.3325 -2.1213
  539SOL     OW 1615   0.878   2.008   2.025  0.1324  0.0076 -0.1611
  539SOL    HW1 1616   0.886   2.048   2.124  0.7453  2.2974  5.1430
  539SOL    HW2 1617   0.882   1.901   2.034  0.6151 -5.8832  0.4955
  540SOL     OW 1618   0.277   0.992   2.318 -0.5960  0.2480  0.0751
  540SOL    HW1 1619   0.325   1.060   2.249  2.5903  4.1740 -4.1835
  540SOL    HW2 1620   0.211   0.929   2.262 -4.0934 -3.5346 -3.1894
  541SOL     OW 1621   2.171   0.675   2.130 -0.3076  0.8503 -0.0784
  541SOL    HW1 1622   2.222   0.674   2.225  2.0068  1.0091  6.1549
  541SOL    HW2 1623   2.241   0.659   2.052  3.3412 -0.1464 -4.5311
  542SOL     OW 1624   0.658   1.503   1.098 -0.4616  0.0763  0.1961
  542SOL    HW1 1625   0.741   1.555   1.052  4.3245  2.8771 -2.9618
  542SOL    HW2 1626   0.609   1.444   1.024 -3.2240 -3.1834 -3.5880
  543SOL     OW 1627   1.543   2.124   2.494 -0.4160  0.2640  0.0241
  543SOL    HW1 1628   1.527   2.053   2.415 -0.5191 -3.4860 -3.0409
  543SOL    HW2 1629   1.600   2.072   2.571  2.2519 -3.0244  2.7154
  544SOL     OW 1630   0.741   2.576   2.471  0.4879 -0.1793  0.2621
  544SOL    HW1 1631   0.641   2.571   2.514 -6.0954 -0.3594  3.0285
  544SOL    HW2 1632   0.738   2.536   2.374  0.4518 -2.1160 -4.3783
  545SOL     OW 1633   0.776   1.823   1.417 -0.3052  0.3180  0.1255
  545SOL    HW1 1634   0.816   1.888   1.491  1.5372  4.2123  3.8672
  545SOL    HW2 1635   0.784   1.719   1.445 -0.2231 -5.4733  1.0314
  546SOL     OW 1636   2.606   0.043   2.088  0.5157 -0.1108  0.0598
  546SOL    HW1 1637   2.559  -0.025   2.158 -2.3258 -4.4607  4.6140
  546SOL    HW2 1638   2.596   0.143   2.124 -0.2021  6.0588  1.9942
  547SOL     OW 1639   0.347   0.501   2.393 -0.2011 -0.3342 -0.1736
  547SOL    HW1 1640   0.346   0.487   2.287 -0.2347 -1.6199 -5.1319
  547SOL    HW2 1641   0.332   0.606   2.419 -0.8085  6.3327  2.0062
  548SOL     OW 1642   1.078   2.734   2.698  0.0595  0.1528  0.3899
  548SOL    HW1 1643   1.160   2.671   2.733  4.1277 -3.4902  0.5243
  548SOL    HW2 1644   1.068   2.713   2.591  0.8394 -0.6511 -3.6925
  549SOL     OW 1645   0.866   1.736   1.993 -0.3292 -0.2114  0.0783
  549SOL    HW1 1646   0.823   1.641   2.019 -2.5045 -5.4719  1.9978
  549SOL    HW2 1647   0.973   1.732   1.978  6.1583 -0.5353 -0.9636
  550SOL     OW 1648   1.397   2.174   1.763  0.0138  0.1395 -0.3910
  550SOL    HW1 1649   1.415   2.240   1.845  1.1533  3.6833  2.8107
  550SOL    HW2 1650   1.329   2.096   1.797 -3.0662 -3.7078  0.9287
  551SOL     OW 1651   1.057   0.043   1.835  0.7804  0.3003  0.5023
  551SOL    HW1 1652   1.019   0.094   1.748 -1.7187  2.7497 -5.4326
  551SOL    HW2 1653   1.060  -0.062   1.812  0.6418 -5.3747 -1.5793
  552SOL     OW 1654   0.760   0.019   0.727 -0.3040  0.1127  0.2230
  552SOL    HW1 1655   0.716  -0.024   0.638 -2.0871 -1.8763 -4.3093
  552SOL    HW2 1656   0.768  -0.059   0.802  0.0086 -4.0035  3.9850
  553SOL     OW 1657   1.540   0.211   0.062 -0.2162  0.5345  0.3729
  553SOL    HW1 1658   1.434   0.203   0.072 -4.7334 -1.1272  0.6829
  553SOL    HW2 1659   1.575   0.110   0.042  0.6145 -5.1365 -0.6864
  554SOL     OW 1660   0.927   1.056   1.271  0.1195  0.3645  0.1775
  554SOL    HW1 1661   0.842   1.007   1.231 -3.6062 -1.8885 -1.8774
  554SOL    HW2 1662   1.018   1.000   1.254  5.7284 -3.0820 -0.8448
  555SOL     OW 1663   0.706   2.786   0.097  0.3142 -0.4383 -0.4411
  555SOL    HW1 1664   0.706   2.893   0.099 -0.0653  5.8889 -0.4281
  555SOL    HW2 1665   0.609   2.750   0.126 -5.6240 -2.0459  1.6600
  556SOL     OW 1666   0.489   2.576   2.555  0.0751 -0.0907 -0.3357
  556SOL    HW1 1667   0.452   2.483   2.596 -1.6253 -4.9968  1.8021
  556SOL    HW2 1668   0.434   2.655   2.602 -2.3634  4.8571  1.6979
  557SOL     OW 1669   1.179   0.370   2.553 -0.1392 -0.2152 -1.0900
  557SOL    HW1 1670   1.222   0.465   2.524  1.1468  3.9875 -1.5955
  557SOL    HW2 1671   1.232   0.335   2.641  1.3884 -3.1768  1.9256
  558SOL     OW 1672   0.510   0.362   2.577 -0.3176 -0.0522  0.4633
  558SOL    HW1 1673   0.578   0.356   2.492  0.8143  1.0583 -4.1180
  558SOL    HW2 1674   0.437   0.436   2.548 -1.3289  2.3229 -2.0731
  559SOL     OW 1675   0.866   2.120   2.269  0.3238 -0.2845  0.0430
  559SOL    HW1 1676   0.772   2.173   2.268 -5.1061  3.2653 -0.1526
  559SOL    HW2 1677   0.938   2.190   2.307  3.3977  4.3888  2.4603
  560SOL     OW 1678   1.010   1.958   0.739  0.6271 -0.6845 -0.1869
  560SOL    HW1 1679   0.907   1.980   0.762 -4.8353  0.2670  0.8072
  560SOL    HW2 1680   1.033   2.017   0.652  1.1159  2.2965 -4.2218
  561SOL     OW 1681   2.726   2.432   2.184 -0.1388 -0.6469 -0.1893
  561SOL    HW1 1682   2.693   2.502   2.109 -2.2156  3.7278 -4.1602
  561SOL    HW2 1683   2.674   2.450   2.276 -3.2545  0.8719  4.6664
  562SOL     OW 1684   0.642   2.108   1.940 -0.6277 -0.8084  0.2630
  562SOL    HW1 1685   0.655   2.213   1.960  0.8625  6.1012  1.4902
  562SOL    HW2 1686   0.725   2.056   1.980  3.8235 -3.3055  2.5714
  563SOL     OW 1687   2.309   2.248   2.197 -0.1239  0.1634 -0.7494
  563SOL    HW1 1688   2.208   2.262   2.229 -6.1882  1.0618  1.3580
  563SOL    HW2 1689   2.331   2.143   2.195  0.9859 -6.6166 -0.4213
  564SOL     OW 1690   1.997   2.392   2.546  0.0500  1.1146 -0.0701
  564SOL    HW1 1691   1.890   2.374   2.544 -6.1809 -0.3627  0.3383
  564SOL    HW2 1692   2.041   2.318   2.610  2.4542 -3.7397  3.1873
  565SOL     OW 1693   2.673   2.326   2.683 -0.5535 -0.2826 -0.5623
  565SOL    HW1 1694   2.763   2.372   2.645  4.5410  0.7395 -1.0444
  565SOL    HW2 1695   2.703   2.259   2.764  2.0921 -2.8609  2.7539
  566SOL     OW 1696   1.699   1.523   1.101 -0.4972 -0.4921  0.3755
  566SOL    HW1 1697   1.732   1.538   1.200  1.8278 -0.1065  6.0206
  566SOL    HW2 1698   1.652   1.613   1.065 -3.1726  5.1943 -2.3106
  567SOL     OW 1699   1.225   2.151   2.580 -0.2257  0.0825 -0.0103
  567SOL    HW1 1700   1.278   2.069   2.627  2.2352 -4.6485  2.6156
  567SOL    HW2 1701   1.292   2.231   2.554  2.6522  4.3345 -1.4942
  568SOL     OW 1702   1.686   2.818   0.481 -0.2674 -0.0412 -0.6289
  568SOL    HW1 1703   1.792   2.801   0.471  2.8549 -2.0047  2.0054
  568SOL    HW2 1704   1.654   2.773   0.573 -0.1299 -2.7325  1.5382
  569SOL     OW 1705   0.237   2.048   2.687  0.1024 -0.1311 -0.7636
  569SOL    HW1 1706   0.176   1.960   2.681 -2.2377 -3.9775 -0.0662
  569SOL    HW2 1707   0.309   2.029   2.766  3.4956 -1.9748  3.5443
  570SOL     OW 1708   1.056   0.699   0.530 -0.1492 -0.6136  0.0531
  570SOL    HW1 1709   1.140   0.743   0.479  3.1694  2.2011 -3.2255
  570SOL    HW2 1710   0.969   0.745   0.484 -4.2370  2.8721 -2.7084
  571SOL     OW 1711   1.257   2.639   1.073  0.2859 -0.2301 -0.4996
  571SOL    HW1 1712   1.211   2.689   0.991 -1.9481  2.1581 -5.2926
  571SOL    HW2 1713   1.191   2.637   1.157 -4.1382 -0.3041  4.3325
  572SOL     OW 1714   0.771   2.180   0.562  0.5567 -0.1489 -0.1002
  572SOL    HW1 1715   0.749   2.283   0.548 -0.8051  5.5839 -1.2826
  572SOL    HW2 1716   0.688   2.122   0.527 -4.3120 -3.6160 -1.8510
  573SOL     OW 1717   0.861   0.846   1.882  0.0202 -0.2918 -0.1706
  573SOL    HW1 1718   0.922   0.915   1.937  3.5161  3.3484  3.1355
  573SOL    HW2 1719   0.779   0.898   1.835 -4.8319  2.2456 -2.9400
  574SOL     OW 1720   1.404   1.419   0.624 -0.3558 -0.5612  0.0764
  574SOL    HW1 1721   1.476   1.460   0.694  3.4273  1.8237  3.8506
  574SOL    HW2 1722   1.371   1.501   0.562 -1.6302  3.7124 -2.5637
  575SOL     OW 1723   2.729   1.486   1.709  0.4325 -0.0622 -0.5778
  575SOL    HW1 1724   2.691   1.409   1.644  0.2206 -5.6370 -2.6556
  575SOL    HW2 1725   2.647   1.551   1.738 -2.2699  3.8199 -1.0357
  576SOL     OW 1726   2.621   1.236   1.856  0.5761  0.1276  0.1033
  576SOL    HW1 1727   2.523   1.216   1.816 -4.3411 -0.8490 -1.7564
  576SOL    HW2 1728   2.621   1.337   1.894  0.4585  5.6667  1.9958
  577SOL     OW 1729   1.347   1.949   2.703 -0.4857 -0.1420 -0.3407
  577SOL    HW1 1730   1.423   1.989   2.768  4.4486  1.9940  3.0002
  577SOL    HW2 1731   1.392   1.887   2.629  2.6607 -2.9863 -3.6620
  578SOL     OW 1732   1.517   2.069   0.036 -0.2256 -0.2255 -0.3682
  578SOL    HW1 1733   1.580   2.154   0.052  3.4056  4.8440  0.4764
  578SOL    HW2 1734   1.515   2.009   0.124 -1.0697 -3.7953  4.0895
  579SOL     OW 1735   1.600   2.225   0.289 -0.0859  0.2867 -0.6299
  579SOL    HW1 1736   1.500   2.200   0.309 -5.4714 -1.4001  0.4151
  579SOL    HW2 1737   1.643   2.273   0.377  2.8090  3.9304  5.2177
  580SOL     OW 1738   0.763   2.376   2.771 -0.2330  0.0693  0.3557
  580SOL    HW1 1739   0.776   2.482   2.760  1.2056  5.9201  0.4635
  580SOL    HW2 1740   0.762   2.330   2.673 -0.4590 -3.5904 -4.9324
  581SOL     OW 1741   1.111   2.632   1.306  0.0478 -0.1074 -0.4879
  581SOL    HW1 1742   1.058   2.723   1.315 -2.3255  4.5219 -0.3802
  581SOL    HW2 1743   1.109   2.584   1.403 -0.2177 -3.0208  5.0407
  582SOL     OW 1744   2.345   0.564   1.650 -0.5027 -0.2369 -0.5117
  582SOL    HW1 1745   2.428   0.632   1.648  5.3121  1.7172  0.1655
  582SOL    HW2 1746   2.384   0.472   1.690  3.6049 -4.3518  2.0746
  583SOL     OW 1747   2.800   0.997   2.377 -0.6975  0.0368 -0.2648
  583SOL    HW1 1748   2.801   0.943   2.471  0.9519 -4.3966  3.5196
  583SOL    HW2 1749   2.857   0.937   2.308  1.8376 -3.6444 -1.4549
  584SOL     OW 1750   0.390   2.356   2.668  0.1598 -0.1347 -0.2643
  584SOL    HW1 1751   0.449   2.273   2.698  3.2138 -3.8217  1.4780
  584SOL    HW2 1752   0.362   2.408   2.757 -1.5689  2.7092  5.0405
  585SOL     OW 1753   1.407   2.050   0.803 -0.0149  0.0103  0.4529
  585SOL    HW1 1754   1.435   2.154   0.818  1.6893  5.3088  0.6555
  585SOL    HW2 1755   1.412   2.030   0.697  0.0464  0.0459 -5.0538
  586SOL     OW 1756   2.639   0.199   1.616  0.0513  0.3406 -0.4256
  586SOL    HW1 1757   2.532   0.190   1.602 -6.0504 -0.0169 -2.1667
  586SOL    HW2 1758   2.667   0.158   1.711  2.2575 -1.8339  5.1088
  587SOL     OW 1759   1.057   1.517   2.198  0.4921 -0.1943 -0.4468
  587SOL    HW1 1760   1.142   1.582   2.207  4.0380  3.6354 -0.2784
  587SOL    HW2 1761   0.975   1.560   2.254 -3.9629  2.8661  2.7541
  588SOL     OW 1762   1.200   2.205   0.050  0.3565  0.2796 -0.1183
  588SOL    HW1 1763   1.159   2.109   0.022 -1.7583 -3.5809 -0.9516
  588SOL    HW2 1764   1.138   2.250   0.126 -2.4054  1.6035  2.6483
  589SOL     OW 1765   1.258   1.695   2.217 -0.5073  0.7144 -0.0398
  589SOL    HW1 1766   1.319   1.702   2.128  3.1051  1.0921 -5.0740
  589SOL    HW2 1767   1.309   1.635   2.292  2.1902 -2.6374  4.3168
  590SOL     OW 1768   0.064   0.322   1.945  0.3393  0.1903  0.0970
  590SOL    HW1 1769   0.117   0.260   1.875  3.9923 -3.0535 -3.6368
  590SOL    HW2 1770  -0.042   0.316   1.929 -5.7037  0.0758 -0.1739
  591SOL     OW 1771   2.344   2.805   0.865  0.2909 -0.2427 -0.3655
  591SOL    HW1 1772   2.286   2.858   0.792 -2.1694  4.1183 -3.8261
  591SOL    HW2 1773   2.408   2.875   0.915  3.7386  4.8415  1.6426
  592SOL     OW 1774   1.004   2.557   2.500  0.5296 -0.0766 -0.3652
  592SOL    HW1 1775   1.020   2.469   2.560  0.8109 -4.6645  2.8342
  592SOL    HW2 1776   0.898   2.570   2.490 -5.7742  1.1865 -0.6405
  593SOL     OW 1777   0.051   1.043   1.220  0.2562 -0.1434  0.0590
  593SOL    HW1 1778  -0.003   1.081   1.134 -2.5833  1.3940 -3.6183
  593SOL    HW2 1779  -0.016   1.048   1.305 -4.0820 -0.1383  4.6548
  594SOL     OW 1780   2.746   1.030   1.456 -0.0600 -0.5133  0.0585
  594SOL    HW1 1781   2.773   1.086   1.544  1.5897  3.2612  5.4282
  594SOL    HW2 1782   2.650   1.062   1.421 -5.4430  1.4135 -1.3580
  595SOL     OW 1783   1.399   1.085   0.025 -0.2853  0.4850  0.0353
  595SOL    HW1 1784   1.365   1.022   0.106 -1.0483 -3.1343  3.7535
  595SOL    HW2 1785   1.478   1.026  -0.018  2.7589 -2.4523 -1.3148
  596SOL     OW 1786   2.549   1.788   0.580  0.1014  0.0995 -0.9445
  596SOL    HW1 1787   2.543   1.723   0.666 -0.2922 -2.4253  3.9430
  596SOL    HW2 1788   2.576   1.886   0.617  1.5799  5.0839  1.6496
  597SOL     OW 1789   1.737   2.591   2.021 -0.4205 -0.5307 -0.3031
  597SOL    HW1 1790   1.770   2.613   2.120  0.7251  0.4450  4.7696
  597SOL    HW2 1791   1.809   2.631   1.950  3.4147  1.7845 -4.1043
  598SOL     OW 1792   2.545   0.963   2.647 -0.1689 -0.2623  0.2735
  598SOL    HW1 1793   2.580   1.066   2.654  2.3186  5.2425  1.4004
  598SOL    HW2 1794   2.481   0.944   2.564 -3.6724 -2.3880 -4.3396
  599SOL     OW 1795   0.024   1.317   1.464  0.0807 -0.3799 -0.5584
  599SOL    HW1 1796   0.111   1.254   1.484  5.3369 -4.2592  0.5742
  599SOL    HW2 1797  -0.052   1.289   1.533 -2.3497 -2.1640  2.7792
  600SOL     OW 1798   2.367   1.355   2.734  0.6131  0.3962 -0.4576
  600SOL    HW1 1799   2.289   1.357   2.660 -4.1825  0.2814 -4.4088
  600SOL    HW2 1800   2.336   1.288   2.813 -1.5578 -3.6159  4.1913
  601SOL     OW 1801   0.049   2.247   2.068  0.1288 -0.4292 -0.2209
  601SOL    HW1 1802  -0.011   2.312   2.129 -3.6653  3.0598  3.2073
  601SOL    HW2 1803   0.151   2.279   2.071  5.0205  1.2750  0.1259
  602SOL     OW 1804   2.424   1.228   2.492 -0.0484 -0.0582 -0.3948
  602SOL    HW1 1805   2.336   1.168   2.509 -4.9075 -3.2563  0.4345
  602SOL    HW2 1806   2.478   1.240   2.584  1.8259  1.2337  4.5995
  603SOL     OW 1807   1.492   0.653   1.205 -0.0223  0.4079  0.0152
  603SOL    HW1 1808   1.445   0.625   1.112 -2.4069 -1.2242 -5.5066
  603SOL    HW2 1809   1.434   0.616   1.288 -3.0704 -1.8214  4.9435
  604SOL     OW 1810   1.120   1.948   2.839 -0.0617  0.0444 -0.0785
  604SOL    HW1 1811   1.199   1.938   2.766  4.8872 -0.2576 -3.9625
  604SOL    HW2 1812   1.025   1.927   2.795 -5.9496 -1.4481 -2.1274
  605SOL     OW 1813   2.168   0.873   0.331  0.4160 -0.1024 -0.3415
  605SOL    HW1 1814   2.163   0.978   0.308 -0.7467  5.8435 -1.9736
  605SOL    HW2 1815   2.067   0.836   0.331 -4.8934 -0.6913 -0.1394
  606SOL     OW 1816   2.524   2.222   1.842 -0.6715 -0.1336  0.8034
  606SOL    HW1 1817   2.527   2.201   1.735  0.1794 -0.6469 -5.5128
  606SOL    HW2 1818   2.584   2.308   1.865  1.3993  3.5548  0.8443
  607SOL     OW 1819   0.076   1.943   0.146  0.0447  0.2531  0.3893
  607SOL    HW1 1820   0.003   1.862   0.159 -2.3345 -3.0791  0.2203
  607SOL    HW2 1821   0.133   1.933   0.057  1.7007 -0.4462 -2.5393
  608SOL     OW 1822   0.983   0.199   1.634  0.3225 -0.1711  0.1032
  608SOL    HW1 1823   0.967   0.295   1.679 -1.2054  4.4938  1.2615
  608SOL    HW2 1824   0.923   0.195   1.544 -3.0698  0.5419 -4.1084
  609SOL     OW 1825   1.596   1.532   0.339  0.4269  0.3239  0.3934
  609SOL    HW1 1826   1.500   1.558   0.300 -4.3148 -0.0275 -2.2663
  609SOL    HW2 1827   1.590   1.426   0.359 -1.0066 -4.7845  1.1231
  610SOL     OW 1828   1.561   1.180   1.326  0.6148 -0.5122  0.8084
  610SOL    HW1 1829   1.591   1.225   1.232  1.5284  2.0027 -3.6649
  610SOL    HW2 1830   1.532   1.259   1.391 -0.0266  3.1337  3.6573
  611SOL     OW 1831   2.172   1.503   0.031 -0.2321 -0.0378 -0.7241
  611SOL    HW1 1832   2.171   1.456   0.128  0.3519 -2.2867  4.5304
  611SOL    HW2 1833   2.258   1.464  -0.020  3.8897 -2.2944 -2.6414
  612SOL     OW 1834   1.706   0.395   0.631 -0.5974  0.4908 -0.0198
  612SOL    HW1 1835   1.784   0.431   0.566  4.3136  2.0858 -3.2075
  612SOL    HW2 1836   1.753   0.328   0.700  3.1524 -2.5280  3.3952
  613SOL     OW 1837   2.375   0.452   2.166  0.1969 -0.1534  0.1966
  613SOL    HW1 1838   2.381   0.516   2.077  0.2116  4.4248 -4.4426
  613SOL    HW2 1839   2.354   0.511   2.253 -1.7481  3.3684  3.3845
  614SOL     OW 1840   1.219   0.117   1.369 -0.3605  0.5035 -0.3378
  614SOL    HW1 1841   1.224   0.196   1.442  1.6659  2.4456  3.8882
  614SOL    HW2 1842   1.297   0.046   1.394  3.7846 -1.5046  2.5802
  615SOL     OW 1843   2.723   1.614   2.450  0.3013  0.4593  0.2020
  615SOL    HW1 1844   2.642   1.589   2.387 -3.5566 -1.8019 -3.2510
  615SOL    HW2 1845   2.790   1.529   2.446  3.2981 -4.9594 -0.7118
  616SOL     OW 1846   2.813   0.384   0.535  0.2836 -0.0523 -0.6261
  616SOL    HW1 1847   2.790   0.299   0.596 -1.7428 -5.5151  4.2622
  616SOL    HW2 1848   2.771   0.469   0.587 -2.1811  5.3102  3.8237
  617SOL     OW 1849   2.516   1.450   0.976 -0.2859  0.4810  0.4156
  617SOL    HW1 1850   2.614   1.419   0.946  5.3172 -1.1933 -1.9707
  617SOL    HW2 1851   2.451   1.433   0.893 -3.5518 -0.8441 -5.3118
  618SOL     OW 1852   0.633   1.456   1.356  0.6347 -0.0056  0.3645
  618SOL    HW1 1853   0.633   1.479   1.253 -0.2284  1.3434 -6.4283
  618SOL    HW2 1854   0.543   1.403   1.381 -5.4483 -3.7571  1.7783
  619SOL     OW 1855   0.169   1.055   2.779  0.3432 -0.2325  0.0120
  619SOL    HW1 1856   0.244   1.084   2.852  2.4627  0.0200  2.9840
  619SOL    HW2 1857   0.110   0.973   2.816 -1.3882 -3.6087  3.1196
  620SOL     OW 1858   1.847   1.948   2.064  0.4811  0.0409  0.7196
  620SOL    HW1 1859   1.888   1.852   2.039  2.5687 -5.4049 -0.9430
  620SOL    HW2 1860   1.844   2.007   1.975  0.1722  3.6507 -4.8593
  621SOL     OW 1861   1.442   1.722   1.295 -0.8653  0.2913 -0.3044
  621SOL    HW1 1862   1.441   1.623   1.253  0.5598 -4.9994 -2.7142
  621SOL    HW2 1863   1.536   1.768   1.268  5.4750  1.5628 -2.0588
  622SOL     OW 1864   1.045   0.611   0.039 -0.2867  0.7633 -0.0940
  622SOL    HW1 1865   1.130   0.615   0.104  4.5241  0.4245  3.9301
  622SOL    HW2 1866   1.013   0.509   0.033 -1.9700 -5.7431 -0.6474
  623SOL     OW 1867   2.149   1.013   1.152  0.0989  0.3405  0.6913
  623SOL    HW1 1868   2.149   0.906   1.152  0.2468 -6.1704  0.5466
  623SOL    HW2 1869   2.094   1.049   1.068 -3.1300  2.2368 -4.1286
  624SOL     OW 1870   2.764   2.178   0.056 -0.5633  0.1947 -0.2067
  624SOL    HW1 1871   2.789   2.124   0.144  0.9728 -1.5898  3.2727
  624SOL    HW2 1872   2.853   2.214   0.003  5.5980  2.0654 -2.6482
  625SOL     OW 1873   1.593   1.748   1.001  0.0050 -0.2939  0.4113
  625SOL    HW1 1874   1.661   1.817   0.952  2.3541  3.0939 -2.2194
  625SOL    HW2 1875   1.500   1.801   1.019 -4.5286  2.9425  0.6909
  626SOL     OW 1876   0.247   2.825   0.230  0.0501  0.1787 -0.0540
  626SOL    HW1 1877   0.288   2.906   0.173  1.4288  3.8054 -4.2150
  626SOL    HW2 1878   0.177   2.766   0.173 -3.9647 -2.8467 -4.2549
  627SOL     OW 1879   1.802   2.526   0.036  0.4257 -0.2924 -0.0264
  627SOL    HW1 1880   1.738   2.569   0.110 -2.9593  1.8740  4.3774
  627SOL    HW2 1881   1.780   2.570  -0.059 -0.8345  2.4325 -6.0976
  628SOL     OW 1882   2.092   0.031   1.446  0.4746  0.1426 -0.0798
  628SOL    HW1 1883   2.062   0.056   1.547 -2.1981  2.3371  7.2083
  628SOL    HW2 1884   2.169  -0.042   1.441  4.8446 -4.3472 -0.7885
  629SOL     OW 1885   2.030   0.099   1.689  0.4296 -0.0954  0.2879
  629SOL    HW1 1886   1.933   0.122   1.734 -4.0980  0.3444  2.0895
  629SOL    HW2 1887   2.100   0.164   1.737  1.7499  1.9903  1.4680
  630SOL     OW 1888   0.508   2.141   0.263  0.6714  0.1564 -0.2368
  630SOL    HW1 1889   0.416   2.191   0.289 -5.2429  3.2570  1.2978
  630SOL    HW2 1890   0.541   2.087   0.349  1.9964 -2.7211  4.8629
  631SOL     OW 1891   0.119   1.464   1.050  0.0184 -0.1611  0.1307
  631SOL    HW1 1892   0.205   1.473   1.113  5.0612 -0.1992  3.3587
  631SOL    HW2 1893   0.043   1.539   1.064 -4.6416  4.3227  0.1865
  632SOL     OW 1894   2.587   0.808   0.586 -0.1419 -0.2805 -0.1794
  632SOL    HW1 1895   2.583   0.897   0.525 -0.1190  5.8096 -3.4539
  632SOL    HW2 1896   2.591   0.839   0.689 -0.2977  1.6195  5.8721
  633SOL     OW 1897   2.541   1.674   0.814  0.2003  0.5263 -0.5325
  633SOL    HW1 1898   2.455   1.727   0.853 -4.6461  2.4879  2.3303
  633SOL    HW2 1899   2.540   1.583   0.868 -0.8044 -3.7105  2.9360
  634SOL     OW 1900   0.344   1.023   0.185 -0.0209 -0.6431  1.0763
  634SOL    HW1 1901   0.415   1.105   0.169  3.8089  2.1027 -0.4873
  634SOL    HW2 1902   0.370   0.943   0.115  1.8337 -2.9296 -2.6085
  635SOL     OW 1903   1.831   2.781   1.009 -0.0542 -0.4126 -0.1878
  635SOL    HW1 1904   1.761   2.860   1.031 -4.6214  3.8348  0.6066
  635SOL    HW2 1905   1.911   2.779   1.081  4.1682 -0.9829  3.2685
  636SOL     OW 1906   2.509   0.161   1.251 -0.1997 -0.1213 -0.5840
  636SOL    HW1 1907   2.595   0.137   1.310  4.9293 -0.9279  3.4309
  636SOL    HW2 1908   2.454   0.240   1.299 -3.4814  4.3384  2.2863
  637SOL     OW 1909   2.538   1.203   0.238 -0.1633  0.4900  0.3970
  637SOL    HW1 1910   2.519   1.131   0.160 -0.7024 -2.6762 -3.5428
  637SOL    HW2 1911   2.626   1.259   0.210  3.8391  2.3690 -1.4011
  638SOL     OW 1912   1.940   0.737   1.314 -0.0623 -0.1534 -0.2234
  638SOL    HW1 1913   2.028   0.775   1.365  4.4945  2.0901  2.5927
  638SOL    HW2 1914   1.882   0.817   1.273 -3.0978  4.8129 -2.8021
  639SOL     OW 1915   2.493   0.835   0.274 -0.2513  0.4605  0.1322
  639SOL    HW1 1916   2.528   0.739   0.312  1.9847 -5.5633  2.0284
  639SOL    HW2 1917   2.515   0.917   0.340  0.8042  4.6400  3.6354
  640SOL     OW 1918   0.707   1.559   2.646  0.5077  0.0708 -0.0013
  640SOL    HW1 1919   0.681   1.665   2.649 -2.5505  4.2476 -1.1263
  640SOL    HW2 1920   0.637   1.515   2.578 -3.1967  0.8574 -2.7245
  641SOL     OW 1921   2.060   0.218   0.424 -0.3090 -0.3762  0.1214
  641SOL    HW1 1922   2.071   0.249   0.527  0.6130  1.9242  5.1862
  641SOL    HW2 1923   2.135   0.276   0.372  3.5618  2.5138 -1.8572
  642SOL     OW 1924   2.096   1.421   0.278  0.0677 -0.1974 -0.6170
  642SOL    HW1 1925   2.001   1.379   0.308 -5.0476 -2.8572  1.2786
  642SOL    HW2 1926   2.169   1.399   0.355  4.0119 -1.4002  3.9817
  643SOL     OW 1927   2.191   2.628   1.676  0.2701 -0.0530  0.0334
  643SOL    HW1 1928   2.091   2.635   1.636 -4.7902  1.1926 -1.8992
  643SOL    HW2 1929   2.225   2.728   1.694  0.7577  5.5914  0.4303
  644SOL     OW 1930   0.248   0.865   1.223  0.6504  0.2195 -0.1880
  644SOL    HW1 1931   0.168   0.938   1.224 -4.5369  4.9011  0.4068
  644SOL    HW2 1932   0.303   0.869   1.315  3.8078  0.0961  5.1496
  645SOL     OW 1933   2.109   0.534   2.693  0.3054  0.4980 -0.3899
  645SOL    HW1 1934   2.110   0.505   2.797 -0.5465 -1.2397  5.0143
  645SOL    HW2 1935   2.004   0.536   2.667 -5.6808  0.6851 -1.3835
  646SOL     OW 1936   0.852   1.657   0.992 -0.5378 -0.3376 -0.1137
  646SOL    HW1 1937   0.909   1.651   0.900  2.6274 -1.0997 -5.5816
  646SOL    HW2 1938   0.908   1.695   1.074  2.1220  1.0882  3.9185
  647SOL     OW 1939   2.803   1.112   0.961 -0.0185 -0.1055  0.2020
  647SOL    HW1 1940   2.773   1.215   0.947 -1.0327  4.4147 -1.3673
  647SOL    HW2 1941   2.828   1.069   0.865  1.0523 -1.0521 -4.0322
  648SOL     OW 1942   1.967   2.698   2.502 -0.3343  0.2037 -0.1977
  648SOL    HW1 1943   2.038   2.701   2.584  3.4219 -0.0168  4.0610
  648SOL    HW2 1944   2.022   2.678   2.413  1.9065 -0.6207 -4.1594
  649SOL     OW 1945   1.908   0.243   1.037 -0.3913 -0.0056 -0.0002
  649SOL    HW1 1946   2.007   0.199   1.028  6.5763 -2.4828 -0.3477
  649SOL    HW2 1947   1.875   0.228   1.136 -2.2805 -0.9644  5.0802
  650SOL     OW 1948   2.334   1.661   0.483 -0.0265 -0.4762  0.1505
  650SOL    HW1 1949   2.418   1.724   0.508  4.9988  3.1960  1.6237
  650SOL    HW2 1950   2.264   1.718   0.425 -3.3186  2.6142 -2.1041
  651SOL     OW 1951   2.519   0.338   0.126  0.2701 -0.6079 -0.3957
  651SOL    HW1 1952   2.498   0.355   0.229 -1.4496  1.1278  5.3542
  651SOL    HW2 1953   2.458   0.402   0.068 -3.8284  3.4739 -3.7334
  652SOL     OW 1954   1.924   0.766   0.365  0.7666  0.2087  0.0023
  652SOL    HW1 1955   1.849   0.812   0.302 -3.2715  2.3456 -4.0490
  652SOL    HW2 1956   1.887   0.755   0.465 -0.7591 -1.2577  6.2104
  653SOL     OW 1957   1.915   0.463   0.458  0.2026  0.6085  0.4323
  653SOL    HW1 1958   1.958   0.374   0.418  1.2347 -3.1434 -2.4734
  653SOL    HW2 1959   1.860   0.505   0.375 -1.9383  1.7104 -4.3871
  654SOL     OW 1960   0.217   1.152   0.690  0.2790 -0.4985  0.2541
  654SOL    HW1 1961   0.130   1.099   0.660 -3.3463 -2.6706 -2.1611
  654SOL    HW2 1962   0.280   1.164   0.603  2.7888 -0.2604 -4.5339
  655SOL     OW 1963   2.831   0.721   1.183 -0.2704 -0.5741 -0.4696
  655SOL    HW1 1964   2.775   0.815   1.172 -0.6162  3.8646  0.7561
  655SOL    HW2 1965   2.894   0.727   1.269  0.3186  1.4997  4.4670
  656SOL     OW 1966   2.544   2.429   0.081  0.5178 -0.0292  0.0961
  656SOL    HW1 1967   2.441   2.463   0.073 -5.2808  2.1537 -0.1287
  656SOL    HW2 1968   2.582   2.403  -0.015  2.2738 -1.2176 -5.1231
  657SOL     OW 1969   0.264   1.180   1.126  0.0868  0.3526 -0.0297
  657SOL    HW1 1970   0.176   1.143   1.175 -3.7949 -1.5224  2.6514
  657SOL    HW2 1971   0.345   1.161   1.197  4.2099 -1.0476  4.0858
  658SOL     OW 1972   2.711   0.569   2.052 -0.1880  0.0828  0.3917
  658SOL    HW1 1973   2.669   0.487   1.994 -1.4334 -5.1026 -2.1768
  658SOL    HW2 1974   2.793   0.528   2.111  3.2397 -2.8246  2.3112
  659SOL     OW 1975   2.772   0.670   0.933  0.3812  0.0329 -0.6681
  659SOL    HW1 1976   2.800   0.702   1.032  0.0701  1.7025  4.6583
  659SOL    HW2 1977   2.664   0.663   0.936 -6.0075 -0.0279  1.6426
  660SOL     OW 1978   2.376   1.241   1.736  0.4982  0.2613  0.5153
  660SOL    HW1 1979   2.313   1.315   1.691 -3.5125  4.0479 -2.1255
  660SOL    HW2 1980   2.319   1.154   1.760 -3.7107 -4.7753  1.9387
  661SOL     OW 1981  -0.003   0.911   0.338 -0.6403 -0.4056  0.2597
  661SOL    HW1 1982   0.059   0.830   0.368  2.3564 -4.6540  1.3902
  661SOL    HW2 1983   0.042   1.003   0.372  2.2751  5.9781  2.4705
  662SOL     OW 1984   2.310   0.301   0.822 -0.2796  0.4657  0.0752
  662SOL    HW1 1985   2.222   0.321   0.764 -2.3107  1.1413 -1.7406
  662SOL    HW2 1986   2.396   0.313   0.757 -0.0964 -0.1366 -2.6736
  663SOL     OW 1987   0.054   1.169   2.563 -0.0107  0.1808 -0.0580
  663SOL    HW1 1988   0.091   1.104   2.642  2.4864 -5.0592  4.6768
  663SOL    HW2 1989   0.037   1.107   2.478 -1.1862 -4.3571 -4.5033
  664SOL     OW 1990   1.688   2.310   0.770  0.1160 -0.9817 -0.5619
  664SOL    HW1 1991   1.587   2.318   0.806 -5.5445 -0.6856  1.8589
  664SOL    HW2 1992   1.756   2.295   0.852  3.2744 -1.6332  4.1223
  665SOL     OW 1993   2.432   0.589   0.637  0.3942 -0.2836  0.3239
  665SOL    HW1 1994   2.345   0.594   0.574 -4.1492 -0.0373 -3.0139
  665SOL    HW2 1995   2.493   0.675   0.619  2.9338  4.2564 -1.0851
  666SOL     OW 1996   2.188   0.494   1.179 -0.3884 -0.1160 -0.6266
  666SOL    HW1 1997   2.091   0.464   1.210 -4.1523 -1.0278  0.9769
  666SOL    HW2 1998   2.239   0.536   1.266  2.0701  2.1812  4.3440
  667SOL     OW 1999   1.131   2.549   2.263  0.0771  0.7140 -0.5198
  667SOL    HW1 2000   1.104   2.569   2.364 -1.6038  1.5038  5.1313
  667SOL    HW2 2001   1.221   2.490   2.259  5.5228 -3.0161 -0.5683
  668SOL     OW 2002   2.009   1.107   0.949  0.0558 -0.1988  0.4185
  668SOL    HW1 2003   2.086   1.162   0.898  4.7946  3.5072 -2.7555
  668SOL    HW2 2004   1.932   1.084   0.880 -4.0638 -1.7313 -3.7370
  669SOL     OW 2005   2.363   0.600   1.951  0.2404 -0.3566  0.0987
  669SOL    HW1 2006   2.403   0.703   1.941  2.5271  6.4443  0.6873
  669SOL    HW2 2007   2.352   0.552   1.858 -1.0434 -2.7770 -2.7937
  670SOL     OW 2008   1.622   1.567   2.441 -0.1649  0.2324 -0.2666
  670SOL    HW1 2009   1.675   1.475   2.449  3.1773 -4.9116  0.4863
  670SOL    HW2 2010   1.675   1.627   2.369  3.1974  3.5239 -4.3430
  671SOL     OW 2011   2.433   0.438   1.074  0.0016 -0.3359 -0.1563
  671SOL    HW1 2012   2.331   0.442   1.109 -5.6385 -0.0392  2.1488
  671SOL    HW2 2013   2.494   0.482   1.150  3.3044  2.4044  3.9656
  672SOL     OW 2014   1.611   0.889   1.447  0.0946  0.4485 -0.1618
  672SOL    HW1 2015   1.512   0.853   1.429 -6.3325 -2.0245 -0.8342
  672SOL    HW2 2016   1.664   0.906   1.356  3.7806  1.5526 -6.1229
  673SOL     OW 2017   2.675   2.268   0.629 -0.1730  0.4441 -0.5543
  673SOL    HW1 2018   2.746   2.203   0.581  3.6573 -2.7196 -2.3585
  673SOL    HW2 2019   2.721   2.319   0.713  2.6475  2.8731  3.9138
  674SOL     OW 2020   2.571   2.625   0.256  0.4600  0.1686  0.2422
  674SOL    HW1 2021   2.575   2.539   0.193  0.7284 -4.5180 -3.2372
  674SOL    HW2 2022   2.498   2.613   0.333 -3.7933 -0.4388  4.8146
  675SOL     OW 2023   1.026   0.637   0.793  0.2912 -0.0568  0.3754
  675SOL    HW1 2024   0.922   0.636   0.817 -5.2857  0.5136  0.6021
  675SOL    HW2 2025   1.035   0.667   0.689 -0.9122  2.0824 -5.9489
  676SOL     OW 2026   2.788   2.097   0.892 -0.8879  0.5038  0.3015
  676SOL    HW1 2027   2.832   2.061   0.984  1.8362 -1.7830  4.8243
  676SOL    HW2 2028   2.867   2.146   0.839  3.5536  2.5405 -2.1885
  677SOL     OW 2029   1.531   0.704   2.551  0.5191  0.8590  0.0219
  677SOL    HW1 2030   1.553   0.666   2.453  1.0948 -0.7064 -5.0848
  677SOL    HW2 2031   1.550   0.627   2.624  0.7561 -3.1204  4.1454
  678SOL     OW 2032   2.613   1.194   2.301 -0.1561  0.4045 -0.2242
  678SOL    HW1 2033   2.535   1.209   2.374 -4.1224  0.7961  4.3841
  678SOL    HW2 2034   2.681   1.118   2.335  3.3716 -4.4130  2.0084
  679SOL     OW 2035   0.031   0.525   0.312 -0.0586 -0.2472 -0.6042
  679SOL    HW1 2036   0.109   0.594   0.341  4.2453  3.2877  1.5806
  679SOL    HW2 2037   0.017   0.460   0.395 -0.6153 -3.4191  4.3912
  680SOL     OW 2038   2.331   0.324   1.349  0.0140 -0.4950 -0.3212
  680SOL    HW1 2039   2.345   0.429   1.365 -0.0552  5.4617  0.2609
  680SOL    HW2 2040   2.236   0.304   1.301 -4.8057 -1.2892 -2.1347
  681SOL     OW 2041   2.451   1.575   1.749  0.3127  0.1850 -0.3298
  681SOL    HW1 2042   2.471   1.528   1.843 -0.3763 -2.5611  3.3477
  681SOL    HW2 2043   2.372   1.515   1.703 -3.3822 -4.0866 -0.3167
  682SOL     OW 2044   2.821   0.752   1.873 -0.6504  0.1931 -0.0494
  682SOL    HW1 2045   2.768   0.704   1.954 -2.1984 -1.5559  2.5085
  682SOL    HW2 2046   2.868   0.671   1.817  1.4358 -4.0896 -2.7698
  683SOL     OW 2047   1.088   1.409   0.517  0.8784 -0.2484  0.3028
  683SOL    HW1 2048   1.035   1.425   0.610 -1.9831  2.0191  4.8578
  683SOL    HW2 2049   1.100   1.506   0.472  0.2599  4.6641 -1.2529
  684SOL     OW 2050   2.168   1.179   1.361  0.5478  0.2079  0.6269
  684SOL    HW1 2051   2.162   1.119   1.271 -0.7506 -3.0330 -4.4981
  684SOL    HW2 2052   2.070   1.215   1.379 -4.0565  1.4736  0.7219
  685SOL     OW 2053   2.574   1.479   0.355 -0.0358 -0.0114  0.2979
  685SOL    HW1 2054   2.633   1.565   0.387  1.9788  4.8743  2.3182
  685SOL    HW2 2055   2.632   1.424   0.286  1.2811 -2.8657 -2.6391
  686SOL     OW 2056   2.643   0.540   1.201 -0.8619  0.1442 -0.0767
  686SOL    HW1 2057   2.702   0.452   1.220  4.1802 -4.0283  0.8302
  686SOL    HW2 2058   2.718   0.616   1.185  4.1765  2.8201 -0.6340
  687SOL     OW 2059   1.541   0.115   0.777  0.1638  0.4971 -0.0004
  687SOL    HW1 2060   1.617   0.042   0.768  3.2602 -3.8040 -1.2167
  687SOL    HW2 2061   1.463   0.087   0.706 -3.4397 -1.4886 -4.8771
  688SOL     OW 2062   2.248   1.014   1.776  0.3932  0.2980  0.2634
  688SOL    HW1 2063   2.240   0.908   1.793 -0.1231 -5.1557  1.7312
  688SOL    HW2 2064   2.155   1.062   1.802 -4.1346  2.1409  1.4098
  689SOL     OW 2065   2.709   0.140   2.400  0.4873  0.1195 -0.0461
  689SOL    HW1 2066   2.631   0.192   2.453 -4.3649  3.4597  3.3903
  689SOL    HW2 2067   2.690   0.035   2.413 -1.1946 -5.4111  0.9571
  690SOL     OW 2068   2.074   1.212   2.315  0.1551  0.0058 -0.5519
  690SOL    HW1 2069   1.971   1.184   2.305 -5.6612 -0.8555 -0.6894
  690SOL    HW2 2070   2.074   1.314   2.347 -0.7458  5.1072  1.3638
  691SOL     OW 2071   2.498   0.632   0.901  0.1678  0.5748  0.4460
  691SOL    HW1 2072   2.469   0.603   0.801 -1.7184 -1.7649 -4.9341
  691SOL    HW2 2073   2.468   0.551   0.965 -1.2589 -4.3293  3.3636
  692SOL     OW 2074   2.320   1.017   1.509  0.1439 -0.6376  0.1879
  692SOL    HW1 2075   2.311   1.016   1.616 -0.2198 -0.6033  6.3260
  692SOL    HW2 2076   2.253   1.089   1.464 -4.3323  4.3235 -3.1827
  693SOL     OW 2077   2.314   0.824   0.931 -0.6205 -0.1016 -0.4259
  693SOL    HW1 2078   2.250   0.794   1.012 -3.0576 -1.9782  3.8767
  693SOL    HW2 2079   2.391   0.750   0.919  3.6438 -4.2851 -0.4433
  694SOL     OW 2080   2.519   0.770   1.615 -0.5022 -0.0294  0.4233
  694SOL    HW1 2081   2.503   0.816   1.520 -1.1344  3.0141 -4.5087
  694SOL    HW2 2082   2.566   0.843   1.679  2.4312  4.9901  3.6331
  695SOL     OW 2083   0.106   0.797   2.235  0.2028 -0.3037 -0.0095
  695SOL    HW1 2084   0.008   0.800   2.187 -5.4231 -0.7819 -3.2634
  695SOL    HW2 2085   0.166   0.723   2.189  2.3377 -4.2630 -2.6712
  696SOL     OW 2086   2.692   0.623   1.460  0.1813  0.0239  0.2793
  696SOL    HW1 2087   2.643   0.610   1.366 -3.3682  0.3470 -4.2610
  696SOL    HW2 2088   2.627   0.680   1.523 -4.1519  3.2672  3.4445
  697SOL     OW 2089   2.423   1.707   2.061 -0.6130  0.4898  0.4297
  697SOL    HW1 2090   2.456   1.644   2.138  0.6650 -3.0696  3.9362
  697SOL    HW2 2091   2.511   1.749   2.012  4.2570  3.4262 -2.8679
  698SOL     OW 2092   2.558   0.151   2.788  0.4844 -0.7647  0.3197
  698SOL    HW1 2093   2.531   0.228   2.860 -2.0207  3.9373  3.4728
  698SOL    HW2 2094   2.486   0.155   2.710 -1.5002  0.8501 -2.0163
  699SOL     OW 2095   1.955   1.024   1.560  0.0848 -0.6743  0.1208
  699SOL    HW1 2096   1.942   1.099   1.485 -0.8445  3.4624 -3.9609
  699SOL    HW2 2097   2.010   0.941   1.521  3.0151 -5.0892 -1.7541
  700SOL     OW 2098   0.132   1.733   0.753 -0.1607  0.0253 -0.0039
  700SOL    HW1 2099   0.193   1.662   0.803  3.0784 -3.5726  3.3502
  700SOL    HW2 2100   0.050   1.759   0.818 -4.7466  1.1280  3.5191
  701SOL     OW 2101   0.271   1.688   2.157  0.2708  0.2286 -0.5389
  701SOL    HW1 2102   0.272   1.641   2.254  0.4538 -2.5750  3.1939
  701SOL    HW2 2103   0.240   1.791   2.170 -0.7357  4.4789 -1.2881
  702SOL     OW 2104   0.799   2.795   1.686 -0.0541  0.6401  0.4644
  702SOL    HW1 2105   0.785   2.794   1.579 -0.9962  0.4713 -5.3901
  702SOL    HW2 2106   0.886   2.738   1.713  4.4534 -2.8267  2.2997
  703SOL     OW 2107   2.253   0.263   2.027 -0.1664 -0.1967  0.0700
  703SOL    HW1 2108   2.273   0.167   2.070  0.9553 -4.8663  1.3083
  703SOL    HW2 2109   2.293   0.340   2.095  1.6472  4.5903  3.0945
  704SOL     OW 2110   1.072   0.903   0.301  0.2110 -0.0463  0.8653
  704SOL    HW1 2111   1.067   0.989   0.236 -0.5838  3.0672 -2.0990
  704SOL    HW2 2112   0.991   0.840   0.266 -3.7776 -2.0532 -1.4530
  705SOL     OW 2113   2.668   0.914   1.093  0.4056  0.3167  0.6616
  705SOL    HW1 2114   2.566   0.944   1.113 -6.1036  0.6083  2.5914
  705SOL    HW2 2115   2.723   0.991   1.043  4.3697  3.4264 -2.6146
  706SOL     OW 2116   2.582   0.605   2.676  0.1578 -0.4851  0.1739
  706SOL    HW1 2117   2.665   0.589   2.610  4.1009 -1.2513 -2.2034
  706SOL    HW2 2118   2.610   0.677   2.752  1.9584  4.0525  4.0563
  707SOL     OW 2119   2.792   0.326   1.247 -0.1995  0.8863  0.4260
  707SOL    HW1 2120   2.808   0.287   1.147  1.1619 -2.8359 -4.6621
  707SOL    HW2 2121   2.766   0.238   1.305 -1.7990 -4.6676  2.5517
  708SOL     OW 2122   2.755   1.356   0.193  0.0276  0.0326  0.4458
  708SOL    HW1 2123   2.709   1.388   0.102 -3.3416  2.4189 -5.7010
  708SOL    HW2 2124   2.843   1.297   0.176  5.7521 -3.6724 -0.3811
  709SOL     OW 2125   1.744   1.304   0.104 -0.1019 -0.4370 -0.1283
  709SOL    HW1 2126   1.640   1.319   0.082 -6.6337  0.8393 -1.4487
  709SOL    HW2 2127   1.797   1.391   0.073  2.4759  4.8377 -1.6939
  710SOL     OW 2128   1.606   0.374   1.845  0.0172  0.5368 -0.1695
  710SOL    HW1 2129   1.583   0.281   1.799 -1.3659 -4.7221 -2.8445
  710SOL    HW2 2130   1.557   0.381   1.942 -3.1963  0.3023  6.7591
  711SOL     OW 2131   2.070   2.456   1.414  0.1492 -0.0280  0.1344
  711SOL    HW1 2132   1.976   2.483   1.367 -5.3105  1.0995 -2.1952
  711SOL    HW2 2133   2.044   2.405   1.506 -1.7009 -2.4339  4.5914
  712SOL     OW 2134   1.786   2.541   0.654 -0.1217  0.0870  0.3565
  712SOL    HW1 2135   1.769   2.449   0.709 -0.9967 -5.3904  3.2963
  712SOL    HW2 2136   1.804   2.521   0.549  0.8263 -0.7606 -4.7667
  713SOL     OW 2137   1.438   2.817   1.164  0.4237 -0.0436 -0.5461
  713SOL    HW1 2138   1.434   2.801   1.271 -1.4015 -2.4214  4.8801
  713SOL    HW2 2139   1.366   2.750   1.122 -3.5653 -4.0455 -0.9911
  714SOL     OW 2140   0.269   0.575   1.601  0.0699  0.1912  0.0546
  714SOL    HW1 2141   0.199   0.578   1.681 -3.7681 -0.1149  4.1076
  714SOL    HW2 2142   0.282   0.472   1.569  0.6445 -7.1412 -1.6770
  715SOL     OW 2143   1.350   1.560   0.959  0.3488  0.2164 -0.0745
  715SOL    HW1 2144   1.260   1.499   0.952 -4.1791 -2.5426 -0.3490
  715SOL    HW2 2145   1.319   1.656   0.998 -0.9233  2.9067  1.9465
  716SOL     OW 2146   2.378   1.421   0.756  0.0757  0.0556  0.0681
  716SOL    HW1 2147   2.430   1.380   0.671  2.8109 -2.8385 -4.8433
  716SOL    HW2 2148   2.318   1.505   0.728 -3.1627  4.8440 -1.3968
  717SOL     OW 2149   2.522   1.303   0.553 -0.4959 -0.5616 -0.1528
  717SOL    HW1 2150   2.612   1.268   0.598  4.3949 -2.4210  2.0543
  717SOL    HW2 2151   2.548   1.368   0.471  1.5588  3.9501 -4.6002
  718SOL     OW 2152   2.010   1.817   0.558 -0.2213  0.3642  0.5103
  718SOL    HW1 2153   2.000   1.712   0.533  0.4955 -4.6342 -1.3997
  718SOL    HW2 2154   2.107   1.848   0.522  4.5767  0.9800 -1.3406
  719SOL     OW 2155   0.798   1.621   0.304  0.0939  0.1028  0.6663
  719SOL    HW1 2156   0.804   1.516   0.332  0.8891 -5.3044  0.5313
  719SOL    HW2 2157   0.831   1.632   0.201  1.5333 -0.0360 -4.9373
  720SOL     OW 2158   0.206   0.728   0.369 -0.1168 -0.1163  0.0164
  720SOL    HW1 2159   0.248   0.727   0.270  2.2103 -0.0416 -5.7977
  720SOL    HW2 2160   0.282   0.752   0.441  4.4439  1.0001  3.5185
  721SOL     OW 2161   1.932   1.710   1.969 -0.3021  0.0821  0.2555
  721SOL    HW1 2162   2.025   1.708   1.914  1.7975 -1.4157 -4.3365
  721SOL    HW2 2163   1.850   1.665   1.912 -1.4003 -1.9940 -3.9230
  722SOL     OW 2164   1.861   1.164   1.157  0.0243  0.3647  0.2296
  722SOL    HW1 2165   1.770   1.206   1.119 -4.9756  2.4936 -2.2160
  722SOL    HW2 2166   1.928   1.148   1.076  3.5771 -0.5482 -4.0709
  723SOL     OW 2167   2.769   1.326   1.206 -0.4426  0.1549 -0.0657
  723SOL    HW1 2168   2.807   1.320   1.307  1.5092 -0.3214  4.9611
  723SOL    HW2 2169   2.843   1.370   1.141  3.5034  2.3676 -3.2098
  724SOL     OW 2170   1.377   0.543   0.407 -0.2047 -0.1856 -0.6300
  724SOL    HW1 2171   1.361   0.445   0.442 -0.4803 -5.5700  1.6688
  724SOL    HW2 2172   1.477   0.575   0.433  6.1512  1.1537  1.1331
  725SOL     OW 2173   1.672   0.439   1.596 -0.0256  0.1548 -0.0699
  725SOL    HW1 2174   1.642   0.436   1.699 -1.7607  1.0373  5.5271
  725SOL    HW2 2175   1.711   0.536   1.567  1.9767  6.2401 -1.0377
  726SOL     OW 2176   2.266   2.389   0.689 -0.5634 -0.0546 -0.4706
  726SOL    HW1 2177   2.364   2.372   0.651  4.0643 -0.6016 -0.4188
  726SOL    HW2 2178   2.274   2.423   0.793  1.5910  1.7941  5.5908
  727SOL     OW 2179   2.286   2.241   0.293 -0.0691  0.2739  0.0075
  727SOL    HW1 2180   2.269   2.135   0.281 -0.8641 -2.7907  1.5500
  727SOL    HW2 2181   2.322   2.260   0.393  1.2255 -1.3498  4.0387
  728SOL     OW 2182   2.457   0.843   1.940 -0.1634 -0.0490 -0.3825
  728SOL    HW1 2183   2.519   0.916   1.891  2.4659  3.9994 -2.2178
  728SOL    HW2 2184   2.439   0.879   2.041 -1.0275  2.0223  5.4328
  729SOL     OW 2185   2.292   1.431   1.322  0.9004  0.3450 -0.2405
  729SOL    HW1 2186   2.232   1.472   1.241 -2.9810  2.8340 -5.0732
  729SOL    HW2 2187   2.264   1.329   1.335 -0.5614 -4.8398  0.5861
  730SOL     OW 2188   2.283   1.192   0.084 -0.1423  0.8946 -0.2392
  730SOL    HW1 2189   2.240   1.190   0.182 -2.4847  0.5544  4.4994
  730SOL    HW2 2190   2.360   1.117   0.082  3.8640 -3.0672 -0.5460
  731SOL     OW 2191   2.128   1.135   0.302  0.6048  0.0598 -0.2878
  731SOL    HW1 2192   2.038   1.137   0.243 -4.9524  0.1373 -3.1872
  731SOL    HW2 2193   2.104   1.180   0.396 -0.9107  2.1817  5.2066
  732SOL     OW 2194   1.575   0.810   1.697  0.6370 -0.1232 -0.2984
  732SOL    HW1 2195   1.580   0.861   1.603 -0.4124  3.6284 -3.4941
  732SOL    HW2 2196   1.514   0.872   1.763 -1.7067  3.7587  0.7194
  733SOL     OW 2197   1.641   2.630   0.221  0.0851  0.1149 -0.7450
  733SOL    HW1 2198   1.550   2.646   0.274 -4.2138  1.0994  2.1348
  733SOL    HW2 2199   1.718   2.613   0.295  3.9569 -0.2721  3.6090
  734SOL     OW 2200   2.141   2.733   2.697 -0.0339 -0.2954 -0.5020
  734SOL    HW1 2201   2.242   2.699   2.704  5.7491 -2.1845  0.3625
  734SOL    HW2 2202   2.093   2.717   2.792 -2.2114 -1.5742  5.5519
  735SOL     OW 2203   0.192   0.745   2.683  0.4968 -0.1695  0.4122
  735SOL    HW1 2204   0.172   0.638   2.680 -2.1634 -4.7797 -0.2926
  735SOL    HW2 2205   0.096   0.793   2.685 -4.0806  0.4604 -0.5042
  736SOL     OW 2206   0.662   0.728   1.657  0.5667 -0.0777 -0.0714
  736SOL    HW1 2207   0.599   0.645   1.682 -3.3291 -2.3648  2.3428
  736SOL    HW2 2208   0.637   0.816   1.715 -2.6994  3.4652  4.0408
  737SOL     OW 2209   2.331   0.695   2.631  0.1434  0.4967  0.1422
  737SOL    HW1 2210   2.262   0.622   2.667 -4.0115 -3.7599  1.9394
  737SOL    HW2 2211   2.432   0.661   2.646  6.6188 -1.9122  0.9823
  738SOL     OW 2212   2.128   0.428   2.446  0.1237  0.3917 -0.5400
  738SOL    HW1 2213   2.051   0.355   2.439 -3.6287 -2.9854 -0.3983
  738SOL    HW2 2214   2.129   0.466   2.548 -0.7827  2.1685  5.6301
  739SOL     OW 2215   2.643   0.759   0.041 -0.5431 -0.0790 -0.0989
  739SOL    HW1 2216   2.738   0.811   0.047  5.2485  2.8494  0.3081
  739SOL    HW2 2217   2.583   0.787   0.125 -3.7127  1.3104  3.6277
  740SOL     OW 2218   2.455   1.727   2.813 -0.9362  0.1066 -0.3918
  740SOL    HW1 2219   2.538   1.687   2.761  4.1567 -1.9339 -3.0327
  740SOL    HW2 2220   2.421   1.660   2.889 -3.5478 -4.3384  4.8869
  741SOL     OW 2221   1.351   1.506   2.395 -0.6331  0.2124 -0.0835
  741SOL    HW1 2222   1.366   1.400   2.408  0.5575 -3.2129  0.3504
  741SOL    HW2 2223   1.447   1.553   2.418  3.7539  1.4571  0.9476
  742SOL     OW 2224   2.645   1.206   2.668  0.0613 -0.2729  0.1917
  742SOL    HW1 2225   2.745   1.198   2.629  5.3304 -0.6313 -1.9402
  742SOL    HW2 2226   2.641   1.289   2.737  0.3480  4.1243  3.9570
  743SOL     OW 2227   1.687   1.055   1.856  0.1468  0.2481 -0.0139
  743SOL    HW1 2228   1.728   0.960   1.885  2.7202 -5.5966  1.9798
  743SOL    HW2 2229   1.686   1.066   1.749  0.4302  0.9048 -6.4181
  744SOL     OW 2230   1.503   0.394   2.086  0.2921  0.4034  0.2697
  744SOL    HW1 2231   1.570   0.315   2.117  2.5513 -3.5248  1.6014
  744SOL    HW2 2232   1.404   0.359   2.109 -3.7600 -1.6083  1.8068
  745SOL     OW 2233   2.029   0.710   0.118  0.1082  0.2001 -0.6767
  745SOL    HW1 2234   2.041   0.603   0.110  0.6874 -5.8579 -1.0131
  745SOL    HW2 2235   1.968   0.733   0.203 -2.8528  1.6639  3.5942
  746SOL     OW 2236   1.791   1.589   1.347 -0.2069 -0.3360  0.4013
  746SOL    HW1 2237   1.895   1.589   1.373  4.4607  1.2497  0.9885
  746SOL    HW2 2238   1.757   1.691   1.331 -0.8516  5.6426 -0.5218
  747SOL     OW 2239   2.300   0.696   0.133  0.2393 -0.1095  0.0648
  747SOL    HW1 2240   2.195   0.716   0.146 -3.8715  1.6800  1.2284
  747SOL    HW2 2241   2.349   0.760   0.204  1.4457  3.2622  3.6678
  748SOL     OW 2242   2.168   2.756   1.978 -0.5328  0.4312  0.3050
  748SOL    HW1 2243   2.192   2.653   1.969  0.6609 -4.2705  0.3104
  748SOL    HW2 2244   2.224   2.800   2.059  2.8964  2.4416  4.3214
  749SOL     OW 2245   0.859   1.127   0.696  0.3506 -0.1471  0.0379
  749SOL    HW1 2246   0.874   1.047   0.769  1.2770 -5.0313  3.7220
  749SOL    HW2 2247   0.916   1.102   0.608  2.9426 -1.3924 -3.0982
  750SOL     OW 2248   1.909   0.692   1.743  0.2142 -0.3437 -0.0924
  750SOL    HW1 2249   1.865   0.762   1.811 -2.6472  3.7205  3.9625
  750SOL    HW2 2250   1.853   0.690   1.651 -3.2166 -0.2319 -5.5264
  751SOL     OW 2251   2.558   0.477   2.400 -0.0398 -0.0231  0.3572
  751SOL    HW1 2252   2.661   0.445   2.400  5.6881 -1.9155  0.3281
  751SOL    HW2 2253   2.552   0.582   2.385 -1.2401  4.9658 -0.6305
  752SOL     OW 2254   1.779   0.916   0.190 -0.3620 -0.8328 -0.4931
  752SOL    HW1 2255   1.744   0.958   0.282 -2.2621  1.4728  5.1447
  752SOL    HW2 2256   1.852   0.984   0.152  3.6661  2.4967 -2.3293
  753SOL     OW 2257   2.599   0.294   2.176  0.1047  0.2003 -0.3618
  753SOL    HW1 2258   2.652   0.283   2.269  2.3085  0.8297  3.8244
  753SOL    HW2 2259   2.516   0.361   2.200 -3.2445  2.8652  1.2647
  754SOL     OW 2260   2.069   0.144   2.646 -0.1577 -0.1351  0.6266
  754SOL    HW1 2261   2.098   0.040   2.646  1.2964 -5.5020 -0.0408
  754SOL    HW2 2262   2.010   0.164   2.559 -3.0399  0.8488 -3.9932
  755SOL     OW 2263   2.799   2.693   2.662 -0.2221 -0.0111  0.2459
  755SOL    HW1 2264   2.854   2.775   2.704  2.3451  3.6454  2.5668
  755SOL    HW2 2265   2.718   2.726   2.600 -4.8063  1.5751 -2.8234
  756SOL     OW 2266   0.325   1.394   2.021  0.2259 -0.1026 -0.3094
  756SOL    HW1 2267   0.393   1.410   2.104  3.3610  1.0837  3.7743
  756SOL    HW2 2268   0.309   1.484   1.965 -0.5577  4.5027 -3.1620
  757SOL     OW 2269   1.686   1.100   1.593 -0.1953  0.4217 -0.0850
  757SOL    HW1 2270   1.641   1.045   1.511 -2.0347 -1.8529 -4.1821
  757SOL    HW2 2271   1.793   1.090   1.589  4.4858 -0.3051 -0.6817
  758SOL     OW 2272   2.026   2.020   1.149 -0.1118  0.1061  0.6309
  758SOL    HW1 2273   2.022   2.095   1.073 -1.4757  3.0314 -3.0923
  758SOL    HW2 2274   1.950   1.946   1.127 -4.4148 -3.2182 -1.4361
  759SOL     OW 2275   1.839   1.218   0.605 -0.3759 -0.1300 -0.0658
  759SOL    HW1 2276   1.808   1.291   0.677 -1.5029  5.3650  5.2672
  759SOL    HW2 2277   1.944   1.230   0.591  6.8042  1.5629  0.2825
  760SOL     OW 2278   2.056   1.475   2.362 -0.1810 -0.0881  0.3935
  760SOL    HW1 2279   2.025   1.560   2.419 -2.1376  4.3566  2.4408
  760SOL    HW2 2280   1.994   1.476   2.274 -4.0301  0.6499 -4.1487
  761SOL     OW 2281   2.654   2.626   2.008 -0.0431 -0.2367  0.1279
  761SOL    HW1 2282   2.616   2.724   2.032 -1.9528  4.8301  1.4249
  761SOL    HW2 2283   2.578   2.577   1.951 -3.5588 -2.1989 -2.2810
  762SOL     OW 2284   2.088   2.011   2.248 -0.0981 -0.1664  0.5602
  762SOL    HW1 2285   1.997   2.058   2.275 -4.4554  2.1293  1.7657
  762SOL    HW2 2286   2.107   2.025   2.144  0.6791  0.3059 -5.4060
  763SOL     OW 2287   2.668   1.959   2.759  0.0839  0.3120 -0.2572
  763SOL    HW1 2288   2.586   1.901   2.798 -3.5722 -1.5595  2.2441
  763SOL    HW2 2289   2.692   2.047   2.818  0.9692  4.5616  2.9896
  764SOL     OW 2290   2.809   0.404   2.400 -0.0572  0.1669  0.4448
  764SOL    HW1 2291   2.870   0.421   2.313  3.9220  1.0238 -4.9956
  764SOL    HW2 2292   2.847   0.325   2.460  2.2044 -3.9033  3.1859
  765SOL     OW 2293   2.727   2.678   1.467 -0.1894 -0.4826  0.1477
  765SOL    HW1 2294   2.793   2.685   1.549  4.6788 -0.0127  5.7311
  765SOL    HW2 2295   2.631   2.717   1.487 -7.0137  2.6961  1.4945
  766SOL     OW 2296   1.325   0.136   1.854  0.6170  0.1257 -0.2004
  766SOL    HW1 2297   1.256   0.217   1.839 -3.4335  3.5574 -0.4667
  766SOL    HW2 2298   1.280   0.059   1.915 -3.6144 -3.3607  3.1713
  767SOL     OW 2299   1.686   2.560   2.389 -0.4753  0.2809  0.6227
  767SOL    HW1 2300   1.594   2.602   2.353 -4.7858  2.4253 -1.1931
  767SOL    HW2 2301   1.769   2.612   2.345  4.0570  3.4600 -1.8741
  768SOL     OW 2302   1.883   0.453   1.862  0.0834 -0.0138  0.2924
  768SOL    HW1 2303   1.784   0.415   1.853 -4.4843 -1.6708 -0.3311
  768SOL    HW2 2304   1.891   0.545   1.804  0.0993  4.9884 -3.2405
  769SOL     OW 2305   0.475   1.417   2.242 -0.2127  0.1304 -0.3917
  769SOL    HW1 2306   0.493   1.405   2.346  0.1555 -0.3869  5.6415
  769SOL    HW2 2307   0.521   1.509   2.206  2.5642  5.8445 -2.3438
  770SOL     OW 2308   0.437   1.986   2.479  0.4135  0.4914  0.0975
  770SOL    HW1 2309   0.454   1.960   2.376 -0.9075 -1.5539 -4.7408
  770SOL    HW2 2310   0.338   1.949   2.501 -3.8993 -0.6368 -0.3323
  771SOL     OW 2311   1.754   0.338   2.803  0.2445  0.3081  0.0388
  771SOL    HW1 2312   1.675   0.294   2.862 -5.1383 -2.4893  4.2830
  771SOL    HW2 2313   1.848   0.305   2.841  5.6240 -2.1490  2.6472
  772SOL     OW 2314   2.447   2.791   0.087 -0.5111 -0.1440  0.1717
  772SOL    HW1 2315   2.504   2.869   0.039  2.6307  4.7915 -2.4359
  772SOL    HW2 2316   2.507   2.733   0.154  2.9049 -2.9959  4.3809
  773SOL     OW 2317   2.618   2.748   2.476  0.0085  0.5727  0.5275
  773SOL    HW1 2318   2.621   2.642   2.458  0.2619 -6.5239 -0.1676
  773SOL    HW2 2319   2.518   2.786   2.482 -5.5852  2.3497  0.7646
  774SOL     OW 2320   1.527   1.317   2.205  0.3549 -0.1827 -0.0024
  774SOL    HW1 2321   1.579   1.407   2.177  3.4351  5.3542 -1.9007
  774SOL    HW2 2322   1.523   1.304   2.311  0.0487 -0.7066  5.7083
  775SOL     OW 2323   1.930   2.615   1.632  0.0200 -0.5617  0.1151
  775SOL    HW1 2324   1.879   2.681   1.565 -2.5652  3.0354 -3.5946
  775SOL    HW2 2325   1.919   2.654   1.732 -0.1895  1.5741  6.1889
  776SOL     OW 2326   2.283   1.405   0.471 -0.5315 -0.6002 -0.6037
  776SOL    HW1 2327   2.374   1.351   0.485  4.3369 -2.7371  0.0995
  776SOL    HW2 2328   2.308   1.511   0.473  1.6847  5.3138  0.2136
  777SOL     OW 2329   0.084   1.592   0.003 -0.3919  0.1452 -0.2369
  777SOL    HW1 2330   0.130   1.621   0.096  3.3972  1.7544  5.9530
  777SOL    HW2 2331   0.113   1.492  -0.020  1.4403 -5.4946 -1.0306
  778SOL     OW 2332   1.137   0.056   2.476 -0.0695 -0.5046  0.1079
  778SOL    HW1 2333   1.221   0.095   2.534  4.4020  1.5060  2.9952
  778SOL    HW2 2334   1.048   0.099   2.513 -3.8176  1.7494  1.1622
  779SOL     OW 2335   2.541   1.606   1.208 -0.0038  0.6585  0.0815
  779SOL    HW1 2336   2.508   1.534   1.139 -2.0215 -2.9996 -2.9763
  779SOL    HW2 2337   2.531   1.568   1.308 -0.2797 -1.5634  6.3740
  780SOL     OW 2338   1.737   0.016   2.439 -0.3822  0.1046 -0.3352
  780SOL    HW1 2339   1.819  -0.053   2.445  3.9507 -3.8318 -0.0421
  780SOL    HW2 2340   1.644  -0.033   2.460 -5.0531 -2.9008  1.0919
  781SOL     OW 2341   0.384   2.186   2.207 -0.2449 -0.7499 -0.1938
  781SOL    HW1 2342   0.359   2.250   2.125 -1.2311  3.1412 -5.2259
  781SOL    HW2 2343   0.357   2.230   2.301 -1.6163  2.0490  5.2185
  782SOL     OW 2344   2.581   1.472   1.961  0.2730  0.4874 -0.0630
  782SOL    HW1 2345   2.490   1.440   2.011 -5.0930 -2.1168  4.0109
  782SOL    HW2 2346   2.661   1.470   2.033  3.6231  0.0575  3.4322
  783SOL     OW 2347   0.153   1.341   2.764  0.0997  0.2499  0.0376
  783SOL    HW1 2348   0.154   1.287   2.858 -0.2137 -3.4429  4.4742
  783SOL    HW2 2349   0.127   1.271   2.688 -1.0535 -3.9366 -3.1479
  784SOL     OW 2350   1.777   0.676   1.508 -0.0470  0.2606 -0.0940
  784SOL    HW1 2351   1.703   0.753   1.500 -3.2939  3.5057 -0.1762
  784SOL    HW2 2352   1.848   0.697   1.428  3.1036  0.9692 -4.1666
  785SOL     OW 2353   2.137   0.852   2.762 -0.2087  0.7451 -0.1135
  785SOL    HW1 2354   2.224   0.799   2.732  4.1957 -1.8822 -1.3147
  785SOL    HW2 2355   2.090   0.799   2.844 -2.5463 -2.2736  4.2033
  786SOL     OW 2356   2.377   0.496   2.815 -0.2087 -0.3562  0.1111
  786SOL    HW1 2357   2.343   0.576   2.879 -1.9248  5.4603  4.0423
  786SOL    HW2 2358   2.461   0.526   2.756  4.4736  1.2245 -2.9277
  787SOL     OW 2359   0.257   0.241   2.403  0.3883 -0.6875 -0.1554
  787SOL    HW1 2360   0.190   0.233   2.486 -3.1865 -0.0278  4.5925
  787SOL    HW2 2361   0.307   0.336   2.405  2.9336  5.0160  0.3286
  788SOL     OW 2362   1.776   2.791   1.509  0.2540 -0.3958  0.3912
  788SOL    HW1 2363   1.720   2.771   1.421 -1.8416 -0.4066 -3.4023
  788SOL    HW2 2364   1.795   2.898   1.516  1.2111  6.0643  0.5494
  789SOL     OW 2365   2.788   0.283   2.807  0.3598 -0.0088 -0.1922
  789SOL    HW1 2366   2.765   0.384   2.832 -1.7229  5.3668  0.9253
  789SOL    HW2 2367   2.696   0.226   2.798 -6.2798 -3.2575 -0.1530
  790SOL     OW 2368   0.058   1.085   2.108 -0.0320 -0.1550  0.0924
  790SOL    HW1 2369  -0.048   1.075   2.109 -4.6290  0.1801  0.7643
  790SOL    HW2 2370   0.088   1.167   2.171  0.9399  3.8831  3.4658
  791SOL     OW 2371   2.198   1.077   2.506 -0.0755 -0.3271 -0.3690
  791SOL    HW1 2372   2.149   1.086   2.599 -2.7762  0.3315  4.8859
  791SOL    HW2 2373   2.142   1.129   2.430 -3.1459  2.7140 -4.9866
  792SOL     OW 2374   2.266   0.209   2.364 -0.2079 -0.0524 -0.1155
  792SOL    HW1 2375   2.235   0.307   2.396 -1.0296  4.3806  1.3489
  792SOL    HW2 2376   2.337   0.173   2.436  1.8598 -1.7519  2.9598
  793SOL     OW 2377   2.362   0.881   2.454  0.3854 -0.1239 -0.0791
  793SOL    HW1 2378   2.287   0.960   2.460 -4.3830  4.8699 -0.0485
  793SOL    HW2 2379   2.345   0.813   2.534 -0.6043 -3.3808  4.7159
  794SOL     OW 2380   1.122   1.731   1.913 -0.1553 -0.4198  0.2388
  794SOL    HW1 2381   1.097   1.740   1.809 -1.9802 -0.1255 -4.9689
  794SOL    HW2 2382   1.228   1.741   1.932  5.7019  0.3692  1.9064
  795SOL     OW 2383   1.670   1.721   2.663  0.6623  0.4318 -0.1667
  795SOL    HW1 2384   1.651   1.662   2.577 -0.8524 -3.0852 -5.1419
  795SOL    HW2 2385   1.596   1.692   2.735 -4.0514 -1.4531  3.7990
  796SOL     OW 2386   2.498   0.254   2.521  0.2985 -0.3062  0.3247
  796SOL    HW1 2387   2.511   0.348   2.472  0.9177  5.5522 -2.7050
  796SOL    HW2 2388   2.419   0.260   2.591 -4.9214  0.2673  4.1973
  797SOL     OW 2389   0.534   0.950   0.412 -0.4723  0.0930 -0.2709
  797SOL    HW1 2390   0.511   0.854   0.374 -0.1491 -2.8763 -1.9214
  797SOL    HW2 2391   0.635   0.978   0.381  4.9471  0.6671 -1.8729
  798SOL     OW 2392   2.023   0.393   1.564  0.5986  0.6081 -0.1034
  798SOL    HW1 2393   2.078   0.378   1.657  1.6627 -1.4387  4.6539
  798SOL    HW2 2394   1.951   0.313   1.562 -1.2354 -3.3869  1.8192
  799SOL     OW 2395   2.373   0.208   1.577  0.1395 -0.1655 -0.1336
  799SOL    HW1 2396   2.309   0.130   1.611 -3.1355 -4.3215  1.6772
  799SOL    HW2 2397   2.338   0.246   1.483 -2.3645  2.4455 -5.4465
  800SOL     OW 2398   2.245   2.476   2.474  0.2427  0.2754 -0.3508
  800SOL    HW1 2399   2.319   2.435   2.540  3.6700 -1.9051  2.8564
  800SOL    HW2 2400   2.149   2.451   2.514 -5.1235 -0.4654  1.9047
  801SOL     OW 2401   2.722   1.691   0.405  0.7397 -0.2208  0.0459
  801SOL    HW1 2402   2.712   1.735   0.308 -0.6611  2.7477 -5.7306
  801SOL    HW2 2403   2.657   1.741   0.474 -3.1850  3.1720  3.7372
  802SOL     OW 2404   1.974   0.486   2.112 -0.0137  0.1305  0.2721
  802SOL    HW1 2405   1.937   0.486   2.011 -1.7927  0.1264 -5.6159
  802SOL    HW2 2406   2.055   0.555   2.123  4.4189  3.9588  0.9225
  803SOL     OW 2407   2.426   2.216   0.527 -0.1910 -0.3035 -0.0430
  803SOL    HW1 2408   2.352   2.169   0.591 -4.2221 -2.8287  3.5299
  803SOL    HW2 2409   2.523   2.217   0.576  5.3620  0.0037  2.7022
  804SOL     OW 2410   2.586   0.094   0.493  0.5448 -0.5268 -0.2927
  804SOL    HW1 2411   2.599   0.156   0.580  0.7711  2.2140  3.1367
  804SOL    HW2 2412   2.480   0.076   0.478 -5.4113 -0.9760 -1.0289
  805SOL     OW 2413   2.695   1.644   2.714 -0.3952  0.5550  0.2287
  805SOL    HW1 2414   2.788   1.629   2.763  4.6054 -0.4177  2.7817
  805SOL    HW2 2415   2.710   1.647   2.608  1.0417  0.9436 -6.2704
  806SOL     OW 2416   2.404   0.910   2.190  0.3984 -0.6299 -0.5484
  806SOL    HW1 2417   2.350   1.002   2.168 -2.2533  4.3689 -1.1633
  806SOL    HW2 2418   2.378   0.887   2.291 -0.6682 -1.7115  3.7814
  807SOL     OW 2419   0.176   0.140   1.783  0.0613  0.1298  0.1699
  807SOL    HW1 2420   0.272   0.093   1.777  6.0833 -2.9685  0.0256
  807SOL    HW2 2421   0.134   0.149   1.685 -2.2881  0.4221 -5.3695
  808SOL     OW 2422   2.048   0.585   0.660  0.5076  0.2924  0.0114
  808SOL    HW1 2423   2.010   0.567   0.759 -1.5267 -0.8150  5.6558
  808SOL    HW2 2424   1.973   0.563   0.586 -4.2018 -0.1343 -4.2121
  809SOL     OW 2425   2.589   1.297   1.579 -0.0477  0.3875 -0.0054
  809SOL    HW1 2426   2.568   1.238   1.489 -0.2780 -3.1129 -6.1661
  809SOL    HW2 2427   2.513   1.277   1.651 -3.2637 -0.2390  4.1740
  810SOL     OW 2428   0.818   0.678   1.185 -0.2311  0.1754  0.4136
  810SOL    HW1 2429   0.919   0.650   1.213  4.6721 -1.8467  2.2549
  810SOL    HW2 2430   0.751   0.608   1.232 -1.7839 -2.9090  2.7125
  811SOL     OW 2431   0.285   2.495   1.257  0.0505  0.2245 -0.0557
  811SOL    HW1 2432   0.182   2.515   1.273 -5.4905  1.3865  0.7629
  811SOL    HW2 2433   0.304   2.394   1.289  1.7293 -5.8099  0.8743
  812SOL     OW 2434   2.403   0.338   1.805  0.4468  0.0062  0.1275
  812SOL    HW1 2435   2.341   0.302   1.885 -3.0188 -2.8029  3.2560
  812SOL    HW2 2436   2.385   0.276   1.718 -1.9739 -4.5635 -4.7965
  813SOL     OW 2437   1.875   2.684   2.230 -0.9001  0.1938  0.0130
  813SOL    HW1 2438   1.928   2.778   2.235  2.9592  4.6954 -0.3133
  813SOL    HW2 2439   1.940   2.614   2.181  3.6978 -4.0207 -3.4130
  814SOL     OW 2440   2.820   1.153   1.686 -0.0694  0.3013 -0.2111
  814SOL    HW1 2441   2.751   1.210   1.747 -3.0530  2.1546  3.4866
  814SOL    HW2 2442   2.893   1.108   1.750  3.3954 -1.4462  3.3941
  815SOL     OW 2443   2.477   1.015   0.070 -0.4577  0.4610  0.6416
  815SOL    HW1 2444   2.502   0.974  -0.028  1.1786 -1.9018 -5.0970
  815SOL    HW2 2445   2.472   0.936   0.142 -0.3569 -3.5899  3.6582
  816SOL     OW 2446   2.635   0.344   1.926  0.3896 -0.0808 -0.2552
  816SOL    HW1 2447   2.543   0.340   1.873 -5.9997 -0.8640 -2.3864
  816SOL    HW2 2448   2.615   0.317   2.029 -2.2921 -1.7074  5.1763
  817SOL     OW 2449   0.113   0.989   1.872  0.2675  0.0926 -0.3804
  817SOL    HW1 2450   0.089   1.032   1.967 -2.3466  2.5101  6.8265
  817SOL    HW2 2451   0.069   0.892   1.868 -2.7844 -5.8115  0.3539
  818SOL     OW 2452   1.759   0.661   0.013 -0.0659 -0.0715  0.1328
  818SOL    HW1 2453   1.679   0.632  -0.053 -0.9010  0.4792 -3.9175
  818SOL    HW2 2454   1.822   0.733  -0.037  0.4214  2.1355 -2.9301
  819SOL     OW 2455   2.794   0.402   1.563  0.2266  0.0737 -0.1514
  819SOL    HW1 2456   2.751   0.487   1.515 -2.7271  5.0939 -3.0337
  819SOL    HW2 2457   2.719   0.329   1.584 -4.3133 -4.3819  0.9245
  820SOL     OW 2458   2.152   1.505   1.984  0.4343 -0.0858  0.3831
  820SOL    HW1 2459   2.115   1.462   1.894 -1.7167 -3.1453 -4.4654
  820SOL    HW2 2460   2.182   1.605   1.965  1.9748  5.5837 -0.6579
  821SOL     OW 2461   0.251   1.839   1.444  0.1772 -0.4580  0.5099
  821SOL    HW1 2462   0.186   1.917   1.478 -3.9064  4.2954  2.1992
  821SOL    HW2 2463   0.198   1.782   1.371 -2.9693 -3.5650 -3.5990
  822SOL     OW 2464   2.517   2.606   0.863  0.1721 -0.7437 -0.3715
  822SOL    HW1 2465   2.452   2.690   0.866 -3.9707  5.7514  1.0889
  822SOL    HW2 2466   2.565   2.599   0.957  2.0811 -0.3218  5.6660
  823SOL     OW 2467   2.171   0.750   1.752  0.1669  0.0664  0.2160
  823SOL    HW1 2468   2.069   0.716   1.763 -5.7422 -2.2403  0.6918
  823SOL    HW2 2469   2.229   0.664   1.724  2.5812 -4.9934 -1.5712
  824SOL     OW 2470   2.642   1.809   1.962 -0.3463  0.0629  0.3016
  824SOL    HW1 2471   2.666   1.913   1.954  0.7254  4.4345 -0.2532
  824SOL    HW2 2472   2.727   1.748   1.931  3.5950 -3.3154 -1.3817
  825SOL     OW 2473   2.171   0.060   0.685  0.1847  0.2549 -0.1781
  825SOL    HW1 2474   2.107  -0.025   0.704 -3.3204 -5.1057  0.7796
  825SOL    HW2 2475   2.122   0.152   0.707 -2.6940  4.8233  1.4615
  826SOL     OW 2476   0.626   2.481   0.278  0.7526  0.1745  0.2316
  826SOL    HW1 2477   0.611   2.410   0.198 -0.5609 -1.9689 -3.9974
  826SOL    HW2 2478   0.580   2.572   0.240 -2.2408  3.6219 -2.9955
  827SOL     OW 2479   1.812   1.164   2.289  0.0729  0.4787 -0.0299
  827SOL    HW1 2480   1.780   1.068   2.322 -1.8111 -5.7346  2.3093
  827SOL    HW2 2481   1.803   1.174   2.183 -0.7068  0.7831 -5.5758
  828SOL     OW 2482   0.132   0.072   0.836 -0.5448  0.1871  0.0845
  828SOL    HW1 2483   0.212   0.133   0.796  4.8135  2.5463 -3.1485
  828SOL    HW2 2484   0.157  -0.032   0.825  2.1516 -5.8275 -1.4831
  829SOL     OW 2485   2.151   0.159   0.975 -0.0735  0.2259  0.0890
  829SOL    HW1 2486   2.200   0.106   1.054  1.6539 -3.2441  4.4378
  829SOL    HW2 2487   2.224   0.218   0.918  4.0586  3.6880 -4.1605
  830SOL     OW 2488   0.491   2.105   0.817 -0.2596 -0.1391  0.4750
  830SOL    HW1 2489   0.593   2.076   0.808  4.3700 -2.0540  0.7033
  830SOL    HW2 2490   0.454   2.162   0.733 -2.2303  2.7716 -3.8641
  831SOL     OW 2491   1.387   0.576   0.969 -0.1062 -0.0713  0.5416
  831SOL    HW1 2492   1.407   0.476   0.931  0.4732 -3.3256 -4.4774
  831SOL    HW2 2493   1.367   0.637   0.882 -0.5305 -0.1833 -5.5505
  832SOL     OW 2494   1.867   2.527   1.245  0.4718  0.0009 -0.3264
  832SOL    HW1 2495   1.773   2.575   1.268 -4.4934  1.7387  0.4319
  832SOL    HW2 2496   1.846   2.424   1.222 -0.9382 -4.7146 -1.3801
  833SOL     OW 2497   1.999   2.756   1.219 -0.0275  0.3789 -0.2520
  833SOL    HW1 2498   2.030   2.797   1.313  2.0062  2.9136  5.2944
  833SOL    HW2 2499   1.950   2.661   1.236 -2.2532 -4.9419  0.7271
  834SOL     OW 2500   1.329   2.431   0.229 -0.2829  0.2519  0.3501
  834SOL    HW1 2501   1.372   2.427   0.132  2.0004  0.7037 -3.7151
  834SOL    HW2 2502   1.363   2.521   0.277  1.3583  4.5304  2.4360
  835SOL     OW 2503   2.033   2.675   0.686  0.4316  0.0277  0.5142
  835SOL    HW1 2504   2.084   2.604   0.621  2.2392 -3.4471 -2.8186
  835SOL    HW2 2505   1.947   2.624   0.721 -2.5879 -2.1337  2.4552
  836SOL     OW 2506   1.709   2.079   1.138  0.5006 -0.2832 -0.2894
  836SOL    HW1 2507   1.617   2.037   1.173 -4.6692 -2.6181  1.5834
  836SOL    HW2 2508   1.756   2.136   1.217  2.8773  2.8141  4.7113
  837SOL     OW 2509   2.772   2.808   1.021  0.5434 -0.3781  0.7208
  837SOL    HW1 2510   2.691   2.880   1.026 -3.9415  3.1870 -0.0461
  837SOL    HW2 2511   2.780   2.777   0.918  0.1228 -1.5693 -5.7079
  838SOL     OW 2512   1.758   1.706   0.673  0.3358 -0.0902  0.6669
  838SOL    HW1 2513   1.841   1.658   0.621  4.6193 -0.6026 -2.2388
  838SOL    HW2 2514   1.776   1.812   0.667  3.0981  3.3660 -1.0582
  839SOL     OW 2515   0.939   2.417   0.866 -0.3148 -1.0447 -0.3797
  839SOL    HW1 2516   0.962   2.452   0.967  1.3109  1.7677  5.5118
  839SOL    HW2 2517   1.012   2.454   0.801  2.1057  0.4041 -3.2804
  840SOL     OW 2518   2.525   2.086   1.274  0.4169 -0.2193  0.0791
  840SOL    HW1 2519   2.421   2.115   1.274 -4.3440  2.0177 -0.4002
  840SOL    HW2 2520   2.577   2.169   1.228  2.6236  4.1790 -2.5995
  841SOL     OW 2521   1.181   2.762   0.841 -0.0719  0.3683 -0.2422
  841SOL    HW1 2522   1.189   2.659   0.813  0.4149 -4.9026 -1.7018
  841SOL    HW2 2523   1.244   2.821   0.778  2.9264  3.3649 -3.0629
  842SOL     OW 2524   2.555   2.166   1.581 -0.2536  0.3108  0.7392
  842SOL    HW1 2525   2.559   2.062   1.553  0.1943 -5.4041 -1.4357
  842SOL    HW2 2526   2.486   2.213   1.514 -4.2244  2.3565 -3.3260
  843SOL     OW 2527   0.346   2.005   1.241 -0.7741 -0.1612 -0.2159
  843SOL    HW1 2528   0.307   1.940   1.316 -2.2466 -3.7865  3.4638
  843SOL    HW2 2529   0.454   2.002   1.248  5.6265 -0.2172  0.4368
  844SOL     OW 2530   2.626   2.462   1.347  0.1751 -0.3543 -0.2631
  844SOL    HW1 2531   2.663   2.534   1.416  1.4377  3.3011  4.0376
  844SOL    HW2 2532   2.539   2.415   1.391 -4.7199 -2.5614  2.2382
  845SOL     OW 2533   2.327   1.958   2.811 -0.6534 -0.0415  0.4761
  845SOL    HW1 2534   2.358   2.008   2.721  1.2537  3.4299 -5.0092
  845SOL    HW2 2535   2.361   1.858   2.810  1.3317 -5.3860  0.8915
  846SOL     OW 2536   0.881   0.362   0.278 -0.2161  0.3947 -0.9440
  846SOL    HW1 2537   0.952   0.405   0.350  4.6554  2.9388  3.7630
  846SOL    HW2 2538   0.794   0.331   0.327 -4.7563 -1.3229  1.1659
  847SOL     OW 2539   2.440   2.077   2.594  0.4381  0.2241  0.6948
  847SOL    HW1 2540   2.535   2.038   2.562  3.7667 -2.0561 -1.9761
  847SOL    HW2 2541   2.373   2.031   2.524 -1.9082 -3.3340 -4.3235
  848SOL     OW 2542   1.392   2.362   0.586  0.6665  0.3140  0.5292
  848SOL    HW1 2543   1.285   2.360   0.563 -5.1326 -0.1151 -0.9664
  848SOL    HW2 2544   1.439   2.290   0.523  2.7455 -2.2362 -0.9132
  849SOL     OW 2545   2.401   2.661   2.690  0.1495  0.3301 -0.2683
  849SOL    HW1 2546   2.415   2.555   2.682  1.6216 -5.4880 -0.5943
  849SOL    HW2 2547   2.429   2.699   2.786  1.7211  2.4811  5.2260
  850SOL     OW 2548   1.477   2.513   1.152  0.4166 -0.3854 -0.6403
  850SOL    HW1 2549   1.387   2.554   1.112 -5.2714  1.1573 -2.6902
  850SOL    HW2 2550   1.452   2.412   1.178 -1.9243 -5.7362  0.7006
  851SOL     OW 2551   2.108   2.219   2.719  0.4588  0.1677 -1.3387
  851SOL    HW1 2552   2.047   2.139   2.756 -3.2415 -4.5128  1.4708
  851SOL    HW2 2553   2.202   2.218   2.767  6.0245  0.2754  1.5156
  852SOL     OW 2554   0.257   2.803   2.404 -0.5371 -0.7170 -0.0208
  852SOL    HW1 2555   0.263   2.910   2.403 -0.0003  5.1705  0.1948
  852SOL    HW2 2556   0.291   2.770   2.500  1.1918 -1.9782  4.0563
  853SOL     OW 2557   2.347   1.817   0.916  0.1178  0.0535 -0.4667
  853SOL    HW1 2558   2.390   1.828   1.014  2.3639  0.5422  5.6664
  853SOL    HW2 2559   2.242   1.798   0.920 -5.8086 -1.1530 -0.5674
  854SOL     OW 2560   1.802   2.309   1.023  0.4155  0.0098  0.1763
  854SOL    HW1 2561   1.737   2.394   1.014 -3.8684  5.0610 -0.7183
  854SOL    HW2 2562   1.754   2.230   1.076 -3.0876 -4.0459  3.7038
  855SOL     OW 2563   2.216   2.799   0.216 -0.4283  0.3325 -0.0681
  855SOL    HW1 2564   2.308   2.813   0.161  5.0790  1.2551 -2.5599
  855SOL    HW2 2565   2.234   2.850   0.308  0.7919  3.0862  4.6503
  856SOL     OW 2566   1.837   1.783   0.034  0.4522  0.2921  0.4423
  856SOL    HW1 2567   1.812   1.729   0.124 -1.3575 -3.2450  4.8152
  856SOL    HW2 2568   1.775   1.742  -0.044 -3.4814 -2.7738 -3.4446
  857SOL     OW 2569   2.384   1.595   0.196 -0.2037  0.0049  0.1614
  857SOL    HW1 2570   2.298   1.626   0.252 -4.0368  1.0566  2.1378
  857SOL    HW2 2571   2.450   1.541   0.263  4.1052 -2.6895  3.1549
  858SOL     OW 2572   0.211   2.648   0.834 -0.1345 -0.1130 -0.1420
  858SOL    HW1 2573   0.286   2.687   0.766  4.5187  0.8828 -4.3527
  858SOL    HW2 2574   0.214   2.541   0.831  1.2815 -6.2112 -1.4804
  859SOL     OW 2575   0.918   0.168   0.580 -0.2386  0.2966 -0.1620
  859SOL    HW1 2576   0.981   0.096   0.536  2.9562 -4.0380 -1.6799
  859SOL    HW2 2577   0.856   0.117   0.652 -3.6726 -4.0653  3.9716
  860SOL     OW 2578   2.186   2.661   2.301  0.3878  0.6768 -0.6878
  860SOL    HW1 2579   2.218   2.580   2.367  2.6490 -5.2600  3.6422
  860SOL    HW2 2580   2.144   2.614   2.216 -1.1726 -2.4648 -4.0401
  861SOL     OW 2581   1.398   1.460   1.204  0.7806 -0.2577  0.2102
  861SOL    HW1 2582   1.321   1.385   1.216 -3.6853 -4.9305  0.0932
  861SOL    HW2 2583   1.398   1.488   1.099  0.2695  0.8745 -6.0345
  862SOL     OW 2584   1.846   1.349   0.357  0.6169  0.1490 -0.1896
  862SOL    HW1 2585   1.813   1.289   0.439 -2.2560 -2.8567  2.1834
  862SOL    HW2 2586   1.784   1.324   0.272 -3.3588 -2.0448 -2.8409
  863SOL     OW 2587   2.004   2.026   0.814 -0.2901 -0.1374  0.2754
  863SOL    HW1 2588   2.038   2.112   0.872  1.1260  5.4883  2.4804
  863SOL    HW2 2589   1.931   2.059   0.743 -3.9202  2.7206 -2.1263
  864SOL     OW 2590   2.800   2.031   0.499  0.1059 -0.5432 -0.5365
  864SOL    HW1 2591   2.740   2.005   0.585 -2.5469 -2.0430  4.8570
  864SOL    HW2 2592   2.897   1.990   0.516  4.1631 -2.6412  0.5710
  865SOL     OW 2593   2.414   2.388   2.666 -0.2459  0.3283 -0.4223
  865SOL    HW1 2594   2.372   2.323   2.742 -2.2495 -3.9261  3.7123
  865SOL    HW2 2595   2.518   2.362   2.652  5.3325 -1.5239 -0.5659
  866SOL     OW 2596   2.382   2.634   0.449  0.0423  0.6286 -0.2323
  866SOL    HW1 2597   2.284   2.593   0.457 -5.2623 -1.8852  0.8453
  866SOL    HW2 2598   2.449   2.583   0.515  3.9923 -2.9169  3.9617
  867SOL     OW 2599   2.320   1.420   2.341 -0.1123 -0.0235 -0.0960
  867SOL    HW1 2600   2.218   1.445   2.366 -5.7129  1.0532  1.6934
  867SOL    HW2 2601   2.349   1.344   2.410  0.8722 -4.4789  4.0225
  868SOL     OW 2602   2.320   0.049   0.461  0.3792  0.5208 -0.2829
  868SOL    HW1 2603   2.346  -0.055   0.460  1.2514 -5.6529  0.2534
  868SOL    HW2 2604   2.262   0.062   0.551 -2.8910  1.1824  4.9396
  869SOL     OW 2605   2.002   2.345   0.699 -0.3354 -0.2551 -0.0873
  869SOL    HW1 2606   2.110   2.340   0.687  4.0723  0.7269  0.6040
  869SOL    HW2 2607   1.987   2.399   0.792  0.9300  2.1623  4.0462
  870SOL     OW 2608   2.068   0.314   0.674  0.2722  0.1935 -0.1983
  870SOL    HW1 2609   2.068   0.420   0.658 -0.4973  5.8995 -0.6968
  870SOL    HW2 2610   1.976   0.281   0.721 -5.3686 -0.5478  2.3952
  871SOL     OW 2611   0.833   2.247   0.162 -0.7291  0.4553  0.5399
  871SOL    HW1 2612   0.819   2.305   0.071 -1.1953  3.2961 -3.7332
  871SOL    HW2 2613   0.926   2.276   0.206  3.9996  1.6888  1.5209
  872SOL     OW 2614   2.259   2.659   1.399  0.0032  0.1611  0.1662
  872SOL    HW1 2615   2.191   2.578   1.417 -3.3070 -3.2582  2.0027
  872SOL    HW2 2616   2.309   2.653   1.303  3.3382  0.6122 -5.1246
  873SOL     OW 2617   2.246   2.124   1.252  0.3464 -0.3826  0.1118
  873SOL    HW1 2618   2.253   2.226   1.219 -0.1567  4.9036 -2.1411
  873SOL    HW2 2619   2.155   2.088   1.207 -5.4390 -1.8534 -3.1758
  874SOL     OW 2620   0.036   2.436   1.055  0.5388  0.3028 -0.0851
  874SOL    HW1 2621   0.060   2.348   1.113  2.3721 -4.1759  4.2338
  874SOL    HW2 2622   0.021   2.517   1.125 -0.5329  3.9687  3.6262
  875SOL     OW 2623   2.212   2.241   1.843  0.0771  0.2291 -0.1928
  875SOL    HW1 2624   2.175   2.190   1.928 -1.5304 -1.8224  3.3571
  875SOL    HW2 2625   2.253   2.172   1.769  2.9446 -3.6507 -4.4283
  876SOL     OW 2626   2.203   1.619   0.712 -0.2537 -0.3228 -0.2807
  876SOL    HW1 2627   2.165   1.699   0.772 -2.4100  4.1224  2.9290
  876SOL    HW2 2628   2.245   1.657   0.620  2.2221  1.9789 -5.1910
  877SOL     OW 2629   0.399   2.004   0.050 -0.5132  0.3763 -0.0711
  877SOL    HW1 2630   0.429   1.900   0.047  2.0450 -5.5654 -0.2138
  877SOL    HW2 2631   0.434   2.048   0.141  0.9703  3.1325  5.1866
  878SOL     OW 2632   1.431   0.313   0.934 -0.4409  0.0145 -0.1258
  878SOL    HW1 2633   1.460   0.233   0.868  1.3137 -4.3872 -3.5572
  878SOL    HW2 2634   1.437   0.278   1.036  0.6833 -2.5257  5.3179
  879SOL     OW 2635   1.150   0.229   0.703  0.2497 -0.5096 -0.1443
  879SOL    HW1 2636   1.148   0.298   0.784 -0.3731  3.7887  4.3243
  879SOL    HW2 2637   1.052   0.225   0.659 -5.5610 -0.9310 -2.5826
  880SOL     OW 2638   2.702   0.205   0.280  0.6837  0.0276 -0.0526
  880SOL    HW1 2639   2.646   0.174   0.368 -2.9183 -1.2358  5.2836
  880SOL    HW2 2640   2.641   0.262   0.215 -3.4116  3.5164 -2.9258
  881SOL     OW 2641   1.852   2.572   0.374 -0.5893 -0.2221 -0.1734
  881SOL    HW1 2642   1.918   2.652   0.396  3.8017  2.7669  1.0063
  881SOL    HW2 2643   1.907   2.480   0.353  3.4126 -4.3973 -1.4478
  882SOL     OW 2644   2.727   2.074   1.937 -0.2395 -0.4321 -0.0072
  882SOL    HW1 2645   2.802   2.137   1.981  5.0312  3.8697  2.7560
  882SOL    HW2 2646   2.648   2.135   1.897 -4.6284  3.0021 -2.4725
  883SOL     OW 2647   1.393   0.064   0.313 -0.0650 -0.3642 -0.0907
  883SOL    HW1 2648   1.454   0.129   0.375  0.9816  3.6495  1.7559
  883SOL    HW2 2649   1.330   0.133   0.262 -1.7983  3.7604 -0.3769
  884SOL     OW 2650   1.806   1.898   0.400 -0.0205  0.0936  0.3922
  884SOL    HW1 2651   1.892   1.892   0.465  5.8348  0.0502  3.6750
  884SOL    HW2 2652   1.818   1.975   0.327  1.4756  4.6614 -3.8611
  885SOL     OW 2653   2.295   2.071   1.658  0.1941  0.2212  0.1926
  885SOL    HW1 2654   2.254   2.051   1.560 -1.8294 -0.9372 -4.7011
  885SOL    HW2 2655   2.362   1.991   1.684  3.6922 -4.2763  1.9778
  886SOL     OW 2656   2.196   1.784   1.189 -0.1776 -0.3964  0.1431
  886SOL    HW1 2657   2.130   1.862   1.156 -3.5934  3.6150 -1.5910
  886SOL    HW2 2658   2.298   1.817   1.183  5.9309  1.7847 -0.0566
  887SOL     OW 2659   2.676   1.797   0.164  0.0830 -0.3613 -0.1967
  887SOL    HW1 2660   2.590   1.756   0.117 -3.6797 -3.6150 -2.5898
  887SOL    HW2 2661   2.654   1.897   0.201 -0.0422  5.1693  2.4759
  888SOL     OW 2662   1.564   0.130   1.754  0.1386  0.5517 -0.5884
  888SOL    HW1 2663   1.592   0.028   1.740  1.8726 -4.9659 -1.7234
  888SOL    HW2 2664   1.464   0.134   1.794 -6.0897  1.0953  2.1856
  889SOL     OW 2665   1.821   2.088   0.208  0.0321 -0.2897  0.2975
  889SOL    HW1 2666   1.731   2.145   0.227 -4.6434  2.9160  0.5404
  889SOL    HW2 2667   1.844   2.105   0.104  0.1615  1.3456 -3.4362
  890SOL     OW 2668   0.070   1.831   2.714  0.0105  0.1693 -0.4966
  890SOL    HW1 2669  -0.031   1.862   2.737 -5.2993  1.4381  1.2842
  890SOL    HW2 2670   0.086   1.735   2.760  0.7148 -5.7044  2.4702
  891SOL     OW 2671   2.001   2.464   0.933 -0.1774  0.2589 -0.6688
  891SOL    HW1 2672   2.027   2.565   0.962  1.0878  6.1138  1.5129
  891SOL    HW2 2673   1.924   2.433   1.001 -3.9823 -1.0127  2.8394
  892SOL     OW 2674   1.163   2.088   0.919 -0.2353  0.5716  0.1868
  892SOL    HW1 2675   1.261   2.074   0.876  4.3437 -0.6352 -2.8010
  892SOL    HW2 2676   1.098   2.029   0.856 -3.1353 -3.5131 -3.8272
  893SOL     OW 2677   2.404   2.325   1.412  0.0079 -0.4138 -0.5540
  893SOL    HW1 2678   2.362   2.350   1.508 -2.2488  1.3683  5.8719
  893SOL    HW2 2679   2.338   2.353   1.333 -3.4464  1.4701 -4.8900
  894SOL     OW 2680   2.579   2.316   0.323  0.4224 -0.4424  0.1180
  894SOL    HW1 2681   2.495   2.298   0.387 -4.2420 -0.8735  2.7659
  894SOL    HW2 2682   2.548   2.359   0.228 -1.9191  1.6718 -5.1641
  895SOL     OW 2683   1.482   1.696   0.016  0.4251  0.1362 -0.3933
  895SOL    HW1 2684   1.450   1.635   0.098 -1.3753 -2.9935  3.7581
  895SOL    HW2 2685   1.403   1.696  -0.058 -3.6144  0.0492 -4.0682
  896SOL     OW 2686   2.291   0.028   1.767 -0.0346  0.1784  0.1747
  896SOL    HW1 2687   2.395   0.001   1.783  6.1132 -1.4648  0.9164
  896SOL    HW2 2688   2.237   0.000   1.855 -2.7368 -0.8868  4.7712
  897SOL     OW 2689   0.158   1.938   2.168  0.4068  0.2066 -0.7542
  897SOL    HW1 2690   0.075   1.871   2.195 -5.7245 -4.1615  1.3565
  897SOL    HW2 2691   0.161   2.018   2.238  0.3033  3.9550  2.9289
  898SOL     OW 2692   1.240   0.280   1.598  0.5455 -0.2424  0.5996
  898SOL    HW1 2693   1.151   0.223   1.623 -4.5248 -1.5465  0.9636
  898SOL    HW2 2694   1.209   0.383   1.586 -2.0457  4.0058  0.3977
  899SOL     OW 2695   2.485   2.783   1.501 -0.1160  0.7421  0.0963
  899SOL    HW1 2696   2.393   2.737   1.469 -4.7717 -2.0820 -2.1403
  899SOL    HW2 2697   2.485   2.790   1.608  0.0365  0.9126  5.0651
  900SOL     OW 2698   1.714   2.321   0.498 -0.3223  0.3427 -0.5053
  900SOL    HW1 2699   1.687   2.316   0.603 -1.4573 -0.1510  4.4128
  900SOL    HW2 2700   1.810   2.275   0.485  2.8413 -1.1392 -1.1534
  901SOL     OW 2701   2.078   0.226   1.276 -0.0900 -0.2011 -0.3021
  901SOL    HW1 2702   2.066   0.155   1.358 -1.2422 -2.2304  4.2528
  901SOL    HW2 2703   2.007   0.302   1.300 -3.6858  2.2724  2.1483
  902SOL     OW 2704   2.233   2.405   1.216 -0.3303 -0.4821 -0.3002
  902SOL    HW1 2705   2.270   2.496   1.174  0.3158  5.0410 -1.5184
  902SOL    HW2 2706   2.156   2.430   1.288 -4.4541  2.4128  3.2994
  903SOL     OW 2707   2.533   2.516   1.786 -0.2370  0.5029 -0.4758
  903SOL    HW1 2708   2.460   2.459   1.732 -4.5423 -2.2814 -3.3188
  903SOL    HW2 2709   2.629   2.467   1.786  5.6071 -1.7350  0.0950
  904SOL     OW 2710   1.910   2.141   0.567 -0.5076  0.0510 -0.3194
  904SOL    HW1 2711   1.951   2.226   0.619  3.1466  6.4541  3.6505
  904SOL    HW2 2712   1.975   2.116   0.488  4.0088 -1.0189 -4.6813
  905SOL     OW 2713   1.919   0.719   1.013  0.0528  0.3501  0.5603
  905SOL    HW1 2714   1.815   0.746   1.026 -5.9330  1.9829  1.0136
  905SOL    HW2 2715   1.929   0.621   0.969  0.0282 -5.5042 -2.3317
  906SOL     OW 2716   0.591   2.250   1.489  0.3817  0.1475 -0.7493
  906SOL    HW1 2717   0.591   2.345   1.541 -0.6153  4.8838  1.6079
  906SOL    HW2 2718   0.636   2.173   1.549  3.3162 -3.5643  2.3593
  907SOL     OW 2719   1.654   0.786   1.037  0.1621  0.3333 -0.3607
  907SOL    HW1 2720   1.581   0.743   1.105 -4.1909 -1.9243  2.8951
  907SOL    HW2 2721   1.618   0.773   0.938 -2.1081 -0.8904 -4.1736
  908SOL     OW 2722   2.434   2.460   2.073  0.6759 -0.0110 -0.2786
  908SOL    HW1 2723   2.398   2.370   2.123 -1.6791 -4.2242  1.7181
  908SOL    HW2 2724   2.369   2.476   1.988 -2.4190  0.2082 -2.7699
  909SOL     OW 2725   1.848   0.199   0.781  0.3003  0.5530 -0.3454
  909SOL    HW1 2726   1.819   0.098   0.765 -0.6045 -4.4785  0.5471
  909SOL    HW2 2727   1.863   0.211   0.887  0.9389 -0.2426  5.5873
  910SOL     OW 2728   2.117   2.216   0.964 -0.4002 -0.0817  0.0294
  910SOL    HW1 2729   2.221   2.219   0.992  4.7444  0.3480  1.3242
  910SOL    HW2 2730   2.080   2.317   0.957 -2.5270  5.3232 -0.0945
  911SOL     OW 2731   1.688   2.544   0.981  0.1222 -0.2816 -0.5559
  911SOL    HW1 2732   1.742   2.636   0.997  2.4397  4.5047  0.5098
  911SOL    HW2 2733   1.595   2.549   1.037 -4.3481  0.1995  2.3625
  912SOL     OW 2734   0.210   1.961   0.626  0.6676  0.0100  0.3474
  912SOL    HW1 2735   0.243   1.948   0.526  2.7167 -0.7602 -4.9134
  912SOL    HW2 2736   0.197   1.867   0.676 -0.5911 -5.2216  2.8844
  913SOL     OW 2737   2.368   1.026   0.776  0.5980  0.1436  0.0439
  913SOL    HW1 2738   2.315   1.010   0.686 -2.5872 -1.2089 -4.1467
  913SOL    HW2 2739   2.338   0.946   0.842 -2.6188 -5.4377  4.2962
  914SOL     OW 2740   1.060   1.484   1.931  0.0267 -0.9898 -0.4641
  914SOL    HW1 2741   1.052   1.467   2.037 -0.3893 -1.9055  4.5150
  914SOL    HW2 2742   1.099   1.585   1.920  2.2309  4.3405 -1.2692
  915SOL     OW 2743   1.974   2.805   0.451 -0.1237 -0.7022  0.1248
  915SOL    HW1 2744   2.019   2.902   0.440  2.9406  6.5576 -0.0843
  915SOL    HW2 2745   2.003   2.765   0.546  2.2519 -2.6925  5.7876
  916SOL     OW 2746   1.396   2.054   2.103  0.3712 -0.7811  0.3480
  916SOL    HW1 2747   1.422   2.150   2.067  2.1134  4.0445 -1.8677
  916SOL    HW2 2748   1.301   2.061   2.156 -5.5159 -0.7121  3.7770
  917SOL     OW 2749   1.866   2.130   2.335 -0.1996  0.5836  0.4222
  917SOL    HW1 2750   1.867   2.056   2.415  0.4056 -4.0931  5.4742
  917SOL    HW2 2751   1.772   2.128   2.283 -5.4674  0.7010 -3.1002
  918SOL     OW 2752   2.610   1.419   2.818  0.3075 -0.1390 -0.0162
  918SOL    HW1 2753   2.508   1.399   2.791 -5.6377 -1.4481 -1.5994
  918SOL    HW2 2754   2.641   1.512   2.775  1.8572  5.4322 -2.3640
  919SOL     OW 2755   0.638   2.248   2.277  0.2033 -0.5995 -0.3454
  919SOL    HW1 2756   0.650   2.352   2.254  0.4176  4.8701 -1.7606
  919SOL    HW2 2757   0.542   2.217   2.244 -4.9700 -1.6241 -1.9079
  920SOL     OW 2758   1.979   2.011   2.828  0.2481  0.5698 -0.2905
  920SOL    HW1 2759   2.067   1.967   2.870  2.6590 -1.0387  0.9521
  920SOL    HW2 2760   1.900   1.935   2.834 -3.5740 -2.9458  0.1595
  921SOL     OW 2761   1.983   1.702   2.496 -0.4934  0.0441  0.1549
  921SOL    HW1 2762   2.063   1.755   2.546  4.5278  3.5848  1.7972
  921SOL    HW2 2763   1.995   1.726   2.392  1.3368  2.0784 -6.6555
  922SOL     OW 2764   2.038   2.411   0.064  0.5825 -0.1884  0.0788
  922SOL    HW1 2765   2.067   2.344  -0.013  2.4721 -4.0086 -4.5378
  922SOL    HW2 2766   1.941   2.451   0.046 -5.8150  2.6747 -0.9582
  923SOL     OW 2767   2.373   2.647   1.164 -0.0126 -0.1215 -0.0398
  923SOL    HW1 2768   2.340   2.749   1.155 -1.5436  5.9273 -0.3932
  923SOL    HW2 2769   2.478   2.637   1.142  6.3054 -0.3964 -1.0485
  924SOL     OW 2770   1.845   1.195   2.028  0.1520  0.3284 -0.0942
  924SOL    HW1 2771   1.777   1.157   1.953 -2.9127 -2.0598 -4.0219
  924SOL    HW2 2772   1.932   1.132   2.031  4.2024 -2.7384  0.4045
  925SOL     OW 2773   2.038   2.510   2.116 -0.5696  0.4081 -0.3755
  925SOL    HW1 2774   2.092   2.493   2.026  2.4621 -0.8275 -5.5116
  925SOL    HW2 2775   2.042   2.424   2.182 -0.6202 -4.6066  3.4247
  926SOL     OW 2776   0.739   1.498   1.995 -0.2822 -0.3713  0.8063
  926SOL    HW1 2777   0.752   1.401   2.046  0.5700 -4.7868  2.6466
  926SOL    HW2 2778   0.759   1.489   1.891  1.2646 -2.2314 -3.4953
  927SOL     OW 2779   1.936   1.554   0.523 -0.0703  0.6566 -0.2398
  927SOL    HW1 2780   1.976   1.492   0.603  2.3728 -3.5286  4.2331
  927SOL    HW2 2781   1.891   1.493   0.446 -2.1811 -3.1745 -3.6711
  928SOL     OW 2782   2.259   1.447   1.611  0.3743 -0.2382  0.1640
  928SOL    HW1 2783   2.239   1.454   1.506 -1.5629 -0.1136 -4.6434
  928SOL    HW2 2784   2.163   1.443   1.661 -5.4008 -0.2570  2.0442
  929SOL     OW 2785   2.625   2.006   0.705  0.0287 -0.1725 -0.3965
  929SOL    HW1 2786   2.530   2.030   0.746 -4.7851  1.3185  2.2586
  929SOL    HW2 2787   2.698   2.049   0.772  4.3217  2.7167  3.5378
  930SOL     OW 2788   1.229   1.873   1.664  0.4993 -0.3355  0.2546
  930SOL    HW1 2789   1.231   1.910   1.766  0.2983  1.9701  7.0797
  930SOL    HW2 2790   1.147   1.806   1.651 -4.1906 -4.0053 -0.2046
  931SOL     OW 2791   2.265   1.960   2.436  0.7248  0.4929 -0.3224
  931SOL    HW1 2792   2.202   1.985   2.354 -2.6603  2.0793 -5.4556
  931SOL    HW2 2793   2.206   1.921   2.516 -3.5742 -2.1493  4.6665
  932SOL     OW 2794   1.761   2.324   1.746  0.4018  0.0518  0.0259
  932SOL    HW1 2795   1.767   2.227   1.792  0.9041 -5.6744  2.5473
  932SOL    HW2 2796   1.686   2.382   1.795 -3.5717  4.0025  2.6219
  933SOL     OW 2797   2.009   1.750   2.233  0.5106 -0.7280  0.2463
  933SOL    HW1 2798   2.003   1.714   2.132  0.9584 -1.4512 -5.1658
  933SOL    HW2 2799   2.051   1.849   2.230  2.7942  5.3574 -1.2658
  934SOL     OW 2800   2.523   1.577   2.279  0.3443 -0.3766 -0.1481
  934SOL    HW1 2801   2.503   1.674   2.318 -1.0398  6.2119  2.4577
  934SOL    HW2 2802   2.442   1.515   2.308 -4.5173 -3.9738  1.7829
  935SOL     OW 2803   2.085   1.777   0.893  0.2567 -0.1682 -0.1755
  935SOL    HW1 2804   2.038   1.870   0.864 -1.9771  5.3644 -1.6689
  935SOL    HW2 2805   2.011   1.703   0.910 -3.2927 -4.1850  1.1888
  936SOL     OW 2806   2.734   2.219   2.389  0.2805  0.3077  0.1604
  936SOL    HW1 2807   2.635   2.256   2.411 -4.8264  0.9714  0.2228
  936SOL    HW2 2808   2.717   2.154   2.303 -1.8454 -3.0382 -4.5146
  937SOL     OW 2809   2.056   2.311   2.286 -0.2225  0.4828 -0.4183
  937SOL    HW1 2810   1.978   2.234   2.295 -3.8254 -2.5713  1.9897
  937SOL    HW2 2811   2.062   2.359   2.381 -1.1070  1.0532  3.1658
  938SOL     OW 2812   1.573   2.482   1.852 -0.1837 -0.0416 -0.6493
  938SOL    HW1 2813   1.638   2.519   1.931  3.7407  2.1134  4.0411
  938SOL    HW2 2814   1.494   2.426   1.893 -4.5005 -2.0778  1.1959
  939SOL     OW 2815   0.523   1.609   1.801  0.2214 -0.2124  0.4157
  939SOL    HW1 2816   0.518   1.607   1.692  0.9147  0.7229 -5.6184
  939SOL    HW2 2817   0.601   1.681   1.821  3.2756  2.9003 -0.3144
  940SOL     OW 2818   1.507   1.876   0.223  0.2044  0.2235 -0.2159
  940SOL    HW1 2819   1.512   1.803   0.144  0.8959 -4.9230 -4.2319
  940SOL    HW2 2820   1.545   1.831   0.313  3.2796 -2.7311  4.4535
  941SOL     OW 2821   2.467   2.283   2.407  0.0699  0.0208 -0.5314
  941SOL    HW1 2822   2.401   2.278   2.322 -3.7261 -0.1647 -5.0759
  941SOL    HW2 2823   2.436   2.220   2.489 -1.0796 -3.3808  3.9624
  942SOL     OW 2824   2.674   1.957   2.497 -0.0263 -0.0965 -0.1193
  942SOL    HW1 2825   2.737   2.033   2.455  3.1812  2.9960 -0.2402
  942SOL    HW2 2826   2.693   1.957   2.605  2.0687  1.4217  5.7047
  943SOL     OW 2827   0.059   1.414   2.451 -0.0539 -0.1963 -0.0584
  943SOL    HW1 2828   0.093   1.382   2.353  1.9112 -2.1898 -5.4928
  943SOL    HW2 2829   0.049   1.324   2.507 -0.4248 -3.9035  2.1199
  944SOL     OW 2830   2.202   1.759   1.931 -0.3652 -0.2942 -1.0961
  944SOL    HW1 2831   2.173   1.857   1.956 -2.3635  4.1502  0.0010
  944SOL    HW2 2832   2.300   1.740   1.974  6.2123 -1.2608  1.8964
  945SOL     OW 2833   2.049   1.961   1.738  0.0761  0.2029 -0.0197
  945SOL    HW1 2834   2.004   1.885   1.676 -1.2935 -3.8999 -4.1308
  945SOL    HW2 2835   2.142   1.983   1.689  3.9755  0.2440 -2.7530
  946SOL     OW 2836   2.149   2.019   1.988 -0.4865 -0.0698  0.5473
  946SOL    HW1 2837   2.096   2.005   1.896 -3.3872 -0.2724 -5.6634
  946SOL    HW2 2838   2.254   2.015   1.965  5.7661 -0.7109 -1.2657
  947SOL     OW 2839   2.482   2.677   2.225  0.4779 -0.2973  0.2944
  947SOL    HW1 2840   2.471   2.587   2.165 -0.4246 -5.3632 -3.9147
  947SOL    HW2 2841   2.493   2.643   2.325  2.5823 -2.6688  3.7797
  948SOL     OW 2842   1.409   2.353   2.537 -0.1123  0.2306 -0.5744
  948SOL    HW1 2843   1.472   2.266   2.518  3.4822 -4.6865 -0.8293
  948SOL    HW2 2844   1.419   2.380   2.639  1.1752  1.5270  4.7949
  949SOL     OW 2845   0.178   1.850   2.473 -0.0711 -0.2692 -0.4796
  949SOL    HW1 2846   0.154   1.948   2.436 -1.5313  5.3690 -2.4649
  949SOL    HW2 2847   0.124   1.836   2.563 -3.2977 -0.6729  4.3236
  950SOL     OW 2848   2.144   2.511   0.499 -0.0093  0.4074 -0.0967
  950SOL    HW1 2849   2.194   2.458   0.578  2.4121 -3.2697  4.4384
  950SOL    HW2 2850   2.091   2.444   0.434 -2.1564 -4.1709 -3.1795
  951SOL     OW 2851   2.480   1.812   2.385  0.3473 -0.5870  0.4150
  951SOL    HW1 2852   2.567   1.860   2.425  5.2948  2.3004  2.3309
  951SOL    HW2 2853   2.390   1.860   2.415 -4.6208  2.5987  1.7866
  952SOL     OW 2854   0.341   2.496   0.066 -0.3194  0.4205  0.2454
  952SOL    HW1 2855   0.416   2.420   0.078  4.1056 -4.5146  1.0245
  952SOL    HW2 2856   0.249   2.467   0.111 -5.3525 -1.9578  2.5772
  953SOL     OW 2857   2.105   1.758   0.045  0.1467  0.0871  0.2686
  953SOL    HW1 2858   1.998   1.760   0.033 -5.7230  0.4633 -0.7101
  953SOL    HW2 2859   2.143   1.658   0.032  2.2865 -6.2729 -0.5464
  954SOL     OW 2860   0.124   2.464   2.308 -0.1271 -0.5686  0.0165
  954SOL    HW1 2861   0.030   2.443   2.262 -5.1134 -1.6628 -2.1611
  954SOL    HW2 2862   0.177   2.539   2.252  3.0360  3.7451 -2.9801
  955SOL     OW 2863   1.627   0.938   2.797 -0.3886  0.1304 -0.5942
  955SOL    HW1 2864   1.694   0.992   2.730  3.8785  3.2981 -4.6396
  955SOL    HW2 2865   1.682   0.919   2.886  2.6470 -1.5350  5.0063
  956SOL     OW 2866   0.266   2.237   0.323  0.3616  0.4596 -0.1019
  956SOL    HW1 2867   0.173   2.288   0.337 -3.4170  2.2124  0.5444
  956SOL    HW2 2868   0.249   2.132   0.344 -0.7111 -5.2325  1.1127
  957SOL     OW 2869   1.998   2.349   0.323 -0.1540 -0.2699  0.2029
  957SOL    HW1 2870   2.031   2.248   0.340  1.8641 -5.8079  0.3942
  957SOL    HW2 2871   2.016   2.371   0.220  1.3705 -0.1815 -5.2788
  958SOL     OW 2872   1.731   1.319   2.493 -0.3239 -0.2606  0.2738
  958SOL    HW1 2873   1.803   1.363   2.559  3.5055  2.5480  3.8651
  958SOL    HW2 2874   1.775   1.261   2.415  2.3788 -3.2326 -4.3097
  959SOL     OW 2875   0.133   2.103   2.402 -0.0740 -0.3247  0.0039
  959SOL    HW1 2876   0.215   2.166   2.430  3.6942  2.6412  1.4338
  959SOL    HW2 2877   0.044   2.165   2.396 -5.1119  3.5037 -0.4650
  960SOL     OW 2878   1.362   1.789   2.473  0.0485 -0.0030 -0.5770
  960SOL    HW1 2879   1.335   1.714   2.544 -2.9160 -3.6506  3.2078
  960SOL    HW2 2880   1.267   1.833   2.444 -5.0657  1.7533 -0.6765
  961SOL     OW 2881   0.138   1.341   2.206  0.5652 -0.1603  0.0479
  961SOL    HW1 2882   0.044   1.381   2.176 -5.3669  2.2899 -1.9237
  961SOL    HW2 2883   0.212   1.369   2.134  4.9767  1.7418 -3.6509
  962SOL     OW 2884   2.361   2.812   2.477 -0.0087  0.9180  0.1981
  962SOL    HW1 2885   2.368   2.756   2.569  0.1243 -2.8177  5.3356
  962SOL    HW2 2886   2.285   2.768   2.414 -3.0905 -2.0163 -2.8395
  963SOL     OW 2887   2.156   0.751   1.131  0.4034  0.4050 -0.0698
  963SOL    HW1 2888   2.186   0.649   1.146  1.9487 -5.3139  0.6098
  963SOL    HW2 2889   2.053   0.748   1.100 -5.9289  0.0781 -1.5182
  964SOL     OW 2890   1.258   1.513   1.649 -0.3778  0.8680  0.2605
  964SOL    HW1 2891   1.218   1.586   1.581 -3.3738  4.1134 -3.9855
  964SOL    HW2 2892   1.182   1.439   1.663 -5.3414 -3.2702  0.2186
  965SOL     OW 2893   2.390   1.973   0.236 -0.4015  0.1363  0.5399
  965SOL    HW1 2894   2.367   1.955   0.133 -0.5186 -0.5466 -5.6594
  965SOL    HW2 2895   2.494   2.000   0.248  5.6906  1.4262 -0.1131
  966SOL     OW 2896   0.066   0.181   2.217  0.2145  0.0831  0.0137
  966SOL    HW1 2897  -0.019   0.159   2.279 -4.1709 -1.4682  2.6679
  966SOL    HW2 2898   0.149   0.213   2.278  4.1981  0.7935  2.3724
  967SOL     OW 2899   2.206   2.499   1.909  0.1466  0.3981  0.6012
  967SOL    HW1 2900   2.200   2.550   1.814 -0.3434  3.2723 -5.3179
  967SOL    HW2 2901   2.204   2.393   1.890  0.3084 -6.6786 -1.3013
  968SOL     OW 2902   1.349   1.588   0.215  0.6612  0.2385 -0.2145
  968SOL    HW1 2903   1.316   1.488   0.244 -3.3658 -6.0767  1.3302
  968SOL    HW2 2904   1.259   1.639   0.187 -5.3673  1.5847 -1.9031
  969SOL     OW 2905   1.674   2.413   1.497  0.2582  0.2766 -0.2540
  969SOL    HW1 2906   1.726   2.391   1.587  2.6027 -0.6908  4.4356
  969SOL    HW2 2907   1.575   2.373   1.509 -5.4971 -1.8772  0.5947
  970SOL     OW 2908   2.624   1.068   2.060  0.1624  0.0136 -0.0242
  970SOL    HW1 2909   2.622   1.133   1.974  0.3322  3.7181 -5.4555
  970SOL    HW2 2910   2.588   1.119   2.146 -1.6663  1.8921  4.5043
  971SOL     OW 2911   1.824   1.656   0.271  0.3370  0.0257  0.2719
  971SOL    HW1 2912   1.737   1.599   0.303 -5.2100 -3.3116  2.7097
  971SOL    HW2 2913   1.833   1.741   0.333  1.0780  4.1048  3.4034
  972SOL     OW 2914   0.705   2.581   1.839  0.5335 -0.2085  0.5036
  972SOL    HW1 2915   0.598   2.578   1.839 -5.5443 -0.3189  0.1189
  972SOL    HW2 2916   0.740   2.648   1.763  2.0145  3.4463 -4.0378
  973SOL     OW 2917   2.159   1.974   1.454  0.1228  0.2231  0.5137
  973SOL    HW1 2918   2.170   1.868   1.442  2.1247 -4.8945 -2.1572
  973SOL    HW2 2919   2.207   2.010   1.364  2.9769 -0.3409 -4.7084
  974SOL     OW 2920   1.522   2.596   0.608  0.0328  0.6175  0.4694
  974SOL    HW1 2921   1.625   2.574   0.633  4.3549 -1.1020  1.9202
  974SOL    HW2 2922   1.467   2.503   0.607 -2.2111 -3.7479  0.6837
  975SOL     OW 2923   1.929   1.434   2.127 -0.1002  0.4651  0.0612
  975SOL    HW1 2924   1.899   1.339   2.087 -1.5940 -5.2319 -2.2738
  975SOL    HW2 2925   2.012   1.470   2.071  4.7342  2.1989 -3.2490
  976SOL     OW 2926   0.600   0.174   2.016  0.4225  0.5323  0.1011
  976SOL    HW1 2927   0.515   0.189   2.080 -3.3800  1.1196  3.3560
  976SOL    HW2 2928   0.617   0.067   2.019  1.0112 -5.7495 -0.3556
  977SOL     OW 2929   0.723   2.262   2.531  0.1541  0.4988  0.0123
  977SOL    HW1 2930   0.650   2.209   2.589 -4.2852 -3.0652  2.7855
  977SOL    HW2 2931   0.685   2.267   2.432 -2.7782  0.0767 -5.4029
   2.83930   2.83930   2.83930
