1000 SPC/Fw water molecules
 3000
    1SOL     OW    1   1.360   2.884   0.761  0.7418 -0.0188 -0.8849
    1SOL    HW1    2   1.274   2.909   0.715 -0.5524 -1.0435  0.9380
    1SOL    HW2    3   1.345   2.862   0.859 -1.0231 -0.2039 -1.1848
    2SOL     OW    4   2.032   0.365   1.441  0.0921 -0.1416  0.5031
    2SOL    HW1    5   1.982   0.328   1.521  0.1975 -1.4601 -0.0260
    2SOL    HW2    6   2.098   0.433   1.477  0.9323  0.2345 -1.7057
    3SOL     OW    7   0.475   0.171   2.427 -0.0807 -0.2374  0.7171
    3SOL    HW1    8   0.394   0.187   2.486 -0.8467  2.3912 -0.9639
    3SOL    HW2    9   0.555   0.202   2.480  1.3762  0.9545 -2.1168
    4SOL     OW   10   1.457   2.294   3.088  0.7513 -0.1083 -0.1880
    4SOL    HW1   11   1.469   2.273   2.990 -2.1530 -1.2180 -0.3347
    4SOL    HW2   12   1.389   2.227   3.121  0.8472  0.2054  0.6566
    5SOL     OW   13   0.981   1.036   2.010  0.4481 -0.1185 -0.3620
    5SOL    HW1   14   0.941   1.126   1.987  0.6276 -0.0492 -0.4048
    5SOL    HW2   15   0.997   0.981   1.926 -2.4504 -0.8054 -0.5177
    6SOL     OW   16   2.614   0.856   2.357 -0.7721  0.2069  0.1153
    6SOL    HW1   17   2.633   0.879   2.454 -0.1563 -1.3724  0.3846
    6SOL    HW2   18   2.594   0.758   2.342  0.6610 -0.0133 -0.4710
    7SOL     OW   19   0.188   1.048   1.325 -0.3857  0.2723  0.6830
    7SOL    HW1   20   0.232   1.010   1.242  0.1899 -0.3332  1.2612
    7SOL    HW2   21   0.192   1.149   1.329 -1.0472  0.5609 -3.4608
    8SOL     OW   22   2.707   2.703   2.053 -0.3644  0.4044  0.1591
    8SOL    HW1   23   2.708   2.606   2.081 -0.1697  0.6430  0.9745
    8SOL    HW2   24   2.774   2.705   1.977  0.1561 -1.3605  0.5547
    9SOL     OW   25   2.888   2.675   0.501  0.1941  0.0663 -0.4436
    9SOL    HW1   26   2.889   2.632   0.593 -0.4014  0.1455 -0.3931
    9SOL    HW2   27   2.794   2.666   0.464  0.1246 -1.3661  0.0133
   10SOL     OW   28   0.308   2.263   2.345  0.3948  0.0375 -0.0864
   10SOL    HW1   29   0.283   2.357   2.316  0.8406  0.3744  0.6024
   10SOL    HW2   30   0.399   2.251   2.386 -0.0970 -0.5813  0.8388
   11SOL     OW   31   0.438   1.720   2.859 -0.1030 -0.0236  0.0660
   11SOL    HW1   32   0.423   1.817   2.838 -1.0814  0.2330  1.8459
   11SOL    HW2   33   0.458   1.712   2.958  0.8859 -0.8845 -0.1896
   12SOL     OW   34   2.329   2.397   0.432  0.6067 -0.1091  0.1346
   12SOL    HW1   35   2.288   2.350   0.512 -0.0894 -1.8357 -1.1997
   12SOL    HW2   36   2.276   2.390   0.346  0.4125  3.0419 -0.0431
   13SOL     OW   37   0.209   0.749   2.603  0.6072 -0.3372  0.4294
   13SOL    HW1   38   0.114   0.721   2.583  0.7376  0.7777 -1.9217
   13SOL    HW2   39   0.257   0.754   2.514 -2.5449  2.4904 -1.2326
   14SOL     OW   40   1.381   0.632   1.410  0.0460  0.2943  0.3484
   14SOL    HW1   41   1.287   0.644   1.445  0.0539 -0.2051  0.5466
   14SOL    HW2   42   1.388   0.652   1.311  2.2542  0.4181  0.4978
   15SOL     OW   43   0.613   1.582   2.187 -0.0345  0.0261 -0.7415
   15SOL    HW1   44   0.537   1.631   2.233 -1.1040 -1.4033 -0.9584
   15SOL    HW2   45   0.698   1.584   2.241 -0.4043 -0.5787 -0.1181
   16SOL     OW   46   1.668   1.611   2.874  0.4324 -0.5229  0.1809
   16SOL    HW1   47   1.679   1.619   2.974  0.6974 -2.2141  0.2968
   16SOL    HW2   48   1.711   1.522   2.851 -1.7552 -0.9551 -2.4979
   17SOL     OW   49   3.061   1.997   2.018 -0.1252  0.6889  0.3122
   17SOL    HW1   50   3.128   1.959   2.083 -0.1335  0.7693  0.3675
   17SOL    HW2   51   2.980   1.936   2.015  1.7583 -1.9404  1.0537
   18SOL     OW   52   1.473   1.259   0.955  0.1084 -0.0382  0.1614
   18SOL    HW1   53   1.464   1.310   1.042  2.1207  1.0836 -0.2535
   18SOL    HW2   54   1.533   1.305   0.888  1.7940  0.3234  1.8790
   19SOL     OW   55   0.161   1.267   1.720  0.3894 -0.7856  0.4853
   19SOL    HW1   56   0.067   1.304   1.722  0.2675 -1.1118  1.2044
   19SOL    HW2   57   0.165   1.169   1.696  3.1380 -0.6176  0.1255
   20SOL     OW   58   1.573   1.984   2.801  0.3960 -0.2282 -0.2804
   20SOL    HW1   59   1.549   1.912   2.868 -2.5365  1.0601  0.1679
   20SOL    HW2   60   1.492   2.045   2.795  2.8424  3.3347  1.1584
   21SOL     OW   61   1.405   1.723   1.431  0.5965 -0.2813  0.3787
   21SOL    HW1   62   1.380   1.817   1.458  3.1123  0.2137  1.1624
   21SOL    HW2   63   1.502   1.702   1.453  0.1670 -1.6500  0.9665
   22SOL     OW   64   1.891   2.292   1.714  0.1941 -0.1285 -0.1660
   22SOL    HW1   65   1.885   2.191   1.709  0.7973 -0.2054  0.5824
   22SOL    HW2   66   1.816   2.339   1.665 -0.5216 -0.3374  0.7201
   23SOL     OW   67   2.536   1.004   1.711  0.1512 -0.0172  0.1781
   23SOL    HW1   68   2.597   1.038   1.638  0.4396  2.3611  1.4767
   23SOL    HW2   69   2.448   0.965   1.677 -0.8946  1.0345  1.6120
   24SOL     OW   70   1.925   1.522   1.668 -0.4612  0.2475 -0.2235
   24SOL    HW1   71   1.931   1.421   1.677  1.6193  0.2630 -1.2469
   24SOL    HW2   72   2.015   1.560   1.643 -0.1941  0.8778  1.6238
   25SOL     OW   73   1.579   3.068   2.684  0.0669 -0.2573  0.7033
   25SOL    HW1   74   1.550   3.120   2.602  0.6565  1.5084  1.5902
   25SOL    HW2   75   1.672   3.102   2.706  1.0770 -1.4087 -1.6683
   26SOL     OW   76   0.548   2.560   0.315  0.9079  0.2275  0.0890
   26SOL    HW1   77   0.632   2.562   0.259  0.7907  0.9410 -0.0600
   26SOL    HW2   78   0.507   2.651   0.332  0.5124 -0.2740  1.9410
   27SOL     OW   79   1.226   1.143   0.846 -0.4420 -0.1398 -0.0428
   27SOL    HW1   80   1.316   1.169   0.885 -0.3737 -0.6524  0.1390
   27SOL    HW2   81   1.154   1.197   0.892  0.1857  1.7756 -1.2668
   28SOL     OW   82   1.950   2.579   1.351 -0.1410 -0.2900 -0.0174
   28SOL    HW1   83   1.928   2.578   1.252 -0.1595 -1.2555 -0.0104
   28SOL    HW2   84   1.879   2.531   1.405 -2.0379  1.9003 -0.4701
   29SOL     OW   85   2.266   3.007   2.438 -0.2377 -0.4266  0.1076
   29SOL    HW1   86   2.297   2.949   2.514  0.3389 -0.1943  0.0494
   29SOL    HW2   87   2.307   2.978   2.350 -1.0412 -3.0666  0.5544
   30SOL     OW   88   0.077   2.983   1.826 -0.0120 -0.0208 -0.4954
   30SOL    HW1   89   0.079   2.885   1.799  1.0472 -0.0830 -0.2077
   30SOL    HW2   90   0.158   3.006   1.881 -1.2906  0.2687  1.3361
   31SOL     OW   91   2.796   1.831   2.529 -0.2079 -0.4179 -0.2413
   31SOL    HW1   92   2.781   1.861   2.433 -0.9111 -1.2103 -0.3807
   31SOL    HW2   93   2.836   1.738   2.531 -1.2356 -0.8731 -0.6088
   32SOL     OW   94   0.987   2.202   2.284 -0.6151 -0.1692 -0.0530
   32SOL    HW1   95   0.901   2.250   2.259  0.2744  0.8593 -1.2085
   32SOL    HW2   96   1.055   2.268   2.319 -0.8926 -0.0807  0.3140
   33SOL     OW   97   0.314   0.420   2.921 -0.1230  0.1660 -0.6506
   33SOL    HW1   98   0.409   0.448   2.903 -0.1488  1.2117  0.7332
   33SOL    HW2   99   0.276   0.377   2.838 -1.5726  3.7497 -1.8992
   34SOL     OW  100   2.635   0.297   0.192  0.4725  0.0481  0.7468
   34SOL    HW1  101   2.702   0.227   0.223  1.9153  1.3993  0.7184
   34SOL    HW2  102   2.654   0.379   0.247  2.2204 -0.6972  1.2891
   35SOL     OW  103   2.795   2.668   1.648 -0.1536  0.4870 -0.2912
   35SOL    HW1  104   2.833   2.620   1.728 -2.6912 -0.8356  0.1543
   35SOL    HW2  105   2.829   2.631   1.560  1.7963 -0.0691  0.6834
   36SOL     OW  106   2.647   2.744   2.619 -0.1243 -0.7707  0.2341
   36SOL    HW1  107   2.637   2.700   2.710  0.8887 -1.3564  0.0726
   36SOL    HW2  108   2.745   2.768   2.605  0.2207 -2.3201 -0.2076
   37SOL     OW  109   1.798   2.490   0.034 -0.3136  0.3338  0.0811
   37SOL    HW1  110   1.885   2.464  -0.011 -0.8272 -1.1144 -0.0837
   37SOL    HW2  111   1.787   2.431   0.115  0.6251 -2.3845 -1.7160
   38SOL     OW  112   0.605   0.121   0.661  0.5367  0.0322 -0.1686
   38SOL    HW1  113   0.696   0.086   0.689 -0.0697 -1.1934  0.2868
   38SOL    HW2  114   0.577   0.096   0.567 -2.4561  1.2772  0.3581
   39SOL     OW  115   1.151   1.520   2.240  0.2617 -0.1694 -0.8741
   39SOL    HW1  116   1.079   1.473   2.294  2.2395  0.7306  2.7554
   39SOL    HW2  117   1.244   1.485   2.259 -0.0637 -0.7712 -0.3850
   40SOL     OW  118   0.152   1.127   0.291 -0.6075 -0.5599  0.4773
   40SOL    HW1  119   0.079   1.129   0.361 -0.9180  1.0813  0.1162
   40SOL    HW2  120   0.140   1.052   0.224 -0.7204 -1.5979  1.6440
   41SOL     OW  121   1.946   3.077   2.140 -0.5387  0.3697  0.2441
   41SOL    HW1  122   2.015   3.112   2.074  0.7829 -1.7643  0.4412
   41SOL    HW2  123   1.929   2.979   2.126  1.3795 -0.2651  2.1526
   42SOL     OW  124   2.553   0.254   1.099 -0.1398 -0.3793 -0.0006
   42SOL    HW1  125   2.457   0.267   1.128 -0.6256  1.2448 -2.2227
   42SOL    HW2  126   2.560   0.258   0.998  0.7894 -0.3285  0.0655
   43SOL     OW  127   1.707   0.463   0.841  0.5130 -0.0611 -0.0811
   43SOL    HW1  128   1.752   0.552   0.823  2.1409 -0.7547  0.4329
   43SOL    HW2  129   1.614   0.468   0.803  0.5618  1.5598 -0.0034
   44SOL     OW  130   0.170   0.906   0.110 -0.1218 -0.0019  0.3141
   44SOL    HW1  131   0.193   0.825   0.054  1.7952 -0.6681  1.9995
   44SOL    HW2  132   0.180   0.988   0.052 -0.0475 -0.0234  0.2969
   45SOL     OW  133   0.468   1.160   1.489 -0.4511  0.5517 -0.4017
   45SOL    HW1  134   0.557   1.208   1.485 -0.3167  0.6266  2.4001
   45SOL    HW2  135   0.398   1.202   1.429 -0.8494 -3.0481 -2.6110
   46SOL     OW  136   2.141   2.406   2.036 -0.1633  0.0876 -0.2405
   46SOL    HW1  137   2.196   2.333   1.991  1.0562  0.8441 -0.0031
   46SOL    HW2  138   2.062   2.427   1.976 -0.2542 -3.7761 -1.5806
   47SOL     OW  139   0.157   1.747   1.722  0.0168  0.4679  0.3669
   47SOL    HW1  140   0.140   1.840   1.686  1.1239  0.7390  0.5145
   47SOL    HW2  141   0.081   1.683   1.705  0.7378 -0.4749  0.6099
   48SOL     OW  142   1.206   3.018   2.807  0.6444 -0.1823 -0.2285
   48SOL    HW1  143   1.267   3.090   2.769  0.0224 -1.0494 -2.9916
   48SOL    HW2  144   1.163   2.958   2.738 -0.4661 -2.5941  2.4817
   49SOL     OW  145   2.624   1.501   1.895 -0.1305  0.6724 -0.0807
   49SOL    HW1  146   2.570   1.553   1.827 -0.1835 -1.9698 -2.1275
   49SOL    HW2  147   2.591   1.511   1.991  0.0773 -0.7114  0.1364
   50SOL     OW  148   0.787   2.818   0.453  0.0885 -0.4288 -0.2065
   50SOL    HW1  149   0.834   2.769   0.378  0.3142 -1.6497  0.7328
   50SOL    HW2  150   0.689   2.832   0.428 -0.5433 -0.2378  2.2252
   51SOL     OW  151   1.176   3.038   1.147 -0.3951  0.2358 -0.1869
   51SOL    HW1  152   1.098   3.034   1.083  1.0023  0.5044 -1.9190
   51SOL    HW2  153   1.253   3.075   1.093 -0.0481  0.4195  0.4208
   52SOL     OW  154   3.046   0.830   0.668 -0.8024  0.3011  0.3834
   52SOL    HW1  155   3.058   0.835   0.567  0.9960 -1.8853  0.4491
   52SOL    HW2  156   3.133   0.824   0.718 -0.1835 -0.0275 -0.7199
   53SOL     OW  157   1.065   0.149   2.955  0.3873 -0.9671 -0.0867
   53SOL    HW1  158   1.103   0.066   2.911  1.5363 -0.1432 -0.6790
   53SOL    HW2  159   1.140   0.199   3.000 -0.0977 -0.8520  0.6007
   54SOL     OW  160   2.063   0.100   2.363 -0.6052 -0.3875 -0.0083
   54SOL    HW1  161   2.127   0.031   2.400 -0.5271 -0.6942 -0.7136
   54SOL    HW2  162   2.020   0.064   2.278  0.9996 -2.0755 -0.1531
   55SOL     OW  163   2.472   2.981   0.372  0.7094  0.0405 -1.0495
   55SOL    HW1  164   2.573   2.983   0.372  0.7155 -0.0310 -1.5566
   55SOL    HW2  165   2.439   3.053   0.435 -1.2971 -0.9834 -0.8904
   56SOL     OW  166   0.716   0.376   1.952  0.2114  0.5541  0.5583
   56SOL    HW1  167   0.803   0.324   1.951  0.1093  0.3831 -0.2668
   56SOL    HW2  168   0.652   0.335   2.018 -0.3542  1.4897  0.6060
   57SOL     OW  169   2.074   0.897   2.469  0.1795  0.1863 -0.1087
   57SOL    HW1  170   2.071   0.995   2.495 -0.0860  0.3126 -0.6092
   57SOL    HW2  171   2.143   0.845   2.521 -0.1515  1.2975  1.4665
   58SOL     OW  172   0.135   1.013   1.583  0.1594  0.0495 -0.1177
   58SOL    HW1  173   0.133   0.922   1.627  0.2761 -0.1104 -0.4420
   58SOL    HW2  174   0.188   1.011   1.497 -3.3921  0.7622 -2.4324
   59SOL     OW  175   0.711   3.039   1.482  0.0198 -0.3443  0.9128
   59SOL    HW1  176   0.689   3.087   1.568 -0.9552  2.0143 -0.5904
   59SOL    HW2  177   0.809   3.056   1.463 -0.2379  0.9658  0.6874
   60SOL     OW  178   1.932   2.427   0.587  0.1990 -0.1575 -0.9111
   60SOL    HW1  179   1.999   2.501   0.604  0.4221 -1.1346  3.0586
   60SOL    HW2  180   1.941   2.360   0.663  0.9723  2.3467  1.2840
   61SOL     OW  181   1.448   2.799   0.503 -0.0374 -0.0097  0.3291
   61SOL    HW1  182   1.385   2.834   0.574  0.0673  0.5667  0.1471
   61SOL    HW2  183   1.398   2.798   0.414  1.0361  0.1468 -0.2898
   62SOL     OW  184   2.355   2.893   2.686  0.4382 -0.0239 -0.2605
   62SOL    HW1  185   2.280   2.905   2.753  1.6754 -2.1803  1.5636
   62SOL    HW2  186   2.379   2.795   2.681 -0.6695 -0.2692 -0.8810
   63SOL     OW  187   2.695   0.811   0.529 -0.2861  0.6066 -0.0595
   63SOL    HW1  188   2.745   0.735   0.485  0.1882  0.5341  0.6089
   63SOL    HW2  189   2.748   0.856   0.602 -0.0252  0.6864 -0.2945
   64SOL     OW  190   1.288   1.325   2.887  0.1862 -0.2247 -0.5631
   64SOL    HW1  191   1.357   1.298   2.817  0.2713 -0.3633 -0.4271
   64SOL    HW2  192   1.198   1.323   2.841  0.6446 -0.9613 -1.4358
   65SOL     OW  193   0.902   2.496   1.874 -0.1575  0.3539  0.0908
   65SOL    HW1  194   0.845   2.572   1.839 -2.1138 -1.4879 -0.8127
   65SOL    HW2  195   0.994   2.492   1.831  0.1826  1.3211  0.7136
   66SOL     OW  196   1.003   1.383   1.251 -0.2257  0.1289 -0.1244
   66SOL    HW1  197   1.076   1.449   1.271 -2.5658  2.4411  1.0674
   66SOL    HW2  198   0.910   1.410   1.281 -0.9022 -1.2107 -0.9090
   67SOL     OW  199   2.368   2.327   1.750 -0.3168  0.2933 -0.6008
   67SOL    HW1  200   2.413   2.414   1.775  0.3888 -0.1215 -0.4063
   67SOL    HW2  201   2.350   2.266   1.829  2.3492  0.2265  0.0031
   68SOL     OW  202   1.433   2.145   2.071  0.2702  0.3736 -0.2089
   68SOL    HW1  203   1.444   2.125   2.170 -1.0899 -1.2433 -0.3667
   68SOL    HW2  204   1.368   2.220   2.052  0.0977 -0.2903 -2.3741
   69SOL     OW  205   2.742   0.304   3.044 -0.2514  0.0446 -0.7449
   69SOL    HW1  206   2.781   0.218   3.009 -1.5979 -0.6294 -0.6575
   69SOL    HW2  207   2.704   0.300   3.138  0.1503 -0.2658 -0.5940
   70SOL     OW  208   2.411   1.053   2.482 -0.3009 -0.4243  0.0838
   70SOL    HW1  209   2.478   1.028   2.411 -0.7573 -2.0595  0.2147
   70SOL    HW2  210   2.383   1.150   2.475  1.6901  0.1196 -0.4273
   71SOL     OW  211   1.074   2.008   0.503 -0.2107 -0.1525  0.4641
   71SOL    HW1  212   1.027   2.097   0.514  0.8308  0.2415  1.8770
   71SOL    HW2  213   1.013   1.929   0.489 -1.0941  0.8360 -1.5172
   72SOL     OW  214   2.141   1.830   0.199  0.7717  0.1449  0.3353
   72SOL    HW1  215   2.156   1.731   0.183 -4.3545 -0.8802  0.8276
   72SOL    HW2  216   2.044   1.847   0.222  0.5654 -0.7516  0.1474
   73SOL     OW  217   1.043   0.703   0.902  0.3729  0.1576  0.2585
   73SOL    HW1  218   0.949   0.721   0.934  0.4971  0.7298  0.3075
   73SOL    HW2  219   1.100   0.778   0.939  2.0818 -1.3326  0.7498
   74SOL     OW  220   2.326   2.185   1.990 -0.2395  0.3247  0.1401
   74SOL    HW1  221   2.298   2.091   2.015 -0.2097 -0.2293 -1.8435
   74SOL    HW2  222   2.369   2.240   2.063 -0.1175  0.0006  0.3177
   75SOL     OW  223   1.665   1.797   2.252  0.0454  0.2658 -0.1385
   75SOL    HW1  224   1.602   1.723   2.225  1.1011 -0.2963 -1.0935
   75SOL    HW2  225   1.761   1.775   2.229  1.5180  3.5749  2.2821
   76SOL     OW  226   1.159   1.582   1.403  0.2570  0.6222 -0.2758
   76SOL    HW1  227   1.082   1.643   1.379  1.5386  2.4083 -0.0015
   76SOL    HW2  228   1.245   1.634   1.411  1.1042 -0.8494  0.4879
   77SOL     OW  229   2.321   0.885   1.618  0.2043  0.0032 -0.1025
   77SOL    HW1  230   2.330   0.814   1.546 -0.9994  2.8275 -3.1567
   77SOL    HW2  231   2.237   0.874   1.673  1.8082 -0.6150  2.2951
   78SOL     OW  232   1.745   0.652   0.256  0.2490  0.0579  0.3253
   78SOL    HW1  233   1.800   0.734   0.278  0.7913 -0.0364 -0.6434
   78SOL    HW2  234   1.722   0.597   0.338 -0.7461  0.6536  0.4572
   79SOL     OW  235   1.223   1.671   1.699 -0.2447 -0.0561  0.8001
   79SOL    HW1  236   1.214   1.579   1.656  0.8733  0.5298 -0.7048
   79SOL    HW2  237   1.160   1.695   1.775 -1.2066 -1.3230  0.4303
   80SOL     OW  238   1.041   0.074   1.680  0.2819  0.2932 -0.6671
   80SOL    HW1  239   0.989   0.161   1.680  1.0071  0.7245 -0.6292
   80SOL    HW2  240   1.107   0.074   1.604 -1.6308  2.1261 -2.4124
   81SOL     OW  241   0.308   2.690   0.055 -0.0708 -0.6275 -0.7462
   81SOL    HW1  242   0.276   2.596   0.072 -0.7036  0.1456  2.7097
   81SOL    HW2  243   0.248   2.752   0.108 -0.9263 -1.6274 -0.5303
   82SOL     OW  244   1.267   0.296   1.791 -0.1784  0.5193  0.7483
   82SOL    HW1  245   1.192   0.304   1.859 -1.3348  0.7596 -0.5319
   82SOL    HW2  246   1.243   0.320   1.696 -0.0118 -0.1424  0.5383
   83SOL     OW  247   0.042   2.408   0.736 -0.3182  0.3192  0.2608
   83SOL    HW1  248   0.088   2.364   0.815 -2.8065 -0.8922  1.0770
   83SOL    HW2  249   0.070   2.375   0.645 -0.0046  0.0035  0.4714
   84SOL     OW  250   2.767   1.156   1.338  0.9957  0.3824  0.1886
   84SOL    HW1  251   2.757   1.233   1.274  2.2155  0.0053 -0.4835
   84SOL    HW2  252   2.863   1.123   1.344  0.1028 -2.6393 -0.8958
   85SOL     OW  253   1.658   1.901   1.292 -0.6784  0.2175  0.7270
   85SOL    HW1  254   1.740   1.869   1.241 -0.5570  0.2281  0.9150
   85SOL    HW2  255   1.576   1.884   1.235 -0.6870 -1.6171  1.2446
   86SOL     OW  256   1.237   2.322   2.038 -0.0865 -0.1503 -0.0419
   86SOL    HW1  257   1.180   2.291   1.960  1.9279 -0.8009 -1.2744
   86SOL    HW2  258   1.276   2.415   2.028 -1.9246  0.7374  0.6888
   87SOL     OW  259   2.416   0.959   0.888  0.2573 -0.0959 -0.1739
   87SOL    HW1  260   2.454   0.945   0.981 -0.7189  1.2351  0.4517
   87SOL    HW2  261   2.457   0.894   0.823 -2.1689 -1.3681 -0.4787
   88SOL     OW  262   0.722   2.838   0.725  0.2610  0.0121 -0.0219
   88SOL    HW1  263   0.745   2.832   0.627  3.5871  1.2014  0.6331
   88SOL    HW2  264   0.623   2.838   0.745  0.6809 -1.1471  2.1900
   89SOL     OW  265   0.446   1.028   1.111 -0.0067  0.6473 -0.1185
   89SOL    HW1  266   0.410   0.933   1.107  1.9607 -0.0555 -2.1131
   89SOL    HW2  267   0.379   1.099   1.138 -1.7904 -0.7700 -0.6659
   90SOL     OW  268   2.698   1.871   0.636  0.5600 -0.2255  0.1327
   90SOL    HW1  269   2.720   1.836   0.543 -0.0899  1.9214 -0.8485
   90SOL    HW2  270   2.648   1.958   0.622  3.4734  1.7208  1.4629
   91SOL     OW  271   1.241   1.977   1.055  0.1513 -0.1834  0.1150
   91SOL    HW1  272   1.313   2.043   1.028  0.2830  0.0712  1.0981
   91SOL    HW2  273   1.164   1.972   0.989  0.6155 -0.2741 -0.4238
   92SOL     OW  274   1.955   2.836   1.853  0.0203  0.0476 -0.0372
   92SOL    HW1  275   2.055   2.845   1.842 -0.2922  2.2097 -1.4284
   92SOL    HW2  276   1.933   2.832   1.952  2.1231  2.0696  0.5504
   93SOL     OW  277   0.413   1.988   2.818  0.8608  0.2081 -0.4463
   93SOL    HW1  278   0.397   2.085   2.841  0.7781 -0.2946  1.7443
   93SOL    HW2  279   0.484   1.986   2.746  0.0251 -0.7491 -1.2619
   94SOL     OW  280   2.108   0.045   1.929 -0.3253 -0.1560  0.5564
   94SOL    HW1  281   2.016   0.063   1.891 -0.2311 -0.4696  0.1844
   94SOL    HW2  282   2.168  -0.014   1.872  0.2091  0.4605  0.4711
   95SOL     OW  283   1.973   3.046   1.595  0.0973  0.1515 -0.1851
   95SOL    HW1  284   1.953   3.133   1.642  2.1341  0.9119 -0.6903
   95SOL    HW2  285   1.972   2.969   1.661 -2.8174 -0.2358 -0.6118
   96SOL     OW  286   0.780   0.862   2.133 -0.2790 -0.6833 -0.3572
   96SOL    HW1  287   0.685   0.879   2.101 -0.8820  0.6580  2.0109
   96SOL    HW2  288   0.849   0.916   2.083  1.8568 -1.3907  1.7307
   97SOL     OW  289   2.150   2.606   1.654 -0.0946  0.4049 -0.2090
   97SOL    HW1  290   2.129   2.691   1.604  1.6432  0.2118 -1.2939
   97SOL    HW2  291   2.239   2.615   1.701  0.2149  2.1827 -1.1183
   98SOL     OW  292   1.683   2.181   1.302  0.2786 -0.6331 -1.1018
   98SOL    HW1  293   1.686   2.080   1.294 -1.9430 -0.8381  0.0441
   98SOL    HW2  294   1.780   2.209   1.303 -0.2765  1.3677  0.8630
   99SOL     OW  295   0.411   0.531   1.002 -0.2135 -0.5286  0.0042
   99SOL    HW1  296   0.420   0.580   1.090 -2.8240  0.7430 -0.3905
   99SOL    HW2  297   0.448   0.591   0.929 -1.7840 -0.9802 -1.1722
  100SOL     OW  298   2.698   2.103   1.987 -0.1091  0.2705 -0.1175
  100SOL    HW1  299   2.678   2.126   2.084  0.0884  2.2506 -0.5144
  100SOL    HW2  300   2.745   2.015   1.974 -2.7914 -1.0340 -1.3931
  101SOL     OW  301   1.348   0.476   2.719 -0.2179 -0.3344  0.5865
  101SOL    HW1  302   1.290   0.476   2.636  2.0077 -0.8798 -0.9989
  101SOL    HW2  303   1.439   0.511   2.692 -0.2078 -2.1387 -1.8655
  102SOL     OW  304   2.900   0.174   1.195 -0.1327 -0.2754  0.3551
  102SOL    HW1  305   2.822   0.213   1.245 -1.6594 -0.4699 -1.8233
  102SOL    HW2  306   2.947   0.104   1.251  0.3633  0.5979  1.0603
  103SOL     OW  307   0.189   0.084   0.051 -0.1535 -0.5902  0.5219
  103SOL    HW1  308   0.128   0.085  -0.030 -0.7044  0.8076  0.9411
  103SOL    HW2  309   0.286   0.065   0.029 -0.0303 -2.2815  2.3837
  104SOL     OW  310   0.450   2.239   1.186 -0.0322  0.1675  0.0954
  104SOL    HW1  311   0.438   2.334   1.218 -2.4291 -0.2465  0.4484
  104SOL    HW2  312   0.450   2.229   1.085 -0.6343 -0.2243  0.1315
  105SOL     OW  313   0.572   1.356   1.817  0.0923  0.2120  0.0052
  105SOL    HW1  314   0.664   1.323   1.841  0.1874  0.4327 -0.0604
  105SOL    HW2  315   0.506   1.282   1.794 -1.0457  1.0974  0.3855
  106SOL     OW  316   2.905   0.121   0.603  0.0503  0.0796  0.4810
  106SOL    HW1  317   2.915   0.048   0.534 -0.1744 -0.3288  0.8847
  106SOL    HW2  318   2.829   0.186   0.586 -0.3278  0.0489  2.0180
  107SOL     OW  319   0.723   0.982   1.129  0.3498  0.2135  0.9132
  107SOL    HW1  320   0.663   0.918   1.179  1.1515 -1.0547  0.2849
  107SOL    HW2  321   0.681   1.074   1.130  1.9460  0.9738  0.1817
  108SOL     OW  322   2.806   1.297   1.928 -0.7158 -0.7495 -0.1583
  108SOL    HW1  323   2.892   1.345   1.902 -0.9000 -0.4507 -0.2137
  108SOL    HW2  324   2.735   1.368   1.926  0.5456  0.5310 -1.0135
  109SOL     OW  325   2.053   2.630   0.268  0.2113 -0.6449 -0.9252
  109SOL    HW1  326   2.125   2.700   0.282 -2.2441  1.6167  0.9129
  109SOL    HW2  327   1.963   2.675   0.282  0.0930 -1.1268 -0.0942
  110SOL     OW  328   2.968   2.606   0.005 -0.1882  0.3336 -0.4769
  110SOL    HW1  329   2.937   2.554   0.086  1.1169  0.4677  0.1380
  110SOL    HW2  330   3.017   2.551  -0.063 -0.5876  1.2255 -1.4994
  111SOL     OW  331   2.310   0.819   2.592 -0.0003  0.2120 -0.5253
  111SOL    HW1  332   2.395   0.764   2.602  0.3278  0.6428 -0.9454
  111SOL    HW2  333   2.339   0.915   2.582 -1.0639  0.7246  1.0687
  112SOL     OW  334   2.207   2.969   1.750  0.1663  0.0464  0.8547
  112SOL    HW1  335   2.305   2.952   1.730  0.3478  2.2645 -0.2813
  112SOL    HW2  336   2.159   2.987   1.663  3.3995 -2.2488 -1.5429
  113SOL     OW  337   2.334   2.108   2.609  0.3733  0.2628  0.1034
  113SOL    HW1  338   2.343   2.154   2.699  0.1357 -0.0498  0.2907
  113SOL    HW2  339   2.396   2.150   2.542  0.9642 -1.1184 -0.2343
  114SOL     OW  340   0.805   0.007   0.809 -0.1277  0.4567 -0.4637
  114SOL    HW1  341   0.749  -0.078   0.804 -1.8244  1.4439  1.0884
  114SOL    HW2  342   0.902  -0.003   0.781  0.2523 -1.1951  1.3577
  115SOL     OW  343   0.179   1.573   2.905  0.2704  0.1831  0.4969
  115SOL    HW1  344   0.112   1.644   2.929  2.1005  1.8747  0.6952
  115SOL    HW2  345   0.250   1.613   2.844 -0.6535 -1.3481 -1.6655
  116SOL     OW  346   0.302   1.600   1.921  0.2641 -0.5230 -0.6549
  116SOL    HW1  347   0.400   1.626   1.930 -0.4728  1.5780  1.9383
  116SOL    HW2  348   0.254   1.630   1.837 -0.8870 -1.0052 -0.1777
  117SOL     OW  349   1.928   0.235   1.644  0.6049  0.5007  0.6272
  117SOL    HW1  350   1.830   0.216   1.630 -0.0936  3.6708  0.8450
  117SOL    HW2  351   1.951   0.301   1.717 -0.9630  0.5043  1.1242
  118SOL     OW  352   2.631   2.126   2.283 -0.2144 -0.1418  0.3935
  118SOL    HW1  353   2.677   2.194   2.342  0.3164 -0.6179  0.5352
  118SOL    HW2  354   2.531   2.120   2.302 -0.0900  0.5113  1.2869
  119SOL     OW  355   0.668   1.351   1.542  0.5634 -0.6356 -0.2326
  119SOL    HW1  356   0.702   1.400   1.624  0.7662 -1.0164 -0.0857
  119SOL    HW2  357   0.716   1.382   1.458 -3.8555 -0.3798 -2.8207
  120SOL     OW  358   0.547   1.886   1.806 -0.0785  0.1267  0.3462
  120SOL    HW1  359   0.467   1.946   1.785  0.4231  0.6048 -0.2137
  120SOL    HW2  360   0.524   1.807   1.864  0.0554  0.0570  0.3017
  121SOL     OW  361   1.770   0.823   1.097 -0.0292  0.1376  0.1119
  121SOL    HW1  362   1.858   0.822   1.047 -0.3831 -1.6454 -0.5239
  121SOL    HW2  363   1.705   0.897   1.075 -0.1820 -0.1387 -0.3713
  122SOL     OW  364   2.363   2.090   2.324 -0.1160  0.0945  0.5435
  122SOL    HW1  365   2.287   2.114   2.262  1.0393  1.4329 -0.3792
  122SOL    HW2  366   2.341   2.004   2.372  2.2115  0.3541  2.1944
  123SOL     OW  367   2.996   0.537   0.170  0.2950 -0.1730 -0.5354
  123SOL    HW1  368   3.065   0.471   0.136 -0.0456 -0.8419  0.0530
  123SOL    HW2  369   2.980   0.618   0.112  1.3126  0.3220 -0.1336
  124SOL     OW  370   1.636   0.979   0.030 -0.3350  0.1164  0.0691
  124SOL    HW1  371   1.641   0.984  -0.071 -0.0201  3.0083  0.1863
  124SOL    HW2  372   1.686   0.900   0.068  1.9587  1.2102 -0.5741
  125SOL     OW  373   0.211   0.876   2.356  0.1560 -0.1422  0.1571
  125SOL    HW1  374   0.164   0.963   2.339 -1.9554 -1.4364 -0.8110
  125SOL    HW2  375   0.165   0.791   2.325 -0.7188 -0.5002  2.3406
  126SOL     OW  376   2.646   2.707   0.368  0.6633 -0.0770  0.3284
  126SOL    HW1  377   2.690   2.798   0.357 -2.0048  1.1723 -0.2489
  126SOL    HW2  378   2.574   2.698   0.438  0.0614  2.3623  0.0777
  127SOL     OW  379   2.812   1.996   2.958  0.2616 -0.0165 -0.1838
  127SOL    HW1  380   2.721   2.038   2.944  1.2606  1.5662 -2.2145
  127SOL    HW2  381   2.819   1.954   3.050 -0.2674  2.5031  1.0721
  128SOL     OW  382   0.927   0.968   0.638  0.1709 -0.4083 -0.2137
  128SOL    HW1  383   0.906   0.923   0.726 -0.8631  0.0406 -0.2228
  128SOL    HW2  384   1.021   1.005   0.630  0.0195  0.6874  2.4742
  129SOL     OW  385   2.273   1.760   0.679 -0.4272  0.4872 -0.9184
  129SOL    HW1  386   2.315   1.843   0.640  0.9297  1.1019  1.6865
  129SOL    HW2  387   2.173   1.759   0.664 -0.1839  0.4474 -2.6523
  130SOL     OW  388   1.867   0.915   0.382  0.2817  0.0527 -0.4461
  130SOL    HW1  389   1.911   0.995   0.338  1.5178 -1.0941 -1.3458
  130SOL    HW2  390   1.775   0.945   0.413 -0.0240  1.3599 -2.4748
  131SOL     OW  391   0.146   1.938   2.768 -0.3334  0.0990  0.3206
  131SOL    HW1  392   0.097   2.026   2.768 -0.1190  0.2200  0.8212
  131SOL    HW2  393   0.246   1.943   2.782 -0.1582 -0.9509 -0.4818
  132SOL     OW  394   1.355   1.170   1.670  0.3626  0.2401 -0.5471
  132SOL    HW1  395   1.433   1.106   1.677 -0.7733 -0.9941  0.9569
  132SOL    HW2  396   1.271   1.117   1.691  1.3669 -1.4513 -0.6602
  133SOL     OW  397   0.254   1.253   1.089 -0.4304  0.3450 -0.2233
  133SOL    HW1  398   0.190   1.324   1.124 -0.2116 -0.0472  1.0016
  133SOL    HW2  399   0.333   1.295   1.042 -1.2894  2.5968  0.2639
  134SOL     OW  400   3.031   1.514   0.197  0.1506 -0.4293 -0.0099
  134SOL    HW1  401   3.011   1.534   0.294 -2.8586  0.9414 -0.8556
  134SOL    HW2  402   2.961   1.544   0.131  1.3456  0.1787 -1.0347
  135SOL     OW  403   1.817   0.758   0.025  0.0835  0.3754  0.3226
  135SOL    HW1  404   1.779   0.705   0.103 -3.2716  3.9038  1.2433
  135SOL    HW2  405   1.804   0.700  -0.057 -1.2174 -3.0321  2.7929
  136SOL     OW  406   1.997   2.067   1.104 -1.1873  0.4530 -0.6162
  136SOL    HW1  407   1.973   2.134   1.176  1.7998  0.5255  0.4136
  136SOL    HW2  408   1.965   1.975   1.130  1.7373 -0.7678 -1.0565
  137SOL     OW  409   2.334   2.455   0.785 -0.4776 -0.0166  0.2071
  137SOL    HW1  410   2.251   2.453   0.843 -2.8780 -0.3074 -3.0783
  137SOL    HW2  411   2.414   2.500   0.828  2.0658 -2.6492 -1.5991
  138SOL     OW  412   2.503   0.447   1.413 -0.5033 -0.2170  0.0374
  138SOL    HW1  413   2.582   0.467   1.354  0.0434 -1.8280  0.1964
  138SOL    HW2  414   2.436   0.394   1.357 -0.7087 -0.8599  0.8773
  139SOL     OW  415   0.064   2.289   2.516 -0.4568  0.3870  0.3602
  139SOL    HW1  416  -0.010   2.259   2.453 -0.7261 -0.8042  1.2271
  139SOL    HW2  417   0.147   2.252   2.472 -0.3928  1.2482 -0.2664
  140SOL     OW  418   1.483   1.615   0.102  0.0509  0.1302  0.4944
  140SOL    HW1  419   1.433   1.563   0.032 -1.8235  0.5513  1.4733
  140SOL    HW2  420   1.427   1.604   0.186 -0.5553 -3.0079 -0.2823
  141SOL     OW  421   1.307   1.610   2.614  0.3572 -0.2008 -0.1442
  141SOL    HW1  422   1.407   1.614   2.625  0.5710 -2.2545 -1.0863
  141SOL    HW2  423   1.283   1.512   2.618 -1.5656  0.2063 -1.1008
  142SOL     OW  424   2.183   2.641   2.431 -0.9525  0.5816  0.0789
  142SOL    HW1  425   2.155   2.563   2.372  1.0243  0.4646 -0.7352
  142SOL    HW2  426   2.282   2.661   2.434 -1.2747  1.8783  2.4800
  143SOL     OW  427   0.776   2.446   0.689 -0.1886 -0.5113 -0.1784
  143SOL    HW1  428   0.740   2.414   0.600 -2.0179  0.9253  0.0156
  143SOL    HW2  429   0.859   2.501   0.673 -1.4701  1.4822 -0.1806
  144SOL     OW  430   0.519   2.839   0.415  0.0516  0.1052 -0.1445
  144SOL    HW1  431   0.449   2.815   0.484  0.0367  0.4947 -0.0250
  144SOL    HW2  432   0.495   2.931   0.382 -0.3325 -0.0424 -0.2896
  145SOL     OW  433   1.444   2.481   0.190 -0.1791  0.7652 -0.9997
  145SOL    HW1  434   1.457   2.425   0.107  2.6720  1.1642 -0.8759
  145SOL    HW2  435   1.351   2.466   0.226 -0.8727  2.6651 -1.9196
  146SOL     OW  436   1.625   2.464   0.393 -0.2848  0.4848 -0.0724
  146SOL    HW1  437   1.550   2.493   0.331  1.5862  1.4931 -1.9315
  146SOL    HW2  438   1.692   2.540   0.399  1.1276 -0.8342  1.2274
  147SOL     OW  439   0.411   1.702   1.598  0.2588  0.0190 -0.0191
  147SOL    HW1  440   0.420   1.601   1.607  0.8328 -0.0016 -0.7795
  147SOL    HW2  441   0.325   1.736   1.638 -0.9367 -0.1705 -2.3257
  148SOL     OW  442   0.939   3.084   0.452 -0.1882  0.2703  0.0330
  148SOL    HW1  443   0.888   2.996   0.445  0.5572 -0.1995  0.4644
  148SOL    HW2  444   0.978   3.091   0.545 -0.5847 -2.5638  0.4754
  149SOL     OW  445   0.318   1.932   0.603 -0.5069 -0.5787 -0.0099
  149SOL    HW1  446   0.255   2.009   0.620 -2.0394 -1.7396 -0.2973
  149SOL    HW2  447   0.316   1.914   0.503  0.0034 -1.1698  0.0844
  150SOL     OW  448   0.360   2.500   1.266  0.2112  0.0387 -0.1240
  150SOL    HW1  449   0.260   2.500   1.276  0.0004  1.1092 -1.9609
  150SOL    HW2  450   0.407   2.501   1.356 -0.7446 -0.0901  0.3780
  151SOL     OW  451   0.837   1.882   0.022  0.2603 -0.3873 -0.5640
  151SOL    HW1  452   0.833   1.822  -0.060 -1.7087 -0.5665 -0.3716
  151SOL    HW2  453   0.873   1.832   0.102  1.5453 -1.2677 -1.6646
  152SOL     OW  454   2.903   2.082   0.954  0.2359  0.0330 -0.1469
  152SOL    HW1  455   2.849   2.167   0.965 -1.1007 -0.4511 -2.6794
  152SOL    HW2  456   3.004   2.086   0.964  0.3591 -0.6612 -1.0166
  153SOL     OW  457   1.750   2.162   0.782 -0.1455  0.0557 -0.0567
  153SOL    HW1  458   1.696   2.205   0.708 -0.1972  1.4833  0.7877
  153SOL    HW2  459   1.840   2.208   0.786 -1.4328  2.6657 -0.0616
  154SOL     OW  460   0.845   0.343   1.377 -0.3910  0.2040 -0.1479
  154SOL    HW1  461   0.937   0.326   1.339 -0.6782 -2.6009  0.2954
  154SOL    HW2  462   0.770   0.333   1.310 -0.3725 -1.3071  0.0308
  155SOL     OW  463   2.899   1.862   0.810  0.1157 -0.3674  0.3112
  155SOL    HW1  464   2.818   1.869   0.751  0.8039 -0.4239 -0.6560
  155SOL    HW2  465   2.910   1.956   0.846 -2.5101  0.4645 -0.9383
  156SOL     OW  466   2.492   2.011   0.070 -0.0617  0.2784  1.1205
  156SOL    HW1  467   2.567   2.019   0.138  1.1715 -1.2689 -0.0158
  156SOL    HW2  468   2.466   1.915   0.057 -0.9990  0.3564  2.3001
  157SOL     OW  469   0.319   3.049   1.996  0.7390  0.4021  0.3073
  157SOL    HW1  470   0.376   3.063   1.913  0.0405  0.1893 -0.2188
  157SOL    HW2  471   0.371   3.050   2.082  0.4175  0.3143  0.5040
  158SOL     OW  472   1.099   0.322   1.259  0.4777  0.0683 -0.3002
  158SOL    HW1  473   1.158   0.290   1.336 -1.2745  3.3377  2.5175
  158SOL    HW2  474   1.135   0.274   1.177 -2.3100 -2.3917 -0.1452
  159SOL     OW  475   1.981   0.976   2.929 -0.1206  0.4076 -0.0831
  159SOL    HW1  476   2.056   0.917   2.896 -1.6346 -1.1787 -0.7694
  159SOL    HW2  477   1.932   0.925   3.002  0.6783 -0.1845  0.0349
  160SOL     OW  478   1.480   1.521   0.564  0.4146 -0.0523  0.6929
  160SOL    HW1  479   1.413   1.561   0.628 -0.0308 -0.3003  0.3828
  160SOL    HW2  480   1.568   1.563   0.590  0.7281  0.0243 -0.4323
  161SOL     OW  481   2.931   1.977   2.725 -0.7530  0.3819 -0.0075
  161SOL    HW1  482   2.902   1.962   2.821  3.1742 -0.4961  1.1353
  161SOL    HW2  483   2.860   1.943   2.662 -0.6328  0.2360 -0.0632
  162SOL     OW  484   3.055   2.059   1.318 -0.4369  0.7195  0.2116
  162SOL    HW1  485   3.053   1.977   1.377  0.3479 -0.8409 -1.8482
  162SOL    HW2  486   3.067   2.147   1.365  0.5145  0.5556  0.2874
  163SOL     OW  487   0.888   0.859   2.745 -0.4700 -0.2587 -0.2570
  163SOL    HW1  488   0.838   0.944   2.769 -1.0024 -0.7701  0.4598
  163SOL    HW2  489   0.846   0.803   2.672 -1.6022  1.5484 -1.0266
  164SOL     OW  490   0.331   2.617   2.678 -0.6933 -0.0923  0.5879
  164SOL    HW1  491   0.339   2.689   2.608  1.3245  0.7592  1.6684
  164SOL    HW2  492   0.383   2.533   2.656 -0.5136  0.6251 -1.8711
  165SOL     OW  493   2.248   1.116   1.481  0.1404 -0.0960 -0.0729
  165SOL    HW1  494   2.253   1.053   1.559  1.6587  0.2030  0.0778
  165SOL    HW2  495   2.203   1.202   1.510 -1.2637 -0.9469  0.3251
  166SOL     OW  496   2.361   2.056   1.362  0.4023  0.5019  0.2699
  166SOL    HW1  497   2.313   1.967   1.349  0.9899 -0.0376  1.6475
  166SOL    HW2  498   2.337   2.118   1.286  1.8254  0.1118 -0.5077
  167SOL     OW  499   2.993   0.819   0.104 -0.4013 -0.2432  0.1316
  167SOL    HW1  500   3.081   0.866   0.117 -0.1588 -0.9387  1.1098
  167SOL    HW2  501   2.946   0.839   0.017  3.5954 -1.4644 -2.4484
  168SOL     OW  502   2.526   0.633   2.621 -0.3121  0.2219  0.8502
  168SOL    HW1  503   2.606   0.603   2.567 -2.3286  2.2675 -3.5570
  168SOL    HW2  504   2.444   0.579   2.597 -0.4358  1.5819 -2.1113
  169SOL     OW  505   0.334   1.511   0.035  0.0121 -0.0174 -0.2680
  169SOL    HW1  506   0.429   1.483   0.016 -0.2499 -0.6748 -0.6403
  169SOL    HW2  507   0.280   1.529  -0.048  1.4945  0.6635 -1.0957
  170SOL     OW  508   1.439   1.142   1.250 -0.0649  0.3772  0.4419
  170SOL    HW1  509   1.348   1.156   1.293 -0.0618  1.0158  0.2493
  170SOL    HW2  510   1.505   1.102   1.316  1.8918  0.9899 -1.1120
  171SOL     OW  511   1.577   2.536   1.172  0.2798 -0.2101 -0.3147
  171SOL    HW1  512   1.573   2.512   1.271  0.2081 -2.2969 -0.8111
  171SOL    HW2  513   1.515   2.612   1.146 -0.5660 -0.3091  1.3497
  172SOL     OW  514   1.147   0.125   2.108  0.2096 -0.0423 -0.3367
  172SOL    HW1  515   1.117   0.058   2.178  1.1277  1.8959  1.9616
  172SOL    HW2  516   1.232   0.096   2.062  0.4810 -0.0591  0.1807
  173SOL     OW  517   1.008   2.733   1.128 -0.2190  0.2323  0.2322
  173SOL    HW1  518   0.993   2.749   1.029  0.3345  0.4998  0.1842
  173SOL    HW2  519   1.096   2.685   1.147 -0.3329 -0.5219 -1.0749
  174SOL     OW  520   2.044   3.080   0.262  0.2493 -0.2084  0.3655
  174SOL    HW1  521   2.001   3.017   0.195 -1.2758 -1.4952  2.4682
  174SOL    HW2  522   2.006   3.076   0.356 -1.8285 -0.4606 -0.4474
  175SOL     OW  523   1.096   1.215   0.617 -0.0503  0.4912 -0.2138
  175SOL    HW1  524   1.157   1.175   0.687  0.8733  2.5125  0.1812
  175SOL    HW2  525   1.149   1.232   0.532  0.0402  2.7218  0.2707
  176SOL     OW  526   0.911   1.607   1.047 -0.0591  0.2209 -0.0774
  176SOL    HW1  527   0.861   1.689   1.015 -0.9307 -0.5365 -0.7064
  176SOL    HW2  528   0.852   1.529   1.074 -0.4190  0.8088  0.8796
  177SOL     OW  529   1.569   0.989   1.025  0.0218  0.6068 -0.5599
  177SOL    HW1  530   1.573   1.058   0.952 -1.1785  0.2809 -0.9528
  177SOL    HW2  531   1.512   1.014   1.105  0.1988  0.6560 -0.4493
  178SOL     OW  532   2.457   1.423   0.837  0.3732 -0.4626  0.2516
  178SOL    HW1  533   2.502   1.333   0.842 -0.4259 -0.9383 -0.9113
  178SOL    HW2  534   2.518   1.497   0.803  0.2154 -1.0181 -1.2605
  179SOL     OW  535   0.767   2.966   2.845 -0.0712  0.4448 -0.1012
  179SOL    HW1  536   0.827   3.009   2.914 -1.9462  1.4665  0.9334
  179SOL    HW2  537   0.775   3.005   2.752 -1.9067 -0.4592 -0.6668
  180SOL     OW  538   1.901   1.155   1.916  0.3514  0.0389  0.7507
  180SOL    HW1  539   1.919   1.167   1.817  2.5412 -0.2979  1.0840
  180SOL    HW2  540   1.984   1.138   1.970  1.3710 -4.4784 -1.9938
  181SOL     OW  541   0.471   0.865   1.537 -0.1223 -0.0146  0.0338
  181SOL    HW1  542   0.475   0.964   1.517 -1.1817 -0.5908 -3.3530
  181SOL    HW2  543   0.473   0.849   1.637  0.6395  0.0806  0.0405
  182SOL     OW  544   2.780   1.078   0.024 -0.4580  0.0041 -0.5666
  182SOL    HW1  545   2.834   1.149   0.070  0.0734  0.4211 -1.8047
  182SOL    HW2  546   2.702   1.042   0.078  0.0530  1.5239  1.2000
  183SOL     OW  547   1.619   2.939   2.026  0.1829  0.3051 -0.1144
  183SOL    HW1  548   1.522   2.955   2.001  0.6675  1.4792 -1.3513
  183SOL    HW2  549   1.657   3.014   2.082 -0.7355  1.2056 -0.6654
  184SOL     OW  550   0.775   0.617   0.636  0.4120 -0.1605  0.3879
  184SOL    HW1  551   0.869   0.593   0.608 -0.5746 -1.2605 -2.1734
  184SOL    HW2  552   0.777   0.632   0.736 -0.3637  0.8488  0.2572
  185SOL     OW  553   2.230   1.316   0.735 -0.1034 -0.0918 -0.1872
  185SOL    HW1  554   2.229   1.221   0.769 -1.7658 -0.5629 -1.5122
  185SOL    HW2  555   2.313   1.366   0.765 -1.0810  1.2835  0.2620
  186SOL     OW  556   0.055   1.960   0.389  0.4205 -0.2044  0.3236
  186SOL    HW1  557   0.074   2.045   0.441  0.7154 -0.2165  0.2361
  186SOL    HW2  558   0.021   1.890   0.453 -1.1362  0.8936  0.7114
  187SOL     OW  559   2.088   1.511   2.571 -0.6656  0.8423 -0.1671
  187SOL    HW1  560   2.124   1.537   2.662 -0.2410  0.5253 -0.2434
  187SOL    HW2  561   2.025   1.584   2.540  0.3802  2.5208  1.5383
  188SOL     OW  562   1.263   0.008   1.528  0.2451 -0.6689  0.3058
  188SOL    HW1  563   1.338  -0.023   1.587 -0.0955 -1.2146  0.4557
  188SOL    HW2  564   1.235  -0.075   1.477  0.6388  0.8109 -2.4035
  189SOL     OW  565   3.078   1.411   2.477 -0.6233  0.3830  1.1565
  189SOL    HW1  566   3.096   1.314   2.501 -1.1506 -0.3570 -1.2935
  189SOL    HW2  567   3.166   1.445   2.440 -0.4835 -2.1484 -0.9761
  190SOL     OW  568   1.246   2.395   2.361  0.0383 -0.8488 -0.4969
  190SOL    HW1  569   1.289   2.334   2.430 -0.0212 -0.7203 -0.3447
  190SOL    HW2  570   1.257   2.373   2.263  1.8524  0.5602 -0.6393
  191SOL     OW  571   2.391   1.034   1.273 -0.0279  0.1596 -0.3110
  191SOL    HW1  572   2.358   1.072   1.361  0.0706 -0.2057 -0.1154
  191SOL    HW2  573   2.355   0.940   1.260 -0.6892  0.0651  1.9661
  192SOL     OW  574   2.034   0.382   1.170  0.0792 -0.2665 -0.1794
  192SOL    HW1  575   2.029   0.392   1.271 -1.9092 -0.1313 -0.2722
  192SOL    HW2  576   1.946   0.416   1.133 -1.0424 -1.4984  1.2491
  193SOL     OW  577   0.665   0.458   0.049 -0.3442 -0.2022  0.8920
  193SOL    HW1  578   0.755   0.470   0.093 -0.3733  1.5934  0.5023
  193SOL    HW2  579   0.591   0.465   0.118  0.6510  0.4449  1.9260
  194SOL     OW  580   1.842   2.458   1.119 -0.0493 -0.3381 -0.7925
  194SOL    HW1  581   1.751   2.482   1.155  0.8738  0.2751  1.1819
  194SOL    HW2  582   1.865   2.509   1.034 -0.1943 -0.0106 -0.6343
  195SOL     OW  583   2.344   0.457   0.935  0.5547  0.0315 -0.4115
  195SOL    HW1  584   2.283   0.397   0.880  2.1582 -1.3373 -0.7213
  195SOL    HW2  585   2.410   0.509   0.879  0.0373  0.4922 -0.6076
  196SOL     OW  586   0.761   2.047   1.862  0.4884 -0.9592 -0.0937
  196SOL    HW1  587   0.812   2.045   1.775  2.8500  1.7695  1.1386
  196SOL    HW2  588   0.667   2.009   1.852 -0.7686  2.2265 -1.2823
  197SOL     OW  589   2.709   0.140   2.336  0.0095  0.2859 -0.0047
  197SOL    HW1  590   2.722   0.049   2.379 -0.1315 -0.3090 -1.1899
  197SOL    HW2  591   2.797   0.190   2.332 -0.1476  0.5072 -0.8324
  198SOL     OW  592   2.085   1.182   0.306  0.0242  0.4122 -0.2649
  198SOL    HW1  593   2.031   1.164   0.222  0.4875  0.0705 -0.4867
  198SOL    HW2  594   2.023   1.208   0.382  1.1191  2.4365 -0.0153
  199SOL     OW  595   2.272   0.605   1.513 -0.1414 -0.4564 -0.0777
  199SOL    HW1  596   2.222   0.572   1.594 -1.5418 -2.1619 -1.6089
  199SOL    HW2  597   2.354   0.548   1.492  0.0829 -0.1750  0.0360
  200SOL     OW  598   2.070   2.672   2.886 -0.4688 -0.0756 -0.0331
  200SOL    HW1  599   2.031   2.668   2.793  1.2456  2.2318 -0.8894
  200SOL    HW2  600   2.048   2.588   2.939  0.7939  1.0711  2.3928
  201SOL     OW  601   2.695   0.143   1.371 -0.1978 -0.1930 -0.0047
  201SOL    HW1  602   2.597   0.116   1.370 -0.7710  1.7239  1.9500
  201SOL    HW2  603   2.748   0.101   1.447 -0.4397 -0.7615 -0.1474
  202SOL     OW  604   2.756   2.973   0.319  0.3085 -0.2618 -0.4729
  202SOL    HW1  605   2.849   2.961   0.358  0.4175 -0.7993 -0.8961
  202SOL    HW2  606   2.760   3.045   0.248 -0.9711 -0.6767 -0.9650
  203SOL     OW  607   1.340   1.349   0.405 -0.6269  0.2509 -0.0794
  203SOL    HW1  608   1.398   1.395   0.473  1.1158 -0.8951 -0.7561
  203SOL    HW2  609   1.304   1.421   0.344 -1.4038 -1.9296 -2.3220
  204SOL     OW  610   0.130   1.876   2.206 -0.0851 -0.3566 -1.0005
  204SOL    HW1  611   0.199   1.949   2.194 -0.0239 -0.0107  1.2833
  204SOL    HW2  612   0.112   1.868   2.305 -1.3722  1.6405 -1.0464
  205SOL     OW  613   0.463   0.699   0.790  0.1975 -0.5800  0.0421
  205SOL    HW1  614   0.373   0.711   0.745 -0.4413  0.5169  1.5353
  205SOL    HW2  615   0.529   0.655   0.728  0.3570  0.6204 -0.6637
  206SOL     OW  616   0.543   0.984   2.734 -0.2127  0.2605 -0.3257
  206SOL    HW1  617   0.545   0.892   2.778  0.1709  1.4739  2.3159
  206SOL    HW2  618   0.518   0.974   2.637  0.4022 -0.2779 -0.4368
  207SOL     OW  619   1.211   2.368   1.578  0.1385 -0.2064 -0.5661
  207SOL    HW1  620   1.244   2.299   1.512  4.6985  1.0532  0.2455
  207SOL    HW2  621   1.122   2.401   1.543  0.1442  0.2236 -0.1800
  208SOL     OW  622   2.181   2.777   1.195  0.0169  0.4041 -0.0889
  208SOL    HW1  623   2.170   2.678   1.179 -1.7402  0.4271  0.8308
  208SOL    HW2  624   2.175   2.799   1.294 -2.5980  0.8574 -0.2938
  209SOL     OW  625   1.838   1.158   0.848  0.2227 -0.1266 -1.0224
  209SOL    HW1  626   1.883   1.202   0.927 -1.6733 -0.5701  0.3392
  209SOL    HW2  627   1.772   1.221   0.805 -0.9535 -1.3369 -1.0254
  210SOL     OW  628   1.990   1.280   1.055  0.3028  0.1279 -0.2042
  210SOL    HW1  629   2.011   1.324   1.143  2.3865 -1.9111  0.3823
  210SOL    HW2  630   2.043   1.195   1.039  0.1123  0.3399 -2.0552
  211SOL     OW  631   0.514   2.835   2.464  0.4547  0.7362  0.3682
  211SOL    HW1  632   0.420   2.815   2.432  1.2403 -0.6995 -1.1158
  211SOL    HW2  633   0.510   2.886   2.551 -2.7697  1.4556 -0.1304
  212SOL     OW  634   1.734   1.514   0.871  0.4953 -0.1235 -0.3913
  212SOL    HW1  635   1.667   1.552   0.937  1.6910  1.2647  0.0650
  212SOL    HW2  636   1.827   1.531   0.907 -0.1885  1.2465  0.7838
  213SOL     OW  637   2.655   2.405   0.052 -0.2788 -0.5827  0.9576
  213SOL    HW1  638   2.641   2.505   0.044 -0.1868 -0.7589 -2.1871
  213SOL    HW2  639   2.618   2.376   0.142 -1.8616  1.8836  1.1641
  214SOL     OW  640   1.061   2.540   2.491  0.5716 -0.1870  0.4036
  214SOL    HW1  641   1.031   2.617   2.433 -1.8801 -0.1129  1.7010
  214SOL    HW2  642   1.117   2.477   2.435 -0.1636  0.3704 -0.9975
  215SOL     OW  643   0.509   0.978   0.838  0.4812  0.0686 -0.3254
  215SOL    HW1  644   0.490   1.008   0.933 -3.4521  1.5606 -1.4743
  215SOL    HW2  645   0.507   0.877   0.833  1.8952  0.0290 -0.1009
  216SOL     OW  646   0.031   2.887   2.659 -0.1366  0.1935 -0.8791
  216SOL    HW1  647   0.081   2.911   2.743  0.3316 -0.7552 -0.8841
  216SOL    HW2  648  -0.063   2.856   2.683  1.0432 -0.6335  3.0167
  217SOL     OW  649   2.934   1.377   1.626 -0.0786 -0.4533 -0.1016
  217SOL    HW1  650   2.936   1.278   1.607  0.8543 -0.1249 -1.7822
  217SOL    HW2  651   2.856   1.427   1.586 -0.1366  0.9063  1.6381
  218SOL     OW  652   0.814   2.268   2.007  0.0324 -0.2515  0.0448
  218SOL    HW1  653   0.817   2.359   1.964 -1.7811  1.2959  3.0115
  218SOL    HW2  654   0.800   2.183   1.954 -1.2574 -1.3306  2.0361
  219SOL     OW  655   2.067   1.701   2.994 -0.0216  0.2484  0.0506
  219SOL    HW1  656   2.093   1.671   3.087 -1.3394 -1.0289  0.0400
  219SOL    HW2  657   1.972   1.734   2.987 -0.0376 -0.1386 -1.8707
  220SOL     OW  658   1.566   0.185   0.104 -0.3655 -0.8003 -0.0622
  220SOL    HW1  659   1.666   0.198   0.102 -0.4770 -0.0703 -2.1058
  220SOL    HW2  660   1.530   0.137   0.022  1.4545 -1.5344 -0.4329
  221SOL     OW  661   3.035   0.850   0.395  0.7629 -0.2980  0.0162
  221SOL    HW1  662   2.982   0.936   0.407  2.9227  1.0298  0.2718
  221SOL    HW2  663   2.997   0.800   0.316  0.4888  1.2278 -0.8457
  222SOL     OW  664   1.640   1.308   0.717 -0.7089 -0.1459 -0.6270
  222SOL    HW1  665   1.679   1.385   0.768  0.5185 -0.6949 -0.7189
  222SOL    HW2  666   1.594   1.340   0.632 -0.5501  0.2947 -0.5439
  223SOL     OW  667   0.851   0.304   2.736  0.1896 -0.5112  0.2498
  223SOL    HW1  668   0.905   0.384   2.706 -0.0812 -0.2595  0.4294
  223SOL    HW2  669   0.888   0.250   2.813 -2.5830 -2.7954  0.0706
  224SOL     OW  670   1.143   2.881   0.576 -0.6272  0.0207  0.0588
  224SOL    HW1  671   1.059   2.826   0.562  0.5229 -1.9795  0.7632
  224SOL    HW2  672   1.186   2.891   0.485 -0.1865  0.0274  0.2708
  225SOL     OW  673   1.028   0.303   2.307 -0.2458 -0.0071  0.3756
  225SOL    HW1  674   0.935   0.331   2.336  0.3698  0.9869  1.4589
  225SOL    HW2  675   1.043   0.315   2.208 -1.0367  0.9705  0.3707
  226SOL     OW  676   0.883   1.811   0.473 -0.1328  0.4323 -0.2290
  226SOL    HW1  677   0.876   1.768   0.382 -0.3450  0.9144 -0.4427
  226SOL    HW2  678   0.804   1.785   0.531 -0.1805 -0.6336 -0.7623
  227SOL     OW  679   3.078   2.318   1.443 -0.4262  0.6520 -0.0769
  227SOL    HW1  680   3.036   2.410   1.440  0.9348  1.2403 -1.4567
  227SOL    HW2  681   3.171   2.329   1.483  0.1336  2.2905 -1.7613
  228SOL     OW  682   0.002   1.822   0.155 -0.2511 -0.2501 -0.2515
  228SOL    HW1  683   0.014   1.893   0.227  0.6589 -0.4922 -0.1593
  228SOL    HW2  684   0.070   1.749   0.168  1.1459  1.2736  1.2298
  229SOL     OW  685   2.427   0.097   2.942  0.3321 -0.0528 -0.2244
  229SOL    HW1  686   2.454   0.194   2.955  0.8964 -0.1172 -0.9136
  229SOL    HW2  687   2.442   0.052   3.032 -3.6404 -0.9526  0.0635
  230SOL     OW  688   2.488   0.635   0.181 -0.3905 -0.3288  0.2683
  230SOL    HW1  689   2.466   0.720   0.231 -0.1812  0.1270 -0.3993
  230SOL    HW2  690   2.569   0.590   0.219 -0.5176 -0.2881  0.5919
  231SOL     OW  691   1.898   1.909   0.283 -0.3735 -0.0781 -0.2389
  231SOL    HW1  692   1.895   2.003   0.244  1.3502 -0.4433 -1.3130
  231SOL    HW2  693   1.821   1.853   0.247 -1.4041  1.4083 -0.3729
  232SOL     OW  694   1.846   1.824   1.109  0.2315 -0.0081  0.0901
  232SOL    HW1  695   1.878   1.738   1.067 -0.3889 -1.0167  1.6172
  232SOL    HW2  696   1.810   1.876   1.030 -0.6628 -0.4669  0.1830
  233SOL     OW  697   0.830   2.877   2.056  0.4602  0.3355  0.2669
  233SOL    HW1  698   0.836   2.977   2.069 -0.6167  0.3243  0.9507
  233SOL    HW2  699   0.892   2.849   1.981 -0.8339 -0.0677 -0.6749
  234SOL     OW  700   0.783   0.399   2.386 -0.2813  0.1488  0.6686
  234SOL    HW1  701   0.812   0.486   2.427 -0.5310  1.1277 -1.1682
  234SOL    HW2  702   0.750   0.410   2.291  1.4201  0.0773  0.0464
  235SOL     OW  703   2.424   1.181   1.925 -0.5133  0.0452 -0.8203
  235SOL    HW1  704   2.440   1.094   1.877  2.0756  0.8495 -1.5392
  235SOL    HW2  705   2.493   1.197   1.998 -0.5175 -0.5279 -0.6858
  236SOL     OW  706   1.475   2.814   1.484  0.3323 -0.6275 -0.1663
  236SOL    HW1  707   1.557   2.848   1.435  0.3244  1.4027  1.1768
  236SOL    HW2  708   1.388   2.849   1.447  0.5188  1.1041  0.9837
  237SOL     OW  709   0.620   1.467   2.493 -0.4663 -0.0155  0.0491
  237SOL    HW1  710   0.701   1.502   2.444  0.1047  0.1301  1.0760
  237SOL    HW2  711   0.597   1.536   2.564  1.0703  0.8680 -0.2943
  238SOL     OW  712   1.126   1.047   1.580  0.1841  0.4374 -0.5066
  238SOL    HW1  713   1.052   1.113   1.603  0.4781  0.0943  1.5169
  238SOL    HW2  714   1.166   1.074   1.491  2.1483 -1.7998 -0.3334
  239SOL     OW  715   0.946   1.592   2.658 -0.6021  0.2160 -0.4483
  239SOL    HW1  716   0.854   1.628   2.682 -0.3012  0.5510  0.2165
  239SOL    HW2  717   1.004   1.666   2.620  0.3562 -0.2143  0.1350
  240SOL     OW  718   2.295   1.897   0.404  0.5304 -0.2294  0.3277
  240SOL    HW1  719   2.223   1.946   0.456 -0.5471 -0.7429 -0.6457
  240SOL    HW2  720   2.254   1.859   0.320 -0.9706  0.3901  0.7487
  241SOL     OW  721   0.428   1.200   2.880  0.0050  0.0082 -0.2305
  241SOL    HW1  722   0.464   1.118   2.834 -1.9762 -1.5146  0.8684
  241SOL    HW2  723   0.348   1.175   2.937  0.8100 -2.6524 -0.2003
  242SOL     OW  724   1.376   2.569   1.991 -0.3262  0.4859 -0.0618
  242SOL    HW1  725   1.473   2.564   1.963 -0.1761  2.3135  0.0900
  242SOL    HW2  726   1.358   2.648   2.052 -0.3680 -1.7550  2.9660
  243SOL     OW  727   1.047   2.789   1.888  0.9099  0.2071  0.4692
  243SOL    HW1  728   1.087   2.702   1.858 -0.4848 -0.8528  1.6356
  243SOL    HW2  729   1.087   2.831   1.971  1.0732  0.2186  0.3852
  244SOL     OW  730   2.450   0.546   2.068 -0.2720  0.2793  0.5769
  244SOL    HW1  731   2.519   0.543   2.142  0.2408  0.5572  0.1163
  244SOL    HW2  732   2.477   0.617   2.000  0.3942 -1.4873 -1.0380
  245SOL     OW  733   1.544   1.868   0.583 -0.6693 -0.1294  0.1906
  245SOL    HW1  734   1.464   1.879   0.644  0.8665 -4.5547  3.3111
  245SOL    HW2  735   1.513   1.905   0.494 -0.4528 -0.1064  0.1233
  246SOL     OW  736   1.494   3.072   0.386  0.0197 -0.7157  0.2936
  246SOL    HW1  737   1.495   3.119   0.296 -1.8937 -0.4514  0.3848
  246SOL    HW2  738   1.499   2.971   0.374 -0.3690 -0.7663  0.5711
  247SOL     OW  739   1.800   0.413   2.115 -0.2131 -0.4220  0.5585
  247SOL    HW1  740   1.727   0.477   2.142 -0.1991  0.9187 -2.4131
  247SOL    HW2  741   1.889   0.459   2.128 -1.0470  1.1528  0.7840
  248SOL     OW  742   0.301   2.779   1.494  0.3924 -0.0867 -0.3570
  248SOL    HW1  743   0.358   2.853   1.454  1.3389 -0.6274 -0.0162
  248SOL    HW2  744   0.367   2.711   1.530  1.6954  0.2596 -2.0642
  249SOL     OW  745   0.505   0.025   0.415  0.1394 -0.4302 -0.1440
  249SOL    HW1  746   0.545   0.096   0.355 -1.0186 -0.0621 -0.4830
  249SOL    HW2  747   0.408   0.008   0.394  0.2927 -3.0112  0.9892
  250SOL     OW  748   2.351   0.099   2.101 -0.3619 -0.4512  0.2234
  250SOL    HW1  749   2.381   0.007   2.132  2.5598 -0.7283 -3.1745
  250SOL    HW2  750   2.262   0.088   2.053  1.0719 -1.4399 -2.3215
  251SOL     OW  751   1.375   0.926   0.049 -0.4318  0.0285 -0.4786
  251SOL    HW1  752   1.475   0.934   0.062 -0.1457  0.9852 -2.9476
  251SOL    HW2  753   1.350   0.980  -0.034  0.5611  0.9935 -0.1533
  252SOL     OW  754   1.443   2.310   2.567  0.1043 -0.0604  0.0063
  252SOL    HW1  755   1.530   2.360   2.583  0.6103 -0.6519 -0.9064
  252SOL    HW2  756   1.377   2.323   2.643  1.4794  0.5774  1.1214
  253SOL     OW  757   2.460   2.628   0.541  0.2152  0.5368 -0.0633
  253SOL    HW1  758   2.525   2.579   0.602  1.6276  2.9478  0.4316
  253SOL    HW2  759   2.400   2.568   0.487  3.8538 -2.2847 -1.2413
  254SOL     OW  760   1.861   0.891   1.458 -0.4512 -0.0625  0.1438
  254SOL    HW1  761   1.935   0.934   1.404 -0.6821  2.5072  1.8055
  254SOL    HW2  762   1.820   0.810   1.413  0.6690 -0.7032  0.2606
  255SOL     OW  763   0.973   2.457   1.499  0.2200 -0.2117 -0.0349
  255SOL    HW1  764   0.878   2.444   1.467  0.4156 -0.2574 -0.5979
  255SOL    HW2  765   1.011   2.542   1.461 -2.0632  0.8365 -0.0575
  256SOL     OW  766   2.233   1.867   1.785  0.4719  0.1893 -0.2960
  256SOL    HW1  767   2.239   1.950   1.728  1.1496  1.8254  2.0557
  256SOL    HW2  768   2.298   1.793   1.765 -1.7442 -1.7588 -0.5056
  257SOL     OW  769   0.842   2.752   2.579  0.3185  0.5634  0.5397
  257SOL    HW1  770   0.814   2.729   2.673 -0.1728 -0.7018  0.0949
  257SOL    HW2  771   0.791   2.697   2.511  2.6900 -0.0146 -0.8339
  258SOL     OW  772   0.692   2.574   0.913 -0.4430  0.0657  0.4324
  258SOL    HW1  773   0.726   2.519   0.835  0.0833 -2.4913  2.3882
  258SOL    HW2  774   0.762   2.567   0.986  2.8916  3.1649 -2.2680
  259SOL     OW  775   1.478   0.345   2.917  0.4881 -0.2606  0.1294
  259SOL    HW1  776   1.537   0.394   2.983  0.2160 -0.8770  0.8360
  259SOL    HW2  777   1.438   0.399   2.842 -0.0680 -1.7317 -0.6374
  260SOL     OW  778   0.423   0.260   1.014 -0.5256  0.4335 -0.4757
  260SOL    HW1  779   0.401   0.358   1.030  1.4357  0.7183  0.5710
  260SOL    HW2  780   0.355   0.216   0.952 -0.9708 -0.2293  0.4590
  261SOL     OW  781   0.982   0.285   1.981 -0.0323  0.0271 -0.4467
  261SOL    HW1  782   0.981   0.254   1.885  0.3035 -1.3781  0.0004
  261SOL    HW2  783   1.036   0.215   2.029  0.8804  0.9524 -0.0880
  262SOL     OW  784   0.705   2.939   2.303  0.7710 -0.4150 -0.1899
  262SOL    HW1  785   0.641   2.897   2.369 -1.1237 -1.2586 -2.5148
  262SOL    HW2  786   0.751   2.869   2.246 -0.2325  0.4768 -2.1290
  263SOL     OW  787   0.744   2.134   0.084  0.8078 -0.3183 -0.4531
  263SOL    HW1  788   0.647   2.120   0.111  0.9014 -0.8142 -0.3695
  263SOL    HW2  789   0.781   2.047   0.048 -1.2815 -1.1250 -0.7188
  264SOL     OW  790   1.191   1.649   1.030  0.7807  0.0868 -0.5923
  264SOL    HW1  791   1.099   1.611   1.049  0.7510 -0.0005 -0.9080
  264SOL    HW2  792   1.187   1.747   1.003 -0.4848  0.1377 -0.2921
  265SOL     OW  793   0.801   2.441   0.075  0.0926  0.1472  0.5703
  265SOL    HW1  794   0.804   2.341   0.058  0.6240  0.7582 -3.6759
  265SOL    HW2  795   0.712   2.479   0.047  0.6672  0.6810 -0.6040
  266SOL     OW  796   2.791   0.988   1.019 -0.4225  0.0448 -0.1943
  266SOL    HW1  797   2.852   1.054   1.065  1.9599 -1.7295 -0.7113
  266SOL    HW2  798   2.698   1.007   1.053 -0.5550  1.9578 -1.5185
  267SOL     OW  799   0.179   1.631   0.249 -0.0082  0.5041  0.2686
  267SOL    HW1  800   0.098   1.572   0.231  0.4585  0.1970 -0.9157
  267SOL    HW2  801   0.251   1.595   0.187 -2.5851 -2.7357 -1.0300
  268SOL     OW  802   1.312   0.373   0.523 -0.2096  0.1909  0.1893
  268SOL    HW1  803   1.352   0.453   0.571 -0.4259  0.7532 -0.5512
  268SOL    HW2  804   1.356   0.371   0.432  0.7306 -1.2240  0.6568
  269SOL     OW  805   2.617   0.559   2.288  0.0944 -0.5618  0.1825
  269SOL    HW1  806   2.629   0.509   2.375  0.5611 -0.9390 -0.0961
  269SOL    HW2  807   2.701   0.552   2.232  0.3118  0.2352  0.3999
  270SOL     OW  808   2.599   1.184   0.810  0.6780 -0.0139 -0.1248
  270SOL    HW1  809   2.539   1.103   0.817  1.9032 -0.8234  1.5477
  270SOL    HW2  810   2.668   1.160   0.880  1.2350  2.0729  0.0766
  271SOL     OW  811   0.219   1.334   2.230  0.0515  0.2693  0.1168
  271SOL    HW1  812   0.157   1.409   2.200  1.4568  0.3707 -2.7284
  271SOL    HW2  813   0.277   1.300   2.154  1.3871  2.1558  0.2693
  272SOL     OW  814   2.546   2.469   1.934  0.2440  0.8520  0.3312
  272SOL    HW1  815   2.629   2.419   1.904 -0.3635  0.2504 -0.3636
  272SOL    HW2  816   2.534   2.447   2.032 -1.4624  0.4769  0.0576
  273SOL     OW  817   0.216   2.837   2.904 -0.3697  0.5360 -0.0892
  273SOL    HW1  818   0.236   2.774   2.827  2.8154 -0.5465  1.5683
  273SOL    HW2  819   0.233   2.786   2.989 -1.5336  1.7956  0.9188
  274SOL     OW  820   0.994   2.249   1.037  0.1781  0.3444 -0.0690
  274SOL    HW1  821   0.914   2.220   0.982 -0.4139 -0.2567  1.0600
  274SOL    HW2  822   1.082   2.235   0.989  0.5874 -0.5914  0.9251
  275SOL     OW  823   1.196   1.793   2.905  0.0171  0.4745 -0.6044
  275SOL    HW1  824   1.187   1.807   2.805 -0.1968  0.3615 -0.6017
  275SOL    HW2  825   1.142   1.865   2.951  1.8541  1.2176  0.4303
  276SOL     OW  826   2.842   1.817   2.027  0.7696  0.0369  0.0797
  276SOL    HW1  827   2.882   1.724   2.030 -1.0671 -0.7380  2.0752
  276SOL    HW2  828   2.779   1.829   1.949  0.2681  4.2121  1.0171
  277SOL     OW  829   2.246   0.253   0.790 -0.4025  0.0542 -0.4437
  277SOL    HW1  830   2.272   0.204   0.875 -1.6668  0.0428 -0.0529
  277SOL    HW2  831   2.169   0.205   0.746  0.2804 -0.4580 -1.0854
  278SOL     OW  832   1.547   0.105   2.450 -0.0789  0.2320  0.2636
  278SOL    HW1  833   1.487   0.183   2.474  0.0920  0.2239  0.7131
  278SOL    HW2  834   1.616   0.130   2.381 -0.5636 -1.8475 -1.0076
  279SOL     OW  835   1.240   2.888   1.356  0.0123  0.4093  0.1340
  279SOL    HW1  836   1.233   2.937   1.268  0.1794 -0.2336 -0.2433
  279SOL    HW2  837   1.161   2.828   1.375 -0.6246  1.1489 -0.1598
  280SOL     OW  838   1.346   1.057   0.480 -0.1431  0.3619  0.0741
  280SOL    HW1  839   1.339   1.153   0.449 -0.0270 -0.0428 -1.2145
  280SOL    HW2  840   1.297   1.005   0.408 -1.4549 -2.3007  2.7650
  281SOL     OW  841   2.007   1.772   0.643 -0.2303  0.1297 -0.2748
  281SOL    HW1  842   1.933   1.829   0.606 -1.3988 -2.3935 -1.9600
  281SOL    HW2  843   1.968   1.693   0.692  0.8887  0.9217  1.9727
  282SOL     OW  844   3.030   1.491   0.475 -0.4986 -0.0376 -0.4331
  282SOL    HW1  845   3.081   1.528   0.554 -1.2772  0.5584 -0.1986
  282SOL    HW2  846   3.025   1.390   0.476  3.6500 -0.3165 -0.3182
  283SOL     OW  847   2.296   2.517   0.004  0.4501  0.1934 -0.2175
  283SOL    HW1  848   2.282   2.455   0.082  2.8404  1.7683  1.5191
  283SOL    HW2  849   2.359   2.471  -0.061 -0.5097  0.1472 -1.1446
  284SOL     OW  850   0.259   0.043   2.598  0.8538  0.2289  0.4401
  284SOL    HW1  851   0.236   0.099   2.517  0.6599 -1.7143 -0.8795
  284SOL    HW2  852   0.196  -0.036   2.592 -1.3836  1.9813  0.1928
  285SOL     OW  853   1.712   1.760   0.110 -0.0705 -0.3089 -0.0964
  285SOL    HW1  854   1.727   1.820   0.029 -2.1139  1.3736  0.7269
  285SOL    HW2  855   1.624   1.710   0.106 -1.2565  1.6692  0.6084
  286SOL     OW  856   1.254   1.934   1.668 -0.1571  0.7892  0.2569
  286SOL    HW1  857   1.231   1.936   1.569 -1.4609 -1.1281  0.5012
  286SOL    HW2  858   1.242   1.835   1.688  0.8452  0.8426  1.1312
  287SOL     OW  859   1.921   2.943   1.214 -0.1817 -0.0063 -0.2961
  287SOL    HW1  860   1.913   3.040   1.185 -3.1694 -0.8258 -2.3439
  287SOL    HW2  861   2.013   2.909   1.188 -0.3959  1.1714 -2.7367
  288SOL     OW  862   0.604   2.700   2.059 -0.2649 -0.2589  0.0336
  288SOL    HW1  863   0.562   2.698   1.968 -2.9049 -1.7361  1.2172
  288SOL    HW2  864   0.685   2.760   2.052  1.6521 -2.7535  0.3051
  289SOL     OW  865   2.957   1.596   0.818 -0.0177 -0.0944 -0.6269
  289SOL    HW1  866   2.951   1.697   0.821  1.8050  0.0122 -0.1323
  289SOL    HW2  867   2.869   1.557   0.787 -1.6320  0.2759  3.2263
  290SOL     OW  868   0.941   1.807   2.380 -0.1265  0.2001 -0.5614
  290SOL    HW1  869   0.887   1.836   2.299  0.0614 -0.8238 -1.0677
  290SOL    HW2  870   1.010   1.877   2.403 -1.1275  0.3187  2.2982
  291SOL     OW  871   2.066   0.509   0.217 -0.2734  0.0074 -0.1414
  291SOL    HW1  872   2.008   0.429   0.241  0.1639  0.1419  1.4016
  291SOL    HW2  873   2.090   0.561   0.300 -0.2566 -1.3903  0.7354
  292SOL     OW  874   0.914   0.315   1.639  0.1114  0.4469  0.0198
  292SOL    HW1  875   0.957   0.400   1.673 -2.7067  2.4842 -1.2763
  292SOL    HW2  876   0.882   0.329   1.544 -2.5115  0.2999  0.8467
  293SOL     OW  877   2.158   1.055   1.054 -0.5178  0.0215 -0.2795
  293SOL    HW1  878   2.245   1.060   1.001 -0.2825  0.7483  0.1575
  293SOL    HW2  879   2.101   0.982   1.014 -1.6842 -1.4553  3.8640
  294SOL     OW  880   0.315   0.325   2.061  0.3851  0.0232  0.5948
  294SOL    HW1  881   0.249   0.249   2.073 -1.4207  1.7129  1.7784
  294SOL    HW2  882   0.284   0.418   2.086  0.6849 -0.1993  1.8321
  295SOL     OW  883   1.317   1.318   0.075  0.0850  0.3276 -0.6868
  295SOL    HW1  884   1.300   1.312  -0.024  1.0573 -0.2277 -0.8263
  295SOL    HW2  885   1.255   1.262   0.134 -1.3770  1.7729 -0.8145
  296SOL     OW  886   2.022   1.017   0.704 -0.3462 -0.0626 -0.5741
  296SOL    HW1  887   1.977   1.060   0.624 -1.0148  1.2091  0.4632
  296SOL    HW2  888   1.961   1.050   0.777 -1.2743  0.9039 -1.7608
  297SOL     OW  889   1.921   0.322   2.409 -0.4992  0.4528  0.0450
  297SOL    HW1  890   1.975   0.237   2.399 -0.1257  0.8535 -1.5712
  297SOL    HW2  891   1.848   0.325   2.339  0.9043 -0.6105 -1.5229
  298SOL     OW  892   1.007   0.522   2.765  0.6345  0.1469 -0.5448
  298SOL    HW1  893   0.939   0.546   2.836 -0.0246 -1.7370 -0.5180
  298SOL    HW2  894   1.099   0.504   2.802  0.6119 -1.0429 -1.0509
  299SOL     OW  895   1.321   0.744   1.720  0.0186 -0.5341 -0.2766
  299SOL    HW1  896   1.249   0.727   1.651 -1.4055  0.8961  0.8054
  299SOL    HW2  897   1.303   0.744   1.819  1.6112  2.0736  0.0723
  300SOL     OW  898   2.332   0.346   1.188  0.1392 -0.4006 -0.0860
  300SOL    HW1  899   2.237   0.310   1.188 -0.5284  1.2799 -1.7886
  300SOL    HW2  900   2.346   0.399   1.104 -1.8210 -0.8491 -0.7337
  301SOL     OW  901   1.533   0.332   1.777  0.3948 -0.6861 -0.3672
  301SOL    HW1  902   1.434   0.309   1.776  0.0592  0.6816 -0.1762
  301SOL    HW2  903   1.545   0.432   1.779 -1.4891 -0.4474 -0.3044
  302SOL     OW  904   0.724   2.633   2.371  0.3414  0.0165 -0.4746
  302SOL    HW1  905   0.638   2.609   2.324  0.6923  2.0030 -2.2067
  302SOL    HW2  906   0.798   2.601   2.310 -1.3695 -1.2634 -1.9144
  303SOL     OW  907   1.491   1.602   1.806 -0.1199  0.5493 -0.2238
  303SOL    HW1  908   1.419   1.641   1.746  1.3995  1.9442 -1.1894
  303SOL    HW2  909   1.458   1.513   1.840  1.2189  0.3160  0.4640
  304SOL     OW  910   0.065   2.873   0.796 -0.3901  0.2338 -0.0853
  304SOL    HW1  911   0.097   2.874   0.700 -2.0156 -0.5411 -0.6566
  304SOL    HW2  912   0.026   2.963   0.820  1.2307 -0.0348  3.9530
  305SOL     OW  913   1.785   0.500   0.491 -0.0006 -0.2855 -0.2782
  305SOL    HW1  914   1.814   0.554   0.572  0.2828 -1.2405  0.2681
  305SOL    HW2  915   1.852   0.425   0.481  0.7992  0.1958  1.2869
  306SOL     OW  916   0.617   1.535   0.059 -0.6523  0.3310 -0.0448
  306SOL    HW1  917   0.570   1.625   0.057 -2.6270 -0.6122  2.3881
  306SOL    HW2  918   0.700   1.542   0.118 -0.3090  1.6012 -0.6603
  307SOL     OW  919   0.412   1.118   1.740  0.6743 -0.0450  0.1174
  307SOL    HW1  920   0.384   1.023   1.760  0.0845 -0.0746 -0.8311
  307SOL    HW2  921   0.429   1.132   1.641  0.4248  1.4750  0.2770
  308SOL     OW  922   0.753   0.640   1.183 -0.0358  0.3093 -0.0992
  308SOL    HW1  923   0.842   0.611   1.221 -0.0510 -1.4356 -1.3165
  308SOL    HW2  924   0.722   0.727   1.223 -0.2866 -0.0321  0.4419
  309SOL     OW  925   1.694   0.442   3.094  0.3034  0.1795 -0.1241
  309SOL    HW1  926   1.660   0.533   3.121  0.8440  0.0752  0.9134
  309SOL    HW2  927   1.717   0.388   3.176  0.0077 -2.1302 -1.5072
  310SOL     OW  928   1.316   0.547   0.182  0.4422 -0.1778 -0.2506
  310SOL    HW1  929   1.346   0.466   0.234 -0.6524 -0.6325 -0.3267
  310SOL    HW2  930   1.394   0.588   0.133  1.0250 -0.9604  0.0071
  311SOL     OW  931   1.702   2.817   2.380  0.2564 -0.3395 -0.2559
  311SOL    HW1  932   1.801   2.824   2.401 -0.0032  2.3646  0.2393
  311SOL    HW2  933   1.682   2.744   2.313  0.1634  0.1503 -0.7639
  312SOL     OW  934   1.935   0.016   2.984 -0.0022 -0.5850 -0.1354
  312SOL    HW1  935   1.918  -0.071   3.033  0.8918 -1.4620 -1.3417
  312SOL    HW2  936   1.977   0.090   3.040 -1.4498 -2.2562  3.3093
  313SOL     OW  937   0.235   0.707   0.621 -0.1919 -0.0870 -0.0356
  313SOL    HW1  938   0.229   0.696   0.520 -2.3360 -0.6314  0.1138
  313SOL    HW2  939   0.209   0.799   0.653 -0.8580 -0.3676  0.2488
  314SOL     OW  940   2.596   1.024   2.902  0.1450 -0.3355  0.0467
  314SOL    HW1  941   2.560   0.945   2.954  0.6491  1.0126  2.5210
  314SOL    HW2  942   2.661   1.073   2.962  0.1873 -0.2003 -0.1093
  315SOL     OW  943   1.749   0.913   1.877  0.5608 -0.1109  0.0645
  315SOL    HW1  944   1.811   0.837   1.903 -1.4625 -1.9908 -0.4523
  315SOL    HW2  945   1.784   1.007   1.889 -0.5005  0.1506  1.1909
  316SOL     OW  946   0.176   0.838   0.864  0.6579 -0.1910 -0.1283
  316SOL    HW1  947   0.204   0.822   0.960 -0.1324  0.6521  0.2488
  316SOL    HW2  948   0.132   0.929   0.857  0.2553 -0.4743 -1.4432
  317SOL     OW  949   0.507   0.490   0.272 -0.8039 -0.3002  0.6712
  317SOL    HW1  950   0.453   0.458   0.352 -1.8070 -0.1730  0.0589
  317SOL    HW2  951   0.557   0.574   0.297 -3.0977  1.3944 -0.2184
  318SOL     OW  952   2.556   2.913   1.357 -0.1913  0.1167 -0.1734
  318SOL    HW1  953   2.569   2.840   1.426  1.8844 -1.0439 -1.7105
  318SOL    HW2  954   2.504   2.993   1.391  0.0955 -0.9706  3.0203
  319SOL     OW  955   1.616   2.268   0.210 -0.1761  0.3421 -0.2523
  319SOL    HW1  956   1.608   2.351   0.267  0.7824  0.4506 -0.2651
  319SOL    HW2  957   1.560   2.277   0.126  0.4217  0.6542 -0.6240
  320SOL     OW  958   0.338   1.949   0.976  1.1427  0.2426 -0.0299
  320SOL    HW1  959   0.390   1.890   0.912  0.6047  0.8280 -1.0218
  320SOL    HW2  960   0.355   1.931   1.074  2.0784  0.7239 -0.0950
  321SOL     OW  961   1.931   2.196   2.360  0.2135 -0.0774 -0.3610
  321SOL    HW1  962   1.841   2.151   2.357  0.8849 -1.5210  0.4071
  321SOL    HW2  963   1.986   2.164   2.281  0.1233 -2.9975  0.6947
  322SOL     OW  964   2.924   2.228   2.184  0.0174  0.3898  0.0828
  322SOL    HW1  965   2.998   2.263   2.125  1.9434 -1.3910  1.3531
  322SOL    HW2  966   2.961   2.161   2.250 -2.6490 -1.1078  0.1472
  323SOL     OW  967   2.853   0.591   0.535 -0.6341  0.2143 -0.2534
  323SOL    HW1  968   2.890   0.654   0.604  2.2235 -3.0540  1.3625
  323SOL    HW2  969   2.919   0.516   0.518 -0.2152  0.2964  1.0120
  324SOL     OW  970   2.244   1.860   2.395 -0.0362 -0.4155 -0.7061
  324SOL    HW1  971   2.149   1.888   2.372 -0.9978 -1.4321  1.8470
  324SOL    HW2  972   2.251   1.852   2.495  0.8246  1.4858 -0.6012
  325SOL     OW  973   1.514   0.216   2.014  0.3423 -0.2177  0.2438
  325SOL    HW1  974   1.523   0.259   1.923 -1.9054  1.7861  0.9191
  325SOL    HW2  975   1.603   0.200   2.060  0.3094 -1.3219 -0.0630
  326SOL     OW  976   2.649   2.017   0.280 -0.1209 -0.0243 -0.4596
  326SOL    HW1  977   2.601   2.022   0.369 -1.0559 -0.0291 -0.9625
  326SOL    HW2  978   2.715   1.940   0.271 -0.6788 -0.9815  2.8270
  327SOL     OW  979   2.632   2.907   2.885  0.6608 -0.6858  0.1034
  327SOL    HW1  980   2.544   2.954   2.866  0.6914 -1.2490 -1.4224
  327SOL    HW2  981   2.621   2.806   2.887  0.0580 -0.6161  0.4397
  328SOL     OW  982   0.556   0.657   0.509  0.1759 -0.3868  0.0818
  328SOL    HW1  983   0.502   0.573   0.496 -0.1401  0.0116 -1.2157
  328SOL    HW2  984   0.650   0.638   0.543 -0.3302 -1.0945  1.0948
  329SOL     OW  985   2.124   0.529   1.719 -0.2802  0.4351 -0.2579
  329SOL    HW1  986   2.162   0.472   1.793 -0.7291 -0.0381 -0.3826
  329SOL    HW2  987   2.026   0.554   1.726 -0.2964 -0.0701  1.6493
  330SOL     OW  988   1.411   0.132   0.809  0.4546 -0.3019 -0.8147
  330SOL    HW1  989   1.415   0.233   0.821 -0.4585 -0.1549 -1.6296
  330SOL    HW2  990   1.349   0.111   0.732 -1.7215  0.6585  0.6258
  331SOL     OW  991   0.713   2.178   1.227  0.0867 -0.6605 -0.4386
  331SOL    HW1  992   0.620   2.217   1.220 -0.2536 -1.0389  1.7684
  331SOL    HW2  993   0.787   2.246   1.241  0.3753 -1.1967  0.6428
  332SOL     OW  994   1.891   2.012   1.724 -0.1153 -0.6914 -0.6245
  332SOL    HW1  995   1.869   1.942   1.655  1.1380 -1.6678 -0.0675
  332SOL    HW2  996   1.831   1.993   1.803 -1.0053  1.8821 -0.6389
  333SOL     OW  997   2.831   3.038   1.019 -0.2196 -0.5505 -0.3193
  333SOL    HW1  998   2.823   3.116   1.083 -0.7515 -2.0322  1.4575
  333SOL    HW2  999   2.746   2.984   1.024  0.7059 -2.0216 -0.1888
  334SOL     OW 1000   3.080   1.796   1.420 -0.1470  0.0376 -0.0159
  334SOL    HW1 1001   3.141   1.716   1.423 -1.5585 -1.0402  0.8502
  334SOL    HW2 1002   2.985   1.767   1.442  0.7771 -2.2949  1.0000
  335SOL     OW 1003   0.786   3.035   2.579  0.6030  0.1608 -0.2262
  335SOL    HW1 1004   0.791   2.936   2.556  0.1609  0.3001 -0.9635
  335SOL    HW2 1005   0.838   3.090   2.511 -2.0037  0.8808 -1.7406
  336SOL     OW 1006   0.088   2.735   1.696  0.1917  0.4340 -0.3723
  336SOL    HW1 1007   0.082   2.636   1.714  4.7399 -0.3414 -2.3329
  336SOL    HW2 1008   0.144   2.758   1.614  4.1186  0.8910  2.2912
  337SOL     OW 1009   1.054   1.983   1.991  0.1680  0.0641  0.2006
  337SOL    HW1 1010   1.055   2.075   1.950 -3.5254 -0.0227 -0.2102
  337SOL    HW2 1011   1.131   1.958   2.053  0.4826 -1.9083 -0.9276
  338SOL     OW 1012   1.235   3.054   2.502 -0.3326  0.5459 -0.0900
  338SOL    HW1 1013   1.195   2.970   2.542 -1.7132  0.6474 -1.2149
  338SOL    HW2 1014   1.326   3.035   2.462  0.3582 -0.8902  2.0688
  339SOL     OW 1015   2.932   1.705   3.063 -0.2171  0.1700 -0.2922
  339SOL    HW1 1016   2.974   1.681   2.975 -2.0529  0.7762 -1.3731
  339SOL    HW2 1017   2.999   1.748   3.126 -1.2575  0.7031  0.4727
  340SOL     OW 1018   2.296   0.765   1.305 -0.1680  0.7825 -0.1850
  340SOL    HW1 1019   2.269   0.697   1.375 -1.1900  1.1835 -0.1783
  340SOL    HW2 1020   2.238   0.750   1.223 -1.3032  2.5317  0.2679
  341SOL     OW 1021   1.969   1.457   0.658  0.3157  0.6151 -0.5168
  341SOL    HW1 1022   2.035   1.391   0.695 -1.6779 -0.5476  1.1272
  341SOL    HW2 1023   1.993   1.487   0.565  1.9384  0.5814 -0.1100
  342SOL     OW 1024   2.285   2.207   2.904 -0.2917  0.2338  0.6472
  342SOL    HW1 1025   2.250   2.116   2.930  2.0835 -1.2126 -0.9975
  342SOL    HW2 1026   2.378   2.220   2.941 -0.7386  1.8318  1.2519
  343SOL     OW 1027   2.887   2.593   1.138  0.0754 -0.5559  0.3501
  343SOL    HW1 1028   2.791   2.619   1.159  0.4880  1.9587 -0.6861
  343SOL    HW2 1029   2.933   2.669   1.090  2.0728 -0.4214  2.3594
  344SOL     OW 1030   2.985   2.796   0.978  0.0982 -0.3360 -0.0015
  344SOL    HW1 1031   2.938   2.884   0.994  0.3707 -0.2297  0.2244
  344SOL    HW2 1032   3.063   2.806   0.914 -0.9143  2.4064 -0.8895
  345SOL     OW 1033   2.221   2.066   0.104 -0.5294 -0.3576 -0.9305
  345SOL    HW1 1034   2.192   1.988   0.161  0.7180  0.0442  0.3057
  345SOL    HW2 1035   2.319   2.046   0.084 -0.9926 -0.9989 -2.5747
  346SOL     OW 1036   1.146   2.195   1.796 -0.1844 -0.4681 -0.1701
  346SOL    HW1 1037   1.182   2.112   1.751  1.8166 -0.0717  0.6379
  346SOL    HW2 1038   1.156   2.275   1.734  0.7874  0.5303  1.2455
  347SOL     OW 1039   1.689   2.063   2.314 -0.2166 -0.2786  0.4830
  347SOL    HW1 1040   1.595   2.099   2.321  0.1106  1.0937 -1.6881
  347SOL    HW2 1041   1.695   1.976   2.262  0.7574 -0.7974  1.4205
  348SOL     OW 1042   0.464   1.792   1.228 -0.3948 -0.0247  0.8551
  348SOL    HW1 1043   0.407   1.862   1.275 -0.3032  1.2401 -0.8854
  348SOL    HW2 1044   0.540   1.769   1.291  0.3186  0.5036  0.1955
  349SOL     OW 1045   1.627   1.325   1.690 -0.2808  0.4379  0.7935
  349SOL    HW1 1046   1.628   1.285   1.783  2.3897 -2.1469 -0.2623
  349SOL    HW2 1047   1.536   1.324   1.646  0.3313 -1.1450 -0.4731
  350SOL     OW 1048   2.073   2.017   0.837 -0.2475  0.2335  1.0495
  350SOL    HW1 1049   2.011   1.947   0.799  0.1718  0.1110  0.5788
  350SOL    HW2 1050   2.062   2.025   0.937  2.7319 -0.1364  1.4700
  351SOL     OW 1051   0.462   0.316   1.811 -0.0765  0.2940 -0.1559
  351SOL    HW1 1052   0.397   0.328   1.734 -0.5563  1.4870  0.4258
  351SOL    HW2 1053   0.418   0.286   1.897 -0.3962 -0.2249 -0.5004
  352SOL     OW 1054   0.795   1.119   0.271 -0.1123 -0.1109 -0.4300
  352SOL    HW1 1055   0.701   1.144   0.242 -0.4923 -0.1773  0.6921
  352SOL    HW2 1056   0.791   1.074   0.362 -2.2969 -0.6434 -0.7426
  353SOL     OW 1057   0.829   1.780   2.858 -0.8420 -0.8097  0.1297
  353SOL    HW1 1058   0.752   1.714   2.867 -1.6519  0.0646 -0.2666
  353SOL    HW2 1059   0.917   1.731   2.854 -0.2635  0.1269  1.1158
  354SOL     OW 1060   1.865   2.156   2.052  0.3023  0.0846  0.0536
  354SOL    HW1 1061   1.820   2.087   1.993 -0.6625 -0.3900  1.3265
  354SOL    HW2 1062   1.811   2.241   2.058  0.8105  0.3587  0.9474
  355SOL     OW 1063   2.078   0.778   0.115  0.8198 -0.2027  0.4986
  355SOL    HW1 1064   1.984   0.774   0.078  1.1184  3.3567 -0.9068
  355SOL    HW2 1065   2.091   0.691   0.164 -0.4340  0.2296  1.6313
  356SOL     OW 1066   0.458   2.220   0.899 -0.6218 -0.3103  0.4453
  356SOL    HW1 1067   0.426   2.266   0.814 -2.3719 -1.3420  0.5036
  356SOL    HW2 1068   0.418   2.127   0.899  2.0285 -1.4911 -0.5501
  357SOL     OW 1069   0.150   0.388   1.746  0.0006 -0.3368 -0.3934
  357SOL    HW1 1070   0.070   0.352   1.796  0.0243 -1.7382 -1.3528
  357SOL    HW2 1071   0.135   0.384   1.646 -0.0364 -0.5007 -0.3809
  358SOL     OW 1072   2.262   1.911   2.033  0.1836 -0.5560 -0.5142
  358SOL    HW1 1073   2.316   1.835   2.074  0.2830 -0.2140 -0.0130
  358SOL    HW2 1074   2.242   1.898   1.934  2.4870 -0.9471 -0.9662
  359SOL     OW 1075   1.999   1.801   2.225 -0.0453  0.0032 -0.3460
  359SOL    HW1 1076   2.047   1.749   2.153  0.6796  0.7902 -0.4378
  359SOL    HW2 1077   2.003   1.900   2.205  1.6979  0.3078  1.4267
  360SOL     OW 1078   1.351   2.599   0.946 -0.2213  0.1919  0.4820
  360SOL    HW1 1079   1.345   2.589   0.846 -1.5797 -1.7908  0.7325
  360SOL    HW2 1080   1.395   2.685   0.977  1.2531  0.1965 -1.5456
  361SOL     OW 1081   1.980   2.880   0.044  0.4981 -0.1914  0.5502
  361SOL    HW1 1082   2.043   2.812   0.086  0.5695 -1.2354 -1.2123
  361SOL    HW2 1083   1.897   2.835   0.009  0.8670 -1.5888  1.4429
  362SOL     OW 1084   1.678   0.284   1.065 -0.3986 -0.1341 -0.1463
  362SOL    HW1 1085   1.640   0.309   0.975 -1.7454 -2.8762 -0.3707
  362SOL    HW2 1086   1.629   0.327   1.143 -1.5653 -0.9693 -0.4149
  363SOL     OW 1087   1.609   1.619   2.578  0.3679  0.7319  0.0885
  363SOL    HW1 1088   1.609   1.614   2.679 -0.6313  0.0764  0.0609
  363SOL    HW2 1089   1.634   1.714   2.553 -0.8750  0.6454 -1.5357
  364SOL     OW 1090   1.036   0.594   1.196 -0.3715 -0.3212  0.0455
  364SOL    HW1 1091   1.125   0.631   1.169 -0.2070 -0.8517 -0.1517
  364SOL    HW2 1092   1.037   0.492   1.194 -1.4763 -0.3474  0.2760
  365SOL     OW 1093   1.207   0.774   2.767  0.6500 -0.1533 -0.6359
  365SOL    HW1 1094   1.175   0.681   2.745  1.5243 -0.1819 -1.8482
  365SOL    HW2 1095   1.167   0.815   2.851  1.4837 -0.2333 -0.1956
  366SOL     OW 1096   2.050   1.208   2.238 -0.2186 -0.1488  0.5366
  366SOL    HW1 1097   2.112   1.134   2.208  0.0021  0.1227  0.3307
  366SOL    HW2 1098   2.019   1.190   2.333 -2.2313 -2.0224 -0.4306
  367SOL     OW 1099   3.086   2.786   2.134  0.3861 -0.1979 -0.2105
  367SOL    HW1 1100   3.183   2.794   2.160  0.0261  0.9317  0.7903
  367SOL    HW2 1101   3.033   2.869   2.157  0.0938  0.2461 -2.3672
  368SOL     OW 1102   2.958   1.099   1.612  0.1415 -1.1195  0.2844
  368SOL    HW1 1103   2.902   1.017   1.595 -2.4603  0.3225  1.4613
  368SOL    HW2 1104   3.058   1.088   1.600  0.2329 -2.0967  1.9484
  369SOL     OW 1105   0.255   2.826   2.214  0.3051 -0.1438 -0.0947
  369SOL    HW1 1106   0.302   2.915   2.222  3.6750 -1.7697 -0.9019
  369SOL    HW2 1107   0.314   2.750   2.182 -0.7416 -0.4507 -1.3292
  370SOL     OW 1108   2.710   0.665   0.916 -0.2547  0.1035  0.6804
  370SOL    HW1 1109   2.720   0.591   0.984  1.1888  0.4390  0.8462
  370SOL    HW2 1110   2.735   0.756   0.952 -1.9144  0.2627  1.4831
  371SOL     OW 1111   0.703   2.761   1.384 -0.0015 -0.3367 -0.1497
  371SOL    HW1 1112   0.717   2.807   1.295 -2.1480  2.1704  0.7632
  371SOL    HW2 1113   0.704   2.831   1.457 -0.5533 -0.0799 -0.3804
  372SOL     OW 1114   2.297   0.264   2.332  0.5801  0.2782  0.2002
  372SOL    HW1 1115   2.339   0.203   2.263 -1.8097  0.0515 -1.1321
  372SOL    HW2 1116   2.200   0.238   2.349  0.0351  1.6321 -0.6951
  373SOL     OW 1117   0.082   2.108   0.944  0.4102  0.4883 -0.0559
  373SOL    HW1 1118   0.105   2.205   0.956  5.2777 -0.4200 -1.0046
  373SOL    HW2 1119   0.170   2.058   0.936  1.4325  2.1311  0.6725
  374SOL     OW 1120   3.027   0.109   2.373  0.4125 -0.3049  0.6765
  374SOL    HW1 1121   2.965   0.066   2.441 -1.3942  4.4570  2.2905
  374SOL    HW2 1122   3.124   0.109   2.400  1.6426  1.6830 -3.3624
  375SOL     OW 1123   0.563   0.456   2.792 -0.1834  0.5804  0.1173
  375SOL    HW1 1124   0.591   0.393   2.718 -1.2249 -1.7939  1.6634
  375SOL    HW2 1125   0.645   0.482   2.846  0.3706 -1.4457  0.2757
  376SOL     OW 1126   0.008   2.464   1.755 -0.5424 -0.2583 -0.3030
  376SOL    HW1 1127   0.054   2.397   1.695 -1.4129 -2.0202  0.9885
  376SOL    HW2 1128  -0.018   2.413   1.838  0.9573  0.9016  0.9231
  377SOL     OW 1129   1.200   0.649   2.504 -0.0973  0.3099 -0.0573
  377SOL    HW1 1130   1.260   0.726   2.476  1.2988 -0.8786 -0.3752
  377SOL    HW2 1131   1.102   0.675   2.514 -0.3141 -1.1167  1.9070
  378SOL     OW 1132   2.962   0.965   2.912  0.0855  0.3262  0.4852
  378SOL    HW1 1133   2.892   0.981   2.983 -1.4655 -0.2755 -0.8789
  378SOL    HW2 1134   2.981   1.043   2.851 -0.4930  0.2251  0.1629
  379SOL     OW 1135   1.470   0.886   2.591  0.1589  0.5502  0.2386
  379SOL    HW1 1136   1.425   0.901   2.501  0.6516 -0.1980 -0.1380
  379SOL    HW2 1137   1.407   0.858   2.665  0.4070 -0.4818  0.0662
  380SOL     OW 1138   0.354   2.049   1.575  0.1915  0.3917  0.2633
  380SOL    HW1 1139   0.254   2.035   1.570  0.3582 -0.7361 -0.0555
  380SOL    HW2 1140   0.406   2.049   1.488  0.4753  0.5000  0.4311
  381SOL     OW 1141   0.152   0.989   2.744  0.4532 -0.3922  0.0962
  381SOL    HW1 1142   0.093   1.036   2.676  2.5054 -0.5243 -1.8336
  381SOL    HW2 1143   0.191   0.907   2.699 -0.5927 -1.3423  0.8598
  382SOL     OW 1144   1.988   2.278   0.819 -0.1756  0.1478 -0.6149
  382SOL    HW1 1145   2.015   2.187   0.854 -0.2042 -0.3181 -1.7818
  382SOL    HW2 1146   2.060   2.341   0.853  1.2957 -2.1225  0.5846
  383SOL     OW 1147   0.532   1.638   0.393 -0.0279  0.4540 -0.3065
  383SOL    HW1 1148   0.527   1.623   0.493  0.0209 -0.3364 -0.4202
  383SOL    HW2 1149   0.569   1.555   0.349 -1.6625 -0.4682  0.0062
  384SOL     OW 1150   0.838   2.382   2.487 -0.6108  0.2071 -0.1340
  384SOL    HW1 1151   0.912   2.451   2.487  2.5675 -2.9832  1.7492
  384SOL    HW2 1152   0.783   2.384   2.402  0.2445  1.9212 -0.6715
  385SOL     OW 1153   2.497   2.048   0.527 -0.8222  0.3362 -0.1643
  385SOL    HW1 1154   2.477   2.081   0.621  1.2608  0.0812  0.3939
  385SOL    HW2 1155   2.413   2.038   0.471 -1.2951  1.0611  0.4157
  386SOL     OW 1156   2.158   0.645   1.109  0.1031  0.0150  0.8828
  386SOL    HW1 1157   2.111   0.572   1.162  1.4959 -2.0634 -0.6669
  386SOL    HW2 1158   2.220   0.596   1.045 -0.3557 -0.1446  0.5611
  387SOL     OW 1159   0.678   1.041   1.845  0.0769 -0.4112  0.3478
  387SOL    HW1 1160   0.602   1.053   1.910 -0.3498  1.9277 -0.5125
  387SOL    HW2 1161   0.753   1.101   1.877 -0.3720  1.2716 -1.6542
  388SOL     OW 1162   0.826   1.563   2.351 -0.0462  0.1561 -0.2285
  388SOL    HW1 1163   0.874   1.479   2.321 -0.5991 -1.2193  2.5770
  388SOL    HW2 1164   0.887   1.643   2.363  0.2192 -0.2480  1.1644
  389SOL     OW 1165   1.255   1.397   1.744 -0.0480  0.1670  0.0272
  389SOL    HW1 1166   1.282   1.441   1.831  2.0626 -0.9023 -0.0707
  389SOL    HW2 1167   1.318   1.320   1.725 -2.3093 -1.3690 -1.5862
  390SOL     OW 1168   0.163   2.946   1.174  0.2522  0.0658  0.3077
  390SOL    HW1 1169   0.106   2.915   1.252 -1.0975  0.7345 -0.3927
  390SOL    HW2 1170   0.121   2.914   1.088 -0.9344  0.9321  0.5515
  391SOL     OW 1171   1.594   1.449   1.322 -0.5474 -0.0622  0.0703
  391SOL    HW1 1172   1.508   1.403   1.349 -0.3356  0.7301  2.1587
  391SOL    HW2 1173   1.654   1.383   1.274 -3.2507 -0.6924 -2.5617
  392SOL     OW 1174   3.014   0.127   2.771 -0.4522  0.3840  0.4458
  392SOL    HW1 1175   3.007   0.216   2.819 -0.4713  0.5490  0.1352
  392SOL    HW2 1176   3.072   0.065   2.827  0.1203  0.6203  0.1082
  393SOL     OW 1177   1.315   2.086   2.804  0.0051 -0.2854  0.0075
  393SOL    HW1 1178   1.222   2.050   2.822 -0.4467 -0.2253 -2.0781
  393SOL    HW2 1179   1.308   2.187   2.800 -1.8649 -0.4027 -0.2165
  394SOL     OW 1180   0.073   2.560   2.614 -0.2919 -0.8477  0.6087
  394SOL    HW1 1181   0.067   2.462   2.590  1.9997 -0.8146 -0.1966
  394SOL    HW2 1182   0.169   2.592   2.609 -0.3367 -0.6556  1.0032
  395SOL     OW 1183   0.004   0.050   1.337  0.7133 -0.2503 -0.1397
  395SOL    HW1 1184   0.028   0.068   1.433 -0.2343 -1.7815  0.4012
  395SOL    HW2 1185   0.079   0.008   1.283  0.4244 -2.0190  0.8033
  396SOL     OW 1186   2.193   0.452   0.597  0.4302  0.5283  0.9634
  396SOL    HW1 1187   2.243   0.374   0.637  0.2140  0.6311  1.4293
  396SOL    HW2 1188   2.247   0.535   0.575  0.5361  1.1587  3.5243
  397SOL     OW 1189   2.854   0.935   2.511  0.5151  0.2695 -0.2265
  397SOL    HW1 1190   2.833   0.910   2.416  0.4239 -1.0889  0.1369
  397SOL    HW2 1191   2.771   0.905   2.562 -0.1023  1.2738 -0.6040
  398SOL     OW 1192   0.635   0.191   2.910  1.1529  0.7065  0.3780
  398SOL    HW1 1193   0.609   0.283   2.875 -0.1943  0.3301  0.3589
  398SOL    HW2 1194   0.565   0.159   2.976 -0.3751  1.4095 -0.8514
  399SOL     OW 1195   1.850   0.019   1.844 -0.4207 -0.2343  0.0620
  399SOL    HW1 1196   1.818  -0.038   1.922 -1.9914 -0.8237 -0.9940
  399SOL    HW2 1197   1.780   0.048   1.778  0.5326  0.9681 -0.4206
  400SOL     OW 1198   1.020   2.178   2.785  0.1909 -0.2398 -0.0017
  400SOL    HW1 1199   0.949   2.151   2.718  0.4458  1.6118 -1.0310
  400SOL    HW2 1200   1.026   2.278   2.796 -0.1609 -0.1976 -0.1873
  401SOL     OW 1201   0.484   0.981   2.460 -0.4577 -0.5212  0.0231
  401SOL    HW1 1202   0.409   0.922   2.427 -0.4364  0.2466 -1.4445
  401SOL    HW2 1203   0.469   1.081   2.449 -2.1719 -0.5110  2.1485
  402SOL     OW 1204   3.070   0.433   0.436 -0.1249  0.1216 -0.8196
  402SOL    HW1 1205   3.074   0.464   0.340 -0.5592  1.5736 -0.3877
  402SOL    HW2 1206   3.115   0.343   0.442  0.0789  0.4096  3.4618
  403SOL     OW 1207   0.376   1.421   1.641 -0.6129 -0.0595  0.1620
  403SOL    HW1 1208   0.303   1.357   1.669  0.2544 -1.3794 -0.5623
  403SOL    HW2 1209   0.462   1.396   1.686 -0.3547 -0.3473 -0.4817
  404SOL     OW 1210   2.450   2.428   2.523 -0.4088 -0.5107 -1.1270
  404SOL    HW1 1211   2.362   2.421   2.572  1.3014 -2.4626  1.7863
  404SOL    HW2 1212   2.520   2.388   2.584  0.7319  1.0116 -1.3916
  405SOL     OW 1213   0.285   0.621   2.084 -0.1170  0.3831  0.4138
  405SOL    HW1 1214   0.373   0.655   2.120  1.0460 -1.7666 -0.3790
  405SOL    HW2 1215   0.292   0.614   1.983 -1.6081 -0.6267  0.3685
  406SOL     OW 1216   1.099   1.370   2.696 -0.5653  0.4520  0.0842
  406SOL    HW1 1217   1.067   1.465   2.704 -1.5218 -0.0513  2.7311
  406SOL    HW2 1218   1.051   1.320   2.622 -2.7551  1.1545  1.0100
  407SOL     OW 1219   2.108   0.327   2.618 -0.0882 -0.9808 -0.2446
  407SOL    HW1 1220   2.035   0.322   2.549  0.6255  1.0272 -1.2034
  407SOL    HW2 1221   2.167   0.244   2.617  1.7178  0.2634 -2.2394
  408SOL     OW 1222   0.251   2.795   2.479  0.3313 -1.2136 -0.5810
  408SOL    HW1 1223   0.221   2.803   2.383  0.7222  4.2023 -0.4028
  408SOL    HW2 1224   0.167   2.822   2.529 -0.3861  0.2631 -2.4867
  409SOL     OW 1225   0.068   2.546   1.174 -0.2459 -0.0014 -0.7861
  409SOL    HW1 1226   0.061   2.646   1.192 -1.6524 -0.0444 -0.9881
  409SOL    HW2 1227  -0.022   2.499   1.174  2.0537 -4.6635 -0.3429
  410SOL     OW 1228   2.714   1.763   0.136 -0.8239 -0.1858 -0.0339
  410SOL    HW1 1229   2.619   1.739   0.110 -0.3861 -1.6019 -0.3429
  410SOL    HW2 1230   2.791   1.734   0.078  2.5370  1.7505  3.1967
  411SOL     OW 1231   2.447   0.057   1.464 -0.0215  0.3718  0.1509
  411SOL    HW1 1232   2.457   0.036   1.563 -3.3359  1.9807  0.8929
  411SOL    HW2 1233   2.347   0.069   1.458 -0.4848 -2.3174  1.7117
  412SOL     OW 1234   2.923   0.831   1.219  0.2546 -0.1658  0.0865
  412SOL    HW1 1235   2.980   0.764   1.169  0.1983 -1.4739  1.7407
  412SOL    HW2 1236   2.908   0.912   1.161 -0.6629 -1.0547 -0.9358
  413SOL     OW 1237   0.080   0.649   2.241  0.3275  0.1347 -0.9460
  413SOL    HW1 1238   0.168   0.650   2.192 -0.1321  0.2435 -1.8007
  413SOL    HW2 1239   0.007   0.652   2.170  0.5011 -1.2134 -1.2074
  414SOL     OW 1240   2.352   1.458   0.046 -0.3811 -0.0145  0.6715
  414SOL    HW1 1241   2.333   1.362   0.069 -0.5182  0.0821  0.9577
  414SOL    HW2 1242   2.372   1.466  -0.053 -1.5626  1.0643  0.5097
  415SOL     OW 1243   0.697   2.394   0.448 -0.1201  0.1439  0.6193
  415SOL    HW1 1244   0.672   2.297   0.457  0.8811 -0.1985 -0.2305
  415SOL    HW2 1245   0.623   2.447   0.404  0.7292 -0.1131 -1.1244
  416SOL     OW 1246   1.568   2.521   2.926 -0.2876 -0.3158 -0.1305
  416SOL    HW1 1247   1.647   2.522   2.989 -0.6533 -1.6406  0.3461
  416SOL    HW2 1248   1.491   2.579   2.957  0.5213 -0.8530  3.0011
  417SOL     OW 1249   0.454   0.622   1.251  0.2762  0.2530  0.1707
  417SOL    HW1 1250   0.424   0.585   1.340 -0.3739 -1.0959 -0.5869
  417SOL    HW2 1251   0.555   0.629   1.256  0.2984  0.7671 -0.9170
  418SOL     OW 1252   2.570   3.045   0.821  0.2072 -0.0134  0.0138
  418SOL    HW1 1253   2.541   2.977   0.753  0.4264 -0.5847  0.4847
  418SOL    HW2 1254   2.580   3.008   0.915 -0.5290 -0.3217 -0.0322
  419SOL     OW 1255   0.269   3.042   0.297 -0.4949 -0.1845 -0.1581
  419SOL    HW1 1256   0.238   2.978   0.226 -1.9486 -0.6373  0.8582
  419SOL    HW2 1257   0.274   3.138   0.265  0.3379 -0.3480 -0.5400
  420SOL     OW 1258   3.089   1.381   1.215  0.2115  0.2379  0.6729
  420SOL    HW1 1259   3.086   1.429   1.304 -1.0140  2.2628 -0.4219
  420SOL    HW2 1260   3.088   1.448   1.139 -1.0281  0.6964  1.0740
  421SOL     OW 1261   1.750   2.852   0.539  0.3809 -0.3215  0.0023
  421SOL    HW1 1262   1.649   2.861   0.532  0.1320 -1.4612  1.8687
  421SOL    HW2 1263   1.771   2.842   0.638  1.4283  0.0018 -0.1824
  422SOL     OW 1264   0.394   0.306   1.380  0.2553  0.0785 -0.2580
  422SOL    HW1 1265   0.345   0.234   1.329 -1.8978  0.6933  0.9055
  422SOL    HW2 1266   0.487   0.318   1.342  0.9803  0.2104  1.5441
  423SOL     OW 1267   0.966   1.509   2.024  0.2202  0.3452  0.4688
  423SOL    HW1 1268   1.033   1.496   2.100  0.1513  1.9811  0.8246
  423SOL    HW2 1269   0.991   1.590   1.969  0.5979 -0.0707  0.0196
  424SOL     OW 1270   1.713   1.664   0.615  0.7370  0.7374 -0.0689
  424SOL    HW1 1271   1.660   1.751   0.611  1.1247  0.9954  0.3302
  424SOL    HW2 1272   1.697   1.613   0.701  4.1281 -1.0262 -0.3919
  425SOL     OW 1273   3.022   0.106   1.919 -0.2228  0.2420  0.2369
  425SOL    HW1 1274   3.061   0.081   1.829  1.4553 -2.7157  1.7466
  425SOL    HW2 1275   3.021   0.206   1.937 -0.5005  0.5543 -1.4213
  426SOL     OW 1276   0.502   2.971   2.704  0.9486 -0.0625  0.5698
  426SOL    HW1 1277   0.591   3.016   2.684  0.8157  0.0824  0.3062
  426SOL    HW2 1278   0.427   3.032   2.677  1.4468  0.7094  0.9084
  427SOL     OW 1279   0.982   0.024   0.192 -0.0505  0.0685  0.5518
  427SOL    HW1 1280   0.970   0.006   0.291 -1.4970  0.1425  0.3950
  427SOL    HW2 1281   0.925   0.100   0.159 -0.5349 -0.9659 -1.0694
  428SOL     OW 1282   2.881   0.471   1.321  0.2054  0.2422 -1.1837
  428SOL    HW1 1283   2.958   0.422   1.276  1.2721  1.6065 -0.8813
  428SOL    HW2 1284   2.890   0.459   1.421  2.7564  0.5367 -1.3324
  429SOL     OW 1285   1.937   3.048   0.496  0.3626  0.6787  0.3929
  429SOL    HW1 1286   1.877   2.967   0.507  0.7461  0.3396  0.0649
  429SOL    HW2 1287   1.899   3.114   0.562 -0.0607  1.5632 -0.7125
  430SOL     OW 1288   1.107   1.021   2.593 -0.0986 -0.2532  0.7531
  430SOL    HW1 1289   1.028   1.010   2.532 -1.5983 -1.1851  2.7963
  430SOL    HW2 1290   1.092   0.981   2.685 -3.1572  0.4492  0.5924
  431SOL     OW 1291   2.676   2.286   1.185 -0.2226 -0.1715 -0.1291
  431SOL    HW1 1292   2.707   2.203   1.234  1.3585 -2.6192 -4.9798
  431SOL    HW2 1293   2.748   2.313   1.121 -0.2087  1.2264  0.4702
  432SOL     OW 1294   1.663   2.480   2.672 -0.3985  0.3449 -0.1307
  432SOL    HW1 1295   1.600   2.500   2.749  0.7423  1.1423  0.6262
  432SOL    HW2 1296   1.751   2.531   2.680  0.4486 -1.1013 -0.0987
  433SOL     OW 1297   1.293   0.203   2.404 -0.2096  0.1956 -0.7417
  433SOL    HW1 1298   1.200   0.240   2.390 -0.5483  0.1355  1.2162
  433SOL    HW2 1299   1.287   0.122   2.465  2.3677 -1.1563 -2.2333
  434SOL     OW 1300   1.491   2.568   2.366  0.4332  1.3136 -0.1973
  434SOL    HW1 1301   1.407   2.523   2.401 -0.3130  2.2153 -0.8318
  434SOL    HW2 1302   1.573   2.510   2.379 -0.6438  0.0359  1.0801
  435SOL     OW 1303   0.032   3.050   2.945  0.2433 -0.3596  0.1539
  435SOL    HW1 1304   0.123   3.008   2.932 -0.2901 -0.6175 -3.4275
  435SOL    HW2 1305  -0.028   2.981   2.988 -0.8896 -0.8673 -2.1632
  436SOL     OW 1306   0.028   1.060   2.284  0.0486 -0.1132  0.0936
  436SOL    HW1 1307  -0.055   1.006   2.263 -2.1390  2.8129  0.9250
  436SOL    HW2 1308   0.047   1.136   2.220  2.6595 -1.6449 -1.0462
  437SOL     OW 1309   1.372   2.668   3.076  0.0401  0.0878 -0.3769
  437SOL    HW1 1310   1.281   2.711   3.082  1.1939  2.2788  2.5432
  437SOL    HW2 1311   1.407   2.631   3.163  0.2055 -0.2066 -0.5693
  438SOL     OW 1312   0.407   1.293   0.830 -0.2590  0.1520  0.0705
  438SOL    HW1 1313   0.380   1.390   0.819  0.5724  0.3449 -0.3412
  438SOL    HW2 1314   0.399   1.246   0.741 -1.8271 -0.1440  0.3711
  439SOL     OW 1315   0.146   1.609   2.153 -0.3637 -0.5487  0.1662
  439SOL    HW1 1316   0.142   1.709   2.168 -1.8483 -0.7059  0.9129
  439SOL    HW2 1317   0.189   1.592   2.063  0.4844 -0.3157  0.5238
  440SOL     OW 1318   3.056   1.118   2.557 -0.0633 -0.5378  0.5512
  440SOL    HW1 1319   3.097   1.106   2.465 -0.2622  0.8207  0.2727
  440SOL    HW2 1320   2.973   1.061   2.566  2.3818 -4.5956 -1.2574
  441SOL     OW 1321   0.865   2.473   1.134  0.4355 -0.0896 -0.2592
  441SOL    HW1 1322   0.905   2.386   1.102 -0.2446 -0.6776  0.4794
  441SOL    HW2 1323   0.931   2.550   1.135  0.7407 -0.3471 -0.2882
  442SOL     OW 1324   2.338   1.419   0.482 -0.4691  0.0578  0.3502
  442SOL    HW1 1325   2.413   1.360   0.447  0.0293  1.3910 -0.8927
  442SOL    HW2 1326   2.264   1.368   0.528 -0.2191 -2.3427 -1.7957
  443SOL     OW 1327   2.212   1.938   2.915  0.3877  0.5322  0.4381
  443SOL    HW1 1328   2.236   1.899   2.825  1.2358 -1.1468  1.3786
  443SOL    HW2 1329   2.141   1.881   2.959 -0.4765  0.5218 -0.9382
  444SOL     OW 1330   1.791   1.490   0.363  0.3225 -0.6062 -0.5501
  444SOL    HW1 1331   1.883   1.528   0.386 -0.4569  1.5188 -0.8168
  444SOL    HW2 1332   1.725   1.551   0.411  2.1218 -1.1006  2.7311
  445SOL     OW 1333   0.205   2.256   2.026  0.0294 -0.1703  0.3603
  445SOL    HW1 1334   0.114   2.220   1.999 -0.2788  2.1658 -1.8457
  445SOL    HW2 1335   0.257   2.182   2.072 -0.2528 -0.2972  0.4740
  446SOL     OW 1336   0.849   1.017   1.471  0.0745  0.2218  0.2352
  446SOL    HW1 1337   0.827   1.100   1.525 -0.1887 -0.0225  0.5080
  446SOL    HW2 1338   0.947   1.005   1.448 -0.4200  0.0135 -1.8391
  447SOL     OW 1339   0.281   1.004   0.619  0.7583  0.7038  0.0813
  447SOL    HW1 1340   0.334   0.957   0.691  0.1480 -0.6928 -0.3590
  447SOL    HW2 1341   0.314   0.987   0.525 -1.4102 -1.6782 -0.3146
  448SOL     OW 1342   1.599   1.424   2.397 -0.4939 -0.8626  0.9260
  448SOL    HW1 1343   1.696   1.412   2.371 -1.1939 -0.5884 -2.0101
  448SOL    HW2 1344   1.610   1.498   2.465 -0.9500 -0.1670  0.2551
  449SOL     OW 1345   0.056   1.885   2.486 -0.3495 -0.1531 -0.3256
  449SOL    HW1 1346   0.084   1.922   2.576 -1.2941  0.3010 -0.2137
  449SOL    HW2 1347  -0.013   1.945   2.442  0.6414  1.1473 -0.1182
  450SOL     OW 1348   2.119   1.429   2.075  0.3660 -0.5049 -0.1272
  450SOL    HW1 1349   2.041   1.489   2.053  0.5166 -0.3541 -0.2608
  450SOL    HW2 1350   2.096   1.357   2.142  0.3837  1.7949  2.4246
  451SOL     OW 1351   2.694   1.396   1.496 -0.0797  0.1415  0.6739
  451SOL    HW1 1352   2.672   1.304   1.531  0.6795 -0.4820 -0.4733
  451SOL    HW2 1353   2.713   1.401   1.397  2.6929 -1.3090  1.0850
  452SOL     OW 1354   0.996   1.305   1.643  0.4501  0.0800 -0.9073
  452SOL    HW1 1355   1.083   1.348   1.671  0.2167  1.6378 -2.4734
  452SOL    HW2 1356   0.921   1.372   1.642 -0.6597 -1.1507 -0.5398
  453SOL     OW 1357   0.204   2.395   0.963 -0.1276 -0.1742 -0.5201
  453SOL    HW1 1358   0.297   2.425   0.936 -0.3266  2.8423  1.8494
  453SOL    HW2 1359   0.164   2.445   1.041 -2.6914 -1.9075 -0.6629
  454SOL     OW 1360   1.332   1.642   0.747 -0.1188 -0.2657 -0.0413
  454SOL    HW1 1361   1.244   1.684   0.723  0.4587  1.7444  1.2226
  454SOL    HW2 1362   1.325   1.594   0.836 -0.7576 -3.7309 -1.8789
  455SOL     OW 1363   1.539   0.556   0.626 -0.0753 -0.0402  0.2720
  455SOL    HW1 1364   1.630   0.541   0.585  0.2376  0.6660  0.6857
  455SOL    HW2 1365   1.497   0.644   0.599 -0.5221 -0.2973  0.1339
  456SOL     OW 1366   1.794   2.725   0.308  0.2655  0.0631 -0.3237
  456SOL    HW1 1367   1.712   2.759   0.260 -0.4359  0.4950  1.1771
  456SOL    HW2 1368   1.791   2.770   0.399 -1.9773 -0.9241  0.1158
  457SOL     OW 1369   2.198   0.985   2.231 -0.1000  0.5288  0.3945
  457SOL    HW1 1370   2.184   0.949   2.324  2.6009  0.6254  0.8779
  457SOL    HW2 1371   2.284   0.950   2.192 -0.0047 -0.4741  1.4842
  458SOL     OW 1372   2.540   0.259   2.494  0.6243  0.2797 -0.1827
  458SOL    HW1 1373   2.452   0.278   2.446  0.8897  0.8469 -0.4456
  458SOL    HW2 1374   2.613   0.248   2.426  0.8598  2.2450 -0.2841
  459SOL     OW 1375   2.564   1.771   2.702  0.4881 -0.3915  0.3259
  459SOL    HW1 1376   2.640   1.809   2.646 -2.6420  1.5660 -2.7762
  459SOL    HW2 1377   2.607   1.735   2.787  0.2520 -1.0944  0.1498
  460SOL     OW 1378   0.902   0.668   2.458 -0.1143 -0.9868  0.5133
  460SOL    HW1 1379   0.982   0.677   2.396 -0.3713  0.2114  0.3360
  460SOL    HW2 1380   0.852   0.756   2.446  1.2069 -0.4903 -1.8992
  461SOL     OW 1381   2.608   2.417   0.329  0.2094  0.0973  0.1210
  461SOL    HW1 1382   2.516   2.385   0.355  0.9662 -0.8868  1.6229
  461SOL    HW2 1383   2.627   2.516   0.343 -0.7379  0.1886  0.8267
  462SOL     OW 1384   1.372   2.752   2.181  0.4346  0.6651  0.0426
  462SOL    HW1 1385   1.414   2.835   2.221 -0.6773 -0.0639  2.8145
  462SOL    HW2 1386   1.396   2.677   2.244  0.6489 -1.6204 -2.6279
  463SOL     OW 1387   2.091   2.061   2.163 -0.3852  0.7892  0.4522
  463SOL    HW1 1388   2.154   1.994   2.119  1.2685  1.7627  1.2934
  463SOL    HW2 1389   2.012   2.079   2.102 -0.9764 -2.4408  0.1316
  464SOL     OW 1390   2.935   2.583   0.769 -0.4556 -0.4095  0.2504
  464SOL    HW1 1391   3.009   2.514   0.757 -0.0117  0.4326 -2.2491
  464SOL    HW2 1392   2.947   2.652   0.841 -0.6923 -2.3815  2.2457
  465SOL     OW 1393   2.920   0.348   1.554  0.4152  0.1356  0.0219
  465SOL    HW1 1394   2.886   0.258   1.586  1.4513 -0.6572 -1.0693
  465SOL    HW2 1395   3.018   0.341   1.530  0.5789 -1.2743  1.0302
  466SOL     OW 1396   1.287   2.357   2.829  0.0654 -0.0298  0.2791
  466SOL    HW1 1397   1.196   2.392   2.803 -0.0032 -2.5602 -3.2310
  466SOL    HW2 1398   1.333   2.404   2.906 -2.3852  0.2040  1.6474
  467SOL     OW 1399   3.002   1.791   0.561  0.3418 -0.1015  0.2115
  467SOL    HW1 1400   2.969   1.819   0.653 -0.6532  0.6997 -0.3822
  467SOL    HW2 1401   2.922   1.770   0.502 -1.6637  0.3082  2.6832
  468SOL     OW 1402   2.232   2.402   2.691  0.0654 -0.1234  0.0609
  468SOL    HW1 1403   2.154   2.353   2.650  1.4367 -2.4181  0.1308
  468SOL    HW2 1404   2.230   2.375   2.789  1.1870 -2.4632 -0.5216
  469SOL     OW 1405   0.567   1.602   0.655  0.2882 -0.3953  0.5680
  469SOL    HW1 1406   0.482   1.554   0.683  0.1903 -1.1858 -1.0442
  469SOL    HW2 1407   0.636   1.533   0.630  2.4503  2.1895 -0.9718
  470SOL     OW 1408   2.042   0.704   0.422 -0.0893  0.0238  0.0640
  470SOL    HW1 1409   1.996   0.789   0.389 -1.6375  0.8498  4.1099
  470SOL    HW2 1410   2.029   0.694   0.521 -0.5140 -0.3055 -0.0206
  471SOL     OW 1411   0.104   2.292   0.203 -0.5103 -0.0542  0.5863
  471SOL    HW1 1412   0.091   2.221   0.132 -0.8338  0.5697  0.0179
  471SOL    HW2 1413   0.187   2.281   0.260 -1.8914 -2.1499  2.3007
  472SOL     OW 1414   0.078   2.093   0.038  0.1367 -0.7291 -0.1817
  472SOL    HW1 1415   0.034   2.016   0.086 -1.4437 -0.0241 -0.4688
  472SOL    HW2 1416   0.176   2.075   0.020 -0.1641  0.4728 -3.3484
  473SOL     OW 1417   1.544   1.601   1.059 -0.2168  0.6383 -0.6634
  473SOL    HW1 1418   1.581   1.542   1.132 -3.0043 -0.3336  0.0398
  473SOL    HW2 1419   1.472   1.662   1.097  2.5545  2.4807  1.8514
  474SOL     OW 1420   2.689   0.498   1.122  0.4544 -0.3070 -0.2725
  474SOL    HW1 1421   2.762   0.496   1.191  0.6455  1.9559 -0.3633
  474SOL    HW2 1422   2.640   0.409   1.120 -2.3332  1.0987  1.5955
  475SOL     OW 1423   2.659   0.022   1.853  0.0779  0.7616 -0.2335
  475SOL    HW1 1424   2.715  -0.062   1.863  1.0611  1.0853 -2.5335
  475SOL    HW2 1425   2.655   0.078   1.937  1.8385  0.7115 -0.0960
  476SOL     OW 1426   1.061   2.993   0.889  0.1314  0.1561 -0.3581
  476SOL    HW1 1427   1.089   3.042   0.805  1.5307  1.4372  0.8191
  476SOL    HW2 1428   1.019   2.903   0.869 -0.2629  0.5536 -1.3875
  477SOL     OW 1429   1.197   2.543   1.175 -0.1447 -0.3789 -0.8709
  477SOL    HW1 1430   1.249   2.550   1.089 -0.4352  2.9955 -0.8266
  477SOL    HW2 1431   1.262   2.560   1.251 -1.1944  0.9440 -0.2608
  478SOL     OW 1432   1.029   2.697   0.364 -0.0449 -0.0790 -0.3329
  478SOL    HW1 1433   1.040   2.597   0.369  2.4829  0.0754 -1.7055
  478SOL    HW2 1434   0.983   2.721   0.278 -0.4317  1.0149  0.1673
  479SOL     OW 1435   2.439   0.897   2.102 -0.0539 -0.1849  0.0396
  479SOL    HW1 1436   2.505   0.853   2.165 -1.0437  1.0691  1.9977
  479SOL    HW2 1437   2.438   0.859   2.008  0.8666  0.5691 -0.2865
  480SOL     OW 1438   2.911   2.568   2.678  0.2672  0.0215 -0.5069
  480SOL    HW1 1439   3.006   2.598   2.663 -0.2348  1.7337 -0.3879
  480SOL    HW2 1440   2.891   2.542   2.774  0.0446 -2.1355 -1.1088
  481SOL     OW 1441   1.493   2.655   1.702  0.1099  0.4585  0.1700
  481SOL    HW1 1442   1.552   2.673   1.782 -1.3207 -1.1816  1.6394
  481SOL    HW2 1443   1.479   2.734   1.640 -0.3185  1.4923  1.5502
  482SOL     OW 1444   1.444   2.158   2.347  0.0771  0.5483 -0.2994
  482SOL    HW1 1445   1.463   2.214   2.429  1.8497 -0.5154  0.0495
  482SOL    HW2 1446   1.395   2.074   2.377  0.8708  0.2317  0.1239
  483SOL     OW 1447   1.133   2.835   3.020  0.4716 -0.0444  0.5554
  483SOL    HW1 1448   1.204   2.887   2.971 -0.1067  2.1290  1.9939
  483SOL    HW2 1449   1.053   2.894   3.033 -0.0310 -0.0606 -2.1671
  484SOL     OW 1450   2.807   0.087   1.633 -0.4196  0.0751 -0.0577
  484SOL    HW1 1451   2.740   0.091   1.710 -1.5560 -3.2573 -0.7948
  484SOL    HW2 1452   2.864   0.006   1.649 -0.9804 -0.1488  0.8648
  485SOL     OW 1453   2.069   0.262   0.003 -0.3824  0.8255 -0.0604
  485SOL    HW1 1454   2.093   0.320  -0.077 -0.0212  0.4662 -0.2191
  485SOL    HW2 1455   2.147   0.254   0.066  0.1578 -3.3817 -1.0772
  486SOL     OW 1456   2.498   2.663   2.403 -0.4358  0.0707 -0.3677
  486SOL    HW1 1457   2.474   2.568   2.430  2.8261 -0.8127 -0.4639
  486SOL    HW2 1458   2.567   2.693   2.471  1.8200 -1.5866 -1.8750
  487SOL     OW 1459   1.454   0.751   0.907 -0.3123 -0.5069  0.3173
  487SOL    HW1 1460   1.504   0.824   0.955 -1.4921 -0.0052  0.7792
  487SOL    HW2 1461   1.489   0.759   0.812 -0.0318 -0.4628  0.4235
  488SOL     OW 1462   2.721   2.928   2.198  0.2799  0.1064  0.6137
  488SOL    HW1 1463   2.812   2.956   2.162  0.7174 -0.1602  1.5015
  488SOL    HW2 1464   2.703   2.832   2.169  1.4321 -0.0919  0.5227
  489SOL     OW 1465   1.441   2.605   0.677  0.0650  0.0622 -0.1099
  489SOL    HW1 1466   1.522   2.582   0.733 -0.6315  1.5968  1.5725
  489SOL    HW2 1467   1.462   2.671   0.603 -1.9102  0.1454 -0.6194
  490SOL     OW 1468   1.506   0.649   0.006 -0.3595  0.1913  0.3176
  490SOL    HW1 1469   1.494   0.716   0.081  0.1276  1.5103 -0.7653
  490SOL    HW2 1470   1.510   0.686  -0.088  2.4067  0.1762  0.3631
  491SOL     OW 1471   0.965   0.009   1.341 -0.5165 -0.0337  0.5045
  491SOL    HW1 1472   1.050  -0.035   1.309 -0.8680 -0.0882 -0.3805
  491SOL    HW2 1473   0.914   0.049   1.263 -1.7576 -2.3487  0.0969
  492SOL     OW 1474   1.764   2.735   3.072 -0.2805 -0.5885  0.1799
  492SOL    HW1 1475   1.799   2.641   3.086  1.0799 -0.5124 -2.5699
  492SOL    HW2 1476   1.730   2.741   2.977  0.9531 -1.5307 -0.3243
  493SOL     OW 1477   1.073   2.031   3.022  0.5663  0.3121  0.7783
  493SOL    HW1 1478   0.987   1.989   3.055  0.5510 -0.2559  0.0426
  493SOL    HW2 1479   1.056   2.099   2.949 -0.0637 -0.9320 -0.2632
  494SOL     OW 1480   0.901   0.296   0.422  0.0666  0.5068 -0.7083
  494SOL    HW1 1481   0.906   0.337   0.329 -0.7121 -1.1660 -1.5173
  494SOL    HW2 1482   0.922   0.198   0.433 -1.4360  0.4692  2.1476
  495SOL     OW 1483   2.561   0.452   1.699 -0.4004  0.5310 -0.2988
  495SOL    HW1 1484   2.551   0.399   1.613 -2.3757  0.9693 -0.3620
  495SOL    HW2 1485   2.561   0.550   1.673 -2.3482  1.0094  1.4724
  496SOL     OW 1486   2.461   1.778   2.204  0.7288  0.0795  0.3653
  496SOL    HW1 1487   2.545   1.828   2.230  0.6042  0.7842 -0.5594
  496SOL    HW2 1488   2.391   1.770   2.276  1.9622  2.5304  1.8906
  497SOL     OW 1489   1.470   1.831   3.014  0.5514  0.1038  0.2777
  497SOL    HW1 1490   1.484   1.770   3.093  0.0892 -0.5200 -0.1100
  497SOL    HW2 1491   1.400   1.788   2.955 -0.2376  0.6868  0.7761
  498SOL     OW 1492   0.323   0.076   1.214 -0.0279  0.4362 -0.3870
  498SOL    HW1 1493   0.347   0.130   1.132 -1.7203 -1.3065 -2.1040
  498SOL    HW2 1494   0.264   0.002   1.177 -1.3621  1.2063  0.1839
  499SOL     OW 1495   0.077   1.820   1.125  0.3993 -0.0510  1.1436
  499SOL    HW1 1496   0.072   1.832   1.226 -2.2472  1.9056  0.8328
  499SOL    HW2 1497   0.050   1.902   1.072  2.2453 -0.9445 -1.2759
  500SOL     OW 1498   0.428   3.033   2.249 -0.0976  0.5966 -0.2556
  500SOL    HW1 1499   0.525   3.012   2.268  0.7328  3.0205 -1.5618
  500SOL    HW2 1500   0.397   3.112   2.304 -0.6666  0.0394  0.2254
  501SOL     OW 1501   1.240   0.071   0.170 -0.2312 -0.5049  0.2356
  501SOL    HW1 1502   1.257   0.144   0.101  2.5056  0.9633  2.3802
  501SOL    HW2 1503   1.143   0.064   0.199 -0.4443 -0.8072 -0.5207
  502SOL     OW 1504   2.687   0.273   0.558  0.2115  0.0952  0.0244
  502SOL    HW1 1505   2.594   0.272   0.518 -0.3079 -0.7659  1.2131
  502SOL    HW2 1506   2.719   0.369   0.561 -0.1593  0.2165  0.1054
  503SOL     OW 1507   1.968   2.786   2.432  0.1612 -0.0229 -0.0824
  503SOL    HW1 1508   2.063   2.750   2.428 -0.5270 -2.2913  2.6300
  503SOL    HW2 1509   1.967   2.875   2.481  1.4100  1.0094 -1.8874
  504SOL     OW 1510   2.810   1.158   2.171 -0.5676 -0.1120  0.2845
  504SOL    HW1 1511   2.713   1.168   2.198 -0.6746 -0.9477  0.2127
  504SOL    HW2 1512   2.820   1.201   2.080  0.0114  1.6043  1.1239
  505SOL     OW 1513   1.615   2.682   1.941 -0.2016 -0.4507  0.1316
  505SOL    HW1 1514   1.683   2.618   1.981 -1.0732 -1.9016 -0.6618
  505SOL    HW2 1515   1.583   2.765   1.989 -1.4749 -1.3266  0.8350
  506SOL     OW 1516   0.506   0.867   2.071 -0.3197 -0.1061  0.3245
  506SOL    HW1 1517   0.499   0.968   2.076  1.5060  0.1456 -1.3995
  506SOL    HW2 1518   0.488   0.829   2.163 -0.7362  1.3846  0.8722
  507SOL     OW 1519   1.828   0.687   0.705 -0.0486  0.3930  0.5694
  507SOL    HW1 1520   1.782   0.775   0.687  0.0682 -0.0698 -2.2813
  507SOL    HW2 1521   1.924   0.708   0.730 -0.1632  0.9156  0.5723
  508SOL     OW 1522   2.256   0.406   1.914 -0.3485  0.5348 -0.0746
  508SOL    HW1 1523   2.300   0.315   1.904  0.1242  0.3438  3.1550
  508SOL    HW2 1524   2.307   0.477   1.965 -1.5266  2.0474 -0.9645
  509SOL     OW 1525   0.496   1.804   0.005  0.2690 -0.2442  0.1733
  509SOL    HW1 1526   0.449   1.859   0.075  0.3479  1.9581 -1.4559
  509SOL    HW2 1527   0.572   1.862  -0.027  2.4333 -0.4025  4.6539
  510SOL     OW 1528   0.256   0.812   1.123 -0.4367  0.6445  0.3171
  510SOL    HW1 1529   0.317   0.756   1.182 -1.4544 -0.9128 -0.0984
  510SOL    HW2 1530   0.160   0.780   1.124  0.4789 -2.4452 -2.5588
  511SOL     OW 1531   1.594   1.017   1.445 -0.8941  0.1526 -0.3695
  511SOL    HW1 1532   1.689   0.982   1.442 -0.7454  0.7059 -2.3899
  511SOL    HW2 1533   1.551   0.973   1.526  1.5709  3.2534  2.8042
  512SOL     OW 1534   0.118   2.096   0.660  0.6276  0.2947  0.0945
  512SOL    HW1 1535   0.074   2.156   0.591  3.3255  0.0421 -1.9029
  512SOL    HW2 1536   0.077   2.097   0.752  1.8983  0.0854  0.6647
  513SOL     OW 1537   0.492   2.742   0.843  0.3681  0.0495  0.3310
  513SOL    HW1 1538   0.464   2.773   0.935 -0.0985 -1.3291  0.6632
  513SOL    HW2 1539   0.554   2.662   0.848 -0.6277 -0.8056 -0.7642
  514SOL     OW 1540   0.409   2.424   0.686  0.3924  0.3906  0.0225
  514SOL    HW1 1541   0.485   2.433   0.620 -1.8241 -2.7826 -3.1392
  514SOL    HW2 1542   0.330   2.477   0.652 -1.1206 -1.3046  0.7749
  515SOL     OW 1543   0.125   0.427   2.364  0.4717 -0.1341 -0.5082
  515SOL    HW1 1544   0.103   0.504   2.302  1.2849 -1.0800 -2.0001
  515SOL    HW2 1545   0.069   0.422   2.448 -1.9737  1.2129 -1.9964
  516SOL     OW 1546   2.178   0.128   1.458 -0.1834  0.2136  0.1233
  516SOL    HW1 1547   2.105   0.087   1.517  1.0502 -0.7757  0.9910
  516SOL    HW2 1548   2.150   0.215   1.415 -0.2697 -0.1764 -0.6143
  517SOL     OW 1549   1.668   1.250   0.384 -0.0160  0.0088  0.1604
  517SOL    HW1 1550   1.660   1.215   0.290 -1.2244 -1.0713  0.6463
  517SOL    HW2 1551   1.703   1.345   0.380 -2.0440  0.7579 -0.5346
  518SOL     OW 1552   1.892   2.620   0.905  0.5579 -0.4129 -0.4598
  518SOL    HW1 1553   1.855   2.681   0.977  0.1594 -0.9888 -0.1765
  518SOL    HW2 1554   1.824   2.595   0.834  1.3234  0.5075 -1.5414
  519SOL     OW 1555   0.119   2.837   0.171 -0.0832  0.1205 -0.6047
  519SOL    HW1 1556   0.055   2.878   0.105  1.5048  0.8997 -1.6779
  519SOL    HW2 1557   0.075   2.778   0.241  1.2675 -0.8967 -0.6048
  520SOL     OW 1558   2.286   1.402   1.853 -0.5412  0.0295 -0.4703
  520SOL    HW1 1559   2.354   1.331   1.878 -0.1536 -0.1693 -2.0571
  520SOL    HW2 1560   2.216   1.415   1.925  0.3302  1.4878  0.1414
  521SOL     OW 1561   1.371   3.081   2.003 -0.6346 -0.4949  0.0163
  521SOL    HW1 1562   1.374   3.064   1.903 -0.5285 -0.5366  0.0261
  521SOL    HW2 1563   1.406   3.174   2.021 -1.4477 -0.2330  0.2412
  522SOL     OW 1564   0.528   2.763   1.799 -0.7946 -0.3359 -0.2175
  522SOL    HW1 1565   0.604   2.730   1.740  0.7294  0.9574  0.9655
  522SOL    HW2 1566   0.536   2.860   1.826 -2.9498 -0.2875  0.3460
  523SOL     OW 1567   0.513   2.510   2.232 -0.2595 -0.3008  0.1089
  523SOL    HW1 1568   0.413   2.503   2.239 -0.3847 -0.9171 -1.8186
  523SOL    HW2 1569   0.550   2.579   2.168  3.2199 -0.7719  1.4895
  524SOL     OW 1570   2.117   2.077   0.567 -0.2899 -0.4764 -0.0000
  524SOL    HW1 1571   2.025   2.097   0.530 -0.1612  1.2567  0.5549
  524SOL    HW2 1572   2.114   2.053   0.665 -2.3157 -1.9566 -0.4039
  525SOL     OW 1573   2.728   0.462   2.526  0.3870 -0.4339 -0.0689
  525SOL    HW1 1574   2.804   0.406   2.490  0.2845  0.0191 -1.0060
  525SOL    HW2 1575   2.668   0.407   2.585 -1.0758  1.1992  0.0034
  526SOL     OW 1576   0.017   2.649   0.347 -0.0620 -0.7535  0.2102
  526SOL    HW1 1577  -0.045   2.663   0.426  0.8714  0.5375  0.7313
  526SOL    HW2 1578  -0.008   2.559   0.308 -0.3626 -0.9509  0.8381
  527SOL     OW 1579   2.986   1.123   1.132  0.2783  0.9520  0.0017
  527SOL    HW1 1580   3.036   1.113   1.045  1.3030  0.2058  0.6491
  527SOL    HW2 1581   3.008   1.214   1.170 -1.9158  2.2938 -1.8376
  528SOL     OW 1582   0.960   1.339   2.359 -0.0156  0.3329 -0.0467
  528SOL    HW1 1583   0.889   1.289   2.412  1.4241 -1.9972 -0.2214
  528SOL    HW2 1584   1.035   1.277   2.332  0.5966 -0.4111  3.1317
  529SOL     OW 1585   0.790   1.434   0.272  0.1628 -0.2321  0.1282
  529SOL    HW1 1586   0.711   1.410   0.331 -0.3310  0.4142 -0.2647
  529SOL    HW2 1587   0.854   1.356   0.264  0.0136 -0.2484 -0.8978
  530SOL     OW 1588   1.601   0.738   1.597  0.2973 -0.5787  0.5444
  530SOL    HW1 1589   1.626   0.698   1.508  0.5218  3.2650 -1.2213
  530SOL    HW2 1590   1.504   0.719   1.620 -0.3086  1.8983  0.2469
  531SOL     OW 1591   0.976   2.399   0.388  0.8257  0.2122 -0.1866
  531SOL    HW1 1592   0.882   2.407   0.352  1.2634 -1.4428 -1.7980
  531SOL    HW2 1593   0.982   2.323   0.455  3.1674 -0.2225 -0.8313
  532SOL     OW 1594   3.037   0.701   2.513  0.2619 -0.1573  0.5225
  532SOL    HW1 1595   2.960   0.757   2.547 -1.0476 -1.9943  0.6885
  532SOL    HW2 1596   3.050   0.729   2.416  1.7748 -1.0658  0.4517
  533SOL     OW 1597   0.137   0.104   2.111  0.0703 -0.1612  0.1724
  533SOL    HW1 1598   0.212   0.042   2.084 -1.9878 -2.1303 -1.2394
  533SOL    HW2 1599   0.056   0.097   2.050 -0.4490  2.0518  0.5583
  534SOL     OW 1600   2.287   0.116   2.688 -0.3399 -0.0428  0.1244
  534SOL    HW1 1601   2.341   0.083   2.767  2.0985  0.9400 -1.0857
  534SOL    HW2 1602   2.243   0.035   2.645 -1.8904  0.3904  0.8686
  535SOL     OW 1603   0.084   0.505   3.013 -0.1394 -0.0527  0.2140
  535SOL    HW1 1604   0.062   0.603   3.002 -1.0329  0.0257  2.4678
  535SOL    HW2 1605   0.174   0.473   2.977 -0.5296 -1.2168  0.2454
  536SOL     OW 1606   0.896   1.982   1.308 -0.1769  0.2229  0.0979
  536SOL    HW1 1607   0.811   2.024   1.273 -1.0910  0.5828  2.6951
  536SOL    HW2 1608   0.964   2.056   1.323 -0.3104  0.1559  1.0520
  537SOL     OW 1609   2.938   2.554   1.405  0.6981  0.3551 -0.2246
  537SOL    HW1 1610   2.916   2.594   1.315 -2.4554 -1.8165 -0.4871
  537SOL    HW2 1611   2.850   2.519   1.440  0.2715  1.1265 -0.5252
  538SOL     OW 1612   0.830   2.722   0.165 -0.9191  0.2754  0.2347
  538SOL    HW1 1613   0.871   2.802   0.120 -1.7861  1.3411  1.3233
  538SOL    HW2 1614   0.773   2.665   0.104  0.6137  0.3173 -1.2668
  539SOL     OW 1615   1.723   1.224   2.689 -0.1338 -0.1335  0.1222
  539SOL    HW1 1616   1.730   1.161   2.610 -0.0537 -1.3224  1.0508
  539SOL    HW2 1617   1.806   1.223   2.747  0.9881 -1.1874 -1.4522
  540SOL     OW 1618   1.852   0.728   2.793 -0.1993 -0.0408 -0.1907
  540SOL    HW1 1619   1.945   0.755   2.762  0.7676 -0.7932  1.9076
  540SOL    HW2 1620   1.813   0.666   2.724 -0.3153 -0.9108  0.6468
  541SOL     OW 1621   1.665   0.943   2.825 -0.2371  0.0795  0.1729
  541SOL    HW1 1622   1.648   1.027   2.771  1.0377  1.0931  1.3266
  541SOL    HW2 1623   1.732   0.882   2.781  1.3266  1.6214  0.3748
  542SOL     OW 1624   1.172   2.538   1.807 -0.4701 -1.0138 -0.2818
  542SOL    HW1 1625   1.198   2.513   1.712  1.9901  0.1323  0.0460
  542SOL    HW2 1626   1.250   2.536   1.870  0.2517  0.8006 -1.0704
  543SOL     OW 1627   0.559   2.719   2.831 -0.3241 -0.1273  0.4032
  543SOL    HW1 1628   0.473   2.680   2.796 -1.1756  0.7235  1.5101
  543SOL    HW2 1629   0.551   2.818   2.812 -0.0015 -0.5891 -2.2831
  544SOL     OW 1630   0.312   2.067   2.152  0.1484  0.6243 -0.1694
  544SOL    HW1 1631   0.405   2.048   2.116  1.0564  3.9997  0.2208
  544SOL    HW2 1632   0.327   2.126   2.233 -1.1242 -1.1567  1.3999
  545SOL     OW 1633   1.202   1.960   1.404 -0.2249  0.3657  0.0259
  545SOL    HW1 1634   1.226   2.053   1.372 -0.8539  1.5306  2.7953
  545SOL    HW2 1635   1.131   1.908   1.355 -0.2242  3.0072 -2.9808
  546SOL     OW 1636   0.255   0.309   2.667 -0.0931 -0.0428 -0.1235
  546SOL    HW1 1637   0.242   0.209   2.672 -1.7315  0.1575 -0.0535
  546SOL    HW2 1638   0.170   0.362   2.653 -1.1293 -1.4592  0.7066
  547SOL     OW 1639   1.649   2.922   0.800 -0.3909  0.4785 -0.7450
  547SOL    HW1 1640   1.557   2.880   0.804 -0.4052  0.5589 -0.0415
  547SOL    HW2 1641   1.656   3.007   0.746 -0.2702  0.1780 -1.2056
  548SOL     OW 1642   1.159   2.404   0.191  0.1597 -0.4224 -0.5028
  548SOL    HW1 1643   1.088   2.385   0.261  1.3227  0.0232  0.8232
  548SOL    HW2 1644   1.131   2.482   0.133 -0.0148  0.9757  1.3863
  549SOL     OW 1645   2.050   0.414   2.859 -0.1285 -0.3878 -0.2418
  549SOL    HW1 1646   2.129   0.468   2.893 -0.2306  0.0090 -0.6288
  549SOL    HW2 1647   2.083   0.380   2.769 -1.3008 -0.4063 -0.6657
  550SOL     OW 1648   2.387   2.002   1.035 -0.2824  0.6761 -0.2214
  550SOL    HW1 1649   2.333   1.933   1.085 -0.2848  1.4901  0.9336
  550SOL    HW2 1650   2.484   1.981   1.056 -0.6067  0.4876  1.1301
  551SOL     OW 1651   1.370   0.190   1.338 -0.2880 -0.5431 -0.0537
  551SOL    HW1 1652   1.327   0.125   1.402  0.3553 -1.2203 -0.3053
  551SOL    HW2 1653   1.436   0.144   1.276 -0.9443 -2.4065  0.6061
  552SOL     OW 1654   0.425   1.661   2.359 -0.0903  0.4211  0.0289
  552SOL    HW1 1655   0.382   1.633   2.447 -1.5947 -2.5758 -1.5992
  552SOL    HW2 1656   0.353   1.658   2.288  0.2013 -0.9406 -0.2038
  553SOL     OW 1657   2.553   2.205   2.980  0.4714 -0.2523 -0.3078
  553SOL    HW1 1658   2.515   2.143   3.050 -1.1557  0.1970 -0.7561
  553SOL    HW2 1659   2.608   2.283   3.013  2.5016 -0.9573 -1.8953
  554SOL     OW 1660   1.891   1.255   1.665  0.8844  0.1973  0.4444
  554SOL    HW1 1661   1.796   1.289   1.668  0.0092 -1.9176 -1.5740
  554SOL    HW2 1662   1.891   1.173   1.605 -1.6243  0.6899 -0.2805
  555SOL     OW 1663   0.485   2.383   2.694 -0.3229  0.4771  0.6228
  555SOL    HW1 1664   0.495   2.338   2.604 -0.4789  0.5854  0.5509
  555SOL    HW2 1665   0.568   2.383   2.751 -0.6348  1.5744  1.1052
  556SOL     OW 1666   1.509   0.960   1.745 -0.5182  0.0421 -0.0078
  556SOL    HW1 1667   1.464   0.880   1.703 -2.2925 -0.5268  2.8477
  556SOL    HW2 1668   1.586   0.933   1.804  0.1027 -2.0388 -1.7006
  557SOL     OW 1669   1.739   2.945   1.411  0.1571  0.3840  0.1959
  557SOL    HW1 1670   1.777   2.904   1.496  0.7252 -0.6054 -0.5345
  557SOL    HW2 1671   1.808   2.938   1.338  0.6617 -2.2027  0.8716
  558SOL     OW 1672   0.779   0.901   2.409  0.8839  0.2947  0.4531
  558SOL    HW1 1673   0.758   0.902   2.310 -0.4789  0.4892  0.7329
  558SOL    HW2 1674   0.689   0.906   2.455 -0.7015 -0.9086 -2.3075
  559SOL     OW 1675   1.079   2.573   0.005 -0.1124 -0.7778  0.2564
  559SOL    HW1 1676   1.082   2.656  -0.053 -0.0744  0.0942  1.4654
  559SOL    HW2 1677   0.991   2.523  -0.002 -0.7626  0.2897  0.4646
  560SOL     OW 1678   1.978   2.133   3.048  0.5054  0.2168  0.3814
  560SOL    HW1 1679   1.900   2.139   3.112  0.4147 -3.7439  0.7270
  560SOL    HW2 1680   2.059   2.090   3.090 -0.1699 -1.7015 -0.2623
  561SOL     OW 1681   1.005   2.584   0.651  0.2951  0.1970  0.6521
  561SOL    HW1 1682   1.090   2.530   0.643 -0.5301 -0.8895 -1.1741
  561SOL    HW2 1683   0.975   2.625   0.564  1.6232 -2.7752 -1.2758
  562SOL     OW 1684   0.614   1.315   2.209 -0.7172 -0.2095  0.1192
  562SOL    HW1 1685   0.646   1.297   2.303 -0.3360 -1.8616 -0.3152
  562SOL    HW2 1686   0.599   1.414   2.196  0.6026  0.0638  0.5689
  563SOL     OW 1687   1.097   2.011   2.443  0.0364 -0.0861  0.2209
  563SOL    HW1 1688   1.060   2.081   2.380  0.2527 -0.8782 -0.7986
  563SOL    HW2 1689   1.171   1.959   2.398 -1.5538 -2.3127  0.0988
  564SOL     OW 1690   2.578   0.757   1.296  0.4714  0.1107  0.5088
  564SOL    HW1 1691   2.478   0.763   1.286  0.9098  1.4454 -3.8391
  564SOL    HW2 1692   2.623   0.694   1.230  0.8701  1.6693 -0.7210
  565SOL     OW 1693   1.112   0.721   0.402  0.0425 -0.2903  0.0575
  565SOL    HW1 1694   1.095   0.652   0.474 -0.1635 -1.1315 -0.7938
  565SOL    HW2 1695   1.032   0.716   0.341  0.2844 -3.0919 -0.1274
  566SOL     OW 1696   2.634   2.635   2.869 -0.1147 -0.1579  0.4241
  566SOL    HW1 1697   2.538   2.606   2.869 -0.2936  0.3979 -1.0343
  566SOL    HW2 1698   2.692   2.560   2.905 -0.2089 -0.8692 -0.8582
  567SOL     OW 1699   2.059   1.019   1.308  0.1728 -0.3980 -0.7344
  567SOL    HW1 1700   2.094   1.027   1.213  0.4640  1.5413 -0.4809
  567SOL    HW2 1701   2.138   1.042   1.367 -2.2835  1.6988  1.8357
  568SOL     OW 1702   1.318   0.870   2.355 -0.1963 -0.2802 -0.1225
  568SOL    HW1 1703   1.239   0.912   2.307 -0.0643 -0.0464 -0.1377
  568SOL    HW2 1704   1.381   0.829   2.289 -0.1928 -0.9416  0.2900
  569SOL     OW 1705   2.199   1.697   0.958 -0.0819  0.1650  0.1749
  569SOL    HW1 1706   2.232   1.739   0.873  0.8088 -1.1525 -0.1439
  569SOL    HW2 1707   2.261   1.626   0.994 -2.5511 -1.8409  0.6473
  570SOL     OW 1708   2.828   2.593   2.422 -0.5239  0.3521  0.0090
  570SOL    HW1 1709   2.867   2.682   2.394  0.0050  0.2389  0.3815
  570SOL    HW2 1710   2.806   2.598   2.521  2.7669 -0.5133  0.8226
  571SOL     OW 1711   0.070   1.999   1.656 -0.0647  0.1189  0.1965
  571SOL    HW1 1712   0.036   2.033   1.745  1.6609  0.7034  0.6482
  571SOL    HW2 1713  -0.009   1.968   1.601  0.9904  1.3864 -2.0900
  572SOL     OW 1714   0.883   2.116   2.565  0.3412  0.4817  0.1976
  572SOL    HW1 1715   0.853   2.208   2.538  0.8886  0.5757 -0.1043
  572SOL    HW2 1716   0.967   2.079   2.523  0.6891  0.4543  0.9202
  573SOL     OW 1717   1.482   2.291   1.155 -0.0142  0.4148 -0.1356
  573SOL    HW1 1718   1.562   2.255   1.206 -0.5614 -0.3485  0.1793
  573SOL    HW2 1719   1.485   2.392   1.149 -1.4924  0.4392 -0.7727
  574SOL     OW 1720   1.038   2.727   1.426  1.2814 -0.1821 -0.3683
  574SOL    HW1 1721   1.038   2.796   1.501  0.1378 -0.0768 -0.4539
  574SOL    HW2 1722   0.991   2.758   1.342  0.9408 -1.6521 -0.7266
  575SOL     OW 1723   0.653   0.327   0.846 -0.0523 -0.4875 -0.3375
  575SOL    HW1 1724   0.644   0.268   0.928 -0.9980  2.2519  1.6312
  575SOL    HW2 1725   0.638   0.279   0.759  1.6368  0.0890 -0.9520
  576SOL     OW 1726   1.836   0.544   1.077  1.0459 -0.3681  0.0892
  576SOL    HW1 1727   1.774   0.475   1.036  1.5695 -0.4069 -0.6575
  576SOL    HW2 1728   1.806   0.640   1.084 -0.7788 -1.0252  1.8162
  577SOL     OW 1729   2.237   0.182   0.239  0.4723 -0.0487  0.2912
  577SOL    HW1 1730   2.153   0.129   0.259  1.2123 -2.1040 -1.7843
  577SOL    HW2 1731   2.312   0.132   0.193  1.0188 -0.8435  1.9851
  578SOL     OW 1732   1.445   1.949   1.854  0.0917 -0.3147  0.2804
  578SOL    HW1 1733   1.383   1.949   1.774 -0.5729  1.4503  0.7716
  578SOL    HW2 1734   1.413   2.019   1.920 -0.5687  0.2545 -0.6397
  579SOL     OW 1735   1.037   1.465   0.734 -0.0352 -0.2604 -0.0741
  579SOL    HW1 1736   1.055   1.443   0.831  1.4777  2.2068  0.2584
  579SOL    HW2 1737   1.038   1.384   0.673  1.3750 -1.1585  1.1236
  580SOL     OW 1738   0.902   2.962   3.075  0.5000 -0.6026  0.0165
  580SOL    HW1 1739   0.801   2.961   3.077  0.4834 -2.8003 -0.6368
  580SOL    HW2 1740   0.941   3.013   3.153  0.2167  0.3771 -0.4751
  581SOL     OW 1741   0.913   0.741   1.381  0.1697  0.6750 -0.1194
  581SOL    HW1 1742   0.960   0.686   1.310  0.2215 -0.6999  0.9471
  581SOL    HW2 1743   0.915   0.839   1.357  3.6323 -0.0327 -3.1929
  582SOL     OW 1744   0.341   0.197   0.643  0.1172 -0.2187 -0.6493
  582SOL    HW1 1745   0.295   0.185   0.733  1.8607  1.5970  0.5356
  582SOL    HW2 1746   0.439   0.170   0.643  0.4585  0.9787  0.1872
  583SOL     OW 1747   0.993   1.734   1.883 -0.5511  0.2357 -0.2527
  583SOL    HW1 1748   0.921   1.732   1.812 -0.1520 -0.6797 -0.6353
  583SOL    HW2 1749   0.992   1.828   1.922  0.5569  0.5317 -0.9277
  584SOL     OW 1750   2.979   2.417   0.219 -0.4362 -0.2516  0.1862
  584SOL    HW1 1751   3.068   2.375   0.196  2.0540  4.1539  1.0703
  584SOL    HW2 1752   2.920   2.361   0.279 -0.4495  0.3053  0.7033
  585SOL     OW 1753   2.246   0.582   2.931 -0.2397  0.2774 -0.1312
  585SOL    HW1 1754   2.327   0.543   2.884 -0.3761 -3.3962  2.4903
  585SOL    HW2 1755   2.255   0.548   3.026  2.6230 -1.6196 -1.0323
  586SOL     OW 1756   0.323   1.365   0.290  0.5291  0.1200  0.3840
  586SOL    HW1 1757   0.330   1.419   0.205 -0.0906  1.6552  1.2805
  586SOL    HW2 1758   0.256   1.289   0.284  0.1399  0.3929  1.1312
  587SOL     OW 1759   1.273   2.197   1.319  0.4528 -0.1437  0.1267
  587SOL    HW1 1760   1.183   2.199   1.271 -0.1745 -0.9876  1.2442
  587SOL    HW2 1761   1.344   2.237   1.258 -0.3773  0.4164 -0.5017
  588SOL     OW 1762   0.633   0.836   1.346 -0.8936  0.0343  0.3832
  588SOL    HW1 1763   0.556   0.842   1.411 -0.3747  0.0671  1.0057
  588SOL    HW2 1764   0.718   0.871   1.389  0.1165  0.1168 -1.6477
  589SOL     OW 1765   1.769   2.835   1.017  0.2405 -0.0928  0.4377
  589SOL    HW1 1766   1.816   2.894   1.083 -4.0022  1.6005  2.1236
  589SOL    HW2 1767   1.719   2.889   0.948 -1.5201 -1.7550  0.3537
  590SOL     OW 1768   1.621   1.016   0.499  0.0780  0.2808  0.2240
  590SOL    HW1 1769   1.520   1.016   0.501  0.0779  0.4125  0.2773
  590SOL    HW2 1770   1.640   1.113   0.475 -1.4828  0.4081 -0.5908
  591SOL     OW 1771   2.033   1.756   1.939 -0.2784 -0.1515 -0.6356
  591SOL    HW1 1772   1.956   1.708   1.895 -1.7496  0.5806  1.0835
  591SOL    HW2 1773   2.109   1.774   1.875  0.9628  0.7854  1.0557
  592SOL     OW 1774   1.052   1.911   0.880 -0.5915  0.9899 -0.2912
  592SOL    HW1 1775   0.963   1.892   0.924  0.6360 -3.0021  0.7461
  592SOL    HW2 1776   1.060   1.841   0.807 -1.6408 -2.0483  2.3564
  593SOL     OW 1777   0.721   2.876   1.129  0.2050  0.3271  0.1021
  593SOL    HW1 1778   0.779   2.825   1.064 -2.5697 -2.3057 -0.3859
  593SOL    HW2 1779   0.623   2.863   1.107 -0.1574  1.5489  0.9177
  594SOL     OW 1780   3.034   1.577   1.820  0.2550 -0.3808 -0.2636
  594SOL    HW1 1781   3.006   1.578   1.917 -3.2753  3.1822 -1.1852
  594SOL    HW2 1782   2.981   1.511   1.765 -1.7439  2.7350 -2.2079
  595SOL     OW 1783   2.807   0.052   0.137 -0.1479  0.4385 -0.2488
  595SOL    HW1 1784   2.903   0.084   0.151 -0.6141  0.5570  3.0112
  595SOL    HW2 1785   2.775   0.045   0.041  0.0948 -0.8452 -0.2464
  596SOL     OW 1786   0.113   0.360   1.437  0.2644 -0.3254 -0.2006
  596SOL    HW1 1787   0.213   0.345   1.426  0.1476 -1.1448 -0.1500
  596SOL    HW2 1788   0.067   0.369   1.347  2.1847  2.4306 -0.9724
  597SOL     OW 1789   2.603   1.250   0.486 -0.5425  0.0754  0.1115
  597SOL    HW1 1790   2.646   1.175   0.435  1.3321 -0.1386  1.8987
  597SOL    HW2 1791   2.620   1.243   0.586 -0.3809  0.6858  0.1343
  598SOL     OW 1792   0.623   0.561   1.794  0.1143 -0.0955  0.4138
  598SOL    HW1 1793   0.637   0.530   1.699  2.2826  0.2124  0.6111
  598SOL    HW2 1794   0.648   0.483   1.852  1.6971  0.8569  1.0548
  599SOL     OW 1795   2.448   1.710   0.120 -0.2463  0.3834 -0.5888
  599SOL    HW1 1796   2.481   1.715   0.215  1.1037 -0.9323 -0.9588
  599SOL    HW2 1797   2.422   1.614   0.101  2.3878 -0.2876 -0.8988
  600SOL     OW 1798   0.956   0.945   0.130  0.5421  0.0148 -0.5320
  600SOL    HW1 1799   1.044   0.977   0.167 -0.5443  1.4326  0.8791
  600SOL    HW2 1800   0.891   1.018   0.154  0.0610 -1.6819  3.8493
  601SOL     OW 1801   1.223   0.935   0.264 -0.3505 -0.2411  0.0966
  601SOL    HW1 1802   1.277   0.919   0.180  1.8837  1.6773  1.1185
  601SOL    HW2 1803   1.199   0.850   0.314 -0.5814 -0.9468 -1.1912
  602SOL     OW 1804   0.983   2.902   1.642  0.1478  0.8013  0.3615
  602SOL    HW1 1805   1.015   2.864   1.730 -1.1622  0.4965  0.7103
  602SOL    HW2 1806   0.993   3.003   1.642  2.0743  0.6949 -2.7521
  603SOL     OW 1807   1.003   2.774   2.330  0.8588 -0.5029 -0.4555
  603SOL    HW1 1808   0.932   2.828   2.379  0.4854 -0.2931 -1.2088
  603SOL    HW2 1809   1.054   2.829   2.261  2.1483  0.0511  0.9232
  604SOL     OW 1810   2.639   0.191   2.075 -0.2564 -0.1429 -0.1149
  604SOL    HW1 1811   2.688   0.187   2.164 -1.1958  1.0937  0.4885
  604SOL    HW2 1812   2.538   0.201   2.082 -0.1696  0.8430 -0.2534
  605SOL     OW 1813   2.559   2.746   1.585  0.0441  0.3509  0.4682
  605SOL    HW1 1814   2.511   2.715   1.668 -0.5081  0.6362  0.2564
  605SOL    HW2 1815   2.658   2.734   1.603  0.1173 -0.6308 -0.5458
  606SOL     OW 1816   2.956   2.095   2.461 -0.0858 -0.3668 -0.3775
  606SOL    HW1 1817   2.881   2.162   2.454  0.3509  0.1348 -0.3288
  606SOL    HW2 1818   2.949   2.058   2.555  0.5199  1.8193  0.5779
  607SOL     OW 1819   1.032   0.095   0.685 -0.0868 -0.0466 -0.2502
  607SOL    HW1 1820   0.993   0.173   0.737  2.7582  0.2162  1.5550
  607SOL    HW2 1821   1.112   0.124   0.631 -0.5755  1.2207 -0.3190
  608SOL     OW 1822   1.901   1.680   2.442 -0.4169  0.4738 -0.2712
  608SOL    HW1 1823   1.846   1.756   2.480 -2.1770 -0.8423 -0.1247
  608SOL    HW2 1824   1.972   1.715   2.378 -1.7976 -0.5655 -2.4194
  609SOL     OW 1825   0.007   0.376   1.167 -0.0422 -0.2025  0.0321
  609SOL    HW1 1826  -0.056   0.298   1.167  0.0825 -0.3306 -2.5453
  609SOL    HW2 1827   0.052   0.392   1.078 -0.6515 -0.2732 -0.2864
  610SOL     OW 1828   1.052   2.478   2.757  0.4229 -0.6035 -0.0178
  610SOL    HW1 1829   0.984   2.539   2.800 -0.5345  0.3330 -2.7810
  610SOL    HW2 1830   1.083   2.514   2.667 -0.7709  1.9769  0.5683
  611SOL     OW 1831   1.754   1.473   0.054 -0.9989 -0.4679 -0.1244
  611SOL    HW1 1832   1.743   1.546   0.124 -0.6757  0.6703 -1.2298
  611SOL    HW2 1833   1.726   1.381   0.085  0.8703 -1.0231 -0.0354
  612SOL     OW 1834   1.109   2.827   2.622 -0.3765 -0.1787  0.1329
  612SOL    HW1 1835   1.010   2.815   2.640 -0.5209  0.8823  0.0778
  612SOL    HW2 1836   1.145   2.754   2.562 -0.3309  0.4225 -0.5769
  613SOL     OW 1837   1.228   2.151   0.111 -0.1030  0.9602 -0.4183
  613SOL    HW1 1838   1.187   2.244   0.115 -3.0703 -0.2894 -0.2146
  613SOL    HW2 1839   1.185   2.098   0.037 -0.6984  0.8300  0.0133
  614SOL     OW 1840   2.697   2.388   1.464 -0.1615  0.5602  0.3954
  614SOL    HW1 1841   2.682   2.408   1.366 -2.6210 -1.3275  0.3353
  614SOL    HW2 1842   2.608   2.371   1.510 -1.1774 -0.8796 -1.9819
  615SOL     OW 1843   2.750   1.449   0.061 -0.0731  0.1023  0.4077
  615SOL    HW1 1844   2.717   1.473   0.153  1.8269  1.8464  0.6538
  615SOL    HW2 1845   2.781   1.352   0.055 -2.7944 -0.8359  0.8378
  616SOL     OW 1846   1.617   0.039   0.617  0.0459  0.3151 -0.0501
  616SOL    HW1 1847   1.591   0.030   0.520 -0.7389  1.3903  0.0479
  616SOL    HW2 1848   1.542   0.070   0.678 -0.7307 -0.1676 -0.7605
  617SOL     OW 1849   0.658   1.572   2.769  0.6333 -0.0757  0.7810
  617SOL    HW1 1850   0.573   1.626   2.783  1.1102  1.2144 -1.0417
  617SOL    HW2 1851   0.649   1.483   2.816  0.1125 -0.6669 -0.4078
  618SOL     OW 1852   0.444   0.572   1.544  0.1365  1.0668  0.3846
  618SOL    HW1 1853   0.434   0.667   1.576 -0.0986  0.6091  1.7170
  618SOL    HW2 1854   0.537   0.533   1.538 -0.5844 -0.3501 -2.2833
  619SOL     OW 1855   2.882   0.912   2.232 -0.1560  0.0706  0.2274
  619SOL    HW1 1856   2.861   0.846   2.157 -1.0653  1.0152 -0.3660
  619SOL    HW2 1857   2.855   1.005   2.203  1.3183  0.7654  1.0678
  620SOL     OW 1858   2.257   1.332   2.458 -0.8241  0.1019 -0.8459
  620SOL    HW1 1859   2.186   1.400   2.485  0.8384  1.9621 -1.0215
  620SOL    HW2 1860   2.293   1.344   2.364 -0.2102  2.1528 -0.3827
  621SOL     OW 1861   2.407   2.579   1.409 -0.4421 -0.1915 -0.1281
  621SOL    HW1 1862   2.397   2.492   1.460 -1.0747  0.7993  1.4756
  621SOL    HW2 1863   2.462   2.636   1.472  0.4076  0.3359 -1.3166
  622SOL     OW 1864   1.680   0.696   2.128  0.1348 -1.0472  0.1481
  622SOL    HW1 1865   1.591   0.745   2.135  1.1200  0.7365  0.3944
  622SOL    HW2 1866   1.707   0.672   2.222 -1.3526 -1.1991  0.5500
  623SOL     OW 1867   1.477   0.748   2.860 -0.3441  0.0955  0.3878
  623SOL    HW1 1868   1.535   0.826   2.833 -1.4586  0.8908  0.2652
  623SOL    HW2 1869   1.388   0.751   2.812 -1.2404  1.2731  2.1000
  624SOL     OW 1870   1.867   0.180   0.656 -0.0448  0.2765 -0.6046
  624SOL    HW1 1871   1.877   0.237   0.739 -3.0804  1.4989 -1.0077
  624SOL    HW2 1872   1.778   0.132   0.656  0.1414 -0.0906  0.4450
  625SOL     OW 1873   0.745   1.429   0.708  0.0081  0.1032  0.0906
  625SOL    HW1 1874   0.845   1.434   0.715  0.0856 -1.1452 -0.0521
  625SOL    HW2 1875   0.711   1.363   0.776  1.1464 -1.1218 -0.5046
  626SOL     OW 1876   1.623   1.188   2.247 -0.1864 -0.1334  1.0570
  626SOL    HW1 1877   1.607   1.274   2.297  1.2892  1.6481 -1.4576
  626SOL    HW2 1878   1.682   1.125   2.300  0.6392 -0.0806  0.2059
  627SOL     OW 1879   0.979   0.542   1.790 -0.5390 -0.1747 -0.0255
  627SOL    HW1 1880   1.014   0.587   1.874 -1.8510 -1.3188  1.1807
  627SOL    HW2 1881   0.900   0.590   1.749  0.6323  0.5629 -1.4398
  628SOL     OW 1882   2.314   0.507   2.537 -0.4092  0.4046  0.3891
  628SOL    HW1 1883   2.241   0.454   2.584  1.9541 -0.0003  3.7565
  628SOL    HW2 1884   2.297   0.523   2.438 -1.7686 -0.4797  0.4635
  629SOL     OW 1885   0.643   1.356   2.943 -0.3635  0.5344  0.1086
  629SOL    HW1 1886   0.657   1.423   3.018  1.5148  0.2088  0.0605
  629SOL    HW2 1887   0.554   1.308   2.939 -1.5187  2.6276 -0.5610
  630SOL     OW 1888   1.371   0.459   2.381 -0.3406  0.0602 -0.1122
  630SOL    HW1 1889   1.301   0.505   2.438  2.6202  1.7360  2.2806
  630SOL    HW2 1890   1.366   0.358   2.393  0.8960 -0.2923 -2.1925
  631SOL     OW 1891   2.533   0.765   0.742 -0.2736 -0.3102  0.0542
  631SOL    HW1 1892   2.599   0.807   0.679 -1.2989  0.0830 -0.7793
  631SOL    HW2 1893   2.573   0.708   0.815 -2.1272 -2.5242 -0.5654
  632SOL     OW 1894   2.531   1.649   0.707  0.3438  0.2043 -0.4748
  632SOL    HW1 1895   2.433   1.673   0.713  0.0248 -1.4495  1.2471
  632SOL    HW2 1896   2.586   1.731   0.686 -0.5032  1.0800  0.7107
  633SOL     OW 1897   0.793   1.171   0.835  0.0691  0.3443  0.4410
  633SOL    HW1 1898   0.806   1.191   0.737  0.9645  0.8991  0.6628
  633SOL    HW2 1899   0.756   1.078   0.851 -0.6916  0.6084  0.2506
  634SOL     OW 1900   1.575   2.818   0.174  0.1283  0.4547 -0.5811
  634SOL    HW1 1901   1.633   2.787   0.097  1.4075  0.1023  0.5078
  634SOL    HW2 1902   1.498   2.871   0.137 -1.4737  2.0956  4.7412
  635SOL     OW 1903   1.883   0.412   1.848  0.1278  0.4562  0.3910
  635SOL    HW1 1904   1.851   0.411   1.944 -0.2453  1.4481  0.2841
  635SOL    HW2 1905   1.820   0.471   1.796 -0.7097  0.3180  1.2430
  636SOL     OW 1906   1.378   0.759   0.559 -0.4572  0.8165  0.1124
  636SOL    HW1 1907   1.290   0.740   0.513 -0.0399  2.1628 -1.3026
  636SOL    HW2 1908   1.389   0.860   0.562  1.8261  0.6056 -0.0530
  637SOL     OW 1909   1.984   1.402   2.996 -0.8769  0.4757 -0.9294
  637SOL    HW1 1910   1.894   1.419   3.041  0.1757  1.4372  0.8912
  637SOL    HW2 1911   2.036   1.488   2.988 -0.6085  0.1880 -2.3247
  638SOL     OW 1912   1.005   0.040   2.345  0.1459 -0.4293 -0.3536
  638SOL    HW1 1913   1.000   0.140   2.334 -0.9545 -0.5600 -1.0923
  638SOL    HW2 1914   1.078   0.008   2.408  0.9150 -0.5037 -1.2870
  639SOL     OW 1915   0.924   2.013   1.629  0.2129  0.2835  0.0113
  639SOL    HW1 1916   0.928   2.007   1.528  0.0999  0.5004 -0.0043
  639SOL    HW2 1917   0.993   2.079   1.662 -0.3998  1.3360 -0.7968
  640SOL     OW 1918   0.649   0.271   2.587 -0.1510  0.3814 -0.3522
  640SOL    HW1 1919   0.719   0.270   2.661 -1.3089  0.8286  0.7631
  640SOL    HW2 1920   0.703   0.308   2.510 -0.1779  2.2104  0.4844
  641SOL     OW 1921   0.394   0.847   0.413 -0.4793  0.2417 -0.2007
  641SOL    HW1 1922   0.314   0.805   0.366 -0.2134 -1.9021  1.1707
  641SOL    HW2 1923   0.453   0.775   0.453  1.1633  0.8576 -1.4489
  642SOL     OW 1924   0.161   1.682   0.639 -0.4714 -0.4010 -0.1975
  642SOL    HW1 1925   0.223   1.762   0.636  0.7506 -1.4129 -3.5102
  642SOL    HW2 1926   0.068   1.716   0.620 -0.2355  2.2732  3.0315
  643SOL     OW 1927   0.609   2.018   2.623  0.0278 -0.2550  0.0965
  643SOL    HW1 1928   0.603   1.937   2.563 -3.2804 -0.7604  0.9817
  643SOL    HW2 1929   0.703   2.053   2.632 -0.1989  0.0243  1.6217
  644SOL     OW 1930   1.615   2.263   0.569  0.3364 -0.0792  0.7229
  644SOL    HW1 1931   1.605   2.202   0.489  1.2824  0.6109  0.0757
  644SOL    HW2 1932   1.628   2.359   0.538 -0.5949 -0.8775 -2.3415
  645SOL     OW 1933   0.775   2.694   1.689  0.4041  0.1382 -0.0407
  645SOL    HW1 1934   0.837   2.771   1.670 -2.4140  1.8171 -3.0287
  645SOL    HW2 1935   0.758   2.628   1.614 -1.3412 -1.9946  2.1308
  646SOL     OW 1936   0.623   2.906   3.063  0.6298 -0.0596  0.0592
  646SOL    HW1 1937   0.573   2.818   3.067  0.2958  0.0869 -0.9154
  646SOL    HW2 1938   0.661   2.935   2.974  0.4162  0.6620  0.1974
  647SOL     OW 1939   2.954   3.057   2.155 -0.6189  0.2078 -0.7659
  647SOL    HW1 1940   2.971   3.100   2.065 -0.0803 -3.0165 -2.2671
  647SOL    HW2 1941   2.973   3.117   2.235  0.4606 -0.6986 -0.3303
  648SOL     OW 1942   2.561   1.131   1.094  0.0800  0.2922 -0.3393
  648SOL    HW1 1943   2.491   1.108   1.163  1.6253  0.2401  1.2558
  648SOL    HW2 1944   2.628   1.202   1.123 -1.9487  1.8148  0.7447
  649SOL     OW 1945   2.338   2.635   2.807 -0.0743 -0.4742  0.5402
  649SOL    HW1 1946   2.250   2.653   2.853 -1.0225 -1.6877 -0.7666
  649SOL    HW2 1947   2.320   2.570   2.731 -0.2416  1.6197 -1.2409
  650SOL     OW 1948   2.767   2.331   1.852 -0.5056  0.1833  0.1101
  650SOL    HW1 1949   2.811   2.307   1.764 -0.2671 -0.3998  0.3824
  650SOL    HW2 1950   2.746   2.245   1.902 -0.2153 -0.8397 -1.4660
  651SOL     OW 1951   1.145   1.814   2.646  0.4151 -0.0843 -0.2462
  651SOL    HW1 1952   1.213   1.740   2.628  0.7796  0.1780  0.0555
  651SOL    HW2 1953   1.137   1.877   2.567  0.4628 -1.2184 -1.1732
  652SOL     OW 1954   0.548   0.250   2.171  0.2176 -0.7494  0.2215
  652SOL    HW1 1955   0.529   0.220   2.266  2.3133 -2.0286  0.2858
  652SOL    HW2 1956   0.460   0.269   2.126  0.9273  0.2379 -0.7818
  653SOL     OW 1957   1.802   1.902   0.859  0.0364  0.2226  0.0070
  653SOL    HW1 1958   1.769   1.997   0.846  1.3591  0.3150 -2.9786
  653SOL    HW2 1959   1.761   1.836   0.794 -0.4816 -0.4273  0.9816
  654SOL     OW 1960   2.191   2.669   1.993  0.2520  0.3686  1.1686
  654SOL    HW1 1961   2.178   2.568   2.002 -0.9859  0.3808 -0.2668
  654SOL    HW2 1962   2.265   2.698   2.056 -0.3729 -0.2081  2.1998
  655SOL     OW 1963   2.250   2.212   1.109 -0.5209 -0.2430  0.2531
  655SOL    HW1 1964   2.155   2.178   1.115 -1.3002  1.6076 -1.0997
  655SOL    HW2 1965   2.303   2.144   1.056  2.1651  2.3915 -0.5779
  656SOL     OW 1966   2.646   1.587   2.949 -0.3203 -0.2091  0.0212
  656SOL    HW1 1967   2.701   1.541   3.021 -0.5949  0.0304  0.3845
  656SOL    HW2 1968   2.552   1.548   2.947 -0.2924 -0.3986  1.3626
  657SOL     OW 1969   2.944   1.124   0.339 -0.6681  0.4957  0.0265
  657SOL    HW1 1970   2.961   1.179   0.256  0.0358 -1.2450 -1.0209
  657SOL    HW2 1971   2.844   1.110   0.340 -0.3884 -1.7380 -0.0247
  658SOL     OW 1972   0.988   1.738   1.269  0.2516  0.2785  0.0976
  658SOL    HW1 1973   0.938   1.823   1.292  0.7475  0.1453  1.7485
  658SOL    HW2 1974   0.991   1.719   1.170 -0.6161  0.8928 -0.0508
  659SOL     OW 1975   1.498   3.061   1.679  0.3475 -0.1533 -0.3286
  659SOL    HW1 1976   1.542   2.972   1.657  1.1420  0.2453 -0.3610
  659SOL    HW2 1977   1.564   3.132   1.649 -1.1056  1.7049  0.7910
  660SOL     OW 1978   2.317   0.094   1.007  0.0565 -0.6134  0.2775
  660SOL    HW1 1979   2.406   0.111   1.053  0.0868 -0.2843  0.1017
  660SOL    HW2 1980   2.276   0.004   1.027 -0.2292 -0.7844 -1.0334
  661SOL     OW 1981   0.360   1.852   0.339  0.4534 -0.0210 -0.1416
  661SOL    HW1 1982   0.435   1.786   0.355 -0.5835 -1.0373  0.6068
  661SOL    HW2 1983   0.269   1.810   0.352  0.9589 -1.5785 -1.4513
  662SOL     OW 1984   2.259   0.520   2.274  0.5633 -0.0607  0.2611
  662SOL    HW1 1985   2.285   0.423   2.278 -0.2448 -0.2536  1.2858
  662SOL    HW2 1986   2.313   0.567   2.203  1.4701 -0.7404  0.4959
  663SOL     OW 1987   1.997   1.337   1.309 -0.2073  0.2964  0.1469
  663SOL    HW1 1988   1.999   1.339   1.410  1.1475  0.9163  0.1133
  663SOL    HW2 1989   1.916   1.284   1.279 -0.6354  1.2405 -0.3521
  664SOL     OW 1990   0.632   0.262   1.222  0.2018 -0.2197 -0.0044
  664SOL    HW1 1991   0.685   0.176   1.210  0.8702  0.4983 -2.3420
  664SOL    HW2 1992   0.562   0.268   1.150  1.3398  0.3663 -1.0828
  665SOL     OW 1993   1.273   0.279   3.093 -0.0129 -0.0357  0.0915
  665SOL    HW1 1994   1.357   0.311   3.047  0.6682  0.3257  1.5433
  665SOL    HW2 1995   1.223   0.362   3.123  0.0253 -0.3106  0.9274
  666SOL     OW 1996   0.749   0.592   2.156 -0.1029 -0.0340  0.2044
  666SOL    HW1 1997   0.723   0.541   2.073  1.6299 -1.2540  0.3828
  666SOL    HW2 1998   0.782   0.687   2.150  2.2223 -0.8240  0.0442
  667SOL     OW 1999   1.348   1.359   1.435  0.3974 -0.0662 -0.0684
  667SOL    HW1 2000   1.354   1.297   1.515  1.1942  0.5324  0.3357
  667SOL    HW2 2001   1.276   1.429   1.444  1.1811  0.7497 -0.0777
  668SOL     OW 2002   0.483   1.119   2.059 -0.1728  0.8741  0.3292
  668SOL    HW1 2003   0.537   1.173   2.125 -0.7099  1.1104  0.5722
  668SOL    HW2 2004   0.411   1.171   2.012 -0.8859 -0.0154  0.4199
  669SOL     OW 2005   2.614   2.315   2.696  0.9163  0.5385 -0.0323
  669SOL    HW1 2006   2.691   2.334   2.759  0.3654  0.5387  0.6445
  669SOL    HW2 2007   2.545   2.259   2.745  2.5312 -0.7818  0.7952
  670SOL     OW 2008   2.370   1.644   1.740 -0.9290 -0.4460 -0.5145
  670SOL    HW1 2009   2.452   1.630   1.682 -0.6172  2.5443 -0.9045
  670SOL    HW2 2010   2.340   1.565   1.795 -1.1620  0.4442  0.6781
  671SOL     OW 2011   2.756   1.497   0.651 -0.5399 -0.3829  0.5203
  671SOL    HW1 2012   2.662   1.519   0.680 -0.9078 -0.3171 -0.7109
  671SOL    HW2 2013   2.749   1.453   0.560 -0.6941 -1.2499  0.9383
  672SOL     OW 2014   1.837   0.850   2.332  0.6041  0.0152  0.1075
  672SOL    HW1 2015   1.926   0.861   2.379 -0.0749  3.0961  0.7533
  672SOL    HW2 2016   1.844   0.836   2.232 -2.4016  1.7955 -0.4020
  673SOL     OW 2017   2.864   2.225   1.603  0.1601 -0.1086  0.4448
  673SOL    HW1 2018   2.956   2.259   1.576  0.0276  0.3105  0.5070
  673SOL    HW2 2019   2.796   2.251   1.532  0.4008  0.0359  0.2662
  674SOL     OW 2020   0.313   2.029   1.281 -0.2735 -0.2920  0.5732
  674SOL    HW1 2021   0.216   2.049   1.304 -1.3732 -2.2034 -2.1501
  674SOL    HW2 2022   0.369   2.103   1.241  0.1043 -0.8761  0.0231
  675SOL     OW 2023   0.041   0.795   1.401 -0.2957 -0.0262 -0.0591
  675SOL    HW1 2024  -0.050   0.775   1.441  0.6452 -5.1172 -0.1349
  675SOL    HW2 2025   0.047   0.896   1.392 -3.1146  0.1685 -0.1370
  676SOL     OW 2026   2.724   1.053   1.889  0.1786  0.0601 -0.0213
  676SOL    HW1 2027   2.747   1.151   1.898 -1.3442  0.3680  0.7245
  676SOL    HW2 2028   2.649   1.023   1.829  1.6438  1.2457 -2.5242
  677SOL     OW 2029   2.081   1.147   2.552  0.3462 -0.4061 -0.2921
  677SOL    HW1 2030   2.167   1.197   2.535 -0.3400  0.0461 -2.5600
  677SOL    HW2 2031   2.048   1.175   2.644 -1.1702 -0.1507 -0.9038
  678SOL     OW 2032   2.393   1.537   1.089  0.2429 -0.5627 -0.4643
  678SOL    HW1 2033   2.429   1.489   1.008  3.2942 -2.3177  1.8090
  678SOL    HW2 2034   2.369   1.468   1.159 -3.9120 -0.1143 -1.3278
  679SOL     OW 2035   3.007   2.210   2.948  0.0151 -0.3573  0.0481
  679SOL    HW1 2036   3.066   2.151   3.005 -1.9711 -0.6407  1.8812
  679SOL    HW2 2037   2.917   2.165   2.934 -0.1245 -0.7872  2.1260
  680SOL     OW 2038   2.617   1.629   1.621  0.0921  0.2877 -0.4910
  680SOL    HW1 2039   2.588   1.666   1.532 -1.6834  2.3107  0.8833
  680SOL    HW2 2040   2.647   1.532   1.611  1.1962  0.1967  2.8517
  681SOL     OW 2041   0.801   0.049   1.125 -0.2480  0.1099  0.2871
  681SOL    HW1 2042   0.813   0.050   1.024 -3.0627 -1.2626 -0.1108
  681SOL    HW2 2043   0.759  -0.040   1.144 -0.0312  0.4463  2.3925
  682SOL     OW 2044   2.090   2.335   1.558  0.1850 -0.0803  0.2394
  682SOL    HW1 2045   2.137   2.423   1.575 -2.3358  1.8772 -2.3646
  682SOL    HW2 2046   2.018   2.322   1.627  0.1429 -1.7253 -0.0891
  683SOL     OW 2047   2.505   2.030   1.764 -0.2646 -0.7531 -0.8117
  683SOL    HW1 2048   2.415   2.065   1.735 -0.4139  0.2578  0.7888
  683SOL    HW2 2049   2.534   2.084   1.845 -1.3330 -0.1261 -0.8380
  684SOL     OW 2050   2.706   1.830   1.770 -0.4697 -0.0590 -0.1860
  684SOL    HW1 2051   2.678   1.745   1.723 -1.0160  0.5419 -0.9859
  684SOL    HW2 2052   2.634   1.900   1.754  0.4822  0.7705 -0.9474
  685SOL     OW 2053   1.360   1.690   0.340 -0.0182 -0.4421  0.0995
  685SOL    HW1 2054   1.428   1.656   0.406 -0.7614  0.2944  1.2819
  685SOL    HW2 2055   1.347   1.789   0.355  2.7389 -0.1042  0.5077
  686SOL     OW 2056   0.013   0.651   1.818 -0.0614  0.0110  0.2790
  686SOL    HW1 2057   0.101   0.658   1.768 -0.7583 -2.0484 -1.2740
  686SOL    HW2 2058  -0.067   0.656   1.757 -0.0830 -2.0841  0.1178
  687SOL     OW 2059   1.786   0.377   2.826  0.3073 -0.1019  0.3875
  687SOL    HW1 2060   1.881   0.405   2.850  1.0796 -2.4933  0.2172
  687SOL    HW2 2061   1.741   0.365   2.916 -0.1011  0.9669  0.3318
  688SOL     OW 2062   1.376   1.876   2.452  0.4743 -0.1706  0.2239
  688SOL    HW1 2063   1.436   1.855   2.531  1.4354 -1.5628 -0.8661
  688SOL    HW2 2064   1.365   1.796   2.391 -0.4025 -2.1559  2.8681
  689SOL     OW 2065   2.141   1.628   1.554  0.1192  0.4534 -0.1674
  689SOL    HW1 2066   2.204   1.658   1.628  0.7190 -1.8549  0.3118
  689SOL    HW2 2067   2.124   1.699   1.485 -2.8284 -0.6945 -0.6738
  690SOL     OW 2068   2.669   1.933   1.095  0.1235 -0.3131  0.0532
  690SOL    HW1 2069   2.703   1.983   1.176  1.0310  0.6206 -0.8847
  690SOL    HW2 2070   2.747   1.914   1.033 -0.1132 -1.1924  0.0174
  691SOL     OW 2071   2.939   1.361   0.932 -0.4746  0.1285  0.2904
  691SOL    HW1 2072   2.999   1.281   0.919  0.2707  0.3868  2.0245
  691SOL    HW2 2073   2.969   1.441   0.878 -0.9754  1.0970  1.4224
  692SOL     OW 2074   2.907   2.843   2.809  0.4086  0.2316 -0.2395
  692SOL    HW1 2075   2.943   2.770   2.870 -2.6979 -1.9929 -0.9416
  692SOL    HW2 2076   2.809   2.860   2.825 -0.0339 -0.6849 -1.9926
  693SOL     OW 2077   0.291   1.318   1.966 -0.4071 -0.3741  0.5117
  693SOL    HW1 2078   0.326   1.413   1.957  2.3193 -1.3955 -0.3289
  693SOL    HW2 2079   0.276   1.279   1.874  1.4314 -0.8144  0.3701
  694SOL     OW 2080   2.429   0.721   1.857  0.2844  0.0382 -0.6831
  694SOL    HW1 2081   2.479   0.721   1.769 -2.0011 -0.0664 -2.0238
  694SOL    HW2 2082   2.338   0.763   1.839  0.1034 -0.7623 -1.7203
  695SOL     OW 2083   1.635   0.575   1.864 -0.0319 -0.3798 -0.1068
  695SOL    HW1 2084   1.657   0.661   1.816 -2.1840 -0.2946 -0.9646
  695SOL    HW2 2085   1.621   0.595   1.962 -0.2888  1.3358 -0.4837
  696SOL     OW 2086   2.456   2.994   1.705 -1.0170 -0.3693 -0.0483
  696SOL    HW1 2087   2.507   2.913   1.672  1.5107  1.6092 -1.1424
  696SOL    HW2 2088   2.521   3.057   1.751  0.8990 -1.5426 -1.0863
  697SOL     OW 2089   1.469   0.470   2.120  0.7866  0.1344 -0.7018
  697SOL    HW1 2090   1.469   0.369   2.115  0.6953 -0.0267  1.9380
  697SOL    HW2 2091   1.466   0.505   2.215  2.1423 -0.1907 -0.5308
  698SOL     OW 2092   2.206   1.628   2.791  0.0977  0.6342 -0.1607
  698SOL    HW1 2093   2.150   1.658   2.870 -0.4789  1.5065 -0.8916
  698SOL    HW2 2094   2.245   1.711   2.748 -1.2826  1.0784 -0.5840
  699SOL     OW 2095   2.690   1.024   0.347 -0.4692  0.5419  0.0897
  699SOL    HW1 2096   2.620   1.005   0.276  1.0302  0.1710 -1.3238
  699SOL    HW2 2097   2.688   0.959   0.425  0.5614  1.6986  1.0935
  700SOL     OW 2098   1.424   0.011   1.048 -0.3054 -0.4337 -0.3988
  700SOL    HW1 2099   1.502   0.035   1.108 -2.4411  0.1657  2.2699
  700SOL    HW2 2100   1.424   0.064   0.962 -1.3529  2.1368  1.1063
  701SOL     OW 2101   2.415   0.065   0.575 -0.2990  0.3131 -0.1659
  701SOL    HW1 2102   2.411   0.165   0.560  0.2805  0.5093  1.0151
  701SOL    HW2 2103   2.498   0.047   0.630  0.7855  1.7811 -1.2583
  702SOL     OW 2104   1.709   2.436   1.412 -0.3114  0.5085  0.2755
  702SOL    HW1 2105   1.665   2.449   1.503 -1.4319  1.2634 -0.3613
  702SOL    HW2 2106   1.684   2.348   1.369 -1.8001  0.0209  2.0425
  703SOL     OW 2107   0.149   0.424   0.963 -0.0588 -0.2886  0.1246
  703SOL    HW1 2108   0.118   0.460   0.874  2.0415 -0.4526 -0.6978
  703SOL    HW2 2109   0.235   0.473   0.983 -0.4220  0.0239  0.9640
  704SOL     OW 2110   1.148   2.891   2.108 -0.4129 -0.6858  0.3296
  704SOL    HW1 2111   1.223   2.830   2.137 -1.0031 -1.4957  0.1680
  704SOL    HW2 2112   1.174   2.983   2.074 -0.3669 -0.2537  1.5017
  705SOL     OW 2113   0.371   2.131   0.042  0.7332  0.1797 -0.5473
  705SOL    HW1 2114   0.426   2.193   0.099  0.8414  0.4747 -0.9746
  705SOL    HW2 2115   0.365   2.150  -0.057  3.5659  1.8295 -0.4253
  706SOL     OW 2116   0.172   0.471   0.181 -0.2267  0.6650  0.2729
  706SOL    HW1 2117   0.223   0.394   0.221 -0.6774 -0.6137 -1.5541
  706SOL    HW2 2118   0.164   0.454   0.082 -1.7939 -0.1715  0.5327
  707SOL     OW 2119   1.957   2.768   2.147  0.2639  0.6194 -0.2924
  707SOL    HW1 2120   2.029   2.702   2.121 -0.0063 -0.1388  0.8311
  707SOL    HW2 2121   1.939   2.773   2.247 -1.1373 -0.7367 -0.4590
  708SOL     OW 2122   0.458   2.989   1.397 -0.0766  0.1098  0.5426
  708SOL    HW1 2123   0.558   2.988   1.409  0.3085  1.3744 -2.0976
  708SOL    HW2 2124   0.433   3.063   1.332  0.5164 -0.0106  0.1804
  709SOL     OW 2125   0.182   0.735   1.617 -0.0424 -0.2051 -0.5136
  709SOL    HW1 2126   0.242   0.653   1.614  1.0210  0.4152  2.4258
  709SOL    HW2 2127   0.124   0.751   1.535  1.6789 -0.9893 -1.9065
  710SOL     OW 2128   0.057   0.496   0.718 -0.0960 -0.6414 -0.3667
  710SOL    HW1 2129   0.105   0.582   0.695 -1.2874 -0.6713 -3.2593
  710SOL    HW2 2130   0.020   0.456   0.632 -1.1619  1.8326 -1.1140
  711SOL     OW 2131   2.165   2.392   2.315  0.6702 -0.1006  0.3300
  711SOL    HW1 2132   2.120   2.326   2.377  1.1762 -1.3518 -0.6162
  711SOL    HW2 2133   2.122   2.391   2.223 -0.3104 -0.2242  0.7813
  712SOL     OW 2134   0.047   2.596   2.327  0.1771  0.0714 -0.0819
  712SOL    HW1 2135   0.035   2.604   2.427 -1.7378 -0.0288 -0.2988
  712SOL    HW2 2136  -0.023   2.639   2.268 -2.6277 -3.0078  0.8630
  713SOL     OW 2137   2.149   2.857   0.514 -0.0199 -0.2711 -0.1910
  713SOL    HW1 2138   2.198   2.857   0.425 -0.6796  2.7602 -0.6123
  713SOL    HW2 2139   2.091   2.939   0.523  0.1340 -0.0855 -0.8647
  714SOL     OW 2140   1.481   1.328   2.675 -0.3303 -0.2864  0.3330
  714SOL    HW1 2141   1.561   1.275   2.708 -0.8827 -0.6276  1.1474
  714SOL    HW2 2142   1.510   1.385   2.597  2.6665 -1.5950  0.4090
  715SOL     OW 2143   0.034   0.652   1.163 -0.2096  0.2082 -0.9556
  715SOL    HW1 2144  -0.013   0.562   1.167 -1.4633  0.8724 -0.3350
  715SOL    HW2 2145   0.050   0.694   1.254 -0.3109 -2.4959  0.3540
  716SOL     OW 2146   0.764   0.790   1.759 -0.6505 -0.0876  0.0054
  716SOL    HW1 2147   0.706   0.707   1.765  0.2057 -0.5856  1.4033
  716SOL    HW2 2148   0.703   0.871   1.767 -1.6228 -0.6222 -1.7423
  717SOL     OW 2149   1.434   0.802   2.124 -0.4245  0.5265 -0.0914
  717SOL    HW1 2150   1.443   0.896   2.086  3.2545  0.0621 -0.6043
  717SOL    HW2 2151   1.388   0.742   2.057 -0.0257 -0.5197  0.5769
  718SOL     OW 2152   1.246   2.896   0.335 -0.0281 -0.4399 -0.0188
  718SOL    HW1 2153   1.233   2.961   0.259 -0.6396  0.0737  0.5132
  718SOL    HW2 2154   1.209   2.806   0.307 -1.3819  0.2671 -0.5657
  719SOL     OW 2155   0.007   2.472   2.904 -0.1679 -0.2514 -0.2948
  719SOL    HW1 2156   0.009   2.375   2.934 -0.7443 -0.1545  0.0567
  719SOL    HW2 2157   0.052   2.479   2.813 -0.2307 -1.1326 -0.3989
  720SOL     OW 2158   1.337   0.383   1.521  0.2217  0.3281 -0.5861
  720SOL    HW1 2159   1.347   0.314   1.447  0.4397 -0.3919  0.1088
  720SOL    HW2 2160   1.366   0.473   1.485 -2.6500  0.8341 -1.7005
  721SOL     OW 2161   0.342   2.796   0.610  0.1360 -0.0133  0.7398
  721SOL    HW1 2162   0.392   2.782   0.696 -0.4234  0.1741  1.0953
  721SOL    HW2 2163   0.308   2.705   0.583  0.4638  0.1207 -0.1750
  722SOL     OW 2164   0.752   1.136   2.783 -0.3100 -0.5716 -0.1071
  722SOL    HW1 2165   0.670   1.087   2.749 -1.0751  0.4059  0.3092
  722SOL    HW2 2166   0.718   1.218   2.831  0.1695 -1.6881  2.2411
  723SOL     OW 2167   2.170   1.351   1.580  0.2128  0.5191  0.0227
  723SOL    HW1 2168   2.183   1.342   1.680 -0.5319 -0.2498  0.0511
  723SOL    HW2 2169   2.143   1.445   1.552 -1.6601  0.4692  1.6043
  724SOL     OW 2170   1.300   1.966   0.353 -0.6613 -0.1151  0.9030
  724SOL    HW1 2171   1.275   1.991   0.258  1.2704  1.3529  0.7482
  724SOL    HW2 2172   1.219   1.989   0.409  0.1351  0.1899  1.9473
  725SOL     OW 2173   2.853   0.569   1.704 -0.0591  0.0464  0.6521
  725SOL    HW1 2174   2.863   0.479   1.658 -1.1911 -0.5051  1.4399
  725SOL    HW2 2175   2.758   0.605   1.700  1.4270  3.9956 -2.4881
  726SOL     OW 2176   2.292   1.211   0.121  0.2680 -0.1738  0.2008
  726SOL    HW1 2177   2.225   1.208   0.197 -1.9726  1.1489 -1.6662
  726SOL    HW2 2178   2.305   1.117   0.085  1.4198  0.3274 -0.6914
  727SOL     OW 2179   2.140   0.797   2.808 -0.0234  0.1673 -0.1370
  727SOL    HW1 2180   2.200   0.806   2.727 -1.0481 -1.5756 -1.1293
  727SOL    HW2 2181   2.173   0.714   2.856 -1.9747 -1.4653 -1.5111
  728SOL     OW 2182   1.800   1.853   1.529  0.1266 -0.0021  0.2524
  728SOL    HW1 2183   1.788   1.753   1.543 -3.1163  0.2726 -0.2502
  728SOL    HW2 2184   1.746   1.882   1.448 -0.6679 -1.2909  0.3074
  729SOL     OW 2185   2.177   1.083   1.979 -0.1869 -0.6916  0.0056
  729SOL    HW1 2186   2.169   1.059   2.077 -1.8472 -0.7742 -0.1443
  729SOL    HW2 2187   2.255   1.144   1.955 -1.2495  0.2145 -1.1996
  730SOL     OW 2188   1.352   0.605   1.125 -0.5085  0.5078  0.4684
  730SOL    HW1 2189   1.285   0.537   1.090  1.4595 -1.2245 -0.0091
  730SOL    HW2 2190   1.425   0.622   1.057 -0.3414  0.1199  0.5476
  731SOL     OW 2191   0.780   0.568   2.927  0.1007 -0.2991 -0.0002
  731SOL    HW1 2192   0.731   0.528   3.006 -0.7928 -0.5417 -0.6711
  731SOL    HW2 2193   0.775   0.669   2.926  1.1191 -0.2388  0.1526
  732SOL     OW 2194   0.431   1.041   0.245 -0.0335 -0.0551 -0.5762
  732SOL    HW1 2195   0.424   0.974   0.321  0.1636 -0.0238 -0.5294
  732SOL    HW2 2196   0.348   1.097   0.233 -0.2852  0.1237  1.8574
  733SOL     OW 2197   1.448   1.740   2.032  0.2022 -0.0082  0.2864
  733SOL    HW1 2198   1.424   1.672   1.961 -1.9307  0.5156  0.4698
  733SOL    HW2 2199   1.483   1.822   1.983 -1.4749  0.1120 -0.7617
  734SOL     OW 2200   0.378   2.328   0.338  0.2340  0.2892  0.7301
  734SOL    HW1 2201   0.433   2.245   0.323 -0.1188  0.0938  0.5101
  734SOL    HW2 2202   0.430   2.413   0.319 -0.4428  0.8225  1.2178
  735SOL     OW 2203   2.592   0.213   0.818 -0.3245 -0.0797 -0.5235
  735SOL    HW1 2204   2.600   0.112   0.813 -0.9726 -0.0591 -2.3799
  735SOL    HW2 2205   2.640   0.254   0.739 -0.0680 -1.5798 -1.1617
  736SOL     OW 2206   1.863   1.527   2.032  0.9358 -0.1549 -0.4495
  736SOL    HW1 2207   1.812   1.581   1.963 -1.9721  0.6686  2.2423
  736SOL    HW2 2208   1.806   1.453   2.071  0.0750  0.2810 -0.8734
  737SOL     OW 2209   0.189   0.684   0.341 -0.1110  0.2443  0.5600
  737SOL    HW1 2210   0.095   0.722   0.338 -0.5468 -0.6866  1.8899
  737SOL    HW2 2211   0.201   0.613   0.270 -0.2633  2.2481 -1.5335
  738SOL     OW 2212   0.794   1.884   0.931 -0.0366 -0.4947  0.2944
  738SOL    HW1 2213   0.709   1.833   0.951 -0.1463 -0.6973 -0.6469
  738SOL    HW2 2214   0.770   1.964   0.873  0.0098 -0.3270  0.5063
  739SOL     OW 2215   1.736   2.413   2.409  0.3299  0.2609  0.1751
  739SOL    HW1 2216   1.713   2.433   2.505  1.2059 -1.9592  0.8859
  739SOL    HW2 2217   1.801   2.335   2.406  1.6960  1.4166 -1.3136
  740SOL     OW 2218   2.427   2.304   1.481 -0.0890 -0.1989  0.2665
  740SOL    HW1 2219   2.384   2.304   1.573  2.0306 -1.5885  1.2798
  740SOL    HW2 2220   2.407   2.218   1.432  2.2348 -0.0694 -0.9698
  741SOL     OW 2221   2.465   0.351   3.006 -0.1183 -0.3717  0.2282
  741SOL    HW1 2222   2.561   0.365   3.034 -0.1224 -3.5783  2.1068
  741SOL    HW2 2223   2.405   0.365   3.087 -0.1271  2.9952 -0.2867
  742SOL     OW 2224   0.701   2.116   0.520 -0.6478  0.4741  0.7459
  742SOL    HW1 2225   0.678   2.046   0.590 -0.6598 -1.6262 -1.2980
  742SOL    HW2 2226   0.801   2.132   0.520 -0.9220  2.3011  1.8200
  743SOL     OW 2227   2.834   1.423   2.271  0.4640 -0.3323 -1.0194
  743SOL    HW1 2228   2.833   1.323   2.262 -0.4506 -0.2770 -1.5668
  743SOL    HW2 2229   2.895   1.450   2.348  0.8440 -1.9232 -0.7456
  744SOL     OW 2230   0.061   0.179   0.496 -0.0067  0.2994  0.3017
  744SOL    HW1 2231   0.150   0.158   0.539 -0.6069 -2.3089  0.3240
  744SOL    HW2 2232  -0.012   0.180   0.566 -0.1180  0.3133  0.1850
  745SOL     OW 2233   2.587   2.003   1.491  0.3370 -0.4546  0.6123
  745SOL    HW1 2234   2.498   2.010   1.444 -0.6910  1.1897  2.7186
  745SOL    HW2 2235   2.575   2.031   1.587  1.9423  0.4449  0.5776
  746SOL     OW 2236   0.911   1.680   0.235  0.3089  0.4702  0.2515
  746SOL    HW1 2237   1.006   1.648   0.221 -0.4357 -2.1701  0.9156
  746SOL    HW2 2238   0.851   1.603   0.263  1.4149 -0.5825 -0.2273
  747SOL     OW 2239   0.821   1.497   1.747 -0.0129  0.5519 -0.1565
  747SOL    HW1 2240   0.864   1.499   1.838 -0.5193 -1.0663  0.1396
  747SOL    HW2 2241   0.779   1.586   1.726 -0.9974 -0.1869 -1.4222
  748SOL     OW 2242   0.417   3.079   3.001 -0.3897 -0.1771 -0.5688
  748SOL    HW1 2243   0.386   3.046   2.911  1.4783 -0.9137 -0.9559
  748SOL    HW2 2244   0.480   3.013   3.044  0.1448  0.1282 -0.8838
  749SOL     OW 2245   0.206   1.087   3.011  0.0315 -0.3159 -0.0595
  749SOL    HW1 2246   0.225   1.050   2.919  1.6478  1.6344 -0.5373
  749SOL    HW2 2247   0.150   1.171   3.003 -1.3331 -1.2156 -0.0960
  750SOL     OW 2248   1.846   0.663   1.661  0.1194 -0.2211  0.4681
  750SOL    HW1 2249   1.904   0.737   1.624 -0.4111 -0.1631 -0.2652
  750SOL    HW2 2250   1.747   0.685   1.658 -0.6186 -3.3621 -1.1630
  751SOL     OW 2251   2.767   0.545   2.887  0.3677 -0.1955  0.1139
  751SOL    HW1 2252   2.812   0.575   2.801  2.7088  0.3917  1.4883
  751SOL    HW2 2253   2.710   0.466   2.862  1.9750 -1.3912  0.1050
  752SOL     OW 2254   2.585   2.922   1.081 -0.6359  0.0723  0.1853
  752SOL    HW1 2255   2.491   2.926   1.043 -0.5873 -0.8182 -0.0443
  752SOL    HW2 2256   2.585   2.935   1.181 -1.9717 -1.1530  0.3534
  753SOL     OW 2257   0.727   2.490   1.377 -0.2883 -0.5256 -0.8689
  753SOL    HW1 2258   0.747   2.459   1.283 -3.4932 -2.1006 -1.1081
  753SOL    HW2 2259   0.723   2.591   1.384  0.2606 -0.2672 -3.8602
  754SOL     OW 2260   2.955   2.664   1.916 -0.0529 -0.0890 -0.7239
  754SOL    HW1 2261   3.037   2.642   1.861 -0.3766  0.7856 -1.5693
  754SOL    HW2 2262   2.985   2.705   2.003  0.3607 -1.5265 -0.1749
  755SOL     OW 2263   2.273   0.940   0.042  0.4669 -0.1053  0.4126
  755SOL    HW1 2264   2.189   0.893   0.074 -0.1773  0.1147 -0.9372
  755SOL    HW2 2265   2.290   0.931  -0.057  1.1433 -1.6202  0.6458
  756SOL     OW 2266   2.030   2.428   3.027  0.1734 -0.0952  0.3652
  756SOL    HW1 2267   2.126   2.457   3.042  0.5766 -0.6730 -1.0424
  756SOL    HW2 2268   2.032   2.331   2.997  0.3255 -0.8457  2.6552
  757SOL     OW 2269   2.742   0.536   0.298 -0.1129 -0.0766  0.3209
  757SOL    HW1 2270   2.831   0.536   0.251 -0.0551  0.5844  0.4234
  757SOL    HW2 2271   2.750   0.578   0.390 -1.7339 -1.8145  1.2913
  758SOL     OW 2272   2.131   0.883   1.826  0.4057 -0.0474 -0.1330
  758SOL    HW1 2273   2.068   0.824   1.880  1.7911 -2.2142 -0.8199
  758SOL    HW2 2274   2.143   0.970   1.877 -1.1433  0.8560 -1.2534
  759SOL     OW 2275   2.763   0.334   1.875 -0.0113  0.4010  0.0977
  759SOL    HW1 2276   2.731   0.259   1.935 -0.4525 -0.6288 -1.3891
  759SOL    HW2 2277   2.684   0.363   1.820  0.4869  0.0604 -0.8027
  760SOL     OW 2278   0.304   1.335   1.373  0.3455 -0.1033  0.1132
  760SOL    HW1 2279   0.313   1.368   1.468 -1.0167 -0.7540  0.4758
  760SOL    HW2 2280   0.298   1.414   1.311 -0.1143 -0.2423 -0.0261
  761SOL     OW 2281   0.594   0.748   0.175 -0.8279 -0.4949 -0.3514
  761SOL    HW1 2282   0.589   0.730   0.076 -1.3773  1.1548 -0.6378
  761SOL    HW2 2283   0.527   0.817   0.207 -1.7453 -1.3926 -0.3104
  762SOL     OW 2284   0.547   1.472   1.164  0.2267 -0.4234 -0.0426
  762SOL    HW1 2285   0.473   1.538   1.146  1.3409  0.4933 -1.3680
  762SOL    HW2 2286   0.547   1.388   1.108  0.2929 -0.3886 -0.0952
  763SOL     OW 2287   1.013   0.896   1.786  0.4354 -0.1032 -0.0477
  763SOL    HW1 2288   1.061   0.921   1.700  3.5182  1.0356  1.9298
  763SOL    HW2 2289   0.912   0.895   1.775  0.4187  2.7616 -0.5972
  764SOL     OW 2290   2.990   2.875   0.029 -0.4213 -0.7309 -0.1718
  764SOL    HW1 2291   2.920   2.906   0.095 -0.1082 -0.5269  0.0692
  764SOL    HW2 2292   2.984   2.774   0.020 -0.9445 -0.8562  1.3886
  765SOL     OW 2293   0.665   0.156   1.693 -0.2077 -0.0741 -0.0187
  765SOL    HW1 2294   0.759   0.186   1.671  0.0835  0.0157  1.3218
  765SOL    HW2 2295   0.606   0.234   1.718  0.3204  0.9712 -1.9492
  766SOL     OW 2296   2.522   1.237   2.720  0.3643 -0.2037 -0.2114
  766SOL    HW1 2297   2.560   1.147   2.747 -1.0602 -0.3329  1.4485
  766SOL    HW2 2298   2.470   1.226   2.634 -0.6867  3.0811 -0.0502
  767SOL     OW 2299   1.187   1.213   2.368  0.2325  0.0759  0.1118
  767SOL    HW1 2300   1.209   1.162   2.284 -1.3573 -2.6781  1.2761
  767SOL    HW2 2301   1.200   1.146   2.443  0.8817  0.9848  0.8267
  768SOL     OW 2302   1.567   2.062   0.384 -0.3250  0.4712  0.0266
  768SOL    HW1 2303   1.601   2.110   0.302  0.9302  0.1650  0.3503
  768SOL    HW2 2304   1.471   2.034   0.373  0.4536 -2.6216  0.7535
  769SOL     OW 2305   0.354   1.562   0.818 -0.2339 -0.3123  0.1726
  769SOL    HW1 2306   0.324   1.574   0.913  2.1257 -2.0466  1.1844
  769SOL    HW2 2307   0.290   1.593   0.745  0.2152 -1.2445 -0.6355
  770SOL     OW 2308   1.699   1.044   2.479  0.2372 -0.5703 -0.2714
  770SOL    HW1 2309   1.608   1.008   2.504 -0.5617  3.1450  2.5386
  770SOL    HW2 2310   1.753   0.976   2.427  1.3107  0.7344 -0.9089
  771SOL     OW 2311   2.447   2.968   2.223 -0.6507 -0.2762 -0.2255
  771SOL    HW1 2312   2.432   2.875   2.185  0.4475 -0.0822 -1.1536
  771SOL    HW2 2313   2.538   2.971   2.266  0.5629  1.2542 -2.7737
  772SOL     OW 2314   2.560   1.511   2.159  0.6847 -0.2353 -0.1663
  772SOL    HW1 2315   2.650   1.487   2.197 -0.2377 -2.3925  0.7744
  772SOL    HW2 2316   2.529   1.599   2.198 -0.6532  0.0084 -1.6993
  773SOL     OW 2317   0.753   1.492   1.334 -0.1707  0.1900  0.1270
  773SOL    HW1 2318   0.751   1.582   1.382  0.3833  0.0656  0.3883
  773SOL    HW2 2319   0.672   1.471   1.276 -0.9259  0.6394  1.0006
  774SOL     OW 2320   1.098   0.553   0.028 -0.0303  0.2350 -0.3053
  774SOL    HW1 2321   1.178   0.560   0.089 -0.7233  1.5440  0.4890
  774SOL    HW2 2322   1.082   0.641  -0.019 -0.8942  0.4448  0.3633
  775SOL     OW 2323   1.850   2.019   0.545  0.2688 -0.5450 -0.3561
  775SOL    HW1 2324   1.757   2.059   0.553  0.6013 -0.0170  1.1301
  775SOL    HW2 2325   1.870   1.985   0.452 -0.1190 -1.2902 -0.1669
  776SOL     OW 2326   2.884   0.819   1.512 -0.3421 -0.1877  0.7324
  776SOL    HW1 2327   2.836   0.738   1.548 -3.2201  0.6163 -1.1375
  776SOL    HW2 2328   2.868   0.829   1.413 -0.9752  0.6035  0.9080
  777SOL     OW 2329   2.411   2.365   2.180  0.8305 -0.2661 -0.1590
  777SOL    HW1 2330   2.481   2.421   2.226 -0.6319  0.6547  1.0227
  777SOL    HW2 2331   2.319   2.378   2.220  0.7597 -2.2937  0.3641
  778SOL     OW 2332   1.647   1.256   1.986  0.7443  0.6350 -0.5898
  778SOL    HW1 2333   1.629   1.218   2.078 -1.4103 -0.4891 -1.4399
  778SOL    HW2 2334   1.747   1.252   1.972  1.1269 -0.7855  2.0736
  779SOL     OW 2335   2.808   0.903   0.737  0.5233 -1.1703  0.1369
  779SOL    HW1 2336   2.905   0.879   0.717  0.7556  1.5084 -2.3758
  779SOL    HW2 2337   2.812   0.951   0.826  2.1126  1.0787 -1.0877
  780SOL     OW 2338   2.143   2.931   2.895 -0.0252 -0.3138  0.2891
  780SOL    HW1 2339   2.110   3.008   2.952  1.6044  1.6402 -1.3441
  780SOL    HW2 2340   2.089   2.848   2.917 -0.9573  0.1335 -0.3194
  781SOL     OW 2341   2.727   1.366   1.136 -0.1900 -0.0335  0.3516
  781SOL    HW1 2342   2.815   1.369   1.086  1.9075  0.0461  3.8788
  781SOL    HW2 2343   2.685   1.458   1.143 -0.7842 -0.1837 -1.0487
  782SOL     OW 2344   0.333   2.246   2.884  0.0578 -0.5555 -0.1104
  782SOL    HW1 2345   0.400   2.288   2.821 -1.4852 -2.3329 -3.0479
  782SOL    HW2 2346   0.240   2.260   2.844  0.5152  0.3481 -0.8909
  783SOL     OW 2347   0.551   1.728   0.961 -0.0246  0.2145  0.2549
  783SOL    HW1 2348   0.524   1.724   1.058  2.6107 -2.7777  0.9423
  783SOL    HW2 2349   0.510   1.660   0.898  2.9313  0.0289 -1.5411
  784SOL     OW 2350   2.675   1.465   0.340 -0.2526 -0.0758 -0.0753
  784SOL    HW1 2351   2.586   1.504   0.312 -0.3339 -1.3811 -1.7130
  784SOL    HW2 2352   2.674   1.378   0.392  0.0278 -1.5383 -2.4377
  785SOL     OW 2353   2.105   2.632   0.664 -0.1327 -0.2502 -0.1380
  785SOL    HW1 2354   2.185   2.592   0.711  0.0269  0.4491  0.1982
  785SOL    HW2 2355   2.129   2.712   0.607 -2.1221  0.7373  0.3426
  786SOL     OW 2356   0.594   2.049   2.106  0.0126  0.2302 -0.0571
  786SOL    HW1 2357   0.621   2.146   2.094  1.4141 -0.0261  0.8266
  786SOL    HW2 2358   0.669   1.989   2.072  0.1341  1.3382 -1.8264
  787SOL     OW 2359   1.151   0.463   0.947 -0.2691 -0.7044  0.1735
  787SOL    HW1 2360   1.085   0.391   0.920 -0.3847  0.1115 -1.8138
  787SOL    HW2 2361   1.113   0.554   0.926  4.3484  1.4369  0.3756
  788SOL     OW 2362   0.574   0.807   3.000  0.6242  0.4690 -0.2472
  788SOL    HW1 2363   0.491   0.782   2.947  1.3614 -1.2695 -0.6135
  788SOL    HW2 2364   0.586   0.907   3.002 -1.0258  0.6717  0.0518
  789SOL     OW 2365   2.775   2.058   1.289  0.1294 -0.3199 -0.1360
  789SOL    HW1 2366   2.726   2.046   1.376  0.5016 -0.2188  0.0904
  789SOL    HW2 2367   2.876   2.068   1.296  0.0868  1.1521 -1.4098
  790SOL     OW 2368   1.729   0.166   2.197 -0.1517  0.9019  0.2878
  790SOL    HW1 2369   1.752   0.253   2.150  0.4118 -0.1966 -1.5486
  790SOL    HW2 2370   1.805   0.101   2.182 -0.3415  0.4460  1.2915
  791SOL     OW 2371   1.037   0.461   0.568 -0.2548  0.0125 -0.2857
  791SOL    HW1 2372   1.126   0.419   0.547  0.9665  1.7308  1.2179
  791SOL    HW2 2373   0.967   0.410   0.516 -0.6534 -0.4524  0.7009
  792SOL     OW 2374   1.552   0.437   1.240  0.0608  0.3204  0.0852
  792SOL    HW1 2375   1.474   0.501   1.229  0.1263  0.3276 -0.3161
  792SOL    HW2 2376   1.586   0.441   1.335 -0.6335 -1.9404  0.4707
  793SOL     OW 2377   0.941   2.746   0.882  0.2636 -0.3795 -0.0685
  793SOL    HW1 2378   0.855   2.790   0.851  0.7248  2.0926  1.9188
  793SOL    HW2 2379   0.963   2.672   0.817  2.4213  0.0841  0.0923
  794SOL     OW 2380   0.826   1.266   1.994  0.2092  0.1059 -0.0235
  794SOL    HW1 2381   0.758   1.289   2.064  1.6234  1.2910  0.9794
  794SOL    HW2 2382   0.897   1.338   1.994 -1.0573  1.3590 -0.4067
  795SOL     OW 2383   2.975   1.557   2.082  0.4586 -0.3817  0.0768
  795SOL    HW1 2384   3.063   1.575   2.128 -0.6746  0.7220  1.8756
  795SOL    HW2 2385   2.907   1.520   2.147 -1.3497  1.5569 -0.6531
  796SOL     OW 2386   1.733   1.678   1.837  0.3359  0.0854  0.4742
  796SOL    HW1 2387   1.636   1.655   1.821  0.1265  0.2164  1.4936
  796SOL    HW2 2388   1.792   1.628   1.772  0.7667  2.8048 -1.2852
  797SOL     OW 2389   2.906   0.373   2.318 -0.5101  0.0695  0.2529
  797SOL    HW1 2390   2.925   0.398   2.222 -1.1851  1.4267  0.4575
  797SOL    HW2 2391   2.959   0.288   2.328 -1.3551 -0.7944 -2.2347
  798SOL     OW 2392   3.022   2.230   1.915  0.7181 -0.6373  0.1715
  798SOL    HW1 2393   2.930   2.267   1.895  0.9801 -1.5754 -2.9509
  798SOL    HW2 2394   3.027   2.143   1.967  0.3742 -0.1107  1.1086
  799SOL     OW 2395   2.811   2.246   0.363  0.1935 -0.0317  0.1875
  799SOL    HW1 2396   2.782   2.156   0.327  2.0067 -0.4935 -0.1656
  799SOL    HW2 2397   2.735   2.314   0.364  0.1612 -0.0765  0.8447
  800SOL     OW 2398   1.074   1.718   0.679 -0.1451 -0.2283 -0.2759
  800SOL    HW1 2399   1.014   1.744   0.601 -0.2785 -1.4314 -0.5752
  800SOL    HW2 2400   1.054   1.620   0.691 -1.8264 -0.0362 -1.2255
  801SOL     OW 2401   2.363   0.682   0.525  0.3285  0.1957  0.1858
  801SOL    HW1 2402   2.451   0.691   0.573  0.8608  2.6039 -1.1787
  801SOL    HW2 2403   2.352   0.748   0.449  0.2276 -0.4864 -0.4103
  802SOL     OW 2404   2.468   1.672   0.391  0.0005 -0.3249  0.9000
  802SOL    HW1 2405   2.435   1.604   0.458  0.3951  1.5161  2.9968
  802SOL    HW2 2406   2.393   1.739   0.382 -0.2437 -0.4145  2.2048
  803SOL     OW 2407   1.823   1.813   2.951 -0.1782  0.4618 -0.3155
  803SOL    HW1 2408   1.752   1.759   2.904 -0.4723  2.8745 -2.7760
  803SOL    HW2 2409   1.846   1.883   2.882 -2.8449  1.2244 -0.5097
  804SOL     OW 2410   2.056   1.564   0.436  0.1130 -0.9545  0.3676
  804SOL    HW1 2411   2.147   1.528   0.411 -0.2334 -1.0874 -0.6955
  804SOL    HW2 2412   2.075   1.645   0.495  0.1485  1.1364 -2.4308
  805SOL     OW 2413   2.903   1.596   2.593  0.4144  0.5941  0.6733
  805SOL    HW1 2414   2.967   1.530   2.550  2.0419  2.8710 -0.4639
  805SOL    HW2 2415   2.843   1.544   2.656  1.8420 -2.0692 -0.0407
  806SOL     OW 2416   0.308   0.246   0.264 -0.1837 -0.1347 -0.8042
  806SOL    HW1 2417   0.262   0.241   0.174  1.7816 -0.0596 -1.8446
  806SOL    HW2 2418   0.403   0.278   0.255  0.5065 -1.6824  0.6656
  807SOL     OW 2419   2.953   1.225   2.798 -0.2942 -0.0012 -0.4498
  807SOL    HW1 2420   2.989   1.182   2.714  1.6070 -2.5059  1.5735
  807SOL    HW2 2421   2.874   1.287   2.784  0.9175  1.2371 -2.1320
  808SOL     OW 2422   0.271   1.441   0.557 -0.0498  0.1379  0.0459
  808SOL    HW1 2423   0.246   1.538   0.549 -1.8157 -0.2311  0.8855
  808SOL    HW2 2424   0.288   1.398   0.467  2.1813  2.2218 -0.5751
  809SOL     OW 2425   2.642   0.862   2.678 -0.6547 -0.2367  0.3538
  809SOL    HW1 2426   2.588   0.777   2.677 -1.6237  0.3716 -0.1107
  809SOL    HW2 2427   2.627   0.919   2.760 -1.7979  1.3637 -0.9327
  810SOL     OW 2428   0.871   0.726   0.257 -0.2197  0.0864  0.3595
  810SOL    HW1 2429   0.771   0.716   0.249 -0.2758  1.1301 -0.2334
  810SOL    HW2 2430   0.897   0.812   0.212  0.6852 -1.0440 -1.3187
  811SOL     OW 2431   1.709   2.496   0.731 -0.0205  0.4166  0.1977
  811SOL    HW1 2432   1.692   2.400   0.756 -0.1123  0.6443  1.0121
  811SOL    HW2 2433   1.789   2.493   0.668 -0.1341  0.7959  0.0351
  812SOL     OW 2434   0.471   2.505   1.498  0.7373 -0.0090 -0.6263
  812SOL    HW1 2435   0.572   2.510   1.488  0.7301  3.8594  0.5031
  812SOL    HW2 2436   0.448   2.505   1.596  1.8324 -0.7923 -0.3488
  813SOL     OW 2437   1.283   0.583   1.970  0.0985  0.1549  0.3422
  813SOL    HW1 2438   1.359   0.526   2.004  0.4450  1.5698  1.9637
  813SOL    HW2 2439   1.196   0.550   2.010  0.2581 -0.4258  0.2150
  814SOL     OW 2440   1.428   3.004   0.054  0.2142  0.0498  0.1077
  814SOL    HW1 2441   1.353   3.057   0.096 -1.2662 -0.8336 -1.3595
  814SOL    HW2 2442   1.451   3.041  -0.038  1.3714 -0.9773 -0.0368
  815SOL     OW 2443   0.413   0.839   1.802 -0.0800 -0.4588 -0.7215
  815SOL    HW1 2444   0.367   0.748   1.798  0.8101 -1.0548  1.9091
  815SOL    HW2 2445   0.445   0.856   1.896  0.7111  1.6672 -1.3669
  816SOL     OW 2446   2.462   0.080   0.109 -0.0293  0.6666  0.0501
  816SOL    HW1 2447   2.459  -0.003   0.167 -2.9106  0.9767  0.3879
  816SOL    HW2 2448   2.527   0.150   0.143  1.3339  0.4755 -2.0123
  817SOL     OW 2449   1.517   0.084   2.941  0.1039 -0.1548  0.6054
  817SOL    HW1 2450   1.478   0.176   2.922 -0.5467 -0.1461  1.9280
  817SOL    HW2 2451   1.545   0.043   2.853  0.4322  2.8738 -0.7777
  818SOL     OW 2452   2.285   0.476   0.078 -0.1717  0.0131  0.0026
  818SOL    HW1 2453   2.359   0.532   0.117 -0.8334 -0.8255  2.5565
  818SOL    HW2 2454   2.204   0.485   0.137 -0.8757  2.6597 -1.3020
  819SOL     OW 2455   2.410   1.476   2.869 -1.0105 -0.6868 -0.1855
  819SOL    HW1 2456   2.431   1.397   2.809  1.3365 -0.7334  0.6568
  819SOL    HW2 2457   2.323   1.517   2.839 -0.3722  0.3634 -0.5952
  820SOL     OW 2458   3.053   1.726   2.792 -0.1292  0.4410 -0.3187
  820SOL    HW1 2459   3.113   1.800   2.758  0.3290 -0.6741 -1.9902
  820SOL    HW2 2460   2.995   1.699   2.713  2.3825 -2.1833 -1.3432
  821SOL     OW 2461   0.425   2.502   1.778 -0.0577 -0.5272 -1.0725
  821SOL    HW1 2462   0.516   2.544   1.795 -0.9719  1.1511 -0.2578
  821SOL    HW2 2463   0.353   2.554   1.825  1.4162 -0.2115  0.8754
  822SOL     OW 2464   2.768   2.322   2.460  0.4074  0.3779 -0.9777
  822SOL    HW1 2465   2.700   2.329   2.535  2.1672 -1.7782  0.8876
  822SOL    HW2 2466   2.823   2.407   2.465 -2.3970  2.1537  0.8978
  823SOL     OW 2467   1.464   2.974   2.358  0.4145  0.3129  0.0328
  823SOL    HW1 2468   1.524   2.896   2.379 -1.9267 -1.8080 -0.9035
  823SOL    HW2 2469   1.500   3.065   2.384 -1.4409  1.3689 -0.9561
  824SOL     OW 2470   2.269   1.822   1.225 -0.2455 -0.2062  0.2899
  824SOL    HW1 2471   2.184   1.834   1.279  0.4275  0.4094  1.2303
  824SOL    HW2 2472   2.291   1.724   1.209 -1.0331 -0.2709 -0.3868
  825SOL     OW 2473   2.787   2.399   2.918 -0.6934  0.1317  0.3304
  825SOL    HW1 2474   2.757   2.410   3.013  0.5285  0.1195  0.7260
  825SOL    HW2 2475   2.888   2.394   2.919 -0.6479  1.1749  1.3365
  826SOL     OW 2476   2.729   1.873   2.268 -0.0375  0.0238 -0.3704
  826SOL    HW1 2477   2.786   1.850   2.188  1.2548 -0.4252  0.6439
  826SOL    HW2 2478   2.705   1.971   2.274 -2.4615 -0.6628  2.5341
  827SOL     OW 2479   2.396   2.646   1.792 -0.6664 -0.0533  0.3362
  827SOL    HW1 2480   2.348   2.703   1.860 -1.7891  1.5959 -1.7684
  827SOL    HW2 2481   2.467   2.592   1.840  0.7931  0.2846 -1.4008
  828SOL     OW 2482   0.353   0.121   1.574 -0.4555 -0.1175  0.2557
  828SOL    HW1 2483   0.361   0.204   1.516 -1.7001 -1.8895 -2.5895
  828SOL    HW2 2484   0.389   0.041   1.524 -2.2705 -0.8089  0.0088
  829SOL     OW 2485   1.756   1.881   2.525 -0.7447  0.6105 -0.3732
  829SOL    HW1 2486   1.709   1.913   2.441 -2.1115  0.5419  0.3466
  829SOL    HW2 2487   1.787   1.963   2.575 -1.8137  1.8096 -1.6315
  830SOL     OW 2488   1.705   0.683   1.349  0.6811  0.8593  0.2734
  830SOL    HW1 2489   1.762   0.715   1.272 -1.3594 -1.0882 -2.1605
  830SOL    HW2 2490   1.666   0.590   1.349  1.5769  0.4538 -1.7446
  831SOL     OW 2491   0.112   1.221   0.598  0.5447  0.2466  0.3433
  831SOL    HW1 2492   0.159   1.133   0.613 -0.6115 -0.1848  1.5411
  831SOL    HW2 2493   0.176   1.300   0.599  1.2022 -0.2701 -0.7201
  832SOL     OW 2494   1.709   2.406   2.139  0.0900 -0.0593  0.5272
  832SOL    HW1 2495   1.714   2.403   2.240  0.2411  1.4267  0.5735
  832SOL    HW2 2496   1.797   2.436   2.100 -0.4747  2.1215  0.8443
  833SOL     OW 2497   0.201   0.166   2.367 -0.6589  0.5648 -0.4209
  833SOL    HW1 2498   0.205   0.147   2.268  1.1346 -0.5622 -0.1615
  833SOL    HW2 2499   0.169   0.261   2.381 -2.7912 -0.1034 -0.5188
  834SOL     OW 2500   1.002   0.963   1.236  0.2416 -0.5176 -0.0221
  834SOL    HW1 2501   0.914   0.981   1.189 -0.6065  0.9741  2.0766
  834SOL    HW2 2502   1.064   0.924   1.166 -0.0076  1.0852 -1.1772
  835SOL     OW 2503   0.056   0.765   2.927 -0.1130 -0.1662 -0.2129
  835SOL    HW1 2504  -0.025   0.826   2.921 -0.4029 -0.6482 -1.3467
  835SOL    HW2 2505   0.131   0.803   2.871  0.1369 -0.5509 -0.1395
  836SOL     OW 2506   1.015   2.244   1.299  0.1171  0.1689  0.4274
  836SOL    HW1 2507   1.006   2.258   1.199 -0.1611  0.0246  0.4334
  836SOL    HW2 2508   1.039   2.333   1.341 -0.3232  1.5393 -2.1297
  837SOL     OW 2509   2.004   0.841   0.966  0.2222  0.0166 -0.5916
  837SOL    HW1 2510   2.028   0.833   0.868  0.3454 -1.5233 -0.4440
  837SOL    HW2 2511   2.054   0.773   1.021 -0.9827 -1.1191 -0.8779
  838SOL     OW 2512   1.301   1.566   3.019  0.0227 -0.0282 -0.1263
  838SOL    HW1 2513   1.286   1.479   2.970 -0.9511  0.2720 -0.3820
  838SOL    HW2 2514   1.262   1.647   2.972  0.7896 -0.0187 -0.7454
  839SOL     OW 2515   0.596   2.599   3.076  0.1898 -0.1664 -0.3715
  839SOL    HW1 2516   0.621   2.612   2.979 -1.1171  0.1866 -0.6683
  839SOL    HW2 2517   0.499   2.621   3.097 -0.3841 -2.6062 -0.3233
  840SOL     OW 2518   0.847   2.676   2.853 -0.1823  0.1040  0.0813
  840SOL    HW1 2519   0.756   2.635   2.839 -0.4777  0.8798 -0.2646
  840SOL    HW2 2520   0.835   2.777   2.859 -1.3362 -0.0820  1.0511
  841SOL     OW 2521   1.847   2.008   2.768  0.3660  0.0720  0.1541
  841SOL    HW1 2522   1.746   2.007   2.768  0.3179  2.0881  1.7884
  841SOL    HW2 2523   1.898   2.088   2.802  0.9658  0.3823 -1.4389
  842SOL     OW 2524   1.693   0.740   2.560  0.0026 -0.6208  1.0144
  842SOL    HW1 2525   1.759   0.801   2.513  1.0157 -0.4644  2.5815
  842SOL    HW2 2526   1.604   0.786   2.573 -1.2342 -2.4047 -0.7213
  843SOL     OW 2527   1.446   2.829   1.045 -0.0050  0.1598  0.2043
  843SOL    HW1 2528   1.413   2.925   1.036  1.8285  0.6639 -1.5431
  843SOL    HW2 2529   1.529   2.839   1.101 -0.8177  4.2877  0.8499
  844SOL     OW 2530   2.566   3.084   2.584  0.0876  0.0960 -0.6030
  844SOL    HW1 2531   2.504   3.011   2.618  0.2600  0.3323  0.2214
  844SOL    HW2 2532   2.522   3.159   2.533  0.0455  0.0308 -0.6623
  845SOL     OW 2533   2.871   2.930   1.433  0.4684  0.2644  0.1152
  845SOL    HW1 2534   2.934   2.997   1.391  0.0043 -0.0152 -1.0623
  845SOL    HW2 2535   2.776   2.947   1.402  0.1646 -2.8005 -0.7564
  846SOL     OW 2536   0.234   2.491   2.173 -0.3163 -0.4148  0.0637
  846SOL    HW1 2537   0.221   2.430   2.093  2.4112  1.7732 -2.1191
  846SOL    HW2 2538   0.150   2.525   2.217  1.0682  0.8564  1.7760
  847SOL     OW 2539   1.654   0.436   1.501  0.0240 -0.1888 -0.1027
  847SOL    HW1 2540   1.741   0.448   1.551  0.0244 -1.2192  0.1559
  847SOL    HW2 2541   1.575   0.442   1.564  1.1789 -1.3644  1.5034
  848SOL     OW 2542   0.005   0.435   2.632  0.0626 -0.2198  0.5520
  848SOL    HW1 2543  -0.040   0.409   2.720 -2.3104  2.3139  0.1441
  848SOL    HW2 2544  -0.043   0.520   2.605  2.7528  1.0945 -0.1903
  849SOL     OW 2545   0.606   1.112   0.058 -0.3521  0.2074 -0.0669
  849SOL    HW1 2546   0.613   1.212   0.044  1.2512  0.3107  1.3407
  849SOL    HW2 2547   0.533   1.082   0.121  1.0869  0.0095  1.5252
  850SOL     OW 2548   0.453   2.796   1.119 -0.2374 -0.3760 -0.3135
  850SOL    HW1 2549   0.379   2.838   1.173 -0.1994 -2.8958  1.8148
  850SOL    HW2 2550   0.465   2.699   1.146  2.5037  0.1876  0.6787
  851SOL     OW 2551   1.928   3.009   2.578  0.1039  0.3577  0.3485
  851SOL    HW1 2552   1.924   3.041   2.674 -0.7648  1.9034 -0.1781
  851SOL    HW2 2553   1.879   3.069   2.512 -2.3403 -2.1619 -0.2526
  852SOL     OW 2554   1.232   1.785   2.231  0.2958  0.1867  0.0840
  852SOL    HW1 2555   1.317   1.776   2.176  0.4589  0.9415  0.2089
  852SOL    HW2 2556   1.186   1.695   2.234 -0.7990  0.7503  0.4623
  853SOL     OW 2557   3.059   0.044   0.837  0.3596 -0.4020 -0.5603
  853SOL    HW1 2558   3.018   0.083   0.753  0.5324  1.4140  0.1731
  853SOL    HW2 2559   2.990   0.039   0.911 -0.9592  0.3838 -1.7098
  854SOL     OW 2560   2.411   2.874   0.697 -0.0620 -0.4025 -0.5686
  854SOL    HW1 2561   2.341   2.941   0.665  1.0419  0.4841 -1.1373
  854SOL    HW2 2562   2.405   2.787   0.646  2.3111 -1.9179  1.6621
  855SOL     OW 2563   1.371   2.226   0.657 -0.3035  0.3307 -0.3883
  855SOL    HW1 2564   1.335   2.133   0.643  1.7089 -0.6667  0.9871
  855SOL    HW2 2565   1.461   2.237   0.612 -0.1408 -0.0486 -0.1586
  856SOL     OW 2566   2.421   0.298   0.418  0.4760 -0.1048  0.3465
  856SOL    HW1 2567   2.427   0.386   0.369  1.2007  0.5102  1.4937
  856SOL    HW2 2568   2.346   0.243   0.379 -0.1785  0.2628  1.0586
  857SOL     OW 2569   1.875   2.492   1.901 -0.8403  0.1009  0.1356
  857SOL    HW1 2570   1.863   2.421   1.830 -1.2733 -0.2315  0.5402
  857SOL    HW2 2571   1.931   2.562   1.854 -0.2440 -0.3405  0.1963
  858SOL     OW 2572   2.475   2.408   1.074  0.2748  0.4463  0.1101
  858SOL    HW1 2573   2.549   2.353   1.115  1.5801 -0.0832 -2.8918
  858SOL    HW2 2574   2.382   2.372   1.091  0.3297 -0.3385 -1.1911
  859SOL     OW 2575   1.227   2.452   0.595 -0.3902 -0.4738  0.1032
  859SOL    HW1 2576   1.297   2.523   0.611 -0.4524 -0.3084 -0.3619
  859SOL    HW2 2577   1.277   2.367   0.619 -0.8949 -0.9581 -0.5079
  860SOL     OW 2578   1.946   2.392   0.297  0.0351 -0.3903 -0.0115
  860SOL    HW1 2579   1.921   2.397   0.395  0.0929  1.7913 -0.0835
  860SOL    HW2 2580   1.986   2.481   0.269 -0.1145 -0.7286 -1.3542
  861SOL     OW 2581   2.185   2.484   1.198 -0.1593  0.2532 -0.4831
  861SOL    HW1 2582   2.183   2.383   1.194 -0.5171  0.2612 -0.5518
  861SOL    HW2 2583   2.255   2.508   1.267 -1.6660 -0.7292  1.4372
  862SOL     OW 2584   1.643   2.804   2.799 -0.2202 -0.2326 -0.0874
  862SOL    HW1 2585   1.617   2.891   2.755  0.8857  0.4834  0.6334
  862SOL    HW2 2586   1.560   2.768   2.844 -1.2167  0.3549 -1.4281
  863SOL     OW 2587   0.152   2.962   0.556 -0.0639  0.0369  0.5049
  863SOL    HW1 2588   0.229   2.900   0.576  0.2498  0.2904  0.0727
  863SOL    HW2 2589   0.172   2.995   0.463 -1.0682  1.9443  0.9414
  864SOL     OW 2590   2.445   2.697   2.124  0.3263 -0.5526  0.1568
  864SOL    HW1 2591   2.541   2.708   2.096  0.1314 -1.0071 -0.7146
  864SOL    HW2 2592   2.438   2.685   2.224 -0.5800  0.4359  0.2217
  865SOL     OW 2593   0.102   2.217   2.775  0.2379 -0.2019 -0.0315
  865SOL    HW1 2594   0.082   2.221   2.676  3.4838 -1.9073 -0.8471
  865SOL    HW2 2595   0.019   2.197   2.830  0.0656 -1.5755 -0.7576
  866SOL     OW 2596   2.605   0.357   2.778  0.5453  0.2684 -0.1862
  866SOL    HW1 2597   2.557   0.342   2.866  1.0659 -1.0551 -0.1134
  866SOL    HW2 2598   2.569   0.295   2.707 -0.1054 -0.5851  0.8751
  867SOL     OW 2599   2.854   3.086   2.573 -0.1301 -0.1375  0.2310
  867SOL    HW1 2600   2.757   3.079   2.601 -0.5100  0.2271 -0.9822
  867SOL    HW2 2601   2.904   3.128   2.651  2.3488 -0.1005 -1.3220
  868SOL     OW 2602   0.750   2.215   0.872  0.0149  0.8456  0.4015
  868SOL    HW1 2603   0.651   2.215   0.894 -0.2619 -1.8523 -0.5587
  868SOL    HW2 2604   0.764   2.292   0.808  0.7214 -0.6953 -1.3414
  869SOL     OW 2605   1.178   1.146   1.308 -0.4646 -0.7975 -0.0162
  869SOL    HW1 2606   1.141   1.236   1.336  0.4670 -0.1671 -0.7842
  869SOL    HW2 2607   1.101   1.083   1.291 -0.3383 -1.2279  1.0036
  870SOL     OW 2608   1.968   1.578   0.976 -0.3423  0.1461  0.2188
  870SOL    HW1 2609   1.990   1.483   0.949 -2.8072 -1.1283  2.3864
  870SOL    HW2 2610   2.051   1.630   0.953 -1.0614  0.6126 -1.3647
  871SOL     OW 2611   1.042   1.278   0.982 -0.4614  0.0467  0.3972
  871SOL    HW1 2612   0.956   1.232   0.954  0.8082 -0.7885 -2.2819
  871SOL    HW2 2613   1.048   1.288   1.083  2.2040 -2.5548  0.5812
  872SOL     OW 2614   1.290   0.101   0.554  0.3174 -0.0834 -0.5008
  872SOL    HW1 2615   1.271   0.194   0.518 -1.0359 -0.0170  0.3666
  872SOL    HW2 2616   1.330   0.046   0.480 -1.0620 -1.6534 -0.0991
  873SOL     OW 2617   1.738   0.539   2.340 -0.6845 -0.1449 -0.1108
  873SOL    HW1 2618   1.823   0.526   2.393 -0.7391 -0.0436 -0.0003
  873SOL    HW2 2619   1.651   0.504   2.380 -0.5134 -1.5854 -0.9569
  874SOL     OW 2620   0.624   1.258   1.022 -0.1238  0.3807  0.9084
  874SOL    HW1 2621   0.710   1.282   0.974 -0.2795 -1.0844 -0.1350
  874SOL    HW2 2622   0.546   1.252   0.957 -0.0496 -1.3385  0.9672
  875SOL     OW 2623   2.566   2.678   0.065 -0.1286  0.0829  0.0679
  875SOL    HW1 2624   2.612   2.685   0.154  1.3076 -1.5426 -0.5185
  875SOL    HW2 2625   2.484   2.738   0.059 -0.9078 -0.5420  3.4102
  876SOL     OW 2626   0.896   0.450   0.180 -0.1672 -0.1473 -0.4074
  876SOL    HW1 2627   0.970   0.431   0.113 -0.3590 -1.3626 -0.2721
  876SOL    HW2 2628   0.903   0.549   0.203  0.2609 -0.0310 -1.0242
  877SOL     OW 2629   0.023   2.776   1.347  0.2259 -0.3350 -0.8974
  877SOL    HW1 2630  -0.064   2.753   1.393  0.1585 -0.5088 -1.1141
  877SOL    HW2 2631   0.103   2.728   1.387  0.4764  0.6518 -0.2040
  878SOL     OW 2632   2.323   1.852   2.684 -0.1084  0.1293 -0.6596
  878SOL    HW1 2633   2.410   1.801   2.692 -0.6854 -0.8616 -0.5478
  878SOL    HW2 2634   2.335   1.947   2.650 -1.8686  0.0503 -1.6194
  879SOL     OW 2635   2.148   2.073   1.633  0.3353  0.0893 -0.2285
  879SOL    HW1 2636   2.132   2.167   1.597  3.0425  0.5193 -0.3625
  879SOL    HW2 2637   2.075   2.037   1.693  1.8705 -0.9268  1.0405
  880SOL     OW 2638   0.724   0.946   0.480 -0.3838 -0.1865 -0.0756
  880SOL    HW1 2639   0.665   0.864   0.479  1.1580 -1.3249  0.0634
  880SOL    HW2 2640   0.808   0.942   0.538 -0.0857 -0.7554 -0.5407
  881SOL     OW 2641   1.603   1.251   0.124  0.4635  0.1425 -0.1426
  881SOL    HW1 2642   1.599   1.155   0.092  1.2592  0.6794 -1.9311
  881SOL    HW2 2643   1.512   1.294   0.118  0.4624 -0.0684 -2.1038
  882SOL     OW 2644   1.409   0.422   0.835  0.1037 -0.2998  0.2428
  882SOL    HW1 2645   1.444   0.496   0.775 -2.7650  1.2718  0.3737
  882SOL    HW2 2646   1.310   0.429   0.857 -0.4787 -0.2053 -2.1890
  883SOL     OW 2647   1.913   0.743   2.000 -0.1305  0.0729  0.0616
  883SOL    HW1 2648   1.829   0.723   2.053  1.3852  1.9059  3.3186
  883SOL    HW2 2649   1.965   0.657   2.012 -0.0813  0.3080  1.5897
  884SOL     OW 2650   2.992   0.370   2.876  0.1716  0.4604  0.0946
  884SOL    HW1 2651   3.062   0.420   2.929  0.7656 -0.6813  0.3993
  884SOL    HW2 2652   2.896   0.385   2.905 -0.2295 -1.8519  0.0710
  885SOL     OW 2653   1.269   2.269   0.940  0.1746 -0.2146  0.1048
  885SOL    HW1 2654   1.340   2.287   1.010  0.6814  0.1418 -0.4944
  885SOL    HW2 2655   1.305   2.274   0.846  3.6823 -1.4279  1.3232
  886SOL     OW 2656   0.999   0.803   3.000 -0.7397 -0.2848  0.0795
  886SOL    HW1 2657   0.954   0.830   2.914 -2.8437 -0.8550  0.9736
  886SOL    HW2 2658   0.982   0.873   3.071  0.4250 -1.3151  1.4081
  887SOL     OW 2659   1.664   0.163   1.613 -0.5893  0.2208 -0.0064
  887SOL    HW1 2660   1.659   0.210   1.523  1.2810  0.1537 -0.1454
  887SOL    HW2 2661   1.622   0.219   1.686 -1.7609  1.4174 -1.5499
  888SOL     OW 2662   2.910   1.945   1.613  0.3034 -0.1220 -1.0509
  888SOL    HW1 2663   2.872   2.038   1.626  1.1431  0.1973 -0.8416
  888SOL    HW2 2664   2.857   1.882   1.671  0.1388  0.9869  0.0274
  889SOL     OW 2665   2.957   2.939   0.497  0.1462  0.9186  0.2688
  889SOL    HW1 2666   2.918   2.846   0.503 -0.4728  0.8890 -3.3057
  889SOL    HW2 2667   3.058   2.935   0.506  0.0564 -0.9470  0.5982
  890SOL     OW 2668   0.566   1.646   1.930 -0.1471 -0.4485  0.0658
  890SOL    HW1 2669   0.581   1.575   1.860  0.2497 -0.7237  0.4258
  890SOL    HW2 2670   0.591   1.612   2.022 -2.4996  0.5883  1.1456
  891SOL     OW 2671   0.597   1.901   0.677 -0.0147 -0.6466  0.2138
  891SOL    HW1 2672   0.505   1.921   0.639  0.3918  0.7705 -0.0413
  891SOL    HW2 2673   0.608   1.801   0.692  2.9386 -0.6622 -1.7659
  892SOL     OW 2674   2.643   2.646   1.256 -0.0103  0.0198 -0.4445
  892SOL    HW1 2675   2.564   2.584   1.271  0.4304 -0.1065  1.4267
  892SOL    HW2 2676   2.615   2.743   1.266  1.2435  0.4411 -1.0390
  893SOL     OW 2677   0.316   0.583   1.820 -0.3189  0.3476 -0.5143
  893SOL    HW1 2678   0.400   0.528   1.830 -1.1117 -0.8800 -0.6049
  893SOL    HW2 2679   0.235   0.526   1.799 -0.2279  0.8524 -2.3509
  894SOL     OW 2680   2.657   1.634   1.139  0.2059 -0.0340 -0.1089
  894SOL    HW1 2681   2.695   1.723   1.110  0.0754  0.2373  0.5559
  894SOL    HW2 2682   2.570   1.615   1.091  0.5013  2.0641 -1.5364
  895SOL     OW 2683   1.379   2.536   1.399 -0.0793 -0.4124  0.0164
  895SOL    HW1 2684   1.389   2.616   1.461 -3.4846  1.0367 -1.2190
  895SOL    HW2 2685   1.376   2.452   1.456  0.2421 -1.5866 -1.6730
  896SOL     OW 2686   0.713   0.535   1.526 -0.1634  0.5925 -0.1902
  896SOL    HW1 2687   0.709   0.626   1.482  1.7396  0.3397 -0.9324
  896SOL    HW2 2688   0.788   0.478   1.487 -0.0512  0.4699  0.2070
  897SOL     OW 2689   1.180   0.917   1.031 -0.0195 -0.3069  0.3290
  897SOL    HW1 2690   1.204   0.969   0.948 -0.1880 -0.7424  0.0057
  897SOL    HW2 2691   1.261   0.882   1.081  0.8113  0.5071 -0.4415
  898SOL     OW 2692   0.743   0.056   2.119  0.8222 -0.0162 -0.5313
  898SOL    HW1 2693   0.746   0.005   2.206  2.5938  0.1380 -0.4847
  898SOL    HW2 2694   0.685   0.138   2.135 -1.4315 -1.6722 -0.1133
  899SOL     OW 2695   1.489   0.363   0.294  0.2347 -0.1740 -0.2554
  899SOL    HW1 2696   1.573   0.397   0.339 -2.0807  3.6691  1.4456
  899SOL    HW2 2697   1.493   0.294   0.220 -2.0390 -0.9470  0.2879
  900SOL     OW 2698   1.205   1.058   2.157  0.0980  0.7478 -0.1094
  900SOL    HW1 2699   1.115   1.055   2.112  0.4181  0.4745 -0.7297
  900SOL    HW2 2700   1.285   1.056   2.095 -0.0379  0.0566 -0.2647
  901SOL     OW 2701   0.523   2.097   0.320  0.7443 -0.3942  0.7196
  901SOL    HW1 2702   0.577   2.101   0.406  0.8652 -1.7153  0.7096
  901SOL    HW2 2703   0.473   2.010   0.312  1.0845 -0.3821 -1.9285
  902SOL     OW 2704   1.953   0.349   0.844  0.3392 -0.3565  0.0293
  902SOL    HW1 2705   1.872   0.408   0.856 -1.0854 -1.1331 -4.6972
  902SOL    HW2 2706   2.010   0.388   0.770 -0.4292  0.1707 -0.2810
  903SOL     OW 2707   0.208   1.634   2.534 -0.0506 -0.4620 -0.2984
  903SOL    HW1 2708   0.187   1.614   2.631 -0.1156  3.7663  0.6755
  903SOL    HW2 2709   0.154   1.713   2.499 -1.0205  0.0240  2.2276
  904SOL     OW 2710   1.930   1.225   0.521  0.0283  0.4858 -0.6484
  904SOL    HW1 2711   1.841   1.221   0.473 -0.6871  0.6289  0.6636
  904SOL    HW2 2712   1.927   1.303   0.584 -2.1643  1.8452 -2.3455
  905SOL     OW 2713   1.602   2.415   1.657 -0.3213 -0.3574 -0.3219
  905SOL    HW1 2714   1.551   2.501   1.654 -1.1517 -0.8436 -0.1428
  905SOL    HW2 2715   1.583   2.370   1.746 -1.7961 -0.7730 -0.8334
  906SOL     OW 2716   2.122   2.488   0.935  0.1663  0.0331  0.6856
  906SOL    HW1 2717   2.035   2.537   0.921 -0.0270 -1.2606 -3.2529
  906SOL    HW2 2718   2.140   2.493   1.035  0.8695 -1.5416  0.6562
  907SOL     OW 2719   2.284   0.852   0.338 -0.2295 -0.0661  0.6154
  907SOL    HW1 2720   2.195   0.806   0.323 -0.7237  1.4320 -1.4168
  907SOL    HW2 2721   2.279   0.952   0.320 -0.2468 -0.0684  0.6066
  908SOL     OW 2722   1.874   0.094   1.092 -0.0939  0.2914  0.0069
  908SOL    HW1 2723   1.802   0.153   1.053 -0.5064 -0.8259 -0.9414
  908SOL    HW2 2724   1.963   0.139   1.079  0.0565 -0.0202 -0.0413
  909SOL     OW 2725   2.317   2.897   0.991  0.6718  0.9392  0.2530
  909SOL    HW1 2726   2.262   2.842   1.057  2.4939  0.0303  1.0484
  909SOL    HW2 2727   2.308   2.856   0.899  1.7817  0.9165  0.1528
  910SOL     OW 2728   2.049   0.519   2.101  0.5192  0.3440  0.0801
  910SOL    HW1 2729   2.102   0.505   2.186 -0.1385  0.9999  0.6065
  910SOL    HW2 2730   2.098   0.467   2.030  2.2740 -0.5934  1.9031
  911SOL     OW 2731   1.815   0.112   2.765  0.1809 -0.3492  0.3619
  911SOL    HW1 2732   1.800   0.209   2.791 -1.3121 -0.3799 -0.3223
  911SOL    HW2 2733   1.883   0.081   2.833  1.0493  1.4084  0.3277
  912SOL     OW 2734   0.789   0.880   0.873  0.0750 -0.7431 -1.1850
  912SOL    HW1 2735   0.768   0.912   0.966 -1.8756 -0.6523 -1.6348
  912SOL    HW2 2736   0.742   0.793   0.853  1.9739 -2.1875  0.4745
  913SOL     OW 2737   2.586   2.614   0.945  0.2478 -0.7086 -0.1652
  913SOL    HW1 2738   2.545   2.545   1.006  0.3647  0.5802  1.4094
  913SOL    HW2 2739   2.592   2.706   0.987 -0.6655  0.2693 -2.1076
  914SOL     OW 2740   0.949   0.331   0.804  0.2089  0.1681  0.5750
  914SOL    HW1 2741   0.860   0.356   0.846 -0.8233 -1.1383 -0.7850
  914SOL    HW2 2742   0.975   0.399   0.735  0.6861  0.1726  0.7615
  915SOL     OW 2743   0.309   1.582   1.124  0.4355 -0.2968 -0.4354
  915SOL    HW1 2744   0.208   1.583   1.116  0.3047  0.2828  1.1648
  915SOL    HW2 2745   0.342   1.669   1.163 -1.7144 -0.3061  1.5213
  916SOL     OW 2746   1.936   2.259   1.299 -0.1052 -0.2570  0.4901
  916SOL    HW1 2747   1.909   2.344   1.251 -1.6097  0.5351  2.6353
  916SOL    HW2 2748   1.977   2.276   1.390 -0.5180 -0.9696  0.8170
  917SOL     OW 2749   2.070   2.211   2.590  0.2019  0.1358  0.4700
  917SOL    HW1 2750   2.142   2.140   2.595 -1.4341 -1.6439 -0.5599
  917SOL    HW2 2751   2.006   2.193   2.513  0.9428 -1.1265  0.1372
  918SOL     OW 2752   1.850   1.393   2.340  0.5186 -0.1243  0.0560
  918SOL    HW1 2753   1.940   1.353   2.317  0.7554 -0.1662  1.0109
  918SOL    HW2 2754   1.870   1.478   2.392  0.2565  1.0129 -1.6704
  919SOL     OW 2755   0.721   0.598   0.905 -0.3590 -0.5877 -0.3773
  919SOL    HW1 2756   0.738   0.606   1.004 -1.7605  2.2475 -0.3344
  919SOL    HW2 2757   0.662   0.518   0.887  1.4127 -1.8093 -0.9120
  920SOL     OW 2758   2.849   0.804   1.973 -0.1370 -0.0408  0.3465
  920SOL    HW1 2759   2.924   0.770   1.914  0.3457  0.3919  0.7143
  920SOL    HW2 2760   2.812   0.892   1.940  0.4124  0.0107 -0.1305
  921SOL     OW 2761   2.317   1.351   1.299 -0.2322  0.6029  0.1542
  921SOL    HW1 2762   2.334   1.256   1.329 -0.1367  0.2203 -1.1009
  921SOL    HW2 2763   2.219   1.373   1.306 -0.6370 -0.9416 -0.4212
  922SOL     OW 2764   2.679   2.488   0.710 -0.0639 -0.2463  0.2032
  922SOL    HW1 2765   2.623   2.516   0.789  0.8033  0.5951  0.5281
  922SOL    HW2 2766   2.776   2.518   0.716  0.1438 -0.9967  0.7176
  923SOL     OW 2767   0.012   2.261   0.471 -0.1988 -0.6223  0.0631
  923SOL    HW1 2768   0.061   2.300   0.391  0.1970  0.4621  0.8248
  923SOL    HW2 2769  -0.087   2.250   0.454 -0.1163 -0.0895 -0.8036
  924SOL     OW 2770   0.976   1.201   2.953 -0.4874 -0.0836  0.3999
  924SOL    HW1 2771   0.928   1.276   3.001  2.8171  0.8680  2.3916
  924SOL    HW2 2772   0.918   1.159   2.881  1.6683  0.0271 -1.4501
  925SOL     OW 2773   0.049   1.148   0.909  0.5230 -0.0033 -0.1601
  925SOL    HW1 2774   0.058   1.169   0.811  0.9821 -1.0484 -0.3538
  925SOL    HW2 2775   0.121   1.194   0.963  0.2874  2.3633 -1.8066
  926SOL     OW 2776   0.094   0.055   1.604  0.0432 -0.1377  0.6463
  926SOL    HW1 2777   0.086  -0.022   1.669  0.3552  0.4822  1.4138
  926SOL    HW2 2778   0.188   0.094   1.605  0.0794 -0.1257 -1.1554
  927SOL     OW 2779   0.621   1.790   2.486 -0.4005  0.2413  0.1481
  927SOL    HW1 2780   0.714   1.760   2.459 -0.2438 -0.4862  1.4319
  927SOL    HW2 2781   0.537   1.754   2.442 -1.2161  2.2067  0.0573
  928SOL     OW 2782   0.519   0.670   2.301 -0.8257  0.4998 -0.2574
  928SOL    HW1 2783   0.604   0.628   2.264  0.1668  0.4960  1.9615
  928SOL    HW2 2784   0.471   0.607   2.364 -0.2024 -0.2529 -0.5180
  929SOL     OW 2785   2.407   2.168   0.763 -0.1844  1.1899 -0.0699
  929SOL    HW1 2786   2.376   2.265   0.761 -0.1805  1.1773 -1.2095
  929SOL    HW2 2787   2.384   2.115   0.845 -1.4546  1.2354 -0.3873
  930SOL     OW 2788   1.623   0.496   2.637 -0.2530  0.0055 -0.4422
  930SOL    HW1 2789   1.681   0.453   2.708 -1.9263 -0.5851  0.6024
  930SOL    HW2 2790   1.651   0.589   2.608 -0.3132  0.6284  1.4049
  931SOL     OW 2791   2.610   0.742   3.035 -0.1562  0.8066  0.2974
  931SOL    HW1 2792   2.663   0.696   2.963 -1.5628  2.0515 -1.5804
  931SOL    HW2 2793   2.567   0.670   3.093  0.5597  1.3767  1.5354
  932SOL     OW 2794   1.695   0.923   0.741 -0.1983 -0.3673  0.5641
  932SOL    HW1 2795   1.671   0.972   0.655  0.9803  1.9252  1.5115
  932SOL    HW2 2796   1.721   0.984   0.817 -1.2918 -2.9019  3.0754
  933SOL     OW 2797   2.118   0.776   0.691  0.0556  0.1947  0.3863
  933SOL    HW1 2798   2.107   0.876   0.690 -0.6664  0.1140  0.3340
  933SOL    HW2 2799   2.216   0.751   0.680  0.6362  2.5592 -0.1369
  934SOL     OW 2800   2.537   1.141   2.194 -0.5560 -0.4946  0.4912
  934SOL    HW1 2801   2.471   1.210   2.229  0.1189  0.5093 -0.2129
  934SOL    HW2 2802   2.506   1.046   2.178 -1.5995 -0.1385  0.3233
  935SOL     OW 2803   0.053   1.571   1.029 -0.2533  0.0029 -0.4061
  935SOL    HW1 2804  -0.015   1.567   0.955  0.9121  2.2665 -1.6612
  935SOL    HW2 2805   0.056   1.672   1.039 -2.5850  0.1409 -0.9127
  936SOL     OW 2806   3.071   0.112   0.235  0.8484  0.1418 -0.1238
  936SOL    HW1 2807   3.110   0.127   0.328 -0.2740  0.1268  0.3537
  936SOL    HW2 2808   3.142   0.100   0.164  1.0907  0.7838  0.0120
  937SOL     OW 2809   2.734   2.462   2.189 -0.4844 -0.1000  0.3837
  937SOL    HW1 2810   2.772   2.487   2.280  1.1000 -0.5225 -0.1529
  937SOL    HW2 2811   2.790   2.387   2.150  0.9982  0.2993  1.6979
  938SOL     OW 2812   2.204   2.326   0.192  0.2756 -0.6216  0.5912
  938SOL    HW1 2813   2.112   2.348   0.227 -0.9328 -0.9805 -2.2814
  938SOL    HW2 2814   2.217   2.232   0.158  0.2185 -0.0804 -0.9504
  939SOL     OW 2815   1.132   0.627   1.546 -0.7587 -0.2179  0.1544
  939SOL    HW1 2816   1.092   0.582   1.627 -0.0313 -1.1245  0.0143
  939SOL    HW2 2817   1.061   0.658   1.481 -1.8283  0.1672  1.4861
  940SOL     OW 2818   2.332   2.807   3.087 -0.6261 -0.0566 -0.1434
  940SOL    HW1 2819   2.270   2.860   3.027 -0.2699  0.4233 -0.0974
  940SOL    HW2 2820   2.306   2.710   3.087 -3.4367  0.6485  1.0940
  941SOL     OW 2821   2.868   2.934   1.783  0.2948 -0.8154  0.2377
  941SOL    HW1 2822   2.959   2.936   1.827 -0.6556  4.8612  2.3948
  941SOL    HW2 2823   2.866   2.863   1.711 -4.2063 -1.0639  0.4381
  942SOL     OW 2824   1.616   0.047   1.247  0.2446 -0.8057 -0.0949
  942SOL    HW1 2825   1.646  -0.017   1.319  2.2187  1.3877  1.0683
  942SOL    HW2 2826   1.691   0.104   1.209  0.3194  0.1456  1.4353
  943SOL     OW 2827   1.372   1.375   2.257 -0.3533 -0.3241  0.2579
  943SOL    HW1 2828   1.326   1.320   2.329 -0.2278 -0.3844  0.2925
  943SOL    HW2 2829   1.467   1.398   2.282  0.0998 -1.0589 -0.7426
  944SOL     OW 2830   2.631   0.978   1.463  0.1693 -0.8616  0.0830
  944SOL    HW1 2831   2.690   1.039   1.409 -0.0312 -0.3124  0.4796
  944SOL    HW2 2832   2.578   0.918   1.401 -0.0663  0.3885 -0.9607
  945SOL     OW 2833   2.785   0.030   2.956 -0.3089  0.7549 -0.6193
  945SOL    HW1 2834   2.869   0.015   2.901 -0.4604  0.5388 -0.7907
  945SOL    HW2 2835   2.722  -0.047   2.938 -1.4493  1.8455 -1.3450
  946SOL     OW 2836   0.064   1.517   1.498  0.5294  0.3921  0.0716
  946SOL    HW1 2837   0.136   1.507   1.569 -0.1787  0.8340  0.8683
  946SOL    HW2 2838  -0.022   1.483   1.539 -0.5099  3.2869  0.4229
  947SOL     OW 2839   0.400   0.515   2.480  0.4017  0.1613  0.3144
  947SOL    HW1 2840   0.307   0.489   2.450  0.2433 -0.1195  1.0349
  947SOL    HW2 2841   0.439   0.445   2.542  0.2287 -0.6793 -0.5103
  948SOL     OW 2842   2.089   1.877   1.411  0.5031  0.5107  0.0815
  948SOL    HW1 2843   1.997   1.868   1.370  1.3052  0.9359 -1.8225
  948SOL    HW2 2844   2.089   1.953   1.478  0.5373  0.5188  0.0724
  949SOL     OW 2845   0.401   1.264   2.441 -0.5067  0.1937  0.2613
  949SOL    HW1 2846   0.342   1.280   2.360  0.1578 -1.4790 -0.5722
  949SOL    HW2 2847   0.464   1.342   2.453  1.4733 -1.0692 -1.7217
  950SOL     OW 2848   0.576   3.039   1.857  0.7229 -0.4073 -0.4663
  950SOL    HW1 2849   0.593   3.119   1.796  1.8308  0.4300  0.9132
  950SOL    HW2 2850   0.641   3.048   1.934 -1.5758  0.7756  1.3983
  951SOL     OW 2851   0.831   1.846   2.109  0.4686  0.3496 -0.2523
  951SOL    HW1 2852   0.836   1.752   2.073  0.3668 -0.0120  0.6515
  951SOL    HW2 2853   0.897   1.913   2.072 -0.0304  0.7108 -0.4958
  952SOL     OW 2854   0.569   1.340   0.413 -0.1478  0.2933  0.5547
  952SOL    HW1 2855   0.580   1.264   0.479 -1.1136 -0.4567 -0.1341
  952SOL    HW2 2856   0.472   1.344   0.382  0.2535  1.7796 -0.5252
  953SOL     OW 2857   2.132   1.567   0.123  0.0421  0.3245 -0.4867
  953SOL    HW1 2858   2.220   1.518   0.109 -0.5638 -0.7512 -0.5809
  953SOL    HW2 2859   2.061   1.507   0.162 -1.3073  1.4059 -1.2328
  954SOL     OW 2860   2.013   0.292   0.429 -0.1131  0.4068 -0.1298
  954SOL    HW1 2861   1.975   0.219   0.488 -0.8314 -1.8959 -3.3193
  954SOL    HW2 2862   2.102   0.325   0.464 -0.4993  0.9022  0.3819
  955SOL     OW 2863   1.155   1.546   0.209 -0.0261  0.4932 -0.1942
  955SOL    HW1 2864   1.190   1.516   0.119  0.0438  1.1152 -0.3764
  955SOL    HW2 2865   1.215   1.616   0.251  0.1216  0.6334 -0.6367
  956SOL     OW 2866   2.772   0.541   2.069 -0.3401  0.1099  0.0134
  956SOL    HW1 2867   2.753   0.481   1.990  0.1785  2.2527 -1.7792
  956SOL    HW2 2868   2.807   0.627   2.030  0.7504 -0.1342  0.4327
  957SOL     OW 2869   1.731   1.935   1.926 -0.0871 -0.3153  0.4153
  957SOL    HW1 2870   1.638   1.951   1.890  0.8126  2.1419 -0.9570
  957SOL    HW2 2871   1.756   1.837   1.927  0.4061 -0.1926  0.3655
  958SOL     OW 2872   1.783   1.174   1.275 -0.1004  0.6966 -0.3815
  958SOL    HW1 2873   1.692   1.147   1.309 -0.0636 -0.5132 -1.2184
  958SOL    HW2 2874   1.829   1.095   1.234 -0.1701 -1.1282  2.8955
  959SOL     OW 2875   1.550   2.329   1.925  0.6060  0.0701 -0.3954
  959SOL    HW1 2876   1.614   2.359   1.997 -1.0072  2.7430 -0.0404
  959SOL    HW2 2877   1.494   2.252   1.958  2.6031 -1.6407 -0.8344
  960SOL     OW 2878   0.768   1.246   2.507 -0.1750  0.2631 -0.2792
  960SOL    HW1 2879   0.773   1.198   2.596  3.0815 -1.6408 -1.4049
  960SOL    HW2 2880   0.711   1.329   2.501  0.7069  0.8423 -0.7671
  961SOL     OW 2881   2.965   1.260   0.107 -0.0827  0.1004 -0.4433
  961SOL    HW1 2882   2.998   1.353   0.131 -2.6870  0.5323  1.7531
  961SOL    HW2 2883   3.023   1.230   0.030  0.4777 -0.9999  0.3858
  962SOL     OW 2884   0.722   2.333   2.844  0.1785  0.2581  0.6230
  962SOL    HW1 2885   0.712   2.277   2.928 -0.5196 -0.7524 -0.1122
  962SOL    HW2 2886   0.795   2.310   2.779 -1.9097  0.6066 -1.9013
  963SOL     OW 2887   2.724   1.424   2.752  0.1341 -0.2683  0.1494
  963SOL    HW1 2888   2.684   1.478   2.827  1.9825 -0.0453  1.0078
  963SOL    HW2 2889   2.650   1.373   2.705  0.0381 -0.1891  0.2159
  964SOL     OW 2890   0.912   2.555   2.189  0.9257  0.3309 -0.3561
  964SOL    HW1 2891   0.935   2.647   2.224 -0.7904  0.5000  0.3913
  964SOL    HW2 2892   0.932   2.552   2.090  1.3793 -0.4012 -0.2425
  965SOL     OW 2893   1.413   1.809   1.174 -0.0793 -0.0595  0.6019
  965SOL    HW1 2894   1.340   1.869   1.137 -0.5028 -0.3328  0.9905
  965SOL    HW2 2895   1.384   1.763   1.260 -1.4510 -0.9279 -0.3176
  966SOL     OW 2896   2.778   1.739   0.386  0.3072  0.0308  0.7710
  966SOL    HW1 2897   2.738   1.748   0.294  3.0050  0.4207 -0.4009
  966SOL    HW2 2898   2.751   1.649   0.425  0.2418  0.1057  0.9030
  967SOL     OW 2899   1.885   2.692   2.682 -0.2895 -0.1803 -0.0122
  967SOL    HW1 2900   1.814   2.751   2.725 -1.0679 -2.0423  1.3142
  967SOL    HW2 2901   1.894   2.708   2.583 -2.2706 -0.1086 -0.1999
  968SOL     OW 2902   1.222   1.046   2.949 -0.4118 -0.3795  0.1171
  968SOL    HW1 2903   1.122   1.050   2.965 -0.4528 -0.6089 -0.0785
  968SOL    HW2 2904   1.238   1.121   2.883  0.1304  0.7415  1.4910
  969SOL     OW 2905   0.443   0.706   2.760  0.5797  0.3108 -0.2532
  969SOL    HW1 2906   0.471   0.613   2.733  0.4068 -0.3176  1.5988
  969SOL    HW2 2907   0.367   0.733   2.699 -0.3552  0.5035  0.9787
  970SOL     OW 2908   2.276   2.835   0.267  0.0728 -0.6847 -0.1700
  970SOL    HW1 2909   2.346   2.898   0.306 -1.7601  1.5554 -0.3831
  970SOL    HW2 2910   2.295   2.817   0.170 -1.4432 -0.4087 -0.5363
  971SOL     OW 2911   1.283   1.971   0.680 -0.4363  0.1996  0.2560
  971SOL    HW1 2912   1.262   1.930   0.770  0.7007  0.8238  0.8052
  971SOL    HW2 2913   1.198   1.963   0.624 -1.1878  0.7856  1.2955
  972SOL     OW 2914   0.554   2.245   2.478 -0.2987 -0.2163  0.1523
  972SOL    HW1 2915   0.572   2.157   2.524  0.4548  1.2675  2.7849
  972SOL    HW2 2916   0.581   2.240   2.380 -0.0603 -3.4005  0.3183
  973SOL     OW 2917   0.352   0.434   0.501 -0.8680 -0.5030  0.3781
  973SOL    HW1 2918   0.279   0.504   0.505 -0.8892 -0.5694  1.1142
  973SOL    HW2 2919   0.338   0.344   0.545  0.6727 -0.5975  0.7119
  974SOL     OW 2920   2.603   0.714   1.605 -0.2975  0.1084 -0.3739
  974SOL    HW1 2921   2.575   0.680   1.514 -2.7475  0.6007  0.1548
  974SOL    HW2 2922   2.609   0.814   1.592 -0.7451 -0.0376 -1.7510
  975SOL     OW 2923   0.195   0.172   0.864 -0.0731  0.0265 -0.0945
  975SOL    HW1 2924   0.112   0.115   0.854  0.1338 -0.3270  0.2168
  975SOL    HW2 2925   0.167   0.261   0.905 -0.1766 -0.2409  0.4133
  976SOL     OW 2926   0.624   1.757   1.433 -0.0718 -0.0345 -0.6185
  976SOL    HW1 2927   0.709   1.778   1.484  0.3408  0.3606 -1.4565
  976SOL    HW2 2928   0.543   1.765   1.492 -1.4816 -2.0115 -2.1993
  977SOL     OW 2929   0.994   2.235   0.633  0.0923  0.2217  0.2261
  977SOL    HW1 2930   1.082   2.282   0.616 -0.0648  0.2540 -0.4722
  977SOL    HW2 2931   0.977   2.226   0.733  1.9999  0.0581  0.5545
  978SOL     OW 2932   0.036   1.297   2.962 -0.0282  0.0936 -0.4140
  978SOL    HW1 2933   0.107   1.352   2.916  0.0145  0.1367 -0.2966
  978SOL    HW2 2934  -0.039   1.279   2.897 -0.0921 -0.9028 -0.0855
  979SOL     OW 2935   1.906   1.116   0.117  0.6754  0.1083 -0.4574
  979SOL    HW1 2936   1.928   1.068   0.031 -1.3703 -1.7337  0.0227
  979SOL    HW2 2937   1.842   1.191   0.095  1.8123  2.2251  3.0553
  980SOL     OW 2938   0.768   1.769   1.703 -0.4705  0.2642  0.5862
  980SOL    HW1 2939   0.691   1.808   1.755 -0.2406 -1.3750  2.1849
  980SOL    HW2 2940   0.838   1.835   1.673  1.5610 -1.3338  1.6833
  981SOL     OW 2941   2.350   1.335   2.198  0.2909  0.0869  0.1581
  981SOL    HW1 2942   2.271   1.337   2.134  0.5931 -2.0646 -0.3287
  981SOL    HW2 2943   2.414   1.410   2.177  1.1047 -0.2441  1.3598
  982SOL     OW 2944   0.239   2.320   1.655  0.4644 -0.2426 -0.5841
  982SOL    HW1 2945   0.310   2.375   1.702  0.1579 -2.2982  2.4098
  982SOL    HW2 2946   0.286   2.234   1.629  2.7782  1.3596 -1.8985
  983SOL     OW 2947   1.738   2.827   1.662 -0.6323 -0.2755 -0.1100
  983SOL    HW1 2948   1.788   2.812   1.748  0.9005  0.7887 -0.7972
  983SOL    HW2 2949   1.717   2.741   1.613  1.6985  0.2975 -2.1826
  984SOL     OW 2950   2.903   2.859   2.434 -0.2236  0.6064  0.3954
  984SOL    HW1 2951   2.922   2.931   2.502  0.8142 -0.1435  0.9210
  984SOL    HW2 2952   2.824   2.874   2.373  0.3665  0.8550 -0.3166
  985SOL     OW 2953   1.417   1.074   1.998 -0.2593  0.2962 -0.2780
  985SOL    HW1 2954   1.442   1.049   1.903 -2.4758 -1.2927 -0.4859
  985SOL    HW2 2955   1.470   1.153   2.032  1.0146 -0.4879 -0.3806
  986SOL     OW 2956   1.847   0.262   0.159 -0.1507  0.0176 -0.6172
  986SOL    HW1 2957   1.875   0.209   0.240  0.5985 -1.3563 -1.7391
  986SOL    HW2 2958   1.922   0.263   0.091  1.1362 -1.4020  0.7590
  987SOL     OW 2959   0.688   2.312   2.244 -0.2865 -0.2285 -0.2089
  987SOL    HW1 2960   0.724   2.290   2.152  0.0584 -0.6314  0.0166
  987SOL    HW2 2961   0.619   2.386   2.244 -1.0582 -0.9053 -2.0702
  988SOL     OW 2962   3.025   0.388   1.904 -0.0261  0.1188 -0.5871
  988SOL    HW1 2963   3.036   0.482   1.868  0.4634  0.6147  0.8342
  988SOL    HW2 2964   2.929   0.367   1.879  0.2699 -0.0718 -1.5637
  989SOL     OW 2965   2.084   2.799   1.455 -0.0114  0.3274 -0.1538
  989SOL    HW1 2966   2.050   2.709   1.424  3.8176 -1.9519  1.8232
  989SOL    HW2 2967   2.011   2.870   1.453 -0.3597 -0.0494 -1.3325
  990SOL     OW 2968   2.555   0.959   0.128  0.3318 -0.0580 -0.4025
  990SOL    HW1 2969   2.599   0.895   0.064 -0.4233 -1.1911  0.1827
  990SOL    HW2 2970   2.456   0.969   0.113  0.1832 -0.6079  0.1941
  991SOL     OW 2971   0.557   1.125   0.599  0.0807 -0.0990  0.2097
  991SOL    HW1 2972   0.551   1.086   0.692 -0.8677  2.0801  1.0817
  991SOL    HW2 2973   0.616   1.061   0.547  0.7486 -2.1031  3.2889
  992SOL     OW 2974   1.649   1.587   1.541  0.3328 -0.2221  0.0542
  992SOL    HW1 2975   1.661   1.509   1.604  1.5260 -1.5178 -1.7580
  992SOL    HW2 2976   1.639   1.550   1.448 -1.8902  0.7279 -0.1197
  993SOL     OW 2977   2.836   2.353   0.974 -0.6021 -0.3151 -0.3050
  993SOL    HW1 2978   2.857   2.342   0.876  0.8192  0.0149 -0.0528
  993SOL    HW2 2979   2.826   2.452   0.996 -0.8734 -0.4313  0.1007
  994SOL     OW 2980   2.599   1.753   1.380 -0.0193 -0.0518  0.4461
  994SOL    HW1 2981   2.614   1.850   1.405  0.0308  0.0476  0.0180
  994SOL    HW2 2982   2.644   1.736   1.292  0.5250  1.3397  0.4436
  995SOL     OW 2983   1.952   1.224   2.820  0.3492  0.4266  0.4195
  995SOL    HW1 2984   1.979   1.294   2.888 -1.1432  0.7167  0.7368
  995SOL    HW2 2985   1.976   1.131   2.849  0.1276  0.9765  2.4701
  996SOL     OW 2986   1.859   2.148   0.209  0.2425  0.0899 -0.0715
  996SOL    HW1 2987   1.921   2.224   0.232 -2.0013  2.4534 -1.5890
  996SOL    HW2 2988   1.764   2.182   0.204 -0.2363 -0.8454  2.1138
  997SOL     OW 2989   1.407   1.411   1.983  0.3073  0.6555  0.2686
  997SOL    HW1 2990   1.484   1.345   1.982  0.0557  0.3402  1.1452
  997SOL    HW2 2991   1.368   1.415   2.077 -0.3798 -0.5428  0.0455
  998SOL     OW 2992   0.230   2.564   0.493 -0.0614 -0.1767  1.0191
  998SOL    HW1 2993   0.277   2.493   0.438  0.5980 -0.3454  1.7884
  998SOL    HW2 2994   0.153   2.605   0.443 -1.7472 -0.8386  3.0058
  999SOL     OW 2995   0.611   0.217   0.222  0.1277  0.7645  0.4096
  999SOL    HW1 2996   0.661   0.195   0.137 -0.1974 -2.8825  1.0684
  999SOL    HW2 2997   0.634   0.307   0.262  0.8422  1.1738 -0.9173
 1000SOL     OW 2998   0.839   0.174   0.020 -0.3218 -0.4571  0.9709
 1000SOL    HW1 2999   0.925   0.137  -0.017 -0.0392 -0.2626  1.4262
 1000SOL    HW2 3000   0.781   0.215  -0.052  0.1057 -0.7076  0.4799
   3.09554   3.09554   3.09554
