1000 SPC/Fw water molecules
 2931
    1SOL     OW    1   2.849   2.502   1.490 -0.4497 -0.1155  0.8025
    1SOL    HW1    2   2.818   2.461   1.577  2.5785  0.1493  0.7793
    1SOL    HW2    3   2.937   2.551   1.506 -0.6995  1.9640  1.0515
    2SOL     OW    4   0.478   0.860   0.706  0.2626 -0.2087  0.2285
    2SOL    HW1    5   0.536   0.778   0.716  0.2217  0.9660  3.2210
    2SOL    HW2    6   0.535   0.943   0.721 -1.7471  4.3602  0.8357
    3SOL     OW    7   2.179   1.450   1.149  0.2071  0.6372 -0.4413
    3SOL    HW1    8   2.144   1.432   1.056 -0.1175  2.1560 -0.7346
    3SOL    HW2    9   2.280   1.440   1.155 -1.0913  0.2381 -0.3025
    4SOL     OW   10   2.317   2.140   1.131 -0.2947  0.0472  0.1847
    4SOL    HW1   11   2.236   2.080   1.123 -2.8476  0.1779 -1.0304
    4SOL    HW2   12   2.399   2.086   1.129 -2.2567 -0.7839 -1.1243
    5SOL     OW   13   2.302   2.387   1.020  0.2370  0.3606  0.7158
    5SOL    HW1   14   2.394   2.426   0.995  0.7852 -2.7967  1.3204
    5SOL    HW2   15   2.317   2.295   1.067 -0.7044 -2.2939  3.7610
    6SOL     OW   16   0.901   3.053   0.296 -0.1994  0.1027 -0.3271
    6SOL    HW1   17   0.855   3.076   0.388  1.8249 -0.1126 -0.9461
    6SOL    HW2   18   0.909   2.954   0.281 -0.0851  0.0933  0.7747
    7SOL     OW   19   2.556   2.714   2.011 -0.6855  0.1255  0.3526
    7SOL    HW1   20   2.475   2.754   2.056  0.7391  0.6183 -0.5971
    7SOL    HW2   21   2.541   2.620   1.982 -1.8505  0.8070  2.5832
    8SOL     OW   22   1.961   1.473   2.886  0.3260  0.1151  0.0626
    8SOL    HW1   23   2.019   1.489   2.964  0.2218 -1.2914  0.1113
    8SOL    HW2   24   1.862   1.480   2.911  0.1291  0.5895 -0.8082
    9SOL     OW   25   1.242   0.156   2.533 -0.4648 -0.4076 -0.1783
    9SOL    HW1   26   1.220   0.156   2.437 -0.1642 -0.3988  0.9180
    9SOL    HW2   27   1.310   0.083   2.551 -0.8113  3.0111  0.2801
   10SOL     OW   28   2.361   0.192   1.245 -0.0373 -0.0908 -0.2388
   10SOL    HW1   29   2.324   0.217   1.337  0.7777 -0.7596 -1.4582
   10SOL    HW2   30   2.307   0.244   1.180  0.9437 -1.2257  1.5859
   11SOL     OW   31   1.844   2.716   2.688  0.7120 -0.4278 -0.0629
   11SOL    HW1   32   1.877   2.644   2.755 -0.5440  0.9709  1.2825
   11SOL    HW2   33   1.768   2.676   2.628 -0.0730 -1.9481  1.0489
   12SOL     OW   34   0.881   1.092   2.982 -0.4212 -0.7171 -0.2468
   12SOL    HW1   35   0.854   1.155   2.907 -1.1809  0.4467  1.9525
   12SOL    HW2   36   0.900   1.000   2.945  3.1009  2.5962  1.9085
   13SOL     OW   37   2.189   0.249   0.822  0.5099  0.0074 -0.0214
   13SOL    HW1   38   2.186   0.279   0.723  0.3247  0.2397 -1.8891
   13SOL    HW2   39   2.206   0.147   0.823  0.0955 -1.3944 -0.0617
   14SOL     OW   40   2.437   2.449   2.970  0.1716 -0.3272 -0.1224
   14SOL    HW1   41   2.363   2.484   3.032 -1.7707 -1.8099 -0.5181
   14SOL    HW2   42   2.403   2.441   2.878 -2.7478  1.4136  2.9628
   15SOL     OW   43   0.778   1.664   1.562  0.6167  0.2277  0.5224
   15SOL    HW1   44   0.787   1.587   1.626 -1.4606  1.2216 -1.8655
   15SOL    HW2   45   0.856   1.659   1.499 -0.0532  1.3306  1.0994
   16SOL     OW   46   1.318   0.926   2.605  0.1635 -0.2486 -0.2344
   16SOL    HW1   47   1.331   1.027   2.585 -1.9016  1.4048  0.9601
   16SOL    HW2   48   1.331   0.868   2.524 -0.5112  2.7564 -1.0155
   17SOL     OW   49   2.830   0.994   1.125 -0.0619  0.5396 -0.1009
   17SOL    HW1   50   2.872   0.909   1.158  0.2949 -0.5345  1.4294
   17SOL    HW2   51   2.882   1.045   1.054 -0.6099 -3.6239 -0.7304
   18SOL     OW   52   2.231   1.094   0.761 -0.0993 -0.4861  0.4697
   18SOL    HW1   53   2.194   1.003   0.793 -0.3270 -0.2027 -1.5341
   18SOL    HW2   54   2.306   1.133   0.816 -0.0886  0.1113  3.7227
   19SOL     OW   55   1.054   0.808   1.397 -0.2475 -0.2159  0.4584
   19SOL    HW1   56   1.043   0.742   1.321 -1.9333 -0.4568 -0.5277
   19SOL    HW2   57   0.976   0.810   1.460 -0.7467 -0.6411 -1.6886
   20SOL     OW   58   0.953   1.575   1.366 -0.0673 -0.1637  0.3107
   20SOL    HW1   59   0.908   1.506   1.303 -1.6360  0.4910  0.6326
   20SOL    HW2   60   0.936   1.671   1.331  1.4545  0.6110  1.1201
   21SOL     OW   61   2.576   2.071   2.473  0.5172  0.0588  0.2151
   21SOL    HW1   62   2.610   2.165   2.442  1.6526  1.0919 -1.3969
   21SOL    HW2   63   2.650   2.005   2.475 -1.2057 -1.4806 -3.0278
   22SOL     OW   64   0.015   0.208   0.792 -0.3623 -0.1056  0.3319
   22SOL    HW1   65   0.085   0.227   0.724 -1.0884  2.0527  1.8989
   22SOL    HW2   66   0.058   0.159   0.872 -2.5641 -0.5246  0.9767
   23SOL     OW   67   2.202   0.843   0.845 -0.1928 -0.1236 -0.0807
   23SOL    HW1   68   2.216   0.859   0.947 -3.2357 -0.0792 -4.2179
   23SOL    HW2   69   2.126   0.786   0.815  0.8889 -0.7565  1.0020
   24SOL     OW   70   1.653   1.873   0.442  0.2187 -0.5704 -0.4567
   24SOL    HW1   71   1.591   1.953   0.416 -3.2027 -0.1416  0.1200
   24SOL    HW2   72   1.730   1.909   0.501 -0.0930  0.3459  2.7449
   25SOL     OW   73   1.771   2.240   0.544 -0.3881  0.1753  0.0872
   25SOL    HW1   74   1.836   2.269   0.613  0.0366 -0.6850 -0.3671
   25SOL    HW2   75   1.815   2.241   0.451 -0.1618  0.3154 -2.3299
   26SOL     OW   76   1.348   1.716   1.629  0.0184 -0.2099 -0.1664
   26SOL    HW1   77   1.364   1.634   1.572  1.6486  3.5525 -0.9862
   26SOL    HW2   78   1.294   1.691   1.714 -1.1823 -0.0468  0.8788
   27SOL     OW   79   1.629   1.513   1.628  0.1278 -0.4802  0.1714
   27SOL    HW1   80   1.573   1.538   1.548  0.0831  2.2910  0.7837
   27SOL    HW2   81   1.583   1.433   1.674 -3.1170 -2.9768 -1.9992
   28SOL     OW   82   2.691   2.383   2.986  0.2461  0.3025  0.5123
   28SOL    HW1   83   2.598   2.426   2.975 -0.1979  0.2710  2.3183
   28SOL    HW2   84   2.761   2.456   2.972 -2.0568 -0.0950  0.4909
   29SOL     OW   85   1.368   2.541   1.699 -0.3598  0.2024  0.2208
   29SOL    HW1   86   1.376   2.457   1.636  0.9974 -2.3101 -0.1987
   29SOL    HW2   87   1.269   2.573   1.701 -0.7155  0.1699 -1.3544
   30SOL     OW   88   2.409   2.784   0.745 -0.6945 -0.0003 -0.2005
   30SOL    HW1   89   2.426   2.874   0.698  1.6430 -0.0838  1.0616
   30SOL    HW2   90   2.323   2.737   0.712  0.1615  2.3559  0.9533
   31SOL     OW   91   0.929   2.514   0.073 -0.9346 -0.5777  0.2083
   31SOL    HW1   92   1.005   2.566   0.024 -0.6571  1.8772  0.8306
   31SOL    HW2   93   0.973   2.461   0.144  0.1961  0.8681 -2.1960
   32SOL     OW   94   2.987   2.284   1.103  0.2793 -0.1337 -0.1470
   32SOL    HW1   95   2.951   2.275   1.198 -2.1581  3.2119  1.9310
   32SOL    HW2   96   2.972   2.380   1.072 -0.8834 -1.8291 -1.2767
   33SOL     OW   97   2.957   1.256   1.752  0.2304  0.3141  0.4661
   33SOL    HW1   98   3.035   1.216   1.799 -0.0421 -1.8035 -1.5965
   33SOL    HW2   99   2.885   1.272   1.820  2.1539 -1.4715  1.9525
   34SOL     OW  100   0.491   0.622   1.714  0.1770  0.3278 -0.1526
   34SOL    HW1  101   0.471   0.707   1.767  1.2542  1.0335  1.1509
   34SOL    HW2  102   0.531   0.548   1.779  3.0422 -0.7144  0.9105
   35SOL     OW  103   1.057   1.058   1.659  0.5156 -0.0191 -0.0146
   35SOL    HW1  104   1.157   1.041   1.676  1.5628  0.6509  2.7148
   35SOL    HW2  105   1.046   1.099   1.565 -0.5123  1.1056  0.3738
   36SOL     OW  106   2.484   0.752   0.598  0.4497  0.7205  0.2971
   36SOL    HW1  107   2.514   0.781   0.689 -0.8772 -2.0354 -1.1806
   36SOL    HW2  108   2.390   0.713   0.600  0.2564  0.1151 -2.4583
   37SOL     OW  109   2.711   1.144   3.006 -0.1015  0.5997  0.2644
   37SOL    HW1  110   2.709   1.068   2.943 -0.1014  0.5109  1.5616
   37SOL    HW2  111   2.785   1.137   3.069  0.1879 -0.0387 -0.9705
   38SOL     OW  112   2.970   2.469   2.252 -0.1461 -0.2071  0.2374
   38SOL    HW1  113   3.048   2.440   2.190  2.3429 -1.7731  0.5694
   38SOL    HW2  114   2.981   2.570   2.269 -0.1880  1.8564  1.4151
   39SOL     OW  115   1.184   2.816   1.291  0.1334 -0.3611  0.1791
   39SOL    HW1  116   1.169   2.837   1.191 -0.9428 -1.5236 -2.1039
   39SOL    HW2  117   1.095   2.833   1.343 -1.4539  0.7134 -2.4228
   40SOL     OW  118   1.476   2.488   0.170  0.3648 -0.1433 -0.8489
   40SOL    HW1  119   1.427   2.566   0.129  0.2827 -2.3935  4.4845
   40SOL    HW2  120   1.437   2.469   0.262  1.1702 -0.2957  2.3191
   41SOL     OW  121   0.633   2.545   2.102  0.3831 -0.2408 -0.3731
   41SOL    HW1  122   0.602   2.617   2.166  3.6149  0.4727  2.4177
   41SOL    HW2  123   0.566   2.517   2.026  0.9028 -0.7044 -2.4209
   42SOL     OW  124   1.525   0.045   0.118 -0.4889 -0.4748 -0.1311
   42SOL    HW1  125   1.554  -0.055   0.114  2.7786 -4.3571 -1.1898
   42SOL    HW2  126   1.422   0.065   0.097 -0.4438  1.1401 -0.7671
   43SOL     OW  127   2.155   2.769   2.664 -0.0031 -0.6548 -0.1358
   43SOL    HW1  128   2.057   2.778   2.647 -1.6036 -1.3984  1.1401
   43SOL    HW2  129   2.175   2.730   2.756 -0.3443 -1.0761 -2.4789
   44SOL     OW  130   0.428   1.010   1.134  0.5556 -0.0139 -0.2270
   44SOL    HW1  131   0.529   0.994   1.113 -0.1862  4.1387 -1.2324
   44SOL    HW2  132   0.367   0.928   1.136 -1.7797 -0.1777  0.8524
   45SOL     OW  133   2.224   1.542   0.253 -0.0923 -0.2490 -0.6664
   45SOL    HW1  134   2.253   1.528   0.158 -3.4769 -0.8446  3.2995
   45SOL    HW2  135   2.180   1.631   0.264  1.3266 -2.5185 -1.6404
   46SOL     OW  136   0.911   0.848   2.834 -0.3653  0.2530 -0.1404
   46SOL    HW1  137   0.837   0.790   2.792  0.5445 -0.1093  2.3663
   46SOL    HW2  138   1.003   0.810   2.809  1.5453 -0.2308 -0.5343
   47SOL     OW  139   0.955   2.257   2.191  0.5511 -0.0554 -0.3288
   47SOL    HW1  140   0.963   2.164   2.225  1.3258 -1.3648  1.8471
   47SOL    HW2  141   1.041   2.280   2.143 -0.0087 -2.0589 -4.3844
   48SOL     OW  142   1.008   0.298   0.369  0.5336  0.2703 -0.1354
   48SOL    HW1  143   1.065   0.297   0.285  0.2277  1.0716 -0.5637
   48SOL    HW2  144   1.056   0.343   0.447 -2.5670  0.1276 -1.5342
   49SOL     OW  145   1.816   2.520   0.840 -0.2605 -0.8353  0.1753
   49SOL    HW1  146   1.815   2.519   0.941 -0.8178 -0.8735 -2.1841
   49SOL    HW2  147   1.898   2.575   0.813  0.1636  0.4947 -0.0162
   50SOL     OW  148   0.086   0.278   2.752  0.1841 -0.1484 -0.0759
   50SOL    HW1  149   0.081   0.376   2.786 -0.8303  0.7156  2.8128
   50SOL    HW2  150   0.167   0.275   2.687 -4.1984 -0.4886 -1.4721
   51SOL     OW  151   1.643   2.214   1.043  0.2605 -0.5057 -0.2468
   51SOL    HW1  152   1.556   2.249   1.006 -2.3399 -2.1247  2.7618
   51SOL    HW2  153   1.708   2.183   0.966  0.8752 -0.5005 -1.8126
   52SOL     OW  154   1.809   0.602   1.689  1.0478  0.2298 -0.2532
   52SOL    HW1  155   1.758   0.547   1.760 -1.0687 -1.9501 -2.6227
   52SOL    HW2  156   1.812   0.701   1.713  0.7746  0.8242 -1.1196
   53SOL     OW  157   1.620   0.751   1.087 -0.1340  0.4309  0.0309
   53SOL    HW1  158   1.651   0.667   1.043  1.8852  0.6693  2.3864
   53SOL    HW2  159   1.549   0.734   1.161 -2.3839 -1.1304  2.9267
   54SOL     OW  160   0.822   3.050   0.583 -0.0253  0.5034 -0.3113
   54SOL    HW1  161   0.722   3.078   0.585 -1.8721 -0.8582  0.0579
   54SOL    HW2  162   0.832   2.954   0.625  1.6616 -1.0699  0.6781
   55SOL     OW  163   0.362   0.434   2.913 -0.0044  0.1598  0.4773
   55SOL    HW1  164   0.277   0.403   2.962 -3.7051 -1.3787 -0.5022
   55SOL    HW2  165   0.386   0.531   2.927 -1.1103  0.6260  2.6748
   56SOL     OW  166   2.488   2.597   2.691  0.1489 -0.4351  0.0718
   56SOL    HW1  167   2.480   2.677   2.758  3.4785  0.1766  2.0413
   56SOL    HW2  168   2.587   2.575   2.678  0.2402 -1.3927  1.5751
   57SOL     OW  169   0.954   1.247   0.095  0.4969 -0.5344 -0.0377
   57SOL    HW1  170   1.041   1.293   0.087 -2.6857 -0.6582  0.2110
   57SOL    HW2  171   0.933   1.189   0.014  0.6908  2.4581 -0.9956
   58SOL     OW  172   1.457   1.170   0.362  0.4580  0.1356 -0.0146
   58SOL    HW1  173   1.560   1.186   0.345 -1.1041 -0.3976  0.6027
   58SOL    HW2  174   1.399   1.222   0.296  1.1207  1.3465  1.2839
   59SOL     OW  175   0.756   1.798   3.000  0.0564 -0.2346  0.1168
   59SOL    HW1  176   0.785   1.889   3.027 -4.1845  1.9769  0.0278
   59SOL    HW2  177   0.745   1.789   2.897  1.9515 -1.2676 -2.3205
   60SOL     OW  178   0.927   2.202   0.999 -0.4112  0.1573  0.3558
   60SOL    HW1  179   0.838   2.255   1.016 -3.3874  2.4511 -1.7325
   60SOL    HW2  180   0.934   2.120   1.059  0.0726 -1.0437  2.1975
   61SOL     OW  181   0.005   1.210   2.457  0.2113  0.6699  0.0660
   61SOL    HW1  182  -0.087   1.190   2.423  2.4276  1.7883  0.0234
   61SOL    HW2  183   0.004   1.294   2.515  0.8404 -3.2853  0.9703
   62SOL     OW  184   0.513   1.481   2.551  0.1493  0.1381  0.0750
   62SOL    HW1  185   0.482   1.421   2.627 -1.3744  1.3089 -1.1609
   62SOL    HW2  186   0.521   1.580   2.577  0.9351  0.3656  1.7725
   63SOL     OW  187   0.260   2.638   0.606  0.3312 -0.2900 -0.0897
   63SOL    HW1  188   0.248   2.644   0.504 -1.2942 -1.3844  0.0114
   63SOL    HW2  189   0.350   2.671   0.635 -1.8865  0.0089  2.1306
   64SOL     OW  190   0.679   0.629   2.112  0.1481  0.5819  0.1169
   64SOL    HW1  191   0.712   0.698   2.041  1.4241  1.7349 -1.0203
   64SOL    HW2  192   0.636   0.671   2.194 -0.5470  0.4040  3.4308
   65SOL     OW  193   2.146   0.999   2.028 -0.1194  0.3734 -0.1236
   65SOL    HW1  194   2.135   0.908   1.977  0.5517  0.9543  0.8787
   65SOL    HW2  195   2.239   0.988   2.076  5.3068 -4.2575 -0.1463
   66SOL     OW  196   1.462   1.237   0.648 -0.3157 -0.4815 -0.5281
   66SOL    HW1  197   1.455   1.213   0.548 -1.1982 -0.6952 -0.6730
   66SOL    HW2  198   1.401   1.317   0.677 -1.3557  0.6964 -1.8402
   67SOL     OW  199   2.800   1.160   2.013  0.2825 -0.0289  0.1280
   67SOL    HW1  200   2.734   1.226   1.971  1.1845  0.0731 -0.8746
   67SOL    HW2  201   2.804   1.073   1.958  0.5610  1.5816 -0.9892
   68SOL     OW  202   2.195   1.735   2.440  0.1195 -0.6124 -0.1960
   68SOL    HW1  203   2.274   1.708   2.502 -0.8744 -1.3630  1.0678
   68SOL    HW2  204   2.114   1.671   2.451 -1.0667 -0.3833  1.4809
   69SOL     OW  205   1.531   0.651   1.509 -0.0452 -0.0771 -0.0692
   69SOL    HW1  206   1.494   0.642   1.605 -0.8043 -0.4063  0.2101
   69SOL    HW2  207   1.633   0.648   1.517  1.2880 -0.5991  1.3311
   70SOL     OW  208   1.716   2.890   1.950 -0.1918 -0.1107  0.3732
   70SOL    HW1  209   1.753   2.895   1.860 -2.7884 -0.6679 -0.6861
   70SOL    HW2  210   1.633   2.829   1.947 -0.8434 -0.8653 -0.2233
   71SOL     OW  211   0.352   0.582   2.308 -0.4623 -0.0265  0.6780
   71SOL    HW1  212   0.329   0.491   2.348  1.2577 -0.3018  1.1941
   71SOL    HW2  213   0.323   0.590   2.214  1.5053  1.6966  1.9629
   72SOL     OW  214   2.464   2.461   2.227 -0.4529 -0.5995  0.2141
   72SOL    HW1  215   2.532   2.418   2.290  0.3835  1.2558  1.0650
   72SOL    HW2  216   2.404   2.523   2.281  1.8988 -2.3195 -0.5050
   73SOL     OW  217   0.230   0.300   2.028  0.6469 -0.0937  0.3968
   73SOL    HW1  218   0.218   0.285   2.128  1.3629 -0.3628  0.0476
   73SOL    HW2  219   0.154   0.360   1.995 -0.7916 -0.0375 -2.6691
   74SOL     OW  220   2.223   0.790   2.409 -0.0618  0.1744  0.2865
   74SOL    HW1  221   2.168   0.862   2.362  0.2710  1.1636  1.8712
   74SOL    HW2  222   2.233   0.701   2.357 -0.4582 -1.7590 -1.1935
   75SOL     OW  223   1.667   1.464   2.480 -0.5431 -0.2101 -0.1586
   75SOL    HW1  224   1.677   1.362   2.486 -1.7486 -1.8616 -2.7526
   75SOL    HW2  225   1.756   1.515   2.487  0.3869  0.6002  0.0431
   76SOL     OW  226   1.099   1.626   3.052 -0.2433 -0.3450  0.6631
   76SOL    HW1  227   1.108   1.722   3.008 -1.2506  1.9686 -1.2665
   76SOL    HW2  228   1.004   1.616   3.084  1.2543  0.4784 -2.1069
   77SOL     OW  229   1.552   2.313   2.777  0.1455  0.0360  0.1387
   77SOL    HW1  230   1.595   2.331   2.871 -2.6791 -0.8916  1.1794
   77SOL    HW2  231   1.525   2.401   2.731 -1.0133  0.7865 -1.1214
   78SOL     OW  232   0.971   2.998   2.635  0.9189  0.8632  0.1706
   78SOL    HW1  233   0.918   3.053   2.568 -2.8543 -0.3980  0.7012
   78SOL    HW2  234   1.044   2.948   2.587 -1.3328 -0.8172  1.0702
   79SOL     OW  235   0.463   0.202   1.909  0.0705  0.1414 -0.1586
   79SOL    HW1  236   0.372   0.210   1.947 -0.4272  0.4559 -2.0365
   79SOL    HW2  237   0.530   0.271   1.941  1.2714  2.1433 -2.0475
   80SOL     OW  238   2.908   0.854   2.435  0.2562 -0.6093 -0.5356
   80SOL    HW1  239   2.814   0.827   2.462 -1.4123 -1.9176  2.6180
   80SOL    HW2  240   2.911   0.918   2.356 -0.8650  0.6730 -1.0830
   81SOL     OW  241   0.698   2.324   2.240 -0.0610  0.2000  0.0690
   81SOL    HW1  242   0.684   2.408   2.180 -0.0180  2.1412 -2.3374
   81SOL    HW2  243   0.798   2.304   2.248 -3.2550 -0.5658 -1.9919
   82SOL     OW  244   0.639   3.079   2.912 -0.1216  0.1251  0.3382
   82SOL    HW1  245   0.709   3.027   2.968  0.8735 -0.9022  0.2657
   82SOL    HW2  246   0.576   3.018   2.858  1.0731  0.0612 -0.2194
   83SOL     OW  247   1.705   0.257   0.094  0.3052  0.7931  0.4885
   83SOL    HW1  248   1.645   0.173   0.112 -1.1895 -2.9223  0.0023
   83SOL    HW2  249   1.649   0.324   0.044 -1.0120 -0.7710  2.4244
   84SOL     OW  250   1.887   1.299   0.080  0.5269 -0.5130 -0.0124
   84SOL    HW1  251   1.984   1.277   0.102 -0.6530  0.5617  1.6985
   84SOL    HW2  252   1.873   1.399   0.087  0.7214 -0.3384  0.1993
   85SOL     OW  253   0.137   0.767   0.070  0.2750 -0.4864 -0.0815
   85SOL    HW1  254   0.117   0.863   0.043  0.0057 -2.7490 -0.8360
   85SOL    HW2  255   0.227   0.757   0.118  0.5075 -0.6793 -1.8084
   86SOL     OW  256   2.651   0.480   0.001 -1.0281  0.0777 -0.1470
   86SOL    HW1  257   2.607   0.391   0.022 -1.3125 -2.0407  0.6136
   86SOL    HW2  258   2.589   0.534  -0.052  1.1893 -3.5386  1.1855
   87SOL     OW  259   2.732   2.768   2.797  0.5119 -0.0776 -0.2742
   87SOL    HW1  260   2.642   2.819   2.780 -1.2175  1.8298  0.3964
   87SOL    HW2  261   2.813   2.828   2.777  0.1210  0.2535 -0.3830
   88SOL     OW  262   0.432   0.868   0.326 -0.7981  0.1597  0.7129
   88SOL    HW1  263   0.403   0.770   0.326 -0.4555  0.6694 -2.1946
   88SOL    HW2  264   0.394   0.931   0.391  0.7774 -3.6699 -1.3969
   89SOL     OW  265   1.494   2.599   2.715  0.1397 -0.4797  0.0784
   89SOL    HW1  266   1.549   2.633   2.640  0.6449 -0.2301  0.0211
   89SOL    HW2  267   1.430   2.676   2.736  3.6609 -0.0973 -0.1546
   90SOL     OW  268   2.319   1.325   1.769 -0.5879 -0.2972  0.0664
   90SOL    HW1  269   2.279   1.399   1.708 -1.1480 -0.3954 -2.3535
   90SOL    HW2  270   2.243   1.270   1.811 -4.0152 -2.3741  2.7222
   91SOL     OW  271   1.715   1.689   1.799 -0.2219  0.2857  0.0732
   91SOL    HW1  272   1.675   1.612   1.744  1.5883 -0.1585  0.9556
   91SOL    HW2  273   1.665   1.774   1.773  2.3347 -0.0301 -0.5189
   92SOL     OW  274   1.755   0.631   0.657  0.2074  0.6017  0.3311
   92SOL    HW1  275   1.735   0.722   0.622 -0.5161 -1.1558  1.3212
   92SOL    HW2  276   1.694   0.607   0.733  1.5951  0.6687 -0.8322
   93SOL     OW  277   2.386   1.602   1.541  0.0717 -0.0325  0.3756
   93SOL    HW1  278   2.291   1.565   1.566 -1.3663 -0.2270 -0.4377
   93SOL    HW2  279   2.390   1.684   1.481  2.3588 -1.0655 -2.6326
   94SOL     OW  280   2.629   0.436   0.723  0.6033  0.0052 -0.1554
   94SOL    HW1  281   2.706   0.395   0.775  3.1388  0.2959 -2.8462
   94SOL    HW2  282   2.630   0.538   0.728 -1.6259 -0.7186  3.2081
   95SOL     OW  283   0.938   3.049   1.185 -0.9730 -0.1498 -0.2988
   95SOL    HW1  284   0.887   3.114   1.125  1.4993 -0.8227 -0.0063
   95SOL    HW2  285   0.902   3.048   1.281 -0.5933 -0.1333  1.9394
   96SOL     OW  286   1.813   2.109   0.864 -0.0516 -0.0296 -0.0222
   96SOL    HW1  287   1.866   2.030   0.895  2.2382  2.7393  1.5433
   96SOL    HW2  288   1.872   2.178   0.815  0.1775 -1.5952  0.3289
   97SOL     OW  289   0.714   1.027   0.680  0.4084  0.1172  0.3815
   97SOL    HW1  290   0.642   1.090   0.714  0.1248 -1.0747 -0.6066
   97SOL    HW2  291   0.771   0.982   0.752  1.3036  1.2781  0.8483
   98SOL     OW  292   1.323   0.733   2.409 -0.1966 -0.5075 -0.3833
   98SOL    HW1  293   1.410   0.690   2.380 -0.6227 -1.7976 -1.3608
   98SOL    HW2  294   1.264   0.674   2.467 -1.8664  1.6615  0.5524
   99SOL     OW  295   2.556   1.287   2.761  0.4917  0.3340 -0.9001
   99SOL    HW1  296   2.490   1.213   2.770 -1.0223 -0.8964  0.1461
   99SOL    HW2  297   2.607   1.302   2.849  2.0522  0.3167 -3.4174
  100SOL     OW  298   1.929   1.202   0.961 -0.0867 -0.4103  0.2169
  100SOL    HW1  299   1.868   1.264   1.009 -1.0266 -2.0515  1.1181
  100SOL    HW2  300   1.890   1.142   0.887  1.9949  0.8351 -1.5381
  101SOL     OW  301   1.221   1.633   1.869  0.2958 -0.0169 -0.0325
  101SOL    HW1  302   1.290   1.611   1.940 -1.9635  0.4866 -0.6271
  101SOL    HW2  303   1.164   1.554   1.841  2.4621 -0.0886  1.1644
  102SOL     OW  304   2.522   3.025   1.356  0.4234  0.2382  0.0505
  102SOL    HW1  305   2.494   2.955   1.283  1.4257 -1.6384 -2.2412
  102SOL    HW2  306   2.525   3.119   1.319  0.0856 -1.0291  1.2452
  103SOL     OW  307   1.349   2.436   0.421  0.3139  0.0985  0.2876
  103SOL    HW1  308   1.255   2.433   0.383 -0.2297 -2.3873 -0.1582
  103SOL    HW2  309   1.365   2.350   0.474 -0.9585  1.9954 -1.3763
  104SOL     OW  310   2.722   0.060   2.773  0.1762  0.3902 -0.1120
  104SOL    HW1  311   2.773  -0.024   2.735  1.3896 -3.7922 -2.3307
  104SOL    HW2  312   2.781   0.142   2.783 -3.7742  1.2850  0.8759
  105SOL     OW  313   1.339   1.502   2.693  0.5578 -0.0701  0.2394
  105SOL    HW1  314   1.375   1.424   2.744 -1.3257  0.8712  0.2520
  105SOL    HW2  315   1.418   1.562   2.669 -1.2446  0.4802 -1.2651
  106SOL     OW  316   3.000   2.762   0.596  0.5167  0.5632 -0.2156
  106SOL    HW1  317   2.930   2.715   0.534 -0.7122 -1.1755 -1.1117
  106SOL    HW2  318   3.008   2.861   0.575  2.0125 -0.7964 -0.7242
  107SOL     OW  319   1.794   2.026   2.550  0.0575 -0.0223 -0.3392
  107SOL    HW1  320   1.752   1.934   2.565 -1.3234  1.6449 -0.9760
  107SOL    HW2  321   1.893   2.020   2.554  1.9202 -0.0833 -1.4257
  108SOL     OW  322   2.652   0.799   2.495  0.1878  0.6014  0.4456
  108SOL    HW1  323   2.575   0.799   2.564 -0.9867 -0.9536 -2.0297
  108SOL    HW2  324   2.636   0.735   2.413  0.6048  0.3451 -0.4736
  109SOL     OW  325   0.310   2.970   1.459  0.3624 -0.4723  0.0930
  109SOL    HW1  326   0.309   2.919   1.549 -1.6611  0.5036 -1.8243
  109SOL    HW2  327   0.222   2.955   1.403 -0.8884 -0.0949 -1.6785
  110SOL     OW  328   2.135   1.473   1.620  0.5838 -0.4505 -0.2779
  110SOL    HW1  329   2.048   1.514   1.655 -0.3002 -0.3176 -0.4725
  110SOL    HW2  330   2.102   1.395   1.565 -2.3919  1.4836  0.2743
  111SOL     OW  331   2.411   0.515   2.683 -0.0898  0.0466  0.3286
  111SOL    HW1  332   2.377   0.486   2.777  0.2985  0.9415  0.5572
  111SOL    HW2  333   2.463   0.433   2.641  0.9582 -1.8427 -2.0981
  112SOL     OW  334   1.739   1.604   2.047 -0.0305  0.2377  0.4950
  112SOL    HW1  335   1.823   1.622   2.095 -2.9689 -1.4496 -0.4763
  112SOL    HW2  336   1.729   1.642   1.950 -2.1525 -3.6762 -0.0482
  113SOL     OW  337   1.978   0.639   0.789 -0.3775  0.1397 -0.0030
  113SOL    HW1  338   1.905   0.666   0.723 -1.6415 -1.2633  3.2198
  113SOL    HW2  339   1.976   0.541   0.811  3.1179 -1.7485 -4.5372
  114SOL     OW  340   1.385   1.325   1.682  0.1872 -0.2445  0.2273
  114SOL    HW1  341   1.287   1.360   1.661  0.2785  2.1635  2.0651
  114SOL    HW2  342   1.419   1.265   1.606  0.1230 -0.8034  0.1081
  115SOL     OW  343   2.802   1.082   0.697 -0.1126 -0.8522  0.3339
  115SOL    HW1  344   2.868   1.119   0.766 -0.7351  1.5421 -3.6592
  115SOL    HW2  345   2.773   0.987   0.718 -1.5396  2.6248  1.7181
  116SOL     OW  346   0.297   0.340   2.399 -0.7022 -0.1749  1.2148
  116SOL    HW1  347   0.210   0.303   2.361  0.0422  0.2954  1.5863
  116SOL    HW2  348   0.298   0.346   2.500  1.1078  1.3209 -0.3410
  117SOL     OW  349   1.901   0.256   1.136  0.0398  0.0396  0.0832
  117SOL    HW1  350   1.969   0.275   1.205 -1.0377  1.7716 -1.8009
  117SOL    HW2  351   1.897   0.158   1.105 -0.0170  0.7879 -0.7870
  118SOL     OW  352   0.006   1.721   1.163  0.3273  0.5712 -0.0323
  118SOL    HW1  353   0.088   1.740   1.228  1.9275 -1.8385 -0.3054
  118SOL    HW2  354  -0.048   1.639   1.191  0.3736  0.6600  0.7174
  119SOL     OW  355   2.657   2.342   2.410  0.5266 -0.2943 -0.2427
  119SOL    HW1  356   2.746   2.298   2.385  1.8786  2.0428  2.4688
  119SOL    HW2  357   2.671   2.436   2.448  0.1694  2.9633  1.4117
  120SOL     OW  358   2.988   2.412   2.528  0.3129 -0.3018  0.0983
  120SOL    HW1  359   3.000   2.310   2.544  0.3883 -2.0237  2.4447
  120SOL    HW2  360   2.962   2.436   2.433  1.0904  0.7644 -2.1921
  121SOL     OW  361   3.020   0.535   1.135 -0.5450 -0.1096 -0.4477
  121SOL    HW1  362   3.109   0.520   1.185  2.8749 -0.6941  0.3169
  121SOL    HW2  363   2.952   0.461   1.141 -2.0353 -0.9163  1.0647
  122SOL     OW  364   2.145   2.363   1.447  0.1702  0.2030  0.1399
  122SOL    HW1  365   2.089   2.294   1.395 -0.8483  1.7645 -0.5659
  122SOL    HW2  366   2.165   2.336   1.546  1.6401  1.5634 -3.5389
  123SOL     OW  367   0.570   1.832   2.392 -0.7378  0.0438  0.1785
  123SOL    HW1  368   0.571   1.860   2.489 -2.0453  1.8451 -0.2383
  123SOL    HW2  369   0.475   1.806   2.366  0.8665  0.2219 -1.6260
  124SOL     OW  370   2.870   0.074   2.175 -0.5136  0.2671  0.6442
  124SOL    HW1  371   2.777   0.045   2.159  0.7948  2.7613  1.3374
  124SOL    HW2  372   2.890   0.136   2.099  1.7547  1.7986  1.4550
  125SOL     OW  373   0.831   1.020   2.205  0.2145 -0.3924  0.1833
  125SOL    HW1  374   0.845   0.943   2.140 -0.9092 -0.2784 -0.0514
  125SOL    HW2  375   0.758   1.073   2.159  1.1791  0.5296 -0.1814
  126SOL     OW  376   3.059   2.238   2.776 -0.2023 -0.4926  0.0602
  126SOL    HW1  377   3.092   2.327   2.797 -2.6291 -2.8529  0.3498
  126SOL    HW2  378   2.986   2.216   2.841  0.1252  0.4545  0.5836
  127SOL     OW  379   1.191   0.461   0.596 -0.0638 -0.6880  0.6766
  127SOL    HW1  380   1.273   0.502   0.549 -0.0047 -1.2593 -2.6573
  127SOL    HW2  381   1.118   0.530   0.591  2.2100 -0.2982 -1.1501
  128SOL     OW  382   0.224   0.057   0.910  0.4423 -0.4673  0.3351
  128SOL    HW1  383   0.262   0.141   0.861  0.6621 -1.0477  0.0901
  128SOL    HW2  384   0.262   0.063   1.004 -0.7875 -0.7391  1.2618
  129SOL     OW  385   0.486   1.067   2.570  0.2546 -0.1485 -0.0804
  129SOL    HW1  386   0.576   1.043   2.520 -1.1095 -1.5665  2.3121
  129SOL    HW2  387   0.455   0.998   2.636  0.2817 -1.1719 -0.1125
  130SOL     OW  388   2.293   0.205   2.333 -0.0769  0.1366  0.4119
  130SOL    HW1  389   2.194   0.195   2.356 -0.0204 -3.0520 -0.8358
  130SOL    HW2  390   2.357   0.227   2.408  1.6514  1.4893 -2.9885
  131SOL     OW  391   1.669   0.737   0.234 -0.2309 -0.2615  0.1647
  131SOL    HW1  392   1.601   0.699   0.169  1.0300 -1.9945 -1.5829
  131SOL    HW2  393   1.705   0.654   0.282 -0.9515 -2.0807 -0.1097
  132SOL     OW  394   0.822   1.181   1.705 -0.1530 -0.4025 -0.2322
  132SOL    HW1  395   0.911   1.132   1.704 -0.1230  1.9491  1.3373
  132SOL    HW2  396   0.828   1.281   1.708 -0.1473  0.7775 -1.1493
  133SOL     OW  397   2.814   2.421   0.740 -0.1764  0.3103 -0.8221
  133SOL    HW1  398   2.764   2.385   0.820 -1.8537  0.1404  1.0808
  133SOL    HW2  399   2.903   2.372   0.722 -1.9016 -2.6188 -1.2183
  134SOL     OW  400   2.845   0.888   0.030 -0.1558  0.5242  0.0214
  134SOL    HW1  401   2.815   0.886  -0.071  2.0029 -1.2635 -0.7679
  134SOL    HW2  402   2.804   0.808   0.078 -0.7723  0.8191 -0.0762
  135SOL     OW  403   0.392   1.910   1.664 -0.4542 -0.5449 -0.0249
  135SOL    HW1  404   0.370   1.956   1.750  0.0678  0.3005  1.4541
  135SOL    HW2  405   0.341   1.948   1.584 -1.3314  1.5909 -1.4898
  136SOL     OW  406   2.027   0.920   2.253 -0.3855  0.1759 -0.1195
  136SOL    HW1  407   2.047   0.959   2.160  2.3804  1.8488  1.6582
  136SOL    HW2  408   1.954   0.849   2.256  0.3239 -1.8849 -0.7801
  137SOL     OW  409   0.964   1.567   0.535  0.2866 -0.0365 -0.4053
  137SOL    HW1  410   0.951   1.554   0.433 -1.2076 -2.0168 -1.9458
  137SOL    HW2  411   0.910   1.496   0.582 -0.8036  3.4264  0.1041
  138SOL     OW  412   2.159   2.181   2.257  0.2916  0.3030  0.2883
  138SOL    HW1  413   2.099   2.098   2.264 -0.5482 -0.6571 -2.5115
  138SOL    HW2  414   2.242   2.151   2.205 -0.3619 -2.9159  0.6210
  139SOL     OW  415   0.022   0.894   2.237  0.4578 -0.1983  0.2585
  139SOL    HW1  416   0.093   0.856   2.304 -2.5132 -0.7368  2.3711
  139SOL    HW2  417   0.079   0.918   2.155 -0.5180  0.5775 -0.7383
  140SOL     OW  418   0.885   0.881   0.902 -0.1029  0.0178 -0.0002
  140SOL    HW1  419   0.914   0.787   0.875  0.8510  1.3272  0.2026
  140SOL    HW2  420   0.965   0.943   0.906  2.0645  3.4416 -0.8871
  141SOL     OW  421   1.792   0.620   2.899 -0.2417  0.1878  0.0946
  141SOL    HW1  422   1.724   0.548   2.925  2.0941 -1.6509  1.3006
  141SOL    HW2  423   1.757   0.713   2.929  0.6033  1.3883  0.3756
  142SOL     OW  424   1.486   0.161   1.788  0.0414 -0.4730 -0.1935
  142SOL    HW1  425   1.479   0.204   1.878  1.8090  0.2483 -4.4190
  142SOL    HW2  426   1.576   0.171   1.747 -0.1490 -1.9350  0.8823
  143SOL     OW  427   0.441   2.087   2.131  0.0181 -0.1017  0.4596
  143SOL    HW1  428   0.511   2.159   2.142  0.0257 -0.9765 -1.1255
  143SOL    HW2  429   0.479   2.001   2.166 -3.3318  0.9861 -1.1361
  144SOL     OW  430   0.939   1.307   2.751  0.1927 -0.2970  0.2661
  144SOL    HW1  431   1.038   1.316   2.722  1.7350 -0.1041  1.0982
  144SOL    HW2  432   0.871   1.333   2.680 -0.9609  1.7989  0.8702
  145SOL     OW  433   0.676   1.059   1.886  0.0155 -0.0464  0.3780
  145SOL    HW1  434   0.658   1.127   1.959 -0.6069  0.4799 -2.1004
  145SOL    HW2  435   0.709   1.110   1.804 -3.0691 -1.6604 -2.6974
  146SOL     OW  436   1.226   0.870   1.001  0.0282  0.7021  0.0023
  146SOL    HW1  437   1.182   0.960   0.978 -0.5969  0.8769  1.0158
  146SOL    HW2  438   1.316   0.860   0.953  0.5156  0.2183  1.3590
  147SOL     OW  439   2.178   2.266   1.709 -0.4331  0.8635 -0.5224
  147SOL    HW1  440   2.192   2.174   1.751  0.1592  1.8857  0.8343
  147SOL    HW2  441   2.163   2.337   1.776  1.0219  0.0819 -3.1886
  148SOL     OW  442   2.171   0.380   0.587  0.3017 -0.3672  0.6321
  148SOL    HW1  443   2.138   0.466   0.543  1.0055 -0.5259  1.9053
  148SOL    HW2  444   2.171   0.292   0.533  0.7875 -1.7661  4.0085
  149SOL     OW  445   0.839   1.583   2.541 -0.1507  0.1910  0.6253
  149SOL    HW1  446   0.796   1.634   2.471 -0.5335 -1.2980 -1.0363
  149SOL    HW2  447   0.885   1.501   2.499  0.9592  0.3471 -1.1924
  150SOL     OW  448   3.057   0.038   2.848  0.4664 -0.2570 -0.2222
  150SOL    HW1  449   3.075   0.135   2.825 -0.3904  0.3316 -0.4547
  150SOL    HW2  450   3.139  -0.007   2.882 -1.3434  1.6632 -0.9063
  151SOL     OW  451   0.922   0.480   1.572 -0.3254 -0.7893 -0.3855
  151SOL    HW1  452   0.899   0.406   1.638 -3.2555 -1.5329  1.4985
  151SOL    HW2  453   1.023   0.484   1.539 -0.2077  0.4426 -1.2385
  152SOL     OW  454   1.712   1.201   0.292  0.6441 -0.4250 -0.2228
  152SOL    HW1  455   1.712   1.284   0.352 -2.3335 -0.6555  2.1907
  152SOL    HW2  456   1.774   1.209   0.213 -0.5003 -0.2744 -0.3793
  153SOL     OW  457   0.499   2.798   0.745 -0.0858  0.1945  0.0402
  153SOL    HW1  458   0.573   2.738   0.776  0.9986  1.3007 -0.5256
  153SOL    HW2  459   0.441   2.821   0.824  0.4463 -0.0218  1.4389
  154SOL     OW  460   1.398   0.977   3.088 -0.1173  0.0698  0.2251
  154SOL    HW1  461   1.331   0.975   3.167  1.4352  1.1675  3.8200
  154SOL    HW2  462   1.363   1.041   3.016  1.7403 -0.0160 -2.6233
  155SOL     OW  463   0.073   1.325   1.314 -0.4131  0.1549 -0.6633
  155SOL    HW1  464   0.166   1.363   1.329 -1.2172 -2.2286 -2.3964
  155SOL    HW2  465   0.066   1.226   1.308 -2.2860  2.4343 -0.1531
  156SOL     OW  466   2.902   2.547   1.094 -0.1396 -0.5720 -0.4455
  156SOL    HW1  467   2.815   2.534   1.149 -2.9509 -1.0250 -2.1538
  156SOL    HW2  468   2.880   2.586   0.997  0.4870 -0.1740 -0.7973
  157SOL     OW  469   2.833   0.760   0.447 -0.0351  0.5886  0.0447
  157SOL    HW1  470   2.777   0.773   0.363 -0.0359  1.0700 -0.9639
  157SOL    HW2  471   2.783   0.781   0.535  2.8459  1.7379 -0.4733
  158SOL     OW  472   2.519   0.648   1.674 -0.1497  0.5600  0.2940
  158SOL    HW1  473   2.603   0.628   1.626 -0.3090 -0.8749  0.3630
  158SOL    HW2  474   2.436   0.618   1.622 -1.0705 -0.1151 -0.5410
  159SOL     OW  475   0.187   0.480   1.185 -0.5845 -0.1431  1.0495
  159SOL    HW1  476   0.225   0.398   1.238  2.3219 -4.0145  1.6331
  159SOL    HW2  477   0.205   0.481   1.085 -0.3258  0.4740  2.5846
  160SOL     OW  478   0.677   0.930   1.088  0.2713 -0.0087 -0.1429
  160SOL    HW1  479   0.691   0.837   1.117  4.5448  1.1887 -1.6310
  160SOL    HW2  480   0.733   0.933   1.002 -1.9154 -0.1107 -1.8504
  161SOL     OW  481   1.957   0.182   0.019  0.4093  0.0046 -0.3467
  161SOL    HW1  482   1.868   0.202   0.063  0.9719  0.0716  0.4745
  161SOL    HW2  483   1.974   0.261  -0.041  0.5441 -2.0344 -0.6919
  162SOL     OW  484   0.981   1.193   0.349  0.1093 -0.0522 -0.3665
  162SOL    HW1  485   0.963   1.191   0.250  2.7638 -1.3558  1.1902
  162SOL    HW2  486   0.891   1.181   0.399  1.1475 -0.1242  1.7210
  163SOL     OW  487   1.550   0.867   2.697  0.1600  0.4070  0.5148
  163SOL    HW1  488   1.576   0.772   2.713  1.7854  0.6358 -1.7568
  163SOL    HW2  489   1.456   0.881   2.655 -3.0819  0.5500  0.8122
  164SOL     OW  490   2.626   0.326   0.473  0.3677 -0.2089  0.6496
  164SOL    HW1  491   2.606   0.378   0.558 -0.3103  0.5943  1.0906
  164SOL    HW2  492   2.606   0.223   0.493 -1.0382 -0.1925  1.3973
  165SOL     OW  493   2.001   0.266   2.712 -0.2968 -0.2529  0.2764
  165SOL    HW1  494   2.011   0.332   2.788 -1.2086  0.8850 -1.1396
  165SOL    HW2  495   1.935   0.196   2.736 -1.2663  2.9910  0.5303
  166SOL     OW  496   0.716   1.763   0.380  0.1779  0.2038 -0.0230
  166SOL    HW1  497   0.628   1.785   0.425  0.6146 -1.3603  0.2106
  166SOL    HW2  498   0.739   1.841   0.325  0.0928 -2.0299 -1.6412
  167SOL     OW  499   2.649   1.091   2.227 -0.1265 -0.2991 -0.4559
  167SOL    HW1  500   2.695   1.096   2.317 -1.1040  0.5998  1.9839
  167SOL    HW2  501   2.713   1.119   2.154 -0.5070 -2.3212  2.3346
  168SOL     OW  502   2.400   1.693   2.602  0.0060  0.3089 -0.0200
  168SOL    HW1  503   2.386   1.766   2.667  3.9095 -0.4939 -3.9545
  168SOL    HW2  504   2.400   1.599   2.645  0.4665 -2.4586  1.8092
  169SOL     OW  505   0.064   1.448   0.832 -0.1226  0.2220  0.4094
  169SOL    HW1  506   0.136   1.447   0.759 -0.0795  0.9619  1.3048
  169SOL    HW2  507   0.074   1.367   0.899  2.8753 -1.4245  0.6841
  170SOL     OW  508   1.994   2.378   2.574 -0.3901  0.2953  0.9990
  170SOL    HW1  509   1.896   2.376   2.546  0.6487  0.6308  1.1278
  170SOL    HW2  510   2.045   2.430   2.498 -0.6015  2.4496 -0.9290
  171SOL     OW  511   2.657   0.631   2.272 -0.0470 -0.1220 -0.0650
  171SOL    HW1  512   2.728   0.670   2.207 -1.1658 -1.0103 -0.8867
  171SOL    HW2  513   2.671   0.528   2.281 -0.8547 -4.6118 -2.4857
  172SOL     OW  514   0.523   0.361   1.347 -0.1111 -0.8457 -0.4802
  172SOL    HW1  515   0.526   0.457   1.380 -0.8010  1.1888 -0.4128
  172SOL    HW2  516   0.430   0.331   1.316  0.2595  1.7916 -1.5553
  173SOL     OW  517   2.872   1.398   0.830 -0.2952  0.2986  0.4304
  173SOL    HW1  518   2.971   1.421   0.808  0.4245 -0.5482 -1.0332
  173SOL    HW2  519   2.803   1.431   0.764 -0.3833 -1.1110 -1.5253
  174SOL     OW  520   2.948   2.944   1.941 -0.3978 -0.4751  1.2415
  174SOL    HW1  521   2.917   2.930   2.035  1.5796 -2.7663 -1.0301
  174SOL    HW2  522   2.914   2.868   1.886 -2.3908  0.2544  0.7430
  175SOL     OW  523   2.744   0.135   1.655 -0.2330  0.5028 -0.4993
  175SOL    HW1  524   2.756   0.202   1.583  2.3732 -1.3662  2.2627
  175SOL    HW2  525   2.654   0.094   1.656 -0.6103 -0.3211 -0.3820
  176SOL     OW  526   2.906   1.505   2.175  0.0859 -0.3728  0.7873
  176SOL    HW1  527   2.884   1.512   2.075  0.0133 -0.7306 -1.6569
  176SOL    HW2  528   2.823   1.473   2.232 -0.9633 -0.5041 -0.4583
  177SOL     OW  529   2.215   2.353   0.773 -0.2702 -0.0619 -0.2172
  177SOL    HW1  530   2.262   2.349   0.861 -0.7067  1.6438 -2.9884
  177SOL    HW2  531   2.271   2.304   0.705 -2.4020  1.4853 -3.1343
  178SOL     OW  532   1.661   0.188   2.669  0.0738  0.3387 -0.0217
  178SOL    HW1  533   1.679   0.141   2.581  1.2554  1.7938 -0.0367
  178SOL    HW2  534   1.732   0.158   2.740 -0.4119  0.1274  3.5450
  179SOL     OW  535   1.199   2.196   0.596  0.7294  0.2396  0.0637
  179SOL    HW1  536   1.133   2.260   0.640  0.7231  0.0882 -1.1040
  179SOL    HW2  537   1.155   2.142   0.519 -3.7638 -2.2486 -1.8817
  180SOL     OW  538   2.112   0.746   2.638 -0.4758  0.7870 -0.4217
  180SOL    HW1  539   2.076   0.835   2.674 -3.6962 -1.1363  0.6838
  180SOL    HW2  540   2.158   0.754   2.551  1.5523  0.6025  0.3199
  181SOL     OW  541   0.130   2.828   2.074 -0.0510 -0.3971  1.2704
  181SOL    HW1  542   0.223   2.845   2.108  2.6572 -1.8189  2.0828
  181SOL    HW2  543   0.112   2.872   1.984  0.8622 -0.2594  1.2090
  182SOL     OW  544   2.069   1.227   2.795 -0.1640 -0.1682  0.3600
  182SOL    HW1  545   2.034   1.165   2.725 -0.3016  1.9290  1.6817
  182SOL    HW2  546   2.009   1.307   2.800  1.2906  0.4332 -1.1362
  183SOL     OW  547   1.827   0.079   2.840  0.3772  0.3072  0.3895
  183SOL    HW1  548   1.816   0.075   2.941 -0.9696 -2.0699 -0.0530
  183SOL    HW2  549   1.784  -0.010   2.808 -0.1229  1.0918  0.2149
  184SOL     OW  550   1.407   1.918   3.014 -0.1367 -0.0986  0.6168
  184SOL    HW1  551   1.475   1.866   3.068  1.6602 -0.2251  0.3471
  184SOL    HW2  552   1.460   1.968   2.941 -1.6600  0.7340 -0.9019
  185SOL     OW  553   1.902   0.860   1.429 -0.0431  0.3276  0.1520
  185SOL    HW1  554   1.948   0.803   1.361 -0.7070 -0.5216 -2.0106
  185SOL    HW2  555   1.968   0.904   1.492  1.5470 -1.6730 -0.8177
  186SOL     OW  556   2.544   2.602   0.457  0.4829 -0.5724  0.4510
  186SOL    HW1  557   2.505   2.643   0.372  0.7879  0.2793 -0.5304
  186SOL    HW2  558   2.497   2.641   0.538  3.2351 -1.6751 -0.8927
  187SOL     OW  559   2.633   2.296   1.808 -0.1697  0.8422  0.1106
  187SOL    HW1  560   2.650   2.401   1.809  2.1656  3.2332 -0.8991
  187SOL    HW2  561   2.614   2.273   1.713 -0.0005  2.8994  2.7761
  188SOL     OW  562   1.773   2.676   1.431 -0.3694 -0.0549  0.2243
  188SOL    HW1  563   1.863   2.639   1.406 -0.3591  1.5286  0.3016
  188SOL    HW2  564   1.772   2.726   1.519 -1.3346  2.3458 -1.4353
  189SOL     OW  565   0.566   0.783   3.059  0.6371 -0.7446 -0.7575
  189SOL    HW1  566   0.503   0.732   3.117  3.1116  0.3676 -0.4063
  189SOL    HW2  567   0.656   0.782   3.105  1.4243  0.5302 -1.3831
  190SOL     OW  568   1.420   2.308   1.290  0.2513  0.2037  0.1974
  190SOL    HW1  569   1.341   2.373   1.286 -1.0845 -3.0378  2.3158
  190SOL    HW2  570   1.503   2.351   1.326 -0.0282  0.7738  0.9419
  191SOL     OW  571   1.521   0.050   0.621  0.4508  0.4735 -0.6501
  191SOL    HW1  572   1.560   0.001   0.540 -0.5032  1.7982  0.7404
  191SOL    HW2  573   1.426   0.089   0.604 -0.8005  0.2964  0.0013
  192SOL     OW  574   0.111   0.692   1.813 -0.0251 -0.4588 -0.2598
  192SOL    HW1  575   0.050   0.770   1.837  3.4092 -0.5229  1.0605
  192SOL    HW2  576   0.117   0.685   1.710  0.2726  0.9369  0.0323
  193SOL     OW  577   2.955   1.989   1.720  0.4787  0.1352 -0.1413
  193SOL    HW1  578   3.003   2.009   1.634  0.3886  1.6510 -1.3016
  193SOL    HW2  579   2.938   2.076   1.768 -0.8850  0.6656 -2.1098
  194SOL     OW  580   2.237   2.644   0.264  0.0189 -0.6703  0.1049
  194SOL    HW1  581   2.296   2.723   0.298 -0.1329 -1.1515 -0.1503
  194SOL    HW2  582   2.271   2.557   0.305 -0.3951 -0.5041 -2.4397
  195SOL     OW  583   2.301   0.546   1.523 -0.7077  0.8300  0.0514
  195SOL    HW1  584   2.205   0.567   1.557 -1.5648  0.4463  1.3487
  195SOL    HW2  585   2.322   0.579   1.430 -2.2588  1.2299 -0.7727
  196SOL     OW  586   2.695   3.074   1.030  0.2043 -0.3424 -0.1449
  196SOL    HW1  587   2.755   3.015   0.972  1.9873 -0.7125 -0.7927
  196SOL    HW2  588   2.622   3.114   0.970 -3.4871  1.6880 -0.5729
  197SOL     OW  589   2.558   1.684   0.041 -0.0153  0.1632  0.1480
  197SOL    HW1  590   2.462   1.647   0.035 -0.3108 -0.1736  1.1111
  197SOL    HW2  591   2.576   1.745  -0.040 -0.6024  1.2835 -2.1220
  198SOL     OW  592   1.968   1.887   0.891 -0.4808 -0.2664 -0.1152
  198SOL    HW1  593   2.055   1.891   0.837 -0.5125  1.4046  1.3779
  198SOL    HW2  594   1.934   1.793   0.919 -1.8786 -0.4558  0.0665
  199SOL     OW  595   0.757   2.919   0.008 -0.2154 -0.1953 -0.4065
  199SOL    HW1  596   0.850   2.883   0.027  1.5225 -0.8486  1.5113
  199SOL    HW2  597   0.748   3.013   0.049  0.3294 -0.0503 -2.0543
  200SOL     OW  598   2.664   2.079   0.797 -0.2533  0.6471 -1.1102
  200SOL    HW1  599   2.583   2.014   0.818 -1.3167 -2.4189 -2.6602
  200SOL    HW2  600   2.756   2.027   0.815  2.5174 -0.2465  2.7262
  201SOL     OW  601   1.285   2.878   2.048  0.1449  0.4349  0.5647
  201SOL    HW1  602   1.291   2.857   2.149  1.6108  2.7963 -1.5100
  201SOL    HW2  603   1.251   2.799   1.995  0.4818 -0.1565  2.3390
  202SOL     OW  604   1.055   1.092   0.864  0.4286 -0.1177  0.0039
  202SOL    HW1  605   1.000   1.171   0.900 -2.6191 -2.5424  0.1379
  202SOL    HW2  606   1.085   1.097   0.765  1.1826 -0.2406 -1.7259
  203SOL     OW  607   0.097   2.575   0.123 -0.1456  0.4807  0.3314
  203SOL    HW1  608   0.118   2.515   0.047 -1.4741  1.0780 -1.9084
  203SOL    HW2  609   0.045   2.525   0.198 -1.0355  2.2056  1.1258
  204SOL     OW  610   1.136   0.460   2.319 -0.0330 -0.8429  0.3455
  204SOL    HW1  611   1.204   0.532   2.297  2.8979  1.8869 -0.8319
  204SOL    HW2  612   1.046   0.480   2.273  1.0357  0.3013 -1.0065
  205SOL     OW  613   2.885   2.186   1.872  0.0137  0.2589 -0.4319
  205SOL    HW1  614   2.887   2.190   1.975 -0.3806  2.2760  0.6238
  205SOL    HW2  615   2.799   2.222   1.834  1.5259 -0.2337 -0.1335
  206SOL     OW  616   2.156   2.652   1.468  0.3437  0.0948 -0.2376
  206SOL    HW1  617   2.146   2.551   1.474 -2.2036 -0.6267 -1.3775
  206SOL    HW2  618   2.183   2.694   1.559  0.1436  0.1175 -1.3860
  207SOL     OW  619   1.393   0.121   0.888  0.2206 -0.5255  0.4927
  207SOL    HW1  620   1.441   0.182   0.820 -1.1767 -0.7729 -3.8604
  207SOL    HW2  621   1.325   0.179   0.943  0.1112 -1.0984 -1.0323
  208SOL     OW  622   0.291   0.652   2.039 -0.2327  0.5622 -0.0509
  208SOL    HW1  623   0.338   0.721   2.098  2.7932 -0.5113 -0.5584
  208SOL    HW2  624   0.240   0.694   1.962  1.5508 -1.2607  2.0560
  209SOL     OW  625   1.174   0.560   2.564  0.2596  0.5580 -0.0148
  209SOL    HW1  626   1.172   0.510   2.474 -0.9587  2.9175  0.6319
  209SOL    HW2  627   1.113   0.515   2.635 -0.2939 -0.2165 -1.0288
  210SOL     OW  628   1.244   0.495   0.170 -0.1127  0.6704 -0.1332
  210SOL    HW1  629   1.156   0.536   0.197  0.9408 -1.1302 -0.7770
  210SOL    HW2  630   1.228   0.481   0.070 -0.9573  0.5844  2.0053
  211SOL     OW  631   1.268   2.247   2.888  0.0017  0.1651 -0.6467
  211SOL    HW1  632   1.198   2.296   2.835 -0.6368 -0.4944 -0.8171
  211SOL    HW2  633   1.358   2.269   2.861 -3.0819  0.7679  1.0557
  212SOL     OW  634   2.489   0.265   3.083 -0.0074 -0.1492 -0.0820
  212SOL    HW1  635   2.491   0.183   3.022 -0.8866  1.4856 -1.7578
  212SOL    HW2  636   2.414   0.258   3.151 -1.5658 -0.6019  0.5311
  213SOL     OW  637   2.017   1.448   0.839  0.1463  0.0021 -0.0528
  213SOL    HW1  638   2.117   1.444   0.858  0.0994  2.4780  0.4269
  213SOL    HW2  639   1.983   1.350   0.856  0.5638 -1.7870  1.0088
  214SOL     OW  640   0.015   1.870   0.667  0.3179  0.3873 -0.0705
  214SOL    HW1  641  -0.001   1.794   0.598  0.3154  1.1429 -2.7990
  214SOL    HW2  642   0.036   1.828   0.760  1.0526  0.1525  1.2903
  215SOL     OW  643   1.613   2.787   1.237  0.3216  0.4732  0.2435
  215SOL    HW1  644   1.650   2.744   1.328 -3.2663  0.7624  5.2014
  215SOL    HW2  645   1.521   2.747   1.213 -1.6111  0.7697 -1.1876
  216SOL     OW  646   2.402   0.981   2.144  0.0071  0.5831  0.1204
  216SOL    HW1  647   2.393   0.877   2.153 -3.1109  0.6481 -0.7583
  216SOL    HW2  648   2.497   1.013   2.145 -1.4149  1.3262 -0.6878
  217SOL     OW  649   1.842   1.335   1.494 -0.1896 -0.1532  0.2450
  217SOL    HW1  650   1.785   1.416   1.507 -1.1905 -0.0522 -1.0226
  217SOL    HW2  651   1.923   1.350   1.434 -1.3412 -0.4568  0.4916
  218SOL     OW  652   2.606   0.416   1.812  0.4565  0.1742 -0.1531
  218SOL    HW1  653   2.576   0.496   1.754 -0.9269 -0.1916 -2.6462
  218SOL    HW2  654   2.702   0.394   1.799 -1.8036  0.2044  0.5669
  219SOL     OW  655   1.290   0.144   0.025 -0.1029 -0.1480  0.1532
  219SOL    HW1  656   1.280   0.213  -0.049 -0.4227 -1.4393 -1.7888
  219SOL    HW2  657   1.212   0.134   0.092 -1.3879 -2.4649  0.2478
  220SOL     OW  658   0.646   2.364   0.467 -0.1915  0.8221 -0.7267
  220SOL    HW1  659   0.586   2.362   0.553  0.1747  1.3000  1.5872
  220SOL    HW2  660   0.746   2.345   0.484  0.7326 -0.6604 -0.7766
  221SOL     OW  661   1.688   0.384   1.237 -0.6314 -0.3947  0.3070
  221SOL    HW1  662   1.749   0.339   1.175  1.5139  0.3854  1.5478
  221SOL    HW2  663   1.731   0.412   1.325  0.4073 -1.6569 -0.2255
  222SOL     OW  664   0.071   2.265   1.835 -0.2443  0.9136  0.1938
  222SOL    HW1  665   0.093   2.298   1.741 -0.4762 -0.8825  0.2102
  222SOL    HW2  666  -0.024   2.235   1.845  0.9143  0.1736  0.3088
  223SOL     OW  667   1.365   0.815   2.107 -0.6595  0.2281  0.0914
  223SOL    HW1  668   1.349   0.899   2.053  0.2736  0.3568  0.3144
  223SOL    HW2  669   1.369   0.831   2.206 -1.1945 -0.4887  0.3640
  224SOL     OW  670   1.048   2.929   3.050  0.5240 -0.5989  0.1159
  224SOL    HW1  671   1.149   2.930   3.046  0.6164  1.0369  1.1351
  224SOL    HW2  672   1.006   3.016   3.020  2.2815 -0.8075  3.2813
  225SOL     OW  673   1.579   2.763   0.565  0.2487 -0.6857  0.2696
  225SOL    HW1  674   1.479   2.742   0.540 -6.0389  0.2543  0.2981
  225SOL    HW2  675   1.596   2.725   0.657 -3.4469 -2.8146 -3.2361
  226SOL     OW  676   2.635   2.945   1.868 -0.7244  0.6684  0.7902
  226SOL    HW1  677   2.624   2.864   1.930  1.4148  1.5634  0.7369
  226SOL    HW2  678   2.647   2.922   1.770 -2.6882 -0.9948  2.4522
  227SOL     OW  679   2.939   0.377   0.079 -0.3441 -0.7284 -1.0157
  227SOL    HW1  680   2.871   0.319   0.129  1.1250 -0.1251  1.3279
  227SOL    HW2  681   2.967   0.328  -0.004 -0.8526  1.5718  2.4403
  228SOL     OW  682   1.061   0.313   2.672 -0.0696  0.3330 -0.0053
  228SOL    HW1  683   1.133   0.259   2.627  0.8386 -0.7095 -0.3519
  228SOL    HW2  684   0.991   0.250   2.718  1.6638  1.0663  4.9357
  229SOL     OW  685   1.521   0.348   0.790 -0.5538  0.3430  0.1982
  229SOL    HW1  686   1.608   0.297   0.783 -0.4122 -0.0469  0.5257
  229SOL    HW2  687   1.497   0.385   0.700  1.5031  1.2996  0.4673
  230SOL     OW  688   2.740   0.671   0.171 -0.0869  0.5508 -0.3892
  230SOL    HW1  689   2.720   0.587   0.116 -0.3125 -0.2067  0.4245
  230SOL    HW2  690   2.661   0.694   0.225  0.7088  1.6783 -0.8485
  231SOL     OW  691   2.915   1.328   0.226 -0.4178 -0.4910  0.1394
  231SOL    HW1  692   2.943   1.257   0.292 -2.3827  1.0075 -1.0282
  231SOL    HW2  693   2.816   1.346   0.223  1.2109 -1.7768 -0.6565
  232SOL     OW  694   1.446   0.726   1.284  0.3784  0.6066 -0.3059
  232SOL    HW1  695   1.392   0.642   1.251  0.8501 -0.3573  0.5444
  232SOL    HW2  696   1.480   0.711   1.380  0.1118 -0.0708  0.7692
  233SOL     OW  697   1.648   2.437   1.444  0.0787  0.2857  0.0034
  233SOL    HW1  698   1.698   2.528   1.434 -0.9164  1.5300  1.1417
  233SOL    HW2  699   1.667   2.392   1.534 -0.7699  0.3207 -0.9754
  234SOL     OW  700   2.960   1.511   1.243 -0.0288  0.3275 -0.2300
  234SOL    HW1  701   2.920   1.537   1.332  1.7592  0.4469 -1.0686
  234SOL    HW2  702   3.024   1.432   1.249  1.1222 -1.0785 -1.2984
  235SOL     OW  703   0.813   1.761   2.334  0.6123  0.3799 -0.0828
  235SOL    HW1  704   0.867   1.826   2.270  2.6439  1.3055 -0.8145
  235SOL    HW2  705   0.722   1.804   2.351 -0.6063 -1.6614  1.2958
  236SOL     OW  706   1.917   1.335   0.567 -0.1417  0.1092 -0.2173
  236SOL    HW1  707   1.936   1.232   0.568 -0.4324  0.7859 -1.2199
  236SOL    HW2  708   1.907   1.365   0.664  1.1559 -4.2053  0.7434
  237SOL     OW  709   2.122   1.690   1.241 -0.1069 -0.1745 -0.1396
  237SOL    HW1  710   2.031   1.701   1.282 -1.3818 -1.0779  0.4997
  237SOL    HW2  711   2.132   1.592   1.207 -2.8493 -1.3448  0.1370
  238SOL     OW  712   3.058   0.914   1.837 -0.4619  0.1819  0.3047
  238SOL    HW1  713   2.956   0.909   1.839  2.4910  1.3147  2.2812
  238SOL    HW2  714   3.094   0.961   1.754 -0.8298 -0.7105  2.3593
  239SOL     OW  715   1.376   1.555   2.095  0.0103  0.5400 -0.4115
  239SOL    HW1  716   1.381   1.491   2.173  0.7327  0.2363 -1.0648
  239SOL    HW2  717   1.452   1.624   2.107 -0.2630  2.1046 -1.4301
  240SOL     OW  718   0.342   2.935   2.203 -0.8087 -0.4010 -0.2163
  240SOL    HW1  719   0.385   2.849   2.243 -1.4714 -3.1365  2.0533
  240SOL    HW2  720   0.399   2.982   2.131 -0.9415  2.1854  0.2491
  241SOL     OW  721   1.731   0.176   0.773 -0.0715  0.0314 -0.4663
  241SOL    HW1  722   1.679   0.105   0.717  0.8492 -0.9484  1.4269
  241SOL    HW2  723   1.767   0.141   0.863  0.2553  0.1971  1.1861
  242SOL     OW  724   0.632   1.777   2.007 -0.1570 -0.0308  0.5173
  242SOL    HW1  725   0.630   1.810   1.909  0.5024 -0.7743  0.0061
  242SOL    HW2  726   0.718   1.811   2.045  0.6107 -1.4709  1.3781
  243SOL     OW  727   1.131   2.375   0.947  0.6843 -0.1864  0.4161
  243SOL    HW1  728   1.103   2.457   1.003  2.2130  1.5441 -4.0714
  243SOL    HW2  729   1.064   2.301   0.958  2.3351 -0.0603 -0.3493
  244SOL     OW  730   2.027   2.904   0.711 -0.1628 -0.4530  0.4080
  244SOL    HW1  731   1.945   2.966   0.697 -0.4667 -0.2921  0.5226
  244SOL    HW2  732   2.093   2.936   0.640  0.3533 -0.9838  0.7720
  245SOL     OW  733   2.478   0.439   0.273  0.3103  0.0292 -0.4498
  245SOL    HW1  734   2.485   0.538   0.275  0.3647 -1.9483 -2.6201
  245SOL    HW2  735   2.545   0.395   0.337 -0.3426 -2.3837  0.8633
  246SOL     OW  736   1.696   0.946   0.392  0.3059  0.4265  0.3110
  246SOL    HW1  737   1.721   1.031   0.342  3.0668  0.3204 -1.8941
  246SOL    HW2  738   1.692   0.862   0.331 -2.8972 -1.9152  2.6173
  247SOL     OW  739   1.088   2.448   0.677  0.5449  0.6556  0.5881
  247SOL    HW1  740   1.102   2.544   0.659 -1.3414  1.8095  0.5096
  247SOL    HW2  741   1.086   2.434   0.781 -0.7590 -0.7280 -0.0444
  248SOL     OW  742   1.279   0.919   1.675  0.1915  0.1313 -0.2922
  248SOL    HW1  743   1.324   0.914   1.588 -0.5068  1.7006  0.9718
  248SOL    HW2  744   1.345   0.922   1.754  1.5914  0.7663 -1.0912
  249SOL     OW  745   1.221   2.191   1.573 -0.0545 -0.3141  0.1546
  249SOL    HW1  746   1.212   2.094   1.604  0.1215  0.5292  2.8979
  249SOL    HW2  747   1.129   2.227   1.563  2.6618 -1.6146 -0.7788
  250SOL     OW  748   1.735   0.117   2.421  0.1662  0.2039 -0.0924
  250SOL    HW1  749   1.760   0.211   2.389  0.2825 -0.8456  0.4903
  250SOL    HW2  750   1.679   0.074   2.346 -1.7980  0.3649 -1.9666
  251SOL     OW  751   2.874   0.412   0.419 -0.3376 -0.3866 -0.0990
  251SOL    HW1  752   2.887   0.488   0.355  1.5513 -2.3348 -2.8039
  251SOL    HW2  753   2.778   0.390   0.447 -2.5722 -0.6114  3.1997
  252SOL     OW  754   1.382   2.940   1.423 -0.6407 -0.1070 -0.5712
  252SOL    HW1  755   1.431   2.878   1.484 -2.9328  1.1844  0.9373
  252SOL    HW2  756   1.322   2.877   1.372  1.1198 -1.8407  2.4913
  253SOL     OW  757   1.446   2.583   1.043  0.1182  0.2001  0.2514
  253SOL    HW1  758   1.522   2.639   1.006 -1.1671  1.4600  0.8308
  253SOL    HW2  759   1.459   2.482   1.029 -0.4257  0.2754  0.7510
  254SOL     OW  760   1.546   1.533   0.221 -0.2976 -0.3364  0.0534
  254SOL    HW1  761   1.452   1.554   0.252 -3.8016  0.0976 -2.0516
  254SOL    HW2  762   1.598   1.493   0.294 -1.6287  0.2138 -1.8586
  255SOL     OW  763   1.902   0.003   0.970  0.0561  0.4049 -0.2696
  255SOL    HW1  764   1.841  -0.052   1.032 -2.2746 -2.5235  0.0406
  255SOL    HW2  765   1.925  -0.043   0.884  0.8180  0.9083  0.8360
  256SOL     OW  766   2.701   1.485   0.639  0.2228  0.2206 -0.2553
  256SOL    HW1  767   2.687   1.391   0.600 -2.9226 -0.8033 -0.9765
  256SOL    HW2  768   2.735   1.544   0.565 -5.1891  0.5124  0.4689
  257SOL     OW  769   2.313   1.451   2.704 -0.1250  0.6219  0.6602
  257SOL    HW1  770   2.376   1.370   2.722 -0.0525 -2.1185 -0.5072
  257SOL    HW2  771   2.234   1.428   2.638 -2.4030  1.6853 -4.1752
  258SOL     OW  772   0.978   2.037   2.319 -0.2076  0.3683 -0.5912
  258SOL    HW1  773   1.026   1.948   2.310 -0.1225  1.8444 -2.0545
  258SOL    HW2  774   0.915   2.026   2.401  0.9175  0.8261 -1.0855
  259SOL     OW  775   1.876   1.692   1.400  0.3045  0.0072  0.0384
  259SOL    HW1  776   1.837   1.781   1.430  1.6967  0.8853 -0.2366
  259SOL    HW2  777   1.826   1.660   1.314  0.4692  1.7899 -0.1507
  260SOL     OW  778   0.008   2.091   2.550  0.3946  0.5977 -0.1601
  260SOL    HW1  779   0.107   2.074   2.521  0.2940  0.0732 -0.2765
  260SOL    HW2  780   0.008   2.164   2.621 -0.6730 -0.7863 -1.5755
  261SOL     OW  781   0.584   0.744   2.316  0.5368 -0.9923  0.3875
  261SOL    HW1  782   0.510   0.677   2.333  0.6901  1.6953  0.4923
  261SOL    HW2  783   0.626   0.765   2.407  1.7944 -1.2782  0.0164
  262SOL     OW  784   0.220   0.400   0.062 -1.0786 -0.1768  0.0609
  262SOL    HW1  785   0.264   0.307   0.091  1.9369 -1.4476  2.0013
  262SOL    HW2  786   0.159   0.434   0.133 -0.3171 -0.6946  0.8202
  263SOL     OW  787   2.113   1.699   2.114  0.9618 -0.5143  0.2913
  263SOL    HW1  788   2.115   1.789   2.161  2.2365  1.2341  2.8639
  263SOL    HW2  789   2.199   1.653   2.143 -2.2539 -1.6539 -1.2551
  264SOL     OW  790   0.211   0.806   2.425 -0.0122  0.4559 -0.1320
  264SOL    HW1  791   0.258   0.895   2.434 -3.7966 -1.8788 -3.4606
  264SOL    HW2  792   0.270   0.735   2.386 -1.4368 -2.2468 -2.0722
  265SOL     OW  793   1.944   2.311   0.743  0.4305  0.0993  0.0425
  265SOL    HW1  794   2.039   2.329   0.759 -3.9359 -0.6502  0.3171
  265SOL    HW2  795   1.890   2.391   0.775  0.5055 -1.5754 -2.1334
  266SOL     OW  796   2.400   0.215   1.794  0.0646  0.5448 -0.5439
  266SOL    HW1  797   2.384   0.186   1.893 -0.9216 -1.1107  0.0323
  266SOL    HW2  798   2.465   0.293   1.802  1.9337 -1.2655 -1.9517
  267SOL     OW  799   0.747   0.114   0.994 -0.2914  0.2877  0.2857
  267SOL    HW1  800   0.727   0.021   0.959  2.3857 -2.7402 -0.4783
  267SOL    HW2  801   0.814   0.154   0.925  0.4257  2.8507 -0.8532
  268SOL     OW  802   2.139   1.247   0.180 -0.1210 -0.2881  0.1316
  268SOL    HW1  803   2.147   1.156   0.222  1.4687  1.2994 -0.5644
  268SOL    HW2  804   2.131   1.325   0.248 -1.0304  0.4107  2.3779
  269SOL     OW  805   2.629   1.375   0.239 -0.7179  0.0147  0.5113
  269SOL    HW1  806   2.636   1.315   0.323 -0.1188 -1.0506  0.2607
  269SOL    HW2  807   2.554   1.342   0.176  0.6321  0.2460 -0.3495
  270SOL     OW  808   0.814   1.567   0.014 -0.2227 -0.2410  0.5297
  270SOL    HW1  809   0.782   1.653  -0.030 -0.3291 -0.2225 -0.2417
  270SOL    HW2  810   0.803   1.488  -0.050 -0.9809 -1.9934 -1.0048
  271SOL     OW  811   1.322   1.689   0.994  0.5670 -0.1934  0.3417
  271SOL    HW1  812   1.281   1.757   1.055  2.5473  0.7457  1.8608
  271SOL    HW2  813   1.420   1.703   0.988 -1.9525  1.6644  0.4596
  272SOL     OW  814   2.828   0.304   2.872  0.1328 -0.2825 -0.0164
  272SOL    HW1  815   2.779   0.288   2.958 -0.4774  0.2896 -1.8405
  272SOL    HW2  816   2.862   0.401   2.879  0.2620 -1.0002 -2.2481
  273SOL     OW  817   1.214   0.251   1.069 -0.3362  1.1345 -0.1792
  273SOL    HW1  818   1.205   0.164   1.125  1.4394  1.8198  1.9452
  273SOL    HW2  819   1.278   0.321   1.105  0.0148  1.1936  2.0009
  274SOL     OW  820   0.969   0.089   3.023  0.0855 -0.8094 -0.1354
  274SOL    HW1  821   1.035   0.158   3.011 -2.7395 -1.8893  1.8108
  274SOL    HW2  822   0.891   0.129   3.075 -1.7294 -2.0081 -0.1392
  275SOL     OW  823   2.669   1.909   1.651 -0.0055 -0.1086 -0.3630
  275SOL    HW1  824   2.581   1.960   1.654 -0.3926 -0.2469  0.9423
  275SOL    HW2  825   2.729   1.939   1.723 -1.0053  0.2511  1.0206
  276SOL     OW  826   0.908   2.301   0.519  0.8196  0.5044  0.5069
  276SOL    HW1  827   0.897   2.222   0.578 -0.9567 -0.0003 -0.0583
  276SOL    HW2  828   0.973   2.363   0.568  0.3383  0.7118 -1.3270
  277SOL     OW  829   0.287   0.255   1.310  0.0408  0.3276 -0.3288
  277SOL    HW1  830   0.304   0.169   1.258 -0.1360  0.9515  0.4035
  277SOL    HW2  831   0.257   0.230   1.406  0.1078 -1.5268 -1.3140
  278SOL     OW  832   1.649   2.663   2.501 -0.1137  0.1826  0.0012
  278SOL    HW1  833   1.617   2.748   2.454  1.0627  3.7139  0.6868
  278SOL    HW2  834   1.655   2.583   2.434  1.7322 -1.7495  0.0329
  279SOL     OW  835   1.170   0.619   1.708 -0.3266 -0.5114  0.0054
  279SOL    HW1  836   1.167   0.661   1.615 -1.1647  1.0030  0.7898
  279SOL    HW2  837   1.153   0.684   1.783 -0.1068 -1.7264  1.4162
  280SOL     OW  838   2.423   1.196   1.562  0.2851  0.3086 -0.0416
  280SOL    HW1  839   2.367   1.233   1.643  1.6632 -1.1303  3.4859
  280SOL    HW2  840   2.489   1.266   1.537 -0.6966 -1.3815 -0.3747
  281SOL     OW  841   0.678   0.263   2.439  0.0057 -0.6961  0.0498
  281SOL    HW1  842   0.693   0.362   2.464 -0.6080 -1.6756 -0.5625
  281SOL    HW2  843   0.647   0.266   2.340 -2.0702  1.5456  0.4094
  282SOL     OW  844   2.614   0.032   2.084  0.1997  0.2742  0.0432
  282SOL    HW1  845   2.528   0.088   2.090 -0.0052  2.0930 -0.6994
  282SOL    HW2  846   2.630  -0.010   1.995  0.9455  1.9784  0.9933
  283SOL     OW  847   1.123   1.804   2.369 -0.1250  0.5312 -0.0186
  283SOL    HW1  848   1.139   1.727   2.432 -0.3441 -0.0710  0.9268
  283SOL    HW2  849   1.204   1.838   2.318 -2.3778 -0.4980  1.6266
  284SOL     OW  850   1.096   2.391   0.308 -0.0059 -0.5149 -0.7885
  284SOL    HW1  851   1.014   2.345   0.354 -0.6937  0.4795 -1.2229
  284SOL    HW2  852   1.140   2.332   0.239  0.6222  2.9604  1.2065
  285SOL     OW  853   2.579   0.859   1.293 -0.1686 -0.1073 -0.0356
  285SOL    HW1  854   2.571   0.928   1.369 -3.2362  0.5252  0.9394
  285SOL    HW2  855   2.566   0.914   1.212 -0.7361  0.9917  0.8565
  286SOL     OW  856   1.710   2.321   3.008 -0.2247 -0.6982  0.1630
  286SOL    HW1  857   1.778   2.244   3.005  4.4239  1.1007  0.2304
  286SOL    HW2  858   1.701   2.363   3.101  0.8564 -0.6832 -0.9445
  287SOL     OW  859   1.556   1.877   1.702  0.8990 -0.2640  0.1853
  287SOL    HW1  860   1.476   1.814   1.686  0.3832 -1.4958  1.0173
  287SOL    HW2  861   1.611   1.871   1.616  0.2929 -0.4092 -0.9859
  288SOL     OW  862   1.792   3.064   1.414  0.0374 -0.2394 -0.2371
  288SOL    HW1  863   1.797   3.006   1.331  0.1674  0.9197  0.3504
  288SOL    HW2  864   1.881   3.103   1.440  2.2877 -0.3660 -0.7464
  289SOL     OW  865   2.128   0.038   0.444  0.6028  0.5440  0.4525
  289SOL    HW1  866   2.053   0.103   0.470  3.5610  0.2730  0.1027
  289SOL    HW2  867   2.109  -0.009   0.352  0.2737  1.4713 -1.7483
  290SOL     OW  868   0.017   0.493   1.978 -0.0524 -0.0141  0.5722
  290SOL    HW1  869   0.059   0.574   1.932  0.4124 -0.5719 -0.5720
  290SOL    HW2  870  -0.048   0.453   1.908 -0.8150 -1.3386  0.3901
  291SOL     OW  871   0.225   1.025   0.449  0.2906 -0.4672 -0.0117
  291SOL    HW1  872   0.239   1.116   0.405  0.9388  2.1048  1.0273
  291SOL    HW2  873   0.149   0.963   0.413 -3.7672 -0.3838  0.7527
  292SOL     OW  874   1.620   0.715   2.062  0.5385 -0.2395 -0.4642
  292SOL    HW1  875   1.525   0.756   2.064 -2.3321 -1.3400  2.6445
  292SOL    HW2  876   1.624   0.637   1.991  1.6654 -4.1519 -2.0181
  293SOL     OW  877   2.140   2.621   0.989 -0.9439  0.4826  0.2448
  293SOL    HW1  878   2.200   2.538   1.015  0.1908  0.0341  1.0464
  293SOL    HW2  879   2.095   2.610   0.892 -1.3317  0.7240 -3.6608
  294SOL     OW  880   2.665   1.239   0.521  0.2112 -0.0746 -0.6968
  294SOL    HW1  881   2.718   1.173   0.574 -0.9978  1.0694 -0.5484
  294SOL    HW2  882   2.576   1.200   0.494 -1.9993 -4.6458  1.3759
  295SOL     OW  883   1.660   0.857   2.440 -0.4149  0.0603 -0.7677
  295SOL    HW1  884   1.625   0.878   2.535 -0.8195 -3.9809  1.3784
  295SOL    HW2  885   1.632   0.764   2.415  0.6491  1.9883 -1.3521
  296SOL     OW  886   1.821   0.422   1.482 -0.2861 -0.1133  0.7331
  296SOL    HW1  887   1.815   0.483   1.565 -1.1220 -1.4215  0.6788
  296SOL    HW2  888   1.914   0.390   1.461 -3.2845 -1.5128 -0.1378
  297SOL     OW  889   0.808   2.828   1.920  0.0002  0.0871 -0.4296
  297SOL    HW1  890   0.882   2.895   1.892  2.5191  0.6475 -1.7220
  297SOL    HW2  891   0.855   2.757   1.977 -0.5024  0.4132 -0.7648
  298SOL     OW  892   0.376   0.163   0.159 -0.0254 -0.1134  0.0103
  298SOL    HW1  893   0.383   0.091   0.094  0.5574  0.7504  1.4608
  298SOL    HW2  894   0.365   0.127   0.254 -2.0548 -0.3515 -0.5691
  299SOL     OW  895   2.933   1.311   2.935 -0.0081  0.0538 -0.5279
  299SOL    HW1  896   2.881   1.238   2.889 -0.1594  0.2520  1.0389
  299SOL    HW2  897   2.870   1.381   2.969  0.3844 -4.0616  3.2475
  300SOL     OW  898   0.330   0.936   1.632  0.0103 -0.2479 -0.1158
  300SOL    HW1  899   0.383   0.928   1.538  0.6635 -0.4033 -2.4619
  300SOL    HW2  900   0.382   0.901   1.709  0.1854  2.2836 -2.8084
  301SOL     OW  901   0.906   2.801   2.809  0.1766 -0.1482  0.1270
  301SOL    HW1  902   0.896   2.875   2.736 -1.6495 -0.5099 -2.9921
  301SOL    HW2  903   0.942   2.832   2.896 -1.7911 -1.9165  1.5589
  302SOL     OW  904   2.781   0.280   1.429  0.0476 -0.0115  0.2937
  302SOL    HW1  905   2.721   0.245   1.352 -0.1836  1.2317 -0.6287
  302SOL    HW2  906   2.877   0.254   1.404 -2.1064  2.2717 -0.7411
  303SOL     OW  907   1.953   1.189   2.334  0.2517 -0.6478 -0.1853
  303SOL    HW1  908   1.962   1.094   2.298 -0.0230 -0.7264  0.4686
  303SOL    HW2  909   1.914   1.248   2.263 -0.8761 -2.5999  1.4596
  304SOL     OW  910   0.378   0.067   1.135  0.3502 -0.1031  0.7040
  304SOL    HW1  911   0.442   0.114   1.067  0.1691 -1.0397 -1.6826
  304SOL    HW2  912   0.427   0.005   1.194 -0.6362  2.9898 -2.3352
  305SOL     OW  913   1.252   2.540   1.279  0.1237 -0.1756 -0.2836
  305SOL    HW1  914   1.304   2.553   1.190  2.0757 -0.0355 -0.4505
  305SOL    HW2  915   1.202   2.630   1.298  0.8697  2.1251 -0.3048
  306SOL     OW  916   1.493   1.368   3.098 -0.4717  0.8146  0.0051
  306SOL    HW1  917   1.510   1.419   3.187 -0.0419  2.3537  1.3612
  306SOL    HW2  918   1.391   1.362   3.085  1.7341 -0.5349  1.0270
  307SOL     OW  919   1.043   1.856   1.380 -0.2495 -0.7043  0.0855
  307SOL    HW1  920   0.960   1.914   1.373  0.4116 -0.1352 -0.1676
  307SOL    HW2  921   1.097   1.881   1.466  1.6438  2.2446 -0.1213
  308SOL     OW  922   0.325   0.279   0.814 -0.6954 -0.0004 -0.3527
  308SOL    HW1  923   0.320   0.368   0.765 -1.0988 -0.4791  0.1921
  308SOL    HW2  924   0.405   0.269   0.879  0.8589  0.7234  0.2885
  309SOL     OW  925   2.243   1.158   3.049  0.5473  0.7715 -0.0565
  309SOL    HW1  926   2.201   1.205   3.131 -0.5887  0.8784 -1.4539
  309SOL    HW2  927   2.193   1.189   2.964  0.4464  0.4240  0.0236
  310SOL     OW  928   0.977   1.399   2.337  0.3959 -0.2192  0.0294
  310SOL    HW1  929   0.970   1.458   2.253  0.8331 -0.6991  1.3873
  310SOL    HW2  930   0.887   1.348   2.354 -0.9927 -0.9617  1.1232
  311SOL     OW  931   0.782   0.291   1.760  0.1363  0.1232 -0.3997
  311SOL    HW1  932   0.692   0.271   1.718 -2.9815  0.5523 -1.4065
  311SOL    HW2  933   0.856   0.232   1.726  0.3784  1.7044  0.4588
  312SOL     OW  934   0.326   2.382   3.079 -0.9109 -0.3500  0.3493
  312SOL    HW1  935   0.233   2.336   3.088 -1.6490  2.0783 -2.1564
  312SOL    HW2  936   0.397   2.313   3.081  0.8733 -2.3504  2.7956
  313SOL     OW  937   1.415   0.504   1.737 -0.4498 -0.2415 -0.1971
  313SOL    HW1  938   1.430   0.462   1.645  0.2663 -1.1849  0.4536
  313SOL    HW2  939   1.325   0.551   1.728 -1.0018 -0.9796 -0.8020
  314SOL     OW  940   1.690   0.464   2.529  0.5319  0.6683  0.7733
  314SOL    HW1  941   1.676   0.370   2.566 -0.0257 -1.8640  0.5973
  314SOL    HW2  942   1.755   0.520   2.586 -0.5625  1.7739 -3.0909
  315SOL     OW  943   2.515   0.111   0.869 -0.0155  0.1611 -0.0866
  315SOL    HW1  944   2.426   0.064   0.858 -1.5896 -1.5099  0.6873
  315SOL    HW2  945   2.504   0.207   0.898 -0.5255 -0.2114 -2.4173
  316SOL     OW  946   1.228   0.014   1.168  0.1711 -0.5619  0.0269
  316SOL    HW1  947   1.132  -0.021   1.163  0.3559 -2.3875  0.9785
  316SOL    HW2  948   1.281  -0.013   1.253 -0.5454  2.0447 -0.1559
  317SOL     OW  949   0.664   0.649   0.497  0.5234 -0.1650 -0.1453
  317SOL    HW1  950   0.739   0.716   0.478  1.7218 -2.0310  0.4105
  317SOL    HW2  951   0.695   0.555   0.475 -0.6523 -3.4860 -0.0494
  318SOL     OW  952   2.800   1.038   2.695  0.8925 -0.1405  0.5051
  318SOL    HW1  953   2.896   1.061   2.709 -1.1253  2.5792 -0.6240
  318SOL    HW2  954   2.772   1.069   2.603 -1.4316  2.1258  2.0925
  319SOL     OW  955   0.226   1.526   2.814  0.8090 -0.1328 -0.0829
  319SOL    HW1  956   0.163   1.477   2.746 -1.5412 -0.2039  1.1697
  319SOL    HW2  957   0.243   1.472   2.899 -0.5886  2.8767  2.1562
  320SOL     OW  958   1.786   2.957   3.065 -0.2442 -0.2744  0.1958
  320SOL    HW1  959   1.828   3.013   3.136  0.5373  0.0728  0.3925
  320SOL    HW2  960   1.852   2.884   3.034 -0.9658 -0.4201 -1.6002
  321SOL     OW  961   0.906   0.599   0.820 -0.4883 -0.2932  0.1258
  321SOL    HW1  962   0.939   0.525   0.879  0.8859 -0.3018 -0.6164
  321SOL    HW2  963   0.806   0.598   0.828 -0.6707  0.2330  2.4751
  322SOL     OW  964   0.557   1.867   0.096  0.4318 -0.1575 -0.2309
  322SOL    HW1  965   0.632   1.799   0.106  0.5710  0.9492  0.3502
  322SOL    HW2  966   0.487   1.862   0.170 -1.9116 -0.8806 -0.7084
  323SOL     OW  967   1.127   0.661   1.155 -0.2621 -0.2623 -0.5028
  323SOL    HW1  968   1.156   0.748   1.111  0.0526 -0.6733 -3.1198
  323SOL    HW2  969   1.130   0.596   1.080  0.0618 -2.1743 -0.8886
  324SOL     OW  970   2.883   2.966   0.842  0.2361  0.2434 -0.0704
  324SOL    HW1  971   2.976   2.991   0.813 -2.4880  1.7833  2.9021
  324SOL    HW2  972   2.880   2.866   0.862 -2.2903  0.9840 -1.2730
  325SOL     OW  973   0.325   2.054   0.199 -0.0012  0.3385 -0.1456
  325SOL    HW1  974   0.360   2.068   0.290 -0.0091  1.2941 -1.0300
  325SOL    HW2  975   0.389   2.109   0.138 -0.7192 -0.2415 -3.1562
  326SOL     OW  976   0.527   0.614   1.455  0.2205  0.4442  0.2645
  326SOL    HW1  977   0.448   0.658   1.408 -1.1095 -1.2210  0.4775
  326SOL    HW2  978   0.513   0.616   1.556 -0.6880  3.0902 -0.5959
  327SOL     OW  979   2.231   2.755   1.705 -1.0486 -0.1001  0.2082
  327SOL    HW1  980   2.163   2.760   1.779  0.6325  0.9389 -0.5644
  327SOL    HW2  981   2.284   2.844   1.695  0.9594  0.1658 -2.3743
  328SOL     OW  982   3.098   2.139   1.535 -0.1676 -0.0429  0.4587
  328SOL    HW1  983   3.023   2.168   1.469  1.6032 -2.5064 -3.4943
  328SOL    HW2  984   3.148   2.224   1.559 -0.1151 -3.1128 -0.0478
  329SOL     OW  985   2.631   2.992   2.327 -0.2880 -0.4146  0.2999
  329SOL    HW1  986   2.613   3.041   2.240 -1.8216 -0.5562  0.4439
  329SOL    HW2  987   2.541   2.954   2.364 -2.6785 -1.4792  0.9678
  330SOL     OW  988   0.998   0.604   0.252  0.1967  0.3415  0.0798
  330SOL    HW1  989   0.910   0.551   0.260 -1.3536  1.5041 -0.2618
  330SOL    HW2  990   1.020   0.665   0.326  1.0454  1.1788 -4.3037
  331SOL     OW  991   0.438   1.434   2.289 -0.6979 -0.1737 -0.2171
  331SOL    HW1  992   0.423   1.336   2.269  0.8460 -2.8168 -2.1889
  331SOL    HW2  993   0.461   1.445   2.388  2.0259  0.8401 -1.0508
  332SOL     OW  994   0.518   2.222   2.702 -0.5031  0.2368  0.2918
  332SOL    HW1  995   0.511   2.266   2.611  0.9859  2.7596 -0.7694
  332SOL    HW2  996   0.540   2.292   2.771  1.2490 -0.1016 -0.3337
  333SOL     OW  997   2.402   1.168   0.501 -0.1376  0.1171  0.3159
  333SOL    HW1  998   2.391   1.151   0.605 -0.0190  0.0300  0.1742
  333SOL    HW2  999   2.346   1.248   0.476 -1.6255 -0.2668  1.9253
  334SOL     OW 1000   0.840   2.088   1.981  0.4433 -0.3838  0.0471
  334SOL    HW1 1001   0.744   2.111   1.957 -0.0891 -0.4585  2.4722
  334SOL    HW2 1002   0.890   2.174   1.994 -2.7155 -2.0344  1.7282
  335SOL     OW 1003   1.764   0.390   2.092  0.0420  0.5191  0.0086
  335SOL    HW1 1004   1.803   0.406   2.185 -0.4230 -1.0575 -0.6478
  335SOL    HW2 1005   1.771   0.291   2.067  1.1055 -0.7375 -0.8121
  336SOL     OW 1006   2.876   1.927   0.807  0.1855  0.2854  0.4889
  336SOL    HW1 1007   2.950   1.878   0.755 -0.3526 -0.9688 -0.4797
  336SOL    HW2 1008   2.901   1.921   0.907  4.2356 -0.8905 -0.7693
  337SOL     OW 1009   0.907   2.601   2.087  0.0110  0.1975  0.2117
  337SOL    HW1 1010   0.922   2.610   2.186  0.0967  0.5739  0.3756
  337SOL    HW2 1011   0.808   2.577   2.071 -1.9137  0.9444  0.1036
  338SOL     OW 1012   1.483   1.312   2.811 -0.0669 -0.0135  0.2459
  338SOL    HW1 1013   1.557   1.252   2.780 -0.7838 -0.7289  2.3493
  338SOL    HW2 1014   1.509   1.374   2.884 -1.7872  2.3901  1.7658
  339SOL     OW 1015   1.055   2.029   0.410 -0.5432  0.5256  0.3282
  339SOL    HW1 1016   1.098   1.992   0.325  1.3312 -0.1074  2.2337
  339SOL    HW2 1017   1.032   1.953   0.475 -1.4938  0.0937 -1.2364
  340SOL     OW 1018   0.636   1.804   0.924 -0.1153  0.0577  0.0606
  340SOL    HW1 1019   0.692   1.793   0.839  0.0959 -0.6569 -0.4211
  340SOL    HW2 1020   0.626   1.715   0.970  0.2957 -0.9626  2.3942
  341SOL     OW 1021   2.501   1.945   1.115  0.2813 -0.5968 -0.3976
  341SOL    HW1 1022   2.585   1.886   1.135  1.3515  0.0707 -1.4450
  341SOL    HW2 1023   2.495   1.948   1.014  1.2361 -1.9438  0.0497
  342SOL     OW 1024   1.479   0.537   0.550  0.0376 -0.0911  0.1725
  342SOL    HW1 1025   1.457   0.504   0.458  3.3848  0.2140  1.3247
  342SOL    HW2 1026   1.502   0.636   0.542  1.7830  1.8314  1.1780
  343SOL     OW 1027   1.274   1.891   0.188 -0.0002  0.1084 -0.3870
  343SOL    HW1 1028   1.282   1.795   0.218 -4.9992 -1.3388 -1.2972
  343SOL    HW2 1029   1.271   1.899   0.086  0.7665 -0.9952 -1.7732
  344SOL     OW 1030   0.056   2.681   0.812 -0.1757 -0.3115  0.0885
  344SOL    HW1 1031  -0.042   2.690   0.787 -0.6320 -1.5078  1.6207
  344SOL    HW2 1032   0.111   2.670   0.726  2.1204  0.8277  2.1722
  345SOL     OW 1033   1.846   2.080   3.054 -0.6036  0.0585  0.0414
  345SOL    HW1 1034   1.941   2.072   3.021  1.3887  2.7485  3.8032
  345SOL    HW2 1035   1.794   1.993   3.062  0.4087 -0.7498  0.1511
  346SOL     OW 1036   1.207   1.362   0.329 -0.1884 -0.2172 -0.5266
  346SOL    HW1 1037   1.196   1.387   0.430 -0.3386  1.1175  0.8993
  346SOL    HW2 1038   1.130   1.303   0.314  0.2569 -2.2654  1.8327
  347SOL     OW 1039   1.013   0.432   1.017 -0.2997  0.1692  0.7174
  347SOL    HW1 1040   1.109   0.390   1.023 -1.6087 -3.4011 -0.8246
  347SOL    HW2 1041   0.984   0.463   1.107  1.6916  0.6478 -2.8773
  348SOL     OW 1042   2.042   2.155   1.343 -0.0346  0.4303 -0.3880
  348SOL    HW1 1043   2.080   2.071   1.300 -2.7542  2.8203 -0.0563
  348SOL    HW2 1044   1.956   2.183   1.293 -2.0397 -2.5706 -1.0999
  349SOL     OW 1045   2.255   0.533   2.210  0.0571  0.1660  0.0569
  349SOL    HW1 1046   2.233   0.493   2.303  1.4251 -0.8967 -2.3221
  349SOL    HW2 1047   2.172   0.516   2.152 -1.6006  1.8622  5.4145
  350SOL     OW 1048   3.003   0.049   2.407  0.2982  0.2399 -0.4681
  350SOL    HW1 1049   2.980   0.045   2.307  0.8787  0.8536  1.5800
  350SOL    HW2 1050   2.949   0.128   2.450 -0.0610  1.1133  1.1326
  351SOL     OW 1051   2.481   2.641   1.635  0.1837 -0.0277  0.0498
  351SOL    HW1 1052   2.385   2.656   1.663  0.3753 -2.5867 -3.0171
  351SOL    HW2 1053   2.471   2.586   1.550  0.4641 -1.6258  0.2158
  352SOL     OW 1054   2.272   2.553   0.615 -0.0205 -0.0885  0.0917
  352SOL    HW1 1055   2.249   2.483   0.683  0.1426  2.4953 -2.9045
  352SOL    HW2 1056   2.332   2.518   0.541 -0.8360  1.2970  1.3254
  353SOL     OW 1057   0.799   2.021   1.330 -0.1404  0.1241 -0.1480
  353SOL    HW1 1058   0.714   2.076   1.322 -2.5071 -0.3086  2.4433
  353SOL    HW2 1059   0.802   1.927   1.299  1.8984  0.6287  1.5835
  354SOL     OW 1060   0.927   2.777   0.219  0.1307  0.0242  0.4241
  354SOL    HW1 1061   0.861   2.760   0.294 -1.5038  1.2749 -0.1896
  354SOL    HW2 1062   0.905   2.713   0.139 -2.0059  0.2757 -0.0915
  355SOL     OW 1063   0.727   0.751   2.573  0.4528  0.4166  0.3732
  355SOL    HW1 1064   0.679   0.755   2.664  0.6019  1.4085  2.0361
  355SOL    HW2 1065   0.790   0.670   2.563 -0.3301  2.2316  1.4248
  356SOL     OW 1066   2.851   0.025   3.059  0.1425 -0.6090 -0.0519
  356SOL    HW1 1067   2.932   0.005   3.002 -2.4887  1.3870  0.2034
  356SOL    HW2 1068   2.761   0.022   3.011  0.6936 -0.6453 -1.4391
  357SOL     OW 1069   2.436   1.161   1.132  0.4699  0.6324 -0.1071
  357SOL    HW1 1070   2.469   1.259   1.133 -0.1615  2.3604 -0.0246
  357SOL    HW2 1071   2.354   1.149   1.196  0.3455 -1.5263  1.0567
  358SOL     OW 1072   0.317   2.872   1.707 -0.1171  0.2937  0.0853
  358SOL    HW1 1073   0.232   2.901   1.752  0.7094  2.7438  0.9601
  358SOL    HW2 1074   0.392   2.869   1.780 -1.5258  0.0098 -1.8616
  359SOL     OW 1075   2.738   0.857   2.886 -0.3929 -0.0452 -0.6658
  359SOL    HW1 1076   2.646   0.817   2.877 -0.1678 -0.6205  1.2976
  359SOL    HW2 1077   2.764   0.914   2.805 -1.0083 -0.8296  1.3554
  360SOL     OW 1078   0.818   0.495   2.558 -0.3606 -0.4036  0.2635
  360SOL    HW1 1079   0.782   0.488   2.650  1.0966 -1.1427 -2.9920
  360SOL    HW2 1080   0.881   0.422   2.536 -3.0428  1.4795  1.7619
  361SOL     OW 1081   1.131   0.721   3.036 -0.3703 -0.0809 -0.0845
  361SOL    HW1 1082   1.158   0.801   3.092  4.0702  0.7333 -0.1875
  361SOL    HW2 1083   1.178   0.730   2.943  1.5942 -0.4471 -2.5932
  362SOL     OW 1084   1.026   1.595   2.171  0.6162 -0.2779  0.3934
  362SOL    HW1 1085   1.095   1.636   2.234 -0.0068  1.0367 -0.7069
  362SOL    HW2 1086   0.983   1.673   2.121 -2.8273 -2.7119  2.8926
  363SOL     OW 1087   1.305   2.516   2.357  0.8097  0.5722  0.8618
  363SOL    HW1 1088   1.237   2.467   2.417  2.1613  2.3487  0.2644
  363SOL    HW2 1089   1.395   2.475   2.374 -0.7794 -0.9053 -0.6689
  364SOL     OW 1090   3.062   0.242   1.443 -0.1491 -0.2036 -0.4599
  364SOL    HW1 1091   3.141   0.210   1.497  0.4565  0.9132  0.1101
  364SOL    HW2 1092   3.026   0.164   1.393  1.5547  0.6295  1.1442
  365SOL     OW 1093   0.306   2.133   0.791 -0.1496 -0.2193  0.1836
  365SOL    HW1 1094   0.288   2.164   0.694 -1.3966  0.4842  0.8361
  365SOL    HW2 1095   0.238   2.173   0.857 -3.9655 -0.9775 -0.4392
  366SOL     OW 1096   2.717   2.566   1.782  0.1974 -0.1139 -0.0141
  366SOL    HW1 1097   2.630   2.607   1.746  1.3088 -1.6137 -1.2333
  366SOL    HW2 1098   2.794   2.628   1.804 -0.1166 -3.1108  1.2759
  367SOL     OW 1099   0.165   2.281   1.002 -0.2957 -0.8472 -0.6751
  367SOL    HW1 1100   0.065   2.269   1.015 -0.2063 -2.0889  0.7413
  367SOL    HW2 1101   0.216   2.223   1.070 -0.1119 -0.6610 -0.4394
  368SOL     OW 1102   2.807   1.164   2.438 -0.4029 -0.7108 -0.1240
  368SOL    HW1 1103   2.764   1.258   2.453 -1.4359  1.6216  0.8693
  368SOL    HW2 1104   2.867   1.159   2.353 -0.2589  0.0551 -1.2707
  369SOL     OW 1105   1.776   0.541   0.390 -0.5070  0.2160 -0.3788
  369SOL    HW1 1106   1.759   0.558   0.490 -0.4257 -2.7947 -0.1308
  369SOL    HW2 1107   1.763   0.445   0.378 -0.9527  2.5232  1.8780
  370SOL     OW 1108   3.031   2.102   0.541  0.3249 -0.3921  0.8837
  370SOL    HW1 1109   2.965   2.074   0.469  0.4145 -1.2114 -1.0349
  370SOL    HW2 1110   3.044   2.022   0.604 -0.1197 -1.1231  0.4994
  371SOL     OW 1111   0.481   2.878   2.793 -0.4674 -0.1516 -0.2516
  371SOL    HW1 1112   0.431   2.938   2.729  0.2991  0.2260 -0.9700
  371SOL    HW2 1113   0.421   2.834   2.864  0.8030 -0.3149  0.1446
  372SOL     OW 1114   1.649   0.506   1.884 -0.4507  0.0586  0.1146
  372SOL    HW1 1115   1.675   0.442   1.963 -0.9601  1.4285  0.4319
  372SOL    HW2 1116   1.560   0.477   1.850 -1.0718 -0.8195 -0.0451
  373SOL     OW 1117   0.174   2.577   1.967  0.1177  0.0166  0.5945
  373SOL    HW1 1118   0.174   2.661   2.022 -0.5073 -1.6025  0.3063
  373SOL    HW2 1119   0.113   2.506   2.008  0.2531  1.2330  0.6027
  374SOL     OW 1120   2.303   3.099   1.530 -0.2453 -0.2812 -0.1601
  374SOL    HW1 1121   2.330   3.071   1.626  1.1062 -0.0362 -0.0214
  374SOL    HW2 1122   2.368   3.076   1.455  2.1532 -0.5982 -1.5610
  375SOL     OW 1123   1.492   2.688   2.005 -0.3837 -0.6192 -0.0123
  375SOL    HW1 1124   1.441   2.610   2.045  1.7078  0.0441 -0.2409
  375SOL    HW2 1125   1.445   2.776   2.026  0.2656 -0.7440 -0.9883
  376SOL     OW 1126   2.256   2.011   0.450  0.1225 -0.6025 -0.6421
  376SOL    HW1 1127   2.228   2.064   0.364  0.5691  1.7101 -1.7395
  376SOL    HW2 1128   2.332   1.948   0.435 -1.6250 -0.2367  3.3739
  377SOL     OW 1129   0.449   1.475   1.575  0.4332  0.2365  0.1248
  377SOL    HW1 1130   0.477   1.568   1.545  2.2493 -0.3168 -1.5251
  377SOL    HW2 1131   0.520   1.437   1.638  2.0100  1.6316 -1.7937
  378SOL     OW 1132   2.288   0.572   0.809  0.2601 -0.1986  0.2003
  378SOL    HW1 1133   2.220   0.647   0.807 -0.9235  2.0969  0.4428
  378SOL    HW2 1134   2.266   0.508   0.733  2.1661  0.4683  0.4666
  379SOL     OW 1135   0.937   2.374   1.900 -0.2903 -0.2530 -0.5788
  379SOL    HW1 1136   0.892   2.381   1.807  1.0801 -1.6334 -0.1443
  379SOL    HW2 1137   0.905   2.440   1.968  1.9109 -1.4585 -0.2566
  380SOL     OW 1138   0.899   1.991   1.732 -0.2778  0.0902  0.1092
  380SOL    HW1 1139   0.822   1.929   1.707  1.1859 -2.4093 -0.4407
  380SOL    HW2 1140   0.893   2.015   1.830  1.6797 -2.8640 -0.5177
  381SOL     OW 1141   1.597   1.604   2.709  0.3622  0.1744  0.0350
  381SOL    HW1 1142   1.625   1.541   2.633 -2.3471  1.7424 -1.4718
  381SOL    HW2 1143   1.642   1.579   2.797 -3.2767 -2.0604  0.4177
  382SOL     OW 1144   1.968   2.702   1.783 -0.0529 -0.3658  0.1862
  382SOL    HW1 1145   1.905   2.754   1.722  1.7723 -3.1052 -1.9223
  382SOL    HW2 1146   1.913   2.624   1.824  0.4993 -0.3920  1.3477
  383SOL     OW 1147   0.427   1.454   0.889  0.8460 -0.0669 -0.2901
  383SOL    HW1 1148   0.359   1.423   0.817 -1.1291  1.0830 -0.4474
  383SOL    HW2 1149   0.404   1.409   0.979  0.5864 -0.2289 -0.2765
  384SOL     OW 1150   0.583   2.176   1.299  0.2434  0.3022 -0.1729
  384SOL    HW1 1151   0.501   2.119   1.274 -0.7124  0.0886  0.0908
  384SOL    HW2 1152   0.632   2.211   1.215 -1.2777 -0.8762 -1.5594
  385SOL     OW 1153   0.818   2.072   0.019 -0.1038  0.0975  0.5710
  385SOL    HW1 1154   0.744   2.098  -0.047  2.8107  1.5949 -1.1182
  385SOL    HW2 1155   0.907   2.110  -0.001 -3.2907 -0.5338  1.2693
  386SOL     OW 1156   0.068   1.462   2.133  0.2905  0.1811  0.1691
  386SOL    HW1 1157   0.102   1.496   2.221 -0.6869 -1.5156 -2.3872
  386SOL    HW2 1158  -0.034   1.459   2.144 -1.0626 -2.3847  0.3597
  387SOL     OW 1159   0.271   2.016   2.459  0.4245 -0.0183 -0.1764
  387SOL    HW1 1160   0.285   1.933   2.407 -0.3317  4.9395  1.9463
  387SOL    HW2 1161   0.312   1.998   2.553 -0.6801  1.6097  0.7586
  388SOL     OW 1162   2.382   1.872   2.818  0.4657 -0.4346 -0.4266
  388SOL    HW1 1163   2.464   1.850   2.877 -0.6502 -0.5595 -1.2120
  388SOL    HW2 1164   2.387   1.962   2.774  1.2687 -1.3537 -1.1080
  389SOL     OW 1165   1.151   2.865   2.492 -0.2298 -0.1074  0.5797
  389SOL    HW1 1166   1.078   2.793   2.476 -0.0481 -3.2281 -0.1775
  389SOL    HW2 1167   1.230   2.860   2.425 -0.0506  1.5312  0.2457
  390SOL     OW 1168   0.501   2.994   0.540  0.7244  0.1584 -0.3520
  390SOL    HW1 1169   0.519   2.983   0.442  0.5862 -1.3195  0.9284
  390SOL    HW2 1170   0.483   2.903   0.583 -1.3161  0.6360 -0.9422
  391SOL     OW 1171   0.115   1.979   0.057  0.2689  0.1741  0.4878
  391SOL    HW1 1172   0.048   1.912   0.090 -2.3061 -2.5856  0.5597
  391SOL    HW2 1173   0.190   2.003   0.126 -0.6807  2.5762  0.0647
  392SOL     OW 1174   1.397   1.285   1.951 -0.2713  0.2226  0.5226
  392SOL    HW1 1175   1.401   1.301   1.848 -0.3670 -0.2192 -0.7862
  392SOL    HW2 1176   1.383   1.375   1.994 -0.3027  0.0856  1.1232
  393SOL     OW 1177   1.711   0.268   0.356 -0.1697 -0.0383 -0.1336
  393SOL    HW1 1178   1.729   0.277   0.255 -0.3038  1.8245 -2.8199
  393SOL    HW2 1179   1.613   0.239   0.366  1.3733  1.1466 -0.6541
  394SOL     OW 1180   2.708   2.949   0.315  0.5087  0.0146 -0.6455
  394SOL    HW1 1181   2.635   2.944   0.243  1.0535 -0.4900 -0.2220
  394SOL    HW2 1182   2.798   2.961   0.268 -2.1786  1.4422  0.1587
  395SOL     OW 1183   0.512   2.322   0.703  0.0103 -0.3356 -0.0653
  395SOL    HW1 1184   0.530   2.240   0.762  1.7344 -2.1432  0.0438
  395SOL    HW2 1185   0.416   2.323   0.670  2.3298 -1.4042  2.1112
  396SOL     OW 1186   0.272   2.337   0.599  0.2958  0.0802  0.9497
  396SOL    HW1 1187   0.229   2.312   0.509  0.9294  0.0707  1.9118
  396SOL    HW2 1188   0.262   2.435   0.621 -0.3478 -1.5961 -1.0232
  397SOL     OW 1189   0.004   1.807   2.612 -0.1583  0.8545 -0.1022
  397SOL    HW1 1190  -0.023   1.903   2.627  2.1437  2.1962 -1.2345
  397SOL    HW2 1191   0.035   1.772   2.700 -1.0098 -1.0638 -2.3896
  398SOL     OW 1192   0.870   1.554   0.276  0.2620 -0.0397 -0.2688
  398SOL    HW1 1193   0.810   1.625   0.321  0.6047 -0.3842 -1.5839
  398SOL    HW2 1194   0.851   1.553   0.176 -0.7567 -0.2271  1.1955
  399SOL     OW 1195   0.645   1.087   0.033  0.3324 -0.0086 -0.2989
  399SOL    HW1 1196   0.655   1.177   0.073 -0.6734 -1.0825 -0.1468
  399SOL    HW2 1197   0.718   1.069  -0.035  0.3044 -2.4635 -2.2004
  400SOL     OW 1198   0.601   2.405   2.877 -0.1813  0.1389 -0.0807
  400SOL    HW1 1199   0.593   2.507   2.859  2.2232  0.5757  0.2078
  400SOL    HW2 1200   0.602   2.380   2.978  0.0821 -3.1148  1.1715
  401SOL     OW 1201   1.957   2.346   0.227 -0.0917 -0.5599 -0.0146
  401SOL    HW1 1202   1.965   2.447   0.221  2.4986  2.2913 -0.5806
  401SOL    HW2 1203   1.860   2.314   0.242  0.4706 -1.0961 -2.4470
  402SOL     OW 1204   1.546   0.454   3.026 -0.4108 -0.2381  0.1399
  402SOL    HW1 1205   1.514   0.538   3.073 -3.0485 -2.1336  0.0820
  402SOL    HW2 1206   1.462   0.397   3.000 -1.6117  1.6586  0.1615
  403SOL     OW 1207   2.346   1.759   1.831  0.6327  0.4511 -0.2866
  403SOL    HW1 1208   2.295   1.729   1.911  1.0438 -1.3357  0.9033
  403SOL    HW2 1209   2.307   1.843   1.781 -3.8525 -0.1094 -2.9714
  404SOL     OW 1210   2.188   2.448   1.924 -0.3695 -0.2740 -0.0102
  404SOL    HW1 1211   2.156   2.545   1.945  0.2546  1.5149  0.1350
  404SOL    HW2 1212   2.292   2.444   1.937  1.8997 -1.1550 -2.3313
  405SOL     OW 1213   2.524   0.406   2.057 -0.0473 -0.5312 -0.0298
  405SOL    HW1 1214   2.471   0.484   2.098 -1.8899 -1.6922  2.2007
  405SOL    HW2 1215   2.547   0.429   1.957  2.3828  1.1497 -1.2036
  406SOL     OW 1216   1.802   2.267   1.241  0.5727 -0.1139  0.2240
  406SOL    HW1 1217   1.740   2.302   1.311 -0.1381 -0.0358  0.4246
  406SOL    HW2 1218   1.740   2.227   1.166 -0.7354 -1.2418 -2.0111
  407SOL     OW 1219   1.214   1.823   0.792 -0.3763 -0.3416  0.2684
  407SOL    HW1 1220   1.268   1.908   0.772  0.1341  1.8113  2.0014
  407SOL    HW2 1221   1.265   1.756   0.853 -0.3988 -0.7305 -0.0828
  408SOL     OW 1222   2.581   2.720   0.944  0.1292 -0.2348  0.4764
  408SOL    HW1 1223   2.571   2.623   0.976  1.2565 -1.9281 -0.4632
  408SOL    HW2 1224   2.510   2.741   0.870 -0.3179  2.2652  0.0635
  409SOL     OW 1225   1.297   1.433   1.062 -0.0157  0.3143 -0.7073
  409SOL    HW1 1226   1.338   1.522   1.036  0.1399 -0.7370 -3.1555
  409SOL    HW2 1227   1.262   1.431   1.158  1.5480 -1.7819 -2.8411
  410SOL     OW 1228   0.502   0.346   0.497 -0.1394 -0.0467  0.2733
  410SOL    HW1 1229   0.424   0.279   0.486 -1.0833 -0.3321 -1.1547
  410SOL    HW2 1230   0.562   0.326   0.576 -1.1512 -2.3936 -0.5900
  411SOL     OW 1231   1.590   1.727   2.251  0.1798  0.0188  0.1018
  411SOL    HW1 1232   1.598   1.728   2.356  1.3020  0.1261  0.9658
  411SOL    HW2 1233   1.657   1.671   2.198  1.1011  0.2963 -1.0728
  412SOL     OW 1234   2.142   2.904   1.020  0.4379  0.2436 -0.1970
  412SOL    HW1 1235   2.050   2.922   1.059  2.7607  2.7063 -0.7665
  412SOL    HW2 1236   2.156   2.804   1.018  1.7592 -1.0333 -0.8204
  413SOL     OW 1237   2.591   0.065   0.508  0.2077 -0.0966  0.0917
  413SOL    HW1 1238   2.613  -0.011   0.436  2.1541 -3.8382 -0.9646
  413SOL    HW2 1239   2.669   0.075   0.572 -0.3119  1.6940 -1.1075
  414SOL     OW 1240   3.053   0.461   1.599 -0.1015 -0.1840  0.7462
  414SOL    HW1 1241   3.049   0.377   1.537 -1.2123 -0.3170 -1.0714
  414SOL    HW2 1242   3.125   0.522   1.572 -0.7606 -2.4093  3.4599
  415SOL     OW 1243   1.288   3.043   0.408 -0.1493 -0.1935 -0.0678
  415SOL    HW1 1244   1.276   3.123   0.471  0.3692 -1.1886 -2.3588
  415SOL    HW2 1245   1.379   3.000   0.429  0.8584  0.9763 -1.1868
  416SOL     OW 1246   1.729   1.072   1.473  0.7066  0.1919  0.2778
  416SOL    HW1 1247   1.768   1.165   1.461  0.2563 -0.7329  1.7080
  416SOL    HW2 1248   1.798   0.998   1.448 -0.2521  0.4062 -0.4043
  417SOL     OW 1249   1.734   1.849   2.909 -0.0631 -0.4754 -0.5431
  417SOL    HW1 1250   1.714   1.772   2.974  2.3748 -1.0032 -0.4970
  417SOL    HW2 1251   1.652   1.908   2.887 -1.7297 -0.4472  1.4138
  418SOL     OW 1252   1.406   2.330   0.919 -0.3067  0.7115  0.5888
  418SOL    HW1 1253   1.304   2.333   0.926  0.2675 -2.1209  0.7573
  418SOL    HW2 1254   1.438   2.326   0.824 -0.6393 -2.2455  0.8902
  419SOL     OW 1255   0.111   0.679   1.527  0.1597 -0.1013  0.8464
  419SOL    HW1 1256   0.020   0.722   1.509  2.0096 -0.1662 -1.3005
  419SOL    HW2 1257   0.156   0.672   1.438  0.7493  0.5041 -1.8266
  420SOL     OW 1258   0.626   2.082   2.928  0.3535  0.5812  0.1572
  420SOL    HW1 1259   0.658   2.097   2.834 -1.6945 -0.9279  0.5064
  420SOL    HW2 1260   0.535   2.036   2.936  1.9367  2.5102 -0.6629
  421SOL     OW 1261   2.651   1.666   0.290 -0.5344  0.0879 -0.0137
  421SOL    HW1 1262   2.614   1.675   0.196  2.0104  1.6088  2.5266
  421SOL    HW2 1263   2.660   1.571   0.320  0.3580  1.0442  1.7877
  422SOL     OW 1264   1.595   0.021   2.209 -0.2425  0.1699 -0.1482
  422SOL    HW1 1265   1.635   0.038   2.116 -1.8463 -3.3099 -0.7836
  422SOL    HW2 1266   1.495   0.045   2.205  1.7292  0.4222 -1.0004
  423SOL     OW 1267   0.555   2.111   0.406  0.3010  0.3829  0.2736
  423SOL    HW1 1268   0.639   2.070   0.363 -0.8007 -0.0194  0.2570
  423SOL    HW2 1269   0.577   2.207   0.442  0.0660  0.0326 -3.1545
  424SOL     OW 1270   3.087   1.463   2.608 -0.1114  0.0572 -0.0046
  424SOL    HW1 1271   3.131   1.505   2.522  1.5335  1.4047 -1.3003
  424SOL    HW2 1272   2.992   1.501   2.616  2.6033 -0.7375 -3.9349
  425SOL     OW 1273   0.151   1.174   0.970 -0.2800 -0.1847  0.4931
  425SOL    HW1 1274   0.224   1.221   1.030  0.8476  0.7371  1.3049
  425SOL    HW2 1275   0.191   1.113   0.901  0.3546  2.4500 -2.4630
  426SOL     OW 1276   0.476   1.455   0.251  0.3079 -0.3160 -0.1814
  426SOL    HW1 1277   0.567   1.409   0.245  1.9182  0.6976  1.6582
  426SOL    HW2 1278   0.465   1.514   0.169 -1.8555 -0.9923  0.3623
  427SOL     OW 1279   1.329   2.105   1.088  0.2719 -0.1667 -0.1283
  427SOL    HW1 1280   1.298   2.136   0.994 -2.4857  0.9854 -0.9768
  427SOL    HW2 1281   1.377   2.177   1.146  1.4909  0.5230  0.9584
  428SOL     OW 1282   0.665   1.826   1.748  0.0294 -0.4035  0.2139
  428SOL    HW1 1283   0.705   1.770   1.676  0.2675 -0.4106 -1.7552
  428SOL    HW2 1284   0.586   1.877   1.714  0.9895  0.3518  1.4455
  429SOL     OW 1285   0.002   0.695   2.569 -0.1772 -0.8447  0.2561
  429SOL    HW1 1286  -0.081   0.735   2.518  0.9478 -0.2794 -0.2736
  429SOL    HW2 1287   0.084   0.734   2.527  2.1216  1.2668  2.5276
  430SOL     OW 1288   1.259   1.061   2.015  0.7754 -0.2518  0.0223
  430SOL    HW1 1289   1.330   1.128   1.997 -2.9865 -0.4140  0.3293
  430SOL    HW2 1290   1.189   1.103   2.072 -0.4476  0.0589 -0.9767
  431SOL     OW 1291   0.133   2.241   0.381  0.2207 -0.3030  0.1183
  431SOL    HW1 1292   0.136   2.229   0.276 -0.1878 -1.3098  1.0595
  431SOL    HW2 1293   0.048   2.204   0.424 -1.3536 -1.1100 -1.0904
  432SOL     OW 1294   2.830   1.739   2.824  0.3727 -0.2576 -0.3059
  432SOL    HW1 1295   2.928   1.732   2.851  2.3839 -1.5707 -3.3412
  432SOL    HW2 1296   2.824   1.746   2.724 -1.6538 -1.3628  2.1935
  433SOL     OW 1297   0.153   0.694   0.650  0.2462  0.2194 -0.5672
  433SOL    HW1 1298   0.185   0.785   0.613  1.0870 -0.1590 -2.0036
  433SOL    HW2 1299   0.054   0.676   0.645 -0.2402 -1.5442 -0.5849
  434SOL     OW 1300   0.879   2.418   1.637  0.0923  0.1712 -0.1327
  434SOL    HW1 1301   0.915   2.490   1.573 -0.0070  0.2689 -2.6889
  434SOL    HW2 1302   0.921   2.328   1.616 -1.8954  1.7730 -2.7166
  435SOL     OW 1303   1.836   0.884   0.607 -0.4753  0.0464  0.6298
  435SOL    HW1 1304   1.808   0.903   0.701  0.6533 -1.7397 -1.0142
  435SOL    HW2 1305   1.770   0.911   0.532  1.5076  3.7445 -0.9987
  436SOL     OW 1306   2.228   0.486   2.474 -0.2640 -0.1499 -0.3465
  436SOL    HW1 1307   2.174   0.401   2.500 -0.5825  1.1652  1.0548
  436SOL    HW2 1308   2.309   0.497   2.535 -0.6474  2.1647 -2.3692
  437SOL     OW 1309   1.178   1.907   1.978 -0.3102 -0.2748 -0.5813
  437SOL    HW1 1310   1.240   1.896   2.056 -0.0249 -0.5754 -1.9164
  437SOL    HW2 1311   1.199   1.825   1.917  0.2296 -0.7997 -3.8018
  438SOL     OW 1312   2.516   1.600   0.836  0.2369  0.1708  0.0158
  438SOL    HW1 1313   2.561   1.556   0.755 -1.7966  0.7185 -0.3800
  438SOL    HW2 1314   2.558   1.579   0.924 -3.8550 -1.3555 -1.3972
  439SOL     OW 1315   0.569   1.391   1.800  0.1793 -0.3026  0.0904
  439SOL    HW1 1316   0.502   1.315   1.779 -0.3742 -1.3340  1.7386
  439SOL    HW2 1317   0.538   1.451   1.880  0.2791 -0.5184 -0.2655
  440SOL     OW 1318   1.158   1.924   1.631  0.0653  0.0730 -0.0599
  440SOL    HW1 1319   1.230   1.852   1.642  2.7572  3.1590 -1.4952
  440SOL    HW2 1320   1.092   1.916   1.714 -0.0772 -2.0329  0.3789
  441SOL     OW 1321   1.633   1.221   2.145  0.5158 -0.2738 -0.5145
  441SOL    HW1 1322   1.661   1.123   2.165 -0.3296  0.4407 -0.8181
  441SOL    HW2 1323   1.568   1.228   2.070  0.3740  0.7710 -0.5808
  442SOL     OW 1324   0.077   1.734   0.878 -0.1013 -0.2920  0.2290
  442SOL    HW1 1325   0.049   1.739   0.974  1.2166 -1.3518 -1.2467
  442SOL    HW2 1326   0.076   1.638   0.845  0.6923  0.0387 -0.3342
  443SOL     OW 1327   2.729   0.596   1.253  0.3732  0.4735 -0.2864
  443SOL    HW1 1328   2.749   0.533   1.330 -0.6975  1.2696  2.5514
  443SOL    HW2 1329   2.683   0.676   1.296  0.5249  0.4029  2.1082
  444SOL     OW 1330   0.243   2.622   2.715  0.3867  0.5600  0.5853
  444SOL    HW1 1331   0.282   2.636   2.807  0.1977  2.7221 -2.3626
  444SOL    HW2 1332   0.197   2.703   2.680  1.1099 -1.4095 -2.1165
  445SOL     OW 1333   1.290   3.018   2.957  0.1560 -0.5649  0.3610
  445SOL    HW1 1334   1.282   3.105   3.016 -0.0907  1.5284 -0.1821
  445SOL    HW2 1335   1.387   2.982   2.957  0.5641 -0.6896  3.2096
  446SOL     OW 1336   0.151   2.874   2.675  0.4518 -0.5931 -0.2902
  446SOL    HW1 1337   0.235   2.911   2.635 -1.1605 -1.1462  2.5452
  446SOL    HW2 1338   0.076   2.895   2.603 -1.5761  1.2360 -0.1730
  447SOL     OW 1339   0.088   1.638   2.399 -0.1736  0.7346 -0.2628
  447SOL    HW1 1340   0.038   1.667   2.318  1.5975 -3.6829  2.7484
  447SOL    HW2 1341   0.073   1.713   2.468 -1.3704  2.1996 -0.8551
  448SOL     OW 1342   3.046   1.411   1.565 -0.3604  0.5580 -0.3158
  448SOL    HW1 1343   3.083   1.335   1.510 -0.0528  1.4221  1.5236
  448SOL    HW2 1344   2.996   1.375   1.650 -0.8179 -0.2856 -2.2462
  449SOL     OW 1345   2.293   0.109   2.677  0.3266  0.4285  0.6495
  449SOL    HW1 1346   2.207   0.143   2.723 -1.5903 -0.7141 -0.9408
  449SOL    HW2 1347   2.277   0.019   2.626 -1.7105  3.2495  0.1979
  450SOL     OW 1348   1.398   0.539   0.969 -0.2500 -0.8983  0.1172
  450SOL    HW1 1349   1.422   0.633   0.931  2.7878  0.4314 -2.7360
  450SOL    HW2 1350   1.434   0.469   0.897 -1.4113 -3.1844 -2.0823
  451SOL     OW 1351   0.678   2.414   0.065  0.3668  0.3019  0.0430
  451SOL    HW1 1352   0.635   2.448   0.144  0.1926  2.5573 -2.0452
  451SOL    HW2 1353   0.779   2.445   0.063 -0.5768  1.2799 -0.0927
  452SOL     OW 1354   1.778   0.877   1.719 -0.0607 -0.3244 -0.2439
  452SOL    HW1 1355   1.842   0.930   1.658  0.7656 -0.7370  1.6444
  452SOL    HW2 1356   1.692   0.930   1.754 -1.2110  2.6294  1.3396
  453SOL     OW 1357   0.307   0.681   1.321 -0.4794  0.3117  0.1467
  453SOL    HW1 1358   0.296   0.601   1.261 -2.3026 -0.1847  0.7268
  453SOL    HW2 1359   0.241   0.754   1.293  0.2911  1.9918 -1.3735
  454SOL     OW 1360   2.813   1.166   1.491 -0.1214 -0.0576  0.0275
  454SOL    HW1 1361   2.771   1.228   1.421  1.0125  0.3382 -0.8531
  454SOL    HW2 1362   2.854   1.218   1.570  4.7589 -0.4093 -1.1125
  455SOL     OW 1363   1.249   0.199   1.663  0.4045 -0.0700  0.0703
  455SOL    HW1 1364   1.334   0.158   1.701 -0.5321 -2.6452 -2.4467
  455SOL    HW2 1365   1.260   0.259   1.583 -0.6806  2.6481  0.1010
  456SOL     OW 1366   0.193   2.349   1.592 -0.7966 -0.0102 -0.2712
  456SOL    HW1 1367   0.286   2.309   1.577  0.7875  0.3625 -0.3421
  456SOL    HW2 1368   0.204   2.450   1.593 -0.0183  0.9820  0.5713
  457SOL     OW 1369   0.405   0.844   2.768  0.5801 -0.4250 -0.0168
  457SOL    HW1 1370   0.490   0.788   2.782  1.8835  1.1239 -2.3330
  457SOL    HW2 1371   0.319   0.805   2.808 -0.9347 -1.0122  2.6459
  458SOL     OW 1372   0.253   2.528   0.918  0.3113 -0.0602  0.4334
  458SOL    HW1 1373   0.225   2.434   0.941  1.0669 -3.6395 -1.3477
  458SOL    HW2 1374   0.173   2.577   0.871  1.2947 -0.4416 -0.4867
  459SOL     OW 1375   1.426   2.982   1.789  0.1542 -0.3722 -0.2169
  459SOL    HW1 1376   1.409   2.956   1.888  1.1062  1.8019  1.9856
  459SOL    HW2 1377   1.451   3.084   1.786 -0.1050  0.8727  0.9685
  460SOL     OW 1378   1.237   3.005   0.851  0.0832  0.0856 -0.5897
  460SOL    HW1 1379   1.293   3.076   0.898 -0.5311  0.9317 -0.4466
  460SOL    HW2 1380   1.290   2.924   0.818 -2.1720  0.9704  0.8729
  461SOL     OW 1381   1.329   2.725   0.823  0.6007  0.1257 -0.4604
  461SOL    HW1 1382   1.431   2.713   0.823 -0.3600  0.5377 -1.0190
  461SOL    HW2 1383   1.282   2.692   0.908  0.0873 -0.7337  0.6233
  462SOL     OW 1384   2.042   0.933   1.651 -0.7809  0.4052  0.1260
  462SOL    HW1 1385   2.013   1.021   1.694 -1.0191  0.6970  0.0420
  462SOL    HW2 1386   2.068   0.862   1.724  0.6837 -1.9363  1.0058
  463SOL     OW 1387   0.270   2.906   0.287  0.0135  0.1935 -0.1968
  463SOL    HW1 1388   0.250   2.898   0.388 -0.2384 -0.1950 -0.1061
  463SOL    HW2 1389   0.340   2.973   0.258 -0.5942  0.9660 -0.3264
  464SOL     OW 1390   1.837   2.533   1.102 -0.2405 -0.2190  1.0958
  464SOL    HW1 1391   1.924   2.573   1.131  3.4060 -0.6347 -2.2355
  464SOL    HW2 1392   1.819   2.437   1.138  1.1884  0.6955 -1.8842
  465SOL     OW 1393   1.806   0.952   0.874 -0.5163  0.2298 -0.0547
  465SOL    HW1 1394   1.714   1.001   0.863 -2.1457 -0.2800  1.0529
  465SOL    HW2 1395   1.814   0.901   0.959 -1.0128  0.4243 -2.5768
  466SOL     OW 1396   2.637   1.427   2.256  0.2081  0.1947  0.4691
  466SOL    HW1 1397   2.581   1.372   2.187 -0.0664 -1.4705  1.2638
  466SOL    HW2 1398   2.630   1.386   2.347 -1.1697 -0.0837 -1.2852
  467SOL     OW 1399   1.413   0.390   0.341 -0.1053 -0.1899 -0.0869
  467SOL    HW1 1400   1.410   0.290   0.351  2.1166 -1.3688 -0.7649
  467SOL    HW2 1401   1.353   0.426   0.270  1.4698 -0.2771 -1.5644
  468SOL     OW 1402   0.871   0.828   0.411  0.6669  0.6254  0.0534
  468SOL    HW1 1403   0.906   0.905   0.463  1.1532 -0.5313  2.7775
  468SOL    HW2 1404   0.803   0.848   0.338  0.3948 -1.8288 -0.4679
  469SOL     OW 1405   1.056   1.170   2.171 -0.2270 -0.0379 -0.2049
  469SOL    HW1 1406   0.971   1.116   2.181 -1.7833  0.9131 -1.4311
  469SOL    HW2 1407   1.056   1.245   2.240 -1.5229 -0.9261  2.7172
  470SOL     OW 1408   1.369   1.439   0.794  0.5260  0.2700  0.0154
  470SOL    HW1 1409   1.431   1.520   0.800 -0.5997  0.1542  2.9347
  470SOL    HW2 1410   1.328   1.412   0.886  0.7509  3.4177  2.6817
  471SOL     OW 1411   0.336   0.296   2.667  0.0576 -0.4964  0.2798
  471SOL    HW1 1412   0.342   0.350   2.754  0.2271  3.3319  0.2360
  471SOL    HW2 1413   0.406   0.223   2.655  2.7414 -0.2563 -0.4204
  472SOL     OW 1414   2.440   0.716   2.154  0.4009  0.5641  0.4480
  472SOL    HW1 1415   2.519   0.679   2.207 -0.2832  1.3702  1.4023
  472SOL    HW2 1416   2.359   0.651   2.167 -1.5907 -1.3424  1.5347
  473SOL     OW 1417   0.544   0.488   1.031 -0.3315 -0.4179 -0.3099
  473SOL    HW1 1418   0.619   0.525   1.090  1.3251  0.6587  0.3698
  473SOL    HW2 1419   0.469   0.552   1.020 -0.1051 -0.9400 -2.4788
  474SOL     OW 1420   1.677   2.295   0.217  0.5492  0.0338  0.0702
  474SOL    HW1 1421   1.598   2.240   0.181 -2.0618  0.3919 -1.6514
  474SOL    HW2 1422   1.644   2.391   0.220  0.4388  0.7546 -2.7447
  475SOL     OW 1423   1.269   0.968   0.435 -0.2387  0.7937 -0.0737
  475SOL    HW1 1424   1.205   1.009   0.501  0.0293  1.8812  0.7973
  475SOL    HW2 1425   1.355   1.028   0.412  1.7718  1.6378  0.6365
  476SOL     OW 1426   0.205   0.707   2.873  0.2907  0.1329 -0.2722
  476SOL    HW1 1427   0.149   0.633   2.830 -2.2082 -2.3071  0.2218
  476SOL    HW2 1428   0.177   0.706   2.967 -0.0351  0.2887 -0.3349
  477SOL     OW 1429   0.205   1.791   1.356  0.0469 -0.1944  0.1136
  477SOL    HW1 1430   0.201   1.747   1.449  0.9301  0.6098 -1.2753
  477SOL    HW2 1431   0.216   1.891   1.371  0.9639 -3.5679 -0.4262
  478SOL     OW 1432   0.592   2.994   2.400  0.1748  0.3533  0.4192
  478SOL    HW1 1433   0.671   3.051   2.422 -0.2113 -0.1769  1.1360
  478SOL    HW2 1434   0.513   3.017   2.457 -0.7079 -1.0408 -2.1103
  479SOL     OW 1435   1.044   2.538   1.463  0.8583 -0.7977  0.5588
  479SOL    HW1 1436   1.087   2.565   1.552  0.3823 -0.5636 -0.3757
  479SOL    HW2 1437   1.115   2.497   1.397  0.6096 -2.6806 -2.0891
  480SOL     OW 1438   0.855   0.065   2.457  0.1379 -0.1878  0.3119
  480SOL    HW1 1439   0.929   0.068   2.385 -3.6315  1.0099 -0.6875
  480SOL    HW2 1440   0.810   0.154   2.470  0.1426  1.3206 -0.1361
  481SOL     OW 1441   0.823   1.470   1.741  0.1300  0.0601 -0.0289
  481SOL    HW1 1442   0.728   1.435   1.745  0.8630 -2.8385  0.3061
  481SOL    HW2 1443   0.860   1.483   1.835 -1.2160  0.0623  1.2414
  482SOL     OW 1444   2.371   1.665   2.195 -0.3367 -0.4812  0.0418
  482SOL    HW1 1445   2.467   1.677   2.158  2.1258  2.7966 -0.0823
  482SOL    HW2 1446   2.347   1.755   2.243  0.9845 -0.3075  1.2517
  483SOL     OW 1447   0.641   0.714   2.808  0.1851 -0.5011 -0.5155
  483SOL    HW1 1448   0.656   0.615   2.809 -1.2605  0.3108 -5.1588
  483SOL    HW2 1449   0.604   0.747   2.897  0.2596  0.2231 -1.7565
  484SOL     OW 1450   0.665   2.682   2.757  0.3932 -0.5438 -0.0032
  484SOL    HW1 1451   0.595   2.756   2.770  1.4339  0.0061 -0.2894
  484SOL    HW2 1452   0.757   2.726   2.790  1.4440  3.1109 -0.6798
  485SOL     OW 1453   0.936   0.097   2.140 -0.1239  0.3092  0.1291
  485SOL    HW1 1454   0.850   0.046   2.147  3.8405  2.2626  1.0851
  485SOL    HW2 1455   0.929   0.190   2.100  0.2545 -1.2020 -0.1753
  486SOL     OW 1456   1.524   0.604   2.737 -0.2274  0.0918 -0.6457
  486SOL    HW1 1457   1.498   0.532   2.673  0.8766  1.9802 -1.4597
  486SOL    HW2 1458   1.494   0.567   2.828 -2.2863 -3.2192 -0.4227
  487SOL     OW 1459   0.935   2.806   1.439 -0.0012  0.0592 -0.7802
  487SOL    HW1 1460   0.950   2.704   1.437  1.4910 -1.4062  1.3749
  487SOL    HW2 1461   0.982   2.843   1.524 -1.9373  1.0136  2.0093
  488SOL     OW 1462   0.370   3.044   2.623  0.8680  0.1615 -0.7762
  488SOL    HW1 1463   0.449   3.110   2.627  0.9087  1.4841 -1.1354
  488SOL    HW2 1464   0.300   3.081   2.554  0.0715  1.8252  1.0732
  489SOL     OW 1465   0.120   1.042   3.098 -0.0832 -0.1950  0.6150
  489SOL    HW1 1466   0.220   1.026   3.096 -0.3267 -0.3031  0.3999
  489SOL    HW2 1467   0.091   1.074   3.009  0.1012 -0.9317  1.9964
  490SOL     OW 1468   0.845   2.794   0.656  0.2654 -0.1931  0.1936
  490SOL    HW1 1469   0.944   2.762   0.658 -1.4527  0.2499  0.2694
  490SOL    HW2 1470   0.785   2.746   0.726 -1.1466  2.1011 -1.1088
  491SOL     OW 1471   1.272   1.590   0.225 -0.6727  0.6820 -0.4530
  491SOL    HW1 1472   1.236   1.506   0.263  1.3464 -1.2435 -3.3096
  491SOL    HW2 1473   1.236   1.598   0.130 -1.0040  1.0993 -0.6106
  492SOL     OW 1474   2.606   1.634   1.700 -0.4694  0.2000 -0.2297
  492SOL    HW1 1475   2.506   1.625   1.692  1.0167  0.1724  1.4253
  492SOL    HW2 1476   2.624   1.727   1.667 -0.0850  0.2894  1.5194
  493SOL     OW 1477   0.914   0.121   2.766 -0.4135 -0.0525  0.0134
  493SOL    HW1 1478   0.922   0.096   2.865 -0.8476  1.2333 -1.6118
  493SOL    HW2 1479   0.941   0.046   2.709  0.3504  0.8901  0.8570
  494SOL     OW 1480   0.276   1.261   0.292  0.2522  0.2765 -0.3691
  494SOL    HW1 1481   0.205   1.257   0.215 -3.9862 -0.4565 -0.5863
  494SOL    HW2 1482   0.358   1.317   0.278  0.3351 -0.9213 -1.6669
  495SOL     OW 1483   1.664   1.040   1.149  0.2545 -0.0644 -0.2595
  495SOL    HW1 1484   1.638   0.944   1.146  2.0828 -0.2868 -2.8205
  495SOL    HW2 1485   1.710   1.073   1.231  0.1192 -2.1414 -0.3759
  496SOL     OW 1486   0.533   2.649   1.620  0.0389 -0.1409  0.0330
  496SOL    HW1 1487   0.575   2.717   1.561 -0.8272 -1.0652  0.0328
  496SOL    HW2 1488   0.441   2.626   1.586 -0.1056  0.3882  0.0371
  497SOL     OW 1489   0.159   2.982   2.927 -0.2380  0.1999  0.0918
  497SOL    HW1 1490   0.141   2.933   2.837  1.1461 -1.3621  0.9278
  497SOL    HW2 1491   0.126   2.923   3.007  1.3113 -1.4552  0.0432
  498SOL     OW 1492   2.062   0.310   1.350 -0.1745 -0.7320 -0.5748
  498SOL    HW1 1493   2.100   0.377   1.280 -1.1784  0.2660  0.4519
  498SOL    HW2 1494   2.139   0.283   1.411  2.1055  0.0408  1.7594
  499SOL     OW 1495   2.151   0.794   0.029 -0.2148  0.1984 -0.3051
  499SOL    HW1 1496   2.215   0.874   0.033 -0.5410  2.6377 -1.2021
  499SOL    HW2 1497   2.137   0.765  -0.064  2.5602  1.3831  4.3658
  500SOL     OW 1498   1.888   1.652   1.009 -0.2908 -0.1940 -0.2635
  500SOL    HW1 1499   1.905   1.577   0.940  2.8980 -2.7116  0.4289
  500SOL    HW2 1500   1.842   1.610   1.092 -0.7737  0.9852  3.2349
  501SOL     OW 1501   2.789   0.926   1.847  0.2767  0.2825 -0.1324
  501SOL    HW1 1502   2.736   0.936   1.758 -1.6843  2.8508 -1.0249
  501SOL    HW2 1503   2.766   0.835   1.893  0.4092 -0.0419 -0.1515
  502SOL     OW 1504   0.015   0.812   0.396  0.6482  0.4170 -0.4883
  502SOL    HW1 1505  -0.065   0.754   0.428 -0.9167 -2.5481 -0.7715
  502SOL    HW2 1506  -0.011   0.876   0.318  2.1007 -2.0123  0.4191
  503SOL     OW 1507   2.988   0.601   0.648  0.3175 -0.1767  0.1847
  503SOL    HW1 1508   2.952   0.526   0.700  3.2867  2.6785 -0.9698
  503SOL    HW2 1509   2.940   0.605   0.557  0.1274  1.3145 -0.2536
  504SOL     OW 1510   2.338   2.997   3.056 -0.3963  0.1485  0.7704
  504SOL    HW1 1511   2.368   3.076   2.991 -0.8353  3.3407  1.1800
  504SOL    HW2 1512   2.295   3.040   3.133 -0.8101 -1.8145 -0.0562
  505SOL     OW 1513   1.629   1.914   1.424  0.9349  0.3059 -0.0554
  505SOL    HW1 1514   1.553   1.979   1.401 -1.0745  1.1267 -0.0288
  505SOL    HW2 1515   1.714   1.966   1.443 -1.5739  1.5812 -1.0955
  506SOL     OW 1516   2.104   1.736   0.017  0.1771  0.0248 -0.1215
  506SOL    HW1 1517   2.149   1.714  -0.069 -1.2651  0.1659 -0.8641
  506SOL    HW2 1518   2.130   1.827   0.051  0.9609 -0.8274  0.1870
  507SOL     OW 1519   2.314   0.748   1.281  0.0880 -0.4881 -0.0029
  507SOL    HW1 1520   2.378   0.679   1.242 -0.2015 -2.0199 -2.9311
  507SOL    HW2 1521   2.349   0.787   1.370 -0.8062 -3.0026 -0.6784
  508SOL     OW 1522   2.289   1.435   0.868  0.4571 -0.1922  0.2071
  508SOL    HW1 1523   2.353   1.512   0.879  2.2388  0.5850  0.0268
  508SOL    HW2 1524   2.349   1.362   0.839  0.2472  0.8700 -0.9435
  509SOL     OW 1525   0.147   0.088   1.845 -0.0435 -0.1554 -0.2815
  509SOL    HW1 1526   0.221   0.160   1.857 -2.2609  0.3339  0.7700
  509SOL    HW2 1527   0.052   0.124   1.854 -1.1538  1.5021 -2.5555
  510SOL     OW 1528   3.070   2.704   1.231 -0.1774  0.2119 -0.0639
  510SOL    HW1 1529   3.013   2.782   1.252  2.4132  0.7085 -1.6615
  510SOL    HW2 1530   3.028   2.642   1.162  1.6743 -1.0156  2.5532
  511SOL     OW 1531   0.493   0.254   2.219 -0.5325 -0.2346 -0.2628
  511SOL    HW1 1532   0.407   0.286   2.265 -1.9252 -0.8003  2.3075
  511SOL    HW2 1533   0.503   0.292   2.127  0.3846  0.2623 -0.3300
  512SOL     OW 1534   2.881   2.261   1.365  0.1299  0.2441 -0.1393
  512SOL    HW1 1535   2.862   2.349   1.410  2.3274  0.4162 -2.7963
  512SOL    HW2 1536   2.802   2.194   1.370 -0.6232 -0.0817  2.6158
  513SOL     OW 1537   1.439   1.538   1.433  0.2158 -0.0210  0.3339
  513SOL    HW1 1538   1.479   1.614   1.375 -0.6085 -0.2965 -3.3533
  513SOL    HW2 1539   1.360   1.499   1.381 -0.2841  4.9773 -2.7271
  514SOL     OW 1540   1.956   0.015   2.217 -0.0392  0.1457 -0.1058
  514SOL    HW1 1541   1.911  -0.077   2.242 -3.7341 -3.4968  1.1968
  514SOL    HW2 1542   1.991   0.068   2.298 -0.7360 -0.4388  3.3756
  515SOL     OW 1543   1.245   2.270   0.044  0.2010  0.1009 -0.0669
  515SOL    HW1 1544   1.228   2.249  -0.053  2.3310 -0.3543  0.8904
  515SOL    HW2 1545   1.341   2.252   0.074 -1.8745  0.8049 -3.2690
  516SOL     OW 1546   1.903   2.615   2.239 -0.1191 -0.1261 -0.2564
  516SOL    HW1 1547   1.981   2.574   2.283 -1.6604 -0.1763 -1.6019
  516SOL    HW2 1548   1.848   2.540   2.200  1.6790  1.0520  1.3220
  517SOL     OW 1549   1.579   2.894   2.413  0.1811 -0.4602 -0.2105
  517SOL    HW1 1550   1.665   2.903   2.358 -0.3836 -0.9192 -1.2655
  517SOL    HW2 1551   1.547   2.981   2.455  2.9669  0.1946  1.1349
  518SOL     OW 1552   1.759   1.952   2.070 -0.0476 -0.9315 -0.2330
  518SOL    HW1 1553   1.708   1.881   2.119  0.1007  3.3201  0.7791
  518SOL    HW2 1554   1.696   2.030   2.039  0.4373  0.3885  0.5032
  519SOL     OW 1555   2.865   2.144   2.417  0.2776  0.5736  0.2393
  519SOL    HW1 1556   2.956   2.125   2.462  0.2990  0.5932 -0.6251
  519SOL    HW2 1557   2.815   2.054   2.411 -0.5996 -1.5921  1.9937
  520SOL     OW 1558   0.385   1.541   0.011  0.7847 -0.0745  0.4040
  520SOL    HW1 1559   0.363   1.446  -0.010 -2.4457  1.8907  1.0230
  520SOL    HW2 1560   0.460   1.577  -0.050  1.4204  0.0540  1.3189
  521SOL     OW 1561   2.520   2.893   0.133  0.0418 -0.8955  0.5471
  521SOL    HW1 1562   2.481   2.941   0.052  1.4012 -1.6233 -1.2755
  521SOL    HW2 1563   2.519   2.791   0.134  0.5718  0.6683  1.3076
  522SOL     OW 1564   0.672   2.261   1.050 -0.4229  0.5720 -0.1412
  522SOL    HW1 1565   0.633   2.182   1.003 -1.0630  2.6370 -0.8993
  522SOL    HW2 1566   0.609   2.343   1.040 -1.8995  0.9733 -1.0896
  523SOL     OW 1567   2.910   2.055   0.298 -0.1151  0.0743  0.3203
  523SOL    HW1 1568   2.885   2.027   0.201 -3.7901  1.8819 -1.1400
  523SOL    HW2 1569   2.886   2.152   0.306  3.2056 -0.4535  0.1164
  524SOL     OW 1570   0.419   1.959   2.696 -0.4478 -0.1763 -0.2634
  524SOL    HW1 1571   0.458   2.058   2.695  2.7781  0.2970 -3.1946
  524SOL    HW2 1572   0.361   1.937   2.781 -1.3954 -1.6797 -1.4866
  525SOL     OW 1573   1.577   2.874   0.145 -0.8146 -0.4384  0.0022
  525SOL    HW1 1574   1.496   2.819   0.115 -0.8307 -2.1556 -0.5066
  525SOL    HW2 1575   1.644   2.887   0.073 -0.6471  0.4176 -0.0257
  526SOL     OW 1576   1.267   2.152   2.449  0.2831  0.2013 -0.2778
  526SOL    HW1 1577   1.295   2.143   2.350  1.4588 -1.5123 -2.3264
  526SOL    HW2 1578   1.166   2.168   2.454  0.8477 -1.6927  1.4421
  527SOL     OW 1579   0.046   2.968   0.806  0.1838  0.0705 -0.1504
  527SOL    HW1 1580   0.071   2.876   0.838 -0.8036 -2.1703  0.2895
  527SOL    HW2 1581   0.111   3.038   0.838 -1.1049 -0.8979  0.0856
  528SOL     OW 1582   1.186   2.559   3.062 -0.2069  0.0723 -0.6850
  528SOL    HW1 1583   1.210   2.473   3.108  0.9939  0.5835 -1.3294
  528SOL    HW2 1584   1.140   2.543   2.973  1.5187  2.0466 -0.4450
  529SOL     OW 1585   2.037   0.437   3.021 -0.6949 -0.6310  0.1817
  529SOL    HW1 1586   2.010   0.516   2.962  0.8664 -0.7874 -0.9404
  529SOL    HW2 1587   2.069   0.475   3.109  0.2947  0.4627  1.5193
  530SOL     OW 1588   1.101   0.804   1.890  0.4505  0.1547 -0.0987
  530SOL    HW1 1589   1.147   0.851   1.818 -3.9803 -0.4732  1.3054
  530SOL    HW2 1590   1.150   0.818   1.982  1.5788 -3.1646  2.0814
  531SOL     OW 1591   3.018   1.745   2.222 -0.1356 -0.3360 -0.7147
  531SOL    HW1 1592   2.964   1.665   2.189  1.3352  2.2487  0.4239
  531SOL    HW2 1593   3.041   1.804   2.144  2.7825  2.0464  0.0029
  532SOL     OW 1594   1.791   1.037   2.730 -0.2341  0.2056 -0.8316
  532SOL    HW1 1595   1.789   1.092   2.813 -0.8346 -2.7111  0.5999
  532SOL    HW2 1596   1.733   0.954   2.752 -2.4560 -1.1845 -0.2465
  533SOL     OW 1597   2.051   0.242   2.427 -0.0675  0.3834 -0.0253
  533SOL    HW1 1598   2.007   0.322   2.376 -1.1336 -0.4711 -0.8154
  533SOL    HW2 1599   2.012   0.235   2.520 -2.0543 -0.5670  0.0551
  534SOL     OW 1600   1.194   0.738   2.772 -0.4161  0.2434 -0.2169
  534SOL    HW1 1601   1.253   0.808   2.739 -1.7613 -3.3346 -1.1502
  534SOL    HW2 1602   1.177   0.683   2.688 -1.0656  0.3805  1.1193
  535SOL     OW 1603   0.259   2.044   1.456  0.1649 -0.4149  0.4488
  535SOL    HW1 1604   0.162   2.049   1.487  1.4018  1.0756  0.8804
  535SOL    HW2 1605   0.307   2.117   1.510  2.8997  1.1352  1.9005
  536SOL     OW 1606   0.686   0.926   0.243 -0.2707  0.9255 -0.4604
  536SOL    HW1 1607   0.590   0.895   0.269 -1.4807  0.4031  0.5466
  536SOL    HW2 1608   0.679   0.977   0.159 -1.0753  1.2074  3.7112
  537SOL     OW 1609   2.911   0.405   0.817 -0.0900 -0.5589  0.3604
  537SOL    HW1 1610   2.981   0.328   0.822 -1.1610  0.8888  1.1211
  537SOL    HW2 1611   2.882   0.453   0.905  0.5307 -0.5653 -0.3090
  538SOL     OW 1612   0.710   0.664   1.200 -0.3724  0.1313 -0.7621
  538SOL    HW1 1613   0.630   0.659   1.258  0.6486 -0.7469 -4.7331
  538SOL    HW2 1614   0.789   0.605   1.233  0.8570  1.0652 -2.1728
  539SOL     OW 1615   2.322   1.137   2.744  0.8552  0.2176 -0.5211
  539SOL    HW1 1616   2.312   1.045   2.696 -0.4528 -1.6430  1.4012
  539SOL    HW2 1617   2.234   1.185   2.745  1.4983 -1.5696  0.4885
  540SOL     OW 1618   1.553   1.711   1.250  0.8073 -0.7036  0.0655
  540SOL    HW1 1619   1.563   1.785   1.321  0.2288  1.3928  1.2238
  540SOL    HW2 1620   1.524   1.754   1.159  0.9855  0.3118 -1.9905
  541SOL     OW 1621   1.457   1.114   1.502 -0.0751  0.2098 -0.3742
  541SOL    HW1 1622   1.409   1.062   1.429  2.0046 -1.0245  2.0323
  541SOL    HW2 1623   1.556   1.100   1.484 -4.0153  0.3911 -1.7499
  542SOL     OW 1624   3.096   2.628   1.511 -0.0625  0.0487 -0.8059
  542SOL    HW1 1625   3.101   2.597   1.411  2.8069 -1.5700 -0.8007
  542SOL    HW2 1626   3.069   2.727   1.525  0.7838  1.6319  1.3690
  543SOL     OW 1627   0.369   0.536   0.676 -0.0535 -0.3295 -1.0364
  543SOL    HW1 1628   0.297   0.604   0.646  3.9424 -1.5253  0.8596
  543SOL    HW2 1629   0.410   0.483   0.599 -0.2675  0.7198 -0.6507
  544SOL     OW 1630   3.026   2.882   2.501 -0.2174  0.2154  0.2945
  544SOL    HW1 1631   3.039   2.976   2.461 -0.8257  0.5729  0.3232
  544SOL    HW2 1632   3.004   2.813   2.428 -1.5428  3.3564 -0.8974
  545SOL     OW 1633   0.981   1.397   1.940 -0.9581  0.3767  0.0996
  545SOL    HW1 1634   1.012   1.457   2.013  2.5051  0.1034  0.4584
  545SOL    HW2 1635   0.979   1.301   1.971 -2.6822 -1.4254  1.2631
  546SOL     OW 1636   3.028   2.725   2.246  1.1143  0.3619  0.0685
  546SOL    HW1 1637   3.121   2.755   2.221 -1.2161  0.3360 -0.7875
  546SOL    HW2 1638   2.952   2.767   2.192 -3.0865 -1.8513 -1.2650
  547SOL     OW 1639   1.936   0.163   1.748 -0.3356 -0.2651 -0.1407
  547SOL    HW1 1640   1.835   0.157   1.725 -2.0315 -0.5217  1.4930
  547SOL    HW2 1641   1.993   0.161   1.662 -0.3402  1.3827 -0.4740
  548SOL     OW 1642   2.739   0.814   0.758 -0.1569  0.0961  0.0048
  548SOL    HW1 1643   2.821   0.776   0.804 -1.8568  0.8805 -2.4857
  548SOL    HW2 1644   2.663   0.813   0.820  0.7186  1.4300  1.4550
  549SOL     OW 1645   1.947   2.128   1.701 -0.0271  0.2049 -0.0506
  549SOL    HW1 1646   2.024   2.194   1.687  2.1381 -0.6713  0.6620
  549SOL    HW2 1647   1.947   2.073   1.788 -0.1147  2.2961 -1.7483
  550SOL     OW 1648   2.402   0.170   2.086 -0.2031  0.1390  0.2849
  550SOL    HW1 1649   2.448   0.262   2.075 -1.2426 -0.0702  0.0513
  550SOL    HW2 1650   2.349   0.172   2.174  0.5581  1.8499 -0.8016
  551SOL     OW 1651   0.793   2.000   0.272 -0.3887 -0.5468 -0.0835
  551SOL    HW1 1652   0.791   2.053   0.184 -0.7011 -0.5950 -0.8004
  551SOL    HW2 1653   0.880   2.019   0.321 -0.3252  1.9775 -0.7380
  552SOL     OW 1654   1.707   1.188   2.513  0.5078 -0.0186 -0.4790
  552SOL    HW1 1655   1.711   1.130   2.597 -0.3931 -2.0063  0.4609
  552SOL    HW2 1656   1.781   1.159   2.452 -0.1913 -1.5026  0.6797
  553SOL     OW 1657   1.283   0.969   1.332 -0.2821 -0.0266  0.2792
  553SOL    HW1 1658   1.346   0.899   1.293  0.6313  1.2429  0.7310
  553SOL    HW2 1659   1.196   0.927   1.366  1.5734 -2.6041  0.3932
  554SOL     OW 1660   2.370   1.279   2.109 -0.1297  0.3000 -0.0388
  554SOL    HW1 1661   2.320   1.323   2.030 -2.0346  0.2106  0.6155
  554SOL    HW2 1662   2.369   1.181   2.099 -0.2518  0.7659 -0.1847
  555SOL     OW 1663   2.255   3.000   2.549 -1.0494  0.0453  0.3065
  555SOL    HW1 1664   2.228   2.918   2.605  1.4017 -0.7662  0.9083
  555SOL    HW2 1665   2.302   2.968   2.463  1.2110  0.8173 -0.8266
  556SOL     OW 1666   1.771   2.968   0.699 -0.5738 -0.3374  0.0963
  556SOL    HW1 1667   1.702   2.986   0.775 -0.5019 -1.9200 -0.6249
  556SOL    HW2 1668   1.718   2.935   0.621  0.5669  0.5458 -1.2370
  557SOL     OW 1669   1.996   1.957   2.263  0.1831 -0.8845 -0.4022
  557SOL    HW1 1670   1.930   1.937   2.189 -1.4650  0.4178 -2.6728
  557SOL    HW2 1671   1.955   2.019   2.334 -0.6709  2.2093  0.2123
  558SOL     OW 1672   0.332   2.878   0.944  0.0999 -0.1668 -0.4268
  558SOL    HW1 1673   0.301   2.974   0.928  0.0391  0.2774 -0.6836
  558SOL    HW2 1674   0.289   2.835   1.029 -0.9680  1.4699 -1.0071
  559SOL     OW 1675   1.416   0.422   1.212  0.0540 -0.1207 -0.6291
  559SOL    HW1 1676   1.401   0.473   1.127  2.1408 -2.0306  1.7201
  559SOL    HW2 1677   1.517   0.402   1.223  0.7235 -0.8848  0.8731
  560SOL     OW 1678   2.736   1.527   1.060  0.4108  0.3770 -0.1679
  560SOL    HW1 1679   2.806   1.484   1.125 -0.5051 -0.8465  0.2654
  560SOL    HW2 1680   2.766   1.516   0.963 -1.2595  4.0663 -0.1153
  561SOL     OW 1681   0.271   0.377   1.741  0.4859  0.0810 -0.3877
  561SOL    HW1 1682   0.306   0.378   1.835 -1.2024  1.7308  1.5575
  561SOL    HW2 1683   0.255   0.469   1.707 -1.1903 -2.0345  0.9600
  562SOL     OW 1684   1.885   0.704   2.168  0.4654 -0.4583 -0.2474
  562SOL    HW1 1685   1.790   0.710   2.127 -1.5568 -0.3298  0.7555
  562SOL    HW2 1686   1.951   0.649   2.109 -1.4736  0.4624  1.8044
  563SOL     OW 1687   2.977   0.722   0.887 -0.3183  0.2384  0.2930
  563SOL    HW1 1688   2.970   0.675   0.798  1.6954 -0.2859  0.8279
  563SOL    HW2 1689   2.989   0.656   0.962  0.7104 -3.2354 -1.0200
  564SOL     OW 1690   0.201   0.197   1.558  0.1858 -0.2514  0.2178
  564SOL    HW1 1691   0.206   0.267   1.635 -0.3537 -1.8484 -1.8117
  564SOL    HW2 1692   0.202   0.105   1.604 -2.1337 -1.7068  0.5616
  565SOL     OW 1693   1.732   2.287   2.561 -0.2619  0.1544 -0.3038
  565SOL    HW1 1694   1.763   2.189   2.561  1.6621 -1.2066  0.2082
  565SOL    HW2 1695   1.656   2.302   2.628  0.7425  0.2488  1.6913
  566SOL     OW 1696   2.743   0.553   0.985  0.0109  0.1721 -0.2076
  566SOL    HW1 1697   2.654   0.594   0.950 -1.5240  3.1748 -0.8155
  566SOL    HW2 1698   2.755   0.554   1.086  0.4002  0.5825 -0.4192
  567SOL     OW 1699   2.743   0.089   0.752  0.0525  0.2653 -0.1823
  567SOL    HW1 1700   2.654   0.098   0.808 -0.0244 -0.0194 -0.1955
  567SOL    HW2 1701   2.801   0.011   0.781  0.7095  0.1405 -0.7461
  568SOL     OW 1702   1.280   0.348   2.947 -0.1786  0.3591 -0.1561
  568SOL    HW1 1703   1.296   0.347   2.846 -2.2275 -0.6886 -1.2996
  568SOL    HW2 1704   1.193   0.393   2.956  0.7072  0.3901  0.4259
  569SOL     OW 1705   0.513   2.193   0.048 -0.5826  0.3925 -0.7698
  569SOL    HW1 1706   0.571   2.269   0.071 -0.9476 -2.7679 -1.9215
  569SOL    HW2 1707   0.552   2.138  -0.030 -1.3218  1.2702  1.1064
  570SOL     OW 1708   2.088   1.031   0.321  0.0226  0.8382  0.2229
  570SOL    HW1 1709   2.066   1.046   0.416  0.6828  1.2260  2.1173
  570SOL    HW2 1710   2.014   0.982   0.269 -0.5890  1.1596  0.7748
  571SOL     OW 1711   2.383   2.839   0.384  0.1649 -0.3600  0.5708
  571SOL    HW1 1712   2.437   2.867   0.301  0.5851 -1.9405 -0.9864
  571SOL    HW2 1713   2.344   2.922   0.421  2.6594  0.0316 -0.0032
  572SOL     OW 1714   2.523   2.633   0.134 -0.0338  0.1027  0.1148
  572SOL    HW1 1715   2.623   2.607   0.119  0.7010 -0.9459  0.2377
  572SOL    HW2 1716   2.460   2.556   0.119 -1.2895 -2.6361 -2.0534
  573SOL     OW 1717   2.064   1.924   2.571  0.4724 -0.5217 -0.0117
  573SOL    HW1 1718   2.038   1.878   2.654 -0.5531 -0.8613 -2.3693
  573SOL    HW2 1719   2.112   1.860   2.511  1.8418 -0.2685  2.8287
  574SOL     OW 1720   0.859   1.935   2.742 -0.6819  0.0017  0.5080
  574SOL    HW1 1721   0.831   1.839   2.762  0.6875  2.4238 -4.0166
  574SOL    HW2 1722   0.808   1.969   2.663 -0.3248 -0.0794  2.7811
  575SOL     OW 1723   2.685   2.366   0.504  0.3703  0.8930  0.0082
  575SOL    HW1 1724   2.614   2.433   0.482  0.8525 -1.9420 -1.3520
  575SOL    HW2 1725   2.747   2.400   0.580 -0.7272  0.6621 -1.1629
  576SOL     OW 1726   0.457   1.844   0.440  0.1631 -0.1302  0.0995
  576SOL    HW1 1727   0.366   1.882   0.463  0.3923 -3.5607  1.6497
  576SOL    HW2 1728   0.522   1.925   0.440  0.0913 -0.8331 -1.2066
  577SOL     OW 1729   2.624   0.212   1.192 -0.0511 -0.4693 -0.0873
  577SOL    HW1 1730   2.524   0.216   1.202  1.2696  1.0562 -0.5476
  577SOL    HW2 1731   2.646   0.141   1.125  0.6393 -1.1520 -2.3496
  578SOL     OW 1732   0.211   1.965   0.980  0.4038 -0.1250  0.4012
  578SOL    HW1 1733   0.142   1.905   0.941  1.7380 -0.5545 -0.1007
  578SOL    HW2 1734   0.265   2.013   0.907  3.1995  0.9552  0.3110
  579SOL     OW 1735   1.552   2.043   2.827  0.2326  0.0682  0.4067
  579SOL    HW1 1736   1.568   2.143   2.828 -0.3581 -1.1791  1.6977
  579SOL    HW2 1737   1.520   2.009   2.737 -0.3767  1.5773 -0.7381
  580SOL     OW 1738   2.976   1.150   0.920  0.4900 -0.3353 -0.1289
  580SOL    HW1 1739   3.079   1.159   0.939  1.5975 -0.0025 -0.1065
  580SOL    HW2 1740   2.931   1.240   0.917  1.5566  2.7079  1.4347
  581SOL     OW 1741   2.950   0.705   2.137 -0.2871 -0.1996 -0.1024
  581SOL    HW1 1742   3.004   0.789   2.168  2.7641  1.8220  0.5806
  581SOL    HW2 1743   2.954   0.635   2.209 -1.6880  2.9446  2.0705
  582SOL     OW 1744   2.092   0.980   1.065 -0.5054  0.6195 -0.2822
  582SOL    HW1 1745   2.020   0.905   1.082 -1.2922 -1.6717 -0.7428
  582SOL    HW2 1746   2.046   1.063   1.040 -0.1293 -0.1060  0.3122
  583SOL     OW 1747   0.727   1.696   2.754 -0.2052 -0.2723 -0.2556
  583SOL    HW1 1748   0.626   1.681   2.763  0.6727  0.9142 -0.5231
  583SOL    HW2 1749   0.769   1.645   2.674 -0.2807 -0.3378 -2.6331
  584SOL     OW 1750   2.276   0.312   0.164 -0.7009  0.1462  0.0306
  584SOL    HW1 1751   2.356   0.364   0.201  0.2537 -1.3834 -0.7452
  584SOL    HW2 1752   2.195   0.375   0.141 -0.2465  0.5889 -0.1885
  585SOL     OW 1753   2.339   2.404   0.330  0.5982 -0.0246 -0.2964
  585SOL    HW1 1754   2.413   2.375   0.268  0.4183 -1.6853  2.6618
  585SOL    HW2 1755   2.274   2.325   0.328 -1.6261 -0.3083 -0.1165
  586SOL     OW 1756   2.121   1.367   2.513  0.4432  0.2604  0.2785
  586SOL    HW1 1757   2.191   1.386   2.438  0.1904  0.4810 -3.3474
  586SOL    HW2 1758   2.067   1.282   2.481  1.7271 -0.7171 -2.2295
  587SOL     OW 1759   0.364   1.949   2.983  0.3604  0.8540  0.6790
  587SOL    HW1 1760   0.264   1.946   3.003 -0.5879  2.1770  1.2158
  587SOL    HW2 1761   0.416   1.908   3.055 -1.5789 -0.8601 -3.2519
  588SOL     OW 1762   0.769   0.250   1.245  0.0776 -0.5366 -0.0358
  588SOL    HW1 1763   0.741   0.207   1.157  0.4953  1.9913  1.1865
  588SOL    HW2 1764   0.689   0.307   1.279  0.5681 -0.7785  0.3611
  589SOL     OW 1765   1.125   1.422   1.673 -0.1719  0.5744  0.1677
  589SOL    HW1 1766   1.049   1.450   1.605 -1.0624  0.7502  0.1410
  589SOL    HW2 1767   1.079   1.377   1.751 -3.3922 -0.4026 -1.2288
  590SOL     OW 1768   0.377   2.023   1.196  0.5777  0.1448  0.0484
  590SOL    HW1 1769   0.324   2.046   1.282  0.7440  3.2465  0.1583
  590SOL    HW2 1770   0.313   1.985   1.125 -0.9390  1.3535  0.8448
  591SOL     OW 1771   0.724   1.131   0.432 -0.2512 -0.2250  0.7157
  591SOL    HW1 1772   0.723   1.068   0.352  1.7832  2.0404  1.7938
  591SOL    HW2 1773   0.713   1.072   0.511  1.0586 -0.9658 -0.2491
  592SOL     OW 1774   1.279   0.179   0.543  0.4208 -0.2246 -0.3148
  592SOL    HW1 1775   1.263   0.280   0.553 -0.5700 -1.9498 -2.0714
  592SOL    HW2 1776   1.208   0.128   0.592 -1.4222  1.3504 -1.0527
  593SOL     OW 1777   2.709   0.934   1.582 -0.7043  0.2729  0.0148
  593SOL    HW1 1778   2.746   1.023   1.555 -1.4500  0.2594  1.5983
  593SOL    HW2 1779   2.626   0.944   1.639  1.2315 -2.8039 -0.6046
  594SOL     OW 1780   1.811   0.131   2.023 -0.7345 -0.1230 -0.0636
  594SOL    HW1 1781   1.856   0.080   2.096  2.9591 -0.5330  0.6880
  594SOL    HW2 1782   1.858   0.126   1.931  2.5755  1.4231 -2.3708
  595SOL     OW 1783   0.647   1.224   2.123 -0.5487 -0.4349 -0.2408
  595SOL    HW1 1784   0.675   1.319   2.138 -1.6523 -1.3681  0.1284
  595SOL    HW2 1785   0.552   1.198   2.151  0.1865  0.7696  1.3017
  596SOL     OW 1786   2.272   3.069   0.821  0.3242 -0.1140  1.1004
  596SOL    HW1 1787   2.204   3.017   0.870 -0.8655  0.1787 -4.0461
  596SOL    HW2 1788   2.277   3.033   0.726 -3.0111  0.7467  0.4110
  597SOL     OW 1789   2.383   1.104   2.425 -0.2759 -0.1316  0.1183
  597SOL    HW1 1790   2.470   1.058   2.443 -1.2148 -2.1365 -0.3253
  597SOL    HW2 1791   2.352   1.102   2.324 -1.3444 -1.1154 -0.5328
  598SOL     OW 1792   0.845   1.385   1.199 -0.3215  0.7496 -0.3977
  598SOL    HW1 1793   0.838   1.289   1.234 -0.3510  0.7585 -0.2290
  598SOL    HW2 1794   0.868   1.388   1.100 -1.0083  0.6606 -3.5361
  599SOL     OW 1795   2.030   1.084   0.574  0.2513  0.0292 -0.1699
  599SOL    HW1 1796   1.975   1.001   0.602  0.9799 -1.0516 -1.7810
  599SOL    HW2 1797   2.112   1.105   0.631  1.1223 -0.4816  0.5505
  600SOL     OW 1798   1.132   1.137   0.600  0.2685 -0.0122 -0.9598
  600SOL    HW1 1799   1.178   1.223   0.619 -1.3451 -2.5877 -1.3351
  600SOL    HW2 1800   1.048   1.150   0.547  0.0173 -0.8550  1.8378
  601SOL     OW 1801   2.531   2.342   0.154 -0.6086 -0.3486 -0.5090
  601SOL    HW1 1802   2.553   2.365   0.059  2.4024 -0.0946  0.9318
  601SOL    HW2 1803   2.610   2.293   0.201  0.5837  1.3548  0.9905
  602SOL     OW 1804   1.590   1.621   0.855  0.1269  0.2989 -0.6260
  602SOL    HW1 1805   1.621   1.596   0.954 -1.5031 -0.8514  3.3219
  602SOL    HW2 1806   1.629   1.711   0.832 -3.1557 -1.7101 -0.9696
  603SOL     OW 1807   2.464   0.536   1.178 -0.8893 -0.0130 -0.4029
  603SOL    HW1 1808   2.463   0.478   1.098  1.9477 -3.2208  2.0574
  603SOL    HW2 1809   2.558   0.552   1.210 -0.2314 -0.8699 -1.6959
  604SOL     OW 1810   0.700   1.478   2.193  0.1744  0.1748 -0.1748
  604SOL    HW1 1811   0.758   1.560   2.197  0.3815 -0.0891 -0.8996
  604SOL    HW2 1812   0.612   1.488   2.244  0.2499  2.2907 -1.0397
  605SOL     OW 1813   0.375   1.267   1.104  0.2299  0.4357  0.2909
  605SOL    HW1 1814   0.374   1.312   1.197  0.8319  0.1935  1.7681
  605SOL    HW2 1815   0.401   1.168   1.111  2.9868  1.0025 -1.2996
  606SOL     OW 1816   0.814   0.031   1.426 -0.2218  0.3224 -0.2679
  606SOL    HW1 1817   0.816   0.125   1.380  0.0792 -2.3836  0.2992
  606SOL    HW2 1818   0.728   0.019   1.480 -0.1985  0.1709  2.0612
  607SOL     OW 1819   1.761   1.552   1.209 -0.3517  0.1905  0.4887
  607SOL    HW1 1820   1.684   1.619   1.211 -1.3895 -2.0407 -2.2284
  607SOL    HW2 1821   1.741   1.464   1.153  1.0307 -2.2077 -1.2594
  608SOL     OW 1822   2.095   1.963   1.136  0.5027 -0.2088  0.2897
  608SOL    HW1 1823   2.008   1.924   1.098  2.0027  1.4659  2.2201
  608SOL    HW2 1824   2.156   1.887   1.152 -3.2899 -0.6394 -2.7850
  609SOL     OW 1825   0.512   2.734   2.297  0.5536 -0.2115  0.1266
  609SOL    HW1 1826   0.483   2.664   2.364 -0.4873  0.3238  0.2020
  609SOL    HW2 1827   0.574   2.808   2.338  3.0158 -0.9510 -1.0834
  610SOL     OW 1828   2.697   1.782   1.148  0.6116  0.4661 -0.3681
  610SOL    HW1 1829   2.702   1.693   1.101  1.2824 -0.2456 -0.1294
  610SOL    HW2 1830   2.744   1.781   1.237 -0.3104 -0.7068 -1.5607
  611SOL     OW 1831   0.372   0.009   3.052  0.5931  0.0345 -0.6160
  611SOL    HW1 1832   0.422  -0.073   3.083 -0.2748  1.7506  1.1023
  611SOL    HW2 1833   0.320  -0.007   2.963 -1.1701 -0.3875  2.4484
  612SOL     OW 1834   1.922   0.869   0.158  0.5008  0.4070  0.7619
  612SOL    HW1 1835   1.833   0.817   0.170 -1.3389 -1.5085  0.0564
  612SOL    HW2 1836   1.993   0.809   0.114  0.0495 -1.9742 -0.5759
  613SOL     OW 1837   3.055   2.326   0.696  0.1560 -0.2004  0.3932
  613SOL    HW1 1838   3.065   2.243   0.637 -1.2064  1.0809  1.2552
  613SOL    HW2 1839   3.144   2.364   0.730 -1.7860 -0.1394 -0.4592
  614SOL     OW 1840   0.551   0.240   1.600  0.6061 -0.3087 -0.4901
  614SOL    HW1 1841   0.533   0.295   1.519  0.0694 -2.9371  2.4721
  614SOL    HW2 1842   0.490   0.264   1.683 -0.1971  1.3725  0.8681
  615SOL     OW 1843   0.333   0.660   0.934  0.2478  0.2041  0.4866
  615SOL    HW1 1844   0.345   0.632   0.837  0.3633 -0.0027  0.8222
  615SOL    HW2 1845   0.249   0.713   0.945  0.2609 -1.6885  0.1706
  616SOL     OW 1846   0.084   1.043   1.638  0.0750  0.1259  0.4143
  616SOL    HW1 1847   0.061   1.065   1.542  1.0929  0.7981  1.2307
  616SOL    HW2 1848   0.176   1.003   1.632 -0.0754  0.7764  0.5154
  617SOL     OW 1849   1.723   0.524   0.936  0.4775 -0.0473 -0.3045
  617SOL    HW1 1850   1.639   0.470   0.912  0.9603  0.2904  0.0714
  617SOL    HW2 1851   1.807   0.486   0.894 -0.7674 -0.7093  1.3830
  618SOL     OW 1852   0.166   2.949   0.545  0.1181 -0.4047  0.1511
  618SOL    HW1 1853   0.086   2.971   0.487  3.7705  2.0553  0.2895
  618SOL    HW2 1854   0.149   2.941   0.646 -1.2171 -2.4846  1.5900
  619SOL     OW 1855   2.054   0.604   0.426 -0.3069  0.2971 -0.2971
  619SOL    HW1 1856   2.101   0.691   0.455  2.9953 -1.0641  1.5669
  619SOL    HW2 1857   1.954   0.622   0.411 -0.3792  1.2576  0.2703
  620SOL     OW 1858   1.758   2.382   2.113 -0.1070 -0.3846  0.3722
  620SOL    HW1 1859   1.851   2.341   2.098  1.9557 -2.3287  0.2924
  620SOL    HW2 1860   1.723   2.446   2.040 -0.8102  3.1482  0.5500
  621SOL     OW 1861   2.676   1.341   1.848  0.3668  0.1919 -0.0027
  621SOL    HW1 1862   2.703   1.438   1.843 -1.1305 -1.4165 -2.2846
  621SOL    HW2 1863   2.582   1.337   1.812  0.2955  0.6654 -1.1558
  622SOL     OW 1864   1.550   2.927   2.921  0.6285  0.5500 -0.8124
  622SOL    HW1 1865   1.630   2.948   2.986  0.7765  0.5771  0.9724
  622SOL    HW2 1866   1.601   2.905   2.833  0.4436  2.4951 -1.2042
  623SOL     OW 1867   0.600   0.273   0.238  0.1787  0.9022  0.0385
  623SOL    HW1 1868   0.565   0.291   0.331  1.5110  0.6930 -3.1654
  623SOL    HW2 1869   0.519   0.250   0.179  0.2258 -0.9664 -1.5920
  624SOL     OW 1870   0.985   2.141   2.893  0.3032 -0.6326 -0.2176
  624SOL    HW1 1871   0.916   2.086   2.834 -1.2542  2.3250 -2.0904
  624SOL    HW2 1872   1.064   2.092   2.933 -0.2647  1.7256  0.4581
  625SOL     OW 1873   2.781   2.316   0.264 -0.1780  0.0225 -0.7160
  625SOL    HW1 1874   2.814   2.387   0.197 -2.4017  0.9017 -1.5463
  625SOL    HW2 1875   2.775   2.353   0.358  1.0205  0.5932  2.0126
  626SOL     OW 1876   2.543   0.752   0.335 -0.3327  0.6186  0.9334
  626SOL    HW1 1877   2.518   0.831   0.278 -0.3304 -0.3539  3.5396
  626SOL    HW2 1878   2.525   0.761   0.435 -0.3146 -1.0619 -0.8885
  627SOL     OW 1879   1.570   1.094   0.841 -0.4434  0.4008 -0.1043
  627SOL    HW1 1880   1.535   1.125   0.749  0.7251 -1.7880 -0.0391
  627SOL    HW2 1881   1.541   1.148   0.922  0.4113  3.5427 -2.0931
  628SOL     OW 1882   1.349   2.480   2.103  0.3498  0.4172  0.2632
  628SOL    HW1 1883   1.329   2.490   2.202  2.4544  0.9444 -1.4440
  628SOL    HW2 1884   1.395   2.392   2.078 -2.2093  0.2635 -1.1437
  629SOL     OW 1885   2.308   0.905   1.523 -0.0400  0.1956 -0.1479
  629SOL    HW1 1886   2.215   0.915   1.560  1.8463 -2.7259 -1.8136
  629SOL    HW2 1887   2.366   0.982   1.536  0.7508 -3.1188 -0.2888
  630SOL     OW 1888   1.566   2.302   0.711 -0.2164 -0.0849  0.4640
  630SOL    HW1 1889   1.628   2.360   0.772 -1.1630 -0.0625  3.5456
  630SOL    HW2 1890   1.617   2.294   0.624  0.8700 -1.4845  2.4230
  631SOL     OW 1891   1.204   1.431   1.313  0.8535 -0.4872  0.2198
  631SOL    HW1 1892   1.184   1.335   1.341 -0.7236 -0.1950  1.6495
  631SOL    HW2 1893   1.117   1.487   1.295 -0.4426 -0.0626 -1.3932
  632SOL     OW 1894   0.321   1.637   1.121  0.3338  0.0455  0.2232
  632SOL    HW1 1895   0.294   1.709   1.183 -2.5542  0.7075  0.1677
  632SOL    HW2 1896   0.319   1.657   1.021 -1.6369 -0.9862  0.1244
  633SOL     OW 1897   0.089   2.843   0.085  0.4992  0.2553 -0.2424
  633SOL    HW1 1898   0.093   2.744   0.111 -0.8220  1.5879  2.6559
  633SOL    HW2 1899   0.143   2.902   0.146 -0.3482  1.1651 -0.6624
  634SOL     OW 1900   2.328   1.861   0.169 -0.0828 -0.1916 -0.1823
  634SOL    HW1 1901   2.403   1.836   0.229 -1.0054  0.1587  0.0722
  634SOL    HW2 1902   2.241   1.876   0.220  4.0965  1.1694  1.3113
  635SOL     OW 1903   2.087   1.803   0.296 -0.3757 -0.5866  0.0905
  635SOL    HW1 1904   2.087   1.878   0.367  1.8498 -1.4914 -2.3921
  635SOL    HW2 1905   1.996   1.753   0.296 -2.1912  2.2389  0.8923
  636SOL     OW 1906   0.081   2.258   0.003 -0.0078 -0.4133  0.4430
  636SOL    HW1 1907  -0.023   2.269  -0.017 -1.3153  1.1603 -1.3065
  636SOL    HW2 1908   0.093   2.161   0.017 -0.9243  4.4024  1.0891
  637SOL     OW 1909   1.418   2.013   0.390  0.3068 -0.2048 -0.1734
  637SOL    HW1 1910   1.373   2.019   0.483  2.6483 -1.3842  0.5767
  637SOL    HW2 1911   1.363   1.948   0.335  1.4492  0.4531  0.3138
  638SOL     OW 1912   1.315   0.044   2.116 -0.1394  0.0441 -0.6856
  638SOL    HW1 1913   1.298  -0.054   2.107 -1.7744  0.9562  1.4591
  638SOL    HW2 1914   1.249   0.093   2.176  0.2798  2.1977  3.2258
  639SOL     OW 1915   1.878   1.321   2.096  0.0095  0.0603  0.2216
  639SOL    HW1 1916   1.780   1.310   2.072 -1.3527  0.8792 -0.2659
  639SOL    HW2 1917   1.896   1.415   2.135 -1.0933 -2.0798  0.9494
  640SOL     OW 1918   1.154   0.491   1.440  0.0704  0.3234 -0.5956
  640SOL    HW1 1919   1.140   0.515   1.342 -0.2045  2.0990 -0.5256
  640SOL    HW2 1920   1.223   0.417   1.446 -0.5589 -2.5512 -0.3546
  641SOL     OW 1921   0.788   0.436   0.324  0.4095 -0.1911  0.3732
  641SOL    HW1 1922   0.713   0.370   0.288 -2.3130 -1.3696 -1.6004
  641SOL    HW2 1923   0.870   0.380   0.350 -1.3510  1.5491  1.9130
  642SOL     OW 1924   2.231   2.541   0.003  0.0626  0.2593 -0.2518
  642SOL    HW1 1925   2.232   2.586   0.095  0.2185  0.5228  4.8829
  642SOL    HW2 1926   2.152   2.486  -0.017  0.7538  1.6197  2.1365
  643SOL     OW 1927   2.116   2.444   2.333  0.3642 -0.2436 -0.3206
  643SOL    HW1 1928   2.189   2.492   2.382 -3.8666  1.3183 -0.9079
  643SOL    HW2 1929   2.139   2.350   2.309 -1.1762 -1.0475 -1.5813
  644SOL     OW 1930   0.542   2.578   0.307 -0.1246 -0.7635 -0.5125
  644SOL    HW1 1931   0.569   2.503   0.371 -1.3147 -0.4606  2.2866
  644SOL    HW2 1932   0.442   2.589   0.319  0.4511 -0.0962  0.9007
  645SOL     OW 1933   0.431   0.861   2.125 -0.6498 -0.0892  0.1895
  645SOL    HW1 1934   0.393   0.956   2.139 -0.3906  1.0373 -2.4955
  645SOL    HW2 1935   0.493   0.836   2.197 -0.9977 -0.9075  0.2014
  646SOL     OW 1936   1.976   2.642   0.196  0.0737 -0.8522 -0.0885
  646SOL    HW1 1937   1.911   2.670   0.268 -0.0126 -1.7774 -0.4459
  646SOL    HW2 1938   2.071   2.635   0.229 -2.0625  1.9934 -1.6453
  647SOL     OW 1939   2.945   2.972   0.161  0.0914  0.4375 -0.1697
  647SOL    HW1 1940   3.007   2.917   0.105 -1.3313 -1.1855  2.8233
  647SOL    HW2 1941   2.911   3.045   0.094 -0.0247  1.7998  0.2871
  648SOL     OW 1942   0.946   2.593   2.351 -0.1205  0.5977  0.1249
  648SOL    HW1 1943   1.007   2.523   2.395 -1.1467  0.6601 -0.4745
  648SOL    HW2 1944   0.867   2.600   2.416  1.0928  0.1066  3.6047
  649SOL     OW 1945   1.507   0.830   0.543 -0.1937  0.0913 -0.0649
  649SOL    HW1 1946   1.415   0.861   0.513 -1.3897  0.5711 -1.4561
  649SOL    HW2 1947   1.579   0.869   0.482  2.9611  1.8239  1.0507
  650SOL     OW 1948   1.698   1.385   0.732  0.7885  0.5339 -0.4281
  650SOL    HW1 1949   1.644   1.471   0.736  3.1290  2.1679  2.0639
  650SOL    HW2 1950   1.647   1.303   0.694  0.0753 -1.6396 -0.0844
  651SOL     OW 1951   0.821   0.728   1.555  0.2241  0.7213 -0.1468
  651SOL    HW1 1952   0.739   0.703   1.499 -1.1208  2.5148 -0.9513
  651SOL    HW2 1953   0.870   0.640   1.594  0.4577 -0.7689  3.9479
  652SOL     OW 1954   1.956   2.510   2.812 -0.0752  0.2981 -0.1716
  652SOL    HW1 1955   1.978   2.453   2.895  1.2014  1.4045  0.1093
  652SOL    HW2 1956   1.976   2.461   2.726  0.1179 -1.2843  0.6662
  653SOL     OW 1957   1.154   2.619   1.975  0.0735 -0.5138  0.7872
  653SOL    HW1 1958   1.062   2.593   2.013  2.0311  0.2909 -2.3964
  653SOL    HW2 1959   1.232   2.563   2.006 -1.0811 -1.2927 -0.0348
  654SOL     OW 1960   2.468   1.213   0.847  0.3807 -0.7778 -0.2370
  654SOL    HW1 1961   2.461   1.190   0.946  1.8961  4.5793 -0.5799
  654SOL    HW2 1962   2.562   1.208   0.812  0.4037 -1.1298 -0.0085
  655SOL     OW 1963   0.311   1.646   1.783  0.3748 -0.2948 -0.0625
  655SOL    HW1 1964   0.351   1.715   1.721  1.8240 -2.9779  0.5343
  655SOL    HW2 1965   0.385   1.600   1.838 -0.2624  0.6101 -0.3455
  656SOL     OW 1966   1.246   2.477   2.673  0.0954 -0.0373  0.1954
  656SOL    HW1 1967   1.163   2.528   2.707 -0.8811 -0.8069  1.7454
  656SOL    HW2 1968   1.333   2.519   2.699  0.2938 -0.9063  2.4447
  657SOL     OW 1969   0.110   0.846   1.225  0.2691  0.3316 -0.1684
  657SOL    HW1 1970   0.016   0.817   1.256 -0.2503  1.4472 -0.6586
  657SOL    HW2 1971   0.115   0.845   1.121 -2.1215  1.2934 -2.2595
  658SOL     OW 1972   2.441   2.874   1.152  0.3909 -0.6371 -0.3235
  658SOL    HW1 1973   2.491   2.809   1.089 -0.5101  0.6913  0.9500
  658SOL    HW2 1974   2.364   2.919   1.100 -2.2243  1.0580 -1.2798
  659SOL     OW 1975   1.936   2.735   3.051 -0.0042  0.2321  0.1183
  659SOL    HW1 1976   1.953   2.681   3.137  0.2003  1.5571  0.9057
  659SOL    HW2 1977   1.932   2.677   2.963  1.0976 -0.3782 -0.9231
  660SOL     OW 1978   0.483   0.861   1.871 -0.3452 -0.0191 -0.1149
  660SOL    HW1 1979   0.466   0.860   1.969 -0.4735  1.7996 -2.3454
  660SOL    HW2 1980   0.554   0.932   1.854  1.5659 -0.6199 -0.6732
  661SOL     OW 1981   2.567   1.335   2.499  0.0433  0.0730 -0.0808
  661SOL    HW1 1982   2.579   1.338   2.605  0.4163  1.6425  0.7148
  661SOL    HW2 1983   2.471   1.306   2.476  1.0025 -1.8785  0.5204
  662SOL     OW 1984   0.558   2.067   0.896 -0.0235 -0.3326 -0.0495
  662SOL    HW1 1985   0.589   1.973   0.913 -2.4077  2.3791  0.2590
  662SOL    HW2 1986   0.466   2.069   0.849  3.5043  1.6297  0.4708
  663SOL     OW 1987   2.339   2.048   3.090  0.0005 -0.1161  0.2318
  663SOL    HW1 1988   2.429   2.075   3.047 -0.7205  1.3397  0.6674
  663SOL    HW2 1989   2.349   1.960   3.142  0.6655  0.5509  0.5551
  664SOL     OW 1990   2.805   2.560   0.107  0.0885  0.5877 -0.3064
  664SOL    HW1 1991   2.829   2.577   0.006  1.8970  0.0615  1.8236
  664SOL    HW2 1992   2.887   2.570   0.163  1.3232 -1.2974  0.8191
  665SOL     OW 1993   1.932   1.732   2.746  0.6686 -0.4198  0.4292
  665SOL    HW1 1994   1.888   1.789   2.815 -2.2953  1.8936 -0.8573
  665SOL    HW2 1995   1.976   1.654   2.793  0.6353  0.2374  1.2029
  666SOL     OW 1996   2.734   0.522   1.535  0.2134  0.0858 -0.1594
  666SOL    HW1 1997   2.750   0.425   1.495  0.0986 -2.5450  1.0905
  666SOL    HW2 1998   2.824   0.559   1.567 -1.4860 -0.3479 -1.9919
  667SOL     OW 1999   2.038   0.591   1.552 -0.1829 -0.1958 -0.5228
  667SOL    HW1 2000   1.956   0.630   1.603 -3.1659 -3.6222  1.2532
  667SOL    HW2 2001   2.040   0.615   1.451  2.3236  0.3076  2.6159
  668SOL     OW 2002   1.686   0.971   2.190  0.0558  0.4699 -0.1419
  668SOL    HW1 2003   1.678   0.938   2.289 -1.8997  0.5468  0.5921
  668SOL    HW2 2004   1.682   0.896   2.122 -1.3556 -1.6023  1.1879
  669SOL     OW 2005   2.047   2.357   3.027 -0.0405  0.2223  0.1880
  669SOL    HW1 2006   2.086   2.273   2.993 -0.1958 -2.0673 -0.9459
  669SOL    HW2 2007   2.011   2.346   3.120  0.5592  3.0527 -0.1150
  670SOL     OW 2008   2.032   0.541   2.025  0.4929 -0.2552 -0.2061
  670SOL    HW1 2009   1.980   0.473   2.082  1.5757  2.6242  2.2065
  670SOL    HW2 2010   2.067   0.492   1.945 -0.5161  1.6879  2.7964
  671SOL     OW 2011   0.632   0.601   0.767 -0.1616 -0.1565 -0.0155
  671SOL    HW1 2012   0.630   0.601   0.664  2.0952 -3.4328 -0.2484
  671SOL    HW2 2013   0.549   0.560   0.807  0.6208  1.1459 -0.8990
  672SOL     OW 2014   0.199   2.182   2.240 -0.0073 -0.1616  0.4682
  672SOL    HW1 2015   0.272   2.158   2.178 -1.6564  1.3911  2.6291
  672SOL    HW2 2016   0.205   2.132   2.330  0.1919  0.6575  0.7686
  673SOL     OW 2017   2.822   1.530   2.589  0.1749 -0.2150  0.1137
  673SOL    HW1 2018   2.755   1.577   2.529 -0.0038 -0.9857  0.0453
  673SOL    HW2 2019   2.773   1.469   2.654  0.8331 -0.0922  0.6984
  674SOL     OW 2020   0.065   1.182   2.888 -0.1257  0.1519  0.5161
  674SOL    HW1 2021  -0.009   1.243   2.915 -1.2516 -3.2855 -1.1636
  674SOL    HW2 2022   0.027   1.116   2.822  1.5185  0.7702  3.2395
  675SOL     OW 2023   0.584   0.125   2.652  0.0352  0.5010 -0.0134
  675SOL    HW1 2024   0.650   0.086   2.722  0.1273 -0.4031  2.8821
  675SOL    HW2 2025   0.623   0.182   2.577 -0.7143  0.6191 -0.3491
  676SOL     OW 2026   2.779   2.716   0.431 -0.3200 -0.0853  0.1733
  676SOL    HW1 2027   2.688   2.667   0.439 -2.2977  0.9212 -0.3113
  676SOL    HW2 2028   2.765   2.810   0.401  0.4301 -0.9862  3.2623
  677SOL     OW 2029   2.382   1.897   2.321 -0.0164  0.5385 -0.0616
  677SOL    HW1 2030   2.452   1.950   2.369 -2.7987  1.5373 -3.3089
  677SOL    HW2 2031   2.309   1.853   2.385  0.2376 -1.6845  2.3488
  678SOL     OW 2032   0.438   2.500   1.916  0.0837  0.2693  0.0081
  678SOL    HW1 2033   0.342   2.534   1.931 -1.1354  2.4681  0.3623
  678SOL    HW2 2034   0.442   2.476   1.819  2.6941  0.5665 -0.0251
  679SOL     OW 2035   2.344   2.048   2.104  0.2892  0.2586  0.5943
  679SOL    HW1 2036   2.351   1.983   2.182 -0.0198  2.3369  1.3760
  679SOL    HW2 2037   2.439   2.082   2.080  0.4898  1.3482  1.1518
  680SOL     OW 2038   2.850   2.681   0.855  0.7394 -0.5832  0.2874
  680SOL    HW1 2039   2.758   2.726   0.854 -2.7244 -1.3436 -1.8541
  680SOL    HW2 2040   2.845   2.599   0.794  2.1614 -0.1932  1.3852
  681SOL     OW 2041   0.441   2.553   2.487 -0.1677 -0.2228 -0.0582
  681SOL    HW1 2042   0.385   2.559   2.572 -0.9470  0.7045  2.2713
  681SOL    HW2 2043   0.450   2.454   2.466  0.0318 -0.1506  1.0023
  682SOL     OW 2044   0.078   1.364   0.470  0.1244  0.4642 -0.3562
  682SOL    HW1 2045   0.133   1.357   0.384  1.3448 -2.7251  1.1650
  682SOL    HW2 2046   0.005   1.295   0.479  0.7310  1.6415 -3.1184
  683SOL     OW 2047   2.229   1.372   0.461  0.0030  0.1561 -0.2324
  683SOL    HW1 2048   2.240   1.438   0.384  1.5958  0.6955 -0.3062
  683SOL    HW2 2049   2.134   1.362   0.498  1.5646 -1.3012  2.2211
  684SOL     OW 2050   2.864   1.981   0.051  0.2294  0.1247  0.0984
  684SOL    HW1 2051   2.938   1.911   0.073 -0.0468 -1.4591  0.8423
  684SOL    HW2 2052   2.802   1.950  -0.025 -2.6387 -3.2357 -0.8037
  685SOL     OW 2053   2.837   1.605   1.925  0.3075 -0.0974 -0.3433
  685SOL    HW1 2054   2.895   1.614   1.843 -0.1477 -0.0632  0.1104
  685SOL    HW2 2055   2.757   1.666   1.931  0.2552  0.0860  2.0743
  686SOL     OW 2056   0.071   1.295   0.123  0.3613 -0.5777  0.3443
  686SOL    HW1 2057   0.067   1.203   0.084 -1.8975  2.0316  1.6783
  686SOL    HW2 2058  -0.019   1.320   0.160  2.5886  0.8433 -0.2726
  687SOL     OW 2059   1.097   0.039   0.661  0.3566 -0.0167 -0.1287
  687SOL    HW1 2060   1.142  -0.022   0.728  1.7132 -2.4599  1.9407
  687SOL    HW2 2061   1.014  -0.010   0.630 -0.3657 -2.9361  1.1896
  688SOL     OW 2062   2.487   1.250   0.047  0.6685  0.2173 -0.5810
  688SOL    HW1 2063   2.404   1.198   0.019 -0.4686  2.8766  1.9043
  688SOL    HW2 2064   2.569   1.206   0.012 -0.4461  3.6962 -4.0155
  689SOL     OW 2065   1.149   1.899   2.938  0.0626 -0.4298 -0.8823
  689SOL    HW1 2066   1.137   1.873   2.838  4.2514 -1.3529 -1.1922
  689SOL    HW2 2067   1.247   1.927   2.961 -0.7285  1.6458 -0.6546
  690SOL     OW 2068   2.170   0.660   2.904  0.3580  0.1193  0.4870
  690SOL    HW1 2069   2.140   0.683   2.808 -1.9822 -0.6658  0.0086
  690SOL    HW2 2070   2.251   0.598   2.900 -2.3999 -0.8788  0.0465
  691SOL     OW 2071   0.682   2.651   0.915  0.2375  0.2283  0.2039
  691SOL    HW1 2072   0.657   2.707   0.995 -0.2256 -0.6109  1.7936
  691SOL    HW2 2073   0.636   2.560   0.935 -1.4513 -2.7807  0.3964
  692SOL     OW 2074   0.662   2.842   1.417 -0.4715 -0.5461  0.7285
  692SOL    HW1 2075   0.642   2.937   1.444  2.1190  1.1510 -1.2146
  692SOL    HW2 2076   0.761   2.832   1.392  0.3010  0.2345 -0.9210
  693SOL     OW 2077   0.965   0.144   1.656  0.0887  0.2742  0.2706
  693SOL    HW1 2078   1.062   0.173   1.661  0.2176  0.3732  1.2227
  693SOL    HW2 2079   0.944   0.103   1.573  3.0639 -0.0647  4.7810
  694SOL     OW 2080   0.979   3.042   1.868  0.2699  0.6807 -0.5630
  694SOL    HW1 2081   0.982   3.066   1.967 -1.5218 -0.8474 -1.0852
  694SOL    HW2 2082   0.947   3.118   1.812  0.0343 -1.9192  1.2999
  695SOL     OW 2083   1.949   0.206   0.507 -0.2359  0.6741 -0.3537
  695SOL    HW1 2084   1.879   0.239   0.439 -2.3813  0.5164  2.1755
  695SOL    HW2 2085   1.907   0.188   0.600  2.9065 -3.4681  0.9999
  696SOL     OW 2086   1.919   1.577   0.080 -0.0765 -0.4138 -0.5415
  696SOL    HW1 2087   1.994   1.645   0.050  1.1487 -2.0237 -0.0250
  696SOL    HW2 2088   1.880   1.619   0.164 -1.8824  0.4485 -0.8370
  697SOL     OW 2089   2.043   0.048   1.473 -0.5732  0.3209 -0.6734
  697SOL    HW1 2090   2.045   0.133   1.418  1.6405 -0.3719  1.7786
  697SOL    HW2 2091   2.138   0.033   1.516  0.1938 -1.1738  0.4302
  698SOL     OW 2092   1.742   2.950   2.713  0.4045 -0.2313 -0.0827
  698SOL    HW1 2093   1.731   2.962   2.616  1.1034  4.8138  1.2988
  698SOL    HW2 2094   1.806   2.874   2.728  0.6994  0.9979  1.8278
  699SOL     OW 2095   0.690   1.377   2.895  0.7082  0.1352 -0.2306
  699SOL    HW1 2096   0.601   1.381   2.847  2.7653  1.3241 -0.2143
  699SOL    HW2 2097   0.765   1.370   2.825  3.0705 -0.0734  0.2539
  700SOL     OW 2098   2.910   0.732   1.593 -0.4276  0.4205 -0.2750
  700SOL    HW1 2099   2.908   0.716   1.697  1.9232 -0.9211  1.4574
  700SOL    HW2 2100   2.845   0.804   1.567 -1.1853 -3.3037 -0.9075
  701SOL     OW 2101   1.370   1.985   2.616  0.0977 -0.4153 -0.6221
  701SOL    HW1 2102   1.339   2.068   2.562  1.1293  1.2543  2.7897
  701SOL    HW2 2103   1.289   1.941   2.657  1.6799 -0.1087 -0.7755
  702SOL     OW 2104   2.132   0.308   1.905 -0.1106 -0.4374  0.4510
  702SOL    HW1 2105   2.084   0.232   1.858  0.0370 -0.7138  1.8581
  702SOL    HW2 2106   2.219   0.327   1.854 -2.1655  0.9990  0.7370
  703SOL     OW 2107   2.387   0.943   3.059 -0.3137  0.1092  0.1030
  703SOL    HW1 2108   2.470   0.967   3.106 -0.1119 -2.7163 -1.4496
  703SOL    HW2 2109   2.323   1.022   3.040 -1.0736  0.8450 -2.6277
  704SOL     OW 2110   0.342   0.102   0.439  0.4367 -0.2149  0.4700
  704SOL    HW1 2111   0.250   0.144   0.461 -3.2651 -0.6987  0.6645
  704SOL    HW2 2112   0.358   0.035   0.512 -1.4733  1.0503 -0.5924
  705SOL     OW 2113   1.967   0.381   0.922 -0.0089 -0.5162 -0.1024
  705SOL    HW1 2114   2.048   0.335   0.883 -0.6824 -3.5070 -0.0336
  705SOL    HW2 2115   1.923   0.329   1.001  0.2505  0.6439  2.9524
  706SOL     OW 2116   2.555   2.188   2.041 -0.0340 -0.3791  0.1046
  706SOL    HW1 2117   2.592   2.202   1.945  2.7648  3.1990 -1.6300
  706SOL    HW2 2118   2.625   2.226   2.105  0.4356  1.8166 -0.2849
  707SOL     OW 2119   0.380   1.017   3.034  0.3464  0.0464 -0.1848
  707SOL    HW1 2120   0.409   0.948   2.962  0.6910  0.4097 -3.2964
  707SOL    HW2 2121   0.462   1.036   3.096  0.4943 -1.5333 -0.4141
  708SOL     OW 2122   1.693   1.371   1.004 -0.2900  0.4297 -0.3147
  708SOL    HW1 2123   1.693   1.360   0.903 -1.3018  0.2142  1.3126
  708SOL    HW2 2124   1.618   1.312   1.047 -1.1983  0.1621  2.2781
  709SOL     OW 2125   0.053   2.364   2.083 -0.2822  0.3723 -0.5424
  709SOL    HW1 2126   0.113   2.297   2.139  1.3804  0.2823 -0.6178
  709SOL    HW2 2127   0.040   2.327   1.987  3.0264 -2.6507 -0.6646
  710SOL     OW 2128   1.470   0.813   0.882 -0.1708 -0.2744 -0.2059
  710SOL    HW1 2129   1.474   0.894   0.820  1.8587 -0.0295 -4.1742
  710SOL    HW2 2130   1.551   0.805   0.949  2.1458  0.6408  1.9125
  711SOL     OW 2131   0.446   1.588   0.501 -0.4401 -0.4561  0.0731
  711SOL    HW1 2132   0.431   1.690   0.485 -1.0245  2.4634 -0.2520
  711SOL    HW2 2133   0.476   1.543   0.412 -0.0715 -3.2903  0.2392
  712SOL     OW 2134   2.849   0.598   2.928 -0.4113 -0.1041 -0.1462
  712SOL    HW1 2135   2.781   0.561   2.996  0.5173  1.2433  0.2874
  712SOL    HW2 2136   2.815   0.683   2.893  2.1506  2.0275 -2.0143
  713SOL     OW 2137   1.612   2.407   2.344 -0.2516 -0.0952 -0.0583
  713SOL    HW1 2138   1.670   2.404   2.259 -0.2998 -1.7843 -0.5580
  713SOL    HW2 2139   1.642   2.343   2.424 -0.1310  0.8433  0.8507
  714SOL     OW 2140   1.712   1.442   0.425 -0.2658  0.2058 -0.1559
  714SOL    HW1 2141   1.791   1.406   0.484  1.1838  0.8683  1.4667
  714SOL    HW2 2142   1.655   1.497   0.486 -0.4536 -3.7323  1.0315
  715SOL     OW 2143   1.790   2.886   2.230 -0.1746 -0.1454  0.1997
  715SOL    HW1 2144   1.760   2.898   2.132 -0.6868  1.0591  0.9739
  715SOL    HW2 2145   1.828   2.793   2.233  1.3907 -1.0703 -3.4246
  716SOL     OW 2146   0.098   2.932   1.827  0.1750 -0.1004  0.6167
  716SOL    HW1 2147  -0.003   2.928   1.855 -0.5661  1.4476 -1.3047
  716SOL    HW2 2148   0.126   3.031   1.820 -0.3747  0.6766 -1.6319
  717SOL     OW 2149   0.818   1.111   1.265 -0.2181  0.1342 -0.5629
  717SOL    HW1 2150   0.778   1.081   1.354  2.3709  0.2593  0.4818
  717SOL    HW2 2151   0.794   1.045   1.193 -0.2966 -0.3775 -0.1500
  718SOL     OW 2152   1.040   0.467   3.020  0.0057  0.2215  0.1153
  718SOL    HW1 2153   0.946   0.432   3.040  1.1515  1.2605  2.7946
  718SOL    HW2 2154   1.048   0.569   3.017 -0.7248  0.8413  0.4086
  719SOL     OW 2155   2.066   2.727   2.039  0.0746  0.4747  0.3705
  719SOL    HW1 2156   2.034   2.728   1.940  2.2169 -1.1590 -3.3374
  719SOL    HW2 2157   1.996   2.694   2.109 -0.8369  1.2102  0.0897
  720SOL     OW 2158   1.544   1.025   1.761  0.2947  0.0779  0.1110
  720SOL    HW1 2159   1.503   1.116   1.786 -0.8790 -0.9715  2.3533
  720SOL    HW2 2160   1.555   1.020   1.661 -0.1142  1.3638  0.8910
  721SOL     OW 2161   2.003   2.290   2.056  0.3647  0.0902 -0.2929
  721SOL    HW1 2162   2.048   2.257   2.140  0.4132 -0.1754 -0.8878
  721SOL    HW2 2163   2.066   2.349   2.005 -1.8165 -3.9059 -1.8021
  722SOL     OW 2164   2.644   2.850   1.578  0.5552 -0.0301 -0.1966
  722SOL    HW1 2165   2.584   2.771   1.609 -0.4621 -0.3939  0.3852
  722SOL    HW2 2166   2.600   2.912   1.508 -0.0842  0.1653  0.0461
  723SOL     OW 2167   2.960   0.095   1.831 -0.4671 -0.0884 -0.1270
  723SOL    HW1 2168   2.883   0.094   1.768  0.5000  0.5349  1.1929
  723SOL    HW2 2169   2.958   0.004   1.884 -1.2573  1.7486  0.1535
  724SOL     OW 2170   3.033   0.991   0.205 -0.1955 -0.5911  0.3947
  724SOL    HW1 2171   3.099   1.005   0.131 -0.0036 -1.1441 -1.7996
  724SOL    HW2 2172   2.949   0.962   0.155  1.3688  0.9502  1.2707
  725SOL     OW 2173   1.710   2.746   0.334 -0.3259 -0.4608 -0.0121
  725SOL    HW1 2174   1.668   2.721   0.422  1.3428  1.4596  1.1935
  725SOL    HW2 2175   1.642   2.772   0.262  0.7860  1.0204 -0.2725
  726SOL     OW 2176   2.941   0.130   1.031  0.1118 -0.0924 -0.1782
  726SOL    HW1 2177   2.850   0.092   1.007  1.1223  0.6708  0.0875
  726SOL    HW2 2178   3.002   0.129   0.954 -1.2706 -0.0407  1.0121
  727SOL     OW 2179   0.304   2.089   1.858  0.1271  0.3906  0.0999
  727SOL    HW1 2180   0.231   2.163   1.844  0.8920  2.7052 -0.6005
  727SOL    HW2 2181   0.315   2.064   1.958 -1.8442  0.2524 -0.6906
  728SOL     OW 2182   1.443   3.056   2.621 -0.2864  0.3003 -0.0346
  728SOL    HW1 2183   1.502   3.116   2.681 -0.6712  1.6993  0.7818
  728SOL    HW2 2184   1.407   2.978   2.673  1.6319 -0.0997  0.8613
  729SOL     OW 2185   2.139   1.300   1.409  0.0167 -0.0378  0.1385
  729SOL    HW1 2186   2.165   1.356   1.329  0.9196 -1.3663 -0.9850
  729SOL    HW2 2187   2.171   1.204   1.398  1.3153  0.9132 -2.0295
  730SOL     OW 2188   2.161   1.652   0.632  0.0452 -0.2946 -0.3266
  730SOL    HW1 2189   2.207   1.599   0.561 -0.3142 -1.7154  1.6200
  730SOL    HW2 2190   2.081   1.601   0.669 -0.0220 -1.2352 -0.6677
  731SOL     OW 2191   2.635   2.089   0.499  0.2360  0.3140  0.1951
  731SOL    HW1 2192   2.681   2.068   0.584 -0.0235  0.9686  1.4017
  731SOL    HW2 2193   2.648   2.190   0.488  0.4414  0.8500  2.2339
  732SOL     OW 2194   3.077   1.650   0.513  0.6037 -0.1187  0.5070
  732SOL    HW1 2195   3.010   1.683   0.445  0.3441  1.0944  1.1855
  732SOL    HW2 2196   3.100   1.555   0.496 -0.0078  1.4392 -1.7146
  733SOL     OW 2197   2.518   0.695   0.888 -0.1016 -0.0782 -0.4639
  733SOL    HW1 2198   2.520   0.786   0.931  2.5925  1.1080  0.5005
  733SOL    HW2 2199   2.430   0.646   0.872  0.8311 -0.1768 -2.3978
  734SOL     OW 2200   0.697   1.314   0.198 -0.0202  0.2797 -0.5483
  734SOL    HW1 2201   0.709   1.271   0.290 -1.3903  1.0655 -1.2233
  734SOL    HW2 2202   0.789   1.337   0.161 -1.2399  0.0447  1.8510
  735SOL     OW 2203   0.721   1.009   2.441 -0.8404  0.3205  0.4007
  735SOL    HW1 2204   0.776   1.003   2.355  0.4385  3.0858 -0.7636
  735SOL    HW2 2205   0.720   0.915   2.482  0.1346  2.0602 -3.2445
  736SOL     OW 2206   1.721   1.530   3.001  0.1688 -0.0411 -0.0090
  736SOL    HW1 2207   1.782   1.568   3.071 -1.5932  0.3076 -1.4680
  736SOL    HW2 2208   1.648   1.470   3.040 -1.4197 -3.8684  1.2780
  737SOL     OW 2209   0.222   0.995   0.732 -0.0193  0.0999 -0.0693
  737SOL    HW1 2210   0.205   1.047   0.644 -0.9177  1.4998 -0.4744
  737SOL    HW2 2211   0.311   0.949   0.727 -0.5511  2.6041  0.9250
  738SOL     OW 2212   2.801   1.871   2.429 -0.5954 -0.9339  0.3552
  738SOL    HW1 2213   2.765   1.779   2.428  0.6224 -2.1546 -0.0619
  738SOL    HW2 2214   2.892   1.873   2.385 -0.8249  0.4156 -2.1146
  739SOL     OW 2215   0.818   0.837   1.968 -0.3194  0.5272 -0.0695
  739SOL    HW1 2216   0.768   0.909   1.915 -0.9933 -1.1976 -1.9803
  739SOL    HW2 2217   0.903   0.807   1.920 -0.6267 -1.3882 -0.9547
  740SOL     OW 2218   1.115   2.737   0.639  0.2563 -0.1317  0.3616
  740SOL    HW1 2219   1.184   2.766   0.703  1.0338  0.5127 -0.5809
  740SOL    HW2 2220   1.149   2.725   0.542 -0.0311 -0.4516  0.4159
  741SOL     OW 2221   3.002   1.150   0.437  0.0594 -0.2658 -0.3988
  741SOL    HW1 2222   2.923   1.116   0.492 -0.2506 -2.0168  0.7135
  741SOL    HW2 2223   3.036   1.079   0.377  1.4583 -1.6085  2.8210
  742SOL     OW 2224   0.876   0.473   1.303  0.1544 -0.1447  0.2114
  742SOL    HW1 2225   0.860   0.488   1.402 -3.7423 -1.0967  1.0460
  742SOL    HW2 2226   0.848   0.377   1.283  2.4883  2.1209  2.5357
  743SOL     OW 2227   1.453   0.279   2.020 -0.7670  0.2275  0.0406
  743SOL    HW1 2228   1.382   0.216   2.043 -0.0696  0.9317 -1.2685
  743SOL    HW2 2229   1.428   0.374   2.051  2.3311  2.5531 -1.2324
  744SOL     OW 2230   1.699   2.324   1.697  0.3166  0.0169  0.2556
  744SOL    HW1 2231   1.610   2.269   1.704  0.3311 -0.6030 -1.6371
  744SOL    HW2 2232   1.776   2.260   1.683 -0.5908 -0.3002 -0.5129
  745SOL     OW 2233   2.484   2.893   2.764 -0.1630 -0.0860  0.1050
  745SOL    HW1 2234   2.411   2.871   2.830 -0.8628  0.7940  0.0999
  745SOL    HW2 2235   2.450   2.964   2.700 -0.5910 -0.1595  0.4175
  746SOL     OW 2236   0.314   1.757   2.329 -0.3245 -0.2540 -0.1515
  746SOL    HW1 2237   0.249   1.692   2.364 -0.5650  1.0846 -2.2927
  746SOL    HW2 2238   0.308   1.756   2.225 -1.9575 -0.3594 -2.1245
  747SOL     OW 2239   2.306   2.629   2.483  0.0462  0.3233  0.0863
  747SOL    HW1 2240   2.386   2.589   2.539  0.3386  1.7380 -0.0032
  747SOL    HW2 2241   2.246   2.674   2.551 -0.3363 -0.4911 -1.1572
  748SOL     OW 2242   3.025   3.016   0.420  0.2771  0.5124 -0.2250
  748SOL    HW1 2243   3.035   3.118   0.439  1.0777  0.8437  0.8937
  748SOL    HW2 2244   3.011   2.996   0.322 -2.0834 -2.8611  0.7875
  749SOL     OW 2245   0.929   0.243   0.827  0.3813 -0.1129 -0.7804
  749SOL    HW1 2246   0.996   0.205   0.760  0.7827  0.9186  0.1791
  749SOL    HW2 2247   0.975   0.300   0.897 -2.3268 -1.7974  2.3281
  750SOL     OW 2248   2.505   1.877   0.376 -0.3847  0.5816  0.1646
  750SOL    HW1 2249   2.560   1.951   0.424  1.6649  1.5107 -0.1948
  750SOL    HW2 2250   2.565   1.803   0.331  1.5230 -0.2307 -0.0233
  751SOL     OW 2251   2.302   0.418   2.923 -0.1558  0.2860 -0.0512
  751SOL    HW1 2252   2.205   0.430   2.964 -0.1846  3.1913 -1.5863
  751SOL    HW2 2253   2.355   0.339   2.962  0.3780 -0.6970 -0.6988
  752SOL     OW 2254   2.502   1.001   1.747 -0.1261 -0.3197 -0.2312
  752SOL    HW1 2255   2.433   0.937   1.790  0.7487 -0.8430 -1.9112
  752SOL    HW2 2256   2.463   1.075   1.689 -0.4340  2.2615 -0.1516
  753SOL     OW 2257   2.942   0.027   1.309 -0.3525  0.4479  0.6534
  753SOL    HW1 2258   2.906  -0.068   1.310 -0.2486 -1.4211  1.9499
  753SOL    HW2 2259   2.967   0.057   1.213  0.7852  0.9592 -1.5019
  754SOL     OW 2260   1.960   1.664   1.681 -0.0159 -0.0005  0.1020
  754SOL    HW1 2261   1.878   1.656   1.747 -1.2567 -0.8867 -0.2321
  754SOL    HW2 2262   1.927   1.687   1.584 -3.2445 -0.8251 -0.1780
  755SOL     OW 2263   2.729   0.344   2.238  0.6913 -0.1070 -0.2898
  755SOL    HW1 2264   2.698   0.281   2.313 -0.7040  0.3824  1.7634
  755SOL    HW2 2265   2.660   0.345   2.157  1.7829 -0.3203  1.4971
  756SOL     OW 2266   3.082   2.514   2.764  0.6481 -0.6489 -0.4097
  756SOL    HW1 2267   3.178   2.544   2.775 -0.1855 -0.4815 -1.2649
  756SOL    HW2 2268   3.066   2.480   2.669  0.8773 -1.8972  1.3135
  757SOL     OW 2269   0.983   0.637   0.575 -1.1275  0.5028 -0.0386
  757SOL    HW1 2270   0.956   0.618   0.671  1.3433 -1.5205 -0.1370
  757SOL    HW2 2271   0.922   0.704   0.527  0.6920  1.0170 -2.6106
  758SOL     OW 2272   3.045   1.777   0.094  0.3023  0.3533 -0.7749
  758SOL    HW1 2273   3.084   1.692   0.058 -0.1355  2.8046  0.0596
  758SOL    HW2 2274   3.021   1.757   0.194 -0.2769 -2.4488  2.3040
  759SOL     OW 2275   0.624   1.190   0.888 -0.3163  0.2501 -0.2789
  759SOL    HW1 2276   0.534   1.206   0.934  1.4165  2.0956  0.5820
  759SOL    HW2 2277   0.689   1.267   0.900  0.6451  1.0246  0.1362
  760SOL     OW 2278   2.221   1.652   2.869 -0.0204  0.2462  0.7438
  760SOL    HW1 2279   2.275   1.732   2.836  0.7528 -0.2002  1.8739
  760SOL    HW2 2280   2.227   1.579   2.796 -0.4378  0.0881  2.2365
  761SOL     OW 2281   2.347   2.979   1.799 -0.1010 -0.2712 -0.3803
  761SOL    HW1 2282   2.433   2.951   1.848  1.6097 -1.4279  0.5737
  761SOL    HW2 2283   2.278   3.023   1.857 -2.7351 -2.0483 -2.0797
  762SOL     OW 2284   2.470   0.736   2.923  0.1129 -0.2174 -0.3198
  762SOL    HW1 2285   2.428   0.803   2.988  1.2252  0.8275 -0.0410
  762SOL    HW2 2286   2.446   0.740   2.827 -0.0238  3.2697  0.7764
  763SOL     OW 2287   0.547   1.711   1.439  0.0912 -0.0032  0.3476
  763SOL    HW1 2288   0.574   1.761   1.354  0.6559  2.0728 -1.2541
  763SOL    HW2 2289   0.626   1.700   1.505 -0.4088  1.9652  0.8493
  764SOL     OW 2290   2.980   2.565   0.345  0.2404  0.1551  0.2216
  764SOL    HW1 2291   2.897   2.618   0.381 -0.8927 -0.1393  2.1920
  764SOL    HW2 2292   3.059   2.572   0.412  2.8101  1.7027  0.6235
  765SOL     OW 2293   0.746   2.046   2.503 -0.5300 -0.0468  0.6253
  765SOL    HW1 2294   0.653   2.021   2.482  3.2833  0.6036  1.6025
  765SOL    HW2 2295   0.760   2.145   2.485 -1.7974 -1.9161 -3.0502
  766SOL     OW 2296   1.085   2.851   1.048 -0.3814  0.4946 -0.4604
  766SOL    HW1 2297   1.124   2.903   0.967  3.4092  1.1043  1.3977
  766SOL    HW2 2298   1.025   2.908   1.105 -0.5926 -0.9851 -0.4756
  767SOL     OW 2299   1.101   1.926   2.642  0.0204  0.1204 -0.3547
  767SOL    HW1 2300   1.009   1.932   2.688 -0.1912 -1.2461  0.2747
  767SOL    HW2 2301   1.104   1.833   2.601 -0.9593  0.9756 -0.5090
  768SOL     OW 2302   1.342   0.542   2.081 -0.7283 -0.2496  0.5568
  768SOL    HW1 2303   1.293   0.496   2.006 -3.0867 -0.5237 -1.0407
  768SOL    HW2 2304   1.325   0.641   2.082  0.4291  2.1103 -1.4192
  769SOL     OW 2305   2.921   1.750   0.333 -0.7318 -0.5633 -0.1305
  769SOL    HW1 2306   2.828   1.729   0.303 -0.9570 -0.7847  2.7162
  769SOL    HW2 2307   2.930   1.846   0.362 -1.0636 -0.9243  2.2447
  770SOL     OW 2308   0.982   2.602   1.022  0.0781  0.2549 -0.2248
  770SOL    HW1 2309   0.895   2.590   0.969  2.1646 -0.2170  0.2261
  770SOL    HW2 2310   1.015   2.699   1.012  0.9965 -0.2975  1.9872
  771SOL     OW 2311   0.319   1.277   2.974  0.4643  0.1967  0.0571
  771SOL    HW1 2312   0.223   1.247   2.955 -1.6297 -1.6924  0.9527
  771SOL    HW2 2313   0.370   1.200   3.019  1.5899 -2.0720  0.7699
  772SOL     OW 2314   2.379   0.731   1.894  0.5983  0.1645  0.0614
  772SOL    HW1 2315   2.433   0.716   1.809 -0.0490 -1.1890 -2.4956
  772SOL    HW2 2316   2.431   0.738   1.982 -0.1834 -0.8236  0.6714
  773SOL     OW 2317   0.154   0.254   0.559  0.1108  0.1095  0.3233
  773SOL    HW1 2318   0.060   0.215   0.549  0.8430  2.3706  0.6311
  773SOL    HW2 2319   0.154   0.346   0.519  1.5333 -1.3521  1.5135
  774SOL     OW 2320   0.286   2.650   0.336 -0.5262 -0.2195  0.5172
  774SOL    HW1 2321   0.300   2.753   0.327  0.3653  1.2517 -1.4205
  774SOL    HW2 2322   0.242   2.611   0.253  0.8257 -1.5556  0.3559
  775SOL     OW 2323   2.617   1.764   2.025  0.5399 -0.0827 -0.2069
  775SOL    HW1 2324   2.646   1.859   2.020  1.9215 -0.4607  0.5360
  775SOL    HW2 2325   2.542   1.744   1.960 -0.5223  0.4916 -0.2091
  776SOL     OW 2326   1.558   0.608   2.350 -0.4973  0.4019 -0.6334
  776SOL    HW1 2327   1.561   0.610   2.251 -1.3133  4.1649  1.2903
  776SOL    HW2 2328   1.605   0.533   2.395 -0.9858 -0.4143 -0.8625
  777SOL     OW 2329   1.465   2.142   0.146 -0.3277 -0.5379 -0.6185
  777SOL    HW1 2330   1.415   2.080   0.082  0.5520 -1.5727  0.2357
  777SOL    HW2 2331   1.449   2.109   0.237  2.0555 -1.8318 -2.9664
  778SOL     OW 2332   0.931   2.169   1.534 -0.2450  1.0463  0.1489
  778SOL    HW1 2333   0.877   2.140   1.455 -2.1838  1.6917 -1.3046
  778SOL    HW2 2334   0.903   2.111   1.613  1.0356  2.2091  2.4357
  779SOL     OW 2335   1.598   1.810   2.511 -0.2810  0.0868 -0.1808
  779SOL    HW1 2336   1.593   1.729   2.574 -0.4669 -1.7199 -0.0978
  779SOL    HW2 2337   1.520   1.867   2.539  2.4997 -0.8531 -1.9074
  780SOL     OW 2338   2.932   0.462   2.360 -0.9375  0.0555  0.4070
  780SOL    HW1 2339   2.918   0.407   2.443  0.2166 -0.8327 -0.2357
  780SOL    HW2 2340   2.871   0.428   2.282 -1.5411 -3.3684 -1.0185
  781SOL     OW 2341   1.177   0.390   1.897 -0.4619  0.3184  0.5761
  781SOL    HW1 2342   1.259   0.339   1.860  1.9247 -0.3317 -0.7253
  781SOL    HW2 2343   1.157   0.451   1.822 -0.9705 -1.8024  2.3790
  782SOL     OW 2344   0.932   1.857   2.071 -0.4991 -0.1649 -0.0892
  782SOL    HW1 2345   0.874   1.942   2.052 -1.8112 -0.8421  4.6063
  782SOL    HW2 2346   1.031   1.879   2.048  0.8899  3.1978 -0.1792
  783SOL     OW 2347   2.420   0.776   2.644 -0.4375 -0.1007 -0.3138
  783SOL    HW1 2348   2.348   0.809   2.580  2.6171  2.0097 -1.3070
  783SOL    HW2 2349   2.413   0.674   2.644 -0.1428  1.6253  1.7440
  784SOL     OW 2350   0.848   0.758   0.009  0.7266  0.2332  0.3158
  784SOL    HW1 2351   0.924   0.718   0.062  0.9523 -0.4168  0.1399
  784SOL    HW2 2352   0.874   0.778  -0.083 -0.9144  1.4340  2.2293
  785SOL     OW 2353   0.015   0.570   0.199  0.0513 -0.2804 -0.0734
  785SOL    HW1 2354  -0.050   0.517   0.139 -0.2651 -0.1846 -2.0742
  785SOL    HW2 2355   0.051   0.655   0.150 -0.7256  1.2406 -0.6594
  786SOL     OW 2356   2.689   0.147   2.446  0.1379 -0.2269  0.1180
  786SOL    HW1 2357   2.769   0.164   2.508  0.7677 -0.1189  1.2333
  786SOL    HW2 2358   2.674   0.047   2.414 -1.0740 -3.0571  0.1482
  787SOL     OW 2359   2.391   2.285   1.349 -0.5873  0.1985 -0.1130
  787SOL    HW1 2360   2.380   2.234   1.260  1.4424  0.1303 -3.0755
  787SOL    HW2 2361   2.296   2.305   1.377  0.5039  0.8916  0.5669
  788SOL     OW 2362   0.436   2.248   1.534 -0.1023 -0.3452  0.0178
  788SOL    HW1 2363   0.467   2.230   1.439  0.7263 -0.8580  1.8733
  788SOL    HW2 2364   0.516   2.278   1.592 -1.3220 -1.3813 -0.5976
  789SOL     OW 2365   0.496   0.486   1.952 -0.1741  0.1907  0.2032
  789SOL    HW1 2366   0.567   0.531   2.006  0.7022  0.7142 -2.6521
  789SOL    HW2 2367   0.402   0.523   1.970 -0.8953  1.2353 -0.7127
  790SOL     OW 2368   2.464   0.282   2.535  0.0085 -0.2473  0.1550
  790SOL    HW1 2369   2.410   0.236   2.607  1.0102 -0.8806 -0.2958
  790SOL    HW2 2370   2.545   0.229   2.505 -1.2493 -0.0492  0.0694
  791SOL     OW 2371   3.074   1.013   2.698 -0.0801  0.0556 -0.2242
  791SOL    HW1 2372   3.089   1.036   2.597  0.0887 -3.0054 -1.7825
  791SOL    HW2 2373   3.105   0.918   2.717 -1.0527 -0.1046 -0.0304
  792SOL     OW 2374   1.047   1.814   0.575  0.6835  0.3498  0.4737
  792SOL    HW1 2375   0.998   1.721   0.575 -0.2900 -1.8312 -1.4217
  792SOL    HW2 2376   1.121   1.825   0.643  1.8483  1.3898  1.2098
  793SOL     OW 2377   1.733   1.167   2.982 -0.4573 -0.6079  0.4030
  793SOL    HW1 2378   1.800   1.213   3.046  1.3947  0.3510  0.0428
  793SOL    HW2 2379   1.639   1.167   3.014  1.2400  0.9769  0.6858
  794SOL     OW 2380   1.531   1.623   0.507  0.0119 -1.3979  0.1147
  794SOL    HW1 2381   1.433   1.634   0.489  1.3491  4.0356 -1.3301
  794SOL    HW2 2382   1.580   1.715   0.511  0.0996  1.6794  0.7630
  795SOL     OW 2383   2.437   2.550   1.345 -0.3187  0.0782  0.1757
  795SOL    HW1 2384   2.414   2.454   1.315  0.4251  0.3587  1.5726
  795SOL    HW2 2385   2.356   2.610   1.342  2.7995  0.6001 -0.7385
  796SOL     OW 2386   0.779   1.301   2.473 -0.8193  0.4143  0.1220
  796SOL    HW1 2387   0.700   1.355   2.499  3.0521 -2.3069  0.1653
  796SOL    HW2 2388   0.765   1.206   2.441 -0.0447 -0.4177 -0.4343
  797SOL     OW 2389   0.731   0.071   0.121 -0.1530  0.0768  0.0564
  797SOL    HW1 2390   0.679   0.155   0.121  0.9435 -0.2775 -0.3757
  797SOL    HW2 2391   0.812   0.076   0.186  2.8098 -0.1350 -0.3902
  798SOL     OW 2392   0.555   3.086   1.523 -0.3939 -0.0213 -0.0293
  798SOL    HW1 2393   0.547   3.179   1.567 -0.2570 -0.2325 -0.0831
  798SOL    HW2 2394   0.473   3.033   1.502 -0.8073 -1.0532  3.4140
  799SOL     OW 2395   0.780   1.789   0.689 -0.5962  0.2478  0.1655
  799SOL    HW1 2396   0.753   1.700   0.649  1.3476 -1.5631 -0.6831
  799SOL    HW2 2397   0.848   1.846   0.638 -1.3902  2.3708  1.1374
  800SOL     OW 2398   1.156   2.187   1.974 -0.0300  0.7696  0.0766
  800SOL    HW1 2399   1.152   2.087   1.968  0.1158  1.5285  1.6458
  800SOL    HW2 2400   1.093   2.234   1.910 -0.5294  0.7099  0.2458
  801SOL     OW 2401   0.211   1.250   2.006 -0.1753  0.7148 -0.4918
  801SOL    HW1 2402   0.248   1.281   1.915 -2.2224 -1.2457 -0.5243
  801SOL    HW2 2403   0.162   1.325   2.057  2.4152  1.8539  1.3836
  802SOL     OW 2404   1.331   1.888   2.213  0.0439 -0.1961 -0.3543
  802SOL    HW1 2405   1.358   1.987   2.206  3.0039  1.6182  2.1800
  802SOL    HW2 2406   1.414   1.829   2.227 -0.0461 -2.5222 -2.7219
  803SOL     OW 2407   2.423   0.370   0.950 -0.2730  0.4431  0.2899
  803SOL    HW1 2408   2.491   0.411   0.886  1.1115 -0.3705 -2.9823
  803SOL    HW2 2409   2.336   0.362   0.906  0.9799 -0.8918 -1.4263
  804SOL     OW 2410   0.712   2.779   0.389 -0.0700  0.4776 -0.4593
  804SOL    HW1 2411   0.645   2.701   0.373 -0.8654  0.1844 -1.1612
  804SOL    HW2 2412   0.744   2.800   0.487 -0.1854  1.1072  1.7834
  805SOL     OW 2413   2.896   2.972   2.718 -0.2676 -0.1033  0.1235
  805SOL    HW1 2414   2.957   2.917   2.654 -0.0979 -2.0915  0.5889
  805SOL    HW2 2415   2.957   3.032   2.779 -0.8289 -0.9418  2.2220
  806SOL     OW 2416   0.502   2.452   0.948  0.3914 -0.0563  0.0947
  806SOL    HW1 2417   0.514   2.419   0.851 -0.5299 -0.7017  0.3959
  806SOL    HW2 2418   0.409   2.496   0.951 -0.4245 -0.1540  2.2801
  807SOL     OW 2419   0.794   0.363   0.001  0.0708 -0.7626 -0.4492
  807SOL    HW1 2420   0.775   0.381   0.096 -0.6016  0.6547 -1.6745
  807SOL    HW2 2421   0.708   0.335  -0.042  1.5726 -0.2272  1.3749
  808SOL     OW 2422   0.829   2.309   2.536 -0.5119 -0.0773 -0.2432
  808SOL    HW1 2423   0.854   2.306   2.631 -3.1343 -0.7971  1.7241
  808SOL    HW2 2424   0.784   2.399   2.514 -0.2395 -0.1813 -0.7923
  809SOL     OW 2425   0.913   0.493   2.197 -0.2554  0.3765  0.1573
  809SOL    HW1 2426   0.825   0.547   2.197 -0.9928  1.6586  1.8483
  809SOL    HW2 2427   0.912   0.423   2.125 -0.8648 -0.1478  2.0382
  810SOL     OW 2428   1.668   0.849   2.950  0.5005  0.4599 -0.3033
  810SOL    HW1 2429   1.680   0.925   3.014  3.5851  1.2793 -2.1929
  810SOL    HW2 2430   1.608   0.871   2.871  0.4933  2.4758  1.4347
  811SOL     OW 2431   2.928   0.261   2.593 -0.1761 -0.7581  0.4129
  811SOL    HW1 2432   2.888   0.281   2.683  2.3044  1.3414 -2.6298
  811SOL    HW2 2433   3.030   0.268   2.601  1.4044  0.8723 -1.2675
  812SOL     OW 2434   2.878   2.574   2.944  0.8430  0.6931  0.2842
  812SOL    HW1 2435   2.956   2.540   2.886  0.2255  0.7144  0.9331
  812SOL    HW2 2436   2.827   2.646   2.892 -1.7002  2.9899 -0.5445
  813SOL     OW 2437   0.443   0.594   0.357  0.0166 -0.0157 -0.1028
  813SOL    HW1 2438   0.449   0.502   0.401  0.0630  0.1851  2.1261
  813SOL    HW2 2439   0.528   0.646   0.384 -0.8099  1.3788 -1.1276
  814SOL     OW 2440   2.605   2.114   2.922 -0.1885 -0.1574  0.3425
  814SOL    HW1 2441   2.630   2.202   2.964 -2.2801  1.2191 -1.0589
  814SOL    HW2 2442   2.539   2.136   2.843 -2.7934 -0.0285 -2.0775
  815SOL     OW 2443   2.813   2.874   1.261  0.2152  0.3769 -0.0096
  815SOL    HW1 2444   2.745   2.808   1.294 -1.7413  0.2588  0.9422
  815SOL    HW2 2445   2.784   2.912   1.169  1.1548 -2.1935 -2.4358
  816SOL     OW 2446   1.084   2.406   2.478 -0.1227  0.1062 -0.6617
  816SOL    HW1 2447   0.999   2.360   2.511 -0.8629  1.1274 -0.1796
  816SOL    HW2 2448   1.151   2.425   2.553  2.3958  1.9905  0.8227
  817SOL     OW 2449   2.606   1.431   1.444 -0.2062 -0.2006 -0.6601
  817SOL    HW1 2450   2.540   1.477   1.509 -1.4672  1.1395 -1.1487
  817SOL    HW2 2451   2.699   1.457   1.475  0.9642 -0.9307  0.9186
  818SOL     OW 2452   2.185   0.054   0.117 -0.0994 -0.5472 -0.0024
  818SOL    HW1 2453   2.102   0.092   0.073 -0.1389  0.6980  0.3106
  818SOL    HW2 2454   2.228   0.134   0.162 -1.7344 -0.7233 -0.1831
  819SOL     OW 2455   2.197   2.162   0.225 -0.3612  0.6901  0.0431
  819SOL    HW1 2456   2.265   2.171   0.149 -0.3196  0.4518  0.9259
  819SOL    HW2 2457   2.107   2.197   0.197  0.8188  0.3949  1.2167
  820SOL     OW 2458   2.375   2.212   0.625 -0.1815  0.0193 -0.0086
  820SOL    HW1 2459   2.340   2.139   0.565 -0.8080  1.0931  2.8505
  820SOL    HW2 2460   2.476   2.210   0.618  1.4124 -0.2394  0.3958
  821SOL     OW 2461   1.984   1.170   1.698  0.4062 -0.2024 -0.7944
  821SOL    HW1 2462   1.988   1.199   1.795 -0.3081 -0.1956 -0.8379
  821SOL    HW2 2463   1.940   1.240   1.633 -0.9247  3.0563 -1.5356
  822SOL     OW 2464   2.922   2.833   1.567 -0.6835 -0.3969  0.5389
  822SOL    HW1 2465   2.838   2.795   1.537  3.8238 -0.6757 -0.7890
  822SOL    HW2 2466   2.921   2.935   1.580  0.6970  1.0688  0.4123
  823SOL     OW 2467   1.619   3.048   1.128 -0.2502  0.5204  0.0600
  823SOL    HW1 2468   1.595   3.137   1.176 -1.5221  0.3034 -1.1448
  823SOL    HW2 2469   1.582   2.967   1.175 -0.1643  0.0337  1.0060
  824SOL     OW 2470   1.174   1.405   0.606 -0.5526  0.0065  0.0581
  824SOL    HW1 2471   1.231   1.442   0.677 -0.5989  0.7139  1.0045
  824SOL    HW2 2472   1.104   1.472   0.583  3.1504 -0.4928 -1.2050
  825SOL     OW 2473   1.206   1.889   1.154 -0.0653 -0.0367 -0.2878
  825SOL    HW1 2474   1.147   1.875   1.237  1.7426  0.7795 -1.2357
  825SOL    HW2 2475   1.231   1.986   1.140  2.0760 -2.5944 -0.7283
  826SOL     OW 2476   1.040   2.550   2.832 -0.6898  0.1168  0.1385
  826SOL    HW1 2477   0.957   2.494   2.828 -1.6048 -0.9240 -1.1112
  826SOL    HW2 2478   1.015   2.650   2.823 -2.1531  3.1247  0.4001
  827SOL     OW 2479   0.608   2.177   1.885  0.3473  0.6503 -0.4612
  827SOL    HW1 2480   0.515   2.145   1.897  1.4015 -0.7742  1.0524
  827SOL    HW2 2481   0.618   2.236   1.805 -1.4783 -0.1172  1.5017
  828SOL     OW 2482   2.578   0.956   1.023  0.1323  0.2918 -0.2662
  828SOL    HW1 2483   2.677   0.950   1.046 -2.4109  0.9423 -1.5635
  828SOL    HW2 2484   2.530   1.037   1.063  0.2987  2.5373 -0.2295
  829SOL     OW 2485   2.849   0.661   1.891  0.0096 -0.1359 -0.0133
  829SOL    HW1 2486   2.854   0.562   1.857  1.8929 -3.9359 -1.2765
  829SOL    HW2 2487   2.890   0.672   1.982  0.5164 -1.4917 -2.9298
  830SOL     OW 2488   0.264   2.620   1.594 -0.3255  0.1941  0.1941
  830SOL    HW1 2489   0.165   2.616   1.573 -0.6205  1.1143  1.8387
  830SOL    HW2 2490   0.289   2.708   1.644 -1.9499  1.5242  2.6243
  831SOL     OW 2491   0.883   1.369   0.884 -0.5580 -0.2186  0.5791
  831SOL    HW1 2492   0.915   1.466   0.910 -0.7999 -1.3665  0.0622
  831SOL    HW2 2493   0.878   1.359   0.781 -0.1046  3.1989  0.5818
  832SOL     OW 2494   0.539   2.804   1.175 -0.1542  0.4011  0.3466
  832SOL    HW1 2495   0.594   2.795   1.263  0.8541  0.0227 -0.8939
  832SOL    HW2 2496   0.447   2.785   1.203  1.7547  2.5108  1.0133
  833SOL     OW 2497   0.215   3.056   2.419 -0.2364 -0.0148 -0.1260
  833SOL    HW1 2498   0.257   3.017   2.334 -0.4011  0.2529 -1.1440
  833SOL    HW2 2499   0.122   3.098   2.404 -2.5454 -0.7332  1.9961
  834SOL     OW 2500   1.494   2.766   1.635  0.6374  0.9547  0.7162
  834SOL    HW1 2501   1.452   2.678   1.660 -1.4596 -0.6422  1.1767
  834SOL    HW2 2502   1.462   2.843   1.692  1.4302 -0.6867 -1.3584
  835SOL     OW 2503   0.343   2.661   2.961  0.3271  0.1473  0.2561
  835SOL    HW1 2504   0.349   2.556   2.967  1.2604 -2.2252 -0.1874
  835SOL    HW2 2505   0.394   2.699   3.042  0.8500 -0.6126  0.4510
  836SOL     OW 2506   0.142   0.496   0.434  0.2437 -0.8739  0.2043
  836SOL    HW1 2507   0.128   0.559   0.510  1.6083 -0.8990  2.5809
  836SOL    HW2 2508   0.098   0.538   0.353  1.7977 -0.8314  0.5360
  837SOL     OW 2509   2.954   2.689   1.809 -0.4294 -0.4501  0.0673
  837SOL    HW1 2510   3.044   2.662   1.845  0.9606 -2.8457 -0.8379
  837SOL    HW2 2511   2.967   2.736   1.719  0.9252  0.6884 -1.2121
  838SOL     OW 2512   0.993   1.651   0.900  0.5976  0.8480 -0.0746
  838SOL    HW1 2513   0.954   1.730   0.846 -1.4175  1.1661 -0.7057
  838SOL    HW2 2514   1.094   1.656   0.896  0.7716  0.9760 -1.8260
  839SOL     OW 2515   2.179   3.080   1.998  0.0465 -0.0622 -1.2054
  839SOL    HW1 2516   2.094   3.052   2.045  3.3411 -1.7504  1.4974
  839SOL    HW2 2517   2.216   3.159   2.051 -1.0380 -2.8712 -1.1949
  840SOL     OW 2518   2.261   2.024   1.827 -0.5631 -0.1668 -0.2096
  840SOL    HW1 2519   2.308   2.052   1.915  0.3853  1.4156  0.3589
  840SOL    HW2 2520   2.170   1.990   1.856 -0.6960 -0.0440  0.1644
  841SOL     OW 2521   2.699   2.567   1.280 -0.0265  0.3645 -0.0281
  841SOL    HW1 2522   2.759   2.537   1.359  2.3217 -2.1307  2.1714
  841SOL    HW2 2523   2.605   2.582   1.318  1.4713  0.4695  0.8385
  842SOL     OW 2524   2.341   3.054   0.560 -0.1668 -0.0904 -0.1468
  842SOL    HW1 2525   2.268   3.108   0.516  1.2334 -0.3879  0.5234
  842SOL    HW2 2526   2.431   3.100   0.549 -3.3753 -0.9264 -0.7935
  843SOL     OW 2527   2.449   1.918   0.841 -0.1087  0.5959 -0.0225
  843SOL    HW1 2528   2.353   1.925   0.809  2.2152 -4.6388 -2.8162
  843SOL    HW2 2529   2.472   1.819   0.854 -0.2955 -0.3540  2.2196
  844SOL     OW 2530   1.330   2.690   0.458  0.1569  0.2912 -0.0825
  844SOL    HW1 2531   1.355   2.590   0.453  3.4307 -1.5160 -0.6208
  844SOL    HW2 2532   1.285   2.728   0.370 -0.5221  2.6846 -3.1690
  845SOL     OW 2533   1.338   2.781   2.320 -0.1842  0.7092  0.4615
  845SOL    HW1 2534   1.309   2.684   2.345 -1.0650 -2.8888  0.1420
  845SOL    HW2 2535   1.438   2.801   2.334  1.4413  0.9342 -0.5991
  846SOL     OW 2536   2.971   0.782   1.319 -0.3213  0.5769 -0.5460
  846SOL    HW1 2537   2.934   0.808   1.412 -0.1491 -2.2614  2.1583
  846SOL    HW2 2538   2.917   0.702   1.289  1.3473 -0.6074 -1.7640
  847SOL     OW 2539   0.859   2.368   2.813 -0.2994 -0.6717  0.5962
  847SOL    HW1 2540   0.766   2.369   2.857  1.1366  0.7284  1.0436
  847SOL    HW2 2541   0.913   2.286   2.839 -1.6070  0.2318  0.2433
  848SOL     OW 2542   2.143   2.166   2.660  0.2962  0.0093 -1.0556
  848SOL    HW1 2543   2.113   2.083   2.614 -1.0826 -0.1954  1.7933
  848SOL    HW2 2544   2.074   2.239   2.646  1.1892  0.7651  1.4319
  849SOL     OW 2545   2.669   2.079   1.365  0.0516  0.2553  0.0478
  849SOL    HW1 2546   2.603   2.098   1.292 -0.1152 -0.6002 -0.9445
  849SOL    HW2 2547   2.679   1.977   1.378  3.6365 -0.0470  0.4497
  850SOL     OW 2548   2.727   1.495   2.985 -0.3518 -0.1467  0.1064
  850SOL    HW1 2549   2.747   1.588   2.946  0.8474  3.6776 -1.7896
  850SOL    HW2 2550   2.677   1.509   3.070  0.2125 -0.1692 -1.8706
  851SOL     OW 2551   1.759   2.829   1.657  0.2894  0.7119  0.1383
  851SOL    HW1 2552   1.766   2.918   1.608  1.6365 -1.6343 -2.4418
  851SOL    HW2 2553   1.660   2.795   1.653 -1.4777  0.1791 -0.2344
  852SOL     OW 2554   0.149   0.987   2.032 -0.0655  0.1779 -0.1824
  852SOL    HW1 2555   0.087   0.968   1.954  2.5721  2.2958 -1.4225
  852SOL    HW2 2556   0.158   1.091   2.044  0.8811  1.5619  2.1093
  853SOL     OW 2557   1.077   2.917   1.624  0.1029 -1.3527 -0.0045
  853SOL    HW1 2558   1.153   2.971   1.578  1.1287  1.4430  1.1388
  853SOL    HW2 2559   1.060   2.967   1.712  0.0925 -0.1930 -1.6522
  854SOL     OW 2560   1.862   1.974   0.576 -0.1525 -0.2806  0.3621
  854SOL    HW1 2561   1.955   1.972   0.615 -0.8484 -0.2753 -2.2649
  854SOL    HW2 2562   1.821   2.062   0.590  2.6736 -0.5660 -1.4601
  855SOL     OW 2563   1.205   2.851   0.263  0.0643  0.7381 -0.4511
  855SOL    HW1 2564   1.107   2.840   0.240  2.9216  1.1284 -1.3791
  855SOL    HW2 2565   1.231   2.939   0.312 -1.6532 -0.5313 -0.0372
  856SOL     OW 2566   1.452   1.392   2.326  0.3165 -0.1956 -0.0804
  856SOL    HW1 2567   1.515   1.451   2.382 -1.6807 -2.8045  2.0950
  856SOL    HW2 2568   1.503   1.322   2.273  1.2043 -0.6644 -3.1015
  857SOL     OW 2569   2.626   1.639   2.444 -0.0530 -0.3840 -0.1847
  857SOL    HW1 2570   2.614   1.564   2.375  1.1412 -1.5382 -1.7793
  857SOL    HW2 2571   2.537   1.667   2.492 -1.5582  0.2513 -1.3323
  858SOL     OW 2572   0.723   3.021   2.170  0.3843  0.1052  0.3573
  858SOL    HW1 2573   0.662   2.993   2.092 -0.0250  0.1161  0.4803
  858SOL    HW2 2574   0.665   3.004   2.255 -4.0575  0.1919 -0.0189
  859SOL     OW 2575   0.453   1.681   2.739 -0.0936 -0.4821  0.1434
  859SOL    HW1 2576   0.427   1.779   2.730 -0.3463  0.0470  3.5740
  859SOL    HW2 2577   0.376   1.616   2.766  1.2071 -1.3752  1.7029
  860SOL     OW 2578   1.907   0.726   1.059  0.6568 -0.4543 -0.5687
  860SOL    HW1 2579   1.910   0.689   0.967  3.4864 -1.9308  2.1900
  860SOL    HW2 2580   1.818   0.701   1.102  0.5291 -3.2354 -0.6147
  861SOL     OW 2581   1.188   0.939   0.159 -0.4517 -0.2459 -0.0964
  861SOL    HW1 2582   1.085   0.953   0.165  0.5679  4.3851  1.3631
  861SOL    HW2 2583   1.233   0.931   0.250  1.5994  0.2946  1.3511
  862SOL     OW 2584   2.306   1.432   2.321  0.3066  0.1402 -0.3896
  862SOL    HW1 2585   2.336   1.362   2.257  0.6950  1.3193  2.1986
  862SOL    HW2 2586   2.325   1.529   2.285  0.8386  3.7457  0.6207
  863SOL     OW 2587   0.106   0.844   0.941  0.0598 -0.5010 -0.4249
  863SOL    HW1 2588   0.143   0.899   0.864 -0.8679  0.7071  0.0990
  863SOL    HW2 2589   0.015   0.805   0.911 -0.7207  0.4329  0.5114
  864SOL     OW 2590   3.040   1.922   1.975 -0.5296  0.0286 -0.1449
  864SOL    HW1 2591   3.111   1.857   1.940  1.3241 -0.5090  2.6471
  864SOL    HW2 2592   2.978   1.947   1.899 -1.2755 -0.8240  1.9361
  865SOL     OW 2593   1.978   1.936   1.886 -0.3323 -0.0397  0.6010
  865SOL    HW1 2594   1.897   1.935   1.952 -1.0079 -1.2153  1.1561
  865SOL    HW2 2595   1.988   1.842   1.843 -1.0752 -3.9530 -0.0509
  866SOL     OW 2596   2.830   1.551   1.513 -0.6204  0.1902 -0.0004
  866SOL    HW1 2597   2.926   1.526   1.534 -1.2210  1.7049  0.7019
  866SOL    HW2 2598   2.784   1.582   1.595  0.0206  2.2487  0.1513
  867SOL     OW 2599   2.389   2.882   2.356 -0.3570 -0.5356 -0.1343
  867SOL    HW1 2600   2.356   2.897   2.259  0.0761  0.9373  0.2558
  867SOL    HW2 2601   2.374   2.783   2.383  0.0852 -1.6402  1.6454
  868SOL     OW 2602   2.491   0.073   2.900 -0.0184  0.0082 -0.0618
  868SOL    HW1 2603   2.423   0.070   2.827  0.9357 -1.3367 -0.4856
  868SOL    HW2 2604   2.583   0.056   2.857 -1.9742 -2.2914 -3.3364
  869SOL     OW 2605   2.811   2.263   2.153 -0.2735  0.3813  0.4724
  869SOL    HW1 2606   2.870   2.345   2.168 -0.5183 -0.8892  1.6929
  869SOL    HW2 2607   2.834   2.189   2.218 -1.3129  2.2474  1.0916
  870SOL     OW 2608   1.896   0.588   2.643 -0.4889 -0.3768 -0.2659
  870SOL    HW1 2609   1.849   0.600   2.733  2.9831 -0.5564 -2.1287
  870SOL    HW2 2610   1.989   0.639   2.646  1.3260 -1.0226  2.5928
  871SOL     OW 2611   2.730   2.558   2.578 -0.0514 -0.0117 -0.0994
  871SOL    HW1 2612   2.821   2.505   2.584  1.2675  0.2843  2.5445
  871SOL    HW2 2613   2.745   2.655   2.576 -1.5695 -3.9657 -2.8917
  872SOL     OW 2614   0.756   0.446   2.823 -0.0964  0.2559 -0.2557
  872SOL    HW1 2615   0.700   0.364   2.805  2.4474  0.7663 -0.7540
  872SOL    HW2 2616   0.827   0.418   2.893  0.9206 -1.4267  1.4017
  873SOL     OW 2617   2.455   2.447   1.972  0.1645 -0.7383  0.8741
  873SOL    HW1 2618   2.498   2.364   1.934  1.5259  1.4465 -0.2685
  873SOL    HW2 2619   2.440   2.445   2.073  2.0299  0.2567  0.7948
  874SOL     OW 2620   1.160   0.160   2.283 -0.4201 -0.2004  0.1646
  874SOL    HW1 2621   1.147   0.255   2.307  1.1923 -2.7850  0.4372
  874SOL    HW2 2622   1.085   0.126   2.223 -0.7299 -1.2596 -0.3680
  875SOL     OW 2623   0.546   2.981   0.278 -1.3720 -0.0883  0.2054
  875SOL    HW1 2624   0.582   3.052   0.213  0.8651  0.7176  2.1989
  875SOL    HW2 2625   0.599   2.894   0.273 -1.8693 -1.7496 -1.4351
  876SOL     OW 2626   1.066   1.156   1.396 -0.2406 -0.3079  0.6781
  876SOL    HW1 2627   1.159   1.113   1.376  0.2875 -0.0155  0.7661
  876SOL    HW2 2628   0.990   1.103   1.354  0.2875 -1.4546  0.7325
  877SOL     OW 2629   2.059   0.673   1.290 -0.6506 -0.2535  0.2954
  877SOL    HW1 2630   2.155   0.708   1.285  0.1077 -0.5757 -0.8800
  877SOL    HW2 2631   2.015   0.695   1.199  1.4536  4.3369 -0.7739
  878SOL     OW 2632   1.312   2.829   2.750  0.4963 -0.4977 -0.0078
  878SOL    HW1 2633   1.316   2.878   2.842  0.3365  4.1380  0.3154
  878SOL    HW2 2634   1.220   2.849   2.708  0.7586  0.9667 -0.3259
  879SOL     OW 2635   2.022   2.672   1.238 -0.3460  0.0981  0.1843
  879SOL    HW1 2636   2.070   2.667   1.153 -2.5697  3.8283  1.5856
  879SOL    HW2 2637   2.084   2.672   1.323  0.0120 -2.4200 -1.0935
  880SOL     OW 2638   0.260   1.067   2.393 -0.3783 -0.3785 -0.0225
  880SOL    HW1 2639   0.331   1.098   2.462 -1.8306  0.8812  2.1755
  880SOL    HW2 2640   0.167   1.104   2.417  0.7620  1.6211 -0.6971
  881SOL     OW 2641   1.326   1.192   2.573 -0.5247  0.2854 -0.1432
  881SOL    HW1 2642   1.407   1.229   2.522 -0.2776 -1.4197  1.7562
  881SOL    HW2 2643   1.245   1.253   2.565 -0.9204 -0.3038 -0.3527
  882SOL     OW 2644   2.928   1.905   1.082  0.4437  0.4999 -0.2705
  882SOL    HW1 2645   3.002   1.842   1.104 -2.4501  0.5274 -2.1828
  882SOL    HW2 2646   2.836   1.871   1.106 -0.0501 -1.5376  1.0254
  883SOL     OW 2647   0.230   2.690   1.138 -0.1743 -0.2257  0.2758
  883SOL    HW1 2648   0.141   2.691   1.175  1.4999 -1.5820  0.6847
  883SOL    HW2 2649   0.234   2.613   1.071 -1.1195  1.0555  1.8088
  884SOL     OW 2650   0.743   1.005   1.520 -0.6513  0.4790  0.2546
  884SOL    HW1 2651   0.763   1.075   1.590  2.3048  1.6632  0.6324
  884SOL    HW2 2652   0.766   0.910   1.556  0.6190 -0.7457  0.1240
  885SOL     OW 2653   0.621   2.391   1.689 -0.0859  0.2850 -0.5854
  885SOL    HW1 2654   0.718   2.386   1.659 -1.3602  0.6739  0.0579
  885SOL    HW2 2655   0.586   2.487   1.668  2.3979  1.1463  0.5283
  886SOL     OW 2656   2.129   0.555   0.150 -0.5557  0.1189  0.3326
  886SOL    HW1 2657   2.114   0.569   0.250  1.5516 -1.9170  3.8949
  886SOL    HW2 2658   2.157   0.642   0.107  0.8977 -2.0541  2.7096
  887SOL     OW 2659   0.855   2.134   0.747  0.0908  0.4366 -0.7291
  887SOL    HW1 2660   0.764   2.079   0.746 -2.0313 -2.8263 -0.7246
  887SOL    HW2 2661   0.888   2.150   0.841  0.9127 -0.0088 -2.2008
  888SOL     OW 2662   1.570   2.996   0.863  0.2387  0.3993 -0.5182
  888SOL    HW1 2663   1.512   3.068   0.829 -0.4260 -1.6468  2.5237
  888SOL    HW2 2664   1.582   3.006   0.966  1.2403  0.5977 -2.2875
  889SOL     OW 2665   1.903   0.453   2.320  0.1758 -0.2326  0.1789
  889SOL    HW1 2666   1.846   0.468   2.403 -3.5698  2.3972  0.0835
  889SOL    HW2 2667   1.933   0.542   2.282 -2.6664  0.0943 -2.0218
  890SOL     OW 2668   1.453   1.236   1.091  0.7240 -0.2570 -0.0621
  890SOL    HW1 2669   1.445   1.148   1.145  0.2587 -2.5558 -0.6503
  890SOL    HW2 2670   1.375   1.303   1.096  0.6679 -1.9964 -3.5455
  891SOL     OW 2671   0.020   1.071   1.375 -0.2216  0.4514  0.2992
  891SOL    HW1 2672  -0.078   1.077   1.388  1.9319  0.1683  0.8345
  891SOL    HW2 2673   0.048   0.986   1.323 -0.0857 -0.7948  2.2052
  892SOL     OW 2674   1.393   2.034   1.389 -0.3964 -0.1424  0.1161
  892SOL    HW1 2675   1.311   1.984   1.354  1.5167 -0.3662 -2.2731
  892SOL    HW2 2676   1.399   2.133   1.362  3.1726  3.1837  2.5595
  893SOL     OW 2677   1.597   1.795   0.123 -0.4342  0.0705  0.0965
  893SOL    HW1 2678   1.581   1.704   0.166  1.3326 -1.5150  1.4864
  893SOL    HW2 2679   1.661   1.851   0.176  0.1806 -1.9081 -3.1621
  894SOL     OW 2680   0.484   3.033   2.005 -0.1435  0.3929  0.4141
  894SOL    HW1 2681   0.495   3.125   1.962  0.3434 -0.3689 -0.5765
  894SOL    HW2 2682   0.502   2.965   1.930 -0.6497 -1.8257 -1.3325
  895SOL     OW 2683   0.561   2.809   1.860 -0.5474 -0.9561 -0.6544
  895SOL    HW1 2684   0.576   2.739   1.792  0.3711 -0.0092  1.2234
  895SOL    HW2 2685   0.646   2.833   1.905  0.2410 -0.7824  1.2090
  896SOL     OW 2686   2.327   1.523   0.000  0.1082 -0.0712 -0.0860
  896SOL    HW1 2687   2.375   1.433  -0.000  2.4456 -0.7771 -0.5055
  896SOL    HW2 2688   2.282   1.542  -0.086  1.8379 -0.5840 -0.4593
  897SOL     OW 2689   2.225   1.063   1.292  0.6278  0.0882 -0.5546
  897SOL    HW1 2690   2.177   1.038   1.205  2.2257  1.7436 -2.6438
  897SOL    HW2 2691   2.243   0.987   1.356  0.4230  1.8256 -0.3433
  898SOL     OW 2692   1.121   2.642   1.716 -0.4767 -0.1765  0.2760
  898SOL    HW1 2693   1.129   2.738   1.686  0.9672  0.6567  0.5499
  898SOL    HW2 2694   1.097   2.639   1.816 -2.4057 -1.0155 -0.4418
  899SOL     OW 2695   1.640   1.906   0.804 -0.1950 -0.4074  0.2125
  899SOL    HW1 2696   1.565   1.935   0.738 -1.4204 -0.0287 -1.1663
  899SOL    HW2 2697   1.713   1.981   0.803  1.9582  0.8115  1.5451
  900SOL     OW 2698   2.087   1.253   1.951  0.0130 -1.0668  0.1851
  900SOL    HW1 2699   2.124   1.164   1.983 -2.3218  0.9915 -0.9972
  900SOL    HW2 2700   2.004   1.288   2.006 -2.3746  0.8885 -3.3352
  901SOL     OW 2701   0.628   1.594   1.140  0.2873  0.5117 -0.0651
  901SOL    HW1 2702   0.531   1.582   1.119  0.6843 -0.3151  2.2512
  901SOL    HW2 2703   0.677   1.510   1.171  3.1938 -0.0826  0.9102
  902SOL     OW 2704   1.376   2.074   0.728  0.4893 -0.6923 -0.0870
  902SOL    HW1 2705   1.304   2.126   0.676  0.1526 -0.8667  2.2524
  902SOL    HW2 2706   1.450   2.139   0.755  1.4481 -1.0037  2.9813
  903SOL     OW 2707   0.822   1.354   0.620 -0.4535  0.5369 -0.5974
  903SOL    HW1 2708   0.795   1.268   0.582 -0.8992  3.0771 -0.6423
  903SOL    HW2 2709   0.737   1.404   0.649  0.0792 -0.8453 -0.5280
  904SOL     OW 2710   1.139   1.366   2.555  0.3418 -0.0444 -0.0569
  904SOL    HW1 2711   1.080   1.376   2.468  1.3727 -1.6894 -1.2797
  904SOL    HW2 2712   1.210   1.439   2.568  0.4257  0.5579  2.7072
  905SOL     OW 2713   0.514   0.230   0.994  0.0558 -0.5262  0.5379
  905SOL    HW1 2714   0.532   0.327   1.024 -0.7377  2.8043 -0.5829
  905SOL    HW2 2715   0.604   0.175   0.977 -0.7107 -4.1722 -2.1416
  906SOL     OW 2716   0.633   2.973   0.983 -0.1073 -0.2459  0.1613
  906SOL    HW1 2717   0.591   2.963   0.891 -0.7782  1.2155 -2.3561
  906SOL    HW2 2718   0.581   2.914   1.052  0.1046 -4.1047  2.2399
  907SOL     OW 2719   2.309   2.859   2.088  0.1172  0.2525  0.2010
  907SOL    HW1 2720   2.278   2.950   2.058 -1.1808  3.4951  2.4367
  907SOL    HW2 2721   2.236   2.790   2.058 -0.9834 -3.0168 -2.0847
  908SOL     OW 2722   0.337   1.256   1.736  0.1735  0.2509 -0.2463
  908SOL    HW1 2723   0.300   1.166   1.711  0.7125 -0.6274  1.2943
  908SOL    HW2 2724   0.357   1.320   1.655 -0.9179  0.6631  1.7554
  909SOL     OW 2725   0.039   1.724   2.864  0.2878  0.1624  0.3578
  909SOL    HW1 2726   0.104   1.643   2.864  0.3120  2.2027 -1.0055
  909SOL    HW2 2727   0.069   1.769   2.949 -0.4095  0.3343  0.2535
  910SOL     OW 2728   2.203   0.784   0.558  0.5251  0.0777 -0.0195
  910SOL    HW1 2729   2.245   0.845   0.487 -2.3977 -0.1952  0.5579
  910SOL    HW2 2730   2.223   0.826   0.650 -0.1612  1.7178  3.2093
  911SOL     OW 2731   2.593   2.472   1.038 -0.6452  0.1706 -0.6319
  911SOL    HW1 2732   2.624   2.525   1.118  2.9016 -0.2527  0.1513
  911SOL    HW2 2733   2.647   2.386   1.021 -0.0118  0.4615 -2.7480
  912SOL     OW 2734   0.233   1.987   0.505 -0.0579  0.5890  0.0721
  912SOL    HW1 2735   0.216   2.065   0.438 -0.0962  0.6065  2.7883
  912SOL    HW2 2736   0.146   1.942   0.540 -1.7909 -2.2570 -0.9095
  913SOL     OW 2737   1.523   0.066   1.412 -0.2342  0.0485  0.3380
  913SOL    HW1 2738   1.469  -0.024   1.414  0.3600 -1.2112 -1.4372
  913SOL    HW2 2739   1.621   0.041   1.408  1.6965 -0.0868  1.3643
  914SOL     OW 2740   2.600   2.273   1.542  0.3391 -0.0932 -0.0323
  914SOL    HW1 2741   2.631   2.188   1.503 -0.3989  0.2733 -2.0759
  914SOL    HW2 2742   2.518   2.299   1.485 -2.2143 -1.5651  0.0996
  915SOL     OW 2743   0.673   0.297   0.716 -0.5145 -0.0944  0.3053
  915SOL    HW1 2744   0.764   0.258   0.735  0.2894  0.9755 -0.0042
  915SOL    HW2 2745   0.634   0.348   0.792 -1.0218  0.1996 -1.1732
  916SOL     OW 2746   2.383   0.969   0.322 -0.1996 -1.2302 -0.2689
  916SOL    HW1 2747   2.300   0.989   0.266  1.2011  1.0408 -1.9515
  916SOL    HW2 2748   2.391   1.047   0.388  1.0619  0.2531 -0.8217
  917SOL     OW 2749   2.200   1.920   0.728  0.1148  0.3217  0.0712
  917SOL    HW1 2750   2.165   1.825   0.707  0.7407 -0.2646  0.5969
  917SOL    HW2 2751   2.202   1.979   0.646 -2.4077 -1.7052 -0.3755
  918SOL     OW 2752   0.572   0.267   2.993 -0.4605  0.5832 -0.0370
  918SOL    HW1 2753   0.486   0.317   2.992  2.7885 -1.4345  0.5853
  918SOL    HW2 2754   0.558   0.167   2.986  0.1971 -0.3857  0.2427
  919SOL     OW 2755   2.506   1.412   1.171 -0.4788  0.0912  0.2372
  919SOL    HW1 2756   2.577   1.472   1.128 -1.2713 -0.6216 -0.0459
  919SOL    HW2 2757   2.518   1.401   1.275  0.4364  5.0534 -0.4171
  920SOL     OW 2758   0.528   2.777   0.038 -0.0129 -0.5077  0.3954
  920SOL    HW1 2759   0.521   2.742   0.133 -2.1933  0.1714 -0.3278
  920SOL    HW2 2760   0.617   2.827   0.024 -2.6390  0.1561  0.3978
  921SOL     OW 2761   1.137   0.063   0.218  0.0947  0.4143 -0.0519
  921SOL    HW1 2762   1.209   0.011   0.274 -2.0564 -1.2825  3.2106
  921SOL    HW2 2763   1.043   0.035   0.250 -0.1355 -0.3385  1.0387
  922SOL     OW 2764   1.524   1.869   1.052 -0.2410 -0.3956  0.3299
  922SOL    HW1 2765   1.453   1.933   1.079  0.9495 -1.3662  1.2727
  922SOL    HW2 2766   1.560   1.895   0.956 -1.0098  2.1324 -0.6960
  923SOL     OW 2767   1.388   0.331   1.464 -0.6346 -0.4534  0.4167
  923SOL    HW1 2768   1.408   0.232   1.461 -0.0427  0.2661 -0.4499
  923SOL    HW2 2769   1.415   0.379   1.377 -0.4641  3.3392 -0.6013
  924SOL     OW 2770   1.815   1.679   0.313  0.1789 -0.2471 -0.1790
  924SOL    HW1 2771   1.764   1.599   0.346 -1.3385 -1.7355 -1.2610
  924SOL    HW2 2772   1.794   1.756   0.375 -2.5924 -0.6039 -0.7605
  925SOL     OW 2773   0.491   2.298   2.435 -0.2314  0.1355  0.2667
  925SOL    HW1 2774   0.581   2.322   2.397 -0.7577 -1.1969 -0.6060
  925SOL    HW2 2775   0.457   2.211   2.393  0.1054  1.1728 -0.5159
  926SOL     OW 2776   0.332   1.406   1.338  0.0387  0.0006 -0.2482
  926SOL    HW1 2777   0.302   1.493   1.292 -0.6866 -0.6352 -0.5805
  926SOL    HW2 2778   0.371   1.425   1.433  1.0046  1.3354 -1.0762
  927SOL     OW 2779   2.772   2.831   2.130 -0.1464  0.5888 -0.3478
  927SOL    HW1 2780   2.694   2.781   2.091 -0.1898  2.0665  3.4393
  927SOL    HW2 2781   2.734   2.891   2.202  1.7598 -1.6264 -0.1990
  928SOL     OW 2782   2.024   1.013   2.612  0.1407 -0.1791 -0.2615
  928SOL    HW1 2783   1.928   0.995   2.645 -0.7054 -1.6850 -2.7585
  928SOL    HW2 2784   2.033   0.990   2.512 -1.1963  2.1797  0.2203
  929SOL     OW 2785   3.011   0.169   0.514 -0.1731 -0.1114 -0.3487
  929SOL    HW1 2786   2.970   0.161   0.606  0.9720 -3.3030 -3.3428
  929SOL    HW2 2787   2.968   0.246   0.464 -1.9951 -1.1539  1.5893
  930SOL     OW 2788   0.059   0.365   2.233 -0.0108  0.0300  0.1805
  930SOL    HW1 2789   0.065   0.418   2.147  3.7997 -1.5419  3.4256
  930SOL    HW2 2790  -0.018   0.402   2.293 -1.5418  0.5121 -0.9736
  931SOL     OW 2791   2.039   2.645   0.749 -0.6626  0.2963 -0.4607
  931SOL    HW1 2792   2.089   2.600   0.672  1.6424 -0.6945 -3.8258
  931SOL    HW2 2793   2.037   2.747   0.741 -0.8813  1.6605  0.5467
  932SOL     OW 2794   2.277   0.280   1.512 -0.2008 -0.3091 -0.2660
  932SOL    HW1 2795   2.301   0.211   1.584  0.0442  2.1798  1.2021
  932SOL    HW2 2796   2.295   0.379   1.541  0.9613  1.9259 -0.3368
  933SOL     OW 2797   0.475   1.558   1.982 -0.2072  0.1912  0.5661
  933SOL    HW1 2798   0.466   1.509   2.075 -2.0660 -0.6377 -1.5265
  933SOL    HW2 2799   0.520   1.649   1.983  0.6302 -1.2629  2.9471
  934SOL     OW 2800   0.476   0.935   1.416 -0.5982  0.1145 -0.8190
  934SOL    HW1 2801   0.576   0.934   1.445  2.7956 -1.6402  1.1254
  934SOL    HW2 2802   0.460   0.988   1.332  0.1420 -2.7494  1.9819
  935SOL     OW 2803   2.923   2.245   3.066 -0.9551  0.2117  0.1020
  935SOL    HW1 2804   2.891   2.156   3.109  0.7688  0.1088 -1.6860
  935SOL    HW2 2805   2.844   2.307   3.053 -0.1804 -0.9223 -1.0128
  936SOL     OW 2806   1.961   1.599   2.499  0.2861 -0.3998 -0.3901
  936SOL    HW1 2807   1.955   1.642   2.591  1.4772  2.7203 -3.8619
  936SOL    HW2 2808   1.996   1.505   2.504  1.9874  2.9270  0.5751
  937SOL     OW 2809   1.862   2.863   1.115  0.5531 -0.2665 -0.0452
  937SOL    HW1 2810   1.762   2.858   1.116  1.5180  0.1875  1.3671
  937SOL    HW2 2811   1.906   2.793   1.175 -1.1292  0.8172  0.5754
  938SOL     OW 2812   0.396   0.624   0.080 -0.0257 -0.0660 -0.3212
  938SOL    HW1 2813   0.319   0.562   0.052  1.4892 -0.8786 -1.6418
  938SOL    HW2 2814   0.414   0.617   0.180  0.5430 -0.3794  1.4106
  939SOL     OW 2815   1.355   2.737   0.082 -0.3636  0.5151  0.8001
  939SOL    HW1 2816   1.295   2.683   0.021 -0.5915  0.7659  3.6064
  939SOL    HW2 2817   1.296   2.790   0.149 -0.7882  1.6759 -0.2986
  940SOL     OW 2818   0.629   1.524   0.713 -0.3145 -0.0006  0.6975
  940SOL    HW1 2819   0.568   1.579   0.655 -1.1616  1.7023  3.5272
  940SOL    HW2 2820   0.570   1.483   0.783  0.9461 -0.1940 -1.9827
  941SOL     OW 2821   1.254   1.164   2.883 -0.4275 -0.0173  0.2190
  941SOL    HW1 2822   1.184   1.099   2.842 -1.0595 -1.2356  1.0130
  941SOL    HW2 2823   1.324   1.203   2.816  0.8168  0.8881 -0.1758
  942SOL     OW 2824   0.930   0.330   1.986 -0.2399  0.0575  0.8575
  942SOL    HW1 2825   1.024   0.352   1.941  1.7478  0.6280 -1.5999
  942SOL    HW2 2826   0.856   0.323   1.919  0.4941 -0.5803 -0.7850
  943SOL     OW 2827   0.402   1.173   2.192  1.1178 -0.4555  0.0794
  943SOL    HW1 2828   0.337   1.195   2.113 -2.6526  0.7579  0.7447
  943SOL    HW2 2829   0.352   1.143   2.273 -1.8201  4.3241 -0.6198
  944SOL     OW 2830   1.587   2.168   2.042  0.1997 -0.1152 -0.4353
  944SOL    HW1 2831   1.579   2.151   1.945  3.7904 -0.6257  2.0393
  944SOL    HW2 2832   1.659   2.234   2.065 -2.1193 -2.5889  3.9416
  945SOL     OW 2833   0.076   1.663   1.950 -0.1413 -0.5143 -0.1015
  945SOL    HW1 2834   0.064   1.583   2.013 -0.0282 -0.4192 -1.0252
  945SOL    HW2 2835   0.159   1.642   1.894 -0.3392 -0.0729  2.0723
  946SOL     OW 2836   0.735   2.565   2.529  0.3442  0.2189 -0.4652
  946SOL    HW1 2837   0.641   2.575   2.489  0.9208 -0.0531 -0.3733
  946SOL    HW2 2838   0.741   2.609   2.623  1.3544  0.1916  0.6356
  947SOL     OW 2839   2.121   2.114   2.937  0.3301  0.0892 -0.1709
  947SOL    HW1 2840   2.139   2.124   2.835 -1.6384  1.6329 -0.9175
  947SOL    HW2 2841   2.207   2.084   2.986 -1.1003 -0.1133 -1.9132
  948SOL     OW 2842   0.001   0.547   2.781 -0.4166  0.3956  0.7747
  948SOL    HW1 2843  -0.085   0.568   2.833 -1.8929 -0.1607 -2.5458
  948SOL    HW2 2844   0.004   0.598   2.691 -0.1073 -0.3445  1.1688
  949SOL     OW 2845   1.923   1.548   2.233 -0.1862 -0.0881  0.4685
  949SOL    HW1 2846   1.913   1.557   2.332 -0.8750 -2.4489 -0.7878
  949SOL    HW2 2847   2.006   1.601   2.209 -0.3714 -1.7775  1.3231
  950SOL     OW 2848   0.168   1.613   1.566 -0.3375  0.2419  0.2165
  950SOL    HW1 2849   0.077   1.570   1.580 -3.1859 -0.3553 -0.9756
  950SOL    HW2 2850   0.224   1.605   1.653 -1.6185  0.4873  0.5354
  951SOL     OW 2851   2.433   2.034   1.615 -0.4161  0.5166 -0.4228
  951SOL    HW1 2852   2.386   1.984   1.540  1.8347  0.7619 -1.1688
  951SOL    HW2 2853   2.369   2.042   1.694  1.4538 -0.1145 -0.0315
  952SOL     OW 2854   1.588   2.990   0.419 -0.5659  1.0791  0.3512
  952SOL    HW1 2855   1.647   2.984   0.337 -1.5307  0.8613  1.9239
  952SOL    HW2 2856   1.578   2.892   0.459 -0.4112 -0.5039  1.4083
  953SOL     OW 2857   1.336   2.155   2.162  0.2439  0.2436 -0.2909
  953SOL    HW1 2858   1.274   2.161   2.082  1.1729  0.2124 -0.7653
  953SOL    HW2 2859   1.432   2.160   2.130 -1.3574  1.2934 -2.3386
  954SOL     OW 2860   1.870   2.004   1.480  0.2738 -0.2538 -0.3862
  954SOL    HW1 2861   1.949   2.035   1.421  2.5737  0.8860 -0.3542
  954SOL    HW2 2862   1.878   2.052   1.570 -1.3752 -1.3713  2.3722
  955SOL     OW 2863   1.701   0.203   1.618  0.3578  0.3250  0.0266
  955SOL    HW1 2864   1.752   0.278   1.569  0.4338 -1.3095 -1.4005
  955SOL    HW2 2865   1.625   0.164   1.560  0.6136 -0.9502  1.2216
  956SOL     OW 2866   2.414   2.098   2.689  0.0418 -0.0563 -0.3333
  956SOL    HW1 2867   2.458   2.089   2.598 -2.1384  2.3910 -0.2286
  956SOL    HW2 2868   2.315   2.116   2.674 -1.0552 -1.7484 -0.4223
  957SOL     OW 2869   1.223   1.339   3.070 -0.1746  0.1767 -0.4969
  957SOL    HW1 2870   1.178   1.430   3.049  0.7303  2.5360  2.3076
  957SOL    HW2 2871   1.221   1.272   2.991  0.5283  2.2632  2.1606
  958SOL     OW 2872   2.905   0.372   1.797  0.1649  0.3932 -0.3607
  958SOL    HW1 2873   2.935   0.391   1.699 -0.5941 -0.6796 -0.0331
  958SOL    HW2 2874   2.932   0.275   1.818  1.4391 -1.7217  0.6786
  959SOL     OW 2875   0.109   1.551   0.072  1.0200  0.1413  0.3250
  959SOL    HW1 2876   0.192   1.561   0.018 -1.9369 -1.8599 -1.3830
  959SOL    HW2 2877   0.095   1.450   0.076  1.6413  0.5200  2.0243
  960SOL     OW 2878   2.745   2.264   0.980  0.4494  0.1433  0.7115
  960SOL    HW1 2879   2.714   2.192   0.918  1.7746 -0.9416  1.0317
  960SOL    HW2 2880   2.838   2.248   1.021  0.6188  1.3623  0.5259
  961SOL     OW 2881   3.007   1.689   1.741 -0.4226 -0.3740 -0.6029
  961SOL    HW1 2882   3.052   1.692   1.833 -1.2153  1.6701 -0.3548
  961SOL    HW2 2883   2.993   1.785   1.706  0.1941  2.2933 -0.2505
  962SOL     OW 2884   1.702   2.508   1.888 -0.1344 -0.4306  0.3973
  962SOL    HW1 2885   1.687   2.450   1.804  1.9571 -0.4586  1.3025
  962SOL    HW2 2886   1.636   2.585   1.892  0.5096 -2.3136 -0.9839
  963SOL     OW 2887   1.468   0.662   0.088 -0.6578  0.4534 -0.2297
  963SOL    HW1 2888   1.453   0.762   0.071  0.5882 -0.9969  2.9367
  963SOL    HW2 2889   1.395   0.624   0.148 -1.2222 -2.7746 -1.9193
  964SOL     OW 2890   2.198   0.448   1.173 -0.0244 -0.4187 -0.1611
  964SOL    HW1 2891   2.167   0.461   1.078 -0.3743 -0.8283  2.3910
  964SOL    HW2 2892   2.291   0.480   1.197  0.8278 -0.2737 -0.9324
  965SOL     OW 2893   1.131   1.655   2.583  0.5320 -0.2574  0.1608
  965SOL    HW1 2894   1.207   1.614   2.637 -2.1488 -0.0550 -1.6507
  965SOL    HW2 2895   1.041   1.605   2.599 -1.2177  0.2939 -0.7226
  966SOL     OW 2896   1.603   2.719   0.827  0.0731 -0.1316 -0.0421
  966SOL    HW1 2897   1.691   2.664   0.825 -1.5434 -1.3971  0.6488
  966SOL    HW2 2898   1.613   2.821   0.838  1.1195 -1.6033 -0.7689
  967SOL     OW 2899   2.949   1.102   2.234  0.2792  0.3545  0.4231
  967SOL    HW1 2900   3.023   1.031   2.235  0.3752 -0.4148 -1.6113
  967SOL    HW2 2901   2.911   1.111   2.142  1.3328 -0.0670  0.3031
  968SOL     OW 2902   0.267   1.424   0.648 -0.2350  0.3224  0.0112
  968SOL    HW1 2903   0.205   1.387   0.575 -0.2858  0.3305  0.7656
  968SOL    HW2 2904   0.327   1.489   0.595 -1.5202  0.7869 -0.4210
  969SOL     OW 2905   1.386   0.332   2.697 -0.2181 -0.2412  0.1605
  969SOL    HW1 2906   1.328   0.291   2.626  3.1063  1.7238  0.2935
  969SOL    HW2 2907   1.476   0.286   2.707  0.0348 -2.6273 -0.1563
  970SOL     OW 2908   0.458   1.297   2.724  0.4563 -0.1423 -0.4658
  970SOL    HW1 2909   0.401   1.287   2.810 -1.0734 -0.8400 -1.8187
  970SOL    HW2 2910   0.470   1.207   2.679  3.1509  2.2591  0.5847
  971SOL     OW 2911   2.113   0.761   1.859 -0.2040  0.2578  0.2360
  971SOL    HW1 2912   2.055   0.711   1.929 -1.3017 -2.1176  0.6544
  971SOL    HW2 2913   2.215   0.743   1.875  0.8732  0.5405  1.5463
  972SOL     OW 2914   2.775   1.817   1.432  0.1399  0.0463 -0.4123
  972SOL    HW1 2915   2.733   1.861   1.518 -3.5378 -0.0444 -3.3130
  972SOL    HW2 2916   2.808   1.720   1.447  2.4636  1.0080  1.7636
  973SOL     OW 2917   2.343   1.817   1.358 -0.0329 -0.3677 -0.0301
  973SOL    HW1 2918   2.266   1.773   1.314  1.4092 -0.6576 -0.6593
  973SOL    HW2 2919   2.382   1.894   1.298  2.2768  1.4641 -1.3343
  974SOL     OW 2920   2.636   1.863   2.956 -0.5287 -0.0973 -0.2830
  974SOL    HW1 2921   2.655   1.961   2.932 -1.8777  0.8173 -3.0326
  974SOL    HW2 2922   2.699   1.798   2.909  0.1734 -0.8435 -0.8417
  975SOL     OW 2923   1.493   2.155   1.686 -0.1122 -0.0300  0.0847
  975SOL    HW1 2924   1.412   2.181   1.635  1.4799 -1.5246 -0.8276
  975SOL    HW2 2925   1.512   2.056   1.687  2.4557  4.0362 -3.3016
  976SOL     OW 2926   0.824   1.779   1.209 -0.3984  0.4518 -0.3395
  976SOL    HW1 2927   0.877   1.775   1.121 -1.2528 -0.6305  0.1619
  976SOL    HW2 2928   0.739   1.729   1.204  1.7825  3.1079  1.1134
  977SOL     OW 2929   2.259   2.773   2.929  0.5676  0.0316  0.0935
  977SOL    HW1 2930   2.238   2.863   2.975 -0.6678 -0.5195 -0.7254
  977SOL    HW2 2931   2.228   2.693   2.988 -1.2464  0.9480 -0.5432
   3.10000   3.10000   3.10000
