Generated by gmx solvate
 2931
    1SOL     OW    1   0.230   0.628   0.113
    1SOL    HW1    2   0.137   0.626   0.150
    1SOL    HW2    3   0.231   0.589   0.021
    2SOL     OW    4   0.225   0.275   0.996
    2SOL    HW1    5   0.260   0.258   1.088
    2SOL    HW2    6   0.137   0.230   0.984
    3SOL     OW    7   0.019   0.368   0.647
    3SOL    HW1    8  -0.063   0.411   0.686
    3SOL    HW2    9  -0.009   0.295   0.584
    4SOL     OW   10   0.569   1.275   1.165
    4SOL    HW1   11   0.476   1.268   1.128
    4SOL    HW2   12   0.580   1.364   1.209
    5SOL     OW   13   1.555   1.511   0.703
    5SOL    HW1   14   1.498   1.495   0.784
    5SOL    HW2   15   1.496   1.521   0.623
    6SOL     OW   16   1.135   0.703   0.717
    6SOL    HW1   17   1.192   0.781   0.692
    6SOL    HW2   18   1.075   0.729   0.793
    7SOL     OW   19   1.755   0.607   0.231
    7SOL    HW1   20   1.743   0.594   0.132
    7SOL    HW2   21   1.725   0.526   0.280
    8SOL     OW   22   0.768   1.144   1.023
    8SOL    HW1   23   0.690   1.161   1.083
    8SOL    HW2   24   0.802   1.231   0.987
    9SOL     OW   25   0.850   0.798   1.823
    9SOL    HW1   26   0.846   0.874   1.888
    9SOL    HW2   27   0.872   0.834   1.732
   10SOL     OW   28   0.685   1.012   0.665
   10SOL    HW1   29   0.754   0.996   0.735
   10SOL    HW2   30   0.612   1.069   0.703
   11SOL     OW   31   0.686   1.161   1.803
   11SOL    HW1   32   0.746   1.240   1.817
   11SOL    HW2   33   0.600   1.192   1.762
   12SOL     OW   34   0.335   1.435   1.061
   12SOL    HW1   35   0.257   1.404   1.008
   12SOL    HW2   36   0.393   1.493   1.004
   13SOL     OW   37   1.460   1.505   1.339
   13SOL    HW1   38   1.484   1.599   1.365
   13SOL    HW2   39   1.444   1.451   1.421
   14SOL     OW   40   0.438   0.392   1.499
   14SOL    HW1   41   0.520   0.336   1.508
   14SOL    HW2   42   0.357   0.334   1.503
   15SOL     OW   43   1.603   0.447   0.737
   15SOL    HW1   44   1.529   0.493   0.687
   15SOL    HW2   45   1.654   0.515   0.790
   16SOL     OW   46   0.231   1.713   0.483
   16SOL    HW1   47   0.265   1.790   0.537
   16SOL    HW2   48   0.275   1.713   0.393
   17SOL     OW   49   1.127   1.341   1.690
   17SOL    HW1   50   1.174   1.341   1.778
   17SOL    HW2   51   1.079   1.254   1.679
   18SOL     OW   52   0.230   1.434   0.538
   18SOL    HW1   53   0.204   1.530   0.538
   18SOL    HW2   54   0.159   1.380   0.583
   19SOL     OW   55   0.240   1.091   0.886
   19SOL    HW1   56   0.254   1.007   0.938
   19SOL    HW2   57   0.185   1.155   0.941
   20SOL     OW   58   0.620   1.786   1.439
   20SOL    HW1   59   0.528   1.769   1.474
   20SOL    HW2   60   0.648   1.878   1.465
   21SOL     OW   61   0.606   0.964   0.123
   21SOL    HW1   62   0.613   1.048   0.069
   21SOL    HW2   63   0.652   0.977   0.211
   22SOL     OW   64   1.594   0.114   1.480
   22SOL    HW1   65   1.576   0.181   1.408
   22SOL    HW2   66   1.591   0.160   1.569
   23SOL     OW   67   0.122   0.643   0.563
   23SOL    HW1   68   0.077   0.555   0.580
   23SOL    HW2   69   0.121   0.697   0.647
   24SOL     OW   70   1.842   1.767   0.359
   24SOL    HW1   71   1.896   1.738   0.439
   24SOL    HW2   72   1.872   1.857   0.330
   25SOL     OW   73   0.027   1.596   0.117
   25SOL    HW1   74   0.008   1.500   0.138
   25SOL    HW2   75  -0.006   1.654   0.192
   26SOL     OW   76   1.689   0.922   0.612
   26SOL    HW1   77   1.784   0.893   0.620
   26SOL    HW2   78   1.681   0.987   0.537
   27SOL     OW   79   1.641   1.108   0.432
   27SOL    HW1   80   1.727   1.110   0.380
   27SOL    HW2   81   1.655   1.155   0.520
   28SOL     OW   82   0.113   0.737   1.597
   28SOL    HW1   83   0.201   0.724   1.642
   28SOL    HW2   84   0.100   0.834   1.575
   29SOL     OW   85   0.613   1.365   0.726
   29SOL    HW1   86   0.564   1.278   0.735
   29SOL    HW2   87   0.590   1.408   0.639
   30SOL     OW   88   1.293   1.228   1.423
   30SOL    HW1   89   1.330   1.155   1.365
   30SOL    HW2   90   1.345   1.233   1.508
   31SOL     OW   91   0.809   0.004   0.502
   31SOL    HW1   92   0.849   0.095   0.493
   31SOL    HW2   93   0.709   0.012   0.508
   32SOL     OW   94   0.197   0.976   1.264
   32SOL    HW1   95   0.286   0.931   1.250
   32SOL    HW2   96   0.124   0.911   1.245
   33SOL     OW   97   1.525   0.999   0.190
   33SOL    HW1   98   1.462   0.923   0.203
   33SOL    HW2   99   1.573   1.017   0.276
   34SOL     OW  100   1.187   1.792   1.616
   34SOL    HW1  101   1.211   1.852   1.540
   34SOL    HW2  102   1.194   1.697   1.586
   35SOL     OW  103   0.317   0.251   1.801
   35SOL    HW1  104   0.388   0.322   1.807
   35SOL    HW2  105   0.229   0.290   1.829
   36SOL     OW  106   1.466   1.417   0.953
   36SOL    HW1  107   1.407   1.423   1.033
   36SOL    HW2  108   1.451   1.329   0.907
   37SOL     OW  109   1.667   1.714   0.572
   37SOL    HW1  110   1.626   1.691   0.484
   37SOL    HW2  111   1.649   1.640   0.637
   38SOL     OW  112   0.598   0.729   0.270
   38SOL    HW1  113   0.622   0.798   0.202
   38SOL    HW2  114   0.520   0.762   0.324
   39SOL     OW  115   1.281   0.345   0.944
   39SOL    HW1  116   1.195   0.295   0.931
   39SOL    HW2  117   1.343   0.291   1.000
   40SOL     OW  118   1.576   1.662   0.307
   40SOL    HW1  119   1.665   1.708   0.310
   40SOL    HW2  120   1.555   1.638   0.212
   41SOL     OW  121   0.807   0.605   1.465
   41SOL    HW1  122   0.760   0.602   1.554
   41SOL    HW2  123   0.756   0.550   1.399
   42SOL     OW  124   1.394   0.469   1.674
   42SOL    HW1  125   1.374   0.512   1.762
   42SOL    HW2  126   1.472   0.407   1.683
   43SOL     OW  127   0.973   0.890   1.572
   43SOL    HW1  128   1.019   0.806   1.543
   43SOL    HW2  129   0.917   0.924   1.497
   44SOL     OW  130   0.991   0.410   1.242
   44SOL    HW1  131   0.914   0.444   1.296
   44SOL    HW2  132   0.957   0.359   1.163
   45SOL     OW  133   1.041   0.701   0.429
   45SOL    HW1  134   1.067   0.697   0.525
   45SOL    HW2  135   0.956   0.650   0.415
   46SOL     OW  136   0.076   0.811   0.789
   46SOL    HW1  137   0.175   0.799   0.798
   46SOL    HW2  138   0.052   0.906   0.810
   47SOL     OW  139   0.130   1.821   1.571
   47SOL    HW1  140   0.120   1.806   1.670
   47SOL    HW2  141   0.044   1.857   1.535
   48SOL     OW  142   0.865   0.348   0.195
   48SOL    HW1  143   0.924   0.411   0.146
   48SOL    HW2  144   0.884   0.254   0.166
   49SOL     OW  145   1.719   0.585   1.831
   49SOL    HW1  146   1.693   0.674   1.795
   49SOL    HW2  147   1.717   0.517   1.758
   50SOL     OW  148   1.362   1.144   0.545
   50SOL    HW1  149   1.445   1.115   0.497
   50SOL    HW2  150   1.313   1.211   0.489
   51SOL     OW  151   0.550   0.196   0.885
   51SOL    HW1  152   0.545   0.191   0.985
   51SOL    HW2  153   0.552   0.292   0.856
   52SOL     OW  154   1.008   1.456   0.477
   52SOL    HW1  155   0.962   1.528   0.425
   52SOL    HW2  156   1.004   1.476   0.575
   53SOL     OW  157   0.351   1.801   0.853
   53SOL    HW1  158   0.401   1.715   0.859
   53SOL    HW2  159   0.416   1.878   0.850
   54SOL     OW  160   1.795   1.066   0.873
   54SOL    HW1  161   1.733   1.051   0.797
   54SOL    HW2  162   1.743   1.077   0.958
   55SOL     OW  163   1.227   1.550   1.506
   55SOL    HW1  164   1.233   1.473   1.570
   55SOL    HW2  165   1.175   1.524   1.426
   56SOL     OW  166   0.321   0.943   0.242
   56SOL    HW1  167   0.403   0.982   0.200
   56SOL    HW2  168   0.294   0.861   0.193
   57SOL     OW  169   1.458   0.735   0.728
   57SOL    HW1  170   1.453   0.670   0.803
   57SOL    HW2  171   1.538   0.794   0.741
   58SOL     OW  172   0.461   1.266   1.727
   58SOL    HW1  173   0.411   1.267   1.641
   58SOL    HW2  174   0.398   1.248   1.803
   59SOL     OW  175   1.111   1.776   0.237
   59SOL    HW1  176   1.051   1.714   0.287
   59SOL    HW2  177   1.142   1.732   0.152
   60SOL     OW  178   0.202   0.285   1.498
   60SOL    HW1  179   0.122   0.345   1.485
   60SOL    HW2  180   0.192   0.236   1.584
   61SOL     OW  181   1.632   1.377   0.081
   61SOL    HW1  182   1.600   1.471   0.071
   61SOL    HW2  183   1.556   1.314   0.069
   62SOL     OW  184   0.464   1.743   0.323
   62SOL    HW1  185   0.497   1.782   0.409
   62SOL    HW2  186   0.540   1.736   0.258
   63SOL     OW  187   1.400   0.107   0.426
   63SOL    HW1  188   1.376   0.070   0.336
   63SOL    HW2  189   1.499   0.123   0.430
   64SOL     OW  190   0.249   1.785   1.241
   64SOL    HW1  191   0.306   1.720   1.291
   64SOL    HW2  192   0.233   1.752   1.148
   65SOL     OW  193   0.940   1.698   0.904
   65SOL    HW1  194   1.020   1.641   0.925
   65SOL    HW2  195   0.891   1.658   0.827
   66SOL     OW  196   0.382   0.700   0.480
   66SOL    HW1  197   0.427   0.610   0.477
   66SOL    HW2  198   0.288   0.689   0.513
   67SOL     OW  199   1.547   0.222   1.729
   67SOL    HW1  200   1.542   0.259   1.821
   67SOL    HW2  201   1.475   0.153   1.717
   68SOL     OW  202   0.614   0.122   0.117
   68SOL    HW1  203   0.712   0.100   0.124
   68SOL    HW2  204   0.583   0.105   0.024
   69SOL     OW  205   0.781   0.264   1.749
   69SOL    HW1  206   0.848   0.203   1.792
   69SOL    HW2  207   0.708   0.283   1.814
   70SOL     OW  208   0.888   1.514   1.195
   70SOL    HW1  209   0.865   1.489   1.101
   70SOL    HW2  210   0.949   1.445   1.234
   71SOL     OW  211   1.351   0.590   1.433
   71SOL    HW1  212   1.379   0.547   1.518
   71SOL    HW2  213   1.376   0.686   1.434
   72SOL     OW  214   0.803   1.402   0.924
   72SOL    HW1  215   0.893   1.416   0.882
   72SOL    HW2  216   0.732   1.404   0.853
   73SOL     OW  217   0.922   0.503   0.899
   73SOL    HW1  218   0.897   0.494   0.803
   73SOL    HW2  219   0.970   0.421   0.930
   74SOL     OW  220   0.539   0.064   0.512
   74SOL    HW1  221   0.458   0.065   0.570
   74SOL    HW2  222   0.542   0.147   0.457
   75SOL     OW  223   1.434   1.188   0.041
   75SOL    HW1  224   1.466   1.112   0.098
   75SOL    HW2  225   1.342   1.215   0.071
   76SOL     OW  226   0.297   0.035   0.171
   76SOL    HW1  227   0.346   0.119   0.150
   76SOL    HW2  228   0.359  -0.030   0.216
   77SOL     OW  229   0.935   0.236   0.480
   77SOL    HW1  230   0.887   0.277   0.402
   77SOL    HW2  231   1.034   0.234   0.461
   78SOL     OW  232   1.076   0.683   1.464
   78SOL    HW1  233   0.996   0.622   1.467
   78SOL    HW2  234   1.157   0.630   1.440
   79SOL     OW  235   1.227   1.570   0.793
   79SOL    HW1  236   1.248   1.644   0.728
   79SOL    HW2  237   1.295   1.570   0.866
   80SOL     OW  238   0.459   1.152   0.741
   80SOL    HW1  239   0.388   1.125   0.806
   80SOL    HW2  240   0.433   1.124   0.648
   81SOL     OW  241   1.271   1.797   0.591
   81SOL    HW1  242   1.315   1.861   0.527
   81SOL    HW2  243   1.221   1.849   0.661
   82SOL     OW  244   1.032   0.549   0.016
   82SOL    HW1  245   0.991   0.631  -0.023
   82SOL    HW2  246   1.096   0.575   0.089
   83SOL     OW  247   0.078   0.556   1.386
   83SOL    HW1  248   0.170   0.555   1.345
   83SOL    HW2  249   0.072   0.630   1.453
   84SOL     OW  250   0.561   0.222   1.147
   84SOL    HW1  251   0.599   0.138   1.184
   84SOL    HW2  252   0.473   0.241   1.191
   85SOL     OW  253   0.866   0.454   0.642
   85SOL    HW1  254   0.834   0.526   0.580
   85SOL    HW2  255   0.890   0.373   0.589
   86SOL     OW  256   1.017   0.039   0.753
   86SOL    HW1  257   0.945   0.044   0.684
   86SOL    HW2  258   0.993  -0.030   0.822
   87SOL     OW  259   1.429   1.173   0.867
   87SOL    HW1  260   1.374   1.089   0.860
   87SOL    HW2  261   1.455   1.202   0.775
   88SOL     OW  262   1.466   0.590   0.992
   88SOL    HW1  263   1.436   0.495   0.999
   88SOL    HW2  264   1.539   0.606   1.058
   89SOL     OW  265   1.857   0.833   0.377
   89SOL    HW1  266   1.899   0.769   0.441
   89SOL    HW2  267   1.819   0.782   0.299
   90SOL     OW  268   0.488   1.385   0.174
   90SOL    HW1  269   0.401   1.370   0.221
   90SOL    HW2  270   0.471   1.411   0.079
   91SOL     OW  271   1.664   1.280   0.657
   91SOL    HW1  272   1.763   1.288   0.671
   91SOL    HW2  273   1.619   1.364   0.688
   92SOL     OW  274   1.390   0.575   0.078
   92SOL    HW1  275   1.336   0.554   0.159
   92SOL    HW2  276   1.481   0.534   0.087
   93SOL     OW  277   0.527   0.256   0.328
   93SOL    HW1  278   0.554   0.197   0.253
   93SOL    HW2  279   0.527   0.351   0.297
   94SOL     OW  280   1.754   1.223   1.588
   94SOL    HW1  281   1.845   1.184   1.575
   94SOL    HW2  282   1.762   1.319   1.612
   95SOL     OW  283   1.064   1.347   1.340
   95SOL    HW1  284   0.984   1.324   1.395
   95SOL    HW2  285   1.147   1.321   1.389
   96SOL     OW  286   1.592   1.629   1.625
   96SOL    HW1  287   1.619   1.663   1.535
   96SOL    HW2  288   1.671   1.591   1.671
   97SOL     OW  289   1.111   1.195   1.100
   97SOL    HW1  290   1.071   1.239   1.181
   97SOL    HW2  291   1.070   1.232   1.017
   98SOL     OW  292   1.638   1.099   1.079
   98SOL    HW1  293   1.643   1.180   1.138
   98SOL    HW2  294   1.552   1.101   1.028
   99SOL     OW  295   0.915   0.089   1.402
   99SOL    HW1  296   0.940   0.069   1.307
   99SOL    HW2  297   0.987   0.145   1.444
  100SOL     OW  298   0.980   1.116   1.719
  100SOL    HW1  299   0.881   1.122   1.729
  100SOL    HW2  300   1.003   1.036   1.663
  101SOL     OW  301   0.705   1.050   0.368
  101SOL    HW1  302   0.691   1.057   0.467
  101SOL    HW2  303   0.789   0.999   0.350
  102SOL     OW  304   0.410   0.813   1.251
  102SOL    HW1  305   0.496   0.825   1.301
  102SOL    HW2  306   0.368   0.726   1.278
  103SOL     OW  307   1.274   0.386   1.262
  103SOL    HW1  308   1.295   0.460   1.326
  103SOL    HW2  309   1.185   0.403   1.219
  104SOL     OW  310   0.064   1.564   1.331
  104SOL    HW1  311   0.018   1.646   1.297
  104SOL    HW2  312   0.162   1.583   1.340
  105SOL     OW  313   0.367   1.100   0.501
  105SOL    HW1  314   0.360   1.183   0.445
  105SOL    HW2  315   0.371   1.020   0.441
  106SOL     OW  316   0.566   0.537   0.865
  106SOL    HW1  317   0.578   0.603   0.791
  106SOL    HW2  318   0.612   0.571   0.948
  107SOL     OW  319   1.252   1.348   0.388
  107SOL    HW1  320   1.302   1.425   0.428
  107SOL    HW2  321   1.157   1.350   0.420
  108SOL     OW  322   1.272   1.445   1.142
  108SOL    HW1  323   1.319   1.458   1.229
  108SOL    HW2  324   1.206   1.371   1.151
  109SOL     OW  325   1.582   0.639   0.472
  109SOL    HW1  326   1.551   0.700   0.545
  109SOL    HW2  327   1.632   0.691   0.403
  110SOL     OW  328   0.354   1.510   1.329
  110SOL    HW1  329   0.333   1.466   1.242
  110SOL    HW2  330   0.451   1.536   1.332
  111SOL     OW  331   0.402   0.751   1.598
  111SOL    HW1  332   0.470   0.806   1.551
  111SOL    HW2  333   0.442   0.663   1.625
  112SOL     OW  334   1.587   0.779   1.670
  112SOL    HW1  335   1.495   0.817   1.665
  112SOL    HW2  336   1.647   0.826   1.605
  113SOL     OW  337   1.013   0.105   1.770
  113SOL    HW1  338   1.019   0.190   1.718
  113SOL    HW2  339   1.045   0.029   1.713
  114SOL     OW  340   0.504   0.050   1.740
  114SOL    HW1  341   0.462  -0.007   1.670
  114SOL    HW2  342   0.438   0.119   1.772
  115SOL     OW  343   0.573   0.870   1.029
  115SOL    HW1  344   0.617   0.959   1.020
  115SOL    HW2  345   0.510   0.870   1.106
  116SOL     OW  346   1.360   0.862   1.045
  116SOL    HW1  347   1.285   0.862   0.979
  116SOL    HW2  348   1.397   0.770   1.054
  117SOL     OW  349   1.209   0.525   0.275
  117SOL    HW1  350   1.222   0.441   0.329
  117SOL    HW2  351   1.180   0.599   0.335
  118SOL     OW  352   0.307   0.213   1.231
  118SOL    HW1  353   0.284   0.250   1.321
  118SOL    HW2  354   0.277   0.118   1.225
  119SOL     OW  355   0.037   1.310   1.282
  119SOL    HW1  356   0.090   1.261   1.350
  119SOL    HW2  357   0.059   1.408   1.287
  120SOL     OW  358   0.732   0.634   1.064
  120SOL    HW1  359   0.791   0.608   0.988
  120SOL    HW2  360   0.704   0.730   1.053
  121SOL     OW  361   1.728   0.935   1.854
  121SOL    HW1  362   1.682   0.928   1.765
  121SOL    HW2  363   1.666   0.979   1.920
  122SOL     OW  364   0.307   0.063   0.618
  122SOL    HW1  365   0.296   0.157   0.651
  122SOL    HW2  366   0.302   0.000   0.695
  123SOL     OW  367   1.622   0.367   0.374
  123SOL    HW1  368   1.624   0.291   0.438
  123SOL    HW2  369   1.574   0.444   0.414
  124SOL     OW  370   1.023   0.766   0.966
  124SOL    HW1  371   1.038   0.787   1.062
  124SOL    HW2  372   0.993   0.671   0.957
  125SOL     OW  373   0.980   1.573   1.700
  125SOL    HW1  374   0.960   1.617   1.612
  125SOL    HW2  375   1.019   1.482   1.684
  126SOL     OW  376   1.859   1.518   1.605
  126SOL    HW1  377   1.873   1.545   1.510
  126SOL    HW2  378   1.942   1.540   1.658
  127SOL     OW  379   0.350   0.898   1.804
  127SOL    HW1  380   0.426   0.942   1.852
  127SOL    HW2  381   0.385   0.851   1.722
  128SOL     OW  382   1.540   0.274   0.125
  128SOL    HW1  383   1.479   0.199   0.148
  128SOL    HW2  384   1.562   0.326   0.208
  129SOL     OW  385   1.303   0.838   0.042
  129SOL    HW1  386   1.337   0.745   0.057
  129SOL    HW2  387   1.321   0.865  -0.053
  130SOL     OW  388   1.068   1.333   0.849
  130SOL    HW1  389   1.075   1.249   0.794
  130SOL    HW2  390   1.130   1.402   0.813
  131SOL     OW  391   0.319   0.810   0.949
  131SOL    HW1  392   0.412   0.846   0.954
  131SOL    HW2  393   0.313   0.725   1.001
  132SOL     OW  394   0.339   0.509   1.006
  132SOL    HW1  395   0.287   0.426   0.989
  132SOL    HW2  396   0.416   0.514   0.942
  133SOL     OW  397   1.138   0.380   1.678
  133SOL    HW1  398   1.093   0.443   1.742
  133SOL    HW2  399   1.231   0.411   1.661
  134SOL     OW  400   1.160   0.207   1.477
  134SOL    HW1  401   1.160   0.271   1.554
  134SOL    HW2  402   1.188   0.255   1.394
  135SOL     OW  403   0.008   1.326   0.200
  135SOL    HW1  404  -0.085   1.347   0.169
  135SOL    HW2  405   0.018   1.227   0.213
  136SOL     OW  406   0.088   1.801   0.927
  136SOL    HW1  407   0.046   1.715   0.900
  136SOL    HW2  408   0.182   1.804   0.893
  137SOL     OW  409   0.504   1.568   0.910
  137SOL    HW1  410   0.570   1.642   0.919
  137SOL    HW2  411   0.548   1.489   0.868
  138SOL     OW  412   1.002   0.796   1.238
  138SOL    HW1  413   1.043   0.764   1.324
  138SOL    HW2  414   0.906   0.769   1.235
  139SOL     OW  415   0.040   0.544   1.114
  139SOL    HW1  416   0.125   0.511   1.073
  139SOL    HW2  417   0.053   0.559   1.212
  140SOL     OW  418   0.189   0.520   1.722
  140SOL    HW1  419   0.248   0.480   1.652
  140SOL    HW2  420   0.131   0.591   1.681
  141SOL     OW  421   1.369   0.950   1.660
  141SOL    HW1  422   1.408   1.039   1.680
  141SOL    HW2  423   1.379   0.930   1.563
  142SOL     OW  424   0.815   0.572   0.325
  142SOL    HW1  425   0.822   0.483   0.279
  142SOL    HW2  426   0.721   0.606   0.317
  143SOL     OW  427   1.657   0.604   1.206
  143SOL    HW1  428   1.619   0.535   1.268
  143SOL    HW2  429   1.739   0.568   1.162
  144SOL     OW  430   0.252   1.564   1.744
  144SOL    HW1  431   0.222   1.621   1.820
  144SOL    HW2  432   0.245   1.467   1.770
  145SOL     OW  433   0.671   0.464   1.269
  145SOL    HW1  434   0.637   0.375   1.239
  145SOL    HW2  435   0.697   0.518   1.189
  146SOL     OW  436   0.930   1.678   1.465
  146SOL    HW1  437   0.906   1.660   1.370
  146SOL    HW2  438   0.960   1.772   1.475
  147SOL     OW  439   0.473   0.500   0.191
  147SOL    HW1  440   0.534   0.580   0.195
  147SOL    HW2  441   0.378   0.531   0.198
  148SOL     OW  442   0.159   1.137   1.466
  148SOL    HW1  443   0.181   1.076   1.542
  148SOL    HW2  444   0.169   1.088   1.380
  149SOL     OW  445   1.347   1.059   1.234
  149SOL    HW1  446   1.371   0.996   1.160
  149SOL    HW2  447   1.257   1.099   1.216
  150SOL     OW  448   1.302   0.855   0.309
  150SOL    HW1  449   1.216   0.824   0.351
  150SOL    HW2  450   1.298   0.841   0.210
  151SOL     OW  451   1.759   1.747   1.154
  151SOL    HW1  452   1.820   1.777   1.081
  151SOL    HW2  453   1.721   1.658   1.132
  152SOL     OW  454   1.252   1.731   1.128
  152SOL    HW1  455   1.336   1.736   1.074
  152SOL    HW2  456   1.229   1.635   1.146
  153SOL     OW  457   0.083   1.258   1.022
  153SOL    HW1  458   0.078   1.257   1.122
  153SOL    HW2  459   0.000   1.217   0.984
  154SOL     OW  460   0.688   1.662   1.716
  154SOL    HW1  461   0.632   1.743   1.725
  154SOL    HW2  462   0.740   1.666   1.630
  155SOL     OW  463   0.903   0.086   0.133
  155SOL    HW1  464   0.954   0.087   0.047
  155SOL    HW2  465   0.959   0.044   0.204
  156SOL     OW  466   1.726   0.135   0.523
  156SOL    HW1  467   1.799   0.118   0.456
  156SOL    HW2  468   1.695   0.048   0.561
  157SOL     OW  469   1.388   1.573   0.477
  157SOL    HW1  470   1.455   1.585   0.403
  157SOL    HW2  471   1.348   1.662   0.500
  158SOL     OW  472   0.130   1.794   1.851
  158SOL    HW1  473   0.089   1.720   1.904
  158SOL    HW2  474   0.194   1.845   1.909
  159SOL     OW  475   1.280   0.927   0.672
  159SOL    HW1  476   1.340   0.846   0.674
  159SOL    HW2  477   1.320   0.996   0.612
  160SOL     OW  478   0.830   1.273   1.422
  160SOL    HW1  479   0.825   1.306   1.517
  160SOL    HW2  480   0.744   1.292   1.376
  161SOL     OW  481   0.672   1.616   0.154
  161SOL    HW1  482   0.681   1.626   0.055
  161SOL    HW2  483   0.632   1.527   0.175
  162SOL     OW  484   1.650   1.720   1.394
  162SOL    HW1  485   1.703   1.730   1.310
  162SOL    HW2  486   1.623   1.810   1.428
  163SOL     OW  487   1.841   0.175   0.963
  163SOL    HW1  488   1.880   0.090   0.927
  163SOL    HW2  489   1.743   0.177   0.944
  164SOL     OW  490   0.263   0.326   0.720
  164SOL    HW1  491   0.184   0.377   0.686
  164SOL    HW2  492   0.254   0.311   0.818
  165SOL     OW  493   1.194   1.612   0.031
  165SOL    HW1  494   1.200   1.519   0.068
  165SOL    HW2  495   1.135   1.612  -0.049
  166SOL     OW  496   0.822   1.002   1.372
  166SOL    HW1  497   0.862   1.001   1.280
  166SOL    HW2  498   0.832   1.094   1.412
  167SOL     OW  499   0.916   0.910   0.291
  167SOL    HW1  500   0.979   0.948   0.223
  167SOL    HW2  501   0.956   0.827   0.330
  168SOL     OW  502   1.504   1.607   0.044
  168SOL    HW1  503   1.412   1.644   0.051
  168SOL    HW2  504   1.542   1.627  -0.046
  169SOL     OW  505   0.372   1.288   1.490
  169SOL    HW1  506   0.359   1.381   1.456
  169SOL    HW2  507   0.288   1.236   1.477
  170SOL     OW  508   1.614   1.292   1.289
  170SOL    HW1  509   1.674   1.295   1.369
  170SOL    HW2  510   1.539   1.356   1.302
  171SOL     OW  511   1.039   1.098   0.696
  171SOL    HW1  512   0.969   1.051   0.750
  171SOL    HW2  513   1.098   1.030   0.653
  172SOL     OW  514   1.014   0.236   0.971
  172SOL    HW1  515   1.006   0.200   0.878
  172SOL    HW2  516   1.012   0.160   1.036
  173SOL     OW  517   0.590   1.487   0.491
  173SOL    HW1  518   0.632   1.429   0.421
  173SOL    HW2  519   0.546   1.566   0.447
  174SOL     OW  520   1.709   0.385   1.381
  174SOL    HW1  521   1.782   0.454   1.385
  174SOL    HW2  522   1.737   0.310   1.322
  175SOL     OW  523   0.255   1.348   0.290
  175SOL    HW1  524   0.159   1.349   0.263
  175SOL    HW2  525   0.267   1.401   0.374
  176SOL     OW  526   0.105   1.013   1.726
  176SOL    HW1  527   0.028   0.980   1.780
  176SOL    HW2  528   0.190   0.983   1.768
  177SOL     OW  529   0.672   0.203   1.489
  177SOL    HW1  530   0.762   0.187   1.449
  177SOL    HW2  531   0.680   0.208   1.588
  178SOL     OW  532   0.075   0.345   0.033
  178SOL    HW1  533  -0.017   0.317   0.004
  178SOL    HW2  534   0.106   0.422  -0.023
  179SOL     OW  535   1.440   0.856   1.398
  179SOL    HW1  536   1.383   0.908   1.335
  179SOL    HW2  537   1.536   0.868   1.374
  180SOL     OW  538   0.072   0.166   0.318
  180SOL    HW1  539   0.055   0.249   0.264
  180SOL    HW2  540   0.162   0.129   0.296
  181SOL     OW  541   1.183   1.335   0.119
  181SOL    HW1  542   1.084   1.324   0.121
  181SOL    HW2  543   1.217   1.350   0.212
  182SOL     OW  544   0.613   0.842   1.431
  182SOL    HW1  545   0.669   0.923   1.414
  182SOL    HW2  546   0.672   0.762   1.434
  183SOL     OW  547   1.493   1.767   0.959
  183SOL    HW1  548   1.526   1.831   0.890
  183SOL    HW2  549   1.559   1.761   1.034
  184SOL     OW  550   0.716   0.565   1.708
  184SOL    HW1  551   0.735   0.630   1.782
  184SOL    HW2  552   0.776   0.485   1.717
  185SOL     OW  553   1.450   1.220   1.633
  185SOL    HW1  554   1.441   1.210   1.732
  185SOL    HW2  555   1.546   1.213   1.607
  186SOL     OW  556   0.390   1.741   1.560
  186SOL    HW1  557   0.299   1.782   1.558
  186SOL    HW2  558   0.383   1.647   1.592
  187SOL     OW  559   1.674   0.883   1.254
  187SOL    HW1  560   1.647   0.794   1.217
  187SOL    HW2  561   1.675   0.951   1.181
  188SOL     OW  562   1.225   0.325   0.449
  188SOL    HW1  563   1.290   0.251   0.438
  188SOL    HW2  564   1.245   0.375   0.533
  189SOL     OW  565   0.594   0.745   0.652
  189SOL    HW1  566   0.644   0.830   0.633
  189SOL    HW2  567   0.506   0.747   0.604
  190SOL     OW  568   1.777   0.342   1.642
  190SOL    HW1  569   1.760   0.373   1.548
  190SOL    HW2  570   1.693   0.305   1.680
  191SOL     OW  571   1.730   0.934   1.517
  191SOL    HW1  572   1.768   1.025   1.532
  191SOL    HW2  573   1.722   0.917   1.418
  192SOL     OW  574   0.859   1.374   0.016
  192SOL    HW1  575   0.813   1.389   0.104
  192SOL    HW2  576   0.903   1.459  -0.014
  193SOL     OW  577   0.661   1.790   0.953
  193SOL    HW1  578   0.615   1.878   0.940
  193SOL    HW2  579   0.760   1.802   0.946
  194SOL     OW  580   0.859   0.956   0.861
  194SOL    HW1  581   0.913   0.887   0.909
  194SOL    HW2  582   0.827   1.025   0.927
  195SOL     OW  583   1.083   0.984   0.087
  195SOL    HW1  584   1.060   1.037   0.005
  195SOL    HW2  585   1.164   0.928   0.068
  196SOL     OW  586   1.861   1.569   0.851
  196SOL    HW1  587   1.790   1.557   0.781
  196SOL    HW2  588   1.862   1.490   0.911
  197SOL     OW  589   0.221   1.314   1.844
  197SOL    HW1  590   0.156   1.241   1.823
  197SOL    HW2  591   0.225   1.328   1.942
  198SOL     OW  592   0.079   1.240   0.653
  198SOL    HW1  593   0.078   1.193   0.741
  198SOL    HW2  594   0.161   1.212   0.602
  199SOL     OW  595   0.672   1.391   1.624
  199SOL    HW1  596   0.594   1.341   1.662
  199SOL    HW2  597   0.669   1.486   1.655
  200SOL     OW  598   1.824   0.192   1.227
  200SOL    HW1  599   1.820   0.102   1.271
  200SOL    HW2  600   1.827   0.181   1.128
  201SOL     OW  601   0.428   0.424   0.520
  201SOL    HW1  602   0.458   0.352   0.458
  201SOL    HW2  603   0.389   0.384   0.603
  202SOL     OW  604   1.705   1.487   1.104
  202SOL    HW1  605   1.612   1.462   1.077
  202SOL    HW2  606   1.731   1.437   1.186
  203SOL     OW  607   0.317   0.547   1.280
  203SOL    HW1  608   0.355   0.488   1.352
  203SOL    HW2  609   0.357   0.521   1.192
  204SOL     OW  610   0.812   1.586   0.687
  204SOL    HW1  611   0.844   1.596   0.593
  204SOL    HW2  612   0.733   1.524   0.689
  205SOL     OW  613   1.424   0.214   1.112
  205SOL    HW1  614   1.476   0.149   1.167
  205SOL    HW2  615   1.375   0.277   1.173
  206SOL     OW  616   1.001   0.034   1.154
  206SOL    HW1  617   0.938  -0.038   1.123
  206SOL    HW2  618   1.094  -0.002   1.154
  207SOL     OW  619   0.770   1.330   0.301
  207SOL    HW1  620   0.724   1.243   0.318
  207SOL    HW2  621   0.861   1.327   0.342
  208SOL     OW  622   0.618   1.567   1.284
  208SOL    HW1  623   0.613   1.649   1.341
  208SOL    HW2  624   0.707   1.564   1.239
  209SOL     OW  625   1.352   0.052   0.168
  209SOL    HW1  626   1.387   0.011   0.084
  209SOL    HW2  627   1.262   0.014   0.188
  210SOL     OW  628   1.300   0.453   0.691
  210SOL    HW1  629   1.241   0.533   0.695
  210SOL    HW2  630   1.315   0.418   0.784
  211SOL     OW  631   1.593   0.221   0.882
  211SOL    HW1  632   1.509   0.220   0.936
  211SOL    HW2  633   1.595   0.304   0.826
  212SOL     OW  634   0.039   1.077   0.300
  212SOL    HW1  635   0.138   1.066   0.291
  212SOL    HW2  636  -0.001   0.991   0.332
  213SOL     OW  637   0.875   1.646   0.337
  213SOL    HW1  638   0.798   1.611   0.283
  213SOL    HW2  639   0.843   1.717   0.399
  214SOL     OW  640   0.230   0.628   1.975
  214SOL    HW1  641   0.137   0.626   2.012
  214SOL    HW2  642   0.231   0.589   1.883
  215SOL     OW  643   0.225   0.275   2.858
  215SOL    HW1  644   0.260   0.258   2.950
  215SOL    HW2  645   0.137   0.230   2.846
  216SOL     OW  646   0.019   0.368   2.509
  216SOL    HW1  647  -0.063   0.411   2.548
  216SOL    HW2  648  -0.009   0.295   2.446
  217SOL     OW  649   0.569   1.275   3.027
  217SOL    HW1  650   0.476   1.268   2.990
  217SOL    HW2  651   0.580   1.364   3.071
  218SOL     OW  652   1.555   1.511   2.565
  218SOL    HW1  653   1.498   1.495   2.646
  218SOL    HW2  654   1.496   1.521   2.485
  219SOL     OW  655   1.135   0.703   2.579
  219SOL    HW1  656   1.192   0.781   2.554
  219SOL    HW2  657   1.075   0.729   2.655
  220SOL     OW  658   1.755   0.607   2.093
  220SOL    HW1  659   1.743   0.594   1.994
  220SOL    HW2  660   1.725   0.526   2.142
  221SOL     OW  661   0.768   1.144   2.885
  221SOL    HW1  662   0.690   1.161   2.945
  221SOL    HW2  663   0.802   1.231   2.849
  222SOL     OW  664   0.685   1.012   2.527
  222SOL    HW1  665   0.754   0.996   2.597
  222SOL    HW2  666   0.612   1.069   2.565
  223SOL     OW  667   0.335   1.435   2.923
  223SOL    HW1  668   0.257   1.404   2.870
  223SOL    HW2  669   0.393   1.493   2.866
  224SOL     OW  670   1.603   0.447   2.599
  224SOL    HW1  671   1.529   0.493   2.549
  224SOL    HW2  672   1.654   0.515   2.652
  225SOL     OW  673   0.231   1.713   2.345
  225SOL    HW1  674   0.265   1.790   2.399
  225SOL    HW2  675   0.275   1.713   2.255
  226SOL     OW  676   0.230   1.434   2.400
  226SOL    HW1  677   0.204   1.530   2.400
  226SOL    HW2  678   0.159   1.380   2.445
  227SOL     OW  679   0.240   1.091   2.748
  227SOL    HW1  680   0.254   1.007   2.800
  227SOL    HW2  681   0.185   1.155   2.803
  228SOL     OW  682   0.606   0.964   1.985
  228SOL    HW1  683   0.613   1.048   1.931
  228SOL    HW2  684   0.652   0.977   2.073
  229SOL     OW  685   0.122   0.643   2.425
  229SOL    HW1  686   0.077   0.555   2.442
  229SOL    HW2  687   0.121   0.697   2.509
  230SOL     OW  688   1.842   1.767   2.221
  230SOL    HW1  689   1.896   1.738   2.301
  230SOL    HW2  690   1.872   1.857   2.192
  231SOL     OW  691   0.027   1.596   1.979
  231SOL    HW1  692   0.008   1.500   2.000
  231SOL    HW2  693  -0.006   1.654   2.054
  232SOL     OW  694   1.689   0.922   2.474
  232SOL    HW1  695   1.784   0.893   2.482
  232SOL    HW2  696   1.681   0.987   2.399
  233SOL     OW  697   1.641   1.108   2.294
  233SOL    HW1  698   1.727   1.110   2.242
  233SOL    HW2  699   1.655   1.155   2.382
  234SOL     OW  700   0.613   1.365   2.588
  234SOL    HW1  701   0.564   1.278   2.597
  234SOL    HW2  702   0.590   1.408   2.501
  235SOL     OW  703   0.809   0.004   2.364
  235SOL    HW1  704   0.849   0.095   2.355
  235SOL    HW2  705   0.709   0.012   2.370
  236SOL     OW  706   0.197   0.976   3.126
  236SOL    HW1  707   0.286   0.931   3.112
  236SOL    HW2  708   0.124   0.911   3.107
  237SOL     OW  709   1.525   0.999   2.052
  237SOL    HW1  710   1.462   0.923   2.065
  237SOL    HW2  711   1.573   1.017   2.138
  238SOL     OW  712   1.466   1.417   2.815
  238SOL    HW1  713   1.407   1.423   2.895
  238SOL    HW2  714   1.451   1.329   2.769
  239SOL     OW  715   1.667   1.714   2.434
  239SOL    HW1  716   1.626   1.691   2.346
  239SOL    HW2  717   1.649   1.640   2.499
  240SOL     OW  718   0.598   0.729   2.132
  240SOL    HW1  719   0.622   0.798   2.064
  240SOL    HW2  720   0.520   0.762   2.186
  241SOL     OW  721   1.281   0.345   2.806
  241SOL    HW1  722   1.195   0.295   2.793
  241SOL    HW2  723   1.343   0.291   2.862
  242SOL     OW  724   1.576   1.662   2.169
  242SOL    HW1  725   1.665   1.708   2.172
  242SOL    HW2  726   1.555   1.638   2.074
  243SOL     OW  727   1.041   0.701   2.291
  243SOL    HW1  728   1.067   0.697   2.387
  243SOL    HW2  729   0.956   0.650   2.277
  244SOL     OW  730   0.076   0.811   2.651
  244SOL    HW1  731   0.175   0.799   2.660
  244SOL    HW2  732   0.052   0.906   2.672
  245SOL     OW  733   0.865   0.348   2.057
  245SOL    HW1  734   0.924   0.411   2.008
  245SOL    HW2  735   0.884   0.254   2.028
  246SOL     OW  736   1.362   1.144   2.407
  246SOL    HW1  737   1.445   1.115   2.359
  246SOL    HW2  738   1.313   1.211   2.351
  247SOL     OW  739   0.550   0.196   2.747
  247SOL    HW1  740   0.545   0.191   2.847
  247SOL    HW2  741   0.552   0.292   2.718
  248SOL     OW  742   1.008   1.456   2.339
  248SOL    HW1  743   0.962   1.528   2.287
  248SOL    HW2  744   1.004   1.476   2.437
  249SOL     OW  745   0.351   1.801   2.715
  249SOL    HW1  746   0.401   1.715   2.721
  249SOL    HW2  747   0.416   1.878   2.712
  250SOL     OW  748   1.795   1.066   2.735
  250SOL    HW1  749   1.733   1.051   2.659
  250SOL    HW2  750   1.743   1.077   2.820
  251SOL     OW  751   0.321   0.943   2.104
  251SOL    HW1  752   0.403   0.982   2.062
  251SOL    HW2  753   0.294   0.861   2.055
  252SOL     OW  754   1.458   0.735   2.590
  252SOL    HW1  755   1.453   0.670   2.665
  252SOL    HW2  756   1.538   0.794   2.603
  253SOL     OW  757   1.111   1.776   2.099
  253SOL    HW1  758   1.051   1.714   2.149
  253SOL    HW2  759   1.142   1.732   2.014
  254SOL     OW  760   1.632   1.377   1.943
  254SOL    HW1  761   1.600   1.471   1.933
  254SOL    HW2  762   1.556   1.314   1.931
  255SOL     OW  763   0.464   1.743   2.185
  255SOL    HW1  764   0.497   1.782   2.271
  255SOL    HW2  765   0.540   1.736   2.120
  256SOL     OW  766   1.400   0.107   2.288
  256SOL    HW1  767   1.376   0.070   2.198
  256SOL    HW2  768   1.499   0.123   2.292
  257SOL     OW  769   0.249   1.785   3.103
  257SOL    HW1  770   0.306   1.720   3.153
  257SOL    HW2  771   0.233   1.752   3.010
  258SOL     OW  772   0.940   1.698   2.766
  258SOL    HW1  773   1.020   1.641   2.787
  258SOL    HW2  774   0.891   1.658   2.689
  259SOL     OW  775   0.382   0.700   2.342
  259SOL    HW1  776   0.427   0.610   2.339
  259SOL    HW2  777   0.288   0.689   2.375
  260SOL     OW  778   0.614   0.122   1.979
  260SOL    HW1  779   0.712   0.100   1.986
  260SOL    HW2  780   0.583   0.105   1.886
  261SOL     OW  781   0.803   1.402   2.786
  261SOL    HW1  782   0.893   1.416   2.744
  261SOL    HW2  783   0.732   1.404   2.715
  262SOL     OW  784   0.922   0.503   2.761
  262SOL    HW1  785   0.897   0.494   2.665
  262SOL    HW2  786   0.970   0.421   2.792
  263SOL     OW  787   0.539   0.064   2.374
  263SOL    HW1  788   0.458   0.065   2.432
  263SOL    HW2  789   0.542   0.147   2.319
  264SOL     OW  790   1.434   1.188   1.903
  264SOL    HW1  791   1.466   1.112   1.960
  264SOL    HW2  792   1.342   1.215   1.933
  265SOL     OW  793   0.297   0.035   2.033
  265SOL    HW1  794   0.346   0.119   2.012
  265SOL    HW2  795   0.359  -0.030   2.078
  266SOL     OW  796   0.935   0.236   2.342
  266SOL    HW1  797   0.887   0.277   2.264
  266SOL    HW2  798   1.034   0.234   2.323
  267SOL     OW  799   1.227   1.570   2.655
  267SOL    HW1  800   1.248   1.644   2.590
  267SOL    HW2  801   1.295   1.570   2.728
  268SOL     OW  802   0.459   1.152   2.603
  268SOL    HW1  803   0.388   1.125   2.668
  268SOL    HW2  804   0.433   1.124   2.510
  269SOL     OW  805   1.271   1.797   2.453
  269SOL    HW1  806   1.315   1.861   2.389
  269SOL    HW2  807   1.221   1.849   2.523
  270SOL     OW  808   1.032   0.549   1.878
  270SOL    HW1  809   0.991   0.631   1.839
  270SOL    HW2  810   1.096   0.575   1.951
  271SOL     OW  811   0.866   0.454   2.504
  271SOL    HW1  812   0.834   0.526   2.442
  271SOL    HW2  813   0.890   0.373   2.451
  272SOL     OW  814   1.017   0.039   2.615
  272SOL    HW1  815   0.945   0.044   2.546
  272SOL    HW2  816   0.993  -0.030   2.684
  273SOL     OW  817   1.429   1.173   2.729
  273SOL    HW1  818   1.374   1.089   2.722
  273SOL    HW2  819   1.455   1.202   2.637
  274SOL     OW  820   1.466   0.590   2.854
  274SOL    HW1  821   1.436   0.495   2.861
  274SOL    HW2  822   1.539   0.606   2.920
  275SOL     OW  823   1.857   0.833   2.239
  275SOL    HW1  824   1.899   0.769   2.303
  275SOL    HW2  825   1.819   0.782   2.161
  276SOL     OW  826   0.488   1.385   2.036
  276SOL    HW1  827   0.401   1.370   2.083
  276SOL    HW2  828   0.471   1.411   1.941
  277SOL     OW  829   1.664   1.280   2.519
  277SOL    HW1  830   1.763   1.288   2.533
  277SOL    HW2  831   1.619   1.364   2.550
  278SOL     OW  832   1.390   0.575   1.940
  278SOL    HW1  833   1.336   0.554   2.021
  278SOL    HW2  834   1.481   0.534   1.949
  279SOL     OW  835   0.527   0.256   2.190
  279SOL    HW1  836   0.554   0.197   2.115
  279SOL    HW2  837   0.527   0.351   2.159
  280SOL     OW  838   1.111   1.195   2.962
  280SOL    HW1  839   1.071   1.239   3.043
  280SOL    HW2  840   1.070   1.232   2.879
  281SOL     OW  841   1.638   1.099   2.941
  281SOL    HW1  842   1.643   1.180   3.000
  281SOL    HW2  843   1.552   1.101   2.890
  282SOL     OW  844   0.705   1.050   2.230
  282SOL    HW1  845   0.691   1.057   2.329
  282SOL    HW2  846   0.789   0.999   2.212
  283SOL     OW  847   0.410   0.813   3.113
  283SOL    HW1  848   0.496   0.825   3.163
  283SOL    HW2  849   0.368   0.726   3.140
  284SOL     OW  850   0.367   1.100   2.363
  284SOL    HW1  851   0.360   1.183   2.307
  284SOL    HW2  852   0.371   1.020   2.303
  285SOL     OW  853   0.566   0.537   2.727
  285SOL    HW1  854   0.578   0.603   2.653
  285SOL    HW2  855   0.612   0.571   2.810
  286SOL     OW  856   1.252   1.348   2.250
  286SOL    HW1  857   1.302   1.425   2.290
  286SOL    HW2  858   1.157   1.350   2.282
  287SOL     OW  859   1.272   1.445   3.004
  287SOL    HW1  860   1.319   1.458   3.091
  287SOL    HW2  861   1.206   1.371   3.013
  288SOL     OW  862   1.582   0.639   2.334
  288SOL    HW1  863   1.551   0.700   2.407
  288SOL    HW2  864   1.632   0.691   2.265
  289SOL     OW  865   0.573   0.870   2.891
  289SOL    HW1  866   0.617   0.959   2.882
  289SOL    HW2  867   0.510   0.870   2.968
  290SOL     OW  868   1.209   0.525   2.137
  290SOL    HW1  869   1.222   0.441   2.191
  290SOL    HW2  870   1.180   0.599   2.197
  291SOL     OW  871   0.307   0.213   3.093
  291SOL    HW1  872   0.284   0.250   3.183
  291SOL    HW2  873   0.277   0.118   3.087
  292SOL     OW  874   0.732   0.634   2.926
  292SOL    HW1  875   0.791   0.608   2.850
  292SOL    HW2  876   0.704   0.730   2.915
  293SOL     OW  877   0.307   0.063   2.480
  293SOL    HW1  878   0.296   0.157   2.513
  293SOL    HW2  879   0.302   0.000   2.557
  294SOL     OW  880   1.622   0.367   2.236
  294SOL    HW1  881   1.624   0.291   2.300
  294SOL    HW2  882   1.574   0.444   2.276
  295SOL     OW  883   1.023   0.766   2.828
  295SOL    HW1  884   1.038   0.787   2.924
  295SOL    HW2  885   0.993   0.671   2.819
  296SOL     OW  886   1.540   0.274   1.987
  296SOL    HW1  887   1.479   0.199   2.010
  296SOL    HW2  888   1.562   0.326   2.070
  297SOL     OW  889   1.303   0.838   1.904
  297SOL    HW1  890   1.337   0.745   1.919
  297SOL    HW2  891   1.321   0.865   1.809
  298SOL     OW  892   1.068   1.333   2.711
  298SOL    HW1  893   1.075   1.249   2.656
  298SOL    HW2  894   1.130   1.402   2.675
  299SOL     OW  895   0.319   0.810   2.811
  299SOL    HW1  896   0.412   0.846   2.816
  299SOL    HW2  897   0.313   0.725   2.863
  300SOL     OW  898   0.339   0.509   2.868
  300SOL    HW1  899   0.287   0.426   2.851
  300SOL    HW2  900   0.416   0.514   2.804
  301SOL     OW  901   1.160   0.207   3.339
  301SOL    HW1  902   1.160   0.271   3.416
  301SOL    HW2  903   1.188   0.255   3.256
  302SOL     OW  904   0.008   1.326   2.062
  302SOL    HW1  905  -0.085   1.347   2.031
  302SOL    HW2  906   0.018   1.227   2.075
  303SOL     OW  907   0.088   1.801   2.789
  303SOL    HW1  908   0.046   1.715   2.762
  303SOL    HW2  909   0.182   1.804   2.755
  304SOL     OW  910   0.504   1.568   2.772
  304SOL    HW1  911   0.570   1.642   2.781
  304SOL    HW2  912   0.548   1.489   2.730
  305SOL     OW  913   1.002   0.796   3.100
  305SOL    HW1  914   1.043   0.764   3.186
  305SOL    HW2  915   0.906   0.769   3.097
  306SOL     OW  916   0.040   0.544   2.976
  306SOL    HW1  917   0.125   0.511   2.935
  306SOL    HW2  918   0.053   0.559   3.074
  307SOL     OW  919   0.815   0.572   2.187
  307SOL    HW1  920   0.822   0.483   2.141
  307SOL    HW2  921   0.721   0.606   2.179
  308SOL     OW  922   1.657   0.604   3.068
  308SOL    HW1  923   1.619   0.535   3.130
  308SOL    HW2  924   1.739   0.568   3.024
  309SOL     OW  925   0.671   0.464   3.131
  309SOL    HW1  926   0.637   0.375   3.101
  309SOL    HW2  927   0.697   0.518   3.051
  310SOL     OW  928   0.473   0.500   2.053
  310SOL    HW1  929   0.534   0.580   2.057
  310SOL    HW2  930   0.378   0.531   2.060
  311SOL     OW  931   1.302   0.855   2.171
  311SOL    HW1  932   1.216   0.824   2.213
  311SOL    HW2  933   1.298   0.841   2.072
  312SOL     OW  934   1.759   1.747   3.016
  312SOL    HW1  935   1.820   1.777   2.943
  312SOL    HW2  936   1.721   1.658   2.994
  313SOL     OW  937   0.083   1.258   2.884
  313SOL    HW1  938   0.078   1.257   2.984
  313SOL    HW2  939   0.000   1.217   2.846
  314SOL     OW  940   1.726   0.135   2.385
  314SOL    HW1  941   1.799   0.118   2.318
  314SOL    HW2  942   1.695   0.048   2.423
  315SOL     OW  943   1.388   1.573   2.339
  315SOL    HW1  944   1.455   1.585   2.265
  315SOL    HW2  945   1.348   1.662   2.362
  316SOL     OW  946   1.280   0.927   2.534
  316SOL    HW1  947   1.340   0.846   2.536
  316SOL    HW2  948   1.320   0.996   2.474
  317SOL     OW  949   0.672   1.616   2.016
  317SOL    HW1  950   0.681   1.626   1.917
  317SOL    HW2  951   0.632   1.527   2.037
  318SOL     OW  952   1.841   0.175   2.825
  318SOL    HW1  953   1.880   0.090   2.789
  318SOL    HW2  954   1.743   0.177   2.806
  319SOL     OW  955   0.263   0.326   2.582
  319SOL    HW1  956   0.184   0.377   2.548
  319SOL    HW2  957   0.254   0.311   2.680
  320SOL     OW  958   1.194   1.612   1.893
  320SOL    HW1  959   1.200   1.519   1.930
  320SOL    HW2  960   1.135   1.612   1.813
  321SOL     OW  961   0.822   1.002   3.234
  321SOL    HW1  962   0.862   1.001   3.142
  321SOL    HW2  963   0.832   1.094   3.274
  322SOL     OW  964   0.916   0.910   2.153
  322SOL    HW1  965   0.979   0.948   2.085
  322SOL    HW2  966   0.956   0.827   2.192
  323SOL     OW  967   1.504   1.607   1.906
  323SOL    HW1  968   1.412   1.644   1.913
  323SOL    HW2  969   1.542   1.627   1.816
  324SOL     OW  970   1.039   1.098   2.558
  324SOL    HW1  971   0.969   1.051   2.612
  324SOL    HW2  972   1.098   1.030   2.515
  325SOL     OW  973   1.014   0.236   2.833
  325SOL    HW1  974   1.006   0.200   2.740
  325SOL    HW2  975   1.012   0.160   2.898
  326SOL     OW  976   0.590   1.487   2.353
  326SOL    HW1  977   0.632   1.429   2.283
  326SOL    HW2  978   0.546   1.566   2.309
  327SOL     OW  979   1.709   0.385   3.243
  327SOL    HW1  980   1.782   0.454   3.247
  327SOL    HW2  981   1.737   0.310   3.184
  328SOL     OW  982   0.255   1.348   2.152
  328SOL    HW1  983   0.159   1.349   2.125
  328SOL    HW2  984   0.267   1.401   2.236
  329SOL     OW  985   0.075   0.345   1.895
  329SOL    HW1  986  -0.017   0.317   1.866
  329SOL    HW2  987   0.106   0.422   1.839
  330SOL     OW  988   0.072   0.166   2.180
  330SOL    HW1  989   0.055   0.249   2.126
  330SOL    HW2  990   0.162   0.129   2.158
  331SOL     OW  991   1.183   1.335   1.981
  331SOL    HW1  992   1.084   1.324   1.983
  331SOL    HW2  993   1.217   1.350   2.074
  332SOL     OW  994   1.493   1.767   2.821
  332SOL    HW1  995   1.526   1.831   2.752
  332SOL    HW2  996   1.559   1.761   2.896
  333SOL     OW  997   1.674   0.883   3.116
  333SOL    HW1  998   1.647   0.794   3.079
  333SOL    HW2  999   1.675   0.951   3.043
  334SOL     OW 1000   1.225   0.325   2.311
  334SOL    HW1 1001   1.290   0.251   2.300
  334SOL    HW2 1002   1.245   0.375   2.395
  335SOL     OW 1003   0.594   0.745   2.514
  335SOL    HW1 1004   0.644   0.830   2.495
  335SOL    HW2 1005   0.506   0.747   2.466
  336SOL     OW 1006   0.859   1.374   1.878
  336SOL    HW1 1007   0.813   1.389   1.966
  336SOL    HW2 1008   0.903   1.459   1.848
  337SOL     OW 1009   0.661   1.790   2.815
  337SOL    HW1 1010   0.615   1.878   2.802
  337SOL    HW2 1011   0.760   1.802   2.808
  338SOL     OW 1012   0.859   0.956   2.723
  338SOL    HW1 1013   0.913   0.887   2.771
  338SOL    HW2 1014   0.827   1.025   2.789
  339SOL     OW 1015   1.083   0.984   1.949
  339SOL    HW1 1016   1.060   1.037   1.867
  339SOL    HW2 1017   1.164   0.928   1.930
  340SOL     OW 1018   1.861   1.569   2.713
  340SOL    HW1 1019   1.790   1.557   2.643
  340SOL    HW2 1020   1.862   1.490   2.773
  341SOL     OW 1021   0.079   1.240   2.515
  341SOL    HW1 1022   0.078   1.193   2.603
  341SOL    HW2 1023   0.161   1.212   2.464
  342SOL     OW 1024   1.824   0.192   3.089
  342SOL    HW1 1025   1.820   0.102   3.133
  342SOL    HW2 1026   1.827   0.181   2.990
  343SOL     OW 1027   0.428   0.424   2.382
  343SOL    HW1 1028   0.458   0.352   2.320
  343SOL    HW2 1029   0.389   0.384   2.465
  344SOL     OW 1030   1.705   1.487   2.966
  344SOL    HW1 1031   1.612   1.462   2.939
  344SOL    HW2 1032   1.731   1.437   3.048
  345SOL     OW 1033   0.812   1.586   2.549
  345SOL    HW1 1034   0.844   1.596   2.455
  345SOL    HW2 1035   0.733   1.524   2.551
  346SOL     OW 1036   1.424   0.214   2.974
  346SOL    HW1 1037   1.476   0.149   3.029
  346SOL    HW2 1038   1.375   0.277   3.035
  347SOL     OW 1039   0.770   1.330   2.163
  347SOL    HW1 1040   0.724   1.243   2.180
  347SOL    HW2 1041   0.861   1.327   2.204
  348SOL     OW 1042   1.352   0.052   2.030
  348SOL    HW1 1043   1.387   0.011   1.946
  348SOL    HW2 1044   1.262   0.014   2.050
  349SOL     OW 1045   1.300   0.453   2.553
  349SOL    HW1 1046   1.241   0.533   2.557
  349SOL    HW2 1047   1.315   0.418   2.646
  350SOL     OW 1048   1.593   0.221   2.744
  350SOL    HW1 1049   1.509   0.220   2.798
  350SOL    HW2 1050   1.595   0.304   2.688
  351SOL     OW 1051   0.039   1.077   2.162
  351SOL    HW1 1052   0.138   1.066   2.153
  351SOL    HW2 1053  -0.001   0.991   2.194
  352SOL     OW 1054   0.875   1.646   2.199
  352SOL    HW1 1055   0.798   1.611   2.145
  352SOL    HW2 1056   0.843   1.717   2.261
  353SOL     OW 1057   0.230   2.490   0.113
  353SOL    HW1 1058   0.137   2.488   0.150
  353SOL    HW2 1059   0.231   2.451   0.021
  354SOL     OW 1060   0.225   2.137   0.996
  354SOL    HW1 1061   0.260   2.120   1.088
  354SOL    HW2 1062   0.137   2.092   0.984
  355SOL     OW 1063   0.019   2.230   0.647
  355SOL    HW1 1064  -0.063   2.273   0.686
  355SOL    HW2 1065  -0.009   2.157   0.584
  356SOL     OW 1066   1.135   2.565   0.717
  356SOL    HW1 1067   1.192   2.643   0.692
  356SOL    HW2 1068   1.075   2.591   0.793
  357SOL     OW 1069   1.755   2.469   0.231
  357SOL    HW1 1070   1.743   2.456   0.132
  357SOL    HW2 1071   1.725   2.388   0.280
  358SOL     OW 1072   0.768   3.006   1.023
  358SOL    HW1 1073   0.690   3.023   1.083
  358SOL    HW2 1074   0.802   3.093   0.987
  359SOL     OW 1075   0.850   2.660   1.823
  359SOL    HW1 1076   0.846   2.736   1.888
  359SOL    HW2 1077   0.872   2.696   1.732
  360SOL     OW 1078   0.685   2.874   0.665
  360SOL    HW1 1079   0.754   2.858   0.735
  360SOL    HW2 1080   0.612   2.931   0.703
  361SOL     OW 1081   0.438   2.254   1.499
  361SOL    HW1 1082   0.520   2.198   1.508
  361SOL    HW2 1083   0.357   2.196   1.503
  362SOL     OW 1084   1.603   2.309   0.737
  362SOL    HW1 1085   1.529   2.355   0.687
  362SOL    HW2 1086   1.654   2.377   0.790
  363SOL     OW 1087   0.240   2.953   0.886
  363SOL    HW1 1088   0.254   2.869   0.938
  363SOL    HW2 1089   0.185   3.017   0.941
  364SOL     OW 1090   0.606   2.826   0.123
  364SOL    HW1 1091   0.613   2.910   0.069
  364SOL    HW2 1092   0.652   2.839   0.211
  365SOL     OW 1093   1.594   1.976   1.480
  365SOL    HW1 1094   1.576   2.043   1.408
  365SOL    HW2 1095   1.591   2.022   1.569
  366SOL     OW 1096   0.122   2.505   0.563
  366SOL    HW1 1097   0.077   2.417   0.580
  366SOL    HW2 1098   0.121   2.559   0.647
  367SOL     OW 1099   1.689   2.784   0.612
  367SOL    HW1 1100   1.784   2.755   0.620
  367SOL    HW2 1101   1.681   2.849   0.537
  368SOL     OW 1102   1.641   2.970   0.432
  368SOL    HW1 1103   1.727   2.972   0.380
  368SOL    HW2 1104   1.655   3.017   0.520
  369SOL     OW 1105   0.113   2.599   1.597
  369SOL    HW1 1106   0.201   2.586   1.642
  369SOL    HW2 1107   0.100   2.696   1.575
  370SOL     OW 1108   0.613   3.227   0.726
  370SOL    HW1 1109   0.564   3.140   0.735
  370SOL    HW2 1110   0.590   3.270   0.639
  371SOL     OW 1111   1.293   3.090   1.423
  371SOL    HW1 1112   1.330   3.017   1.365
  371SOL    HW2 1113   1.345   3.095   1.508
  372SOL     OW 1114   0.809   1.866   0.502
  372SOL    HW1 1115   0.849   1.957   0.493
  372SOL    HW2 1116   0.709   1.874   0.508
  373SOL     OW 1117   0.197   2.838   1.264
  373SOL    HW1 1118   0.286   2.793   1.250
  373SOL    HW2 1119   0.124   2.773   1.245
  374SOL     OW 1120   1.525   2.861   0.190
  374SOL    HW1 1121   1.462   2.785   0.203
  374SOL    HW2 1122   1.573   2.879   0.276
  375SOL     OW 1123   0.317   2.113   1.801
  375SOL    HW1 1124   0.388   2.184   1.807
  375SOL    HW2 1125   0.229   2.152   1.829
  376SOL     OW 1126   0.598   2.591   0.270
  376SOL    HW1 1127   0.622   2.660   0.202
  376SOL    HW2 1128   0.520   2.624   0.324
  377SOL     OW 1129   1.281   2.207   0.944
  377SOL    HW1 1130   1.195   2.157   0.931
  377SOL    HW2 1131   1.343   2.153   1.000
  378SOL     OW 1132   0.807   2.467   1.465
  378SOL    HW1 1133   0.760   2.464   1.554
  378SOL    HW2 1134   0.756   2.412   1.399
  379SOL     OW 1135   1.394   2.331   1.674
  379SOL    HW1 1136   1.374   2.374   1.762
  379SOL    HW2 1137   1.472   2.269   1.683
  380SOL     OW 1138   0.973   2.752   1.572
  380SOL    HW1 1139   1.019   2.668   1.543
  380SOL    HW2 1140   0.917   2.786   1.497
  381SOL     OW 1141   0.991   2.272   1.242
  381SOL    HW1 1142   0.914   2.306   1.296
  381SOL    HW2 1143   0.957   2.221   1.163
  382SOL     OW 1144   1.041   2.563   0.429
  382SOL    HW1 1145   1.067   2.559   0.525
  382SOL    HW2 1146   0.956   2.512   0.415
  383SOL     OW 1147   0.076   2.673   0.789
  383SOL    HW1 1148   0.175   2.661   0.798
  383SOL    HW2 1149   0.052   2.768   0.810
  384SOL     OW 1150   0.865   2.210   0.195
  384SOL    HW1 1151   0.924   2.273   0.146
  384SOL    HW2 1152   0.884   2.116   0.166
  385SOL     OW 1153   1.719   2.447   1.831
  385SOL    HW1 1154   1.693   2.536   1.795
  385SOL    HW2 1155   1.717   2.379   1.758
  386SOL     OW 1156   1.362   3.006   0.545
  386SOL    HW1 1157   1.445   2.977   0.497
  386SOL    HW2 1158   1.313   3.073   0.489
  387SOL     OW 1159   0.550   2.058   0.885
  387SOL    HW1 1160   0.545   2.053   0.985
  387SOL    HW2 1161   0.552   2.154   0.856
  388SOL     OW 1162   1.795   2.928   0.873
  388SOL    HW1 1163   1.733   2.913   0.797
  388SOL    HW2 1164   1.743   2.939   0.958
  389SOL     OW 1165   0.321   2.805   0.242
  389SOL    HW1 1166   0.403   2.844   0.200
  389SOL    HW2 1167   0.294   2.723   0.193
  390SOL     OW 1168   1.458   2.597   0.728
  390SOL    HW1 1169   1.453   2.532   0.803
  390SOL    HW2 1170   1.538   2.656   0.741
  391SOL     OW 1171   0.202   2.147   1.498
  391SOL    HW1 1172   0.122   2.207   1.485
  391SOL    HW2 1173   0.192   2.098   1.584
  392SOL     OW 1174   1.400   1.969   0.426
  392SOL    HW1 1175   1.376   1.932   0.336
  392SOL    HW2 1176   1.499   1.985   0.430
  393SOL     OW 1177   0.382   2.562   0.480
  393SOL    HW1 1178   0.427   2.472   0.477
  393SOL    HW2 1179   0.288   2.551   0.513
  394SOL     OW 1180   1.547   2.084   1.729
  394SOL    HW1 1181   1.542   2.121   1.821
  394SOL    HW2 1182   1.475   2.015   1.717
  395SOL     OW 1183   0.614   1.984   0.117
  395SOL    HW1 1184   0.712   1.962   0.124
  395SOL    HW2 1185   0.583   1.967   0.024
  396SOL     OW 1186   0.781   2.126   1.749
  396SOL    HW1 1187   0.848   2.065   1.792
  396SOL    HW2 1188   0.708   2.145   1.814
  397SOL     OW 1189   1.351   2.452   1.433
  397SOL    HW1 1190   1.379   2.409   1.518
  397SOL    HW2 1191   1.376   2.548   1.434
  398SOL     OW 1192   0.922   2.365   0.899
  398SOL    HW1 1193   0.897   2.356   0.803
  398SOL    HW2 1194   0.970   2.283   0.930
  399SOL     OW 1195   0.539   1.926   0.512
  399SOL    HW1 1196   0.458   1.927   0.570
  399SOL    HW2 1197   0.542   2.009   0.457
  400SOL     OW 1198   0.297   1.897   0.171
  400SOL    HW1 1199   0.346   1.981   0.150
  400SOL    HW2 1200   0.359   1.832   0.216
  401SOL     OW 1201   0.935   2.098   0.480
  401SOL    HW1 1202   0.887   2.139   0.402
  401SOL    HW2 1203   1.034   2.096   0.461
  402SOL     OW 1204   1.076   2.545   1.464
  402SOL    HW1 1205   0.996   2.484   1.467
  402SOL    HW2 1206   1.157   2.492   1.440
  403SOL     OW 1207   0.459   3.014   0.741
  403SOL    HW1 1208   0.388   2.987   0.806
  403SOL    HW2 1209   0.433   2.986   0.648
  404SOL     OW 1210   1.032   2.411   0.016
  404SOL    HW1 1211   0.991   2.493  -0.023
  404SOL    HW2 1212   1.096   2.437   0.089
  405SOL     OW 1213   0.078   2.418   1.386
  405SOL    HW1 1214   0.170   2.417   1.345
  405SOL    HW2 1215   0.072   2.492   1.453
  406SOL     OW 1216   0.561   2.084   1.147
  406SOL    HW1 1217   0.599   2.000   1.184
  406SOL    HW2 1218   0.473   2.103   1.191
  407SOL     OW 1219   0.866   2.316   0.642
  407SOL    HW1 1220   0.834   2.388   0.580
  407SOL    HW2 1221   0.890   2.235   0.589
  408SOL     OW 1222   1.017   1.901   0.753
  408SOL    HW1 1223   0.945   1.906   0.684
  408SOL    HW2 1224   0.993   1.832   0.822
  409SOL     OW 1225   1.429   3.035   0.867
  409SOL    HW1 1226   1.374   2.951   0.860
  409SOL    HW2 1227   1.455   3.064   0.775
  410SOL     OW 1228   1.466   2.452   0.992
  410SOL    HW1 1229   1.436   2.357   0.999
  410SOL    HW2 1230   1.539   2.468   1.058
  411SOL     OW 1231   1.857   2.695   0.377
  411SOL    HW1 1232   1.899   2.631   0.441
  411SOL    HW2 1233   1.819   2.644   0.299
  412SOL     OW 1234   1.390   2.437   0.078
  412SOL    HW1 1235   1.336   2.416   0.159
  412SOL    HW2 1236   1.481   2.396   0.087
  413SOL     OW 1237   0.527   2.118   0.328
  413SOL    HW1 1238   0.554   2.059   0.253
  413SOL    HW2 1239   0.527   2.213   0.297
  414SOL     OW 1240   1.754   3.085   1.588
  414SOL    HW1 1241   1.845   3.046   1.575
  414SOL    HW2 1242   1.762   3.181   1.612
  415SOL     OW 1243   1.638   2.961   1.079
  415SOL    HW1 1244   1.643   3.042   1.138
  415SOL    HW2 1245   1.552   2.963   1.028
  416SOL     OW 1246   0.915   1.951   1.402
  416SOL    HW1 1247   0.940   1.931   1.307
  416SOL    HW2 1248   0.987   2.007   1.444
  417SOL     OW 1249   0.980   2.978   1.719
  417SOL    HW1 1250   0.881   2.984   1.729
  417SOL    HW2 1251   1.003   2.898   1.663
  418SOL     OW 1252   0.705   2.912   0.368
  418SOL    HW1 1253   0.691   2.919   0.467
  418SOL    HW2 1254   0.789   2.861   0.350
  419SOL     OW 1255   0.410   2.675   1.251
  419SOL    HW1 1256   0.496   2.687   1.301
  419SOL    HW2 1257   0.368   2.588   1.278
  420SOL     OW 1258   1.274   2.248   1.262
  420SOL    HW1 1259   1.295   2.322   1.326
  420SOL    HW2 1260   1.185   2.265   1.219
  421SOL     OW 1261   0.367   2.962   0.501
  421SOL    HW1 1262   0.360   3.045   0.445
  421SOL    HW2 1263   0.371   2.882   0.441
  422SOL     OW 1264   0.566   2.399   0.865
  422SOL    HW1 1265   0.578   2.465   0.791
  422SOL    HW2 1266   0.612   2.433   0.948
  423SOL     OW 1267   1.582   2.501   0.472
  423SOL    HW1 1268   1.551   2.562   0.545
  423SOL    HW2 1269   1.632   2.553   0.403
  424SOL     OW 1270   0.402   2.613   1.598
  424SOL    HW1 1271   0.470   2.668   1.551
  424SOL    HW2 1272   0.442   2.525   1.625
  425SOL     OW 1273   1.587   2.641   1.670
  425SOL    HW1 1274   1.495   2.679   1.665
  425SOL    HW2 1275   1.647   2.688   1.605
  426SOL     OW 1276   1.013   1.967   1.770
  426SOL    HW1 1277   1.019   2.052   1.718
  426SOL    HW2 1278   1.045   1.891   1.713
  427SOL     OW 1279   0.504   1.912   1.740
  427SOL    HW1 1280   0.462   1.855   1.670
  427SOL    HW2 1281   0.438   1.981   1.772
  428SOL     OW 1282   0.573   2.732   1.029
  428SOL    HW1 1283   0.617   2.821   1.020
  428SOL    HW2 1284   0.510   2.732   1.106
  429SOL     OW 1285   1.360   2.724   1.045
  429SOL    HW1 1286   1.285   2.724   0.979
  429SOL    HW2 1287   1.397   2.632   1.054
  430SOL     OW 1288   1.209   2.387   0.275
  430SOL    HW1 1289   1.222   2.303   0.329
  430SOL    HW2 1290   1.180   2.461   0.335
  431SOL     OW 1291   0.307   2.075   1.231
  431SOL    HW1 1292   0.284   2.112   1.321
  431SOL    HW2 1293   0.277   1.980   1.225
  432SOL     OW 1294   0.037   3.172   1.282
  432SOL    HW1 1295   0.090   3.123   1.350
  432SOL    HW2 1296   0.059   3.270   1.287
  433SOL     OW 1297   0.732   2.496   1.064
  433SOL    HW1 1298   0.791   2.470   0.988
  433SOL    HW2 1299   0.704   2.592   1.053
  434SOL     OW 1300   1.728   2.797   1.854
  434SOL    HW1 1301   1.682   2.790   1.765
  434SOL    HW2 1302   1.666   2.841   1.920
  435SOL     OW 1303   0.307   1.925   0.618
  435SOL    HW1 1304   0.296   2.019   0.651
  435SOL    HW2 1305   0.302   1.862   0.695
  436SOL     OW 1306   1.622   2.229   0.374
  436SOL    HW1 1307   1.624   2.153   0.438
  436SOL    HW2 1308   1.574   2.306   0.414
  437SOL     OW 1309   1.023   2.628   0.966
  437SOL    HW1 1310   1.038   2.649   1.062
  437SOL    HW2 1311   0.993   2.533   0.957
  438SOL     OW 1312   0.350   2.760   1.804
  438SOL    HW1 1313   0.426   2.804   1.852
  438SOL    HW2 1314   0.385   2.713   1.722
  439SOL     OW 1315   1.540   2.136   0.125
  439SOL    HW1 1316   1.479   2.061   0.148
  439SOL    HW2 1317   1.562   2.188   0.208
  440SOL     OW 1318   1.303   2.700   0.042
  440SOL    HW1 1319   1.337   2.607   0.057
  440SOL    HW2 1320   1.321   2.727  -0.053
  441SOL     OW 1321   0.319   2.672   0.949
  441SOL    HW1 1322   0.412   2.708   0.954
  441SOL    HW2 1323   0.313   2.587   1.001
  442SOL     OW 1324   0.339   2.371   1.006
  442SOL    HW1 1325   0.287   2.288   0.989
  442SOL    HW2 1326   0.416   2.376   0.942
  443SOL     OW 1327   1.138   2.242   1.678
  443SOL    HW1 1328   1.093   2.305   1.742
  443SOL    HW2 1329   1.231   2.273   1.661
  444SOL     OW 1330   1.160   2.069   1.477
  444SOL    HW1 1331   1.160   2.133   1.554
  444SOL    HW2 1332   1.188   2.117   1.394
  445SOL     OW 1333   1.002   2.658   1.238
  445SOL    HW1 1334   1.043   2.626   1.324
  445SOL    HW2 1335   0.906   2.631   1.235
  446SOL     OW 1336   0.040   2.406   1.114
  446SOL    HW1 1337   0.125   2.373   1.073
  446SOL    HW2 1338   0.053   2.421   1.212
  447SOL     OW 1339   0.189   2.382   1.722
  447SOL    HW1 1340   0.248   2.342   1.652
  447SOL    HW2 1341   0.131   2.453   1.681
  448SOL     OW 1342   1.369   2.812   1.660
  448SOL    HW1 1343   1.408   2.901   1.680
  448SOL    HW2 1344   1.379   2.792   1.563
  449SOL     OW 1345   0.815   2.434   0.325
  449SOL    HW1 1346   0.822   2.345   0.279
  449SOL    HW2 1347   0.721   2.468   0.317
  450SOL     OW 1348   1.657   2.466   1.206
  450SOL    HW1 1349   1.619   2.397   1.268
  450SOL    HW2 1350   1.739   2.430   1.162
  451SOL     OW 1351   0.671   2.326   1.269
  451SOL    HW1 1352   0.637   2.237   1.239
  451SOL    HW2 1353   0.697   2.380   1.189
  452SOL     OW 1354   0.473   2.362   0.191
  452SOL    HW1 1355   0.534   2.442   0.195
  452SOL    HW2 1356   0.378   2.393   0.198
  453SOL     OW 1357   0.159   2.999   1.466
  453SOL    HW1 1358   0.181   2.938   1.542
  453SOL    HW2 1359   0.169   2.950   1.380
  454SOL     OW 1360   1.347   2.921   1.234
  454SOL    HW1 1361   1.371   2.858   1.160
  454SOL    HW2 1362   1.257   2.961   1.216
  455SOL     OW 1363   1.302   2.717   0.309
  455SOL    HW1 1364   1.216   2.686   0.351
  455SOL    HW2 1365   1.298   2.703   0.210
  456SOL     OW 1366   0.083   3.120   1.022
  456SOL    HW1 1367   0.078   3.119   1.122
  456SOL    HW2 1368   0.000   3.079   0.984
  457SOL     OW 1369   0.903   1.948   0.133
  457SOL    HW1 1370   0.954   1.949   0.047
  457SOL    HW2 1371   0.959   1.906   0.204
  458SOL     OW 1372   1.726   1.997   0.523
  458SOL    HW1 1373   1.799   1.980   0.456
  458SOL    HW2 1374   1.695   1.910   0.561
  459SOL     OW 1375   1.280   2.789   0.672
  459SOL    HW1 1376   1.340   2.708   0.674
  459SOL    HW2 1377   1.320   2.858   0.612
  460SOL     OW 1378   1.841   2.037   0.963
  460SOL    HW1 1379   1.880   1.952   0.927
  460SOL    HW2 1380   1.743   2.039   0.944
  461SOL     OW 1381   0.263   2.188   0.720
  461SOL    HW1 1382   0.184   2.239   0.686
  461SOL    HW2 1383   0.254   2.173   0.818
  462SOL     OW 1384   0.822   2.864   1.372
  462SOL    HW1 1385   0.862   2.863   1.280
  462SOL    HW2 1386   0.832   2.956   1.412
  463SOL     OW 1387   0.916   2.772   0.291
  463SOL    HW1 1388   0.979   2.810   0.223
  463SOL    HW2 1389   0.956   2.689   0.330
  464SOL     OW 1390   0.372   3.150   1.490
  464SOL    HW1 1391   0.359   3.243   1.456
  464SOL    HW2 1392   0.288   3.098   1.477
  465SOL     OW 1393   1.039   2.960   0.696
  465SOL    HW1 1394   0.969   2.913   0.750
  465SOL    HW2 1395   1.098   2.892   0.653
  466SOL     OW 1396   1.014   2.098   0.971
  466SOL    HW1 1397   1.006   2.062   0.878
  466SOL    HW2 1398   1.012   2.022   1.036
  467SOL     OW 1399   1.709   2.247   1.381
  467SOL    HW1 1400   1.782   2.316   1.385
  467SOL    HW2 1401   1.737   2.172   1.322
  468SOL     OW 1402   0.105   2.875   1.726
  468SOL    HW1 1403   0.028   2.842   1.780
  468SOL    HW2 1404   0.190   2.845   1.768
  469SOL     OW 1405   0.672   2.065   1.489
  469SOL    HW1 1406   0.762   2.049   1.449
  469SOL    HW2 1407   0.680   2.070   1.588
  470SOL     OW 1408   0.075   2.207   0.033
  470SOL    HW1 1409  -0.017   2.179   0.004
  470SOL    HW2 1410   0.106   2.284  -0.023
  471SOL     OW 1411   1.440   2.718   1.398
  471SOL    HW1 1412   1.383   2.770   1.335
  471SOL    HW2 1413   1.536   2.730   1.374
  472SOL     OW 1414   0.072   2.028   0.318
  472SOL    HW1 1415   0.055   2.111   0.264
  472SOL    HW2 1416   0.162   1.991   0.296
  473SOL     OW 1417   0.613   2.704   1.431
  473SOL    HW1 1418   0.669   2.785   1.414
  473SOL    HW2 1419   0.672   2.624   1.434
  474SOL     OW 1420   0.716   2.427   1.708
  474SOL    HW1 1421   0.735   2.492   1.782
  474SOL    HW2 1422   0.776   2.347   1.717
  475SOL     OW 1423   1.450   3.082   1.633
  475SOL    HW1 1424   1.441   3.072   1.732
  475SOL    HW2 1425   1.546   3.075   1.607
  476SOL     OW 1426   1.674   2.745   1.254
  476SOL    HW1 1427   1.647   2.656   1.217
  476SOL    HW2 1428   1.675   2.813   1.181
  477SOL     OW 1429   1.225   2.187   0.449
  477SOL    HW1 1430   1.290   2.113   0.438
  477SOL    HW2 1431   1.245   2.237   0.533
  478SOL     OW 1432   0.594   2.607   0.652
  478SOL    HW1 1433   0.644   2.692   0.633
  478SOL    HW2 1434   0.506   2.609   0.604
  479SOL     OW 1435   1.777   2.204   1.642
  479SOL    HW1 1436   1.760   2.235   1.548
  479SOL    HW2 1437   1.693   2.167   1.680
  480SOL     OW 1438   1.730   2.796   1.517
  480SOL    HW1 1439   1.768   2.887   1.532
  480SOL    HW2 1440   1.722   2.779   1.418
  481SOL     OW 1441   0.859   2.818   0.861
  481SOL    HW1 1442   0.913   2.749   0.909
  481SOL    HW2 1443   0.827   2.887   0.927
  482SOL     OW 1444   1.083   2.846   0.087
  482SOL    HW1 1445   1.060   2.899   0.005
  482SOL    HW2 1446   1.164   2.790   0.068
  483SOL     OW 1447   0.079   3.102   0.653
  483SOL    HW1 1448   0.078   3.055   0.741
  483SOL    HW2 1449   0.161   3.074   0.602
  484SOL     OW 1450   1.824   2.054   1.227
  484SOL    HW1 1451   1.820   1.964   1.271
  484SOL    HW2 1452   1.827   2.043   1.128
  485SOL     OW 1453   0.428   2.286   0.520
  485SOL    HW1 1454   0.458   2.214   0.458
  485SOL    HW2 1455   0.389   2.246   0.603
  486SOL     OW 1456   0.317   2.409   1.280
  486SOL    HW1 1457   0.355   2.350   1.352
  486SOL    HW2 1458   0.357   2.383   1.192
  487SOL     OW 1459   1.424   2.076   1.112
  487SOL    HW1 1460   1.476   2.011   1.167
  487SOL    HW2 1461   1.375   2.139   1.173
  488SOL     OW 1462   1.001   1.896   1.154
  488SOL    HW1 1463   0.938   1.824   1.123
  488SOL    HW2 1464   1.094   1.860   1.154
  489SOL     OW 1465   0.770   3.192   0.301
  489SOL    HW1 1466   0.724   3.105   0.318
  489SOL    HW2 1467   0.861   3.189   0.342
  490SOL     OW 1468   1.352   1.914   0.168
  490SOL    HW1 1469   1.387   1.873   0.084
  490SOL    HW2 1470   1.262   1.876   0.188
  491SOL     OW 1471   1.300   2.315   0.691
  491SOL    HW1 1472   1.241   2.395   0.695
  491SOL    HW2 1473   1.315   2.280   0.784
  492SOL     OW 1474   1.593   2.083   0.882
  492SOL    HW1 1475   1.509   2.082   0.936
  492SOL    HW2 1476   1.595   2.166   0.826
  493SOL     OW 1477   0.039   2.939   0.300
  493SOL    HW1 1478   0.138   2.928   0.291
  493SOL    HW2 1479  -0.001   2.853   0.332
  494SOL     OW 1480   0.230   2.490   1.975
  494SOL    HW1 1481   0.137   2.488   2.012
  494SOL    HW2 1482   0.231   2.451   1.883
  495SOL     OW 1483   0.225   2.137   2.858
  495SOL    HW1 1484   0.260   2.120   2.950
  495SOL    HW2 1485   0.137   2.092   2.846
  496SOL     OW 1486   0.019   2.230   2.509
  496SOL    HW1 1487  -0.063   2.273   2.548
  496SOL    HW2 1488  -0.009   2.157   2.446
  497SOL     OW 1489   1.135   2.565   2.579
  497SOL    HW1 1490   1.192   2.643   2.554
  497SOL    HW2 1491   1.075   2.591   2.655
  498SOL     OW 1492   1.755   2.469   2.093
  498SOL    HW1 1493   1.743   2.456   1.994
  498SOL    HW2 1494   1.725   2.388   2.142
  499SOL     OW 1495   0.768   3.006   2.885
  499SOL    HW1 1496   0.690   3.023   2.945
  499SOL    HW2 1497   0.802   3.093   2.849
  500SOL     OW 1498   0.685   2.874   2.527
  500SOL    HW1 1499   0.754   2.858   2.597
  500SOL    HW2 1500   0.612   2.931   2.565
  501SOL     OW 1501   1.603   2.309   2.599
  501SOL    HW1 1502   1.529   2.355   2.549
  501SOL    HW2 1503   1.654   2.377   2.652
  502SOL     OW 1504   0.240   2.953   2.748
  502SOL    HW1 1505   0.254   2.869   2.800
  502SOL    HW2 1506   0.185   3.017   2.803
  503SOL     OW 1507   0.606   2.826   1.985
  503SOL    HW1 1508   0.613   2.910   1.931
  503SOL    HW2 1509   0.652   2.839   2.073
  504SOL     OW 1510   0.122   2.505   2.425
  504SOL    HW1 1511   0.077   2.417   2.442
  504SOL    HW2 1512   0.121   2.559   2.509
  505SOL     OW 1513   1.689   2.784   2.474
  505SOL    HW1 1514   1.784   2.755   2.482
  505SOL    HW2 1515   1.681   2.849   2.399
  506SOL     OW 1516   1.641   2.970   2.294
  506SOL    HW1 1517   1.727   2.972   2.242
  506SOL    HW2 1518   1.655   3.017   2.382
  507SOL     OW 1519   0.613   3.227   2.588
  507SOL    HW1 1520   0.564   3.140   2.597
  507SOL    HW2 1521   0.590   3.270   2.501
  508SOL     OW 1522   0.809   1.866   2.364
  508SOL    HW1 1523   0.849   1.957   2.355
  508SOL    HW2 1524   0.709   1.874   2.370
  509SOL     OW 1525   0.197   2.838   3.126
  509SOL    HW1 1526   0.286   2.793   3.112
  509SOL    HW2 1527   0.124   2.773   3.107
  510SOL     OW 1528   1.525   2.861   2.052
  510SOL    HW1 1529   1.462   2.785   2.065
  510SOL    HW2 1530   1.573   2.879   2.138
  511SOL     OW 1531   0.598   2.591   2.132
  511SOL    HW1 1532   0.622   2.660   2.064
  511SOL    HW2 1533   0.520   2.624   2.186
  512SOL     OW 1534   1.281   2.207   2.806
  512SOL    HW1 1535   1.195   2.157   2.793
  512SOL    HW2 1536   1.343   2.153   2.862
  513SOL     OW 1537   1.041   2.563   2.291
  513SOL    HW1 1538   1.067   2.559   2.387
  513SOL    HW2 1539   0.956   2.512   2.277
  514SOL     OW 1540   0.076   2.673   2.651
  514SOL    HW1 1541   0.175   2.661   2.660
  514SOL    HW2 1542   0.052   2.768   2.672
  515SOL     OW 1543   0.865   2.210   2.057
  515SOL    HW1 1544   0.924   2.273   2.008
  515SOL    HW2 1545   0.884   2.116   2.028
  516SOL     OW 1546   1.362   3.006   2.407
  516SOL    HW1 1547   1.445   2.977   2.359
  516SOL    HW2 1548   1.313   3.073   2.351
  517SOL     OW 1549   0.550   2.058   2.747
  517SOL    HW1 1550   0.545   2.053   2.847
  517SOL    HW2 1551   0.552   2.154   2.718
  518SOL     OW 1552   1.795   2.928   2.735
  518SOL    HW1 1553   1.733   2.913   2.659
  518SOL    HW2 1554   1.743   2.939   2.820
  519SOL     OW 1555   0.321   2.805   2.104
  519SOL    HW1 1556   0.403   2.844   2.062
  519SOL    HW2 1557   0.294   2.723   2.055
  520SOL     OW 1558   1.458   2.597   2.590
  520SOL    HW1 1559   1.453   2.532   2.665
  520SOL    HW2 1560   1.538   2.656   2.603
  521SOL     OW 1561   1.400   1.969   2.288
  521SOL    HW1 1562   1.376   1.932   2.198
  521SOL    HW2 1563   1.499   1.985   2.292
  522SOL     OW 1564   0.382   2.562   2.342
  522SOL    HW1 1565   0.427   2.472   2.339
  522SOL    HW2 1566   0.288   2.551   2.375
  523SOL     OW 1567   0.614   1.984   1.979
  523SOL    HW1 1568   0.712   1.962   1.986
  523SOL    HW2 1569   0.583   1.967   1.886
  524SOL     OW 1570   0.922   2.365   2.761
  524SOL    HW1 1571   0.897   2.356   2.665
  524SOL    HW2 1572   0.970   2.283   2.792
  525SOL     OW 1573   0.539   1.926   2.374
  525SOL    HW1 1574   0.458   1.927   2.432
  525SOL    HW2 1575   0.542   2.009   2.319
  526SOL     OW 1576   0.297   1.897   2.033
  526SOL    HW1 1577   0.346   1.981   2.012
  526SOL    HW2 1578   0.359   1.832   2.078
  527SOL     OW 1579   0.935   2.098   2.342
  527SOL    HW1 1580   0.887   2.139   2.264
  527SOL    HW2 1581   1.034   2.096   2.323
  528SOL     OW 1582   0.459   3.014   2.603
  528SOL    HW1 1583   0.388   2.987   2.668
  528SOL    HW2 1584   0.433   2.986   2.510
  529SOL     OW 1585   1.032   2.411   1.878
  529SOL    HW1 1586   0.991   2.493   1.839
  529SOL    HW2 1587   1.096   2.437   1.951
  530SOL     OW 1588   0.866   2.316   2.504
  530SOL    HW1 1589   0.834   2.388   2.442
  530SOL    HW2 1590   0.890   2.235   2.451
  531SOL     OW 1591   1.017   1.901   2.615
  531SOL    HW1 1592   0.945   1.906   2.546
  531SOL    HW2 1593   0.993   1.832   2.684
  532SOL     OW 1594   1.429   3.035   2.729
  532SOL    HW1 1595   1.374   2.951   2.722
  532SOL    HW2 1596   1.455   3.064   2.637
  533SOL     OW 1597   1.466   2.452   2.854
  533SOL    HW1 1598   1.436   2.357   2.861
  533SOL    HW2 1599   1.539   2.468   2.920
  534SOL     OW 1600   1.857   2.695   2.239
  534SOL    HW1 1601   1.899   2.631   2.303
  534SOL    HW2 1602   1.819   2.644   2.161
  535SOL     OW 1603   1.390   2.437   1.940
  535SOL    HW1 1604   1.336   2.416   2.021
  535SOL    HW2 1605   1.481   2.396   1.949
  536SOL     OW 1606   0.527   2.118   2.190
  536SOL    HW1 1607   0.554   2.059   2.115
  536SOL    HW2 1608   0.527   2.213   2.159
  537SOL     OW 1609   1.111   3.057   2.962
  537SOL    HW1 1610   1.071   3.101   3.043
  537SOL    HW2 1611   1.070   3.094   2.879
  538SOL     OW 1612   1.638   2.961   2.941
  538SOL    HW1 1613   1.643   3.042   3.000
  538SOL    HW2 1614   1.552   2.963   2.890
  539SOL     OW 1615   0.705   2.912   2.230
  539SOL    HW1 1616   0.691   2.919   2.329
  539SOL    HW2 1617   0.789   2.861   2.212
  540SOL     OW 1618   0.410   2.675   3.113
  540SOL    HW1 1619   0.496   2.687   3.163
  540SOL    HW2 1620   0.368   2.588   3.140
  541SOL     OW 1621   0.367   2.962   2.363
  541SOL    HW1 1622   0.360   3.045   2.307
  541SOL    HW2 1623   0.371   2.882   2.303
  542SOL     OW 1624   0.566   2.399   2.727
  542SOL    HW1 1625   0.578   2.465   2.653
  542SOL    HW2 1626   0.612   2.433   2.810
  543SOL     OW 1627   1.582   2.501   2.334
  543SOL    HW1 1628   1.551   2.562   2.407
  543SOL    HW2 1629   1.632   2.553   2.265
  544SOL     OW 1630   0.573   2.732   2.891
  544SOL    HW1 1631   0.617   2.821   2.882
  544SOL    HW2 1632   0.510   2.732   2.968
  545SOL     OW 1633   1.209   2.387   2.137
  545SOL    HW1 1634   1.222   2.303   2.191
  545SOL    HW2 1635   1.180   2.461   2.197
  546SOL     OW 1636   0.307   2.075   3.093
  546SOL    HW1 1637   0.284   2.112   3.183
  546SOL    HW2 1638   0.277   1.980   3.087
  547SOL     OW 1639   0.037   3.172   3.144
  547SOL    HW1 1640   0.090   3.123   3.212
  547SOL    HW2 1641   0.059   3.270   3.149
  548SOL     OW 1642   0.732   2.496   2.926
  548SOL    HW1 1643   0.791   2.470   2.850
  548SOL    HW2 1644   0.704   2.592   2.915
  549SOL     OW 1645   0.307   1.925   2.480
  549SOL    HW1 1646   0.296   2.019   2.513
  549SOL    HW2 1647   0.302   1.862   2.557
  550SOL     OW 1648   1.622   2.229   2.236
  550SOL    HW1 1649   1.624   2.153   2.300
  550SOL    HW2 1650   1.574   2.306   2.276
  551SOL     OW 1651   1.023   2.628   2.828
  551SOL    HW1 1652   1.038   2.649   2.924
  551SOL    HW2 1653   0.993   2.533   2.819
  552SOL     OW 1654   1.540   2.136   1.987
  552SOL    HW1 1655   1.479   2.061   2.010
  552SOL    HW2 1656   1.562   2.188   2.070
  553SOL     OW 1657   1.303   2.700   1.904
  553SOL    HW1 1658   1.337   2.607   1.919
  553SOL    HW2 1659   1.321   2.727   1.809
  554SOL     OW 1660   0.319   2.672   2.811
  554SOL    HW1 1661   0.412   2.708   2.816
  554SOL    HW2 1662   0.313   2.587   2.863
  555SOL     OW 1663   0.339   2.371   2.868
  555SOL    HW1 1664   0.287   2.288   2.851
  555SOL    HW2 1665   0.416   2.376   2.804
  556SOL     OW 1666   1.160   2.069   3.339
  556SOL    HW1 1667   1.160   2.133   3.416
  556SOL    HW2 1668   1.188   2.117   3.256
  557SOL     OW 1669   1.002   2.658   3.100
  557SOL    HW1 1670   1.043   2.626   3.186
  557SOL    HW2 1671   0.906   2.631   3.097
  558SOL     OW 1672   0.040   2.406   2.976
  558SOL    HW1 1673   0.125   2.373   2.935
  558SOL    HW2 1674   0.053   2.421   3.074
  559SOL     OW 1675   0.815   2.434   2.187
  559SOL    HW1 1676   0.822   2.345   2.141
  559SOL    HW2 1677   0.721   2.468   2.179
  560SOL     OW 1678   1.657   2.466   3.068
  560SOL    HW1 1679   1.619   2.397   3.130
  560SOL    HW2 1680   1.739   2.430   3.024
  561SOL     OW 1681   0.671   2.326   3.131
  561SOL    HW1 1682   0.637   2.237   3.101
  561SOL    HW2 1683   0.697   2.380   3.051
  562SOL     OW 1684   0.473   2.362   2.053
  562SOL    HW1 1685   0.534   2.442   2.057
  562SOL    HW2 1686   0.378   2.393   2.060
  563SOL     OW 1687   1.347   2.921   3.096
  563SOL    HW1 1688   1.371   2.858   3.022
  563SOL    HW2 1689   1.257   2.961   3.078
  564SOL     OW 1690   1.302   2.717   2.171
  564SOL    HW1 1691   1.216   2.686   2.213
  564SOL    HW2 1692   1.298   2.703   2.072
  565SOL     OW 1693   0.083   3.120   2.884
  565SOL    HW1 1694   0.078   3.119   2.984
  565SOL    HW2 1695   0.000   3.079   2.846
  566SOL     OW 1696   1.726   1.997   2.385
  566SOL    HW1 1697   1.799   1.980   2.318
  566SOL    HW2 1698   1.695   1.910   2.423
  567SOL     OW 1699   1.280   2.789   2.534
  567SOL    HW1 1700   1.340   2.708   2.536
  567SOL    HW2 1701   1.320   2.858   2.474
  568SOL     OW 1702   1.841   2.037   2.825
  568SOL    HW1 1703   1.880   1.952   2.789
  568SOL    HW2 1704   1.743   2.039   2.806
  569SOL     OW 1705   0.263   2.188   2.582
  569SOL    HW1 1706   0.184   2.239   2.548
  569SOL    HW2 1707   0.254   2.173   2.680
  570SOL     OW 1708   0.822   2.864   3.234
  570SOL    HW1 1709   0.862   2.863   3.142
  570SOL    HW2 1710   0.832   2.956   3.274
  571SOL     OW 1711   0.916   2.772   2.153
  571SOL    HW1 1712   0.979   2.810   2.085
  571SOL    HW2 1713   0.956   2.689   2.192
  572SOL     OW 1714   1.039   2.960   2.558
  572SOL    HW1 1715   0.969   2.913   2.612
  572SOL    HW2 1716   1.098   2.892   2.515
  573SOL     OW 1717   1.014   2.098   2.833
  573SOL    HW1 1718   1.006   2.062   2.740
  573SOL    HW2 1719   1.012   2.022   2.898
  574SOL     OW 1720   1.709   2.247   3.243
  574SOL    HW1 1721   1.782   2.316   3.247
  574SOL    HW2 1722   1.737   2.172   3.184
  575SOL     OW 1723   0.075   2.207   1.895
  575SOL    HW1 1724  -0.017   2.179   1.866
  575SOL    HW2 1725   0.106   2.284   1.839
  576SOL     OW 1726   0.072   2.028   2.180
  576SOL    HW1 1727   0.055   2.111   2.126
  576SOL    HW2 1728   0.162   1.991   2.158
  577SOL     OW 1729   1.674   2.745   3.116
  577SOL    HW1 1730   1.647   2.656   3.079
  577SOL    HW2 1731   1.675   2.813   3.043
  578SOL     OW 1732   1.225   2.187   2.311
  578SOL    HW1 1733   1.290   2.113   2.300
  578SOL    HW2 1734   1.245   2.237   2.395
  579SOL     OW 1735   0.594   2.607   2.514
  579SOL    HW1 1736   0.644   2.692   2.495
  579SOL    HW2 1737   0.506   2.609   2.466
  580SOL     OW 1738   0.859   2.818   2.723
  580SOL    HW1 1739   0.913   2.749   2.771
  580SOL    HW2 1740   0.827   2.887   2.789
  581SOL     OW 1741   1.083   2.846   1.949
  581SOL    HW1 1742   1.060   2.899   1.867
  581SOL    HW2 1743   1.164   2.790   1.930
  582SOL     OW 1744   0.079   3.102   2.515
  582SOL    HW1 1745   0.078   3.055   2.603
  582SOL    HW2 1746   0.161   3.074   2.464
  583SOL     OW 1747   1.824   2.054   3.089
  583SOL    HW1 1748   1.820   1.964   3.133
  583SOL    HW2 1749   1.827   2.043   2.990
  584SOL     OW 1750   0.428   2.286   2.382
  584SOL    HW1 1751   0.458   2.214   2.320
  584SOL    HW2 1752   0.389   2.246   2.465
  585SOL     OW 1753   1.424   2.076   2.974
  585SOL    HW1 1754   1.476   2.011   3.029
  585SOL    HW2 1755   1.375   2.139   3.035
  586SOL     OW 1756   0.770   3.192   2.163
  586SOL    HW1 1757   0.724   3.105   2.180
  586SOL    HW2 1758   0.861   3.189   2.204
  587SOL     OW 1759   1.352   1.914   2.030
  587SOL    HW1 1760   1.387   1.873   1.946
  587SOL    HW2 1761   1.262   1.876   2.050
  588SOL     OW 1762   1.300   2.315   2.553
  588SOL    HW1 1763   1.241   2.395   2.557
  588SOL    HW2 1764   1.315   2.280   2.646
  589SOL     OW 1765   1.593   2.083   2.744
  589SOL    HW1 1766   1.509   2.082   2.798
  589SOL    HW2 1767   1.595   2.166   2.688
  590SOL     OW 1768   0.039   2.939   2.162
  590SOL    HW1 1769   0.138   2.928   2.153
  590SOL    HW2 1770  -0.001   2.853   2.194
  591SOL     OW 1771   2.092   0.628   0.113
  591SOL    HW1 1772   1.999   0.626   0.150
  591SOL    HW2 1773   2.093   0.589   0.021
  592SOL     OW 1774   2.087   0.275   0.996
  592SOL    HW1 1775   2.122   0.258   1.088
  592SOL    HW2 1776   1.999   0.230   0.984
  593SOL     OW 1777   1.881   0.368   0.647
  593SOL    HW1 1778   1.799   0.411   0.686
  593SOL    HW2 1779   1.853   0.295   0.584
  594SOL     OW 1780   2.431   1.275   1.165
  594SOL    HW1 1781   2.338   1.268   1.128
  594SOL    HW2 1782   2.442   1.364   1.209
  595SOL     OW 1783   2.997   0.703   0.717
  595SOL    HW1 1784   3.054   0.781   0.692
  595SOL    HW2 1785   2.937   0.729   0.793
  596SOL     OW 1786   2.630   1.144   1.023
  596SOL    HW1 1787   2.552   1.161   1.083
  596SOL    HW2 1788   2.664   1.231   0.987
  597SOL     OW 1789   2.712   0.798   1.823
  597SOL    HW1 1790   2.708   0.874   1.888
  597SOL    HW2 1791   2.734   0.834   1.732
  598SOL     OW 1792   2.547   1.012   0.665
  598SOL    HW1 1793   2.616   0.996   0.735
  598SOL    HW2 1794   2.474   1.069   0.703
  599SOL     OW 1795   2.548   1.161   1.803
  599SOL    HW1 1796   2.608   1.240   1.817
  599SOL    HW2 1797   2.462   1.192   1.762
  600SOL     OW 1798   2.197   1.435   1.061
  600SOL    HW1 1799   2.119   1.404   1.008
  600SOL    HW2 1800   2.255   1.493   1.004
  601SOL     OW 1801   2.300   0.392   1.499
  601SOL    HW1 1802   2.382   0.336   1.508
  601SOL    HW2 1803   2.219   0.334   1.503
  602SOL     OW 1804   2.093   1.713   0.483
  602SOL    HW1 1805   2.127   1.790   0.537
  602SOL    HW2 1806   2.137   1.713   0.393
  603SOL     OW 1807   2.989   1.341   1.690
  603SOL    HW1 1808   3.036   1.341   1.778
  603SOL    HW2 1809   2.941   1.254   1.679
  604SOL     OW 1810   2.092   1.434   0.538
  604SOL    HW1 1811   2.066   1.530   0.538
  604SOL    HW2 1812   2.021   1.380   0.583
  605SOL     OW 1813   2.102   1.091   0.886
  605SOL    HW1 1814   2.116   1.007   0.938
  605SOL    HW2 1815   2.047   1.155   0.941
  606SOL     OW 1816   2.482   1.786   1.439
  606SOL    HW1 1817   2.390   1.769   1.474
  606SOL    HW2 1818   2.510   1.878   1.465
  607SOL     OW 1819   2.468   0.964   0.123
  607SOL    HW1 1820   2.475   1.048   0.069
  607SOL    HW2 1821   2.514   0.977   0.211
  608SOL     OW 1822   1.984   0.643   0.563
  608SOL    HW1 1823   1.939   0.555   0.580
  608SOL    HW2 1824   1.983   0.697   0.647
  609SOL     OW 1825   1.889   1.596   0.117
  609SOL    HW1 1826   1.870   1.500   0.138
  609SOL    HW2 1827   1.856   1.654   0.192
  610SOL     OW 1828   1.975   0.737   1.597
  610SOL    HW1 1829   2.063   0.724   1.642
  610SOL    HW2 1830   1.962   0.834   1.575
  611SOL     OW 1831   2.475   1.365   0.726
  611SOL    HW1 1832   2.426   1.278   0.735
  611SOL    HW2 1833   2.452   1.408   0.639
  612SOL     OW 1834   2.671   0.004   0.502
  612SOL    HW1 1835   2.711   0.095   0.493
  612SOL    HW2 1836   2.571   0.012   0.508
  613SOL     OW 1837   2.059   0.976   1.264
  613SOL    HW1 1838   2.148   0.931   1.250
  613SOL    HW2 1839   1.986   0.911   1.245
  614SOL     OW 1840   2.179   0.251   1.801
  614SOL    HW1 1841   2.250   0.322   1.807
  614SOL    HW2 1842   2.091   0.290   1.829
  615SOL     OW 1843   2.460   0.729   0.270
  615SOL    HW1 1844   2.484   0.798   0.202
  615SOL    HW2 1845   2.382   0.762   0.324
  616SOL     OW 1846   2.669   0.605   1.465
  616SOL    HW1 1847   2.622   0.602   1.554
  616SOL    HW2 1848   2.618   0.550   1.399
  617SOL     OW 1849   2.835   0.890   1.572
  617SOL    HW1 1850   2.881   0.806   1.543
  617SOL    HW2 1851   2.779   0.924   1.497
  618SOL     OW 1852   2.853   0.410   1.242
  618SOL    HW1 1853   2.776   0.444   1.296
  618SOL    HW2 1854   2.819   0.359   1.163
  619SOL     OW 1855   2.903   0.701   0.429
  619SOL    HW1 1856   2.929   0.697   0.525
  619SOL    HW2 1857   2.818   0.650   0.415
  620SOL     OW 1858   1.938   0.811   0.789
  620SOL    HW1 1859   2.037   0.799   0.798
  620SOL    HW2 1860   1.914   0.906   0.810
  621SOL     OW 1861   1.992   1.821   1.571
  621SOL    HW1 1862   1.982   1.806   1.670
  621SOL    HW2 1863   1.906   1.857   1.535
  622SOL     OW 1864   2.727   0.348   0.195
  622SOL    HW1 1865   2.786   0.411   0.146
  622SOL    HW2 1866   2.746   0.254   0.166
  623SOL     OW 1867   2.412   0.196   0.885
  623SOL    HW1 1868   2.407   0.191   0.985
  623SOL    HW2 1869   2.414   0.292   0.856
  624SOL     OW 1870   2.870   1.456   0.477
  624SOL    HW1 1871   2.824   1.528   0.425
  624SOL    HW2 1872   2.866   1.476   0.575
  625SOL     OW 1873   2.213   1.801   0.853
  625SOL    HW1 1874   2.263   1.715   0.859
  625SOL    HW2 1875   2.278   1.878   0.850
  626SOL     OW 1876   3.089   1.550   1.506
  626SOL    HW1 1877   3.095   1.473   1.570
  626SOL    HW2 1878   3.037   1.524   1.426
  627SOL     OW 1879   2.183   0.943   0.242
  627SOL    HW1 1880   2.265   0.982   0.200
  627SOL    HW2 1881   2.156   0.861   0.193
  628SOL     OW 1882   2.323   1.266   1.727
  628SOL    HW1 1883   2.273   1.267   1.641
  628SOL    HW2 1884   2.260   1.248   1.803
  629SOL     OW 1885   2.064   0.285   1.498
  629SOL    HW1 1886   1.984   0.345   1.485
  629SOL    HW2 1887   2.054   0.236   1.584
  630SOL     OW 1888   2.326   1.743   0.323
  630SOL    HW1 1889   2.359   1.782   0.409
  630SOL    HW2 1890   2.402   1.736   0.258
  631SOL     OW 1891   2.111   1.785   1.241
  631SOL    HW1 1892   2.168   1.720   1.291
  631SOL    HW2 1893   2.095   1.752   1.148
  632SOL     OW 1894   2.802   1.698   0.904
  632SOL    HW1 1895   2.882   1.641   0.925
  632SOL    HW2 1896   2.753   1.658   0.827
  633SOL     OW 1897   2.244   0.700   0.480
  633SOL    HW1 1898   2.289   0.610   0.477
  633SOL    HW2 1899   2.150   0.689   0.513
  634SOL     OW 1900   2.476   0.122   0.117
  634SOL    HW1 1901   2.574   0.100   0.124
  634SOL    HW2 1902   2.445   0.105   0.024
  635SOL     OW 1903   2.643   0.264   1.749
  635SOL    HW1 1904   2.710   0.203   1.792
  635SOL    HW2 1905   2.570   0.283   1.814
  636SOL     OW 1906   2.750   1.514   1.195
  636SOL    HW1 1907   2.727   1.489   1.101
  636SOL    HW2 1908   2.811   1.445   1.234
  637SOL     OW 1909   2.665   1.402   0.924
  637SOL    HW1 1910   2.755   1.416   0.882
  637SOL    HW2 1911   2.594   1.404   0.853
  638SOL     OW 1912   2.784   0.503   0.899
  638SOL    HW1 1913   2.759   0.494   0.803
  638SOL    HW2 1914   2.832   0.421   0.930
  639SOL     OW 1915   2.401   0.064   0.512
  639SOL    HW1 1916   2.320   0.065   0.570
  639SOL    HW2 1917   2.404   0.147   0.457
  640SOL     OW 1918   3.296   1.188   0.041
  640SOL    HW1 1919   3.328   1.112   0.098
  640SOL    HW2 1920   3.204   1.215   0.071
  641SOL     OW 1921   2.159   0.035   0.171
  641SOL    HW1 1922   2.208   0.119   0.150
  641SOL    HW2 1923   2.221  -0.030   0.216
  642SOL     OW 1924   2.797   0.236   0.480
  642SOL    HW1 1925   2.749   0.277   0.402
  642SOL    HW2 1926   2.896   0.234   0.461
  643SOL     OW 1927   2.938   0.683   1.464
  643SOL    HW1 1928   2.858   0.622   1.467
  643SOL    HW2 1929   3.019   0.630   1.440
  644SOL     OW 1930   3.089   1.570   0.793
  644SOL    HW1 1931   3.110   1.644   0.728
  644SOL    HW2 1932   3.157   1.570   0.866
  645SOL     OW 1933   2.321   1.152   0.741
  645SOL    HW1 1934   2.250   1.125   0.806
  645SOL    HW2 1935   2.295   1.124   0.648
  646SOL     OW 1936   3.133   1.797   0.591
  646SOL    HW1 1937   3.177   1.861   0.527
  646SOL    HW2 1938   3.083   1.849   0.661
  647SOL     OW 1939   2.894   0.549   0.016
  647SOL    HW1 1940   2.853   0.631  -0.023
  647SOL    HW2 1941   2.958   0.575   0.089
  648SOL     OW 1942   1.940   0.556   1.386
  648SOL    HW1 1943   2.032   0.555   1.345
  648SOL    HW2 1944   1.934   0.630   1.453
  649SOL     OW 1945   2.423   0.222   1.147
  649SOL    HW1 1946   2.461   0.138   1.184
  649SOL    HW2 1947   2.335   0.241   1.191
  650SOL     OW 1948   2.728   0.454   0.642
  650SOL    HW1 1949   2.696   0.526   0.580
  650SOL    HW2 1950   2.752   0.373   0.589
  651SOL     OW 1951   2.879   0.039   0.753
  651SOL    HW1 1952   2.807   0.044   0.684
  651SOL    HW2 1953   2.855  -0.030   0.822
  652SOL     OW 1954   2.350   1.385   0.174
  652SOL    HW1 1955   2.263   1.370   0.221
  652SOL    HW2 1956   2.333   1.411   0.079
  653SOL     OW 1957   2.389   0.256   0.328
  653SOL    HW1 1958   2.416   0.197   0.253
  653SOL    HW2 1959   2.389   0.351   0.297
  654SOL     OW 1960   2.926   1.347   1.340
  654SOL    HW1 1961   2.846   1.324   1.395
  654SOL    HW2 1962   3.009   1.321   1.389
  655SOL     OW 1963   2.973   1.195   1.100
  655SOL    HW1 1964   2.933   1.239   1.181
  655SOL    HW2 1965   2.932   1.232   1.017
  656SOL     OW 1966   2.777   0.089   1.402
  656SOL    HW1 1967   2.802   0.069   1.307
  656SOL    HW2 1968   2.849   0.145   1.444
  657SOL     OW 1969   2.842   1.116   1.719
  657SOL    HW1 1970   2.743   1.122   1.729
  657SOL    HW2 1971   2.865   1.036   1.663
  658SOL     OW 1972   2.567   1.050   0.368
  658SOL    HW1 1973   2.553   1.057   0.467
  658SOL    HW2 1974   2.651   0.999   0.350
  659SOL     OW 1975   2.272   0.813   1.251
  659SOL    HW1 1976   2.358   0.825   1.301
  659SOL    HW2 1977   2.230   0.726   1.278
  660SOL     OW 1978   1.926   1.564   1.331
  660SOL    HW1 1979   1.880   1.646   1.297
  660SOL    HW2 1980   2.024   1.583   1.340
  661SOL     OW 1981   2.229   1.100   0.501
  661SOL    HW1 1982   2.222   1.183   0.445
  661SOL    HW2 1983   2.233   1.020   0.441
  662SOL     OW 1984   2.428   0.537   0.865
  662SOL    HW1 1985   2.440   0.603   0.791
  662SOL    HW2 1986   2.474   0.571   0.948
  663SOL     OW 1987   3.114   1.348   0.388
  663SOL    HW1 1988   3.164   1.425   0.428
  663SOL    HW2 1989   3.019   1.350   0.420
  664SOL     OW 1990   2.216   1.510   1.329
  664SOL    HW1 1991   2.195   1.466   1.242
  664SOL    HW2 1992   2.313   1.536   1.332
  665SOL     OW 1993   2.264   0.751   1.598
  665SOL    HW1 1994   2.332   0.806   1.551
  665SOL    HW2 1995   2.304   0.663   1.625
  666SOL     OW 1996   2.875   0.105   1.770
  666SOL    HW1 1997   2.881   0.190   1.718
  666SOL    HW2 1998   2.907   0.029   1.713
  667SOL     OW 1999   2.366   0.050   1.740
  667SOL    HW1 2000   2.324  -0.007   1.670
  667SOL    HW2 2001   2.300   0.119   1.772
  668SOL     OW 2002   2.435   0.870   1.029
  668SOL    HW1 2003   2.479   0.959   1.020
  668SOL    HW2 2004   2.372   0.870   1.106
  669SOL     OW 2005   3.222   0.862   1.045
  669SOL    HW1 2006   3.147   0.862   0.979
  669SOL    HW2 2007   3.259   0.770   1.054
  670SOL     OW 2008   3.071   0.525   0.275
  670SOL    HW1 2009   3.084   0.441   0.329
  670SOL    HW2 2010   3.042   0.599   0.335
  671SOL     OW 2011   2.169   0.213   1.231
  671SOL    HW1 2012   2.146   0.250   1.321
  671SOL    HW2 2013   2.139   0.118   1.225
  672SOL     OW 2014   1.899   1.310   1.282
  672SOL    HW1 2015   1.952   1.261   1.350
  672SOL    HW2 2016   1.921   1.408   1.287
  673SOL     OW 2017   2.594   0.634   1.064
  673SOL    HW1 2018   2.653   0.608   0.988
  673SOL    HW2 2019   2.566   0.730   1.053
  674SOL     OW 2020   2.169   0.063   0.618
  674SOL    HW1 2021   2.158   0.157   0.651
  674SOL    HW2 2022   2.164   0.000   0.695
  675SOL     OW 2023   2.885   0.766   0.966
  675SOL    HW1 2024   2.900   0.787   1.062
  675SOL    HW2 2025   2.855   0.671   0.957
  676SOL     OW 2026   2.842   1.573   1.700
  676SOL    HW1 2027   2.822   1.617   1.612
  676SOL    HW2 2028   2.881   1.482   1.684
  677SOL     OW 2029   2.212   0.898   1.804
  677SOL    HW1 2030   2.288   0.942   1.852
  677SOL    HW2 2031   2.247   0.851   1.722
  678SOL     OW 2032   2.930   1.333   0.849
  678SOL    HW1 2033   2.937   1.249   0.794
  678SOL    HW2 2034   2.992   1.402   0.813
  679SOL     OW 2035   2.181   0.810   0.949
  679SOL    HW1 2036   2.274   0.846   0.954
  679SOL    HW2 2037   2.175   0.725   1.001
  680SOL     OW 2038   2.201   0.509   1.006
  680SOL    HW1 2039   2.149   0.426   0.989
  680SOL    HW2 2040   2.278   0.514   0.942
  681SOL     OW 2041   3.000   0.380   1.678
  681SOL    HW1 2042   2.955   0.443   1.742
  681SOL    HW2 2043   3.093   0.411   1.661
  682SOL     OW 2044   3.022   0.207   1.477
  682SOL    HW1 2045   3.022   0.271   1.554
  682SOL    HW2 2046   3.050   0.255   1.394
  683SOL     OW 2047   1.870   1.326   0.200
  683SOL    HW1 2048   1.777   1.347   0.169
  683SOL    HW2 2049   1.880   1.227   0.213
  684SOL     OW 2050   1.950   1.801   0.927
  684SOL    HW1 2051   1.908   1.715   0.900
  684SOL    HW2 2052   2.044   1.804   0.893
  685SOL     OW 2053   2.366   1.568   0.910
  685SOL    HW1 2054   2.432   1.642   0.919
  685SOL    HW2 2055   2.410   1.489   0.868
  686SOL     OW 2056   2.864   0.796   1.238
  686SOL    HW1 2057   2.905   0.764   1.324
  686SOL    HW2 2058   2.768   0.769   1.235
  687SOL     OW 2059   1.902   0.544   1.114
  687SOL    HW1 2060   1.987   0.511   1.073
  687SOL    HW2 2061   1.915   0.559   1.212
  688SOL     OW 2062   2.051   0.520   1.722
  688SOL    HW1 2063   2.110   0.480   1.652
  688SOL    HW2 2064   1.993   0.591   1.681
  689SOL     OW 2065   2.677   0.572   0.325
  689SOL    HW1 2066   2.684   0.483   0.279
  689SOL    HW2 2067   2.583   0.606   0.317
  690SOL     OW 2068   2.114   1.564   1.744
  690SOL    HW1 2069   2.084   1.621   1.820
  690SOL    HW2 2070   2.107   1.467   1.770
  691SOL     OW 2071   2.533   0.464   1.269
  691SOL    HW1 2072   2.499   0.375   1.239
  691SOL    HW2 2073   2.559   0.518   1.189
  692SOL     OW 2074   2.792   1.678   1.465
  692SOL    HW1 2075   2.768   1.660   1.370
  692SOL    HW2 2076   2.822   1.772   1.475
  693SOL     OW 2077   2.335   0.500   0.191
  693SOL    HW1 2078   2.396   0.580   0.195
  693SOL    HW2 2079   2.240   0.531   0.198
  694SOL     OW 2080   2.021   1.137   1.466
  694SOL    HW1 2081   2.043   1.076   1.542
  694SOL    HW2 2082   2.031   1.088   1.380
  695SOL     OW 2083   3.114   1.731   1.128
  695SOL    HW1 2084   3.198   1.736   1.074
  695SOL    HW2 2085   3.091   1.635   1.146
  696SOL     OW 2086   1.945   1.258   1.022
  696SOL    HW1 2087   1.940   1.257   1.122
  696SOL    HW2 2088   1.862   1.217   0.984
  697SOL     OW 2089   2.550   1.662   1.716
  697SOL    HW1 2090   2.494   1.743   1.725
  697SOL    HW2 2091   2.602   1.666   1.630
  698SOL     OW 2092   2.765   0.086   0.133
  698SOL    HW1 2093   2.816   0.087   0.047
  698SOL    HW2 2094   2.821   0.044   0.204
  699SOL     OW 2095   1.992   1.794   1.851
  699SOL    HW1 2096   1.951   1.720   1.904
  699SOL    HW2 2097   2.056   1.845   1.909
  700SOL     OW 2098   2.692   1.273   1.422
  700SOL    HW1 2099   2.687   1.306   1.517
  700SOL    HW2 2100   2.606   1.292   1.376
  701SOL     OW 2101   2.534   1.616   0.154
  701SOL    HW1 2102   2.543   1.626   0.055
  701SOL    HW2 2103   2.494   1.527   0.175
  702SOL     OW 2104   2.125   0.326   0.720
  702SOL    HW1 2105   2.046   0.377   0.686
  702SOL    HW2 2106   2.116   0.311   0.818
  703SOL     OW 2107   2.684   1.002   1.372
  703SOL    HW1 2108   2.724   1.001   1.280
  703SOL    HW2 2109   2.694   1.094   1.412
  704SOL     OW 2110   2.778   0.910   0.291
  704SOL    HW1 2111   2.841   0.948   0.223
  704SOL    HW2 2112   2.818   0.827   0.330
  705SOL     OW 2113   2.234   1.288   1.490
  705SOL    HW1 2114   2.221   1.381   1.456
  705SOL    HW2 2115   2.150   1.236   1.477
  706SOL     OW 2116   2.901   1.098   0.696
  706SOL    HW1 2117   2.831   1.051   0.750
  706SOL    HW2 2118   2.960   1.030   0.653
  707SOL     OW 2119   2.876   0.236   0.971
  707SOL    HW1 2120   2.868   0.200   0.878
  707SOL    HW2 2121   2.874   0.160   1.036
  708SOL     OW 2122   2.452   1.487   0.491
  708SOL    HW1 2123   2.494   1.429   0.421
  708SOL    HW2 2124   2.408   1.566   0.447
  709SOL     OW 2125   2.117   1.348   0.290
  709SOL    HW1 2126   2.021   1.349   0.263
  709SOL    HW2 2127   2.129   1.401   0.374
  710SOL     OW 2128   1.967   1.013   1.726
  710SOL    HW1 2129   1.890   0.980   1.780
  710SOL    HW2 2130   2.052   0.983   1.768
  711SOL     OW 2131   2.534   0.203   1.489
  711SOL    HW1 2132   2.624   0.187   1.449
  711SOL    HW2 2133   2.542   0.208   1.588
  712SOL     OW 2134   1.934   0.166   0.318
  712SOL    HW1 2135   1.917   0.249   0.264
  712SOL    HW2 2136   2.024   0.129   0.296
  713SOL     OW 2137   2.475   0.842   1.431
  713SOL    HW1 2138   2.531   0.923   1.414
  713SOL    HW2 2139   2.534   0.762   1.434
  714SOL     OW 2140   2.578   0.565   1.708
  714SOL    HW1 2141   2.597   0.630   1.782
  714SOL    HW2 2142   2.638   0.485   1.717
  715SOL     OW 2143   2.252   1.741   1.560
  715SOL    HW1 2144   2.161   1.782   1.558
  715SOL    HW2 2145   2.245   1.647   1.592
  716SOL     OW 2146   2.456   0.745   0.652
  716SOL    HW1 2147   2.506   0.830   0.633
  716SOL    HW2 2148   2.368   0.747   0.604
  717SOL     OW 2149   2.721   1.374   0.016
  717SOL    HW1 2150   2.675   1.389   0.104
  717SOL    HW2 2151   2.765   1.459  -0.014
  718SOL     OW 2152   2.523   1.790   0.953
  718SOL    HW1 2153   2.477   1.878   0.940
  718SOL    HW2 2154   2.622   1.802   0.946
  719SOL     OW 2155   2.721   0.956   0.861
  719SOL    HW1 2156   2.775   0.887   0.909
  719SOL    HW2 2157   2.689   1.025   0.927
  720SOL     OW 2158   2.945   0.984   0.087
  720SOL    HW1 2159   2.922   1.037   0.005
  720SOL    HW2 2160   3.026   0.928   0.068
  721SOL     OW 2161   2.083   1.314   1.844
  721SOL    HW1 2162   2.018   1.241   1.823
  721SOL    HW2 2163   2.087   1.328   1.942
  722SOL     OW 2164   1.941   1.240   0.653
  722SOL    HW1 2165   1.940   1.193   0.741
  722SOL    HW2 2166   2.023   1.212   0.602
  723SOL     OW 2167   2.534   1.391   1.624
  723SOL    HW1 2168   2.456   1.341   1.662
  723SOL    HW2 2169   2.531   1.486   1.655
  724SOL     OW 2170   2.290   0.424   0.520
  724SOL    HW1 2171   2.320   0.352   0.458
  724SOL    HW2 2172   2.251   0.384   0.603
  725SOL     OW 2173   2.179   0.547   1.280
  725SOL    HW1 2174   2.217   0.488   1.352
  725SOL    HW2 2175   2.219   0.521   1.192
  726SOL     OW 2176   2.674   1.586   0.687
  726SOL    HW1 2177   2.706   1.596   0.593
  726SOL    HW2 2178   2.595   1.524   0.689
  727SOL     OW 2179   2.863   0.034   1.154
  727SOL    HW1 2180   2.800  -0.038   1.123
  727SOL    HW2 2181   2.956  -0.002   1.154
  728SOL     OW 2182   2.632   1.330   0.301
  728SOL    HW1 2183   2.586   1.243   0.318
  728SOL    HW2 2184   2.723   1.327   0.342
  729SOL     OW 2185   2.480   1.567   1.284
  729SOL    HW1 2186   2.475   1.649   1.341
  729SOL    HW2 2187   2.569   1.564   1.239
  730SOL     OW 2188   1.901   1.077   0.300
  730SOL    HW1 2189   2.000   1.066   0.291
  730SOL    HW2 2190   1.861   0.991   0.332
  731SOL     OW 2191   2.737   1.646   0.337
  731SOL    HW1 2192   2.660   1.611   0.283
  731SOL    HW2 2193   2.705   1.717   0.399
  732SOL     OW 2194   2.092   0.628   1.975
  732SOL    HW1 2195   1.999   0.626   2.012
  732SOL    HW2 2196   2.093   0.589   1.883
  733SOL     OW 2197   2.087   0.275   2.858
  733SOL    HW1 2198   2.122   0.258   2.950
  733SOL    HW2 2199   1.999   0.230   2.846
  734SOL     OW 2200   1.881   0.368   2.509
  734SOL    HW1 2201   1.799   0.411   2.548
  734SOL    HW2 2202   1.853   0.295   2.446
  735SOL     OW 2203   2.431   1.275   3.027
  735SOL    HW1 2204   2.338   1.268   2.990
  735SOL    HW2 2205   2.442   1.364   3.071
  736SOL     OW 2206   2.997   0.703   2.579
  736SOL    HW1 2207   3.054   0.781   2.554
  736SOL    HW2 2208   2.937   0.729   2.655
  737SOL     OW 2209   2.630   1.144   2.885
  737SOL    HW1 2210   2.552   1.161   2.945
  737SOL    HW2 2211   2.664   1.231   2.849
  738SOL     OW 2212   2.547   1.012   2.527
  738SOL    HW1 2213   2.616   0.996   2.597
  738SOL    HW2 2214   2.474   1.069   2.565
  739SOL     OW 2215   2.197   1.435   2.923
  739SOL    HW1 2216   2.119   1.404   2.870
  739SOL    HW2 2217   2.255   1.493   2.866
  740SOL     OW 2218   3.322   1.505   3.201
  740SOL    HW1 2219   3.346   1.599   3.227
  740SOL    HW2 2220   3.306   1.451   3.283
  741SOL     OW 2221   2.093   1.713   2.345
  741SOL    HW1 2222   2.127   1.790   2.399
  741SOL    HW2 2223   2.137   1.713   2.255
  742SOL     OW 2224   2.092   1.434   2.400
  742SOL    HW1 2225   2.066   1.530   2.400
  742SOL    HW2 2226   2.021   1.380   2.445
  743SOL     OW 2227   2.102   1.091   2.748
  743SOL    HW1 2228   2.116   1.007   2.800
  743SOL    HW2 2229   2.047   1.155   2.803
  744SOL     OW 2230   2.468   0.964   1.985
  744SOL    HW1 2231   2.475   1.048   1.931
  744SOL    HW2 2232   2.514   0.977   2.073
  745SOL     OW 2233   1.984   0.643   2.425
  745SOL    HW1 2234   1.939   0.555   2.442
  745SOL    HW2 2235   1.983   0.697   2.509
  746SOL     OW 2236   1.889   1.596   1.979
  746SOL    HW1 2237   1.870   1.500   2.000
  746SOL    HW2 2238   1.856   1.654   2.054
  747SOL     OW 2239   2.475   1.365   2.588
  747SOL    HW1 2240   2.426   1.278   2.597
  747SOL    HW2 2241   2.452   1.408   2.501
  748SOL     OW 2242   2.671   0.004   2.364
  748SOL    HW1 2243   2.711   0.095   2.355
  748SOL    HW2 2244   2.571   0.012   2.370
  749SOL     OW 2245   2.059   0.976   3.126
  749SOL    HW1 2246   2.148   0.931   3.112
  749SOL    HW2 2247   1.986   0.911   3.107
  750SOL     OW 2248   2.460   0.729   2.132
  750SOL    HW1 2249   2.484   0.798   2.064
  750SOL    HW2 2250   2.382   0.762   2.186
  751SOL     OW 2251   2.903   0.701   2.291
  751SOL    HW1 2252   2.929   0.697   2.387
  751SOL    HW2 2253   2.818   0.650   2.277
  752SOL     OW 2254   1.938   0.811   2.651
  752SOL    HW1 2255   2.037   0.799   2.660
  752SOL    HW2 2256   1.914   0.906   2.672
  753SOL     OW 2257   2.727   0.348   2.057
  753SOL    HW1 2258   2.786   0.411   2.008
  753SOL    HW2 2259   2.746   0.254   2.028
  754SOL     OW 2260   2.412   0.196   2.747
  754SOL    HW1 2261   2.407   0.191   2.847
  754SOL    HW2 2262   2.414   0.292   2.718
  755SOL     OW 2263   2.870   1.456   2.339
  755SOL    HW1 2264   2.824   1.528   2.287
  755SOL    HW2 2265   2.866   1.476   2.437
  756SOL     OW 2266   2.213   1.801   2.715
  756SOL    HW1 2267   2.263   1.715   2.721
  756SOL    HW2 2268   2.278   1.878   2.712
  757SOL     OW 2269   2.183   0.943   2.104
  757SOL    HW1 2270   2.265   0.982   2.062
  757SOL    HW2 2271   2.156   0.861   2.055
  758SOL     OW 2272   2.326   1.743   2.185
  758SOL    HW1 2273   2.359   1.782   2.271
  758SOL    HW2 2274   2.402   1.736   2.120
  759SOL     OW 2275   2.111   1.785   3.103
  759SOL    HW1 2276   2.168   1.720   3.153
  759SOL    HW2 2277   2.095   1.752   3.010
  760SOL     OW 2278   2.802   1.698   2.766
  760SOL    HW1 2279   2.882   1.641   2.787
  760SOL    HW2 2280   2.753   1.658   2.689
  761SOL     OW 2281   2.244   0.700   2.342
  761SOL    HW1 2282   2.289   0.610   2.339
  761SOL    HW2 2283   2.150   0.689   2.375
  762SOL     OW 2284   2.476   0.122   1.979
  762SOL    HW1 2285   2.574   0.100   1.986
  762SOL    HW2 2286   2.445   0.105   1.886
  763SOL     OW 2287   2.665   1.402   2.786
  763SOL    HW1 2288   2.755   1.416   2.744
  763SOL    HW2 2289   2.594   1.404   2.715
  764SOL     OW 2290   2.784   0.503   2.761
  764SOL    HW1 2291   2.759   0.494   2.665
  764SOL    HW2 2292   2.832   0.421   2.792
  765SOL     OW 2293   2.401   0.064   2.374
  765SOL    HW1 2294   2.320   0.065   2.432
  765SOL    HW2 2295   2.404   0.147   2.319
  766SOL     OW 2296   2.159   0.035   2.033
  766SOL    HW1 2297   2.208   0.119   2.012
  766SOL    HW2 2298   2.221  -0.030   2.078
  767SOL     OW 2299   2.797   0.236   2.342
  767SOL    HW1 2300   2.749   0.277   2.264
  767SOL    HW2 2301   2.896   0.234   2.323
  768SOL     OW 2302   3.089   1.570   2.655
  768SOL    HW1 2303   3.110   1.644   2.590
  768SOL    HW2 2304   3.157   1.570   2.728
  769SOL     OW 2305   2.321   1.152   2.603
  769SOL    HW1 2306   2.250   1.125   2.668
  769SOL    HW2 2307   2.295   1.124   2.510
  770SOL     OW 2308   3.133   1.797   2.453
  770SOL    HW1 2309   3.177   1.861   2.389
  770SOL    HW2 2310   3.083   1.849   2.523
  771SOL     OW 2311   2.894   0.549   1.878
  771SOL    HW1 2312   2.853   0.631   1.839
  771SOL    HW2 2313   2.958   0.575   1.951
  772SOL     OW 2314   2.728   0.454   2.504
  772SOL    HW1 2315   2.696   0.526   2.442
  772SOL    HW2 2316   2.752   0.373   2.451
  773SOL     OW 2317   2.879   0.039   2.615
  773SOL    HW1 2318   2.807   0.044   2.546
  773SOL    HW2 2319   2.855  -0.030   2.684
  774SOL     OW 2320   2.350   1.385   2.036
  774SOL    HW1 2321   2.263   1.370   2.083
  774SOL    HW2 2322   2.333   1.411   1.941
  775SOL     OW 2323   2.389   0.256   2.190
  775SOL    HW1 2324   2.416   0.197   2.115
  775SOL    HW2 2325   2.389   0.351   2.159
  776SOL     OW 2326   2.973   1.195   2.962
  776SOL    HW1 2327   2.933   1.239   3.043
  776SOL    HW2 2328   2.932   1.232   2.879
  777SOL     OW 2329   2.567   1.050   2.230
  777SOL    HW1 2330   2.553   1.057   2.329
  777SOL    HW2 2331   2.651   0.999   2.212
  778SOL     OW 2332   2.272   0.813   3.113
  778SOL    HW1 2333   2.358   0.825   3.163
  778SOL    HW2 2334   2.230   0.726   3.140
  779SOL     OW 2335   2.229   1.100   2.363
  779SOL    HW1 2336   2.222   1.183   2.307
  779SOL    HW2 2337   2.233   1.020   2.303
  780SOL     OW 2338   2.428   0.537   2.727
  780SOL    HW1 2339   2.440   0.603   2.653
  780SOL    HW2 2340   2.474   0.571   2.810
  781SOL     OW 2341   3.114   1.348   2.250
  781SOL    HW1 2342   3.164   1.425   2.290
  781SOL    HW2 2343   3.019   1.350   2.282
  782SOL     OW 2344   3.134   1.445   3.004
  782SOL    HW1 2345   3.181   1.458   3.091
  782SOL    HW2 2346   3.068   1.371   3.013
  783SOL     OW 2347   2.435   0.870   2.891
  783SOL    HW1 2348   2.479   0.959   2.882
  783SOL    HW2 2349   2.372   0.870   2.968
  784SOL     OW 2350   3.222   0.862   2.907
  784SOL    HW1 2351   3.147   0.862   2.841
  784SOL    HW2 2352   3.259   0.770   2.916
  785SOL     OW 2353   3.071   0.525   2.137
  785SOL    HW1 2354   3.084   0.441   2.191
  785SOL    HW2 2355   3.042   0.599   2.197
  786SOL     OW 2356   2.169   0.213   3.093
  786SOL    HW1 2357   2.146   0.250   3.183
  786SOL    HW2 2358   2.139   0.118   3.087
  787SOL     OW 2359   2.594   0.634   2.926
  787SOL    HW1 2360   2.653   0.608   2.850
  787SOL    HW2 2361   2.566   0.730   2.915
  788SOL     OW 2362   2.169   0.063   2.480
  788SOL    HW1 2363   2.158   0.157   2.513
  788SOL    HW2 2364   2.164   0.000   2.557
  789SOL     OW 2365   2.885   0.766   2.828
  789SOL    HW1 2366   2.900   0.787   2.924
  789SOL    HW2 2367   2.855   0.671   2.819
  790SOL     OW 2368   2.930   1.333   2.711
  790SOL    HW1 2369   2.937   1.249   2.656
  790SOL    HW2 2370   2.992   1.402   2.675
  791SOL     OW 2371   2.181   0.810   2.811
  791SOL    HW1 2372   2.274   0.846   2.816
  791SOL    HW2 2373   2.175   0.725   2.863
  792SOL     OW 2374   2.201   0.509   2.868
  792SOL    HW1 2375   2.149   0.426   2.851
  792SOL    HW2 2376   2.278   0.514   2.804
  793SOL     OW 2377   1.870   1.326   2.062
  793SOL    HW1 2378   1.777   1.347   2.031
  793SOL    HW2 2379   1.880   1.227   2.075
  794SOL     OW 2380   1.950   1.801   2.789
  794SOL    HW1 2381   1.908   1.715   2.762
  794SOL    HW2 2382   2.044   1.804   2.755
  795SOL     OW 2383   2.366   1.568   2.772
  795SOL    HW1 2384   2.432   1.642   2.781
  795SOL    HW2 2385   2.410   1.489   2.730
  796SOL     OW 2386   2.864   0.796   3.100
  796SOL    HW1 2387   2.905   0.764   3.186
  796SOL    HW2 2388   2.768   0.769   3.097
  797SOL     OW 2389   1.902   0.544   2.976
  797SOL    HW1 2390   1.987   0.511   2.935
  797SOL    HW2 2391   1.915   0.559   3.074
  798SOL     OW 2392   2.677   0.572   2.187
  798SOL    HW1 2393   2.684   0.483   2.141
  798SOL    HW2 2394   2.583   0.606   2.179
  799SOL     OW 2395   2.533   0.464   3.131
  799SOL    HW1 2396   2.499   0.375   3.101
  799SOL    HW2 2397   2.559   0.518   3.051
  800SOL     OW 2398   2.335   0.500   2.053
  800SOL    HW1 2399   2.396   0.580   2.057
  800SOL    HW2 2400   2.240   0.531   2.060
  801SOL     OW 2401   3.114   1.731   2.990
  801SOL    HW1 2402   3.198   1.736   2.936
  801SOL    HW2 2403   3.091   1.635   3.008
  802SOL     OW 2404   1.945   1.258   2.884
  802SOL    HW1 2405   1.940   1.257   2.984
  802SOL    HW2 2406   1.862   1.217   2.846
  803SOL     OW 2407   2.534   1.616   2.016
  803SOL    HW1 2408   2.543   1.626   1.917
  803SOL    HW2 2409   2.494   1.527   2.037
  804SOL     OW 2410   2.125   0.326   2.582
  804SOL    HW1 2411   2.046   0.377   2.548
  804SOL    HW2 2412   2.116   0.311   2.680
  805SOL     OW 2413   2.684   1.002   3.234
  805SOL    HW1 2414   2.724   1.001   3.142
  805SOL    HW2 2415   2.694   1.094   3.274
  806SOL     OW 2416   2.778   0.910   2.153
  806SOL    HW1 2417   2.841   0.948   2.085
  806SOL    HW2 2418   2.818   0.827   2.192
  807SOL     OW 2419   2.901   1.098   2.558
  807SOL    HW1 2420   2.831   1.051   2.612
  807SOL    HW2 2421   2.960   1.030   2.515
  808SOL     OW 2422   2.876   0.236   2.833
  808SOL    HW1 2423   2.868   0.200   2.740
  808SOL    HW2 2424   2.874   0.160   2.898
  809SOL     OW 2425   2.452   1.487   2.353
  809SOL    HW1 2426   2.494   1.429   2.283
  809SOL    HW2 2427   2.408   1.566   2.309
  810SOL     OW 2428   2.117   1.348   2.152
  810SOL    HW1 2429   2.021   1.349   2.125
  810SOL    HW2 2430   2.129   1.401   2.236
  811SOL     OW 2431   1.937   0.345   1.895
  811SOL    HW1 2432   1.845   0.317   1.866
  811SOL    HW2 2433   1.968   0.422   1.839
  812SOL     OW 2434   1.934   0.166   2.180
  812SOL    HW1 2435   1.917   0.249   2.126
  812SOL    HW2 2436   2.024   0.129   2.158
  813SOL     OW 2437   2.456   0.745   2.514
  813SOL    HW1 2438   2.506   0.830   2.495
  813SOL    HW2 2439   2.368   0.747   2.466
  814SOL     OW 2440   2.721   1.374   1.878
  814SOL    HW1 2441   2.675   1.389   1.966
  814SOL    HW2 2442   2.765   1.459   1.848
  815SOL     OW 2443   2.523   1.790   2.815
  815SOL    HW1 2444   2.477   1.878   2.802
  815SOL    HW2 2445   2.622   1.802   2.808
  816SOL     OW 2446   2.721   0.956   2.723
  816SOL    HW1 2447   2.775   0.887   2.771
  816SOL    HW2 2448   2.689   1.025   2.789
  817SOL     OW 2449   2.945   0.984   1.949
  817SOL    HW1 2450   2.922   1.037   1.867
  817SOL    HW2 2451   3.026   0.928   1.930
  818SOL     OW 2452   1.941   1.240   2.515
  818SOL    HW1 2453   1.940   1.193   2.603
  818SOL    HW2 2454   2.023   1.212   2.464
  819SOL     OW 2455   2.290   0.424   2.382
  819SOL    HW1 2456   2.320   0.352   2.320
  819SOL    HW2 2457   2.251   0.384   2.465
  820SOL     OW 2458   2.674   1.586   2.549
  820SOL    HW1 2459   2.706   1.596   2.455
  820SOL    HW2 2460   2.595   1.524   2.551
  821SOL     OW 2461   2.632   1.330   2.163
  821SOL    HW1 2462   2.586   1.243   2.180
  821SOL    HW2 2463   2.723   1.327   2.204
  822SOL     OW 2464   3.214   0.052   2.030
  822SOL    HW1 2465   3.249   0.011   1.946
  822SOL    HW2 2466   3.124   0.014   2.050
  823SOL     OW 2467   1.901   1.077   2.162
  823SOL    HW1 2468   2.000   1.066   2.153
  823SOL    HW2 2469   1.861   0.991   2.194
  824SOL     OW 2470   2.737   1.646   2.199
  824SOL    HW1 2471   2.660   1.611   2.145
  824SOL    HW2 2472   2.705   1.717   2.261
  825SOL     OW 2473   2.092   2.490   0.113
  825SOL    HW1 2474   1.999   2.488   0.150
  825SOL    HW2 2475   2.093   2.451   0.021
  826SOL     OW 2476   2.087   2.137   0.996
  826SOL    HW1 2477   2.122   2.120   1.088
  826SOL    HW2 2478   1.999   2.092   0.984
  827SOL     OW 2479   1.881   2.230   0.647
  827SOL    HW1 2480   1.799   2.273   0.686
  827SOL    HW2 2481   1.853   2.157   0.584
  828SOL     OW 2482   2.997   2.565   0.717
  828SOL    HW1 2483   3.054   2.643   0.692
  828SOL    HW2 2484   2.937   2.591   0.793
  829SOL     OW 2485   2.630   3.006   1.023
  829SOL    HW1 2486   2.552   3.023   1.083
  829SOL    HW2 2487   2.664   3.093   0.987
  830SOL     OW 2488   2.712   2.660   1.823
  830SOL    HW1 2489   2.708   2.736   1.888
  830SOL    HW2 2490   2.734   2.696   1.732
  831SOL     OW 2491   2.547   2.874   0.665
  831SOL    HW1 2492   2.616   2.858   0.735
  831SOL    HW2 2493   2.474   2.931   0.703
  832SOL     OW 2494   2.300   2.254   1.499
  832SOL    HW1 2495   2.382   2.198   1.508
  832SOL    HW2 2496   2.219   2.196   1.503
  833SOL     OW 2497   2.102   2.953   0.886
  833SOL    HW1 2498   2.116   2.869   0.938
  833SOL    HW2 2499   2.047   3.017   0.941
  834SOL     OW 2500   2.468   2.826   0.123
  834SOL    HW1 2501   2.475   2.910   0.069
  834SOL    HW2 2502   2.514   2.839   0.211
  835SOL     OW 2503   1.984   2.505   0.563
  835SOL    HW1 2504   1.939   2.417   0.580
  835SOL    HW2 2505   1.983   2.559   0.647
  836SOL     OW 2506   1.975   2.599   1.597
  836SOL    HW1 2507   2.063   2.586   1.642
  836SOL    HW2 2508   1.962   2.696   1.575
  837SOL     OW 2509   2.475   3.227   0.726
  837SOL    HW1 2510   2.426   3.140   0.735
  837SOL    HW2 2511   2.452   3.270   0.639
  838SOL     OW 2512   2.671   1.866   0.502
  838SOL    HW1 2513   2.711   1.957   0.493
  838SOL    HW2 2514   2.571   1.874   0.508
  839SOL     OW 2515   2.059   2.838   1.264
  839SOL    HW1 2516   2.148   2.793   1.250
  839SOL    HW2 2517   1.986   2.773   1.245
  840SOL     OW 2518   2.179   2.113   1.801
  840SOL    HW1 2519   2.250   2.184   1.807
  840SOL    HW2 2520   2.091   2.152   1.829
  841SOL     OW 2521   2.460   2.591   0.270
  841SOL    HW1 2522   2.484   2.660   0.202
  841SOL    HW2 2523   2.382   2.624   0.324
  842SOL     OW 2524   2.669   2.467   1.465
  842SOL    HW1 2525   2.622   2.464   1.554
  842SOL    HW2 2526   2.618   2.412   1.399
  843SOL     OW 2527   2.835   2.752   1.572
  843SOL    HW1 2528   2.881   2.668   1.543
  843SOL    HW2 2529   2.779   2.786   1.497
  844SOL     OW 2530   2.853   2.272   1.242
  844SOL    HW1 2531   2.776   2.306   1.296
  844SOL    HW2 2532   2.819   2.221   1.163
  845SOL     OW 2533   2.903   2.563   0.429
  845SOL    HW1 2534   2.929   2.559   0.525
  845SOL    HW2 2535   2.818   2.512   0.415
  846SOL     OW 2536   1.938   2.673   0.789
  846SOL    HW1 2537   2.037   2.661   0.798
  846SOL    HW2 2538   1.914   2.768   0.810
  847SOL     OW 2539   2.727   2.210   0.195
  847SOL    HW1 2540   2.786   2.273   0.146
  847SOL    HW2 2541   2.746   2.116   0.166
  848SOL     OW 2542   2.412   2.058   0.885
  848SOL    HW1 2543   2.407   2.053   0.985
  848SOL    HW2 2544   2.414   2.154   0.856
  849SOL     OW 2545   2.183   2.805   0.242
  849SOL    HW1 2546   2.265   2.844   0.200
  849SOL    HW2 2547   2.156   2.723   0.193
  850SOL     OW 2548   2.064   2.147   1.498
  850SOL    HW1 2549   1.984   2.207   1.485
  850SOL    HW2 2550   2.054   2.098   1.584
  851SOL     OW 2551   2.244   2.562   0.480
  851SOL    HW1 2552   2.289   2.472   0.477
  851SOL    HW2 2553   2.150   2.551   0.513
  852SOL     OW 2554   2.476   1.984   0.117
  852SOL    HW1 2555   2.574   1.962   0.124
  852SOL    HW2 2556   2.445   1.967   0.024
  853SOL     OW 2557   2.643   2.126   1.749
  853SOL    HW1 2558   2.710   2.065   1.792
  853SOL    HW2 2559   2.570   2.145   1.814
  854SOL     OW 2560   2.784   2.365   0.899
  854SOL    HW1 2561   2.759   2.356   0.803
  854SOL    HW2 2562   2.832   2.283   0.930
  855SOL     OW 2563   2.401   1.926   0.512
  855SOL    HW1 2564   2.320   1.927   0.570
  855SOL    HW2 2565   2.404   2.009   0.457
  856SOL     OW 2566   2.159   1.897   0.171
  856SOL    HW1 2567   2.208   1.981   0.150
  856SOL    HW2 2568   2.221   1.832   0.216
  857SOL     OW 2569   2.797   2.098   0.480
  857SOL    HW1 2570   2.749   2.139   0.402
  857SOL    HW2 2571   2.896   2.096   0.461
  858SOL     OW 2572   2.938   2.545   1.464
  858SOL    HW1 2573   2.858   2.484   1.467
  858SOL    HW2 2574   3.019   2.492   1.440
  859SOL     OW 2575   2.321   3.014   0.741
  859SOL    HW1 2576   2.250   2.987   0.806
  859SOL    HW2 2577   2.295   2.986   0.648
  860SOL     OW 2578   2.894   2.411   0.016
  860SOL    HW1 2579   2.853   2.493  -0.023
  860SOL    HW2 2580   2.958   2.437   0.089
  861SOL     OW 2581   1.940   2.418   1.386
  861SOL    HW1 2582   2.032   2.417   1.345
  861SOL    HW2 2583   1.934   2.492   1.453
  862SOL     OW 2584   2.423   2.084   1.147
  862SOL    HW1 2585   2.461   2.000   1.184
  862SOL    HW2 2586   2.335   2.103   1.191
  863SOL     OW 2587   2.728   2.316   0.642
  863SOL    HW1 2588   2.696   2.388   0.580
  863SOL    HW2 2589   2.752   2.235   0.589
  864SOL     OW 2590   2.879   1.901   0.753
  864SOL    HW1 2591   2.807   1.906   0.684
  864SOL    HW2 2592   2.855   1.832   0.822
  865SOL     OW 2593   2.389   2.118   0.328
  865SOL    HW1 2594   2.416   2.059   0.253
  865SOL    HW2 2595   2.389   2.213   0.297
  866SOL     OW 2596   2.777   1.951   1.402
  866SOL    HW1 2597   2.802   1.931   1.307
  866SOL    HW2 2598   2.849   2.007   1.444
  867SOL     OW 2599   2.842   2.978   1.719
  867SOL    HW1 2600   2.743   2.984   1.729
  867SOL    HW2 2601   2.865   2.898   1.663
  868SOL     OW 2602   2.567   2.912   0.368
  868SOL    HW1 2603   2.553   2.919   0.467
  868SOL    HW2 2604   2.651   2.861   0.350
  869SOL     OW 2605   2.272   2.675   1.251
  869SOL    HW1 2606   2.358   2.687   1.301
  869SOL    HW2 2607   2.230   2.588   1.278
  870SOL     OW 2608   2.229   2.962   0.501
  870SOL    HW1 2609   2.222   3.045   0.445
  870SOL    HW2 2610   2.233   2.882   0.441
  871SOL     OW 2611   2.428   2.399   0.865
  871SOL    HW1 2612   2.440   2.465   0.791
  871SOL    HW2 2613   2.474   2.433   0.948
  872SOL     OW 2614   2.264   2.613   1.598
  872SOL    HW1 2615   2.332   2.668   1.551
  872SOL    HW2 2616   2.304   2.525   1.625
  873SOL     OW 2617   2.875   1.967   1.770
  873SOL    HW1 2618   2.881   2.052   1.718
  873SOL    HW2 2619   2.907   1.891   1.713
  874SOL     OW 2620   2.366   1.912   1.740
  874SOL    HW1 2621   2.324   1.855   1.670
  874SOL    HW2 2622   2.300   1.981   1.772
  875SOL     OW 2623   2.435   2.732   1.029
  875SOL    HW1 2624   2.479   2.821   1.020
  875SOL    HW2 2625   2.372   2.732   1.106
  876SOL     OW 2626   3.222   2.724   1.045
  876SOL    HW1 2627   3.147   2.724   0.979
  876SOL    HW2 2628   3.259   2.632   1.054
  877SOL     OW 2629   3.071   2.387   0.275
  877SOL    HW1 2630   3.084   2.303   0.329
  877SOL    HW2 2631   3.042   2.461   0.335
  878SOL     OW 2632   2.169   2.075   1.231
  878SOL    HW1 2633   2.146   2.112   1.321
  878SOL    HW2 2634   2.139   1.980   1.225
  879SOL     OW 2635   2.594   2.496   1.064
  879SOL    HW1 2636   2.653   2.470   0.988
  879SOL    HW2 2637   2.566   2.592   1.053
  880SOL     OW 2638   2.169   1.925   0.618
  880SOL    HW1 2639   2.158   2.019   0.651
  880SOL    HW2 2640   2.164   1.862   0.695
  881SOL     OW 2641   2.885   2.628   0.966
  881SOL    HW1 2642   2.900   2.649   1.062
  881SOL    HW2 2643   2.855   2.533   0.957
  882SOL     OW 2644   2.212   2.760   1.804
  882SOL    HW1 2645   2.288   2.804   1.852
  882SOL    HW2 2646   2.247   2.713   1.722
  883SOL     OW 2647   2.181   2.672   0.949
  883SOL    HW1 2648   2.274   2.708   0.954
  883SOL    HW2 2649   2.175   2.587   1.001
  884SOL     OW 2650   2.201   2.371   1.006
  884SOL    HW1 2651   2.149   2.288   0.989
  884SOL    HW2 2652   2.278   2.376   0.942
  885SOL     OW 2653   3.000   2.242   1.678
  885SOL    HW1 2654   2.955   2.305   1.742
  885SOL    HW2 2655   3.093   2.273   1.661
  886SOL     OW 2656   3.022   2.069   1.477
  886SOL    HW1 2657   3.022   2.133   1.554
  886SOL    HW2 2658   3.050   2.117   1.394
  887SOL     OW 2659   2.864   2.658   1.238
  887SOL    HW1 2660   2.905   2.626   1.324
  887SOL    HW2 2661   2.768   2.631   1.235
  888SOL     OW 2662   1.902   2.406   1.114
  888SOL    HW1 2663   1.987   2.373   1.073
  888SOL    HW2 2664   1.915   2.421   1.212
  889SOL     OW 2665   2.051   2.382   1.722
  889SOL    HW1 2666   2.110   2.342   1.652
  889SOL    HW2 2667   1.993   2.453   1.681
  890SOL     OW 2668   2.677   2.434   0.325
  890SOL    HW1 2669   2.684   2.345   0.279
  890SOL    HW2 2670   2.583   2.468   0.317
  891SOL     OW 2671   2.533   2.326   1.269
  891SOL    HW1 2672   2.499   2.237   1.239
  891SOL    HW2 2673   2.559   2.380   1.189
  892SOL     OW 2674   2.335   2.362   0.191
  892SOL    HW1 2675   2.396   2.442   0.195
  892SOL    HW2 2676   2.240   2.393   0.198
  893SOL     OW 2677   2.021   2.999   1.466
  893SOL    HW1 2678   2.043   2.938   1.542
  893SOL    HW2 2679   2.031   2.950   1.380
  894SOL     OW 2680   2.765   1.948   0.133
  894SOL    HW1 2681   2.816   1.949   0.047
  894SOL    HW2 2682   2.821   1.906   0.204
  895SOL     OW 2683   2.125   2.188   0.720
  895SOL    HW1 2684   2.046   2.239   0.686
  895SOL    HW2 2685   2.116   2.173   0.818
  896SOL     OW 2686   2.684   2.864   1.372
  896SOL    HW1 2687   2.724   2.863   1.280
  896SOL    HW2 2688   2.694   2.956   1.412
  897SOL     OW 2689   2.778   2.772   0.291
  897SOL    HW1 2690   2.841   2.810   0.223
  897SOL    HW2 2691   2.818   2.689   0.330
  898SOL     OW 2692   2.234   3.150   1.490
  898SOL    HW1 2693   2.221   3.243   1.456
  898SOL    HW2 2694   2.150   3.098   1.477
  899SOL     OW 2695   2.901   2.960   0.696
  899SOL    HW1 2696   2.831   2.913   0.750
  899SOL    HW2 2697   2.960   2.892   0.653
  900SOL     OW 2698   2.876   2.098   0.971
  900SOL    HW1 2699   2.868   2.062   0.878
  900SOL    HW2 2700   2.874   2.022   1.036
  901SOL     OW 2701   1.967   2.875   1.726
  901SOL    HW1 2702   1.890   2.842   1.780
  901SOL    HW2 2703   2.052   2.845   1.768
  902SOL     OW 2704   2.534   2.065   1.489
  902SOL    HW1 2705   2.624   2.049   1.449
  902SOL    HW2 2706   2.542   2.070   1.588
  903SOL     OW 2707   1.934   2.028   0.318
  903SOL    HW1 2708   1.917   2.111   0.264
  903SOL    HW2 2709   2.024   1.991   0.296
  904SOL     OW 2710   2.475   2.704   1.431
  904SOL    HW1 2711   2.531   2.785   1.414
  904SOL    HW2 2712   2.534   2.624   1.434
  905SOL     OW 2713   2.578   2.427   1.708
  905SOL    HW1 2714   2.597   2.492   1.782
  905SOL    HW2 2715   2.638   2.347   1.717
  906SOL     OW 2716   2.456   2.607   0.652
  906SOL    HW1 2717   2.506   2.692   0.633
  906SOL    HW2 2718   2.368   2.609   0.604
  907SOL     OW 2719   2.721   2.818   0.861
  907SOL    HW1 2720   2.775   2.749   0.909
  907SOL    HW2 2721   2.689   2.887   0.927
  908SOL     OW 2722   2.945   2.846   0.087
  908SOL    HW1 2723   2.922   2.899   0.005
  908SOL    HW2 2724   3.026   2.790   0.068
  909SOL     OW 2725   1.941   3.102   0.653
  909SOL    HW1 2726   1.940   3.055   0.741
  909SOL    HW2 2727   2.023   3.074   0.602
  910SOL     OW 2728   2.290   2.286   0.520
  910SOL    HW1 2729   2.320   2.214   0.458
  910SOL    HW2 2730   2.251   2.246   0.603
  911SOL     OW 2731   2.179   2.409   1.280
  911SOL    HW1 2732   2.217   2.350   1.352
  911SOL    HW2 2733   2.219   2.383   1.192
  912SOL     OW 2734   2.863   1.896   1.154
  912SOL    HW1 2735   2.800   1.824   1.123
  912SOL    HW2 2736   2.956   1.860   1.154
  913SOL     OW 2737   2.632   3.192   0.301
  913SOL    HW1 2738   2.586   3.105   0.318
  913SOL    HW2 2739   2.723   3.189   0.342
  914SOL     OW 2740   3.214   1.914   0.168
  914SOL    HW1 2741   3.249   1.873   0.084
  914SOL    HW2 2742   3.124   1.876   0.188
  915SOL     OW 2743   1.901   2.939   0.300
  915SOL    HW1 2744   2.000   2.928   0.291
  915SOL    HW2 2745   1.861   2.853   0.332
  916SOL     OW 2746   2.092   2.490   1.975
  916SOL    HW1 2747   1.999   2.488   2.012
  916SOL    HW2 2748   2.093   2.451   1.883
  917SOL     OW 2749   2.087   2.137   2.858
  917SOL    HW1 2750   2.122   2.120   2.950
  917SOL    HW2 2751   1.999   2.092   2.846
  918SOL     OW 2752   1.881   2.230   2.509
  918SOL    HW1 2753   1.799   2.273   2.548
  918SOL    HW2 2754   1.853   2.157   2.446
  919SOL     OW 2755   2.997   2.565   2.579
  919SOL    HW1 2756   3.054   2.643   2.554
  919SOL    HW2 2757   2.937   2.591   2.655
  920SOL     OW 2758   2.630   3.006   2.885
  920SOL    HW1 2759   2.552   3.023   2.945
  920SOL    HW2 2760   2.664   3.093   2.849
  921SOL     OW 2761   2.547   2.874   2.527
  921SOL    HW1 2762   2.616   2.858   2.597
  921SOL    HW2 2763   2.474   2.931   2.565
  922SOL     OW 2764   2.102   2.953   2.748
  922SOL    HW1 2765   2.116   2.869   2.800
  922SOL    HW2 2766   2.047   3.017   2.803
  923SOL     OW 2767   2.468   2.826   1.985
  923SOL    HW1 2768   2.475   2.910   1.931
  923SOL    HW2 2769   2.514   2.839   2.073
  924SOL     OW 2770   1.984   2.505   2.425
  924SOL    HW1 2771   1.939   2.417   2.442
  924SOL    HW2 2772   1.983   2.559   2.509
  925SOL     OW 2773   2.475   3.227   2.588
  925SOL    HW1 2774   2.426   3.140   2.597
  925SOL    HW2 2775   2.452   3.270   2.501
  926SOL     OW 2776   2.671   1.866   2.364
  926SOL    HW1 2777   2.711   1.957   2.355
  926SOL    HW2 2778   2.571   1.874   2.370
  927SOL     OW 2779   2.059   2.838   3.126
  927SOL    HW1 2780   2.148   2.793   3.112
  927SOL    HW2 2781   1.986   2.773   3.107
  928SOL     OW 2782   2.460   2.591   2.132
  928SOL    HW1 2783   2.484   2.660   2.064
  928SOL    HW2 2784   2.382   2.624   2.186
  929SOL     OW 2785   2.903   2.563   2.291
  929SOL    HW1 2786   2.929   2.559   2.387
  929SOL    HW2 2787   2.818   2.512   2.277
  930SOL     OW 2788   1.938   2.673   2.651
  930SOL    HW1 2789   2.037   2.661   2.660
  930SOL    HW2 2790   1.914   2.768   2.672
  931SOL     OW 2791   2.727   2.210   2.057
  931SOL    HW1 2792   2.786   2.273   2.008
  931SOL    HW2 2793   2.746   2.116   2.028
  932SOL     OW 2794   2.412   2.058   2.747
  932SOL    HW1 2795   2.407   2.053   2.847
  932SOL    HW2 2796   2.414   2.154   2.718
  933SOL     OW 2797   2.183   2.805   2.104
  933SOL    HW1 2798   2.265   2.844   2.062
  933SOL    HW2 2799   2.156   2.723   2.055
  934SOL     OW 2800   2.244   2.562   2.342
  934SOL    HW1 2801   2.289   2.472   2.339
  934SOL    HW2 2802   2.150   2.551   2.375
  935SOL     OW 2803   2.476   1.984   1.979
  935SOL    HW1 2804   2.574   1.962   1.986
  935SOL    HW2 2805   2.445   1.967   1.886
  936SOL     OW 2806   2.784   2.365   2.761
  936SOL    HW1 2807   2.759   2.356   2.665
  936SOL    HW2 2808   2.832   2.283   2.792
  937SOL     OW 2809   2.401   1.926   2.374
  937SOL    HW1 2810   2.320   1.927   2.432
  937SOL    HW2 2811   2.404   2.009   2.319
  938SOL     OW 2812   2.159   1.897   2.033
  938SOL    HW1 2813   2.208   1.981   2.012
  938SOL    HW2 2814   2.221   1.832   2.078
  939SOL     OW 2815   2.797   2.098   2.342
  939SOL    HW1 2816   2.749   2.139   2.264
  939SOL    HW2 2817   2.896   2.096   2.323
  940SOL     OW 2818   2.321   3.014   2.603
  940SOL    HW1 2819   2.250   2.987   2.668
  940SOL    HW2 2820   2.295   2.986   2.510
  941SOL     OW 2821   2.894   2.411   1.878
  941SOL    HW1 2822   2.853   2.493   1.839
  941SOL    HW2 2823   2.958   2.437   1.951
  942SOL     OW 2824   2.728   2.316   2.504
  942SOL    HW1 2825   2.696   2.388   2.442
  942SOL    HW2 2826   2.752   2.235   2.451
  943SOL     OW 2827   2.879   1.901   2.615
  943SOL    HW1 2828   2.807   1.906   2.546
  943SOL    HW2 2829   2.855   1.832   2.684
  944SOL     OW 2830   2.389   2.118   2.190
  944SOL    HW1 2831   2.416   2.059   2.115
  944SOL    HW2 2832   2.389   2.213   2.159
  945SOL     OW 2833   2.973   3.057   2.962
  945SOL    HW1 2834   2.933   3.101   3.043
  945SOL    HW2 2835   2.932   3.094   2.879
  946SOL     OW 2836   2.567   2.912   2.230
  946SOL    HW1 2837   2.553   2.919   2.329
  946SOL    HW2 2838   2.651   2.861   2.212
  947SOL     OW 2839   2.272   2.675   3.113
  947SOL    HW1 2840   2.358   2.687   3.163
  947SOL    HW2 2841   2.230   2.588   3.140
  948SOL     OW 2842   2.229   2.962   2.363
  948SOL    HW1 2843   2.222   3.045   2.307
  948SOL    HW2 2844   2.233   2.882   2.303
  949SOL     OW 2845   2.428   2.399   2.727
  949SOL    HW1 2846   2.440   2.465   2.653
  949SOL    HW2 2847   2.474   2.433   2.810
  950SOL     OW 2848   2.435   2.732   2.891
  950SOL    HW1 2849   2.479   2.821   2.882
  950SOL    HW2 2850   2.372   2.732   2.968
  951SOL     OW 2851   3.222   2.724   2.907
  951SOL    HW1 2852   3.147   2.724   2.841
  951SOL    HW2 2853   3.259   2.632   2.916
  952SOL     OW 2854   3.071   2.387   2.137
  952SOL    HW1 2855   3.084   2.303   2.191
  952SOL    HW2 2856   3.042   2.461   2.197
  953SOL     OW 2857   2.169   2.075   3.093
  953SOL    HW1 2858   2.146   2.112   3.183
  953SOL    HW2 2859   2.139   1.980   3.087
  954SOL     OW 2860   2.594   2.496   2.926
  954SOL    HW1 2861   2.653   2.470   2.850
  954SOL    HW2 2862   2.566   2.592   2.915
  955SOL     OW 2863   2.169   1.925   2.480
  955SOL    HW1 2864   2.158   2.019   2.513
  955SOL    HW2 2865   2.164   1.862   2.557
  956SOL     OW 2866   2.885   2.628   2.828
  956SOL    HW1 2867   2.900   2.649   2.924
  956SOL    HW2 2868   2.855   2.533   2.819
  957SOL     OW 2869   2.181   2.672   2.811
  957SOL    HW1 2870   2.274   2.708   2.816
  957SOL    HW2 2871   2.175   2.587   2.863
  958SOL     OW 2872   2.201   2.371   2.868
  958SOL    HW1 2873   2.149   2.288   2.851
  958SOL    HW2 2874   2.278   2.376   2.804
  959SOL     OW 2875   2.864   2.658   3.100
  959SOL    HW1 2876   2.905   2.626   3.186
  959SOL    HW2 2877   2.768   2.631   3.097
  960SOL     OW 2878   1.902   2.406   2.976
  960SOL    HW1 2879   1.987   2.373   2.935
  960SOL    HW2 2880   1.915   2.421   3.074
  961SOL     OW 2881   2.677   2.434   2.187
  961SOL    HW1 2882   2.684   2.345   2.141
  961SOL    HW2 2883   2.583   2.468   2.179
  962SOL     OW 2884   2.533   2.326   3.131
  962SOL    HW1 2885   2.499   2.237   3.101
  962SOL    HW2 2886   2.559   2.380   3.051
  963SOL     OW 2887   2.335   2.362   2.053
  963SOL    HW1 2888   2.396   2.442   2.057
  963SOL    HW2 2889   2.240   2.393   2.060
  964SOL     OW 2890   2.125   2.188   2.582
  964SOL    HW1 2891   2.046   2.239   2.548
  964SOL    HW2 2892   2.116   2.173   2.680
  965SOL     OW 2893   2.684   2.864   3.234
  965SOL    HW1 2894   2.724   2.863   3.142
  965SOL    HW2 2895   2.694   2.956   3.274
  966SOL     OW 2896   2.778   2.772   2.153
  966SOL    HW1 2897   2.841   2.810   2.085
  966SOL    HW2 2898   2.818   2.689   2.192
  967SOL     OW 2899   2.901   2.960   2.558
  967SOL    HW1 2900   2.831   2.913   2.612
  967SOL    HW2 2901   2.960   2.892   2.515
  968SOL     OW 2902   2.876   2.098   2.833
  968SOL    HW1 2903   2.868   2.062   2.740
  968SOL    HW2 2904   2.874   2.022   2.898
  969SOL     OW 2905   1.937   2.207   1.895
  969SOL    HW1 2906   1.845   2.179   1.866
  969SOL    HW2 2907   1.968   2.284   1.839
  970SOL     OW 2908   1.934   2.028   2.180
  970SOL    HW1 2909   1.917   2.111   2.126
  970SOL    HW2 2910   2.024   1.991   2.158
  971SOL     OW 2911   2.456   2.607   2.514
  971SOL    HW1 2912   2.506   2.692   2.495
  971SOL    HW2 2913   2.368   2.609   2.466
  972SOL     OW 2914   2.721   2.818   2.723
  972SOL    HW1 2915   2.775   2.749   2.771
  972SOL    HW2 2916   2.689   2.887   2.789
  973SOL     OW 2917   2.945   2.846   1.949
  973SOL    HW1 2918   2.922   2.899   1.867
  973SOL    HW2 2919   3.026   2.790   1.930
  974SOL     OW 2920   1.941   3.102   2.515
  974SOL    HW1 2921   1.940   3.055   2.603
  974SOL    HW2 2922   2.023   3.074   2.464
  975SOL     OW 2923   2.290   2.286   2.382
  975SOL    HW1 2924   2.320   2.214   2.320
  975SOL    HW2 2925   2.251   2.246   2.465
  976SOL     OW 2926   2.632   3.192   2.163
  976SOL    HW1 2927   2.586   3.105   2.180
  976SOL    HW2 2928   2.723   3.189   2.204
  977SOL     OW 2929   1.901   2.939   2.162
  977SOL    HW1 2930   2.000   2.928   2.153
  977SOL    HW2 2931   1.861   2.853   2.194
   3.10000   3.10000   3.10000
