1000 SPC/Fw water molecules
3000
    1SOL  OW       1   1.366   2.475   2.286 -0.1654 -0.4803  0.0695
    1SOL  HW1      2   1.382   2.470   2.387 -1.8473 -1.7912  0.8852
    1SOL  HW2      3   1.297   2.543   2.252 -0.8211  1.3394 -0.5144
    2SOL  OW       4   1.393   0.249   1.553  0.2423 -0.1166  1.4180
    2SOL  HW1      5   1.322   0.322   1.555 -3.5381 -2.2761 -0.1677
    2SOL  HW2      6   1.484   0.283   1.530 -0.5227  0.7773 -0.2437
    3SOL  OW       7   0.692   1.197   3.060  0.0238 -0.5115  0.4347
    3SOL  HW1      8   0.677   1.171   2.965  1.8016 -0.4396  0.7634
    3SOL  HW2      9   0.652   1.124   0.020 -1.3605  1.3380 -0.4476
    4SOL  OW      10   1.865   1.442   2.351  0.1317  0.2007  0.2380
    4SOL  HW1     11   1.927   1.430   2.432 -0.5283 -0.3128 -0.2525
    4SOL  HW2     12   1.904   1.398   2.267 -1.7342  3.1151 -1.1021
    5SOL  OW      13   1.794   0.972   1.600 -0.6639 -0.6412 -0.0635
    5SOL  HW1     14   1.888   0.968   1.643 -1.0723 -1.8783 -0.9916
    5SOL  HW2     15   1.783   0.888   1.536  4.5051  0.7768  1.5368
    6SOL  OW      16   2.844   1.257   2.707 -0.1860 -0.3286  0.0384
    6SOL  HW1     17   2.759   1.320   2.711 -3.1344  1.5050  1.1744
    6SOL  HW2     18   2.896   1.286   2.621 -2.4191 -0.4903  2.9987
    7SOL  OW      19   2.636   1.310   1.861  0.4322  0.0726 -0.6466
    7SOL  HW1     20   2.730   1.273   1.879 -2.7363  0.0840 -1.8437
    7SOL  HW2     21   2.620   1.401   1.903 -1.4961 -0.5737  1.7101
    8SOL  OW      22   2.684   2.759   0.011 -0.0234  0.2081  0.1266
    8SOL  HW1     23   2.703   2.860   0.010  0.1105 -0.8454  2.5844
    8SOL  HW2     24   2.587   2.746   3.069  0.7188 -2.0310  1.4763
    9SOL  OW      25   1.180   1.999   0.631  0.2461 -0.1965  0.1913
    9SOL  HW1     26   1.185   1.898   0.605  1.2172 -0.7717  2.4484
    9SOL  HW2     27   1.134   2.017   0.720 -0.0774 -0.3029 -0.8138
   10SOL  OW      28   2.987   2.140   0.494 -0.1365 -0.1710  0.6855
   10SOL  HW1     29   2.985   2.158   0.394 -2.1056 -0.7676 -0.6272
   10SOL  HW2     30   3.035   2.054   0.519 -1.0723 -0.7483 -2.2087
   11SOL  OW      31   0.327   1.078   3.014 -0.5389 -0.1623  0.3545
   11SOL  HW1     32   0.327   1.154   3.082 -0.6524  1.2685 -2.1910
   11SOL  HW2     33   0.414   1.028   3.011  1.4452 -0.4383 -0.4573
   12SOL  OW      34   2.990   2.320   0.712  0.2685  0.4542 -0.1418
   12SOL  HW1     35   2.970   2.251   0.637  1.1721  1.0574  0.0146
   12SOL  HW2     36   3.058   2.389   0.681 -0.4267 -2.1071  0.5640
   13SOL  OW      37   2.995   0.415   2.510 -0.9107 -0.4975 -0.1186
   13SOL  HW1     38   3.064   0.363   2.575 -2.8517  1.9092  1.5549
   13SOL  HW2     39   2.997   0.513   2.513 -0.1311  1.2715 -0.4712
   14SOL  OW      40   1.678   0.263   1.851  0.3163 -0.2684  0.0690
   14SOL  HW1     41   1.668   0.310   1.940  0.2053 -0.1151  1.1260
   14SOL  HW2     42   1.714   0.323   1.779 -0.1565 -0.4038  0.7228
   15SOL  OW      43   0.479   2.558   2.798  0.1585 -0.2190 -0.2083
   15SOL  HW1     44   0.479   2.634   2.728  1.7984 -0.5536  0.7669
   15SOL  HW2     45   0.415   2.487   2.761 -2.1769 -0.4526 -2.5452
   16SOL  OW      46   1.742   0.697   2.761  0.0398  0.8685  0.1819
   16SOL  HW1     47   1.806   0.654   2.821  0.5955 -2.1136 -1.2347
   16SOL  HW2     48   1.647   0.682   2.796  0.7081  0.9141  0.6573
   17SOL  OW      49   0.230   0.417   1.563 -0.6319  0.1938 -0.3842
   17SOL  HW1     50   0.239   0.325   1.521 -1.7762  1.6319 -1.6159
   17SOL  HW2     51   0.289   0.490   1.513  1.2915  1.2020  3.1420
   18SOL  OW      52   1.294   0.961   2.626  0.1319 -0.0944  0.5100
   18SOL  HW1     53   1.226   1.028   2.662  0.4708  1.6294  1.4409
   18SOL  HW2     54   1.308   0.975   2.528  3.4711  2.8384  1.0510
   19SOL  OW      55   0.071   1.672   1.530 -0.3874 -0.2040 -0.0467
   19SOL  HW1     56   0.067   1.650   1.428  0.0094  1.1491 -1.5763
   19SOL  HW2     57   3.076   1.648   1.575  2.7833  1.0771 -1.5388
   20SOL  OW      58   1.517   2.594   2.769  0.2165  0.3120 -0.6126
   20SOL  HW1     59   1.593   2.600   2.696 -2.9103 -0.0733 -1.3568
   20SOL  HW2     60   1.473   2.685   2.784 -0.2774  0.7352 -2.4067
   21SOL  OW      61   1.613   1.447   1.540  0.7643  0.8692 -0.3205
   21SOL  HW1     62   1.533   1.424   1.478 -3.3281  0.0369  0.0474
   21SOL  HW2     63   1.697   1.477   1.489 -0.1076  0.5466 -0.3440
   22SOL  OW      64   1.567   2.640   1.646  0.1783 -0.4286 -0.1553
   22SOL  HW1     65   1.641   2.597   1.703 -0.7721 -0.4308 -0.8193
   22SOL  HW2     66   1.556   2.735   1.668  0.6508 -3.0008  0.2948
   23SOL  OW      67   2.189   1.721   0.863  0.0203  0.4794 -0.0484
   23SOL  HW1     68   2.160   1.736   0.766 -0.0881  1.1683 -0.4684
   23SOL  HW2     69   2.146   1.635   0.898 -0.2198  0.0222 -0.3833
   24SOL  OW      70   1.662   0.770   1.407  0.1589  0.4449  0.3403
   24SOL  HW1     71   1.653   0.690   1.479 -3.0939 -0.7305 -3.0209
   24SOL  HW2     72   1.698   0.733   1.313  0.7126  0.0253 -0.9936
   25SOL  OW      73   1.092   2.168   1.511  0.2148 -0.1107  0.4954
   25SOL  HW1     74   1.131   2.157   1.605 -2.0289 -0.6066 -1.6847
   25SOL  HW2     75   1.091   2.077   1.466 -1.1525 -3.2813  2.2881
   26SOL  OW      76   0.561   0.388   0.183 -0.7131  0.2232  0.2501
   26SOL  HW1     77   0.561   0.344   0.090  1.9273  3.2151  0.3290
   26SOL  HW2     78   0.481   0.362   0.242  1.1877  1.3938 -0.1929
   27SOL  OW      79   0.300   0.745   1.118  0.0201 -0.3062  0.2137
   27SOL  HW1     80   0.263   0.763   1.207 -1.7245  0.6776  2.2811
   27SOL  HW2     81   0.257   0.804   1.057  0.8985 -0.7289  1.7079
   28SOL  OW      82   2.445   1.869   1.271  0.1745 -0.1927 -0.5561
   28SOL  HW1     83   2.366   1.867   1.206 -1.8734  0.3028 -3.4183
   28SOL  HW2     84   2.436   1.799   1.349 -1.1529 -1.0713  1.0811
   29SOL  OW      85   1.844   2.096   2.495  0.0107  0.8858 -0.0610
   29SOL  HW1     86   1.934   2.060   2.504  2.2928 -1.3724 -0.7903
   29SOL  HW2     87   1.782   2.056   2.561 -1.4288 -1.1735 -2.7056
   30SOL  OW      88   0.091   2.989   1.194  0.4646 -0.7645  0.4210
   30SOL  HW1     89   0.025   2.990   1.270  1.2224  0.1853  0.5612
   30SOL  HW2     90   0.037   3.004   1.110  1.9273  0.4262 -0.6459
   31SOL  OW      91   2.566   1.667   2.209  0.2193  0.0521 -0.4502
   31SOL  HW1     92   2.645   1.689   2.264  0.7335  0.2103 -1.7268
   31SOL  HW2     93   2.513   1.591   2.250  3.0376  0.1792 -1.4215
   32SOL  OW      94   1.464   0.093   1.773 -0.5492  0.1313 -0.1362
   32SOL  HW1     95   1.445   0.162   1.702 -0.5513 -1.8098  0.7121
   32SOL  HW2     96   1.541   0.124   1.830  0.4363 -1.8231  1.0934
   33SOL  OW      97   0.265   1.176   2.738 -0.3159  0.3489 -0.1030
   33SOL  HW1     98   0.168   1.201   2.740  0.8702  0.1766  0.9108
   33SOL  HW2     99   0.282   1.111   2.816 -0.6943 -1.2991  1.8852
   34SOL  OW     100   2.181   2.672   2.816  0.2392  0.0487  0.1839
   34SOL  HW1    101   2.163   2.761   2.853 -3.8171 -0.1660  0.9666
   34SOL  HW2    102   2.222   2.609   2.886 -2.5756  2.6334  0.9508
   35SOL  OW     103   0.252   2.903   1.402 -0.0266 -0.1169 -0.3504
   35SOL  HW1    104   0.204   2.943   1.319  0.9664  1.3002  0.4694
   35SOL  HW2    105   0.348   2.925   1.413  2.3694 -0.2170  1.8056
   36SOL  OW     106   2.378   2.600   2.647 -0.6092 -0.6448  0.0228
   36SOL  HW1    107   2.404   2.664   2.573  2.3175 -0.6095 -1.9238
   36SOL  HW2    108   2.303   2.635   2.704 -3.1590 -0.2431  0.0781
   37SOL  OW     109   1.731   2.186   2.887 -0.1196  0.1098  0.4346
   37SOL  HW1    110   1.688   2.096   2.897  0.9719  1.1740 -0.4634
   37SOL  HW2    111   1.664   2.263   2.896 -2.1812 -2.6913 -0.9579
   38SOL  OW     112   0.542   0.122   1.483 -0.0334  0.6616 -0.3281
   38SOL  HW1    113   0.573   0.175   1.400  1.5781 -1.3207  1.0410
   38SOL  HW2    114   0.539   0.190   1.568  1.9490 -0.3682  0.8188
   39SOL  OW     115   1.508   1.717   2.564  0.4526 -0.3021 -0.0340
   39SOL  HW1    116   1.432   1.720   2.498 -0.2488  1.5240  0.0081
   39SOL  HW2    117   1.552   1.622   2.567 -2.6745  0.7795  0.0354
   40SOL  OW     118   0.677   1.189   0.804  0.1096  0.1537 -0.2216
   40SOL  HW1    119   0.774   1.213   0.826  1.1040 -1.9616  1.0227
   40SOL  HW2    120   0.610   1.243   0.859 -2.0289  0.5277 -1.1810
   41SOL  OW     121   2.452   3.071   2.337  0.1746  0.0457  0.0410
   41SOL  HW1    122   2.517   3.066   2.415  0.4083 -0.5683 -0.8580
   41SOL  HW2    123   2.414   0.071   2.324 -0.0842  0.1332  0.1197
   42SOL  OW     124   2.364   0.332   1.399  0.6520 -0.0060 -0.6433
   42SOL  HW1    125   2.444   0.394   1.415  2.3005  3.2602 -0.1476
   42SOL  HW2    126   2.305   0.359   1.320 -1.6479  1.1002  2.1672
   43SOL  OW     127   1.560   2.921   1.651 -0.3794  0.0340 -0.3516
   43SOL  HW1    128   1.507   3.008   1.671 -0.1296  1.5545  2.2763
   43SOL  HW2    129   1.663   2.930   1.654  1.7424 -0.4183  0.3530
   44SOL  OW     130   0.387   0.694   0.181  1.3619 -0.0910  0.1796
   44SOL  HW1    131   0.471   0.666   0.235 -0.5260 -0.9210  1.2506
   44SOL  HW2    132   0.328   0.756   0.237  0.7276  0.5702  0.2859
   45SOL  OW     133   0.883   1.561   1.787  0.3071  0.4708 -0.8378
   45SOL  HW1    134   0.796   1.587   1.747 -1.1563  1.7568  0.1885
   45SOL  HW2    135   0.951   1.637   1.768 -0.8672 -2.0638  0.9251
   46SOL  OW     136   0.072   2.488   1.672 -0.4152  0.2919 -0.6604
   46SOL  HW1    137   3.084   2.477   1.729  2.1782  1.4293  0.0031
   46SOL  HW2    138   0.154   2.441   1.710  1.8470  2.9100 -2.8363
   47SOL  OW     139   1.268   1.730   1.575 -0.4036 -0.0425 -0.9211
   47SOL  HW1    140   1.249   1.643   1.524 -0.6189  0.5566  1.0604
   47SOL  HW2    141   1.318   1.794   1.515  0.1224  1.9127 -0.2075
   48SOL  OW     142   1.694   2.877   2.882 -0.4690  0.0309 -0.0487
   48SOL  HW1    143   1.706   2.947   2.957  2.1858 -0.8591 -1.5185
   48SOL  HW2    144   1.703   2.783   2.920 -0.3337  0.3269  1.1683
   49SOL  OW     145   1.811   1.659   1.694  0.1424  0.2405  0.2533
   49SOL  HW1    146   1.840   1.564   1.684  2.7167 -0.6840  1.9667
   49SOL  HW2    147   1.845   1.694   1.785  0.7554 -0.1347  2.1157
   50SOL  OW     148   0.854   0.369   0.557 -0.0601  0.2487 -0.0206
   50SOL  HW1    149   0.878   0.448   0.495  0.6367  2.2045  0.4851
   50SOL  HW2    150   0.932   0.303   0.564  0.8809  1.8968  0.0356
   51SOL  OW     151   1.439   2.350   0.216 -0.7339  0.4965  0.0536
   51SOL  HW1    152   1.467   2.252   0.206  0.5795  2.8158 -1.5170
   51SOL  HW2    153   1.343   2.355   0.249 -2.2778  2.1506  2.5594
   52SOL  OW     154   0.546   0.946   0.828  0.3361 -0.3096 -0.1480
   52SOL  HW1    155   0.599   1.030   0.816  2.2782  2.3230  0.2453
   52SOL  HW2    156   0.461   0.950   0.768  0.3432  1.0496  0.5723
   53SOL  OW     157   1.271   0.294   2.581 -0.1426 -0.0032 -0.3766
   53SOL  HW1    158   1.336   0.372   2.592 -0.3960 -1.0728 -0.4386
   53SOL  HW2    159   1.303   0.223   2.521  2.5361  1.4141  0.0390
   54SOL  OW     160   2.074   0.936   1.326  0.0192 -0.0877  0.1446
   54SOL  HW1    161   2.052   0.906   1.234 -0.6874 -0.1556 -0.2676
   54SOL  HW2    162   2.135   0.864   1.366 -2.9129 -1.2839 -0.4233
   55SOL  OW     163   2.195   3.092   3.081  0.0230  0.0685 -0.2522
   55SOL  HW1    164   2.291   3.066   3.086 -0.1296 -0.2774  0.8033
   55SOL  HW2    165   2.163   0.013   0.082 -0.9441 -1.2220 -0.7585
   56SOL  OW     166   1.284   0.802   1.980  0.2123  0.2847 -0.1004
   56SOL  HW1    167   1.360   0.802   2.042  0.8573 -3.8977 -1.3057
   56SOL  HW2    168   1.293   0.870   1.909  1.3865 -0.3234 -1.4834
   57SOL  OW     169   2.234   0.661   2.981  0.0370  0.2367  0.0061
   57SOL  HW1    170   2.146   0.683   3.034 -1.5654 -2.7420 -1.5369
   57SOL  HW2    171   2.211   0.578   2.919 -0.1132  0.8342 -2.8620
   58SOL  OW     172   0.512   3.071   2.226  0.2491 -0.5045  0.5488
   58SOL  HW1    173   0.493   0.026   2.311  0.3608 -0.5167  0.7729
   58SOL  HW2    174   0.563   0.028   2.157  1.9253  0.3668  1.7066
   59SOL  OW     175   0.916   2.668   1.993  0.2290  0.2824 -0.0777
   59SOL  HW1    176   0.859   2.588   1.967  0.0246  3.6468  1.4124
   59SOL  HW2    177   0.862   2.735   2.044 -2.4332  2.1025  1.2236
   60SOL  OW     178   2.408   2.173   2.739  0.3677  0.0854  0.3028
   60SOL  HW1    179   2.453   2.253   2.785  0.8990 -1.0281  1.1917
   60SOL  HW2    180   2.468   2.122   2.669  0.5553 -0.6941 -0.6025
   61SOL  OW     181   0.835   1.740   0.683  0.4680 -0.3528  0.0502
   61SOL  HW1    182   0.807   1.658   0.632 -2.0372  0.6021  1.1241
   61SOL  HW2    183   0.838   1.820   0.618 -1.8512  0.1238 -2.0548
   62SOL  OW     184   1.785   0.310   0.108  0.0799 -0.0476  0.0811
   62SOL  HW1    185   1.687   0.323   0.125  0.7110  1.4228 -1.7078
   62SOL  HW2    186   1.805   0.267   0.017  0.8851  2.7382  2.1455
   63SOL  OW     187   1.655   0.505   0.707  0.6926 -0.1452  0.4737
   63SOL  HW1    188   1.692   0.597   0.712 -0.4575 -0.1316  0.4621
   63SOL  HW2    189   1.614   0.470   0.794 -4.6272  0.2585  0.7255
   64SOL  OW     190   1.731   0.960   2.849  0.5669  0.1775 -0.2852
   64SOL  HW1    191   1.634   0.975   2.859  0.7470  2.1744 -3.0075
   64SOL  HW2    192   1.752   0.867   2.812  1.0675  2.5261 -0.4016
   65SOL  OW     193   0.042   1.533   2.236 -0.3096 -0.2570 -0.2726
   65SOL  HW1    194   0.023   1.551   2.335  0.2492  0.5851  0.7729
   65SOL  HW2    195   3.050   1.545   2.184  1.6631 -1.4739  1.5636
   66SOL  OW     196   0.343   1.224   1.553  0.4988 -0.4326 -0.3875
   66SOL  HW1    197   0.350   1.294   1.478 -3.2723 -0.4779  0.1305
   66SOL  HW2    198   0.271   1.250   1.621 -0.3189 -0.9435 -0.1829
   67SOL  OW     199   1.969   1.975   0.941 -0.2295 -0.4052  0.4837
   67SOL  HW1    200   1.950   1.964   1.042  1.2181 -0.4087 -1.0039
   67SOL  HW2    201   1.917   1.917   0.879  0.5511 -0.8600  0.3450
   68SOL  OW     202   1.893   2.192   0.459  0.1922 -0.1869 -0.2269
   68SOL  HW1    203   1.910   2.219   0.360 -2.6565 -3.4675 -0.7483
   68SOL  HW2    204   1.948   2.246   0.524 -2.1455  0.1277  0.2754
   69SOL  OW     205   2.435   0.792   0.691  0.1375  0.1343  0.7067
   69SOL  HW1    206   2.384   0.713   0.729  1.7089  0.1269 -1.9836
   69SOL  HW2    207   2.476   0.844   0.769 -0.7047  0.6278 -1.9003
   70SOL  OW     208   2.764   0.490   1.090 -0.3382  0.0568  0.1120
   70SOL  HW1    209   2.854   0.443   1.097  0.2092  1.3504  0.0494
   70SOL  HW2    210   2.696   0.414   1.077  0.2133  1.1103  1.6251
   71SOL  OW     211   0.290   2.192   0.378 -0.0502  0.3389  0.6913
   71SOL  HW1    212   0.254   2.112   0.428  0.8730  2.4030  0.0264
   71SOL  HW2    213   0.369   2.166   0.315  1.6409 -0.1932 -0.3979
   72SOL  OW     214   2.554   1.812   3.083  0.2072  0.2994 -0.3789
   72SOL  HW1    215   2.647   1.788   0.025  0.9866  1.1934 -1.3816
   72SOL  HW2    216   2.536   1.913   3.079  2.9231  0.3338 -0.1968
   73SOL  OW     217   0.492   0.987   0.342 -0.1104  0.2550  0.6646
   73SOL  HW1    218   0.392   0.972   0.354  0.4065 -2.0227 -0.8511
   73SOL  HW2    219   0.542   0.918   0.400  0.6748 -1.0470  2.7028
   74SOL  OW     220   0.343   1.700   2.595  0.0877 -0.1679  0.2750
   74SOL  HW1    221   0.348   1.734   2.501  1.5934  1.3281  1.8748
   74SOL  HW2    222   0.432   1.715   2.643  1.3156 -2.9685 -0.0717
   75SOL  OW     223   1.885   2.290   1.348 -0.3758  0.6795 -0.3137
   75SOL  HW1    224   1.858   2.208   1.402  0.3933 -1.0497 -1.3203
   75SOL  HW2    225   1.945   2.261   1.270  0.7549  2.9953  1.3663
   76SOL  OW     226   0.874   1.768   1.463 -0.1957 -0.5157  0.5598
   76SOL  HW1    227   0.814   1.849   1.454  1.4949 -1.7737 -2.4276
   76SOL  HW2    228   0.826   1.679   1.444  2.5935 -0.9703  0.6070
   77SOL  OW     229   1.579   0.761   0.995 -0.2049  0.7382  0.1505
   77SOL  HW1    230   1.509   0.687   0.990  0.3018  1.7515  1.9286
   77SOL  HW2    231   1.615   0.781   0.900 -0.8504 -0.6239  1.0686
   78SOL  OW     232   1.858   0.164   0.770 -0.3164  0.1575 -0.4035
   78SOL  HW1    233   1.838   0.173   0.871 -0.3965  0.3973  2.9439
   78SOL  HW2    234   1.883   0.253   0.731 -0.1316  3.6895  0.9903
   79SOL  OW     235   1.309   2.683   1.518 -0.1515  0.3914 -0.5564
   79SOL  HW1    236   1.412   2.669   1.523 -2.1026 -0.8334  1.4990
   79SOL  HW2    237   1.266   2.633   1.443  0.0905 -2.0260 -0.7954
   80SOL  OW     238   0.676   0.983   2.344 -0.8918 -0.2054  0.3595
   80SOL  HW1    239   0.694   0.931   2.255 -0.2028 -1.3562 -0.0411
   80SOL  HW2    240   0.673   1.077   2.317  0.3566 -0.2916 -0.2371
   81SOL  OW     241   0.604   0.255   0.549  0.1337  0.3530  0.3832
   81SOL  HW1    242   0.694   0.296   0.536 -0.3218  2.2972  4.4855
   81SOL  HW2    243   0.605   0.200   0.636 -0.6098  0.6940 -1.8969
   82SOL  OW     244   1.093   0.343   1.877 -0.3003 -0.5613 -0.6005
   82SOL  HW1    245   1.172   0.409   1.890  0.5154 -3.0534  0.8690
   82SOL  HW2    246   1.040   0.361   1.789  0.9242 -2.0536  0.9073
   83SOL  OW     247   2.793   2.834   1.436 -0.0075  0.2904 -0.2939
   83SOL  HW1    248   2.834   2.754   1.391 -1.2702 -2.0760 -0.0076
   83SOL  HW2    249   2.730   2.881   1.371  1.6214 -0.6845 -1.9198
   84SOL  OW     250   1.717   1.080   0.813  0.1460  0.3389 -0.0541
   84SOL  HW1    251   1.755   1.043   0.904 -2.7727  0.1613 -1.7658
   84SOL  HW2    252   1.615   1.070   0.794 -2.0444  1.1576 -0.0317
   85SOL  OW     253   1.814   2.761   1.322 -0.0904  0.4387  0.2092
   85SOL  HW1    254   1.745   2.827   1.359  2.7450  0.4557 -1.1067
   85SOL  HW2    255   1.906   2.804   1.308  0.3292 -1.2650 -2.0174
   86SOL  OW     256   1.431   2.036   2.101  0.2963  0.2419  0.1052
   86SOL  HW1    257   1.500   1.977   2.144 -0.0861  3.1689  0.2026
   86SOL  HW2    258   1.344   1.986   2.109 -0.3529 -3.3074  2.0659
   87SOL  OW     259   1.406   0.955   1.118 -0.2971 -0.4294 -0.3709
   87SOL  HW1    260   1.467   0.891   1.067 -0.4137  2.5107  1.0799
   87SOL  HW2    261   1.334   0.992   1.060  1.4933 -0.7660 -0.8458
   88SOL  OW     262   3.002   0.319   1.186  0.9093  0.5138  0.2069
   88SOL  HW1    263   2.938   0.242   1.200  0.8161  1.5717  1.0254
   88SOL  HW2    264   3.024   0.370   1.279  1.0761  1.0789 -1.0395
   89SOL  OW     265   2.960   1.795   2.092 -0.1264 -0.0201  0.1360
   89SOL  HW1    266   2.950   1.703   2.051  1.1807  1.3090  0.1429
   89SOL  HW2    267   3.059   1.818   2.080 -1.2893  0.8130 -2.1257
   90SOL  OW     268   2.960   3.072   2.985 -0.3342 -0.2033  0.1972
   90SOL  HW1    269   3.021   3.021   3.054  1.4290 -0.3153  0.2926
   90SOL  HW2    270   2.956   3.026   2.894 -3.6036 -0.4726 -0.9458
   91SOL  OW     271   0.249   0.714   0.564 -0.0095 -0.0360  0.0881
   91SOL  HW1    272   0.309   0.635   0.589 -1.2616 -0.1284  0.9962
   91SOL  HW2    273   0.151   0.689   0.574  0.6799 -0.9386  0.5386
   92SOL  OW     274   2.842   2.725   1.678  0.4097 -0.0686 -0.0593
   92SOL  HW1    275   2.815   2.769   1.588  0.5207  0.6660 -2.1661
   92SOL  HW2    276   2.761   2.743   1.738 -1.5627 -0.3935 -1.5439
   93SOL  OW     277   0.072   2.102   0.025 -0.1201  0.0039 -0.1021
   93SOL  HW1    278   0.111   2.185   3.083  0.9992 -1.8997  0.7904
   93SOL  HW2    279   0.007   2.060   3.056  1.8576  0.8155  1.7456
   94SOL  OW     280   2.049   2.913   1.299  0.3129  0.6891  0.4775
   94SOL  HW1    281   2.121   2.964   1.358 -0.6864  0.3185 -1.6966
   94SOL  HW2    282   2.096   2.889   1.214  2.1928  2.4947  1.5032
   95SOL  OW     283   2.043   0.374   1.811  0.3877  0.4449  0.3481
   95SOL  HW1    284   2.035   0.400   1.910 -1.1406 -0.7289 -1.3742
   95SOL  HW2    285   2.144   0.365   1.779  2.5512 -0.1713 -0.0990
   96SOL  OW     286   1.469   0.881   2.151 -0.4470  0.4054  0.1044
   96SOL  HW1    287   1.541   0.834   2.209 -0.8054 -0.1054  0.3423
   96SOL  HW2    288   1.512   0.967   2.113  2.3739 -1.4679 -1.0107
   97SOL  OW     289   2.609   2.942   1.258  0.2248  0.0258  0.2118
   97SOL  HW1    290   2.561   3.033   1.271  0.8264  2.2951 -4.4922
   97SOL  HW2    291   2.662   2.943   1.172  1.3776 -2.3520 -0.7954
   98SOL  OW     292   0.862   2.305   2.177  0.5711 -0.2891 -0.7302
   98SOL  HW1    293   0.964   2.302   2.189  0.6958 -4.1217 -2.1985
   98SOL  HW2    294   0.838   2.358   2.093  1.7998  0.4580 -0.3292
   99SOL  OW     295   0.575   1.187   1.690  0.1264 -0.5615 -0.3056
   99SOL  HW1    296   0.491   1.227   1.644 -0.1033 -2.2782 -0.5154
   99SOL  HW2    297   0.629   1.127   1.624 -2.0017 -1.9114  0.4344
  100SOL  OW     298   2.930   1.755   2.565 -0.6181  0.1411 -0.1110
  100SOL  HW1    299   2.863   1.728   2.637 -3.1122 -0.1272  2.0011
  100SOL  HW2    300   3.017   1.790   2.604 -1.6244 -2.5504 -1.4872
  101SOL  OW     301   0.352   0.364   2.586  0.6269 -0.3563  0.2172
  101SOL  HW1    302   0.413   0.396   2.659 -1.1485 -0.7780  0.9862
  101SOL  HW2    303   0.341   0.430   2.508 -0.9289 -2.4394 -3.0976
  102SOL  OW     304   0.399   0.510   0.756  0.2193  0.0308  0.4978
  102SOL  HW1    305   0.387   0.421   0.712  3.2027 -1.1763  0.1854
  102SOL  HW2    306   0.350   0.523   0.842 -0.1197 -2.0673 -1.1242
  103SOL  OW     307   2.377   0.051   1.766  0.0382 -0.3795  0.1213
  103SOL  HW1    308   2.460   3.086   1.770  0.9860  0.1178  2.1798
  103SOL  HW2    309   2.348   0.071   1.861 -1.3717 -0.4436  0.8835
  104SOL  OW     310   0.384   2.747   1.821  0.1101 -1.0485 -0.3410
  104SOL  HW1    311   0.321   2.743   1.743  1.6576 -2.8281 -1.4708
  104SOL  HW2    312   0.363   2.669   1.885 -0.5258  0.1795  2.5387
  105SOL  OW     313   0.762   2.386   2.410 -0.1448  0.4093  0.0032
  105SOL  HW1    314   0.659   2.383   2.402 -0.3729 -0.0859  0.6329
  105SOL  HW2    315   0.807   2.356   2.326  0.4725  1.6771  1.4016
  106SOL  OW     316   2.949   2.807   0.295  0.1363 -0.1637  0.0807
  106SOL  HW1    317   2.989   2.852   0.213 -0.4182  0.6377  0.5860
  106SOL  HW2    318   2.847   2.822   0.309 -3.6168 -0.7649  0.9294
  107SOL  OW     319   0.745   1.261   1.327 -0.2297 -0.5457  0.2399
  107SOL  HW1    320   0.844   1.236   1.329 -0.2031  1.1137 -1.7720
  107SOL  HW2    321   0.688   1.185   1.305  3.0407 -0.1866 -0.1711
  108SOL  OW     322   2.325   1.476   1.837  0.0518 -0.3313 -0.2912
  108SOL  HW1    323   2.257   1.555   1.832  0.1531  1.5619 -2.8820
  108SOL  HW2    324   2.407   1.504   1.888  0.5187 -1.4133 -2.2846
  109SOL  OW     325   1.884   2.486   2.949 -0.8174 -0.2859 -0.5731
  109SOL  HW1    326   1.787   2.461   2.967 -1.1516 -1.0710  0.2810
  109SOL  HW2    327   1.939   2.414   2.898 -1.5319  0.4215 -0.7919
  110SOL  OW     328   3.030   1.967   0.812 -0.2784  0.3702 -0.6035
  110SOL  HW1    329   3.001   1.987   0.909  0.8601  1.0228  1.3233
  110SOL  HW2    330   2.956   2.006   0.757  1.1778  0.9275  2.4468
  111SOL  OW     331   0.010   1.311   2.803 -0.4012 -0.5908  0.4947
  111SOL  HW1    332   0.013   1.407   2.842  0.1248  1.6152 -2.4021
  111SOL  HW2    333   3.013   1.288   2.764 -3.4647  2.9434  1.4171
  112SOL  OW     334   0.212   0.171   1.440 -0.0783 -0.1771  0.5817
  112SOL  HW1    335   0.128   0.137   1.480 -0.9499  0.7538 -1.4623
  112SOL  HW2    336   0.289   0.109   1.451 -1.9809 -1.0680 -1.5396
  113SOL  OW     337   2.972   2.523   0.372  0.2290  0.3406 -0.1272
  113SOL  HW1    338   2.962   2.622   0.352  2.1039  1.0568  1.0248
  113SOL  HW2    339   3.064   2.490   0.335  1.2895 -0.7554 -3.4568
  114SOL  OW     340   0.813   0.641   1.403 -0.4370  0.1260 -0.2131
  114SOL  HW1    341   0.872   0.565   1.374  0.6775  1.1781  1.5251
  114SOL  HW2    342   0.864   0.730   1.398 -0.5644  4.0869  0.8747
  115SOL  OW     343   0.786   1.338   2.627  0.2020  0.0800  0.0050
  115SOL  HW1    344   0.701   1.389   2.618 -0.2601  0.4083  1.9174
  115SOL  HW2    345   0.821   1.311   2.536  0.2421  0.6707  0.2345
  116SOL  OW     346   2.271   1.062   0.973  0.4046  0.2836  0.3370
  116SOL  HW1    347   2.232   1.108   0.887 -0.7400 -1.8793 -2.5426
  116SOL  HW2    348   2.371   1.046   0.971 -2.8933  0.1446 -1.1838
  117SOL  OW     349   2.310   0.580   0.826 -0.2183 -0.5273  0.5460
  117SOL  HW1    350   2.323   0.585   0.929 -1.0003  0.3109  1.6743
  117SOL  HW2    351   2.235   0.514   0.806  0.0943  0.6560  0.5378
  118SOL  OW     352   2.333   2.327   1.933  0.3510  0.4139  0.2227
  118SOL  HW1    353   2.382   2.267   1.999  0.2107  0.1661  1.9789
  118SOL  HW2    354   2.397   2.388   1.875  1.5488 -0.5642  0.5473
  119SOL  OW     355   0.190   1.761   2.242 -0.2419  0.4674 -0.0158
  119SOL  HW1    356   0.155   1.664   2.247 -1.4916 -0.8868  0.2124
  119SOL  HW2    357   0.287   1.773   2.276 -0.1311  1.7626  0.1545
  120SOL  OW     358   0.544   1.686   2.162 -0.1251 -0.5406  0.4849
  120SOL  HW1    359   0.525   1.618   2.085  0.6825  3.4498  0.9718
  120SOL  HW2    360   0.610   1.755   2.127  0.2585 -0.9871 -0.2425
  121SOL  OW     361   1.402   0.838   1.374  0.5233  0.2026 -0.2658
  121SOL  HW1    362   1.495   0.804   1.395 -1.5944 -0.0152 -0.9366
  121SOL  HW2    363   1.403   0.869   1.276 -0.3056  2.4798  0.8441
  122SOL  OW     364   2.879   1.926   0.258  0.0500 -0.1795  0.2994
  122SOL  HW1    365   2.909   2.014   0.227  1.6181 -0.7881 -1.2806
  122SOL  HW2    366   2.925   1.895   0.344 -3.7057  0.3515  0.7161
  123SOL  OW     367   0.473   0.121   2.480  0.2570 -0.4821 -0.0774
  123SOL  HW1    368   0.414   0.197   2.512  0.4511  1.1344 -1.8890
  123SOL  HW2    369   0.430   0.037   2.523  0.1420  0.4512  1.0783
  124SOL  OW     370   2.230   1.075   2.385  0.4716 -0.0166  0.1703
  124SOL  HW1    371   2.228   0.975   2.369  0.6280  0.1429  2.4283
  124SOL  HW2    372   2.210   1.101   2.479  0.3663  1.2307 -0.1924
  125SOL  OW     373   0.752   0.833   2.125  0.4760 -0.8719 -0.7760
  125SOL  HW1    374   0.710   0.743   2.103 -1.7119  0.5021 -2.2603
  125SOL  HW2    375   0.855   0.825   2.139 -0.0251  0.7503 -1.1147
  126SOL  OW     376   2.421   2.767   3.043 -0.3070 -0.3417  0.9186
  126SOL  HW1    377   2.353   2.786   0.028  0.9672  0.6786 -0.2481
  126SOL  HW2    378   2.394   2.678   2.998 -0.8934  0.2876 -2.9013
  127SOL  OW     379   2.861   1.681   2.919 -0.1309  0.4113  0.4891
  127SOL  HW1    380   2.830   1.701   3.017 -0.2286  0.8315 -0.1084
  127SOL  HW2    381   2.949   1.634   2.915  1.2013  0.0837 -1.4538
  128SOL  OW     382   1.510   1.333   2.910  0.1587  0.2115  0.6216
  128SOL  HW1    383   1.570   1.368   2.984  2.0407  1.5145  0.4745
  128SOL  HW2    384   1.420   1.301   2.948 -0.3677  0.0823 -0.6814
  129SOL  OW     385   1.724   1.522   0.321 -0.0875 -0.3966  0.3732
  129SOL  HW1    386   1.645   1.586   0.322  1.9705  1.1332 -0.3952
  129SOL  HW2    387   1.689   1.424   0.311  1.0639  0.0041 -1.4273
  130SOL  OW     388   1.701   0.379   2.804  0.5780  0.2016 -0.0655
  130SOL  HW1    389   1.694   0.401   2.707  0.2458  1.1394  0.1718
  130SOL  HW2    390   1.778   0.432   2.849  0.8458  1.7834 -0.3654
  131SOL  OW     391   0.292   1.281   0.130 -0.1212 -0.0602  0.0139
  131SOL  HW1    392   0.335   1.263   0.222 -0.3541  0.2911 -2.2358
  131SOL  HW2    393   0.197   1.319   0.143 -0.0789 -0.1752 -0.8494
  132SOL  OW     394   0.470   1.330   0.891 -0.1592 -0.5099  0.2194
  132SOL  HW1    395   0.534   1.402   0.932  0.5414  0.0992  0.2896
  132SOL  HW2    396   0.475   1.336   0.789  1.1752  4.1750  0.8268
  133SOL  OW     397   0.473   1.887   1.437  0.9368  0.3809  0.0483
  133SOL  HW1    398   0.565   1.931   1.448  1.7518 -1.7277  2.9003
  133SOL  HW2    399   0.427   1.920   1.353 -1.9589 -0.3182  1.9715
  134SOL  OW     400   2.910   1.258   0.222 -0.1294 -0.0039  0.3790
  134SOL  HW1    401   2.941   1.199   0.303 -1.1877  0.2351 -0.0551
  134SOL  HW2    402   2.904   1.201   0.140 -1.1353  1.8503 -0.8956
  135SOL  OW     403   1.112   0.498   2.275  0.3024 -0.0532 -0.3170
  135SOL  HW1    404   1.107   0.594   2.315  0.1088 -0.8634 -0.2559
  135SOL  HW2    405   1.071   0.430   2.345  0.4335 -0.1803  0.8690
  136SOL  OW     406   1.198   2.913   1.599  0.2778  0.3368 -0.4438
  136SOL  HW1    407   1.252   2.829   1.579 -0.4847 -0.7340  1.5580
  136SOL  HW2    408   1.230   2.993   1.542  2.5648  1.0771  1.3407
  137SOL  OW     409   2.765   2.978   1.048  0.6656  0.7236 -0.1724
  137SOL  HW1    410   2.817   2.897   1.032  1.8274 -0.8676  1.3445
  137SOL  HW2    411   2.794   3.058   0.993  1.0938 -0.5349 -4.1284
  138SOL  OW     412   2.462   0.714   1.262  0.1566 -0.5098 -0.7245
  138SOL  HW1    413   2.559   0.697   1.292  1.3632 -1.1648 -0.1040
  138SOL  HW2    414   2.399   0.726   1.345 -0.3596  0.8384 -1.8286
  139SOL  OW     415   2.296   2.837   0.175 -0.4731 -0.2668 -0.5125
  139SOL  HW1    416   2.362   2.912   0.200 -1.3287 -0.3630 -2.8184
  139SOL  HW2    417   2.221   2.829   0.248  1.0452 -1.1104  1.1795
  140SOL  OW     418   2.748   2.747   2.692 -0.3129 -0.2382  0.6308
  140SOL  HW1    419   2.772   2.654   2.727 -0.8644  0.2641  1.8866
  140SOL  HW2    420   2.676   2.743   2.617  0.5748  2.5479  0.3505
  141SOL  OW     421   1.372   1.035   2.371 -0.2117 -0.7540  0.0323
  141SOL  HW1    422   1.389   0.978   2.288 -0.5039  0.7285 -0.9796
  141SOL  HW2    423   1.449   1.099   2.385  1.9166  2.5656 -0.2872
  142SOL  OW     424   1.618   2.288   1.919  0.7784  0.0008 -0.0051
  142SOL  HW1    425   1.598   2.208   1.861  0.1374  1.9688  2.1983
  142SOL  HW2    426   1.534   2.310   1.972  0.7228  0.8768 -0.8530
  143SOL  OW     427   0.700   2.317   0.259  0.1267  0.3318  0.2824
  143SOL  HW1    428   0.698   2.399   0.193 -2.9050 -1.0573  0.1652
  143SOL  HW2    429   0.666   2.340   0.354  1.3872 -0.7985  0.2906
  144SOL  OW     430   1.294   2.980   0.093 -0.3304 -0.2807  0.1169
  144SOL  HW1    431   1.360   3.056   0.106 -1.8861  2.5902 -4.4152
  144SOL  HW2    432   1.336   2.900   0.046 -0.8990 -0.7454  0.2727
  145SOL  OW     433   2.077   1.975   0.020  0.0887 -0.1700 -0.3404
  145SOL  HW1    434   2.093   1.941   3.021  0.4268 -5.0633 -0.7018
  145SOL  HW2    435   1.997   2.040   0.020 -1.4555  0.3077  2.4347
  146SOL  OW     436   2.349   1.683   2.758 -0.3660  0.9625  0.9708
  146SOL  HW1    437   2.309   1.600   2.798  1.0917 -1.3920 -0.0905
  146SOL  HW2    438   2.450   1.683   2.785  0.2060 -0.0663  0.8091
  147SOL  OW     439   0.668   1.225   2.239 -0.0884 -0.2371 -0.2654
  147SOL  HW1    440   0.757   1.264   2.273 -0.6109 -0.6683  1.4468
  147SOL  HW2    441   0.658   1.268   2.145 -0.5309 -0.3054  0.5125
  148SOL  OW     442   1.453   2.103   0.119  0.1156  0.2071 -0.3356
  148SOL  HW1    443   1.531   2.041   0.105 -1.6207 -0.0842  1.1808
  148SOL  HW2    444   1.368   2.057   0.150  2.4903  0.0596  2.7440
  149SOL  OW     445   0.653   1.760   0.884  0.0562  0.0822 -0.4085
  149SOL  HW1    446   0.564   1.802   0.861  1.5170 -2.3062  1.1030
  149SOL  HW2    447   0.724   1.750   0.810  2.5441 -0.1376  0.2683
  150SOL  OW     448   0.443   2.437   1.400 -0.7011 -0.6125  0.0999
  150SOL  HW1    449   0.367   2.502   1.379 -0.5024 -0.1716  0.6282
  150SOL  HW2    450   0.406   2.351   1.447 -1.3794  1.2845 -1.9611
  151SOL  OW     451   2.472   0.196   0.257  0.1046  0.0083  0.0761
  151SOL  HW1    452   2.412   0.276   0.285  0.4070 -2.1884 -1.3827
  151SOL  HW2    453   2.563   0.240   0.232  1.5865 -2.0536  0.3567
  152SOL  OW     454   2.804   1.727   0.071  0.1069 -0.3421 -0.3409
  152SOL  HW1    455   2.824   1.804   0.134 -0.9583  1.4500  3.7973
  152SOL  HW2    456   2.794   1.634   0.122 -1.4197 -0.1691  0.0115
  153SOL  OW     457   0.668   2.700   1.092  0.0637  0.0690 -0.2449
  153SOL  HW1    458   0.748   2.702   1.031 -0.4713  1.6307  0.7255
  153SOL  HW2    459   0.688   2.652   1.178 -0.3630 -0.0328 -1.7356
  154SOL  OW     460   0.782   2.503   0.734 -0.4078 -0.3438  0.3170
  154SOL  HW1    461   0.737   2.420   0.777  1.7447 -1.1505  1.6611
  154SOL  HW2    462   0.809   2.571   0.799  2.2713 -2.3220  0.5728
  155SOL  OW     463   2.884   2.577   3.056 -0.1374 -0.5495 -0.5104
  155SOL  HW1    464   2.872   2.492   0.014  0.1946  3.7158  2.3107
  155SOL  HW2    465   2.817   2.656   3.081 -1.6819  0.4912 -1.3509
  156SOL  OW     466   2.536   2.396   0.547 -0.2674 -0.0681 -0.1249
  156SOL  HW1    467   2.639   2.397   0.553  0.3205  0.2505 -1.1784
  156SOL  HW2    468   2.498   2.444   0.631 -0.5946  0.4260 -1.5056
  157SOL  OW     469   0.478   0.463   1.930 -0.3318  0.2980  0.0562
  157SOL  HW1    470   0.467   0.527   1.850 -0.3829  1.1525 -0.3763
  157SOL  HW2    471   0.396   0.410   1.953  1.6610  0.4192 -0.5301
  158SOL  OW     472   1.521   0.364   0.888 -0.3984  0.0411  0.0128
  158SOL  HW1    473   1.475   0.307   0.819  0.0181  2.5365 -1.2846
  158SOL  HW2    474   1.559   0.302   0.957 -2.2778  2.0949 -0.6601
  159SOL  OW     475   1.790   0.951   2.360 -0.2589  0.3286  0.0948
  159SOL  HW1    476   1.732   1.031   2.382  0.3499 -0.5809 -0.2345
  159SOL  HW2    477   1.855   0.973   2.285 -0.3993 -0.7454  1.9838
  160SOL  OW     478   0.591   0.806   2.544  0.2184 -0.2700  0.1641
  160SOL  HW1    479   0.546   0.723   2.502  0.1221 -0.7859 -1.1570
  160SOL  HW2    480   0.601   0.874   2.468  0.0909 -0.9645  0.5904
  161SOL  OW     481   2.997   1.825   0.483  0.3128  0.0820 -0.3921
  161SOL  HW1    482   2.934   1.748   0.492 -5.6954  0.8993  0.5332
  161SOL  HW2    483   3.085   1.783   0.452 -1.0189  1.7057 -2.0239
  162SOL  OW     484   2.643   2.133   1.558 -0.2966 -0.8912  1.1254
  162SOL  HW1    485   2.577   2.085   1.618  1.1654 -2.6665 -1.4819
  162SOL  HW2    486   2.603   2.135   1.467 -1.5366  4.3927  0.6363
  163SOL  OW     487   0.037   2.639   3.021  0.2098 -0.4806 -0.6018
  163SOL  HW1    488   0.107   2.583   3.074  1.4869 -2.0708  0.2158
  163SOL  HW2    489   3.034   2.615   3.040 -0.6932  1.9788  0.6857
  164SOL  OW     490   2.491   0.414   2.827  0.3736  0.5735 -0.1784
  164SOL  HW1    491   2.451   0.413   2.921  0.4135  0.8889 -2.2887
  164SOL  HW2    492   2.518   0.506   2.796 -2.7234  1.1159  0.6645
  165SOL  OW     493   2.616   1.408   1.191  0.6684  0.1219  0.5970
  165SOL  HW1    494   2.647   1.502   1.218 -1.0009 -2.5631  4.3376
  165SOL  HW2    495   2.538   1.384   1.256  1.4723  0.6647  0.1832
  166SOL  OW     496   2.217   1.835   1.104 -0.2698 -0.5706  0.0236
  166SOL  HW1    497   2.126   1.832   1.148 -0.1359  1.0089  0.3115
  166SOL  HW2    498   2.214   1.808   1.008  0.8161  1.1835  0.0791
  167SOL  OW     499   2.638   1.659   2.746 -0.2270  0.4093  0.6552
  167SOL  HW1    500   2.632   1.751   2.697 -2.4719  0.6182  0.7912
  167SOL  HW2    501   2.700   1.652   2.828 -1.7250  0.4505 -2.7234
  168SOL  OW     502   2.773   0.997   2.646  0.0959  0.3281  0.0901
  168SOL  HW1    503   2.795   1.089   2.692 -1.5362 -0.1930  1.6451
  168SOL  HW2    504   2.844   0.936   2.672 -0.5314  1.5035 -2.5647
  169SOL  OW     505   0.310   1.659   2.916  0.1224  0.4716  0.1789
  169SOL  HW1    506   0.237   1.629   2.987 -0.5149  0.2388  0.1905
  169SOL  HW2    507   0.370   1.583   2.886 -0.3032  2.3076  3.5440
  170SOL  OW     508   3.044   1.114   2.285 -0.8380  0.8164 -0.1770
  170SOL  HW1    509   3.020   1.013   2.285  1.5685  1.9564 -0.6110
  170SOL  HW2    510   0.027   1.130   2.232 -0.1328  0.9042 -0.2043
  171SOL  OW     511   2.278   2.594   0.486 -0.6844 -0.0014  0.5377
  171SOL  HW1    512   2.332   2.579   0.568  1.8654 -1.1011 -1.2943
  171SOL  HW2    513   2.323   2.566   0.403  0.8114  1.9930  0.6729
  172SOL  OW     514   0.920   0.448   2.078 -0.8845  0.1073  0.0495
  172SOL  HW1    515   0.950   0.414   1.989  3.1073  0.2571  2.1779
  172SOL  HW2    516   1.011   0.478   2.124  1.2214 -0.8842 -0.6360
  173SOL  OW     517   0.627   2.945   1.207 -0.2195  0.3271  0.0026
  173SOL  HW1    518   0.623   2.856   1.153 -0.0441  1.9415 -0.0548
  173SOL  HW2    519   0.577   2.933   1.297  0.7070 -0.0002  1.3987
  174SOL  OW     520   2.666   2.711   0.547  0.0223  0.0442  0.2906
  174SOL  HW1    521   2.656   2.701   0.449  1.5394 -1.7958  0.8719
  174SOL  HW2    522   2.710   2.627   0.583  0.5617 -1.1779 -1.6090
  175SOL  OW     523   0.715   1.536   1.431 -0.0484  0.0845  0.1302
  175SOL  HW1    524   0.730   1.437   1.409  3.4258 -1.6230  0.0938
  175SOL  HW2    525   0.633   1.568   1.383  0.8015 -0.8090  2.6954
  176SOL  OW     526   0.565   2.289   1.138  0.1677  0.0616  0.0994
  176SOL  HW1    527   0.514   2.232   1.069  2.7092 -0.1289 -0.8505
  176SOL  HW2    528   0.503   2.317   1.212 -2.3034 -1.3135  1.7299
  177SOL  OW     529   0.481   1.365   0.604  0.2606  0.2523  0.6525
  177SOL  HW1    530   0.491   1.322   0.511  4.5349 -0.8605 -0.3867
  177SOL  HW2    531   0.381   1.379   0.628  1.5998  0.6401 -0.3875
  178SOL  OW     532   2.966   1.339   1.072 -0.3816  0.3695  0.4998
  178SOL  HW1    533   2.915   1.361   0.989  3.5433  1.1180 -0.3390
  178SOL  HW2    534   2.941   1.387   1.160 -1.8284 -1.4359  0.6631
  179SOL  OW     535   0.677   2.779   0.273  0.7008  0.4680 -0.0183
  179SOL  HW1    536   0.658   2.873   0.253 -0.7290 -2.0783 -0.0162
  179SOL  HW2    537   0.736   2.773   0.355  0.5810 -1.3280  0.2472
  180SOL  OW     538   1.229   0.073   1.120  0.1109  0.0792  0.3925
  180SOL  HW1    539   1.182   0.148   1.180  0.1616 -0.7321 -0.0030
  180SOL  HW2    540   1.156   0.032   1.057 -0.0721 -0.0289 -1.7400
  181SOL  OW     541   0.948   0.766   1.824  0.0457  0.2770 -0.0302
  181SOL  HW1    542   0.864   0.723   1.776  0.5792 -1.2497 -0.9066
  181SOL  HW2    543   0.937   0.762   1.927 -0.1173  1.0172 -1.2524
  182SOL  OW     544   2.764   1.401   2.958 -0.0649 -0.4001  0.3170
  182SOL  HW1    545   2.814   1.488   2.952 -0.4354 -1.6292  2.1248
  182SOL  HW2    546   2.663   1.416   2.961 -2.0087 -0.2385  0.2487
  183SOL  OW     547   2.240   2.951   2.523  0.3612  0.1007 -0.4565
  183SOL  HW1    548   2.189   2.863   2.534  0.7003  1.0929  1.4718
  183SOL  HW2    549   2.325   2.941   2.465 -1.2070 -2.2441  3.6082
  184SOL  OW     550   0.984   0.677   0.939  0.1932 -0.1513 -0.3752
  184SOL  HW1    551   0.946   0.650   0.846 -2.3069  1.4710 -2.2004
  184SOL  HW2    552   1.076   0.717   0.930 -0.8736  0.2055 -1.9233
  185SOL  OW     553   1.965   0.620   0.286  0.1482 -0.4327 -0.2616
  185SOL  HW1    554   1.863   0.604   0.286 -2.7571 -3.5431 -0.9069
  185SOL  HW2    555   1.994   0.697   0.352  0.4100 -1.4515  1.1530
  186SOL  OW     556   0.492   2.614   0.393  0.5492 -0.2115 -0.1844
  186SOL  HW1    557   0.560   2.674   0.337 -0.8449 -0.2366  0.6851
  186SOL  HW2    558   0.539   2.534   0.438 -0.7610  0.0999 -0.1849
  187SOL  OW     559   1.613   1.813   2.146 -0.4878  0.0628 -0.0734
  187SOL  HW1    560   1.614   1.832   2.045  0.1757 -0.7985  1.6276
  187SOL  HW2    561   1.691   1.861   2.194  0.2499 -0.3032  1.0332
  188SOL  OW     562   0.278   2.180   1.229  0.2138 -0.0811  0.0213
  188SOL  HW1    563   0.270   2.219   1.319  1.8742  1.8489 -2.5399
  188SOL  HW2    564   0.290   2.080   1.240  1.3443  0.9599  0.2685
  189SOL  OW     565   1.755   1.205   0.383 -1.0405  0.2784 -0.4973
  189SOL  HW1    566   1.815   1.198   0.304  3.8734 -0.2769  0.9329
  189SOL  HW2    567   1.682   1.130   0.378  1.2279  0.4128 -1.3785
  190SOL  OW     568   1.163   2.641   2.149 -0.2632  0.2611 -0.4119
  190SOL  HW1    569   1.234   2.718   2.154  2.7210  2.9852  0.1545
  190SOL  HW2    570   1.085   2.665   2.084 -0.1345  1.1724 -3.0670
  191SOL  OW     571   2.886   0.253   1.584  0.1033  0.0974 -0.3311
  191SOL  HW1    572   2.857   0.298   1.673 -1.8478  2.1738  1.4041
  191SOL  HW2    573   2.806   0.218   1.526 -0.6104  2.0199  0.5271
  192SOL  OW     574   1.759   0.647   1.191 -0.0809 -0.4754  0.1768
  192SOL  HW1    575   1.699   0.653   1.106 -1.6625 -1.4780 -0.9115
  192SOL  HW2    576   1.787   0.554   1.213  0.9716  1.7957 -2.5865
  193SOL  OW     577   1.414   0.186   0.709 -0.0003 -0.7963  0.0965
  193SOL  HW1    578   1.494   0.178   0.643 -2.1407 -3.0159  2.2132
  193SOL  HW2    579   1.411   0.107   0.772  0.6812 -0.9797  2.4875
  194SOL  OW     580   1.302   1.539   0.905  0.4180  0.5721 -0.0333
  194SOL  HW1    581   1.303   1.487   0.815  0.4381 -2.1513 -0.2632
  194SOL  HW2    582   1.229   1.610   0.895 -0.0386  2.1579 -0.6909
  195SOL  OW     583   2.620   0.278   1.077 -0.4892  0.0499 -0.3057
  195SOL  HW1    584   2.560   0.204   1.115 -1.1300 -2.6353  0.3865
  195SOL  HW2    585   2.673   0.236   1.000  0.2323 -0.3429 -0.0167
  196SOL  OW     586   0.486   2.398   2.376 -1.4333  0.9221 -0.0741
  196SOL  HW1    587   0.456   2.498   2.385 -0.1579 -2.1029  3.9092
  196SOL  HW2    588   0.410   2.335   2.394 -1.1118  0.4756  1.8503
  197SOL  OW     589   2.357   0.314   2.603 -0.1113  0.5963 -0.5450
  197SOL  HW1    590   2.334   0.214   2.621 -0.3648  0.3092 -0.3835
  197SOL  HW2    591   2.404   0.343   2.689 -0.7808 -0.2892 -0.8631
  198SOL  OW     592   1.729   0.929   0.580  0.0384 -0.8640 -0.2585
  198SOL  HW1    593   1.664   0.960   0.504  0.3806  0.5024  1.2807
  198SOL  HW2    594   1.719   0.982   0.667 -0.5865 -2.1526 -0.9954
  199SOL  OW     595   2.882   0.974   1.548  0.1417  0.3552  0.1830
  199SOL  HW1    596   2.976   1.011   1.562 -1.4499 -3.2943  5.0230
  199SOL  HW2    597   2.864   0.926   1.633 -3.2975  1.3664  0.6515
  200SOL  OW     598   1.201   2.964   2.484  0.0920  0.0927  1.3168
  200SOL  HW1    599   1.159   2.972   2.575 -0.3710 -1.6033 -0.0428
  200SOL  HW2    600   1.251   3.053   2.469  0.1028  2.6041  0.2965
  201SOL  OW     601   2.413   2.493   1.201 -0.3316  0.4359  0.5771
  201SOL  HW1    602   2.433   2.405   1.148  2.2383 -1.6333  2.3724
  201SOL  HW2    603   2.311   2.503   1.204  1.9784  0.9033 -2.0136
  202SOL  OW     604   2.867   0.050   0.265  0.4981 -0.2196 -0.1069
  202SOL  HW1    605   2.964   0.023   0.262  0.2375  0.4515 -1.8700
  202SOL  HW2    606   2.848   0.052   0.366  0.6197  1.8455 -1.2172
  203SOL  OW     607   0.491   1.843   2.946 -0.1059  0.0535  0.2985
  203SOL  HW1    608   0.411   1.779   2.927  1.9563 -0.8343 -1.8300
  203SOL  HW2    609   0.547   1.840   2.859  0.4145 -2.9047 -0.9913
  204SOL  OW     610   2.880   1.252   2.116  0.0937  0.2532 -0.1439
  204SOL  HW1    611   2.787   1.225   2.152  2.8517  1.4217 -0.5852
  204SOL  HW2    612   2.954   1.213   2.181  4.4371 -2.7887  1.1033
  205SOL  OW     613   2.997   0.457   0.489  0.0783  0.6558  0.0633
  205SOL  HW1    614   2.949   0.486   0.407  0.3164  1.0764 -1.4726
  205SOL  HW2    615   3.042   0.534   0.538  0.2458  1.3560 -0.9875
  206SOL  OW     616   0.796   1.996   0.057 -0.2775 -0.5497 -0.2512
  206SOL  HW1    617   0.866   2.053   0.016 -2.4199  0.8898 -0.9189
  206SOL  HW2    618   0.778   2.017   0.154 -0.7489  0.3911 -1.8366
  207SOL  OW     619   1.034   2.519   1.546 -0.4690  0.3735  0.4105
  207SOL  HW1    620   1.089   2.551   1.627 -1.4007  3.3501 -1.3381
  207SOL  HW2    621   1.050   2.576   1.461 -0.1512  0.5599 -1.8705
  208SOL  OW     622   1.653   2.970   1.395  0.1263 -0.2677  0.1385
  208SOL  HW1    623   1.571   2.990   1.336  2.8174 -1.4671 -0.1764
  208SOL  HW2    624   1.623   2.958   1.489  2.0673  0.6130  0.8327
  209SOL  OW     625   1.640   0.608   1.631 -0.1779 -0.2759  0.3589
  209SOL  HW1    626   1.739   0.584   1.647 -0.2301  1.5428  1.1508
  209SOL  HW2    627   1.591   0.603   1.716  0.2558  1.5556 -0.5370
  210SOL  OW     628   1.050   0.976   0.559 -0.4255  0.9145 -0.0418
  210SOL  HW1    629   0.949   0.984   0.546 -2.8504 -0.0171 -0.7389
  210SOL  HW2    630   1.093   1.036   0.633  0.4791  0.5763  0.5579
  211SOL  OW     631   1.064   2.721   2.387 -0.1281  0.1178 -0.1873
  211SOL  HW1    632   1.098   2.809   2.425  0.8067 -1.2920 -0.9409
  211SOL  HW2    633   1.122   2.694   2.309  3.3093 -2.0952 -2.4822
  212SOL  OW     634   0.920   1.322   0.944  0.8689  0.6235  0.0626
  212SOL  HW1    635   0.977   1.404   0.968 -1.5173 -0.2044  0.1793
  212SOL  HW2    636   0.950   1.239   1.000 -0.4555 -1.0707  2.5985
  213SOL  OW     637   0.013   3.084   0.407  0.2848  0.5938  0.3518
  213SOL  HW1    638   0.010   2.986   0.429 -0.9938  2.3804  2.2951
  213SOL  HW2    639   0.020   0.041   0.490 -0.5278  1.4873  1.3289
  214SOL  OW     640   1.613   1.835   1.873 -0.2238  0.0377  0.0155
  214SOL  HW1    641   1.678   1.798   1.800 -0.6608 -2.4459  0.9663
  214SOL  HW2    642   1.529   1.781   1.865 -1.1839  2.5929  0.3088
  215SOL  OW     643   2.908   1.429   1.321 -0.2928  0.1911 -0.0866
  215SOL  HW1    644   2.839   1.508   1.332  0.0745  5.2359 -0.4166
  215SOL  HW2    645   2.904   1.361   1.389  0.1633  0.9355  1.4037
  216SOL  OW     646   2.827   0.227   3.025  0.5977 -0.4501  0.7654
  216SOL  HW1    647   2.895   0.153   3.005 -1.1513  0.2251 -0.3674
  216SOL  HW2    648   2.762   0.238   2.945  1.0960  1.2955  0.8832
  217SOL  OW     649   2.843   1.321   1.594 -0.1216 -0.0949 -0.1144
  217SOL  HW1    650   2.864   1.264   1.678 -0.5997  1.3356  0.2236
  217SOL  HW2    651   2.743   1.319   1.573  2.4735 -0.1480 -2.4847
  218SOL  OW     652   0.776   2.838   2.609  0.1186  0.0371 -0.3323
  218SOL  HW1    653   0.806   2.924   2.564 -0.3549 -2.2685  1.4424
  218SOL  HW2    654   0.790   2.764   2.540 -0.8324 -1.5246 -1.6078
  219SOL  OW     655   2.145   2.126   2.731 -0.2527  0.4871 -0.3644
  219SOL  HW1    656   2.247   2.142   2.740 -0.4976  3.8652  2.3701
  219SOL  HW2    657   2.121   2.036   2.766  0.9196  0.8780 -2.4756
  220SOL  OW     658   1.427   2.252   2.982  0.2322  0.6473 -0.3452
  220SOL  HW1    659   1.438   2.205   3.071 -0.6666  2.0303  0.5049
  220SOL  HW2    660   1.491   2.329   2.974  0.2651  0.2847 -0.4896
  221SOL  OW     661   2.144   0.880   0.693 -0.3598  0.4391 -0.1806
  221SOL  HW1    662   2.134   0.982   0.702 -0.1849  0.2074 -2.0644
  221SOL  HW2    663   2.244   0.859   0.669  0.7322 -0.7413 -3.4010
  222SOL  OW     664   1.317   1.074   3.036 -0.2126  0.2561  0.0658
  222SOL  HW1    665   1.234   1.009   3.036 -0.2452 -2.4689  1.9859
  222SOL  HW2    666   1.282   1.169   3.038  0.0258  2.3849 -1.6404
  223SOL  OW     667   0.148   0.865   1.843 -0.4291  0.2417  0.4305
  223SOL  HW1    668   0.139   0.838   1.943 -1.3528  0.9686  1.4925
  223SOL  HW2    669   0.088   0.805   1.787 -0.1238 -0.8549  0.4667
  224SOL  OW     670   1.217   3.019   0.502 -0.0521 -0.2768  0.2700
  224SOL  HW1    671   1.165   2.953   0.446 -0.2308  0.5497  1.3790
  224SOL  HW2    672   1.311   3.041   0.460  0.4958 -0.8229  0.5294
  225SOL  OW     673   0.740   0.987   1.558  0.2094  0.1060  0.3230
  225SOL  HW1    674   0.814   0.957   1.488 -0.1475 -1.4404  1.9067
  225SOL  HW2    675   0.666   0.915   1.562 -0.2065  4.0536 -0.4216
  226SOL  OW     676   1.204   0.996   0.932  0.4540 -0.3214 -0.1039
  226SOL  HW1    677   1.220   1.056   0.851  3.2399  1.3801  2.1026
  226SOL  HW2    678   1.131   1.030   0.991  0.2012 -0.4690  1.2383
  227SOL  OW     679   0.478   2.172   1.762 -0.4609 -0.3423  0.3638
  227SOL  HW1    680   0.573   2.178   1.724  0.6134  2.4230  1.3320
  227SOL  HW2    681   0.485   2.110   1.844 -1.9746  0.7689 -1.9380
  228SOL  OW     682   0.593   2.060   0.677 -0.0132  0.2179 -0.5798
  228SOL  HW1    683   0.697   2.062   0.683  0.2370  1.8113  1.9822
  228SOL  HW2    684   0.569   1.974   0.627  2.0278 -0.2980  1.9859
  229SOL  OW     685   2.702   0.743   0.073 -0.0955  0.0669  0.2539
  229SOL  HW1    686   2.714   0.809   3.088 -1.4295 -0.3293 -1.5606
  229SOL  HW2    687   2.620   0.682   0.062  0.3854  1.5267 -0.9683
  230SOL  OW     688   2.895   1.289   0.666 -0.1312  0.3264  0.1045
  230SOL  HW1    689   2.920   1.194   0.671 -1.0413 -1.7532  0.7707
  230SOL  HW2    690   2.972   1.352   0.637 -3.0553  0.0654  0.3450
  231SOL  OW     691   1.574   1.012   0.364  0.6737  0.8599 -0.2949
  231SOL  HW1    692   1.622   0.931   0.326  0.1786  0.1272  0.8968
  231SOL  HW2    693   1.486   1.032   0.312  1.5082 -0.1529 -2.0543
  232SOL  OW     694   1.975   1.900   1.209  0.1777 -0.1690  0.5939
  232SOL  HW1    695   1.907   1.850   1.271 -1.2025 -0.9584  0.5307
  232SOL  HW2    696   2.022   1.965   1.273 -1.1394  0.3031  2.4665
  233SOL  OW     697   0.662   0.586   2.081  0.5734  0.0473  0.8238
  233SOL  HW1    698   0.601   0.542   2.017 -1.4226 -0.2407 -0.2376
  233SOL  HW2    699   0.752   0.539   2.076  1.4816 -0.4073  2.6603
  234SOL  OW     700   0.847   0.497   2.898 -0.8476  0.4605  0.2247
  234SOL  HW1    701   0.806   0.409   2.877  1.9085 -1.1204 -1.0941
  234SOL  HW2    702   0.775   0.569   2.900  1.2315 -2.3844  1.9973
  235SOL  OW     703   2.253   1.154   1.245  0.1796  0.3449  0.0032
  235SOL  HW1    704   2.184   1.096   1.289 -0.5961 -2.9444 -2.5594
  235SOL  HW2    705   2.275   1.115   1.149 -2.8226  0.3817  0.5409
  236SOL  OW     706   1.446   0.343   2.964  0.1407 -0.0440 -0.0547
  236SOL  HW1    707   1.527   0.360   2.905  2.4217 -1.3985 -1.2603
  236SOL  HW2    708   1.382   0.286   2.906 -0.0391 -1.5992  0.3122
  237SOL  OW     709   0.199   1.488   2.690  0.2798 -0.0038  0.2358
  237SOL  HW1    710   0.249   1.572   2.674 -2.6388  2.4831  0.2433
  237SOL  HW2    711   0.266   1.414   2.698  0.7411  2.3195  0.9986
  238SOL  OW     712   1.710   1.177   1.223 -0.6421 -0.2054 -0.0859
  238SOL  HW1    713   1.712   1.109   1.143  0.9362  1.3995 -1.4498
  238SOL  HW2    714   1.789   1.158   1.292 -1.7640 -0.0128 -0.6512
  239SOL  OW     715   1.378   1.527   0.184  0.2364 -0.6924  0.5896
  239SOL  HW1    716   1.358   1.559   0.091 -1.9709 -0.8079 -0.3669
  239SOL  HW2    717   1.414   1.611   0.237 -1.8412 -1.2161  0.7863
  240SOL  OW     718   2.972   2.748   1.080 -0.4088 -0.9285 -0.7857
  240SOL  HW1    719   2.932   2.701   1.167 -0.4072  0.1746  2.5834
  240SOL  HW2    720   3.070   2.716   1.067 -0.4865 -2.3321  1.4986
  241SOL  OW     721   3.077   0.856   2.967  0.2091 -0.3625 -0.5624
  241SOL  HW1    722   3.084   0.956   2.988  1.1074  2.5656 -0.1272
  241SOL  HW2    723   3.085   0.799   3.049 -1.7862 -2.2261  2.1880
  242SOL  OW     724   1.802   0.031   1.918  0.0590 -0.5089  0.0467
  242SOL  HW1    725   1.790   3.067   1.831 -0.1822  1.9082  1.1708
  242SOL  HW2    726   1.777   0.129   1.901  0.1825  0.8645  1.0497
  243SOL  OW     727   1.806   2.989   1.672 -0.0643  0.1282 -0.1854
  243SOL  HW1    728   1.867   3.063   1.640 -1.2609  0.6013  1.9614
  243SOL  HW2    729   1.861   2.909   1.707 -2.3062 -1.2504  0.3569
  244SOL  OW     730   2.587   0.678   2.738 -0.8560 -0.6342 -0.2025
  244SOL  HW1    731   2.581   0.779   2.755 -1.2339  1.7022  2.5797
  244SOL  HW2    732   2.544   0.643   2.649  1.8114 -0.5644 -0.4845
  245SOL  OW     733   1.564   1.323   0.188 -0.4739 -0.1657 -0.0697
  245SOL  HW1    734   1.476   1.367   0.177 -0.1328  0.9547 -0.0782
  245SOL  HW2    735   1.554   1.219   0.198  2.5575 -1.0897  1.6988
  246SOL  OW     736   1.749   3.075   3.075 -0.1788 -0.3979  0.0357
  246SOL  HW1    737   1.784   0.044   3.006  0.4546  0.3916 -0.3870
  246SOL  HW2    738   1.797   3.084   0.071  1.7822  0.8032 -2.1853
  247SOL  OW     739   1.552   2.745   2.007  0.5293  0.1849 -0.3441
  247SOL  HW1    740   1.584   2.738   2.099  0.2221 -1.9584  3.6357
  247SOL  HW2    741   1.597   2.677   1.947  0.4083  0.1717  0.2634
  248SOL  OW     742   0.242   2.335   1.827 -0.5775  0.2631 -0.3738
  248SOL  HW1    743   0.317   2.271   1.812 -1.3587  2.2026 -1.6392
  248SOL  HW2    744   0.176   2.284   1.884  0.9279  2.2923  0.6676
  249SOL  OW     745   0.889   2.904   3.095 -0.4291 -0.4740  0.3961
  249SOL  HW1    746   0.913   2.838   0.072  0.0477  0.2454  0.4440
  249SOL  HW2    747   0.881   2.852   3.010  2.0229  3.4550 -2.5364
  250SOL  OW     748   2.741   0.533   1.725  0.2926 -0.1106  0.8183
  250SOL  HW1    749   2.802   0.479   1.787  1.8576  0.3399 -2.6530
  250SOL  HW2    750   2.757   0.631   1.727  1.6371  2.1475 -3.3180
  251SOL  OW     751   1.491   0.683   2.859  0.3459 -0.2531  0.1226
  251SOL  HW1    752   1.424   0.645   2.922 -1.1416 -0.1747 -0.4649
  251SOL  HW2    753   1.487   0.787   2.856  0.6205 -2.9087 -4.5816
  252SOL  OW     754   1.533   2.065   1.749  0.1875 -0.3803  0.5336
  252SOL  HW1    755   1.567   1.998   1.814 -3.2911  1.2546  2.0054
  252SOL  HW2    756   1.555   2.039   1.653  2.2851 -0.8027 -2.0900
  253SOL  OW     757   0.831   2.097   0.324  0.1983 -1.1789  0.3293
  253SOL  HW1    758   0.795   2.189   0.303 -1.6866 -0.7007  0.1451
  253SOL  HW2    759   0.932   2.106   0.335  1.1217 -1.2597 -0.5030
  254SOL  OW     760   1.752   0.735   0.756  0.2465 -0.7440 -0.1268
  254SOL  HW1    761   1.846   0.730   0.793 -1.7689 -0.4665 -2.8411
  254SOL  HW2    762   1.746   0.798   0.674  3.4156 -0.4974 -2.2744
  255SOL  OW     763   1.076   0.159   1.398  0.3575 -0.0494  0.0900
  255SOL  HW1    764   0.997   0.099   1.402 -3.2359  1.4791  0.6021
  255SOL  HW2    765   1.163   0.110   1.415 -0.2728  0.6448  0.0339
  256SOL  OW     766   2.882   1.963   1.616 -0.4166  0.0969 -0.3687
  256SOL  HW1    767   2.967   2.019   1.639  1.1594 -0.4048  0.7849
  256SOL  HW2    768   2.808   2.024   1.595 -2.1167 -0.3878  0.8477
  257SOL  OW     769   0.004   2.930   0.077 -0.1749 -0.2958 -0.3303
  257SOL  HW1    770   0.069   2.997   0.111 -0.1577 -1.4844 -0.3538
  257SOL  HW2    771   0.050   2.846   0.045 -1.2326 -1.1521 -3.4334
  258SOL  OW     772   0.341   2.194   1.524 -0.7437 -0.3433 -0.4818
  258SOL  HW1    773   0.394   2.185   1.608 -0.0195  1.8943 -1.4984
  258SOL  HW2    774   0.272   2.123   1.515  0.7150  0.0820  0.0429
  259SOL  OW     775   1.686   0.372   2.524  0.0030  0.9308 -0.0023
  259SOL  HW1    776   1.654   0.433   2.448 -2.6243  1.5251 -1.0950
  259SOL  HW2    777   1.627   0.286   2.530  1.8811  1.6011 -1.6528
  260SOL  OW     778   0.506   2.935   1.465 -0.5987  0.4021 -0.1411
  260SOL  HW1    779   0.500   3.029   1.506  2.4265 -1.1263 -2.1897
  260SOL  HW2    780   0.591   2.890   1.504 -0.2951  2.7372  0.4551
  261SOL  OW     781   0.720   0.186   2.556 -0.1406  0.0526  0.3318
  261SOL  HW1    782   0.759   0.272   2.517  2.7340 -0.0752 -1.8160
  261SOL  HW2    783   0.628   0.165   2.518  0.3936  0.4130 -2.0923
  262SOL  OW     784   1.542   2.199   2.338  0.2754 -0.0907 -0.9336
  262SOL  HW1    785   1.587   2.133   2.278 -0.9594  0.9660 -3.3630
  262SOL  HW2    786   1.609   2.270   2.362 -1.5888  0.1214  1.8906
  263SOL  OW     787   0.490   1.262   0.352 -0.0135  0.1513 -0.8150
  263SOL  HW1    788   0.569   1.297   0.308 -0.3928 -0.9604  2.2270
  263SOL  HW2    789   0.497   1.162   0.360  0.8350 -2.2747  1.4789
  264SOL  OW     790   1.103   1.474   0.523  0.3346  0.4105  1.1112
  264SOL  HW1    791   1.104   1.441   0.423 -1.2196  0.5712 -1.0326
  264SOL  HW2    792   1.034   1.430   0.578  2.4037  2.2199  0.2277
  265SOL  OW     793   0.802   2.170   1.233 -0.3793  0.3771  0.1673
  265SOL  HW1    794   0.841   2.244   1.296 -2.2110  0.4367  0.1354
  265SOL  HW2    795   0.711   2.192   1.199 -2.2072 -2.2215 -0.9016
  266SOL  OW     796   2.637   1.139   1.207  0.1944 -1.0944 -0.1758
  266SOL  HW1    797   2.622   1.117   1.304  0.2616  3.4603  0.2136
  266SOL  HW2    798   2.646   1.243   1.186 -2.0573  0.7334  3.1296
  267SOL  OW     799   0.585   0.697   0.734 -0.2834 -0.8654 -0.4774
  267SOL  HW1    800   0.503   0.638   0.753  0.9866 -2.8088 -0.4128
  267SOL  HW2    801   0.580   0.790   0.774  2.4289 -0.4355 -0.8006
  268SOL  OW     802   1.149   0.828   0.228 -0.5086 -0.1649  0.2533
  268SOL  HW1    803   1.139   0.783   0.318  0.1079  0.5110 -0.0073
  268SOL  HW2    804   1.080   0.899   0.205 -1.9910  0.8721 -1.8003
  269SOL  OW     805   2.574   0.957   1.937 -0.3400  0.3595 -0.3166
  269SOL  HW1    806   2.664   0.955   1.977  1.3815 -2.0576  0.4442
  269SOL  HW2    807   2.521   1.042   1.951 -0.8891  1.2471  0.4864
  270SOL  OW     808   0.975   1.102   1.106 -0.3339 -0.3715  0.3289
  270SOL  HW1    809   0.982   1.113   1.210 -0.6039  0.2113  1.8330
  270SOL  HW2    810   0.924   1.016   1.081  2.6086 -1.3707 -0.4609
  271SOL  OW     811   2.627   0.682   2.199 -0.3500  0.5382  0.1841
  271SOL  HW1    812   2.588   0.746   2.270 -0.0801  1.8894  0.3411
  271SOL  HW2    813   2.566   0.673   2.122 -1.7573 -0.2302  1.4211
  272SOL  OW     814   2.456   2.178   2.115 -0.8488 -0.0767 -0.2627
  272SOL  HW1    815   2.548   2.179   2.075 -0.7996 -0.2759  1.6409
  272SOL  HW2    816   2.424   2.085   2.140 -1.3369  1.9851 -0.5465
  273SOL  OW     817   0.394   2.569   3.058  0.2278 -0.0589  0.1911
  273SOL  HW1    818   0.470   2.579   0.027  0.3033 -2.6353  0.9335
  273SOL  HW2    819   0.427   2.565   2.961  1.1298  0.4180 -0.2021
  274SOL  OW     820   0.157   2.761   1.642 -0.1058 -1.0671 -0.3538
  274SOL  HW1    821   0.132   2.826   1.568  0.5271  1.9132  0.5640
  274SOL  HW2    822   0.138   2.666   1.619  1.3972 -0.3774  0.5123
  275SOL  OW     823   1.378   1.242   1.913  0.2340  0.0706  0.4102
  275SOL  HW1    824   1.287   1.279   1.945 -0.0750 -1.6131  1.6297
  275SOL  HW2    825   1.439   1.313   1.873  2.8380  0.1248 -0.4448
  276SOL  OW     826   0.456   1.320   2.615 -0.1544  0.5677  0.8811
  276SOL  HW1    827   0.463   1.312   2.513 -0.7792  0.7511  1.5380
  276SOL  HW2    828   0.393   1.250   2.652 -0.9775 -2.7051 -0.7824
  277SOL  OW     829   1.622   0.351   1.480 -0.1760 -0.3805 -0.6258
  277SOL  HW1    830   1.709   0.300   1.474 -1.3201 -2.4648  0.2465
  277SOL  HW2    831   1.642   0.451   1.494 -0.0634 -1.2341 -1.9868
  278SOL  OW     832   1.605   0.116   2.538 -0.6700  0.4389 -0.1411
  278SOL  HW1    833   1.698   0.087   2.511  1.7942 -2.4590  1.1792
  278SOL  HW2    834   1.570   0.067   2.622 -0.3305 -1.0428  2.0005
  279SOL  OW     835   0.375   1.797   0.806  0.3697 -0.0143 -0.2397
  279SOL  HW1    836   0.329   1.706   0.830 -0.1216 -1.1145  1.5684
  279SOL  HW2    837   0.317   1.882   0.823  2.2970 -0.9921  1.1144
  280SOL  OW     838   1.089   0.906   3.024 -0.4127 -0.4034 -0.0137
  280SOL  HW1    839   1.043   0.895   0.017  1.3177  1.5016 -2.4805
  280SOL  HW2    840   1.017   0.911   2.954 -1.0936  0.2354  0.4124
  281SOL  OW     841   2.153   2.206   2.316  0.2182  0.0408 -0.1214
  281SOL  HW1    842   2.088   2.264   2.258 -0.8247 -0.3488 -2.8583
  281SOL  HW2    843   2.208   2.273   2.367  0.2947  0.9025 -0.9504
  282SOL  OW     844   2.619   1.003   0.801  0.3034 -0.3817 -0.0894
  282SOL  HW1    845   2.626   0.950   0.888  0.2570  0.4940  0.4440
  282SOL  HW2    846   2.697   0.979   0.735 -2.7428 -1.7154 -0.9052
  283SOL  OW     847   1.741   2.562   2.601  0.1398 -0.2510 -0.1362
  283SOL  HW1    848   1.730   2.501   2.522  0.7565  3.1944 -3.8180
  283SOL  HW2    849   1.831   2.558   2.641  0.7035  1.9569  0.0634
  284SOL  OW     850   2.704   0.243   2.783 -0.0384  0.5348  0.1790
  284SOL  HW1    851   2.622   0.305   2.796 -0.7561  0.5722 -1.8123
  284SOL  HW2    852   2.742   0.245   2.689 -0.3844  1.5847 -1.3368
  285SOL  OW     853   2.586   1.081   0.414  0.0092 -0.2065 -0.2628
  285SOL  HW1    854   2.570   1.085   0.314  2.4265 -1.6785  1.4594
  285SOL  HW2    855   2.625   1.174   0.449 -0.8818  0.0128  0.8505
  286SOL  OW     856   1.786   1.820   1.473 -0.7051  0.1110 -0.3761
  286SOL  HW1    857   1.807   1.781   1.567  1.5051 -0.8115  1.9266
  286SOL  HW2    858   1.740   1.751   1.415 -1.9024 -0.9473  3.9705
  287SOL  OW     859   1.082   2.047   0.901  0.1056 -0.0816 -0.3936
  287SOL  HW1    860   1.033   2.010   0.986  3.0612  0.3852 -1.8039
  287SOL  HW2    861   1.181   2.023   0.903  2.0695  0.1035  0.7797
  288SOL  OW     862   2.860   2.425   2.119  0.0081  0.0793  0.7769
  288SOL  HW1    863   2.889   2.497   2.050 -0.7015 -0.6396 -0.4717
  288SOL  HW2    864   2.935   2.360   2.145  2.1947 -2.8392 -1.4410
  289SOL  OW     865   0.228   1.140   0.552 -0.2981 -0.4124 -0.1452
  289SOL  HW1    866   0.241   1.236   0.577 -0.3938 -1.8316 -1.7528
  289SOL  HW2    867   0.137   1.130   0.502 -1.1718  0.1594 -2.1370
  290SOL  OW     868   0.799   2.812   2.199  0.3282 -0.4010 -0.5086
  290SOL  HW1    869   0.807   2.777   2.292 -0.3734  0.4167 -2.5514
  290SOL  HW2    870   0.872   2.881   2.191  1.2918 -0.9947 -1.7160
  291SOL  OW     871   1.894   3.049   0.211 -0.0024  0.0772  0.2783
  291SOL  HW1    872   1.982   0.004   0.210  1.7116 -2.3453 -1.8561
  291SOL  HW2    873   1.869   3.026   0.306 -1.2395 -0.3222  1.3554
  292SOL  OW     874   0.977   2.824   1.430  0.1949 -0.3387 -0.1023
  292SOL  HW1    875   1.031   2.779   1.361 -1.0380 -1.5678  0.2693
  292SOL  HW2    876   1.031   2.826   1.518  0.6493  0.5594  0.4309
  293SOL  OW     877   1.440   2.306   1.449  0.0505 -0.3220  0.0890
  293SOL  HW1    878   1.358   2.297   1.387 -0.0275 -0.7692 -0.1720
  293SOL  HW2    879   1.415   2.360   1.531  0.8447  0.1691 -0.2036
  294SOL  OW     880   2.530   1.052   0.154  0.5832  0.0057 -0.2633
  294SOL  HW1    881   2.452   1.029   0.093  0.0965  2.9516  1.4248
  294SOL  HW2    882   2.613   1.023   0.103 -0.3418 -0.0202 -1.0416
  295SOL  OW     883   1.133   1.171   2.715  0.2986  0.2499 -0.2649
  295SOL  HW1    884   1.130   1.265   2.683  0.2041 -0.8162  1.4990
  295SOL  HW2    885   1.042   1.137   2.746 -0.8429  1.5271  1.2011
  296SOL  OW     886   1.812   1.375   1.074 -0.9339  1.0395  0.0300
  296SOL  HW1    887   1.776   1.294   1.130  0.6080 -1.3963 -1.4546
  296SOL  HW2    888   1.853   1.444   1.141  0.9664 -1.4492  0.1354
  297SOL  OW     889   2.518   1.398   0.160 -0.5141  0.2400  0.0420
  297SOL  HW1    890   2.505   1.301   0.140 -2.0910  0.5799  0.1722
  297SOL  HW2    891   2.511   1.459   0.079  1.2969 -2.0627  0.2053
  298SOL  OW     892   1.197   0.706   2.597 -0.4708 -0.4328  0.4217
  298SOL  HW1    893   1.237   0.798   2.618  1.5500  1.5991  1.1530
  298SOL  HW2    894   1.265   0.632   2.607  0.0079  1.4307  0.2489
  299SOL  OW     895   2.277   2.602   2.304 -0.6072 -0.0548 -0.1314
  299SOL  HW1    896   2.283   2.502   2.319  0.6477 -0.2395 -0.3041
  299SOL  HW2    897   2.210   2.645   2.365  3.0176 -0.5903 -2.7503
  300SOL  OW     898   3.077   0.076   1.576 -0.3140  0.2139  0.2406
  300SOL  HW1    899   0.019   0.061   1.670  1.8360  1.6637  0.1170
  300SOL  HW2    900   3.015   0.158   1.579  0.7201 -1.0940  0.8307
  301SOL  OW     901   1.769   0.607   2.075  0.1717  0.4203  0.0675
  301SOL  HW1    902   1.862   0.605   2.044 -0.7266  0.5936 -0.0801
  301SOL  HW2    903   1.732   0.513   2.092 -0.7534  0.4412 -0.2620
  302SOL  OW     904   0.099   0.269   2.642 -0.1981 -0.4049  0.0114
  302SOL  HW1    905   0.194   0.298   2.624 -1.6301 -1.0102 -1.1245
  302SOL  HW2    906   0.078   0.185   2.586  0.6756 -0.3913  0.1056
  303SOL  OW     907   1.282   2.181   1.734 -0.8616 -0.1142  0.3049
  303SOL  HW1    908   1.362   2.123   1.749  1.7672 -0.9785 -0.3927
  303SOL  HW2    909   1.313   2.275   1.730 -3.6944 -1.0368 -2.4121
  304SOL  OW     910   0.352   3.052   0.049 -0.0593  0.2510  0.6450
  304SOL  HW1    911   0.320   2.952   0.051  0.2942 -1.1895 -0.4101
  304SOL  HW2    912   0.290   0.012   0.107  1.3663 -0.4406  1.3361
  305SOL  OW     913   1.325   0.571   3.041  0.3686 -0.0561  0.1021
  305SOL  HW1    914   1.373   0.488   3.002 -1.6612 -0.4529  4.4447
  305SOL  HW2    915   1.226   0.557   3.038  0.1567  0.0864 -1.5120
  306SOL  OW     916   0.808   0.774   2.707  0.2534  0.2682 -0.0437
  306SOL  HW1    917   0.879   0.707   2.679  0.5594 -0.5516  1.7874
  306SOL  HW2    918   0.736   0.792   2.633  1.5430 -0.5994 -1.8734
  307SOL  OW     919   3.059   0.444   1.436 -0.3944 -0.4511 -0.0993
  307SOL  HW1    920   0.058   0.460   1.469  3.3181  1.1851 -4.9372
  307SOL  HW2    921   3.007   0.384   1.501  3.0423  0.8331 -1.5238
  308SOL  OW     922   1.124   2.981   2.007  0.1802 -0.2467  0.3875
  308SOL  HW1    923   1.150   3.074   1.970  4.1667  1.3148 -1.2706
  308SOL  HW2    924   1.181   2.904   1.974 -2.0131  0.7107 -1.2237
  309SOL  OW     925   1.679   0.808   0.195 -0.3198  0.9499 -0.5111
  309SOL  HW1    926   1.716   0.840   0.106 -0.5393 -1.3342 -0.7015
  309SOL  HW2    927   1.579   0.787   0.183 -0.8546  0.0818 -1.2143
  310SOL  OW     928   0.948   1.304   3.064 -0.5987 -0.2413  0.5912
  310SOL  HW1    929   0.962   1.346   0.060 -1.5928 -4.9840  0.8127
  310SOL  HW2    930   0.856   1.259   3.069  2.4562 -0.6504 -1.0335
  311SOL  OW     931   2.500   2.264   2.377 -0.2679 -0.4879 -0.0516
  311SOL  HW1    932   2.589   2.312   2.390  3.5586 -1.8947  1.7154
  311SOL  HW2    933   2.479   2.252   2.276 -1.0848 -1.9845  2.0192
  312SOL  OW     934   1.827   0.166   1.031  0.0294  0.0862 -0.1008
  312SOL  HW1    935   1.853   0.089   1.095  5.0283 -0.1725  0.4715
  312SOL  HW2    936   1.728   0.165   1.020  1.0482 -2.5622 -1.4775
  313SOL  OW     937   2.634   0.591   0.484 -0.2177  0.6335  0.1220
  313SOL  HW1    938   2.587   0.679   0.453 -1.5880  1.0968 -0.8860
  313SOL  HW2    939   2.693   0.555   0.415  0.9722 -0.5423  0.5215
  314SOL  OW     940   2.741   1.652   1.261  0.0562 -0.4306  0.4716
  314SOL  HW1    941   2.713   1.715   1.181 -1.1118 -3.3437 -1.6733
  314SOL  HW2    942   2.808   1.707   1.317 -0.6221 -1.8773 -0.9744
  315SOL  OW     943   2.542   0.893   1.671 -0.7322 -0.1527 -0.7197
  315SOL  HW1    944   2.536   0.926   1.768 -1.2339 -2.0149 -0.2755
  315SOL  HW2    945   2.505   0.957   1.602  0.9213  1.2181 -2.6422
  316SOL  OW     946   0.495   1.648   1.346 -0.5593  0.1922 -0.5652
  316SOL  HW1    947   0.496   1.731   1.404  0.5460  1.6566  0.5187
  316SOL  HW2    948   0.435   1.662   1.266 -0.8843  0.8392 -0.2999
  317SOL  OW     949   1.099   2.938   2.747 -0.3063 -0.6716 -0.2213
  317SOL  HW1    950   1.034   2.867   2.786 -0.6442  1.5190 -2.0515
  317SOL  HW2    951   1.064   3.032   2.781  0.0950 -0.5267 -0.2647
  318SOL  OW     952   1.161   2.303   0.993 -0.7795 -0.1890 -0.4912
  318SOL  HW1    953   1.236   2.327   0.929 -0.1671 -1.8768  1.4853
  318SOL  HW2    954   1.133   2.209   0.972 -0.8363 -0.0055 -1.7400
  319SOL  OW     955   0.542   1.720   0.094 -0.2152 -0.1309 -0.2759
  319SOL  HW1    956   0.511   1.623   0.069  1.2289 -0.6898 -0.3496
  319SOL  HW2    957   0.545   1.775   0.008  0.4248  5.5627 -0.1977
  320SOL  OW     958   0.199   2.018   0.794 -0.0570  0.2310  0.2990
  320SOL  HW1    959   0.178   2.096   0.855  1.0084 -0.0128  2.4371
  320SOL  HW2    960   0.104   2.001   0.763  0.4055 -0.0494 -0.1992
  321SOL  OW     961   2.785   2.508   2.807 -0.2682 -0.1500  0.4406
  321SOL  HW1    962   2.816   2.546   2.899  1.1379  0.3926  2.5123
  321SOL  HW2    963   2.870   2.474   2.765  2.6201  1.5228  1.6569
  322SOL  OW     964   0.059   2.389   2.325  0.0434  0.0069  0.5592
  322SOL  HW1    965   0.026   2.326   2.251  1.4805 -0.3017  0.3273
  322SOL  HW2    966   0.080   2.482   2.279 -0.4736  2.5692 -1.6915
  323SOL  OW     967   2.773   0.119   0.911  0.7358 -0.5543 -0.8155
  323SOL  HW1    968   2.723   0.163   0.828 -0.0494  1.0913  2.3492
  323SOL  HW2    969   2.868   0.130   0.891  1.8251 -1.2286  1.7388
  324SOL  OW     970   1.158   2.608   1.797 -0.1321  0.1212  0.6540
  324SOL  HW1    971   1.215   2.691   1.807  0.0441  0.3787  1.8018
  324SOL  HW2    972   1.077   2.618   1.856  0.9336  1.7304 -0.8452
  325SOL  OW     973   2.141   0.441   2.845 -1.0297  0.5700  0.4752
  325SOL  HW1    974   2.134   0.355   2.899 -1.4878  0.1758 -0.1185
  325SOL  HW2    975   2.145   0.424   2.744  2.3494  0.7310  1.4501
  326SOL  OW     976   2.909   1.819   1.369 -0.2029 -0.2634  0.3266
  326SOL  HW1    977   2.887   1.872   1.455 -0.8302  0.9527  0.4735
  326SOL  HW2    978   2.998   1.846   1.333  2.4360 -0.4053  2.3945
  327SOL  OW     979   2.461   3.026   3.030 -0.0451  0.1880 -0.4099
  327SOL  HW1    980   2.552   3.035   3.076 -1.3989  0.6597  0.5430
  327SOL  HW2    981   2.433   2.929   3.013  0.0905  1.8767  1.0728
  328SOL  OW     982   0.951   0.413   1.641 -0.6493 -0.2705  0.2729
  328SOL  HW1    983   0.903   0.324   1.614  2.8769  0.7000 -0.9483
  328SOL  HW2    984   0.884   0.491   1.657  0.7470  1.5537 -0.0543
  329SOL  OW     985   1.501   0.314   1.204  0.3997 -0.8291  0.3108
  329SOL  HW1    986   1.574   0.327   1.275  0.7728  1.6890  1.8056
  329SOL  HW2    987   1.415   0.357   1.233 -0.0791 -0.6755  1.8956
  330SOL  OW     988   0.837   0.206   1.201 -0.6084 -0.2208  0.2418
  330SOL  HW1    989   0.839   0.113   1.241 -3.5147 -1.2727  2.3403
  330SOL  HW2    990   0.887   0.273   1.261 -2.6272  0.7980  2.4875
  331SOL  OW     991   0.592   2.232   2.773  0.1695 -0.0898  0.2426
  331SOL  HW1    992   0.575   2.186   2.863 -1.6887  0.0700 -1.0996
  331SOL  HW2    993   0.682   2.279   2.778 -0.7228  0.2115  1.2713
  332SOL  OW     994   2.224   0.132   1.555 -0.6013 -0.1333 -0.0544
  332SOL  HW1    995   2.276   0.096   1.635 -0.3406 -0.8882 -0.9403
  332SOL  HW2    996   2.258   0.226   1.529 -2.0196  0.0511  0.6992
  333SOL  OW     997   3.077   3.016   0.944 -0.2454  0.0591 -0.0654
  333SOL  HW1    998   3.061   0.011   0.898 -0.8202  0.5902 -1.4509
  333SOL  HW2    999   0.019   2.951   0.873  0.9221 -2.2274 -2.6393
  334SOL  OW    1000   0.393   1.570   0.399 -0.0282 -0.3980  0.2717
  334SOL  HW1   1001   0.485   1.581   0.365  2.3687 -2.9786 -0.2505
  334SOL  HW2   1002   0.388   1.516   0.483  0.0120  0.5835  2.2067
  335SOL  OW    1003   2.627   2.812   1.820  0.0721  0.2525 -0.2854
  335SOL  HW1   1004   2.632   2.910   1.801 -0.8103  0.5717 -0.3880
  335SOL  HW2   1005   2.530   2.774   1.817 -0.4595  3.0491  0.1557
  336SOL  OW    1006   0.044   0.045   2.534 -0.9652 -0.0472  0.1260
  336SOL  HW1   1007   0.083   3.052   2.568  2.5326 -3.2856  0.7628
  336SOL  HW2   1008   0.025   0.040   2.433  1.7550 -1.0179  1.9530
  337SOL  OW    1009   0.252   1.997   1.861 -0.4757 -0.0393  0.3762
  337SOL  HW1   1010   0.249   1.945   1.772  1.6964 -3.4485 -0.4203
  337SOL  HW2   1011   0.346   1.980   1.900  2.7594 -2.4664 -4.2775
  338SOL  OW    1012   1.290   0.512   1.889 -0.1803  0.1915 -0.0064
  338SOL  HW1   1013   1.273   0.604   1.934 -3.1005 -0.3010  0.7166
  338SOL  HW2   1014   1.360   0.531   1.819  0.7971 -0.0695 -3.1380
  339SOL  OW    1015   0.772   1.053   0.549 -0.3458 -0.1512  0.0004
  339SOL  HW1   1016   0.714   0.968   0.544 -2.5172 -0.6962 -1.4150
  339SOL  HW2   1017   0.730   1.122   0.607 -2.3076 -2.7611  1.4842
  340SOL  OW    1018   1.951   2.354   2.194  0.2057  0.1042  0.1298
  340SOL  HW1   1019   2.015   2.403   2.128 -1.1690  1.2902  1.2004
  340SOL  HW2   1020   1.899   2.283   2.146  0.9400  2.0059 -0.2026
  341SOL  OW    1021   2.724   0.265   0.177  0.4979 -0.2793 -0.0594
  341SOL  HW1   1022   2.773   0.198   0.233  1.5970  0.1615 -1.0169
  341SOL  HW2   1023   2.746   0.254   0.079  2.2037 -1.9759  1.4450
  342SOL  OW    1024   2.096   1.675   2.155 -0.0460  0.1129 -0.0198
  342SOL  HW1   1025   2.162   1.756   2.139 -1.3177  0.3193 -1.9905
  342SOL  HW2   1026   2.033   1.702   2.233  0.9603  0.3471  0.0067
  343SOL  OW    1027   3.038   2.820   1.805 -0.5338  0.2954  0.2018
  343SOL  HW1   1028   2.957   2.784   1.751  1.8528  1.9132  0.4667
  343SOL  HW2   1029   0.033   2.799   1.761  0.3603 -1.7438  3.6015
  344SOL  OW    1030   2.890   1.982   1.056  0.7992 -0.2086  0.2272
  344SOL  HW1   1031   2.880   2.052   1.129  1.3253 -0.2600 -2.2914
  344SOL  HW2   1032   2.808   1.923   1.052 -0.0815 -1.0777 -1.1848
  345SOL  OW    1033   2.493   2.265   1.084  0.0911 -0.5146  0.0469
  345SOL  HW1   1034   2.550   2.259   1.001 -0.2567  2.3466 -0.7194
  345SOL  HW2   1035   2.412   2.200   1.077  0.5166 -1.1690 -0.0346
  346SOL  OW    1036   0.731   2.173   1.679 -0.3184 -0.0815 -0.7660
  346SOL  HW1   1037   0.807   2.124   1.730 -0.4177  2.3394  1.0257
  346SOL  HW2   1038   0.763   2.269   1.663 -0.0564  1.0487 -1.6412
  347SOL  OW    1039   1.644   2.373   1.269 -0.4340 -0.1137 -0.4074
  347SOL  HW1   1040   1.728   2.358   1.325 -1.6667  0.5201  1.5616
  347SOL  HW2   1041   1.565   2.369   1.334 -0.2914 -1.1163 -1.1545
  348SOL  OW    1042   1.174   1.529   1.424 -0.6006  0.2894  0.3297
  348SOL  HW1   1043   1.131   1.466   1.496 -1.3904  1.5935  1.5751
  348SOL  HW2   1044   1.106   1.545   1.353 -0.5780  0.6171 -2.9506
  349SOL  OW    1045   1.912   1.140   1.391  0.3809  0.1201 -0.4813
  349SOL  HW1   1046   1.975   1.069   1.363  1.2596  1.1673  0.3406
  349SOL  HW2   1047   1.865   1.105   1.474 -0.6962  2.7447 -2.7139
  350SOL  OW    1048   2.493   2.123   1.327 -0.8266 -0.0089 -0.5030
  350SOL  HW1   1049   2.481   2.029   1.291 -0.4437 -1.2748  1.6239
  350SOL  HW2   1050   2.485   2.199   1.256 -0.5775  1.7117 -0.2892
  351SOL  OW    1051   0.861   2.707   0.910  0.1237  0.4290 -0.5559
  351SOL  HW1   1052   0.953   2.688   0.952  0.6223 -0.9998 -2.0415
  351SOL  HW2   1053   0.853   2.805   0.881 -0.5958  0.9762 -2.3129
  352SOL  OW    1054   1.463   0.969   2.845 -0.9447  0.1642  0.1363
  352SOL  HW1   1055   1.406   0.975   2.759 -0.2603  2.6097  0.4920
  352SOL  HW2   1056   1.407   1.005   2.923 -0.3448 -1.0458 -3.0060
  353SOL  OW    1057   0.900   1.299   2.343  0.5067  0.4506 -0.7907
  353SOL  HW1   1058   0.901   1.399   2.340  2.2672  0.9928  1.3240
  353SOL  HW2   1059   0.999   1.267   2.350  1.1093  0.9087 -1.4237
  354SOL  OW    1060   1.966   0.126   1.647 -0.0355 -0.4697  0.2164
  354SOL  HW1   1061   2.051   0.115   1.587 -0.0017  2.2166 -0.7946
  354SOL  HW2   1062   1.986   0.189   1.724  0.5378  1.7582 -0.9268
  355SOL  OW    1063   2.169   1.210   2.887 -0.3974 -0.5277  0.2437
  355SOL  HW1   1064   2.077   1.253   2.871  0.6857 -1.6738  2.2612
  355SOL  HW2   1065   2.177   1.166   2.978  0.0627  2.9139 -2.9078
  356SOL  OW    1066   0.722   0.108   2.087  0.4534 -0.1257  0.2982
  356SOL  HW1   1067   0.768   0.021   2.109 -1.2392 -1.0558 -0.4744
  356SOL  HW2   1068   0.774   0.186   2.126  0.8208 -1.4032 -1.4808
  357SOL  OW    1069   0.159   0.781   2.107  0.2980 -0.1704 -0.0809
  357SOL  HW1   1070   0.234   0.841   2.142 -1.8651  0.2193 -1.8408
  357SOL  HW2   1071   0.160   0.684   2.139 -1.7346  1.2249  1.0161
  358SOL  OW    1072   0.145   2.016   1.463 -0.4679 -0.1888  0.2038
  358SOL  HW1   1073   0.090   2.088   1.410  0.6189 -0.2796 -1.6147
  358SOL  HW2   1074   0.093   1.926   1.465  0.3408  0.6744  1.8474
  359SOL  OW    1075   1.760   2.038   2.241 -0.1911  0.2100 -0.0555
  359SOL  HW1   1076   1.802   2.091   2.166  1.6555  0.1419  0.7920
  359SOL  HW2   1077   1.809   2.052   2.331  0.8691 -3.5340  0.8908
  360SOL  OW    1078   1.065   2.048   2.787 -0.2120  0.0518 -0.1564
  360SOL  HW1   1079   1.165   2.037   2.775  1.9464 -0.2679  0.8863
  360SOL  HW2   1080   1.010   2.044   2.701  0.8996 -1.6572  0.9707
  361SOL  OW    1081   2.504   0.817   0.438  0.2083  0.3262  0.2011
  361SOL  HW1   1082   2.472   0.817   0.536  1.8821 -3.3868 -3.5405
  361SOL  HW2   1083   2.542   0.910   0.422 -1.1880 -2.2461 -0.2364
  362SOL  OW    1084   1.391   0.576   1.034  0.3038 -0.1237 -0.5100
  362SOL  HW1   1085   1.354   0.553   1.128  0.5645  0.8450  0.4019
  362SOL  HW2   1086   1.403   0.493   0.974 -1.1016 -3.9354  0.4882
  363SOL  OW    1087   1.710   1.188   1.758  0.0712  0.1401 -0.1218
  363SOL  HW1   1088   1.627   1.248   1.753 -3.9516 -0.4584 -1.0386
  363SOL  HW2   1089   1.715   1.116   1.685  1.9705  3.2266 -1.9168
  364SOL  OW    1090   0.242   2.995   2.158 -0.0961  0.5261 -0.5497
  364SOL  HW1   1091   0.209   2.930   2.226 -0.6482  2.0463 -1.0538
  364SOL  HW2   1092   0.327   3.025   2.199  0.1565 -3.6040  1.9118
  365SOL  OW    1093   1.904   0.553   2.933  0.3543 -0.2676 -0.2512
  365SOL  HW1   1094   1.922   0.606   3.016  1.4884 -1.8312 -1.4168
  365SOL  HW2   1095   1.990   0.504   2.899  1.2871 -1.9537 -2.5005
  366SOL  OW    1096   2.110   1.885   2.851  0.5433  0.4886  0.1592
  366SOL  HW1   1097   2.044   1.808   2.840 -0.7994 -1.9953  1.9583
  366SOL  HW2   1098   2.205   1.852   2.862 -1.4187 -1.3311  0.4102
  367SOL  OW    1099   1.030   0.320   2.469 -0.0332  0.6790  0.0538
  367SOL  HW1   1100   1.110   0.299   2.530 -0.3717 -0.0398  2.5585
  367SOL  HW2   1101   0.970   0.386   2.524 -1.0077 -0.1173 -0.5162
  368SOL  OW    1102   0.279   1.826   1.637  0.4704  0.4774 -0.0119
  368SOL  HW1   1103   0.332   1.874   1.569 -2.1669  0.5234 -1.9873
  368SOL  HW2   1104   0.209   1.766   1.594 -2.4580 -0.8151 -1.0496
  369SOL  OW    1105   0.215   0.098   1.054 -0.0486 -0.1251 -0.0021
  369SOL  HW1   1106   0.236   0.180   1.111 -0.5164 -0.3347 -1.1934
  369SOL  HW2   1107   0.166   0.027   1.107 -0.5276  0.8067  0.9625
  370SOL  OW    1108   2.825   0.045   0.538 -0.1447  0.3963  0.2785
  370SOL  HW1   1109   2.830   3.055   0.585 -1.3146 -1.4574 -1.4255
  370SOL  HW2   1110   2.748   0.100   0.570 -0.6560 -0.1998  0.3307
  371SOL  OW    1111   0.865   3.058   1.331 -0.1976 -0.1620  0.3000
  371SOL  HW1   1112   0.796   3.013   1.272 -0.7661  1.6209  0.9372
  371SOL  HW2   1113   0.916   2.994   1.386  2.1356  0.4287  0.8385
  372SOL  OW    1114   2.205   2.792   1.648 -0.1235  0.4495 -0.0115
  372SOL  HW1   1115   2.110   2.757   1.669  0.4897 -0.4416 -1.6945
  372SOL  HW2   1116   2.212   2.846   1.563 -2.0921  0.9869  1.3223
  373SOL  OW    1117   0.030   2.547   0.652  0.6672 -0.0540 -0.0855
  373SOL  HW1   1118   0.124   2.518   0.669  0.8241  0.1894 -0.2140
  373SOL  HW2   1119   0.013   2.626   0.591  3.9643 -0.7867  0.7887
  374SOL  OW    1120   2.210   1.841   1.966  0.2040 -0.1136  0.4294
  374SOL  HW1   1121   2.297   1.858   2.014 -3.0260  1.8417  1.4023
  374SOL  HW2   1122   2.224   1.800   1.877 -1.3612 -2.6976 -0.2715
  375SOL  OW    1123   0.091   0.275   2.912  0.1272 -0.8749 -0.2112
  375SOL  HW1   1124   0.005   0.315   2.955 -0.4450 -2.1967 -2.4036
  375SOL  HW2   1125   0.073   0.270   2.813 -1.8545  0.0005 -1.0013
  376SOL  OW    1126   2.411   2.405   1.475  0.4099  1.1081 -0.4046
  376SOL  HW1   1127   2.421   2.306   1.479  4.2814  0.1557 -1.1184
  376SOL  HW2   1128   2.415   2.435   1.376  0.4829  0.6143  0.2842
  377SOL  OW    1129   0.372   3.011   2.705  0.8085 -0.0015  0.1014
  377SOL  HW1   1130   0.369   3.062   2.793  1.4794  2.1781 -2.5828
  377SOL  HW2   1131   0.278   2.987   2.665  1.6384 -1.3682 -2.8424
  378SOL  OW    1132   2.899   1.159   3.055  0.4100  0.4314 -0.3883
  378SOL  HW1   1133   2.994   1.153   3.021  0.6134 -1.4754 -1.5273
  378SOL  HW2   1134   2.846   1.238   3.017  1.0810  0.4395  0.1446
  379SOL  OW    1135   2.223   0.830   2.292 -0.2096  0.1875 -0.2310
  379SOL  HW1   1136   2.162   0.763   2.339  0.2991 -1.2704  0.0445
  379SOL  HW2   1137   2.239   0.800   2.193 -1.8930 -1.9663 -0.3845
  380SOL  OW    1138   0.728   2.003   1.451  0.4169 -0.0278  0.5331
  380SOL  HW1   1139   0.753   2.060   1.370 -1.1954  0.7008  2.0208
  380SOL  HW2   1140   0.710   2.058   1.538 -0.8610 -0.0171  1.3240
  381SOL  OW    1141   2.206   1.281   0.155  1.0784 -0.2315  0.6636
  381SOL  HW1   1142   2.252   1.201   0.113  0.0058 -2.0661 -1.3436
  381SOL  HW2   1143   2.227   1.289   0.258 -4.4733  0.4006  2.2250
  382SOL  OW    1144   1.997   1.557   1.245  0.1762  0.1279  0.3613
  382SOL  HW1   1145   2.058   1.532   1.168 -2.4801  0.9326 -1.0862
  382SOL  HW2   1146   1.915   1.607   1.213  0.1376 -1.4791  1.7110
  383SOL  OW    1147   0.709   1.504   0.563 -0.0784 -0.0796  0.1255
  383SOL  HW1   1148   0.616   1.477   0.584 -0.8313  1.3999 -1.1513
  383SOL  HW2   1149   0.709   1.530   0.467  1.4134  0.3252  0.8750
  384SOL  OW    1150   0.509   2.787   2.662 -0.2491 -0.2257 -0.0090
  384SOL  HW1   1151   0.466   2.874   2.694 -0.9212 -0.5264 -0.2481
  384SOL  HW2   1152   0.608   2.806   2.637 -0.1681  0.0114  1.1329
  385SOL  OW    1153   2.297   2.018   0.384  0.1552  0.0960  0.6126
  385SOL  HW1   1154   2.286   2.084   0.462  2.9704  2.0641  2.1169
  385SOL  HW2   1155   2.344   1.930   0.417  1.4854 -0.8513  0.7587
  386SOL  OW    1156   1.828   1.251   0.644  0.2994 -0.0033  0.2605
  386SOL  HW1   1157   1.807   1.226   0.547 -0.6893  0.6571  1.6376
  386SOL  HW2   1158   1.769   1.196   0.707  0.5481 -0.1759  2.0780
  387SOL  OW    1159   1.651   0.732   2.267  0.2539  0.2381  0.5038
  387SOL  HW1   1160   1.699   0.679   2.194 -1.4717  0.7160  4.2958
  387SOL  HW2   1161   1.719   0.802   2.303  1.5901 -0.9779 -0.5118
  388SOL  OW    1162   1.269   1.403   2.560 -0.2652 -0.2190  0.4818
  388SOL  HW1   1163   1.220   1.453   2.628  0.0166  1.9288  0.4937
  388SOL  HW2   1164   1.371   1.396   2.567  0.1345 -4.6478  0.9680
  389SOL  OW    1165   1.339   0.989   1.811  0.1528 -0.5606  1.0270
  389SOL  HW1   1166   1.333   1.085   1.835 -3.3884  2.6618  0.0993
  389SOL  HW2   1167   1.435   0.962   1.808  1.9045 -1.6901  2.6664
  390SOL  OW    1168   2.439   2.081   0.792  0.2854 -0.2309 -0.3874
  390SOL  HW1   1169   2.382   2.131   0.723 -1.9969 -0.7878 -0.9132
  390SOL  HW2   1170   2.527   2.124   0.812  1.5606  1.7264  2.8401
  391SOL  OW    1171   1.766   1.660   1.172  0.1382  0.0586  0.2212
  391SOL  HW1   1172   1.667   1.657   1.207 -0.5342 -2.2886 -1.3149
  391SOL  HW2   1173   1.765   1.673   1.072 -1.4036  0.0627  1.4914
  392SOL  OW    1174   2.442   0.033   0.761 -0.8623  0.0932  0.1022
  392SOL  HW1   1175   2.491   3.039   0.748 -1.5412  2.5801 -0.4987
  392SOL  HW2   1176   2.381   0.036   0.840 -1.4628 -3.5586 -3.0314
  393SOL  OW    1177   1.828   1.779   2.610  0.3998  0.6011  0.1470
  393SOL  HW1   1178   1.855   1.772   2.708 -0.0123 -0.0012  0.3626
  393SOL  HW2   1179   1.744   1.836   2.595  1.0406 -0.8490 -1.2289
  394SOL  OW    1180   0.107   2.279   2.858 -0.9034 -0.0580  0.5838
  394SOL  HW1   1181   0.077   2.189   2.827 -2.2697 -1.9861  2.0653
  394SOL  HW2   1182   0.184   2.307   2.803 -0.8894 -4.5935  1.3511
  395SOL  OW    1183   0.558   0.309   1.692 -0.4910 -0.8094 -0.8417
  395SOL  HW1   1184   0.496   0.375   1.735 -2.3132 -1.1808  1.8014
  395SOL  HW2   1185   0.650   0.352   1.670 -0.2349  0.4630  2.6613
  396SOL  OW    1186   2.521   3.044   0.363  0.1039  0.9282  0.2585
  396SOL  HW1   1187   2.516   0.033   0.306  0.2323 -0.5418  0.2641
  396SOL  HW2   1188   2.430   3.037   0.407  1.3876 -0.5593 -0.9628
  397SOL  OW    1189   0.181   1.124   2.119 -0.2833  0.2132 -0.0575
  397SOL  HW1   1190   0.238   1.047   2.153 -2.7406 -0.4401  0.4844
  397SOL  HW2   1191   0.217   1.215   2.143  1.0361  2.2446 -0.8320
  398SOL  OW    1192   0.754   0.044   3.023  0.1850  0.0650 -0.6618
  398SOL  HW1   1193   0.799   3.048   3.048  1.0418 -0.3296 -1.4193
  398SOL  HW2   1194   0.729   0.092   0.011  0.1405  2.1670  0.1931
  399SOL  OW    1195   1.193   0.339   0.661  0.2115 -0.5472  0.1865
  399SOL  HW1   1196   1.133   0.283   0.605  0.6809  1.2084 -1.2259
  399SOL  HW2   1197   1.275   0.286   0.683 -0.1451 -2.9114  0.0197
  400SOL  OW    1198   1.368   2.450   2.558  0.3667  0.1466  0.1080
  400SOL  HW1   1199   1.274   2.478   2.551  0.0296  0.8356  2.0387
  400SOL  HW2   1200   1.415   2.484   2.637 -1.3379  0.2612  0.8274
  401SOL  OW    1201   2.513   1.196   2.649 -0.1417 -0.4105  0.1885
  401SOL  HW1   1202   2.564   1.285   2.638  2.2005  3.1707 -0.2430
  401SOL  HW2   1203   2.556   1.125   2.591  0.3299 -3.0144 -2.3544
  402SOL  OW    1204   2.999   0.466   2.977 -0.7698  0.1395  0.3584
  402SOL  HW1   1205   2.956   0.516   2.904 -0.7893  0.3158  0.9008
  402SOL  HW2   1206   2.939   0.387   3.012 -3.3716 -1.7523 -1.1351
  403SOL  OW    1207   0.229   1.088   1.351 -0.4088  0.6407 -0.0713
  403SOL  HW1   1208   0.269   1.104   1.255  1.2736 -2.7255  0.5847
  403SOL  HW2   1209   0.292   1.126   1.424  0.7511  0.1584  0.1623
  404SOL  OW    1210   1.841   2.652   2.184  0.5610 -0.1072 -0.2108
  404SOL  HW1   1211   1.744   2.645   2.217 -1.2579 -0.3935  0.0363
  404SOL  HW2   1212   1.886   2.562   2.172  0.6351  1.8356 -0.3682
  405SOL  OW    1213   3.018   0.326   2.248 -0.4517 -0.5276 -0.3920
  405SOL  HW1   1214   2.995   0.364   2.342  1.8841 -0.1849 -0.3479
  405SOL  HW2   1215   3.041   0.226   2.249  0.7284  1.1478  0.3750
  406SOL  OW    1216   1.653   1.961   2.639  0.0714  0.5243  0.0974
  406SOL  HW1   1217   1.577   1.911   2.601  1.1401  1.7156  0.2441
  406SOL  HW2   1218   1.637   1.968   2.738  0.2915  0.6042 -0.1444
  407SOL  OW    1219   2.321   0.327   2.079 -0.4117 -0.2408 -0.7487
  407SOL  HW1   1220   2.308   0.230   2.060  0.0772  1.3312  1.3265
  407SOL  HW2   1221   2.390   0.364   2.013 -2.6486  0.8974  1.0173
  408SOL  OW    1222   0.122   2.607   2.159 -0.0147  0.5226 -0.2175
  408SOL  HW1   1223   0.035   2.632   2.116  1.1226  0.4968 -3.7422
  408SOL  HW2   1224   0.189   2.586   2.087  1.6546  1.6604  0.7868
  409SOL  OW    1225   2.148   2.473   1.191 -0.2165  0.1835  0.2940
  409SOL  HW1   1226   2.096   2.499   1.275 -0.7865  1.6755 -0.6098
  409SOL  HW2   1227   2.128   2.375   1.173 -0.9508 -0.4776  2.2343
  410SOL  OW    1228   2.025   2.613   0.590 -0.3408  0.3294 -0.1872
  410SOL  HW1   1229   1.952   2.621   0.518  1.4559  0.3807  4.1776
  410SOL  HW2   1230   2.114   2.597   0.544 -0.6187  1.5320 -1.9482
  411SOL  OW    1231   3.038   0.186   0.864 -0.0041  0.4866  0.6203
  411SOL  HW1   1232   3.042   0.178   0.764  1.7456 -0.4933 -0.3400
  411SOL  HW2   1233   3.061   0.281   0.897  3.9998 -1.5571  3.7136
  412SOL  OW    1234   1.114   2.606   1.288  0.0322  0.4648 -0.3297
  412SOL  HW1   1235   1.172   2.617   1.208 -0.6161 -2.5307  0.9401
  412SOL  HW2   1236   1.048   2.541   1.257 -0.4918 -1.2903 -1.1366
  413SOL  OW    1237   3.008   0.870   2.712 -0.0409  0.0845  0.2141
  413SOL  HW1   1238   3.072   0.932   2.661 -2.2129  0.1033  0.5736
  413SOL  HW2   1239   3.035   0.854   2.808 -2.6166 -0.1447  2.0043
  414SOL  OW    1240   2.647   1.421   2.624  0.1022  0.5036  0.1644
  414SOL  HW1   1241   2.671   1.442   2.529  0.8350 -3.0777  0.1543
  414SOL  HW2   1242   2.636   1.509   2.677 -1.3801  2.4675 -2.0272
  415SOL  OW    1243   1.291   1.678   3.044  0.1267 -0.3101  0.1282
  415SOL  HW1   1244   1.352   1.712   2.965 -0.9384 -1.5258 -0.6041
  415SOL  HW2   1245   1.196   1.707   3.029 -0.8948 -0.7402 -1.1670
  416SOL  OW    1246   0.524   2.776   2.169  0.2922 -0.3139 -0.1140
  416SOL  HW1   1247   0.491   2.851   2.108  0.4702  3.1002  1.1917
  416SOL  HW2   1248   0.617   2.800   2.192  0.3474  2.1230 -1.9304
  417SOL  OW    1249   3.078   0.700   1.431 -1.0297  0.1130  0.1475
  417SOL  HW1   1250   3.014   0.749   1.364  1.1486  1.6662  0.4955
  417SOL  HW2   1251   3.070   0.597   1.428 -3.4154  0.4568 -3.9971
  418SOL  OW    1252   0.569   2.921   1.899  0.6825 -0.3913 -0.0298
  418SOL  HW1   1253   0.487   2.866   1.870 -0.9203  0.1274 -2.3442
  418SOL  HW2   1254   0.565   3.016   1.872 -1.8565 -0.1643 -4.5351
  419SOL  OW    1255   1.001   0.078   2.849 -0.2307  0.1897  0.1408
  419SOL  HW1   1256   1.025   0.065   2.948 -2.7516  2.2289 -0.8541
  419SOL  HW2   1257   0.925   0.140   2.838  1.4570  2.3656 -0.1585
  420SOL  OW    1258   2.704   1.933   2.113  0.3502  0.5520 -0.4888
  420SOL  HW1   1259   2.793   1.879   2.104  0.8056 -0.0448 -0.4141
  420SOL  HW2   1260   2.714   2.028   2.076 -0.7819  1.2523 -0.4066
  421SOL  OW    1261   2.039   2.331   0.644  0.3482  0.0073  0.4029
  421SOL  HW1   1262   2.022   2.430   0.620  2.3732  0.3572  1.5517
  421SOL  HW2   1263   2.041   2.316   0.746  0.5963 -1.3671  0.1560
  422SOL  OW    1264   2.895   0.096   1.883 -0.3075  0.0324  0.6120
  422SOL  HW1   1265   2.976   0.040   1.883  1.4203 -0.4536 -3.7422
  422SOL  HW2   1266   2.914   0.185   1.831 -1.6861 -0.9050  1.1661
  423SOL  OW    1267   0.642   2.031   2.571 -0.2020 -0.5487  0.1230
  423SOL  HW1   1268   0.591   2.042   2.485  1.9742  0.3426  1.2807
  423SOL  HW2   1269   0.614   2.104   2.637 -0.1870 -2.4739 -1.4004
  424SOL  OW    1270   2.481   2.032   2.507  0.0936 -0.4402 -0.0048
  424SOL  HW1   1271   2.460   2.111   2.447 -1.1071  1.6641 -0.1556
  424SOL  HW2   1272   2.428   1.947   2.482  1.9010  1.9162 -0.9721
  425SOL  OW    1273   3.089   0.039   2.246 -0.3421 -0.1800 -0.8043
  425SOL  HW1   1274   0.070   3.087   2.194  0.8366  1.2692  2.6245
  425SOL  HW2   1275   3.000   3.091   2.222 -0.0309  0.9808 -3.2735
  426SOL  OW    1276   2.712   2.760   2.068 -0.0353  0.0054  0.2834
  426SOL  HW1   1277   2.676   2.772   1.974  2.1128  1.7308  0.0069
  426SOL  HW2   1278   2.660   2.683   2.114 -0.1805 -1.7123 -0.6311
  427SOL  OW    1279   0.551   2.994   0.925 -0.8987  0.0041  0.0390
  427SOL  HW1   1280   0.584   3.030   1.009 -1.7302 -0.9537  2.0448
  427SOL  HW2   1281   0.485   2.916   0.936 -0.0502  1.2091  0.9225
  428SOL  OW    1282   0.215   1.364   1.760 -0.2652  0.0434  0.3842
  428SOL  HW1   1283   0.177   1.446   1.807 -1.1466  1.0511 -0.9764
  428SOL  HW2   1284   0.173   1.280   1.802  2.9676  1.1832  2.6284
  429SOL  OW    1285   1.187   2.388   0.305  0.2891 -0.0946 -0.2753
  429SOL  HW1   1286   1.222   2.468   0.361 -0.2252 -2.3191 -1.5807
  429SOL  HW2   1287   1.127   2.423   0.236  0.7503  1.6039  0.6099
  430SOL  OW    1288   0.626   2.413   0.505  0.3302  0.6302  0.3307
  430SOL  HW1   1289   0.694   2.430   0.579  0.1279  1.1632 -0.4198
  430SOL  HW2   1290   0.542   2.355   0.540 -1.3369  1.4048 -1.9895
  431SOL  OW    1291   0.042   1.568   1.875 -0.4161 -0.0056  0.2048
  431SOL  HW1   1292   0.061   1.659   1.909 -1.3242 -2.2090 -0.6822
  431SOL  HW2   1293   3.090   1.576   1.782  0.0781 -3.1375  1.0305
  432SOL  OW    1294   1.079   1.801   2.947  0.4155 -0.3350  0.1991
  432SOL  HW1   1295   0.985   1.781   2.983  0.7862  0.4917  5.3494
  432SOL  HW2   1296   1.087   1.901   2.917 -0.9862  1.0362  0.1112
  433SOL  OW    1297   0.873   0.251   2.265 -0.1031  0.2837  0.2475
  433SOL  HW1   1298   0.931   0.259   2.349 -0.7491 -1.7623  1.6099
  433SOL  HW2   1299   0.887   0.328   2.199  0.1045 -0.5516 -0.8176
  434SOL  OW    1300   1.098   2.565   2.888 -0.3431  0.1588 -0.7824
  434SOL  HW1   1301   1.127   2.569   2.791 -0.1904  0.6639  0.0749
  434SOL  HW2   1302   1.022   2.628   2.906  0.1233  1.8239  3.6866
  435SOL  OW    1303   2.711   3.035   0.041 -0.2367  0.0375 -0.0001
  435SOL  HW1   1304   2.780   3.057   3.068  1.0272  0.8931  1.8620
  435SOL  HW2   1305   2.739   3.080   0.128 -1.3256 -1.2879 -1.2593
  436SOL  OW    1306   0.909   1.998   2.560 -0.2189  0.1248  0.1835
  436SOL  HW1   1307   0.949   2.053   2.486 -0.6395  0.4776 -2.0559
  436SOL  HW2   1308   0.809   2.014   2.569  0.8447  2.6220 -1.1886
  437SOL  OW    1309   1.353   2.177   2.552  0.0563 -0.2759  0.6046
  437SOL  HW1   1310   1.366   2.276   2.561 -0.3621  0.9963 -0.2823
  437SOL  HW2   1311   1.417   2.136   2.482  0.1922  1.6047  0.3478
  438SOL  OW    1312   0.835   0.595   0.731 -0.1957  0.1556 -0.4042
  438SOL  HW1   1313   0.843   0.507   0.680  0.3809 -0.3883  2.4723
  438SOL  HW2   1314   0.739   0.629   0.726 -0.2576 -0.0649 -0.2235
  439SOL  OW    1315   2.478   1.462   2.362 -0.5996  0.2275  0.2072
  439SOL  HW1   1316   2.433   1.370   2.336 -1.3473  2.2199 -0.6825
  439SOL  HW2   1317   2.582   1.458   2.372  3.3431  1.4577 -0.3704
  440SOL  OW    1318   2.977   1.312   2.465 -0.5131 -0.0950 -0.0482
  440SOL  HW1   1319   3.025   1.399   2.475  2.5494 -0.1711 -1.8413
  440SOL  HW2   1320   3.015   1.245   2.398 -1.1743  0.2610 -0.0567
  441SOL  OW    1321   0.628   1.582   2.439  0.3715 -0.0929 -0.4867
  441SOL  HW1   1322   0.623   1.651   2.518  0.3139  2.3700 -1.8812
  441SOL  HW2   1323   0.571   1.606   2.358  2.9057  0.8381  0.0735
  442SOL  OW    1324   1.947   1.914   0.487 -0.1863  0.2152 -0.0665
  442SOL  HW1   1325   1.965   1.905   0.383  2.6768  0.6963 -2.4537
  442SOL  HW2   1326   1.932   2.012   0.509 -1.8023  0.9820  0.8612
  443SOL  OW    1327   0.198   2.709   1.113  0.4702 -0.1412 -0.1809
  443SOL  HW1   1328   0.151   2.800   1.100 -1.3493 -0.0883 -2.3975
  443SOL  HW2   1329   0.287   2.715   1.068  0.1313 -0.2466  1.3670
  444SOL  OW    1330   1.537   1.439   1.793 -0.5595 -0.0441  0.0499
  444SOL  HW1   1331   1.484   1.529   1.809 -0.3680 -0.4456  1.7930
  444SOL  HW2   1332   1.580   1.440   1.703 -1.5912 -0.2762 -1.5512
  445SOL  OW    1333   2.949   2.363   2.513  0.5204 -0.3448 -0.0769
  445SOL  HW1   1334   3.017   2.377   2.436  3.4415  0.3422 -2.2942
  445SOL  HW2   1335   2.993   2.401   2.598  1.2636 -0.0072 -0.0869
  446SOL  OW    1336   0.555   0.569   2.347  0.2402 -0.0583 -0.1848
  446SOL  HW1   1337   0.456   0.557   2.345 -0.0007  0.9178 -1.1772
  446SOL  HW2   1338   0.591   0.573   2.250 -1.0967 -2.2699 -0.2547
  447SOL  OW    1339   0.844   0.858   1.074 -0.0398  0.0215  0.1878
  447SOL  HW1   1340   0.744   0.834   1.082  0.3388 -2.8732 -0.0090
  447SOL  HW2   1341   0.894   0.789   1.018  0.2636 -0.2939 -1.4312
  448SOL  OW    1342   2.190   0.709   2.039  0.8983  0.6340  0.4167
  448SOL  HW1   1343   2.114   0.773   2.018 -0.4430 -0.8735 -1.5334
  448SOL  HW2   1344   2.151   0.618   2.062  2.1732  0.0080  1.6397
  449SOL  OW    1345   2.286   1.461   2.906  0.1280  0.3812  0.2127
  449SOL  HW1   1346   2.246   1.497   2.993  0.6388 -0.1013 -0.1374
  449SOL  HW2   1347   2.275   1.362   2.893  0.9204 -0.7249 -0.5098
  450SOL  OW    1348   1.564   2.071   1.481 -0.2721 -0.2585 -0.2207
  450SOL  HW1   1349   1.667   2.084   1.485 -2.0720 -0.5027  1.7555
  450SOL  HW2   1350   1.515   2.158   1.490 -1.1890  0.5673  1.7198
  451SOL  OW    1351   1.451   1.162   0.773  1.1968 -0.0759  0.0339
  451SOL  HW1   1352   1.421   1.215   0.858 -0.8703 -0.5817 -0.1069
  451SOL  HW2   1353   1.440   1.226   0.691 -0.2045  0.2349 -0.6334
  452SOL  OW    1354   0.563   0.875   1.083 -0.0361  0.5597  0.2150
  452SOL  HW1   1355   0.556   0.917   0.992 -2.8455  1.4073 -0.8097
  452SOL  HW2   1356   0.485   0.807   1.102 -0.8379 -0.0926 -1.5846
  453SOL  OW    1357   0.689   1.837   1.825  0.0301 -0.0456 -0.1377
  453SOL  HW1   1358   0.749   1.909   1.787  0.1958 -1.4356 -2.5399
  453SOL  HW2   1359   0.661   1.771   1.747 -1.3311  1.5923 -1.4341
  454SOL  OW    1360   1.353   0.492   0.291  0.3919  0.2539  0.4376
  454SOL  HW1   1361   1.399   0.500   0.383 -0.2023 -0.6077 -0.2077
  454SOL  HW2   1362   1.375   0.575   0.234 -0.6784  1.3411  1.2946
  455SOL  OW    1363   1.197   0.449   1.573 -0.0727 -0.2396  0.3665
  455SOL  HW1   1364   1.214   0.548   1.589  0.2172 -0.8879 -0.4649
  455SOL  HW2   1365   1.101   0.426   1.604  0.2453 -0.6840  0.5348
  456SOL  OW    1366   1.798   2.995   0.446  0.4303  0.0110 -0.0875
  456SOL  HW1   1367   1.846   2.970   0.534  1.0911  0.5895 -0.3783
  456SOL  HW2   1368   1.700   3.010   0.464  0.6273 -0.2669  2.3222
  457SOL  OW    1369   1.906   0.560   1.648  0.1408 -0.9909 -0.3452
  457SOL  HW1   1370   1.985   0.609   1.615 -2.0789 -0.9850 -3.2715
  457SOL  HW2   1371   1.941   0.487   1.711  0.1701 -1.4396  4.4191
  458SOL  OW    1372   2.299   0.418   1.723  0.9399 -0.1210 -0.1783
  458SOL  HW1   1373   2.327   0.466   1.642  1.6903 -0.7832 -2.0543
  458SOL  HW2   1374   2.375   0.380   1.776  0.5070  0.3540  1.3645
  459SOL  OW    1375   2.734   2.410   2.350  0.2277 -0.3208  0.1105
  459SOL  HW1   1376   2.785   2.425   2.263  2.4988 -0.0825 -1.9560
  459SOL  HW2   1377   2.797   2.392   2.434  0.2362 -1.1176  1.5458
  460SOL  OW    1378   1.535   1.141   2.113 -0.0390  0.5666  0.1614
  460SOL  HW1   1379   1.552   1.217   2.178 -2.1713  1.9127  3.1784
  460SOL  HW2   1380   1.475   1.164   2.037  0.9998 -1.4931  0.0967
  461SOL  OW    1381   0.690   2.534   0.097 -0.7131 -0.1613  0.1179
  461SOL  HW1   1382   0.719   2.546   0.001  1.4105  0.2532 -1.4973
  461SOL  HW2   1383   0.700   2.613   0.158 -0.8158  2.0772  0.8116
  462SOL  OW    1384   2.093   0.033   2.372 -0.3477  0.0871 -0.5084
  462SOL  HW1   1385   2.151   0.110   2.351 -0.2880  0.6868 -0.9535
  462SOL  HW2   1386   2.146   3.059   2.424  2.9820 -1.9684 -0.0871
  463SOL  OW    1387   1.933   2.762   1.730 -0.0677  0.2813  0.0430
  463SOL  HW1   1388   1.930   2.790   1.829 -0.1412  1.9117  1.6046
  463SOL  HW2   1389   1.934   2.661   1.724  3.8784  0.5995 -0.8278
  464SOL  OW    1390   2.679   2.518   1.147 -0.2613  0.2845 -0.6549
  464SOL  HW1   1391   2.687   2.507   1.042  1.2570  2.8384 -1.8489
  464SOL  HW2   1392   2.585   2.516   1.183 -1.2550  0.9472 -1.2396
  465SOL  OW    1393   2.439   2.779   1.125  0.4199 -0.5897  0.7787
  465SOL  HW1   1394   2.493   2.853   1.172  2.8912 -1.9396  0.3500
  465SOL  HW2   1395   2.429   2.692   1.180  0.2226 -3.6454  0.3167
  466SOL  OW    1396   0.854   3.043   2.462  0.3023  0.1797  0.5586
  466SOL  HW1   1397   0.841   0.043   2.496 -0.7260 -0.3047 -0.0078
  466SOL  HW2   1398   0.908   3.042   2.373  0.6836 -3.1304  0.1919
  467SOL  OW    1399   0.422   2.261   0.591  0.2747 -0.1947 -0.8075
  467SOL  HW1   1400   0.360   2.228   0.513  1.0305 -1.5540 -1.4965
  467SOL  HW2   1401   0.471   2.183   0.634  2.0480  0.1746 -0.0223
  468SOL  OW    1402   2.819   2.033   0.660  0.0601 -0.4278  0.5465
  468SOL  HW1   1403   2.731   2.006   0.621  0.2646  2.4765  1.5652
  468SOL  HW2   1404   2.883   2.059   0.576  3.1838 -2.3677  2.0022
  469SOL  OW    1405   0.529   1.829   0.553  0.2657  0.3027 -0.1664
  469SOL  HW1   1406   0.476   1.784   0.627 -0.6542  3.8604  0.5692
  469SOL  HW2   1407   0.472   1.846   0.468  4.0439  1.0840  2.5994
  470SOL  OW    1408   1.471   2.981   0.903 -0.3705  0.2398 -0.3254
  470SOL  HW1   1409   1.546   2.941   0.843  1.4044  0.8387  3.6791
  470SOL  HW2   1410   1.459   2.927   0.991 -3.2088  0.5822 -1.2896
  471SOL  OW    1411   2.820   2.392   0.155 -0.1792  0.8267  0.0911
  471SOL  HW1   1412   2.717   2.400   0.164  1.5938 -0.1333  0.1691
  471SOL  HW2   1413   2.872   2.450   0.226 -0.1202 -0.0407  0.0513
  472SOL  OW    1414   0.156   1.751   0.388 -1.0297  0.4082  0.0536
  472SOL  HW1   1415   0.246   1.703   0.394  0.4639 -1.5437  1.5124
  472SOL  HW2   1416   0.148   1.804   0.299  0.3638 -0.7397  1.4164
  473SOL  OW    1417   0.680   2.550   1.355  0.2034  0.1268 -0.2435
  473SOL  HW1   1418   0.677   2.625   1.423  1.9020 -3.0777  0.6321
  473SOL  HW2   1419   0.603   2.487   1.367 -1.4822  0.1185  1.8576
  474SOL  OW    1420   3.018   2.989   1.402  0.4403  0.5311 -0.1482
  474SOL  HW1   1421   3.039   3.047   1.485 -0.4339 -1.3601  1.2693
  474SOL  HW2   1422   2.933   2.937   1.413 -0.2464 -0.1488 -0.4201
  475SOL  OW    1423   0.574   0.302   1.239 -0.0388  0.4407 -0.5137
  475SOL  HW1   1424   0.671   0.266   1.221 -0.4487  0.5469 -0.3147
  475SOL  HW2   1425   0.572   0.400   1.269  1.2871  0.0306 -1.3760
  476SOL  OW    1426   0.852   3.016   0.585  0.6475 -0.2881 -0.5155
  476SOL  HW1   1427   0.912   0.003   0.578 -0.4729  3.7431  3.0704
  476SOL  HW2   1428   0.767   3.047   0.550 -1.1363  0.8945 -0.8350
  477SOL  OW    1429   0.751   2.766   1.522  0.2803 -0.2104  0.1682
  477SOL  HW1   1430   0.759   2.781   1.624 -0.0883  0.9298 -1.9637
  477SOL  HW2   1431   0.834   2.792   1.468 -2.6119 -1.7851 -1.9183
  478SOL  OW    1432   1.128   1.952   2.171 -0.1910  1.0544  0.2780
  478SOL  HW1   1433   1.087   2.023   2.111  0.2820 -0.1120  0.1526
  478SOL  HW2   1434   1.089   1.861   2.144 -0.2951  1.0984  1.9420
  479SOL  OW    1435   2.126   0.833   1.074 -0.1414 -0.1196  0.4827
  479SOL  HW1   1436   2.156   0.918   1.026  0.7188  1.7635  0.6674
  479SOL  HW2   1437   2.200   0.756   1.092 -0.1708 -2.1281 -0.5017
  480SOL  OW    1438   1.944   2.294   2.771 -0.3703 -0.1510 -0.3050
  480SOL  HW1   1439   2.020   2.225   2.766 -0.0164  1.0601 -1.0252
  480SOL  HW2   1440   1.861   2.249   2.814  2.7450  0.0963  3.9419
  481SOL  OW    1441   0.977   1.989   1.152 -0.0126  0.0552 -0.0205
  481SOL  HW1   1442   1.031   1.964   1.238 -0.4918 -0.3288 -1.3378
  481SOL  HW2   1443   0.900   2.052   1.180 -0.5334  1.7676 -1.3665
  482SOL  OW    1444   1.373   2.445   1.695 -0.2304  0.2928 -0.6390
  482SOL  HW1   1445   1.291   2.498   1.733  0.5319 -0.4165 -0.1173
  482SOL  HW2   1446   1.458   2.505   1.691 -1.2190  1.1838 -0.7580
  483SOL  OW    1447   0.552   0.975   2.021 -0.1347  0.3553  0.0512
  483SOL  HW1   1448   0.583   1.074   2.006 -2.2785  1.0801 -0.5521
  483SOL  HW2   1449   0.633   0.921   2.048  1.7033 -0.2679 -2.1406
  484SOL  OW    1450   2.275   0.015   1.026 -0.2450  0.6078 -0.4982
  484SOL  HW1   1451   2.204   0.083   1.011 -1.4133 -1.9190 -0.7723
  484SOL  HW2   1452   2.235   3.015   1.040  0.1674 -2.1520  1.8412
  485SOL  OW    1453   2.270   3.058   0.469  0.3068  0.1218 -0.1725
  485SOL  HW1   1454   2.253   2.977   0.528  2.0032  0.8298 -0.0194
  485SOL  HW2   1455   2.272   0.049   0.522  1.3136 -3.3746  0.0026
  486SOL  OW    1456   2.105   2.806   0.357 -0.3015 -0.5058 -0.3167
  486SOL  HW1   1457   2.002   2.785   0.345  1.2520  1.5521 -1.1589
  486SOL  HW2   1458   2.121   2.852   0.449  1.4911 -0.3853  0.9395
  487SOL  OW    1459   1.511   1.681   1.272  0.1028 -0.0516  0.3827
  487SOL  HW1   1460   1.475   1.590   1.312 -1.2346 -0.9013  0.2871
  487SOL  HW2   1461   1.483   1.691   1.177 -1.4826 -1.8122 -1.0466
  488SOL  OW    1462   2.220   2.732   2.055  0.4292 -0.1168 -0.3487
  488SOL  HW1   1463   2.147   2.803   2.054  0.0610 -0.9680 -1.7640
  488SOL  HW2   1464   2.254   2.702   2.149  0.5070  1.1146 -0.7298
  489SOL  OW    1465   1.108   2.150   0.376  0.4292  0.0924 -1.1017
  489SOL  HW1   1466   1.126   2.122   0.473 -0.3566  1.9620  2.4243
  489SOL  HW2   1467   1.160   2.234   0.341 -0.2125 -2.0725  1.9057
  490SOL  OW    1468   1.269   0.193   2.825 -0.1141  0.1892  0.2009
  490SOL  HW1   1469   1.206   0.129   2.871 -0.9095  0.8715 -1.8276
  490SOL  HW2   1470   1.241   0.225   2.730 -0.1495 -1.5670  1.2124
  491SOL  OW    1471   1.218   0.119   1.905 -0.3306 -0.5770  0.2309
  491SOL  HW1   1472   1.192   0.220   1.887  1.8826  2.1900  0.5412
  491SOL  HW2   1473   1.301   0.095   1.849 -0.9918 -1.5038 -1.1171
  492SOL  OW    1474   1.856   2.119   0.041  0.1473  0.2376  0.6068
  492SOL  HW1   1475   1.813   2.152   3.050  4.1588 -1.3788 -2.0321
  492SOL  HW2   1476   1.808   2.037   0.085  0.8514 -1.1963  1.3123
  493SOL  OW    1477   1.655   2.438   0.366  0.5746  0.1362 -0.0874
  493SOL  HW1   1478   1.572   2.414   0.314 -2.2168 -3.2813  1.9220
  493SOL  HW2   1479   1.731   2.396   0.318 -2.6456  0.8749  0.1366
  494SOL  OW    1480   0.630   0.969   0.081 -0.5738  0.5938 -0.4802
  494SOL  HW1   1481   0.582   0.885   0.048  0.2238  0.5889  0.4808
  494SOL  HW2   1482   0.607   0.984   0.179 -2.0760 -0.0091 -2.2293
  495SOL  OW    1483   2.612   0.461   1.480 -0.1219 -0.0708 -0.2644
  495SOL  HW1   1484   2.645   0.488   1.577 -1.6696 -0.6158 -0.8394
  495SOL  HW2   1485   2.678   0.492   1.406 -1.3031  0.4272 -2.9729
  496SOL  OW    1486   2.271   2.383   2.480  0.2228 -0.0397 -0.0859
  496SOL  HW1   1487   2.359   2.346   2.445 -1.6281 -0.0695 -1.2889
  496SOL  HW2   1488   2.300   2.431   2.565 -0.6223 -0.8201 -2.1998
  497SOL  OW    1489   1.960   1.404   0.000 -0.5675  0.3674 -0.2335
  497SOL  HW1   1490   2.046   1.459   0.025  4.2169  0.0702  1.2387
  497SOL  HW2   1491   1.948   1.390   2.990 -1.7635  1.2616  0.9909
  498SOL  OW    1492   1.029   1.763   1.703 -0.2086 -0.1992  0.4488
  498SOL  HW1   1493   1.125   1.751   1.667 -1.4007 -1.9909  2.1710
  498SOL  HW2   1494   0.962   1.759   1.624 -0.9019 -0.2385  0.9803
  499SOL  OW    1495   2.990   2.215   1.645 -0.3303  0.1368 -0.2223
  499SOL  HW1   1496   3.034   2.215   1.554 -0.2995 -0.6189 -2.9078
  499SOL  HW2   1497   2.960   2.308   1.674  1.9940 -0.4453  1.1169
  500SOL  OW    1498   0.886   2.763   2.850 -0.3546  0.3121 -0.5949
  500SOL  HW1   1499   0.823   2.689   2.878 -1.9265 -0.8735 -0.2318
  500SOL  HW2   1500   0.848   2.804   2.763 -0.2540  0.0555 -2.6201
  501SOL  OW    1501   1.425   1.786   2.833 -0.6922  0.2325 -0.1400
  501SOL  HW1   1502   1.475   1.758   2.750  1.0284  0.7221 -1.9198
  501SOL  HW2   1503   1.386   1.878   2.811 -0.3673 -0.3291 -1.2832
  502SOL  OW    1504   0.486   0.612   1.702  0.3511 -0.4425 -0.4415
  502SOL  HW1   1505   0.455   0.698   1.753 -0.7928 -1.3888 -1.0544
  502SOL  HW2   1506   0.435   0.597   1.616  0.1776  0.3085  1.9092
  503SOL  OW    1507   0.300   2.540   1.976  0.1253 -0.8043 -0.5102
  503SOL  HW1   1508   0.273   2.454   1.930  0.3804  1.5764  0.3987
  503SOL  HW2   1509   0.392   2.532   2.016  0.4991 -0.8010 -3.5495
  504SOL  OW    1510   1.770   0.960   1.057 -0.1351 -0.7187 -0.1048
  504SOL  HW1   1511   1.716   0.874   1.054 -2.4207 -0.3570 -1.4860
  504SOL  HW2   1512   1.866   0.928   1.063  0.7124  0.8553  1.4718
  505SOL  OW    1513   2.008   2.540   2.664 -0.4552  0.0882  0.7688
  505SOL  HW1   1514   1.989   2.443   2.695 -0.7175 -3.3507 -0.8874
  505SOL  HW2   1515   2.073   2.596   2.725  0.6017 -1.7682 -0.4426
  506SOL  OW    1516   2.859   2.446   1.703  0.6623  0.6574 -0.4699
  506SOL  HW1   1517   2.843   2.540   1.656  1.4364  0.9855  0.4179
  506SOL  HW2   1518   2.780   2.399   1.748  1.4397  0.2962  3.1692
  507SOL  OW    1519   1.676   2.610   1.161  0.0166  0.3449  0.4176
  507SOL  HW1   1520   1.665   2.514   1.187  3.1402  1.7613  0.9753
  507SOL  HW2   1521   1.724   2.668   1.226 -1.3256  0.7895 -1.0001
  508SOL  OW    1522   2.044   0.914   1.723 -0.1884  0.1606  0.3359
  508SOL  HW1   1523   2.109   0.994   1.727  1.7850  0.9472 -0.6957
  508SOL  HW2   1524   2.022   0.886   1.815 -3.5352 -1.3820 -2.3060
  509SOL  OW    1525   0.867   1.735   3.078 -0.0542 -0.2754  0.0735
  509SOL  HW1   1526   0.923   1.676   0.046 -0.0729  2.5158 -2.5081
  509SOL  HW2   1527   0.830   1.815   0.031  0.1429 -2.2935 -1.8422
  510SOL  OW    1528   0.626   0.560   1.017  0.7750  0.8648  0.7787
  510SOL  HW1   1529   0.629   0.623   0.938 -1.7658  2.4411  1.4168
  510SOL  HW2   1530   0.654   0.465   0.989 -4.1847  0.5384 -1.4011
  511SOL  OW    1531   1.278   0.698   1.555 -0.0040 -0.2598 -0.9902
  511SOL  HW1   1532   1.338   0.755   1.497  2.6872 -2.8016  1.8392
  511SOL  HW2   1533   1.218   0.758   1.611 -1.6904  0.4603 -0.7202
  512SOL  OW    1534   2.877   2.619   1.297  0.7587 -0.2187  0.0406
  512SOL  HW1   1535   2.809   2.568   1.247  1.5422 -0.6864 -1.0871
  512SOL  HW2   1536   2.951   2.562   1.338  1.6145 -1.8098  0.4062
  513SOL  OW    1537   0.146   2.489   0.975 -0.9042 -0.0281  0.4672
  513SOL  HW1   1538   0.188   2.562   1.029  0.4738  0.8662 -0.7370
  513SOL  HW2   1539   0.190   2.486   0.881  1.9490  1.2500 -0.0577
  514SOL  OW    1540   0.378   0.318   0.377  0.2139 -0.4998 -0.1461
  514SOL  HW1   1541   0.462   0.309   0.439  0.6775 -0.4652 -1.0813
  514SOL  HW2   1542   0.300   0.277   0.431  0.6558 -0.0463 -3.1698
  515SOL  OW    1543   0.192   0.498   0.192  0.0471 -0.2165  0.0610
  515SOL  HW1   1544   0.268   0.567   0.177  1.1768  2.0026 -0.4121
  515SOL  HW2   1545   0.214   0.423   0.255  1.8485  0.5781 -1.5261
  516SOL  OW    1546   1.255   2.617   0.434  0.2559 -0.1208  0.1657
  516SOL  HW1   1547   1.241   2.697   0.376  2.8951 -1.4231  1.2380
  516SOL  HW2   1548   1.331   2.622   0.505 -1.1210  0.2783 -1.0213
  517SOL  OW    1549   1.820   2.652   0.406  0.0774 -0.2490 -0.5392
  517SOL  HW1   1550   1.753   2.572   0.407 -1.3383 -0.1231  1.3575
  517SOL  HW2   1551   1.792   2.721   0.330  0.9966 -2.0310 -1.1391
  518SOL  OW    1552   1.686   1.942   0.144  0.7931 -0.2981  0.0614
  518SOL  HW1   1553   1.740   1.858   0.172  1.3983  2.8555 -1.3292
  518SOL  HW2   1554   1.656   1.995   0.229 -2.0777  0.8771 -1.0267
  519SOL  OW    1555   2.990   2.163   0.225 -0.3093  0.2098  0.3700
  519SOL  HW1   1556   3.066   2.149   0.157 -1.2480  1.6233 -1.2165
  519SOL  HW2   1557   2.950   2.258   0.209 -1.4919  1.8565 -0.5098
  520SOL  OW    1558   1.719   2.531   1.853 -0.1179 -0.9305  0.1619
  520SOL  HW1   1559   1.816   2.519   1.831 -1.0793 -0.3426 -1.0613
  520SOL  HW2   1560   1.668   2.440   1.865  1.7111 -0.6396  1.0839
  521SOL  OW    1561   1.919   2.831   1.998  0.0689 -0.2527 -1.1461
  521SOL  HW1   1562   1.891   2.771   2.069 -0.4895  0.7350  0.0506
  521SOL  HW2   1563   1.957   2.921   2.034 -1.3116  1.5494 -3.1312
  522SOL  OW    1564   0.021   2.477   1.415  0.1255  0.4948  0.3507
  522SOL  HW1   1565   0.099   2.527   1.377  1.9288  0.4605 -1.3278
  522SOL  HW2   1566   0.025   2.480   1.518 -0.5649 -2.5751  2.7081
  523SOL  OW    1567   2.561   2.747   2.474 -0.2212  0.5805 -0.7270
  523SOL  HW1   1568   2.567   2.729   2.374  0.6427 -3.6107  1.0449
  523SOL  HW2   1569   2.584   2.840   2.499  0.3576 -1.4264 -2.4006
  524SOL  OW    1570   1.892   2.342   0.225  0.5954 -0.0225 -0.3929
  524SOL  HW1   1571   1.965   2.417   0.219  2.0502  0.0410 -1.1404
  524SOL  HW2   1572   1.888   2.286   0.135 -1.0383 -1.1607  0.6081
  525SOL  OW    1573   1.962   0.832   0.473 -0.5902 -0.1638  0.4200
  525SOL  HW1   1574   2.028   0.823   0.550 -1.3414 -0.7313  1.8126
  525SOL  HW2   1575   1.868   0.850   0.503 -1.3252 -1.0780  0.4174
  526SOL  OW    1576   0.270   2.792   0.081 -0.3754 -0.6553 -0.3562
  526SOL  HW1   1577   0.312   2.717   0.027 -2.9222 -1.0419  0.1936
  526SOL  HW2   1578   0.261   2.767   0.182 -0.8180  0.3114 -1.1686
  527SOL  OW    1579   0.166   1.391   1.045  1.2688  0.1524 -0.3186
  527SOL  HW1   1580   0.068   1.379   1.060  0.8914 -1.2361 -1.2043
  527SOL  HW2   1581   0.223   1.312   1.086  3.1473  2.0069 -0.9561
  528SOL  OW    1582   0.498   1.481   2.839 -0.0780  0.2930 -0.5558
  528SOL  HW1   1583   0.581   1.538   2.834 -1.0086 -0.0890  0.2656
  528SOL  HW2   1584   0.484   1.416   2.761 -0.2806  1.7667 -0.5192
  529SOL  OW    1585   1.405   0.728   0.141  0.0077 -0.3780 -0.5848
  529SOL  HW1   1586   1.312   0.761   0.167  2.6576 -2.5019 -1.4454
  529SOL  HW2   1587   1.399   0.698   0.045  2.4710  0.4045  0.1895
  530SOL  OW    1588   1.683   0.166   2.242  0.1807 -0.0483  0.2788
  530SOL  HW1   1589   1.716   0.122   2.331  1.8432  0.1444 -0.8050
  530SOL  HW2   1590   1.633   0.101   2.182  0.1742 -1.1543 -0.0534
  531SOL  OW    1591   1.158   1.127   0.323  0.1931 -0.3939 -0.1717
  531SOL  HW1   1592   1.165   1.069   0.408  2.2101  0.5602 -4.2966
  531SOL  HW2   1593   1.061   1.149   0.304  2.6067  0.5596 -3.1142
  532SOL  OW    1594   2.803   0.904   0.282  0.6333  0.2180  0.0276
  532SOL  HW1   1595   2.768   0.850   0.202 -0.0613  1.6409  1.3306
  532SOL  HW2   1596   2.728   0.940   0.340 -0.3172  1.2510 -0.0027
  533SOL  OW    1597   0.563   0.096   1.853  0.2117 -0.5427  0.2218
  533SOL  HW1   1598   0.632   0.106   1.927  0.5365 -0.9537  0.1044
  533SOL  HW2   1599   0.593   0.159   1.783  1.4786 -1.4097  2.6323
  534SOL  OW    1600   2.561   0.011   2.780 -0.6823 -0.0128  0.0039
  534SOL  HW1   1601   2.533   3.083   2.871  1.8596 -0.1956  1.2066
  534SOL  HW2   1602   2.630   0.089   2.779  0.8472  0.3772 -0.7518
  535SOL  OW    1603   0.899   1.040   2.763  0.0613 -0.7854  0.2705
  535SOL  HW1   1604   0.875   0.940   2.762  0.3336 -1.6246  0.9202
  535SOL  HW2   1605   0.818   1.093   2.808  0.8671 -1.1244 -0.4233
  536SOL  OW    1606   0.871   2.788   0.446  0.0210 -0.1963  0.5400
  536SOL  HW1   1607   0.924   2.722   0.502 -0.5067  0.2612 -2.2312
  536SOL  HW2   1608   0.866   2.880   0.499 -0.2308  1.6852 -0.8681
  537SOL  OW    1609   2.681   0.157   1.428 -0.0028 -0.2260 -0.3128
  537SOL  HW1   1610   2.743   0.122   1.354 -1.5150 -0.4413 -2.3639
  537SOL  HW2   1611   2.586   0.172   1.402 -0.5388  2.2958 -3.1788
  538SOL  OW    1612   0.844   1.743   1.085  0.5054  0.0088 -0.2308
  538SOL  HW1   1613   0.880   1.839   1.114 -0.1570 -0.8808  2.7275
  538SOL  HW2   1614   0.755   1.744   1.039 -1.3678 -0.2701  0.5782
  539SOL  OW    1615   1.568   0.638   1.880  0.3630 -0.6640  0.6488
  539SOL  HW1   1616   1.618   0.619   1.965  1.6096  0.8125  0.0129
  539SOL  HW2   1617   1.566   0.740   1.862 -0.4342 -1.8250  1.4591
  540SOL  OW    1618   1.827   2.824   2.404 -0.3694 -0.3682 -0.3735
  540SOL  HW1   1619   1.831   2.766   2.319 -0.2223  1.0457  0.5391
  540SOL  HW2   1620   1.747   2.804   2.467 -0.0581 -2.0445  0.5491
  541SOL  OW    1621   0.657   1.143   2.796 -0.7900 -0.0767  0.3236
  541SOL  HW1   1622   0.675   1.217   2.729 -1.6179 -0.7130 -2.7815
  541SOL  HW2   1623   0.586   1.071   2.763 -0.8313  0.9963 -0.0828
  542SOL  OW    1624   0.781   1.830   2.062  0.1052 -0.7414  0.6486
  542SOL  HW1   1625   0.761   1.823   1.962 -0.3504 -0.0967  1.5648
  542SOL  HW2   1626   0.871   1.783   2.082  1.5610 -2.5298 -1.4367
  543SOL  OW    1627   1.370   2.867   2.820 -0.2302  0.0487 -0.5452
  543SOL  HW1   1628   1.269   2.882   2.794  0.7362 -2.7736 -1.9815
  543SOL  HW2   1629   1.371   2.820   2.910 -0.2681 -3.1464  1.9478
  544SOL  OW    1630   2.896   2.025   2.294 -0.3851 -0.1219  0.2728
  544SOL  HW1   1631   2.888   2.023   2.395 -0.3799 -2.3677 -1.5838
  544SOL  HW2   1632   2.804   2.005   2.248 -2.9303 -1.7304 -0.5569
  545SOL  OW    1633   2.118   2.037   1.400  0.1006  0.5782 -0.0505
  545SOL  HW1   1634   2.209   1.992   1.410 -0.0806 -1.4235  0.0581
  545SOL  HW2   1635   2.077   2.064   1.488 -0.6247  0.7958  2.4824
  546SOL  OW    1636   2.889   0.625   2.798 -0.1489  0.1037  0.8495
  546SOL  HW1   1637   2.913   0.716   2.766  3.8394  1.7177 -0.7753
  546SOL  HW2   1638   2.793   0.626   2.829  0.4657 -2.7554  1.4740
  547SOL  OW    1639   0.544   1.044   1.319 -0.5866  0.2934 -0.5510
  547SOL  HW1   1640   0.502   1.006   1.407 -0.2002  0.3525 -1.6078
  547SOL  HW2   1641   0.540   0.984   1.238 -1.9662 -0.3503 -1.3926
  548SOL  OW    1642   1.539   1.740   0.308  0.0043 -0.5836 -0.1841
  548SOL  HW1   1643   1.504   1.775   0.399  4.1588  1.8220 -2.7160
  548SOL  HW2   1644   1.561   1.817   0.242 -1.0784  2.2916  0.6605
  549SOL  OW    1645   1.840   0.931   0.002  0.5072  0.3384  0.0360
  549SOL  HW1   1646   1.871   1.016   0.050  2.8032  1.6826 -1.3108
  549SOL  HW2   1647   1.816   0.953   2.997 -0.1892 -2.6033 -0.6381
  550SOL  OW    1648   2.186   1.486   1.061 -0.4299 -0.0752  0.4050
  550SOL  HW1   1649   2.287   1.471   1.048 -1.8555 -0.8775  0.3068
  550SOL  HW2   1650   2.130   1.425   1.004 -0.0347  1.4184  0.4717
  551SOL  OW    1651   1.424   2.683   0.640  0.5460  0.4930  0.2709
  551SOL  HW1   1652   1.508   2.728   0.686  1.4077  2.0424  1.8056
  551SOL  HW2   1653   1.344   2.684   0.704 -4.3864  0.7419 -0.7756
  552SOL  OW    1654   0.020   1.553   2.878 -0.1186  0.1946 -0.2127
  552SOL  HW1   1655   0.088   1.537   2.806  2.3914 -0.7281 -1.5117
  552SOL  HW2   1656   0.065   1.573   2.967 -1.3445  2.0096  1.3716
  553SOL  OW    1657   0.179   2.390   3.090  0.7496  0.1938  0.4236
  553SOL  HW1   1658   0.140   2.344   3.001 -1.3140  0.8054  1.2053
  553SOL  HW2   1659   0.261   2.446   3.065  0.1640  2.0490  1.3716
  554SOL  OW    1660   1.642   1.433   0.860 -0.3116 -0.3274 -0.2015
  554SOL  HW1   1661   1.713   1.393   0.920  0.7763  3.1511  0.1247
  554SOL  HW2   1662   1.552   1.407   0.895 -2.0455 -1.4025 -0.3484
  555SOL  OW    1663   0.948   3.021   1.653  0.1703  0.4770  0.3680
  555SOL  HW1   1664   1.041   2.987   1.646 -1.0942 -0.2779  0.7509
  555SOL  HW2   1665   0.891   2.962   1.712  0.0231 -2.1257  0.3735
  556SOL  OW    1666   0.211   0.822   1.356  0.3197  0.1630  0.1429
  556SOL  HW1   1667   0.202   0.924   1.372  0.4758 -1.1509 -0.8436
  556SOL  HW2   1668   0.124   0.775   1.386  2.2173  0.9893 -0.1815
  557SOL  OW    1669   1.887   0.379   0.620 -0.0282 -0.2174 -0.3945
  557SOL  HW1   1670   1.852   0.346   0.531 -2.0158 -0.0675 -1.5606
  557SOL  HW2   1671   1.817   0.439   0.664 -0.5110 -1.3985 -0.1074
  558SOL  OW    1672   0.948   1.128   1.670 -0.1321  0.1243 -0.0192
  558SOL  HW1   1673   0.853   1.100   1.648 -0.3685  1.0113 -0.9960
  558SOL  HW2   1674   1.011   1.052   1.645 -2.5104  1.5987  1.5190
  559SOL  OW    1675   1.069   3.092   0.032  0.1895 -0.5435 -0.1546
  559SOL  HW1   1676   1.157   3.045   0.050  0.0748  2.5737 -1.9648
  559SOL  HW2   1677   0.994   3.022   0.033  0.6558  0.9858  1.7865
  560SOL  OW    1678   1.548   2.007   0.722  1.0442 -0.0707 -0.1731
  560SOL  HW1   1679   1.512   2.050   0.635  2.9506  0.9602  0.2957
  560SOL  HW2   1680   1.477   2.018   0.795  0.3100  0.7195 -5.9063
  561SOL  OW    1681   0.744   2.315   0.930 -0.5007  0.0645  0.8266
  561SOL  HW1   1682   0.665   2.299   0.996  0.6730  1.3804 -0.4916
  561SOL  HW2   1683   0.825   2.348   0.974 -0.2747  0.5244 -0.5605
  562SOL  OW    1684   1.206   1.264   2.331  0.4034  0.0994  0.4084
  562SOL  HW1   1685   1.262   1.180   2.330  2.1890 -2.2830  2.6013
  562SOL  HW2   1686   1.216   1.316   2.417 -1.1503 -0.8215 -1.6187
  563SOL  OW    1687   1.537   1.358   2.640  0.0114  0.4106  0.5984
  563SOL  HW1   1688   1.531   1.324   2.739  2.2383 -0.8052  3.0017
  563SOL  HW2   1689   1.609   1.424   2.625  0.1163  1.7238 -1.3350
  564SOL  OW    1690   3.084   0.672   0.624  0.0034  0.3014 -0.3104
  564SOL  HW1   1691   3.075   0.676   0.725 -1.6174 -2.9346  0.7623
  564SOL  HW2   1692   3.003   0.725   0.583 -1.1541 -0.3560 -3.0002
  565SOL  OW    1693   0.655   0.618   0.279  0.7093  0.5627  0.1095
  565SOL  HW1   1694   0.613   0.532   0.241 -3.2459 -1.4478  0.8846
  565SOL  HW2   1695   0.752   0.606   0.309  1.9886 -0.0381 -0.1229
  566SOL  OW    1696   0.047   2.781   0.514  0.6461  0.1322 -0.4125
  566SOL  HW1   1697   0.117   2.754   0.448 -0.4010  1.3456 -0.0922
  566SOL  HW2   1698   3.054   2.799   0.467  2.4360 -1.0099  0.4742
  567SOL  OW    1699   1.509   1.312   0.534  0.1760 -0.2389  0.1618
  567SOL  HW1   1700   1.563   1.396   0.525  1.8985  0.8489 -0.2889
  567SOL  HW2   1701   1.542   1.248   0.465  1.1508  1.0196 -1.1373
  568SOL  OW    1702   2.060   0.650   2.395 -0.6892  0.0360 -0.0007
  568SOL  HW1   1703   2.075   0.555   2.422 -2.2895  0.0794  1.1728
  568SOL  HW2   1704   1.978   0.689   2.445 -1.6000 -0.5485 -1.7194
  569SOL  OW    1705   1.292   1.381   0.669 -0.1968 -0.2860  0.2779
  569SOL  HW1   1706   1.368   1.360   0.600  0.1924 -2.2281  1.7136
  569SOL  HW2   1707   1.211   1.424   0.621 -0.6666 -1.3242  1.2004
  570SOL  OW    1708   1.995   2.493   1.789  0.1894 -0.3359  0.3207
  570SOL  HW1   1709   2.055   2.472   1.710 -0.6516  0.1291 -0.5531
  570SOL  HW2   1710   2.040   2.478   1.877  0.1422 -0.9421  0.0880
  571SOL  OW    1711   0.096   1.816   2.607  0.2504  0.3851  0.1956
  571SOL  HW1   1712   0.188   1.777   2.630 -0.9141  1.9167 -0.5929
  571SOL  HW2   1713   0.093   1.867   2.519 -0.0268  0.7613 -2.4144
  572SOL  OW    1714   0.815   2.659   2.426 -0.2991  0.0032  0.5019
  572SOL  HW1   1715   0.914   2.672   2.423  0.1432  1.2152 -0.0377
  572SOL  HW2   1716   0.798   2.560   2.417 -0.7089  0.3958 -1.2085
  573SOL  OW    1717   1.488   1.767   0.576 -0.1442 -0.2577 -0.4930
  573SOL  HW1   1718   1.549   1.688   0.607 -1.0939 -0.6377  1.5282
  573SOL  HW2   1719   1.512   1.857   0.623  3.3027 -0.5518 -0.9101
  574SOL  OW    1720   0.955   2.462   1.084  0.0493 -0.1493 -0.4081
  574SOL  HW1   1721   0.928   2.407   1.166 -2.0213  0.6322  0.9128
  574SOL  HW2   1722   1.036   2.422   1.037 -3.6303 -2.3760 -2.5098
  575SOL  OW    1723   1.024   1.653   0.872 -0.0564  0.4233 -0.1455
  575SOL  HW1   1724   0.988   1.699   0.793 -1.6900  1.2928  1.7027
  575SOL  HW2   1725   0.973   1.674   0.953  1.8572 -2.0389  0.0631
  576SOL  OW    1726   0.364   0.613   1.443 -0.0919  0.0608  0.3407
  576SOL  HW1   1727   0.301   0.685   1.407  0.5547 -1.3502  2.4172
  576SOL  HW2   1728   0.437   0.588   1.374 -2.4801 -2.5166  0.8854
  577SOL  OW    1729   2.270   0.222   0.587  0.5219  0.3815 -0.2642
  577SOL  HW1   1730   2.364   0.193   0.619 -1.4018 -0.8662  0.5054
  577SOL  HW2   1731   2.276   0.297   0.525 -0.5447 -1.4426 -1.1677
  578SOL  OW    1732   1.887   1.414   1.700 -0.1024 -0.2826  0.1507
  578SOL  HW1   1733   1.921   1.411   1.603 -1.0854 -0.2522 -0.3294
  578SOL  HW2   1734   1.840   1.331   1.731 -0.0391  0.2876  2.7711
  579SOL  OW    1735   1.000   1.699   2.120  0.1512 -0.2727  0.4550
  579SOL  HW1   1736   0.969   1.646   2.207 -2.1257 -2.7554  1.5190
  579SOL  HW2   1737   1.074   1.649   2.067 -4.1767  0.2191  2.5378
  580SOL  OW    1738   0.945   2.717   0.177  0.3741 -0.1944 -0.6630
  580SOL  HW1   1739   0.961   2.619   0.146 -0.1739  0.4325 -1.6923
  580SOL  HW2   1740   0.881   2.724   0.256 -1.2109 -0.5846 -0.8190
  581SOL  OW    1741   0.254   0.546   2.412  0.4506 -0.0764  0.0382
  581SOL  HW1   1742   0.223   0.632   2.455  2.0064 -1.5433  1.5763
  581SOL  HW2   1743   0.201   0.522   2.328  0.7851  0.7468 -0.1689
  582SOL  OW    1744   1.305   2.817   1.875  0.7492  0.3431 -0.5432
  582SOL  HW1   1745   1.382   2.798   1.938 -3.3083  1.3267  2.2660
  582SOL  HW2   1746   1.330   2.882   1.799 -2.5504 -1.0350  1.9128
  583SOL  OW    1747   0.899   2.369   1.362 -0.1191 -0.5371  0.4483
  583SOL  HW1   1748   0.960   2.355   1.443 -1.4061 -0.0388  1.3677
  583SOL  HW2   1749   0.833   2.445   1.382 -0.4259  1.1959  1.2443
  584SOL  OW    1750   2.304   2.406   0.131 -0.0778 -0.1371 -0.7008
  584SOL  HW1   1751   2.287   2.304   0.124 -0.0572 -1.0188  0.3315
  584SOL  HW2   1752   2.219   2.459   0.159 -0.3583 -1.2002  2.0319
  585SOL  OW    1753   2.224   1.186   2.628  0.3199  0.2543 -0.1160
  585SOL  HW1   1754   2.324   1.208   2.627  2.3747 -0.9709 -0.8625
  585SOL  HW2   1755   2.189   1.206   2.722  0.5818 -0.7774 -0.9636
  586SOL  OW    1756   0.300   0.954   0.718 -0.3853 -0.2792  0.1885
  586SOL  HW1   1757   0.271   1.022   0.648  2.0240  0.0253 -3.9089
  586SOL  HW2   1758   0.301   0.862   0.679  3.6204 -1.4724  1.7018
  587SOL  OW    1759   1.547   2.421   0.619 -0.0938 -0.3757  0.6188
  587SOL  HW1   1760   1.602   2.411   0.532  1.9967  0.2744 -1.2445
  587SOL  HW2   1761   1.514   2.520   0.621 -0.5019 -0.3429  1.2037
  588SOL  OW    1762   0.569   0.583   1.281 -0.2456  0.0211 -0.1066
  588SOL  HW1   1763   0.578   0.574   1.178  0.7025  0.5553  0.8149
  588SOL  HW2   1764   0.661   0.599   1.324 -2.5675 -0.8052  0.3917
  589SOL  OW    1765   1.395   2.388   0.887  1.1235 -0.0503 -0.1679
  589SOL  HW1   1766   1.466   2.420   0.822  1.6822  1.0629 -0.2279
  589SOL  HW2   1767   1.448   2.328   0.949  0.0477 -0.1789  1.3965
  590SOL  OW    1768   1.688   0.583   0.342 -0.1021  0.1480 -0.4617
  590SOL  HW1   1769   1.609   0.582   0.412  0.9273  1.8618 -0.8818
  590SOL  HW2   1770   1.698   0.675   0.298  1.8970  0.2305  2.1666
  591SOL  OW    1771   1.831   2.078   1.507  0.3769 -0.5121 -0.3249
  591SOL  HW1   1772   1.820   1.982   1.473  0.0612  0.1004 -1.1734
  591SOL  HW2   1773   1.900   2.089   1.583 -3.1361  0.3528  0.0310
  592SOL  OW    1774   1.415   1.303   0.979  0.4661 -0.1084  0.3004
  592SOL  HW1   1775   1.358   1.389   0.966 -0.9865  0.4748  1.5668
  592SOL  HW2   1776   1.443   1.277   1.071  2.4694  2.0501 -3.0105
  593SOL  OW    1777   1.040   0.174   0.253  0.1754 -0.4166 -0.0312
  593SOL  HW1   1778   1.066   0.269   0.231 -2.7841  2.5665 -0.8667
  593SOL  HW2   1779   1.060   0.117   0.168 -0.3574 -1.6862 -2.1686
  594SOL  OW    1780   2.849   0.456   2.083 -0.7186  0.3163 -0.1546
  594SOL  HW1   1781   2.840   0.546   2.130 -1.4172 -0.7657 -2.3221
  594SOL  HW2   1782   2.907   0.392   2.138  1.8708  0.5476  1.2740
  595SOL  OW    1783   2.830   0.779   0.522 -0.0156 -0.3114  0.1521
  595SOL  HW1   1784   2.768   0.699   0.527 -0.1468 -0.0239 -1.0761
  595SOL  HW2   1785   2.839   0.821   0.430 -0.5171 -1.0045  0.4894
  596SOL  OW    1786   0.017   0.426   0.968  0.2391 -0.2109  0.2624
  596SOL  HW1   1787   3.078   0.366   1.048  0.1170  0.2363  2.0409
  596SOL  HW2   1788   0.110   0.459   0.984 -1.9942  0.9206 -1.3648
  597SOL  OW    1789   1.782   1.889   0.715 -0.3222 -0.2794 -0.2927
  597SOL  HW1   1790   1.706   1.953   0.719  0.1856  1.4728 -2.4067
  597SOL  HW2   1791   1.839   1.894   0.628  0.7121  0.2646  2.5919
  598SOL  OW    1792   2.465   2.472   1.743  0.8220 -0.1877 -0.3411
  598SOL  HW1   1793   2.427   2.563   1.775  1.2074  1.1106  0.6955
  598SOL  HW2   1794   2.449   2.462   1.641  2.2748 -0.0125  1.0507
  599SOL  OW    1795   2.661   1.314   0.554  0.1182 -0.1346  0.6791
  599SOL  HW1   1796   2.603   1.320   0.639  1.5348 -1.6755 -1.3200
  599SOL  HW2   1797   2.757   1.305   0.580  0.9127 -1.5130 -0.7306
  600SOL  OW    1798   0.744   0.450   2.498  0.6847 -0.9326 -0.4284
  600SOL  HW1   1799   0.823   0.515   2.491  2.2503  2.1289 -0.5605
  600SOL  HW2   1800   0.665   0.485   2.443 -1.6994  1.2602  0.9692
  601SOL  OW    1801   1.092   0.442   0.189 -0.4578  0.3136  0.3980
  601SOL  HW1   1802   1.082   0.480   0.096  0.8851  1.3878  2.1009
  601SOL  HW2   1803   1.187   0.456   0.224  3.4494 -0.4268  0.5525
  602SOL  OW    1804   1.825   3.085   2.454  0.5685 -0.4672  0.0618
  602SOL  HW1   1805   1.920   0.024   2.440 -1.8589 -0.7042  2.9594
  602SOL  HW2   1806   1.817   2.992   2.412 -1.1941  1.5274 -0.1444
  603SOL  OW    1807   0.155   2.905   2.589 -0.2232  0.7797 -0.8258
  603SOL  HW1   1808   0.151   2.866   2.496  1.3339  2.7600  1.5450
  603SOL  HW2   1809   0.126   2.835   2.662 -1.2769  0.7470 -0.0396
  604SOL  OW    1810   2.776   0.266   2.520 -0.5315 -0.2322 -0.0271
  604SOL  HW1   1811   2.862   0.321   2.508 -0.5133 -0.9844 -0.4797
  604SOL  HW2   1812   2.714   0.303   2.450 -0.9560 -0.7157  1.8748
  605SOL  OW    1813   2.447   2.930   2.092 -0.3751 -0.0184  0.3419
  605SOL  HW1   1814   2.468   2.963   2.189  2.7685  1.9252  0.5599
  605SOL  HW2   1815   2.526   2.890   2.045  1.9111  0.9409 -1.8812
  606SOL  OW    1816   2.946   1.982   2.973 -0.3195  0.5629  0.0041
  606SOL  HW1   1817   2.875   2.028   3.032  0.1771  2.7534  2.3784
  606SOL  HW2   1818   2.905   1.890   2.940  1.3040 -2.6433 -0.4833
  607SOL  OW    1819   1.657   2.826   2.607  0.4962  0.6195  0.7033
  607SOL  HW1   1820   1.708   2.741   2.607 -0.3369 -2.4942  1.0649
  607SOL  HW2   1821   1.653   2.870   2.696  1.0758 -1.1123  0.3549
  608SOL  OW    1822   1.721   1.429   1.982  0.2971  0.0273  0.4258
  608SOL  HW1   1823   1.669   1.411   2.067  1.7708  1.9476  0.3250
  608SOL  HW2   1824   1.668   1.439   1.898  0.1330  1.8763  0.3532
  609SOL  OW    1825   0.102   0.493   1.800 -0.1242 -0.1897  0.1557
  609SOL  HW1   1826   0.066   0.587   1.784 -0.8928 -0.1016  1.9128
  609SOL  HW2   1827   0.139   0.458   1.712  0.9559  1.4661 -0.0956
  610SOL  OW    1828   1.192   2.363   3.030  0.3295 -1.0188 -0.4103
  610SOL  HW1   1829   1.184   2.446   2.974  1.2084  0.9596  3.8484
  610SOL  HW2   1830   1.279   2.315   3.009 -3.0125 -1.4840  1.4509
  611SOL  OW    1831   2.039   1.050   0.342 -0.0498  0.6795 -0.1200
  611SOL  HW1   1832   2.095   1.109   0.400  0.2031  2.4285 -1.6809
  611SOL  HW2   1833   2.009   0.970   0.397  1.0822  2.0591  1.3723
  612SOL  OW    1834   1.350   0.094   2.409 -0.4632  0.6386  0.6457
  612SOL  HW1   1835   1.349   0.098   2.309 -0.2733 -0.0427 -0.6833
  612SOL  HW2   1836   1.442   0.121   2.440 -0.1381 -4.1446 -2.2791
  613SOL  OW    1837   0.711   1.365   0.234  0.1737 -0.3518  0.5131
  613SOL  HW1   1838   0.712   1.465   0.248  3.0041 -0.8217 -2.4626
  613SOL  HW2   1839   0.684   1.348   0.136  2.3275 -4.6874 -2.1460
  614SOL  OW    1840   2.815   1.710   2.333 -0.6903  0.0254 -0.4584
  614SOL  HW1   1841   2.837   1.758   2.421 -1.5824  0.8573 -1.7142
  614SOL  HW2   1842   2.857   1.759   2.251 -0.1461 -0.3749  2.5219
  615SOL  OW    1843   1.940   1.340   2.107  0.2946  0.7143 -0.5067
  615SOL  HW1   1844   2.028   1.381   2.076  0.8059  0.5691  3.1509
  615SOL  HW2   1845   1.862   1.359   2.049  1.3933  0.6718  3.7175
  616SOL  OW    1846   0.390   2.975   0.665  0.0609 -0.9865 -0.4244
  616SOL  HW1   1847   0.373   3.046   0.733  1.9737 -0.0726  0.2972
  616SOL  HW2   1848   0.423   3.003   0.575  2.3876  0.3575 -0.6155
  617SOL  OW    1849   0.980   2.302   2.550  0.0613 -0.1316 -0.5423
  617SOL  HW1   1850   1.018   2.221   2.504 -1.7272  0.4182  0.6796
  617SOL  HW2   1851   0.880   2.318   2.523  2.0289 -0.7313  1.3011
  618SOL  OW    1852   0.319   0.085   1.952 -0.1097 -0.3685 -0.4986
  618SOL  HW1   1853   0.307   0.013   2.029  0.4859 -2.4021 -0.1386
  618SOL  HW2   1854   0.416   0.080   1.913  1.0328  2.5576  1.1635
  619SOL  OW    1855   2.400   1.168   1.937 -0.4456  0.4588  0.0703
  619SOL  HW1   1856   2.380   1.204   2.030  1.5849 -3.8721 -0.2469
  619SOL  HW2   1857   2.471   1.226   1.892 -0.3015  0.0261  2.4583
  620SOL  OW    1858   1.908   1.173   0.152  0.5179  0.5576  0.3366
  620SOL  HW1   1859   1.979   1.121   0.207 -0.8962  0.5438 -2.1133
  620SOL  HW2   1860   1.950   1.245   0.093 -0.1233 -2.2788  1.8886
  621SOL  OW    1861   2.095   0.231   0.998 -0.3442 -0.3440 -0.2114
  621SOL  HW1   1862   2.102   0.297   0.917 -0.1096  0.0497 -0.4223
  621SOL  HW2   1863   1.997   0.208   1.009  1.1964 -0.3550  1.8852
  622SOL  OW    1864   2.625   0.403   2.324  0.5236  0.3344  0.1708
  622SOL  HW1   1865   2.659   0.486   2.280  0.0941 -1.8094 -1.9529
  622SOL  HW2   1866   2.591   0.323   2.268  1.1826 -0.9233  0.5790
  623SOL  OW    1867   1.964   1.410   2.834 -0.7857  0.0684  0.5460
  623SOL  HW1   1868   1.984   1.425   2.733 -1.6629 -0.2405  0.5826
  623SOL  HW2   1869   1.896   1.334   2.837  0.1115  0.2805  1.3268
  624SOL  OW    1870   2.217   2.841   0.649  0.4623  0.6768  0.2685
  624SOL  HW1   1871   2.274   2.764   0.630  1.5773 -1.8587  2.8551
  624SOL  HW2   1872   2.139   2.821   0.709  1.3869  0.5686 -2.2818
  625SOL  OW    1873   0.446   1.894   0.268 -0.4895 -0.1673  0.1397
  625SOL  HW1   1874   0.479   1.994   0.259 -3.5532 -0.3402  0.8637
  625SOL  HW2   1875   0.482   1.838   0.192  1.6920  0.3419  1.3330
  626SOL  OW    1876   2.282   1.021   0.052 -0.5812 -0.2975  0.2378
  626SOL  HW1   1877   2.281   0.983   3.054  1.9526 -2.0243 -1.1816
  626SOL  HW2   1878   2.245   0.959   0.121 -1.1019  0.5645  1.2301
  627SOL  OW    1879   0.756   0.603   1.654  0.2082 -0.0578  0.1305
  627SOL  HW1   1880   0.662   0.620   1.674  1.4087  0.6958  0.0593
  627SOL  HW2   1881   0.774   0.626   1.557  3.0283  1.6700 -0.4223
  628SOL  OW    1882   2.121   0.695   1.546 -0.1775 -0.3897 -0.4892
  628SOL  HW1   1883   2.211   0.662   1.576 -3.6944  1.8178 -2.1127
  628SOL  HW2   1884   2.090   0.783   1.592 -0.0555 -0.5742 -1.0595
  629SOL  OW    1885   2.485   1.488   0.421  0.4560 -0.1273 -0.1939
  629SOL  HW1   1886   2.478   1.472   0.322  2.6153  2.3372 -0.3793
  629SOL  HW2   1887   2.535   1.414   0.474  0.8727 -1.2477 -0.8714
  630SOL  OW    1888   2.061   0.366   0.198 -0.6275  0.0927 -0.1332
  630SOL  HW1   1889   1.976   0.344   0.146  3.4310  0.2303  1.4464
  630SOL  HW2   1890   2.051   0.450   0.250  1.8955 -1.4003  3.6717
  631SOL  OW    1891   1.995   0.741   0.863 -0.0031  0.5046 -0.2635
  631SOL  HW1   1892   2.029   0.749   0.961 -0.5659  2.2309  0.8435
  631SOL  HW2   1893   2.060   0.768   0.792 -0.3598 -1.2761  1.4266
  632SOL  OW    1894   2.537   1.954   0.539  0.4060  0.0068 -0.1464
  632SOL  HW1   1895   2.498   2.014   0.613  0.4768  2.2814 -0.7199
  632SOL  HW2   1896   2.568   1.995   0.452  1.4801  3.2683  2.1092
  633SOL  OW    1897   0.252   0.865   0.355 -0.2400 -0.2752  0.4410
  633SOL  HW1   1898   0.266   0.810   0.441 -2.6950 -0.3523 -0.5035
  633SOL  HW2   1899   0.157   0.862   0.323 -1.5864  0.5024 -1.7048
  634SOL  OW    1900   1.854   2.972   0.710  0.5594 -0.0418  0.2115
  634SOL  HW1   1901   1.929   2.922   0.762 -0.8054 -1.2988  0.1388
  634SOL  HW2   1902   1.842   3.069   0.737  1.9116 -0.7856  2.5378
  635SOL  OW    1903   2.655   3.091   1.757  0.3061  0.2737  0.1967
  635SOL  HW1   1904   2.666   0.018   1.658  0.7625 -0.5241  0.7940
  635SOL  HW2   1905   2.735   0.030   1.813 -0.8040 -0.0907  0.5702
  636SOL  OW    1906   1.559   0.134   1.008  1.0442 -0.5829  0.6426
  636SOL  HW1   1907   1.507   0.055   0.975  0.5207  0.8948 -0.0664
  636SOL  HW2   1908   1.536   0.146   1.103 -5.2923  2.9738  1.9525
  637SOL  OW    1909   2.093   2.023   2.493 -0.0852  0.1540 -0.4171
  637SOL  HW1   1910   2.125   2.057   2.585  0.7153 -0.0970  1.8847
  637SOL  HW2   1911   2.110   2.098   2.424 -1.0183 -1.5746  0.3847
  638SOL  OW    1912   1.163   2.841   0.296 -0.0801 -0.2988 -0.1772
  638SOL  HW1   1913   1.223   2.887   0.228  0.5419  1.3615  0.8558
  638SOL  HW2   1914   1.078   2.804   0.244 -1.8298 -0.9199  1.9012
  639SOL  OW    1915   0.510   2.082   2.354  0.6122 -0.6852 -0.0873
  639SOL  HW1   1916   0.419   2.129   2.351  0.7895 -0.7576 -1.4007
  639SOL  HW2   1917   0.562   2.095   2.265 -2.1061  0.4522  0.4535
  640SOL  OW    1918   2.872   0.007   2.540 -0.3494  0.0227 -0.8188
  640SOL  HW1   1919   2.972   0.023   2.545 -1.8700  0.2627  0.3537
  640SOL  HW2   1920   2.825   0.096   2.522 -0.5255  1.2675 -0.1652
  641SOL  OW    1921   0.263   0.459   3.018  0.3204 -0.0431 -0.4114
  641SOL  HW1   1922   0.199   0.388   2.982  0.0583 -3.0023  2.1804
  641SOL  HW2   1923   0.240   0.474   0.020  1.6321  2.7502 -0.1333
  642SOL  OW    1924   0.395   1.947   1.176 -0.8068 -0.0247  0.3338
  642SOL  HW1   1925   0.445   1.983   1.092 -1.3759  2.7678  0.1342
  642SOL  HW2   1926   0.345   1.854   1.165  0.5187 -2.4815  2.3455
  643SOL  OW    1927   1.287   1.779   2.396 -0.0526  0.3610  0.1542
  643SOL  HW1   1928   1.289   1.866   2.347  2.0508  0.2137  0.6507
  643SOL  HW2   1929   1.202   1.758   2.447  0.7832 -0.0586  0.8366
  644SOL  OW    1930   2.083   1.713   0.604  0.1100 -0.4505  0.3440
  644SOL  HW1   1931   2.020   1.631   0.611 -0.0610 -5.2134 -1.5238
  644SOL  HW2   1932   2.040   1.786   0.549 -0.5529 -0.8421 -2.5496
  645SOL  OW    1933   0.920   1.986   1.793  0.3628  0.1531 -0.1506
  645SOL  HW1   1934   0.965   1.896   1.781  1.0455 -1.4217 -0.1776
  645SOL  HW2   1935   0.986   2.053   1.831  1.0810 -2.3220  0.2111
  646SOL  OW    1936   1.071   0.592   3.047 -0.1794 -0.3780 -0.1852
  646SOL  HW1   1937   0.988   0.569   2.994  0.2776  1.4990  2.4235
  646SOL  HW2   1938   1.071   0.693   3.064 -1.9089  2.0996 -0.5775
  647SOL  OW    1939   0.423   2.675   2.407 -0.1691 -0.2615  0.8359
  647SOL  HW1   1940   0.449   2.718   2.494  0.6762 -3.4731 -0.9240
  647SOL  HW2   1941   0.451   2.726   2.325 -0.1778  1.2758  0.4838
  648SOL  OW    1942   2.341   1.744   0.458 -0.2346 -0.3876 -0.3838
  648SOL  HW1   1943   2.247   1.743   0.496  1.4681 -1.5968  0.4859
  648SOL  HW2   1944   2.378   1.647   0.460 -1.6017 -0.0217 -1.2673
  649SOL  OW    1945   1.423   2.794   2.474  0.1353  0.1940  0.6948
  649SOL  HW1   1946   1.342   2.848   2.509 -0.8252  0.2982 -1.5692
  649SOL  HW2   1947   1.498   2.799   2.541  0.1199 -0.3995  0.1922
  650SOL  OW    1948   0.604   1.750   2.664 -0.2413 -0.0978  0.0035
  650SOL  HW1   1949   0.675   1.707   2.730 -2.9550  2.3055  0.4039
  650SOL  HW2   1950   0.643   1.841   2.633 -0.3670  1.0650 -3.4946
  651SOL  OW    1951   1.228   1.977   0.187  0.2386 -0.1252 -0.3694
  651SOL  HW1   1952   1.180   2.019   0.260 -0.8613  1.2705 -0.9346
  651SOL  HW2   1953   1.179   1.892   0.162  1.4008  2.4254  0.1153
  652SOL  OW    1954   0.043   1.093   1.578  0.2836 -0.1418 -0.0481
  652SOL  HW1   1955   0.105   1.121   1.659 -1.8162  0.5794 -0.8058
  652SOL  HW2   1956   0.096   1.072   1.494 -1.4032  1.5039  0.7086
  653SOL  OW    1957   2.484   2.062   3.024 -0.3542 -0.0019 -0.3635
  653SOL  HW1   1958   2.465   2.066   2.922  0.3309 -0.5099  2.0488
  653SOL  HW2   1959   2.405   2.100   3.085 -1.7789  0.1451  0.0064
  654SOL  OW    1960   2.129   2.478   2.027  0.2294  0.3333  0.2071
  654SOL  HW1   1961   2.170   2.573   2.024  0.2842 -1.4541  1.6222
  654SOL  HW2   1962   2.209   2.416   2.003  0.1492  1.9252 -0.5340
  655SOL  OW    1963   0.838   2.094   0.784  0.0720 -0.4228  0.1318
  655SOL  HW1   1964   0.794   2.173   0.832  1.2629 -0.2302  1.6940
  655SOL  HW2   1965   0.913   2.049   0.835 -0.4407 -1.4874  0.5946
  656SOL  OW    1966   0.185   1.988   0.517  0.3912  0.2569  0.3667
  656SOL  HW1   1967   0.163   1.896   0.477 -0.9019 -1.4308  0.7266
  656SOL  HW2   1968   0.213   1.982   0.614  0.1197 -2.0266 -0.5340
  657SOL  OW    1969   0.061   1.438   0.207 -0.4247  0.3515  0.4005
  657SOL  HW1   1970   3.084   1.369   0.207 -0.2946  0.6636  1.0860
  657SOL  HW2   1971   0.057   1.494   0.291  0.5021  0.3146 -2.1803
  658SOL  OW    1972   0.641   1.641   1.652 -0.0193  0.6864  0.0563
  658SOL  HW1   1973   0.683   1.595   1.571  1.2470 -0.4870  5.2143
  658SOL  HW2   1974   0.548   1.605   1.678 -0.9061  1.1541 -1.2295
  659SOL  OW    1975   2.078   0.455   2.079  0.0842  0.1248  0.5519
  659SOL  HW1   1976   2.009   0.406   2.136 -1.0620 -0.6012 -2.1215
  659SOL  HW2   1977   2.171   0.413   2.076  1.6521 -0.1161 -0.3751
  660SOL  OW    1978   0.633   0.808   0.496  0.1110  0.5654  0.2911
  660SOL  HW1   1979   0.646   0.744   0.423  2.2591 -0.0072  1.2443
  660SOL  HW2   1980   0.614   0.753   0.580  1.1676  1.2094  2.3792
  661SOL  OW    1981   1.019   1.211   1.371  0.7496  0.0345  0.3972
  661SOL  HW1   1982   1.099   1.160   1.398 -0.5263  0.6605  0.4312
  661SOL  HW2   1983   0.991   1.268   1.453 -0.6972  0.4880 -3.2776
  662SOL  OW    1984   2.061   0.138   2.753  0.0370 -0.6682 -0.0281
  662SOL  HW1   1985   2.019   0.054   2.712 -3.0475  0.8362  2.9594
  662SOL  HW2   1986   2.162   0.144   2.730  0.5921 -0.3222 -0.8658
  663SOL  OW    1987   1.684   1.451   3.095  0.2558  0.7527 -0.2067
  663SOL  HW1   1988   1.786   1.438   0.009  0.6889  2.8817 -0.1318
  663SOL  HW2   1989   1.641   1.404   0.083 -0.9141  1.0737  1.4763
  664SOL  OW    1990   1.051   0.149   0.522  0.3853 -0.4004  0.1398
  664SOL  HW1   1991   1.051   0.157   0.422 -0.1417 -1.1751  0.6865
  664SOL  HW2   1992   1.091   0.056   0.533  3.2855  1.5244 -0.3825
  665SOL  OW    1993   0.962   0.555   2.662 -0.4856  0.7950  0.1974
  665SOL  HW1   1994   1.042   0.613   2.645 -0.7432  0.7064  0.1657
  665SOL  HW2   1995   0.950   0.539   2.760  1.4378 -1.6695  0.2089
  666SOL  OW    1996   1.053   0.745   2.379 -0.4450 -0.3856  0.0814
  666SOL  HW1   1997   1.116   0.718   2.455  0.3918 -0.8670  1.1641
  666SOL  HW2   1998   1.002   0.834   2.407 -3.3393 -1.0269 -0.8843
  667SOL  OW    1999   0.889   1.561   2.357  0.3063 -0.0603  0.1490
  667SOL  HW1   2000   0.794   1.577   2.383  0.9606  1.1937 -0.6204
  667SOL  HW2   2001   0.947   1.618   2.416  0.8164  0.6377  0.2031
  668SOL  OW    2002   2.641   1.081   1.465  0.0157  0.5942 -0.0280
  668SOL  HW1   2003   2.608   1.154   1.526 -2.5738  0.4736  1.5584
  668SOL  HW2   2004   2.725   1.034   1.490  2.8617 -0.2978 -0.3257
  669SOL  OW    2005   0.480   2.110   0.923 -0.5353  0.3088 -0.3748
  669SOL  HW1   2006   0.510   2.114   0.829 -2.0478  1.0166  0.1834
  669SOL  HW2   2007   0.377   2.130   0.927 -3.6069 -0.1040  2.3648
  670SOL  OW    2008   2.554   1.556   1.960  0.4524  0.1952  0.4933
  670SOL  HW1   2009   2.570   1.644   1.909  0.3891  0.5630  0.2294
  670SOL  HW2   2010   2.544   1.578   2.057 -2.0383  1.5332  1.3965
  671SOL  OW    2011   2.986   2.428   0.962  0.0468 -0.0642  0.2961
  671SOL  HW1   2012   2.995   2.381   0.875  1.3225  0.0060 -0.2706
  671SOL  HW2   2013   3.079   2.462   0.992  4.8617 -0.4393 -2.5364
  672SOL  OW    2014   0.931   0.959   2.496 -0.3953 -0.1929 -0.5507
  672SOL  HW1   2015   0.919   0.997   2.593  0.5414  0.2940 -2.1539
  672SOL  HW2   2016   0.849   0.983   2.440 -0.0550  0.5229 -0.7389
  673SOL  OW    2017   0.020   2.159   1.882 -0.1599 -0.0280 -0.0050
  673SOL  HW1   2018   0.104   2.098   1.879 -1.5090 -0.5968  1.7469
  673SOL  HW2   2019   3.057   2.163   1.798  1.5232  0.6728 -2.0076
  674SOL  OW    2020   2.678   2.215   0.867  0.3914 -0.3711  0.3433
  674SOL  HW1   2021   2.742   2.169   0.803 -0.0046  1.2612 -1.1177
  674SOL  HW2   2022   2.693   2.320   0.875  1.8025 -0.0118  1.0072
  675SOL  OW    2023   2.887   1.084   1.104  0.2013 -0.1961  0.2028
  675SOL  HW1   2024   2.791   1.086   1.142  0.2472 -0.9829  2.2811
  675SOL  HW2   2025   2.919   1.176   1.079  1.9479 -0.5127 -3.4233
  676SOL  OW    2026   2.318   1.383   0.634  0.3438  0.3202  0.5621
  676SOL  HW1   2027   2.398   1.350   0.690  1.1473  2.5792  1.3096
  676SOL  HW2   2028   2.349   1.458   0.577 -0.9769  2.0402  0.6536
  677SOL  OW    2029   1.896   1.651   1.960  0.0621  0.1697 -0.1373
  677SOL  HW1   2030   1.827   1.579   1.973  0.1849 -0.5879  1.5509
  677SOL  HW2   2031   1.970   1.654   2.032 -1.6683 -2.3446  0.5951
  678SOL  OW    2032   2.585   1.820   1.897  0.0227 -0.2458 -0.1061
  678SOL  HW1   2033   2.624   1.861   1.978  0.1660  0.8791  2.1523
  678SOL  HW2   2034   2.544   1.902   1.851  0.2580  2.2585  2.0636
  679SOL  OW    2035   2.878   2.871   0.597  0.0833  0.0485 -0.0296
  679SOL  HW1   2036   2.786   2.850   0.560 -1.6021  0.0856 -0.7047
  679SOL  HW2   2037   2.904   2.802   0.669 -0.9938 -1.1461 -1.0410
  680SOL  OW    2038   0.118   1.555   1.291  0.2792  0.0350 -0.9595
  680SOL  HW1   2039   0.033   1.507   1.283 -0.4530  0.0082 -3.4386
  680SOL  HW2   2040   0.193   1.487   1.306  3.7679  1.4091  3.5883
  681SOL  OW    2041   1.157   2.679   0.770 -0.6092  0.1989 -0.2453
  681SOL  HW1   2042   1.180   2.777   0.743 -1.8407 -1.6944  1.7062
  681SOL  HW2   2043   1.090   2.638   0.711  1.0096 -0.6649 -1.5815
  682SOL  OW    2044   2.254   2.226   1.698  0.1376 -0.6345  0.0705
  682SOL  HW1   2045   2.290   2.259   1.787 -0.7659 -1.7833 -0.5976
  682SOL  HW2   2046   2.230   2.304   1.638 -2.1694 -1.3495  0.7376
  683SOL  OW    2047   1.986   1.774   2.377  0.1951 -0.4828 -0.3608
  683SOL  HW1   2048   1.938   1.730   2.456  3.1367  2.7926 -2.5417
  683SOL  HW2   2049   2.009   1.869   2.405  2.5639 -1.1138  0.4730
  684SOL  OW    2050   2.280   1.606   2.491  0.2875  0.2460  0.2004
  684SOL  HW1   2051   2.365   1.557   2.463 -0.4948  1.9920  1.4639
  684SOL  HW2   2052   2.290   1.642   2.583 -0.8073  1.0317  0.4930
  685SOL  OW    2053   1.131   1.399   0.258  0.1220 -0.3000  0.3477
  685SOL  HW1   2054   1.149   1.302   0.284 -0.7526 -2.8088 -2.3802
  685SOL  HW2   2055   1.220   1.443   0.233 -0.3194 -3.0376 -0.3302
  686SOL  OW    2056   2.378   2.712   1.833 -0.1715  0.6150 -0.3144
  686SOL  HW1   2057   2.346   2.729   1.925  0.0820 -0.5968  0.4732
  686SOL  HW2   2058   2.307   2.750   1.766 -0.5760 -0.9424 -1.2246
  687SOL  OW    2059   2.157   0.279   3.056 -0.2059  0.1306 -0.0305
  687SOL  HW1   2060   2.164   0.177   3.049  1.5543 -1.9834  1.2827
  687SOL  HW2   2061   2.131   0.309   0.055  1.4511  1.1042  1.7375
  688SOL  OW    2062   1.346   2.047   2.777  0.5496  0.0034 -0.2200
  688SOL  HW1   2063   1.371   2.091   2.690 -0.9292  1.6176 -2.2068
  688SOL  HW2   2064   1.367   2.102   2.860 -3.3438  1.1594 -1.0007
  689SOL  OW    2065   2.402   1.373   1.336  0.4812  0.1695 -0.2749
  689SOL  HW1   2066   2.345   1.306   1.282  0.0299  0.0692 -1.4860
  689SOL  HW2   2067   2.345   1.436   1.390  1.7776  0.0929  1.6858
  690SOL  OW    2068   2.623   1.579   1.538 -0.0608  0.0042 -0.2097
  690SOL  HW1   2069   2.663   1.589   1.446 -0.0697  1.0695 -2.6210
  690SOL  HW2   2070   2.681   1.636   1.604  0.4677 -1.3992 -1.9053
  691SOL  OW    2071   3.090   1.505   0.590  0.0889  0.3797  0.2991
  691SOL  HW1   2072   3.088   1.566   0.673 -0.4445  3.9579  1.3379
  691SOL  HW2   2073   3.024   1.536   0.519 -1.2566  0.9875 -1.5966
  692SOL  OW    2074   0.170   0.087   0.201  0.0673 -0.0216  0.0814
  692SOL  HW1   2075   0.112   0.049   0.273  0.3963 -0.8896 -1.5431
  692SOL  HW2   2076   0.200   0.184   0.222  0.0258 -0.6816  1.5557
  693SOL  OW    2077   0.344   0.946   2.216  0.5760  0.1838 -0.2428
  693SOL  HW1   2078   0.436   0.964   2.169  0.7884  1.6128  1.3316
  693SOL  HW2   2079   0.353   0.948   2.315 -0.5989  1.4314  1.6700
  694SOL  OW    2080   0.410   0.842   1.820 -0.2161  0.0366  0.1524
  694SOL  HW1   2081   0.310   0.849   1.850 -0.0167 -3.0098  3.4909
  694SOL  HW2   2082   0.472   0.898   1.884 -2.0489  3.1707 -2.1539
  695SOL  OW    2083   2.417   0.644   1.569 -0.1693 -0.6684 -0.8478
  695SOL  HW1   2084   2.443   0.725   1.625 -0.2087 -1.2627 -0.0138
  695SOL  HW2   2085   2.500   0.593   1.530 -2.6971 -0.3689 -2.5985
  696SOL  OW    2086   1.953   0.455   1.317 -0.1076  0.4947  0.6907
  696SOL  HW1   2087   1.906   0.369   1.350  0.2962 -0.9435  1.3561
  696SOL  HW2   2088   1.942   0.535   1.379 -1.1874  0.2072 -0.3905
  697SOL  OW    2089   1.963   0.328   2.564 -0.0175 -0.0838  0.0833
  697SOL  HW1   2090   1.989   0.268   2.641 -0.6096 -1.2381  3.8883
  697SOL  HW2   2091   1.866   0.359   2.569 -0.4269  0.0205 -0.0674
  698SOL  OW    2092   2.623   2.019   0.267 -0.5101 -0.4883  0.1097
  698SOL  HW1   2093   2.705   1.961   0.270 -1.2659  3.3299 -2.6799
  698SOL  HW2   2094   2.628   2.081   0.189 -0.0379  1.5717 -1.2367
  699SOL  OW    2095   2.002   1.480   0.319 -0.5746 -0.3575  0.0147
  699SOL  HW1   2096   1.905   1.482   0.288  1.5243  2.0574 -1.8337
  699SOL  HW2   2097   2.062   1.490   0.240 -1.8241 -2.6216  0.2778
  700SOL  OW    2098   1.331   2.721   3.065  0.0349 -0.4935 -0.2091
  700SOL  HW1   2099   1.236   2.695   3.083 -0.3179 -0.1988  0.1722
  700SOL  HW2   2100   1.400   2.670   0.022  0.0574 -0.6103  1.1410
  701SOL  OW    2101   1.036   0.464   1.101  0.1949  0.4573  0.2031
  701SOL  HW1   2102   1.005   0.394   1.033 -2.4818  0.1710  0.8795
  701SOL  HW2   2103   1.015   0.557   1.067  0.7974  1.4828 -0.4964
  702SOL  OW    2104   1.719   2.319   0.837  0.0729 -0.1787  0.3939
  702SOL  HW1   2105   1.672   2.270   0.914  1.0305  1.3988  2.0533
  702SOL  HW2   2106   1.664   2.309   0.750 -1.7739 -0.4829 -2.2228
  703SOL  OW    2107   1.265   0.606   0.631 -0.0653  0.2177 -0.3215
  703SOL  HW1   2108   1.270   0.653   0.723 -2.0033  0.0497 -1.0281
  703SOL  HW2   2109   1.221   0.512   0.641 -1.2886 -2.9034 -0.1868
  704SOL  OW    2110   2.185   2.861   1.048 -0.3954 -1.0224 -0.0808
  704SOL  HW1   2111   2.280   2.823   1.065 -0.5077  3.5595 -1.6570
  704SOL  HW2   2112   2.144   2.821   0.965  1.2710 -0.7203  0.8516
  705SOL  OW    2113   3.055   1.127   0.441  0.2522 -0.2525 -0.5106
  705SOL  HW1   2114   3.093   1.052   0.381 -0.4465 -0.2185  2.2694
  705SOL  HW2   2115   3.006   1.086   0.523 -1.0476  0.7530 -2.9506
  706SOL  OW    2116   0.579   0.433   2.738 -0.0301  0.3711 -0.3810
  706SOL  HW1   2117   0.612   0.379   2.818  1.7037  2.6768 -0.3588
  706SOL  HW2   2118   0.642   0.420   2.656 -2.6185  1.3336 -1.3051
  707SOL  OW    2119   1.844   0.180   2.924 -0.2080 -0.2328  0.1178
  707SOL  HW1   2120   1.778   0.238   2.878  0.9556 -0.6485  0.8637
  707SOL  HW2   2121   1.922   0.159   2.862  1.8960 -1.3467 -1.6429
  708SOL  OW    2122   0.553   2.487   2.116  0.1446 -0.6412  0.0915
  708SOL  HW1   2123   0.519   2.417   2.182 -2.5987  0.6913 -0.1781
  708SOL  HW2   2124   0.550   2.583   2.159  0.7049  0.3906 -2.8707
  709SOL  OW    2125   2.464   0.778   2.380  0.5351  0.1222 -0.8102
  709SOL  HW1   2126   2.454   0.693   2.436 -4.1608  0.5135 -1.8380
  709SOL  HW2   2127   2.377   0.812   2.341  0.8422  1.9177 -0.0649
  710SOL  OW    2128   2.910   0.868   1.294  0.1787 -0.0987  0.7901
  710SOL  HW1   2129   2.909   0.906   1.390 -0.6996  1.0095 -0.3709
  710SOL  HW2   2130   2.922   0.942   1.226 -0.4120  2.5487  0.9326
  711SOL  OW    2131   3.072   2.218   2.136 -0.1508 -0.3668 -0.2990
  711SOL  HW1   2132   3.084   2.206   2.033  3.1210  4.4406 -0.1626
  711SOL  HW2   2133   3.026   2.135   2.178  3.1989  0.7318 -2.1454
  712SOL  OW    2134   2.630   3.006   2.548 -0.5053  0.4884 -0.3634
  712SOL  HW1   2135   2.730   3.026   2.543  1.7037  1.9898 -1.0175
  712SOL  HW2   2136   2.589   3.023   2.637  0.6698 -0.6116  3.4712
  713SOL  OW    2137   2.632   0.198   0.709 -0.9652  0.0527  0.0312
  713SOL  HW1   2138   2.593   0.292   0.704 -1.0945  0.0490  1.3585
  713SOL  HW2   2139   2.561   0.129   0.738 -0.5368  0.0415  2.0745
  714SOL  OW    2140   1.613   0.892   1.809 -0.0791 -0.1493 -0.1701
  714SOL  HW1   2141   1.669   0.891   1.724 -1.7041  1.2589 -1.4064
  714SOL  HW2   2142   1.651   0.953   1.883  1.7007 -0.6683 -2.5013
  715SOL  OW    2143   3.037   0.930   0.931 -0.0936 -0.2085 -0.3797
  715SOL  HW1   2144   2.984   0.980   1.001  1.2411 -0.9262  2.5459
  715SOL  HW2   2145   3.021   0.829   0.933  0.7744  1.2838 -0.9371
  716SOL  OW    2146   3.059   0.725   2.494  0.2365  0.6135  0.3084
  716SOL  HW1   2147   0.064   0.720   2.500 -1.1388  0.5871  0.0436
  716SOL  HW2   2148   3.028   0.769   2.579  6.4412 -1.9531 -0.3432
  717SOL  OW    2149   1.059   1.737   2.534  0.1324  0.1870 -0.4508
  717SOL  HW1   2150   1.001   1.818   2.568 -0.2733 -0.9493  5.6801
  717SOL  HW2   2151   1.106   1.692   2.608 -0.4287 -3.7010 -4.3804
  718SOL  OW    2152   0.577   3.076   0.480 -0.0806 -0.4935 -0.4866
  718SOL  HW1   2153   0.566   0.082   0.483  1.3625  0.9975  0.2656
  718SOL  HW2   2154   0.563   3.043   0.379 -0.6096  2.2592  2.2895
  719SOL  OW    2155   2.924   2.944   2.734 -0.6123  0.4646  0.0362
  719SOL  HW1   2156   2.858   2.868   2.725 -0.6925  1.7466  1.8445
  719SOL  HW2   2157   2.908   3.010   2.662  1.1752 -0.4350 -0.8383
  720SOL  OW    2158   1.932   0.312   2.276 -0.1696  0.4211  0.3224
  720SOL  HW1   2159   1.967   0.317   2.373  1.4952 -2.6594 -0.4283
  720SOL  HW2   2160   1.854   0.248   2.264 -0.0613 -1.3173 -2.2859
  721SOL  OW    2161   0.457   2.695   0.667  0.4856 -0.2170  0.2323
  721SOL  HW1   2162   0.458   2.668   0.567 -3.3325  0.4882  0.2871
  721SOL  HW2   2163   0.445   2.796   0.677  4.0915 -2.2221 -1.9390
  722SOL  OW    2164   1.420   1.619   2.208 -0.6353  0.1512 -0.1753
  722SOL  HW1   2165   1.507   1.667   2.184  1.6326 -0.5400  0.9113
  722SOL  HW2   2166   1.361   1.683   2.262  1.8742 -1.1455 -2.2100
  723SOL  OW    2167   1.468   1.220   1.234 -0.4668  0.0860  0.0006
  723SOL  HW1   2168   1.427   1.127   1.214 -2.1957  0.6998  2.6933
  723SOL  HW2   2169   1.568   1.209   1.243 -0.5964  2.3495  1.9593
  724SOL  OW    2170   0.503   2.147   0.192 -0.2505  0.5662 -0.4777
  724SOL  HW1   2171   0.564   2.215   0.236 -0.9126 -1.4943 -0.3279
  724SOL  HW2   2172   0.519   2.136   0.093  0.0243  0.8766 -0.1282
  725SOL  OW    2173   0.097   1.142   1.864 -0.6546  0.6321  0.0110
  725SOL  HW1   2174   0.113   1.152   1.963  0.6878  1.2014 -0.3225
  725SOL  HW2   2175   0.117   1.045   1.846 -2.5950 -1.9033  0.0523
  726SOL  OW    2176   1.782   1.231   2.821  0.2770 -0.3702  0.0642
  726SOL  HW1   2177   1.792   1.130   2.815 -0.3916 -1.3587  0.9151
  726SOL  HW2   2178   1.689   1.260   2.822 -2.5010 -2.3497 -1.3224
  727SOL  OW    2179   2.005   0.713   0.041 -0.6634  0.3386  0.3796
  727SOL  HW1   2180   2.001   0.681   0.139 -0.8762 -2.4806  1.6066
  727SOL  HW2   2181   1.955   0.800   0.031 -1.3061  0.8191  0.4072
  728SOL  OW    2182   1.710   1.704   0.897  0.4028  0.0440 -0.5078
  728SOL  HW1   2183   1.743   1.772   0.832  0.2004  0.1001 -0.8841
  728SOL  HW2   2184   1.687   1.618   0.847 -0.9618  1.5065  1.4157
  729SOL  OW    2185   1.995   1.391   1.448  0.1179 -0.0186  0.0124
  729SOL  HW1   2186   1.973   1.295   1.421 -0.9275 -2.8915  1.8906
  729SOL  HW2   2187   2.020   1.444   1.365  1.6096  1.2207  1.4030
  730SOL  OW    2188   0.385   1.570   1.707 -0.5146  0.4303 -0.0875
  730SOL  HW1   2189   0.319   1.498   1.678  0.5463 -0.3528  0.1669
  730SOL  HW2   2190   0.356   1.663   1.676  0.6839 -0.5999  1.7478
  731SOL  OW    2191   0.914   0.565   0.359  0.4994  0.0275  0.1973
  731SOL  HW1   2192   0.985   0.531   0.295  1.9248  1.3209 -2.9520
  731SOL  HW2   2193   0.960   0.636   0.416  1.3370 -0.2860 -0.3230
  732SOL  OW    2194   0.816   0.793   2.968 -0.1282  0.1231  0.0358
  732SOL  HW1   2195   0.816   0.785   2.866  3.1314  0.7849  3.8388
  732SOL  HW2   2196   0.726   0.816   3.009  0.5105  3.1407 -1.3997
  733SOL  OW    2197   0.695   2.082   2.159  0.5362 -0.1414 -0.0267
  733SOL  HW1   2198   0.752   2.167   2.171  0.6181 -1.0601  3.0047
  733SOL  HW2   2199   0.753   2.002   2.129 -2.1437 -0.3550  0.1635
  734SOL  OW    2200   0.994   1.515   1.215  0.4077  0.7998  0.6173
  734SOL  HW1   2201   0.931   1.461   1.274  0.1626 -2.1501  0.9739
  734SOL  HW2   2202   0.957   1.605   1.185 -1.5494  1.0617  0.2553
  735SOL  OW    2203   2.525   0.458   0.700  0.3233 -0.2370 -0.0457
  735SOL  HW1   2204   2.561   0.505   0.615  1.9258 -0.3513 -1.3613
  735SOL  HW2   2205   2.446   0.499   0.745  2.9492 -1.0774  3.2758
  736SOL  OW    2206   1.104   2.101   2.397 -0.0175 -0.5645  0.3209
  736SOL  HW1   2207   1.124   2.030   2.332 -0.0823  1.7671  0.5261
  736SOL  HW2   2208   1.192   2.138   2.431  0.5991 -1.7268  0.2734
  737SOL  OW    2209   0.056   1.113   2.980 -0.5358 -0.6001  0.7561
  737SOL  HW1   2210   0.157   1.093   2.991 -0.1427 -0.0801  0.6394
  737SOL  HW2   2211   0.043   1.190   2.909 -0.6218 -0.4463  0.2331
  738SOL  OW    2212   1.398   1.879   1.386 -0.1829  0.6375 -0.1417
  738SOL  HW1   2213   1.454   1.804   1.341 -0.8996 -0.0506 -1.1689
  738SOL  HW2   2214   1.452   1.951   1.434 -0.5914 -1.2832  1.7233
  739SOL  OW    2215   1.599   3.047   2.084  0.0887 -0.1366  0.3990
  739SOL  HW1   2216   1.565   2.952   2.054 -2.5172  1.3703 -0.6100
  739SOL  HW2   2217   1.689   3.070   2.035  0.3097  0.7237 -1.3979
  740SOL  OW    2218   2.111   2.205   1.197 -0.3031  0.1484  0.0538
  740SOL  HW1   2219   2.128   2.136   1.263 -3.0696 -1.4415 -1.2066
  740SOL  HW2   2220   2.125   2.173   1.100 -1.2235  0.1001 -0.0184
  741SOL  OW    2221   1.789   2.814   0.172  0.1471  0.2625  0.8047
  741SOL  HW1   2222   1.832   2.782   0.082 -2.7117  0.1657 -1.3894
  741SOL  HW2   2223   1.832   2.902   0.191 -2.4176 -1.0983  2.1977
  742SOL  OW    2224   1.103   2.546   2.610  0.8055  0.1471 -0.5793
  742SOL  HW1   2225   1.052   2.461   2.586 -1.4792 -0.8642 -1.0856
  742SOL  HW2   2226   1.093   2.609   2.530 -2.3281  0.4822  3.0214
  743SOL  OW    2227   2.562   1.310   1.594  0.5956  0.0912 -0.1966
  743SOL  HW1   2228   2.554   1.406   1.558 -2.7773  0.5034  1.8484
  743SOL  HW2   2229   2.586   1.318   1.694  1.5520  0.8796  0.5764
  744SOL  OW    2230   2.453   1.430   0.971 -0.4963  0.6044  0.7199
  744SOL  HW1   2231   2.535   1.427   1.034  1.7617 -0.8502  1.0114
  744SOL  HW2   2232   2.467   1.499   0.902 -0.9708  0.5265 -1.2406
  745SOL  OW    2233   2.926   1.518   2.030 -0.1261 -0.5993 -0.0912
  745SOL  HW1   2234   2.887   1.429   2.051 -0.8164  1.7911 -1.3972
  745SOL  HW2   2235   2.991   1.513   1.951 -1.5342 -0.4476  0.3068
  746SOL  OW    2236   1.013   1.610   0.166  0.4733  0.0423 -0.4254
  746SOL  HW1   2237   1.006   1.683   0.238 -0.3130 -0.6641  0.5011
  746SOL  HW2   2238   1.066   1.526   0.202 -0.7129 -2.9874 -1.0547
  747SOL  OW    2239   0.424   1.820   2.366  0.0916  0.0223 -0.0862
  747SOL  HW1   2240   0.454   1.918   2.376  1.1398  1.3117  0.1337
  747SOL  HW2   2241   0.473   1.777   2.288  0.2436 -0.2617  2.8025
  748SOL  OW    2242   0.753   0.231   2.830 -0.7359 -0.1863 -0.1317
  748SOL  HW1   2243   0.740   0.186   2.737 -2.7255  0.2446 -1.4079
  748SOL  HW2   2244   0.750   0.169   2.915  0.7190 -2.8758  1.1392
  749SOL  OW    2245   0.677   1.620   0.316 -0.0681 -0.4916 -0.3277
  749SOL  HW1   2246   0.633   1.666   0.233  3.3477  2.5874  0.9062
  749SOL  HW2   2247   0.718   1.698   0.365  0.8744  1.9404 -0.1500
  750SOL  OW    2248   0.922   0.903   1.367 -0.1300 -0.0241 -0.1933
  750SOL  HW1   2249   0.900   0.907   1.267 -2.7159  1.2243  0.5537
  750SOL  HW2   2250   1.020   0.910   1.375  0.5945 -0.0169 -1.0240
  751SOL  OW    2251   2.559   0.908   1.074  0.7127 -0.3493  0.2750
  751SOL  HW1   2252   2.590   0.993   1.117  2.5621 -0.2312  0.8302
  751SOL  HW2   2253   2.536   0.843   1.145 -1.8036  0.0104  2.0694
  752SOL  OW    2254   0.789   2.820   1.780 -0.1924  0.8198  0.0995
  752SOL  HW1   2255   0.712   2.872   1.823  0.5358  1.3291 -0.4096
  752SOL  HW2   2256   0.863   2.793   1.846  1.9758 -0.8096  1.6590
  753SOL  OW    2257   0.118   1.808   1.996 -0.6009  0.3023  0.0190
  753SOL  HW1   2258   0.156   1.779   2.084  1.6681  3.0711 -0.0418
  753SOL  HW2   2259   0.166   1.890   1.959  1.0117  0.8819  0.8871
  754SOL  OW    2260   2.715   2.203   2.025 -0.0410 -0.0546  0.0658
  754SOL  HW1   2261   2.741   2.292   2.068 -1.0299 -0.3424  1.9656
  754SOL  HW2   2262   2.716   2.214   1.924 -1.1338 -2.1251  1.4865
  755SOL  OW    2263   2.162   1.294   0.432  0.6583  0.1795 -0.1935
  755SOL  HW1   2264   2.202   1.328   0.520 -0.5283  2.1856 -1.9118
  755SOL  HW2   2265   2.077   1.346   0.406  0.8241  0.8553  0.2526
  756SOL  OW    2266   2.087   1.882   0.268 -0.2521  0.6925 -0.1655
  756SOL  HW1   2267   2.087   1.898   0.166 -0.5449 -1.2603 -0.1623
  756SOL  HW2   2268   2.167   1.920   0.315 -2.1209 -0.2212 -1.8489
  757SOL  OW    2269   0.075   1.046   2.561 -0.2701 -0.0408 -0.2569
  757SOL  HW1   2270   0.174   1.049   2.565  1.4644  0.6847  2.3937
  757SOL  HW2   2271   0.044   1.092   2.475 -1.6232  3.5656 -1.6928
  758SOL  OW    2272   2.236   1.087   1.755  0.0029 -0.4738 -0.2780
  758SOL  HW1   2273   2.287   1.094   1.666  0.8338  1.3151 -0.6428
  758SOL  HW2   2274   2.289   1.139   1.825 -1.1560 -2.4500  0.3431
  759SOL  OW    2275   2.263   3.009   1.426 -0.3633  0.1924 -0.1173
  759SOL  HW1   2276   2.362   2.998   1.410 -0.6359  1.5482  4.3486
  759SOL  HW2   2277   2.229   0.005   1.455 -0.1659  2.9696  2.7734
  760SOL  OW    2278   0.357   1.399   1.362 -0.4427  0.2507  0.1120
  760SOL  HW1   2279   0.423   1.476   1.379  0.1635 -2.5254  2.6255
  760SOL  HW2   2280   0.400   1.338   1.293 -0.8454 -1.0869  2.5947
  761SOL  OW    2281   1.623   0.384   2.100  0.3643 -0.3230  0.3506
  761SOL  HW1   2282   1.523   0.418   2.116 -3.3764  0.8161  1.7018
  761SOL  HW2   2283   1.650   0.314   2.169  2.0196 -0.3052  1.9389
  762SOL  OW    2284   0.222   2.224   0.978 -0.5774 -0.2782 -0.0038
  762SOL  HW1   2285   0.210   2.326   0.967  0.3136 -2.1538 -0.5123
  762SOL  HW2   2286   0.233   2.201   1.076 -1.0708 -0.0226  0.4062
  763SOL  OW    2287   1.368   0.474   2.144  0.6335  0.5400 -0.1415
  763SOL  HW1   2288   1.355   0.492   2.044  0.9910  2.0932  1.3414
  763SOL  HW2   2289   1.278   0.457   2.188  0.4338 -0.4245  0.7113
  764SOL  OW    2290   0.012   2.738   2.764 -0.1345  0.3345 -0.0699
  764SOL  HW1   2291   3.045   2.816   2.750 -3.7694 -2.3783  1.5197
  764SOL  HW2   2292   0.031   2.718   2.861 -0.9918  0.4425  3.0432
  765SOL  OW    2293   0.039   2.046   2.769  0.0021 -0.0226  0.2337
  765SOL  HW1   2294   0.080   1.968   2.718 -1.0068 -0.3575 -1.2027
  765SOL  HW2   2295   3.054   2.016   2.830  0.0661 -3.5907  1.3296
  766SOL  OW    2296   2.748   2.138   0.013  0.0843 -0.0886  0.1287
  766SOL  HW1   2297   2.755   2.215   0.074  2.0939  0.7107  1.0537
  766SOL  HW2   2298   2.659   2.125   3.062  1.4667 -0.1221  1.6218
  767SOL  OW    2299   1.619   1.180   2.395  0.1878  0.1175 -0.2021
  767SOL  HW1   2300   1.605   1.205   2.492 -1.2960  1.5107 -0.4076
  767SOL  HW2   2301   1.597   1.263   2.340 -1.6166  0.2729  1.7460
  768SOL  OW    2302   2.524   1.552   3.011 -0.1395 -0.2696 -0.2883
  768SOL  HW1   2303   2.527   1.652   3.033  0.0390  1.6687 -0.9715
  768SOL  HW2   2304   2.456   1.530   2.936 -2.4364 -0.2975 -1.3806
  769SOL  OW    2305   3.059   1.675   0.808 -0.4776 -0.2481 -0.3159
  769SOL  HW1   2306   3.047   1.777   0.812 -0.2228 -1.6931 -0.2121
  769SOL  HW2   2307   2.986   1.627   0.858  0.1584 -0.0222  0.5125
  770SOL  OW    2308   2.364   1.243   2.212  0.2222 -0.4713 -0.7836
  770SOL  HW1   2309   2.306   1.179   2.274  1.3263 -2.4623  1.5174
  770SOL  HW2   2310   2.307   1.314   2.166  1.5174 -2.2872 -1.3163
  771SOL  OW    2311   2.311   0.057   2.676 -0.5692  0.0193  0.5277
  771SOL  HW1   2312   2.263   3.069   2.639  2.0059  1.3974  1.2513
  771SOL  HW2   2313   2.404   0.035   2.707  1.0284  0.9455  1.2085
  772SOL  OW    2314   2.241   1.457   1.549 -0.0794 -0.3110 -0.0487
  772SOL  HW1   2315   2.154   1.417   1.514  1.4933  0.0982 -0.8486
  772SOL  HW2   2316   2.265   1.425   1.643  1.3537  3.6034 -0.0497
  773SOL  OW    2317   1.140   1.306   2.048  0.6525  0.2480 -1.1661
  773SOL  HW1   2318   1.042   1.298   2.017 -2.0624  1.0154 -0.0411
  773SOL  HW2   2319   1.154   1.282   2.148  0.6524  2.1101 -2.9772
  774SOL  OW    2320   1.897   0.813   2.541  0.2894 -0.5363 -0.6067
  774SOL  HW1   2321   1.828   0.774   2.608  2.9534  3.0055 -0.5798
  774SOL  HW2   2322   1.856   0.880   2.472 -0.3374 -1.0680  2.6422
  775SOL  OW    2323   1.759   1.708   3.060  0.1099  0.0721 -0.1011
  775SOL  HW1   2324   1.705   1.617   3.063  1.3597 -2.4092 -0.2598
  775SOL  HW2   2325   1.799   1.737   0.056  0.2859  0.4182  1.1562
  776SOL  OW    2326   2.958   1.564   1.669  0.2610  0.3997  0.3171
  776SOL  HW1   2327   2.882   1.628   1.687 -2.3608 -0.0757  1.4070
  776SOL  HW2   2328   2.928   1.467   1.658 -1.1601  0.0690  0.4400
  777SOL  OW    2329   2.135   1.669   1.770  0.0774 -0.3766 -0.4552
  777SOL  HW1   2330   2.044   1.638   1.806  2.7810  2.8493 -0.4186
  777SOL  HW2   2331   2.145   1.648   1.672  3.2260  2.0704  0.1846
  778SOL  OW    2332   1.972   0.885   1.998 -0.2516 -0.1087 -0.6093
  778SOL  HW1   2333   2.005   0.925   2.086 -0.9679  2.8766 -0.8500
  778SOL  HW2   2334   1.879   0.923   1.983 -1.3442 -0.7454  1.4450
  779SOL  OW    2335   2.689   0.988   3.037  0.2238  0.1067  0.0480
  779SOL  HW1   2336   2.638   0.992   2.951  1.1367 -1.1963  1.4259
  779SOL  HW2   2337   2.777   1.046   3.041  0.0369 -2.7736  2.9191
  780SOL  OW    2338   2.574   2.942   0.629  0.2323 -0.5102  0.5757
  780SOL  HW1   2339   2.600   2.842   0.606 -0.9453 -4.1767 -1.2491
  780SOL  HW2   2340   2.561   2.990   0.536  1.8499  0.2879 -1.7739
  781SOL  OW    2341   2.852   2.272   1.176 -0.5605  0.3798 -0.5182
  781SOL  HW1   2342   2.752   2.284   1.172  2.6298  1.4821  3.4880
  781SOL  HW2   2343   2.895   2.338   1.114  1.0004 -0.3419  0.8488
  782SOL  OW    2344   3.038   2.466   2.748  0.3654 -0.3072  0.4176
  782SOL  HW1   2345   3.089   2.395   2.803 -0.3988 -1.8302 -0.2101
  782SOL  HW2   2346   3.078   2.558   2.761  1.2467 -2.6304  0.5625
  783SOL  OW    2347   0.993   1.384   1.573  0.3680 -0.0448  0.4956
  783SOL  HW1   2348   0.944   1.460   1.627  0.8350 -0.4476 -2.0917
  783SOL  HW2   2349   0.991   1.299   1.629 -2.6072 -2.5097  1.7023
  784SOL  OW    2350   2.192   1.534   0.089  0.2818 -0.4563 -0.0095
  784SOL  HW1   2351   2.222   1.441   0.110 -0.7597 -1.4690 -0.5695
  784SOL  HW2   2352   2.261   1.600   0.120  0.9775 -0.7077 -0.9561
  785SOL  OW    2353   2.303   2.134   0.124  0.1794 -0.2924 -0.3825
  785SOL  HW1   2354   2.227   2.073   0.096 -0.4593  0.1395  1.9886
  785SOL  HW2   2355   2.336   2.112   0.218 -1.8778 -1.1360 -0.8176
  786SOL  OW    2356   0.585   3.041   0.205 -0.2498  0.7825 -0.1189
  786SOL  HW1   2357   0.643   0.026   0.198 -0.6760 -0.6962 -2.4175
  786SOL  HW2   2358   0.513   3.032   0.129 -0.1079  0.5153  0.6547
  787SOL  OW    2359   1.317   0.012   1.457  0.1664 -0.3503 -0.5056
  787SOL  HW1   2360   1.380   3.071   1.382  1.6745  0.4660 -0.6925
  787SOL  HW2   2361   1.339   0.108   1.481 -0.4115 -0.3066  1.0051
  788SOL  OW    2362   0.517   0.744   3.046 -0.2788 -0.4102 -0.7808
  788SOL  HW1   2363   0.460   0.709   0.030 -1.1585  0.5277  1.0380
  788SOL  HW2   2364   0.482   0.698   2.960 -1.8397  1.9369 -1.2812
  789SOL  OW    2365   2.464   1.999   1.713  0.0488 -0.2436 -0.0742
  789SOL  HW1   2366   2.426   1.919   1.662 -2.1376  0.1021 -1.6712
  789SOL  HW2   2367   2.387   2.062   1.737  2.2537  0.7773  0.7274
  790SOL  OW    2368   1.452   2.762   1.101 -0.3201 -0.1649  0.4062
  790SOL  HW1   2369   1.384   2.696   1.066  0.3363 -1.4140  1.8812
  790SOL  HW2   2370   1.539   2.706   1.109 -0.6155 -2.2879 -1.4349
  791SOL  OW    2371   0.405   0.604   2.845 -0.5568  0.1906  0.2144
  791SOL  HW1   2372   0.463   0.551   2.784 -2.2868  2.2992  1.0320
  791SOL  HW2   2373   0.352   0.541   2.904 -1.1460 -1.4162  1.7796
  792SOL  OW    2374   1.246   2.627   1.015  0.0764  0.0883  0.1182
  792SOL  HW1   2375   1.279   2.534   0.984 -0.3928 -1.8828  1.3603
  792SOL  HW2   2376   1.210   2.687   0.942 -1.9164  4.7308  1.1414
  793SOL  OW    2377   0.814   2.974   0.840 -0.1498 -0.1140 -0.6124
  793SOL  HW1   2378   0.822   2.990   0.740 -0.2050 -1.3335  1.6030
  793SOL  HW2   2379   0.718   2.998   0.867 -0.0429 -0.7090  1.1382
  794SOL  OW    2380   0.361   1.037   2.492  0.2425  0.3591 -0.7791
  794SOL  HW1   2381   0.360   1.132   2.462  0.9740 -0.4827  2.2958
  794SOL  HW2   2382   0.384   1.033   2.591 -0.6057 -0.0099  0.8883
  795SOL  OW    2383   0.461   0.951   2.727  0.0553  0.1510  0.3643
  795SOL  HW1   2384   0.514   0.895   2.658  1.1055  0.9579  0.5586
  795SOL  HW2   2385   0.382   0.902   2.762  2.2844  1.9803 -3.1662
  796SOL  OW    2386   2.623   1.693   0.571  0.0944 -0.2937  0.2056
  796SOL  HW1   2387   2.583   1.783   0.571 -1.2812  1.7970  0.5146
  796SOL  HW2   2388   2.569   1.622   0.523 -1.1690  0.2261 -1.1604
  797SOL  OW    2389   0.334   0.085   2.908 -0.4791 -0.1503  0.0513
  797SOL  HW1   2390   0.339   0.009   2.978  0.1684 -0.3615 -0.1500
  797SOL  HW2   2391   0.243   0.130   2.905  1.1442 -1.8379 -0.8489
  798SOL  OW    2392   2.145   2.434   1.561  0.0912 -0.7864 -0.0009
  798SOL  HW1   2393   2.241   2.455   1.537  2.3845  0.8962 -1.0880
  798SOL  HW2   2394   2.080   2.489   1.502 -0.7773 -3.6490 -1.6119
  799SOL  OW    2395   3.091   1.535   2.511 -0.7866  0.2514 -0.2584
  799SOL  HW1   2396   3.024   1.613   2.540  1.3003  3.0384  1.0516
  799SOL  HW2   2397   0.066   1.512   2.584 -0.7634 -0.1374 -2.3735
  800SOL  OW    2398   1.122   0.892   1.671  0.3349 -0.1457  0.4846
  800SOL  HW1   2399   1.200   0.931   1.729  1.4105 -2.5825 -1.4560
  800SOL  HW2   2400   1.059   0.833   1.726  0.5532 -3.1832 -0.2990
  801SOL  OW    2401   2.941   0.996   0.683 -0.3471 -0.0566  0.4229
  801SOL  HW1   2402   2.978   0.976   0.774  1.9897  0.4342  1.4251
  801SOL  HW2   2403   2.892   0.914   0.640  0.0960 -1.1811 -2.1885
  802SOL  OW    2404   2.577   1.613   0.826  0.1196  0.3700  0.9949
  802SOL  HW1   2405   2.604   1.620   0.729 -1.1566 -0.4416  0.6394
  802SOL  HW2   2406   2.533   1.699   0.854 -1.2507  0.4140 -1.6826
  803SOL  OW    2407   1.919   1.694   2.848  0.0701  0.5026  0.2811
  803SOL  HW1   2408   1.938   1.594   2.835  3.9253 -0.5165  1.4030
  803SOL  HW2   2409   1.868   1.708   2.938  0.5325 -0.2774 -1.1110
  804SOL  OW    2410   2.653   2.781   0.282  0.3877 -0.4441 -0.0934
  804SOL  HW1   2411   2.665   2.765   0.182 -1.2151 -0.9406 -2.0001
  804SOL  HW2   2412   2.626   2.876   0.307  3.5494  0.6120  1.0643
  805SOL  OW    2413   0.239   1.409   0.665 -0.1674 -0.4595 -0.0460
  805SOL  HW1   2414   0.150   1.438   0.628  0.4270 -0.4579  0.2857
  805SOL  HW2   2415   0.245   1.428   0.764  0.4582  1.1806  0.5373
  806SOL  OW    2416   0.742   0.299   0.970  0.4077 -0.0580 -0.5218
  806SOL  HW1   2417   0.827   0.309   0.911 -0.1815 -0.7316  1.8489
  806SOL  HW2   2418   0.772   0.246   1.054  0.0236 -2.9346  1.9609
  807SOL  OW    2419   2.286   1.867   2.397  0.0102 -0.5535 -0.2266
  807SOL  HW1   2420   2.207   1.915   2.438 -1.1031  1.4654  1.9374
  807SOL  HW2   2421   2.263   1.766   2.408  3.0298  0.1175 -0.1616
  808SOL  OW    2422   0.907   1.341   0.663  0.2722 -0.1495  0.8210
  808SOL  HW1   2423   0.908   1.340   0.764  2.1478 -2.2851  3.7841
  808SOL  HW2   2424   0.820   1.383   0.627  0.4829 -1.2523 -3.2572
  809SOL  OW    2425   2.398   1.922   2.158  0.0958 -0.1105 -0.3831
  809SOL  HW1   2426   2.353   1.907   2.251  0.6043  2.3992  1.1310
  809SOL  HW2   2427   2.481   1.867   2.159  0.5689 -4.1142 -0.2293
  810SOL  OW    2428   1.508   0.335   0.136 -0.1263 -0.5236 -0.1415
  810SOL  HW1   2429   1.447   0.388   0.196  0.6727  2.8135 -0.1951
  810SOL  HW2   2430   1.489   0.358   0.035 -0.6869  1.0837  0.9748
  811SOL  OW    2431   1.200   1.736   0.587 -0.0997  0.2891 -0.4430
  811SOL  HW1   2432   1.160   1.643   0.581  1.2996  1.9187  0.8988
  811SOL  HW2   2433   1.297   1.732   0.569  1.3017  0.8701  1.8145
  812SOL  OW    2434   0.823   0.182   1.611  0.2817 -0.5390 -0.3044
  812SOL  HW1   2435   0.886   0.105   1.632 -1.7506  1.1310  2.0319
  812SOL  HW2   2436   0.762   0.153   1.539  0.8112 -1.6106 -0.8009
  813SOL  OW    2437   1.489   0.554   2.377  0.1240  0.4004  0.0389
  813SOL  HW1   2438   1.563   0.610   2.340  0.8018  3.5414  1.5290
  813SOL  HW2   2439   1.431   0.521   2.298 -0.2320  1.7190 -1.5489
  814SOL  OW    2440   1.503   2.605   0.124  0.2421  0.2716  1.0215
  814SOL  HW1   2441   1.506   2.684   0.191 -1.1753  0.3800 -1.3922
  814SOL  HW2   2442   1.502   2.516   0.176  0.9722  1.1768  0.0175
  815SOL  OW    2443   1.030   0.792   2.123 -0.1998  0.2301  0.5400
  815SOL  HW1   2444   1.049   0.762   2.219 -3.0081 -0.3714 -2.3840
  815SOL  HW2   2445   1.115   0.788   2.071  0.2780  2.2367  3.0527
  816SOL  OW    2446   2.085   2.703   2.455 -0.2488  0.1520  0.2693
  816SOL  HW1   2447   2.061   2.638   2.529  1.1765 -0.7375 -2.1954
  816SOL  HW2   2448   2.000   2.744   2.422 -1.2186 -3.5874  1.6214
  817SOL  OW    2449   2.288   0.061   2.034  0.2234 -0.3599  0.2422
  817SOL  HW1   2450   2.352   3.086   2.054 -1.2336 -1.0537  0.0272
  817SOL  HW2   2451   2.210   0.053   2.096  0.8620  3.4420 -0.1362
  818SOL  OW    2452   2.466   0.614   0.034 -0.7591 -0.3930 -0.0054
  818SOL  HW1   2453   2.394   0.660   3.066  1.3478  1.9746 -0.0162
  818SOL  HW2   2454   2.456   0.512   0.031  2.0530  0.6114  2.2230
  819SOL  OW    2455   2.741   1.467   2.375 -0.4902 -0.2356  0.3163
  819SOL  HW1   2456   2.774   1.560   2.355 -4.4099  1.4159 -3.8691
  819SOL  HW2   2457   2.819   1.403   2.388  0.6244 -0.3998 -1.5246
  820SOL  OW    2458   2.639   1.869   1.074 -0.2841  0.2205 -0.1796
  820SOL  HW1   2459   2.595   1.892   1.165  1.4459  1.2741 -1.1180
  820SOL  HW2   2460   2.564   1.859   1.003  1.1679  0.9510  0.8795
  821SOL  OW    2461   0.513   2.008   1.967 -0.1954 -0.4370 -0.3118
  821SOL  HW1   2462   0.573   1.934   1.928  0.8733  0.5758 -0.3442
  821SOL  HW2   2463   0.561   2.057   2.044 -0.3913  0.8296 -1.7095
  822SOL  OW    2464   0.188   2.781   2.337 -0.8727  0.0018 -0.1826
  822SOL  HW1   2465   0.274   2.732   2.370  0.4576 -4.4707 -0.5649
  822SOL  HW2   2466   0.140   2.721   2.269  0.9345  0.9567 -2.0195
  823SOL  OW    2467   1.584   2.660   2.290 -0.5465  0.0740 -0.0087
  823SOL  HW1   2468   1.539   2.723   2.357 -0.0799  0.5079  0.9686
  823SOL  HW2   2469   1.542   2.571   2.283  1.3180 -2.2768  1.9286
  824SOL  OW    2470   1.902   1.511   0.577 -0.2270 -1.3556 -0.5215
  824SOL  HW1   2471   1.883   1.418   0.611 -0.2659  0.1021  2.6715
  824SOL  HW2   2472   1.936   1.507   0.479 -1.8950  1.1994  0.7830
  825SOL  OW    2473   0.081   1.979   2.360  0.0719  0.0410 -0.1936
  825SOL  HW1   2474   0.121   1.900   2.306 -0.0644  1.2399  2.7221
  825SOL  HW2   2475   3.079   1.990   2.345  1.1313  0.4075  1.8000
  826SOL  OW    2476   0.180   1.884   0.159  0.0796  0.0219  0.3750
  826SOL  HW1   2477   0.277   1.883   0.181 -2.6272 -1.4992 -0.1686
  826SOL  HW2   2478   0.143   1.968   0.125  1.3908 -0.0830  0.0967
  827SOL  OW    2479   0.245   2.207   2.402  0.5254  0.6101 -0.3921
  827SOL  HW1   2480   0.190   2.290   2.380  0.1079  1.5156 -1.7321
  827SOL  HW2   2481   0.188   2.120   2.382  1.0272 -1.3231  2.2158
  828SOL  OW    2482   2.527   2.722   0.847 -0.0789 -0.2477 -0.0530
  828SOL  HW1   2483   2.572   2.799   0.792  1.5317  1.5971  3.1509
  828SOL  HW2   2484   2.481   2.758   0.929 -3.2320 -1.1815  1.0359
  829SOL  OW    2485   1.783   2.358   2.420 -0.5325  0.2429 -0.4961
  829SOL  HW1   2486   1.842   2.369   2.341 -2.1407 -0.0094  1.2493
  829SOL  HW2   2487   1.812   2.278   2.476  0.5509 -0.0646 -0.3635
  830SOL  OW    2488   1.229   2.949   0.750  0.6766 -0.2849  0.0918
  830SOL  HW1   2489   1.322   2.964   0.794 -3.0696  4.4161 -0.7775
  830SOL  HW2   2490   1.227   2.970   0.648  2.4719 -0.7616  1.5089
  831SOL  OW    2491   2.167   1.171   0.756  0.0473 -0.1615 -0.3047
  831SOL  HW1   2492   2.239   1.228   0.723  0.6466 -2.0243 -0.5452
  831SOL  HW2   2493   2.094   1.228   0.798  0.4857  2.4716  0.2384
  832SOL  OW    2494   1.351   2.058   1.181 -0.0264  0.2826 -0.1888
  832SOL  HW1   2495   1.380   1.987   1.250  1.5391 -0.9268  0.0404
  832SOL  HW2   2496   1.307   2.136   1.234 -1.1633 -1.0033 -0.1435
  833SOL  OW    2497   2.661   2.275   1.776 -0.0775 -0.4964  0.0608
  833SOL  HW1   2498   2.586   2.343   1.790  1.9268  1.5035  2.9680
  833SOL  HW2   2499   2.666   2.238   1.680  0.8789  0.9255 -0.0785
  834SOL  OW    2500   0.262   0.502   1.010  0.6710 -0.1208 -0.1369
  834SOL  HW1   2501   0.282   0.595   1.051 -1.8812 -0.9488  0.6334
  834SOL  HW2   2502   0.284   0.431   1.080 -0.6834  0.1456  2.6860
  835SOL  OW    2503   3.066   0.733   1.706 -0.4144 -0.6895  0.0588
  835SOL  HW1   2504   2.968   0.743   1.726 -0.1016 -0.6448 -0.1282
  835SOL  HW2   2505   3.083   0.742   1.607 -2.0584 -0.2747  3.9589
  836SOL  OW    2506   0.082   3.088   1.812 -0.1871  0.1644  0.2096
  836SOL  HW1   2507   0.172   0.005   1.855 -0.7028 -0.0557 -1.3241
  836SOL  HW2   2508   0.055   2.989   1.810  1.1151 -2.0183 -0.1171
  837SOL  OW    2509   1.996   1.321   0.865  0.4033 -0.1139  0.1632
  837SOL  HW1   2510   1.937   1.334   0.948  1.7398 -1.5359  1.6376
  837SOL  HW2   2511   1.940   1.293   0.783  0.1638  2.4153  0.6505
  838SOL  OW    2512   1.844   2.181   2.034 -0.0387 -0.7988 -0.3831
  838SOL  HW1   2513   1.889   2.115   1.969  1.0524 -1.7268  1.3613
  838SOL  HW2   2514   1.768   2.239   1.991  1.4715 -1.2640 -0.4491
  839SOL  OW    2515   1.004   2.444   0.102  0.1583 -0.0666  0.1919
  839SOL  HW1   2516   1.088   2.414   0.053  0.3695 -0.0987 -0.5795
  839SOL  HW2   2517   0.942   2.366   0.100  1.6908 -0.8212  1.4427
  840SOL  OW    2518   1.313   2.863   2.216  0.0505 -0.7845 -0.2781
  840SOL  HW1   2519   1.367   2.838   2.298 -1.1620  0.3178 -0.6386
  840SOL  HW2   2520   1.242   2.932   2.247 -0.0567  1.9667  0.6042
  841SOL  OW    2521   1.962   1.952   1.923  0.0337  0.0462 -0.1347
  841SOL  HW1   2522   2.057   1.926   1.948  0.9161  0.6955 -0.7537
  841SOL  HW2   2523   1.892   1.879   1.938 -1.3766 -0.5362  0.3277
  842SOL  OW    2524   2.208   1.411   2.079  0.1232  0.1189  0.1869
  842SOL  HW1   2525   2.237   1.413   1.980  0.3119  1.6209  0.4187
  842SOL  HW2   2526   2.175   1.502   2.111  0.2460  0.6728 -0.5314
  843SOL  OW    2527   1.849   1.733   0.214 -0.3338  0.0371  0.2895
  843SOL  HW1   2528   1.810   1.660   0.270 -0.7879 -3.0550  0.6313
  843SOL  HW2   2529   1.941   1.764   0.254 -0.0521 -0.1556 -0.3223
  844SOL  OW    2530   2.106   2.910   2.888 -0.0083 -0.0891  0.1067
  844SOL  HW1   2531   2.044   2.957   2.825 -0.6179 -1.7295  2.1572
  844SOL  HW2   2532   2.132   2.981   2.960 -1.7573 -3.3254 -1.0433
  845SOL  OW    2533   2.722   0.639   0.865 -0.1015  0.4400 -0.5892
  845SOL  HW1   2534   2.670   0.572   0.806 -1.1441  1.3114  1.8767
  845SOL  HW2   2535   2.716   0.611   0.962 -1.0003  0.3728 -2.0952
  846SOL  OW    2536   0.581   2.099   3.016 -0.4086 -0.1661 -0.3558
  846SOL  HW1   2537   0.674   2.075   3.051 -1.4215 -1.6209 -1.2709
  846SOL  HW2   2538   0.539   2.018   2.965  1.5741 -0.7750 -2.2093
  847SOL  OW    2539   1.567   2.246   1.052  0.1144 -0.0341 -0.6228
  847SOL  HW1   2540   1.609   2.291   1.129 -0.2997 -0.3523  1.6198
  847SOL  HW2   2541   1.521   2.162   1.084 -0.2760  2.0852  0.5762
  848SOL  OW    2542   0.488   1.452   0.029  0.4193  0.5271 -0.3366
  848SOL  HW1   2543   0.492   1.455   3.023 -0.2716 -0.8535 -0.6994
  848SOL  HW2   2544   0.404   1.403   0.067  0.5171  2.5638  0.3107
  849SOL  OW    2545   0.257   0.336   1.997 -0.2312  0.0524  0.0698
  849SOL  HW1   2546   0.185   0.356   1.924 -0.9868  3.8234 -3.2674
  849SOL  HW2   2547   0.279   0.236   1.990  2.0102  2.0336 -4.0399
  850SOL  OW    2548   0.317   0.118   0.792 -0.2061 -0.6405  0.3604
  850SOL  HW1   2549   0.411   0.154   0.814  1.4283 -0.1204  0.8629
  850SOL  HW2   2550   0.262   0.123   0.876 -3.2281 -0.5492 -0.2545
  851SOL  OW    2551   1.904   3.000   2.716 -0.0034 -0.3158  0.7021
  851SOL  HW1   2552   1.876   2.988   2.617  0.8411 -1.0652 -0.4173
  851SOL  HW2   2553   1.820   2.994   2.774 -1.2487  0.6884 -0.1769
  852SOL  OW    2554   1.406   2.317   2.066 -0.0797 -0.4380  0.4674
  852SOL  HW1   2555   1.418   2.213   2.071  0.3023  0.9338  1.3833
  852SOL  HW2   2556   1.417   2.361   2.157  0.9161 -0.4607  2.7838
  853SOL  OW    2557   2.423   0.352   3.090  0.8675 -0.3894  0.0933
  853SOL  HW1   2558   2.484   0.285   0.035 -1.4908  1.9384  1.6438
  853SOL  HW2   2559   2.333   0.330   3.080 -0.1398  0.0123  3.0322
  854SOL  OW    2560   2.677   2.494   0.869  0.1550 -0.3084 -0.0341
  854SOL  HW1   2561   2.623   2.583   0.869  1.8925  0.4322  0.6769
  854SOL  HW2   2562   2.777   2.522   0.869  0.1299  0.6341  0.7912
  855SOL  OW    2563   1.632   1.934   2.927 -0.5902  0.7097  0.1657
  855SOL  HW1   2564   1.537   1.901   2.905 -2.9775  0.6963 -1.0421
  855SOL  HW2   2565   1.678   1.873   2.996 -0.5365  1.2107  0.7685
  856SOL  OW    2566   3.032   0.214   0.602 -0.4992 -0.0502  0.4880
  856SOL  HW1   2567   3.010   0.305   0.556  0.2034 -0.3493 -2.4489
  856SOL  HW2   2568   2.957   0.153   0.579 -0.9962  2.0391  1.2229
  857SOL  OW    2569   1.974   2.540   1.391  0.2066  0.4289 -0.5371
  857SOL  HW1   2570   1.924   2.452   1.413 -1.7011 -1.1226 -2.2068
  857SOL  HW2   2571   1.906   2.609   1.366  2.6153  0.3087 -1.5075
  858SOL  OW    2572   0.255   1.372   2.156 -0.2468 -0.1244 -0.5519
  858SOL  HW1   2573   0.315   1.430   2.090 -0.7904  0.4925 -0.3709
  858SOL  HW2   2574   0.172   1.420   2.183  0.2448 -1.7718 -0.5442
  859SOL  OW    2575   1.641   2.096   0.361 -0.5416  0.1175 -0.0027
  859SOL  HW1   2576   1.559   2.107   0.416 -0.3282 -1.0999 -1.6620
  859SOL  HW2   2577   1.729   2.115   0.407 -0.8385  2.7678  1.8787
  860SOL  OW    2578   1.552   2.807   0.297 -0.5187  0.5328  0.1166
  860SOL  HW1   2579   1.511   2.890   0.345 -1.3249 -1.5678  0.2614
  860SOL  HW2   2580   1.643   2.827   0.261  0.7725  0.9375 -0.1062
  861SOL  OW    2581   2.302   2.206   0.591 -0.5029  0.2022  0.7503
  861SOL  HW1   2582   2.210   2.252   0.608  1.0114 -2.2143  3.1402
  861SOL  HW2   2583   2.375   2.276   0.576 -1.2271 -1.5324 -0.6888
  862SOL  OW    2584   2.020   2.775   0.809  0.0884 -0.0376 -0.6809
  862SOL  HW1   2585   2.007   2.698   0.740 -0.3677  0.4552 -1.2679
  862SOL  HW2   2586   1.963   2.749   0.889  1.3184  2.5461 -0.8231
  863SOL  OW    2587   0.993   0.294   0.871  0.4621  0.6653  0.0150
  863SOL  HW1   2588   1.016   0.199   0.878  1.5305 -2.9816  3.5023
  863SOL  HW2   2589   1.050   0.339   0.800  0.3168  2.4906  0.4978
  864SOL  OW    2590   2.976   2.672   2.022  0.5611  0.0325  0.9129
  864SOL  HW1   2591   2.993   2.717   1.933  2.1820 -0.5086  0.1608
  864SOL  HW2   2592   2.893   2.710   2.062 -2.0500 -1.1107  1.0683
  865SOL  OW    2593   2.531   2.428   2.809  0.1643  0.2625 -0.5009
  865SOL  HW1   2594   2.470   2.475   2.744 -0.0955  0.4232 -0.5888
  865SOL  HW2   2595   2.631   2.462   2.800 -0.7699 -0.1483 -1.2233
  866SOL  OW    2596   2.502   0.997   2.823  0.5351  0.2168 -0.2058
  866SOL  HW1   2597   2.408   0.980   2.850 -0.9609  0.1936  0.4902
  866SOL  HW2   2598   2.512   1.078   2.760  1.8370  0.7589  0.0260
  867SOL  OW    2599   2.340   0.219   2.340 -0.2822 -0.1603  0.0634
  867SOL  HW1   2600   2.333   0.263   2.432 -0.0058 -1.6421  1.1699
  867SOL  HW2   2601   2.343   0.281   2.261 -0.6075  0.0331 -0.9429
  868SOL  OW    2602   0.024   1.922   1.229  0.2814  0.2161 -0.7582
  868SOL  HW1   2603   3.042   1.933   1.164 -0.8288 -2.0970  0.9971
  868SOL  HW2   2604   0.113   1.955   1.194  1.5185  2.1295 -0.0172
  869SOL  OW    2605   1.385   1.067   0.201 -0.1169 -0.1968 -0.0050
  869SOL  HW1   2606   1.295   1.078   0.244  1.9631 -0.9656 -0.7472
  869SOL  HW2   2607   1.373   1.066   0.102  0.7282  0.5115  1.9805
  870SOL  OW    2608   2.805   2.473   0.577 -0.2064  0.5127  0.1533
  870SOL  HW1   2609   2.869   2.426   0.636 -0.1863  1.0051  0.5762
  870SOL  HW2   2610   2.852   2.496   0.490  1.8091  0.0060  0.3982
  871SOL  OW    2611   1.765   1.063   1.990 -0.4725 -0.7564 -0.1174
  871SOL  HW1   2612   1.694   1.086   2.057 -0.3258 -1.7455  0.5422
  871SOL  HW2   2613   1.779   1.136   1.919 -0.0504  1.7488 -2.4268
  872SOL  OW    2614   1.255   0.743   0.862  0.1190 -0.3979  0.4841
  872SOL  HW1   2615   1.242   0.841   0.891  3.1142 -1.8302 -0.2279
  872SOL  HW2   2616   1.293   0.691   0.943  0.7706  0.2920 -0.5839
  873SOL  OW    2617   2.257   0.907   2.897  0.0087 -0.4420  0.8921
  873SOL  HW1   2618   2.245   0.807   2.933  4.0310 -4.3937 -0.4039
  873SOL  HW2   2619   2.185   0.931   2.829  0.5921  1.1569 -1.5524
  874SOL  OW    2620   2.398   1.763   1.540 -0.2434 -0.9158  0.2940
  874SOL  HW1   2621   2.448   1.682   1.569 -0.2557 -0.0041  3.0559
  874SOL  HW2   2622   2.299   1.748   1.517 -0.9415  4.1441  2.1779
  875SOL  OW    2623   0.515   0.304   3.011  0.2723  0.4215  0.3005
  875SOL  HW1   2624   0.493   0.212   2.976  1.2986  0.2989 -0.4146
  875SOL  HW2   2625   0.427   0.357   3.006  0.0407 -0.5910 -1.3051
  876SOL  OW    2626   1.416   0.516   2.626  0.8983  0.1879 -0.0926
  876SOL  HW1   2627   1.444   0.542   2.531 -1.6696 -0.7399  0.5669
  876SOL  HW2   2628   1.430   0.592   2.691  0.0094 -0.4040  1.8042
  877SOL  OW    2629   2.984   0.679   0.878  0.0588  0.2393 -0.1618
  877SOL  HW1   2630   3.014   0.584   0.908 -1.9568 -0.3414 -3.2066
  877SOL  HW2   2631   2.885   0.686   0.875  0.1037 -1.9104  1.0999
  878SOL  OW    2632   2.326   2.503   2.976  0.5533  0.8164  0.0252
  878SOL  HW1   2633   2.399   2.451   2.926 -2.0562  0.5617 -1.5357
  878SOL  HW2   2634   2.298   2.456   3.058  0.0851 -0.4193  0.7506
  879SOL  OW    2635   2.314   2.093   1.026 -0.2535 -0.0447 -0.5938
  879SOL  HW1   2636   2.360   2.093   0.936 -0.5534  3.3366 -2.0975
  879SOL  HW2   2637   2.277   2.005   1.057  0.9748  2.0596 -1.7961
  880SOL  OW    2638   0.903   1.309   1.891  0.5623  0.0242  0.4570
  880SOL  HW1   2639   0.905   1.252   1.809 -1.5729  0.6364 -0.7303
  880SOL  HW2   2640   0.910   1.410   1.865  0.1788  2.3819  0.4493
  881SOL  OW    2641   0.893   0.950   0.160  0.3980 -0.0442 -0.1870
  881SOL  HW1   2642   0.811   0.942   0.097 -1.6709 -0.5111 -1.9083
  881SOL  HW2   2643   0.892   1.038   0.208  1.2365  0.6476  1.3017
  882SOL  OW    2644   1.435   3.007   1.233 -0.1687 -0.0431 -0.8131
  882SOL  HW1   2645   1.363   3.070   1.194 -2.1498  0.2554 -0.4146
  882SOL  HW2   2646   1.423   2.913   1.196 -0.8516  1.8555  1.2851
  883SOL  OW    2647   2.080   0.958   2.693  0.3760  0.0894 -0.2933
  883SOL  HW1   2648   2.014   0.900   2.643  1.7059 -0.3516  0.1497
  883SOL  HW2   2649   2.104   1.045   2.644  1.5193 -0.2563 -0.0358
  884SOL  OW    2650   2.862   1.587   0.434  0.0531  0.0874 -0.5087
  884SOL  HW1   2651   2.831   1.553   0.340  0.2577 -1.4780 -2.6569
  884SOL  HW2   2652   2.785   1.597   0.502 -1.6675 -0.6609 -0.0088
  885SOL  OW    2653   1.471   1.707   1.008  0.6278  0.2422 -0.0466
  885SOL  HW1   2654   1.559   1.724   0.961 -0.1997 -0.3679 -1.0320
  885SOL  HW2   2655   1.415   1.639   0.960  0.1514 -1.3781 -0.1193
  886SOL  OW    2656   1.724   1.551   2.532 -0.1133 -0.4912  0.3852
  886SOL  HW1   2657   1.774   1.513   2.446 -0.0538  0.4935 -0.6751
  886SOL  HW2   2658   1.756   1.642   2.571 -0.3472  2.2780  1.2380
  887SOL  OW    2659   1.066   0.020   0.918  1.1271  0.2038 -0.2890
  887SOL  HW1   2660   1.129   3.052   0.872  0.6614 -2.2058  2.4275
  887SOL  HW2   2661   0.970   3.079   0.923  0.1439  0.1485 -2.8884
  888SOL  OW    2662   2.025   1.051   2.214 -0.1013 -0.2454 -0.0679
  888SOL  HW1   2663   2.021   1.146   2.180 -0.6187 -0.7104  0.9511
  888SOL  HW2   2664   2.110   1.048   2.272 -1.1620  1.7457 -4.0399
  889SOL  OW    2665   0.590   0.137   0.797  0.0214 -0.3116 -0.0473
  889SOL  HW1   2666   0.565   0.039   0.830 -0.1255 -0.4519 -1.0538
  889SOL  HW2   2667   0.643   0.191   0.868  0.4892  1.9809  0.5948
  890SOL  OW    2668   2.919   2.094   2.561  0.3687  0.2836 -0.5035
  890SOL  HW1   2669   2.924   2.193   2.530  0.1534  1.0755  1.3990
  890SOL  HW2   2670   2.990   2.074   2.626 -2.4396 -2.5585 -0.5462
  891SOL  OW    2671   0.281   2.491   0.746  0.7136 -0.0080  0.2113
  891SOL  HW1   2672   0.308   2.396   0.715  1.4323  0.5954  0.5069
  891SOL  HW2   2673   0.340   2.561   0.699 -1.7106  0.3333  0.1625
  892SOL  OW    2674   0.537   2.544   1.665 -0.3632 -0.3125  0.5489
  892SOL  HW1   2675   0.518   2.638   1.693 -0.2466  1.3138 -0.4870
  892SOL  HW2   2676   0.489   2.520   1.579 -0.5608  2.1142 -0.5144
  893SOL  OW    2677   2.869   0.076   1.258  0.6923  0.1755 -0.3492
  893SOL  HW1   2678   2.938   0.022   1.312 -3.3348  0.3018  0.6944
  893SOL  HW2   2679   2.821   0.016   1.192  1.6882  2.0468 -0.7258
  894SOL  OW    2680   2.439   1.831   0.889 -0.0715  0.3124  0.0312
  894SOL  HW1   2681   2.346   1.793   0.872 -2.6015  1.8455  0.5550
  894SOL  HW2   2682   2.437   1.924   0.859  1.6276  1.9502 -1.5067
  895SOL  OW    2683   1.355   1.989   0.918  0.2052  0.3394  0.5121
  895SOL  HW1   2684   1.357   2.027   1.016 -0.2420  0.3767  0.3031
  895SOL  HW2   2685   1.364   1.888   0.915  0.8109 -0.7742 -0.2303
  896SOL  OW    2686   1.845   0.209   1.411 -0.2876 -0.2866  0.1401
  896SOL  HW1   2687   1.839   0.129   1.342 -0.7225 -0.3404 -2.2751
  896SOL  HW2   2688   1.880   0.179   1.504 -0.1134 -1.1076 -2.1643
  897SOL  OW    2689   1.221   2.278   1.266 -0.1270 -0.4968 -0.5423
  897SOL  HW1   2690   1.198   2.305   1.170  0.6672 -2.0377  0.5723
  897SOL  HW2   2691   1.140   2.256   1.322  0.9319  0.5596 -1.4738
  898SOL  OW    2692   2.463   0.709   1.990  0.3640  0.5201  0.1011
  898SOL  HW1   2693   2.484   0.803   1.952  1.5067 -0.0518 -0.2955
  898SOL  HW2   2694   2.362   0.694   2.014  0.8531  0.2317 -1.2442
  899SOL  OW    2695   0.234   0.783   2.542 -0.3543 -0.4190 -0.3114
  899SOL  HW1   2696   0.218   0.777   2.637  3.3137  0.7152 -0.9599
  899SOL  HW2   2697   0.304   0.852   2.525 -0.3883 -0.3503  2.1314
  900SOL  OW    2698   1.159   1.591   2.750  0.7568  0.0386  0.0773
  900SOL  HW1   2699   1.185   1.656   2.825  0.7134 -1.2138  0.3897
  900SOL  HW2   2700   1.077   1.539   2.786  0.7949  1.9278  2.6363
  901SOL  OW    2701   0.221   2.664   0.333 -0.0046  0.2315  0.6471
  901SOL  HW1   2702   0.315   2.649   0.370 -0.6333  0.3033 -1.7680
  901SOL  HW2   2703   0.180   2.579   0.299  1.4422  1.6822  1.1766
  902SOL  OW    2704   1.479   3.072   0.400 -0.3931  0.1759 -0.4459
  902SOL  HW1   2705   1.528   0.045   0.465 -0.3027  1.1870 -0.3932
  902SOL  HW2   2706   1.473   0.016   0.304 -0.4708  0.1315 -0.8561
  903SOL  OW    2707   3.009   0.842   2.244  0.4053  0.3660  0.2680
  903SOL  HW1   2708   3.092   0.817   2.184  0.9044 -2.4178  2.4951
  903SOL  HW2   2709   3.025   0.790   2.328  2.0240  2.1844 -0.6287
  904SOL  OW    2710   1.103   0.734   0.467  0.2749 -0.8251 -0.5473
  904SOL  HW1   2711   1.177   0.696   0.529 -1.1124  2.1060  1.8254
  904SOL  HW2   2712   1.069   0.821   0.505  0.8483 -1.2102  2.3381
  905SOL  OW    2713   2.948   0.391   1.845 -0.5293  0.2662  0.3078
  905SOL  HW1   2714   3.044   0.426   1.825  1.4415 -2.4226 -4.6694
  905SOL  HW2   2715   2.923   0.424   1.938  1.1980  1.0731  2.2832
  906SOL  OW    2716   2.382   2.531   0.743 -0.2978 -0.4747  0.9377
  906SOL  HW1   2717   2.432   2.594   0.803  0.6095 -1.6619  1.2582
  906SOL  HW2   2718   2.309   2.483   0.795  1.8870  2.4546 -1.2802
  907SOL  OW    2719   2.517   1.260   0.767 -0.2770 -0.5669 -0.1113
  907SOL  HW1   2720   2.489   1.275   0.862 -0.3544 -0.1636 -0.1667
  907SOL  HW2   2721   2.585   1.184   0.759  2.5177 -1.1757 -0.5981
  908SOL  OW    2722   1.648   2.784   0.775  0.2227  0.0323 -0.3253
  908SOL  HW1   2723   1.707   2.853   0.730 -0.3836  0.1846  2.0403
  908SOL  HW2   2724   1.709   2.722   0.828  1.4189  3.1084  1.4016
  909SOL  OW    2725   0.217   0.212   0.558  0.1866  0.2323 -0.4207
  909SOL  HW1   2726   0.115   0.212   0.576 -1.7123 -1.2610  1.5384
  909SOL  HW2   2727   0.258   0.176   0.648  1.3516 -0.5150 -1.0635
  910SOL  OW    2728   2.516   0.439   1.907  0.4466  0.8043 -0.0933
  910SOL  HW1   2729   2.611   0.409   1.894  0.2673 -0.8617 -1.1379
  910SOL  HW2   2730   2.495   0.534   1.931  2.6377  0.8668 -0.5932
  911SOL  OW    2731   1.935   2.740   3.053 -0.1454  0.6658  0.3441
  911SOL  HW1   2732   1.900   2.656   3.008  1.5765  1.6311 -2.9886
  911SOL  HW2   2733   1.984   2.806   2.990 -1.2826 -0.7058 -1.6894
  912SOL  OW    2734   0.317   1.167   1.079  0.0898 -0.4576 -0.1378
  912SOL  HW1   2735   0.284   1.079   1.041  1.3467 -3.3868  0.6261
  912SOL  HW2   2736   0.361   1.229   1.005 -0.2919  3.2481 -0.3541
  913SOL  OW    2737   1.855   3.083   1.255  0.5147 -0.3000  0.2122
  913SOL  HW1   2738   1.934   3.023   1.276 -0.5057 -0.2821 -0.6191
  913SOL  HW2   2739   1.774   3.045   1.305 -4.2536  1.5529  1.8625
  914SOL  OW    2740   2.444   0.097   1.230 -0.3743 -0.0205 -0.1684
  914SOL  HW1   2741   2.384   0.070   1.155 -1.1977  4.1293 -2.4610
  914SOL  HW2   2742   2.388   0.144   1.305 -2.2576 -1.1291 -1.9523
  915SOL  OW    2743   0.483   1.507   1.953  0.6461 -0.3170  0.1767
  915SOL  HW1   2744   0.544   1.422   1.943 -1.3397  0.1953  1.9225
  915SOL  HW2   2745   0.436   1.526   1.863  1.3419 -0.3704 -0.5991
  916SOL  OW    2746   1.801   2.612   0.906 -1.0833  0.7730  0.0454
  916SOL  HW1   2747   1.770   2.608   1.002 -2.4694 -3.0423 -0.4823
  916SOL  HW2   2748   1.783   2.516   0.867  0.0511 -0.2510 -1.8286
  917SOL  OW    2749   2.550   2.594   2.235  0.2290 -0.3688 -0.4521
  917SOL  HW1   2750   2.613   2.545   2.290  1.1439 -2.6226  1.2209
  917SOL  HW2   2751   2.455   2.570   2.252 -1.2186  0.1352  1.9153
  918SOL  OW    2752   0.345   2.319   2.654 -0.1349 -0.1502  0.0626
  918SOL  HW1   2753   0.303   2.274   2.570 -3.4005  1.2181  1.5664
  918SOL  HW2   2754   0.435   2.279   2.682  1.3642 -1.4656  0.7430
  919SOL  OW    2755   1.481   0.529   0.506 -0.2601  1.0243 -0.3065
  919SOL  HW1   2756   1.406   0.580   0.551  0.8467 -0.5892 -0.3743
  919SOL  HW2   2757   1.542   0.501   0.585 -2.8297 -0.4125 -0.3848
  920SOL  OW    2758   2.614   0.997   2.435 -0.5465  0.2217  0.3246
  920SOL  HW1   2759   2.565   0.912   2.412  1.0328  1.3931 -1.7829
  920SOL  HW2   2760   2.682   0.981   2.515  2.0713  0.0077 -2.2990
  921SOL  OW    2761   2.152   1.741   1.421 -0.0184 -0.4753  0.2701
  921SOL  HW1   2762   2.112   1.696   1.338  0.2038  0.2069  0.4468
  921SOL  HW2   2763   2.112   1.827   1.442  1.5040 -0.9438 -1.6813
  922SOL  OW    2764   0.249   2.620   1.361  0.8549  0.2493 -0.0522
  922SOL  HW1   2765   0.260   2.712   1.403  0.2060  3.6198 -1.3454
  922SOL  HW2   2766   0.219   2.641   1.266  0.4509  1.2451 -0.1941
  923SOL  OW    2767   0.748   0.167   0.163  0.2335  0.1224  0.5544
  923SOL  HW1   2768   0.843   0.201   0.178  0.8595  0.2842 -1.3982
  923SOL  HW2   2769   0.681   0.242   0.193  0.1980  1.1924  3.6607
  924SOL  OW    2770   0.949   1.421   2.838 -0.3059  0.5887 -0.2605
  924SOL  HW1   2771   0.921   1.382   2.929  1.5705 -2.0547 -0.1120
  924SOL  HW2   2772   0.907   1.366   2.762 -1.1102  0.1108 -0.6090
  925SOL  OW    2773   0.196   0.950   0.963  0.1597  0.1899  0.4703
  925SOL  HW1   2774   0.091   0.959   0.959  2.1576  2.1433  1.3096
  925SOL  HW2   2775   0.235   0.941   0.868 -1.5844 -0.5830  0.7691
  926SOL  OW    2776   0.968   0.426   1.356 -0.6149 -0.4554 -0.4878
  926SOL  HW1   2777   1.029   0.353   1.392  0.9672 -2.3055  1.9598
  926SOL  HW2   2778   0.990   0.445   1.258 -2.1015  1.3009  0.5543
  927SOL  OW    2779   1.141   2.368   2.105  0.1977  0.1852  0.1464
  927SOL  HW1   2780   1.240   2.361   2.094  3.2339 -1.0102 -2.2798
  927SOL  HW2   2781   1.111   2.461   2.118  0.3087 -0.3706  0.3892
  928SOL  OW    2782   1.353   0.089   2.141 -0.2491  0.0797 -0.4597
  928SOL  HW1   2783   1.291   0.109   2.062 -1.9434 -0.9133 -0.1318
  928SOL  HW2   2784   1.436   0.034   2.118  0.3122  1.1109  2.1722
  929SOL  OW    2785   3.056   2.210   1.372  0.2282  0.6053  0.0759
  929SOL  HW1   2786   2.979   2.209   1.307  0.3380 -0.6893  0.0125
  929SOL  HW2   2787   3.091   2.306   1.382  0.7166 -1.6815 -2.6471
  930SOL  OW    2788   2.011   3.075   2.092  0.3273  0.1893 -0.6486
  930SOL  HW1   2789   2.004   0.011   2.184  0.8361 -1.5246 -1.6131
  930SOL  HW2   2790   1.942   0.024   2.024  0.5026  0.6987  0.9756
  931SOL  OW    2791   2.637   1.162   2.200 -0.1151  0.1749  0.2240
  931SOL  HW1   2792   2.649   1.097   2.276  0.7755 -2.0456  0.6984
  931SOL  HW2   2793   2.553   1.214   2.212 -0.3159 -0.7416 -0.2840
  932SOL  OW    2794   2.119   0.375   0.772 -0.9784 -0.5851 -0.0176
  932SOL  HW1   2795   2.044   0.397   0.705  1.9294  0.7336  0.6862
  932SOL  HW2   2796   2.179   0.304   0.726  0.3888 -2.0007 -0.3578
  933SOL  OW    2797   1.273   0.472   1.265 -0.1489  0.1187  0.1674
  933SOL  HW1   2798   1.181   0.463   1.222  2.2284  2.0118 -1.9852
  933SOL  HW2   2799   1.271   0.475   1.369  0.1054 -1.8103  0.9148
  934SOL  OW    2800   2.065   1.421   2.570 -0.0594 -0.5052 -0.3246
  934SOL  HW1   2801   2.106   1.326   2.570  0.4263 -2.5378 -0.8569
  934SOL  HW2   2802   2.133   1.480   2.529  0.4315  0.3661  0.7433
  935SOL  OW    2803   2.720   0.646   1.296  0.2871 -0.0013 -0.6358
  935SOL  HW1   2804   2.790   0.720   1.294  2.1465  1.9735  0.8750
  935SOL  HW2   2805   2.731   0.590   1.213  1.3844 -0.2559  0.4712
  936SOL  OW    2806   2.899   2.679   0.811  0.0272  0.3404 -0.2900
  936SOL  HW1   2807   2.894   2.722   0.904 -0.8335  0.0398  0.8674
  936SOL  HW2   2808   2.970   2.608   0.806 -0.8767 -1.5293 -3.0436
  937SOL  OW    2809   2.060   2.559   0.169 -0.4786  0.4730 -0.4810
  937SOL  HW1   2810   2.026   2.587   0.081 -0.8936  2.2058  4.1694
  937SOL  HW2   2811   2.050   2.639   0.231  0.1749  1.3811  2.0192
  938SOL  OW    2812   2.561   2.390   0.244  0.5269 -0.0447 -0.2645
  938SOL  HW1   2813   2.471   2.402   0.199 -1.6134  1.2036 -1.0329
  938SOL  HW2   2814   2.558   2.387   0.342 -0.5088  2.4741  1.0928
  939SOL  OW    2815   1.183   1.008   1.438  0.6362  0.4992 -0.1156
  939SOL  HW1   2816   1.258   0.945   1.409 -1.8478  0.1163  0.4702
  939SOL  HW2   2817   1.149   0.980   1.527  0.1626 -0.6733  0.7740
  940SOL  OW    2818   2.394   1.711   0.190 -0.6629  0.2558 -0.4900
  940SOL  HW1   2819   2.378   1.766   0.275 -0.3603 -2.5742 -0.8135
  940SOL  HW2   2820   2.452   1.760   0.122  1.7699 -0.9552  2.0728
  941SOL  OW    2821   2.912   1.241   1.850 -0.0047 -0.3581  0.4353
  941SOL  HW1   2822   2.907   1.227   1.953  0.8391 -0.9750  0.6955
  941SOL  HW2   2823   3.008   1.230   1.818 -2.1583  2.1319 -2.5295
  942SOL  OW    2824   2.187   0.387   1.201 -0.3176 -0.9316  0.1469
  942SOL  HW1   2825   2.158   0.335   1.119 -0.8277 -2.0911  0.8702
  942SOL  HW2   2826   2.103   0.414   1.241 -1.4029 -0.4708 -0.8469
  943SOL  OW    2827   1.394   1.685   1.823  0.3834  0.2424 -0.4744
  943SOL  HW1   2828   1.316   1.645   1.874  1.4696  0.0615  2.3618
  943SOL  HW2   2829   1.358   1.730   1.737 -1.3293  0.1870 -3.7542
  944SOL  OW    2830   2.299   0.609   1.084 -0.2223 -0.5721 -0.2115
  944SOL  HW1   2831   2.255   0.539   1.147 -2.3542  0.8117  1.5356
  944SOL  HW2   2832   2.372   0.661   1.134 -0.8294 -0.4363  1.1191
  945SOL  OW    2833   2.882   3.007   2.109  0.2059  0.1655 -0.3362
  945SOL  HW1   2834   2.852   3.076   2.038 -1.1257  0.8982 -0.3630
  945SOL  HW2   2835   2.821   2.928   2.111  1.5182 -1.0543  0.5501
  946SOL  OW    2836   2.760   1.743   1.708 -0.5224  0.3507  0.5186
  946SOL  HW1   2837   2.694   1.781   1.776  3.1617  2.0596  0.7989
  946SOL  HW2   2838   2.815   1.821   1.676  0.4481  1.0929  1.8802
  947SOL  OW    2839   0.219   0.800   2.818  0.3177  0.2695 -0.1761
  947SOL  HW1   2840   0.131   0.803   2.876 -1.0690  1.4632  2.7440
  947SOL  HW2   2841   0.281   0.721   2.842 -0.7413 -1.7092  0.2499
  948SOL  OW    2842   1.423   1.457   1.348  0.3345  0.9018 -0.4038
  948SOL  HW1   2843   1.444   1.370   1.306  0.8618 -2.6129  1.5419
  948SOL  HW2   2844   1.324   1.470   1.364 -0.3955 -0.6893 -0.5703
  949SOL  OW    2845   0.740   1.610   2.856 -0.7458  0.3770 -0.4523
  949SOL  HW1   2846   0.819   1.552   2.831  0.3200  4.9071 -3.3224
  949SOL  HW2   2847   0.760   1.655   2.944  0.7241 -0.6938 -1.1258
  950SOL  OW    2848   0.428   2.732   0.941 -0.2408 -0.0809 -1.2184
  950SOL  HW1   2849   0.514   2.691   0.972 -1.7707 -1.7335  1.1956
  950SOL  HW2   2850   0.420   2.710   0.842 -0.7637  0.7825 -0.6020
  951SOL  OW    2851   0.874   2.339   2.802  0.2212 -0.8572  0.5954
  951SOL  HW1   2852   0.946   2.320   2.870  2.5212 -1.7609  2.6880
  951SOL  HW2   2853   0.908   2.337   2.704 -0.4003  0.1649  0.1366
  952SOL  OW    2854   0.287   1.713   1.150  0.1581 -0.0645 -0.5035
  952SOL  HW1   2855   0.310   1.662   1.062  0.8826  0.9053 -0.4636
  952SOL  HW2   2856   0.207   1.673   1.200 -0.5047  2.1856 -2.1885
  953SOL  OW    2857   2.694   1.959   2.680 -0.0902  0.0531 -0.3212
  953SOL  HW1   2858   2.770   2.007   2.634  2.2666  1.0990  0.3673
  953SOL  HW2   2859   2.602   1.970   2.635 -1.9905 -1.2845 -0.9663
  954SOL  OW    2860   1.731   0.320   0.396  0.9368  0.3186  0.7380
  954SOL  HW1   2861   1.770   0.297   0.304  0.0926 -1.2950 -1.4793
  954SOL  HW2   2862   1.691   0.411   0.396  0.4406  0.1226  0.1778
  955SOL  OW    2863   0.148   1.612   0.022  0.0301 -0.1799  0.3394
  955SOL  HW1   2864   0.154   1.699   0.066  1.2207 -1.9780  0.2475
  955SOL  HW2   2865   0.110   1.544   0.085 -0.7193  0.1410 -0.5999
  956SOL  OW    2866   0.122   0.489   2.167 -0.0837  0.5059 -0.4220
  956SOL  HW1   2867   0.052   0.422   2.200  0.0226 -1.8714  1.6214
  956SOL  HW2   2868   0.183   0.448   2.097 -3.6168  3.6001  0.2965
  957SOL  OW    2869   1.979   2.233   0.888 -0.2463  0.0957 -0.5094
  957SOL  HW1   2870   1.980   2.131   0.884 -0.6293  0.8067  1.1959
  957SOL  HW2   2871   1.883   2.264   0.870 -0.0675 -1.0922  3.2128
  958SOL  OW    2872   2.349   1.132   1.528  0.8895  0.2833  0.2013
  958SOL  HW1   2873   2.396   1.220   1.528 -1.7716  1.2672 -0.2113
  958SOL  HW2   2874   2.309   1.118   1.433 -0.4364 -1.6180  0.8257
  959SOL  OW    2875   1.095   2.156   1.932 -0.3086 -0.5344  0.1012
  959SOL  HW1   2876   1.157   2.163   1.854  1.5662 -0.2327  0.7099
  959SOL  HW2   2877   1.110   2.228   1.997  0.3166 -0.1270 -1.1230
  960SOL  OW    2878   0.621   1.267   1.935  0.4159 -0.1063  0.1315
  960SOL  HW1   2879   0.590   1.237   1.845 -2.8394 -1.0934 -0.4687
  960SOL  HW2   2880   0.720   1.298   1.931  0.8239  1.0635 -2.2106
  961SOL  OW    2881   2.383   0.627   0.294 -0.2825  0.9195 -0.3920
  961SOL  HW1   2882   2.390   0.625   0.191  3.5680  1.7356 -1.1992
  961SOL  HW2   2883   2.419   0.716   0.330  1.2540 -1.7778  0.4415
  962SOL  OW    2884   2.762   1.491   0.209 -0.2145 -0.2050  0.2240
  962SOL  HW1   2885   2.818   1.404   0.221 -0.5749 -0.2862 -0.6175
  962SOL  HW2   2886   2.664   1.462   0.187  3.2582 -0.7160 -0.6798
  963SOL  OW    2887   2.813   1.434   0.874  0.3646  0.9440 -0.3373
  963SOL  HW1   2888   2.812   1.369   0.788 -0.8700  0.5451 -2.9973
  963SOL  HW2   2889   2.730   1.481   0.895  0.6103  1.3202 -0.0990
  964SOL  OW    2890   1.616   2.458   2.975  0.2630 -0.6159 -0.2131
  964SOL  HW1   2891   1.596   2.501   3.066  3.0565 -0.3032  2.5432
  964SOL  HW2   2892   1.577   2.506   2.891 -1.5992 -0.6850 -0.7564
  965SOL  OW    2893   0.663   1.486   0.970  0.4650 -0.6927 -0.4791
  965SOL  HW1   2894   0.673   1.575   0.920 -2.0240  1.6108  2.4484
  965SOL  HW2   2895   0.750   1.454   1.009  1.8016 -1.0522  1.0713
  966SOL  OW    2896   3.088   0.871   0.251  0.7737 -0.3062 -0.3137
  966SOL  HW1   2897   3.092   0.816   0.165 -1.7408 -1.4115  1.9012
  966SOL  HW2   2898   2.988   0.895   0.265  1.4247  0.3832 -1.8949
  967SOL  OW    2899   0.963   3.054   2.197 -0.4113 -0.0939  0.3119
  967SOL  HW1   2900   0.967   0.060   2.209  0.4090  0.9178 -1.7365
  967SOL  HW2   2901   1.037   3.023   2.132  1.7304 -0.1287 -1.2521
  968SOL  OW    2902   1.262   1.361   3.035 -0.5044  0.4827  0.3625
  968SOL  HW1   2903   1.296   1.456   3.022  0.6780  2.8182 -0.6300
  968SOL  HW2   2904   1.161   1.356   3.031 -2.3295  0.5941 -1.4608
  969SOL  OW    2905   0.425   1.270   2.363  0.5261 -0.1481  0.0070
  969SOL  HW1   2906   0.523   1.275   2.326 -0.2877  0.8434 -0.5266
  969SOL  HW2   2907   0.366   1.311   2.294  1.5793 -1.3703  0.4104
  970SOL  OW    2908   2.209   2.403   0.905 -0.2092 -0.4298 -0.2661
  970SOL  HW1   2909   2.136   2.334   0.908 -1.1674 -1.0836  2.3633
  970SOL  HW2   2910   2.197   2.466   0.979  0.4165  0.7814 -2.1723
  971SOL  OW    2911   1.038   1.818   0.372 -0.1654  0.0163 -0.4610
  971SOL  HW1   2912   0.945   1.848   0.398  4.8909 -1.3467 -1.1107
  971SOL  HW2   2913   1.090   1.793   0.457  0.9769 -2.7125 -1.9916
  972SOL  OW    2914   0.726   2.552   2.924 -0.4312 -0.2886 -0.4649
  972SOL  HW1   2915   0.770   2.471   2.878 -0.7740  1.5328 -0.3748
  972SOL  HW2   2916   0.632   2.561   2.903 -0.5534  0.6063 -2.2935
  973SOL  OW    2917   0.978   2.586   0.580  0.0642  0.1241  0.3799
  973SOL  HW1   2918   0.890   2.555   0.627  0.9061  1.3882  0.5225
  973SOL  HW2   2919   1.022   2.501   0.544 -2.0428 -1.0170  0.3445
  974SOL  OW    2920   2.810   0.822   2.044  0.6833 -0.1597 -0.2826
  974SOL  HW1   2921   2.888   0.828   2.103 -0.0646 -0.5755 -1.8090
  974SOL  HW2   2922   2.733   0.781   2.097  0.2531 -2.0708  1.1238
  975SOL  OW    2923   0.140   2.399   0.258  0.7059  0.4609 -0.1375
  975SOL  HW1   2924   0.147   2.374   0.161  1.5216  0.7819 -0.0423
  975SOL  HW2   2925   0.189   2.337   0.321 -1.4426  0.1158 -0.7491
  976SOL  OW    2926   1.088   1.917   1.385  0.2467 -0.4997  0.3300
  976SOL  HW1   2927   1.033   1.845   1.431  0.7009 -2.2447 -2.2371
  976SOL  HW2   2928   1.183   1.885   1.370 -0.2909  3.3388  1.7487
  977SOL  OW    2929   1.138   1.173   0.717 -0.4447  0.3950  0.0339
  977SOL  HW1   2930   1.217   1.239   0.703  0.4735 -0.6194 -2.4822
  977SOL  HW2   2931   1.057   1.227   0.711  3.6069  3.3102 -0.0071
  978SOL  OW    2932   0.772   1.854   0.439  0.0337  0.4330  0.1500
  978SOL  HW1   2933   0.678   1.855   0.475 -1.6248  1.0404 -0.0170
  978SOL  HW2   2934   0.795   1.945   0.401  0.2180  1.1569 -0.8356
  979SOL  OW    2935   2.289   0.382   0.366 -0.3731 -0.1082  0.2983
  979SOL  HW1   2936   2.196   0.366   0.325 -0.4845  0.3537  0.5016
  979SOL  HW2   2937   2.324   0.474   0.349  1.7340  0.5300  0.2397
  980SOL  OW    2938   0.474   0.880   1.544  0.2337  0.3421  0.0191
  980SOL  HW1   2939   0.442   0.789   1.501 -1.1903 -0.1718 -2.7826
  980SOL  HW2   2940   0.443   0.886   1.642 -3.7368  1.2868  0.5744
  981SOL  OW    2941   2.036   2.070   1.680 -0.0425  0.1800  0.4500
  981SOL  HW1   2942   2.025   2.010   1.763 -0.5657  0.4764  0.8435
  981SOL  HW2   2943   2.106   2.145   1.693  1.3929  0.1916  1.4853
  982SOL  OW    2944   0.782   2.417   1.964 -0.5605 -0.4022 -0.0585
  982SOL  HW1   2945   0.802   2.403   1.866  0.7153 -2.0982 -1.3866
  982SOL  HW2   2946   0.685   2.433   1.982 -1.3055 -1.9339 -2.7004
  983SOL  OW    2947   0.793   2.442   1.696 -0.0401 -0.2997 -0.6700
  983SOL  HW1   2948   0.867   2.482   1.642 -0.9778 -2.2488  0.3058
  983SOL  HW2   2949   0.716   2.508   1.707 -0.3255 -0.8656 -1.7684
  984SOL  OW    2950   2.466   0.538   2.498 -0.2093 -0.5072 -0.1077
  984SOL  HW1   2951   2.405   0.464   2.532 -1.5627  0.0774 -2.1251
  984SOL  HW2   2952   2.545   0.499   2.446 -0.8120 -1.4148  0.4124
  985SOL  OW    2953   1.598   1.405   2.241 -0.0247 -0.4637 -0.1563
  985SOL  HW1   2954   1.531   1.479   2.249  0.6817  0.1953 -1.7431
  985SOL  HW2   2955   1.690   1.438   2.262  1.2188 -1.2106  2.5834
  986SOL  OW    2956   1.501   0.001   2.768  0.0344  0.5084  0.1127
  986SOL  HW1   2957   1.423   0.060   2.796 -0.3194 -0.4313 -2.4299
  986SOL  HW2   2958   1.479   3.003   2.801 -0.0265  1.4862 -0.3066
  987SOL  OW    2959   0.980   2.142   3.025 -0.0670  0.2300  0.5605
  987SOL  HW1   2960   1.001   2.092   2.936 -0.8120 -0.7791  0.9033
  987SOL  HW2   2961   1.043   2.221   3.035 -2.8310 -1.5706 -2.4740
  988SOL  OW    2962   0.301   0.324   1.202 -0.8963  0.5241  0.3807
  988SOL  HW1   2963   0.242   0.284   1.271 -2.7012 -2.2136 -0.4984
  988SOL  HW2   2964   0.404   0.315   1.217  0.2531 -2.4681  1.1648
  989SOL  OW    2965   2.130   0.071   0.242 -0.2947  0.2874 -0.4139
  989SOL  HW1   2966   2.195   0.045   0.316  0.8663  2.0314  3.5052
  989SOL  HW2   2967   2.121   0.172   0.233 -0.9638  2.2739  1.1680
  990SOL  OW    2968   2.802   0.509   0.267 -0.0758 -0.5444 -0.8155
  990SOL  HW1   2969   2.774   0.593   0.213 -2.3069 -3.1907  0.7279
  990SOL  HW2   2970   2.768   0.423   0.227 -0.7408 -3.9580  4.1776
  991SOL  OW    2971   0.887   1.171   0.335  0.0242  0.3006 -0.0725
  991SOL  HW1   2972   0.828   1.233   0.279 -0.8574  1.6011 -0.9340
  991SOL  HW2   2973   0.837   1.130   0.417 -1.5623  0.9059 -1.5079
  992SOL  OW    2974   1.625   1.536   0.626  0.4379  0.2781 -0.1249
  992SOL  HW1   2975   1.722   1.550   0.598 -0.8027  0.4182 -0.1660
  992SOL  HW2   2976   1.612   1.485   0.711  1.2703  0.8788 -0.1560
  993SOL  OW    2977   0.207   1.590   0.875 -0.4379  0.2899 -0.0910
  993SOL  HW1   2978   0.117   1.645   0.873 -0.6096  1.2187 -0.7960
  993SOL  HW2   2979   0.193   1.509   0.940  1.3780  1.3019  0.8519
  994SOL  OW    2980   2.801   0.809   1.768  0.4846 -0.4313  0.1578
  994SOL  HW1   2981   2.798   0.818   1.869  1.9848  0.3612 -1.4229
  994SOL  HW2   2982   2.712   0.833   1.724 -1.0593  0.1132  0.5977
  995SOL  OW    2983   0.021   0.653   0.053 -0.1269 -0.5391  0.5033
  995SOL  HW1   2984   0.088   0.612   0.118 -1.7219  3.5595  0.9739
  995SOL  HW2   2985   3.073   0.579   3.094  1.3830 -1.6695 -4.0212
  996SOL  OW    2986   1.432   2.175   0.560  0.3841  0.1362 -0.2012
  996SOL  HW1   2987   1.431   2.258   0.614 -0.0813 -1.2883  2.6313
  996SOL  HW2   2988   1.339   2.128   0.564 -0.2515  1.2395 -1.4280
  997SOL  OW    2989   1.237   1.556   2.018 -0.6922  0.2218  0.1259
  997SOL  HW1   2990   1.304   1.577   2.095 -0.3115  0.3392  1.5695
  997SOL  HW2   2991   1.220   1.458   2.026  1.0293 -0.4961  1.5482
  998SOL  OW    2992   0.139   2.899   0.742  0.3507 -0.5129  0.1416
  998SOL  HW1   2993   0.235   2.935   0.718 -0.4832 -1.3405  1.2295
  998SOL  HW2   2994   0.103   2.846   0.663  0.6257 -0.1653  1.8871
  999SOL  OW    2995   1.509   0.062   0.124  0.5163 -0.2579 -0.0760
  999SOL  HW1   2996   1.589   0.028   0.075 -2.4044  0.4392  0.1676
  999SOL  HW2   2997   1.501   0.164   0.114 -0.7095 -2.1378 -1.4341
 1000SOL  OW    2998   1.626   0.143   0.566  0.3415 -0.2669 -0.0590
 1000SOL  HW1   2999   1.658   0.227   0.516 -1.3048 -2.8269 -2.2267
 1000SOL  HW2   3000   1.704   0.099   0.614  0.4859 -2.5872 -1.8570
    3.095540047     3.095540047     3.095540047     0.000000000     0.000000000     0.000000000     0.000000000     0.000000000     0.000000000
