1000 SPC/Fw water molecules
3000
    1SOL  OW       1   0.598   2.377   2.837  0.1328 -0.0785  0.1159
    1SOL  HW1      2   0.599   2.468   2.788 -0.0633  0.4996  0.8362
    1SOL  HW2      3   0.673   2.357   2.899 -0.4231  3.4964 -0.2220
    2SOL  OW       4   2.017   0.726   1.081 -0.8102 -0.1224  0.5372
    2SOL  HW1      5   1.993   0.625   1.074 -0.5475  0.4639  1.4711
    2SOL  HW2      6   2.091   0.755   1.015  2.7820  0.9085 -0.5555
    3SOL  OW       7   3.061   0.429   1.268 -0.7377  0.0814  0.2915
    3SOL  HW1      8   3.077   0.333   1.231 -0.0858 -0.8723 -1.4714
    3SOL  HW2      9   2.966   0.443   1.295  1.4613 -0.4959  0.9865
    4SOL  OW      10   1.948   2.029   2.956 -0.2111 -0.9906 -0.7093
    4SOL  HW1     11   2.001   1.978   2.883 -1.9086  4.1924  0.0477
    4SOL  HW2     12   1.852   2.052   2.931  1.1479  1.5351 -0.1488
    5SOL  OW      13   0.601   0.915   2.365 -0.2176  0.4102 -0.2270
    5SOL  HW1     14   0.634   0.990   2.307  1.6108 -1.5012  0.3286
    5SOL  HW2     15   0.554   0.940   2.450  1.8470 -1.1318  2.5447
    6SOL  OW      16   1.986   0.104   2.734 -0.3453 -0.2670 -0.6867
    6SOL  HW1     17   1.973   0.021   2.795  1.5940  1.0087  1.9269
    6SOL  HW2     18   2.080   0.142   2.745  2.3888  0.1869  3.4347
    7SOL  OW      19   2.959   1.162   1.372 -0.3074 -0.3874  0.0337
    7SOL  HW1     20   2.991   1.077   1.419 -1.1506  1.8944 -0.3803
    7SOL  HW2     21   2.899   1.214   1.435  0.2675 -1.6019 -2.2829
    8SOL  OW      22   0.121   2.535   1.824 -0.1789 -0.6865 -0.2910
    8SOL  HW1     23   0.025   2.539   1.791 -3.0240  0.2412 -0.5341
    8SOL  HW2     24   0.124   2.541   1.926 -0.0964  0.2497  0.2766
    9SOL  OW      25   0.628   2.172   0.809 -0.0735  0.3677  0.2255
    9SOL  HW1     26   0.607   2.076   0.841 -0.1790  0.1602 -0.1416
    9SOL  HW2     27   0.561   2.204   0.739 -0.0134  0.6117 -0.4449
   10SOL  OW      28   0.500   2.278   1.858  0.5296  0.2530 -0.2157
   10SOL  HW1     29   0.461   2.371   1.830 -0.8884  0.3013  2.6835
   10SOL  HW2     30   0.431   2.210   1.890  1.7234  1.8774  1.3630
   11SOL  OW      31   0.237   2.028   0.632 -0.1408 -0.0810  0.0345
   11SOL  HW1     32   0.285   1.983   0.555 -1.7011  0.8861  0.8825
   11SOL  HW2     33   0.261   2.130   0.632 -1.4927 -1.1414  0.4503
   12SOL  OW      34   2.190   0.001   0.651 -0.1930 -0.1491  0.0539
   12SOL  HW1     35   2.201   3.008   0.599 -0.1428  1.4341 -2.4647
   12SOL  HW2     36   2.279   0.038   0.686  3.0827  1.5254 -2.8476
   13SOL  OW      37   2.914   0.361   2.221  0.1185 -0.6052 -0.1546
   13SOL  HW1     38   2.829   0.390   2.181 -0.3933 -0.2637  0.8862
   13SOL  HW2     39   2.979   0.336   2.146  0.0750 -1.8615 -0.6798
   14SOL  OW      40   1.303   0.658   1.059 -0.4565  0.8674  0.2200
   14SOL  HW1     41   1.239   0.611   1.125  2.5440 -2.5072 -0.6449
   14SOL  HW2     42   1.395   0.611   1.048  1.0724 -0.9343 -0.1956
   15SOL  OW      43   2.500   1.690   2.972  0.1527 -0.0558 -0.0553
   15SOL  HW1     44   2.576   1.720   2.908  3.8430 -0.6500 -1.1113
   15SOL  HW2     45   2.410   1.716   2.936  0.5152 -2.9000 -0.1596
   16SOL  OW      46   3.030   0.001   2.553 -0.0215  0.0762  0.5725
   16SOL  HW1     47   3.049   2.999   2.555 -1.5004 -2.0466  0.0702
   16SOL  HW2     48   3.032   0.042   2.461  1.1401  0.3916  1.9926
   17SOL  OW      49   0.337   2.722   1.298 -0.3250 -0.0810  0.2923
   17SOL  HW1     50   0.309   2.672   1.211 -0.4506 -0.3894 -1.6373
   17SOL  HW2     51   0.294   2.813   1.301 -0.5388 -1.6319  1.6190
   18SOL  OW      52   0.498   1.504   0.109 -0.3150  0.7450 -0.0675
   18SOL  HW1     53   0.395   1.509   0.127 -0.0587 -4.0894  1.7705
   18SOL  HW2     54   0.546   1.474   0.197  0.3438 -0.3409 -0.0772
   19SOL  OW      55   2.546   1.205   1.989  0.4219 -0.0530 -0.2773
   19SOL  HW1     56   2.472   1.139   1.974  2.5672  2.3621 -0.1252
   19SOL  HW2     57   2.521   1.292   1.935  0.2619 -1.6574  2.2544
   20SOL  OW      58   1.744   2.466   2.806 -0.3640  0.0546  0.0985
   20SOL  HW1     59   1.700   2.549   2.833 -0.4241 -0.8640 -2.0587
   20SOL  HW2     60   1.825   2.442   2.869  2.5493  1.9689  2.2162
   21SOL  OW      61   1.420   1.388   0.929 -0.2146 -0.1694  0.3608
   21SOL  HW1     62   1.503   1.382   0.876 -0.3056 -2.8367  1.4582
   21SOL  HW2     63   1.438   1.353   1.024  1.3121 -0.1295 -2.2445
   22SOL  OW      64   2.105   0.264   1.238 -0.4694 -0.3885  0.2524
   22SOL  HW1     65   2.143   0.359   1.249 -2.0107  0.1532 -2.7577
   22SOL  HW2     66   2.009   0.260   1.268 -1.8037  0.3302  0.6860
   23SOL  OW      67   2.135   1.431   0.750  0.3323  0.3996  0.0273
   23SOL  HW1     68   2.155   1.335   0.717 -2.0693 -0.2003 -0.7180
   23SOL  HW2     69   2.160   1.496   0.674  1.6803 -0.5380 -2.3315
   24SOL  OW      70   1.689   0.760   2.007  0.3868  0.4233 -0.1650
   24SOL  HW1     71   1.720   0.776   1.912  0.2031 -1.2848 -0.2140
   24SOL  HW2     72   1.723   0.835   2.069 -0.1715 -0.1810 -1.4857
   25SOL  OW      73   1.314   0.097   2.400 -0.0606 -0.0389  0.3323
   25SOL  HW1     74   1.406   0.139   2.420 -0.2731 -4.4132  1.9428
   25SOL  HW2     75   1.232   0.152   2.420 -2.5202  0.0868 -3.4441
   26SOL  OW      76   0.577   2.720   1.027  0.5554  0.4650 -0.5611
   26SOL  HW1     77   0.636   2.728   0.939  0.4080 -1.4526 -0.5163
   26SOL  HW2     78   0.560   2.808   1.072 -1.2891 -1.0301  1.4804
   27SOL  OW      79   1.089   1.134   0.631  0.3184 -0.3546 -0.5898
   27SOL  HW1     80   1.117   1.204   0.702  1.1525  0.7164  2.8559
   27SOL  HW2     81   1.152   1.056   0.622 -4.2316 -0.4247  2.7655
   28SOL  OW      82   2.322   2.342   1.580  0.0935 -0.4431  0.2883
   28SOL  HW1     83   2.277   2.310   1.492  0.2833  0.4284  3.2199
   28SOL  HW2     84   2.257   2.402   1.631  0.3391 -0.0072  0.4041
   29SOL  OW      85   3.008   2.367   3.027 -0.0197 -0.3871 -0.0764
   29SOL  HW1     86   3.058   2.386   0.017 -1.1332  1.5406 -2.8903
   29SOL  HW2     87   2.908   2.336   3.041 -1.1042  2.9352 -0.0930
   30SOL  OW      88   2.814   0.145   1.688  0.0403 -0.1033 -0.1010
   30SOL  HW1     89   2.791   0.089   1.607  0.3850  0.7615  1.7705
   30SOL  HW2     90   2.909   0.189   1.681  0.2945 -0.7837 -2.6197
   31SOL  OW      91   2.956   0.976   2.719 -0.5063  0.1924  0.7463
   31SOL  HW1     92   2.979   0.944   2.626  0.5679 -1.5967 -0.7895
   31SOL  HW2     93   3.028   1.037   2.757 -3.4696 -3.1530 -0.2554
   32SOL  OW      94   1.162   2.847   2.226  0.1753 -0.3134 -0.3094
   32SOL  HW1     95   1.077   2.904   2.215 -1.9323 -1.1781 -4.2330
   32SOL  HW2     96   1.168   2.807   2.316  1.1560 -1.7440 -0.2763
   33SOL  OW      97   0.141   3.062   0.078 -0.6104 -0.3836 -0.3163
   33SOL  HW1     98   0.151   3.059   0.178 -1.7967  1.0054 -2.1331
   33SOL  HW2     99   0.139   2.970   0.030 -1.0156  0.3457  0.2332
   34SOL  OW     100   0.051   2.726   0.474 -0.2016 -0.0797 -0.4030
   34SOL  HW1    101   0.014   2.809   0.522  0.6711  0.6278 -0.8315
   34SOL  HW2    102   0.116   2.684   0.535 -0.3264 -0.6344 -0.2518
   35SOL  OW     103   2.669   0.456   2.132  0.2375  0.0754 -0.0641
   35SOL  HW1    104   2.676   0.544   2.085  0.7961  0.1930  2.5591
   35SOL  HW2    105   2.630   0.386   2.072  1.6229 -1.0641  1.7513
   36SOL  OW     106   2.355   2.995   2.668  0.2780 -0.2122 -0.1129
   36SOL  HW1    107   2.284   3.028   2.603 -0.1038  1.7381  0.8522
   36SOL  HW2    108   2.315   2.919   2.722 -0.7599 -1.2358  1.5697
   37SOL  OW     109   2.523   2.135   3.071 -0.1619  0.0028 -0.5842
   37SOL  HW1    110   2.459   2.193   3.018 -1.7086 -0.7850 -1.1061
   37SOL  HW2    111   2.467   2.072   0.030  0.5266 -1.9905  1.3897
   38SOL  OW     112   0.697   3.065   0.333  0.2557 -0.2295  0.3974
   38SOL  HW1    113   0.654   0.018   0.414 -2.5886  0.2857 -0.6038
   38SOL  HW2    114   0.759   0.032   0.283  0.3445  0.7843  0.4743
   39SOL  OW     115   1.426   1.409   2.049  0.2650 -0.4641 -0.0069
   39SOL  HW1    116   1.385   1.471   2.117  3.4171 -0.9946  2.0625
   39SOL  HW2    117   1.423   1.309   2.074 -1.2877  1.9877  1.9803
   40SOL  OW     118   2.671   1.099   0.337  0.2938  0.3534  0.2908
   40SOL  HW1    119   2.676   0.997   0.353  3.2964 -1.2215 -0.8916
   40SOL  HW2    120   2.748   1.138   0.280  0.8552  2.9522  1.0297
   41SOL  OW     121   1.793   3.081   2.151 -0.3537  0.0676  0.2914
   41SOL  HW1    122   1.764   0.048   2.074 -1.2191 -1.0168  1.0661
   41SOL  HW2    123   1.828   2.994   2.108 -0.3680  1.2460  1.4860
   42SOL  OW     124   2.253   2.636   0.494  0.7444 -0.1662 -0.1470
   42SOL  HW1    125   2.304   2.724   0.498  0.6099 -0.8523  2.0501
   42SOL  HW2    126   2.233   2.609   0.588 -0.5608 -0.2889 -1.3907
   43SOL  OW     127   1.089   2.792   0.606  0.2752 -0.2348 -0.1354
   43SOL  HW1    128   1.079   2.698   0.646 -0.4574  0.2664  0.4021
   43SOL  HW2    129   1.003   2.821   0.559  1.5482 -0.8460  1.2699
   44SOL  OW     130   0.602   1.813   0.518 -0.2189  0.3360 -0.3548
   44SOL  HW1    131   0.616   1.714   0.522 -0.0285  0.0407  0.9964
   44SOL  HW2    132   0.674   1.867   0.563  1.8394 -0.8284  0.3271
   45SOL  OW     133   0.095   1.374   2.274  0.1237  0.4039 -0.6128
   45SOL  HW1    134   0.086   1.437   2.348 -0.7289  1.6777  0.1861
   45SOL  HW2    135   0.169   1.405   2.209 -1.2932 -2.6878  0.7967
   46SOL  OW     136   1.316   2.137   1.612  0.2755  0.4158  0.2818
   46SOL  HW1    137   1.265   2.225   1.606  1.4019 -4.1491 -0.3667
   46SOL  HW2    138   1.387   2.134   1.689 -1.2253 -0.5801 -0.3480
   47SOL  OW     139   0.683   1.594   1.931  0.1900  0.3631 -0.1347
   47SOL  HW1    140   0.658   1.520   1.865 -1.2928 -1.0189 -1.6967
   47SOL  HW2    141   0.709   1.685   1.893 -0.5565 -1.4523  1.0055
   48SOL  OW     142   1.085   0.112   2.176 -0.4728 -0.4945 -0.3268
   48SOL  HW1    143   1.024   0.033   2.192 -0.5585 -1.1065  0.6465
   48SOL  HW2    144   1.112   0.158   2.264 -2.6674 -0.7799 -0.0633
   49SOL  OW     145   2.244   1.300   2.232  0.1277 -0.1729 -0.4712
   49SOL  HW1    146   2.185   1.352   2.293  3.9739 -0.2523  0.3246
   49SOL  HW2    147   2.206   1.203   2.213 -0.6801  0.6800  1.7031
   50SOL  OW     148   1.387   3.005   2.219  0.0990  0.5567 -0.2963
   50SOL  HW1    149   1.313   2.939   2.211  0.3406  0.0199 -2.4883
   50SOL  HW2    150   1.362   3.077   2.283  0.9836 -2.2388 -1.0359
   51SOL  OW     151   0.995   0.750   1.274  0.6911 -0.8739  0.7207
   51SOL  HW1    152   0.929   0.715   1.339 -1.5972  0.0597 -1.2780
   51SOL  HW2    153   0.982   0.723   1.179  0.0271 -0.1930 -0.9754
   52SOL  OW     154   2.423   0.583   0.552 -0.5305  0.3506 -0.1992
   52SOL  HW1    155   2.428   0.599   0.453 -0.5149 -0.2627  1.9249
   52SOL  HW2    156   2.493   0.525   0.588  0.5460 -0.1122 -3.4804
   53SOL  OW     157   1.254   3.007   2.595 -0.0898  0.2141  0.6519
   53SOL  HW1    158   1.262   3.089   2.538 -2.3406 -0.9682  0.4901
   53SOL  HW2    159   1.203   3.025   2.680 -1.6614 -0.4718  1.5381
   54SOL  OW     160   2.197   0.521   1.789 -0.6001  0.0231 -0.0678
   54SOL  HW1    161   2.173   0.525   1.690 -1.5758  1.6829 -0.8576
   54SOL  HW2    162   2.139   0.454   1.841  0.5707  1.9721 -0.5953
   55SOL  OW     163   2.555   2.480   1.505  0.4568  0.5334  0.3933
   55SOL  HW1    164   2.601   2.437   1.421 -2.4640 -4.1038 -0.6441
   55SOL  HW2    165   2.462   2.440   1.526  1.7827  2.2962  1.9422
   56SOL  OW     166   0.786   0.666   1.706 -0.4061  0.3635  0.3525
   56SOL  HW1    167   0.886   0.683   1.727  0.4856 -0.8152  0.3996
   56SOL  HW2    168   0.728   0.725   1.764  0.6331 -1.8147 -0.5593
   57SOL  OW     169   2.173   0.249   2.305 -0.1090 -0.5526 -0.2704
   57SOL  HW1    170   2.229   0.307   2.241 -2.8808 -0.3884  1.5892
   57SOL  HW2    171   2.090   0.209   2.257  1.6120 -0.6305 -0.7002
   58SOL  OW     172   2.432   1.060   1.731  0.3016 -0.2914 -0.3791
   58SOL  HW1    173   2.399   1.052   1.826  1.0075  0.6216 -0.5295
   58SOL  HW2    174   2.438   0.967   1.683  1.4147  3.0845  0.3602
   59SOL  OW     175   0.201   1.016   1.760  0.0838  0.3313  0.6022
   59SOL  HW1    176   0.270   0.959   1.812  1.0595 -0.5385 -1.2513
   59SOL  HW2    177   0.113   0.966   1.775 -0.2027  0.7084 -1.1315
   60SOL  OW     178   1.740   2.350   0.705  0.3449  0.0027 -0.2591
   60SOL  HW1    179   1.706   2.419   0.772 -1.4704 -2.8869  1.0897
   60SOL  HW2    180   1.821   2.391   0.663 -1.5435 -2.3074  0.1108
   61SOL  OW     181   1.257   0.161   2.874  0.1371 -0.7014  0.1119
   61SOL  HW1    182   1.236   0.226   2.946  0.3514  2.5411 -0.2484
   61SOL  HW2    183   1.323   0.203   2.807 -0.6276 -2.5072 -0.4461
   62SOL  OW     184   0.362   2.407   0.183 -0.3794  0.4605  0.6996
   62SOL  HW1    185   0.308   2.344   0.129 -0.6672 -0.0954  3.5242
   62SOL  HW2    186   0.357   2.505   0.148  1.4860  0.2560 -2.3604
   63SOL  OW     187   2.193   0.785   0.871  0.8777 -0.4076 -0.0605
   63SOL  HW1    188   2.273   0.764   0.928  0.4050 -2.1231 -0.0254
   63SOL  HW2    189   2.195   0.731   0.783  1.1726  0.3861  0.8803
   64SOL  OW     190   1.966   1.816   1.789  0.6055 -0.5203 -0.4031
   64SOL  HW1    191   1.899   1.880   1.831 -2.5895  0.5395  0.7161
   64SOL  HW2    192   1.992   1.747   1.863  0.6648  0.6505  3.7822
   65SOL  OW     193   0.604   0.254   1.493  0.5250 -0.3617  0.4404
   65SOL  HW1    194   0.708   0.270   1.504  1.9306  0.4978  3.3184
   65SOL  HW2    195   0.560   0.299   1.571 -1.1408 -0.1360 -2.5664
   66SOL  OW     196   0.628   1.293   0.989 -0.1419 -0.1845 -0.0399
   66SOL  HW1    197   0.666   1.372   0.935  0.6220  0.4271 -1.4260
   66SOL  HW2    198   0.670   1.206   0.958 -4.2222 -0.9286  0.7137
   67SOL  OW     199   1.739   1.974   1.538 -0.1457  1.0250 -0.0396
   67SOL  HW1    200   1.699   1.941   1.447 -1.4442 -0.3043 -0.7282
   67SOL  HW2    201   1.785   2.067   1.525  0.5768 -1.8372  3.4533
   68SOL  OW     202   1.458   2.455   1.490 -0.7984  0.4173 -0.4319
   68SOL  HW1    203   1.521   2.423   1.560 -0.2189  0.1546 -0.0858
   68SOL  HW2    204   1.483   2.551   1.449 -0.8602 -0.5135 -1.1798
   69SOL  OW     205   2.862   2.776   3.047 -0.6552 -0.4340 -0.0112
   69SOL  HW1    206   2.950   2.746   2.996 -2.0025  1.4426 -1.8941
   69SOL  HW2    207   2.776   2.746   2.997  1.5458  0.2869 -1.0739
   70SOL  OW     208   2.939   1.102   2.162  0.6183  0.0824  0.3772
   70SOL  HW1    209   2.873   1.106   2.085 -0.9307  0.3659 -1.1633
   70SOL  HW2    210   2.921   1.177   2.229  0.9116  0.0712  1.7883
   71SOL  OW     211   1.186   1.457   0.608  0.4597  0.1622  0.0719
   71SOL  HW1    212   1.193   1.389   0.683  0.6277 -0.2785  2.0889
   71SOL  HW2    213   1.094   1.442   0.564 -1.3706  3.5113 -1.1443
   72SOL  OW     214   2.146   1.796   0.969 -0.0356 -0.1144 -0.0318
   72SOL  HW1    215   2.057   1.764   1.008 -2.0792  0.2650 -1.7828
   72SOL  HW2    216   2.208   1.822   1.049 -0.3171 -1.8041  2.1587
   73SOL  OW     217   1.663   0.541   3.068 -0.6678  0.3234  0.5608
   73SOL  HW1    218   1.599   0.613   3.033 -1.1079 -1.1386 -1.5626
   73SOL  HW2    219   1.754   0.581   3.094 -1.6529  1.6409  0.5842
   74SOL  OW     220   0.273   0.026   2.614 -0.4689  0.1456  0.2247
   74SOL  HW1    221   0.182   0.043   2.655 -0.0976  0.5456 -0.9501
   74SOL  HW2    222   0.292   3.022   2.601  1.4104 -2.1013 -0.8056
   75SOL  OW     223   1.639   1.917   1.307 -0.1267  0.5235  0.2923
   75SOL  HW1    224   1.673   1.927   1.213  2.1458  1.9817  1.1188
   75SOL  HW2    225   1.586   1.835   1.327  2.1043 -1.3263 -1.4842
   76SOL  OW     226   0.808   1.877   0.924  0.5928  0.0874  0.2520
   76SOL  HW1    227   0.846   1.904   1.014  0.6218 -1.6200  3.3840
   76SOL  HW2    228   0.707   1.898   0.922  0.5894 -1.9251 -3.8982
   77SOL  OW     229   2.027   0.804   1.543  0.0592 -0.3685 -0.4844
   77SOL  HW1    230   1.952   0.816   1.478 -1.1905  0.5034  0.2807
   77SOL  HW2    231   2.056   0.702   1.545  0.6055  1.4548 -0.6496
   78SOL  OW     232   1.478   0.744   2.971 -0.3609  0.7948  0.2670
   78SOL  HW1    233   1.472   0.737   2.870  0.5124 -0.6552  1.4782
   78SOL  HW2    234   1.486   0.845   3.003 -0.8052 -0.5413  0.5574
   79SOL  OW     235   1.094   1.811   1.460  0.1891  0.3221 -0.1317
   79SOL  HW1    236   1.161   1.809   1.387 -1.3714 -1.6055 -1.7313
   79SOL  HW2    237   1.130   1.871   1.536 -0.8468 -1.3321 -0.9066
   80SOL  OW     238   0.241   0.590   1.068  0.4765  0.3140 -0.2048
   80SOL  HW1    239   0.255   0.689   1.037  0.7715 -0.8256  1.8207
   80SOL  HW2    240   0.209   0.589   1.166 -3.3440  1.8954 -0.5272
   81SOL  OW     241   1.006   2.249   0.182 -0.1184 -0.4700 -0.3929
   81SOL  HW1    242   0.967   2.341   0.162 -3.4840 -1.7238 -0.1074
   81SOL  HW2    243   0.951   2.195   0.251  3.1227  1.0475 -0.4182
   82SOL  OW     244   1.158   0.458   1.849 -0.8389  0.5863  0.9202
   82SOL  HW1    245   1.245   0.477   1.795  2.0830 -3.8461  1.4549
   82SOL  HW2    246   1.178   0.393   1.925  0.0230 -0.4653  1.0664
   83SOL  OW     247   0.077   2.875   1.210 -0.1569 -0.9485 -1.0914
   83SOL  HW1    248   0.030   2.789   1.243 -1.3425 -0.8073  0.3156
   83SOL  HW2    249   0.015   2.956   1.225 -0.5393  1.1457 -2.6668
   84SOL  OW     250   1.951   1.498   0.436  0.3731 -0.0660  0.0549
   84SOL  HW1    251   2.032   1.530   0.488 -0.7596  2.3735  0.7329
   84SOL  HW2    252   1.928   1.402   0.463  1.5191 -1.8311  1.2256
   85SOL  OW     253   2.320   1.633   1.255 -0.5309 -0.2323 -0.2588
   85SOL  HW1    254   2.422   1.610   1.260  0.5615  1.8074 -1.7723
   85SOL  HW2    255   2.307   1.726   1.297  1.2084  0.6341 -0.2319
   86SOL  OW     256   1.698   1.921   1.825 -0.0153  0.1286  0.1870
   86SOL  HW1    257   1.647   1.836   1.845 -0.9780 -0.2982 -0.8133
   86SOL  HW2    258   1.713   1.939   1.726  2.6209 -0.1559  1.5155
   87SOL  OW     259   2.247   0.938   1.441 -0.0390  0.4124  0.1694
   87SOL  HW1    260   2.330   0.902   1.491  1.6060 -0.3822 -0.9231
   87SOL  HW2    261   2.163   0.908   1.494 -0.7037  0.3334 -0.8144
   88SOL  OW     262   2.809   0.399   1.407 -0.1004  0.0503  0.5333
   88SOL  HW1    263   2.813   0.302   1.448  0.2471 -0.8210  2.5106
   88SOL  HW2    264   2.756   0.394   1.324  0.1971 -0.2680  0.8450
   89SOL  OW     265   2.920   1.389   1.919  0.0417  0.0855 -0.1357
   89SOL  HW1    266   2.876   1.298   1.932  0.1863  0.2767  3.2541
   89SOL  HW2    267   2.880   1.436   1.838 -2.7200  1.2623  0.8566
   90SOL  OW     268   0.129   2.308   0.448  0.3533  0.2102  0.0992
   90SOL  HW1    269   0.225   2.308   0.423  1.1764 -0.5688 -0.8648
   90SOL  HW2    270   0.079   2.381   0.396  1.8767  1.9779 -1.1076
   91SOL  OW     271   0.523   2.273   1.063  0.0508 -0.1504 -0.3952
   91SOL  HW1    272   0.596   2.341   1.089 -1.7887  0.4815  1.7905
   91SOL  HW2    273   0.539   2.239   0.970  1.6032 -3.9616 -0.7759
   92SOL  OW     274   3.062   2.838   2.442 -0.0840  0.4270  0.0279
   92SOL  HW1    275   2.971   2.885   2.418 -2.3632  1.7999  0.0165
   92SOL  HW2    276   0.019   2.816   2.356 -1.2986 -0.9543  3.3274
   93SOL  OW     277   1.004   1.627   2.114 -0.0216  0.1396 -0.1329
   93SOL  HW1    278   1.052   1.595   2.199 -1.4700  0.3926 -0.9541
   93SOL  HW2    279   0.905   1.596   2.113 -2.9287 -1.2035  0.7454
   94SOL  OW     280   0.379   0.838   1.884 -0.5557 -0.2098  0.5569
   94SOL  HW1    281   0.335   0.809   1.974 -2.9885 -2.4688  2.3454
   94SOL  HW2    282   0.367   0.766   1.815  2.0018 -1.3624  3.7735
   95SOL  OW     283   1.577   2.682   1.404  0.3272 -0.2784  0.2760
   95SOL  HW1    284   1.588   2.762   1.464  0.5301  3.9740 -0.3164
   95SOL  HW2    285   1.544   2.711   1.312 -0.1190 -4.6227  0.6546
   96SOL  OW     286   0.419   0.734   2.669  0.3329  0.1125 -0.6130
   96SOL  HW1    287   0.385   0.705   2.573  3.1506  2.6252 -0.4389
   96SOL  HW2    288   0.516   0.700   2.684 -0.7302  1.0194  0.1326
   97SOL  OW     289   2.007   0.042   1.026  0.1602  0.3687 -0.0159
   97SOL  HW1    290   1.957   0.012   1.111  3.0827 -1.7449  0.6363
   97SOL  HW2    291   1.942   0.082   0.961  0.6251  1.3658  1.8703
   98SOL  OW     292   1.703   2.379   2.540  0.0228  0.0599 -0.2219
   98SOL  HW1    293   1.602   2.399   2.532  1.0283  1.1618  2.0213
   98SOL  HW2    294   1.745   2.423   2.621  0.1990  1.6334  2.0682
   99SOL  OW     295   2.511   1.549   0.868  0.0077 -0.1749 -0.4667
   99SOL  HW1    296   2.476   1.453   0.844  0.0041  1.8465  0.6291
   99SOL  HW2    297   2.585   1.564   0.799 -1.8386 -1.7921 -1.9007
  100SOL  OW     298   2.014   1.815   0.713 -0.2431 -0.0606  0.1841
  100SOL  HW1    299   2.057   1.794   0.802 -2.5373  1.1005  1.0992
  100SOL  HW2    300   1.914   1.832   0.730  0.4191  0.3233 -0.2452
  101SOL  OW     301   1.977   3.041   2.967  0.1448 -0.5155 -0.4082
  101SOL  HW1    302   1.914   2.997   3.033 -1.6644  1.6284  0.5239
  101SOL  HW2    303   2.035   0.017   3.017 -0.7567  1.4664  4.4890
  102SOL  OW     304   2.203   0.046   1.649 -0.8147  0.0626 -0.1490
  102SOL  HW1    305   2.174   3.045   1.632  0.4813 -0.5996 -1.7429
  102SOL  HW2    306   2.250   0.089   1.571  0.1314  2.9021 -0.5359
  103SOL  OW     307   0.055   0.004   2.789  0.0665  0.1271 -0.2207
  103SOL  HW1    308   3.083   3.077   2.858 -0.0345 -0.2926 -0.9888
  103SOL  HW2    309   0.008   0.015   2.697 -1.0203  0.7132  1.0484
  104SOL  OW     310   3.055   0.014   1.313 -0.5538  0.7382 -0.1213
  104SOL  HW1    311   0.046   0.012   1.368 -3.4724 -4.1898  1.6333
  104SOL  HW2    312   2.977   0.035   1.372  1.5660  0.0846  0.3112
  105SOL  OW     313   0.929   1.404   0.084 -0.3967 -0.2215  0.3735
  105SOL  HW1    314   0.890   1.446   3.095 -1.6695  3.2129 -3.3572
  105SOL  HW2    315   1.028   1.423   0.097 -0.4303  3.4371  1.9588
  106SOL  OW     316   0.449   2.302   0.408 -0.5680  0.0403 -0.2778
  106SOL  HW1    317   0.549   2.285   0.387  1.8446 -2.5270  0.9801
  106SOL  HW2    318   0.408   2.355   0.328  0.7092  0.7838 -0.3994
  107SOL  OW     319   1.004   1.476   0.922 -0.3200  0.4432  0.0555
  107SOL  HW1    320   0.999   1.550   0.991 -0.3564  0.5740  2.2014
  107SOL  HW2    321   0.972   1.513   0.829  0.1656 -1.0224 -3.5401
  108SOL  OW     322   2.743   1.312   1.468  0.3027 -0.0328  0.1157
  108SOL  HW1    323   2.670   1.341   1.403  0.3052 -1.6051  0.6001
  108SOL  HW2    324   2.768   1.388   1.533  1.2547  1.0623 -1.5793
  109SOL  OW     325   1.424   2.417   2.504 -0.2116 -0.2434 -0.0676
  109SOL  HW1    326   1.401   2.378   2.414  2.2407  0.1872  0.3061
  109SOL  HW2    327   1.393   2.359   2.578  3.0308  1.0818  0.6915
  110SOL  OW     328   1.295   2.423   0.545  0.3268  0.9966 -0.7338
  110SOL  HW1    329   1.265   2.346   0.603 -0.7556 -0.4404  1.3316
  110SOL  HW2    330   1.279   2.401   0.448  0.9938 -0.5347  0.6572
  111SOL  OW     331   2.806   1.324   2.776  0.7071 -0.2379  0.3219
  111SOL  HW1    332   2.802   1.382   2.857 -0.3367 -0.3973  1.8800
  111SOL  HW2    333   2.779   1.232   2.790  1.7243  0.8466  1.2282
  112SOL  OW     334   2.156   2.923   2.050  0.5029  0.1646  0.6796
  112SOL  HW1    335   2.055   2.908   2.037 -2.3098 -1.1592  1.1678
  112SOL  HW2    336   2.168   3.020   2.049 -1.0046 -0.9812 -1.1525
  113SOL  OW     337   2.683   2.112   2.570  0.0481 -0.6426 -0.4487
  113SOL  HW1    338   2.609   2.048   2.547  0.6847  0.7418  3.2920
  113SOL  HW2    339   2.691   2.123   2.670  0.8010 -2.9389  0.3577
  114SOL  OW     340   0.537   2.941   1.323  0.5514 -0.0125 -0.5194
  114SOL  HW1    341   0.444   2.972   1.310  0.8824 -0.2082  2.2830
  114SOL  HW2    342   0.600   2.979   1.252  0.7646  2.0527  1.2079
  115SOL  OW     343   0.177   1.788   0.058  0.9284 -0.3060 -0.0393
  115SOL  HW1    344   0.174   1.740   0.149  0.7536 -2.2970  1.0419
  115SOL  HW2    345   0.097   1.854   0.044  0.2811 -0.8314  0.5768
  116SOL  OW     346   0.195   0.982   2.412  0.6390 -0.0509 -0.4340
  116SOL  HW1    347   0.221   1.037   2.493 -3.7700  1.8107  0.9346
  116SOL  HW2    348   0.241   0.891   2.422  2.1951 -1.4297  0.4815
  117SOL  OW     349   2.368   2.871   0.548  0.5129  0.2119 -0.1107
  117SOL  HW1    350   2.419   2.922   0.478  2.2199  3.0930  1.5697
  117SOL  HW2    351   2.423   2.867   0.636  2.5154  0.2080 -1.6842
  118SOL  OW     352   0.386   2.765   2.313  0.3674 -0.7000  0.3432
  118SOL  HW1    353   0.442   2.829   2.257 -0.8251  0.7675  1.3968
  118SOL  HW2    354   0.429   2.682   2.346 -0.0930  0.3214  0.0649
  119SOL  OW     355   0.799   1.211   1.812  0.2352  0.4084 -0.2938
  119SOL  HW1    356   0.880   1.227   1.753 -2.7167 -3.2381  1.3710
  119SOL  HW2    357   0.722   1.277   1.795 -0.9692  0.7580  1.1001
  120SOL  OW     358   3.065   0.885   2.500  0.2197  0.3241  0.1542
  120SOL  HW1    359   0.056   0.932   2.480 -0.3525 -0.0280  0.9624
  120SOL  HW2    360   3.013   0.871   2.412  0.1458  1.9085  1.2586
  121SOL  OW     361   1.462   1.066   0.763 -0.3230  0.0222 -0.0308
  121SOL  HW1    362   1.407   1.004   0.707 -2.6928  0.3221  2.1880
  121SOL  HW2    363   1.411   1.080   0.847  0.2867 -1.7857 -1.9194
  122SOL  OW     364   0.196   2.310   0.700  0.3229  0.0637  0.1245
  122SOL  HW1    365   0.155   2.303   0.605 -0.7653 -3.0459 -0.6352
  122SOL  HW2    366   0.126   2.281   0.768  0.9511  2.5893 -1.4636
  123SOL  OW     367   2.604   0.070   0.560 -0.0799  0.2667  0.2749
  123SOL  HW1    368   2.650   0.148   0.516 -2.9443  3.4131  0.4306
  123SOL  HW2    369   2.563   0.016   0.486 -0.6130  0.7424  0.3705
  124SOL  OW     370   1.878   1.585   2.818  0.8039 -0.2460  0.3498
  124SOL  HW1    371   1.859   1.487   2.813 -1.1947 -1.7014  1.8179
  124SOL  HW2    372   1.954   1.604   2.890  3.0778 -0.4104  1.0368
  125SOL  OW     373   3.067   0.245   1.678  0.4564 -0.4560 -0.1607
  125SOL  HW1    374   0.010   0.174   1.739 -2.2163 -0.8410  1.8596
  125SOL  HW2    375   0.040   0.278   1.614  0.4638  1.2925 -1.5278
  126SOL  OW     376   0.169   2.764   0.225  0.3387 -0.0863 -0.3263
  126SOL  HW1    377   0.140   2.741   0.325  0.6012  0.4052  3.1853
  126SOL  HW2    378   0.267   2.754   0.209  1.5528  0.5913  2.2240
  127SOL  OW     379   2.412   0.652   0.277  0.1663 -0.2596 -0.2013
  127SOL  HW1    380   2.491   0.700   0.235  0.3018  0.6516  3.9690
  127SOL  HW2    381   2.333   0.718   0.273 -0.1370  2.3758  1.2256
  128SOL  OW     382   0.447   0.973   3.013  0.2838 -0.2227  0.1693
  128SOL  HW1    383   0.537   0.962   2.966  2.2276 -0.6924  0.7826
  128SOL  HW2    384   0.442   1.060   3.066  0.0594  2.8598 -3.0540
  129SOL  OW     385   2.857   2.574   0.690  0.0885 -0.0818 -0.6439
  129SOL  HW1    386   2.850   2.672   0.663  0.5230 -1.7699  1.1117
  129SOL  HW2    387   2.829   2.517   0.609  0.2558 -1.1949  2.6551
  130SOL  OW     388   2.863   0.178   0.243  0.3553  0.8080  0.5372
  130SOL  HW1    389   2.907   0.093   0.283 -1.2329 -0.1497 -1.2553
  130SOL  HW2    390   2.927   0.256   0.236  3.0925 -2.3201 -2.2864
  131SOL  OW     391   2.941   2.059   2.870  0.4576  0.2355  0.3440
  131SOL  HW1    392   2.952   1.993   2.789  1.9644 -1.6103  0.3381
  131SOL  HW2    393   2.988   2.147   2.854 -1.0182  0.2574  0.4105
  132SOL  OW     394   1.444   1.236   1.714 -0.0020  0.2193 -0.5106
  132SOL  HW1    395   1.497   1.185   1.785  1.2193 -0.4778  0.3322
  132SOL  HW2    396   1.441   1.174   1.632  0.5526  0.4973 -0.5842
  133SOL  OW     397   0.172   1.547   0.866  0.5816 -0.0119 -0.0252
  133SOL  HW1    398   0.178   1.461   0.815 -2.6643  0.6589  2.2605
  133SOL  HW2    399   0.108   1.608   0.820 -3.4811 -0.1677  2.4555
  134SOL  OW     400   2.796   1.751   0.690 -0.1397  0.0893 -0.1715
  134SOL  HW1    401   2.769   1.656   0.681 -1.8654  1.0361 -0.0755
  134SOL  HW2    402   2.813   1.789   0.599  0.3340  1.9947 -2.2594
  135SOL  OW     403   2.239   1.368   3.072  0.2749 -0.1052  0.4161
  135SOL  HW1    404   2.211   1.274   3.055 -0.1650  0.0921 -0.7282
  135SOL  HW2    405   2.333   1.391   3.039 -1.2976  3.0026 -3.1688
  136SOL  OW     406   1.091   2.117   0.995 -0.3610 -0.6986  0.1764
  136SOL  HW1    407   1.186   2.130   0.957  2.1579 -0.7511 -2.4564
  136SOL  HW2    408   1.104   2.089   1.094 -0.1522 -1.8804  1.2179
  137SOL  OW     409   2.499   2.547   0.835 -0.1726  0.0122  0.5175
  137SOL  HW1    410   2.585   2.496   0.822  1.6474 -1.2090  2.1380
  137SOL  HW2    411   2.420   2.497   0.799 -1.0132  1.3010 -3.0069
  138SOL  OW     412   2.735   0.067   2.499  0.2900  0.2653 -0.1123
  138SOL  HW1    413   2.752   0.166   2.480 -0.6354  2.5384  0.2250
  138SOL  HW2    414   2.753   0.045   2.596  1.0446  1.1495 -3.2971
  139SOL  OW     415   2.459   2.879   2.433 -0.6618  0.2235 -0.0629
  139SOL  HW1    416   2.442   2.908   2.525 -0.4727  2.3598  1.3946
  139SOL  HW2    417   2.517   2.798   2.445 -0.6244 -1.0367 -1.8523
  140SOL  OW     418   2.100   1.900   2.760 -0.7578  0.3430 -0.2269
  140SOL  HW1    419   2.167   1.850   2.818 -3.4928 -1.4171 -0.4963
  140SOL  HW2    420   2.051   1.835   2.695  2.0744  0.1216  0.7818
  141SOL  OW     421   1.580   1.415   2.695 -0.2636  0.4431 -0.4612
  141SOL  HW1    422   1.585   1.515   2.679 -1.4295  0.9179 -1.5301
  141SOL  HW2    423   1.551   1.381   2.787  2.2077 -1.6027 -1.7967
  142SOL  OW     424   3.031   0.097   2.292 -0.1703 -0.2470 -0.2706
  142SOL  HW1    425   2.996   0.036   2.217 -1.6153 -0.0105 -1.5753
  142SOL  HW2    426   2.991   0.191   2.276  2.7152 -1.7304 -0.7338
  143SOL  OW     427   1.422   1.299   0.354 -0.1617  0.1543  0.3214
  143SOL  HW1    428   1.394   1.370   0.422 -0.7879  1.0775 -1.2010
  143SOL  HW2    429   1.342   1.237   0.338  1.4912  1.2693 -0.8907
  144SOL  OW     430   1.303   2.835   0.769  0.6149 -0.4295  0.8500
  144SOL  HW1    431   1.294   2.922   0.823  2.2128 -0.9252  0.5388
  144SOL  HW2    432   1.228   2.832   0.697 -0.8706 -1.8212  0.2076
  145SOL  OW     433   2.047   2.396   2.216 -0.3096  0.1340 -0.0989
  145SOL  HW1    434   1.988   2.452   2.286 -0.5827  0.6388 -0.6170
  145SOL  HW2    435   2.146   2.431   2.218 -0.3643  0.9216 -1.8817
  146SOL  OW     436   2.692   2.000   2.904 -1.2108 -0.0621  0.2052
  146SOL  HW1    437   2.642   2.060   2.973 -0.9393 -2.0278 -2.8375
  146SOL  HW2    438   2.791   2.023   2.893 -2.7167  0.9927  2.3601
  147SOL  OW     439   2.659   1.763   2.071 -0.1962 -0.3024  0.6299
  147SOL  HW1    440   2.745   1.714   2.048 -1.3285 -1.8259 -0.1633
  147SOL  HW2    441   2.673   1.853   2.115 -1.7660 -1.8717  0.6374
  148SOL  OW     442   1.379   3.068   2.987  0.1713 -0.1124 -0.1347
  148SOL  HW1    443   1.471   0.001   3.027  1.5908 -3.0107  0.6939
  148SOL  HW2    444   1.326   0.049   2.941 -2.7700  4.1181  1.5033
  149SOL  OW     445   1.129   1.748   3.040  0.0194 -0.3725  0.1882
  149SOL  HW1    446   1.213   1.711   2.993  1.1085  1.1403  0.1911
  149SOL  HW2    447   1.120   1.851   3.034  0.8225 -1.1866  1.7787
  150SOL  OW     448   0.833   2.875   1.270  0.2610  0.3834  0.1782
  150SOL  HW1    449   0.754   2.833   1.328  2.6209  1.3588  1.3907
  150SOL  HW2    450   0.885   2.809   1.211  0.5763  1.0684  0.6926
  151SOL  OW     451   2.611   1.940   0.761  0.1179 -0.0903  0.5283
  151SOL  HW1    452   2.520   1.910   0.723 -0.5840 -1.9071  1.3453
  151SOL  HW2    453   2.675   1.861   0.750 -1.1719  0.1664 -1.6101
  152SOL  OW     454   0.701   1.661   1.335  0.4786  0.0157  0.3889
  152SOL  HW1    455   0.680   1.692   1.237  1.1069 -0.4213  0.2039
  152SOL  HW2    456   0.766   1.721   1.380 -1.7976 -0.2712 -0.4384
  153SOL  OW     457   1.764   2.167   0.903  0.0094 -1.0691  0.3276
  153SOL  HW1    458   1.863   2.142   0.928  0.1663  1.4214 -0.9403
  153SOL  HW2    459   1.759   2.234   0.827  3.4534  0.9128 -1.2756
  154SOL  OW     460   0.332   1.051   1.523  0.5171  0.4863 -0.0573
  154SOL  HW1    461   0.330   1.139   1.470 -0.8518  2.8754 -2.1137
  154SOL  HW2    462   0.287   1.059   1.617  1.7813 -1.7126 -2.6305
  155SOL  OW     463   0.451   2.309   0.671 -0.4050 -0.0458 -0.8010
  155SOL  HW1    464   0.358   2.328   0.711 -0.0299  2.8074  0.7016
  155SOL  HW2    465   0.448   2.295   0.566  1.9890  3.4131 -0.9513
  156SOL  OW     466   0.177   2.174   0.123  0.6250  0.2463 -0.1408
  156SOL  HW1    467   0.125   2.260   0.137 -0.5327 -0.0199  3.0654
  156SOL  HW2    468   0.121   2.094   0.103 -1.1401  0.5815 -0.3281
  157SOL  OW     469   2.720   0.400   1.762 -0.2914 -0.2676 -0.5705
  157SOL  HW1    470   2.797   0.462   1.748  0.0487  0.0081 -0.0522
  157SOL  HW2    471   2.737   0.309   1.720  0.6633  0.1522  1.8948
  158SOL  OW     472   0.585   1.383   1.771  0.4564  0.3950  0.4631
  158SOL  HW1    473   0.553   1.439   1.689 -1.8783  1.1385  2.8096
  158SOL  HW2    474   0.507   1.331   1.813 -2.5373  0.4104  1.7499
  159SOL  OW     475   2.753   1.717   2.838 -0.3863 -0.7879 -0.6699
  159SOL  HW1    476   2.773   1.816   2.848  2.4638  0.2504  0.2793
  159SOL  HW2    477   2.750   1.689   2.738  0.2925 -0.1504 -0.4496
  160SOL  OW     478   2.503   1.019   0.812 -0.4886 -0.2769 -0.3454
  160SOL  HW1    479   2.571   0.977   0.879 -1.2796  0.7792  0.7326
  160SOL  HW2    480   2.495   0.957   0.732  0.1242  1.9218  1.7061
  161SOL  OW     481   2.247   1.510   2.011  0.3933 -0.3903 -0.2104
  161SOL  HW1    482   2.317   1.582   2.019 -1.0906  2.4546 -1.3669
  161SOL  HW2    483   2.241   1.447   2.088 -1.7245  0.4910 -2.1798
  162SOL  OW     484   0.533   1.919   0.894 -0.5633  0.4828 -0.3587
  162SOL  HW1    485   0.487   1.841   0.848  3.3247 -0.2467  0.2902
  162SOL  HW2    486   0.514   1.910   0.994  1.1333  0.6260 -0.4893
  163SOL  OW     487   1.171   0.936   2.388 -0.4222  0.0464  0.3920
  163SOL  HW1    488   1.145   0.839   2.401 -2.0462 -1.6265 -0.9180
  163SOL  HW2    489   1.111   0.997   2.442 -0.9666  0.1918 -0.4827
  164SOL  OW     490   0.342   2.857   2.561  0.2516  0.4432  0.3458
  164SOL  HW1    491   0.365   2.829   2.467 -0.5832 -1.8932 -1.3029
  164SOL  HW2    492   0.314   2.776   2.616  2.0927 -0.6620  0.8602
  165SOL  OW     493   2.048   0.773   1.827  0.1304 -0.6595 -0.7559
  165SOL  HW1    494   2.027   0.789   1.727 -1.8070  2.5547  0.7388
  165SOL  HW2    495   2.115   0.697   1.831  0.4218 -1.4222  1.6386
  166SOL  OW     496   1.524   2.095   0.796 -0.0806 -0.0911 -0.3657
  166SOL  HW1    497   1.548   2.120   0.700 -2.9175  0.4875 -1.4853
  166SOL  HW2    498   1.606   2.102   0.856 -2.2012  1.8548  1.5374
  167SOL  OW     499   2.942   1.902   2.654  0.3581 -0.0475 -0.3359
  167SOL  HW1    500   2.921   1.956   2.567  1.9443  0.0662  2.7678
  167SOL  HW2    501   3.031   1.856   2.646  0.0312  2.5742 -0.6997
  168SOL  OW     502   2.398   0.349   3.067 -0.1933  0.3691 -0.7251
  168SOL  HW1    503   2.460   0.275   3.042  1.5010 -0.1141  2.7204
  168SOL  HW2    504   2.387   0.359   0.073  0.4901  1.4094  0.2727
  169SOL  OW     505   3.076   0.834   0.064  0.0017  0.3303 -0.6639
  169SOL  HW1    506   0.064   0.859   0.008  0.0372 -2.3373  2.9555
  169SOL  HW2    507   2.997   0.828   3.095 -0.3009 -0.0800  1.2966
  170SOL  OW     508   1.077   1.388   1.415 -0.4241  0.2420 -0.6778
  170SOL  HW1    509   1.129   1.455   1.470  2.1344 -1.4139 -1.9620
  170SOL  HW2    510   0.988   1.419   1.373  1.6874  3.5977 -0.4504
  171SOL  OW     511   1.830   2.153   0.284  0.4191  0.2946 -0.2393
  171SOL  HW1    512   1.774   2.219   0.226 -0.7738  0.8720  1.4010
  171SOL  HW2    513   1.926   2.188   0.299 -0.4629 -2.6604  0.8216
  172SOL  OW     514   0.926   2.987   2.194  0.1091  0.1313 -0.3929
  172SOL  HW1    515   0.875   3.014   2.106  2.7162 -2.0477  0.2395
  172SOL  HW2    516   0.868   2.947   2.264  1.7576  1.3305 -2.3170
  173SOL  OW     517   1.191   0.204   0.713 -0.2416  0.0390  0.2442
  173SOL  HW1    518   1.144   0.161   0.633 -1.7321 -0.8807 -0.1281
  173SOL  HW2    519   1.133   0.270   0.765  2.4358 -0.6209  1.6436
  174SOL  OW     520   2.476   0.147   2.733 -0.0495 -0.1106  0.0533
  174SOL  HW1    521   2.473   0.236   2.679  1.4147 -0.1401  1.8329
  174SOL  HW2    522   2.431   0.065   2.685 -2.1193  1.5690 -0.2447
  175SOL  OW     523   0.591   1.060   0.671 -0.5903 -0.5959  0.4902
  175SOL  HW1    524   0.561   1.055   0.573 -0.3120  2.2051  2.1581
  175SOL  HW2    525   0.684   1.026   0.682 -2.2610  1.5422 -2.4482
  176SOL  OW     526   1.324   1.084   0.989 -0.2316 -0.3259 -0.2870
  176SOL  HW1    527   1.368   1.013   1.048  2.3330  1.2743 -3.3128
  176SOL  HW2    528   1.295   1.168   1.041 -0.1679 -2.7322 -0.2302
  177SOL  OW     529   1.245   0.878   1.653 -0.2595 -0.2191  0.3362
  177SOL  HW1    530   1.306   0.903   1.734 -2.3062 -3.2522  0.5668
  177SOL  HW2    531   1.243   0.779   1.645 -3.1250 -0.0740  0.0101
  178SOL  OW     532   2.667   2.052   1.878 -0.0814  0.0546  0.0569
  178SOL  HW1    533   2.689   2.033   1.976 -0.8946 -1.5674  0.0556
  178SOL  HW2    534   2.564   2.048   1.861 -1.2365  0.2300  0.4540
  179SOL  OW     535   1.082   2.409   0.954 -0.1287 -0.7159  0.4195
  179SOL  HW1    536   1.076   2.309   0.959  0.1019  1.0451 -0.5077
  179SOL  HW2    537   1.038   2.451   1.039 -0.8376  0.0137  0.0791
  180SOL  OW     538   1.796   0.471   0.845  0.5968  0.7117  0.2274
  180SOL  HW1    539   1.724   0.397   0.863 -0.2663  0.1705 -3.1216
  180SOL  HW2    540   1.870   0.473   0.917 -0.0673 -1.2267  1.9068
  181SOL  OW     541   0.753   0.984   1.662  0.1567  0.1704  0.1097
  181SOL  HW1    542   0.774   1.074   1.707  0.1405 -1.4337  0.1391
  181SOL  HW2    543   0.839   0.948   1.617 -1.9360  2.1717 -1.3077
  182SOL  OW     544   2.705   0.957   2.763 -0.0425  0.1983  0.0011
  182SOL  HW1    545   2.672   0.861   2.741  2.4802  0.5186 -1.0255
  182SOL  HW2    546   2.809   0.956   2.744  0.3455 -1.9958  3.4697
  183SOL  OW     547   1.854   2.615   1.897 -0.2079  0.0053 -0.1832
  183SOL  HW1    548   1.882   2.521   1.916  0.9243  1.3871  2.6866
  183SOL  HW2    549   1.753   2.621   1.889 -0.3068  3.6291  0.6174
  184SOL  OW     550   1.925   0.760   2.649  0.3566  0.1648 -0.1607
  184SOL  HW1    551   1.941   0.660   2.630  2.0007 -1.4247  1.9417
  184SOL  HW2    552   1.915   0.817   2.565 -0.8229 -0.0450 -1.6846
  185SOL  OW     553   1.917   1.159   1.011  0.0104  0.0427 -0.4218
  185SOL  HW1    554   1.939   1.083   0.949 -0.5475  1.1157 -0.7472
  185SOL  HW2    555   1.836   1.133   1.066  2.1119 -2.2859 -0.3188
  186SOL  OW     556   3.095   2.245   0.894  0.3031 -0.6229  0.2901
  186SOL  HW1    557   3.037   2.166   0.865  1.3328  2.2031  3.5485
  186SOL  HW2    558   0.018   2.230   0.994  3.3181  1.0116  0.8219
  187SOL  OW     559   2.122   1.340   2.663  0.4636 -0.2503  0.0019
  187SOL  HW1    560   2.170   1.255   2.682 -0.2490 -0.4906  0.0029
  187SOL  HW2    561   2.024   1.325   2.701 -0.8457 -2.2634  2.4086
  188SOL  OW     562   1.108   0.277   1.385  0.4547  0.0144  0.7627
  188SOL  HW1    563   1.129   0.186   1.424 -0.9657 -1.3297  2.3683
  188SOL  HW2    564   1.164   0.296   1.304  1.6257  1.2669  0.6397
  189SOL  OW     565   2.875   1.525   2.973  0.3258 -0.3024  0.6293
  189SOL  HW1    566   2.815   1.608   2.949  3.5261 -0.2477  0.7599
  189SOL  HW2    567   2.963   1.534   2.922 -4.4089  1.0888  2.3201
  190SOL  OW     568   1.240   2.618   2.100  0.0240  0.3187 -0.1960
  190SOL  HW1    569   1.202   2.698   2.152 -0.4901  3.2109  1.5721
  190SOL  HW2    570   1.341   2.613   2.110  1.0577 -1.0786  1.6469
  191SOL  OW     571   2.931   0.629   0.163  0.0269  0.1507  0.0244
  191SOL  HW1    572   2.843   0.636   0.108  0.8780 -0.7669  2.0523
  191SOL  HW2    573   2.996   0.702   0.131 -0.4997  1.1027  2.1386
  192SOL  OW     574   1.806   0.010   0.506  0.1842  0.2325  0.3507
  192SOL  HW1    575   1.834   3.039   0.437  0.7126  1.2716  0.6465
  192SOL  HW2    576   1.889   0.066   0.519 -2.6307 -0.4071  0.4560
  193SOL  OW     577   1.554   2.733   0.703 -0.1195 -0.1354 -0.1679
  193SOL  HW1    578   1.465   2.775   0.726  0.5263 -1.1579  0.2489
  193SOL  HW2    579   1.622   2.807   0.705 -0.2612 -1.7753  1.6267
  194SOL  OW     580   2.090   2.651   0.742  0.2552 -0.5360 -0.1594
  194SOL  HW1    581   2.076   2.590   0.823 -3.0225 -0.3775  1.3567
  194SOL  HW2    582   2.053   2.745   0.771 -2.9161 -0.7001  0.1880
  195SOL  OW     583   2.434   0.382   0.264  0.2516  0.1816 -0.2402
  195SOL  HW1    584   2.338   0.360   0.288 -2.4904  0.4030 -0.8707
  195SOL  HW2    585   2.445   0.483   0.260  0.2974  1.0593 -3.2817
  196SOL  OW     586   0.855   2.182   1.562 -0.1791 -0.1318  0.4644
  196SOL  HW1    587   0.866   2.149   1.654 -0.3024  0.8407  0.2025
  196SOL  HW2    588   0.788   2.254   1.560  2.3880 -1.9631  0.4891
  197SOL  OW     589   3.095   0.366   2.910  0.3307 -0.0098 -0.1180
  197SOL  HW1    590   3.088   0.298   2.987 -0.7995  0.4762 -0.4835
  197SOL  HW2    591   3.011   0.361   2.848  2.3783  2.2551  1.5343
  198SOL  OW     592   2.719   1.680   2.563 -0.2477 -0.1332  0.2112
  198SOL  HW1    593   2.622   1.695   2.538  1.5104 -1.4078 -0.2771
  198SOL  HW2    594   2.783   1.710   2.488 -0.3700 -0.5510 -3.5156
  199SOL  OW     595   2.463   0.832   1.577  0.7881 -0.4672  0.4180
  199SOL  HW1    596   2.505   0.758   1.633 -3.1126  1.4694 -0.4707
  199SOL  HW2    597   2.500   0.833   1.482  0.1389  0.7683  0.9495
  200SOL  OW     598   2.032   0.375   0.071 -0.2677  0.2235 -0.1832
  200SOL  HW1    599   1.953   0.423   0.119 -0.5667 -0.3155 -2.2677
  200SOL  HW2    600   2.105   0.445   0.045 -0.2600  1.3546 -1.6662
  201SOL  OW     601   2.419   0.056   0.785 -0.2717  0.2527 -0.0508
  201SOL  HW1    602   2.428   0.137   0.850 -0.0304  1.7292 -0.9262
  201SOL  HW2    603   2.493   0.052   0.721 -0.3641  1.5238  1.3182
  202SOL  OW     604   0.433   2.695   0.551  0.4696  0.3530  0.1356
  202SOL  HW1    605   0.352   2.638   0.575 -2.2025  0.4686 -3.2603
  202SOL  HW2    606   0.518   2.662   0.600  2.1404  0.6171 -0.3384
  203SOL  OW     607   1.674   1.163   0.590  0.1807  0.4684 -0.0915
  203SOL  HW1    608   1.601   1.129   0.656 -1.3678  1.0711 -1.5829
  203SOL  HW2    609   1.657   1.123   0.499  1.5509  0.9148 -0.3857
  204SOL  OW     610   0.318   1.403   2.577  0.6452 -0.3974 -0.1353
  204SOL  HW1    611   0.390   1.476   2.569  2.2167 -0.4287 -3.6406
  204SOL  HW2    612   0.228   1.444   2.552  0.9419 -2.1231 -1.1792
  205SOL  OW     613   0.567   0.554   0.431 -0.0641  0.6087  0.7284
  205SOL  HW1    614   0.595   0.648   0.404  0.0956 -0.3839 -3.3620
  205SOL  HW2    615   0.606   0.492   0.358  1.8695  1.0873 -0.7526
  206SOL  OW     616   0.416   0.338   2.608 -0.2386 -0.5043  0.2469
  206SOL  HW1    617   0.393   0.344   2.508  0.0360  0.1402  0.0491
  206SOL  HW2    618   0.337   0.352   2.668  0.4766 -1.8712 -2.3264
  207SOL  OW     619   0.132   2.238   2.899  0.5033 -0.0992 -0.2215
  207SOL  HW1    620   0.054   2.280   2.943 -0.9037  0.9111  0.4234
  207SOL  HW2    621   0.195   2.314   2.868  1.1846  2.5447  1.5447
  208SOL  OW     622   1.729   0.892   0.192  0.3775  0.1630 -0.0529
  208SOL  HW1    623   1.650   0.944   0.229 -0.0223  0.9977  2.9264
  208SOL  HW2    624   1.801   0.965   0.178  0.2920 -0.0798  1.8567
  209SOL  OW     625   1.857   0.900   1.341 -0.2061 -0.0776  0.1413
  209SOL  HW1    626   1.839   0.997   1.347 -1.3842  0.0918 -0.3247
  209SOL  HW2    627   1.830   0.854   1.255  0.1165  0.2784  3.6031
  210SOL  OW     628   1.732   1.663   0.446 -0.4494  0.2112 -0.0653
  210SOL  HW1    629   1.655   1.623   0.497 -1.8889  2.3148  1.0797
  210SOL  HW2    630   1.804   1.591   0.435  0.1672 -0.7594  2.1380
  211SOL  OW     631   0.598   0.229   2.336  0.2874  0.2812  0.4882
  211SOL  HW1    632   0.589   0.197   2.433  1.5149 -0.5289 -0.1780
  211SOL  HW2    633   0.697   0.226   2.308 -2.4699 -1.0233  1.5030
  212SOL  OW     634   1.268   1.968   0.555  0.0793  0.7082 -0.0294
  212SOL  HW1    635   1.352   1.996   0.500 -1.9866 -1.7414  2.4970
  212SOL  HW2    636   1.288   1.910   0.637 -1.9112 -0.2452 -1.6097
  213SOL  OW     637   2.356   2.522   0.076  0.4519 -0.4099  0.6642
  213SOL  HW1    638   2.366   2.500   3.072  0.2825  0.2276  0.5067
  213SOL  HW2    639   2.282   2.590   0.089 -0.2429  1.7058 -1.1875
  214SOL  OW     640   1.310   2.158   2.009 -0.5777 -0.4381 -0.4113
  214SOL  HW1    641   1.263   2.082   2.063  0.9082  0.4757 -0.8887
  214SOL  HW2    642   1.253   2.241   2.011  0.6884 -2.8127 -0.1869
  215SOL  OW     643   0.625   1.706   1.096  0.2654 -0.3670 -0.4678
  215SOL  HW1    644   0.536   1.669   1.075  0.2299 -1.4193  2.4417
  215SOL  HW2    645   0.696   1.666   1.036 -2.3273 -0.6782  0.2363
  216SOL  OW     646   0.314   0.670   2.109 -0.0078 -0.0307  0.0628
  216SOL  HW1    647   0.404   0.674   2.155  1.4819  2.7432  0.0374
  216SOL  HW2    648   0.303   0.574   2.079 -0.8580 -0.4000 -1.6743
  217SOL  OW     649   0.248   1.544   1.583  0.0428  0.1463  0.0541
  217SOL  HW1    650   0.339   1.581   1.551  0.1554  2.0839  1.0318
  217SOL  HW2    651   0.201   1.500   1.506  1.0092  1.3469 -0.0225
  218SOL  OW     652   0.883   2.046   1.787  0.3126 -0.3931 -0.1653
  218SOL  HW1    653   0.896   2.108   1.867  0.6448 -0.6518  0.2812
  218SOL  HW2    654   0.968   1.994   1.765 -1.2028  2.4382  0.5469
  219SOL  OW     655   1.582   1.781   0.241 -0.3177  0.5096 -0.3263
  219SOL  HW1    656   1.625   1.802   0.153  0.2183 -0.2554  0.6784
  219SOL  HW2    657   1.639   1.702   0.279 -0.6284 -1.3520 -0.9311
  220SOL  OW     658   1.436   0.774   2.701 -0.0542  0.3850  0.2496
  220SOL  HW1    659   1.515   0.711   2.700 -0.7499 -0.4758  1.6145
  220SOL  HW2    660   1.456   0.854   2.641 -0.1055 -4.2907  1.1303
  221SOL  OW     661   1.079   0.577   0.633  0.0572  0.2641 -0.5208
  221SOL  HW1    662   1.134   0.625   0.706  0.8721  0.8380  1.1611
  221SOL  HW2    663   1.133   0.567   0.548 -2.2548  1.3437  0.5940
  222SOL  OW     664   2.432   1.868   1.653 -1.1488  0.5113  0.4292
  222SOL  HW1    665   2.343   1.825   1.650 -1.6605  1.4882 -0.3515
  222SOL  HW2    666   2.429   1.965   1.673 -3.1809 -0.7167 -3.9783
  223SOL  OW     667   1.123   0.420   2.713 -0.0932  0.2428  0.4089
  223SOL  HW1    668   1.122   0.519   2.733  0.5886  2.4926 -2.7577
  223SOL  HW2    669   1.221   0.391   2.706 -2.3361 -0.7640  1.5816
  224SOL  OW     670   0.658   2.737   1.452 -0.2906  0.7694  0.0251
  224SOL  HW1    671   0.613   2.649   1.428  0.4796  3.7460  0.3423
  224SOL  HW2    672   0.601   2.815   1.428 -0.9523 -1.2498  0.9203
  225SOL  OW     673   0.444   1.048   2.056 -0.5179 -0.7663 -0.3649
  225SOL  HW1    674   0.431   0.974   1.988 -0.1672 -0.8782  1.9766
  225SOL  HW2    675   0.359   1.060   2.108 -1.8094 -0.5495  0.1706
  226SOL  OW     676   1.059   1.001   1.243  0.2122 -0.5745 -0.4291
  226SOL  HW1    677   1.033   0.901   1.239 -2.0513  0.3610  1.4428
  226SOL  HW2    678   1.030   1.063   1.167 -0.4992 -2.7311  0.2662
  227SOL  OW     679   0.189   2.700   1.555 -0.1815 -0.1551  0.3343
  227SOL  HW1    680   0.099   2.659   1.548  0.5293  0.4994 -0.0697
  227SOL  HW2    681   0.252   2.700   1.474 -0.2080 -1.1586  1.0544
  228SOL  OW     682   0.624   1.422   0.326 -0.2904  0.5976  0.0697
  228SOL  HW1    683   0.649   1.323   0.310 -1.3568  0.0810 -0.4048
  228SOL  HW2    684   0.706   1.481   0.321  1.5198 -2.0967 -0.0954
  229SOL  OW     685   2.831   2.938   2.376 -0.6064  0.3901 -0.4214
  229SOL  HW1    686   2.827   2.925   2.277  0.3438  2.6698  0.1897
  229SOL  HW2    687   2.773   3.014   2.405 -0.1855 -2.1213 -1.2322
  230SOL  OW     688   2.180   1.027   0.124  0.3601  0.0360  0.2091
  230SOL  HW1    689   2.233   1.109   0.147  1.0595 -3.5559 -2.7155
  230SOL  HW2    690   2.164   1.029   0.024 -1.0604 -1.2560 -0.6329
  231SOL  OW     691   1.669   1.719   2.971  0.4858  0.0869  0.4700
  231SOL  HW1    692   1.725   1.668   2.908  2.2713 -0.7159  0.7669
  231SOL  HW2    693   1.673   1.822   2.964  2.0916  0.3386  0.9240
  232SOL  OW     694   1.891   1.399   0.867  0.1505  0.8329  0.2785
  232SOL  HW1    695   1.982   1.426   0.824 -0.3274 -2.0788  0.7804
  232SOL  HW2    696   1.898   1.301   0.894  0.8805 -0.3569  2.5700
  233SOL  OW     697   2.256   0.504   1.311  0.0006 -0.1071 -0.6718
  233SOL  HW1    698   2.342   0.491   1.363 -2.6327 -0.7524 -0.9730
  233SOL  HW2    699   2.261   0.602   1.282 -0.8946  2.6533  1.9183
  234SOL  OW     700   0.655   0.619   2.019  0.0853  0.1147  0.1968
  234SOL  HW1    701   0.638   0.698   1.953  0.5263 -1.3795 -1.4804
  234SOL  HW2    702   0.606   0.627   2.111  3.2964 -0.6360 -4.2146
  235SOL  OW     703   3.018   0.952   1.527  0.2086 -0.1021  0.4332
  235SOL  HW1    704   2.977   0.863   1.512 -0.4241  0.4284  0.9676
  235SOL  HW2    705   3.069   0.954   1.612  0.0328 -2.5428 -0.4539
  236SOL  OW     706   2.008   0.971   0.804  0.8177 -0.3594 -0.0560
  236SOL  HW1    707   2.074   0.896   0.818 -0.8171 -0.9355 -1.1290
  236SOL  HW2    708   1.912   0.938   0.791 -0.4234  1.0122  2.1600
  237SOL  OW     709   0.529   1.689   2.856  0.2562 -0.0224  0.1205
  237SOL  HW1    710   0.547   1.642   2.945 -0.6270  2.0051 -1.1667
  237SOL  HW2    711   0.429   1.710   2.850 -0.7083  0.2198 -1.9930
  238SOL  OW     712   1.499   1.683   1.325 -0.5976  0.2989  0.4493
  238SOL  HW1    713   1.559   1.607   1.294  0.3857  3.4591 -0.7957
  238SOL  HW2    714   1.474   1.678   1.426 -1.1395 -1.5935  1.6770
  239SOL  OW     715   0.220   1.420   0.130 -0.5185  0.4251  0.1925
  239SOL  HW1    716   0.164   1.505   0.147 -1.8527  0.8918  2.0552
  239SOL  HW2    717   0.208   1.345   0.201  0.4963  1.1466  0.4835
  240SOL  OW     718   0.202   2.601   0.661  0.2103  0.2345  0.4151
  240SOL  HW1    719   0.180   2.503   0.665  3.6696  1.4072  0.5292
  240SOL  HW2    720   0.169   2.649   0.742  1.5066 -0.8629  1.8894
  241SOL  OW     721   2.914   1.060   0.495 -0.7958 -0.0417 -0.4631
  241SOL  HW1    722   2.813   1.064   0.488 -1.3254  1.8475  2.1212
  241SOL  HW2    723   2.961   1.070   0.404  4.1325  1.7836 -0.5232
  242SOL  OW     724   1.934   0.215   2.192 -0.0356  0.0277 -0.0658
  242SOL  HW1    725   1.870   0.253   2.263  2.4124  0.4526 -1.0527
  242SOL  HW2    726   1.906   0.117   2.168 -3.7022  1.2018 -0.1558
  243SOL  OW     727   1.354   0.165   1.685 -0.0323 -0.0398  0.6180
  243SOL  HW1    728   1.297   0.116   1.613  1.0248 -1.9725 -1.3645
  243SOL  HW2    729   1.305   0.147   1.775 -1.0674  0.1190 -0.7413
  244SOL  OW     730   2.118   0.460   2.825 -0.2961  0.0849 -0.4150
  244SOL  HW1    731   2.095   0.488   2.919 -2.7806 -0.4636 -1.3620
  244SOL  HW2    732   2.186   0.387   2.820  0.5397 -1.3531 -0.7688
  245SOL  OW     733   1.989   2.897   0.849 -0.0450  0.0820  0.0523
  245SOL  HW1    734   2.010   2.996   0.868 -1.4229 -0.7777 -0.5806
  245SOL  HW2    735   1.979   2.852   0.941 -0.0283 -2.5072 -2.0249
  246SOL  OW     736   2.493   0.114   2.407  0.1421  0.0557 -0.5133
  246SOL  HW1    737   2.582   0.080   2.449 -0.4830  0.4022 -1.5737
  246SOL  HW2    738   2.463   0.196   2.463  0.9206 -1.9647  0.3794
  247SOL  OW     739   0.963   0.713   2.257  0.1412  0.5903 -0.3660
  247SOL  HW1    740   1.038   0.701   2.332 -1.5012 -0.5844  0.0328
  247SOL  HW2    741   0.914   0.627   2.237 -1.7938 -2.2777 -1.2897
  248SOL  OW     742   3.006   2.728   2.026 -0.3542 -0.4627  0.6684
  248SOL  HW1    743   2.976   2.711   1.929  0.3035  3.2290  1.0122
  248SOL  HW2    744   3.084   2.671   2.049  1.2867  0.9386  1.7096
  249SOL  OW     745   0.330   3.037   0.782 -0.2212 -0.4284 -0.0558
  249SOL  HW1    746   0.298   3.005   0.695  0.0566 -0.5852 -0.0244
  249SOL  HW2    747   0.423   2.990   0.792  1.0278 -1.7962  2.1937
  250SOL  OW     748   1.883   0.259   2.555 -0.1604  0.5132  0.6814
  250SOL  HW1    749   1.943   0.200   2.617  1.2883 -0.0616 -0.2761
  250SOL  HW2    750   1.835   0.195   2.491  0.5112 -1.9857  0.1173
  251SOL  OW     751   0.685   0.692   2.715  0.0286 -0.5357  0.2465
  251SOL  HW1    752   0.751   0.733   2.651 -2.8305 -1.6654 -1.0255
  251SOL  HW2    753   0.677   0.597   2.690 -0.8052  0.7188  1.7252
  252SOL  OW     754   1.798   0.074   1.552 -0.1720  0.3548 -0.1588
  252SOL  HW1    755   1.883   0.088   1.608 -3.0432  1.0529  1.8457
  252SOL  HW2    756   1.720   0.129   1.582 -0.7778 -1.8050  0.9662
  253SOL  OW     757   2.808   0.065   0.732 -0.0046  0.1349  0.5649
  253SOL  HW1    758   2.723   0.054   0.674 -0.4896  0.7265 -2.3300
  253SOL  HW2    759   2.858   0.150   0.717  0.7742  0.3506 -3.6442
  254SOL  OW     760   2.510   1.336   2.210  0.2730  0.1712 -0.4086
  254SOL  HW1    761   2.525   1.291   2.118  1.7256 -1.1148  1.5459
  254SOL  HW2    762   2.415   1.328   2.242  0.1079  2.1921  1.5216
  255SOL  OW     763   1.619   2.344   1.699  0.4019  0.1098  0.1285
  255SOL  HW1    764   1.702   2.313   1.649  0.1954  1.9100 -0.3370
  255SOL  HW2    765   1.572   2.268   1.755 -0.9643 -1.6954  1.9531
  256SOL  OW     766   1.397   2.078   1.375 -0.2936 -0.4890  0.3441
  256SOL  HW1    767   1.366   2.106   1.469 -3.1867 -1.5812 -0.3220
  256SOL  HW2    768   1.481   2.018   1.367  2.0185  2.3904  4.1217
  257SOL  OW     769   0.705   2.260   0.297 -0.0122  0.1203 -0.0909
  257SOL  HW1    770   0.778   2.212   0.350  2.5928  1.5643  2.1937
  257SOL  HW2    771   0.691   2.215   0.209 -1.6327  0.5290 -3.1323
  258SOL  OW     772   2.896   2.049   2.431  0.2365 -0.0650 -0.2216
  258SOL  HW1    773   2.917   2.065   2.337  0.5735  0.6766  1.5182
  258SOL  HW2    774   2.801   2.089   2.459 -0.5238  0.3758 -0.2574
  259SOL  OW     775   1.545   0.592   2.446 -0.0274  0.0673  0.1233
  259SOL  HW1    776   1.577   0.612   2.542 -0.8726 -1.2862  1.9428
  259SOL  HW2    777   1.462   0.530   2.448  1.4058 -0.0127  2.9813
  260SOL  OW     778   1.094   0.962   0.944 -0.4204 -0.2547  0.1097
  260SOL  HW1    779   1.190   0.990   0.963 -1.8939 -1.4021  1.4164
  260SOL  HW2    780   1.028   1.027   0.984  2.9691 -0.7479  1.9937
  261SOL  OW     781   0.848   0.020   2.501 -0.4212 -0.0817 -0.4094
  261SOL  HW1    782   0.802   3.029   2.478 -0.8998 -1.9236  1.4527
  261SOL  HW2    783   0.838   0.047   2.600 -3.3297  1.1621 -0.7843
  262SOL  OW     784   1.905   2.514   2.391 -0.5341 -0.0191 -0.0436
  262SOL  HW1    785   1.814   2.472   2.421 -1.2012  1.2549 -1.9343
  262SOL  HW2    786   1.894   2.614   2.381  0.6821  2.2814  1.5548
  263SOL  OW     787   1.306   2.568   2.982 -0.4361  0.4790  0.6270
  263SOL  HW1    788   1.300   2.663   2.942  1.1501  1.2453 -1.5274
  263SOL  HW2    789   1.306   2.575   3.086  1.0464 -2.2942  0.1921
  264SOL  OW     790   1.578   2.598   1.798 -0.2320 -0.3399  0.1528
  264SOL  HW1    791   1.520   2.658   1.738  0.9539  1.0367 -0.6397
  264SOL  HW2    792   1.597   2.502   1.767 -1.6244 -2.2949  1.3098
  265SOL  OW     793   1.280   2.680   1.019  0.3737  0.0222 -0.2211
  265SOL  HW1    794   1.279   2.724   0.926  0.0793 -3.4795  0.8497
  265SOL  HW2    795   1.337   2.596   1.012 -1.1439 -0.5032 -0.0712
  266SOL  OW     796   2.168   0.298   0.934  0.2093  0.0848  0.5375
  266SOL  HW1    797   2.268   0.295   0.940 -0.9015 -0.3955  0.9679
  266SOL  HW2    798   2.130   0.228   0.999 -0.9748  3.0211 -3.0990
  267SOL  OW     799   0.250   1.672   0.433 -1.1440  0.4549  0.5853
  267SOL  HW1    800   0.275   1.774   0.428  1.2767 -1.0168  0.3838
  267SOL  HW2    801   0.328   1.608   0.450 -1.2201 -1.1545 -1.6105
  268SOL  OW     802   1.721   0.122   2.814 -0.5267 -0.6815 -0.1821
  268SOL  HW1    803   1.817   0.127   2.770  2.1732  2.6750 -0.8640
  268SOL  HW2    804   1.660   0.067   2.754 -2.1753 -0.9372  0.2635
  269SOL  OW     805   2.501   0.577   2.931  0.5418  0.1678  0.1358
  269SOL  HW1    806   2.428   0.649   2.927  2.4517  0.3708 -0.7373
  269SOL  HW2    807   2.464   0.485   2.967 -0.4506 -1.7694 -2.8154
  270SOL  OW     808   2.669   0.911   0.990  0.4980 -0.1414  0.7042
  270SOL  HW1    809   2.736   0.975   1.028  0.7635  2.7966 -0.2876
  270SOL  HW2    810   2.711   0.824   0.961  1.2747  0.1814 -2.8850
  271SOL  OW     811   0.175   1.380   2.955  0.4958 -0.1270 -0.1931
  271SOL  HW1    812   0.185   1.398   3.059 -0.9304 -0.3016  1.7074
  271SOL  HW2    813   0.264   1.350   2.911 -0.3888 -0.2751  1.7517
  272SOL  OW     814   0.414   1.676   2.002 -0.3978  0.1457  0.4973
  272SOL  HW1    815   0.361   1.705   1.921 -0.8681  1.4025  1.3329
  272SOL  HW2    816   0.513   1.661   1.979 -0.6237  0.6705  3.0768
  273SOL  OW     817   1.085   2.319   2.313  0.2404 -0.0018 -0.0535
  273SOL  HW1    818   1.080   2.404   2.370  0.1509  2.9919 -0.2915
  273SOL  HW2    819   1.038   2.246   2.368 -1.6902  0.4752  0.2194
  274SOL  OW     820   0.931   1.414   0.480  0.2466  0.3456 -0.2996
  274SOL  HW1    821   0.948   1.318   0.451  0.9709 -0.0750  2.1736
  274SOL  HW2    822   0.913   1.466   0.394  1.5992  1.3518 -0.4230
  275SOL  OW     823   1.601   1.688   2.165  0.2270 -0.6159 -0.1376
  275SOL  HW1    824   1.561   1.628   2.238  0.8244  2.6452  0.5691
  275SOL  HW2    825   1.701   1.704   2.182  0.5567 -2.3088  3.0049
  276SOL  OW     826   0.078   1.810   2.407  0.5135  0.2801  0.6263
  276SOL  HW1    827   0.110   1.856   2.494 -0.6461  0.4626 -2.0177
  276SOL  HW2    828   0.154   1.823   2.340 -1.4435  0.6571  0.4098
  277SOL  OW     829   2.590   2.676   0.106 -0.0434 -0.2537 -0.2712
  277SOL  HW1    830   2.608   2.698   0.008 -0.9678 -0.5512 -0.9591
  277SOL  HW2    831   2.509   2.615   0.119 -1.4506  2.1921 -1.9882
  278SOL  OW     832   2.238   0.013   2.430 -0.3595  0.2264  0.1223
  278SOL  HW1    833   2.337   3.087   2.425 -0.8788 -2.4525 -0.7002
  278SOL  HW2    834   2.210   0.102   2.384 -0.2951  0.7729  1.4178
  279SOL  OW     835   1.488   2.311   1.246  0.1463 -0.8235  0.2711
  279SOL  HW1    836   1.442   2.223   1.257  1.2880  2.9323 -0.6577
  279SOL  HW2    837   1.475   2.364   1.334 -1.8759 -1.2925  0.2820
  280SOL  OW     838   0.533   1.003   0.394  0.4248  0.3267 -0.5000
  280SOL  HW1    839   0.572   0.916   0.353 -1.7859  0.6094  0.5239
  280SOL  HW2    840   0.435   0.990   0.408 -0.4191 -0.0295 -1.7501
  281SOL  OW     841   1.929   1.856   0.442 -0.8503 -0.3557 -0.2159
  281SOL  HW1    842   1.949   1.852   0.542  1.0272 -2.1417 -1.1862
  281SOL  HW2    843   1.837   1.816   0.420 -0.0829 -0.7978 -1.0627
  282SOL  OW     844   1.550   1.358   0.092  0.0566  0.1639  0.3413
  282SOL  HW1    845   1.599   1.448   0.086 -0.4611  1.6476  2.1742
  282SOL  HW2    846   1.512   1.349   0.185 -0.4883 -0.5729 -1.1101
  283SOL  OW     847   1.403   1.649   3.015  0.7197 -0.3588 -0.1871
  283SOL  HW1    848   1.504   1.649   2.996  3.0603  1.2686 -0.5670
  283SOL  HW2    849   1.348   1.604   2.940  1.2439 -0.1273  2.0473
  284SOL  OW     850   0.974   2.805   2.828  0.2434  0.4687 -0.3758
  284SOL  HW1    851   0.903   2.781   2.755 -1.5822  0.0307  0.7121
  284SOL  HW2    852   1.009   2.896   2.812 -0.3193 -0.7085  2.6188
  285SOL  OW     853   1.501   2.004   0.365 -0.7511  0.2173  0.0688
  285SOL  HW1    854   1.529   1.920   0.315 -0.2250 -1.2222 -2.0524
  285SOL  HW2    855   1.578   2.041   0.419 -2.4489 -1.9196 -2.9858
  286SOL  OW     856   0.954   2.197   1.999 -0.4541  0.4316  0.2134
  286SOL  HW1    857   1.030   2.265   2.012 -1.2398 -1.3117  3.4697
  286SOL  HW2    858   0.954   2.133   2.080 -4.3834 -0.2765  0.6444
  287SOL  OW     859   1.969   2.628   0.412  0.3957  0.4711 -0.2274
  287SOL  HW1    860   2.068   2.618   0.436  3.3520  0.0252  1.8315
  287SOL  HW2    861   1.907   2.562   0.463 -0.9114  0.1108  3.6625
  288SOL  OW     862   0.577   2.909   0.737  0.6336  0.3033  0.9332
  288SOL  HW1    863   0.656   2.897   0.801  0.7667 -1.0036  2.1705
  288SOL  HW2    864   0.559   2.832   0.674 -2.4067 -0.6607  3.0079
  289SOL  OW     865   2.277   2.415   0.751  0.2277 -0.9729 -0.0353
  289SOL  HW1    866   2.233   2.438   0.841 -1.4284 -1.6624 -0.0817
  289SOL  HW2    867   2.221   2.351   0.696  3.7589 -0.8292  0.4137
  290SOL  OW     868   0.864   2.110   2.826 -0.4608  0.8403  0.3155
  290SOL  HW1    869   0.810   2.027   2.806 -0.6711  0.0959  0.6355
  290SOL  HW2    870   0.815   2.173   2.890  0.7603 -2.2342 -0.4262
  291SOL  OW     871   1.914   2.915   0.318  0.4083  0.4273 -0.9056
  291SOL  HW1    872   2.012   2.933   0.292  0.3644  2.6503 -1.5097
  291SOL  HW2    873   1.898   2.816   0.351  1.6290  0.6024 -1.3691
  292SOL  OW     874   2.962   2.815   1.538 -0.1272  0.3664 -0.1808
  292SOL  HW1    875   2.991   2.752   1.461  1.5563 -1.3993 -0.8026
  292SOL  HW2    876   2.887   2.879   1.511 -1.7583 -1.7985  0.2165
  293SOL  OW     877   1.715   1.583   0.096  0.1590  0.9095  0.0235
  293SOL  HW1    878   1.698   1.633   0.007 -1.3341 -3.0092  3.8969
  293SOL  HW2    879   1.810   1.596   0.131  1.5271 -0.8576  0.1692
  294SOL  OW     880   0.766   0.506   2.334  0.0542 -0.5521  0.4865
  294SOL  HW1    881   0.766   0.427   2.271  0.0455 -0.6972 -1.2266
  294SOL  HW2    882   0.818   0.480   2.414  3.0446 -1.1072  1.5189
  295SOL  OW     883   1.471   1.656   0.949 -0.5331  0.1804  0.1436
  295SOL  HW1    884   1.437   1.565   0.944 -0.7136 -0.2792 -2.6993
  295SOL  HW2    885   1.512   1.684   0.861  1.5100  0.8861 -1.2968
  296SOL  OW     886   1.170   1.591   1.596  0.5716 -0.2189 -0.0806
  296SOL  HW1    887   1.131   1.672   1.550  0.8203 -0.2058  0.1788
  296SOL  HW2    888   1.137   1.576   1.695 -0.4030 -1.4904  2.3840
  297SOL  OW     889   0.636   0.429   2.693 -0.2910  0.6367  0.8611
  297SOL  HW1    890   0.546   0.400   2.659 -0.5010 -0.3899  2.2014
  297SOL  HW2    891   0.646   0.405   2.790 -1.2598 -4.4933  0.1052
  298SOL  OW     892   0.704   0.931   2.863  0.2416 -0.1389 -0.7728
  298SOL  HW1    893   0.696   0.840   2.819 -1.8517  1.4444 -0.2939
  298SOL  HW2    894   0.722   1.006   2.797 -0.1231 -0.0853 -0.9111
  299SOL  OW     895   1.257   2.755   2.484  0.2061  0.0120 -0.1078
  299SOL  HW1    896   1.238   2.850   2.521  0.5034 -1.5506  1.4021
  299SOL  HW2    897   1.345   2.719   2.523  0.0333 -0.9771 -0.7464
  300SOL  OW     898   2.006   0.183   1.743  0.0033 -0.2580 -0.1257
  300SOL  HW1    899   2.036   0.233   1.830  2.5529  0.7316 -0.9006
  300SOL  HW2    900   2.083   0.137   1.696 -0.4084  1.2400  1.2429
  301SOL  OW     901   1.840   0.357   1.308 -0.1484  0.1650  0.5063
  301SOL  HW1    902   1.741   0.362   1.281 -0.6836 -0.9966 -2.3373
  301SOL  HW2    903   1.848   0.350   1.409 -2.5668  0.4132 -2.5600
  302SOL  OW     904   0.826   2.573   2.387  0.0675  0.0312 -0.3002
  302SOL  HW1    905   0.922   2.573   2.416  0.6236  0.1715  2.0306
  302SOL  HW2    906   0.777   2.486   2.404 -1.3910  1.6760 -0.8632
  303SOL  OW     907   1.677   2.891   1.581 -0.0515  0.1875  0.0033
  303SOL  HW1    908   1.714   2.984   1.572  1.0266 -0.7051 -0.0566
  303SOL  HW2    909   1.751   2.828   1.613  0.4033 -0.2213  1.7683
  304SOL  OW     910   0.410   0.100   1.010  0.1158 -0.1723  0.2962
  304SOL  HW1    911   0.369   0.057   0.929  0.6677 -1.1535  0.6590
  304SOL  HW2    912   0.402   0.200   1.011  0.2522 -0.1122 -0.5925
  305SOL  OW     913   1.113   0.251   0.404 -0.0042 -0.8929 -0.8911
  305SOL  HW1    914   1.195   0.203   0.368  1.2238  1.0593 -2.3337
  305SOL  HW2    915   1.040   0.185   0.439  3.4046  1.3205  0.2233
  306SOL  OW     916   0.724   1.896   0.250  0.2307  0.5894  0.1494
  306SOL  HW1    917   0.818   1.860   0.220  1.5742 -0.2824 -0.3732
  306SOL  HW2    918   0.713   1.871   0.348 -1.3192 -0.5790  0.2859
  307SOL  OW     919   0.132   1.542   1.816 -0.1575  0.7957 -0.5919
  307SOL  HW1    920   0.183   1.541   1.723  0.6298  0.5617 -1.4647
  307SOL  HW2    921   0.104   1.452   1.843  1.3853 -1.4755 -1.8837
  308SOL  OW     922   0.826   0.030   0.901 -0.6838 -0.2851 -0.2185
  308SOL  HW1    923   0.825   0.090   0.983  0.7253 -0.3065 -0.2593
  308SOL  HW2    924   0.897   3.055   0.917 -1.4076  2.1960  1.8698
  309SOL  OW     925   1.771   0.884   2.837 -0.0595  0.2287  0.4931
  309SOL  HW1    926   1.683   0.924   2.799  1.5493  1.9936 -4.2520
  309SOL  HW2    927   1.835   0.839   2.768 -0.7981 -1.9221 -0.3392
  310SOL  OW     928   1.299   0.382   3.040 -0.5854  0.0388  0.2353
  310SOL  HW1    929   1.269   0.476   3.065 -3.2411  1.0623  1.7296
  310SOL  HW2    930   1.392   0.358   3.075  0.7126 -0.7583 -0.2249
  311SOL  OW     931   1.418   1.876   2.289 -0.3520  0.6120 -0.7466
  311SOL  HW1    932   1.451   1.791   2.250  0.6544 -2.4168  0.8605
  311SOL  HW2    933   1.335   1.910   2.238  0.6199 -1.5073 -0.1514
  312SOL  OW     934   1.936   2.575   0.130  0.0409  0.3203  0.6007
  312SOL  HW1    935   1.931   2.550   0.231  1.7607  0.5630 -1.9072
  312SOL  HW2    936   1.854   2.632   0.108 -2.3754 -0.1619  1.5611
  313SOL  OW     937   0.536   0.290   0.637 -0.3390 -0.3554 -0.4964
  313SOL  HW1    938   0.531   0.319   0.539  0.5763  1.4578  0.6081
  313SOL  HW2    939   0.472   0.342   0.697  1.2853 -0.1064 -0.4974
  314SOL  OW     940   2.530   1.376   2.696 -0.3366  0.2320 -0.3461
  314SOL  HW1    941   2.625   1.403   2.700  1.8319  1.1608 -1.2583
  314SOL  HW2    942   2.522   1.280   2.660  1.2747 -2.8690 -0.6199
  315SOL  OW     943   0.828   0.296   2.178  0.0844  0.2628  0.0022
  315SOL  HW1    944   0.908   0.237   2.179  0.4352 -0.2452 -0.2883
  315SOL  HW2    945   0.803   0.323   2.083  1.3482  0.8746 -0.2084
  316SOL  OW     946   2.431   0.265   0.945  0.5506 -0.3613 -0.5519
  316SOL  HW1    947   2.481   0.215   1.020 -1.1310  0.7958 -0.4023
  316SOL  HW2    948   2.463   0.366   0.942  2.8896 -0.0208 -1.4253
  317SOL  OW     949   1.006   0.368   0.791 -0.2537 -0.6695  0.7918
  317SOL  HW1    950   0.911   0.332   0.779  1.3599 -0.2082 -1.7714
  317SOL  HW2    951   1.025   0.439   0.724  0.4781 -0.4976 -1.0748
  318SOL  OW     952   2.713   2.366   1.288 -0.4382 -0.1212 -0.6334
  318SOL  HW1    953   2.675   2.295   1.226 -1.3495  0.4729 -0.4217
  318SOL  HW2    954   2.772   2.323   1.361 -0.0709 -0.1499  1.5486
  319SOL  OW     955   1.264   0.994   0.042 -0.2938 -0.1891 -0.2792
  319SOL  HW1    956   1.203   0.922   3.094  3.1831 -0.6766 -1.7474
  319SOL  HW2    957   1.357   0.994   3.092 -0.0846  0.3602 -1.1566
  320SOL  OW     958   0.516   2.523   1.368  0.1354  0.1196  0.0473
  320SOL  HW1    959   0.475   2.433   1.395 -1.5863  2.3463 -0.0731
  320SOL  HW2    960   0.447   2.595   1.347  1.7044  0.1635  0.9449
  321SOL  OW     961   2.512   2.607   2.700  0.1088  0.1674 -0.3456
  321SOL  HW1    962   2.580   2.660   2.643  0.6448  0.8723  2.4579
  321SOL  HW2    963   2.567   2.527   2.736 -0.1739  1.0517 -1.3328
  322SOL  OW     964   0.221   2.465   2.536 -0.0732 -0.5682 -0.7481
  322SOL  HW1    965   0.320   2.477   2.508  0.4476  0.2072  0.2375
  322SOL  HW2    966   0.168   2.419   2.465 -1.3949 -0.1441 -3.3358
  323SOL  OW     967   2.407   0.756   1.024  0.2130 -0.5481 -0.0149
  323SOL  HW1    968   2.490   0.815   1.045  1.2371  0.8997 -1.2286
  323SOL  HW2    969   2.344   0.752   1.101 -1.0619  1.1787 -1.7718
  324SOL  OW     970   0.171   2.029   2.595  0.0211  0.4191 -0.3053
  324SOL  HW1    971   0.199   2.021   2.694  2.4264  1.1325 -0.2856
  324SOL  HW2    972   0.089   2.094   2.589  0.4746 -0.5396 -0.3220
  325SOL  OW     973   1.357   0.456   2.153  0.6035  0.3409 -0.2577
  325SOL  HW1    974   1.349   0.542   2.095  1.7795  0.4291  0.6957
  325SOL  HW2    975   1.338   0.369   2.098  0.0599  0.7996  0.0942
  326SOL  OW     976   2.997   2.927   0.634 -0.3023  0.0789  0.1445
  326SOL  HW1    977   3.008   3.028   0.636  0.4253  0.1722 -1.4278
  326SOL  HW2    978   2.897   2.909   0.614 -1.6046  1.8954 -3.0990
  327SOL  OW     979   0.785   2.760   2.627 -0.2746  0.3624 -0.1346
  327SOL  HW1    980   0.795   2.734   2.530  0.9646 -0.4713  0.7396
  327SOL  HW2    981   0.736   2.850   2.632 -1.4651  0.5173  0.6182
  328SOL  OW     982   0.865   0.983   0.128 -0.0186  0.0602 -0.0473
  328SOL  HW1    983   0.893   0.910   0.195 -2.6748 -1.1699  1.5343
  328SOL  HW2    984   0.810   1.055   0.176  1.0604  1.6971  0.9495
  329SOL  OW     985   1.894   0.020   1.306  0.1191 -0.0738 -0.1511
  329SOL  HW1    986   1.942   3.023   1.306 -0.9809  0.2361  0.5026
  329SOL  HW2    987   1.856   0.030   1.401  1.0128  1.3921  1.3623
  330SOL  OW     988   0.971   0.073   0.548 -0.1971  0.9557 -0.3154
  330SOL  HW1    989   0.910   0.109   0.620 -0.0690 -0.0374 -1.1868
  330SOL  HW2    990   0.954   3.070   0.530  1.4434 -1.8105 -0.6292
  331SOL  OW     991   3.016   1.955   1.993 -0.7731  0.1986  0.4855
  331SOL  HW1    992   2.978   1.935   1.901 -1.7789  0.1517  0.6392
  331SOL  HW2    993   3.068   1.875   2.020 -2.9750  2.7637  0.5226
  332SOL  OW     994   2.182   2.159   1.900  0.0244 -0.1673  0.1822
  332SOL  HW1    995   2.106   2.194   1.840 -1.8625  1.2583  0.6634
  332SOL  HW2    996   2.148   2.082   1.962  1.9628  3.5644 -1.7641
  333SOL  OW     997   0.332   2.609   1.053 -0.1972 -0.7917  0.2421
  333SOL  HW1    998   0.261   2.639   0.990 -2.5790 -1.6483 -0.2683
  333SOL  HW2    999   0.415   2.666   1.045  0.3008  0.3545 -1.2907
  334SOL  OW    1000   2.463   1.698   1.891 -0.4726  0.1891 -0.7857
  334SOL  HW1   1001   2.543   1.730   1.945 -0.0606  0.1269 -1.3775
  334SOL  HW2   1002   2.444   1.763   1.817  4.0099  1.8499  0.5196
  335SOL  OW    1003   0.646   1.299   2.881 -0.3897 -0.0057  0.0731
  335SOL  HW1   1004   0.714   1.367   2.908 -1.8699  0.7955 -3.1485
  335SOL  HW2   1005   0.664   1.260   2.789 -0.9037  1.5061 -0.8679
  336SOL  OW    1006   0.138   2.565   2.093  0.4366  0.0085  0.1669
  336SOL  HW1   1007   0.122   2.621   2.173 -2.2446 -0.8855  1.3453
  336SOL  HW2   1008   0.233   2.525   2.101  0.7689 -1.9435  3.3505
  337SOL  OW    1009   0.499   2.534   2.436 -0.4821  0.0677 -0.1628
  337SOL  HW1   1010   0.553   2.468   2.383  0.1256 -0.8984 -0.5778
  337SOL  HW2   1011   0.537   2.552   2.529  0.7632  1.3964 -2.5748
  338SOL  OW    1012   0.557   0.509   1.657  0.1433  0.2566 -0.0976
  338SOL  HW1   1013   0.527   0.552   1.567  0.1490 -0.3356  3.2561
  338SOL  HW2   1014   0.659   0.524   1.669  2.4926 -2.2832  1.2488
  339SOL  OW    1015   2.622   1.206   3.094  0.6964 -0.1515  0.4722
  339SOL  HW1   1016   2.585   1.113   3.080 -2.5800  2.3221 -0.6617
  339SOL  HW2   1017   2.560   1.280   3.056  2.2263  2.0993 -1.1014
  340SOL  OW    1018   2.711   2.994   0.933  0.1752  0.2372  0.0834
  340SOL  HW1   1019   2.766   2.946   0.999  1.0932  0.6781 -1.2250
  340SOL  HW2   1020   2.762   3.050   0.868 -0.0733 -0.8089 -0.3942
  341SOL  OW    1021   1.253   1.173   1.309 -0.6288 -0.2912 -0.1218
  341SOL  HW1   1022   1.187   1.108   1.269 -1.2253  1.2368 -0.7596
  341SOL  HW2   1023   1.212   1.264   1.325 -0.8678  0.2218 -1.2007
  342SOL  OW    1024   3.090   1.973   0.009 -0.0574  0.1106  0.3839
  342SOL  HW1   1025   3.049   2.024   3.027 -0.1305 -2.4129  2.1925
  342SOL  HW2   1026   3.017   1.948   0.077  0.1870 -3.1027  0.8060
  343SOL  OW    1027   2.534   2.697   1.332  0.0545 -0.1519  0.4333
  343SOL  HW1   1028   2.516   2.662   1.247 -1.2514 -0.0000  0.8359
  343SOL  HW2   1029   2.523   2.628   1.405 -1.7990  1.2740 -0.7159
  344SOL  OW    1030   1.672   2.857   1.027 -0.6009 -0.2064  0.1884
  344SOL  HW1   1031   1.769   2.827   1.053 -0.2255 -0.5957  1.5548
  344SOL  HW2   1032   1.668   2.902   0.941 -1.9194  4.3656  1.8472
  345SOL  OW    1033   2.761   1.830   0.429  0.3508 -0.4199 -0.0745
  345SOL  HW1   1034   2.742   1.745   0.375  1.4373  4.8244 -0.4078
  345SOL  HW2   1035   2.698   1.901   0.400 -1.5263 -0.7589  1.7557
  346SOL  OW    1036   1.358   2.293   2.276  0.6772  0.4427  0.3716
  346SOL  HW1   1037   1.256   2.291   2.284 -1.7560 -0.0069  0.2669
  346SOL  HW2   1038   1.391   2.259   2.184  1.3776 -2.0196  0.4264
  347SOL  OW    1039   1.628   2.111   2.237 -0.1085 -0.0133 -0.7928
  347SOL  HW1   1040   1.683   2.129   2.324 -1.5530 -1.2397 -0.2737
  347SOL  HW2   1041   1.563   2.038   2.256 -1.2217  0.3023  1.8953
  348SOL  OW    1042   0.411   2.038   1.116 -0.5612 -0.0200 -0.0795
  348SOL  HW1   1043   0.408   2.006   1.213  1.9251 -1.0840  1.0601
  348SOL  HW2   1044   0.444   2.133   1.118 -1.6030 -1.8942  1.1016
  349SOL  OW    1045   1.914   1.731   1.080 -0.0853 -0.4508  0.2116
  349SOL  HW1   1046   1.829   1.777   1.057  0.9715  0.1024 -0.5438
  349SOL  HW2   1047   1.899   1.629   1.100 -1.0686 -0.4406  1.2613
  350SOL  OW    1048   2.342   2.226   1.119 -0.2472  0.0490  0.2838
  350SOL  HW1   1049   2.333   2.125   1.100  1.5956  1.4563  1.0785
  350SOL  HW2   1050   2.440   2.253   1.101  1.6080 -0.7027  0.8915
  351SOL  OW    1051   2.661   2.972   2.103  0.2016 -0.0166 -0.4848
  351SOL  HW1   1052   2.575   3.016   2.135 -0.9998  1.2285 -0.3362
  351SOL  HW2   1053   2.640   2.882   2.057 -0.0609 -0.5375  1.6271
  352SOL  OW    1054   0.443   0.741   0.091  0.3644 -0.2065 -0.5197
  352SOL  HW1   1055   0.414   0.812   0.021 -0.5585 -0.6536  2.0819
  352SOL  HW2   1056   0.494   0.678   0.040 -1.0299 -0.2087  0.3902
  353SOL  OW    1057   0.991   1.532   2.564 -0.1303 -0.8427 -0.3689
  353SOL  HW1   1058   0.901   1.480   2.558 -1.3544  0.9171 -1.1652
  353SOL  HW2   1059   0.963   1.629   2.585 -1.1709 -0.5203  1.6695
  354SOL  OW    1060   2.158   2.531   1.688  0.1406 -0.8525  0.1975
  354SOL  HW1   1061   2.128   2.592   1.611 -2.6021  0.4411 -1.9887
  354SOL  HW2   1062   2.197   2.596   1.760  0.1292  0.0240 -0.8947
  355SOL  OW    1063   2.881   0.622   0.436 -0.2928 -0.6899  0.7307
  355SOL  HW1   1064   2.916   0.619   0.340  1.8092 -0.7281 -0.1854
  355SOL  HW2   1065   2.963   0.599   0.496 -1.7073  2.7047  2.0262
  356SOL  OW    1066   1.204   2.378   1.566  0.4395  0.0863 -0.0968
  356SOL  HW1   1067   1.296   2.413   1.538 -0.0168  1.3382 -0.7432
  356SOL  HW2   1068   1.155   2.443   1.624 -0.7713  0.4609  0.5110
  357SOL  OW    1069   2.774   0.038   1.435  0.2248 -0.4994  0.2543
  357SOL  HW1   1070   2.750   3.038   1.408  0.7568  2.7199  3.0369
  357SOL  HW2   1071   2.694   0.102   1.426  0.8423 -1.1234  0.5452
  358SOL  OW    1072   1.459   1.276   1.195 -0.5606 -0.4795 -0.6049
  358SOL  HW1   1073   1.518   1.345   1.245  1.6706 -0.3852  2.0071
  358SOL  HW2   1074   1.377   1.246   1.253  0.8062  0.8424  0.0522
  359SOL  OW    1075   2.776   2.379   2.086  0.4987 -0.1687  0.1002
  359SOL  HW1   1076   2.724   2.372   2.001 -1.5431 -0.5375 -1.1868
  359SOL  HW2   1077   2.787   2.469   2.120 -1.0182  2.1685  2.0295
  360SOL  OW    1078   1.274   3.087   0.884 -0.0053 -0.4071 -0.0414
  360SOL  HW1   1079   1.272   0.017   0.985 -1.9747 -1.1771  0.7594
  360SOL  HW2   1080   1.255   0.074   0.828  1.3304 -0.9578 -1.0654
  361SOL  OW    1081   2.174   2.265   0.544 -0.1571 -0.2590 -0.1705
  361SOL  HW1   1082   2.155   2.254   0.446 -0.9821 -2.0736 -0.3867
  361SOL  HW2   1083   2.164   2.179   0.601  0.3040 -3.6967  0.1218
  362SOL  OW    1084   1.586   0.312   0.858 -0.0470  0.3593 -0.2434
  362SOL  HW1   1085   1.545   0.314   0.761 -0.1142 -1.3093  0.7441
  362SOL  HW2   1086   1.557   0.233   0.914 -0.0426  2.3975 -1.1769
  363SOL  OW    1087   1.351   1.052   2.209  0.0467  0.4638 -0.4207
  363SOL  HW1   1088   1.286   1.085   2.139  2.9237 -0.4493 -0.0256
  363SOL  HW2   1089   1.295   1.021   2.289 -0.2556  1.3757  1.6775
  364SOL  OW    1090   3.095   2.998   1.689  0.1962  0.5394  0.1367
  364SOL  HW1   1091   3.055   2.910   1.652  2.4233  2.3697  0.7034
  364SOL  HW2   1092   0.072   3.033   1.627 -3.2841 -0.8429  0.3942
  365SOL  OW    1093   0.254   1.136   2.622 -0.0895 -0.5230  0.7725
  365SOL  HW1   1094   0.192   1.137   2.706 -0.5279  0.8774 -2.0847
  365SOL  HW2   1095   0.264   1.233   2.594  1.3246  1.1993 -1.2692
  366SOL  OW    1096   2.270   1.105   2.696 -0.2573  0.1113 -0.4932
  366SOL  HW1   1097   2.366   1.109   2.658  1.3314 -1.8510  0.4855
  366SOL  HW2   1098   2.239   1.010   2.675  0.7592 -0.9699 -0.2937
  367SOL  OW    1099   1.070   3.068   2.782  0.3628  0.2733  0.2302
  367SOL  HW1   1100   1.137   0.034   2.834 -1.1722  2.3055  0.9688
  367SOL  HW2   1101   0.981   0.021   2.762 -2.2855  0.4486 -0.8119
  368SOL  OW    1102   2.558   1.308   1.268 -0.2685 -0.4565 -0.6639
  368SOL  HW1   1103   2.567   1.246   1.189  1.4968 -0.0184  0.7610
  368SOL  HW2   1104   2.477   1.281   1.323 -0.1363 -0.6225 -2.7750
  369SOL  OW    1105   0.566   3.002   1.593  0.0505  0.2760  0.8618
  369SOL  HW1   1106   0.564   3.004   1.492 -1.6742 -0.3180  0.0093
  369SOL  HW2   1107   0.504   3.071   1.639  3.4777  2.5099 -0.6279
  370SOL  OW    1108   2.319   0.055   0.146  0.4126 -0.0966 -0.4468
  370SOL  HW1   1109   2.271   0.125   0.203  0.8310  1.3932 -2.0462
  370SOL  HW2   1110   2.421   0.075   0.134 -1.7665 -2.2076 -2.2984
  371SOL  OW    1111   0.537   1.796   1.697  0.0503  0.3882 -0.0493
  371SOL  HW1   1112   0.610   1.831   1.755  1.9061  0.0916 -1.0281
  371SOL  HW2   1113   0.449   1.801   1.747 -0.3345  1.7611 -0.2545
  372SOL  OW    1114   1.695   0.140   1.938  0.6743 -0.3226 -0.0900
  372SOL  HW1   1115   1.705   0.235   1.975  0.2993  1.0931  1.9310
  372SOL  HW2   1116   1.688   0.141   1.837 -0.2007 -0.2625  0.4286
  373SOL  OW    1117   0.089   2.376   1.398 -0.1218  0.3371  0.2399
  373SOL  HW1   1118   0.159   2.369   1.324  1.5130 -0.4596 -0.3164
  373SOL  HW2   1119   0.135   2.345   1.482  0.7378  0.1077 -0.5092
  374SOL  OW    1120   2.781   0.850   1.754  0.4494 -0.1910  0.2889
  374SOL  HW1   1121   2.749   0.945   1.722  1.1682 -1.1454 -0.1799
  374SOL  HW2   1122   2.791   0.790   1.672 -0.2187  0.9904 -0.2062
  375SOL  OW    1123   0.273   0.251   2.851 -0.0849  0.5233 -0.1856
  375SOL  HW1   1124   0.178   0.275   2.873 -2.5391 -2.3194 -0.7807
  375SOL  HW2   1125   0.269   0.166   2.797 -0.9341  1.9177  1.6304
  376SOL  OW    1126   3.037   0.081   1.895  0.2790  0.1884 -0.4759
  376SOL  HW1   1127   2.988   0.040   1.974  1.9171  0.2300 -1.2117
  376SOL  HW2   1128   3.038   0.017   1.812 -2.1805  0.4908 -1.6936
  377SOL  OW    1129   0.807   0.816   2.496  0.2602  0.8493 -0.2632
  377SOL  HW1   1130   0.866   0.762   2.431 -1.6311  0.3607 -0.8462
  377SOL  HW2   1131   0.726   0.843   2.444  1.9091  0.4946  0.9512
  378SOL  OW    1132   0.322   0.460   3.026 -0.2721 -0.9084 -0.2783
  378SOL  HW1   1133   0.333   0.382   2.966 -0.0630  1.1178  0.5607
  378SOL  HW2   1134   0.233   0.513   3.020  2.3048 -5.6663 -0.0072
  379SOL  OW    1135   1.206   1.335   2.705 -0.2183  0.0169 -0.3038
  379SOL  HW1   1136   1.196   1.364   2.803 -0.8094  1.7279 -2.0766
  379SOL  HW2   1137   1.144   1.400   2.649  1.1435  0.1944 -2.9451
  380SOL  OW    1138   0.102   2.154   1.131  0.3040 -0.7028 -0.0624
  380SOL  HW1   1139   0.147   2.083   1.070  3.7384  0.9131  0.1815
  380SOL  HW2   1140   0.163   2.235   1.148 -1.8684 -1.1539  2.7588
  381SOL  OW    1141   2.616   2.078   0.283  0.6203  0.2716 -0.1747
  381SOL  HW1   1142   2.582   2.113   0.192 -0.1010 -1.3507 -1.4447
  381SOL  HW2   1143   2.544   2.103   0.350 -0.8412  0.4129 -1.0246
  382SOL  OW    1144   1.664   1.857   1.009 -0.5045 -0.4452 -0.1922
  382SOL  HW1   1145   1.695   1.865   0.912 -2.7688  0.8134  1.5466
  382SOL  HW2   1146   1.589   1.786   1.024 -1.0802  0.0750 -0.2937
  383SOL  OW    1147   0.829   1.566   0.271  0.4552  0.0551  0.0617
  383SOL  HW1   1148   0.847   1.490   0.204  0.6476 -0.0417  0.0077
  383SOL  HW2   1149   0.850   1.657   0.230  1.0095  0.1700 -1.2195
  384SOL  OW    1150   0.921   2.176   2.472 -0.3196 -0.1196 -0.2262
  384SOL  HW1   1151   0.962   2.206   2.556  2.5414 -1.2270  0.0340
  384SOL  HW2   1152   0.822   2.164   2.483 -0.7604 -0.3282 -0.1137
  385SOL  OW    1153   2.342   1.936   1.120  0.2812  0.2359 -0.7928
  385SOL  HW1   1154   2.438   1.919   1.097  0.3781  0.3096  0.1471
  385SOL  HW2   1155   2.322   1.921   1.219 -2.4489  1.3305 -1.1913
  386SOL  OW    1156   1.584   0.384   2.836 -0.0413  0.0168 -0.1947
  386SOL  HW1   1157   1.643   0.301   2.817  1.3630  1.2553  1.1340
  386SOL  HW2   1158   1.600   0.432   2.923 -0.0055  1.4130  1.5466
  387SOL  OW    1159   0.580   0.955   1.251 -0.1346  0.1271 -0.6155
  387SOL  HW1   1160   0.609   0.877   1.199 -1.1841  0.0520 -0.1288
  387SOL  HW2   1161   0.579   0.940   1.354  2.0637 -1.8194 -2.1006
  388SOL  OW    1162   1.050   2.254   2.702 -0.1730 -0.5014 -0.1559
  388SOL  HW1   1163   0.986   2.191   2.746 -2.4123  1.5351 -0.5773
  388SOL  HW2   1164   1.040   2.352   2.730  0.8785  0.6723 -0.0065
  389SOL  OW    1165   0.953   2.016   2.251  0.7203  0.3077 -0.1051
  389SOL  HW1   1166   0.896   1.935   2.272 -0.5598  1.7827 -1.2546
  389SOL  HW2   1167   0.940   2.082   2.329 -0.3831  0.2984  0.5178
  390SOL  OW    1168   2.757   2.884   1.337  0.4924  0.5836  0.3350
  390SOL  HW1   1169   2.679   2.817   1.336  0.4823  0.0470 -0.1034
  390SOL  HW2   1170   2.812   2.887   1.245 -0.7281  1.4537  1.6556
  391SOL  OW    1171   1.648   1.105   1.135 -0.1514  0.1482 -0.0774
  391SOL  HW1   1172   1.607   1.012   1.131  0.0681 -1.8785  0.6747
  391SOL  HW2   1173   1.573   1.171   1.136 -1.8028  0.7338  0.3112
  392SOL  OW    1174   3.067   2.930   0.908 -0.1031  0.5423  0.2325
  392SOL  HW1   1175   3.032   2.911   0.811  0.3749  0.8070 -3.0939
  392SOL  HW2   1176   0.033   3.012   0.913  1.6339  1.0361  0.3369
  393SOL  OW    1177   1.551   2.570   0.222 -0.1647 -0.6177  0.2606
  393SOL  HW1   1178   1.457   2.577   0.189  0.5192  2.1300 -0.1690
  393SOL  HW2   1179   1.562   2.586   0.322 -1.1098 -3.4286  1.6239
  394SOL  OW    1180   0.657   2.528   0.272  0.2890  0.5784  0.1514
  394SOL  HW1   1181   0.646   2.426   0.268 -1.1204 -0.5698  0.8599
  394SOL  HW2   1182   0.569   2.576   0.249  0.2041  0.9117 -0.8023
  395SOL  OW    1183   0.370   0.138   1.390  0.5641 -1.0369  0.2442
  395SOL  HW1   1184   0.466   0.156   1.413 -0.2961  2.7133  0.4881
  395SOL  HW2   1185   0.369   0.080   1.305  0.8777 -0.1225  1.8221
  396SOL  OW    1186   2.602   0.794   0.128  0.3811 -0.4297  0.3096
  396SOL  HW1   1187   2.668   0.734   0.075  0.8458 -0.2987 -0.4187
  396SOL  HW2   1188   2.555   0.857   0.065  1.2547 -0.5530  0.3393
  397SOL  OW    1189   2.932   0.847   2.269  0.0505 -0.2517 -0.6991
  397SOL  HW1   1190   2.996   0.784   2.222  0.2167  1.2138  0.9449
  397SOL  HW2   1191   2.945   0.939   2.228 -0.3404 -3.2687 -0.9640
  398SOL  OW    1192   1.083   2.547   2.499  0.3896 -0.5303  0.0367
  398SOL  HW1   1193   1.085   2.542   2.600 -2.4844 -1.0189 -0.5922
  398SOL  HW2   1194   1.145   2.622   2.468  0.3747 -2.4762 -1.2679
  399SOL  OW    1195   1.607   0.238   1.692  1.1261  0.2034  0.4820
  399SOL  HW1   1196   1.611   0.335   1.716  2.1813  0.4259  1.7606
  399SOL  HW2   1197   1.509   0.210   1.702  1.7465  0.9942 -2.0422
  400SOL  OW    1198   0.826   1.511   2.936  0.0582 -0.3714  0.1435
  400SOL  HW1   1199   0.887   1.558   2.868  0.1024  1.6218  2.2844
  400SOL  HW2   1200   0.773   1.585   2.989 -1.5365 -0.0649 -1.5235
  401SOL  OW    1201   0.311   1.441   2.109 -0.1167  0.1268 -0.2865
  401SOL  HW1   1202   0.320   1.367   2.041 -0.9301  0.0261 -1.4565
  401SOL  HW2   1203   0.339   1.531   2.081  1.8623 -2.0736  0.9590
  402SOL  OW    1204   0.536   0.031   0.556  0.5399 -0.3453 -0.1365
  402SOL  HW1   1205   0.562   3.069   0.636  2.0163  0.2024 -1.3543
  402SOL  HW2   1206   0.544   0.131   0.581 -0.4124 -2.5420 -0.6973
  403SOL  OW    1207   2.505   1.421   1.824  1.1430 -0.0659  0.2502
  403SOL  HW1   1208   2.452   1.375   1.749  0.6349  0.0806  1.0499
  403SOL  HW2   1209   2.476   1.517   1.841  1.0559  2.8050 -1.9312
  404SOL  OW    1210   1.677   2.004   2.909  0.2505  0.3545 -0.6619
  404SOL  HW1   1211   1.586   1.960   2.877 -3.1179 -1.8194  0.0273
  404SOL  HW2   1212   1.659   2.104   2.923 -0.7672 -0.2965  0.7473
  405SOL  OW    1213   2.748   1.685   1.328  0.2556  0.2948  0.0403
  405SOL  HW1   1214   2.774   1.767   1.275 -1.5582  0.1664  0.1281
  405SOL  HW2   1215   2.676   1.636   1.280 -0.0856  4.2775 -2.1294
  406SOL  OW    1216   1.427   2.180   0.190  0.1160  0.7560 -0.6406
  406SOL  HW1   1217   1.446   2.120   0.275  2.9144 -2.6040 -1.7805
  406SOL  HW2   1218   1.510   2.228   0.161  0.3541 -0.3053  0.4683
  407SOL  OW    1219   1.308   0.472   2.414  0.3742 -0.1230 -0.4647
  407SOL  HW1   1220   1.320   0.387   2.466  0.5646 -0.1846 -0.3176
  407SOL  HW2   1221   1.315   0.455   2.314 -0.9877 -1.2403  0.4232
  408SOL  OW    1222   0.392   2.469   2.067  0.2010  0.4826 -0.3581
  408SOL  HW1   1223   0.476   2.520   2.095 -1.6025 -1.9455 -2.6080
  408SOL  HW2   1224   0.379   2.487   1.967  1.0984  0.5148  0.1651
  409SOL  OW    1225   0.208   2.337   1.657  0.8719  0.0625  0.1577
  409SOL  HW1   1226   0.191   2.424   1.719  2.1066  1.0203 -1.5793
  409SOL  HW2   1227   0.151   2.259   1.688 -1.3512 -2.1823  0.5546
  410SOL  OW    1228   0.379   1.920   0.415  0.0109 -0.0774  0.6071
  410SOL  HW1   1229   0.471   1.886   0.449 -3.4199 -0.2218  1.4615
  410SOL  HW2   1230   0.389   1.996   0.349 -1.2087  2.6341 -0.9374
  411SOL  OW    1231   2.288   0.113   1.399  0.8928  0.4285  0.1191
  411SOL  HW1   1232   2.260   0.020   1.367  0.7322  0.0333  2.8609
  411SOL  HW2   1233   2.243   0.183   1.340  0.0192 -1.4788  0.4378
  412SOL  OW    1234   1.690   0.390   2.021  0.5406 -0.5009  0.1316
  412SOL  HW1   1235   1.747   0.386   2.104 -1.5447  2.8135 -1.1667
  412SOL  HW2   1236   1.601   0.429   2.050  2.7958 -0.2431 -0.1351
  413SOL  OW    1237   2.861   0.715   1.515 -0.3345 -0.2692 -0.5225
  413SOL  HW1   1238   2.796   0.689   1.438  0.6934  1.1551 -0.4865
  413SOL  HW2   1239   2.909   0.632   1.550  1.3551 -0.7436  0.9920
  414SOL  OW    1240   2.624   1.382   0.420  0.4147 -0.1070  0.4399
  414SOL  HW1   1241   2.530   1.380   0.378 -1.3717 -0.1639 -1.1833
  414SOL  HW2   1242   2.671   1.291   0.424 -0.0654 -4.3542  0.2696
  415SOL  OW    1243   1.333   1.896   0.797  0.0523  0.1821  0.5923
  415SOL  HW1   1244   1.293   1.851   0.881 -0.1005  1.4788 -1.1243
  415SOL  HW2   1245   1.421   1.955   0.811  0.0115  1.1182  0.9503
  416SOL  OW    1246   1.600   2.702   2.887 -0.6043  0.4830  0.1837
  416SOL  HW1   1247   1.660   2.775   2.848  0.4918 -1.4662 -0.9507
  416SOL  HW2   1248   1.504   2.733   2.881  0.0662  0.1804 -0.4969
  417SOL  OW    1249   0.668   0.609   1.279  0.1027 -0.1068  0.0878
  417SOL  HW1   1250   0.576   0.624   1.332  0.6839  0.8186  1.6941
  417SOL  HW2   1251   0.682   0.665   1.197  2.4835 -0.5543  0.7702
  418SOL  OW    1252   2.315   2.933   1.273  0.0402 -0.2003 -0.4563
  418SOL  HW1   1253   2.326   2.945   1.171 -0.8132  2.0787  0.5190
  418SOL  HW2   1254   2.379   2.858   1.308  0.2101 -2.4476 -1.2407
  419SOL  OW    1255   0.440   0.320   0.134  0.0587 -0.3883 -0.1222
  419SOL  HW1   1256   0.533   0.349   0.147 -1.6311 -1.2067  3.5931
  419SOL  HW2   1257   0.386   0.378   0.072  0.3105 -0.0141  0.8574
  420SOL  OW    1258   0.283   0.843   0.998  0.4542 -0.2452  0.5481
  420SOL  HW1   1259   0.371   0.836   0.951 -0.1026 -2.8577 -1.6794
  420SOL  HW2   1260   0.276   0.936   1.038  0.2580  0.0674 -1.8698
  421SOL  OW    1261   2.723   2.758   0.329  0.2222 -0.5113 -0.1156
  421SOL  HW1   1262   2.823   2.760   0.321  1.9890  1.3577 -3.1994
  421SOL  HW2   1263   2.681   2.745   0.237  2.2965  0.9300  1.5788
  422SOL  OW    1264   2.494   0.504   1.429 -0.6623  0.0652  0.5596
  422SOL  HW1   1265   2.489   0.532   1.526  2.3783  1.6321  1.6515
  422SOL  HW2   1266   2.551   0.568   1.376  0.7203 -0.6140  0.5660
  423SOL  OW    1267   0.527   1.587   2.593 -0.0371  0.7427  0.1572
  423SOL  HW1   1268   0.544   1.617   2.688  0.7325 -1.4599 -0.6965
  423SOL  HW2   1269   0.509   1.662   2.525  1.0842 -0.3635 -1.2473
  424SOL  OW    1270   2.163   1.641   0.578  0.3738 -0.4707  0.5925
  424SOL  HW1   1271   2.226   1.678   0.507  0.2675  0.7022 -2.2991
  424SOL  HW2   1272   2.112   1.715   0.625  0.6156 -0.9210 -2.9395
  425SOL  OW    1273   2.804   0.329   2.468 -0.9396 -0.0046  0.3798
  425SOL  HW1   1274   2.884   0.350   2.408 -1.5329  0.4925  1.0229
  425SOL  HW2   1275   2.735   0.404   2.446 -1.1808 -2.5072 -1.7759
  426SOL  OW    1276   0.590   2.976   2.610 -0.3428 -0.0756 -0.2748
  426SOL  HW1   1277   0.592   3.080   2.602  0.1268  0.8203  0.7034
  426SOL  HW2   1278   0.500   2.928   2.583  0.8541 -1.1017 -0.3890
  427SOL  OW    1279   1.530   3.057   2.622  0.4905 -0.0435  0.3116
  427SOL  HW1   1280   1.591   2.977   2.633 -0.7967  0.0549 -0.5145
  427SOL  HW2   1281   1.440   3.028   2.599  1.6108  0.7767  1.2240
  428SOL  OW    1282   2.297   2.758   1.814 -0.4757  0.4971 -0.1695
  428SOL  HW1   1283   2.397   2.743   1.801 -0.7246  0.9409 -0.1344
  428SOL  HW2   1284   2.286   2.782   1.910 -0.6910  0.8054 -1.0984
  429SOL  OW    1285   1.446   0.222   0.619  0.4206 -0.5382  0.0054
  429SOL  HW1   1286   1.357   0.219   0.666 -0.2049  1.9812 -1.0965
  429SOL  HW2   1287   1.455   0.144   0.547  0.8889  1.1864  1.2973
  430SOL  OW    1288   1.128   1.909   2.643 -0.6664  1.0049  0.2566
  430SOL  HW1   1289   1.109   1.951   2.732  1.6100 -0.6573 -0.2693
  430SOL  HW2   1290   1.225   1.930   2.610  0.5605 -0.9520  1.8405
  431SOL  OW    1291   2.708   0.368   1.141 -0.3679  0.6748 -0.0072
  431SOL  HW1   1292   2.636   0.433   1.109 -0.7136  0.4274 -1.4133
  431SOL  HW2   1293   2.677   0.274   1.118 -0.5508  0.9308 -2.0772
  432SOL  OW    1294   1.577   2.296   2.060  0.0257  0.3026  0.5512
  432SOL  HW1   1295   1.522   2.242   1.994 -0.4881 -2.0788 -0.6054
  432SOL  HW2   1296   1.606   2.234   2.133 -1.1509  0.6826  0.8675
  433SOL  OW    1297   0.741   3.036   1.980  0.3980  0.2267 -0.2084
  433SOL  HW1   1298   0.652   3.077   1.948 -2.5762  1.1928  2.6571
  433SOL  HW2   1299   0.792   3.003   1.899  0.8362  2.0256  1.3847
  434SOL  OW    1300   1.573   2.767   2.235 -0.3531  0.6412  0.2011
  434SOL  HW1   1301   1.568   2.704   2.155 -1.0664 -0.1969  1.4053
  434SOL  HW2   1302   1.521   2.849   2.227  1.9186 -1.2882  2.2693
  435SOL  OW    1303   0.127   0.478   0.406 -0.1552 -0.6432 -0.2443
  435SOL  HW1   1304   0.105   0.501   0.504 -0.6889 -2.5752  0.9754
  435SOL  HW2   1305   0.142   0.562   0.351 -0.1204  0.6156  0.0834
  436SOL  OW    1306   0.554   0.660   2.261  0.9062  0.2523  0.0919
  436SOL  HW1   1307   0.579   0.756   2.285  2.0818  0.5052  0.0129
  436SOL  HW2   1308   0.611   0.595   2.316  1.6445  0.7699  2.7655
  437SOL  OW    1309   0.810   1.968   0.600 -0.0914 -0.5519  0.2800
  437SOL  HW1   1310   0.887   1.904   0.615  2.0442  1.0409  3.0817
  437SOL  HW2   1311   0.779   2.006   0.689  1.1042  0.9889  0.0985
  438SOL  OW    1312   3.020   0.883   1.065 -0.7590  0.0109 -0.5993
  438SOL  HW1   1313   2.970   0.966   1.088  0.3853  0.0352  0.7992
  438SOL  HW2   1314   0.022   0.896   1.071  1.8541 -0.3709 -1.2243
  439SOL  OW    1315   3.032   2.038   1.340  0.6607 -0.0062 -0.3518
  439SOL  HW1   1316   2.993   2.124   1.382 -3.1038  0.4953  1.4472
  439SOL  HW2   1317   3.088   2.058   1.257  0.0992 -1.4577 -0.9049
  440SOL  OW    1318   3.029   1.065   0.229 -0.0807 -0.0550  0.2445
  440SOL  HW1   1319   3.034   0.978   0.181  1.6870 -1.2093 -0.5229
  440SOL  HW2   1320   2.973   1.142   0.178  2.3511  0.2053 -2.5655
  441SOL  OW    1321   0.522   1.582   1.518 -0.4332  0.3829 -0.3597
  441SOL  HW1   1322   0.581   1.608   1.439 -0.0697 -3.9972 -0.6740
  441SOL  HW2   1323   0.524   1.653   1.598 -1.5416  2.5855  1.8679
  442SOL  OW    1324   0.621   0.777   0.282 -0.1115  0.0266 -0.0316
  442SOL  HW1   1325   0.719   0.782   0.253 -2.3701  1.0971 -1.4491
  442SOL  HW2   1326   0.556   0.769   0.204 -0.8791  1.0385 -0.8623
  443SOL  OW    1327   2.693   1.604   0.280 -0.4725 -0.3907  0.6662
  443SOL  HW1   1328   2.776   1.570   0.228  2.5103 -1.1029 -0.0937
  443SOL  HW2   1329   2.658   1.531   0.339  0.4221  1.6330 -0.0403
  444SOL  OW    1330   1.135   0.663   2.463  0.0175 -0.3887 -0.3299
  444SOL  HW1   1331   1.198   0.590   2.437 -1.7024  0.1582  2.6939
  444SOL  HW2   1332   1.127   0.684   2.561  1.1764 -0.9853 -0.9501
  445SOL  OW    1333   0.127   2.813   2.232  0.0382  0.0105  0.9176
  445SOL  HW1   1334   0.121   2.887   2.153  0.5021  2.7707 -1.6867
  445SOL  HW2   1335   0.219   2.817   2.274 -0.3102  1.4115 -0.0551
  446SOL  OW    1336   1.527   1.733   1.918  0.0513 -0.2454  0.2113
  446SOL  HW1   1337   1.564   1.722   2.012  0.8774  0.9664  0.8230
  446SOL  HW2   1338   1.522   1.641   1.873 -0.7691  2.2856  0.0774
  447SOL  OW    1339   2.644   0.278   0.404 -0.3037  0.3588  0.2605
  447SOL  HW1   1340   2.718   0.258   0.339 -1.5952  0.8446 -1.6335
  447SOL  HW2   1341   2.561   0.303   0.355  2.3424  1.0687  0.5788
  448SOL  OW    1342   0.918   1.147   2.024  0.0420 -0.2310  0.2890
  448SOL  HW1   1343   0.871   1.178   1.940  0.7742 -1.2739  2.2996
  448SOL  HW2   1344   0.895   1.048   2.045 -1.3597 -0.5895  0.4152
  449SOL  OW    1345   0.200   0.675   0.233  0.2732  0.0931  0.0351
  449SOL  HW1   1346   0.141   0.674   0.153  1.7804  0.2604  0.7143
  449SOL  HW2   1347   0.297   0.686   0.200 -0.4236 -1.7317  1.6125
  450SOL  OW    1348   2.369   1.305   1.616 -0.4671  0.6818  0.1219
  450SOL  HW1   1349   2.344   1.288   1.517  2.3316  3.1068 -2.7532
  450SOL  HW2   1350   2.391   1.217   1.665  1.0601 -1.3915  0.2107
  451SOL  OW    1351   1.754   0.770   1.112 -0.7569  0.5784 -0.0968
  451SOL  HW1   1352   1.739   0.842   1.041 -0.4256  0.8477 -1.2783
  451SOL  HW2   1353   1.851   0.739   1.108  0.1220 -0.7388  2.7499
  452SOL  OW    1354   0.158   1.211   0.985 -0.1115 -0.7447  0.3896
  452SOL  HW1   1355   0.236   1.160   1.035  1.7400  0.7686 -1.8230
  452SOL  HW2   1356   0.095   1.245   1.053  1.3808  3.1589 -0.6363
  453SOL  OW    1357   0.176   1.717   1.256 -0.2384  0.4975 -0.1231
  453SOL  HW1   1358   0.187   1.783   1.337  1.2887 -0.8857  1.2696
  453SOL  HW2   1359   0.135   1.635   1.297 -1.8924  1.0078  1.7257
  454SOL  OW    1360   1.752   1.167   0.058  0.7233  0.3824  0.3341
  454SOL  HW1   1361   1.681   1.240   0.073 -2.6417 -0.7721 -1.3645
  454SOL  HW2   1362   1.818   1.157   0.133  0.0230  0.0386 -1.5181
  455SOL  OW    1363   1.508   0.677   0.513 -0.2465  0.2364 -0.1890
  455SOL  HW1   1364   1.587   0.676   0.578  0.9932  0.3592 -1.3701
  455SOL  HW2   1365   1.498   0.592   0.461 -2.2203  0.3467 -3.2561
  456SOL  OW    1366   1.858   1.926   0.117 -0.7928  0.2698 -0.6274
  456SOL  HW1   1367   1.839   2.000   0.183  1.4330  2.8715  0.3163
  456SOL  HW2   1368   1.876   1.964   0.026  1.6330 -0.1105 -0.4021
  457SOL  OW    1369   2.528   1.108   2.623 -0.6015 -0.3505  0.0739
  457SOL  HW1   1370   2.562   1.128   2.528  0.5953 -0.4481  1.3647
  457SOL  HW2   1371   2.586   1.033   2.666  2.5362  0.1551  0.7316
  458SOL  OW    1372   2.043   2.886   1.296 -0.2419 -0.0448  0.2638
  458SOL  HW1   1373   2.048   2.811   1.367  1.5183  2.5205  1.0731
  458SOL  HW2   1374   2.137   2.920   1.286 -0.3982  0.5840  0.7140
  459SOL  OW    1375   0.084   1.555   2.489  1.0490 -0.6521  0.4691
  459SOL  HW1   1376   3.080   1.523   2.488  0.3315  0.6938 -1.2769
  459SOL  HW2   1377   0.101   1.654   2.462  0.4666  0.4936 -0.6722
  460SOL  OW    1378   1.128   0.650   0.241  0.7705 -0.2492  0.1670
  460SOL  HW1   1379   1.200   0.649   0.166 -0.1566  1.3099  0.4224
  460SOL  HW2   1380   1.146   0.583   0.313  1.2345  0.9857 -0.7933
  461SOL  OW    1381   0.850   2.630   0.451 -0.0939 -0.1129 -0.3356
  461SOL  HW1   1382   0.882   2.544   0.496  0.1002  0.8169 -1.4065
  461SOL  HW2   1383   0.770   2.611   0.395  1.8347 -1.4171 -0.9818
  462SOL  OW    1384   1.692   2.839   2.638 -0.0537  0.1163  0.1073
  462SOL  HW1   1385   1.794   2.840   2.647 -0.9859  1.5548  0.6736
  462SOL  HW2   1386   1.657   2.783   2.564  1.3857 -1.3383  1.6169
  463SOL  OW    1387   2.605   2.699   2.070  0.2974  0.2097 -0.3735
  463SOL  HW1   1388   2.514   2.708   2.116 -1.9920 -2.7398  4.1608
  463SOL  HW2   1389   2.598   2.716   1.968  0.4531  2.6163  1.4505
  464SOL  OW    1390   2.559   2.831   0.778  1.1261  0.1018  0.1280
  464SOL  HW1   1391   2.543   2.739   0.804  2.1597 -1.6950  0.9859
  464SOL  HW2   1392   2.602   2.891   0.850  1.5853  0.7132  0.9403
  465SOL  OW    1393   2.831   1.087   1.122 -0.5968  0.2771 -0.6408
  465SOL  HW1   1394   2.885   1.107   1.206 -2.5211 -1.1946  1.0252
  465SOL  HW2   1395   2.791   1.172   1.080 -2.0196  0.4508 -3.2333
  466SOL  OW    1396   1.170   1.819   0.312 -0.3390  0.1313 -0.0088
  466SOL  HW1   1397   1.194   1.881   0.393 -1.7051 -0.4964  3.9929
  466SOL  HW2   1398   1.252   1.803   0.254 -1.2749  1.2973 -0.4815
  467SOL  OW    1399   0.784   2.286   3.017  1.0897  0.4359 -0.0298
  467SOL  HW1   1400   0.821   2.363   3.074 -0.6820  0.2152  2.6601
  467SOL  HW2   1401   0.735   2.216   3.072 -2.9457 -0.7498  1.8486
  468SOL  OW    1402   1.339   1.658   0.192  0.4316 -0.8255 -0.4310
  468SOL  HW1   1403   1.324   1.650   0.088  1.3128  2.1011  0.8960
  468SOL  HW2   1404   1.436   1.688   0.211 -0.0450 -3.5974 -2.4400
  469SOL  OW    1405   1.009   1.631   1.145 -0.2647 -0.4785  0.5702
  469SOL  HW1   1406   0.993   1.557   1.211  1.4650  2.8458  1.1608
  469SOL  HW2   1407   0.974   1.719   1.183  0.1713  0.7677  0.0913
  470SOL  OW    1408   2.168   1.506   1.069  0.0724 -0.0141 -0.0246
  470SOL  HW1   1409   2.237   1.542   1.136 -2.1741 -1.2739 -1.4050
  470SOL  HW2   1410   2.165   1.558   0.982  2.8543 -0.6874  2.6621
  471SOL  OW    1411   3.041   2.073   0.429  0.3192  0.2548 -0.1139
  471SOL  HW1   1412   3.057   2.000   0.498  1.8527 -0.3574 -1.2676
  471SOL  HW2   1413   0.011   2.150   0.438 -1.3285 -2.0477 -0.6756
  472SOL  OW    1414   0.288   2.445   2.821 -0.1565 -0.8629 -0.2256
  472SOL  HW1   1415   0.274   2.459   2.722 -3.7656  2.8295 -0.5290
  472SOL  HW2   1416   0.384   2.414   2.837  1.7868 -3.2242 -1.0198
  473SOL  OW    1417   0.672   2.512   1.143  0.7539 -0.2178  0.4960
  473SOL  HW1   1418   0.653   2.601   1.097 -1.5019 -0.6803  0.3217
  473SOL  HW2   1419   0.625   2.513   1.230  0.1858 -1.6462 -2.7155
  474SOL  OW    1420   2.308   1.201   1.361  0.1993 -0.6040  0.3513
  474SOL  HW1   1421   2.288   1.218   1.260 -1.0759 -1.7449  0.9340
  474SOL  HW2   1422   2.307   1.100   1.374 -0.5002 -1.0287 -0.3071
  475SOL  OW    1423   2.607   0.512   2.394  0.0535  0.1539 -0.1948
  475SOL  HW1   1424   2.574   0.609   2.412 -1.6161  0.6747  2.7610
  475SOL  HW2   1425   2.616   0.492   2.289 -1.5629 -3.6175 -2.8629
  476SOL  OW    1426   0.357   0.415   0.780  0.2041  0.3850  0.4934
  476SOL  HW1   1427   0.407   0.414   0.870 -1.1531 -1.7981  1.6008
  476SOL  HW2   1428   0.255   0.414   0.796  2.4117  0.4986  2.7033
  477SOL  OW    1429   1.789   0.059   2.410 -0.4572 -0.1960  0.3322
  477SOL  HW1   1430   1.870   0.001   2.438  0.6099  0.6642 -2.9623
  477SOL  HW2   1431   1.756   0.024   2.320 -4.0118 -0.2921  2.2117
  478SOL  OW    1432   1.426   2.872   0.398 -0.0582  0.4113  0.2115
  478SOL  HW1   1433   1.342   2.846   0.347 -0.1698  3.6889 -0.6264
  478SOL  HW2   1434   1.454   2.789   0.451 -1.5042 -1.6196 -1.0210
  479SOL  OW    1435   2.073   1.635   2.385  0.2215 -0.2583 -0.5129
  479SOL  HW1   1436   2.048   1.678   2.474  1.0751  0.7308  2.4242
  479SOL  HW2   1437   2.075   1.532   2.392 -0.1911 -2.3497 -1.1923
  480SOL  OW    1438   2.262   2.430   0.313  0.2735  0.1915 -0.2196
  480SOL  HW1   1439   2.249   2.503   0.382 -0.1575  2.6823 -0.7712
  480SOL  HW2   1440   2.306   2.456   0.226 -2.1469 -0.9108 -1.9546
  481SOL  OW    1441   1.874   0.372   1.589  0.5591 -0.2613  0.1885
  481SOL  HW1   1442   1.905   0.285   1.638  1.1167 -1.5397 -1.2457
  481SOL  HW2   1443   1.809   0.422   1.652  0.4593 -2.1575  0.6590
  482SOL  OW    1444   1.254   1.782   1.914  0.5108  0.1931 -0.1652
  482SOL  HW1   1445   1.355   1.764   1.921  0.5357  0.2820 -2.9200
  482SOL  HW2   1446   1.203   1.696   1.920 -0.6281 -0.6578  1.0170
  483SOL  OW    1447   1.688   2.108   0.543 -0.3755  0.3967 -0.3337
  483SOL  HW1   1448   1.749   2.092   0.463 -0.0875 -0.3458  0.8210
  483SOL  HW2   1449   1.665   2.207   0.556  1.2937 -0.3055  0.0240
  484SOL  OW    1450   2.930   3.029   2.099 -0.1621  0.0194 -0.2342
  484SOL  HW1   1451   2.993   2.947   2.084  1.1666 -3.3713  0.8011
  484SOL  HW2   1452   2.828   3.012   2.095 -1.2132  0.6414  1.0404
  485SOL  OW    1453   2.415   2.930   0.005 -0.3566  0.0244 -0.3546
  485SOL  HW1   1454   2.380   3.015   0.049 -1.3845  0.2290 -0.2190
  485SOL  HW2   1455   2.446   2.865   0.075 -0.7364 -2.3344  0.8588
  486SOL  OW    1456   2.080   2.241   0.236  0.0193  0.5038  0.3527
  486SOL  HW1   1457   2.088   2.227   0.137 -1.1668  2.1578 -1.7568
  486SOL  HW2   1458   2.145   2.313   0.260  1.0622  0.4351 -2.0462
  487SOL  OW    1459   0.677   1.175   0.242 -0.1004  0.1942  0.0194
  487SOL  HW1   1460   0.616   1.126   0.311 -3.4498 -2.5752  0.9809
  487SOL  HW2   1461   0.629   1.193   0.154 -1.6025  1.7283 -0.0249
  488SOL  OW    1462   2.339   0.357   2.119 -0.1050 -0.5063  0.1038
  488SOL  HW1   1463   2.312   0.454   2.094 -1.4317 -1.6525  2.1135
  488SOL  HW2   1464   2.427   0.332   2.074  1.9101 -0.5206 -0.3289
  489SOL  OW    1465   1.103   2.539   0.724  0.0553 -0.6978 -0.4225
  489SOL  HW1   1466   1.194   2.538   0.679  0.9334  2.0245 -3.9200
  489SOL  HW2   1467   1.110   2.491   0.817  0.1588 -1.7649  1.6716
  490SOL  OW    1468   1.872   1.309   2.742  0.0719 -0.3704 -0.5862
  490SOL  HW1   1469   1.874   1.234   2.814 -1.9736 -3.4208  1.7593
  490SOL  HW2   1470   1.778   1.323   2.704  1.8948 -0.9492 -2.1478
  491SOL  OW    1471   0.311   0.423   1.742  0.0115 -0.7042 -0.0744
  491SOL  HW1   1472   0.403   0.465   1.730  1.6478 -1.4428  1.7755
  491SOL  HW2   1473   0.274   0.377   1.659 -0.2987  0.8419 -0.2761
  492SOL  OW    1474   1.217   2.177   0.011  0.0829 -0.0690 -0.2216
  492SOL  HW1   1475   1.131   2.183   0.065  1.7360 -0.8081  0.2204
  492SOL  HW2   1476   1.297   2.170   0.081  1.8413 -2.5262  1.4582
  493SOL  OW    1477   2.209   2.159   2.709 -0.5897  0.2745  0.0371
  493SOL  HW1   1478   2.160   2.207   2.636 -1.4783  2.4422 -1.0830
  493SOL  HW2   1479   2.183   2.063   2.719 -0.2829 -0.3586  0.1776
  494SOL  OW    1480   0.857   2.909   0.461  0.1812 -0.7373 -0.1179
  494SOL  HW1   1481   0.778   2.961   0.419  0.1201  1.1704  0.0367
  494SOL  HW2   1482   0.848   2.808   0.458 -0.9489  2.5330 -0.5065
  495SOL  OW    1483   2.477   0.578   1.688 -0.3690 -0.4845  0.6027
  495SOL  HW1   1484   2.399   0.546   1.737 -1.8046  1.2312 -0.2079
  495SOL  HW2   1485   2.562   0.519   1.705 -2.3609  0.9156 -2.3227
  496SOL  OW    1486   2.693   2.416   2.808 -0.5802  0.1118  0.4197
  496SOL  HW1   1487   2.784   2.423   2.763 -0.5070 -0.5785  0.5345
  496SOL  HW2   1488   2.711   2.386   2.902  0.0532  0.7588  0.8063
  497SOL  OW    1489   2.218   0.719   2.462 -0.3716 -0.6588  0.2881
  497SOL  HW1   1490   2.175   0.746   2.375  4.1963  3.4290  1.1056
  497SOL  HW2   1491   2.208   0.620   2.484  0.2755  1.7341  1.5197
  498SOL  OW    1492   0.955   2.500   1.192 -0.4066 -0.7740 -0.5549
  498SOL  HW1   1493   0.972   2.435   1.264 -2.5409 -0.3485 -1.1212
  498SOL  HW2   1494   0.854   2.502   1.185 -1.4255  1.9947 -2.0812
  499SOL  OW    1495   0.016   1.800   1.713  0.2308  0.4886 -0.4838
  499SOL  HW1   1496   0.027   1.715   1.766  3.8973  4.0053 -1.2975
  499SOL  HW2   1497   3.016   1.838   1.720  2.5753  0.7811  0.2941
  500SOL  OW    1498   0.890   1.808   2.583 -0.3328 -0.2918  0.3087
  500SOL  HW1   1499   0.982   1.853   2.605 -1.5259  0.8864  1.4377
  500SOL  HW2   1500   0.816   1.870   2.614 -1.6186  0.3403 -2.4622
  501SOL  OW    1501   1.808   2.969   0.062 -0.2405  0.2434 -0.2009
  501SOL  HW1   1502   1.831   2.976   0.158 -1.4889  0.6626 -1.7682
  501SOL  HW2   1503   1.771   2.875   0.044  0.0638 -1.2606 -2.7566
  502SOL  OW    1504   2.688   0.665   0.763 -0.3665  0.2334  0.4682
  502SOL  HW1   1505   2.775   0.717   0.777 -0.9815  0.6320 -3.4468
  502SOL  HW2   1506   2.699   0.591   0.694  0.8173  2.4538  2.0676
  503SOL  OW    1507   2.925   2.424   2.687  0.3447  0.0578  0.5639
  503SOL  HW1   1508   2.888   2.435   2.596 -1.8884 -0.8913 -1.4326
  503SOL  HW2   1509   2.981   2.504   2.701  0.7108  4.4421  1.0785
  504SOL  OW    1510   1.156   1.949   1.713  0.0723  0.5622  0.4796
  504SOL  HW1   1511   1.228   2.015   1.679  1.6363  0.6663  1.1371
  504SOL  HW2   1512   1.195   1.892   1.789  4.3607  1.4686  1.7760
  505SOL  OW    1513   2.146   2.525   2.576 -0.3920  0.5389  0.0139
  505SOL  HW1   1514   2.072   2.515   2.514  0.7317 -1.3562  0.4921
  505SOL  HW2   1515   2.230   2.500   2.536  1.0748 -0.0932  5.0947
  506SOL  OW    1516   0.701   0.350   1.933  0.0199  0.4576  0.1705
  506SOL  HW1   1517   0.695   0.448   1.944 -1.2685 -2.6796  0.0522
  506SOL  HW2   1518   0.780   0.325   1.873  0.9088  1.7525 -0.4606
  507SOL  OW    1519   1.717   0.905   0.839  0.0137  0.4141  0.8228
  507SOL  HW1   1520   1.718   0.820   0.776  0.9522 -0.6119 -1.8867
  507SOL  HW2   1521   1.638   0.961   0.813  0.5258 -2.2507 -3.0223
  508SOL  OW    1522   1.800   0.084   0.845  0.4139  0.0528  0.3413
  508SOL  HW1   1523   1.722   0.101   0.906  0.0134  0.7464 -0.1221
  508SOL  HW2   1524   1.783   0.003   0.782 -1.9855 -0.3444  1.0146
  509SOL  OW    1525   1.386   1.590   0.485 -0.5060 -0.0231  0.2046
  509SOL  HW1   1526   1.358   1.637   0.400  0.0307  0.8841  0.1394
  509SOL  HW2   1527   1.303   1.547   0.528  1.7191 -2.9640 -4.7505
  510SOL  OW    1528   2.904   1.393   0.858 -0.4711 -0.2951 -0.5613
  510SOL  HW1   1529   2.924   1.491   0.882 -0.1964 -4.1111  1.9407
  510SOL  HW2   1530   2.972   1.358   0.791 -1.0182  2.7025  1.4890
  511SOL  OW    1531   1.231   1.750   1.000 -0.0187 -0.3362 -0.6109
  511SOL  HW1   1532   1.158   1.710   1.058  1.4405 -1.5670 -0.7287
  511SOL  HW2   1533   1.314   1.686   1.002  2.5928  0.9536 -1.5476
  512SOL  OW    1534   0.426   1.680   0.775 -0.5419 -0.0321 -1.2386
  512SOL  HW1   1535   0.335   1.651   0.800  1.1874 -0.6282 -0.8752
  512SOL  HW2   1536   0.432   1.655   0.674 -3.0916  0.1050  2.0066
  513SOL  OW    1537   0.835   0.206   1.117 -0.7004  0.1229 -0.0317
  513SOL  HW1   1538   0.744   0.233   1.152  0.5245 -0.1285 -3.4690
  513SOL  HW2   1539   0.908   0.280   1.123  0.0499 -0.7669  1.5533
  514SOL  OW    1540   1.017   2.940   0.928  0.0237  0.2900  0.0694
  514SOL  HW1   1541   1.029   2.875   1.006  0.2452 -1.9327 -0.2210
  514SOL  HW2   1542   1.109   2.966   0.893  0.4414  0.7196  0.1175
  515SOL  OW    1543   0.537   2.915   0.185  0.0781  0.2560  0.0120
  515SOL  HW1   1544   0.612   2.964   0.232  1.8179  3.3040  0.0575
  515SOL  HW2   1545   0.462   2.977   0.164 -0.5519 -3.6175  1.7791
  516SOL  OW    1546   1.962   0.458   1.056  0.6083 -0.2747  0.1912
  516SOL  HW1   1547   2.047   0.409   1.019  0.3118  0.6382  0.1781
  516SOL  HW2   1548   1.933   0.421   1.145  0.5362  1.2345 -0.0803
  517SOL  OW    1549   2.386   1.888   0.606  0.4579  0.2744  0.1407
  517SOL  HW1   1550   2.356   1.852   0.516 -0.0844  0.4878  0.3922
  517SOL  HW2   1551   2.354   1.821   0.681  1.0805 -0.6129 -2.8916
  518SOL  OW    1552   0.617   2.762   3.050 -0.7062 -0.1592 -0.2216
  518SOL  HW1   1553   0.594   2.820   0.033 -0.1022 -0.4421  0.4828
  518SOL  HW2   1554   0.714   2.729   3.052 -0.1645  0.5331  1.6872
  519SOL  OW    1555   0.414   0.375   1.045  0.0013  0.2577 -0.3381
  519SOL  HW1   1556   0.345   0.440   1.075  0.4459 -0.2273  2.8970
  519SOL  HW2   1557   0.475   0.344   1.123  1.2367  1.9430  0.3782
  520SOL  OW    1558   2.373   2.326   2.023  0.1327  0.2801 -0.1387
  520SOL  HW1   1559   2.358   2.396   2.094 -2.4956  1.5666  0.2817
  520SOL  HW2   1560   2.286   2.294   1.982  2.5937 -1.5502  1.7139
  521SOL  OW    1561   1.880   2.344   1.999  0.7353 -0.3791  0.2009
  521SOL  HW1   1562   1.938   2.346   2.083  1.5111  0.0621 -3.0396
  521SOL  HW2   1563   1.781   2.320   2.015  1.0700  0.2664  0.2594
  522SOL  OW    1564   0.297   0.374   2.373  0.6611  0.2487  0.3494
  522SOL  HW1   1565   0.266   0.275   2.368  0.1317 -2.6858  0.7970
  522SOL  HW2   1566   0.361   0.395   2.297  2.1148  0.9816 -4.1625
  523SOL  OW    1567   0.779   2.839   2.344  0.3369 -0.1760  0.2297
  523SOL  HW1   1568   0.698   2.867   2.285 -1.4648 -1.7663  0.9306
  523SOL  HW2   1569   0.790   2.743   2.336  3.1025  2.6961  1.9229
  524SOL  OW    1570   1.864   2.501   1.088  0.2591  0.5449  0.0565
  524SOL  HW1   1571   1.854   2.415   1.141  2.0163  0.2477 -0.9713
  524SOL  HW2   1572   1.793   2.508   1.020  0.0125  1.8724  2.8410
  525SOL  OW    1573   2.739   0.689   1.969  0.1196  0.0855  0.4651
  525SOL  HW1   1574   2.765   0.746   1.890  0.3732  0.4578 -0.8626
  525SOL  HW2   1575   2.819   0.632   1.998  0.9181  0.7156 -1.5235
  526SOL  OW    1576   0.267   2.374   1.169  0.0361  0.0265  0.3862
  526SOL  HW1   1577   0.267   2.463   1.116 -2.4930  1.2335  2.5385
  526SOL  HW2   1578   0.359   2.329   1.172 -1.3151 -0.9952 -0.8766
  527SOL  OW    1579   2.042   0.198   0.534  0.5331 -0.2023 -0.7237
  527SOL  HW1   1580   2.062   0.274   0.602 -1.0158 -0.9015  1.2899
  527SOL  HW2   1581   2.080   0.108   0.567  0.0281  1.8359  1.8044
  528SOL  OW    1582   1.176   1.146   2.004  0.7191 -0.4405  0.0647
  528SOL  HW1   1583   1.077   1.148   2.029  0.8461 -0.6529 -1.1680
  528SOL  HW2   1584   1.194   1.224   1.942 -2.7424  1.2656  0.4961
  529SOL  OW    1585   0.472   1.304   0.702 -0.0240  0.2327 -0.1710
  529SOL  HW1   1586   0.517   1.358   0.774 -0.0474 -0.9054 -1.1782
  529SOL  HW2   1587   0.519   1.215   0.679 -1.1620  1.4036 -0.7960
  530SOL  OW    1588   1.520   0.670   1.560 -0.3401  0.3310  0.4517
  530SOL  HW1   1589   1.544   0.760   1.515 -2.3624  0.3938 -1.8689
  530SOL  HW2   1590   1.489   0.601   1.499  0.1502 -0.8363  0.6957
  531SOL  OW    1591   1.472   1.311   2.936  0.0661  0.3203 -0.4545
  531SOL  HW1   1592   1.372   1.289   2.942 -0.1527  1.8050 -1.6121
  531SOL  HW2   1593   1.511   1.329   3.029 -0.8446  1.4481  5.1991
  532SOL  OW    1594   2.114   2.888   1.655  0.0063  0.1295 -0.3515
  532SOL  HW1   1595   2.024   2.839   1.645  1.0652  1.9065 -0.2215
  532SOL  HW2   1596   2.176   2.830   1.710 -0.5685 -1.6583  2.3863
  533SOL  OW    1597   3.069   0.324   2.009  0.3518  0.3209 -0.0046
  533SOL  HW1   1598   3.051   0.241   1.954  0.6290 -2.7247 -3.2709
  533SOL  HW2   1599   0.073   0.329   2.024  1.8338  0.1161 -2.4215
  534SOL  OW    1600   2.831   2.480   2.439 -0.0380  0.3468  0.4774
  534SOL  HW1   1601   2.748   2.418   2.413 -1.2415 -1.1554 -0.0973
  534SOL  HW2   1602   2.856   2.535   2.354  0.2403 -1.1250  0.5592
  535SOL  OW    1603   0.090   0.605   3.009 -0.5294  0.2726 -0.2016
  535SOL  HW1   1604   0.035   0.518   2.987 -2.5630 -0.9879 -0.8983
  535SOL  HW2   1605   0.131   0.638   2.922  0.2408 -0.6832  3.1872
  536SOL  OW    1606   0.797   2.576   1.647  0.9070 -0.0407  0.3075
  536SOL  HW1   1607   0.767   2.645   1.579 -1.5077 -2.0239  0.4803
  536SOL  HW2   1608   0.748   2.488   1.645 -1.0365 -1.3855  0.0570
  537SOL  OW    1609   2.584   2.782   1.821 -0.1633  0.3177 -0.9576
  537SOL  HW1   1610   2.641   2.717   1.768  2.1665 -2.2825 -1.0115
  537SOL  HW2   1611   2.611   2.875   1.791 -0.4331  1.0415  0.8315
  538SOL  OW    1612   1.135   2.188   0.652  0.1733  0.4528 -0.1443
  538SOL  HW1   1613   1.037   2.188   0.679  0.8348 -0.9500  0.5520
  538SOL  HW2   1614   1.168   2.094   0.624  2.0023  0.2935  0.2114
  539SOL  OW    1615   2.446   1.953   2.544  0.0576 -0.1111  0.0131
  539SOL  HW1   1616   2.431   1.953   2.648 -0.2371  1.0307 -0.6643
  539SOL  HW2   1617   2.464   1.859   2.515 -0.9451 -0.8226  0.4959
  540SOL  OW    1618   2.171   0.228   0.299  0.1446 -0.8180 -0.3954
  540SOL  HW1   1619   2.136   0.206   0.393 -0.5434  1.0824 -1.5753
  540SOL  HW2   1620   2.098   0.264   0.235  0.2111 -0.9647 -1.9631
  541SOL  OW    1621   2.130   0.758   2.216 -0.1014 -0.2478  0.2081
  541SOL  HW1   1622   2.210   0.743   2.155 -0.0472 -1.1727  0.4423
  541SOL  HW2   1623   2.050   0.717   2.164  0.3793 -0.5893  1.3929
  542SOL  OW    1624   1.997   1.655   2.004  0.3749 -0.2369  0.0628
  542SOL  HW1   1625   1.949   1.668   2.095 -1.0281 -1.6204  0.8700
  542SOL  HW2   1626   2.086   1.606   2.009 -0.8398  2.6553  1.2610
  543SOL  OW    1627   0.991   2.919   0.176 -0.0767 -0.1313 -0.2128
  543SOL  HW1   1628   0.937   2.955   0.257  1.0101  1.7350  2.5838
  543SOL  HW2   1629   1.067   2.983   0.155 -4.4636 -2.4696  1.6686
  544SOL  OW    1630   0.508   1.805   2.423  0.0669  0.0745  0.3890
  544SOL  HW1   1631   0.598   1.820   2.375  1.9141  2.3134  0.9039
  544SOL  HW2   1632   0.453   1.891   2.409  2.5645 -0.5801  0.5653
  545SOL  OW    1633   0.850   1.919   1.459  0.4659  0.4819  0.1968
  545SOL  HW1   1634   0.841   2.010   1.498 -2.3594  2.9282  0.0491
  545SOL  HW2   1635   0.942   1.881   1.479 -0.1142 -0.5821 -2.6099
  546SOL  OW    1636   2.661   0.899   2.336  0.1935 -0.0337 -0.2246
  546SOL  HW1   1637   2.762   0.875   2.331  0.9608 -0.4533 -1.0000
  546SOL  HW2   1638   2.656   1.003   2.353 -0.7080  1.0113  0.0429
  547SOL  OW    1639   2.170   2.946   0.250  0.2817  0.3008 -0.8324
  547SOL  HW1   1640   2.195   3.029   0.201  2.3850  0.6151  0.0019
  547SOL  HW2   1641   2.224   2.938   0.334 -0.6751 -1.4446  0.3141
  548SOL  OW    1642   1.593   1.333   2.331  0.8713  0.3990  0.2415
  548SOL  HW1   1643   1.533   1.314   2.411  1.9206 -0.7907  0.6676
  548SOL  HW2   1644   1.643   1.418   2.332  1.4001  0.8782 -0.4299
  549SOL  OW    1645   2.810   0.327   3.042  0.3933 -0.0749  0.8524
  549SOL  HW1   1646   2.822   0.428   3.059 -0.3348 -1.9900 -0.8042
  549SOL  HW2   1647   2.884   0.266   3.081 -1.7263  0.2378  0.1302
  550SOL  OW    1648   2.599   1.973   1.041 -0.5201  0.5378 -0.1994
  550SOL  HW1   1649   2.590   1.965   0.938 -0.9637 -3.3548  0.1658
  550SOL  HW2   1650   2.691   1.933   1.073 -1.2729 -1.3195  0.7233
  551SOL  OW    1651   0.602   0.328   1.228  0.2573 -0.0913 -0.6371
  551SOL  HW1   1652   0.625   0.424   1.232  2.6659 -1.8534  1.7459
  551SOL  HW2   1653   0.605   0.286   1.320  0.0947  2.3720  0.7788
  552SOL  OW    1654   1.185   1.452   0.148  0.5387 -0.7621  0.1057
  552SOL  HW1   1655   1.197   1.366   0.202 -1.0722 -0.2213  0.3626
  552SOL  HW2   1656   1.228   1.532   0.192 -2.9217 -1.8467 -0.5596
  553SOL  OW    1657   2.135   1.974   0.333 -0.0269  0.1237 -0.3004
  553SOL  HW1   1658   2.050   1.923   0.366  1.4857 -1.6241  1.3395
  553SOL  HW2   1659   2.115   2.067   0.316  2.1213  2.0787  1.0122
  554SOL  OW    1660   2.202   1.493   1.713  0.7797  0.2044  0.0286
  554SOL  HW1   1661   2.247   1.415   1.657 -0.6522  0.6492  1.5587
  554SOL  HW2   1662   2.214   1.483   1.813 -0.7575  0.1026 -1.3589
  555SOL  OW    1663   1.172   2.383   1.961  0.3287  0.2783 -0.4667
  555SOL  HW1   1664   1.205   2.459   2.026 -1.4120 -1.5729  3.5423
  555SOL  HW2   1665   1.158   2.413   1.862  0.2454  1.7386  1.8183
  556SOL  OW    1666   1.590   0.877   1.398 -0.0461  0.0191  0.7155
  556SOL  HW1   1667   1.691   0.897   1.383 -0.0673  1.8596 -2.4311
  556SOL  HW2   1668   1.540   0.964   1.431  1.4991 -1.8306  2.4902
  557SOL  OW    1669   1.219   2.729   1.550  0.2488  0.3568 -0.3145
  557SOL  HW1   1670   1.312   2.758   1.583 -0.1496 -2.9348  1.1154
  557SOL  HW2   1671   1.183   2.649   1.607 -0.6042 -1.0864  1.8791
  558SOL  OW    1672   0.664   0.848   1.858 -0.2329 -0.1226 -0.4386
  558SOL  HW1   1673   0.688   0.908   1.778 -0.7607 -1.7529  0.1902
  558SOL  HW2   1674   0.568   0.861   1.878  1.1315 -1.1539  0.6366
  559SOL  OW    1675   1.310   2.224   2.669  0.1464  0.0957  0.3342
  559SOL  HW1   1676   1.211   2.245   2.663 -1.6963  2.1167 -1.1987
  559SOL  HW2   1677   1.334   2.229   2.768 -3.2775 -3.1458 -1.1374
  560SOL  OW    1678   2.359   1.994   0.127 -0.2791 -0.4178 -0.0298
  560SOL  HW1   1679   2.283   2.008   0.194 -3.1675  0.6566  1.3074
  560SOL  HW2   1680   2.395   1.897   0.140  4.1401  2.8382 -2.4581
  561SOL  OW    1681   1.376   2.826   2.856 -0.0870 -0.4801  0.0787
  561SOL  HW1   1682   1.400   2.911   2.908 -0.6125  1.7716  1.3057
  561SOL  HW2   1683   1.307   2.845   2.789 -1.7771 -0.2707 -2.3198
  562SOL  OW    1684   1.382   1.528   2.290  0.1319 -0.1828  0.0731
  562SOL  HW1   1685   1.285   1.501   2.306 -1.6631 -1.2122 -1.3903
  562SOL  HW2   1686   1.439   1.446   2.299 -0.2522 -0.5012  0.0403
  563SOL  OW    1687   0.679   2.345   2.325 -0.4754 -0.2240 -0.5153
  563SOL  HW1   1688   0.680   2.318   2.222  2.1014  0.5113 -1.9400
  563SOL  HW2   1689   0.692   2.261   2.380 -0.0355 -0.7120  3.3552
  564SOL  OW    1690   2.053   1.269   1.464 -0.0345 -0.1633  0.1058
  564SOL  HW1   1691   2.118   1.209   1.407  0.2382  0.2511 -1.1795
  564SOL  HW2   1692   2.061   1.368   1.435  0.9715  2.2103 -1.9215
  565SOL  OW    1693   1.474   0.255   0.089  0.7071  0.1278 -0.0902
  565SOL  HW1   1694   1.536   0.182   0.061  1.9271  0.1488  0.6522
  565SOL  HW2   1695   1.514   0.314   0.159 -1.3123 -3.1353 -1.4451
  566SOL  OW    1696   3.039   2.492   0.376 -0.2919 -0.0929 -0.0537
  566SOL  HW1   1697   2.937   2.488   0.394  1.9665 -3.6704  1.6682
  566SOL  HW2   1698   3.072   2.578   0.408  0.3301  0.3844  2.5421
  567SOL  OW    1699   1.197   3.083   0.118  0.5912 -0.1670  0.1281
  567SOL  HW1   1700   1.249   3.070   0.032  0.3328  0.0986 -1.3029
  567SOL  HW2   1701   1.254   0.033   0.189 -0.1870 -1.1041 -1.1125
  568SOL  OW    1702   1.410   0.711   1.984 -0.4970  0.7828 -0.6707
  568SOL  HW1   1703   1.505   0.718   2.020 -0.8279  1.9985 -1.5406
  568SOL  HW2   1704   1.378   0.802   1.949 -0.7187  0.6197  0.3156
  569SOL  OW    1705   1.471   0.876   1.142  0.4037 -0.3337  0.7435
  569SOL  HW1   1706   1.434   0.788   1.110 -0.6608  1.9588 -1.7398
  569SOL  HW2   1707   1.494   0.867   1.242  0.4846  0.6702  0.0868
  570SOL  OW    1708   2.711   3.056   1.843 -0.1002 -0.0251  0.6186
  570SOL  HW1   1709   2.710   3.075   1.940  0.5139  2.1053 -2.4327
  570SOL  HW2   1710   2.752   0.038   1.791  1.1482  0.2789 -2.8996
  571SOL  OW    1711   1.866   2.730   1.661  0.1229 -0.1360  0.2116
  571SOL  HW1   1712   1.878   2.712   1.761 -2.2150  1.6049  0.1569
  571SOL  HW2   1713   1.846   2.647   1.604  1.1616  3.4789 -0.8045
  572SOL  OW    1714   1.362   2.001   2.552 -0.4668 -0.0503 -0.5562
  572SOL  HW1   1715   1.435   2.011   2.481 -2.3617  1.2516  2.1761
  572SOL  HW2   1716   1.344   2.092   2.588  0.5177  0.5102  0.9059
  573SOL  OW    1717   1.621   0.098   1.235 -0.4825 -0.3199 -0.6453
  573SOL  HW1   1718   1.598   0.198   1.232  2.6790 -2.8270  1.1170
  573SOL  HW2   1719   1.716   0.074   1.259 -0.6780 -3.4234  1.8202
  574SOL  OW    1720   1.537   0.078   0.978 -0.3260 -0.4687  1.3920
  574SOL  HW1   1721   1.457   0.026   0.952 -0.7321  1.1319 -0.6085
  574SOL  HW2   1722   1.569   0.051   1.073  0.4198  1.2881  3.3864
  575SOL  OW    1723   0.068   0.496   0.870  0.6191  0.3819 -0.0436
  575SOL  HW1   1724   0.119   0.554   0.933  0.1737 -1.9481  0.1591
  575SOL  HW2   1725   0.001   0.437   0.915 -1.9168  0.1918  2.5368
  576SOL  OW    1726   1.759   1.162   1.417 -0.2040 -0.0003  0.0785
  576SOL  HW1   1727   1.814   1.244   1.450  0.0566 -1.4555 -1.4569
  576SOL  HW2   1728   1.725   1.180   1.324 -1.4369 -1.0868 -0.0304
  577SOL  OW    1729   2.563   2.976   0.348  0.2448 -0.0732 -0.2717
  577SOL  HW1   1730   2.615   2.886   0.337  0.7956  2.1889  0.5231
  577SOL  HW2   1731   2.560   3.028   0.260 -1.1815  1.1529 -1.4838
  578SOL  OW    1732   1.500   2.132   1.824 -0.3178 -0.4797  0.3562
  578SOL  HW1   1733   1.420   2.130   1.890 -0.5386  0.3398 -0.2920
  578SOL  HW2   1734   1.557   2.046   1.833  0.9457  0.0938  0.9760
  579SOL  OW    1735   0.338   2.061   1.398  0.4015 -0.0816 -0.1514
  579SOL  HW1   1736   0.264   1.997   1.419  0.8716  0.4754 -0.1522
  579SOL  HW2   1737   0.429   2.026   1.424  1.4547  3.4027  1.0520
  580SOL  OW    1738   1.254   0.240   2.009  0.1665  0.3100 -0.0852
  580SOL  HW1   1739   1.326   0.179   1.982  1.7746  0.3780  1.8039
  580SOL  HW2   1740   1.174   0.189   2.050  1.4909  0.3192 -0.0789
  581SOL  OW    1741   1.364   0.958   1.871  0.1633 -0.1945  0.1618
  581SOL  HW1   1742   1.456   1.002   1.874 -1.8468 -3.3072 -2.4080
  581SOL  HW2   1743   1.300   1.018   1.918 -0.4388  4.7709 -0.9541
  582SOL  OW    1744   1.146   0.532   1.461 -0.1852 -0.0337  0.4372
  582SOL  HW1   1745   1.060   0.585   1.443  1.5602  0.8771 -0.0393
  582SOL  HW2   1746   1.124   0.432   1.474  0.0968  1.4537 -2.1102
  583SOL  OW    1747   1.204   1.943   2.127  0.1162  0.2540  0.4021
  583SOL  HW1   1748   1.117   1.954   2.171 -0.3710  1.3736 -1.4861
  583SOL  HW2   1749   1.195   1.885   2.047  1.0685 -0.1475 -1.1387
  584SOL  OW    1750   2.761   2.818   0.598  0.0881 -0.2038 -0.0888
  584SOL  HW1   1751   2.722   2.799   0.503  1.1748  4.1028  1.4428
  584SOL  HW2   1752   2.687   2.830   0.675  0.4419 -0.6563 -0.6444
  585SOL  OW    1753   2.304   0.761   2.934 -0.4703 -0.7123 -0.4361
  585SOL  HW1   1754   2.248   0.788   2.853  0.8113 -2.2998 -1.0243
  585SOL  HW2   1755   2.241   0.721   3.003 -1.5948  2.4772 -2.0977
  586SOL  OW    1756   0.512   1.204   0.017 -0.3467 -0.4820 -0.0842
  586SOL  HW1   1757   0.471   1.288   0.058 -1.6959 -1.8746 -0.7058
  586SOL  HW2   1758   0.551   1.227   3.023  1.2751 -2.0044  2.6887
  587SOL  OW    1759   1.980   2.434   0.613 -0.0319  0.2884  0.4144
  587SOL  HW1   1760   2.028   2.518   0.646 -0.0681  1.2969 -0.0700
  587SOL  HW2   1761   2.049   2.369   0.578  2.3584 -0.2807 -1.5528
  588SOL  OW    1762   0.965   1.177   1.073 -0.1500 -0.0120 -0.0414
  588SOL  HW1   1763   0.870   1.150   1.059 -0.2875  1.4246  0.0532
  588SOL  HW2   1764   0.984   1.267   1.028  2.0904 -2.6406  0.8986
  589SOL  OW    1765   1.278   2.596   0.154 -0.3774 -0.5301 -0.1247
  589SOL  HW1   1766   1.242   2.675   0.206 -0.5837 -0.2416  2.4927
  589SOL  HW2   1767   1.246   2.511   0.198 -0.7251 -0.2612  0.4635
  590SOL  OW    1768   1.202   1.184   0.236 -0.6345  0.2229 -0.2718
  590SOL  HW1   1769   1.112   1.145   0.267  0.2022 -0.6544  3.7078
  590SOL  HW2   1770   1.239   1.122   0.165 -0.1472 -0.3280 -0.2622
  591SOL  OW    1771   2.335   2.748   2.178 -0.5047 -0.4963  0.2371
  591SOL  HW1   1772   2.262   2.810   2.138  2.5197 -1.8453 -0.0688
  591SOL  HW2   1773   2.377   2.802   2.255  0.2527  1.2424 -3.6816
  592SOL  OW    1774   1.146   2.071   1.245 -0.4499 -0.2873  0.2096
  592SOL  HW1   1775   1.100   2.156   1.287 -0.3053  1.1076 -1.2646
  592SOL  HW2   1776   1.232   2.049   1.299 -0.4677 -1.5999 -0.5747
  593SOL  OW    1777   1.241   0.073   1.138  0.0911 -0.2258 -0.4251
  593SOL  HW1   1778   1.148   0.049   1.155 -0.9189 -1.2319  0.5403
  593SOL  HW2   1779   1.300   0.014   1.199  0.4003  0.2259 -2.5673
  594SOL  OW    1780   0.222   1.116   2.193 -0.3114  0.0524 -0.1993
  594SOL  HW1   1781   0.222   1.211   2.226  0.4514 -1.1626 -1.1588
  594SOL  HW2   1782   0.201   1.058   2.274  0.6331 -4.3770 -0.5686
  595SOL  OW    1783   2.955   0.356   0.981  0.4478  0.0874  0.1182
  595SOL  HW1   1784   3.007   0.277   1.023  2.0991 -4.2519  3.0850
  595SOL  HW2   1785   2.879   0.382   1.042  0.5031 -1.3083 -0.7223
  596SOL  OW    1786   2.366   1.016   1.994 -0.5988  0.2161  0.4389
  596SOL  HW1   1787   2.281   1.020   2.041 -0.6068  0.2307 -0.4354
  596SOL  HW2   1788   2.418   0.938   2.029  2.0620 -1.5584  1.0146
  597SOL  OW    1789   1.816   1.952   2.091  0.2263 -0.2496  0.1690
  597SOL  HW1   1790   1.782   1.962   1.996  1.4805  2.9034 -1.3228
  597SOL  HW2   1791   1.752   2.006   2.150  1.6585  0.9119 -0.2036
  598SOL  OW    1792   0.039   0.995   2.004 -0.4949  0.6678  0.1076
  598SOL  HW1   1793   0.114   1.023   2.069  1.3352 -0.7748  0.5770
  598SOL  HW2   1794   3.045   1.035   2.037 -0.6393 -2.2998  2.2040
  599SOL  OW    1795   2.945   2.013   0.839 -0.5355  0.0166  0.6309
  599SOL  HW1   1796   3.003   1.967   0.769  0.1725 -2.5384 -1.3084
  599SOL  HW2   1797   2.849   2.020   0.807  0.1670 -2.1545  1.5540
  600SOL  OW    1798   0.776   0.742   3.062 -0.1270  0.1272 -0.3008
  600SOL  HW1   1799   0.770   0.834   3.023  0.2998 -1.9445 -2.4614
  600SOL  HW2   1800   0.701   0.685   3.027 -0.3774 -3.8705  2.6743
  601SOL  OW    1801   1.873   1.110   2.915 -0.4785  0.7532  0.3398
  601SOL  HW1   1802   1.826   1.120   3.004  0.7338 -0.1754 -2.6394
  601SOL  HW2   1803   1.839   1.023   2.878 -0.0326  0.8737  0.2155
  602SOL  OW    1804   0.909   0.338   1.770 -0.3239 -0.0987  0.0439
  602SOL  HW1   1805   0.888   0.324   1.671  2.3911  2.1447 -1.7546
  602SOL  HW2   1806   0.999   0.382   1.789 -1.4670 -2.7974  4.5830
  603SOL  OW    1807   1.515   2.555   2.052 -0.2636 -0.4195  0.0228
  603SOL  HW1   1808   1.548   2.459   2.059 -0.6619 -0.7842 -0.5308
  603SOL  HW2   1809   1.529   2.588   1.958 -1.3778 -2.4638  0.5500
  604SOL  OW    1810   0.069   2.316   2.354  0.3317  0.0115  0.1721
  604SOL  HW1   1811   0.026   2.256   2.427  0.8062 -0.6334 -1.0255
  604SOL  HW2   1812   3.094   2.364   2.299 -0.4818 -0.7016  1.1022
  605SOL  OW    1813   3.021   2.516   0.895 -0.5213 -0.4329  0.5017
  605SOL  HW1   1814   2.958   2.532   0.813 -1.3285 -3.3595  1.3108
  605SOL  HW2   1815   3.055   2.418   0.898  2.9677  1.0572 -0.8567
  606SOL  OW    1816   0.381   2.051   2.402  0.4396 -0.0586 -0.1825
  606SOL  HW1   1817   0.370   2.129   2.336  1.7247  0.9317 -0.1531
  606SOL  HW2   1818   0.311   2.050   2.473 -0.6960  0.4699 -1.6511
  607SOL  OW    1819   1.340   0.846   0.388  0.6693  0.1784 -0.2155
  607SOL  HW1   1820   1.393   0.780   0.448 -3.0763 -1.6127  0.1552
  607SOL  HW2   1821   1.277   0.802   0.321 -0.1790  2.7511 -2.1288
  608SOL  OW    1822   1.001   2.316   1.387  0.0347  0.3588  0.4642
  608SOL  HW1   1823   1.084   2.347   1.432 -1.1582 -0.4116  1.5174
  608SOL  HW2   1824   0.952   2.249   1.446 -0.0163 -1.8453 -0.4277
  609SOL  OW    1825   2.913   0.307   0.705  0.5666 -0.3063  0.3633
  609SOL  HW1   1826   2.931   0.334   0.802  1.1265 -0.8363 -1.4740
  609SOL  HW2   1827   2.858   0.377   0.654  0.8056  3.4591 -2.7004
  610SOL  OW    1828   1.101   2.012   2.914  0.1409  0.2476  0.3113
  610SOL  HW1   1829   1.003   2.038   2.900  0.5087  0.7062  1.4377
  610SOL  HW2   1830   1.152   2.084   2.971 -0.6075 -0.8394  0.7888
  611SOL  OW    1831   1.584   1.085   2.765  0.2167  0.7564 -0.3296
  611SOL  HW1   1832   1.565   1.181   2.791  3.5291  0.4018 -1.0584
  611SOL  HW2   1833   1.533   1.064   2.683 -2.6519  0.0125 -3.6701
  612SOL  OW    1834   1.060   2.528   2.780 -0.1229  0.2510 -0.1523
  612SOL  HW1   1835   1.138   2.509   2.840  1.8291 -1.2845  0.0539
  612SOL  HW2   1836   1.027   2.624   2.790  0.5258 -0.5819 -2.0100
  613SOL  OW    1837   1.613   1.674   2.614 -0.2349 -0.2219 -0.3650
  613SOL  HW1   1838   1.664   1.758   2.642  2.8311  0.0340  3.2792
  613SOL  HW2   1839   1.526   1.709   2.582  0.6238 -1.1825 -2.0160
  614SOL  OW    1840   2.211   2.549   1.235 -0.0053 -0.5431 -0.4103
  614SOL  HW1   1841   2.310   2.570   1.211  0.1019 -1.9486  0.5658
  614SOL  HW2   1842   2.209   2.462   1.289 -1.1844 -2.2095 -1.0380
  615SOL  OW    1843   2.381   1.422   0.255 -0.2106 -0.1523  0.3066
  615SOL  HW1   1844   2.408   1.514   0.225  0.8351  0.4114  0.8856
  615SOL  HW2   1845   2.292   1.394   0.213  1.7514 -1.2202 -0.4247
  616SOL  OW    1846   1.189   2.789   0.314  0.4788 -0.7563 -0.5258
  616SOL  HW1   1847   1.123   2.828   0.248 -2.9106 -0.6816  0.2109
  616SOL  HW2   1848   1.154   2.794   0.408  1.7554  1.3061 -1.8542
  617SOL  OW    1849   0.240   1.768   2.892  0.7987 -0.5195 -0.5711
  617SOL  HW1   1850   0.237   1.767   2.993 -1.9465  0.1022 -0.0158
  617SOL  HW2   1851   0.180   1.697   2.848  0.2171  0.1123 -2.3574
  618SOL  OW    1852   2.830   0.682   1.102  0.1788  0.0089  0.1461
  618SOL  HW1   1853   2.884   0.769   1.094 -0.8757 -1.0420  1.4096
  618SOL  HW2   1854   2.852   0.624   1.023  2.7707  1.1356 -1.8812
  619SOL  OW    1855   0.009   1.537   2.809 -0.0218  0.4846  0.1275
  619SOL  HW1   1856   0.081   1.492   2.869  0.5809 -2.6514 -0.5663
  619SOL  HW2   1857   0.023   1.524   2.710  1.2800 -1.9071  0.2776
  620SOL  OW    1858   2.152   1.126   2.951 -0.1363 -0.3074 -0.2996
  620SOL  HW1   1859   2.053   1.126   2.944  1.6900  2.6066 -1.1772
  620SOL  HW2   1860   2.201   1.116   2.859 -2.8058 -1.4651 -0.0904
  621SOL  OW    1861   2.310   3.012   1.009  0.0039 -0.2157 -0.1767
  621SOL  HW1   1862   2.216   3.040   1.018  1.0908 -0.6098 -0.0237
  621SOL  HW2   1863   2.357   3.060   0.933  0.5534 -1.0444 -0.1372
  622SOL  OW    1864   2.183   0.428   2.508 -0.1524  0.3420  0.0922
  622SOL  HW1   1865   2.097   0.429   2.562  1.6225  3.5326  0.1516
  622SOL  HW2   1866   2.172   0.373   2.427  2.5663 -0.3184  0.2603
  623SOL  OW    1867   0.548   1.384   2.291  0.2308  0.1136 -0.4865
  623SOL  HW1   1868   0.561   1.282   2.278 -1.1738  0.2684  1.1763
  623SOL  HW2   1869   0.460   1.418   2.246 -1.9992 -1.0456  3.7778
  624SOL  OW    1870   2.097   0.655   0.003 -0.1466  0.8086 -0.0201
  624SOL  HW1   1871   2.128   0.691   0.095  0.0201  2.2668  1.9846
  624SOL  HW2   1872   2.004   0.698   3.080 -0.1248  1.9742  1.1944
  625SOL  OW    1873   0.869   1.574   0.700 -0.1212 -0.4095 -0.2572
  625SOL  HW1   1874   0.882   1.508   0.626  2.7205  0.6597 -0.6901
  625SOL  HW2   1875   0.919   1.663   0.686 -0.5017  1.0623 -0.6893
  626SOL  OW    1876   1.409   1.301   2.533  0.0833 -0.1138  0.4642
  626SOL  HW1   1877   1.323   1.291   2.582  0.8788  0.6800  1.0023
  626SOL  HW2   1878   1.474   1.348   2.594 -0.0213  2.2647  0.0772
  627SOL  OW    1879   0.658   1.150   2.194  0.2412 -0.3303 -0.4050
  627SOL  HW1   1880   0.578   1.113   2.146 -0.7921 -0.2402  0.1557
  627SOL  HW2   1881   0.737   1.163   2.131 -0.6239 -0.5115 -0.1327
  628SOL  OW    1882   2.329   0.604   2.051 -0.5214 -0.4017 -0.1859
  628SOL  HW1   1883   2.397   0.669   2.088 -0.1607 -0.7907  3.5736
  628SOL  HW2   1884   2.343   0.580   1.950 -0.7798 -2.7087 -0.1893
  629SOL  OW    1885   3.089   0.595   0.621  0.1196 -0.4450  0.8689
  629SOL  HW1   1886   3.078   0.697   0.619  1.6392 -0.2965  2.0705
  629SOL  HW2   1887   0.010   0.560   0.717  1.8175 -0.4133  1.7235
  630SOL  OW    1888   1.594   1.066   1.896 -0.6408  0.4201 -0.3609
  630SOL  HW1   1889   1.628   1.083   1.992 -0.8270  0.9863 -0.1399
  630SOL  HW2   1890   1.670   1.047   1.828 -1.4087 -1.4721  1.6770
  631SOL  OW    1891   2.558   0.292   1.954 -0.3622 -0.5852  0.9194
  631SOL  HW1   1892   2.625   0.330   1.886  2.2103 -0.3050 -1.2123
  631SOL  HW2   1893   2.501   0.218   1.906 -1.7583  1.7503 -1.4180
  632SOL  OW    1894   2.965   1.557   1.453 -0.3349  1.1458 -0.1777
  632SOL  HW1   1895   2.977   1.574   1.556  0.5656 -1.4279  0.2175
  632SOL  HW2   1896   2.874   1.594   1.425 -1.6369 -1.4064 -0.5489
  633SOL  OW    1897   0.526   0.843   0.828  0.5388  0.2812 -0.2886
  633SOL  HW1   1898   0.481   0.784   0.755 -2.9870 -0.7554  0.1290
  633SOL  HW2   1899   0.564   0.927   0.788  0.3430 -0.5793 -1.1952
  634SOL  OW    1900   1.331   2.273   0.870  0.0228  0.0286 -0.6314
  634SOL  HW1   1901   1.405   2.204   0.857 -0.4717  1.0337  4.0307
  634SOL  HW2   1902   1.259   2.267   0.798  0.0796  1.3892 -0.3355
  635SOL  OW    1903   1.719   0.770   1.720 -0.0424 -0.5156  0.3945
  635SOL  HW1   1904   1.647   0.731   1.658  1.8642 -2.1249  0.4966
  635SOL  HW2   1905   1.746   0.868   1.702  1.5699 -1.8707  0.1185
  636SOL  OW    1906   1.180   0.730   0.831 -0.5227  0.1835  0.2942
  636SOL  HW1   1907   1.237   0.703   0.913  3.6308  0.0470  0.0434
  636SOL  HW2   1908   1.148   0.824   0.847  1.2980 -0.9541  1.4545
  637SOL  OW    1909   1.938   1.202   0.501 -0.6568 -0.4221 -0.1884
  637SOL  HW1   1910   1.853   1.181   0.549 -1.8536  3.4158  0.3585
  637SOL  HW2   1911   2.022   1.188   0.560 -0.6543  1.4489 -0.2549
  638SOL  OW    1912   0.261   0.404   2.026  0.2221 -0.9228 -0.5542
  638SOL  HW1   1913   0.272   0.384   1.925  0.7972  1.4363 -0.7437
  638SOL  HW2   1914   0.349   0.373   2.075 -1.2181 -0.6536 -0.6345
  639SOL  OW    1915   0.638   2.327   1.628  0.2716  0.1733 -0.9730
  639SOL  HW1   1916   0.563   2.318   1.561  2.4926  0.7811  1.6732
  639SOL  HW2   1917   0.609   2.304   1.724  2.7540 -0.3941 -1.7659
  640SOL  OW    1918   2.902   0.272   2.732  0.0853  0.1632 -0.1337
  640SOL  HW1   1919   2.878   0.180   2.764 -2.4844 -0.2068 -0.2273
  640SOL  HW2   1920   2.910   0.275   2.633  0.9929 -1.2164  0.5732
  641SOL  OW    1921   0.243   0.802   0.508  0.3389  0.3615 -0.0774
  641SOL  HW1   1922   0.289   0.738   0.573  2.1368 -0.4503  2.3424
  641SOL  HW2   1923   0.248   0.757   0.413 -0.3367 -0.4651  1.4021
  642SOL  OW    1924   2.707   1.765   1.574 -0.2238  0.1977 -0.4923
  642SOL  HW1   1925   2.621   1.812   1.588  0.8702 -0.0887  2.1422
  642SOL  HW2   1926   2.719   1.742   1.476 -0.3129  1.3106  1.2383
  643SOL  OW    1927   0.680   1.907   2.758 -0.0936 -0.2618 -0.1104
  643SOL  HW1   1928   0.605   1.971   2.747 -0.7762  1.2129 -1.2985
  643SOL  HW2   1929   0.651   1.810   2.771  1.3212 -0.4763 -0.6598
  644SOL  OW    1930   0.684   1.145   2.645 -0.0430  0.2582 -0.1989
  644SOL  HW1   1931   0.598   1.097   2.614  0.2169  0.9159 -2.3514
  644SOL  HW2   1932   0.700   1.230   2.588  1.6527 -2.1600  0.1569
  645SOL  OW    1933   1.093   2.749   1.915  0.5732 -0.0165  0.6638
  645SOL  HW1   1934   1.146   2.710   1.991  1.2570 -1.7672 -0.1758
  645SOL  HW2   1935   1.127   2.841   1.891  5.1548  2.0261  1.6966
  646SOL  OW    1936   0.966   1.164   0.385 -0.3094  0.2627 -0.9065
  646SOL  HW1   1937   0.999   1.124   0.472 -3.4899 -0.6995 -0.7740
  646SOL  HW2   1938   0.898   1.109   0.330  0.4397 -0.2372  0.6293
  647SOL  OW    1939   0.802   0.109   2.769  0.8663 -0.0061 -0.3734
  647SOL  HW1   1940   0.754   0.055   2.836 -2.2210 -1.8863  0.1319
  647SOL  HW2   1941   0.848   0.185   2.817 -1.4032 -0.3738 -0.3803
  648SOL  OW    1942   0.394   1.102   1.097 -0.4678  0.3851  0.1579
  648SOL  HW1   1943   0.411   1.201   1.080 -2.3026  0.5156 -1.3975
  648SOL  HW2   1944   0.457   1.060   1.163 -2.4623 -0.3456  3.3412
  649SOL  OW    1945   2.288   2.820   2.877 -0.0644 -0.2557  0.1250
  649SOL  HW1   1946   2.203   2.769   2.907  2.3210 -0.9855 -1.0944
  649SOL  HW2   1947   2.355   2.823   2.954  0.0587  1.6829 -2.5692
  650SOL  OW    1948   0.078   2.094   1.775  0.0141 -0.3588 -0.0387
  650SOL  HW1   1949   3.079   2.118   1.747  1.6727 -4.4009 -1.7618
  650SOL  HW2   1950   0.077   2.068   1.871 -1.9833 -0.3224  4.1142
  651SOL  OW    1951   1.470   1.009   2.552  0.2976 -0.7186  0.3344
  651SOL  HW1   1952   1.511   0.957   2.477  0.5532  0.8872 -2.1881
  651SOL  HW2   1953   1.426   1.091   2.518 -2.3609 -2.4420  3.9236
  652SOL  OW    1954   0.693   2.241   2.061 -1.2588  0.3568  0.0162
  652SOL  HW1   1955   0.788   2.251   2.023 -0.0467 -0.7853 -0.4322
  652SOL  HW2   1956   0.623   2.261   1.988  0.3064 -1.3614  2.4579
  653SOL  OW    1957   2.712   2.166   0.685 -0.2583 -0.2319  0.2768
  653SOL  HW1   1958   2.666   2.078   0.708  0.1593  1.5096 -1.4823
  653SOL  HW2   1959   2.730   2.177   0.584 -3.1580  0.8005  0.2129
  654SOL  OW    1960   1.900   2.844   2.047 -0.2382 -0.3064  0.3566
  654SOL  HW1   1961   1.857   2.786   1.975 -2.3399 -1.5255  1.1912
  654SOL  HW2   1962   1.893   2.797   2.136 -1.3949 -0.4596 -0.7775
  655SOL  OW    1963   2.862   1.906   1.186 -0.2012  0.2391  0.2487
  655SOL  HW1   1964   2.933   1.870   1.122  0.9580  1.6598 -0.9530
  655SOL  HW2   1965   2.909   1.965   1.256  3.6993 -0.2293 -1.1278
  656SOL  OW    1966   2.296   1.554   2.655  0.3159  0.2920 -0.2521
  656SOL  HW1   1967   2.212   1.497   2.668 -1.5558 -0.3062  0.6254
  656SOL  HW2   1968   2.376   1.494   2.666  1.9649  0.7846  2.9711
  657SOL  OW    1969   2.542   0.840   0.604  0.1630  0.1246  0.2710
  657SOL  HW1   1970   2.615   0.836   0.533  0.0942 -0.1278 -0.2273
  657SOL  HW2   1971   2.560   0.771   0.678 -3.4526 -1.4577 -0.8182
  658SOL  OW    1972   1.118   1.489   2.336  0.9479  0.3252  0.3321
  658SOL  HW1   1973   1.080   1.510   2.426  1.8782 -1.0104 -1.5035
  658SOL  HW2   1974   1.076   1.402   2.306 -0.3656  1.1608  0.3836
  659SOL  OW    1975   0.541   2.788   1.785  0.0523  0.3777 -0.0013
  659SOL  HW1   1976   0.552   2.843   1.702 -0.4316  0.0971  1.8076
  659SOL  HW2   1977   0.628   2.773   1.835 -0.1807  1.2986 -0.0952
  660SOL  OW    1978   2.598   0.059   0.134 -0.2635  0.9153  0.2018
  660SOL  HW1   1979   2.698   0.068   0.157  3.4833  1.0572 -1.1686
  660SOL  HW2   1980   2.587   0.101   0.042  1.2688  0.0381 -2.4798
  661SOL  OW    1981   0.907   2.161   0.435 -0.0850  0.2628  0.0140
  661SOL  HW1   1982   0.973   2.222   0.481  0.4984 -0.8463 -1.5658
  661SOL  HW2   1983   0.871   2.094   0.506  2.7662 -0.7918  4.8724
  662SOL  OW    1984   1.821   0.931   2.137 -0.0549 -0.3244 -0.2949
  662SOL  HW1   1985   1.753   0.998   2.175 -0.9570  2.4637 -1.5189
  662SOL  HW2   1986   1.888   0.977   2.076 -1.6755 -1.1689  2.9930
  663SOL  OW    1987   1.649   1.374   0.778  0.5100  0.3064  0.3364
  663SOL  HW1   1988   1.667   1.312   0.701 -0.0755 -3.2421 -1.6048
  663SOL  HW2   1989   1.734   1.407   0.824 -1.4101  2.0728 -0.2532
  664SOL  OW    1990   1.553   0.555   1.055 -0.2449 -0.3698 -0.0186
  664SOL  HW1   1991   1.576   0.504   0.967 -0.4755  0.0863  0.9223
  664SOL  HW2   1992   1.616   0.634   1.061 -0.7093 -0.0856  1.9979
  665SOL  OW    1993   1.783   2.125   2.460  0.5701  0.1756 -0.6197
  665SOL  HW1   1994   1.876   2.124   2.425  0.7469 -1.3458  2.2531
  665SOL  HW2   1995   1.763   2.217   2.504  2.2244 -0.7896 -0.9777
  666SOL  OW    1996   0.197   0.337   1.500 -0.7201 -0.1955 -0.5290
  666SOL  HW1   1997   0.178   0.425   1.451  0.9819  1.8724  0.8406
  666SOL  HW2   1998   0.255   0.275   1.446  0.5899  2.5612  0.7013
  667SOL  OW    1999   1.540   1.473   1.842 -0.1245 -0.2187  0.4777
  667SOL  HW1   2000   1.493   1.440   1.932  0.9744  0.0988 -2.7155
  667SOL  HW2   2001   1.520   1.409   1.765 -0.3940  2.6615 -1.4929
  668SOL  OW    2002   0.151   0.894   1.370 -0.4851 -0.2208 -0.4598
  668SOL  HW1   2003   0.060   0.934   1.392 -0.7923  1.2609 -0.3897
  668SOL  HW2   2004   0.227   0.958   1.394 -0.7019  2.4148  0.8893
  669SOL  OW    2005   2.432   2.135   0.491 -0.1532 -0.5698  0.1318
  669SOL  HW1   2006   2.424   2.049   0.548 -0.9220 -0.3726 -1.9801
  669SOL  HW2   2007   2.400   2.221   0.538  2.2109 -0.5490  3.5124
  670SOL  OW    2008   2.007   2.314   1.755  0.1113 -0.2385 -0.2151
  670SOL  HW1   2009   2.049   2.402   1.719 -0.4524 -0.8651  2.1011
  670SOL  HW2   2010   1.958   2.328   1.845  0.3688  1.2817  2.2511
  671SOL  OW    2011   2.499   2.445   0.517 -0.9778  0.4958 -0.2725
  671SOL  HW1   2012   2.428   2.480   0.453  2.5035 -1.4413 -0.9403
  671SOL  HW2   2013   2.462   2.424   0.610  0.1343  0.5936  1.3585
  672SOL  OW    2014   1.419   1.054   1.498  0.3051  0.6372  0.0360
  672SOL  HW1   2015   1.359   0.982   1.546 -0.4662  1.8858  1.5201
  672SOL  HW2   2016   1.368   1.099   1.421 -1.3957 -1.5080  0.6192
  673SOL  OW    2017   0.606   3.012   1.042 -0.7262  0.2464  1.2212
  673SOL  HW1   2018   0.536   3.080   1.023  0.8467 -0.6903  1.3819
  673SOL  HW2   2019   0.681   3.004   0.973 -0.0878 -0.7436  0.2329
  674SOL  OW    2020   2.960   0.556   1.718  0.0228  0.4495  0.2939
  674SOL  HW1   2021   2.986   0.575   1.815 -1.2591 -0.3097  1.4487
  674SOL  HW2   2022   3.001   0.466   1.690  1.9101  0.3405 -2.4900
  675SOL  OW    2023   2.722   1.307   1.026 -0.1546  0.3580 -0.4062
  675SOL  HW1   2024   2.629   1.338   1.005 -2.1863  0.9845  1.2916
  675SOL  HW2   2025   2.784   1.326   0.945  0.4511  0.1418 -2.5064
  676SOL  OW    2026   2.819   1.137   1.920 -0.2805  0.2024 -0.2806
  676SOL  HW1   2027   2.841   1.086   1.837 -0.8473 -2.2395 -0.8674
  676SOL  HW2   2028   2.721   1.157   1.918 -1.0625 -0.1439  1.1524
  677SOL  OW    2029   2.215   0.210   2.816 -0.5156  0.4460 -0.4725
  677SOL  HW1   2030   2.304   0.191   2.774 -0.5442 -1.6662  1.1142
  677SOL  HW2   2031   2.215   0.180   2.914  0.2210 -0.4015 -0.4018
  678SOL  OW    2032   2.167   1.217   1.098  0.4497  0.0233  0.3277
  678SOL  HW1   2033   2.076   1.172   1.075  0.0046 -3.0490 -0.9885
  678SOL  HW2   2034   2.155   1.321   1.100 -0.2855  0.9775 -3.3596
  679SOL  OW    2035   0.126   2.707   0.903  0.1050 -0.0465  0.5272
  679SOL  HW1   2036   0.084   2.796   0.924  0.0369 -0.1091 -0.8056
  679SOL  HW2   2037   0.062   2.630   0.915 -0.0050  0.8076  2.3374
  680SOL  OW    2038   2.447   1.287   0.835  0.1376 -0.3574 -0.2847
  680SOL  HW1   2039   2.347   1.275   0.854 -1.4506 -0.0716  0.5543
  680SOL  HW2   2040   2.493   1.196   0.820  0.6594  2.0374  0.9541
  681SOL  OW    2041   0.790   0.215   0.699 -0.6985 -0.1774 -0.0821
  681SOL  HW1   2042   0.689   0.244   0.686 -2.6167 -2.9914  1.5952
  681SOL  HW2   2043   0.800   0.145   0.779  0.1865  1.7377  0.8547
  682SOL  OW    2044   2.118   2.493   0.975  0.5457  0.0098 -0.1974
  682SOL  HW1   2045   2.026   2.464   1.000  0.3909 -2.1911  0.0208
  682SOL  HW2   2046   2.168   2.532   1.058  1.0189 -0.4693  1.8752
  683SOL  OW    2047   2.345   1.740   0.806 -0.6113  0.3436  0.4588
  683SOL  HW1   2048   2.258   1.745   0.857  0.4999  0.8541  0.4680
  683SOL  HW2   2049   2.415   1.677   0.845  1.5924 -3.4523  1.0246
  684SOL  OW    2050   0.196   1.969   0.932 -0.0568 -0.5184  0.0113
  684SOL  HW1   2051   0.208   1.982   0.832 -0.2005  1.1666 -0.4619
  684SOL  HW2   2052   0.288   1.948   0.974 -1.0652 -1.5016  0.7177
  685SOL  OW    2053   1.506   1.012   3.026 -0.0796 -0.6747 -0.2347
  685SOL  HW1   2054   1.575   1.055   3.089 -2.8624  1.3229 -1.8378
  685SOL  HW2   2055   1.521   1.046   2.929  2.1362 -2.2628  1.8225
  686SOL  OW    2056   0.742   1.565   2.183 -0.1943 -0.1004 -0.1654
  686SOL  HW1   2057   0.727   1.552   2.082  0.9597  2.2807 -1.8703
  686SOL  HW2   2058   0.690   1.494   2.238 -0.5220  2.3712 -0.1630
  687SOL  OW    2059   1.988   2.993   2.488  0.3579 -0.6423  0.1848
  687SOL  HW1   2060   1.962   2.954   2.582  0.4228 -0.0115 -0.4617
  687SOL  HW2   2061   2.087   3.019   2.487  0.0491  1.8823  3.0215
  688SOL  OW    2062   1.008   1.241   2.277 -0.1993 -0.0411 -0.1688
  688SOL  HW1   2063   0.985   1.217   2.180 -2.7747  0.7164  0.5561
  688SOL  HW2   2064   0.983   1.163   2.341 -0.3972  0.5145  0.5388
  689SOL  OW    2065   0.924   1.891   1.213  0.3042  0.1741  0.3836
  689SOL  HW1   2066   1.018   1.934   1.206 -1.3696  0.5627 -1.8891
  689SOL  HW2   2067   0.884   1.907   1.309 -0.6777 -1.1529  0.0007
  690SOL  OW    2068   1.819   1.439   1.526  0.1272  0.1654 -0.8402
  690SOL  HW1   2069   1.825   1.452   1.632 -0.1183  0.1284  1.6411
  690SOL  HW2   2070   1.900   1.485   1.482  1.7404 -0.1355 -1.4614
  691SOL  OW    2071   0.358   1.622   1.065 -0.4451  0.5223  0.7749
  691SOL  HW1   2072   0.304   1.643   1.151  0.8013 -0.6659  0.2141
  691SOL  HW2   2073   0.291   1.607   0.988 -1.5810 -0.4037 -0.0933
  692SOL  OW    2074   2.975   2.777   0.222  0.1218  0.3033 -0.7481
  692SOL  HW1   2075   3.072   2.750   0.224  1.0183  2.4204  1.8810
  692SOL  HW2   2076   2.935   2.787   0.131 -0.5445  0.6789  2.4970
  693SOL  OW    2077   2.906   1.492   2.533  0.2523 -0.2840 -0.2250
  693SOL  HW1   2078   2.907   1.425   2.609  0.7899 -0.4746 -1.1262
  693SOL  HW2   2079   2.838   1.566   2.546  1.2890 -1.0904  0.9249
  694SOL  OW    2080   2.513   0.812   2.088 -0.1350  0.7287 -0.1920
  694SOL  HW1   2081   2.577   0.762   2.028  0.8146 -2.5798  0.8856
  694SOL  HW2   2082   2.566   0.846   2.163  0.1499 -3.5942  4.0851
  695SOL  OW    2083   1.055   0.061   1.809 -0.2895 -0.7633 -0.0417
  695SOL  HW1   2084   1.035   0.148   1.856  1.8666  1.9577  2.8660
  695SOL  HW2   2085   0.976   0.016   1.765 -0.2109 -1.7480 -1.2914
  696SOL  OW    2086   2.072   2.659   1.453  0.3375  0.1870 -0.4663
  696SOL  HW1   2087   2.124   2.617   1.376  1.4957  0.2694 -1.8941
  696SOL  HW2   2088   1.977   2.618   1.459  0.0532  2.9309 -0.4491
  697SOL  OW    2089   2.002   1.015   1.945 -0.0619 -0.3357  0.4117
  697SOL  HW1   2090   2.025   0.921   1.909  1.2322 -2.2401 -0.7974
  697SOL  HW2   2091   2.027   1.089   1.884  0.3658 -1.8937  1.2902
  698SOL  OW    2092   2.477   1.408   2.961 -0.3989 -0.8766  0.3809
  698SOL  HW1   2093   2.473   1.383   2.863  0.0856 -1.9937 -0.6397
  698SOL  HW2   2094   2.489   1.509   2.965  0.6479 -1.9615  1.1760
  699SOL  OW    2095   1.653   0.616   2.692 -0.5044  0.4219 -0.2432
  699SOL  HW1   2096   1.748   0.631   2.717  1.2325  0.4338  1.2130
  699SOL  HW2   2097   1.627   0.521   2.724 -1.0278 -1.4658  1.1455
  700SOL  OW    2098   1.273   0.329   1.171 -0.8469 -0.6126 -0.6748
  700SOL  HW1   2099   1.268   0.227   1.154  0.7280  0.0187  1.5393
  700SOL  HW2   2100   1.364   0.359   1.193  0.1019 -0.1144  2.2524
  701SOL  OW    2101   2.976   3.037   0.330 -0.2426 -0.1301  0.2572
  701SOL  HW1   2102   2.953   2.938   0.315 -0.1763  0.0199 -1.2381
  701SOL  HW2   2103   3.074   3.054   0.355  0.5521  0.1440 -1.4565
  702SOL  OW    2104   1.440   2.804   1.684  0.0786  0.2985  0.6918
  702SOL  HW1   2105   1.523   2.856   1.658  0.0712  1.9316 -0.4277
  702SOL  HW2   2106   1.374   2.861   1.735  1.6777  2.1979 -3.8466
  703SOL  OW    2107   2.556   0.212   1.433  0.4270  0.1115 -0.0439
  703SOL  HW1   2108   2.540   0.313   1.440  0.2118 -0.9281 -1.8977
  703SOL  HW2   2109   2.470   0.157   1.439 -0.2775 -1.1265  0.5444
  704SOL  OW    2110   0.995   3.093   1.171  0.0606  0.7363 -0.4780
  704SOL  HW1   2111   0.947   3.012   1.211  0.7306 -1.4810  0.4640
  704SOL  HW2   2112   0.929   0.076   1.155 -0.2356  2.5593  0.0844
  705SOL  OW    2113   0.667   2.093   0.068  0.2331  0.0430 -0.7421
  705SOL  HW1   2114   0.700   2.024   0.135  0.6251  0.0868  0.0367
  705SOL  HW2   2115   0.570   2.063   0.048  1.4540  0.0638  0.5906
  706SOL  OW    2116   0.235   0.252   0.290 -0.0791 -0.3082 -0.9012
  706SOL  HW1   2117   0.194   0.331   0.340  1.6306 -0.7953  1.0276
  706SOL  HW2   2118   0.302   0.288   0.219  1.2400  0.8208 -0.2820
  707SOL  OW    2119   2.301   2.493   2.221  0.4985 -0.5407 -0.3168
  707SOL  HW1   2120   2.301   2.592   2.189  0.1983 -0.2564  1.6615
  707SOL  HW2   2121   2.330   2.488   2.320  0.4533 -0.0357 -1.1744
  708SOL  OW    2122   2.414   1.074   1.090  0.0385 -0.3546  0.1889
  708SOL  HW1   2123   2.439   1.057   0.990 -2.9357 -0.0026 -0.1058
  708SOL  HW2   2124   2.328   1.126   1.092 -0.9541 -0.5495  0.9472
  709SOL  OW    2125   0.128   0.090   0.883 -0.1497  0.0602 -0.3705
  709SOL  HW1   2126   0.206   0.038   0.844  3.1887  0.7966 -0.7987
  709SOL  HW2   2127   0.071   0.130   0.807 -1.4105  2.7332 -3.7376
  710SOL  OW    2128   0.422   0.641   0.639 -0.5092  0.6289 -0.1170
  710SOL  HW1   2129   0.403   0.561   0.701 -3.0037 -1.6687  2.0180
  710SOL  HW2   2130   0.450   0.600   0.552 -1.2260 -1.5313 -0.1187
  711SOL  OW    2131   0.397   2.306   1.483  0.5289 -0.5073  0.3886
  711SOL  HW1   2132   0.377   2.216   1.439  2.8074  2.0413 -0.6486
  711SOL  HW2   2133   0.324   2.322   1.554 -0.1991  0.0503  2.2625
  712SOL  OW    2134   0.501   0.363   2.135  0.2245  0.1293  0.6255
  712SOL  HW1   2135   0.537   0.309   2.211  0.8062  1.8636 -0.5770
  712SOL  HW2   2136   0.570   0.361   2.066 -0.7705  0.7675 -0.7097
  713SOL  OW    2137   1.903   0.513   0.332 -0.2183  0.3470 -0.0049
  713SOL  HW1   2138   1.949   0.461   0.402  1.0506 -2.1581 -0.0685
  713SOL  HW2   2139   1.890   0.606   0.371 -0.5342  1.3448 -1.5930
  714SOL  OW    2140   1.727   1.915   2.636  0.0278 -0.3143 -0.1527
  714SOL  HW1   2141   1.740   1.999   2.578 -0.2112  0.7033  0.0187
  714SOL  HW2   2142   1.709   1.943   2.732 -1.3446  1.3711  0.4348
  715SOL  OW    2143   2.703   0.470   0.564  0.0839  0.0187  0.2345
  715SOL  HW1   2144   2.758   0.534   0.512 -2.1538 -1.0602  2.7097
  715SOL  HW2   2145   2.676   0.388   0.509 -0.0534 -0.6425  0.2557
  716SOL  OW    2146   0.444   0.638   1.432  0.0452  0.0768 -0.6001
  716SOL  HW1   2147   0.461   0.735   1.464 -0.3995  0.7030 -0.7731
  716SOL  HW2   2148   0.345   0.619   1.412  0.4196  2.8967 -1.2813
  717SOL  OW    2149   1.707   0.424   2.323  0.1642 -0.2894  0.3881
  717SOL  HW1   2150   1.641   0.492   2.353  1.3454  1.5670 -0.3751
  717SOL  HW2   2151   1.803   0.459   2.332 -1.5514  0.7255 -1.7349
  718SOL  OW    2152   1.544   0.025   0.447  0.2437  0.1371  0.1231
  718SOL  HW1   2153   1.647   0.037   0.449 -3.9262 -0.1634  2.5922
  718SOL  HW2   2154   1.516   3.026   0.439 -1.0820 -1.4312  0.4281
  719SOL  OW    2155   0.393   1.989   0.113  0.4994  0.0882 -0.4993
  719SOL  HW1   2156   0.348   1.900   0.081 -0.1214 -0.9763 -0.0685
  719SOL  HW2   2157   0.322   2.061   0.125  1.3540  1.3167 -0.1481
  720SOL  OW    2158   0.660   2.567   2.115 -0.0206 -0.6740 -0.2570
  720SOL  HW1   2159   0.715   2.570   2.199 -0.8870  1.7822  0.4363
  720SOL  HW2   2160   0.713   2.615   2.039  1.6408  0.8103  0.9243
  721SOL  OW    2161   0.420   2.544   1.813  0.0484 -0.1005 -0.1170
  721SOL  HW1   2162   0.475   2.630   1.813 -0.3915 -2.0851 -2.4474
  721SOL  HW2   2163   0.320   2.568   1.810  0.7100 -0.2858  0.7659
  722SOL  OW    2164   0.364   1.264   1.895 -0.1230 -0.3680 -0.3294
  722SOL  HW1   2165   0.408   1.181   1.931  0.4524 -0.4389 -1.0494
  722SOL  HW2   2166   0.264   1.245   1.869 -0.6467 -0.8785 -1.0775
  723SOL  OW    2167   0.841   1.424   1.271 -0.2481 -0.3619 -0.4749
  723SOL  HW1   2168   0.785   1.348   1.230  0.9442 -3.7279  2.5654
  723SOL  HW2   2169   0.781   1.507   1.295  1.1244  0.7012  0.2344
  724SOL  OW    2170   1.542   1.043   0.313  0.2871 -0.1092  0.3417
  724SOL  HW1   2171   1.472   0.971   0.299  0.6897 -0.7599  1.6632
  724SOL  HW2   2172   1.497   1.132   0.344  2.0034 -2.3681  0.7519
  725SOL  OW    2173   2.259   0.765   1.245 -0.9968 -0.5603 -0.1396
  725SOL  HW1   2174   2.161   0.776   1.218  0.1357  1.8455  0.3249
  725SOL  HW2   2175   2.273   0.834   1.321 -1.1754  0.0103  1.3665
  726SOL  OW    2176   1.835   0.761   0.427  0.1117 -0.8592  0.1453
  726SOL  HW1   2177   1.771   0.810   0.361 -1.8969 -2.8174 -0.2793
  726SOL  HW2   2178   1.923   0.806   0.439 -2.7367 -2.2186 -2.9367
  727SOL  OW    2179   2.614   0.711   2.707  0.0010  0.1732  0.6220
  727SOL  HW1   2180   2.569   0.716   2.619  1.1435  1.3683  0.3735
  727SOL  HW2   2181   2.562   0.651   2.774  0.5743 -0.1870  1.1731
  728SOL  OW    2182   2.002   1.874   1.295 -1.1181  0.3292  0.0731
  728SOL  HW1   2183   1.949   1.814   1.361 -1.1210  0.6516  1.2066
  728SOL  HW2   2184   1.993   1.826   1.204  3.2190  1.2700 -2.6375
  729SOL  OW    2185   1.438   1.672   1.592  0.2365 -0.8060  0.2878
  729SOL  HW1   2186   1.341   1.649   1.588  0.9929  0.0187 -0.5855
  729SOL  HW2   2187   1.481   1.614   1.666  2.0233 -0.7385 -1.4014
  730SOL  OW    2188   0.875   0.591   1.463 -0.3140  0.1833 -0.3740
  730SOL  HW1   2189   0.831   0.630   1.546 -0.7318  0.4018  1.0770
  730SOL  HW2   2190   0.800   0.581   1.395 -0.8743  0.4398 -1.1839
  731SOL  OW    2191   0.680   2.979   2.874  0.0354  0.0920 -0.1322
  731SOL  HW1   2192   0.655   2.891   2.917  0.9226 -1.0066  1.6390
  731SOL  HW2   2193   0.631   2.990   2.786 -1.8434  2.2675  0.2956
  732SOL  OW    2194   0.247   1.082   0.537 -0.1224  0.0479 -0.4972
  732SOL  HW1   2195   0.268   1.109   0.633  1.3913 -0.4661 -2.6576
  732SOL  HW2   2196   0.248   0.980   0.526  0.1643  0.1821 -1.4140
  733SOL  OW    2197   1.630   1.113   2.171 -0.2054 -0.0633  0.3491
  733SOL  HW1   2198   1.637   1.206   2.219  0.5891 -1.1096  0.1425
  733SOL  HW2   2199   1.534   1.081   2.171  1.0040 -1.1330  2.2286
  734SOL  OW    2200   0.507   2.131   2.741  0.2191  0.0880 -0.7141
  734SOL  HW1   2201   0.417   2.091   2.770  0.7788  0.0633  0.4765
  734SOL  HW2   2202   0.523   2.222   2.784  2.6373 -2.3201  2.2207
  735SOL  OW    2203   1.066   2.741   1.144  0.0714 -0.0785 -0.0027
  735SOL  HW1   2204   1.156   2.719   1.105 -0.8127  0.0724  1.6911
  735SOL  HW2   2205   1.028   2.650   1.172  1.9827 -0.0398 -2.1497
  736SOL  OW    2206   2.071   1.531   1.373 -0.0077 -0.0145 -0.0643
  736SOL  HW1   2207   2.027   1.608   1.418 -2.7424 -0.4203  2.0900
  736SOL  HW2   2208   2.152   1.559   1.318  0.5999  2.1825  1.4612
  737SOL  OW    2209   2.933   0.755   0.817 -0.2430  0.1741  0.6158
  737SOL  HW1   2210   2.975   0.790   0.729  1.3492  1.8088 -0.9377
  737SOL  HW2   2211   2.985   0.787   0.894  0.0326 -0.8631 -0.8910
  738SOL  OW    2212   0.605   1.983   2.116 -1.0867  0.4239  0.2686
  738SOL  HW1   2213   0.633   2.079   2.108 -0.8518  1.9877  1.3756
  738SOL  HW2   2214   0.657   1.932   2.185  3.4805  3.3040  1.8263
  739SOL  OW    2215   1.955   2.430   2.965 -0.4281 -0.2963  0.3739
  739SOL  HW1   2216   1.998   2.333   2.971 -3.7882  1.4105  2.3932
  739SOL  HW2   2217   1.953   2.479   3.053 -2.2124 -1.4229  0.5251
  740SOL  OW    2218   2.158   2.053   0.711 -0.1493 -0.2046 -0.3195
  740SOL  HW1   2219   2.254   2.023   0.733  2.6049  1.7485 -1.5571
  740SOL  HW2   2220   2.108   1.967   0.700 -0.4702 -0.4252 -2.4875
  741SOL  OW    2221   2.793   0.021   2.816  0.3168  0.3872  0.5154
  741SOL  HW1   2222   2.699   3.082   2.843  1.9321 -1.6629 -0.6031
  741SOL  HW2   2223   2.866   3.082   2.879 -0.0587 -2.5455  0.6143
  742SOL  OW    2224   1.463   1.882   2.836  0.5491 -0.3940  0.9931
  742SOL  HW1   2225   1.425   1.800   2.878  1.2870 -1.7853 -3.0364
  742SOL  HW2   2226   1.404   1.923   2.768 -0.7808  0.4930 -0.7691
  743SOL  OW    2227   0.086   1.282   1.922 -0.1870 -0.6452 -0.0222
  743SOL  HW1   2228   0.001   1.302   1.973  2.3288  3.1333 -1.2000
  743SOL  HW2   2229   0.100   1.181   1.906  2.3532 -0.5406 -1.2773
  744SOL  OW    2230   0.328   2.932   0.490  0.2439  0.4164  0.6727
  744SOL  HW1   2231   0.394   3.005   0.492  1.5408  0.7009  1.3179
  744SOL  HW2   2232   0.370   2.839   0.500 -0.5312 -1.7191 -1.3362
  745SOL  OW    2233   2.562   1.582   1.153  0.0177 -0.1855 -0.2148
  745SOL  HW1   2234   2.586   1.482   1.175  2.8420  0.5607  0.2346
  745SOL  HW2   2235   2.535   1.595   1.053  2.7518 -1.2128 -0.0462
  746SOL  OW    2236   1.167   1.289   0.840 -0.0317  0.5565 -0.0812
  746SOL  HW1   2237   1.262   1.308   0.867 -1.0347  2.0504  0.1750
  746SOL  HW2   2238   1.105   1.353   0.886  0.1432  2.3264  1.2939
  747SOL  OW    2239   1.107   1.560   1.881  0.3701  0.5100 -0.1924
  747SOL  HW1   2240   1.055   1.578   1.965 -0.7107  0.4022  0.3848
  747SOL  HW2   2241   1.126   1.462   1.866  0.8788 -3.6631  0.4398
  748SOL  OW    2242   2.888   2.849   1.104  0.1829  0.0762 -0.5679
  748SOL  HW1   2243   2.882   2.748   1.102 -2.2862 -0.1991  0.5755
  748SOL  HW2   2244   2.955   2.885   1.034 -2.4075  2.0183 -0.2443
  749SOL  OW    2245   2.532   0.947   2.985 -0.3010 -0.0892 -0.1007
  749SOL  HW1   2246   2.457   0.890   2.946 -1.5622 -1.2696 -0.7108
  749SOL  HW2   2247   2.599   0.969   2.911 -1.3845  1.7381 -0.1772
  750SOL  OW    2248   2.666   1.182   2.380 -0.6305 -0.4839 -0.5031
  750SOL  HW1   2249   2.755   1.230   2.373 -0.5665  0.3231 -1.8649
  750SOL  HW2   2250   2.606   1.241   2.319 -0.0630 -1.2416 -1.1057
  751SOL  OW    2251   1.947   1.668   0.186 -0.7858  0.4536  0.1766
  751SOL  HW1   2252   1.927   1.765   0.168 -0.0849  0.3327 -1.0603
  751SOL  HW2   2253   1.942   1.642   0.285 -2.6832  0.9825 -1.3993
  752SOL  OW    2254   0.943   1.780   0.150 -0.0163  0.5923 -0.1136
  752SOL  HW1   2255   0.977   1.730   0.070 -2.0739 -1.1486 -0.9771
  752SOL  HW2   2256   1.013   1.785   0.224  1.7800  0.9165 -0.2004
  753SOL  OW    2257   0.195   0.039   1.547  0.5478  0.1902 -0.1341
  753SOL  HW1   2258   0.248   0.083   1.471  0.6215  0.4946 -1.5749
  753SOL  HW2   2259   0.248   0.049   1.630 -0.4614  0.4189 -0.4110
  754SOL  OW    2260   0.216   0.121   2.357 -0.1891 -0.4220  0.4992
  754SOL  HW1   2261   0.229   0.107   2.457 -0.6422 -2.5210 -1.7251
  754SOL  HW2   2262   0.117   0.098   2.333 -0.6828 -0.4863  2.3388
  755SOL  OW    2263   2.460   1.677   2.484  0.1040  0.3919  0.2367
  755SOL  HW1   2264   2.386   1.627   2.539  0.6947 -0.1379 -0.4396
  755SOL  HW2   2265   2.466   1.642   2.388  0.0319  0.2862  0.3129
  756SOL  OW    2266   2.251   1.707   2.884  0.0872  0.2300 -1.0618
  756SOL  HW1   2267   2.268   1.668   2.794  0.4748 -0.3864 -0.8342
  756SOL  HW2   2268   2.182   1.658   2.943  0.8716 -3.1196  0.3890
  757SOL  OW    2269   0.120   0.559   2.419  0.0245  0.2117 -0.5943
  757SOL  HW1   2270   0.066   0.576   2.504 -0.4274 -1.4475  0.3168
  757SOL  HW2   2271   0.161   0.464   2.412 -0.9000 -0.2498  1.0439
  758SOL  OW    2272   2.236   1.763   2.221 -0.1658  0.2319 -0.0056
  758SOL  HW1   2273   2.322   1.710   2.213  0.8348 -1.6650  2.2404
  758SOL  HW2   2274   2.170   1.708   2.279  0.7829 -0.1865 -1.5882
  759SOL  OW    2275   2.037   0.366   1.966  0.6254  0.3949  0.0878
  759SOL  HW1   2276   1.967   0.443   1.966  3.5410  2.5456  0.3406
  759SOL  HW2   2277   2.003   0.303   2.040  1.7881 -1.1927 -2.5664
  760SOL  OW    2278   0.398   1.374   1.146 -0.5903 -0.2409 -0.0869
  760SOL  HW1   2279   0.357   1.460   1.118 -1.5019 -0.6943  0.6918
  760SOL  HW2   2280   0.490   1.353   1.107 -0.7604 -1.2119  0.4271
  761SOL  OW    2281   0.164   2.904   2.950  0.2946 -0.2979  0.7019
  761SOL  HW1   2282   0.097   2.827   2.935 -0.4201  0.0024  0.2871
  761SOL  HW2   2283   0.155   2.976   2.874  2.3933  0.8216 -0.9562
  762SOL  OW    2284   0.651   1.533   0.846 -0.2420 -0.3697 -0.2517
  762SOL  HW1   2285   0.570   1.589   0.836  2.5432 -0.4267 -2.8719
  762SOL  HW2   2286   0.731   1.561   0.787  0.1619  0.2945  1.9108
  763SOL  OW    2287   1.715   0.511   1.773  0.1807 -0.9485  0.7794
  763SOL  HW1   2288   1.693   0.490   1.873 -2.0036  1.0259  1.2865
  763SOL  HW2   2289   1.742   0.608   1.749  0.0602  0.7841  1.5646
  764SOL  OW    2290   0.407   2.776   2.878 -0.2241 -0.5981  0.1296
  764SOL  HW1   2291   0.338   2.845   2.910  0.1360 -1.3023 -1.4959
  764SOL  HW2   2292   0.475   2.752   2.950  1.7607  2.3561 -1.8484
  765SOL  OW    2293   1.044   0.701   1.784 -0.3565  0.5065  0.4800
  765SOL  HW1   2294   1.096   0.614   1.792 -0.8387 -1.7217 -0.9054
  765SOL  HW2   2295   1.085   0.782   1.833  1.5138 -0.8852  0.5393
  766SOL  OW    2296   2.675   2.038   2.148 -0.5422  0.1233 -0.8808
  766SOL  HW1   2297   2.596   2.090   2.183  1.4026  0.3165  0.0532
  766SOL  HW2   2298   2.759   2.085   2.178  2.3021 -0.0558  1.8410
  767SOL  OW    2299   1.992   1.230   1.729  0.3468 -0.2829  0.3836
  767SOL  HW1   2300   1.938   1.310   1.763 -0.0474 -2.4828 -1.0443
  767SOL  HW2   2301   2.026   1.242   1.635  1.1669  2.2835  1.6889
  768SOL  OW    2302   1.836   1.199   2.435 -0.8074 -0.3981  0.1172
  768SOL  HW1   2303   1.734   1.217   2.452  2.3591 -2.2303  2.8422
  768SOL  HW2   2304   1.871   1.116   2.476  0.2740  0.5272 -0.0335
  769SOL  OW    2305   0.105   1.485   1.367 -0.5129 -0.4065  0.1399
  769SOL  HW1   2306   0.005   1.498   1.396  0.7267  2.6321 -0.4058
  769SOL  HW2   2307   0.117   1.409   1.298 -0.1375 -1.5808 -2.2991
  770SOL  OW    2308   2.140   1.033   2.185  0.0449  0.3589  0.0719
  770SOL  HW1   2309   2.072   1.058   2.109  2.4047 -0.9275  0.8043
  770SOL  HW2   2310   2.117   0.946   2.233  0.2251 -1.7649  0.0544
  771SOL  OW    2311   1.535   2.672   2.493  0.1273  0.4776 -0.0898
  771SOL  HW1   2312   1.497   2.582   2.505 -1.1317 -0.0810 -1.4333
  771SOL  HW2   2313   1.544   2.690   2.394  2.5627  1.6243  0.8442
  772SOL  OW    2314   2.192   1.759   1.639  0.3465  0.1173 -0.6647
  772SOL  HW1   2315   2.122   1.805   1.694  0.1475  0.1823  0.5196
  772SOL  HW2   2316   2.192   1.656   1.659 -0.9910 -0.1348  1.6068
  773SOL  OW    2317   0.750   1.051   0.963  0.0503 -0.4166 -0.2597
  773SOL  HW1   2318   0.705   0.968   1.004 -1.3975  1.0013  0.2737
  773SOL  HW2   2319   0.788   1.026   0.871 -1.4306 -1.5347 -0.7982
  774SOL  OW    2320   0.852   0.622   0.182  0.2047 -0.3345 -0.4103
  774SOL  HW1   2321   0.953   0.609   0.195  0.2072 -4.4791  0.6926
  774SOL  HW2   2322   0.835   0.671   0.096 -0.4356 -0.1115 -0.5062
  775SOL  OW    2323   0.891   2.190   0.801  0.3621  0.0532  0.2965
  775SOL  HW1   2324   0.791   2.196   0.818  0.9637 -0.5459  0.4845
  775SOL  HW2   2325   0.947   2.173   0.883  0.9967 -2.4452  2.7804
  776SOL  OW    2326   2.563   0.943   1.322 -0.2943 -0.1723 -0.1241
  776SOL  HW1   2327   2.514   0.982   1.243 -0.8816  1.4184 -0.6954
  776SOL  HW2   2328   2.659   0.979   1.329  0.9877 -0.0242  1.7446
  777SOL  OW    2329   2.818   2.625   2.218 -0.0561 -0.4719  0.4920
  777SOL  HW1   2330   2.726   2.656   2.179 -0.4067 -0.3219 -0.4254
  777SOL  HW2   2331   2.894   2.662   2.159 -0.6419  1.3395  0.1786
  778SOL  OW    2332   1.209   1.333   1.813 -0.0655 -0.1013 -0.2518
  778SOL  HW1   2333   1.300   1.301   1.781 -0.5271 -0.7672  1.2448
  778SOL  HW2   2334   1.138   1.305   1.741 -3.0320 -1.1059 -0.5034
  779SOL  OW    2335   3.042   0.388   0.221 -0.5758  0.2713 -0.5106
  779SOL  HW1   2336   3.002   0.479   0.189  2.8986  0.4706 -1.5858
  779SOL  HW2   2337   0.008   0.415   0.299  2.4248  2.3272 -0.0515
  780SOL  OW    2338   2.335   2.517   2.895 -0.1826  0.0099 -0.3169
  780SOL  HW1   2339   2.243   2.550   2.862  0.0511  0.5267 -1.0452
  780SOL  HW2   2340   2.416   2.558   2.846  0.2348 -0.6404 -2.9902
  781SOL  OW    2341   2.610   2.316   2.422 -0.1009 -0.7678  0.2867
  781SOL  HW1   2342   2.564   2.264   2.344 -1.6652 -2.4970 -1.6427
  781SOL  HW2   2343   2.644   2.252   2.493  1.2403  2.2281  1.4981
  782SOL  OW    2344   0.606   0.150   2.591 -0.0311 -0.1095 -0.0687
  782SOL  HW1   2345   0.685   0.162   2.653  2.8239 -1.8883 -1.8527
  782SOL  HW2   2346   0.523   0.190   2.631 -0.3730  0.9974  1.2056
  783SOL  OW    2347   0.049   1.642   0.261 -0.0796  0.3732 -0.4553
  783SOL  HW1   2348   0.122   1.632   0.329 -0.7085 -0.8526  2.1780
  783SOL  HW2   2349   3.091   1.727   0.277  2.0985 -0.3916 -2.5795
  784SOL  OW    2350   2.979   1.881   0.265 -0.5373  0.0023 -0.0280
  784SOL  HW1   2351   2.897   1.839   0.307  1.5774 -1.7191 -2.0806
  784SOL  HW2   2352   3.004   1.967   0.322 -1.4550  1.0962  0.4155
  785SOL  OW    2353   1.707   2.694   0.047  0.0440  0.1334 -0.1921
  785SOL  HW1   2354   1.659   2.694   3.051  1.1247  1.2973 -0.5742
  785SOL  HW2   2355   1.658   2.639   0.115  1.5351 -1.5309  0.6632
  786SOL  OW    2356   0.995   1.677   2.825 -0.2461  0.2583 -0.0054
  786SOL  HW1   2357   0.989   1.750   2.754  1.4879  2.5099 -0.2907
  786SOL  HW2   2358   1.037   1.710   2.909 -2.5428  0.9291 -2.4556
  787SOL  OW    2359   0.850   0.992   0.700  0.4737  0.6737  0.2266
  787SOL  HW1   2360   0.846   0.889   0.686 -1.6236 -2.0421 -0.7044
  787SOL  HW2   2361   0.942   1.025   0.678 -3.1286  1.3771  0.8977
  788SOL  OW    2362   0.707   0.411   0.218  0.2817 -0.0900  0.4638
  788SOL  HW1   2363   0.772   0.330   0.217 -1.4240  0.9930  0.6407
  788SOL  HW2   2364   0.755   0.501   0.195 -1.2712 -0.8687  0.6465
  789SOL  OW    2365   2.873   2.208   1.710 -0.2738  0.7488 -0.1527
  789SOL  HW1   2366   2.805   2.133   1.721  0.6703 -2.1563  2.7622
  789SOL  HW2   2367   2.848   2.292   1.763  3.2690  4.0805 -1.6880
  790SOL  OW    2368   1.940   2.842   2.736 -0.2587  0.4660 -0.7254
  790SOL  HW1   2369   1.984   2.753   2.741  2.4063 -1.6136  1.0170
  790SOL  HW2   2370   1.969   2.899   2.817  0.2360  1.3595 -2.1210
  791SOL  OW    2371   1.026   1.145   2.767  0.2985  0.4152 -0.4395
  791SOL  HW1   2372   0.966   1.172   2.842 -1.2584 -1.0072 -1.1057
  791SOL  HW2   2373   1.090   1.218   2.743 -1.3007 -0.0625  1.8104
  792SOL  OW    2374   1.202   0.018   1.497  0.1659 -1.1737 -0.0875
  792SOL  HW1   2375   1.135   3.040   1.514  1.0216  1.8027  1.5300
  792SOL  HW2   2376   1.268   3.085   1.424  0.0944 -0.7527  0.7398
  793SOL  OW    2377   0.815   3.001   1.720  0.4507  0.5329  0.1214
  793SOL  HW1   2378   0.733   3.015   1.659 -1.3586 -0.7959  0.5576
  793SOL  HW2   2379   0.887   2.945   1.676 -1.0668  1.7561  1.4341
  794SOL  OW    2380   0.746   1.438   2.538  0.1345  0.4285 -0.1930
  794SOL  HW1   2381   0.670   1.495   2.573  0.2051  2.3221 -1.3293
  794SOL  HW2   2382   0.735   1.414   2.440  0.1773  0.3263 -0.6946
  795SOL  OW    2383   2.459   1.603   2.219  0.1137  0.2191  0.1146
  795SOL  HW1   2384   2.523   1.657   2.164 -0.1937 -2.5734 -2.2365
  795SOL  HW2   2385   2.483   1.504   2.223  1.9520  0.1375  1.3094
  796SOL  OW    2386   1.269   1.805   1.277  0.2345  0.0308  0.1129
  796SOL  HW1   2387   1.282   1.845   1.182 -1.1282  1.9925  2.1976
  796SOL  HW2   2388   1.348   1.749   1.306  0.9706  1.9336  1.1643
  797SOL  OW    2389   0.061   0.674   2.183 -0.0272  0.2687  0.1593
  797SOL  HW1   2390   0.050   0.617   2.273  0.5157  2.2189 -0.2399
  797SOL  HW2   2391   0.160   0.697   2.158 -2.2841 -1.5397 -2.3664
  798SOL  OW    2392   0.637   2.127   2.478  0.3579 -0.3451 -0.4227
  798SOL  HW1   2393   0.623   2.143   2.582 -0.5063 -0.1689  3.1275
  798SOL  HW2   2394   0.553   2.081   2.446  0.9871 -0.5614 -1.8596
  799SOL  OW    2395   3.089   2.679   2.927 -0.2958 -0.5276  0.3958
  799SOL  HW1   2396   0.009   2.659   2.829  3.6806  2.1742  0.8795
  799SOL  HW2   2397   0.033   2.600   2.981 -0.0506  0.0395  0.9543
  800SOL  OW    2398   0.875   2.428   0.651 -0.0580 -0.1124  0.3866
  800SOL  HW1   2399   0.955   2.481   0.677  1.7290 -1.7295  2.2605
  800SOL  HW2   2400   0.879   2.333   0.698 -2.8521 -0.3588  1.9073
  801SOL  OW    2401   3.075   0.121   0.611  0.1095 -0.1727  0.3991
  801SOL  HW1   2402   3.009   0.191   0.633 -0.4944  0.8796 -2.8142
  801SOL  HW2   2403   0.029   0.145   0.526  1.9382  1.9009  0.5658
  802SOL  OW    2404   2.309   1.041   0.515 -0.1343  0.2471 -0.2231
  802SOL  HW1   2405   2.348   1.088   0.437 -1.7505  0.5034  0.5745
  802SOL  HW2   2406   2.384   0.990   0.558 -0.6703  0.8413  4.2571
  803SOL  OW    2407   1.266   1.642   2.758  0.0491 -0.3003 -0.2166
  803SOL  HW1   2408   1.170   1.617   2.730 -1.0919 -1.2855  0.3227
  803SOL  HW2   2409   1.311   1.677   2.673  2.8870  1.2282  1.4883
  804SOL  OW    2410   2.806   2.186   0.424 -0.7092  0.2491  0.2029
  804SOL  HW1   2411   2.898   2.134   0.430  0.5384 -1.5611 -0.8182
  804SOL  HW2   2412   2.738   2.134   0.364 -1.7420 -0.6688  0.0290
  805SOL  OW    2413   2.939   1.513   0.146 -0.2721 -0.3150 -0.4137
  805SOL  HW1   2414   2.935   1.511   0.045  3.0795 -0.2646 -3.8176
  805SOL  HW2   2415   3.017   1.571   0.178  0.7883  1.9871 -0.4820
  806SOL  OW    2416   0.147   3.093   0.345 -0.1011  0.0024  0.2407
  806SOL  HW1   2417   0.192   0.089   0.341  1.6619 -1.6091  1.5132
  806SOL  HW2   2418   0.191   3.028   0.413 -2.0130  3.6850  0.6254
  807SOL  OW    2419   2.921   1.307   2.334  0.2000 -0.3868 -0.1709
  807SOL  HW1   2420   3.022   1.319   2.312  2.7047 -3.0601 -0.4531
  807SOL  HW2   2421   2.893   1.362   2.417 -1.5232  0.6895 -2.0801
  808SOL  OW    2422   0.447   1.508   0.513  0.1159 -0.3195 -0.1254
  808SOL  HW1   2423   0.500   1.476   0.426 -0.8929  2.2696 -0.1618
  808SOL  HW2   2424   0.454   1.433   0.582  1.0790 -0.1261 -2.0177
  809SOL  OW    2425   2.439   0.339   2.545  0.8206 -0.0751 -0.0216
  809SOL  HW1   2426   2.507   0.402   2.495 -2.0141  0.2582 -2.7220
  809SOL  HW2   2427   2.347   0.383   2.538  0.4332  1.5559  1.3074
  810SOL  OW    2428   1.402   0.312   2.652 -0.2901 -0.0824 -0.0317
  810SOL  HW1   2429   1.466   0.270   2.583 -0.7203 -0.4778  1.8348
  810SOL  HW2   2430   1.459   0.357   2.726 -0.7423 -3.2125  1.3581
  811SOL  OW    2431   1.471   2.807   1.191 -0.5677  0.1358 -0.5912
  811SOL  HW1   2432   1.399   2.753   1.145  1.3004  0.7394 -3.3038
  811SOL  HW2   2433   1.549   2.832   1.128  1.1133  4.0662  2.1862
  812SOL  OW    2434   0.264   2.850   1.802  0.0833 -0.0153  0.7122
  812SOL  HW1   2435   0.365   2.822   1.800 -1.8749  2.1417 -0.6465
  812SOL  HW2   2436   0.213   2.795   1.730 -3.6226 -2.2527  2.0733
  813SOL  OW    2437   0.535   0.131   1.953 -0.9316  0.7760  0.0140
  813SOL  HW1   2438   0.588   0.217   1.963  4.0749  2.0584 -0.7185
  813SOL  HW2   2439   0.470   0.122   2.032  1.2629  2.2668  0.5991
  814SOL  OW    2440   1.190   0.676   2.752  0.2628 -0.0342 -0.1860
  814SOL  HW1   2441   1.287   0.710   2.729 -1.5427  0.3730  2.3668
  814SOL  HW2   2442   1.133   0.751   2.792  1.3030  0.3871 -1.2332
  815SOL  OW    2443   2.706   1.094   1.652  0.1414 -0.6193 -0.3164
  815SOL  HW1   2444   2.609   1.102   1.660  1.3895 -1.2202 -0.9568
  815SOL  HW2   2445   2.739   1.155   1.576  1.3243  0.1544  0.2426
  816SOL  OW    2446   0.568   0.583   3.001 -0.6570 -0.1159 -0.6307
  816SOL  HW1   2447   0.470   0.552   2.995  0.0070  3.1479  1.3006
  816SOL  HW2   2448   0.632   0.516   2.959 -4.5930  2.0544  0.8691
  817SOL  OW    2449   1.055   0.821   3.056  0.0735 -0.5641 -0.3298
  817SOL  HW1   2450   0.965   0.824   0.011 -1.1011 -3.0412  2.9183
  817SOL  HW2   2451   1.042   0.856   2.960  0.0077  4.5641  1.0276
  818SOL  OW    2452   2.941   0.761   2.897 -0.5442  0.0707  0.0707
  818SOL  HW1   2453   2.935   0.835   2.829  0.8436  0.7599 -1.8566
  818SOL  HW2   2454   2.933   0.668   2.851 -0.4835  0.5021  0.9873
  819SOL  OW    2455   1.865   1.731   2.240 -0.3423 -0.7621  0.2798
  819SOL  HW1   2456   1.958   1.710   2.279 -3.6085 -1.9762 -1.0627
  819SOL  HW2   2457   1.862   1.813   2.180 -2.2735  1.0445 -1.8807
  820SOL  OW    2458   2.632   2.711   2.934 -0.0097  0.0635 -0.2886
  820SOL  HW1   2459   2.646   2.635   2.862  2.6529 -0.9466  2.2864
  820SOL  HW2   2460   2.607   2.800   2.885  1.1198 -1.6035 -0.0113
  821SOL  OW    2461   0.157   2.977   2.012  0.2447 -0.2287  0.2056
  821SOL  HW1   2462   0.087   3.042   1.977  2.3761  3.0999 -3.1146
  821SOL  HW2   2463   0.191   2.921   1.925  2.2154  0.6153 -1.8292
  822SOL  OW    2464   0.014   0.186   1.128 -0.7170 -0.3442  0.0745
  822SOL  HW1   2465   3.063   0.118   1.190 -0.9335 -0.7704  1.3763
  822SOL  HW2   2466   0.075   0.144   1.057 -0.4516 -2.1125 -1.6595
  823SOL  OW    2467   2.097   2.229   3.072  0.0359  0.4232  0.0493
  823SOL  HW1   2468   2.186   2.227   3.022  1.4222  2.5723  3.3073
  823SOL  HW2   2469   2.041   2.152   3.036 -0.8892 -0.1993  0.5302
  824SOL  OW    2470   1.567   1.620   0.675 -0.4946  0.0120 -0.1776
  824SOL  HW1   2471   1.506   1.610   0.596  0.9923  1.4105  0.1750
  824SOL  HW2   2472   1.589   1.528   0.709  0.9600 -1.3458 -1.2877
  825SOL  OW    2473   2.893   1.748   2.335 -0.1977  0.7875 -0.2231
  825SOL  HW1   2474   2.981   1.796   2.351  0.6921  0.5392 -0.5356
  825SOL  HW2   2475   2.898   1.702   2.245 -1.7711 -1.1879 -0.8632
  826SOL  OW    2476   2.917   1.628   2.067 -0.1712 -0.1853  0.4440
  826SOL  HW1   2477   2.905   1.534   2.030  0.2041 -0.0580  0.5049
  826SOL  HW2   2478   3.015   1.662   2.062  1.9660 -0.1795  3.1541
  827SOL  OW    2479   1.837   2.255   1.540  0.2468 -0.3432 -0.9743
  827SOL  HW1   2480   1.883   2.229   1.451 -1.3583  1.1707 -2.0254
  827SOL  HW2   2481   1.910   2.238   1.608 -0.4151 -0.4488 -2.2094
  828SOL  OW    2482   2.479   2.546   1.120  0.1102 -0.2572 -0.0727
  828SOL  HW1   2483   2.533   2.460   1.132 -0.6461 -1.4043  1.3264
  828SOL  HW2   2484   2.485   2.571   1.023  0.4149 -0.6021  1.1238
  829SOL  OW    2485   2.463   2.194   2.235  0.4401 -0.2692  0.1427
  829SOL  HW1   2486   2.452   2.243   2.145 -2.2418  2.3897  2.2878
  829SOL  HW2   2487   2.387   2.132   2.257  0.3528  0.3354 -0.8265
  830SOL  OW    2488   0.946   0.668   0.999  0.2779 -0.1807  0.3482
  830SOL  HW1   2489   0.967   0.574   1.034 -0.2707 -0.9561 -1.6373
  830SOL  HW2   2490   1.006   0.690   0.919 -2.1824  0.0098 -1.0219
  831SOL  OW    2491   0.132   1.217   0.311 -0.4340 -0.0579 -0.8543
  831SOL  HW1   2492   0.067   1.146   0.272 -1.0329  0.5451 -0.7408
  831SOL  HW2   2493   0.152   1.196   0.410 -0.7493  2.5960  3.0200
  832SOL  OW    2494   2.036   2.160   2.371  0.3923  0.0460 -0.0094
  832SOL  HW1   2495   2.124   2.104   2.366  0.7796  0.8681 -0.2615
  832SOL  HW2   2496   2.041   2.247   2.322  0.4636  1.0280  1.3844
  833SOL  OW    2497   2.989   0.574   1.995  0.3245 -0.1717  0.3702
  833SOL  HW1   2498   3.014   0.477   2.005 -0.9217  1.8528 -0.0199
  833SOL  HW2   2499   3.056   0.629   2.054  3.5812  1.3455 -0.8609
  834SOL  OW    2500   0.868   0.339   1.512 -0.1451 -0.4283 -0.7531
  834SOL  HW1   2501   0.860   0.440   1.496  1.1641  2.4260 -0.5333
  834SOL  HW2   2502   0.947   0.304   1.459 -2.2337  2.6939 -1.3971
  835SOL  OW    2503   0.466   0.991   2.593  0.4997 -0.5054 -0.4946
  835SOL  HW1   2504   0.447   0.907   2.649 -0.1640  0.8388 -1.2230
  835SOL  HW2   2505   0.386   1.061   2.598  1.8465  0.1669  1.9777
  836SOL  OW    2506   1.002   2.883   1.516  0.0155  0.4943  0.2264
  836SOL  HW1   2507   1.087   2.827   1.520 -2.4844 -0.1321 -1.1528
  836SOL  HW2   2508   0.944   2.870   1.433  0.1129  0.4092 -1.2539
  837SOL  OW    2509   2.052   0.399   0.719 -0.2367 -0.3873 -0.1028
  837SOL  HW1   2510   2.098   0.344   0.792  0.6112  4.9171  3.3767
  837SOL  HW2   2511   1.952   0.415   0.743 -0.6928 -0.3793  1.3491
  838SOL  OW    2512   1.379   1.714   2.522  0.0775  0.5187 -0.2371
  838SOL  HW1   2513   1.385   1.662   2.431  0.3594 -2.1943 -0.5265
  838SOL  HW2   2514   1.354   1.810   2.500 -0.0362  0.1115 -0.1320
  839SOL  OW    2515   0.601   2.537   0.689  0.2977  0.0181  0.1113
  839SOL  HW1   2516   0.695   2.507   0.678 -0.7125 -0.2928  0.0065
  839SOL  HW2   2517   0.544   2.458   0.718 -2.4775  1.4004  1.9745
  840SOL  OW    2518   1.243   2.368   0.287 -0.4598  0.1331 -0.4028
  840SOL  HW1   2519   1.158   2.338   0.244 -0.9883 -2.4052 -0.6452
  840SOL  HW2   2520   1.328   2.312   0.262  1.7452 -0.7101 -0.7063
  841SOL  OW    2521   1.856   0.902   2.418  0.1269  0.0936  0.4765
  841SOL  HW1   2522   1.886   0.932   2.324  0.6955  2.6163  0.0139
  841SOL  HW2   2523   1.755   0.895   2.413 -1.4591 -2.9798 -3.1859
  842SOL  OW    2524   1.946   0.648   2.046 -0.4488  0.2975  0.2740
  842SOL  HW1   2525   1.996   0.673   1.960 -0.5688  1.2473  0.5709
  842SOL  HW2   2526   1.861   0.700   2.060  0.0089 -1.7582 -2.7961
  843SOL  OW    2527   1.428   2.454   1.027  0.2017  0.3791 -0.0767
  843SOL  HW1   2528   1.382   2.393   0.957  1.0978 -1.6687 -2.7036
  843SOL  HW2   2529   1.444   2.407   1.119  0.5845  0.1937 -0.5827
  844SOL  OW    2530   2.170   2.711   0.099 -0.2783 -0.3888  0.7940
  844SOL  HW1   2531   2.091   2.653   0.095  1.1370  0.4162  0.4628
  844SOL  HW2   2532   2.154   2.799   0.150  0.6022 -2.3280 -1.6718
  845SOL  OW    2533   3.060   2.629   1.367  0.6543  0.0918  0.2123
  845SOL  HW1   2534   3.014   2.621   1.277 -0.5521 -0.0017 -0.8489
  845SOL  HW2   2535   0.014   2.538   1.382 -1.8468  1.9228  0.1478
  846SOL  OW    2536   0.360   2.075   1.984  0.0926  0.1235 -0.0030
  846SOL  HW1   2537   0.335   2.129   2.069 -2.0411 -1.1062  0.6423
  846SOL  HW2   2538   0.421   1.993   2.005  0.8340 -0.2765  2.7204
  847SOL  OW    2539   1.549   0.384   1.260 -0.0473  0.5249  0.1819
  847SOL  HW1   2540   1.568   0.457   1.193 -1.0922  0.2548 -0.4135
  847SOL  HW2   2541   1.522   0.420   1.349 -1.4810 -1.6331  0.7137
  848SOL  OW    2542   2.585   0.173   2.996 -0.5927  0.4103  0.2655
  848SOL  HW1   2543   2.674   0.220   3.003 -2.1383 -1.4844 -0.3857
  848SOL  HW2   2544   2.566   0.162   2.894  0.1863  2.1082 -1.8767
  849SOL  OW    2545   2.694   1.493   0.667 -0.1669  0.2706  0.4857
  849SOL  HW1   2546   2.768   1.458   0.724 -0.3918 -2.1249  4.8159
  849SOL  HW2   2547   2.672   1.440   0.584 -3.2841 -0.5647 -0.5878
  850SOL  OW    2548   0.567   1.946   1.460  0.1402 -0.3850 -0.6132
  850SOL  HW1   2549   0.656   1.995   1.464 -1.6876 -1.8712 -1.8364
  850SOL  HW2   2550   0.535   1.907   1.548 -0.2230  0.5156  0.9050
  851SOL  OW    2551   2.502   0.750   2.465  0.0228 -0.2471  0.6824
  851SOL  HW1   2552   2.563   0.821   2.414  1.4405 -0.4183  0.7380
  851SOL  HW2   2553   2.404   0.769   2.450 -2.5017  0.0005  1.3377
  852SOL  OW    2554   1.834   1.451   1.803 -0.4190 -0.3272  0.3501
  852SOL  HW1   2555   1.912   1.480   1.859  1.0730  1.3669  0.3166
  852SOL  HW2   2556   1.741   1.454   1.851 -1.2625  0.2324 -2.1596
  853SOL  OW    2557   0.873   2.498   0.135  0.7915 -0.1608 -0.1624
  853SOL  HW1   2558   0.792   2.500   0.196  1.9403 -1.6945 -2.6887
  853SOL  HW2   2559   0.898   2.585   0.092  0.9534 -0.4558  0.0311
  854SOL  OW    2560   2.390   2.480   2.483 -0.2920  0.2854  0.4638
  854SOL  HW1   2561   2.461   2.413   2.462 -3.2474 -0.9195  1.5682
  854SOL  HW2   2562   2.420   2.548   2.555 -1.6149 -1.9831 -1.5344
  855SOL  OW    2563   1.652   2.315   0.133  0.3771  0.2881  0.1630
  855SOL  HW1   2564   1.627   2.304   0.037 -0.4236  0.6422  0.0256
  855SOL  HW2   2565   1.627   2.409   0.164 -0.4957  0.4077 -0.6709
  856SOL  OW    2566   2.978   3.021   3.009  0.3908 -0.2931 -0.7660
  856SOL  HW1   2567   2.927   2.942   3.043 -0.5169  0.6052  1.1013
  856SOL  HW2   2568   3.028   3.071   3.080  2.2659  0.3894  0.6439
  857SOL  OW    2569   2.915   2.276   1.440  0.2135 -0.7636 -0.2689
  857SOL  HW1   2570   2.914   2.267   1.543 -0.0467 -0.2421  0.4548
  857SOL  HW2   2571   3.005   2.320   1.408 -1.3491 -0.2899  1.2066
  858SOL  OW    2572   2.699   2.561   1.713 -0.5921 -0.0653  0.3111
  858SOL  HW1   2573   2.652   2.542   1.622 -0.3782 -1.5935  2.3549
  858SOL  HW2   2574   2.657   2.512   1.793  0.4711  3.0026 -0.7916
  859SOL  OW    2575   0.792   2.690   1.900 -0.4078 -0.3280  0.5455
  859SOL  HW1   2576   0.889   2.698   1.940  1.0503  0.4762  0.8555
  859SOL  HW2   2577   0.799   2.651   1.807 -1.0284  1.9849 -0.2421
  860SOL  OW    2578   2.762   2.477   0.172  0.1341 -0.0169 -0.6054
  860SOL  HW1   2579   2.762   2.487   0.272 -1.2618 -1.7431  0.4162
  860SOL  HW2   2580   2.695   2.550   0.136  0.4181  2.8741 -1.7759
  861SOL  OW    2581   1.734   1.876   0.699 -0.3153 -0.5119 -0.5613
  861SOL  HW1   2582   1.708   1.958   0.651  0.0837  2.7835  0.1276
  861SOL  HW2   2583   1.661   1.803   0.693  3.3181 -1.8415  0.2669
  862SOL  OW    2584   2.454   0.031   2.166 -0.0175  0.2142  0.3023
  862SOL  HW1   2585   2.360   0.051   2.134 -0.7351  0.2796  1.5796
  862SOL  HW2   2586   2.472   0.078   2.258  0.4198  0.7745  2.2351
  863SOL  OW    2587   0.550   2.623   2.705 -0.5391 -0.3203  0.5314
  863SOL  HW1   2588   0.485   2.681   2.756 -3.3204 -2.3187 -2.9978
  863SOL  HW2   2589   0.625   2.684   2.672  0.8816 -0.5584  1.8524
  864SOL  OW    2590   2.617   2.336   1.868 -0.2201  0.1366  0.0681
  864SOL  HW1   2591   2.630   2.244   1.825  3.1776 -3.2482  3.7439
  864SOL  HW2   2592   2.531   2.334   1.922 -0.1125 -0.9515  2.5737
  865SOL  OW    2593   0.247   2.571   3.069 -0.5540  0.1361  0.1957
  865SOL  HW1   2594   0.266   2.537   2.974  0.8481 -4.0350 -0.8188
  865SOL  HW2   2595   0.289   2.660   0.002  0.7445 -1.9878 -2.9050
  866SOL  OW    2596   0.369   0.017   2.162  0.7931 -0.0243 -0.5420
  866SOL  HW1   2597   0.324   0.070   2.237  1.4398  0.6829 -0.7007
  866SOL  HW2   2598   0.294   3.075   2.101 -2.7311 -0.2268  0.0956
  867SOL  OW    2599   0.320   0.724   2.412  0.8745 -0.0065 -0.2089
  867SOL  HW1   2600   0.229   0.668   2.410  2.7110  0.3462 -0.9868
  867SOL  HW2   2601   0.390   0.682   2.354 -1.7002  2.1029  1.4637
  868SOL  OW    2602   0.879   2.738   3.093  0.2946 -0.2681  0.3912
  868SOL  HW1   2603   0.906   2.808   0.063 -1.2827  1.3233 -1.8273
  868SOL  HW2   2604   0.923   2.746   3.003 -1.4848  0.1103  0.0717
  869SOL  OW    2605   0.205   1.269   0.745 -0.0591 -0.0551 -0.5855
  869SOL  HW1   2606   0.308   1.288   0.735  0.8705 -1.0480  0.6376
  869SOL  HW2   2607   0.180   1.242   0.841  2.5717  0.9551 -0.9420
  870SOL  OW    2608   2.298   1.771   0.378  0.0027  0.0418 -0.3840
  870SOL  HW1   2609   2.232   1.845   0.354 -0.7866 -2.3801 -1.8852
  870SOL  HW2   2610   2.351   1.740   0.298  2.3359 -2.3018 -0.3127
  871SOL  OW    2611   1.008   1.224   1.644 -0.3307  0.2378  0.2201
  871SOL  HW1   2612   1.029   1.278   1.557 -1.3516 -0.6305  1.6440
  871SOL  HW2   2613   1.004   1.122   1.628 -0.2303 -0.0000 -0.9759
  872SOL  OW    2614   1.340   0.135   0.304  0.5224 -0.6785 -0.3097
  872SOL  HW1   2615   1.397   0.177   0.227  0.6839  0.0966 -1.7514
  872SOL  HW2   2616   1.404   0.077   0.365 -1.4014  2.2348  0.2798
  873SOL  OW    2617   0.900   0.423   2.543  0.6760 -0.0236  0.0494
  873SOL  HW1   2618   0.821   0.416   2.608  0.3590 -2.2467 -0.1944
  873SOL  HW2   2619   0.992   0.430   2.590 -0.9509 -1.0313 -0.5443
  874SOL  OW    2620   1.020   1.822   0.739 -0.4250  0.0894 -0.1163
  874SOL  HW1   2621   0.973   1.863   0.816  1.0580 -1.3185 -0.6248
  874SOL  HW2   2622   1.118   1.802   0.759  2.1763  0.9542  0.4690
  875SOL  OW    2623   0.428   2.672   0.268 -0.1223 -0.1189 -0.9359
  875SOL  HW1   2624   0.481   2.751   0.230  2.9197  2.6402  1.4114
  875SOL  HW2   2625   0.446   2.667   0.367  0.1410 -1.5317 -1.2440
  876SOL  OW    2626   0.966   0.281   2.887 -0.4953 -0.6604 -0.4778
  876SOL  HW1   2627   1.040   0.319   2.828 -0.3784 -0.5806 -3.5066
  876SOL  HW2   2628   1.003   0.235   2.973 -1.4859  0.1308  1.1817
  877SOL  OW    2629   2.448   0.094   1.806 -0.4713  0.1583 -0.2770
  877SOL  HW1   2630   2.526   0.025   1.804 -1.2786  0.5576  3.1292
  877SOL  HW2   2631   2.361   0.064   1.754  2.2167 -1.6520  2.7781
  878SOL  OW    2632   2.072   2.624   2.808 -0.3341 -0.3279 -0.3271
  878SOL  HW1   2633   2.107   2.578   2.721  1.6084  1.0421  2.5755
  878SOL  HW2   2634   2.018   2.556   2.862  2.0039  0.9810 -0.1048
  879SOL  OW    2635   2.104   1.946   2.044 -0.3307  0.4477  0.2108
  879SOL  HW1   2636   2.143   1.859   2.077 -0.8036  3.1387  0.3747
  879SOL  HW2   2637   2.010   1.955   2.075 -0.2995  0.7705 -0.3961
  880SOL  OW    2638   0.934   0.842   0.364  0.1224 -0.0028 -0.0416
  880SOL  HW1   2639   1.021   0.794   0.336  1.5313  0.8751  0.4435
  880SOL  HW2   2640   0.889   0.795   0.447  1.3609  0.6655 -0.8135
  881SOL  OW    2641   0.826   0.147   0.158  0.0381 -0.2297  0.2641
  881SOL  HW1   2642   0.789   0.111   0.070 -2.2763 -1.0213  0.2997
  881SOL  HW2   2643   0.924   0.166   0.150  1.3571  1.0839 -1.2830
  882SOL  OW    2644   1.738   0.683   0.688 -0.0704 -0.8914 -0.1001
  882SOL  HW1   2645   1.791   0.694   0.605  1.5251 -1.1863  0.3823
  882SOL  HW2   2646   1.766   0.599   0.745 -3.2411  1.6309 -1.3224
  883SOL  OW    2647   1.934   0.493   2.637  0.6240 -0.3120 -0.4129
  883SOL  HW1   2648   1.905   0.404   2.595  1.0667 -2.6930 -1.2583
  883SOL  HW2   2649   1.989   0.476   2.722  0.6228 -0.5911 -0.5305
  884SOL  OW    2650   1.932   1.086   0.246  0.4403  0.5282  0.6085
  884SOL  HW1   2651   1.929   1.125   0.339  2.6451  0.9513 -0.4446
  884SOL  HW2   2652   2.021   1.044   0.227  1.8757  0.1626  1.2769
  885SOL  OW    2653   1.617   2.269   2.953  0.0801 -0.2610 -0.1935
  885SOL  HW1   2654   1.679   2.338   2.906  1.7696 -0.3906  1.6210
  885SOL  HW2   2655   1.517   2.291   2.957  1.6408 -0.6688 -1.6056
  886SOL  OW    2656   0.713   0.357   2.945 -0.0843 -0.3790  0.3491
  886SOL  HW1   2657   0.814   0.347   2.950  0.8445 -1.2769 -0.9466
  886SOL  HW2   2658   0.673   0.263   2.961  1.0201  0.6301  2.1937
  887SOL  OW    2659   1.414   3.045   1.300 -0.1787  0.7751 -0.3014
  887SOL  HW1   2660   1.486   0.020   1.289  0.6638  1.6467 -3.6406
  887SOL  HW2   2661   1.451   2.948   1.290 -0.3107  0.7260  2.6304
  888SOL  OW    2662   2.751   1.527   1.690  0.2750 -0.1095 -0.1000
  888SOL  HW1   2663   2.729   1.617   1.644  0.0223  2.2898 -0.8822
  888SOL  HW2   2664   2.663   1.489   1.732 -0.8290 -0.6370  1.6198
  889SOL  OW    2665   2.950   2.633   1.752 -0.2328  0.0789 -0.4658
  889SOL  HW1   2666   2.852   2.600   1.739 -1.6331 -3.7319 -1.0446
  889SOL  HW2   2667   2.977   2.704   1.683 -0.2629  0.6205 -0.7971
  890SOL  OW    2668   0.302   1.745   2.230  0.3594 -0.2555 -0.2871
  890SOL  HW1   2669   0.360   1.732   2.314  1.0872 -0.7265 -0.1676
  890SOL  HW2   2670   0.363   1.733   2.152  0.9770 -0.7980  0.0422
  891SOL  OW    2671   3.053   1.295   0.628  0.9258  0.2439  0.0640
  891SOL  HW1   2672   3.009   1.212   0.593  0.8179  0.8760 -0.9308
  891SOL  HW2   2673   0.043   1.274   0.673  0.3575  0.0863  1.2702
  892SOL  OW    2674   2.036   2.152   0.957 -0.8994  0.4543 -0.3973
  892SOL  HW1   2675   2.104   2.193   1.019  1.8987  2.8913 -0.5578
  892SOL  HW2   2676   2.078   2.111   0.874  1.3403 -0.5173 -1.4752
  893SOL  OW    2677   2.538   0.528   0.953  0.5151  0.1842 -0.0750
  893SOL  HW1   2678   2.603   0.574   0.888  2.1207  2.1404  1.8305
  893SOL  HW2   2679   2.487   0.604   0.999  0.5190  0.1640 -1.1792
  894SOL  OW    2680   2.913   2.584   1.141  0.0993  0.3474 -0.1399
  894SOL  HW1   2681   2.857   2.508   1.181 -2.4244  0.2285  1.1275
  894SOL  HW2   2682   2.953   2.552   1.050 -2.5668  1.2997  0.9859
  895SOL  OW    2683   1.404   0.443   1.476 -0.7772  0.1516  0.3723
  895SOL  HW1   2684   1.306   0.471   1.456 -1.1304 -0.1858  0.3022
  895SOL  HW2   2685   1.405   0.377   1.555  0.8511  1.1491 -0.5379
  896SOL  OW    2686   0.168   0.616   1.341  0.6252 -0.2142  0.2145
  896SOL  HW1   2687   0.156   0.713   1.367 -0.8532 -1.3673 -2.0434
  896SOL  HW2   2688   0.081   0.567   1.329 -0.0117 -0.2051  0.3846
  897SOL  OW    2689   0.677   0.751   1.058 -0.1505 -0.0280 -0.2066
  897SOL  HW1   2690   0.613   0.761   0.985 -0.5261 -0.2872 -1.0512
  897SOL  HW2   2691   0.773   0.726   1.029 -2.8046 -0.0988  0.5981
  898SOL  OW    2692   0.181   0.704   2.780 -0.1730  0.2612  0.2753
  898SOL  HW1   2693   0.119   0.650   2.719 -2.1457 -1.7507 -1.8674
  898SOL  HW2   2694   0.272   0.718   2.735  2.1043  0.2433 -3.8466
  899SOL  OW    2695   2.134   0.144   3.063 -0.2631 -0.3207  0.0773
  899SOL  HW1   2696   2.083   0.223   0.004  0.3700 -0.6552 -1.8896
  899SOL  HW2   2697   2.209   0.116   0.030  0.1247  0.8005 -0.1966
  900SOL  OW    2698   1.382   0.553   1.765  0.5242  0.3261  0.4477
  900SOL  HW1   2699   1.436   0.593   1.692 -2.9287  0.6008 -0.0834
  900SOL  HW2   2700   1.391   0.600   1.857 -3.8260 -0.6132  1.1555
  901SOL  OW    2701   0.057   1.610   0.601  0.3628  0.0695  0.6144
  901SOL  HW1   2702   0.019   1.515   0.582 -0.1947  1.5293 -0.2756
  901SOL  HW2   2703   0.126   1.635   0.532 -1.1751 -0.7228  0.6387
  902SOL  OW    2704   1.488   0.413   0.422  0.1067  0.7842 -0.7068
  902SOL  HW1   2705   1.561   0.409   0.353 -1.6941 -1.5263 -0.3584
  902SOL  HW2   2706   1.492   0.336   0.487  0.6497 -0.2111  0.2388
  903SOL  OW    2707   0.182   0.934   2.934  0.7015  0.2636 -0.1209
  903SOL  HW1   2708   0.282   0.954   2.938 -1.3960  2.8196 -0.6861
  903SOL  HW2   2709   0.162   0.850   2.879 -0.0890  1.0316 -1.6654
  904SOL  OW    2710   0.856   0.720   0.596 -0.0806 -0.5258 -0.5964
  904SOL  HW1   2711   0.945   0.676   0.615 -2.6448  1.0271 -0.0657
  904SOL  HW2   2712   0.781   0.645   0.594 -0.4621 -0.1357 -0.2681
  905SOL  OW    2713   1.473   2.620   0.486 -0.0257 -0.4982  0.2827
  905SOL  HW1   2714   1.515   2.655   0.573  1.0802 -1.2848  0.7813
  905SOL  HW2   2715   1.403   2.555   0.507 -2.2990 -1.5999 -0.6861
  906SOL  OW    2716   1.952   2.149   1.321 -0.0393  0.0213  0.4192
  906SOL  HW1   2717   1.901   2.184   1.245 -2.5346  1.2827  1.0613
  906SOL  HW2   2718   1.960   2.047   1.312  0.1240 -2.0283  0.0892
  907SOL  OW    2719   2.402   1.152   0.287 -0.3756  0.8311 -0.7417
  907SOL  HW1   2720   2.504   1.132   0.283  1.8685 -0.7460  0.5249
  907SOL  HW2   2721   2.389   1.250   0.287  1.3513  1.4422  0.2419
  908SOL  OW    2722   1.645   2.540   0.863 -0.0949  0.3179 -0.0267
  908SOL  HW1   2723   1.596   2.607   0.804 -1.2524 -2.6786 -1.7559
  908SOL  HW2   2724   1.589   2.509   0.939 -1.0464 -0.9099 -0.7389
  909SOL  OW    2725   0.069   2.448   0.154 -0.5952 -0.1967 -0.0281
  909SOL  HW1   2726   0.009   2.477   0.230 -1.1117  0.6576 -1.1859
  909SOL  HW2   2727   0.129   2.523   0.122 -0.3747  2.5733  0.5640
  910SOL  OW    2728   1.572   0.233   2.452 -0.2790 -0.1097 -0.1834
  910SOL  HW1   2729   1.629   0.144   2.452 -1.7055 -0.1485  1.4939
  910SOL  HW2   2730   1.620   0.302   2.393  1.4315 -0.3958 -1.2496
  911SOL  OW    2731   1.843   2.784   2.326  1.0801 -0.0717  0.1255
  911SOL  HW1   2732   1.871   2.861   2.385 -1.5487 -0.6297 -0.3272
  911SOL  HW2   2733   1.741   2.790   2.313 -1.5758  1.6607 -1.3907
  912SOL  OW    2734   0.384   1.303   1.398 -0.5592  0.0860  0.0082
  912SOL  HW1   2735   0.433   1.380   1.442 -4.4636 -1.2212 -1.0332
  912SOL  HW2   2736   0.378   1.323   1.296  3.6308  0.1382 -1.0690
  913SOL  OW    2737   2.905   2.170   2.188 -0.2220  0.1597 -0.1027
  913SOL  HW1   2738   2.949   2.116   2.117 -0.5938  2.5511  0.3313
  913SOL  HW2   2739   2.862   2.256   2.149 -1.0549 -0.9998 -1.5285
  914SOL  OW    2740   1.227   0.494   0.430  0.3427  0.1630 -0.0879
  914SOL  HW1   2741   1.162   0.414   0.431 -2.4349 -1.3280  0.9644
  914SOL  HW2   2742   1.325   0.459   0.434  1.9146  2.4529  2.0462
  915SOL  OW    2743   2.852   1.881   1.771  0.0733  0.0122 -0.3962
  915SOL  HW1   2744   2.776   1.936   1.814 -0.1621  4.1104 -2.6814
  915SOL  HW2   2745   2.812   1.811   1.711  3.4071 -2.4325 -0.3010
  916SOL  OW    2746   1.741   2.235   1.160 -0.4674  0.0911 -0.2258
  916SOL  HW1   2747   1.653   2.264   1.198  1.2893  1.6062  0.6161
  916SOL  HW2   2748   1.727   2.215   1.057 -1.7042 -2.8627  1.7208
  917SOL  OW    2749   2.680   2.728   2.498  0.7865 -0.1261  0.2644
  917SOL  HW1   2750   2.713   2.821   2.457  1.6339  1.5473  2.1950
  917SOL  HW2   2751   2.734   2.648   2.462  2.3569 -2.0322 -0.3147
  918SOL  OW    2752   2.269   2.011   2.351  0.4493  0.5052  0.3778
  918SOL  HW1   2753   2.234   1.920   2.318  2.2896  0.0125 -0.6769
  918SOL  HW2   2754   2.320   1.995   2.434  0.3862 -0.3248 -1.8571
  919SOL  OW    2755   0.549   0.887   1.512 -0.0838  0.0210 -0.3702
  919SOL  HW1   2756   0.625   0.933   1.565  0.6837  0.1515  0.2868
  919SOL  HW2   2757   0.470   0.954   1.527 -1.1317  2.2640  1.6024
  920SOL  OW    2758   2.845   0.546   2.747 -1.3007 -0.3913 -0.2305
  920SOL  HW1   2759   2.755   0.587   2.719 -1.0928  0.6343 -0.2045
  920SOL  HW2   2760   2.829   0.447   2.769 -1.7515  2.7254  0.2851
  921SOL  OW    2761   1.904   1.714   1.496 -0.3675 -0.3012  0.3379
  921SOL  HW1   2762   1.814   1.743   1.487 -0.5157  0.3785 -0.8108
  921SOL  HW2   2763   1.941   1.730   1.589 -1.1866 -2.1637 -1.2133
  922SOL  OW    2764   2.960   1.649   0.886 -0.0105  0.1937  0.1729
  922SOL  HW1   2765   2.911   1.703   0.812  1.7764 -0.9716  3.7196
  922SOL  HW2   2766   2.998   1.715   0.952 -0.0745 -1.2722 -1.5239
  923SOL  OW    2767   0.780   2.803   0.850 -0.0322 -0.0819  0.1191
  923SOL  HW1   2768   0.801   2.751   0.767  0.9967 -0.0343 -2.2656
  923SOL  HW2   2769   0.857   2.861   0.882 -1.8361  1.3850 -2.2780
  924SOL  OW    2770   0.963   1.157   3.023  0.0075 -0.2543  0.0921
  924SOL  HW1   2771   0.920   1.225   3.087  1.5474  0.1048  1.8155
  924SOL  HW2   2772   0.957   1.064   3.065  0.7611 -1.1655  0.3388
  925SOL  OW    2773   2.271   1.887   1.375  0.0096  0.0909 -0.5970
  925SOL  HW1   2774   2.290   1.842   1.464  1.5248 -0.6080 -0.3991
  925SOL  HW2   2775   2.175   1.895   1.359  0.3877 -1.9900  1.0544
  926SOL  OW    2776   1.035   0.403   1.069  0.4123  0.2634 -0.1613
  926SOL  HW1   2777   1.056   0.376   0.975 -1.0016  0.1717  3.0900
  926SOL  HW2   2778   1.109   0.383   1.135 -0.5182 -0.0491  0.2013
  927SOL  OW    2779   0.275   2.019   2.825  0.2855  0.3120  0.3012
  927SOL  HW1   2780   0.254   1.926   2.860  1.7514  1.7901 -0.6666
  927SOL  HW2   2781   0.210   2.086   2.871  0.1810 -2.0174 -0.6766
  928SOL  OW    2782   2.758   0.619   3.047  0.1058 -0.3033  0.5397
  928SOL  HW1   2783   2.812   0.677   2.978  3.0277 -0.4237 -0.5894
  928SOL  HW2   2784   2.669   0.598   3.004  0.6189 -0.5947 -0.6843
  929SOL  OW    2785   2.186   2.299   1.328 -0.2928  0.8044 -0.2987
  929SOL  HW1   2786   2.105   2.235   1.334  0.7667  0.0741 -1.8354
  929SOL  HW2   2787   2.246   2.280   1.248 -0.0640  2.8135  0.3550
  930SOL  OW    2788   1.058   0.184   2.453  0.1341  0.6859  0.3126
  930SOL  HW1   2789   0.990   0.114   2.473  0.6667  0.9504 -0.6020
  930SOL  HW2   2790   1.009   0.275   2.453 -0.5312 -1.4294 -0.9897
  931SOL  OW    2791   2.433   1.962   2.820 -0.2161  0.3253  0.3065
  931SOL  HW1   2792   2.533   1.961   2.844 -0.6049  1.1123  1.8606
  931SOL  HW2   2793   2.369   1.996   2.891 -0.8110 -0.4691 -0.3561
  932SOL  OW    2794   1.251   0.919   0.639 -0.1671 -0.0634 -0.7154
  932SOL  HW1   2795   1.282   0.910   0.540 -3.9799 -2.1255  1.4186
  932SOL  HW2   2796   1.237   0.833   0.689  3.7589 -0.9006 -0.5817
  933SOL  OW    2797   2.177   0.657   0.647 -0.1365 -0.1478  0.2492
  933SOL  HW1   2798   2.265   0.637   0.603 -0.1043 -0.9946  2.1058
  933SOL  HW2   2799   2.134   0.568   0.674  2.2205  0.9025 -0.0091
  934SOL  OW    2800   2.072   1.374   2.416 -0.1952  0.2389  0.2190
  934SOL  HW1   2801   1.987   1.318   2.405  2.3798  0.3359  4.7651
  934SOL  HW2   2802   2.107   1.357   2.510 -2.7901  0.9948 -1.8896
  935SOL  OW    2803   3.087   1.326   1.166  0.2991 -0.1555  0.4121
  935SOL  HW1   2804   3.031   1.263   1.224  0.6140 -0.8454 -0.7715
  935SOL  HW2   2805   3.030   1.378   1.093  0.5230 -1.5420  1.7464
  936SOL  OW    2806   0.309   3.028   1.205  0.2914 -0.0855  0.1555
  936SOL  HW1   2807   0.212   2.989   1.204 -0.1705  1.9126  1.2570
  936SOL  HW2   2808   0.325   3.066   1.112  2.0922 -1.9694  0.8915
  937SOL  OW    2809   0.581   2.931   2.182  0.5537 -0.0466  0.3236
  937SOL  HW1   2810   0.531   3.015   2.203 -0.4609  4.6574 -2.5463
  937SOL  HW2   2811   0.641   2.948   2.101  0.1158 -1.6388 -0.7066
  938SOL  OW    2812   2.748   2.306   3.061 -0.0772 -0.3821 -0.8543
  938SOL  HW1   2813   2.665   2.245   3.065 -2.3724  2.4188 -0.9015
  938SOL  HW2   2814   2.755   2.361   0.054  0.3752 -1.1695 -0.2547
  939SOL  OW    2815   1.002   0.974   1.526  0.1452 -0.4808 -0.4097
  939SOL  HW1   2816   0.984   0.968   1.425  0.1151  2.4300  0.6765
  939SOL  HW2   2817   1.092   0.929   1.550 -3.5644 -0.7554 -0.6279
  940SOL  OW    2818   2.569   2.962   2.853  0.3425 -0.5017  0.2017
  940SOL  HW1   2819   2.531   2.975   2.942  0.2573 -0.6104  0.5574
  940SOL  HW2   2820   2.500   2.995   2.787  0.0381  0.8424 -1.2523
  941SOL  OW    2821   0.035   2.646   2.644  0.2610 -0.3928  0.0164
  941SOL  HW1   2822   0.108   2.593   2.594  0.4748  1.3842 -0.4254
  941SOL  HW2   2823   3.093   2.721   2.583  0.1658  0.3248 -0.8301
  942SOL  OW    2824   2.431   2.123   1.755  0.1550  0.0961  0.2424
  942SOL  HW1   2825   2.356   2.136   1.820  2.5690  0.5761 -1.4355
  942SOL  HW2   2826   2.405   2.177   1.672  1.1922 -1.2086  0.0501
  943SOL  OW    2827   1.588   0.837   2.341  0.1162  0.3853 -0.3698
  943SOL  HW1   2828   1.531   0.852   2.256  0.2203  0.6281 -1.7255
  943SOL  HW2   2829   1.570   0.741   2.380 -0.7021 -1.9221  1.7979
  944SOL  OW    2830   2.142   1.172   0.684  0.3842  0.0233  0.7564
  944SOL  HW1   2831   2.205   1.122   0.621 -3.4093 -0.7918  0.7087
  944SOL  HW2   2832   2.080   1.107   0.735 -0.4069  0.7397  1.0619
  945SOL  OW    2833   2.221   0.092   2.014  0.3174  0.0758 -0.2354
  945SOL  HW1   2834   2.292   0.064   1.947 -3.9861 -2.0444  0.3246
  945SOL  HW2   2835   2.223   0.189   2.036 -2.9175 -0.2970 -3.3572
  946SOL  OW    2836   0.707   1.861   1.889  1.0185  0.0191  0.3783
  946SOL  HW1   2837   0.672   1.906   1.975 -1.7245  0.9933 -3.0023
  946SOL  HW2   2838   0.786   1.919   1.850  1.8671  2.0034 -1.5761
  947SOL  OW    2839   0.412   0.045   0.070 -0.0103  0.0499 -0.2525
  947SOL  HW1   2840   0.315   0.030   0.045  2.0893  0.4999  1.4708
  947SOL  HW2   2841   0.418   0.127   0.129  0.1492  0.5869 -0.9487
  948SOL  OW    2842   2.070   0.851   0.493 -0.2986  0.0442 -0.0971
  948SOL  HW1   2843   2.101   0.773   0.543  1.6310  0.0849  1.9505
  948SOL  HW2   2844   2.132   0.930   0.503  2.7969 -1.5654  1.8058
  949SOL  OW    2845   0.054   1.147   2.832  0.1073  0.5406  0.2855
  949SOL  HW1   2846   0.083   1.070   2.889  0.8026 -1.2692  1.0773
  949SOL  HW2   2847   0.072   1.234   2.880  0.5004 -0.8210  2.8622
  950SOL  OW    2848   0.363   0.041   1.755 -0.7763  0.4778 -0.0907
  950SOL  HW1   2849   0.416   0.082   1.834 -1.0616  1.0099 -0.0949
  950SOL  HW2   2850   0.328   3.040   1.774 -3.8260  2.1603 -1.6035
  951SOL  OW    2851   1.348   2.312   2.921  0.0181 -0.3803  0.1073
  951SOL  HW1   2852   1.296   2.245   2.977 -1.5590  0.5589  1.4977
  951SOL  HW2   2853   1.335   2.410   2.950  2.5052  0.6539  1.5872
  952SOL  OW    2854   0.007   1.879   0.648  0.0625  0.2334  0.1844
  952SOL  HW1   2855   0.089   1.932   0.659  0.4441  0.2341  4.7414
  952SOL  HW2   2856   0.021   1.783   0.637 -2.5008 -2.6435 -2.6556
  953SOL  OW    2857   2.068   1.577   3.022 -0.7893  0.0981  0.5564
  953SOL  HW1   2858   2.048   1.612   0.017 -3.1847  1.1586 -2.9754
  953SOL  HW2   2859   2.129   1.497   3.029  1.0878 -2.0561 -0.1505
  954SOL  OW    2860   1.754   2.903   0.700 -0.3889  0.2634 -0.0821
  954SOL  HW1   2861   1.848   2.894   0.742  0.0774  0.2133  0.5822
  954SOL  HW2   2862   1.754   2.956   0.615 -1.1970 -1.1225  0.1446
  955SOL  OW    2863   0.394   1.318   2.827 -0.4247  0.0183 -0.2254
  955SOL  HW1   2864   0.494   1.323   2.853 -2.2576 -0.0156 -1.4476
  955SOL  HW2   2865   0.375   1.351   2.730 -3.7144  1.2174 -1.4108
  956SOL  OW    2866   0.266   0.695   1.695  0.5276 -0.3222  0.3172
  956SOL  HW1   2867   0.170   0.727   1.693 -2.2961  0.4825  0.7772
  956SOL  HW2   2868   0.275   0.594   1.715  0.0563  1.7864 -3.2774
  957SOL  OW    2869   1.717   1.563   2.384 -0.0157  0.2982 -0.4237
  957SOL  HW1   2870   1.681   1.602   2.471 -1.3888  0.3243  1.8894
  957SOL  HW2   2871   1.780   1.623   2.335  0.0638  0.2193  1.7892
  958SOL  OW    2872   1.782   1.047   1.677 -0.2379  0.2859  0.2606
  958SOL  HW1   2873   1.881   1.078   1.689 -0.4234  0.9496 -4.2330
  958SOL  HW2   2874   1.748   1.084   1.589 -2.9839 -2.4412  1.2666
  959SOL  OW    2875   1.962   1.737   2.627  0.0153  0.0202 -0.2786
  959SOL  HW1   2876   1.884   1.802   2.606  0.7651 -1.4599  1.1201
  959SOL  HW2   2877   1.930   1.666   2.692 -0.2398  2.0391 -0.0350
  960SOL  OW    2878   1.200   1.281   2.990 -0.1759 -0.5818  0.4689
  960SOL  HW1   2879   1.124   1.215   2.997 -2.2418 -1.3482 -1.3936
  960SOL  HW2   2880   1.196   1.349   3.069 -0.2558 -1.2929 -2.1234
  961SOL  OW    2881   2.744   2.373   0.844 -0.0526  0.5553  0.0052
  961SOL  HW1   2882   2.732   2.300   0.779 -0.3036  1.9561 -0.9582
  961SOL  HW2   2883   2.798   2.446   0.803  0.0271  0.7558  0.1769
  962SOL  OW    2884   1.256   0.641   3.094 -0.1458  0.3013 -0.7377
  962SOL  HW1   2885   1.177   0.701   3.074  0.7785 -2.9973 -2.0656
  962SOL  HW2   2886   1.340   0.677   3.045  1.7010  0.4508 -0.4431
  963SOL  OW    2887   2.456   1.692   0.154  0.0833  0.4605 -0.9435
  963SOL  HW1   2888   2.543   1.666   0.200 -2.2183 -0.5780  0.0880
  963SOL  HW2   2889   2.473   1.687   0.052 -0.6242  1.5847  0.1866
  964SOL  OW    2890   0.329   2.259   2.210 -0.5193 -0.1720 -0.5695
  964SOL  HW1   2891   0.239   2.288   2.248  0.8010  0.4316 -0.6111
  964SOL  HW2   2892   0.373   2.340   2.157 -1.1104  0.5820 -2.7264
  965SOL  OW    2893   1.655   1.452   1.304  0.2842 -0.3240 -0.1384
  965SOL  HW1   2894   1.722   1.440   1.225 -0.1703 -0.7869 -0.9015
  965SOL  HW2   2895   1.709   1.446   1.389  1.0661  0.9248 -1.5492
  966SOL  OW    2896   3.084   1.815   1.043 -0.7953  0.7457  0.0092
  966SOL  HW1   2897   0.045   1.883   0.992 -1.9261 -1.2390  1.8820
  966SOL  HW2   2898   0.039   1.770   1.116  1.4097 -0.1841 -2.6455
  967SOL  OW    2899   2.325   2.240   2.929 -0.3033 -0.1080  0.1292
  967SOL  HW1   2900   2.319   2.340   2.922  1.0533  3.5452  1.5285
  967SOL  HW2   2901   2.304   2.205   2.835 -0.5103  0.2608  0.3198
  968SOL  OW    2902   1.017   0.882   2.783  0.2978  0.1588 -0.0900
  968SOL  HW1   2903   1.016   0.986   2.774  0.8984  1.1473 -0.8671
  968SOL  HW2   2904   0.945   0.846   2.724  2.2413 -0.6677  1.7274
  969SOL  OW    2905   2.835   1.247   0.164  0.1848  0.2232 -0.0098
  969SOL  HW1   2906   2.770   1.242   0.086 -1.4633 -2.0131  1.2351
  969SOL  HW2   2907   2.885   1.336   0.167  1.5629 -1.7830  2.0044
  970SOL  OW    2908   1.668   0.431   0.222  0.2782  0.7047  0.1512
  970SOL  HW1   2909   1.650   0.433   0.123 -1.5709 -0.6070  2.1520
  970SOL  HW2   2910   1.763   0.457   0.254 -0.4229 -1.8625  2.2398
  971SOL  OW    2911   1.828   2.554   1.435  0.0670 -0.9729  0.7466
  971SOL  HW1   2912   1.802   2.455   1.449  1.7269 -2.2621 -0.8130
  971SOL  HW2   2913   1.748   2.612   1.409 -0.0976  2.8780  0.1028
  972SOL  OW    2914   3.042   2.199   2.592 -0.4961 -0.1584  0.5326
  972SOL  HW1   2915   3.009   2.286   2.638  1.3554  1.0739  1.5316
  972SOL  HW2   2916   2.969   2.160   2.536  0.4362 -2.7204 -0.8506
  973SOL  OW    2917   0.650   0.094   3.031 -0.0013 -0.1300  0.2107
  973SOL  HW1   2918   0.666   0.007   2.975 -2.4716 -1.4479 -0.9885
  973SOL  HW2   2919   0.558   0.086   3.074 -0.1296 -0.9506  0.0856
  974SOL  OW    2920   2.098   0.511   1.519 -0.1867  0.3386 -0.1889
  974SOL  HW1   2921   2.148   0.499   1.434  1.9438  1.1135  1.7678
  974SOL  HW2   2922   2.018   0.450   1.527  0.7474  0.7150  0.7318
  975SOL  OW    2923   2.660   0.692   1.306  0.3313 -0.0556  0.9747
  975SOL  HW1   2924   2.602   0.778   1.287  0.4643 -1.9937  0.1755
  975SOL  HW2   2925   2.728   0.673   1.231 -2.4930 -0.3832  0.4234
  976SOL  OW    2926   0.087   1.740   2.042  0.7294  0.1029  0.1095
  976SOL  HW1   2927   0.136   1.670   1.986  0.6873 -0.2152  0.8260
  976SOL  HW2   2928   0.155   1.782   2.106  2.4342 -0.7159  1.9234
  977SOL  OW    2929   2.167   0.853   2.690 -0.2038 -0.0779  0.8447
  977SOL  HW1   2930   2.208   0.816   2.604 -3.2064  0.4573 -0.8243
  977SOL  HW2   2931   2.071   0.820   2.703  0.8467  3.5709 -3.1859
  978SOL  OW    2932   2.730   0.834   0.378  0.2631  0.1525  0.3962
  978SOL  HW1   2933   2.798   0.762   0.396  0.8619 -2.2716 -1.1079
  978SOL  HW2   2934   2.687   0.824   0.284  1.6527  0.3983  1.2959
  979SOL  OW    2935   1.840   0.745   3.079  0.0157 -0.0907 -0.1006
  979SOL  HW1   2936   1.789   0.773   0.066  0.7169  2.1070  1.3996
  979SOL  HW2   2937   1.813   0.806   3.003 -1.6030 -3.9012 -0.6504
  980SOL  OW    2938   0.752   1.813   2.296 -0.0020  0.3649  0.0371
  980SOL  HW1   2939   0.754   1.724   2.243 -1.0771  0.9343 -1.3631
  980SOL  HW2   2940   0.820   1.807   2.376  0.1557  0.1440  1.1884
  981SOL  OW    2941   1.880   1.466   1.132 -0.7369 -0.2397  0.2987
  981SOL  HW1   2942   1.881   1.432   1.037  0.9935 -0.4158 -0.6181
  981SOL  HW2   2943   1.978   1.469   1.161  1.7683  0.5714  1.2966
  982SOL  OW    2944   1.063   2.548   1.744  0.0650 -0.7180 -0.2653
  982SOL  HW1   2945   1.067   2.621   1.819  1.8027 -1.6975  3.5065
  982SOL  HW2   2946   0.970   2.538   1.704  0.4216 -5.8705 -0.4100
  983SOL  OW    2947   1.439   0.034   1.978  0.3784  0.6049  0.3196
  983SOL  HW1   2948   1.428   3.083   2.071  0.0873 -0.3070 -0.3608
  983SOL  HW2   2949   1.540   0.054   1.956  1.2046 -0.8740  1.8923
  984SOL  OW    2950   3.095   0.194   0.006  0.4224 -0.4277 -0.1574
  984SOL  HW1   2951   3.086   0.242   0.096 -0.9892  0.3501  2.6431
  984SOL  HW2   2952   0.061   0.118   0.005 -1.7808  1.4985  1.3595
  985SOL  OW    2953   0.859   0.902   2.085  0.2553  0.5196  0.1062
  985SOL  HW1   2954   0.904   0.838   2.149 -0.6561  1.0078 -0.8434
  985SOL  HW2   2955   0.787   0.855   2.031 -0.8113  0.6959 -0.3954
  986SOL  OW    2956   2.180   0.787   0.233  0.1364  0.3281  0.5489
  986SOL  HW1   2957   2.193   0.880   0.210  0.9365 -0.0532 -0.3606
  986SOL  HW2   2958   2.121   0.776   0.311 -3.0240 -0.2634 -1.1147
  987SOL  OW    2959   0.683   1.677   3.091  0.1802  0.5088 -0.3379
  987SOL  HW1   2960   0.736   1.724   0.067 -0.9442  1.0696 -2.0434
  987SOL  HW2   2961   0.614   1.617   0.043 -0.6211  1.4893  1.9974
  988SOL  OW    2962   3.095   0.842   1.796 -0.6423  1.5962 -0.3273
  988SOL  HW1   2963   0.008   0.891   1.888 -0.0661 -0.7610 -0.2418
  988SOL  HW2   2964   2.998   0.818   1.776  0.7384  2.9451  2.4425
  989SOL  OW    2965   1.931   2.777   1.083 -0.5258  0.0556  0.1142
  989SOL  HW1   2966   1.928   2.676   1.083 -1.7831  0.8955 -1.1403
  989SOL  HW2   2967   1.965   2.809   1.170  0.6427 -0.1230  1.9073
  990SOL  OW    2968   3.071   0.864   0.599 -0.6096 -0.2459 -0.1334
  990SOL  HW1   2969   0.076   0.873   0.565  3.9739 -1.5615 -0.7426
  990SOL  HW2   2970   3.013   0.941   0.563  0.3722  0.7612  0.1950
  991SOL  OW    2971   0.141   1.882   1.464 -0.8363  0.1857  0.3036
  991SOL  HW1   2972   0.111   1.860   1.557  0.2731 -2.4786  2.1855
  991SOL  HW2   2973   0.070   1.932   1.412  1.8855  0.2947  0.9859
  992SOL  OW    2974   1.259   2.982   1.825  0.0582  0.4237 -0.2154
  992SOL  HW1   2975   1.180   3.049   1.824 -0.9570 -2.4270  0.0697
  992SOL  HW2   2976   1.340   3.019   1.870 -0.8381  1.7602  0.1711
  993SOL  OW    2977   2.619   0.123   1.095 -0.6495  0.8780  0.0613
  993SOL  HW1   2978   2.641   0.050   1.027  0.1694  1.1021  3.3029
  993SOL  HW2   2979   2.652   0.100   1.192 -1.2668  1.0535 -2.2418
  994SOL  OW    2980   0.280   1.849   1.822  0.2641  0.3822  0.6749
  994SOL  HW1   2981   0.280   1.949   1.856  0.5384  0.0120  0.5775
  994SOL  HW2   2982   0.197   1.823   1.774 -0.4662  2.8741  0.0235
  995SOL  OW    2983   3.076   0.635   2.614  0.5771 -0.3022  0.3906
  995SOL  HW1   2984   2.990   0.601   2.655  0.0561 -1.5513  1.0679
  995SOL  HW2   2985   3.069   0.732   2.583 -0.3208 -2.7257  0.7848
  996SOL  OW    2986   2.784   2.437   0.461 -0.1994 -0.1748  0.3207
  996SOL  HW1   2987   2.792   2.337   0.444  0.5802  0.0278 -1.8121
  996SOL  HW2   2988   2.687   2.450   0.483 -3.4724  0.5954 -0.6233
  997SOL  OW    2989   0.949   1.069   2.506 -0.0739  0.1152 -0.5667
  997SOL  HW1   2990   0.961   1.128   2.585 -0.6859 -1.8976  1.6766
  997SOL  HW2   2991   0.860   1.015   2.515 -3.8260 -2.8404 -0.6253
  998SOL  OW    2992   2.604   2.251   1.066 -0.3856 -0.3330 -0.5230
  998SOL  HW1   2993   2.640   2.157   1.045 -0.2529  0.3772 -1.5150
  998SOL  HW2   2994   2.659   2.324   1.026 -0.2235 -1.4725  1.2573
  999SOL  OW    2995   1.636   0.052   3.064  0.1149 -0.4186 -0.2570
  999SOL  HW1   2996   1.664   0.085   2.971  2.6315 -0.6145  0.9847
  999SOL  HW2   2997   1.705   3.086   0.012  0.3789 -1.2032  0.1788
 1000SOL  OW    2998   1.081   0.204   0.019  0.1582  0.0590 -0.4475
 1000SOL  HW1   2999   1.144   0.280   0.021 -0.6545 -3.1248 -0.6018
 1000SOL  HW2   3000   1.126   0.115   0.040  0.4708  0.6060 -1.6174
    3.095540047     3.095540047     3.095540047     0.000000000     0.000000000     0.000000000     0.000000000     0.000000000     0.000000000
