977 TIP4P/2005f water molecules t=   1.81000 step= 1810
 3908
    1SOL     OW    1   0.383   0.767   0.094 -0.1962 -0.2744  0.1003
    1SOL    HW1    2   0.323   0.707   0.051  0.5026  1.7371 -0.2452
    1SOL    HW2    3   0.412   0.720   0.172  3.1787  0.9568  1.5388
    1SOL     MW    4   0.379   0.753   0.099  0.3413  0.1534  0.2445
    2SOL     OW    5   0.289   2.991   1.097 -0.5771 -0.2918 -0.0047
    2SOL    HW1    6   0.341   3.070   1.079  0.7790  0.0058 -1.6258
    2SOL    HW2    7   0.200   3.028   1.095  0.3814 -0.5980  1.4701
    2SOL     MW    8   0.284   3.006   1.095 -0.2717 -0.2930 -0.0240
    3SOL     OW    9   2.687   0.341   0.957  0.5181 -0.5731 -0.7011
    3SOL    HW1   10   2.717   0.421   0.899 -0.3282 -0.9539 -1.5023
    3SOL    HW2   11   2.678   0.382   1.054  0.0659  1.1235  3.6398
    3SOL     MW   12   2.689   0.357   0.962  0.3468 -0.3995 -0.2341
    4SOL     OW   13   2.934   1.699   0.538  0.1995  0.3646  0.0791
    4SOL    HW1   14   2.866   1.763   0.549  0.6254  0.9714  1.4656
    4SOL    HW2   15   2.994   1.718   0.466  1.4475  0.3238 -0.3003
    4SOL     MW   16   2.933   1.710   0.530  0.4204  0.4393  0.2119
    5SOL     OW   17   1.608   1.426   0.611  0.1757  0.5063 -0.2561
    5SOL    HW1   18   1.641   1.429   0.701  0.1343  2.3098  0.8109
    5SOL    HW2   19   1.517   1.443   0.621 -1.3322  1.1256  1.9005
    5SOL     MW   20   1.601   1.429   0.624 -0.0287  0.8259  0.1692
    6SOL     OW   21   0.792   1.426   0.606 -0.4486 -0.2852 -0.1815
    6SOL    HW1   22   0.702   1.423   0.626  1.5940  0.3193 -2.0589
    6SOL    HW2   23   0.823   1.343   0.648  0.7685 -1.3864  0.1800
    6SOL     MW   24   0.784   1.415   0.614 -0.0185 -0.3507 -0.3815
    7SOL     OW   25   1.953   1.030   0.026  0.3738  0.1018 -0.1024
    7SOL    HW1   26   2.031   1.088   0.021 -1.4265  0.0739  3.2306
    7SOL    HW2   27   1.928   1.023   0.119 -1.4975  0.4380  4.0783
    7SOL     MW   28   1.960   1.037   0.038 -0.1106  0.1425  0.8889
    8SOL     OW   29   0.820   1.413   1.011  0.0426 -0.6451 -0.6671
    8SOL    HW1   30   0.879   1.476   1.060  2.1278 -1.1243  1.7316
    8SOL    HW2   31   0.804   1.354   1.080  1.1034 -0.7089 -2.0691
    8SOL     MW   32   0.826   1.413   1.027  0.4576 -0.7168 -0.5356
    9SOL     OW   33   0.911   0.531   1.315 -0.8019  0.4287 -0.3142
    9SOL    HW1   34   0.855   0.453   1.295 -1.1879  1.3780  0.1200
    9SOL    HW2   35   0.979   0.490   1.370  0.0794  0.8323 -0.0533
    9SOL     MW   36   0.913   0.515   1.320 -0.7366  0.6072 -0.2225
   10SOL     OW   37   0.313   0.820   0.493 -0.0078 -0.2029  0.4732
   10SOL    HW1   38   0.407   0.850   0.493  1.4500 -0.7812 -0.9971
   10SOL    HW2   39   0.276   0.863   0.576 -0.0388  0.2020 -0.1629
   10SOL     MW   40   0.320   0.829   0.504  0.1804 -0.2258  0.1953
   11SOL     OW   41   0.762   1.118   1.476 -0.6860  0.3910  0.8788
   11SOL    HW1   42   0.828   1.129   1.545  3.3609 -0.3675 -0.7827
   11SOL    HW2   43   0.767   1.028   1.432 -1.6718 -2.5247  1.7462
   11SOL     MW   44   0.772   1.107   1.479 -0.2821 -0.0938  0.7741
   12SOL     OW   45   0.062   1.082   0.918 -0.3933  0.3382 -0.0035
   12SOL    HW1   46   0.104   1.158   0.953 -1.1305 -1.0771  2.4569
   12SOL    HW2   47  -0.004   1.117   0.847 -0.0695  0.7945 -0.6802
   12SOL     MW   48   0.059   1.096   0.913 -0.4479  0.2117  0.2318
   13SOL     OW   49   1.826   1.411   1.327  0.9022 -0.3505  0.3015
   13SOL    HW1   50   1.861   1.329   1.283  0.2511  0.9344 -1.4953
   13SOL    HW2   51   1.896   1.479   1.319 -1.5934  2.3145  2.2524
   13SOL     MW   52   1.840   1.409   1.320  0.4870  0.1706  0.3218
   14SOL     OW   53   0.584   0.284   1.822  0.0090 -0.8662 -0.1583
   14SOL    HW1   54   0.554   0.237   1.741  1.5214  2.5747 -1.8473
   14SOL    HW2   55   0.681   0.295   1.813 -0.0753  2.1379  0.1948
   14SOL     MW   56   0.593   0.279   1.810  0.1974 -0.0159 -0.3345
   15SOL     OW   57   2.049   0.442   0.959  0.2485 -0.2528 -0.5107
   15SOL    HW1   58   2.078   0.508   1.025  1.6095 -0.5309 -2.1049
   15SOL    HW2   59   2.083   0.479   0.877  1.5739  2.0922  0.6334
   15SOL     MW   60   2.057   0.456   0.957  0.6029  0.0199 -0.5701
   16SOL     OW   61   0.218   1.842   0.262 -1.2356 -0.3940 -0.5877
   16SOL    HW1   62   0.305   1.814   0.257 -3.3409  1.0688 -0.2122
   16SOL    HW2   63   0.236   1.929   0.307 -1.0831 -0.5067  0.7430
   16SOL     MW   64   0.232   1.850   0.268 -1.4933 -0.2159 -0.3626
   17SOL     OW   65   1.116   0.888   1.417  0.2075  0.5794 -0.2460
   17SOL    HW1   66   1.138   0.862   1.505 -1.7728  0.6615  0.3974
   17SOL    HW2   67   1.016   0.889   1.411  0.4516 -0.2544 -0.4038
   17SOL     MW   68   1.106   0.885   1.428 -0.0216  0.4802 -0.1819
   18SOL     OW   69   0.054   1.654   0.359  0.3615  0.0248 -0.0344
   18SOL    HW1   70   0.110   1.733   0.338 -0.5217 -1.1868  1.7063
   18SOL    HW2   71   0.024   1.606   0.281 -0.5994  1.1984  0.5988
   18SOL     MW   72   0.058   1.658   0.346  0.1182  0.0198  0.2788
   19SOL     OW   73   0.095   1.355   0.966 -0.2719  0.1467 -0.1962
   19SOL    HW1   74   0.103   1.376   0.873 -1.0583 -0.6972 -1.7165
   19SOL    HW2   75  -0.000   1.349   0.980 -2.1858  1.5769 -0.8146
   19SOL     MW   76   0.083   1.357   0.955 -0.6282  0.2241 -0.4784
   20SOL     OW   77   0.449   2.119   1.265  0.1745  0.1421  0.2527
   20SOL    HW1   78   0.420   2.048   1.208 -1.9929 -0.7414  1.4489
   20SOL    HW2   79   0.395   2.117   1.346 -0.5819 -1.0013 -1.9612
   20SOL     MW   80   0.438   2.109   1.268 -0.2113 -0.1253  0.1184
   21SOL     OW   81   0.557   0.912   0.440  0.2154  0.3593  0.4895
   21SOL    HW1   82   0.609   0.965   0.505 -0.7177 -2.6824 -1.3308
   21SOL    HW2   83   0.611   0.907   0.360 -0.9780  2.7284 -2.1691
   21SOL     MW   84   0.571   0.918   0.438 -0.0652  0.2706 -0.1014
   22SOL     OW   85   1.546   0.718   1.011  0.2938  0.2124 -0.6236
   22SOL    HW1   86   1.568   0.708   0.919 -0.7511 -0.6528 -1.2055
   22SOL    HW2   87   1.463   0.766   1.004 -3.1803 -0.9774 -1.6115
   22SOL     MW   88   1.538   0.723   0.998 -0.3024 -0.0587 -0.8307
   23SOL     OW   89   3.067   0.815   0.688  0.5162 -0.1341 -0.4768
   23SOL    HW1   90   3.115   0.753   0.747 -0.0957 -0.5630  3.1661
   23SOL    HW2   91   3.144   0.873   0.666  0.9341  1.7308 -1.0746
   23SOL     MW   92   3.083   0.815   0.693  0.4906  0.0554 -0.0750
   24SOL     OW   93   2.087   2.129   0.071 -0.2322  0.0044 -0.1518
   24SOL    HW1   94   2.038   2.111   0.153  1.0233  1.3510  0.4250
   24SOL    HW2   95   2.082   2.044   0.033 -2.3761  1.2604  1.3103
   24SOL     MW   96   2.080   2.115   0.076 -0.3494  0.3478  0.1172
   25SOL     OW   97   0.238   1.447   0.400 -0.0373  0.4268 -0.5246
   25SOL    HW1   98   0.176   1.532   0.415  1.9422  0.9037 -0.7789
   25SOL    HW2   99   0.240   1.426   0.303 -1.5708 -2.5801  3.1858
   25SOL     MW  100   0.230   1.456   0.389  0.0216  0.0930 -0.0686
   26SOL     OW  101   1.979   1.029   0.306 -0.1384 -0.0559  0.3195
   26SOL    HW1  102   1.938   1.060   0.391 -1.0482 -1.5003  0.2946
   26SOL    HW2  103   2.036   1.100   0.274  0.2268 -0.9175 -1.2963
   26SOL     MW  104   1.981   1.043   0.313 -0.2103 -0.3602  0.1030
   27SOL     OW  105   1.862   1.366   0.132 -0.2020  0.0380 -0.6192
   27SOL    HW1  106   1.814   1.447   0.145 -0.1802 -0.3838  0.0456
   27SOL    HW2  107   1.925   1.372   0.204 -1.8891  0.6447 -0.8175
   27SOL     MW  108   1.864   1.378   0.143 -0.4217  0.0624 -0.5576
   28SOL     OW  109   0.442   0.938   2.050 -0.0932 -0.2462 -0.1518
   28SOL    HW1  110   0.490   0.902   2.121 -0.0879 -0.9805  0.4964
   28SOL    HW2  111   0.354   0.913   2.078  0.3557  2.6346  0.6909
   28SOL     MW  112   0.436   0.930   2.063 -0.0332  0.0370  0.0449
   29SOL     OW  113   0.165   1.445   0.706  0.2516 -0.1245 -0.2280
   29SOL    HW1  114   0.183   1.540   0.690 -0.4897 -1.1841 -2.0369
   29SOL    HW2  115   0.200   1.396   0.633  1.7199 -0.4883  1.5113
   29SOL     MW  116   0.172   1.451   0.695  0.3475 -0.3123 -0.2372
   30SOL     OW  117   0.732   1.271   1.242 -0.4031  0.0444 -0.1859
   30SOL    HW1  118   0.649   1.257   1.285  0.8516  0.6221 -0.9200
   30SOL    HW2  119   0.795   1.219   1.295 -1.0939 -0.7108 -2.9472
   30SOL     MW  120   0.730   1.262   1.254 -0.3287  0.0210 -0.6471
   31SOL     OW  121   0.496   0.238   0.206 -0.3287  0.3931 -0.5019
   31SOL    HW1  122   0.524   0.161   0.260 -3.4654  3.0341 -0.4997
   31SOL    HW2  123   0.478   0.196   0.121  0.5268 -0.1620  0.8577
   31SOL     MW  124   0.498   0.222   0.202 -0.6297  0.6683 -0.3222
   32SOL     OW  125   2.739   0.985   1.075  0.7972  0.3023  0.4046
   32SOL    HW1  126   2.685   0.934   1.126 -0.8702  0.6668 -2.2689
   32SOL    HW2  127   2.834   0.942   1.082  1.3015 -1.0861  1.2130
   32SOL     MW  128   2.744   0.972   1.082  0.6437  0.1672  0.1585
   33SOL     OW  129   1.610   1.223   0.420  0.4662 -0.0812 -0.2778
   33SOL    HW1  130   1.701   1.222   0.446 -2.0940 -1.2544  1.8391
   33SOL    HW2  131   1.565   1.272   0.486 -2.2784  0.3552 -1.9594
   33SOL     MW  132   1.616   1.230   0.432 -0.2337 -0.1784 -0.2204
   34SOL     OW  133   1.127   1.982   1.173 -0.0437  0.4685  0.4740
   34SOL    HW1  134   1.074   2.022   1.242  1.3890 -0.1356  4.5664
   34SOL    HW2  135   1.213   1.994   1.195 -0.7246  0.5273  0.7615
   34SOL     MW  136   1.132   1.989   1.185  0.0555  0.3966  1.0518
   35SOL     OW  137   0.325   0.139   1.678 -0.2542  0.1110 -0.2234
   35SOL    HW1  138   0.297   0.103   1.760 -0.2808  1.7025 -0.2683
   35SOL    HW2  139   0.272   0.102   1.604 -0.9510  0.0449  0.2278
   35SOL     MW  140   0.314   0.130   1.679 -0.3496  0.3123 -0.1698
   36SOL     OW  141   1.942   1.993   0.594  0.7275 -0.0034 -0.4499
   36SOL    HW1  142   1.920   1.997   0.507 -1.0624 -0.9480  0.1531
   36SOL    HW2  143   1.967   1.900   0.622 -1.8657  0.3384  0.8402
   36SOL     MW  144   1.943   1.981   0.586  0.1492 -0.0829 -0.2001
   37SOL     OW  145   1.743   2.073   0.948 -0.6886  0.3016  0.0408
   37SOL    HW1  146   1.708   2.006   0.881 -0.4451  0.4452 -0.7481
   37SOL    HW2  147   1.669   2.092   1.001  0.9121  0.1060 -4.7230
   37SOL     MW  148   1.729   2.067   0.946 -0.4453  0.2947 -0.6918
   38SOL     OW  149   2.801   0.975   0.023  0.2410  0.5509  0.3370
   38SOL    HW1  150   2.813   0.972   0.119 -1.5476  3.4177 -0.9756
   38SOL    HW2  151   2.894   0.992  -0.018  1.1692 -0.0033 -0.3836
   38SOL     MW  152   2.815   0.977   0.030  0.1275  0.8560  0.0687
   39SOL     OW  153   1.540   0.664   0.731  0.6511 -0.3149  0.0204
   39SOL    HW1  154   1.526   0.569   0.752  1.2066  0.2171 -2.4489
   39SOL    HW2  155   1.454   0.700   0.710  2.7376 -1.0584  1.3356
   39SOL     MW  156   1.527   0.656   0.731  0.9997 -0.3428 -0.1318
   40SOL     OW  157   1.275   1.869   0.245  0.0665  0.0787 -0.4457
   40SOL    HW1  158   1.323   1.796   0.287 -1.7466  0.2397  0.8148
   40SOL    HW2  159   1.268   1.931   0.320 -0.9782  0.2764 -1.5089
   40SOL     MW  160   1.280   1.867   0.260 -0.3106  0.1260 -0.4196
   41SOL     OW  161   0.516   0.489   1.580 -0.3194  0.0566  0.4297
   41SOL    HW1  162   0.588   0.549   1.544  1.9211  3.9645  0.5340
   41SOL    HW2  163   0.435   0.533   1.591  0.0570  0.3130  4.1999
   41SOL     MW  164   0.515   0.503   1.577  0.0258  0.6060  0.9409
   42SOL     OW  165   1.235   2.891   2.001  0.0444  0.3420  0.0803
   42SOL    HW1  166   1.172   2.920   2.062  2.0732 -1.9343 -2.0544
   42SOL    HW2  167   1.316   2.852   2.045  1.0116 -1.1173 -0.0869
   42SOL     MW  168   1.238   2.889   2.015  0.4397 -0.1509 -0.2234
   43SOL     OW  169   1.393   0.120   1.699 -0.3718  0.1339  0.2513
   43SOL    HW1  170   1.467   0.076   1.653 -0.0831 -1.1161 -1.6012
   43SOL    HW2  171   1.310   0.080   1.673  0.1226  1.7371 -2.7705
   43SOL     MW  172   1.392   0.109   1.690 -0.2685  0.1805 -0.3918
   44SOL     OW  173   1.218   0.842   0.958 -0.3817 -0.2448 -0.0195
   44SOL    HW1  174   1.175   0.922   0.986  1.8692  0.0983  1.0645
   44SOL    HW2  175   1.172   0.777   1.011 -2.3191  2.3539  0.5547
   44SOL     MW  176   1.206   0.844   0.969 -0.3404  0.1434  0.1993
   45SOL     OW  177   1.294   0.804   0.701  0.2898  0.1388 -0.4377
   45SOL    HW1  178   1.251   0.810   0.787  1.2545  1.8362  1.2840
   45SOL    HW2  179   1.235   0.760   0.629  0.6213 -1.6849 -2.5216
   45SOL     MW  180   1.281   0.799   0.703  0.4608  0.1222 -0.4855
   46SOL     OW  181   0.420   1.126   0.674 -0.0536  0.1569 -0.1576
   46SOL    HW1  182   0.462   1.163   0.599  0.5171 -0.6881  0.6583
   46SOL    HW2  183   0.429   1.201   0.737 -1.3545  1.3945  0.3950
   46SOL     MW  184   0.427   1.141   0.672 -0.1500  0.2087  0.0229
   47SOL     OW  185   0.090   1.969   1.960  0.1638 -0.2911 -0.1337
   47SOL    HW1  186   0.090   1.885   1.921  1.1371  0.7573  1.2193
   47SOL    HW2  187   0.145   1.959   2.039  0.4441 -0.5116  3.1598
   47SOL     MW  188   0.097   1.957   1.965  0.3292 -0.1819  0.4794
   48SOL     OW  189   1.248   0.494   1.023  0.6805  0.0051  0.7372
   48SOL    HW1  190   1.201   0.432   0.966 -0.0050 -0.8767  1.1870
   48SOL    HW2  191   1.196   0.556   1.074  0.3736  0.8080 -0.1451
   48SOL     MW  192   1.235   0.494   1.022  0.5495 -0.0053  0.6801
   49SOL     OW  193   1.710   0.732   1.547  0.4401  0.2868  0.2089
   49SOL    HW1  194   1.768   0.682   1.604  1.2801  0.8371 -3.1791
   49SOL    HW2  195   1.739   0.699   1.463  0.8311  1.2803  0.6626
   49SOL     MW  196   1.721   0.721   1.543  0.6025  0.4905 -0.1782
   50SOL     OW  197   1.320   1.198   0.646 -0.0062 -0.0323  0.0316
   50SOL    HW1  198   1.230   1.191   0.697 -1.0540 -1.9855 -1.3104
   50SOL    HW2  199   1.373   1.122   0.662 -1.9786 -0.0807  0.6758
   50SOL     MW  200   1.315   1.187   0.655 -0.4047 -0.2964 -0.0605
   51SOL     OW  201   0.348   2.882   0.854 -0.1534  0.6693 -0.3537
   51SOL    HW1  202   0.428   2.835   0.885  0.5657 -1.6670  0.3687
   51SOL    HW2  203   0.295   2.896   0.934  2.4761 -0.7929  1.9172
   51SOL     MW  204   0.352   2.878   0.868  0.2884  0.1681  0.0413
   52SOL     OW  205   0.787   1.830   0.486  0.1513  0.2996  0.0896
   52SOL    HW1  206   0.752   1.919   0.498  0.8158  0.7341 -0.9027
   52SOL    HW2  207   0.780   1.796   0.398  1.1954 -1.2803 -0.1677
   52SOL     MW  208   0.782   1.837   0.476  0.3767  0.1485 -0.0753
   53SOL     OW  209   0.490   2.164   0.582  0.3581 -0.3051  0.1462
   53SOL    HW1  210   0.409   2.125   0.543  0.0583 -0.4354 -0.6051
   53SOL    HW2  211   0.480   2.259   0.568  0.0034  1.7038  0.0535
   53SOL     MW  212   0.478   2.172   0.575  0.2718 -0.0572  0.0349
   54SOL     OW  213   2.031   0.989   0.728  0.2321  0.4228 -0.4236
   54SOL    HW1  214   2.108   0.972   0.673  1.6103 -0.3111  2.0977
   54SOL    HW2  215   1.982   0.909   0.719  0.6979 -0.0679  0.6094
   54SOL     MW  216   2.034   0.976   0.719  0.4754  0.2612  0.0453
   55SOL     OW  217   0.423   1.527   1.731  0.3556 -0.0163  0.3189
   55SOL    HW1  218   0.368   1.556   1.654 -0.9397  0.3070 -0.9360
   55SOL    HW2  219   0.499   1.494   1.688 -2.2136 -2.5510  2.4658
   55SOL     MW  220   0.426   1.526   1.715 -0.1543 -0.3081  0.4366
   56SOL     OW  221   0.653   0.916   0.159  0.3971 -0.0941  0.6633
   56SOL    HW1  222   0.670   1.002   0.118  0.2841  1.1707 -1.5504
   56SOL    HW2  223   0.571   0.879   0.127  1.6599  1.2718  0.1404
   56SOL     MW  224   0.645   0.923   0.150  0.5488  0.2530  0.3022
   57SOL     OW  225   1.112   1.309   1.167 -0.0165  0.5054  0.4570
   57SOL    HW1  226   1.207   1.316   1.182 -1.2225  0.4975  1.4852
   57SOL    HW2  227   1.089   1.271   1.256 -1.5151 -0.5809  0.8972
   57SOL     MW  228   1.121   1.305   1.181 -0.3734  0.3611  0.6507
   58SOL     OW  229   0.424   1.256   1.290  0.1297 -0.5721 -0.0367
   58SOL    HW1  230   0.417   1.354   1.281  0.8783 -1.0378 -0.6328
   58SOL    HW2  231   0.412   1.243   1.380  0.8661 -2.6386 -0.8005
   58SOL     MW  232   0.421   1.268   1.301  0.3257 -0.9062 -0.2161
   59SOL     OW  233   1.441   1.687   0.376  1.0360 -0.3845  0.0610
   59SOL    HW1  234   1.511   1.718   0.435  2.8190  3.3061  3.1232
   59SOL    HW2  235   1.359   1.684   0.431 -1.1874 -0.6539  0.9390
   59SOL     MW  236   1.439   1.691   0.391  0.9779  0.0669  0.5809
   60SOL     OW  237   3.089   0.169   1.642 -0.2259 -0.1570 -0.3079
   60SOL    HW1  238   3.004   0.203   1.667  0.3949 -0.1566  0.2952
   60SOL    HW2  239   3.132   0.145   1.731 -0.3106  0.1355 -2.0703
   60SOL     MW  240   3.083   0.171   1.657 -0.1552 -0.1184 -0.4609
   61SOL     OW  241   1.986   1.352   2.976  0.2668 -0.3145  0.5831
   61SOL    HW1  242   1.954   1.353   3.070  0.5591 -0.6659 -0.7277
   61SOL    HW2  243   2.049   1.279   2.977 -3.2210  1.6853  0.1913
   61SOL     MW  244   1.990   1.343   2.989 -0.1548 -0.0970  0.3584
   62SOL     OW  245   0.578   1.741   0.629 -0.0709  0.4513 -1.1012
   62SOL    HW1  246   0.662   1.757   0.588  2.0417  0.6270  2.1945
   62SOL    HW2  247   0.563   1.649   0.603 -0.6267 -1.4023 -0.7957
   62SOL     MW  248   0.587   1.731   0.620  0.1345  0.2299 -0.6261
   63SOL     OW  249   1.737   0.702   0.541 -0.5613 -0.7636 -0.5839
   63SOL    HW1  250   1.714   0.783   0.492  1.7806 -1.2112 -2.3958
   63SOL    HW2  251   1.663   0.696   0.607 -2.3987  0.4230  1.6882
   63SOL     MW  252   1.724   0.712   0.543 -0.4947 -0.6661 -0.5232
   64SOL     OW  253   0.240   1.691   0.660 -0.6844  0.1041 -0.4103
   64SOL    HW1  254   0.307   1.756   0.668  1.7425 -0.1934 -1.8514
   64SOL    HW2  255   0.175   1.720   0.724 -1.7881  1.2682  1.7678
   64SOL     MW  256   0.240   1.703   0.670 -0.5098  0.2185 -0.3131
   65SOL     OW  257   1.483   2.302   0.397  0.2285  0.5658 -0.1135
   65SOL    HW1  258   1.573   2.338   0.410  2.4891 -1.5341  0.1025
   65SOL    HW2  259   1.426   2.344   0.469 -0.8638 -0.9866  1.0944
   65SOL     MW  260   1.488   2.312   0.408  0.3827  0.0839  0.0743
   66SOL     OW  261   0.393   0.534   0.535 -0.1522 -0.0484 -0.0417
   66SOL    HW1  262   0.430   0.521   0.443 -1.0811 -2.4255  1.0136
   66SOL    HW2  263   0.367   0.623   0.536 -0.1348 -1.8914 -0.3041
   66SOL     MW  264   0.394   0.544   0.523 -0.2725 -0.6052  0.0629
   67SOL     OW  265   1.355   0.059   1.985 -0.6431 -0.3617  0.4053
   67SOL    HW1  266   1.355   0.093   1.892 -1.0918  1.9326 -0.0155
   67SOL    HW2  267   1.334  -0.034   1.985 -1.1130  1.6879 -1.2300
   67SOL     MW  268   1.352   0.051   1.973 -0.7643  0.2114  0.1340
   68SOL     OW  269   0.766   0.099   2.887  0.3571  0.0277 -0.3032
   68SOL    HW1  270   0.726   0.170   2.836 -0.6787  0.7248 -1.0867
   68SOL    HW2  271   0.840   0.144   2.929 -0.6304 -3.3033  0.4211
   68SOL     MW  272   0.770   0.114   2.886  0.0902 -0.3198 -0.3110
   69SOL     OW  273   1.098   0.266   1.980  0.0928 -0.2618 -0.0951
   69SOL    HW1  274   1.195   0.287   1.994  0.2736 -0.4002  0.2118
   69SOL    HW2  275   1.094   0.175   2.012  1.9247 -2.0638  0.0180
   69SOL     MW  276   1.110   0.257   1.986  0.3583 -0.5178 -0.0397
   70SOL     OW  277   0.548   1.720   1.136  0.1971 -0.2083  0.1532
   70SOL    HW1  278   0.603   1.794   1.106  0.2875 -0.1765  2.6179
   70SOL    HW2  279   0.559   1.664   1.059 -1.8316 -2.2679  2.0317
   70SOL     MW  280   0.557   1.723   1.122 -0.0586 -0.4758  0.7262
   71SOL     OW  281   1.565   0.577   1.243  0.1470 -0.1346 -0.9195
   71SOL    HW1  282   1.508   0.620   1.319  0.6762 -0.8520  0.5916
   71SOL    HW2  283   1.568   0.637   1.164 -1.5940  0.6927 -1.0850
   71SOL     MW  284   1.558   0.591   1.243 -0.0129 -0.1201 -0.7420
   72SOL     OW  285   0.777   1.825   1.031  0.2055  0.5836  0.3881
   72SOL    HW1  286   0.788   1.913   0.999 -0.8494 -2.2579 -1.1569
   72SOL    HW2  287   0.817   1.765   0.970 -1.1654 -0.2866 -0.7664
   72SOL     MW  288   0.784   1.829   1.018 -0.1145  0.0939  0.0319
   73SOL     OW  289   1.082   0.693   1.156 -0.0393 -0.2677 -0.8492
   73SOL    HW1  290   1.003   0.654   1.190 -1.5589 -0.6723  0.6712
   73SOL    HW2  291   1.110   0.770   1.218 -3.5380 -0.4029  0.7777
   73SOL     MW  292   1.076   0.698   1.169 -0.7014 -0.3389 -0.4340
   74SOL     OW  293   2.807   0.072   0.966  0.4167  0.1913  0.0445
   74SOL    HW1  294   2.899   0.071   0.943  1.1344  1.8634  0.7164
   74SOL    HW2  295   2.790   0.161   0.936  1.8288  1.6856 -0.4914
   74SOL     MW  296   2.817   0.083   0.959  0.6977  0.6091  0.0624
   75SOL     OW  297   1.497   1.317   0.175 -0.6299  0.0204 -0.1242
   75SOL    HW1  298   1.545   1.250   0.124  2.2749 -1.4549  2.1148
   75SOL    HW2  299   1.541   1.315   0.263  0.4341  2.5047 -0.7882
   75SOL     MW  300   1.509   1.308   0.180 -0.1063  0.1535  0.0836
   76SOL     OW  301   3.069   0.703   0.450  0.1683 -0.0735 -0.4055
   76SOL    HW1  302   3.060   0.742   0.544 -0.8511 -0.0088 -0.4237
   76SOL    HW2  303   3.146   0.651   0.456  0.9997 -0.6686 -1.7708
   76SOL     MW  304   3.078   0.702   0.463  0.1435 -0.1435 -0.5880
   77SOL     OW  305   0.880   0.626   0.453  0.6210 -0.4681  0.3769
   77SOL    HW1  306   0.881   0.646   0.357  1.0367  2.1289 -0.5966
   77SOL    HW2  307   0.861   0.530   0.457  1.3556  1.2180  1.2470
   77SOL     MW  308   0.878   0.616   0.441  0.7728  0.0970  0.3633
   78SOL     OW  309   0.827   0.878   1.081  0.0329  0.2405 -0.0592
   78SOL    HW1  310   0.840   0.961   1.029 -0.2502  0.1826  1.3425
   78SOL    HW2  311   0.729   0.876   1.086  1.2195 -2.7953  1.6014
   78SOL     MW  312   0.816   0.889   1.075  0.1521 -0.1677  0.3448
   79SOL     OW  313   1.871   1.511   0.532  0.3678 -0.0136 -0.1960
   79SOL    HW1  314   1.776   1.488   0.533  0.4040  0.7565  0.5114
   79SOL    HW2  315   1.909   1.467   0.605 -2.3825 -1.4403 -0.3927
   79SOL     MW  316   1.864   1.502   0.542  0.0097 -0.1002 -0.1286
   80SOL     OW  317   0.216   0.998   0.284  0.4616  0.2886  0.0167
   80SOL    HW1  318   0.176   0.934   0.220 -1.3749 -1.1584 -0.0342
   80SOL    HW2  319   0.251   0.941   0.351  0.0459  0.5588  0.1380
   80SOL     MW  320   0.215   0.982   0.285  0.1645  0.1333  0.0260
   81SOL     OW  321   1.832   1.840   0.376 -0.3653 -0.7593 -0.3026
   81SOL    HW1  322   1.818   1.758   0.331 -1.1327 -3.1806 -1.4013
   81SOL    HW2  323   1.813   1.906   0.313  0.1128  0.0578 -2.0238
   81SOL     MW  324   1.828   1.838   0.362 -0.4034 -0.9710 -0.6747
   82SOL     OW  325   0.971   1.017   0.569  0.2705 -0.2461  0.1973
   82SOL    HW1  326   0.918   1.070   0.509 -2.7830 -1.6111 -0.6177
   82SOL    HW2  327   0.930   0.934   0.583  0.5933  0.8158  0.6279
   82SOL     MW  328   0.959   1.013   0.563 -0.0898 -0.2861  0.1466
   83SOL     OW  329   3.085   0.737   1.566 -0.4965  0.0339 -0.3671
   83SOL    HW1  330   3.087   0.806   1.490  2.0964  1.2309 -0.4261
   83SOL    HW2  331   3.154   0.671   1.544  2.8886 -0.9449 -0.5372
   83SOL     MW  332   3.094   0.737   1.553  0.2922  0.0627 -0.3974
   84SOL     OW  333   3.090   0.175   0.904 -0.3538 -0.3060  0.0662
   84SOL    HW1  334   3.079   0.264   0.951 -1.5700  1.1162 -1.7609
   84SOL    HW2  335   3.112   0.111   0.969 -3.1992  0.9999 -2.2249
   84SOL     MW  336   3.092   0.179   0.919 -0.8897  0.0539 -0.4771
   85SOL     OW  337   0.355   0.488   0.810  0.1150 -0.4860 -0.0926
   85SOL    HW1  338   0.375   0.488   0.713 -1.2226  0.0696 -0.0482
   85SOL    HW2  339   0.313   0.400   0.822 -0.2677  0.8117 -2.1818
   85SOL     MW  340   0.352   0.477   0.799 -0.1120 -0.2415 -0.3623
   86SOL     OW  341   1.295   0.278   1.204 -0.1717 -0.1176  0.3496
   86SOL    HW1  342   1.274   0.345   1.142 -3.1424 -3.4079 -0.6766
   86SOL    HW2  343   1.389   0.293   1.220 -0.3170  0.0724  0.4372
   86SOL     MW  344   1.305   0.289   1.198 -0.5828 -0.5267  0.2258
   87SOL     OW  345   1.031   1.580   1.173 -0.3054  0.2947  0.2864
   87SOL    HW1  346   1.094   1.636   1.126  0.3638  0.3048 -0.2240
   87SOL    HW2  347   1.068   1.492   1.156  3.1861 -0.3896 -2.5732
   87SOL     MW  348   1.044   1.576   1.164  0.2436  0.2057 -0.1582
   88SOL     OW  349   1.147   1.112   0.970  0.0482  0.3760  0.3197
   88SOL    HW1  350   1.243   1.112   0.965 -0.5111 -2.0651  1.0387
   88SOL    HW2  351   1.127   1.167   1.046 -0.3999  1.8088  1.5942
   88SOL     MW  352   1.157   1.120   0.980 -0.0848  0.2429  0.5827
   89SOL     OW  353   1.795   0.704   0.236  0.1867  0.7161 -0.2876
   89SOL    HW1  354   1.747   0.640   0.286 -0.2970 -1.2838  0.2778
   89SOL    HW2  355   1.884   0.709   0.272  0.5432  0.1136  0.5908
   89SOL     MW  356   1.800   0.696   0.248  0.1699  0.3727 -0.0971
   90SOL     OW  357   0.771   1.203   2.816 -0.4216 -0.3931 -0.7947
   90SOL    HW1  358   0.805   1.123   2.856 -1.1202 -0.0984 -0.9433
   90SOL    HW2  359   0.789   1.266   2.885 -1.9074 -0.1712 -3.3938
   90SOL     MW  360   0.778   1.201   2.830 -0.7098 -0.3249 -1.1572
   91SOL     OW  361   2.253   0.604   0.519  0.1332 -0.7817  0.2738
   91SOL    HW1  362   2.293   0.662   0.450 -0.1150 -0.8002 -0.3029
   91SOL    HW2  363   2.282   0.515   0.484 -0.9056  0.1017  0.4486
   91SOL     MW  364   2.262   0.600   0.506 -0.0366 -0.6675  0.2208
   92SOL     OW  365   1.642   0.948   0.483  0.3789  0.0214 -0.4106
   92SOL    HW1  366   1.587   0.967   0.557 -0.6960 -0.4604 -1.7877
   92SOL    HW2  367   1.600   1.004   0.414 -0.2726  1.6868  3.9813
   92SOL     MW  368   1.629   0.958   0.484  0.1511  0.1776 -0.0128
   93SOL     OW  369   1.084   0.265   0.408  0.1239 -0.4902  0.2731
   93SOL    HW1  370   1.001   0.308   0.394  1.0578 -1.5582  0.8452
   93SOL    HW2  371   1.132   0.272   0.323 -0.5593  0.7108 -0.4390
   93SOL     MW  372   1.079   0.271   0.395  0.1569 -0.4726  0.2546
   94SOL     OW  373   1.904   1.387   1.576  0.4347  0.3958 -0.5929
   94SOL    HW1  374   1.879   1.382   1.484  1.4534  1.6732 -2.1051
   94SOL    HW2  375   1.907   1.295   1.615  1.7549  0.6167  1.3472
   94SOL     MW  376   1.901   1.374   1.569  0.7433  0.5935 -0.5364
   95SOL     OW  377   0.585   1.539   0.924  0.2902 -0.4170  0.2857
   95SOL    HW1  378   0.663   1.479   0.931 -0.9068  0.1708  0.3241
   95SOL    HW2  379   0.518   1.497   0.875 -0.4593 -0.4666 -2.4320
   95SOL     MW  380   0.586   1.525   0.919  0.0333 -0.3460 -0.0678
   96SOL     OW  381   1.351   1.837   1.702  0.3341  0.0123  0.7548
   96SOL    HW1  382   1.262   1.854   1.741 -1.2890  0.2412 -0.4261
   96SOL    HW2  383   1.327   1.753   1.665  1.0709  1.1031 -2.1075
   96SOL     MW  384   1.336   1.828   1.702  0.2172  0.1864  0.2214
   97SOL     OW  385   1.097   1.581   0.840 -0.4422 -0.2712 -0.2677
   97SOL    HW1  386   1.129   1.637   0.913 -0.1106 -0.6719  0.9047
   97SOL    HW2  387   1.003   1.610   0.823 -1.0444 -1.0806 -1.9148
   97SOL     MW  388   1.089   1.592   0.847 -0.4779 -0.4309 -0.3303
   98SOL     OW  389   1.349   1.396   1.228  0.2984  0.0886 -0.1676
   98SOL    HW1  390   1.418   1.421   1.287  1.6295 -0.8139  1.7994
   98SOL    HW2  391   1.403   1.404   1.146  0.4060 -2.6207 -0.3817
   98SOL     MW  392   1.365   1.400   1.225  0.4883 -0.3880  0.0637
   99SOL     OW  393   1.544   0.323   1.305  0.6622  0.4492 -0.4251
   99SOL    HW1  394   1.566   0.410   1.268  0.2064  0.6241 -0.2078
   99SOL    HW2  395   1.501   0.343   1.394  0.6147  1.0483  2.2318
   99SOL     MW  396   1.541   0.337   1.312  0.5958  0.5513 -0.0458
  100SOL     OW  397   1.076   1.162   1.391  0.2974 -0.3767  0.0923
  100SOL    HW1  398   1.117   1.199   1.468  3.9378 -0.6050 -2.5384
  100SOL    HW2  399   1.096   1.071   1.396 -0.1233  1.0615 -1.3338
  100SOL     MW  400   1.084   1.155   1.402  0.7222 -0.2171 -0.4430
  101SOL     OW  401   0.555   1.219   0.435 -0.1953  0.2008  0.6015
  101SOL    HW1  402   0.498   1.194   0.354 -2.2561 -3.5531 -0.4140
  101SOL    HW2  403   0.651   1.208   0.421  1.8318 -0.8294 -1.1851
  101SOL     MW  404   0.560   1.215   0.422 -0.1997 -0.4304  0.2318
  102SOL     OW  405   2.909   0.604   1.089 -0.6987  0.1096 -0.2283
  102SOL    HW1  406   2.931   0.696   1.074 -2.6565  0.7385 -0.6298
  102SOL    HW2  407   2.893   0.585   1.175  0.0308 -0.2441 -2.8119
  102SOL     MW  408   2.910   0.614   1.098 -0.8608  0.1459 -0.6222
  103SOL     OW  409   1.854   0.280   1.762  0.3639  0.1812  0.0413
  103SOL    HW1  410   1.828   0.191   1.737 -1.0171 -0.4004 -0.4231
  103SOL    HW2  411   1.832   0.283   1.857 -0.4806  0.4042 -1.9203
  103SOL     MW  412   1.847   0.269   1.771  0.0703  0.1339 -0.2788
  104SOL     OW  413   0.055   1.518   1.681  0.4099  0.1403 -0.4072
  104SOL    HW1  414   0.115   1.462   1.739 -1.7459  1.2822 -0.6320
  104SOL    HW2  415  -0.030   1.467   1.673 -0.1829  0.1540  1.0438
  104SOL     MW  416   0.051   1.504   1.688  0.0472  0.2927 -0.2454
  105SOL     OW  417   0.080   1.203   0.430  0.4593 -0.1984  0.1663
  105SOL    HW1  418   0.146   1.135   0.416  0.4866 -0.2388  0.8504
  105SOL    HW2  419   0.132   1.280   0.416  0.4270 -2.9517 -0.8930
  105SOL     MW  420   0.096   1.204   0.427  0.4586 -0.5670  0.1168
  106SOL     OW  421   0.805   0.250   0.828  0.1629 -0.2329  0.3598
  106SOL    HW1  422   0.751   0.334   0.832 -0.0665  1.7046 -2.8823
  106SOL    HW2  423   0.845   0.249   0.913  0.4907  1.5507 -0.9295
  106SOL     MW  424   0.803   0.261   0.840  0.1758  0.2581 -0.2381
  107SOL     OW  425   0.787   2.214   2.882  0.7277 -0.3317 -0.0347
  107SOL    HW1  426   0.694   2.224   2.883  0.3652  0.2129 -0.3887
  107SOL    HW2  427   0.805   2.175   2.967 -0.7191 -2.2129 -1.5313
  107SOL     MW  428   0.777   2.210   2.893  0.4890 -0.5081 -0.2789
  108SOL     OW  429   1.307   1.566   1.646 -0.6123 -0.6045 -0.1217
  108SOL    HW1  430   1.268   1.540   1.558  0.7964 -1.9442 -2.4235
  108SOL    HW2  431   1.382   1.513   1.646  1.4556 -1.2091 -1.8952
  108SOL     MW  432   1.312   1.556   1.634 -0.1536 -0.8610 -0.6594
  109SOL     OW  433   2.034   0.776   0.337  0.1027 -0.0882  0.2290
  109SOL    HW1  434   2.009   0.865   0.322  0.2337 -2.4811 -0.0799
  109SOL    HW2  435   2.070   0.775   0.425 -1.1622  2.4379 -0.6067
  109SOL     MW  436   2.035   0.788   0.347 -0.0469 -0.0707  0.0780
  110SOL     OW  437   0.408   1.907   0.780 -0.2208 -0.3516  0.7229
  110SOL    HW1  438   0.490   1.862   0.759  1.1653 -1.9818  0.9144
  110SOL    HW2  439   0.421   1.995   0.752 -1.8001 -0.2404 -2.3228
  110SOL     MW  440   0.420   1.913   0.773 -0.2463 -0.5520  0.3463
  111SOL     OW  441   0.835   0.887   1.365  0.2208 -0.4084  0.0371
  111SOL    HW1  442   0.836   0.862   1.274 -1.8078 -1.8036  0.0151
  111SOL    HW2  443   0.778   0.818   1.393 -0.5921  1.2980 -0.5455
  111SOL     MW  444   0.827   0.874   1.357 -0.1541 -0.3673 -0.0427
  112SOL     OW  445   1.361   1.149   1.625 -0.9293  0.1286  0.9348
  112SOL    HW1  446   1.273   1.183   1.641 -0.2378 -0.3431  2.1088
  112SOL    HW2  447   1.349   1.054   1.623 -0.5640  0.9909  0.0129
  112SOL     MW  448   1.348   1.141   1.626 -0.7899  0.1802  0.9681
  113SOL     OW  449   1.222   2.985   1.715  0.1765 -0.2062  0.4692
  113SOL    HW1  450   1.227   2.930   1.791  0.6094 -0.9493 -0.9900
  113SOL    HW2  451   1.198   2.933   1.640 -0.9619  1.8998  0.1723
  113SOL     MW  452   1.219   2.971   1.715  0.0834 -0.0264  0.2375
  114SOL     OW  453   0.372   2.895   1.781 -0.1859  0.1213  0.2154
  114SOL    HW1  454   0.460   2.920   1.772  0.4299  1.2820  3.1675
  114SOL    HW2  455   0.355   2.954   1.849  0.1909  0.7630 -0.9427
  114SOL     MW  456   0.381   2.906   1.789 -0.0549  0.3591  0.4521
  115SOL     OW  457   0.557   0.865   1.179  0.3400  0.8569 -0.0518
  115SOL    HW1  458   0.544   0.771   1.163  0.9106  2.0412  2.2388
  115SOL    HW2  459   0.490   0.884   1.237 -0.3621  0.4756 -2.6119
  115SOL     MW  460   0.547   0.855   1.184  0.3227  0.9629 -0.0874
  116SOL     OW  461   0.684   1.113   0.997 -0.0369  0.0290  0.4034
  116SOL    HW1  462   0.691   1.178   0.923 -0.2151 -2.0180 -0.4912
  116SOL    HW2  463   0.689   1.177   1.071  0.2761 -1.0317  0.2108
  116SOL     MW  464   0.685   1.130   0.997 -0.0191 -0.3811  0.2600
  117SOL     OW  465   1.108   1.300   0.798 -0.0016  0.0175 -0.3608
  117SOL    HW1  466   1.133   1.234   0.862 -0.0013  0.0136  1.3349
  117SOL    HW2  467   1.104   1.394   0.829  2.2489  1.5838 -1.5100
  117SOL     MW  468   1.111   1.303   0.811  0.2953  0.2236 -0.2887
  118SOL     OW  469   3.061   2.949   1.801  0.1446  0.5639  0.3106
  118SOL    HW1  470   3.081   3.041   1.821 -0.5025  0.3121 -2.0870
  118SOL    HW2  471   2.968   2.968   1.771  1.2285  1.2595  1.8780
  118SOL     MW  472   3.051   2.964   1.800  0.2023  0.6224  0.2011
  119SOL     OW  473   0.359   1.540   1.277  0.5844 -0.1538  0.0764
  119SOL    HW1  474   0.401   1.615   1.237  0.1287 -2.5538 -3.0469
  119SOL    HW2  475   0.263   1.531   1.251 -0.7933  0.4556  2.2958
  119SOL     MW  476   0.352   1.549   1.268  0.3425 -0.3900 -0.0429
  120SOL     OW  477   0.296   0.897   0.983  0.3239  0.5085 -0.2703
  120SOL    HW1  478   0.280   0.985   1.020 -0.1354  0.6838  0.2157
  120SOL    HW2  479   0.384   0.892   0.943  1.1254  0.8072  2.2716
  120SOL     MW  480   0.305   0.908   0.983  0.3690  0.5711  0.1292
  121SOL     OW  481   1.751   1.116   1.590 -0.2688 -0.3782 -0.1023
  121SOL    HW1  482   1.679   1.151   1.533 -0.6478  2.4923  1.8593
  121SOL    HW2  483   1.789   1.043   1.546 -0.6891 -2.0449 -0.2893
  121SOL     MW  484   1.747   1.111   1.576 -0.3743 -0.2194  0.1318
  122SOL     OW  485   0.162   0.658   0.881  0.3017  0.6404 -0.0549
  122SOL    HW1  486   0.239   0.611   0.839  0.9033 -1.2212  0.7631
  122SOL    HW2  487   0.197   0.720   0.949 -1.3892 -0.2592 -2.9028
  122SOL     MW  488   0.177   0.660   0.885  0.1580  0.2761 -0.3227
  123SOL     OW  489   1.872   1.111   0.533 -0.5978  0.1241  0.1193
  123SOL    HW1  490   1.801   1.044   0.538  0.8289  0.2568  0.8527
  123SOL    HW2  491   1.941   1.090   0.597  2.2334 -0.0197 -2.3699
  123SOL     MW  492   1.872   1.099   0.542 -0.0360  0.1226 -0.1124
  124SOL     OW  493   0.605   0.459   0.874  1.0243 -0.1600 -1.0020
  124SOL    HW1  494   0.507   0.455   0.848 -1.0516 -1.6955  0.5228
  124SOL    HW2  495   0.620   0.551   0.852  1.0103 -1.1024 -0.6423
  124SOL     MW  496   0.594   0.471   0.867  0.7486 -0.4869 -0.7534
  125SOL     OW  497   0.684   1.701   1.732  0.1461  0.2278 -0.3057
  125SOL    HW1  498   0.678   1.686   1.642 -0.5577  1.1370  0.5801
  125SOL    HW2  499   0.609   1.754   1.756 -2.0158  2.1756 -0.6656
  125SOL     MW  500   0.673   1.706   1.723 -0.2320  0.6048 -0.2363
  126SOL     OW  501   2.116   1.542   1.904  0.2163  0.1597 -0.5186
  126SOL    HW1  502   2.172   1.618   1.888 -1.4289  3.9176  1.0561
  126SOL    HW2  503   2.174   1.468   1.926  0.1715 -0.3086 -0.0693
  126SOL     MW  504   2.131   1.542   1.905 -0.0067  0.5937 -0.2516
  127SOL     OW  505   0.491   0.788   1.833 -0.0235  0.0046  0.2602
  127SOL    HW1  506   0.581   0.768   1.848  2.6326 -1.8750  0.7916
  127SOL    HW2  507   0.459   0.841   1.908  0.9501  3.4576  2.2571
  127SOL     MW  508   0.499   0.792   1.845  0.4554  0.2122  0.5938
  128SOL     OW  509   1.751   0.730   2.877  0.3391  0.3672 -0.1980
  128SOL    HW1  510   1.786   0.699   2.792 -0.3048  1.4638  1.4076
  128SOL    HW2  511   1.763   0.823   2.867  0.0147  1.6812 -2.1548
  128SOL     MW  512   1.757   0.738   2.864  0.2113  0.6853 -0.2444
  129SOL     OW  513   1.574   0.903   0.166  0.5136  0.7079 -0.3256
  129SOL    HW1  514   1.512   0.836   0.132  0.3702 -0.2378  0.0485
  129SOL    HW2  515   1.646   0.856   0.213  0.7080  1.9577  3.1011
  129SOL     MW  516   1.575   0.888   0.168  0.5204  0.7480  0.1759
  130SOL     OW  517   0.849   1.440   0.331  1.1361 -0.2778  0.1126
  130SOL    HW1  518   0.844   1.440   0.426 -1.7418  5.2288 -1.6581
  130SOL    HW2  519   0.940   1.448   0.312 -1.7345 -0.9234 -2.0025
  130SOL     MW  520   0.861   1.441   0.341  0.3777  0.3635 -0.4001
  131SOL     OW  521   0.065   0.790   0.102 -0.0602  0.8481 -0.7587
  131SOL    HW1  522   0.037   0.803   0.011  1.0254 -0.3228  1.3330
  131SOL    HW2  523   0.113   0.704   0.101 -0.4483 -2.2649  0.1107
  131SOL     MW  524   0.068   0.780   0.090  0.0318  0.2829 -0.3680
  132SOL     OW  525   2.721   0.085   1.253  0.4762 -0.1729 -0.1330
  132SOL    HW1  526   2.767   0.088   1.169 -1.2032  0.9890 -2.1573
  132SOL    HW2  527   2.632   0.046   1.232  0.5907  1.6801 -0.6426
  132SOL     MW  528   2.716   0.080   1.239  0.2697  0.2249 -0.4673
  133SOL     OW  529   1.058   0.104   1.744  0.3746  0.1209  0.2871
  133SOL    HW1  530   1.103   0.021   1.756 -0.8910  0.7898  0.5691
  133SOL    HW2  531   1.049   0.149   1.832  0.0598  0.1873 -0.3281
  133SOL     MW  532   1.063   0.099   1.758  0.1661  0.2179  0.2432
  134SOL     OW  533   1.407   2.503   1.445 -0.1403  0.3828 -0.0997
  134SOL    HW1  534   1.363   2.587   1.423  1.9442  0.8575  0.3704
  134SOL    HW2  535   1.461   2.514   1.525  1.5055 -0.3684  3.1037
  134SOL     MW  536   1.408   2.516   1.453  0.3518  0.3463  0.3850
  135SOL     OW  537   3.019   1.010   2.953  0.2603  0.3563 -0.3327
  135SOL    HW1  538   3.094   1.065   2.966 -1.6435 -0.0606 -1.1407
  135SOL    HW2  539   2.960   1.076   2.904 -1.2901  0.2440 -2.7429
  135SOL     MW  540   3.021   1.026   2.948 -0.1955  0.2865 -0.7573
  136SOL     OW  541   0.155   1.996   0.866 -0.1623 -0.0784 -0.0623
  136SOL    HW1  542   0.077   1.934   0.854 -1.2593 -0.7723 -1.3469
  136SOL    HW2  543   0.236   1.945   0.840  1.8041  4.4185 -0.4359
  136SOL     MW  544   0.155   1.981   0.861 -0.0476  0.4234 -0.2811
  137SOL     OW  545   0.742   2.090   0.590 -0.0787 -0.0294  0.0449
  137SOL    HW1  546   0.754   2.050   0.680 -1.2609  0.7785  1.1530
  137SOL    HW2  547   0.647   2.108   0.583  0.8280 -0.9448 -0.3820
  137SOL     MW  548   0.731   2.087   0.601 -0.1151 -0.0436  0.1348
  138SOL     OW  549   0.493   0.597   1.089  0.4584 -0.0552 -0.8036
  138SOL    HW1  550   0.408   0.572   1.110  2.3701 -0.0214 -0.5810
  138SOL    HW2  551   0.530   0.537   1.027 -1.3056  1.4388  1.1616
  138SOL     MW  552   0.487   0.586   1.084  0.4779  0.1464 -0.5149
  139SOL     OW  553   2.856   0.502   1.360 -0.1336 -0.5790 -0.1538
  139SOL    HW1  554   2.953   0.476   1.354  2.1268 -0.3647 -1.8849
  139SOL    HW2  555   2.847   0.553   1.441 -0.0117  0.6086 -0.6770
  139SOL     MW  556   2.868   0.506   1.370  0.1807 -0.3940 -0.4512
  140SOL     OW  557   0.894   0.490   1.977  0.6393  0.6716 -0.7155
  140SOL    HW1  558   0.940   0.407   1.963  0.3051  1.3222 -1.1043
  140SOL    HW2  559   0.870   0.489   2.071 -2.9293  1.1215  0.6842
  140SOL     MW  560   0.897   0.479   1.987  0.1244  0.8168 -0.5821
  141SOL     OW  561   1.114   0.642   1.694  0.3397  0.3241  0.7411
  141SOL    HW1  562   1.101   0.561   1.640 -0.3652  0.3805 -0.2781
  141SOL    HW2  563   1.123   0.608   1.779 -1.9608  1.7341 -1.1306
  141SOL     MW  564   1.113   0.627   1.698 -0.0568  0.5176  0.3597
  142SOL     OW  565   0.857   1.190   0.752 -0.7961 -0.8098  0.3708
  142SOL    HW1  566   0.892   1.113   0.698  0.5544  0.6341  0.2414
  142SOL    HW2  567   0.945   1.220   0.785  2.8425  0.3806 -0.9097
  142SOL     MW  568   0.874   1.184   0.750 -0.1379 -0.4622  0.1848
  143SOL     OW  569   1.837   0.725   1.059  0.0026  0.1601  0.3529
  143SOL    HW1  570   1.895   0.699   0.982  1.5765 -3.3662 -0.3815
  143SOL    HW2  571   1.749   0.713   1.029 -0.8036 -0.7405 -0.2651
  143SOL     MW  572   1.833   0.720   1.045  0.1039 -0.4240  0.1745
  144SOL     OW  573   0.242   1.324   1.754  0.3026 -0.1511  0.5105
  144SOL    HW1  574   0.307   1.401   1.762  0.4701 -2.8554  0.1877
  144SOL    HW2  575   0.271   1.254   1.813  1.1792 -0.4898  1.2580
  144SOL     MW  576   0.255   1.325   1.763  0.4404 -0.5526  0.5665
  145SOL     OW  577   0.233   0.493   1.184 -0.1843 -0.1398  0.0155
  145SOL    HW1  578   0.264   0.403   1.205 -1.2351  1.7748 -2.5207
  145SOL    HW2  579   0.162   0.468   1.121 -2.6220  1.2843 -2.0079
  145SOL     MW  580   0.228   0.478   1.179 -0.6446  0.3007 -0.5861
  146SOL     OW  581   0.796   1.963   1.532  0.3045 -0.3533  0.5270
  146SOL    HW1  582   0.824   1.990   1.446  0.2524 -0.1508 -2.0539
  146SOL    HW2  583   0.728   1.894   1.508 -2.6276  0.3543  0.5609
  146SOL     MW  584   0.791   1.957   1.518 -0.0892 -0.2332  0.1910
  147SOL     OW  585   0.439   0.523   2.996 -0.7127  0.2782  0.7081
  147SOL    HW1  586   0.377   0.532   3.067  1.2009  1.1864  1.2288
  147SOL    HW2  587   0.400   0.585   2.931  1.0904  0.4312 -1.4722
  147SOL     MW  588   0.426   0.533   2.997 -0.2223  0.4182  0.4891
  148SOL     OW  589   0.023   0.898   1.325 -0.6730 -0.7002 -0.6774
  148SOL    HW1  590   0.118   0.904   1.311 -0.6061 -0.0470 -1.1907
  148SOL    HW2  591  -0.002   0.988   1.323 -1.4999  0.3231 -2.6307
  148SOL     MW  592   0.032   0.910   1.323 -0.7733 -0.4790 -1.0029
  149SOL     OW  593   1.547   1.195   1.444 -0.1733  0.4457  0.0414
  149SOL    HW1  594   1.466   1.194   1.511 -4.2299  1.8443 -0.0008
  149SOL    HW2  595   1.563   1.284   1.413 -0.0336 -0.4964 -1.4129
  149SOL     MW  596   1.539   1.206   1.449 -0.6901  0.5059 -0.1560
  150SOL     OW  597   1.720   1.454   0.869 -0.5109 -0.0552  0.5938
  150SOL    HW1  598   1.783   1.387   0.891  1.5945 -0.1846 -0.0880
  150SOL    HW2  599   1.769   1.534   0.858  2.8539 -1.9705 -0.7853
  150SOL     MW  600   1.735   1.456   0.871  0.2109 -0.3250  0.3219
  151SOL     OW  601   1.604   1.884   0.833 -0.3914 -0.3899 -0.0397
  151SOL    HW1  602   1.594   1.848   0.742 -1.0941 -2.1578  1.1121
  151SOL    HW2  603   1.549   1.821   0.884 -0.3625 -1.2253 -0.4565
  151SOL     MW  604   1.596   1.871   0.828 -0.4803 -0.7334  0.0573
  152SOL     OW  605   0.652   1.411   1.592  0.1898  0.4030  0.5562
  152SOL    HW1  606   0.718   1.465   1.542 -1.5510 -4.4504 -0.2262
  152SOL    HW2  607   0.624   1.345   1.527 -0.0927 -0.5753 -1.1986
  152SOL     MW  608   0.657   1.409   1.577 -0.0771 -0.3664  0.2214
  153SOL     OW  609   2.604   1.227   0.722  0.3106 -0.1366 -0.1837
  153SOL    HW1  610   2.693   1.197   0.698  1.1796 -2.0507  2.8159
  153SOL    HW2  611   2.541   1.155   0.728 -1.7599 -2.5105  1.9489
  153SOL     MW  612   2.607   1.214   0.720  0.1521 -0.7023  0.4935
  154SOL     OW  613   0.129   1.780   1.755  0.0865  0.2344 -0.0822
  154SOL    HW1  614   0.079   1.687   1.740 -1.5347 -0.9154  0.6708
  154SOL    HW2  615   0.219   1.768   1.800  0.3241  0.6863 -0.9484
  154SOL     MW  616   0.134   1.766   1.759 -0.0960  0.1424 -0.0971
  155SOL     OW  617   1.186   0.685   0.295 -1.2302 -0.3764  0.2358
  155SOL    HW1  618   1.168   0.662   0.385  2.3129  1.3024 -3.9484
  155SOL    HW2  619   1.164   0.782   0.296  0.9615  3.1498  1.2200
  155SOL     MW  620   1.181   0.695   0.307 -0.4735  0.3104 -0.1864
  156SOL     OW  621   1.559   0.010   1.099 -0.1165 -0.1538  0.2648
  156SOL    HW1  622   1.615   0.059   1.161  1.1192  3.1913  2.1014
  156SOL    HW2  623   1.595  -0.083   1.093  1.4443  1.2542  2.2583
  156SOL     MW  624   1.571   0.004   1.106  0.2525  0.4733  0.7701
  157SOL     OW  625   1.273   1.141   0.179 -1.0593  0.4135 -0.5077
  157SOL    HW1  626   1.311   1.060   0.216  0.1407 -2.5311 -1.0074
  157SOL    HW2  627   1.348   1.200   0.184  1.6269 -0.8602  1.4734
  157SOL     MW  628   1.288   1.138   0.184 -0.5466 -0.1430 -0.3123
  158SOL     OW  629   0.379   1.650   2.288 -0.5260  0.0889  0.4242
  158SOL    HW1  630   0.412   1.736   2.260  0.1564  1.6508  1.2913
  158SOL    HW2  631   0.287   1.673   2.281 -1.5242 -1.3766  4.9308
  158SOL     MW  632   0.372   1.664   2.283 -0.5676  0.1016  1.1332
  159SOL     OW  633   1.206   1.714   0.511 -0.0767  0.3234 -0.3742
  159SOL    HW1  634   1.150   1.656   0.461 -0.5354  1.0913 -0.5157
  159SOL    HW2  635   1.148   1.763   0.568  3.1665  0.3747 -0.6370
  159SOL     MW  636   1.191   1.713   0.512  0.2907  0.4315 -0.4275
  160SOL     OW  637   0.493   1.144   1.540 -0.3524  0.6222 -0.0989
  160SOL    HW1  638   0.460   1.055   1.538  0.5248 -2.9887 -1.8967
  160SOL    HW2  639   0.589   1.140   1.524  1.7529 -2.7522  0.7489
  160SOL     MW  640   0.501   1.132   1.538  0.0411 -0.2995 -0.2242
  161SOL     OW  641   0.480   2.297   2.679  0.2538  0.4493 -0.4386
  161SOL    HW1  642   0.391   2.286   2.663 -0.5895 -1.1951  0.4874
  161SOL    HW2  643   0.515   2.211   2.651 -0.2069  0.7315  1.4584
  161SOL     MW  644   0.473   2.284   2.673  0.0818  0.2695 -0.0661
  162SOL     OW  645   1.083   1.798   1.809  0.6257 -0.0898  0.1923
  162SOL    HW1  646   1.091   1.884   1.857 -1.7235  0.6656  1.4351
  162SOL    HW2  647   1.000   1.765   1.852 -3.5669 -0.6512 -0.4488
  162SOL     MW  648   1.073   1.805   1.821 -0.2374 -0.0642  0.2717
  163SOL     OW  649   2.133   3.049   0.808  0.3247 -0.3837  0.1181
  163SOL    HW1  650   2.134   3.119   0.741 -2.9976  0.0186 -0.6847
  163SOL    HW2  651   2.063   2.991   0.783 -1.5138 -1.8179 -0.0740
  163SOL     MW  652   2.124   3.051   0.796 -0.3562 -0.5198 -0.0132
  164SOL     OW  653   0.243   0.250   0.824 -0.6868  0.2519 -0.7732
  164SOL    HW1  654   0.143   0.225   0.836 -0.3595 -0.5991  0.6072
  164SOL    HW2  655   0.281   0.186   0.767  0.7407  0.3755  0.2789
  164SOL     MW  656   0.235   0.238   0.818 -0.4553  0.1559 -0.4523
  165SOL     OW  657   1.162   1.286   0.377 -0.0324 -0.1085 -0.1335
  165SOL    HW1  658   1.229   1.262   0.440 -2.8534  0.0492 -2.6291
  165SOL    HW2  659   1.169   1.215   0.309 -1.5560 -2.8679 -1.8399
  165SOL     MW  660   1.172   1.273   0.376 -0.6056 -0.4517 -0.6879
  166SOL     OW  661   0.368   1.137   1.043 -0.7699 -0.2031  0.1528
  166SOL    HW1  662   0.365   1.183   1.127  0.0898  0.7081  1.7840
  166SOL    HW2  663   0.440   1.078   1.045 -1.2572  2.5197  3.0689
  166SOL     MW  664   0.377   1.135   1.054 -0.7208  0.2764  0.7528
  167SOL     OW  665   0.819   1.184   0.376 -0.6134 -0.0125  0.3932
  167SOL    HW1  666   0.827   1.283   0.352  0.2893  1.2852  0.2186
  167SOL    HW2  667   0.848   1.151   0.290 -3.4856  0.4474  0.2123
  167SOL     MW  668   0.823   1.193   0.361 -0.8733  0.2194  0.3463
  168SOL     OW  669   1.713   1.623   3.029 -0.5014 -0.2873  0.4490
  168SOL    HW1  670   1.636   1.681   3.010 -0.9472  1.5373  1.3160
  168SOL    HW2  671   1.698   1.541   2.976 -4.3407  0.5211 -0.2731
  168SOL     MW  672   1.701   1.620   3.020 -1.0667  0.0601  0.4681
  169SOL     OW  673   0.298   0.948   1.335  0.0468 -0.3776  0.3879
  169SOL    HW1  674   0.312   0.928   1.423  1.7822 -0.6553  0.3130
  169SOL    HW2  675   0.314   1.037   1.312 -0.6998 -2.8398 -0.2076
  169SOL     MW  676   0.302   0.957   1.344  0.1773 -0.7391  0.2994
  170SOL     OW  677   1.110   1.544   1.456 -0.3150  0.7874  0.1535
  170SOL    HW1  678   1.059   1.602   1.508  1.4997  2.3814  1.3912
  170SOL    HW2  679   1.079   1.551   1.368 -0.2386 -2.1538  0.3597
  170SOL     MW  680   1.099   1.552   1.451 -0.0655  0.6096  0.3440
  171SOL     OW  681   0.475   1.494   0.532 -0.0851  0.6718 -0.5202
  171SOL    HW1  682   0.395   1.531   0.508  3.2921  0.0879  1.5969
  171SOL    HW2  683   0.500   1.413   0.483 -1.6840  1.0586 -0.9881
  171SOL     MW  684   0.468   1.488   0.523  0.1495  0.6458 -0.3026
  172SOL     OW  685   0.754   0.297   1.277  0.3011 -0.0144 -0.3929
  172SOL    HW1  686   0.741   0.227   1.207 -2.3571 -0.9783 -4.2750
  172SOL    HW2  687   0.811   0.245   1.341  0.9669 -2.0142 -0.1312
  172SOL     MW  688   0.760   0.281   1.276  0.0382 -0.4055 -0.8706
  173SOL     OW  689   0.499   1.771   0.325 -0.1534  0.3184 -0.4350
  173SOL    HW1  690   0.534   1.681   0.305  0.1335 -3.4770 -1.0524
  173SOL    HW2  691   0.508   1.791   0.417  2.0016  0.0637 -0.5901
  173SOL     MW  692   0.505   1.762   0.335  0.1688 -0.2160 -0.5369
  174SOL     OW  693   1.918   0.893   1.512 -0.1987 -0.3650  0.2565
  174SOL    HW1  694   1.834   0.846   1.529 -0.0089 -1.9472  0.6449
  174SOL    HW2  695   1.922   0.895   1.420  0.2360 -3.6134  0.5323
  174SOL     MW  696   1.907   0.887   1.502 -0.1163 -1.0023  0.3442
  175SOL     OW  697   0.599   1.471   0.228  0.0567  0.2630 -0.1411
  175SOL    HW1  698   0.572   1.381   0.206 -2.3160  0.9581  2.0135
  175SOL    HW2  699   0.690   1.480   0.255  1.8352 -0.2978 -1.5400
  175SOL     MW  700   0.607   1.460   0.228 -0.0217  0.2807 -0.0414
  176SOL     OW  701   0.108   1.508   1.224 -0.1590 -0.2288  0.6837
  176SOL    HW1  702   0.088   1.451   1.146  0.5477  1.5002 -2.6059
  176SOL    HW2  703   0.031   1.505   1.275 -0.1447  0.1239 -2.4318
  176SOL     MW  704   0.095   1.500   1.220 -0.0639  0.0459 -0.1614
  177SOL     OW  705   0.505   0.257   1.431 -0.1456 -0.1483 -0.5300
  177SOL    HW1  706   0.583   0.260   1.376  0.9689 -1.3912  0.7762
  177SOL    HW2  707   0.512   0.342   1.475 -2.2438 -0.2071  1.6770
  177SOL     MW  708   0.516   0.269   1.429 -0.2754 -0.3201 -0.0664
  178SOL     OW  709   3.079   0.581   2.965  0.7290  0.8373 -0.5732
  178SOL    HW1  710   3.019   0.511   2.966  3.8900  3.3515  2.4530
  178SOL    HW2  711   3.077   0.602   2.870 -1.0371  0.3800  1.7070
  178SOL     MW  712   3.070   0.575   2.953  0.9131  1.1087  0.1269
  179SOL     OW  713   1.563   1.488   1.366 -0.1231 -0.0876  0.7760
  179SOL    HW1  714   1.549   1.493   1.463 -0.7967  0.6766  0.1774
  179SOL    HW2  715   1.661   1.474   1.377 -1.1104 -1.2633  0.5137
  179SOL     MW  716   1.574   1.486   1.380 -0.3423 -0.1419  0.6624
  180SOL     OW  717   0.027   0.254   0.416  0.7685 -0.2895  0.2741
  180SOL    HW1  718  -0.061   0.289   0.383 -1.1308  0.6750 -0.5614
  180SOL    HW2  719   0.064   0.338   0.436 -0.9810  0.3621  3.1138
  180SOL     MW  720   0.020   0.270   0.414  0.2871 -0.0763  0.5386
  181SOL     OW  721   1.074   1.336   0.030  0.5258 -0.0213  0.3730
  181SOL    HW1  722   1.121   1.418   0.043  0.6142 -2.1569  3.5777
  181SOL    HW2  723   1.108   1.299  -0.049 -2.5722 -0.6700 -0.2515
  181SOL     MW  724   1.084   1.342   0.021  0.1287 -0.3887  0.7135
  182SOL     OW  725   0.359   0.865   1.611 -0.1240  0.1101  0.0519
  182SOL    HW1  726   0.288   0.898   1.671  0.2980 -1.8570  1.4432
  182SOL    HW2  727   0.417   0.837   1.680 -1.0037  2.5858  1.4099
  182SOL     MW  728   0.357   0.866   1.628 -0.1844  0.1772  0.4147
  183SOL     OW  729   1.552   1.746   1.281 -0.6816  0.1326  0.0308
  183SOL    HW1  730   1.634   1.778   1.312 -2.0627 -1.8437 -0.9045
  183SOL    HW2  731   1.556   1.648   1.308  0.4690 -1.2286 -0.1398
  183SOL     MW  732   1.563   1.737   1.288 -0.7120 -0.3077 -0.1151
  184SOL     OW  733   0.826   0.624   1.739  0.3700  0.0841 -0.4604
  184SOL    HW1  734   0.921   0.644   1.721 -0.0992 -1.1145  0.7841
  184SOL    HW2  735   0.830   0.577   1.823  0.8691 -0.6035 -0.9614
  184SOL     MW  736   0.839   0.620   1.748  0.3739 -0.1648 -0.3623
  185SOL     OW  737   1.102   0.965   1.876 -0.5005  0.0259  0.1959
  185SOL    HW1  738   1.049   0.885   1.908 -1.3374 -0.4034 -1.5991
  185SOL    HW2  739   1.110   1.027   1.945 -0.4808 -0.9790  0.0367
  185SOL     MW  740   1.096   0.962   1.889 -0.6083 -0.1634 -0.0619
  186SOL     OW  741   0.259   1.612   1.528 -0.5324  0.1148  0.3496
  186SOL    HW1  742   0.279   1.563   1.445 -0.8852  2.7016 -1.2381
  186SOL    HW2  743   0.178   1.571   1.566  0.4787  0.7602 -0.0535
  186SOL     MW  744   0.251   1.600   1.522 -0.4455  0.5413  0.0870
  187SOL     OW  745   1.413   0.804   1.340 -0.2402  0.5653  0.3626
  187SOL    HW1  746   1.439   0.818   1.434  2.4127  0.3679  0.7094
  187SOL    HW2  747   1.324   0.842   1.347 -0.6274 -0.0533  0.6800
  187SOL     MW  748   1.405   0.811   1.354  0.0587  0.4576  0.4503
  188SOL     OW  749   1.844   1.233   0.932 -0.0547 -0.2263 -0.0517
  188SOL    HW1  750   1.875   1.217   1.023  1.5993  0.6278  0.0161
  188SOL    HW2  751   1.830   1.148   0.900 -0.2277 -0.2274  1.2917
  188SOL     MW  752   1.846   1.220   0.939  0.1407 -0.1138  0.1345
  189SOL     OW  753   0.721   0.720   0.852  0.0944 -0.2825  0.0514
  189SOL    HW1  754   0.651   0.782   0.849  1.8320 -2.4096  0.1181
  189SOL    HW2  755   0.789   0.763   0.901  1.2010  0.5139  0.6569
  189SOL     MW  756   0.720   0.734   0.858  0.4697 -0.4581  0.1401
  190SOL     OW  757   1.876   0.262   2.046 -0.1277  0.1869 -0.3945
  190SOL    HW1  758   1.871   0.253   2.141  3.0112 -0.3322  2.3562
  190SOL    HW2  759   1.930   0.340   2.040  0.2325 -0.2415 -1.5706
  190SOL     MW  760   1.882   0.271   2.058  0.3340  0.0619 -0.1868
  191SOL     OW  761   1.549   1.023   1.226 -0.7439  0.9008 -0.0501
  191SOL    HW1  762   1.546   1.083   1.307 -0.1038  0.5167  2.5955
  191SOL    HW2  763   1.502   0.947   1.259 -0.6054  1.1278 -0.1811
  191SOL     MW  764   1.542   1.021   1.241 -0.6412  0.8801  0.2817
  192SOL     OW  765   0.518   2.196   2.953 -0.7493  0.1279 -0.0868
  192SOL    HW1  766   0.468   2.255   2.899  0.4559  2.3168  0.4370
  192SOL    HW2  767   0.492   2.112   2.908 -0.5659  0.3490 -0.7005
  192SOL     MW  768   0.508   2.193   2.940 -0.5661  0.4459 -0.0987
  193SOL     OW  769   0.832   1.636   0.792  0.6091  0.8006 -0.1376
  193SOL    HW1  770   0.742   1.632   0.834 -3.1349  3.2558  3.1215
  193SOL    HW2  771   0.817   1.567   0.731  0.2545  3.9556  1.7216
  193SOL     MW  772   0.818   1.626   0.789  0.0683  1.5408  0.5377
  194SOL     OW  773   0.388   1.347   0.847 -0.4520 -0.2939 -0.4550
  194SOL    HW1  774   0.360   1.293   0.914  0.1899  0.0837  0.7376
  194SOL    HW2  775   0.314   1.406   0.831  0.5957 -0.2162 -0.6106
  194SOL     MW  776   0.374   1.347   0.854 -0.2291 -0.2338 -0.3182
  195SOL     OW  777   1.213   1.117   3.008  0.5005  0.1369 -0.1562
  195SOL    HW1  778   1.223   1.151   3.099  0.9760  3.7327 -1.0269
  195SOL    HW2  779   1.169   1.030   3.026 -1.7273 -2.8562 -0.7793
  195SOL     MW  780   1.208   1.110   3.023  0.2693  0.2164 -0.3533
  196SOL     OW  781   2.247   1.006   0.513 -0.0759 -0.7443  0.4448
  196SOL    HW1  782   2.271   1.000   0.426  1.2900  1.2585  1.6260
  196SOL    HW2  783   2.252   1.098   0.533  0.5796 -0.8985 -3.6338
  196SOL     MW  784   2.251   1.017   0.504  0.1908 -0.5004  0.0625
  197SOL     OW  785   0.613   1.340   2.168 -0.1616 -0.2764  0.4631
  197SOL    HW1  786   0.619   1.253   2.131  2.3529 -1.6293  0.9599
  197SOL    HW2  787   0.680   1.385   2.120 -0.0909  0.9440 -1.3231
  197SOL     MW  788   0.622   1.334   2.157  0.1795 -0.2939  0.2930
  198SOL     OW  789   2.929   1.404   1.017 -0.4205  0.4509  0.0311
  198SOL    HW1  790   2.919   1.495   0.988 -0.0110 -1.3694 -0.2929
  198SOL    HW2  791   2.845   1.351   0.986  0.1950  2.0574 -2.7140
  198SOL     MW  792   2.916   1.409   1.009 -0.2852  0.4227 -0.3738
  199SOL     OW  793   0.658   1.258   1.811 -0.4316  0.0985 -0.1758
  199SOL    HW1  794   0.564   1.224   1.808 -0.1558 -0.3442 -0.2973
  199SOL    HW2  795   0.670   1.297   1.719  0.6759 -1.8754 -1.8907
  199SOL     MW  796   0.647   1.258   1.798 -0.2490 -0.2204 -0.4181
  200SOL     OW  797   1.836   2.968   1.288  0.0917  0.0696  0.0259
  200SOL    HW1  798   1.905   2.974   1.214 -1.6214 -0.6724 -3.8150
  200SOL    HW2  799   1.804   3.055   1.286 -0.1561 -3.2086  0.2509
  200SOL     MW  800   1.841   2.980   1.278 -0.1670 -0.4608 -0.4512
  201SOL     OW  801   1.187   0.297   0.840 -0.4592 -0.0595  0.6156
  201SOL    HW1  802   1.143   0.219   0.818  2.3270 -0.7693  0.4782
  201SOL    HW2  803   1.279   0.277   0.840  0.7901 -0.1012 -1.6866
  201SOL     MW  804   1.193   0.284   0.837  0.0732 -0.1587  0.2937
  202SOL     OW  805   1.471   1.731   1.016 -0.2215 -0.1755 -0.5802
  202SOL    HW1  806   1.473   1.631   1.020  1.1110 -2.9453  1.8860
  202SOL    HW2  807   1.499   1.750   1.107  0.8338  1.1170  0.1678
  202SOL     MW  808   1.475   1.720   1.029  0.0936 -0.3704 -0.1561
  203SOL     OW  809   0.002   0.393   1.329  0.7500  0.4474  0.2633
  203SOL    HW1  810   0.023   0.304   1.360 -1.1857  3.3543  1.3826
  203SOL    HW2  811   0.086   0.440   1.322  1.1197  1.2756  0.0426
  203SOL     MW  812   0.016   0.387   1.332  0.5434  0.9402  0.3818
  204SOL     OW  813   1.008   1.838   0.660 -0.2889  0.2567 -0.1037
  204SOL    HW1  814   0.964   1.768   0.705  1.2888 -1.6746  0.3603
  204SOL    HW2  815   0.954   1.857   0.582 -1.5392  0.2352 -0.6448
  204SOL     MW  816   0.995   1.831   0.655 -0.2457 -0.0009 -0.1139
  205SOL     OW  817   1.414   3.005   1.290 -0.2293  0.3298 -0.1135
  205SOL    HW1  818   1.463   3.055   1.225 -2.6658 -0.6350 -1.9523
  205SOL    HW2  819   1.332   3.052   1.303  0.4964 -0.1853  1.4857
  205SOL     MW  820   1.410   3.017   1.283 -0.4550  0.1345 -0.1451
  206SOL     OW  821   0.369   2.911   1.356  0.1455 -0.6600  0.5066
  206SOL    HW1  822   0.360   2.930   1.264 -0.4601 -2.9555  0.0559
  206SOL    HW2  823   0.460   2.896   1.369 -0.5957 -1.6626 -0.8189
  206SOL     MW  824   0.380   2.911   1.346 -0.0322 -1.0952  0.2723
  207SOL     OW  825   0.882   1.747   0.217 -0.2971 -0.3878  0.0118
  207SOL    HW1  826   0.939   1.818   0.183  0.3944  1.8490  1.3920
  207SOL    HW2  827   0.938   1.676   0.240 -4.4908 -1.5097  1.4948
  207SOL     MW  828   0.897   1.747   0.216 -0.7592 -0.2407  0.3896
  208SOL     OW  829   0.790   1.531   1.343  0.1652 -0.2017  0.5696
  208SOL    HW1  830   0.850   1.571   1.271 -0.0355 -3.2555 -0.4263
  208SOL    HW2  831   0.785   1.440   1.311 -1.3929 -1.8093  0.1226
  208SOL     MW  832   0.797   1.524   1.329 -0.0669 -0.8167  0.3793
  209SOL     OW  833   1.627   0.474   2.822 -0.5192 -0.0219  0.0190
  209SOL    HW1  834   1.657   0.559   2.845 -0.2989 -0.7566 -0.9668
  209SOL    HW2  835   1.692   0.411   2.852  2.8052  1.1064 -1.1206
  209SOL     MW  836   1.640   0.477   2.829 -0.0515  0.0300 -0.2614
  210SOL     OW  837   1.482   1.413   0.989 -0.4036 -0.0885 -0.3768
  210SOL    HW1  838   1.568   1.440   0.963 -1.2061  1.8003 -0.2442
  210SOL    HW2  839   1.432   1.433   0.911 -1.3563 -0.2669  0.4799
  210SOL     MW  840   1.487   1.419   0.975 -0.6351  0.1371 -0.2463
  211SOL     OW  841   1.748   0.479   0.901  0.0298  0.2770 -0.0232
  211SOL    HW1  842   1.752   0.487   0.808 -0.5254 -3.2296  2.2831
  211SOL    HW2  843   1.836   0.462   0.942 -1.2170 -0.4123 -2.5577
  211SOL     MW  844   1.760   0.478   0.894 -0.2080 -0.2766 -0.0533
  212SOL     OW  845   0.375   1.200   0.200  0.6522  0.0018  0.2259
  212SOL    HW1  846   0.335   1.117   0.220  1.0568  2.8423 -1.5536
  212SOL    HW2  847   0.438   1.167   0.132  0.8110 -2.2646  2.6202
  212SOL     MW  848   0.378   1.185   0.194  0.7265  0.0776  0.3070
  213SOL     OW  849   0.409   1.808   3.029  0.6680 -0.8893  0.5200
  213SOL    HW1  850   0.456   1.852   3.101 -0.3827 -0.5783  0.6514
  213SOL    HW2  851   0.432   1.873   2.956  0.6828  1.1787 -1.0988
  213SOL     MW  852   0.418   1.822   3.029  0.5314 -0.5754  0.3237
  214SOL     OW  853   0.576   0.341   2.110 -0.4918  0.7918  0.4425
  214SOL    HW1  854   0.513   0.417   2.117  1.5446 -0.7645  1.3515
  214SOL    HW2  855   0.554   0.299   2.022  1.3883 -2.5212 -1.0975
  214SOL     MW  856   0.565   0.345   2.099  0.0249  0.1493  0.3592
  215SOL     OW  857   0.498   0.482   2.495 -0.4069 -0.2405 -0.6283
  215SOL    HW1  858   0.450   0.563   2.469  0.2528  0.7317  0.0504
  215SOL    HW2  859   0.422   0.427   2.472 -1.6050 -0.3139  0.0188
  215SOL     MW  860   0.482   0.485   2.488 -0.4779 -0.1219 -0.4534
  216SOL     OW  861   2.916   3.092   2.819  0.0857  0.2739  0.7977
  216SOL    HW1  862   2.834   3.066   2.785 -0.1341 -1.7036  2.1136
  216SOL    HW2  863   2.950   3.160   2.765 -1.3726 -2.1676 -0.0122
  216SOL     MW  864   2.910   3.098   2.807 -0.1357 -0.3091  0.8645
  217SOL     OW  865   0.947   1.094   0.153 -0.1390 -0.0312  0.1387
  217SOL    HW1  866   0.963   1.028   0.085 -0.2924  0.1024  0.9696
  217SOL    HW2  867   0.995   1.162   0.115  1.5937 -0.9377 -0.9711
  217SOL     MW  868   0.955   1.094   0.139  0.0694 -0.1332  0.1019
  218SOL     OW  869   0.849   1.366   2.608 -0.2436  0.3152  0.2158
  218SOL    HW1  870   0.813   1.305   2.670  0.1591  0.1022 -1.9366
  218SOL    HW2  871   0.924   1.402   2.657  0.1081 -1.9777  3.8114
  218SOL     MW  872   0.854   1.363   2.623 -0.1441 -0.0154  0.4063
  219SOL     OW  873   1.040   0.468   2.577 -0.3093  0.5856 -0.6039
  219SOL    HW1  874   1.099   0.537   2.626  0.8906 -0.4931 -1.0635
  219SOL    HW2  875   0.961   0.512   2.554 -0.2006  0.5708 -0.1015
  219SOL     MW  876   1.038   0.482   2.581 -0.1366  0.4413 -0.5982
  220SOL     OW  877   1.696   0.514   2.198 -0.4304 -0.6474  0.3554
  220SOL    HW1  878   1.620   0.570   2.172  0.0143  0.3104  1.1146
  220SOL    HW2  879   1.682   0.432   2.158 -1.4401  0.1341  0.8061
  220SOL     MW  880   1.684   0.511   2.189 -0.5050 -0.4179  0.5150
  221SOL     OW  881   0.383   1.384   2.944 -0.4029 -0.1420  0.1925
  221SOL    HW1  882   0.434   1.302   2.920  0.4421 -1.2959 -1.3105
  221SOL    HW2  883   0.448   1.459   2.973 -1.1994  0.5648  2.6581
  221SOL     MW  884   0.398   1.383   2.945 -0.3965 -0.2010  0.3195
  222SOL     OW  885   0.524   0.909   2.737 -0.0694  0.0900  0.0765
  222SOL    HW1  886   0.435   0.885   2.705 -2.2525  0.0514  2.9803
  222SOL    HW2  887   0.580   0.831   2.712  0.6884 -0.7482 -1.0091
  222SOL     MW  888   0.519   0.896   2.729 -0.2575 -0.0257  0.3164
  223SOL     OW  889   3.064   2.022   2.516 -0.9549  0.2065 -0.5208
  223SOL    HW1  890   3.048   1.995   2.608 -2.9192 -1.6602 -2.8139
  223SOL    HW2  891   3.115   2.106   2.517 -0.7549 -1.1434  3.8865
  223SOL     MW  892   3.069   2.029   2.528 -1.1877 -0.2179 -0.2419
  224SOL     OW  893   1.470   0.652   2.424 -0.1576 -0.0851 -0.3051
  224SOL    HW1  894   1.558   0.632   2.469  1.5320 -1.9114  0.4698
  224SOL    HW2  895   1.453   0.738   2.458  1.5262 -2.5184  0.5669
  224SOL     MW  896   1.479   0.660   2.434  0.2875 -0.6471 -0.0878
  225SOL     OW  897   2.941   1.495   2.210 -0.0459 -0.0243 -1.2052
  225SOL    HW1  898   2.986   1.572   2.165  1.9187  0.4843  0.3420
  225SOL    HW2  899   2.875   1.517   2.276  1.5642 -0.3511  0.9617
  225SOL     MW  900   2.939   1.508   2.213  0.4258 -0.0003 -0.7151
  226SOL     OW  901   0.449   1.570   2.694  0.2560  0.1532 -0.0254
  226SOL    HW1  902   0.537   1.601   2.678  0.5376 -0.9272  1.2485
  226SOL    HW2  903   0.395   1.651   2.682 -0.4177 -1.9698 -1.9048
  226SOL     MW  904   0.453   1.585   2.690  0.2043 -0.2694 -0.1053
  227SOL     OW  905   0.510   1.147   2.886  0.8286  0.0023 -0.5007
  227SOL    HW1  906   0.584   1.191   2.849 -0.5521 -1.3628 -0.2527
  227SOL    HW2  907   0.492   1.072   2.834 -0.7131  0.3990 -0.8119
  227SOL     MW  908   0.517   1.143   2.874  0.4430 -0.1254 -0.5090
  228SOL     OW  909   0.769   1.105   2.028  0.6107 -0.2597 -0.3924
  228SOL    HW1  910   0.750   1.148   1.950  1.6939 -2.5341  0.9676
  228SOL    HW2  911   0.843   1.150   2.063 -0.0619  0.3272  1.7509
  228SOL     MW  912   0.776   1.117   2.022  0.6649 -0.4823  0.0698
  229SOL     OW  913   0.213   0.555   0.037 -0.5659 -0.3112 -0.3430
  229SOL    HW1  914   0.137   0.540  -0.026  2.5839 -0.8953 -1.2199
  229SOL    HW2  915   0.199   0.492   0.111  2.8233 -1.3359 -1.1252
  229SOL     MW  916   0.201   0.545   0.039  0.2968 -0.5234 -0.5619
  230SOL     OW  917   1.746   1.362   2.109  0.3933 -0.3202  0.7742
  230SOL    HW1  918   1.698   1.350   2.191  3.1309  1.1235  3.7807
  230SOL    HW2  919   1.742   1.277   2.062  1.8052 -2.6439  1.1749
  230SOL     MW  920   1.739   1.349   2.114  0.9408 -0.4363  1.2237
  231SOL     OW  921   2.731   1.288   2.213  0.0380  0.0129  0.3563
  231SOL    HW1  922   2.779   1.363   2.180 -1.8447 -0.5888 -1.8921
  231SOL    HW2  923   2.664   1.289   2.141 -0.5719  1.1855 -3.4153
  231SOL     MW  924   2.728   1.298   2.199 -0.2909  0.0882 -0.4380
  232SOL     OW  925   2.291   0.889   1.951 -0.0192 -0.3806  0.2092
  232SOL    HW1  926   2.214   0.946   1.945 -1.1329  1.0231  2.3583
  232SOL    HW2  927   2.274   0.836   2.031  0.3241 -0.0379 -0.9358
  232SOL     MW  928   2.278   0.890   1.961 -0.1208 -0.1502  0.3417
  233SOL     OW  929   2.102   0.440   2.045  0.1225 -0.0008  0.7210
  233SOL    HW1  930   2.163   0.376   2.039 -1.5199  3.3029  0.0849
  233SOL    HW2  931   2.112   0.473   2.131  0.1709  0.5980 -2.4853
  233SOL     MW  932   2.111   0.436   2.055 -0.0878  0.5141  0.2140
  234SOL     OW  933   0.253   1.056   2.665  0.1970 -0.1128 -0.4920
  234SOL    HW1  934   0.180   1.040   2.609  1.7207  1.9287 -3.1601
  234SOL    HW2  935   0.287   1.140   2.643 -1.2066 -3.1445 -0.8495
  234SOL     MW  936   0.248   1.065   2.655  0.2129 -0.2435 -0.8912
  235SOL     OW  937   1.148   0.017   2.839  0.1502 -0.0654 -0.3369
  235SOL    HW1  938   1.151   0.013   2.936  2.9524  1.2441  0.7846
  235SOL    HW2  939   1.129   0.112   2.831 -0.8298  2.3808 -1.5277
  235SOL     MW  940   1.146   0.029   2.851  0.3906  0.4301 -0.3461
  236SOL     OW  941   2.971   0.591   0.175 -0.5541  0.1150 -0.3248
  236SOL    HW1  942   2.972   0.619   0.267 -0.8115  0.2285 -1.0191
  236SOL    HW2  943   3.016   0.657   0.117  1.5286 -1.4957  0.5558
  236SOL     MW  944   2.977   0.603   0.179 -0.3133 -0.0825 -0.3002
  237SOL     OW  945   1.895   1.082   2.108  0.6568  1.0172  0.0964
  237SOL    HW1  946   1.811   1.030   2.124 -3.2377 -0.9628 -2.2983
  237SOL    HW2  947   1.905   1.081   2.010  0.0753  1.7700  0.1697
  237SOL     MW  948   1.885   1.075   2.097  0.0662  0.8553 -0.2099
  238SOL     OW  949   1.083   1.718   2.915  0.1881  0.3018 -0.3221
  238SOL    HW1  950   1.039   1.659   2.849  0.7124 -2.9010  1.4505
  238SOL    HW2  951   1.173   1.682   2.911  0.1600 -1.1211 -1.7894
  238SOL     MW  952   1.089   1.705   2.906  0.2535 -0.3085 -0.2818
  239SOL     OW  953   1.178   1.306   2.347 -0.1873 -0.5245  0.0504
  239SOL    HW1  954   1.153   1.398   2.363 -1.0111 -2.0340  0.1630
  239SOL    HW2  955   1.145   1.258   2.422 -2.0372  1.9835  0.6669
  239SOL     MW  956   1.170   1.312   2.359 -0.5400 -0.3927  0.1466
  240SOL     OW  957   0.586   0.862   2.305 -0.3136 -0.3542  0.7011
  240SOL    HW1  958   0.626   0.916   2.375 -0.7713 -1.7251  3.2689
  240SOL    HW2  959   0.662   0.836   2.266 -0.3324  1.0838  2.1763
  240SOL     MW  960   0.601   0.866   2.309 -0.3765 -0.3453  1.2345
  241SOL     OW  961   0.711   0.450   0.004 -0.2774  0.0852  0.1539
  241SOL    HW1  962   0.733   0.529   0.054 -1.3923  1.6811 -2.5558
  241SOL    HW2  963   0.618   0.468  -0.023  3.4155  1.5599  2.0338
  241SOL     MW  964   0.702   0.463   0.007  0.0628  0.4903  0.0444
  242SOL     OW  965   1.492   1.609   2.303 -0.0804  0.0718 -0.2035
  242SOL    HW1  966   1.444   1.690   2.303 -0.2442  0.5965 -0.2283
  242SOL    HW2  967   1.458   1.562   2.230 -0.0215  0.6603  2.3844
  242SOL     MW  968   1.481   1.614   2.293 -0.0942  0.2187  0.1347
  243SOL     OW  969   0.989   0.259   2.387 -0.6745 -0.4342  0.3279
  243SOL    HW1  970   1.077   0.215   2.392 -0.6869  0.4386 -1.4244
  243SOL    HW2  971   1.001   0.339   2.445 -2.2005 -0.1343  0.2525
  243SOL     MW  972   1.002   0.264   2.395 -0.8775 -0.2795  0.0868
  244SOL     OW  973   0.095   0.789   2.379 -0.0077  0.0179  0.5258
  244SOL    HW1  974   0.058   0.875   2.371  3.5836 -1.3406 -0.6235
  244SOL    HW2  975   0.188   0.797   2.366  0.9950  0.7321 -1.8751
  244SOL     MW  976   0.102   0.801   2.376  0.5985 -0.0671  0.0574
  245SOL     OW  977   1.254   0.136   2.424  0.7100 -0.7242 -0.5145
  245SOL    HW1  978   1.316   0.104   2.363 -0.4022 -0.0797  3.7293
  245SOL    HW2  979   1.253   0.067   2.494 -0.5438  0.9671 -1.4005
  245SOL     MW  980   1.262   0.122   2.425  0.3979 -0.4160 -0.0715
  246SOL     OW  981   1.196   1.131   2.088 -0.4833 -0.2763 -0.6091
  246SOL    HW1  982   1.123   1.119   2.154 -2.3567 -2.7089 -0.3725
  246SOL    HW2  983   1.260   1.078   2.138  0.6972 -1.7084  2.2812
  246SOL     MW  984   1.195   1.122   2.103 -0.5747 -0.7862 -0.1965
  247SOL     OW  985   0.766   0.651   0.186 -0.1847 -0.6965 -0.0644
  247SOL    HW1  986   0.742   0.745   0.175  1.5161  1.3954 -2.1413
  247SOL    HW2  987   0.853   0.633   0.136  2.9840 -0.4113  1.4917
  247SOL     MW  988   0.774   0.661   0.178  0.4578 -0.3829 -0.1332
  248SOL     OW  989   0.308   1.322   2.613  0.4579  0.2964  0.2084
  248SOL    HW1  990   0.348   1.334   2.529  1.1289  1.6218  0.4290
  248SOL    HW2  991   0.342   1.398   2.661  0.5728 -0.8782  1.1332
  248SOL     MW  992   0.318   1.334   2.608  0.5616  0.3163  0.3595
  249SOL     OW  993   3.025   1.925   2.790 -0.1924  0.1707  0.2595
  249SOL    HW1  994   2.982   1.843   2.775  3.2301 -0.4663  0.4016
  249SOL    HW2  995   3.104   1.897   2.836 -0.3799 -0.1825  1.9600
  249SOL     MW  996   3.030   1.911   2.794  0.2344  0.0401  0.5026
  250SOL     OW  997   2.258   0.737   2.180  0.3175 -0.7972  0.5041
  250SOL    HW1  998   2.191   0.673   2.210  2.1699  2.2135 -0.6104
  250SOL    HW2  999   2.336   0.737   2.243  1.3732 -0.5808 -1.4582
  250SOL     MW 1000   2.259   0.729   2.192  0.7012 -0.3714  0.0981
  251SOL     OW 1001   0.167   0.871   2.037  0.1658 -0.1251 -0.4190
  251SOL    HW1 1002   0.083   0.822   2.058  2.3802 -0.6369  0.8808
  251SOL    HW2 1003   0.185   0.855   1.948  0.9119 -0.0255  1.2534
  251SOL     MW 1004   0.158   0.862   2.028  0.5564 -0.1795 -0.0268
  252SOL     OW 1005   1.707   1.039   2.889  0.0449  0.1726 -0.3687
  252SOL    HW1 1006   1.740   1.085   2.967 -0.3689 -0.5354  0.6157
  252SOL    HW2 1007   1.778   1.055   2.836 -2.3092  0.4388  1.8049
  252SOL     MW 1008   1.721   1.047   2.892 -0.3203  0.1143  0.0480
  253SOL     OW 1009   1.146   1.679   2.541 -0.0223 -0.0725  0.3395
  253SOL    HW1 1010   1.110   1.660   2.450 -1.8992 -1.4572 -1.7775
  253SOL    HW2 1011   1.077   1.745   2.573  2.1506 -0.1774  1.3070
  253SOL     MW 1012   1.132   1.686   2.533  0.0167 -0.2690  0.1879
  254SOL     OW 1013   0.979   1.072   2.246  0.0813 -0.7964  0.1196
  254SOL    HW1 1014   0.938   0.985   2.231 -0.2214 -2.4849 -0.1843
  254SOL    HW2 1015   0.915   1.118   2.305 -1.3344 -2.0768  3.1314
  254SOL     MW 1016   0.965   1.066   2.252 -0.1454 -1.1881  0.4768
  255SOL     OW 1017   0.851   2.497   2.147 -0.0658 -0.7641 -0.2342
  255SOL    HW1 1018   0.770   2.447   2.133 -0.8334  3.6803  1.4775
  255SOL    HW2 1019   0.923   2.447   2.189  1.7032  0.2529  2.2458
  255SOL     MW 1020   0.850   2.484   2.151  0.0663 -0.0435  0.3189
  256SOL     OW 1021   1.336   2.777   3.069  0.4134  0.3011  0.0191
  256SOL    HW1 1022   1.323   2.684   3.071  1.3035  0.7976 -0.0603
  256SOL    HW2 1023   1.380   2.775   2.984 -0.1218 -1.9235  1.6370
  256SOL     MW 1024   1.340   2.765   3.058  0.4602  0.0731  0.2221
  257SOL     OW 1025   0.061   1.936   0.070  0.3046  0.5369  0.1105
  257SOL    HW1 1026   0.122   1.917   0.139  2.3182  4.8197  0.9006
  257SOL    HW2 1027   0.067   1.865   0.003  0.5387 -0.9033 -0.1172
  257SOL     MW 1028   0.070   1.924   0.071  0.6011  0.9119  0.1847
  258SOL     OW 1029   0.690   1.005   2.505 -0.3324 -0.8732 -0.4516
  258SOL    HW1 1030   0.718   1.090   2.469  2.9381  0.5738  1.8442
  258SOL    HW2 1031   0.615   1.014   2.569 -1.2922  1.1267  3.7836
  258SOL     MW 1032   0.684   1.017   2.508 -0.0275 -0.4184  0.4101
  259SOL     OW 1033   0.814   0.437   2.227 -0.4824 -0.7522  0.5123
  259SOL    HW1 1034   0.742   0.393   2.177  1.9777 -1.0317  2.1283
  259SOL    HW2 1035   0.866   0.358   2.253  0.8532 -0.8420  0.7962
  259SOL     MW 1036   0.812   0.420   2.224  0.0184 -0.8010  0.7630
  260SOL     OW 1037   0.630   0.104   1.605  0.2939 -0.6165  0.1508
  260SOL    HW1 1038   0.570   0.139   1.542 -0.0607  0.4992  3.2739
  260SOL    HW2 1039   0.718   0.137   1.573 -2.5590  0.7194  0.2083
  260SOL     MW 1040   0.634   0.113   1.592 -0.1293 -0.2930  0.5704
  261SOL     OW 1041   1.014   0.723   2.008  0.0727 -0.2171  0.2011
  261SOL    HW1 1042   1.076   0.708   2.079 -0.1251  0.5809 -1.8762
  261SOL    HW2 1043   0.964   0.639   1.990 -1.9706 -1.4527 -3.8767
  261SOL     MW 1044   1.016   0.710   2.015 -0.2230 -0.2749 -0.6110
  262SOL     OW 1045   1.134   0.303   0.128  0.3765 -0.1395 -0.1305
  262SOL    HW1 1046   1.226   0.315   0.092  0.5750 -1.9249  0.8836
  262SOL    HW2 1047   1.086   0.256   0.056 -1.2908 -0.2619  1.3937
  262SOL     MW 1048   1.140   0.299   0.114  0.1827 -0.3912  0.2044
  263SOL     OW 1049   0.429   3.091   2.460 -0.2314  0.2360 -0.2836
  263SOL    HW1 1050   0.350   3.143   2.475  1.8288  0.9171  0.5963
  263SOL    HW2 1051   0.467   3.127   2.379  1.4376  2.0152 -1.1307
  263SOL     MW 1052   0.424   3.102   2.451  0.2606  0.5606 -0.2793
  264SOL     OW 1053   1.551   1.497   1.910  0.1431 -0.3338 -0.1052
  264SOL    HW1 1054   1.483   1.428   1.901 -0.5896 -0.4910 -0.9666
  264SOL    HW2 1055   1.625   1.456   1.965 -0.5840 -0.6162  1.5467
  264SOL     MW 1056   1.552   1.483   1.916 -0.0495 -0.3918 -0.0009
  265SOL     OW 1057   0.719   2.795   2.293 -0.2551 -0.6172  0.6306
  265SOL    HW1 1058   0.810   2.777   2.270 -0.8832 -0.9974 -1.0592
  265SOL    HW2 1059   0.716   2.797   2.388 -0.5450  1.2171  0.2244
  265SOL     MW 1060   0.730   2.793   2.302 -0.3762 -0.4253  0.3540
  266SOL     OW 1061   0.814   0.867   2.172  0.0922  0.2628  0.2687
  266SOL    HW1 1062   0.803   0.936   2.105  0.2865  0.9414 -0.7066
  266SOL    HW2 1063   0.875   0.804   2.121  0.4794 -1.5905 -2.1704
  266SOL     MW 1064   0.820   0.868   2.156  0.1689  0.1078 -0.1818
  267SOL     OW 1065   1.384   1.735   2.666 -0.0082  0.5251  0.1261
  267SOL    HW1 1066   1.456   1.686   2.625 -1.9643 -0.7350  2.6210
  267SOL    HW2 1067   1.302   1.709   2.618 -3.2304  1.4260 -2.6488
  267SOL     MW 1068   1.383   1.725   2.654 -0.6914  0.4777  0.0891
  268SOL     OW 1069   0.123   0.918   1.749 -0.6332  0.4167 -0.0475
  268SOL    HW1 1070   0.035   0.935   1.777  0.0378  1.1557  0.0393
  268SOL    HW2 1071   0.101   0.859   1.675 -1.3605 -1.2851 -2.7734
  268SOL     MW 1072   0.109   0.912   1.743 -0.6407  0.2897 -0.3957
  269SOL     OW 1073   1.377   1.863   2.368  0.0600 -0.7599  0.6692
  269SOL    HW1 1074   1.428   1.934   2.404 -2.3859  1.3376  0.6985
  269SOL    HW2 1075   1.294   1.899   2.392  2.8346 -0.3916  0.8105
  269SOL     MW 1076   1.373   1.877   2.376  0.1034 -0.4346  0.6917
  270SOL     OW 1077   1.081   0.439   1.509  0.6000  0.4007  0.4452
  270SOL    HW1 1078   1.065   0.349   1.530  0.5013  0.8417 -1.4374
  270SOL    HW2 1079   1.170   0.442   1.485 -2.2671 -0.9993 -0.0430
  270SOL     MW 1080   1.091   0.428   1.509  0.2087  0.2741  0.1324
  271SOL     OW 1081   0.830   0.081   2.513 -1.2502  0.0828  0.4144
  271SOL    HW1 1082   0.870   0.011   2.568 -0.1435 -1.6275 -1.1595
  271SOL    HW2 1083   0.886   0.140   2.466 -1.3396 -2.1047  2.1017
  271SOL     MW 1084   0.842   0.080   2.514 -1.1160 -0.4315  0.4294
  272SOL     OW 1085   1.473   2.770   2.805 -0.4646 -0.3131  0.2607
  272SOL    HW1 1086   1.428   2.766   2.726  1.8595 -0.7762  0.0299
  272SOL    HW2 1087   1.515   2.863   2.806 -0.4153  2.3485  0.8627
  272SOL     MW 1088   1.473   2.782   2.795 -0.1514 -0.0230  0.3097
  273SOL     OW 1089   1.470   0.816   2.824 -0.4038  0.1860 -0.2951
  273SOL    HW1 1090   1.564   0.816   2.840 -2.0909 -1.2082 -0.7231
  273SOL    HW2 1091   1.454   0.906   2.793  1.6850  1.9925 -0.1534
  273SOL     MW 1092   1.480   0.828   2.822 -0.3508  0.2404 -0.3328
  274SOL     OW 1093   1.399   0.626   0.121  0.2113 -0.4276 -0.1601
  274SOL    HW1 1094   1.476   0.597   0.171  1.0679  0.7993  1.1303
  274SOL    HW2 1095   1.331   0.654   0.187 -1.5259  1.4011 -0.8436
  274SOL     MW 1096   1.400   0.626   0.137  0.0951 -0.0244 -0.0801
  275SOL     OW 1097   1.835   0.556   1.705  0.0843 -0.0095 -0.3114
  275SOL    HW1 1098   1.918   0.565   1.756 -0.8137 -1.0996 -2.3420
  275SOL    HW2 1099   1.820   0.461   1.702 -1.2169  2.1343 -0.4738
  275SOL     MW 1100   1.844   0.544   1.712 -0.2059  0.1295 -0.6007
  276SOL     OW 1101   0.360   1.172   1.929  0.0409  0.0641 -0.1971
  276SOL    HW1 1102   0.402   1.091   1.962 -0.2568 -0.9166 -1.5521
  276SOL    HW2 1103   0.330   1.212   2.012 -1.1267 -0.4240  2.1254
  276SOL     MW 1104   0.362   1.167   1.944 -0.1524 -0.1297 -0.0694
  277SOL     OW 1105   1.971   1.127   2.481 -0.6923  0.2494 -0.2815
  277SOL    HW1 1106   1.999   1.211   2.520 -3.5755  0.4140 -1.6604
  277SOL    HW2 1107   1.986   1.142   2.384  3.0744 -1.5912 -1.0428
  277SOL     MW 1108   1.977   1.140   2.473 -0.5757  0.0283 -0.5639
  278SOL     OW 1109   1.462   0.602   1.623  0.0087  0.2020 -0.7097
  278SOL    HW1 1110   1.458   0.572   1.718  0.5962  0.0600  2.1690
  278SOL    HW2 1111   1.547   0.651   1.615  3.0880 -0.3984 -0.2093
  278SOL     MW 1112   1.472   0.604   1.635  0.4925  0.1040 -0.2639
  279SOL     OW 1113   0.506   0.120   2.243 -0.2286 -0.5478 -0.3645
  279SOL    HW1 1114   0.592   0.079   2.273  1.5616  0.1657  3.4639
  279SOL    HW2 1115   0.540   0.209   2.237 -0.9681  1.7466  2.7883
  279SOL     MW 1116   0.522   0.126   2.246 -0.0900 -0.1510  0.5566
  280SOL     OW 1117   1.424   0.989   2.237 -0.3147  0.0580  0.6950
  280SOL    HW1 1118   1.516   0.977   2.203  0.2896 -0.9406  1.5786
  280SOL    HW2 1119   1.414   0.965   2.329  0.0047 -1.3596  0.7023
  280SOL     MW 1120   1.435   0.984   2.245 -0.1928 -0.2608  0.8126
  281SOL     OW 1121   1.357   1.075   2.756  0.6830 -0.4338  0.1365
  281SOL    HW1 1122   1.440   1.125   2.751 -0.7150  0.8152 -0.8684
  281SOL    HW2 1123   1.326   1.078   2.849  1.8981 -2.9986  0.5646
  281SOL     MW 1124   1.363   1.082   2.768  0.6589 -0.6074  0.0604
  282SOL     OW 1125   1.140   1.287   1.644 -0.6523  0.1517  0.1981
  282SOL    HW1 1126   1.116   1.377   1.605 -2.5516  2.2132 -0.1543
  282SOL    HW2 1127   1.058   1.254   1.669  1.2477  0.7854 -1.6669
  282SOL     MW 1128   1.126   1.295   1.642 -0.6522  0.5073 -0.0944
  283SOL     OW 1129   0.819   1.360   3.042  0.0119 -0.2881 -0.4981
  283SOL    HW1 1130   0.909   1.365   3.074  0.7705 -1.7397  2.0190
  283SOL    HW2 1131   0.789   1.454   3.039 -1.3890 -0.4246 -2.0040
  283SOL     MW 1132   0.827   1.373   3.046 -0.0729 -0.4976 -0.3647
  284SOL     OW 1133   0.372   0.696   2.331  0.0785 -0.0331 -0.2269
  284SOL    HW1 1134   0.450   0.741   2.300 -0.0531 -2.7294 -1.3538
  284SOL    HW2 1135   0.357   0.639   2.257  0.9768  0.3316  0.7183
  284SOL     MW 1136   0.380   0.694   2.317  0.1797 -0.3407 -0.2509
  285SOL     OW 1137   0.852   0.856   2.821 -0.1558  0.7539 -0.3849
  285SOL    HW1 1138   0.900   0.891   2.747  0.8185 -0.1822  1.0295
  285SOL    HW2 1139   0.775   0.805   2.789 -0.9052 -0.5857 -1.1505
  285SOL     MW 1140   0.848   0.854   2.807 -0.1261  0.4536 -0.2993
  286SOL     OW 1141   1.069   1.481   2.710 -0.2552 -0.5433  0.0238
  286SOL    HW1 1142   1.119   1.403   2.681 -1.5171 -0.4725  3.3623
  286SOL    HW2 1143   1.116   1.552   2.656  0.9933  1.4180  1.1856
  286SOL     MW 1144   1.082   1.480   2.699 -0.2570 -0.2752  0.6176
  287SOL     OW 1145   1.113   0.950   0.332 -0.5764  0.0453 -0.1643
  287SOL    HW1 1146   1.090   0.982   0.424 -0.4639 -1.6752 -0.9400
  287SOL    HW2 1147   1.058   0.996   0.272  0.8481  2.4744  1.1761
  287SOL     MW 1148   1.103   0.960   0.336 -0.3736  0.1388 -0.0898
  288SOL     OW 1149   1.502   0.691   2.123  0.0499  0.5144 -0.4183
  288SOL    HW1 1150   1.407   0.693   2.164 -0.9104 -1.2199 -0.6719
  288SOL    HW2 1151   1.539   0.785   2.114 -1.0054  1.4887 -0.7045
  288SOL     MW 1152   1.494   0.704   2.127 -0.2160  0.4142 -0.4895
  289SOL     OW 1153   0.953   0.962   2.591  1.1923  0.2335 -0.1099
  289SOL    HW1 1154   0.992   0.898   2.530  1.7724 -1.6349 -3.0048
  289SOL    HW2 1155   0.856   0.979   2.562 -2.3808 -0.4078 -1.8055
  289SOL     MW 1156   0.946   0.956   2.579  0.7974 -0.0977 -0.7155
  290SOL     OW 1157   0.729   0.671   1.468 -0.4643 -0.4002 -0.3164
  290SOL    HW1 1158   0.786   0.613   1.416  1.9225  2.3701 -2.1213
  290SOL    HW2 1159   0.762   0.670   1.555  0.4726  2.4744 -2.9275
  290SOL     MW 1160   0.741   0.663   1.473 -0.0258  0.3446 -0.8991
  291SOL     OW 1161   0.244   0.342   0.192  0.3403 -0.2840  0.0733
  291SOL    HW1 1162   0.333   0.307   0.190 -0.5129  1.5149  0.9145
  291SOL    HW2 1163   0.199   0.257   0.185  0.2417  0.6311  0.6754
  291SOL     MW 1164   0.250   0.326   0.191  0.2147  0.0741  0.2637
  292SOL     OW 1165   1.027   0.583   0.097  0.3289  0.5634 -0.1117
  292SOL    HW1 1166   1.087   0.621   0.160 -1.0098 -2.3072  0.5280
  292SOL    HW2 1167   1.029   0.492   0.125 -0.9099  0.2005  3.3402
  292SOL     MW 1168   1.035   0.576   0.109 -0.0112  0.1368  0.4282
  293SOL     OW 1169   0.157   0.116   2.536  0.1056  0.9829 -0.1224
  293SOL    HW1 1170   0.125   0.076   2.458  3.4007  1.9011 -0.8274
  293SOL    HW2 1171   0.070   0.136   2.573  0.5221 -2.1603 -0.9163
  293SOL     MW 1172   0.141   0.114   2.530  0.5953  0.6894 -0.3201
  294SOL     OW 1173   1.328   0.444   2.345 -0.8433 -0.2208 -0.8834
  294SOL    HW1 1174   1.392   0.504   2.391  1.2789 -0.0300  0.9308
  294SOL    HW2 1175   1.264   0.426   2.413 -2.2980  0.0796 -0.8538
  294SOL     MW 1176   1.328   0.449   2.360 -0.7552 -0.1560 -0.6401
  295SOL     OW 1177   0.850   0.629   2.477  0.2447  0.1086  0.4495
  295SOL    HW1 1178   0.804   0.573   2.412 -0.3167  0.7799  2.0330
  295SOL    HW2 1179   0.783   0.664   2.538  0.7420  1.9304  1.2259
  295SOL     MW 1180   0.835   0.626   2.477  0.2362  0.4376  0.7609
  296SOL     OW 1181   1.358   0.328   2.061  0.0252  0.2049  0.0192
  296SOL    HW1 1182   1.382   0.235   2.071  0.9510  0.2510  2.8768
  296SOL    HW2 1183   1.362   0.361   2.149 -0.6578 -0.1681 -1.9411
  296SOL     MW 1184   1.361   0.320   2.074  0.0572  0.1618  0.1376
  297SOL     OW 1185   1.353   0.366   1.539 -0.3197  0.2332 -0.2696
  297SOL    HW1 1186   1.397   0.449   1.568  1.8836  2.8866 -1.8756
  297SOL    HW2 1187   1.387   0.292   1.591 -2.1954 -1.6391  1.6329
  297SOL     MW 1188   1.364   0.368   1.550 -0.2765  0.3363 -0.2305
  298SOL     OW 1189   1.654   0.927   2.117  0.7684  0.0667  0.5787
  298SOL    HW1 1190   1.672   0.975   2.029  0.6295 -1.3354  2.1851
  298SOL    HW2 1191   1.721   0.856   2.123 -1.3479 -1.2212 -0.2956
  298SOL     MW 1192   1.665   0.924   2.106  0.4709 -0.2882  0.6753
  299SOL     OW 1193   0.623   1.184   0.066 -0.6587  0.0767  0.1355
  299SOL    HW1 1194   0.590   1.176  -0.032  0.7265 -0.8121 -2.1571
  299SOL    HW2 1195   0.715   1.216   0.055  0.8937  0.6758  0.5004
  299SOL     MW 1196   0.631   1.187   0.051 -0.2711  0.0385 -0.1188
  300SOL     OW 1197   1.162   1.176   2.602  0.3205  0.0493  1.2890
  300SOL    HW1 1198   1.091   1.113   2.597  1.3384  2.1024  0.4953
  300SOL    HW2 1199   1.230   1.135   2.660  2.4090  1.3236 -0.5906
  300SOL     MW 1200   1.162   1.162   2.609  0.7303  0.4883  0.9363
  301SOL     OW 1201   1.499   0.983   0.725 -0.5560  0.0964 -0.7298
  301SOL    HW1 1202   1.498   1.019   0.816 -2.3487 -0.0375 -0.9305
  301SOL    HW2 1203   1.425   0.916   0.717 -0.5252 -1.6983 -0.8942
  301SOL     MW 1204   1.489   0.979   0.736 -0.7885 -0.1581 -0.7780
  302SOL     OW 1205   0.184   1.611   2.047 -0.0422  0.1000  0.0014
  302SOL    HW1 1206   0.182   1.519   2.056 -1.3616  1.8263  0.2961
  302SOL    HW2 1207   0.091   1.643   2.059 -0.2467  0.4179  0.4928
  302SOL     MW 1208   0.172   1.603   2.050 -0.2433  0.3697  0.1051
  303SOL     OW 1209   0.283   1.795   2.697 -0.0636  0.0726 -0.4463
  303SOL    HW1 1210   0.255   1.816   2.609  0.5681 -3.3948  1.9444
  303SOL    HW2 1211   0.210   1.747   2.735 -0.0406  0.9105 -2.9097
  303SOL     MW 1212   0.270   1.791   2.690  0.0228 -0.2743 -0.4559
  304SOL     OW 1213   0.529   2.086   2.471 -0.1963  0.0881  0.5055
  304SOL    HW1 1214   0.586   2.159   2.443 -0.6082  1.5168 -3.6015
  304SOL    HW2 1215   0.560   2.006   2.431  0.8419 -0.1358  0.3067
  304SOL     MW 1216   0.541   2.085   2.462 -0.1136  0.2471 -0.0626
  305SOL     OW 1217   1.134   0.650   0.555 -0.9705 -0.2742 -0.1907
  305SOL    HW1 1218   1.042   0.652   0.531 -1.1959 -1.0496 -3.0464
  305SOL    HW2 1219   1.153   0.556   0.584 -1.4421  3.0457 -0.7264
  305SOL     MW 1220   1.124   0.638   0.556 -1.0625  0.0615 -0.6382
  306SOL     OW 1221   1.116   1.560   0.291 -0.0495 -0.2384  0.0595
  306SOL    HW1 1222   1.142   1.477   0.325 -1.8380 -0.7526 -0.1410
  306SOL    HW2 1223   1.178   1.568   0.216 -1.9218 -0.9085 -2.0621
  306SOL     MW 1224   1.128   1.550   0.286 -0.5325 -0.3947 -0.2469
  307SOL     OW 1225   1.464   0.524   1.876  0.2289  0.5064 -0.1973
  307SOL    HW1 1226   1.420   0.455   1.929 -2.6809 -0.6335 -3.0075
  307SOL    HW2 1227   1.471   0.602   1.934 -0.5143  1.4091 -0.2308
  307SOL     MW 1228   1.459   0.525   1.891 -0.2531  0.4751 -0.5725
  308SOL     OW 1229   2.275   0.579   2.764  1.3361  0.1705 -0.0597
  308SOL    HW1 1230   2.373   0.589   2.762  0.1923  0.5515  0.1675
  308SOL    HW2 1231   2.227   0.663   2.776 -1.6190 -1.4700  0.4541
  308SOL     MW 1232   2.282   0.591   2.765  0.7953  0.0043  0.0381
  309SOL     OW 1233   0.504   0.533   0.280  0.6297 -0.6249  0.1711
  309SOL    HW1 1234   0.597   0.563   0.270 -1.1143  2.2798  0.2669
  309SOL    HW2 1235   0.499   0.434   0.295 -3.0243  0.5442  0.9559
  309SOL     MW 1236   0.516   0.524   0.281 -0.0825 -0.0874  0.2873
  310SOL     OW 1237   0.366   0.531   1.832 -0.0339 -0.2045 -0.1668
  310SOL    HW1 1238   0.422   0.484   1.769  2.1758  1.0522  0.1468
  310SOL    HW2 1239   0.399   0.623   1.818  1.1817  2.0829  0.5134
  310SOL     MW 1240   0.378   0.537   1.822  0.4181  0.2631 -0.0357
  311SOL     OW 1241   2.005   0.672   1.933  0.1366  0.6636 -0.1988
  311SOL    HW1 1242   1.944   0.659   2.005 -2.6326 -0.1968  0.1846
  311SOL    HW2 1243   2.076   0.604   1.954 -0.2813  2.2961  0.1929
  311SOL     MW 1244   2.006   0.661   1.945 -0.2839  0.7654 -0.0965
  312SOL     OW 1245   1.723   2.481   0.160 -0.1170 -0.0513  0.1164
  312SOL    HW1 1246   1.730   2.440   0.250  3.5447  0.2653  1.3465
  312SOL    HW2 1247   1.655   2.547   0.165 -2.1827  0.3808 -0.5952
  312SOL     MW 1248   1.715   2.484   0.172  0.0936  0.0475  0.1848
  313SOL     OW 1249   0.147   1.154   3.029 -0.5694 -0.6318  0.6686
  313SOL    HW1 1250   0.100   1.196   3.099 -1.2401 -1.2433  0.3324
  313SOL    HW2 1251   0.151   1.228   2.963 -0.9162 -0.1823 -0.4192
  313SOL     MW 1252   0.141   1.169   3.029 -0.7037 -0.6532  0.4807
  314SOL     OW 1253   2.200   2.892   3.100  0.5927 -0.0023 -0.1232
  314SOL    HW1 1254   2.122   2.906   3.037  0.2139 -0.0262 -1.5801
  314SOL    HW2 1255   2.258   2.964   3.093  3.7508  2.7397 -2.0182
  314SOL     MW 1256   2.197   2.903   3.091  0.9594  0.3563 -0.5654
  315SOL     OW 1257   1.535   1.852   3.013 -0.4997 -0.6064  0.2229
  315SOL    HW1 1258   1.491   1.917   3.071 -1.5266  3.9070 -0.1331
  315SOL    HW2 1259   1.580   1.911   2.947 -1.2301  1.3389 -0.7054
  315SOL     MW 1260   1.535   1.868   3.012 -0.7316  0.2457  0.0535
  316SOL     OW 1261   1.215   0.712   2.696  0.3427  0.2204  0.4374
  316SOL    HW1 1262   1.306   0.729   2.698 -1.1597  0.1280 -1.8451
  316SOL    HW2 1263   1.196   0.699   2.785 -1.9995  0.5131 -0.0022
  316SOL     MW 1264   1.224   0.713   2.708 -0.1646  0.2469  0.0783
  317SOL     OW 1265   0.707   1.640   2.595 -0.4676  0.5487 -0.9477
  317SOL    HW1 1266   0.761   1.555   2.605  1.3884 -1.3742  2.0342
  317SOL    HW2 1267   0.708   1.656   2.506 -1.5808  1.8009 -0.7784
  317SOL     MW 1268   0.714   1.631   2.585 -0.3696  0.4602 -0.5319
  318SOL     OW 1269   1.353   0.409   2.882 -0.2326  0.1162 -0.3484
  318SOL    HW1 1270   1.290   0.481   2.870 -0.5682  2.7580 -1.2264
  318SOL    HW2 1271   1.437   0.446   2.863  1.6555 -0.7294  1.1300
  318SOL     MW 1272   1.356   0.423   2.878 -0.0277  0.3532 -0.2692
  319SOL     OW 1273   0.819   0.509   2.856  0.5198  0.1013  0.0837
  319SOL    HW1 1274   0.798   0.428   2.802  1.8314 -2.1393  1.1492
  319SOL    HW2 1275   0.790   0.485   2.941 -0.5700 -0.3849 -0.3227
  319SOL     MW 1276   0.812   0.495   2.860  0.5491 -0.2585  0.1707
  320SOL     OW 1277   1.008   1.328   1.977 -0.3721 -0.1443  0.2660
  320SOL    HW1 1278   1.064   1.279   2.040 -0.0650  0.1628 -1.0442
  320SOL    HW2 1279   1.070   1.380   1.925  0.1220  0.1637  0.3224
  320SOL     MW 1280   1.023   1.328   1.979 -0.2664 -0.0631  0.1005
  321SOL     OW 1281   1.039   0.901   3.046 -0.0057  0.0483 -0.0885
  321SOL    HW1 1282   0.987   0.902   2.963  0.5157 -1.2264 -1.2891
  321SOL    HW2 1283   1.105   0.832   3.043 -0.6778  2.1047  1.9398
  321SOL     MW 1284   1.041   0.892   3.034 -0.0256  0.1514  0.0207
  322SOL     OW 1285   1.330   0.868   1.646  0.6527  0.0632 -0.1664
  322SOL    HW1 1286   1.336   0.771   1.634  1.5396 -0.7588  0.5994
  322SOL    HW2 1287   1.273   0.874   1.723  0.8045  0.9994  0.2749
  322SOL     MW 1288   1.323   0.856   1.655  0.7898  0.0782 -0.0071
  323SOL     OW 1289   1.192   1.529   1.884 -0.2995  0.0605 -0.0741
  323SOL    HW1 1290   1.236   1.548   1.802  1.5780 -0.2375  0.9600
  323SOL    HW2 1291   1.193   1.610   1.936 -1.2336  1.1039  0.2167
  323SOL     MW 1292   1.198   1.542   1.880 -0.1750  0.1588  0.1007
  324SOL     OW 1293   1.444   0.924   2.508  0.1353 -0.3884 -0.5339
  324SOL    HW1 1294   1.385   0.982   2.567 -1.4929  1.1819  1.8159
  324SOL    HW2 1295   1.530   0.960   2.512 -3.2122 -1.7691 -1.9776
  324SOL     MW 1296   1.448   0.936   2.516 -0.5212 -0.3634 -0.4144
  325SOL     OW 1297   1.091   0.522   2.906  0.1516 -0.3825 -0.1738
  325SOL    HW1 1298   1.103   0.550   3.000 -0.9527  1.1987 -0.5832
  325SOL    HW2 1299   0.994   0.520   2.893  0.8994  2.5848  0.8951
  325SOL     MW 1300   1.080   0.525   2.917  0.1046  0.2176 -0.0868
  326SOL     OW 1301   0.407   1.370   2.348 -0.2383 -0.7280  0.5850
  326SOL    HW1 1302   0.487   1.344   2.302  1.1653 -0.4194  1.6245
  326SOL    HW2 1303   0.390   1.466   2.326 -1.6659  2.2533  0.5140
  326SOL     MW 1304   0.415   1.379   2.339 -0.2415 -0.2939  0.7128
  327SOL     OW 1305   1.961   0.757   2.433 -0.5101 -0.4288 -0.2401
  327SOL    HW1 1306   1.910   0.721   2.508 -0.4299  1.0596  1.6391
  327SOL    HW2 1307   1.981   0.849   2.453  0.9213 -0.9567 -3.6405
  327SOL     MW 1308   1.957   0.764   2.446 -0.3106 -0.3021 -0.4408
  328SOL     OW 1309   0.253   1.343   2.118  0.3133 -0.1903 -0.1885
  328SOL    HW1 1310   0.172   1.288   2.131 -0.0365  2.9985 -2.2621
  328SOL    HW2 1311   0.315   1.348   2.194  3.0442  1.7973  1.3592
  328SOL     MW 1312   0.250   1.337   2.130  0.6274  0.4927 -0.2579
  329SOL     OW 1313   0.066   0.109   1.361 -0.6675  0.1938  0.0945
  329SOL    HW1 1314   0.059   0.090   1.460  3.3603 -0.3558 -1.9396
  329SOL    HW2 1315   0.143   0.166   1.345  0.6864 -0.4136  1.4393
  329SOL     MW 1316   0.075   0.114   1.372  0.0425  0.0411  0.0035
  330SOL     OW 1317   0.352   0.062   1.987 -0.3753  0.6279 -0.5686
  330SOL    HW1 1318   0.448   0.064   1.997 -0.4965 -3.1751 -0.4821
  330SOL    HW2 1319   0.326  -0.017   2.032 -1.6740  0.5051 -2.4651
  330SOL     MW 1320   0.361   0.052   1.994 -0.5626  0.1099 -0.8074
  331SOL     OW 1321   0.769   1.233   2.371  0.0421  0.4662  0.1493
  331SOL    HW1 1322   0.719   1.278   2.299 -0.4202  2.3799 -2.2597
  331SOL    HW2 1323   0.807   1.286   2.436 -1.9645 -1.8224 -1.8629
  331SOL     MW 1324   0.768   1.246   2.370 -0.2837  0.4168 -0.4341
  332SOL     OW 1325   1.343   1.649   2.920  0.1738 -0.1333  0.4561
  332SOL    HW1 1326   1.386   1.649   2.830  2.8199  1.8848  1.8574
  332SOL    HW2 1327   1.368   1.736   2.955  0.4738  0.9228  1.2908
  332SOL     MW 1328   1.352   1.661   2.912  0.5625  0.2723  0.7511
  333SOL     OW 1329   1.696   1.377   2.927 -0.1544 -0.5937 -0.3041
  333SOL    HW1 1330   1.789   1.368   2.957  0.0894  2.7247  1.8057
  333SOL    HW2 1331   1.646   1.330   2.988  1.1892  0.2498 -1.0359
  333SOL     MW 1332   1.702   1.370   2.939  0.0551 -0.0446 -0.1223
  334SOL     OW 1333   1.333   3.065   2.636 -0.3883  0.0382  0.9116
  334SOL    HW1 1334   1.276   3.081   2.708 -1.7450  0.1488 -3.6424
  334SOL    HW2 1335   1.400   3.134   2.638  1.7560 -0.9238  1.3253
  334SOL     MW 1336   1.334   3.076   2.646 -0.2844 -0.0741  0.3654
  335SOL     OW 1337   1.274   0.766   2.998 -0.0093  0.3013  0.3338
  335SOL    HW1 1338   1.321   0.704   3.059 -4.0622  1.7999 -3.6363
  335SOL    HW2 1339   1.332   0.792   2.926 -2.3450  1.8358  2.5703
  335SOL     MW 1340   1.288   0.761   2.997 -0.8522  0.7015  0.1050
  336SOL     OW 1341   0.925   1.147   1.710  0.1326 -0.4236 -0.3849
  336SOL    HW1 1342   0.840   1.172   1.756 -0.6050 -2.0654 -1.3896
  336SOL    HW2 1343   0.980   1.093   1.777  2.8232 -0.2087  0.8972
  336SOL     MW 1344   0.921   1.143   1.725  0.3902 -0.6119 -0.3483
  337SOL     OW 1345   0.475   1.942   2.804  0.2933 -0.0149  0.7520
  337SOL    HW1 1346   0.401   1.910   2.749  0.3121  1.8500 -1.5015
  337SOL    HW2 1347   0.545   1.897   2.763  1.9119  2.4336  0.4439
  337SOL     MW 1348   0.474   1.932   2.791  0.5093  0.5542  0.4140
  338SOL     OW 1349   1.098   0.754   2.448  0.3585  0.3023  0.2224
  338SOL    HW1 1350   1.014   0.701   2.461 -0.3610  1.2076  0.5229
  338SOL    HW2 1351   1.133   0.752   2.538  0.2745  0.9353  1.3665
  338SOL     MW 1352   1.091   0.747   2.462  0.2525  0.5053  0.4130
  339SOL     OW 1353   1.359   1.277   1.924 -0.5744  0.3416 -0.2286
  339SOL    HW1 1354   1.357   1.232   1.841  0.1509 -2.5490  0.9581
  339SOL    HW2 1355   1.298   1.233   1.983  2.0112 -2.5797  0.2419
  339SOL     MW 1356   1.351   1.265   1.921 -0.1375 -0.4252 -0.0099
  340SOL     OW 1357   1.311   1.526   0.088 -0.0430  0.4746  0.3397
  340SOL    HW1 1358   1.349   1.546   0.004  0.6182  2.1058 -2.1578
  340SOL    HW2 1359   1.378   1.466   0.133  2.9110  0.2203 -0.8555
  340SOL     MW 1360   1.325   1.520   0.082  0.4340  0.6563 -0.1475
  341SOL     OW 1361   0.135   1.365   2.827 -0.6470  0.3356 -0.4062
  341SOL    HW1 1362   0.226   1.388   2.861  1.4625  0.6978 -3.0267
  341SOL    HW2 1363   0.163   1.318   2.750 -0.6490  0.7035  0.9139
  341SOL     MW 1364   0.151   1.362   2.821 -0.3689  0.4319 -0.5778
  342SOL     OW 1365   1.381   0.332   0.037 -0.6721  0.2076 -0.1828
  342SOL    HW1 1366   1.436   0.399   0.088  3.8130 -1.6516  2.8469
  342SOL    HW2 1367   1.358   0.377  -0.046  0.8856  2.2655 -1.7717
  342SOL     MW 1368   1.385   0.347   0.033  0.1252  0.2339  0.0073
  343SOL     OW 1369   0.229   0.257   2.163  0.6602  0.3190 -0.0515
  343SOL    HW1 1370   0.295   0.198   2.119  1.3537  0.4040 -0.8488
  343SOL    HW2 1371   0.146   0.215   2.149 -0.9241 -0.2127  1.5462
  343SOL     MW 1372   0.227   0.244   2.155  0.5427  0.2600  0.0541
  344SOL     OW 1373   1.704   2.029   0.177 -0.3978  0.5597  0.0297
  344SOL    HW1 1374   1.716   2.103   0.123 -1.0464 -1.7965 -0.7414
  344SOL    HW2 1375   1.626   1.997   0.156 -0.6745 -1.3492  2.6215
  344SOL     MW 1376   1.695   2.034   0.167 -0.5199 -0.0031  0.2699
  345SOL     OW 1377   0.651   1.623   2.320 -0.2700  0.1792  0.2927
  345SOL    HW1 1378   0.554   1.627   2.323 -0.5205 -1.1012 -2.6849
  345SOL    HW2 1379   0.674   1.579   2.241  2.4380  0.8270 -0.8654
  345SOL     MW 1380   0.641   1.618   2.310  0.0542  0.0957 -0.2529
  346SOL     OW 1381   1.687   1.158   0.040  0.1164  0.2049  0.4735
  346SOL    HW1 1382   1.770   1.175   0.095  2.6470  2.6485 -3.4549
  346SOL    HW2 1383   1.648   1.073   0.069 -2.6555  0.4744 -0.6406
  346SOL     MW 1384   1.693   1.149   0.051  0.0846  0.5629 -0.1918
  347SOL     OW 1385   1.176   0.646   2.227  0.2289  0.5021 -0.0980
  347SOL    HW1 1386   1.231   0.566   2.248 -0.8653  0.3504 -0.1355
  347SOL    HW2 1387   1.141   0.688   2.307  1.0516  1.5966 -0.9909
  347SOL     MW 1388   1.179   0.641   2.240  0.1930  0.6265 -0.2208
  348SOL     OW 1389   1.305   2.581   1.959 -0.3242 -0.0113  0.1793
  348SOL    HW1 1390   1.312   2.516   2.039 -0.6971  1.0185  0.9648
  348SOL    HW2 1391   1.361   2.657   1.985  2.1281  1.9498  1.2780
  348SOL     MW 1392   1.313   2.583   1.973 -0.0499  0.3833  0.4279
  349SOL     OW 1393   1.486   0.174   2.766 -0.2327  0.1973 -0.2719
  349SOL    HW1 1394   1.429   0.252   2.788 -0.1708  0.8412 -1.9488
  349SOL    HW2 1395   1.507   0.124   2.844  1.1869 -3.4251 -1.2845
  349SOL     MW 1396   1.481   0.177   2.779 -0.0372 -0.1957 -0.6268
  350SOL     OW 1397   1.863   0.634   2.650  0.0809  0.1588 -0.3143
  350SOL    HW1 1398   1.808   0.568   2.608  1.2563  0.5041  0.1114
  350SOL    HW2 1399   1.941   0.582   2.695  1.8514 -1.4840 -2.5775
  350SOL     MW 1400   1.866   0.619   2.650  0.4695 -0.0124 -0.5567
  351SOL     OW 1401   0.084   1.193   1.555  0.3610  0.1877  0.1009
  351SOL    HW1 1402   0.092   1.111   1.603  0.7890  1.1359  1.8201
  351SOL    HW2 1403   0.151   1.249   1.601  2.0925 -2.2304  2.8437
  351SOL     MW 1404   0.094   1.190   1.567  0.6459 -0.0062  0.6896
  352SOL     OW 1405   0.744   1.823   2.779 -0.0353 -0.5621  0.2989
  352SOL    HW1 1406   0.739   1.777   2.863  1.3881 -2.0049  0.8290
  352SOL    HW2 1407   0.745   1.750   2.713  1.6965 -1.3651 -0.5948
  352SOL     MW 1408   0.744   1.807   2.781  0.3810 -0.8584  0.2509
  353SOL     OW 1409   3.082   2.571   2.629  0.0490 -0.7569  0.1940
  353SOL    HW1 1410   3.172   2.536   2.632  2.6136  2.2193  1.0089
  353SOL    HW2 1411   3.085   2.644   2.568 -1.1019 -0.1608  3.0819
  353SOL     MW 1412   3.094   2.576   2.622  0.2355 -0.2856  0.6825
  354SOL     OW 1413   0.378   2.413   0.830 -0.3001 -0.1805 -0.6893
  354SOL    HW1 1414   0.427   2.405   0.916 -0.5100  0.8526  0.6655
  354SOL    HW2 1415   0.298   2.354   0.851  1.5008  1.1345  0.3956
  354SOL     MW 1416   0.374   2.404   0.844 -0.0902  0.1293 -0.3674
  355SOL     OW 1417   0.120   2.222   0.389  0.3662  0.1404  0.3950
  355SOL    HW1 1418   0.039   2.158   0.400 -0.0621  0.3804  0.5160
  355SOL    HW2 1419   0.117   2.256   0.477  1.3255  0.1455 -2.2797
  355SOL     MW 1420   0.109   2.218   0.402  0.4362  0.1728  0.0581
  356SOL     OW 1421   0.753   2.955   1.049 -0.3755  0.6139 -0.4538
  356SOL    HW1 1422   0.820   2.943   0.980 -0.4763 -0.7487  0.9525
  356SOL    HW2 1423   0.670   2.940   1.003 -1.6710  2.6137 -3.5003
  356SOL     MW 1424   0.751   2.951   1.034 -0.5597  0.6980 -0.6702
  357SOL     OW 1425   1.842   2.790   0.465 -0.1157 -0.0396  0.5254
  357SOL    HW1 1426   1.848   2.751   0.554  4.4565  0.5477  1.1836
  357SOL    HW2 1427   1.924   2.765   0.421 -1.3569  0.7908 -0.6187
  357SOL     MW 1428   1.853   2.782   0.471  0.3238  0.1475  0.4613
  358SOL     OW 1429   0.420   0.149   1.064  0.0112 -0.0487  0.1457
  358SOL    HW1 1430   0.519   0.146   1.072  1.3309 -0.8086 -1.4868
  358SOL    HW2 1431   0.402   0.188   0.979 -1.1969 -0.2142 -0.3270
  358SOL     MW 1432   0.431   0.154   1.054  0.0259 -0.1708 -0.1321
  359SOL     OW 1433   0.876   2.977   1.872  0.8927 -0.8466  0.6428
  359SOL    HW1 1434   0.866   2.895   1.928  1.6536 -1.1071 -0.1235
  359SOL    HW2 1435   0.864   2.946   1.778  0.1517  1.2650 -3.6276
  359SOL     MW 1436   0.873   2.962   1.867  0.8953 -0.6023 -0.0218
  360SOL     OW 1437   0.586   2.763   0.934 -0.2443 -0.0289 -0.3046
  360SOL    HW1 1438   0.596   2.728   0.848 -1.1536 -2.8314  0.7078
  360SOL    HW2 1439   0.610   2.692   1.000  0.7400  1.2312 -0.3258
  360SOL     MW 1440   0.591   2.749   0.932 -0.2344 -0.2324 -0.1738
  361SOL     OW 1441   0.170   2.697   1.394 -0.5277  0.4224 -0.2191
  361SOL    HW1 1442   0.109   2.747   1.454 -0.1837  2.4506 -1.3770
  361SOL    HW2 1443   0.248   2.746   1.391 -2.7392  0.5033 -0.0692
  361SOL     MW 1444   0.172   2.710   1.402 -0.7741  0.7007 -0.3521
  362SOL     OW 1445   1.368   2.425   0.619 -0.3328  0.1047  0.0286
  362SOL    HW1 1446   1.419   2.372   0.681  2.0485  0.7321  0.7806
  362SOL    HW2 1447   1.439   2.492   0.602  2.4994 -0.2193 -2.5265
  362SOL     MW 1448   1.384   2.427   0.625  0.3551  0.1447 -0.2093
  363SOL     OW 1449   0.314   3.102   0.681  0.1214 -0.4871 -0.6162
  363SOL    HW1 1450   0.330   3.018   0.728 -0.2066 -0.7909  1.6320
  363SOL    HW2 1451   0.239   3.094   0.624 -0.9984  0.6042 -0.9623
  363SOL     MW 1452   0.306   3.090   0.680 -0.0696 -0.3832 -0.3652
  364SOL     OW 1453   0.794   0.204   0.148 -0.5995  0.2890  0.3874
  364SOL    HW1 1454   0.743   0.148   0.202  0.0993  1.1185  0.4939
  364SOL    HW2 1455   0.733   0.278   0.111 -0.8537  2.7900 -0.4220
  364SOL     MW 1456   0.779   0.206   0.150 -0.5408  0.7284  0.2947
  365SOL     OW 1457   0.882   2.028   1.290  0.0082  0.0377 -0.1638
  365SOL    HW1 1458   0.863   2.102   1.230 -0.7873  1.5662  1.4538
  365SOL    HW2 1459   0.909   1.955   1.233  0.3532 -1.0634 -4.2608
  365SOL     MW 1460   0.883   2.028   1.274 -0.0512  0.0941 -0.4909
  366SOL     OW 1461   2.895   2.661   0.959 -0.4208 -0.0690 -0.1984
  366SOL    HW1 1462   2.976   2.625   0.992  1.3402 -1.9225  3.1655
  366SOL    HW2 1463   2.921   2.697   0.869 -0.7984  1.2988  0.2347
  366SOL     MW 1464   2.909   2.661   0.951 -0.2383 -0.1331  0.3026
  367SOL     OW 1465   1.283   3.016   1.014  0.5277  0.5201  0.2173
  367SOL    HW1 1466   1.372   3.055   1.016 -2.3506 -0.3264 -1.8160
  367SOL    HW2 1467   1.254   2.997   0.927  1.2476  2.4113  1.2211
  367SOL     MW 1468   1.291   3.019   1.002  0.2429  0.6579  0.0815
  368SOL     OW 1469   1.698   0.430   0.601  0.3273 -0.3850 -0.3908
  368SOL    HW1 1470   1.752   0.364   0.557  1.7927  0.1058 -1.2021
  368SOL    HW2 1471   1.712   0.512   0.554 -1.8045 -0.7542  2.4997
  368SOL     MW 1472   1.707   0.432   0.589  0.2394 -0.3689 -0.1165
  369SOL     OW 1473   0.152   2.400   1.755  0.2284  0.6046  0.1694
  369SOL    HW1 1474   0.247   2.407   1.763  2.5657 -0.1743  0.1972
  369SOL    HW2 1475   0.127   2.491   1.741  1.4764  0.4569 -0.0629
  369SOL     MW 1476   0.161   2.413   1.754  0.7015  0.4823  0.1424
  370SOL     OW 1477   0.717   0.128   1.065  0.0633 -0.1285  0.6613
  370SOL    HW1 1478   0.714   0.129   0.970  1.9804  1.9068 -0.3422
  370SOL    HW2 1479   0.743   0.036   1.095 -1.0787  0.0054 -0.7040
  370SOL     MW 1480   0.720   0.116   1.057  0.1656  0.1577  0.3488
  371SOL     OW 1481   1.121   2.899   1.473 -0.2086 -0.2803 -0.2788
  371SOL    HW1 1482   1.157   2.818   1.434 -2.5551 -0.7327  0.5379
  371SOL    HW2 1483   1.122   2.956   1.397  3.8759 -0.7814 -2.1237
  371SOL     MW 1484   1.126   2.896   1.458  0.0207 -0.4061 -0.4144
  372SOL     OW 1485   0.800   2.314   0.465  0.1335 -0.1785  0.0295
  372SOL    HW1 1486   0.786   2.229   0.510 -1.6138  0.2713 -0.7325
  372SOL    HW2 1487   0.838   2.288   0.380  1.7450 -1.2906  1.3552
  372SOL     MW 1488   0.803   2.300   0.460  0.1156 -0.2659  0.1039
  373SOL     OW 1489   2.819   2.983   1.413 -0.6118 -0.5919 -0.4086
  373SOL    HW1 1490   2.910   2.959   1.400 -2.7910 -1.0616  0.5919
  373SOL    HW2 1491   2.807   3.063   1.374 -1.0570  0.7402  1.0577
  373SOL     MW 1492   2.830   2.990   1.406 -0.9580 -0.4781 -0.0831
  374SOL     OW 1493   1.597   0.484   0.257 -0.2866 -0.2546 -0.2595
  374SOL    HW1 1494   1.679   0.434   0.246  2.2249 -0.2162  0.1742
  374SOL    HW2 1495   1.550   0.435   0.320  0.6396  1.2659 -0.5383
  374SOL     MW 1496   1.601   0.471   0.264  0.1670 -0.0489 -0.2391
  375SOL     OW 1497   1.103   2.063   2.224  0.3652 -0.3006 -0.4127
  375SOL    HW1 1498   1.110   2.046   2.320  1.4359 -0.5859 -0.6903
  375SOL    HW2 1499   1.017   2.025   2.205 -0.4615 -1.0183  2.2229
  375SOL     MW 1500   1.092   2.056   2.234  0.3974 -0.4330 -0.1016
  376SOL     OW 1501   0.822   2.524   0.137  0.8526 -0.0422  0.3277
  376SOL    HW1 1502   0.755   2.472   0.189 -2.8985 -0.8904  1.2435
  376SOL    HW2 1503   0.838   2.466   0.061 -1.2418 -3.3243 -1.0331
  376SOL     MW 1504   0.816   2.510   0.134  0.0813 -0.5871  0.2690
  377SOL     OW 1505   1.341   2.089   0.927 -0.0298  0.2741  0.3980
  377SOL    HW1 1506   1.262   2.060   0.881 -0.9737  0.6320  1.3617
  377SOL    HW2 1507   1.369   2.007   0.976 -1.6093 -0.7058 -0.1046
  377SOL     MW 1508   1.335   2.074   0.928 -0.3627  0.1920  0.4588
  378SOL     OW 1509   0.886   2.872   1.608 -0.2024  0.3560  1.4126
  378SOL    HW1 1510   0.892   2.772   1.615 -1.2913 -4.0496 -1.8933
  378SOL    HW2 1511   0.946   2.891   1.538  0.6127  2.4149 -0.4722
  378SOL     MW 1512   0.895   2.861   1.600 -0.2385  0.0464  0.7277
  379SOL     OW 1513   1.059   1.558   2.292 -0.1674  0.0542  0.3090
  379SOL    HW1 1514   0.976   1.557   2.240 -0.0342 -2.8793  0.0536
  379SOL    HW2 1515   1.138   1.553   2.236  0.2326 -0.6116 -2.0284
  379SOL     MW 1516   1.059   1.557   2.278 -0.0971 -0.4207 -0.0331
  380SOL     OW 1517   0.896   0.132   1.495  0.7039 -0.1026  0.8647
  380SOL    HW1 1518   0.911   0.055   1.436  1.4949  1.6732 -0.3260
  380SOL    HW2 1519   0.954   0.116   1.570 -0.9536  0.9262  0.0333
  380SOL     MW 1520   0.906   0.119   1.497  0.5896  0.2674  0.5979
  381SOL     OW 1521   0.835   2.057   0.890 -0.0748  0.0744  0.8208
  381SOL    HW1 1522   0.931   2.058   0.867  1.1046  1.5194 -0.7490
  381SOL    HW2 1523   0.829   2.124   0.955 -0.3883 -1.7421 -0.0999
  381SOL     MW 1524   0.847   2.066   0.896  0.0395  0.0254  0.4922
  382SOL     OW 1525   0.862   0.124   0.601  0.1894 -0.4126  0.0187
  382SOL    HW1 1526   0.827   0.168   0.684  1.2699  0.4680  2.6818
  382SOL    HW2 1527   0.817   0.043   0.597  1.7705  0.2009  0.8507
  382SOL     MW 1528   0.852   0.119   0.612  0.5406 -0.2155  0.4798
  383SOL     OW 1529   0.645   0.014   0.311 -0.0028 -0.5526  0.1154
  383SOL    HW1 1530   0.700  -0.060   0.288 -1.3570  1.5556 -1.3086
  383SOL    HW2 1531   0.577  -0.020   0.368  3.5122  0.6321  0.8872
  383SOL     MW 1532   0.643  -0.000   0.315  0.2823 -0.1182  0.0293
  384SOL     OW 1533   0.768   2.971   0.606  0.2933 -0.2648  0.2018
  384SOL    HW1 1534   0.843   2.966   0.669 -2.4512  0.9552 -0.9589
  384SOL    HW2 1535   0.719   2.891   0.636 -0.6701  0.9697 -2.8301
  384SOL     MW 1536   0.771   2.960   0.618 -0.1959  0.0590 -0.3514
  385SOL     OW 1537   1.361   2.063   1.529  0.2328  0.0092  0.1126
  385SOL    HW1 1538   1.450   2.069   1.574  1.5970 -2.0504  2.7104
  385SOL    HW2 1539   1.328   1.988   1.577  1.2027 -1.2591  0.2292
  385SOL     MW 1540   1.369   2.054   1.541  0.5407 -0.4299  0.4707
  386SOL     OW 1541   1.464   0.402   0.851 -0.2351 -0.8705 -0.4760
  386SOL    HW1 1542   1.412   0.452   0.915  1.9815 -1.7585  0.9393
  386SOL    HW2 1543   1.548   0.408   0.897 -0.7031  1.7549 -1.7196
  386SOL     MW 1544   1.468   0.409   0.866 -0.0044 -0.6413 -0.4533
  387SOL     OW 1545   0.785   2.254   1.569  0.2392  0.7962  0.0717
  387SOL    HW1 1546   0.862   2.282   1.517  1.7145  0.2292 -1.7622
  387SOL    HW2 1547   0.796   2.158   1.564 -0.9841  3.5613  0.1293
  387SOL     MW 1548   0.797   2.245   1.561  0.2724  1.0862 -0.1627
  388SOL     OW 1549   1.452   2.804   1.477  0.0028  0.2023  1.1664
  388SOL    HW1 1550   1.406   2.837   1.397  0.4577 -2.0826  1.9970
  388SOL    HW2 1551   1.521   2.752   1.441  0.3188  1.9247  0.1258
  388SOL     MW 1552   1.455   2.802   1.462  0.1045  0.1281  1.1387
  389SOL     OW 1553   0.465   0.125   3.061 -0.5230 -0.3044 -0.0522
  389SOL    HW1 1554   0.522   0.053   3.037  0.8319 -0.8753  0.9770
  389SOL    HW2 1555   0.462   0.180   2.975  1.0765 -2.4431 -0.9468
  389SOL     MW 1556   0.472   0.123   3.047 -0.1332 -0.6619 -0.0345
  390SOL     OW 1557   1.374   0.015   0.719 -0.0373 -0.4676 -0.1891
  390SOL    HW1 1558   1.408  -0.005   0.634  1.6823  2.5273  0.4874
  390SOL    HW2 1559   1.453   0.073   0.747 -0.2945 -0.4802 -0.9596
  390SOL     MW 1560   1.389   0.020   0.711  0.1557 -0.0741 -0.2015
  391SOL     OW 1561   0.310   2.161   1.517  0.0317 -0.5113 -0.1525
  391SOL    HW1 1562   0.314   2.175   1.615 -2.7425  1.8174  1.0286
  391SOL    HW2 1563   0.287   2.250   1.487 -1.0171 -1.0632 -1.4153
  391SOL     MW 1564   0.307   2.175   1.526 -0.4727 -0.2768 -0.1633
  392SOL     OW 1565   1.938   2.152   0.314  0.1369 -0.4588  0.2606
  392SOL    HW1 1566   1.997   2.226   0.330  0.7537 -0.0538  2.0478
  392SOL    HW2 1567   1.854   2.188   0.322  1.6021 -0.0576 -1.3335
  392SOL     MW 1568   1.935   2.166   0.317  0.4116 -0.3524  0.2861
  393SOL     OW 1569   0.241   2.954   2.819 -0.4195 -0.2758 -0.5277
  393SOL    HW1 1570   0.327   2.956   2.773  0.5447  0.3914  0.1132
  393SOL    HW2 1571   0.221   3.045   2.838  1.5943  1.0443  0.1886
  393SOL     MW 1572   0.250   2.966   2.816 -0.0266 -0.0136 -0.3486
  394SOL     OW 1573   0.999   1.785   1.556 -0.7872 -0.2627  0.3633
  394SOL    HW1 1574   1.038   1.792   1.645  1.3701 -0.9958 -1.8923
  394SOL    HW2 1575   0.944   1.862   1.545 -1.5919 -2.3329  1.0702
  394SOL     MW 1576   0.997   1.796   1.566 -0.6088 -0.6325  0.1590
  395SOL     OW 1577   0.955   2.943   2.711  0.0890  0.5605  0.4335
  395SOL    HW1 1578   1.010   3.018   2.755 -0.7878 -1.5807  1.4444
  395SOL    HW2 1579   1.018   2.882   2.673  1.1995 -0.9294 -1.3776
  395SOL     MW 1580   0.970   2.945   2.712  0.1198  0.0814  0.3279
  396SOL     OW 1581   0.721   1.875   2.356 -0.4642 -0.7429 -0.0550
  396SOL    HW1 1582   0.770   1.896   2.435 -0.5723  1.3637 -0.0021
  396SOL    HW2 1583   0.720   1.779   2.337 -2.0525 -1.7101 -1.6034
  396SOL     MW 1584   0.728   1.865   2.364 -0.6880 -0.5926 -0.2523
  397SOL     OW 1585   1.012   2.289   1.377  0.4869 -0.1348 -0.1261
  397SOL    HW1 1586   1.041   2.303   1.289 -0.9342 -1.5933  0.5148
  397SOL    HW2 1587   1.080   2.278   1.444  0.3058  1.2097  2.5160
  397SOL     MW 1588   1.025   2.289   1.374  0.2755 -0.1499  0.3071
  398SOL     OW 1589   0.648   2.732   0.655  0.6634 -0.0945  0.3350
  398SOL    HW1 1590   0.612   2.706   0.569 -0.2641 -0.6396 -1.1074
  398SOL    HW2 1591   0.700   2.653   0.672 -1.4136 -1.0540  0.2162
  398SOL     MW 1592   0.650   2.718   0.646  0.2670 -0.2930  0.1290
  399SOL     OW 1593   0.317   2.059   0.367 -0.3579 -0.2263  0.7283
  399SOL    HW1 1594   0.248   2.126   0.379 -2.1992  0.1098 -1.2696
  399SOL    HW2 1595   0.384   2.101   0.309  1.6983  1.5054 -0.6036
  399SOL     MW 1596   0.317   2.074   0.361 -0.3296  0.0466  0.2890
  400SOL     OW 1597   0.593   1.934   0.098  0.2388 -0.1935  0.4431
  400SOL    HW1 1598   0.574   2.032   0.119 -1.7054  3.7662  1.1599
  400SOL    HW2 1599   0.580   1.879   0.178  0.3489 -2.0685  1.1833
  400SOL     MW 1600   0.589   1.939   0.111 -0.0032  0.0816  0.6353
  401SOL     OW 1601   0.859   2.035   3.094 -0.3651 -0.3830 -0.5103
  401SOL    HW1 1602   0.939   1.984   3.120 -0.3537  1.8032  0.9649
  401SOL    HW2 1603   0.791   1.969   3.111 -0.0170  0.8281 -0.3689
  401SOL     MW 1604   0.861   2.019   3.099 -0.3176  0.0652 -0.2970
  402SOL     OW 1605   0.616   3.004   1.818 -0.4725  0.1337  0.4144
  402SOL    HW1 1606   0.697   3.007   1.866 -0.0863 -1.9605  0.7811
  402SOL    HW2 1607   0.629   3.054   1.742 -1.1002 -1.3376  0.5323
  402SOL     MW 1608   0.629   3.011   1.814 -0.5043 -0.3368  0.4783
  403SOL     OW 1609   0.146   0.495   0.401 -0.0704  0.0517  0.5164
  403SOL    HW1 1610   0.225   0.520   0.454 -0.5364 -2.9639  2.1531
  403SOL    HW2 1611   0.178   0.445   0.331  0.2733  0.3800  1.3716
  403SOL     MW 1612   0.161   0.492   0.398 -0.0865 -0.3029  0.8452
  404SOL     OW 1613   0.932   2.957   0.833  0.5104  0.1234 -0.1444
  404SOL    HW1 1614   1.008   2.892   0.833  0.1025  0.6975  0.0045
  404SOL    HW2 1615   0.982   3.036   0.811  0.2920 -0.7494 -3.0581
  404SOL     MW 1616   0.949   2.959   0.830  0.4278  0.0840 -0.5092
  405SOL     OW 1617   0.525   2.463   1.514 -0.0010 -0.0559  0.0315
  405SOL    HW1 1618   0.566   2.545   1.470  1.0699 -0.0668 -0.1302
  405SOL    HW2 1619   0.569   2.401   1.460  0.4171  0.6838  2.8393
  405SOL     MW 1620   0.536   2.466   1.501  0.1955  0.0402  0.3806
  406SOL     OW 1621   0.458   2.351   1.089  0.3217 -0.1035  0.0563
  406SOL    HW1 1622   0.377   2.359   1.141 -1.4209  0.9441 -1.0184
  406SOL    HW2 1623   0.503   2.270   1.112  3.5298 -0.6182  0.0454
  406SOL     MW 1624   0.453   2.341   1.099  0.5151 -0.0332 -0.0870
  407SOL     OW 1625   0.045   2.640   1.096  0.5180 -0.1960 -0.5498
  407SOL    HW1 1626   0.091   2.650   1.178  0.6852  1.0332  1.8814
  407SOL    HW2 1627   0.113   2.662   1.029 -1.5682  0.9262 -1.1633
  407SOL     MW 1628   0.060   2.644   1.098  0.2648  0.1143 -0.3100
  408SOL     OW 1629   2.140   2.147   0.701 -0.2678  0.5191 -0.4118
  408SOL    HW1 1630   2.082   2.169   0.782  0.5421 -2.4410  3.5406
  408SOL    HW2 1631   2.062   2.096   0.657  0.9565  0.0026 -0.8391
  408SOL     MW 1632   2.122   2.143   0.706  0.0006  0.0604  0.0533
  409SOL     OW 1633   1.604   0.092   0.834 -0.5592 -0.1097  0.0011
  409SOL    HW1 1634   1.644   0.178   0.823  1.9781  0.0730  1.4032
  409SOL    HW2 1635   1.590   0.084   0.929  1.7405  2.3838  0.5485
  409SOL     MW 1636   1.607   0.102   0.845  0.0790  0.2434  0.2583
  410SOL     OW 1637   1.103   2.422   1.152 -0.3647  0.2696  0.2711
  410SOL    HW1 1638   1.033   2.456   1.097  0.2623  2.5828  0.8740
  410SOL    HW2 1639   1.163   2.391   1.082 -1.2324 -0.7441 -0.9475
  410SOL     MW 1640   1.102   2.422   1.135 -0.3964  0.4410  0.1899
  411SOL     OW 1641   1.987   2.935   2.914  0.1758  0.1907 -0.1261
  411SOL    HW1 1642   2.004   2.931   2.820 -1.7906  0.2152 -1.6504
  411SOL    HW2 1643   1.956   3.025   2.928 -0.2906 -2.4157  1.4863
  411SOL     MW 1644   1.985   2.946   2.904 -0.1452 -0.1499 -0.1145
  412SOL     OW 1645   1.043   2.246   0.634 -0.8382 -0.8528 -0.5049
  412SOL    HW1 1646   1.079   2.333   0.660  0.9874  0.0401 -0.3675
  412SOL    HW2 1647   0.953   2.258   0.613  0.2889  2.5869  1.2759
  412SOL     MW 1648   1.036   2.259   0.634 -0.4486 -0.2812 -0.2518
  413SOL     OW 1649   0.632   2.694   0.037 -0.3512  0.2459 -0.2013
  413SOL    HW1 1650   0.688   2.626   0.081  1.7920 -1.0716 -0.4514
  413SOL    HW2 1651   0.647   2.670  -0.057 -1.1166 -1.2501 -0.4386
  413SOL     MW 1652   0.641   2.681   0.031 -0.1694 -0.1253 -0.2656
  414SOL     OW 1653   2.035   2.994   1.099  0.3199 -0.5838  0.2098
  414SOL    HW1 1654   2.078   3.079   1.106 -1.7605  0.0003  1.3100
  414SOL    HW2 1655   2.031   2.962   1.013  1.7204 -2.6262  0.7941
  414SOL     MW 1656   2.040   3.001   1.089  0.2302 -0.7762  0.4321
  415SOL     OW 1657   1.640   2.841   1.132  0.5321 -0.1201  0.5305
  415SOL    HW1 1658   1.716   2.858   1.189  0.8648 -3.0627 -1.2632
  415SOL    HW2 1659   1.671   2.764   1.086 -0.0115  1.6269 -0.8260
  415SOL     MW 1660   1.654   2.833   1.133  0.5043 -0.2779  0.1149
  416SOL     OW 1661   0.630   1.774   1.432  0.0684  1.0037 -0.2949
  416SOL    HW1 1662   0.539   1.783   1.419 -1.6312 -3.1925  2.3716
  416SOL    HW2 1663   0.660   1.708   1.367 -0.2932 -0.3243 -0.6993
  416SOL     MW 1664   0.622   1.767   1.422 -0.2036  0.2748  0.0036
  417SOL     OW 1665   0.944   0.058   2.048 -0.5668 -0.0353  0.1389
  417SOL    HW1 1666   0.879   0.063   2.116  1.1182  0.8879 -2.5220
  417SOL    HW2 1667   0.909   0.006   1.977 -0.0089  1.2604 -1.3117
  417SOL     MW 1668   0.931   0.051   2.048 -0.2709  0.2575 -0.4036
  418SOL     OW 1669   0.788   2.884   0.179  0.5194 -0.2361  0.0007
  418SOL    HW1 1670   0.867   2.884   0.123  1.1757 -2.5427 -0.3095
  418SOL    HW2 1671   0.720   2.843   0.117 -0.3777 -0.2851 -0.3104
  418SOL     MW 1672   0.789   2.878   0.163  0.4876 -0.5469 -0.0813
  419SOL     OW 1673   0.630   2.689   1.332  0.0916 -0.0233 -0.6213
  419SOL    HW1 1674   0.642   2.780   1.350  0.7267 -1.8094  0.1768
  419SOL    HW2 1675   0.714   2.643   1.328  2.2208 -0.2295  0.9662
  419SOL     MW 1676   0.643   2.695   1.334  0.4563 -0.2862 -0.3065
  420SOL     OW 1677   0.808   2.242   1.104  0.5907 -0.3732 -0.1051
  420SOL    HW1 1678   0.760   2.264   1.189  1.9479  0.9737  0.2265
  420SOL    HW2 1679   0.812   2.319   1.052  3.6983 -1.1886  0.2804
  420SOL     MW 1680   0.802   2.255   1.108  1.1798 -0.3031 -0.0105
  421SOL     OW 1681   2.893   0.165   0.094  0.4890 -0.6163  0.3113
  421SOL    HW1 1682   2.829   0.119   0.040  2.7374  1.9325 -1.4510
  421SOL    HW2 1683   2.953   0.090   0.092 -0.0501 -0.0370 -0.1698
  421SOL     MW 1684   2.892   0.149   0.086  0.7146 -0.2036  0.0153
  422SOL     OW 1685   0.867   2.472   0.974 -0.0461 -0.5861  0.2397
  422SOL    HW1 1686   0.794   2.516   1.015 -0.8493 -3.0044 -0.3986
  422SOL    HW2 1687   0.865   2.487   0.881  2.7891 -0.4098  0.5761
  422SOL     MW 1688   0.857   2.480   0.967  0.2220 -0.8819  0.1998
  423SOL     OW 1689   1.515   0.031   0.485  0.6198 -0.0256 -0.2834
  423SOL    HW1 1690   1.540  -0.008   0.396 -1.2438 -2.3096 -2.1856
  423SOL    HW2 1691   1.522   0.123   0.473 -0.4346  0.6262  1.4453
  423SOL     MW 1692   1.520   0.038   0.472  0.2348 -0.2409 -0.3063
  424SOL     OW 1693   0.663   2.284   1.343 -0.5281  0.3209  0.3133
  424SOL    HW1 1694   0.580   2.238   1.344 -1.1087  0.7940  1.8695
  424SOL    HW2 1695   0.693   2.283   1.434 -0.3764 -0.0699  0.8104
  424SOL     MW 1696   0.656   2.278   1.355 -0.5847  0.3318  0.5842
  425SOL     OW 1697   1.706   2.801   2.051  0.4645 -0.2842  0.2420
  425SOL    HW1 1698   1.708   2.832   1.957  1.2802 -1.7250 -2.2257
  425SOL    HW2 1699   1.742   2.712   2.044 -0.3592 -1.0292  1.0558
  425SOL     MW 1700   1.711   2.793   2.038  0.4635 -0.5726  0.0238
  426SOL     OW 1701   0.871   1.677   1.937 -0.5302  0.1353 -0.1953
  426SOL    HW1 1702   0.832   1.659   1.847 -3.4267  0.5918 -0.3003
  426SOL    HW2 1703   0.839   1.760   1.964 -1.0889 -3.8394  1.3941
  426SOL     MW 1704   0.862   1.686   1.929 -0.9861 -0.3289  0.0005
  427SOL     OW 1705   0.375   1.761   1.862 -0.4025 -0.1638 -0.4788
  427SOL    HW1 1706   0.390   1.680   1.817 -0.0053  3.4977  1.9957
  427SOL    HW2 1707   0.339   1.730   1.948  1.6110 -1.1310  1.1894
  427SOL     MW 1708   0.373   1.747   1.868 -0.0844  0.1917  0.0678
  428SOL     OW 1709   0.655   2.557   1.085  0.2993 -0.2524  0.4487
  428SOL    HW1 1710   0.587   2.486   1.091  0.0331 -2.0882  0.7694
  428SOL    HW2 1711   0.667   2.592   1.169  0.7699 -1.9845 -0.0039
  428SOL     MW 1712   0.648   2.553   1.097  0.3263 -0.7232  0.4313
  429SOL     OW 1713   1.194   2.761   1.086  0.0535  0.5262  0.1185
  429SOL    HW1 1714   1.114   2.751   1.139  0.8307  0.0540  2.3644
  429SOL    HW2 1715   1.231   2.846   1.080 -1.2310  0.9796 -0.8738
  429SOL     MW 1716   1.188   2.771   1.092 -0.0135  0.5238  0.2839
  430SOL     OW 1717   1.164   2.823   0.815  0.0806  0.3367 -0.1381
  430SOL    HW1 1718   1.172   2.774   0.900  2.4818 -0.3553 -1.1981
  430SOL    HW2 1719   1.153   2.770   0.739  1.9569  0.1113 -1.0199
  430SOL     MW 1720   1.164   2.810   0.816  0.6450  0.2156 -0.3943
  431SOL     OW 1721   0.325   1.915   1.107 -0.4046  0.0651  0.0360
  431SOL    HW1 1722   0.388   1.843   1.105  2.2495 -2.0581  1.9324
  431SOL    HW2 1723   0.307   1.945   1.022  0.3877 -0.8361  0.2435
  431SOL     MW 1724   0.331   1.910   1.096  0.0501 -0.3340  0.3136
  432SOL     OW 1725   0.026   3.091   1.116 -0.5080  0.0905  0.1907
  432SOL    HW1 1726   0.041   3.128   1.204  1.2000  3.0986  1.2557
  432SOL    HW2 1727  -0.032   3.025   1.146  1.3522  2.6027 -1.8525
  432SOL     MW 1728   0.020   3.087   1.131 -0.0372  0.8189  0.0616
  433SOL     OW 1729   0.634   2.921   1.490 -0.2266  0.3549  0.2066
  433SOL    HW1 1730   0.642   3.010   1.521  2.1968  1.6023  0.1395
  433SOL    HW2 1731   0.722   2.896   1.521  3.0144 -3.0438  1.1172
  433SOL     MW 1732   0.646   2.929   1.498  0.5208  0.0711  0.3179
  434SOL     OW 1733   1.492   2.833   1.733 -0.3599 -0.1529  0.6881
  434SOL    HW1 1734   1.406   2.862   1.769 -1.8768  0.5158  0.0992
  434SOL    HW2 1735   1.482   2.832   1.633 -1.1038 -2.1796  1.8991
  434SOL     MW 1736   1.479   2.837   1.724 -0.6582 -0.3320  0.7702
  435SOL     OW 1737   2.701   1.778   0.244  0.1871  0.4985  0.9513
  435SOL    HW1 1738   2.762   1.826   0.182  0.4477  0.0166  3.3223
  435SOL    HW2 1739   2.615   1.802   0.235  0.9812  0.6036  1.3620
  435SOL     MW 1740   2.697   1.788   0.235  0.3263  0.4488  1.3184
  436SOL     OW 1741   1.343   2.733   0.358  0.2636  0.8066  0.0468
  436SOL    HW1 1742   1.406   2.718   0.427 -2.3193  1.6088 -1.6941
  436SOL    HW2 1743   1.303   2.812   0.392  0.5958  3.1706 -0.7284
  436SOL     MW 1744   1.346   2.741   0.372 -0.0333  1.2244 -0.2852
  437SOL     OW 1745   0.932   3.041   1.294 -0.6472  0.0353  0.2963
  437SOL    HW1 1746   0.956   3.077   1.211  0.8694  2.2538  1.2737
  437SOL    HW2 1747   0.953   2.945   1.285  0.8380  1.9382 -1.2719
  437SOL     MW 1748   0.938   3.033   1.282 -0.2511  0.5791  0.2183
  438SOL     OW 1749   0.881   2.713   1.965 -0.7165  0.2272 -0.0286
  438SOL    HW1 1750   0.894   2.640   2.028  1.1403 -2.7889  1.5941
  438SOL    HW2 1751   0.817   2.677   1.898  2.7370 -0.2534 -1.1009
  438SOL     MW 1752   0.874   2.699   1.964 -0.0159 -0.2342  0.0441
  439SOL     OW 1753   1.187   2.065   0.441 -0.3841 -0.0896  0.4494
  439SOL    HW1 1754   1.110   2.085   0.487 -0.0294  0.2517  1.0567
  439SOL    HW2 1755   1.192   2.136   0.371 -1.9262 -0.5851  0.1544
  439SOL     MW 1756   1.178   2.077   0.438 -0.5407 -0.1099  0.4906
  440SOL     OW 1757   1.767   2.798   3.005  0.0510 -1.2969  0.2130
  440SOL    HW1 1758   1.758   2.858   3.079  2.2626 -0.0089  1.4742
  440SOL    HW2 1759   1.834   2.840   2.955 -1.5571 -2.3868 -0.0461
  440SOL     MW 1760   1.774   2.811   3.008  0.1306 -1.2707  0.3452
  441SOL     OW 1761   0.509   2.709   0.415 -0.3722  1.0032 -0.0231
  441SOL    HW1 1762   0.471   2.671   0.337 -0.5052 -0.0264 -1.2986
  441SOL    HW2 1763   0.463   2.787   0.437  2.6070 -0.8162 -1.1533
  441SOL     MW 1764   0.498   2.715   0.408  0.0034  0.6273 -0.3405
  442SOL     OW 1765   0.023   2.361   0.639 -0.2201  0.4324 -0.4344
  442SOL    HW1 1766   0.035   2.456   0.607 -1.3192  0.4415  1.5029
  442SOL    HW2 1767  -0.067   2.350   0.659  0.6879 -0.5068 -0.6020
  442SOL     MW 1768   0.013   2.372   0.637 -0.2453  0.3097 -0.2009
  443SOL     OW 1769   1.467   1.761   1.931 -0.1427  0.6067  0.0928
  443SOL    HW1 1770   1.424   1.794   1.852  0.7451  3.1508 -1.3083
  443SOL    HW2 1771   1.501   1.674   1.906  0.1628  3.7949 -1.1121
  443SOL     MW 1772   1.466   1.753   1.917  0.0147  1.3630 -0.2510
  444SOL     OW 1773   0.936   2.594   1.606 -0.2107 -0.1614 -0.2445
  444SOL    HW1 1774   1.006   2.548   1.647 -1.4838  0.1879  2.9750
  444SOL    HW2 1775   0.859   2.561   1.649 -0.5774 -0.0743 -0.4107
  444SOL     MW 1776   0.935   2.584   1.617 -0.4271 -0.1038  0.1583
  445SOL     OW 1777   1.205   0.079   1.401 -0.2173  0.2095 -0.5118
  445SOL    HW1 1778   1.162   0.098   1.483 -0.0447 -0.3397  0.6574
  445SOL    HW2 1779   1.223   0.155   1.349  0.7613 -1.4140 -1.3973
  445SOL     MW 1780   1.201   0.091   1.405 -0.0654 -0.0772 -0.4744
  446SOL     OW 1781   2.719   2.857   1.053 -0.6546 -0.2469  0.3043
  446SOL    HW1 1782   2.717   2.927   0.994 -4.0653  0.6295  2.2966
  446SOL    HW2 1783   2.775   2.785   1.022  0.8336  0.1766  2.9999
  446SOL     MW 1784   2.726   2.857   1.041 -0.9083 -0.0754  0.9228
  447SOL     OW 1785   0.034   1.943   1.567  0.3102  0.3415 -0.0076
  447SOL    HW1 1786   0.074   1.884   1.634  0.5087 -0.6865 -1.4346
  447SOL    HW2 1787  -0.031   1.892   1.513  1.6982  0.6152  1.7789
  447SOL     MW 1788   0.031   1.928   1.569  0.5196  0.2420  0.0398
  448SOL     OW 1789   1.712   2.345   1.665 -0.3799 -0.1799  0.2570
  448SOL    HW1 1790   1.668   2.268   1.690 -0.0971 -0.8084 -0.0992
  448SOL    HW2 1791   1.650   2.411   1.693 -0.2239  0.9374  0.2159
  448SOL     MW 1792   1.698   2.344   1.672 -0.3220 -0.1154  0.2045
  449SOL     OW 1793   0.937   2.907   0.403  0.6452 -0.7328  0.3038
  449SOL    HW1 1794   0.875   2.898   0.329  1.2906  0.8008 -1.7930
  449SOL    HW2 1795   0.875   2.941   0.471  1.0509  0.5472  0.9375
  449SOL     MW 1796   0.921   2.910   0.402  0.7839 -0.3616  0.1107
  450SOL     OW 1797   1.143   2.512   0.734  0.4444  0.9712 -0.3912
  450SOL    HW1 1798   1.158   2.480   0.830  0.0948  2.5853  0.0682
  450SOL    HW2 1799   1.226   2.493   0.684  1.2131  2.6837 -2.1685
  450SOL     MW 1800   1.156   2.505   0.740  0.4997  1.4101 -0.5651
  451SOL     OW 1801   0.553   1.999   1.699 -0.1623  0.3301 -0.0735
  451SOL    HW1 1802   0.632   1.996   1.651  0.1455  0.1125  1.8275
  451SOL    HW2 1803   0.496   1.953   1.632  0.8819 -1.0376  0.3685
  451SOL     MW 1804   0.556   1.993   1.684  0.0161  0.1209  0.2357
  452SOL     OW 1805   0.335   2.635   3.084 -0.7460 -0.3943 -0.0385
  452SOL    HW1 1806   0.424   2.664   3.099  2.0506 -0.5416 -2.0165
  452SOL    HW2 1807   0.293   2.721   3.072 -2.0680 -0.7562 -0.5117
  452SOL     MW 1808   0.341   2.650   3.084 -0.5515 -0.4615 -0.3619
  453SOL     OW 1809   0.221   3.008   1.567 -0.4876 -0.2371  0.3298
  453SOL    HW1 1810   0.256   2.966   1.643 -0.3542 -2.0472 -0.3951
  453SOL    HW2 1811   0.290   2.989   1.508 -1.5809  0.7442  1.0741
  453SOL     MW 1812   0.235   3.000   1.569 -0.6143 -0.3465  0.3324
  454SOL     OW 1813   0.916   2.777   1.187  1.0774 -0.1507 -0.1518
  454SOL    HW1 1814   0.905   2.692   1.218  2.3426  0.5823 -0.1316
  454SOL    HW2 1815   0.835   2.813   1.150  1.4054 -1.3660 -1.5931
  454SOL     MW 1816   0.904   2.770   1.186  1.2876 -0.2143 -0.3393
  455SOL     OW 1817   1.770   2.858   0.179 -0.9008 -0.0426 -0.2634
  455SOL    HW1 1818   1.804   2.837   0.267 -1.0904 -2.5811  2.0595
  455SOL    HW2 1819   1.697   2.791   0.164 -1.2285 -2.1094  0.9250
  455SOL     MW 1820   1.765   2.847   0.188 -0.9690 -0.6503  0.1999
  456SOL     OW 1821   2.759   0.269   1.458  0.1288 -0.0938  0.0754
  456SOL    HW1 1822   2.731   0.213   1.386 -1.4808 -0.2913  0.0212
  456SOL    HW2 1823   2.814   0.340   1.420  0.6736 -1.9209 -0.7581
  456SOL     MW 1824   2.763   0.271   1.443 -0.0117 -0.3609 -0.0417
  457SOL     OW 1825   0.788   1.651   3.046  0.8015  0.4211  0.2730
  457SOL    HW1 1826   0.691   1.634   3.048  0.9026  0.9691  1.2738
  457SOL    HW2 1827   0.801   1.687   3.132 -1.4839 -1.4993  0.6214
  457SOL     MW 1828   0.777   1.654   3.058  0.5133  0.2401  0.4510
  458SOL     OW 1829   1.355   1.473   0.699  0.4114 -0.2263  0.3480
  458SOL    HW1 1830   1.273   1.515   0.714 -1.0676  2.9566  0.1854
  458SOL    HW2 1831   1.338   1.380   0.680  1.0641 -0.4494  0.8719
  458SOL     MW 1832   1.342   1.466   0.698  0.3024  0.1642  0.3957
  459SOL     OW 1833   1.599   3.054   0.254  0.2574 -0.5073  0.3631
  459SOL    HW1 1834   1.648   2.973   0.227 -0.4958 -0.5604 -0.8602
  459SOL    HW2 1835   1.541   3.076   0.178  1.4794  1.0965  1.8775
  459SOL     MW 1836   1.598   3.046   0.240  0.3192 -0.3027  0.4015
  460SOL     OW 1837   1.774   2.234   0.630 -0.6511  0.1358  0.4508
  460SOL    HW1 1838   1.689   2.223   0.672  1.4642 -0.4959  0.7890
  460SOL    HW2 1839   1.813   2.142   0.628  0.1963  1.0258  2.1342
  460SOL     MW 1840   1.768   2.221   0.635 -0.2602  0.1699  0.7175
  461SOL     OW 1841   0.398   2.426   0.521 -0.0200  0.7605 -0.1825
  461SOL    HW1 1842   0.400   2.514   0.498 -0.7398 -1.1677 -1.4500
  461SOL    HW2 1843   0.390   2.423   0.615  1.6922  0.2795 -2.3303
  461SOL     MW 1844   0.397   2.437   0.531  0.1109  0.4426 -0.6331
  462SOL     OW 1845   0.283   0.240   1.284  0.1913  0.0862  0.5596
  462SOL    HW1 1846   0.324   0.225   1.199  0.9911 -0.6774  1.9394
  462SOL    HW2 1847   0.358   0.261   1.342 -1.1512  2.6681 -1.9571
  462SOL     MW 1848   0.298   0.241   1.281  0.1197  0.3261  0.4096
  463SOL     OW 1849   1.098   0.055   0.731  0.2050  0.4328 -0.4594
  463SOL    HW1 1850   1.193   0.057   0.716 -1.1893  0.6009 -0.4037
  463SOL    HW2 1851   1.059   0.080   0.645 -1.5026 -2.1177  0.2494
  463SOL     MW 1852   1.105   0.059   0.718 -0.2043  0.1185 -0.3585
  464SOL     OW 1853   0.734   3.075   2.280  0.0623  0.2875 -0.0103
  464SOL    HW1 1854   0.726   2.979   2.304  1.0781 -0.6931  0.9617
  464SOL    HW2 1855   0.783   3.104   2.362 -1.6623 -0.9713  0.3188
  464SOL     MW 1856   0.739   3.066   2.294 -0.0312 -0.0079  0.1614
  465SOL     OW 1857   0.831   0.334   0.366  0.1741  0.0563 -0.3691
  465SOL    HW1 1858   0.799   0.291   0.442 -0.5637  0.0547 -1.2334
  465SOL    HW2 1859   0.817   0.278   0.290 -0.3338  1.3432  2.5370
  465SOL     MW 1860   0.825   0.321   0.366  0.0097  0.2259 -0.0997
  466SOL     OW 1861   1.121   2.057   0.792  0.0842  0.1416 -0.7135
  466SOL    HW1 1862   1.105   1.975   0.751  0.9677 -1.7892  5.8132
  466SOL    HW2 1863   1.098   2.131   0.731 -0.8240  1.0165  0.9102
  466SOL     MW 1864   1.116   2.056   0.778  0.0809  0.0023  0.3619
  467SOL     OW 1865   1.277   2.347   0.972  0.0252  0.1142  0.6336
  467SOL    HW1 1866   1.364   2.372   1.001  0.3619 -0.2998  0.0170
  467SOL    HW2 1867   1.288   2.251   0.976 -1.4460 -2.0829 -1.7707
  467SOL     MW 1868   1.290   2.338   0.976 -0.1245 -0.2303  0.2350
  468SOL     OW 1869   0.524   2.666   1.913 -0.7879 -0.2178 -0.1528
  468SOL    HW1 1870   0.469   2.607   1.850 -3.9388 -3.0178 -1.0897
  468SOL    HW2 1871   0.506   2.762   1.886  1.7551  0.3643  3.5132
  468SOL     MW 1872   0.514   2.671   1.901 -0.8681 -0.5105  0.2072
  469SOL     OW 1873   0.325   2.143   1.809 -0.0214  0.5384 -0.3175
  469SOL    HW1 1874   0.250   2.090   1.830  1.1330  1.4545 -1.7337
  469SOL    HW2 1875   0.402   2.087   1.814 -1.2496  0.3640  1.4384
  469SOL     MW 1876   0.325   2.129   1.813 -0.0311  0.6362 -0.2727
  470SOL     OW 1877   3.043   2.583   0.090 -0.2703  0.1133  0.2433
  470SOL    HW1 1878   2.960   2.590   0.141 -1.5040 -1.0251 -0.7080
  470SOL    HW2 1879   3.014   2.592  -0.002 -0.8427 -1.5274 -0.6507
  470SOL     MW 1880   3.028   2.585   0.085 -0.5086 -0.2534 -0.0001
  471SOL     OW 1881   1.158   2.644   1.361 -0.3727  0.1660  0.1288
  471SOL    HW1 1882   1.099   2.631   1.434  0.3830  1.9252  0.1412
  471SOL    HW2 1883   1.160   2.570   1.304  2.4391  0.4589  0.3665
  471SOL     MW 1884   1.151   2.633   1.363  0.0980  0.4368  0.1618
  472SOL     OW 1885   2.972   2.128   0.350  0.3376  0.4127  0.3048
  472SOL    HW1 1886   2.952   2.109   0.259 -1.0801 -0.6744  1.4841
  472SOL    HW2 1887   2.905   2.065   0.391 -1.2129 -2.4650  0.4963
  472SOL     MW 1888   2.960   2.117   0.343 -0.0540 -0.1104  0.4857
  473SOL     OW 1889   0.862   2.544   1.328  0.2989  0.2134 -0.2748
  473SOL    HW1 1890   0.883   2.462   1.289 -0.7527  0.0461  1.6863
  473SOL    HW2 1891   0.864   2.524   1.421 -4.2841  0.5951 -2.0279
  473SOL     MW 1892   0.865   2.531   1.335 -0.4446  0.2417 -0.2473
  474SOL     OW 1893   0.678   2.288   1.843  1.0912 -0.3001 -0.5480
  474SOL    HW1 1894   0.763   2.294   1.883  0.0637 -0.9734  0.8436
  474SOL    HW2 1895   0.681   2.239   1.768 -2.3250  1.6169  1.2141
  474SOL     MW 1896   0.689   2.283   1.838  0.5049 -0.1360 -0.1319
  475SOL     OW 1897   1.597   3.071   1.534  0.3872  0.4297 -0.5333
  475SOL    HW1 1898   1.549   3.018   1.473  1.8564 -1.3840  0.0163
  475SOL    HW2 1899   1.634   3.000   1.584 -1.0465 -0.4025 -0.3010
  475SOL     MW 1900   1.595   3.055   1.533  0.3919  0.0806 -0.4301
  476SOL     OW 1901   1.421   2.653   1.179 -0.2030  0.9247  0.0631
  476SOL    HW1 1902   1.338   2.681   1.155 -0.4185 -0.5019  2.1788
  476SOL    HW2 1903   1.472   2.735   1.165 -0.0700  1.0421  0.2371
  476SOL     MW 1904   1.417   2.668   1.174 -0.2139  0.7520  0.3652
  477SOL     OW 1905   0.848   2.536   0.708  0.2195  0.0293  0.3475
  477SOL    HW1 1906   0.921   2.580   0.666  1.6319 -0.0331 -0.5558
  477SOL    HW2 1907   0.824   2.477   0.634  0.5362 -1.8403 -1.1533
  477SOL     MW 1908   0.855   2.534   0.693  0.4476 -0.2256  0.0303
  478SOL     OW 1909   0.234   2.656   0.902 -0.3244  0.2514 -0.4383
  478SOL    HW1 1910   0.282   2.731   0.859  0.0763 -2.3463 -0.8022
  478SOL    HW2 1911   0.287   2.576   0.883 -0.2158  0.9006 -0.2640
  478SOL     MW 1912   0.247   2.655   0.894 -0.2572 -0.0057 -0.4633
  479SOL     OW 1913   1.411   1.969   1.268 -0.2746 -0.3574 -0.0335
  479SOL    HW1 1914   1.396   2.006   1.358  0.7191  0.5445 -1.4834
  479SOL    HW2 1915   1.464   1.892   1.291  1.4391  0.7766  0.5890
  479SOL     MW 1916   1.416   1.964   1.283  0.0826 -0.0888 -0.1427
  480SOL     OW 1917   2.003   2.450   1.372 -0.3318  0.4834  0.3051
  480SOL    HW1 1918   2.011   2.354   1.384 -1.7651 -2.1704 -1.5715
  480SOL    HW2 1919   1.962   2.454   1.283  0.1413  1.4875  2.9421
  480SOL     MW 1920   1.999   2.438   1.362 -0.4585  0.2657  0.4054
  481SOL     OW 1921   1.063   0.108   1.067  0.4361 -0.2864  0.0453
  481SOL    HW1 1922   1.134   0.043   1.056  0.9330 -0.2868  1.4285
  481SOL    HW2 1923   1.114   0.187   1.072  0.8994 -0.9968 -0.9080
  481SOL     MW 1924   1.079   0.110   1.066  0.5628 -0.3802  0.1020
  482SOL     OW 1925   1.063   0.018   0.259 -0.4920 -0.2759 -0.4216
  482SOL    HW1 1926   0.998  -0.048   0.283  0.7568 -2.5104  2.4217
  482SOL    HW2 1927   1.062   0.092   0.319 -0.9609  0.2632  1.3078
  482SOL     MW 1928   1.054   0.019   0.270 -0.3891 -0.4996  0.1817
  483SOL     OW 1929   0.445   2.998   0.464  0.5145 -0.3832 -0.2892
  483SOL    HW1 1930   0.357   3.001   0.425 -1.5131 -1.8217 -0.3286
  483SOL    HW2 1931   0.437   3.037   0.554  2.4265  2.3024  2.7887
  483SOL     MW 1932   0.432   3.003   0.471  0.4993 -0.2186  0.1117
  484SOL     OW 1933   1.823   2.010   1.417 -0.1452  0.3459  0.0442
  484SOL    HW1 1934   1.904   2.060   1.413  2.2683  0.0837 -0.8673
  484SOL    HW2 1935   1.798   2.005   1.514 -2.9595  0.9691 -0.7565
  484SOL     MW 1936   1.830   2.016   1.429 -0.1981  0.3936 -0.1817
  485SOL     OW 1937   0.616   2.418   0.284  0.3008  0.1224  0.6096
  485SOL    HW1 1938   0.666   2.370   0.357  0.9523 -2.8001  2.5922
  485SOL    HW2 1939   0.528   2.439   0.316  0.8141  2.1285 -1.7659
  485SOL     MW 1940   0.611   2.415   0.298  0.4545  0.0015  0.5577
  486SOL     OW 1941   0.188   2.405   1.424 -0.1796 -0.4098  0.4711
  486SOL    HW1 1942   0.191   2.490   1.383  1.4836 -1.4181  0.3260
  486SOL    HW2 1943   0.141   2.424   1.506 -1.5817 -1.2107  0.4486
  486SOL     MW 1944   0.182   2.418   1.429 -0.1452 -0.6485  0.4490
  487SOL     OW 1945   1.187   1.752   1.023 -0.3047  0.0113  0.1239
  487SOL    HW1 1946   1.152   1.832   1.055  0.2646  1.1084  1.2677
  487SOL    HW2 1947   1.280   1.764   1.033  1.1060  0.3230  2.6082
  487SOL     MW 1948   1.195   1.764   1.029 -0.0434  0.1972  0.6026
  488SOL     OW 1949   1.594   1.830   0.558  0.0278  0.5662 -0.4977
  488SOL    HW1 1950   1.677   1.854   0.522  0.6186  1.5834  0.1556
  488SOL    HW2 1951   1.531   1.903   0.537 -3.6520 -1.1309 -0.3044
  488SOL     MW 1952   1.597   1.843   0.550 -0.3798  0.4765 -0.3860
  489SOL     OW 1953   0.784   0.831   0.613  0.1423  0.0754 -0.6597
  489SOL    HW1 1954   0.816   0.752   0.566 -1.2308  0.3515 -1.3789
  489SOL    HW2 1955   0.765   0.808   0.705  0.6058 -0.1780 -1.2256
  489SOL     MW 1956   0.786   0.817   0.619  0.0223  0.0784 -0.8293
  490SOL     OW 1957   1.439   2.065   0.536  0.0333 -0.3207 -0.3334
  490SOL    HW1 1958   1.468   2.147   0.486 -0.3204  1.7390 -0.2304
  490SOL    HW2 1959   1.346   2.068   0.525 -0.1317 -0.2860 -0.9002
  490SOL     MW 1960   1.430   2.076   0.528 -0.0352 -0.0444 -0.3946
  491SOL     OW 1961   1.256   2.996   0.406  0.8051  0.0417 -0.0523
  491SOL    HW1 1962   1.312   3.063   0.426  1.4628 -0.6496  2.5733
  491SOL    HW2 1963   1.173   3.033   0.371 -1.6825 -0.5291 -0.2812
  491SOL     MW 1964   1.252   3.010   0.404  0.5636 -0.1248  0.2639
  492SOL     OW 1965   1.530   2.201   0.731  0.3202 -0.3135 -0.2237
  492SOL    HW1 1966   1.494   2.146   0.663 -1.0969  1.3177  0.9938
  492SOL    HW2 1967   1.465   2.178   0.797 -0.9752  0.0336  1.4622
  492SOL     MW 1968   1.516   2.191   0.731 -0.0377 -0.0525  0.1594
  493SOL     OW 1969   0.233   2.949   0.284  0.9613 -0.0976  0.0179
  493SOL    HW1 1970   0.177   2.989   0.354  3.3908 -0.7912  0.2827
  493SOL    HW2 1971   0.252   3.032   0.238 -0.8076  3.1057 -1.5733
  493SOL     MW 1972   0.228   2.965   0.287  1.0484  0.2335 -0.1571
  494SOL     OW 1973   0.433   2.444   1.776  0.5494 -0.2272 -0.1925
  494SOL    HW1 1974   0.473   2.381   1.832 -0.7643  0.0596  1.2338
  494SOL    HW2 1975   0.449   2.418   1.689  0.8272  1.1417  2.6067
  494SOL     MW 1976   0.441   2.432   1.772  0.4127 -0.0088  0.3650
  495SOL     OW 1977   2.834   1.735   2.567 -0.3849 -0.4013 -0.1761
  495SOL    HW1 1978   2.815   1.831   2.546  1.0127  0.8345 -1.6718
  495SOL    HW2 1979   2.789   1.734   2.654 -0.9585  0.4387 -1.3358
  495SOL     MW 1980   2.825   1.747   2.576 -0.2762 -0.1274 -0.5265
  496SOL     OW 1981   2.928   2.360   2.655  0.1139 -0.3410 -0.1695
  496SOL    HW1 1982   2.984   2.309   2.710 -0.2944 -0.4046 -2.1973
  496SOL    HW2 1983   2.987   2.435   2.633  2.2595 -0.7697 -0.1077
  496SOL     MW 1984   2.943   2.363   2.660  0.3431 -0.4059 -0.4289
  497SOL     OW 1985   1.546   2.217   2.662 -0.2977  0.1763  0.0584
  497SOL    HW1 1986   1.452   2.207   2.659  1.1072  3.0473  2.3189
  497SOL    HW2 1987   1.583   2.151   2.724 -1.8197 -1.7271  0.4371
  497SOL     MW 1988   1.539   2.207   2.670 -0.3131  0.3039  0.4066
  498SOL     OW 1989   1.485   2.673   2.359 -0.0397  0.3685 -0.2609
  498SOL    HW1 1990   1.463   2.591   2.402  0.1848  1.5238  0.0539
  498SOL    HW2 1991   1.574   2.695   2.372 -0.4274 -0.4187 -1.2501
  498SOL     MW 1992   1.494   2.665   2.366 -0.0612  0.4170 -0.3499
  499SOL     OW 1993   0.981   0.149   3.072 -0.4524 -0.0565  0.1225
  499SOL    HW1 1994   0.915   0.164   3.150 -2.7954 -1.0652  0.5331
  499SOL    HW2 1995   1.013   0.060   3.095  0.5172 -3.9807 -2.1455
  499SOL     MW 1996   0.976   0.139   3.085 -0.6336 -0.7073 -0.1226
  500SOL     OW 1997   1.054   2.491   2.774  0.3217 -0.5135  0.4792
  500SOL    HW1 1998   1.126   2.453   2.829  0.0040  1.2744 -0.0482
  500SOL    HW2 1999   0.976   2.493   2.830 -1.9509  1.6034  0.4434
  500SOL     MW 2000   1.053   2.486   2.788 -0.0200  0.0017  0.4049
  501SOL     OW 2001   1.765   2.214   3.077  0.0566  0.2026 -0.3341
  501SOL    HW1 2002   1.722   2.297   3.061 -1.8946 -1.0461 -0.0088
  501SOL    HW2 2003   1.849   2.238   3.120  0.2691  0.3522  0.9523
  501SOL     MW 2004   1.771   2.228   3.081 -0.1728  0.0576 -0.1214
  502SOL     OW 2005   0.135   2.822   3.043 -0.0568  0.1080 -0.1689
  502SOL    HW1 2006   0.073   2.759   3.013 -1.0588  0.8085 -3.9645
  502SOL    HW2 2007   0.171   2.859   2.962 -2.8685  1.7871 -2.8289
  502SOL     MW 2008   0.132   2.818   3.028 -0.5600  0.4220 -1.0207
  503SOL     OW 2009   0.997   2.882   2.168  0.5746  0.7399 -0.4479
  503SOL    HW1 2010   0.979   2.827   2.092  3.6831 -0.9963  0.7156
  503SOL    HW2 2011   0.971   2.968   2.151  2.2548  2.2208  2.9025
  503SOL     MW 2012   0.991   2.886   2.156  1.2064  0.7062  0.1477
  504SOL     OW 2013   0.068   2.733   2.144  0.6998 -0.4801 -0.3533
  504SOL    HW1 2014   0.098   2.646   2.108 -0.0924 -0.2647  1.8604
  504SOL    HW2 2015   0.025   2.727   2.228  1.1883  1.6785 -3.5822
  504SOL     MW 2016   0.066   2.721   2.150  0.6597 -0.1669 -0.4873
  505SOL     OW 2017   1.718   2.732   2.675 -0.2007 -0.0695  0.2744
  505SOL    HW1 2018   1.684   2.777   2.596  1.4832 -0.7719 -0.6111
  505SOL    HW2 2019   1.650   2.727   2.739  0.5892  0.7915 -1.4336
  505SOL     MW 2020   1.705   2.737   2.673  0.1257 -0.0486 -0.0677
  506SOL     OW 2021   1.620   2.992   2.828  0.7568  0.2530  0.4600
  506SOL    HW1 2022   1.661   2.928   2.887  1.3964 -1.5005 -1.2693
  506SOL    HW2 2023   1.673   3.004   2.747 -1.7930  0.9817 -0.3478
  506SOL     MW 2024   1.632   2.985   2.825  0.5048  0.1178  0.1252
  507SOL     OW 2025   0.816   2.767   2.892 -0.0072  0.8951  0.1144
  507SOL    HW1 2026   0.873   2.809   2.833 -3.1437  0.8616  0.5828
  507SOL    HW2 2027   0.746   2.838   2.901  0.2853 -0.9337  1.6351
  507SOL     MW 2028   0.814   2.782   2.885 -0.3824  0.6494  0.3768
  508SOL     OW 2029   1.141   2.033   2.515 -0.1269  0.4215 -0.6003
  508SOL    HW1 2030   1.213   2.028   2.581  0.9440 -1.6197 -4.5792
  508SOL    HW2 2031   1.093   2.112   2.536  2.6361  1.7435 -0.5865
  508SOL     MW 2032   1.145   2.043   2.527  0.3789  0.3266 -1.1234
  509SOL     OW 2033   0.566   2.532   2.890 -0.4701 -0.3997 -0.2925
  509SOL    HW1 2034   0.616   2.526   2.802  2.3240  1.3815 -2.9403
  509SOL    HW2 2035   0.490   2.476   2.873 -1.9176  1.4194 -2.9626
  509SOL     MW 2036   0.562   2.524   2.876 -0.2924  0.0753 -0.9941
  510SOL     OW 2037   1.508   2.523   1.712 -0.0522 -0.4084 -0.1840
  510SOL    HW1 2038   1.523   2.619   1.717 -0.4861  0.2650 -1.5145
  510SOL    HW2 2039   1.446   2.508   1.781 -0.8409  0.2576  2.3366
  510SOL     MW 2040   1.502   2.534   1.722 -0.2135 -0.2317 -0.0270
  511SOL     OW 2041   0.400   2.599   2.457  0.9325 -0.3579  0.2326
  511SOL    HW1 2042   0.474   2.580   2.509 -0.4439 -0.6770 -0.3921
  511SOL    HW2 2043   0.420   2.597   2.366 -2.2724  2.2708  3.1396
  511SOL     MW 2044   0.412   2.596   2.452  0.3280 -0.0532  0.5337
  512SOL     OW 2045   1.006   1.978   2.844 -0.2801 -0.1258  0.3332
  512SOL    HW1 2046   0.926   1.992   2.894 -0.6203 -1.5014  0.0598
  512SOL    HW2 2047   1.022   1.884   2.844  0.2985  0.0097 -1.9586
  512SOL     MW 2048   0.997   1.967   2.850 -0.2487 -0.2894 -0.0052
  513SOL     OW 2049   1.457   2.415   2.400  0.2775 -0.4535 -0.0755
  513SOL    HW1 2050   1.555   2.417   2.415  1.8461 -0.6118  1.2396
  513SOL    HW2 2051   1.442   2.320   2.417 -2.7257 -0.0116 -0.3269
  513SOL     MW 2052   1.468   2.403   2.405  0.0882 -0.4161  0.0648
  514SOL     OW 2053   0.222   2.435   2.628 -0.1264  0.0216  0.2421
  514SOL    HW1 2054   0.303   2.492   2.618  0.9299  2.3222  0.1585
  514SOL    HW2 2055   0.218   2.425   2.728 -2.4282 -2.2144  1.0045
  514SOL     MW 2056   0.232   2.441   2.640 -0.2908  0.0301  0.3317
  515SOL     OW 2057   1.143   2.052   1.940  0.7922  0.5905 -0.3132
  515SOL    HW1 2058   1.097   2.133   1.934  1.7159 -1.4779  0.6073
  515SOL    HW2 2059   1.159   2.038   2.033 -2.0437 -0.2205 -3.2005
  515SOL     MW 2060   1.139   2.061   1.952  0.5399  0.2106 -0.5727
  516SOL     OW 2061   1.456   2.531   3.034 -0.0452 -0.2389 -0.2158
  516SOL    HW1 2062   1.507   2.520   2.956 -2.6668 -0.6166  1.1156
  516SOL    HW2 2063   1.378   2.494   3.004  0.8079 -0.0173 -0.8316
  516SOL     MW 2064   1.452   2.525   3.020 -0.2786 -0.2595 -0.1214
  517SOL     OW 2065   0.595   2.405   2.132  0.0261  0.5902  0.2113
  517SOL    HW1 2066   0.563   2.490   2.171  1.4136 -4.0239  0.1189
  517SOL    HW2 2067   0.529   2.371   2.072 -1.4360  0.8555 -0.7084
  517SOL     MW 2068   0.582   2.412   2.129  0.0163  0.0164  0.0777
  518SOL     OW 2069   1.892   0.082   2.957  0.2732 -0.4890  0.4438
  518SOL    HW1 2070   1.854   0.143   2.891 -1.2083  1.1942  0.4075
  518SOL    HW2 2071   1.843   0.109   3.037 -1.2379  0.3438  0.0691
  518SOL     MW 2072   1.881   0.094   2.959 -0.1217 -0.1571  0.3896
  519SOL     OW 2073   0.727   2.566   1.782  0.5132 -0.5368  0.0992
  519SOL    HW1 2074   0.700   2.468   1.784 -0.8965 -1.1278  0.4028
  519SOL    HW2 2075   0.652   2.603   1.817 -0.2307  0.5801 -0.6879
  519SOL     MW 2076   0.714   2.558   1.787  0.2290 -0.4674  0.0354
  520SOL     OW 2077   1.224   2.154   2.922 -0.0351  0.0843  0.3211
  520SOL    HW1 2078   1.134   2.126   2.906  0.5833  2.4508 -0.3230
  520SOL    HW2 2079   1.255   2.108   3.000  0.7434 -4.1724  0.0433
  520SOL     MW 2080   1.216   2.144   2.930  0.1492 -0.1651  0.1995
  521SOL     OW 2081   1.759   2.018   2.231  0.6370 -0.1585  0.2748
  521SOL    HW1 2082   1.791   2.056   2.148 -0.6021 -0.4469  0.1437
  521SOL    HW2 2083   1.755   1.922   2.230 -0.6750 -0.4525  0.7373
  521SOL     MW 2084   1.762   2.011   2.220  0.3004 -0.2353  0.3185
  522SOL     OW 2085   2.832   2.587   2.207  0.3456  0.5233  0.2670
  522SOL    HW1 2086   2.896   2.528   2.242  2.0510 -1.2816  0.5616
  522SOL    HW2 2087   2.766   2.605   2.276 -0.4396 -1.5371  1.3114
  522SOL     MW 2088   2.832   2.581   2.221  0.4670  0.0133  0.4436
  523SOL     OW 2089   0.839   1.499   2.136  0.2657  0.0445 -0.1867
  523SOL    HW1 2090   0.849   1.567   2.065  2.0467 -0.6442  0.0347
  523SOL    HW2 2091   0.903   1.430   2.112  0.0565 -1.2293  0.5248
  523SOL     MW 2092   0.849   1.499   2.123  0.4730 -0.2144 -0.0636
  524SOL     OW 2093   0.851   2.458   2.963 -0.7882  0.1454 -0.3661
  524SOL    HW1 2094   0.760   2.490   2.961  1.3361 -0.4968  3.4395
  524SOL    HW2 2095   0.848   2.369   2.931  2.2584  0.0064 -0.4945
  524SOL     MW 2096   0.839   2.451   2.959 -0.1060  0.0423  0.1191
  525SOL     OW 2097   0.359   2.307   2.030 -0.4080  0.3058 -0.4587
  525SOL    HW1 2098   0.377   2.251   2.113 -1.1771 -0.6115  0.1757
  525SOL    HW2 2099   0.321   2.249   1.962  0.3814 -0.3013  0.7058
  525SOL     MW 2100   0.356   2.292   2.032 -0.4053  0.1046 -0.2213
  526SOL     OW 2101   0.638   2.117   2.069 -0.0758  0.1109  0.3553
  526SOL    HW1 2102   0.652   2.169   1.991  0.1080  2.9081  2.5475
  526SOL    HW2 2103   0.664   2.173   2.141 -1.3941 -2.2859  0.4053
  526SOL     MW 2104   0.643   2.131   2.069 -0.2255  0.1638  0.6511
  527SOL     OW 2105   1.394   1.970   2.118  0.0005 -0.5305  0.6519
  527SOL    HW1 2106   1.389   1.922   2.206 -0.0793 -3.1084  1.2379
  527SOL    HW2 2107   1.410   1.901   2.053 -0.5114  1.4777 -1.0663
  527SOL     MW 2108   1.395   1.955   2.121 -0.0776 -0.6057  0.5025
  528SOL     OW 2109   0.636   2.971   2.949 -0.4406  1.1097 -0.5498
  528SOL    HW1 2110   0.680   3.054   2.933  0.3992  1.2335  0.1462
  528SOL    HW2 2111   0.582   2.952   2.870 -1.1588  0.9626  0.3775
  528SOL     MW 2112   0.635   2.979   2.937 -0.4245  1.1066 -0.3356
  529SOL     OW 2113   0.970   2.271   1.951  0.2467  0.5018  0.1590
  529SOL    HW1 2114   0.977   2.297   2.045  0.7432 -0.5532 -0.3072
  529SOL    HW2 2115   1.001   2.345   1.905  0.8444 -0.6294 -0.2001
  529SOL     MW 2116   0.975   2.284   1.958  0.3911  0.2134  0.0501
  530SOL     OW 2117   1.221   2.414   2.959 -0.5048  0.5196 -0.1565
  530SOL    HW1 2118   1.190   2.454   3.038 -0.6458  0.8915 -2.8295
  530SOL    HW2 2119   1.221   2.317   2.965 -1.5819  0.2737 -2.0926
  530SOL     MW 2120   1.217   2.406   2.970 -0.6655  0.5363 -0.7646
  531SOL     OW 2121   0.929   1.847   2.572  0.0373  0.2455  0.2524
  531SOL    HW1 2122   0.990   1.916   2.548  0.4581 -1.0647 -3.7293
  531SOL    HW2 2123   0.892   1.869   2.651 -1.0728 -3.2631 -1.5282
  531SOL     MW 2124   0.932   1.859   2.579 -0.0536 -0.3903 -0.5079
  532SOL     OW 2125   1.744   0.212   2.765 -0.0777 -0.7733 -0.3023
  532SOL    HW1 2126   1.653   0.174   2.753  0.8375  0.2566  0.7730
  532SOL    HW2 2127   1.799   0.185   2.693 -2.2835  0.2489  0.0695
  532SOL     MW 2128   1.739   0.204   2.754 -0.2479 -0.5026 -0.1114
  533SOL     OW 2129   1.935   2.576   0.007  0.9919 -0.2237 -0.1474
  533SOL    HW1 2130   1.866   2.546   0.067  0.3230 -0.2204 -0.2394
  533SOL    HW2 2131   1.878   2.643  -0.045  0.3608 -1.5162 -1.2535
  533SOL     MW 2132   1.919   2.581   0.008  0.8204 -0.3938 -0.3055
  534SOL     OW 2133   1.711   2.367   2.488  0.2113 -0.1788  0.4706
  534SOL    HW1 2134   1.657   2.311   2.544 -2.6161  1.7474 -0.3082
  534SOL    HW2 2135   1.781   2.409   2.547  0.9835  0.4698  1.0154
  534SOL     MW 2136   1.713   2.365   2.503 -0.0599  0.1609  0.4398
  535SOL     OW 2137   1.888   2.404   1.865 -0.3334 -0.5388  0.0962
  535SOL    HW1 2138   1.824   2.378   1.796  0.9219  1.1980 -0.0326
  535SOL    HW2 2139   1.966   2.372   1.822 -2.0378 -1.0437  0.4692
  535SOL     MW 2140   1.890   2.397   1.850 -0.3927 -0.3762  0.1285
  536SOL     OW 2141   0.484   1.853   2.139 -0.0825  0.2248 -0.1516
  536SOL    HW1 2142   0.478   1.827   2.049  0.2745  1.6219  3.1379
  536SOL    HW2 2143   0.515   1.940   2.136 -1.8959  2.7355  2.2923
  536SOL     MW 2144   0.487   1.861   2.127 -0.2747  0.7404  0.6048
  537SOL     OW 2145   1.075   0.273   2.776 -0.2834  0.5115 -0.1350
  537SOL    HW1 2146   1.090   0.347   2.839  2.5413  2.4903  0.9243
  537SOL    HW2 2147   1.063   0.322   2.691 -0.4637 -0.8117 -0.1223
  537SOL     MW 2148   1.075   0.289   2.773  0.0655  0.5980  0.0064
  538SOL     OW 2149   1.427   0.043   0.068 -0.0388  0.2807 -0.3009
  538SOL    HW1 2150   1.420   0.136   0.062 -2.7031 -1.1940  0.8847
  538SOL    HW2 2151   1.331   0.026   0.054 -1.8041 -0.3456 -1.1893
  538SOL     MW 2152   1.413   0.053   0.065 -0.6233  0.0035 -0.2617
  539SOL     OW 2153   0.697   2.790   2.596  0.3680  0.2389  0.0267
  539SOL    HW1 2154   0.780   2.817   2.640 -1.5599  4.3290  0.2920
  539SOL    HW2 2155   0.681   2.692   2.623  0.4500 -0.1556  0.8826
  539SOL     MW 2156   0.706   2.780   2.605  0.1244  0.7265  0.1746
  540SOL     OW 2157   0.271   2.460   2.888  0.6622 -0.0319 -0.2054
  540SOL    HW1 2158   0.294   2.524   2.958 -0.4953 -2.7843 -0.3005
  540SOL    HW2 2159   0.223   2.386   2.934  0.5062  0.4876 -2.3528
  540SOL     MW 2160   0.267   2.458   2.903  0.4889 -0.3265 -0.5013
  541SOL     OW 2161   0.252   2.956   2.146  0.0561 -0.0404 -0.0312
  541SOL    HW1 2162   0.185   2.894   2.120 -1.8903  0.3460  0.6903
  541SOL    HW2 2163   0.293   2.924   2.231  0.5279 -0.1889  1.1948
  541SOL     MW 2164   0.249   2.943   2.154 -0.1385 -0.0090  0.2258
  542SOL     OW 2165   0.977   2.282   2.588 -0.1058  0.3058  0.1936
  542SOL    HW1 2166   0.904   2.238   2.632 -0.8461 -0.6424  0.4638
  542SOL    HW2 2167   1.008   2.352   2.653 -0.5858  1.2412 -2.0723
  542SOL     MW 2168   0.971   2.285   2.602 -0.2668  0.3041 -0.0697
  543SOL     OW 2169   1.579   2.435   2.827 -0.4093 -0.0573  0.1429
  543SOL    HW1 2170   1.563   2.358   2.773 -0.8089  3.8532  0.5547
  543SOL    HW2 2171   1.630   2.487   2.766  1.2720 -1.5953  1.9310
  543SOL     MW 2172   1.584   2.432   2.812 -0.2402  0.2557  0.4332
  544SOL     OW 2173   0.701   0.302   2.718 -0.5677  0.2608  0.2814
  544SOL    HW1 2174   0.606   0.299   2.729  0.4546  2.5670 -0.4212
  544SOL    HW2 2175   0.724   0.244   2.644  3.1219  1.4052 -1.4191
  544SOL     MW 2176   0.692   0.294   2.709  0.0540  0.7161 -0.0357
  545SOL     OW 2177   1.491   2.128   2.330  0.7740  0.3878  0.2271
  545SOL    HW1 2178   1.462   2.108   2.242 -0.7214 -2.6585  1.5357
  545SOL    HW2 2179   1.583   2.098   2.339 -2.5863  0.8112  1.1438
  545SOL     MW 2180   1.499   2.121   2.320  0.1333  0.0417  0.5207
  546SOL     OW 2181   2.873   1.948   0.131  0.2761  0.2556  0.2520
  546SOL    HW1 2182   2.865   2.027   0.073 -0.7548  2.3276 -0.1819
  546SOL    HW2 2183   2.968   1.931   0.115 -0.7529 -3.3478 -0.6751
  546SOL     MW 2184   2.885   1.956   0.121  0.0043  0.0535  0.0724
  547SOL     OW 2185   0.222   0.089   0.105 -0.2230  0.1529  0.2070
  547SOL    HW1 2186   0.310   0.087   0.061  2.1354  1.2814 -1.3086
  547SOL    HW2 2187   0.154   0.059   0.048 -0.9649  0.2735  2.2873
  547SOL     MW 2188   0.224   0.085   0.092 -0.0097  0.3177  0.2815
  548SOL     OW 2189   0.337   2.521   0.250  0.6343  1.0038  0.0505
  548SOL    HW1 2190   0.324   2.554   0.162 -0.2177 -0.7632  0.1480
  548SOL    HW2 2191   0.276   2.447   0.265  0.9347 -2.4393  3.7269
  548SOL     MW 2192   0.327   2.516   0.241  0.5615  0.3164  0.5484
  549SOL     OW 2193   0.843   1.939   2.110 -0.4017  0.2597  0.0074
  549SOL    HW1 2194   0.782   1.998   2.075  2.0374  0.5197  1.3119
  549SOL    HW2 2195   0.803   1.900   2.187  0.4100 -1.3539  1.3755
  549SOL     MW 2196   0.830   1.942   2.116  0.0272  0.0811  0.3600
  550SOL     OW 2197   1.873   1.682   2.501 -1.0540 -0.6141  0.0362
  550SOL    HW1 2198   1.838   1.686   2.412 -0.8088 -2.5552  2.5233
  550SOL    HW2 2199   1.852   1.759   2.549  2.8713 -1.8678 -1.4828
  550SOL     MW 2200   1.866   1.693   2.495 -0.5037 -1.0357  0.1639
  551SOL     OW 2201   0.923   2.215   0.200  0.0151  0.3106 -0.2630
  551SOL    HW1 2202   1.015   2.225   0.206 -1.6300 -0.9097 -0.9355
  551SOL    HW2 2203   0.910   2.141   0.133  3.2156 -1.2118 -2.3298
  551SOL     MW 2204   0.934   2.207   0.192  0.2203 -0.0513 -0.6244
  552SOL     OW 2205   1.761   1.734   2.253  0.1423  0.3407  0.3626
  552SOL    HW1 2206   1.688   1.683   2.267  4.5154 -2.0288 -0.7034
  552SOL    HW2 2207   1.817   1.679   2.191 -2.6842 -0.1134  0.8592
  552SOL     MW 2208   1.759   1.720   2.247  0.3464 -0.0318  0.2874
  553SOL     OW 2209   1.232   2.309   1.567  0.4984 -0.3901  0.3711
  553SOL    HW1 2210   1.271   2.220   1.578  0.3544  1.2518  1.0824
  553SOL    HW2 2211   1.293   2.368   1.522 -3.8607 -2.3293  0.6949
  553SOL     MW 2212   1.245   2.305   1.562 -0.0957 -0.4293  0.5077
  554SOL     OW 2213   0.491   2.957   2.697  0.4362  0.5250 -0.1459
  554SOL    HW1 2214   0.471   3.018   2.630  1.1944  0.2080 -0.3146
  554SOL    HW2 2215   0.553   2.893   2.661  1.2675  0.6493  0.1802
  554SOL     MW 2216   0.497   2.957   2.683  0.6459  0.4996 -0.1251
  555SOL     OW 2217   0.632   2.533   2.633  0.1995 -0.0507 -0.1767
  555SOL    HW1 2218   0.593   2.441   2.655  0.8091 -0.2147  2.0462
  555SOL    HW2 2219   0.720   2.516   2.587 -1.4509 -0.9083 -0.2396
  555SOL     MW 2220   0.638   2.518   2.630  0.0622 -0.1855  0.1083
  556SOL     OW 2221   1.075   1.865   0.054  0.3276 -0.2226 -0.4814
  556SOL    HW1 2222   1.086   1.803  -0.016 -0.4575 -0.7910  0.8881
  556SOL    HW2 2223   1.154   1.878   0.104  1.4213 -0.2942  0.6946
  556SOL     MW 2224   1.087   1.859   0.052  0.3683 -0.3071 -0.1456
  557SOL     OW 2225   1.054   2.718   0.564  0.0992 -0.2326  0.4768
  557SOL    HW1 2226   1.102   2.652   0.524  0.0450 -0.1286 -1.4453
  557SOL    HW2 2227   1.024   2.777   0.496  0.3574 -3.1493  1.2403
  557SOL     MW 2228   1.057   2.717   0.550  0.1262 -0.6037  0.3240
  558SOL     OW 2229   0.217   2.237   3.030  0.8813 -0.3244 -0.4153
  558SOL    HW1 2230   0.240   2.157   3.071  1.0486  1.8397  1.4835
  558SOL    HW2 2231   0.160   2.280   3.097 -2.4441  3.1595  0.5428
  558SOL     MW 2232   0.212   2.232   3.045  0.4646  0.4208 -0.0384
  559SOL     OW 2233   1.062   2.337   2.223 -0.1252 -1.0498  0.8641
  559SOL    HW1 2234   1.150   2.370   2.204  0.4414  2.7538  1.1812
  559SOL    HW2 2235   1.069   2.242   2.225  2.4342  1.3753 -0.1509
  559SOL     MW 2236   1.075   2.329   2.221  0.2872 -0.2280  0.7720
  560SOL     OW 2237   2.156   2.668   0.165  0.5583 -0.0014 -0.2952
  560SOL    HW1 2238   2.198   2.741   0.120 -1.6695 -0.8009  0.0630
  560SOL    HW2 2239   2.082   2.638   0.108 -0.9680 -1.7917  1.3224
  560SOL     MW 2240   2.152   2.674   0.151  0.0630 -0.3431 -0.0345
  561SOL     OW 2241   0.487   2.183   0.195 -0.2080  0.6260  0.2528
  561SOL    HW1 2242   0.461   2.197   0.102  1.9584 -1.0343 -1.7788
  561SOL    HW2 2243   0.554   2.253   0.205 -0.5478  0.0756  0.3094
  561SOL     MW 2244   0.492   2.194   0.184  0.0330  0.3343 -0.0078
  562SOL     OW 2245   0.660   2.284   2.352 -0.3183  0.9914 -0.4239
  562SOL    HW1 2246   0.636   2.295   2.264 -0.8672 -0.7756  0.9519
  562SOL    HW2 2247   0.706   2.356   2.390 -1.3140 -1.6956 -1.0569
  562SOL     MW 2248   0.663   2.295   2.345 -0.5221  0.4038 -0.3259
  563SOL     OW 2249   1.242   0.397   0.578  0.5441  0.0653  0.0714
  563SOL    HW1 2250   1.183   0.353   0.512  2.5176  3.4594  0.4503
  563SOL    HW2 2251   1.213   0.368   0.660  2.9127  1.9766 -1.4279
  563SOL     MW 2252   1.231   0.387   0.580  1.1170  0.7653 -0.0764
  564SOL     OW 2253   1.005   2.670   2.348 -0.5413  0.2740 -0.6236
  564SOL    HW1 2254   1.020   2.742   2.285 -1.3934 -1.2756  2.8861
  564SOL    HW2 2255   1.043   2.685   2.440 -0.9577 -2.8948 -1.6794
  564SOL     MW 2256   1.012   2.681   2.352 -0.7086 -0.3485 -0.2998
  565SOL     OW 2257   2.752   2.802   2.609 -0.3214 -0.4540  0.8531
  565SOL    HW1 2258   2.764   2.886   2.567 -0.0954 -1.1969  0.8265
  565SOL    HW2 2259   2.726   2.733   2.546  3.4075  2.1247  1.6107
  565SOL     MW 2260   2.750   2.804   2.595  0.2004 -0.2118  0.9496
  566SOL     OW 2261   2.184   1.961   2.356 -0.2016 -0.2108  0.4609
  566SOL    HW1 2262   2.210   1.922   2.277 -0.3181  0.4071  0.5132
  566SOL    HW2 2263   2.252   2.026   2.354 -4.0050 -0.0567  0.5629
  566SOL     MW 2264   2.196   1.964   2.345 -0.7188 -0.1089  0.4813
  567SOL     OW 2265   1.169   3.070   0.018 -0.3797  0.2004 -0.4143
  567SOL    HW1 2266   1.136   3.077   0.108  0.6919 -0.1881 -1.9883
  567SOL    HW2 2267   1.195   2.976   0.009  1.1313  0.2086 -0.4018
  567SOL     MW 2268   1.168   3.059   0.028 -0.0389  0.1502 -0.6203
  568SOL     OW 2269   1.651   2.027   2.849  0.2675  0.1318  0.2716
  568SOL    HW1 2270   1.712   2.069   2.906 -1.8914 -0.4789 -0.8684
  568SOL    HW2 2271   1.708   1.968   2.797  2.2748 -0.1453 -1.6182
  568SOL     MW 2272   1.666   2.025   2.850  0.2475  0.0147 -0.1282
  569SOL     OW 2273   0.125   2.249   2.445  0.0874 -0.2589 -0.1069
  569SOL    HW1 2274   0.048   2.284   2.394  2.8215  0.6146 -0.3997
  569SOL    HW2 2275   0.157   2.323   2.494 -1.7876  0.4719 -0.3032
  569SOL     MW 2276   0.119   2.263   2.445  0.2008 -0.0472 -0.1714
  570SOL     OW 2277   1.493   0.316   0.454 -0.1071 -0.4328 -0.0273
  570SOL    HW1 2278   1.418   0.368   0.490 -1.3780  1.0126 -0.0004
  570SOL    HW2 2279   1.562   0.341   0.518 -1.0632 -2.9958 -2.8710
  570SOL     MW 2280   1.492   0.326   0.467 -0.4009 -0.5803 -0.3990
  571SOL     OW 2281   1.349   2.381   2.136  0.2727 -0.1917 -0.1109
  571SOL    HW1 2282   1.383   2.387   2.227 -3.0656 -1.2661  0.7914
  571SOL    HW2 2283   1.415   2.321   2.091  1.9678 -0.2532 -0.2701
  571SOL     MW 2284   1.362   2.374   2.142  0.0559 -0.3416 -0.0129
  572SOL     OW 2285   1.102   2.589   0.089  0.5079  0.6289  0.2393
  572SOL    HW1 2286   1.106   2.687   0.095  0.8682 -4.8498  1.2659
  572SOL    HW2 2287   1.002   2.576   0.090  0.3107 -0.9106 -0.2745
  572SOL     MW 2288   1.089   2.600   0.090  0.5294 -0.2971  0.3069
  573SOL     OW 2289   1.186   2.278   0.264  0.4164  0.3574  0.4380
  573SOL    HW1 2290   1.261   2.296   0.210  1.3256 -0.8422 -0.5286
  573SOL    HW2 2291   1.178   2.362   0.314 -2.1845  2.0408  1.0788
  573SOL     MW 2292   1.195   2.291   0.264  0.1932  0.4212  0.3950
  574SOL     OW 2293   1.153   2.539   0.363 -0.4123  0.5773  0.2901
  574SOL    HW1 2294   1.231   2.595   0.349  2.0931  0.9532  0.3923
  574SOL    HW2 2295   1.101   2.561   0.286  0.5170  2.4755  3.3632
  574SOL     MW 2296   1.157   2.549   0.351  0.0409  0.8774  0.7091
  575SOL     OW 2297   3.071   2.197   1.606 -0.0194  0.0170 -0.0586
  575SOL    HW1 2298   3.084   2.100   1.598 -0.0496 -0.1801 -0.6450
  575SOL    HW2 2299   3.134   2.228   1.670  0.2531  1.5710  1.0165
  575SOL     MW 2300   3.081   2.188   1.613  0.0126  0.1960  0.0059
  576SOL     OW 2301   2.900   1.882   1.951  1.0296  0.1087 -0.4941
  576SOL    HW1 2302   2.887   1.972   1.919 -1.4609  1.9121  1.8639
  576SOL    HW2 2303   2.830   1.841   1.902  1.1990 -1.8386 -4.6309
  576SOL     MW 2304   2.889   1.889   1.941  0.7234  0.0897 -0.7288
  577SOL     OW 2305   2.114   0.139   0.014  0.4902 -0.0331  0.1052
  577SOL    HW1 2306   2.045   0.118  -0.054 -0.7024  0.8620 -1.8408
  577SOL    HW2 2307   2.088   0.100   0.094  1.2289  1.7601 -1.1421
  577SOL     MW 2308   2.102   0.131   0.015  0.4303  0.3216 -0.3161
  578SOL     OW 2309   1.986   2.136   2.347 -0.1791 -0.4711 -0.7132
  578SOL    HW1 2310   1.903   2.092   2.318 -0.0202  2.3248 -0.7955
  578SOL    HW2 2311   2.062   2.066   2.355 -0.3477 -1.3869  0.1779
  578SOL     MW 2312   1.985   2.121   2.344 -0.1804 -0.2230 -0.6065
  579SOL     OW 2313   0.844   2.504   2.482  0.4695  0.9354  0.3139
  579SOL    HW1 2314   0.903   2.441   2.509 -0.8241  1.4857 -1.2655
  579SOL    HW2 2315   0.884   2.562   2.418  1.2833 -0.5304  0.2284
  579SOL     MW 2316   0.857   2.504   2.477  0.4062  0.8146  0.0942
  580SOL     OW 2317   0.973   2.860   3.100  0.2569  0.0307  0.2890
  580SOL    HW1 2318   0.971   2.948   3.069 -3.1148 -0.5708  0.6795
  580SOL    HW2 2319   0.923   2.799   3.033 -0.2840 -3.0004  1.9369
  580SOL     MW 2320   0.966   2.863   3.087 -0.2593 -0.4486  0.5580
  581SOL     OW 2321   1.114   2.447   1.782 -0.5162  0.2774  0.1412
  581SOL    HW1 2322   1.183   2.485   1.839  1.9961  1.0658 -0.6636
  581SOL    HW2 2323   1.160   2.390   1.724 -0.3508 -0.5271  0.6874
  581SOL     MW 2324   1.129   2.445   1.781 -0.1629  0.2753  0.1071
  582SOL     OW 2325   3.093   2.956   2.650  0.1980 -0.3338 -0.1404
  582SOL    HW1 2326   3.020   2.979   2.705  4.8291  2.2185 -0.2999
  582SOL    HW2 2327   3.155   2.925   2.719  1.2546  3.9973  0.3971
  582SOL     MW 2328   3.091   2.955   2.666  0.9484  0.5744 -0.0905
  583SOL     OW 2329   1.940   2.413   2.655 -0.5688 -0.2059  0.3745
  583SOL    HW1 2330   2.008   2.436   2.592 -1.7939 -0.3747  0.4158
  583SOL    HW2 2331   1.941   2.314   2.649 -0.5783 -0.8037 -0.2121
  583SOL     MW 2332   1.949   2.403   2.646 -0.7317 -0.3070  0.3026
  584SOL     OW 2333   0.189   1.907   2.207  0.2800 -0.1610  0.3079
  584SOL    HW1 2334   0.178   1.883   2.297  1.3188 -0.4605 -0.4955
  584SOL    HW2 2335   0.257   1.980   2.218  0.0990 -1.6389  4.1342
  584SOL     MW 2336   0.196   1.913   2.220  0.3932 -0.3955  0.7068
  585SOL     OW 2337   1.556   2.703   0.167 -0.0410 -0.1118  0.1886
  585SOL    HW1 2338   1.508   2.713   0.083  0.4832 -0.1386 -1.6462
  585SOL    HW2 2339   1.488   2.713   0.235  0.6261 -0.3587 -1.9240
  585SOL     MW 2340   1.540   2.705   0.165  0.1162 -0.1479 -0.3323
  586SOL     OW 2341   1.337   2.803   2.552  0.0700 -0.8648  0.0862
  586SOL    HW1 2342   1.401   2.779   2.484 -0.6474  1.3789  0.9968
  586SOL    HW2 2343   1.352   2.897   2.566 -1.0819  1.1057  0.5235
  586SOL     MW 2344   1.348   2.812   2.545 -0.1766 -0.3088  0.2640
  587SOL     OW 2345   1.321   1.445   2.160 -0.4130 -0.0030 -0.5758
  587SOL    HW1 2346   1.296   1.383   2.228  0.1970  3.2781  0.4247
  587SOL    HW2 2347   1.366   1.390   2.093 -1.5574  0.7659  0.3100
  587SOL     MW 2348   1.323   1.430   2.160 -0.4835  0.5314 -0.3269
  588SOL     OW 2349   1.334   2.021   2.698 -0.2445  0.3040 -0.1555
  588SOL    HW1 2350   1.364   1.932   2.699 -2.0451  0.2808 -1.8744
  588SOL    HW2 2351   1.303   2.046   2.787  0.0540 -0.3141  1.6447
  588SOL     MW 2352   1.334   2.012   2.710 -0.4427  0.2194 -0.1448
  589SOL     OW 2353   1.346   2.021   0.038 -0.6602  0.1836 -0.4130
  589SOL    HW1 2354   1.373   2.116   0.054  0.4263 -0.0853 -3.4348
  589SOL    HW2 2355   1.323   1.985   0.123  0.2685  0.1421  0.7914
  589SOL     MW 2356   1.347   2.029   0.051 -0.3943  0.1427 -0.6528
  590SOL     OW 2357   0.507   2.662   2.188 -0.3461 -0.3600  0.8659
  590SOL    HW1 2358   0.491   2.682   2.095 -0.8699  0.6194 -2.0683
  590SOL    HW2 2359   0.588   2.708   2.223 -1.2120 -0.8984  1.8313
  590SOL     MW 2360   0.516   2.671   2.181 -0.5294 -0.3018  0.6061
  591SOL     OW 2361   2.203   0.668   0.159  0.0562 -0.2960 -0.3910
  591SOL    HW1 2362   2.138   0.718   0.215 -0.7243  0.8468  0.7851
  591SOL    HW2 2363   2.166   0.711   0.081 -3.2021 -0.8096 -1.9494
  591SOL     MW 2364   2.189   0.681   0.156 -0.4767 -0.2130 -0.4415
  592SOL     OW 2365   1.660   2.905   0.787 -0.0728 -0.5186 -0.7161
  592SOL    HW1 2366   1.628   2.991   0.806 -0.2496  0.6070 -0.1133
  592SOL    HW2 2367   1.755   2.912   0.775 -1.3922  0.9096 -2.2477
  592SOL     MW 2368   1.669   2.918   0.788 -0.2702 -0.1816 -0.8387
  593SOL     OW 2369   1.932   0.712   0.747  0.2240 -0.0689 -0.1513
  593SOL    HW1 2370   1.867   0.708   0.676 -2.4750 -3.3028 -1.1452
  593SOL    HW2 2371   1.966   0.623   0.736  1.3861  1.9626 -0.5118
  593SOL     MW 2372   1.928   0.700   0.736  0.0212 -0.2276 -0.3300
  594SOL     OW 2373   2.812   1.003   1.381  0.0806  0.0356 -0.6950
  594SOL    HW1 2374   2.900   1.040   1.366  1.2323  3.7828  0.2315
  594SOL    HW2 2375   2.762   1.049   1.317  3.3297  3.1976 -2.8077
  594SOL     MW 2376   2.817   1.014   1.371  0.6613  0.9472 -0.8515
  595SOL     OW 2377   0.531   0.928   0.848  0.0577  0.6626  0.2891
  595SOL    HW1 2378   0.489   0.982   0.778  1.2529  3.2281 -0.0959
  595SOL    HW2 2379   0.601   0.983   0.893 -0.0822 -3.3180  0.9608
  595SOL     MW 2380   0.534   0.942   0.845  0.1969  0.4759  0.3269
  596SOL     OW 2381   2.447   1.371   0.478 -0.3845 -0.2010  0.1173
  596SOL    HW1 2382   2.437   1.445   0.419 -1.2025 -1.1753 -0.4852
  596SOL    HW2 2383   2.523   1.406   0.518 -0.6958 -0.1075 -1.6795
  596SOL     MW 2384   2.455   1.386   0.475 -0.5335 -0.3172 -0.1993
  597SOL     OW 2385   2.233   0.641   1.562 -0.2088 -0.2684 -0.0503
  597SOL    HW1 2386   2.245   0.576   1.628 -1.5432 -1.4079 -2.4308
  597SOL    HW2 2387   2.154   0.617   1.511  3.9256  2.0410  1.2263
  597SOL     MW 2388   2.224   0.629   1.564  0.1606 -0.1140 -0.1959
  598SOL     OW 2389   2.594   1.029   2.899 -0.1389 -0.3518  0.2234
  598SOL    HW1 2390   2.592   0.940   2.863  0.9804 -0.1227 -2.2266
  598SOL    HW2 2391   2.678   1.068   2.891 -2.1215  0.5967  0.4236
  598SOL     MW 2392   2.605   1.022   2.893 -0.2528 -0.1964 -0.0735
  599SOL     OW 2393   3.068   0.480   2.270 -0.4672  0.1040 -0.1631
  599SOL    HW1 2394   3.140   0.512   2.327 -4.5442  0.9621 -1.1135
  599SOL    HW2 2395   3.073   0.541   2.190  0.6480  2.9514 -2.6638
  599SOL     MW 2396   3.078   0.492   2.267 -0.8580  0.5929 -0.6184
  600SOL     OW 2397   1.820   1.709   0.837 -0.0338  0.0800  0.1892
  600SOL    HW1 2398   1.860   1.746   0.916  0.2213 -0.0222 -1.0002
  600SOL    HW2 2399   1.747   1.768   0.816 -0.1276 -1.2223  0.7789
  600SOL     MW 2400   1.816   1.722   0.845 -0.0125 -0.1053  0.1101
  601SOL     OW 2401   2.545   0.765   0.864 -0.3011 -0.1331  0.7105
  601SOL    HW1 2402   2.545   0.746   0.955  1.0105  3.7198 -1.2608
  601SOL    HW2 2403   2.523   0.689   0.812  2.3177 -1.0107 -0.6875
  601SOL     MW 2404   2.542   0.753   0.869  0.2174  0.2595  0.2660
  602SOL     OW 2405   2.263   1.916   0.761 -0.0172  0.6588 -0.0594
  602SOL    HW1 2406   2.214   1.845   0.718 -1.5225 -0.3323 -0.8910
  602SOL    HW2 2407   2.211   1.995   0.755  2.7059 -4.5615  1.4153
  602SOL     MW 2408   2.250   1.917   0.755  0.1435 -0.1607  0.0254
  603SOL     OW 2409   2.988   1.368   1.960  0.1536  0.2005 -0.1252
  603SOL    HW1 2410   2.981   1.402   2.046 -1.7062  0.8060 -0.0709
  603SOL    HW2 2411   3.046   1.299   1.976 -0.8823 -1.5053 -0.7637
  603SOL     MW 2412   2.995   1.364   1.974 -0.2285  0.0553 -0.2023
  604SOL     OW 2413   2.021   1.383   0.350  0.4334  0.3705  0.2898
  604SOL    HW1 2414   2.064   1.312   0.398 -2.4177  1.1169  1.1392
  604SOL    HW2 2415   1.952   1.421   0.410  1.6017  1.5123  3.6587
  604SOL     MW 2416   2.018   1.378   0.365  0.2114  0.6196  0.8463
  605SOL     OW 2417   2.437   1.452   0.819  0.2093  0.1404  0.2071
  605SOL    HW1 2418   2.423   1.493   0.734  0.9412  1.3990 -0.2753
  605SOL    HW2 2419   2.477   1.370   0.796 -0.4532  0.5180 -1.0481
  605SOL     MW 2420   2.440   1.447   0.805  0.2185  0.3562 -0.0222
  606SOL     OW 2421   2.698   1.757   1.796 -0.2029 -0.1226 -0.2687
  606SOL    HW1 2422   2.619   1.769   1.848  0.1154  1.4721  0.7789
  606SOL    HW2 2423   2.678   1.669   1.762 -0.9303  3.3546 -0.4400
  606SOL     MW 2424   2.685   1.747   1.798 -0.2569  0.5466 -0.1531
  607SOL     OW 2425   2.376   0.987   3.076  0.1805  0.4418  0.1689
  607SOL    HW1 2426   2.462   1.010   3.033 -1.3301  0.7782 -1.3558
  607SOL    HW2 2427   2.398   0.956   3.167 -1.3172  3.7934 -0.7707
  607SOL     MW 2428   2.391   0.986   3.083 -0.2164  0.9284 -0.1563
  608SOL     OW 2429   1.875   0.251   0.499  0.1314  0.2348 -0.2049
  608SOL    HW1 2430   1.907   0.285   0.411  1.6744  0.8987 -2.3161
  608SOL    HW2 2431   1.859   0.152   0.494  4.7827 -0.7767 -1.1029
  608SOL     MW 2432   1.877   0.242   0.487  0.9487  0.1889 -0.6020
  609SOL     OW 2433   2.130   1.887   3.064 -0.1636  0.2156  0.2699
  609SOL    HW1 2434   2.050   1.840   3.025 -0.7918 -1.0277  2.0751
  609SOL    HW2 2435   2.123   1.865   3.158  2.2526  1.8825  0.6075
  609SOL     MW 2436   2.118   1.878   3.072  0.0723  0.2715  0.5526
  610SOL     OW 2437   1.808   0.944   1.204  0.0992  0.1549  0.0531
  610SOL    HW1 2438   1.835   0.870   1.151  1.3779  1.8179 -1.7862
  610SOL    HW2 2439   1.711   0.974   1.177 -3.6107  1.6492 -0.1885
  610SOL     MW 2440   1.799   0.938   1.193 -0.2215  0.5714 -0.2214
  611SOL     OW 2441   2.466   1.645   0.595  0.2528 -0.4121 -0.3265
  611SOL    HW1 2442   2.432   1.625   0.510 -1.5965 -0.3784 -0.9399
  611SOL    HW2 2443   2.482   1.736   0.597  1.4404 -1.7060  2.3887
  611SOL     MW 2444   2.464   1.655   0.584  0.1655 -0.5784 -0.0492
  612SOL     OW 2445   2.870   2.907   0.370 -0.1061 -0.6865  0.5656
  612SOL    HW1 2446   2.885   2.912   0.468  1.0610  0.4209 -0.0536
  612SOL    HW2 2447   2.954   2.865   0.341 -1.0347 -2.3670  1.2540
  612SOL     MW 2448   2.883   2.902   0.379 -0.0746 -0.7621  0.5747
  613SOL     OW 2449   1.420   1.104   0.999 -0.2866  0.2337 -0.4498
  613SOL    HW1 2450   1.470   1.185   0.992 -1.0350 -1.4644  1.3715
  613SOL    HW2 2451   1.459   1.072   1.084  2.5680  0.0964 -1.2325
  613SOL     MW 2452   1.432   1.110   1.009 -0.0087 -0.0084 -0.3128
  614SOL     OW 2453   2.048   0.474   1.427  0.5568 -0.0377  0.9138
  614SOL    HW1 2454   2.031   0.428   1.511  2.1690  2.4505 -0.3959
  614SOL    HW2 2455   1.971   0.520   1.392 -0.3253  1.8484  0.4433
  614SOL     MW 2456   2.036   0.474   1.434  0.6531  0.5394  0.6789
  615SOL     OW 2457   2.407   0.730   0.331 -0.0372  0.2322 -0.1711
  615SOL    HW1 2458   2.489   0.681   0.336 -0.8715  2.2295 -1.1995
  615SOL    HW2 2459   2.354   0.700   0.261 -3.6478 -0.1120 -0.1673
  615SOL     MW 2460   2.411   0.720   0.323 -0.6236  0.4503 -0.3063
  616SOL     OW 2461   2.584   0.405   1.635 -0.2256 -0.1901  0.6990
  616SOL    HW1 2462   2.592   0.335   1.567  0.0832  1.0850 -1.1781
  616SOL    HW2 2463   2.583   0.477   1.572  0.1276 -0.4809  0.0510
  616SOL     MW 2464   2.585   0.405   1.618 -0.1382 -0.0602  0.3659
  617SOL     OW 2465   2.830   0.548   1.845 -0.2300  0.0529 -0.1662
  617SOL    HW1 2466   2.749   0.540   1.887 -0.5507  2.0297  0.4451
  617SOL    HW2 2467   2.858   0.461   1.810 -1.7154  2.0222 -0.5745
  617SOL     MW 2468   2.823   0.536   1.846 -0.4683  0.5736 -0.1394
  618SOL     OW 2469   2.819   0.254   2.004  0.0597 -0.5101  0.0054
  618SOL    HW1 2470   2.748   0.284   2.066  1.7685  2.2728  0.4882
  618SOL    HW2 2471   2.905   0.262   2.052 -0.3014  0.8269  1.3434
  618SOL     MW 2472   2.821   0.259   2.019  0.2376  0.0335  0.2456
  619SOL     OW 2473   2.716   0.722   0.082  0.4086  0.0130 -0.0994
  619SOL    HW1 2474   2.747   0.806   0.055  1.4282 -0.8931 -0.5933
  619SOL    HW2 2475   2.768   0.706   0.160  1.0933  2.8386  1.8381
  619SOL     MW 2476   2.727   0.731   0.089  0.6335  0.2662  0.0911
  620SOL     OW 2477   2.231   1.023   0.932 -0.1260 -0.2299 -0.5317
  620SOL    HW1 2478   2.313   1.019   0.882  0.4042 -0.5206 -0.5837
  620SOL    HW2 2479   2.168   1.029   0.860  0.9749 -1.2632 -1.0642
  620SOL     MW 2480   2.233   1.023   0.916  0.0892 -0.4046 -0.6088
  621SOL     OW 2481   1.514   2.206   1.995  0.1469  0.0700 -0.6789
  621SOL    HW1 2482   1.446   2.142   2.029  1.7668  1.1608  1.3220
  621SOL    HW2 2483   1.598   2.162   2.010 -1.2515  1.4588  0.3572
  621SOL     MW 2484   1.516   2.192   2.001  0.1761  0.3972 -0.2782
  622SOL     OW 2485   2.641   0.290   0.215  0.0756 -0.2744 -0.3364
  622SOL    HW1 2486   2.732   0.328   0.223 -0.2557 -1.7241 -2.7604
  622SOL    HW2 2487   2.652   0.198   0.199 -1.6113 -1.1048  1.9835
  622SOL     MW 2488   2.655   0.283   0.214 -0.1907 -0.5752 -0.3501
  623SOL     OW 2489   2.357   2.774   0.820 -0.5147 -0.0055  0.0876
  623SOL    HW1 2490   2.434   2.825   0.811 -2.7937 -0.0291 -0.0655
  623SOL    HW2 2491   2.307   2.812   0.897 -0.3117 -0.2118 -2.0668
  623SOL     MW 2492   2.361   2.786   0.829 -0.7886 -0.0359 -0.2169
  624SOL     OW 2493   2.115   1.583   3.043  0.1020  0.6726 -0.2771
  624SOL    HW1 2494   2.075   1.501   3.014 -3.7415  0.5099  0.1550
  624SOL    HW2 2495   2.045   1.642   3.044  3.0634 -0.0094  1.3744
  624SOL     MW 2496   2.101   1.580   3.040 -0.0144  0.5612 -0.0022
  625SOL     OW 2497   2.167   1.871   1.016 -0.3010  0.9724  0.2806
  625SOL    HW1 2498   2.203   1.789   1.058 -0.4288  2.3766  0.1812
  625SOL    HW2 2499   2.199   1.863   0.927 -0.1925  1.6441  1.7285
  625SOL     MW 2500   2.176   1.859   1.010 -0.3035  1.2463  0.4585
  626SOL     OW 2501   0.147   1.846   2.463 -0.8846 -0.0800 -0.2318
  626SOL    HW1 2502   0.081   1.781   2.480  4.0017  1.7434 -0.1123
  626SOL    HW2 2503   0.089   1.926   2.470  1.0295  1.9811 -2.4537
  626SOL     MW 2504   0.130   1.848   2.466  0.0127  0.4325 -0.5092
  627SOL     OW 2505   2.612   0.806   2.590 -0.6237 -0.3828  0.5778
  627SOL    HW1 2506   2.531   0.864   2.590 -1.1835 -0.1849 -0.8295
  627SOL    HW2 2507   2.597   0.757   2.508  2.1053  0.4625 -1.2099
  627SOL     MW 2508   2.599   0.807   2.579 -0.3375 -0.2451  0.1563
  628SOL     OW 2509   2.355   1.429   1.292  0.0164 -0.8922  0.0316
  628SOL    HW1 2510   2.373   1.353   1.235  0.8488 -0.1891 -0.9216
  628SOL    HW2 2511   2.402   1.498   1.246 -0.6238 -0.0504  0.4261
  628SOL     MW 2512   2.363   1.428   1.279  0.0418 -0.6884 -0.0421
  629SOL     OW 2513   1.825   0.630   1.318  0.5257 -0.3329 -0.1996
  629SOL    HW1 2514   1.847   0.668   1.232  0.6213  1.7448  0.2025
  629SOL    HW2 2515   1.737   0.601   1.295  1.5016  2.1594 -1.5058
  629SOL     MW 2516   1.816   0.631   1.304  0.6671  0.2701 -0.3189
  630SOL     OW 2517   2.391   1.921   3.061  0.3332  0.2526  0.0751
  630SOL    HW1 2518   2.400   2.008   3.015  1.0504  2.0225 -2.9881
  630SOL    HW2 2519   2.295   1.896   3.066  0.1309 -0.6663  1.9031
  630SOL     MW 2520   2.380   1.929   3.056  0.4012  0.3649 -0.0879
  631SOL     OW 2521   2.102   1.843   1.495  0.1955  0.1637 -0.1390
  631SOL    HW1 2522   2.060   1.769   1.545  0.3170  0.0704 -0.1334
  631SOL    HW2 2523   2.030   1.906   1.477  0.2291  1.0165 -0.0166
  631SOL     MW 2524   2.087   1.842   1.499  0.2160  0.2639 -0.1221
  632SOL     OW 2525   0.361   1.867   1.479  1.1769  0.5116 -0.4208
  632SOL    HW1 2526   0.305   1.945   1.450 -1.6698  0.2779 -0.6252
  632SOL    HW2 2527   0.296   1.800   1.505 -1.1668 -2.1629 -1.3787
  632SOL     MW 2528   0.345   1.868   1.479  0.4921  0.1279 -0.5741
  633SOL     OW 2529   2.601   0.521   0.357  0.6418  0.4366  0.3431
  633SOL    HW1 2530   2.668   0.533   0.420 -0.2998  0.3361 -0.8024
  633SOL    HW2 2531   2.602   0.433   0.325  0.8968  0.2504 -1.1906
  633SOL     MW 2532   2.610   0.511   0.361  0.5512  0.3988 -0.0104
  634SOL     OW 2533   2.708   3.065   0.585  0.1847 -0.0219  0.1046
  634SOL    HW1 2534   2.718   3.159   0.560 -0.5655 -0.4687  1.3800
  634SOL    HW2 2535   2.665   3.029   0.507  1.8323  0.9865 -0.4398
  634SOL     MW 2536   2.703   3.073   0.571  0.3031  0.0522  0.2010
  635SOL     OW 2537   2.642   0.018   1.881  0.7873 -0.0876 -0.6871
  635SOL    HW1 2538   2.696  -0.040   1.829 -0.6955  2.7109  2.4102
  635SOL    HW2 2539   2.697   0.102   1.890 -1.6560  1.7934 -2.0268
  635SOL     MW 2540   2.656   0.022   1.875  0.2693  0.5298 -0.4552
  636SOL     OW 2541   2.709   1.680   0.762 -0.3238 -0.6814 -0.2178
  636SOL    HW1 2542   2.634   1.635   0.720  0.1240 -1.3096  1.4624
  636SOL    HW2 2543   2.661   1.746   0.810 -0.6069 -0.5585 -0.8766
  636SOL     MW 2544   2.692   1.683   0.763 -0.3020 -0.7481 -0.0830
  637SOL     OW 2545   2.906   1.458   0.710  0.5260 -0.6329  0.3955
  637SOL    HW1 2546   2.962   1.516   0.659  0.4175 -0.6531  3.1035
  637SOL    HW2 2547   2.833   1.508   0.732  1.1669 -0.3586  0.2807
  637SOL     MW 2548   2.904   1.472   0.706  0.5962 -0.5994  0.7377
  638SOL     OW 2549   2.829   0.539   0.536 -0.4147 -0.1017  0.0883
  638SOL    HW1 2550   2.900   0.602   0.523  0.1264  1.1076  2.9126
  638SOL    HW2 2551   2.799   0.568   0.619  1.2321  0.7807 -0.7927
  638SOL     MW 2552   2.834   0.551   0.545 -0.1260  0.1743  0.3447
  639SOL     OW 2553   1.826   3.090   0.545  0.6495  0.0132 -0.1018
  639SOL    HW1 2554   1.738   3.124   0.554 -2.3054  2.7156  0.3007
  639SOL    HW2 2555   1.830   2.993   0.535 -1.5109 -1.1782 -0.6295
  639SOL     MW 2556   1.815   3.082   0.545 -0.0254  0.2125 -0.1183
  640SOL     OW 2557   0.291   1.438   0.090 -0.1855  0.7646  0.1297
  640SOL    HW1 2558   0.284   1.420  -0.000  1.2711 -2.2379  0.7324
  640SOL    HW2 2559   0.311   1.349   0.126 -1.8082  0.7498  0.3883
  640SOL     MW 2560   0.292   1.424   0.083 -0.2074  0.3665  0.2433
  641SOL     OW 2561   2.290   0.353   0.420  0.6938  0.7728 -0.0083
  641SOL    HW1 2562   2.298   0.298   0.346 -0.7810  0.7028  1.6428
  641SOL    HW2 2563   2.333   0.312   0.495  0.4532  0.8717  0.7143
  641SOL     MW 2564   2.297   0.340   0.420  0.4675  0.7766  0.3049
  642SOL     OW 2565   0.093   3.084   0.479  0.1381 -0.1111 -0.5141
  642SOL    HW1 2566   0.099   3.176   0.447  3.2832  1.0780  1.3382
  642SOL    HW2 2567   0.008   3.070   0.522  1.1589  1.6173 -0.2799
  642SOL     MW 2568   0.083   3.094   0.481  0.6878  0.2739 -0.2388
  643SOL     OW 2569   2.137   0.334   1.676  0.4764  0.7382  0.1876
  643SOL    HW1 2570   2.053   0.306   1.713 -0.0983  1.4118  0.5534
  643SOL    HW2 2571   2.160   0.269   1.607  0.3069 -0.8972 -1.3737
  643SOL     MW 2572   2.129   0.322   1.672  0.3782  0.6113  0.0299
  644SOL     OW 2573   2.700   1.895   0.947  0.0957  0.9419  0.1623
  644SOL    HW1 2574   2.672   1.832   1.015  2.8917  4.1792  2.1250
  644SOL    HW2 2575   2.615   1.945   0.939 -1.2815 -0.9894  0.2867
  644SOL     MW 2576   2.685   1.893   0.955  0.2829  1.1142  0.4377
  645SOL     OW 2577   2.798   0.955   0.791  0.5022  1.0667 -0.3204
  645SOL    HW1 2578   2.884   0.915   0.786 -0.6789 -0.1790  0.8312
  645SOL    HW2 2579   2.775   0.973   0.880 -0.0255  2.0024 -2.5227
  645SOL     MW 2580   2.806   0.952   0.802  0.2767  1.0258 -0.4591
  646SOL     OW 2581   0.131   2.272   0.884 -0.2295  0.4573  0.8220
  646SOL    HW1 2582   0.120   2.169   0.867  1.8256  0.1833 -1.1358
  646SOL    HW2 2583   0.075   2.305   0.812 -0.0034 -0.0941 -0.0612
  646SOL     MW 2584   0.122   2.263   0.872  0.0715  0.3484  0.4471
  647SOL     OW 2585   2.791   0.516   3.001  0.1988 -0.2409  0.2524
  647SOL    HW1 2586   2.716   0.466   3.022 -0.1094  0.6885 -0.5275
  647SOL    HW2 2587   2.802   0.586   3.064 -1.0963  0.9831  0.5582
  647SOL     MW 2588   2.783   0.519   3.012 -0.0128  0.0433  0.1898
  648SOL     OW 2589   2.140   0.632   1.123 -0.5950  0.2334 -0.0523
  648SOL    HW1 2590   2.195   0.584   1.182 -0.8962 -2.2993 -0.3517
  648SOL    HW2 2591   2.192   0.696   1.079 -2.9501 -1.0837 -2.2381
  648SOL     MW 2592   2.154   0.634   1.125 -0.9455 -0.2746 -0.3802
  649SOL     OW 2593   2.400   2.692   1.316  0.3760 -0.3258 -0.1486
  649SOL    HW1 2594   2.490   2.718   1.318  0.4522 -0.1293  0.1076
  649SOL    HW2 2595   2.394   2.608   1.265 -0.8660 -0.7544  2.4386
  649SOL     MW 2596   2.411   2.684   1.309  0.2222 -0.3565  0.2265
  650SOL     OW 2597   2.732   0.242   0.499 -0.0485 -0.3481 -0.3903
  650SOL    HW1 2598   2.793   0.311   0.518 -1.0431  0.9150 -0.5665
  650SOL    HW2 2599   2.754   0.215   0.410 -3.8646  0.3400 -2.5130
  650SOL     MW 2600   2.743   0.248   0.490 -0.6832 -0.0907 -0.6936
  651SOL     OW 2601   0.023   0.440   1.000 -0.3877  0.0862  0.1697
  651SOL    HW1 2602   0.058   0.503   0.932  1.5857  0.0752  1.5684
  651SOL    HW2 2603  -0.056   0.483   1.043 -3.1952 -1.3549  0.1489
  651SOL     MW 2604   0.017   0.454   0.997 -0.4978 -0.1054  0.3515
  652SOL     OW 2605   2.364   1.443   2.957 -0.8565 -0.2053 -1.0212
  652SOL    HW1 2606   2.436   1.476   2.902 -0.6369  2.3081 -0.6634
  652SOL    HW2 2607   2.287   1.497   2.934 -1.1445 -2.5152 -0.1341
  652SOL     MW 2608   2.363   1.454   2.947 -0.8655 -0.1785 -0.8570
  653SOL     OW 2609   1.853   0.362   0.225  0.0248  0.3918 -0.0653
  653SOL    HW1 2610   1.845   0.268   0.199 -0.0925  2.6186 -0.3413
  653SOL    HW2 2611   1.911   0.408   0.166  0.7486  0.6561 -0.5367
  653SOL     MW 2612   1.860   0.356   0.213  0.1049  0.7204 -0.1639
  654SOL     OW 2613   2.424   0.999   0.728  0.0054  0.3080 -0.5600
  654SOL    HW1 2614   2.377   0.970   0.649  2.8281  1.7143  0.0016
  654SOL    HW2 2615   2.474   0.924   0.774 -0.6088 -1.3920  0.9459
  654SOL     MW 2616   2.424   0.986   0.724  0.2968  0.2693 -0.2872
  655SOL     OW 2617   2.880   0.935   0.281  0.2467  0.4094  0.2059
  655SOL    HW1 2618   2.854   0.989   0.356 -0.8042 -0.8462 -0.4243
  655SOL    HW2 2619   2.957   0.889   0.315  0.5305  0.5914  0.6751
  655SOL     MW 2620   2.887   0.936   0.295  0.1455  0.2677  0.1846
  656SOL     OW 2621   1.786   2.650   1.420 -0.3483  0.1447  0.0442
  656SOL    HW1 2622   1.870   2.688   1.406  0.1949 -0.0655  1.3458
  656SOL    HW2 2623   1.805   2.560   1.445 -0.6293 -0.5523  1.5301
  656SOL     MW 2624   1.799   2.643   1.421 -0.3137  0.0250  0.4120
  657SOL     OW 2625   0.080   1.776   1.113  0.6083  0.0844 -0.3160
  657SOL    HW1 2626   0.162   1.816   1.110  0.7115 -0.6783  0.6540
  657SOL    HW2 2627   0.082   1.691   1.158 -3.4339  0.4570  0.2951
  657SOL     MW 2628   0.091   1.770   1.119  0.0886  0.0329 -0.1074
  658SOL     OW 2629   2.646   1.341   0.217  0.4502  0.0772 -0.1662
  658SOL    HW1 2630   2.629   1.264   0.270  2.1689  0.4888 -0.3838
  658SOL    HW2 2631   2.655   1.415   0.272 -0.7937 -1.4575 -1.9438
  658SOL     MW 2632   2.645   1.340   0.231  0.5129 -0.0710 -0.4294
  659SOL     OW 2633   2.104   1.410   1.033 -0.4091 -0.4439  0.0656
  659SOL    HW1 2634   2.146   1.321   1.058 -0.1100 -1.9756  1.1974
  659SOL    HW2 2635   2.075   1.445   1.114  0.6939  0.5187 -1.0303
  659SOL     MW 2636   2.106   1.403   1.047 -0.2241 -0.5190  0.0703
  660SOL     OW 2637   2.081   1.585   1.594 -0.2052  0.4961  0.0537
  660SOL    HW1 2638   2.104   1.597   1.688 -1.5359  3.5075  1.1257
  660SOL    HW2 2639   2.015   1.509   1.581 -0.3577 -1.1817 -1.6674
  660SOL     MW 2640   2.075   1.577   1.605 -0.4009  0.6721 -0.0320
  661SOL     OW 2641   2.420   0.989   0.248  0.1638  0.0208  0.4964
  661SOL    HW1 2642   2.483   1.032   0.306 -1.0022 -0.9983 -0.8040
  661SOL    HW2 2643   2.428   0.901   0.278  0.0511  0.5599 -2.4976
  661SOL     MW 2644   2.429   0.983   0.259 -0.0049 -0.0425 -0.0702
  662SOL     OW 2645   2.536   2.978   0.811 -0.2487  0.5392 -0.5906
  662SOL    HW1 2646   2.486   3.052   0.847  1.4019 -0.0473  0.0841
  662SOL    HW2 2647   2.602   3.013   0.758 -3.3462  2.2632 -0.0113
  662SOL     MW 2648   2.538   2.992   0.809 -0.4396  0.6893 -0.4251
  663SOL     OW 2649   2.710   1.552   0.403 -0.0643 -0.0129 -0.1213
  663SOL    HW1 2650   2.693   1.634   0.364 -0.4267 -1.2253  1.0188
  663SOL    HW2 2651   2.799   1.570   0.448  1.0573 -0.0481 -2.8105
  663SOL     MW 2652   2.720   1.565   0.404  0.0359 -0.1775 -0.3257
  664SOL     OW 2653   2.531   1.444   1.514 -0.0790  0.3189  0.3328
  664SOL    HW1 2654   2.483   1.517   1.478  0.0499  0.1913  2.6711
  664SOL    HW2 2655   2.461   1.403   1.567 -0.4329 -0.6347  1.6900
  664SOL     MW 2656   2.515   1.448   1.516 -0.1086  0.1763  0.8204
  665SOL     OW 2657   2.863   0.785   2.119 -0.0422 -0.2459  0.0830
  665SOL    HW1 2658   2.814   0.819   2.042  1.4610  0.7751 -0.1867
  665SOL    HW2 2659   2.925   0.717   2.090 -0.3283  0.3543 -1.2312
  665SOL     MW 2660   2.865   0.781   2.105  0.1184 -0.0320 -0.1260
  666SOL     OW 2661   2.829   2.988   1.704  0.0793 -0.3135  0.0688
  666SOL    HW1 2662   2.786   3.021   1.625  1.2518  0.9217 -0.4282
  666SOL    HW2 2663   2.784   2.902   1.711 -2.6176 -0.8121  1.9350
  666SOL     MW 2664   2.817   2.981   1.695 -0.1218 -0.2163  0.2495
  667SOL     OW 2665   2.019   2.724   1.730  0.1784 -0.4414  0.2760
  667SOL    HW1 2666   2.070   2.682   1.795  1.9698 -2.6371 -2.8754
  667SOL    HW2 2667   2.080   2.798   1.702  1.1204 -1.3887  2.4537
  667SOL     MW 2668   2.034   2.728   1.735  0.5390 -0.8561  0.1475
  668SOL     OW 2669   2.790   0.575   0.822  0.2946  0.6790 -0.1423
  668SOL    HW1 2670   2.843   0.587   0.895 -0.0850  1.0741 -0.7716
  668SOL    HW2 2671   2.724   0.643   0.841  0.7153 -0.8044  0.8804
  668SOL     MW 2672   2.788   0.585   0.834  0.3000  0.5354 -0.0904
  669SOL     OW 2673   0.168   0.997   0.680  0.0958  0.1452 -0.3597
  669SOL    HW1 2674   0.147   1.009   0.772 -1.0139  0.5887 -0.1012
  669SOL    HW2 2675   0.260   1.035   0.666 -1.7235 -0.0564  0.9108
  669SOL     MW 2676   0.178   1.003   0.690 -0.2906  0.1771 -0.1580
  670SOL     OW 2677   2.919   0.345   0.284 -0.2034 -0.5424 -0.5925
  670SOL    HW1 2678   2.912   0.286   0.211  1.8259 -0.7874 -0.2037
  670SOL    HW2 2679   2.956   0.427   0.251 -0.6469  3.0144 -0.0329
  670SOL     MW 2680   2.923   0.348   0.270  0.0058 -0.1055 -0.4674
  671SOL     OW 2681   2.051   3.050   1.472  0.1715 -0.2298 -0.4257
  671SOL    HW1 2682   1.980   3.022   1.410  1.2168 -1.8246 -1.4111
  671SOL    HW2 2683   2.004   3.072   1.551  0.4276 -0.8650 -0.7738
  671SOL     MW 2684   2.035   3.049   1.474  0.3432 -0.5240 -0.6017
  672SOL     OW 2685   1.838   1.778   1.299 -0.1290  0.2296  0.0776
  672SOL    HW1 2686   1.839   1.872   1.345  2.3623 -1.2279 -0.6502
  672SOL    HW2 2687   1.855   1.802   1.209  0.6623 -0.8294 -0.6859
  672SOL     MW 2688   1.840   1.794   1.293  0.3041 -0.1024 -0.1191
  673SOL     OW 2689   2.808   1.093   0.529  0.3806  0.3985  0.2948
  673SOL    HW1 2690   2.798   1.032   0.597 -0.6341 -1.9304 -2.3752
  673SOL    HW2 2691   2.891   1.141   0.552  5.0950 -1.5886 -2.0699
  673SOL     MW 2692   2.818   1.091   0.541  0.8687 -0.1709 -0.3695
  674SOL     OW 2693   2.464   3.075   1.206 -0.5122 -0.4665 -0.2148
  674SOL    HW1 2694   2.429   3.114   1.123 -2.3194  0.0094  1.6941
  674SOL    HW2 2695   2.442   2.983   1.207  3.2516 -2.7085  0.1484
  674SOL     MW 2696   2.457   3.068   1.195 -0.2540 -0.6996  0.0850
  675SOL     OW 2697   2.989   0.871   1.099 -0.5481 -0.3826  0.0190
  675SOL    HW1 2698   3.049   0.861   1.175  0.7557  1.4963 -1.1056
  675SOL    HW2 2699   3.027   0.945   1.057  0.6881 -1.6573  2.9284
  675SOL     MW 2700   3.002   0.880   1.103 -0.2130 -0.3029  0.2545
  676SOL     OW 2701   2.894   1.452   1.708  0.0453 -0.6825  0.9425
  676SOL    HW1 2702   2.870   1.358   1.688 -2.1683  0.4377 -1.5265
  676SOL    HW2 2703   2.928   1.440   1.798 -0.5593  1.1890 -1.6439
  676SOL     MW 2704   2.896   1.438   1.717 -0.3265 -0.2878  0.2755
  677SOL     OW 2705   2.476   0.689   1.906 -0.2902  0.8247 -0.5884
  677SOL    HW1 2706   2.444   0.603   1.868 -2.9587  3.8603 -2.4937
  677SOL    HW2 2707   2.410   0.750   1.885  0.0179  1.2345  2.8052
  677SOL     MW 2708   2.463   0.685   1.898 -0.6016  1.2793 -0.3920
  678SOL     OW 2709   2.379   1.571   0.327 -0.0027 -0.2567 -0.0121
  678SOL    HW1 2710   2.289   1.601   0.343 -1.1029  1.3338  1.0906
  678SOL    HW2 2711   2.368   1.518   0.241 -1.6935 -0.9041  0.3138
  678SOL     MW 2712   2.366   1.568   0.318 -0.3710 -0.1323  0.1764
  679SOL     OW 2713   2.292   0.419   1.292  0.0148  0.2927  0.1570
  679SOL    HW1 2714   2.294   0.347   1.228 -2.7733 -0.5461  1.0229
  679SOL    HW2 2715   2.205   0.426   1.338  0.5090 -1.8103 -0.7379
  679SOL     MW 2716   2.281   0.411   1.289 -0.2879 -0.0954  0.1532
  680SOL     OW 2717   2.470   0.140   1.480 -0.2907  0.3827 -0.2143
  680SOL    HW1 2718   2.373   0.149   1.480  2.2588  0.0513 -2.3181
  680SOL    HW2 2719   2.487   0.098   1.403 -0.2395  0.0010  2.8308
  680SOL     MW 2720   2.459   0.136   1.470  0.0524  0.2886 -0.0901
  681SOL     OW 2721   0.229   0.604   1.452  0.0576 -0.6994 -0.5299
  681SOL    HW1 2722   0.228   0.511   1.479  0.0852 -1.8333  4.1426
  681SOL    HW2 2723   0.259   0.608   1.365 -0.1364 -0.1477  0.4992
  681SOL     MW 2724   0.233   0.592   1.444  0.0356 -0.7762  0.2223
  682SOL     OW 2725   3.080   2.862   1.529 -0.2888 -0.0559 -0.2878
  682SOL    HW1 2726   3.157   2.901   1.498 -2.8049 -1.0065  0.4593
  682SOL    HW2 2727   3.047   2.903   1.610 -1.5862  0.2671  1.0907
  682SOL     MW 2728   3.086   2.873   1.535 -0.7920 -0.1387 -0.0074
  683SOL     OW 2729   2.090   0.788   3.015  0.5032 -0.9833  0.0588
  683SOL    HW1 2730   2.018   0.724   3.024  0.4153 -0.4886  1.2054
  683SOL    HW2 2731   2.064   0.877   3.035 -1.3334 -0.0206  0.1458
  683SOL     MW 2732   2.077   0.791   3.019  0.2493 -0.7910  0.2216
  684SOL     OW 2733   2.055   1.752   0.649  0.0340  0.0764  0.1872
  684SOL    HW1 2734   2.080   1.691   0.577 -0.4618 -0.6831  1.2960
  684SOL    HW2 2735   1.982   1.702   0.687  2.4641 -0.9245 -0.9839
  684SOL     MW 2736   2.049   1.738   0.645  0.2892 -0.1558  0.1790
  685SOL     OW 2737   2.659   1.747   1.175 -0.7351  0.4190 -0.3354
  685SOL    HW1 2738   2.692   1.717   1.260  1.0776  0.5862  0.9128
  685SOL    HW2 2739   2.626   1.664   1.145  2.1767 -1.7412 -4.4554
  685SOL     MW 2740   2.659   1.732   1.182 -0.1117  0.1561 -0.7143
  686SOL     OW 2741   2.828   0.644   1.600 -0.6353 -0.4207 -0.6495
  686SOL    HW1 2742   2.831   0.614   1.689 -1.4325 -0.8208 -2.8636
  686SOL    HW2 2743   2.916   0.688   1.588  1.1533 -0.9802 -0.4526
  686SOL     MW 2744   2.840   0.646   1.610 -0.5045 -0.5473 -0.9156
  687SOL     OW 2745   2.116   0.173   1.111  0.5702  0.2670 -0.3298
  687SOL    HW1 2746   2.207   0.183   1.094 -0.5784 -2.0032 -0.8438
  687SOL    HW2 2747   2.059   0.227   1.058  1.5227  2.9241 -1.5782
  687SOL     MW 2748   2.120   0.181   1.102  0.5443  0.3180 -0.5623
  688SOL     OW 2749   2.465   0.577   1.431 -0.3722  0.2841  1.1190
  688SOL    HW1 2750   2.424   0.510   1.375  0.7262  0.0609 -2.3197
  688SOL    HW2 2751   2.386   0.604   1.481 -1.0906 -1.4630  0.6872
  688SOL     MW 2752   2.449   0.572   1.430 -0.3220  0.0242  0.6084
  689SOL     OW 2753   2.504   0.738   2.996 -0.1001 -0.1613 -0.2042
  689SOL    HW1 2754   2.457   0.817   3.025 -3.0030  0.9066 -1.2706
  689SOL    HW2 2755   2.571   0.728   3.065  1.7313 -1.0660 -0.9150
  689SOL     MW 2756   2.507   0.747   3.009 -0.2415 -0.1397 -0.4387
  690SOL     OW 2757   2.032   0.935   1.842 -0.2986  0.9358 -0.3191
  690SOL    HW1 2758   2.039   0.854   1.896 -1.4388  0.5167 -2.5906
  690SOL    HW2 2759   2.092   0.922   1.772  0.0530  0.5286  2.0699
  690SOL     MW 2760   2.041   0.923   1.840 -0.4027  0.8268 -0.3036
  691SOL     OW 2761   2.438   0.299   0.884 -0.3784  0.2460 -0.0088
  691SOL    HW1 2762   2.530   0.313   0.912  0.9720 -2.0661 -1.2017
  691SOL    HW2 2763   2.398   0.383   0.872  1.5578 -0.9431 -0.7174
  691SOL     MW 2764   2.445   0.312   0.886  0.0552 -0.2160 -0.2597
  692SOL     OW 2765   2.782   1.627   1.401 -0.5911  0.1404 -0.2876
  692SOL    HW1 2766   2.765   1.577   1.484 -1.0271  2.1793  1.5377
  692SOL    HW2 2767   2.819   1.717   1.419 -2.6899 -0.9184  2.3613
  692SOL     MW 2768   2.785   1.632   1.414 -0.9255  0.2697  0.3027
  693SOL     OW 2769   2.288   0.450   0.005 -0.9902  0.9464  0.0931
  693SOL    HW1 2770   2.212   0.385   0.008  0.5010  0.0330  1.4770
  693SOL    HW2 2771   2.259   0.517   0.063  0.9280 -1.1960  2.1562
  693SOL     MW 2772   2.274   0.450   0.013 -0.5404  0.5432  0.5479
  694SOL     OW 2773   1.928   1.193   1.199  0.1427  0.0346 -0.1805
  694SOL    HW1 2774   2.019   1.172   1.194  0.4102  1.9482  0.5426
  694SOL    HW2 2775   1.880   1.103   1.204 -0.0284  0.8343  0.4749
  694SOL     MW 2776   1.933   1.178   1.199  0.1554  0.3926  0.0014
  695SOL     OW 2777   2.923   1.413   1.282  0.5397  0.2121 -0.4307
  695SOL    HW1 2778   2.920   1.410   1.185 -1.2983  3.1166  0.9932
  695SOL    HW2 2779   2.876   1.498   1.306 -0.5798 -1.7694  1.4097
  695SOL     MW 2780   2.916   1.423   1.272  0.1495  0.3339 -0.0000
  696SOL     OW 2781   2.043   1.404   0.734  0.5178 -0.6441  0.0900
  696SOL    HW1 2782   2.095   1.431   0.813 -1.4058  1.9806 -0.7590
  696SOL    HW2 2783   1.992   1.337   0.778 -1.4650  0.7183 -0.0038
  696SOL     MW 2784   2.043   1.399   0.750  0.0024 -0.1181 -0.0344
  697SOL     OW 2785   2.901   1.043   2.224  0.0025 -0.1644  0.2930
  697SOL    HW1 2786   2.822   1.097   2.237  1.1217 -0.1333 -0.2940
  697SOL    HW2 2787   2.868   0.961   2.195 -2.8326 -1.1901 -0.3660
  697SOL     MW 2788   2.886   1.039   2.222 -0.2239 -0.2956  0.1286
  698SOL     OW 2789   2.546   0.394   3.067 -0.8635  0.1216  0.5214
  698SOL    HW1 2790   2.461   0.440   3.076  0.0677 -1.1982 -1.0419
  698SOL    HW2 2791   2.574   0.365   3.156  0.4849  3.1636 -2.2946
  698SOL     MW 2792   2.539   0.396   3.080 -0.5627  0.3488 -0.0564
  699SOL     OW 2793   1.870   1.591   2.022  0.2040 -0.8033 -0.5287
  699SOL    HW1 2794   1.828   1.506   2.046 -1.5481 -1.6979 -1.6670
  699SOL    HW2 2795   1.958   1.563   1.997 -0.0058 -0.2835 -1.2268
  699SOL     MW 2796   1.876   1.576   2.022 -0.0549 -0.8528 -0.7710
  700SOL     OW 2797   2.687   0.880   1.610  0.1924  0.3698 -0.0740
  700SOL    HW1 2798   2.763   0.935   1.583 -0.2658  1.8768  1.8539
  700SOL    HW2 2799   2.722   0.791   1.611  1.0547 -0.8748  0.5376
  700SOL     MW 2800   2.701   0.876   1.606  0.2457  0.4044  0.2611
  701SOL     OW 2801   1.669   1.069   2.549 -0.2255  0.1293  0.6767
  701SOL    HW1 2802   1.753   1.039   2.582 -2.6527  0.9214  1.2379
  701SOL    HW2 2803   1.666   1.157   2.594  1.1813 -1.2044  3.1496
  701SOL     MW 2804   1.680   1.077   2.559 -0.3602  0.0579  1.0770
  702SOL     OW 2805   2.059   0.473   0.679 -0.1351 -0.0046  0.2488
  702SOL    HW1 2806   2.070   0.380   0.673  1.4703  4.0778  0.4023
  702SOL    HW2 2807   2.115   0.506   0.605 -1.0712 -0.1024 -0.3012
  702SOL     MW 2808   2.068   0.465   0.668 -0.0468  0.5211  0.1965
  703SOL     OW 2809   2.701   1.246   0.988 -0.0336 -0.3491  0.4549
  703SOL    HW1 2810   2.646   1.243   0.912  1.1213  2.4474 -0.4652
  703SOL    HW2 2811   2.721   1.155   1.027  1.6232 -1.3458  1.6173
  703SOL     MW 2812   2.696   1.233   0.983  0.3374 -0.1116  0.4868
  704SOL     OW 2813   3.061   1.274   0.157 -0.3055  0.5856  0.3830
  704SOL    HW1 2814   2.981   1.253   0.106 -0.1867  0.9518 -0.9307
  704SOL    HW2 2815   3.071   1.220   0.234  1.1425 -0.4659 -0.3787
  704SOL     MW 2816   3.052   1.264   0.160 -0.0988  0.4952  0.1091
  705SOL     OW 2817   2.034   1.595   1.302 -0.1897  0.5695  0.1068
  705SOL    HW1 2818   1.955   1.647   1.298  0.2126  1.0164 -2.5632
  705SOL    HW2 2819   2.057   1.609   1.396  1.6888  1.6260  0.3108
  705SOL     MW 2820   2.027   1.604   1.314  0.1112  0.7678 -0.2186
  706SOL     OW 2821   2.997   1.206   0.696  0.1547 -0.6745 -0.2704
  706SOL    HW1 2822   3.074   1.214   0.643  0.9849  1.4810 -0.5897
  706SOL    HW2 2823   2.961   1.298   0.703 -0.7898 -0.7532 -1.5268
  706SOL     MW 2824   3.003   1.219   0.690  0.1396 -0.4005 -0.4783
  707SOL     OW 2825   2.342   0.058   0.960 -0.4058  0.0175 -0.4813
  707SOL    HW1 2826   2.391   0.139   0.928  1.3880  2.9305 -2.4301
  707SOL    HW2 2827   2.272   0.051   0.898  0.0912 -0.2407  0.8139
  707SOL     MW 2828   2.339   0.068   0.948 -0.1036  0.3678 -0.5675
  708SOL     OW 2829   2.405   1.408   0.122 -0.1668  0.6767 -0.3437
  708SOL    HW1 2830   2.492   1.376   0.152 -0.3503  1.1110 -0.6004
  708SOL    HW2 2831   2.415   1.442   0.029  1.1801  0.1444  0.1927
  708SOL     MW 2832   2.418   1.408   0.114 -0.0133  0.6638 -0.3068
  709SOL     OW 2833   1.701   1.625   0.207 -0.2230 -0.2346  0.0804
  709SOL    HW1 2834   1.694   1.632   0.110 -0.4289 -0.3351 -0.3302
  709SOL    HW2 2835   1.611   1.633   0.247 -2.4099 -2.7189  2.7211
  709SOL     MW 2836   1.688   1.627   0.200 -0.5387 -0.5757  0.3746
  710SOL     OW 2837   2.223   1.164   1.171  1.0306  0.0826 -0.0816
  710SOL    HW1 2838   2.210   1.103   1.096 -1.2883 -1.2060  0.8006
  710SOL    HW2 2839   2.262   1.114   1.249  2.9856 -2.5075 -0.2727
  710SOL     MW 2840   2.226   1.150   1.172  0.9826 -0.4291  0.0096
  711SOL     OW 2841   2.377   0.100   1.792 -0.4855 -0.3495  0.1146
  711SOL    HW1 2842   2.466   0.084   1.827  0.9825  0.1311 -1.1856
  711SOL    HW2 2843   2.385   0.115   1.701  3.0032  0.9657  0.5729
  711SOL     MW 2844   2.390   0.100   1.785  0.1685 -0.1126  0.0035
  712SOL     OW 2845   1.887   0.616   3.075  0.2622  0.5112 -0.1711
  712SOL    HW1 2846   1.848   0.664   3.000  2.1036 -1.1998  2.6431
  712SOL    HW2 2847   1.841   0.651   3.157 -0.8725 -2.3257  1.6393
  712SOL     MW 2848   1.876   0.627   3.076  0.3554 -0.0889  0.4390
  713SOL     OW 2849   2.561   0.682   1.121  0.4220  0.2094  0.1775
  713SOL    HW1 2850   2.578   0.597   1.158  2.1519 -1.4636 -0.6829
  713SOL    HW2 2851   2.575   0.739   1.199 -0.3461 -1.8894  2.2125
  713SOL     MW 2852   2.565   0.678   1.136  0.5489 -0.2883  0.3325
  714SOL     OW 2853   2.242   0.199   2.010  0.1164 -0.0038 -0.2594
  714SOL    HW1 2854   2.286   0.145   2.073 -0.3814  0.9383  0.7422
  714SOL    HW2 2855   2.271   0.174   1.923  1.1056 -0.2833  0.0706
  714SOL     MW 2856   2.251   0.188   2.007  0.1812  0.0836 -0.0837
  715SOL     OW 2857   1.825   1.995   1.706  0.1063 -0.0876 -0.6359
  715SOL    HW1 2858   1.914   2.017   1.737 -2.7044  0.1649 -0.2818
  715SOL    HW2 2859   1.805   1.920   1.769  0.1353 -0.8677  0.8204
  715SOL     MW 2860   1.834   1.988   1.718 -0.2607 -0.1572 -0.3971
  716SOL     OW 2861   2.455   0.552   0.716  0.0381 -0.4825  0.4677
  716SOL    HW1 2862   2.481   0.473   0.664  0.1186  0.5549  1.2592
  716SOL    HW2 2863   2.385   0.581   0.666  0.2356 -0.1257  0.8302
  716SOL     MW 2864   2.449   0.545   0.703  0.0748 -0.2986  0.6200
  717SOL     OW 2865   2.793   1.640   2.820 -0.7742  0.6363  0.3796
  717SOL    HW1 2866   2.872   1.596   2.849  2.8323 -1.9295 -0.2646
  717SOL    HW2 2867   2.766   1.697   2.894  1.8167  2.8337 -3.3030
  717SOL     MW 2868   2.799   1.642   2.834  0.0435  0.5877 -0.1913
  718SOL     OW 2869   2.642   1.340   1.297 -0.2188 -0.3563  0.1041
  718SOL    HW1 2870   2.611   1.379   1.384 -3.0515 -0.7053  1.8968
  718SOL    HW2 2871   2.740   1.353   1.296  0.3845 -2.2947  1.5793
  718SOL     MW 2872   2.651   1.347   1.309 -0.5129 -0.6581  0.5353
  719SOL     OW 2873   2.201   1.278   0.549  0.1287 -0.1951 -0.7987
  719SOL    HW1 2874   2.291   1.318   0.549 -1.4691  3.3140  1.6329
  719SOL    HW2 2875   2.158   1.331   0.621 -0.0251 -1.3106  1.4537
  719SOL     MW 2876   2.207   1.291   0.558 -0.1024  0.1207 -0.1807
  720SOL     OW 2877   2.807   1.264   0.016  0.2305 -0.7788  0.2065
  720SOL    HW1 2878   2.792   1.167   0.024  0.0250 -1.3313 -0.7477
  720SOL    HW2 2879   2.754   1.308   0.081  0.5631  0.9710  0.4320
  720SOL     MW 2880   2.798   1.257   0.026  0.2473 -0.6208  0.1103
  721SOL     OW 2881   2.559   0.843   1.344  0.7370 -0.3174 -0.3565
  721SOL    HW1 2882   2.522   0.762   1.387  0.3732 -2.1050  1.6615
  721SOL    HW2 2883   2.622   0.877   1.404 -2.0889 -1.3199 -0.2869
  721SOL     MW 2884   2.562   0.837   1.358  0.3161 -0.6855 -0.0810
  722SOL     OW 2885   2.586   1.150   0.398 -0.4666 -0.2258  0.3032
  722SOL    HW1 2886   2.529   1.223   0.418  0.9016 -0.9190 -1.4153
  722SOL    HW2 2887   2.654   1.141   0.468 -0.3725 -0.3660  1.4518
  722SOL     MW 2888   2.587   1.158   0.410 -0.2737 -0.3358  0.2280
  723SOL     OW 2889   2.290   1.333   1.560  0.1369 -0.2871 -0.0549
  723SOL    HW1 2890   2.306   1.348   1.469 -0.7370  0.9365 -0.1043
  723SOL    HW2 2891   2.218   1.396   1.576  2.3543 -0.8352 -0.9654
  723SOL     MW 2892   2.282   1.343   1.550  0.3142 -0.1980 -0.1815
  724SOL     OW 2893   2.453   0.283   0.604  0.0815 -0.3953 -0.0122
  724SOL    HW1 2894   2.441   0.247   0.690 -2.0757  1.1517  0.0313
  724SOL    HW2 2895   2.541   0.267   0.574  0.0513 -2.2495 -0.9129
  724SOL     MW 2896   2.463   0.276   0.611 -0.2071 -0.4358 -0.1253
  725SOL     OW 2897   2.620   0.428   1.215  0.4276 -0.2082 -0.3073
  725SOL    HW1 2898   2.695   0.456   1.263 -0.2865  1.3327 -1.9443
  725SOL    HW2 2899   2.585   0.359   1.270  1.3159  2.8773  0.3866
  725SOL     MW 2900   2.625   0.423   1.229  0.4506  0.4022 -0.4317
  726SOL     OW 2901   2.510   2.481   0.427  0.0903 -0.5216  0.2510
  726SOL    HW1 2902   2.484   2.561   0.385 -2.2218 -2.9603 -0.9314
  726SOL    HW2 2903   2.504   2.502   0.521  1.5143  1.2122 -3.0057
  726SOL     MW 2904   2.505   2.494   0.434 -0.0269 -0.6146 -0.3347
  727SOL     OW 2905   2.862   0.314   1.743 -0.1362  0.2043 -0.1135
  727SOL    HW1 2906   2.778   0.307   1.702  1.1934 -0.8272 -0.0131
  727SOL    HW2 2907   2.860   0.275   1.826  0.1105  0.9766 -2.7272
  727SOL     MW 2908   2.851   0.308   1.748  0.0718  0.1701 -0.4451
  728SOL     OW 2909   2.826   1.177   2.862 -0.3188  0.4140 -0.3906
  728SOL    HW1 2910   2.822   1.228   2.782 -0.4675  1.1052  2.7395
  728SOL    HW2 2911   2.820   1.238   2.939 -0.3522 -2.9139  1.6042
  728SOL     MW 2912   2.825   1.192   2.861 -0.3428  0.0661  0.2856
  729SOL     OW 2913   2.529   1.516   1.054  0.3646 -0.1037 -0.3934
  729SOL    HW1 2914   2.557   1.431   1.089  1.9700  0.7495 -0.5025
  729SOL    HW2 2915   2.505   1.501   0.961 -4.5661  0.6776 -0.4928
  729SOL     MW 2916   2.530   1.502   1.046 -0.0742  0.1120 -0.4209
  730SOL     OW 2917   2.192   1.174   0.183 -0.7597 -0.1944  0.2220
  730SOL    HW1 2918   2.258   1.111   0.215 -0.0125 -3.5820  1.7133
  730SOL    HW2 2919   2.244   1.252   0.165 -1.1305 -0.9390 -0.2289
  730SOL     MW 2920   2.208   1.176   0.185 -0.7100 -0.7396  0.3592
  731SOL     OW 2921   2.760   2.010   2.896  0.0726 -0.9210  0.4771
  731SOL    HW1 2922   2.690   2.006   2.836  3.5836  0.0802 -0.5586
  731SOL    HW2 2923   2.846   2.028   2.860 -0.0490  1.5458  0.9268
  731SOL     MW 2924   2.762   2.012   2.883  0.5198 -0.4634  0.3998
  732SOL     OW 2925   2.318   0.970   1.350 -0.2490  0.4431 -0.3575
  732SOL    HW1 2926   2.269   0.946   1.426  1.5726 -0.8386 -1.8197
  732SOL    HW2 2927   2.409   0.937   1.354  3.0230  2.5405 -1.2795
  732SOL     MW 2928   2.323   0.962   1.361  0.4231  0.5507 -0.6720
  733SOL     OW 2929   2.398   2.712   2.995  0.3373 -0.5755  0.1358
  733SOL    HW1 2930   2.317   2.756   3.000  0.2756 -1.1449  0.8423
  733SOL    HW2 2931   2.382   2.618   3.011 -2.1359  1.2349 -2.2879
  733SOL     MW 2932   2.385   2.705   2.998  0.0028 -0.4118 -0.0908
  734SOL     OW 2933   1.493   0.262   2.507 -0.2490 -0.3353  0.0784
  734SOL    HW1 2934   1.474   0.246   2.600 -1.0087  0.2236  0.7219
  734SOL    HW2 2935   1.410   0.268   2.454  0.9714  1.0638 -2.4080
  734SOL     MW 2936   1.480   0.260   2.513 -0.1882 -0.0770 -0.1647
  735SOL     OW 2937   3.007   0.882   2.666  0.2423 -0.0838  0.2982
  735SOL    HW1 2938   2.984   0.786   2.663 -0.5769 -1.5676 -0.1189
  735SOL    HW2 2939   3.021   0.901   2.759  0.1297 -1.7449  0.7108
  735SOL     MW 2940   3.006   0.872   2.678  0.1194 -0.4987  0.2976
  736SOL     OW 2941   0.126   0.559   2.546 -0.3026  0.2013 -0.4628
  736SOL    HW1 2942   0.116   0.644   2.489  0.7186 -0.8318  0.5821
  736SOL    HW2 2943   0.206   0.518   2.514  1.7681 -0.2783 -0.8241
  736SOL     MW 2944   0.135   0.565   2.534  0.1053  0.0017 -0.3726
  737SOL     OW 2945   2.973   0.604   2.651  0.5198 -0.6012 -0.5130
  737SOL    HW1 2946   2.915   0.591   2.571 -0.1701 -1.5528 -0.5475
  737SOL    HW2 2947   3.061   0.590   2.627 -0.2925  0.1920 -0.2546
  737SOL     MW 2948   2.977   0.600   2.638  0.3216 -0.6221 -0.4835
  738SOL     OW 2949   0.123   0.427   1.852 -0.2805 -0.5758 -0.2958
  738SOL    HW1 2950   0.206   0.472   1.862  0.0722 -2.7337  1.3050
  738SOL    HW2 2951   0.115   0.409   1.760  0.0671  0.2185 -1.5664
  738SOL     MW 2952   0.133   0.431   1.842 -0.1881 -0.7557 -0.2522
  739SOL     OW 2953   2.504   0.987   2.107  0.6539 -0.1025 -0.4617
  739SOL    HW1 2954   2.425   0.958   2.065  3.6732  4.0866  1.8914
  739SOL    HW2 2955   2.566   0.925   2.069 -3.8122 -4.5231  1.8782
  739SOL     MW 2956   2.502   0.975   2.097  0.4630 -0.1330  0.1575
  740SOL     OW 2957   0.111   1.765   2.966  0.2136 -0.2254 -0.1261
  740SOL    HW1 2958   0.060   1.682   2.967 -0.2022 -2.8649  0.2751
  740SOL    HW2 2959   0.198   1.748   2.994  0.8579 -0.7309  0.5199
  740SOL     MW 2960   0.116   1.752   2.970  0.2438 -0.6403  0.0121
  741SOL     OW 2961   2.238   1.142   2.710  1.0206  0.4065  0.0663
  741SOL    HW1 2962   2.190   1.217   2.681  1.2851 -2.8108  0.3276
  741SOL    HW2 2963   2.236   1.141   2.813  0.5284  1.3163 -1.0681
  741SOL     MW 2964   2.232   1.152   2.720  0.9906  0.1020 -0.0489
  742SOL     OW 2965   1.570   1.226   2.278 -0.8162 -0.3868  0.3532
  742SOL    HW1 2966   1.496   1.181   2.243 -2.6453  2.4693 -0.6104
  742SOL    HW2 2967   1.609   1.169   2.346 -1.8247 -2.0830  1.2432
  742SOL     MW 2968   1.566   1.213   2.283 -1.1906 -0.2337  0.3435
  743SOL     OW 2969   2.485   1.227   2.722  0.0526 -0.0239 -0.2741
  743SOL    HW1 2970   2.390   1.198   2.694 -1.9572 -0.3194 -0.6888
  743SOL    HW2 2971   2.504   1.166   2.795 -1.2148 -1.8919 -2.1706
  743SOL     MW 2972   2.475   1.215   2.728 -0.3798 -0.3093 -0.5791
  744SOL     OW 2973   2.686   0.857   1.924  0.9641 -0.4824  0.8729
  744SOL    HW1 2974   2.684   0.931   1.865  2.5305  0.3607  2.7412
  744SOL    HW2 2975   2.614   0.798   1.890  0.1215 -1.0389 -1.3992
  744SOL     MW 2976   2.676   0.859   1.911  1.0596 -0.4446  0.8196
  745SOL     OW 2977   1.676   0.498   2.499  0.4056 -0.2465 -0.2701
  745SOL    HW1 2978   1.695   0.483   2.407 -1.1456 -0.7446  1.3463
  745SOL    HW2 2979   1.605   0.437   2.514  0.0142  0.4754  1.0102
  745SOL     MW 2980   1.669   0.488   2.489  0.1493 -0.2170  0.1121
  746SOL     OW 2981   1.604   1.468   1.627 -0.7779  0.5283 -0.2469
  746SOL    HW1 2982   1.679   1.406   1.615 -1.6261  2.5415 -3.3579
  746SOL    HW2 2983   1.606   1.504   1.715 -0.7459  0.0802 -2.1437
  746SOL     MW 2984   1.614   1.464   1.637 -0.8856  0.7348 -0.9076
  747SOL     OW 2985   2.611   1.121   1.811  0.1462  0.5749 -0.1088
  747SOL    HW1 2986   2.521   1.088   1.784 -0.6346 -2.0768 -1.3801
  747SOL    HW2 2987   2.593   1.167   1.896 -0.5784 -0.3775 -0.6714
  747SOL     MW 2988   2.597   1.123   1.819 -0.0524  0.0994 -0.3508
  748SOL     OW 2989   0.072   0.120   1.901  0.6745  0.3389 -0.1257
  748SOL    HW1 2990   0.161   0.133   1.938 -3.0612 -2.3734  0.4787
  748SOL    HW2 2991   0.014   0.159   1.969  0.5102 -0.3404 -1.6235
  748SOL     MW 2992   0.076   0.127   1.915  0.1599 -0.1086 -0.2436
  749SOL     OW 2993   2.544   0.582   2.782 -0.0390  0.0140  0.3071
  749SOL    HW1 2994   2.569   0.655   2.727  0.6014 -0.9421  0.4000
  749SOL    HW2 2995   2.533   0.629   2.869 -1.4383 -1.0241 -0.5359
  749SOL     MW 2996   2.546   0.598   2.786 -0.1391 -0.2491  0.2081
  750SOL     OW 2997   2.023   3.077   1.980  0.2142  0.1632 -0.2816
  750SOL    HW1 2998   2.055   3.161   2.015  1.0538 -0.4243  2.1332
  750SOL    HW2 2999   2.104   3.017   1.985 -1.1602 -0.1817 -1.7678
  750SOL     MW 3000   2.038   3.080   1.985  0.1436  0.0402 -0.1590
  751SOL     OW 3001   0.305   0.334   2.425  0.4081  0.3946 -0.1154
  751SOL    HW1 3002   0.274   0.284   2.494  3.0464  0.0460 -1.3265
  751SOL    HW2 3003   0.262   0.310   2.343 -1.4966  0.6254  1.3387
  751SOL     MW 3004   0.296   0.325   2.424  0.5049  0.3791 -0.0833
  752SOL     OW 3005   2.142   0.824   2.725  0.0114  0.6215  0.3153
  752SOL    HW1 3006   2.221   0.854   2.675  0.5488 -1.3896  2.5372
  752SOL    HW2 3007   2.148   0.863   2.812  0.2149  1.8558 -0.4050
  752SOL     MW 3008   2.153   0.833   2.730  0.1091  0.5190  0.5134
  753SOL     OW 3009   2.787   0.168   2.407 -0.3891 -0.6844 -0.2345
  753SOL    HW1 3010   2.777   0.069   2.390 -0.4104 -1.7748  0.4779
  753SOL    HW2 3011   2.737   0.212   2.338 -0.8957 -2.5527  0.1403
  753SOL     MW 3012   2.779   0.161   2.396 -0.4587 -1.0748 -0.0911
  754SOL     OW 3013   2.256   2.944   2.602  0.9109 -0.0068  0.6577
  754SOL    HW1 3014   2.280   2.971   2.513 -2.9552  0.3318 -0.4661
  754SOL    HW2 3015   2.332   2.899   2.641  1.2944  0.5627  1.8733
  754SOL     MW 3016   2.269   2.941   2.596  0.4514  0.1130  0.6698
  755SOL     OW 3017   2.747   1.535   2.397  0.0824  0.2488  0.3940
  755SOL    HW1 3018   2.742   1.446   2.434 -0.7263 -0.4408 -1.4432
  755SOL    HW2 3019   2.784   1.592   2.471  0.8524  0.9500  0.1606
  755SOL     MW 3020   2.751   1.531   2.411  0.0773  0.2503  0.1208
  756SOL     OW 3021   2.227   1.180   2.985  0.2654 -0.1495  0.3369
  756SOL    HW1 3022   2.288   1.254   2.975  0.6253 -0.4251 -0.9080
  756SOL    HW2 3023   2.276   1.113   3.036 -0.3351 -0.1010 -0.5718
  756SOL     MW 3024   2.242   1.181   2.991  0.2336 -0.1795  0.0528
  757SOL     OW 3025   2.162   0.910   1.601  0.4454  0.4518  0.2076
  757SOL    HW1 3026   2.208   0.824   1.603 -0.6937  1.6800 -0.0740
  757SOL    HW2 3027   2.062   0.904   1.579 -2.3593  1.3069  1.3088
  757SOL     MW 3028   2.155   0.898   1.598 -0.0750  0.7267  0.3157
  758SOL     OW 3029   2.209   1.824   2.624  0.1404 -0.8435  0.1475
  758SOL    HW1 3030   2.216   1.863   2.539  1.8439  1.6930 -0.3276
  758SOL    HW2 3031   2.277   1.758   2.620 -0.0709 -1.9930 -0.4790
  758SOL     MW 3032   2.219   1.820   2.612  0.3372 -0.6605  0.0021
  759SOL     OW 3033   1.539   1.288   2.714  0.3381  0.2606  0.3518
  759SOL    HW1 3034   1.519   1.356   2.648 -0.2887 -3.9925  0.1087
  759SOL    HW2 3035   1.599   1.332   2.779  0.5273  0.2587 -2.3887
  759SOL     MW 3036   1.544   1.303   2.714  0.2804 -0.3008 -0.0418
  760SOL     OW 3037   2.549   1.990   2.726  0.4947  0.3353 -0.2501
  760SOL    HW1 3038   2.550   1.904   2.678  1.4532 -0.2603 -1.9917
  760SOL    HW2 3039   2.581   2.046   2.657  0.4045 -2.4010 -0.2159
  760SOL     MW 3040   2.554   1.986   2.710  0.6093 -0.1043 -0.4754
  761SOL     OW 3041   2.179   0.417   2.561  0.4101 -0.0512 -0.2423
  761SOL    HW1 3042   2.115   0.360   2.591  1.4423  0.8699  0.8933
  761SOL    HW2 3043   2.214   0.476   2.633 -2.6324 -0.0022  0.8929
  761SOL     MW 3044   2.175   0.417   2.574  0.1448  0.0768  0.0573
  762SOL     OW 3045   3.056   0.216   2.144 -0.2455  0.5139  0.3814
  762SOL    HW1 3046   3.057   0.134   2.191 -0.4356  1.5658 -1.8727
  762SOL    HW2 3047   3.069   0.294   2.206  2.6633 -0.2701  0.1901
  762SOL     MW 3048   3.058   0.215   2.158  0.1132  0.5492  0.0588
  763SOL     OW 3049   2.328   1.029   2.340  0.0283  0.0728  0.0608
  763SOL    HW1 3050   2.396   0.987   2.289 -0.5251  1.0795 -0.8946
  763SOL    HW2 3051   2.389   1.100   2.379  2.1911 -0.3632 -0.2758
  763SOL     MW 3052   2.345   1.033   2.339  0.2407  0.1481 -0.1097
  764SOL     OW 3053   0.424   0.281   2.825 -0.4388  0.1456  0.2129
  764SOL    HW1 3054   0.334   0.247   2.827  0.3020 -1.6177  0.3846
  764SOL    HW2 3055   0.420   0.376   2.818 -1.7249  1.9257  0.5334
  764SOL     MW 3056   0.412   0.289   2.824 -0.5107  0.1478  0.2778
  765SOL     OW 3057   2.725   3.010   2.383 -0.0554 -0.1252  0.5220
  765SOL    HW1 3058   2.670   3.021   2.308  1.1274 -1.2389  0.4659
  765SOL    HW2 3059   2.808   2.968   2.352  0.1486 -2.4229  1.9700
  765SOL     MW 3060   2.729   3.006   2.369  0.1276 -0.5753  0.7056
  766SOL     OW 3061   1.884   2.945   2.186  0.4564  0.2525  0.0541
  766SOL    HW1 3062   1.931   2.992   2.115  1.4571 -0.3873  0.9749
  766SOL    HW2 3063   1.813   2.902   2.130 -0.1133  1.6177  1.6070
  766SOL     MW 3064   1.881   2.946   2.170  0.5133  0.3482  0.3805
  767SOL     OW 3065   2.653   0.606   2.113 -0.7340  0.0688  1.1385
  767SOL    HW1 3066   2.716   0.678   2.100 -0.0801 -1.2426 -1.9896
  767SOL    HW2 3067   2.591   0.625   2.042  1.7953  0.4849 -1.3499
  767SOL     MW 3068   2.653   0.618   2.102 -0.3140 -0.0493  0.3975
  768SOL     OW 3069   3.060   1.562   2.918 -0.5841  0.0081  0.3964
  768SOL    HW1 3070   3.061   1.534   3.016 -0.8225  0.0072  4.9656
  768SOL    HW2 3071   3.121   1.489   2.882 -1.0794 -0.4885 -0.3228
  768SOL     MW 3072   3.068   1.549   2.926 -0.6809 -0.0575  0.9044
  769SOL     OW 3073   2.481   0.673   2.333  0.0733 -0.2979 -0.8170
  769SOL    HW1 3074   2.450   0.590   2.374  2.4604 -2.2059  2.4034
  769SOL    HW2 3075   2.565   0.651   2.293  0.9101 -0.6578  0.7558
  769SOL     MW 3076   2.488   0.659   2.333  0.4987 -0.5971 -0.1846
  770SOL     OW 3077   0.007   1.647   2.532 -0.1507 -0.1412 -0.4858
  770SOL    HW1 3078  -0.080   1.624   2.497  2.5999  1.4441  0.3384
  770SOL    HW2 3079   0.033   1.555   2.549 -0.1911 -3.5153 -0.8599
  770SOL     MW 3080  -0.001   1.632   2.530  0.2069 -0.3772 -0.4264
  771SOL     OW 3081   3.044   0.613   1.989  0.2069  0.3310 -0.3019
  771SOL    HW1 3082   2.957   0.608   1.946 -1.2297 -0.7578 -0.2832
  771SOL    HW2 3083   3.102   0.540   1.955  1.0108 -0.8487 -0.3682
  771SOL     MW 3084   3.040   0.603   1.979  0.1234  0.0317 -0.3082
  772SOL     OW 3085   0.069   3.079   2.291  0.2980 -0.1973 -0.3771
  772SOL    HW1 3086  -0.004   3.016   2.295  0.4807  0.9628 -0.6974
  772SOL    HW2 3087   0.137   3.034   2.240 -1.9345  0.4530  0.2181
  772SOL     MW 3088   0.068   3.065   2.285  0.0275  0.0415 -0.3408
  773SOL     OW 3089   2.449   2.828   2.744  0.5101 -0.2437  0.0474
  773SOL    HW1 3090   2.465   2.756   2.685  0.5001 -0.2004 -0.5983
  773SOL    HW2 3091   2.443   2.775   2.826 -1.7585 -1.8215  1.4334
  773SOL     MW 3092   2.451   2.811   2.747  0.2095 -0.4462  0.1451
  774SOL     OW 3093   2.348   1.145   1.738 -1.0549 -0.2326  0.1614
  774SOL    HW1 3094   2.327   1.217   1.676 -0.3856  1.0294 -0.8298
  774SOL    HW2 3095   2.298   1.068   1.713  1.1975  0.9586 -0.7552
  774SOL     MW 3096   2.338   1.144   1.726 -0.6694  0.0911 -0.0903
  775SOL     OW 3097   2.308   2.932   2.337 -0.3723 -0.1868  0.3113
  775SOL    HW1 3098   2.318   3.011   2.280  0.0958  0.0508 -0.3194
  775SOL    HW2 3099   2.370   2.866   2.316  1.7026 -0.8584 -0.9685
  775SOL     MW 3100   2.317   2.934   2.327 -0.0367 -0.2441  0.0592
  776SOL     OW 3101   0.036   1.538   0.085 -0.1824 -0.1740 -0.3162
  776SOL    HW1 3102   0.127   1.529   0.090 -1.1524 -1.0480  0.1121
  776SOL    HW2 3103   0.006   1.456   0.113  1.8204  0.7260  0.6066
  776SOL     MW 3104   0.044   1.526   0.089 -0.0461 -0.1706 -0.1380
  777SOL     OW 3105   2.955   0.981   1.754 -0.3497 -0.2524 -0.1892
  777SOL    HW1 3106   2.924   1.071   1.728  0.6596 -1.7662  3.1149
  777SOL    HW2 3107   2.888   0.919   1.733  0.1948  0.1462  2.4345
  777SOL     MW 3108   2.942   0.985   1.747 -0.1447 -0.3995  0.5929
  778SOL     OW 3109   2.887   0.362   2.772 -0.2743 -0.3614  0.3077
  778SOL    HW1 3110   2.823   0.373   2.846  1.8539 -3.3225  0.7668
  778SOL    HW2 3111   2.911   0.454   2.740 -0.8271 -1.6829 -0.4049
  778SOL     MW 3112   2.882   0.376   2.778 -0.0664 -0.9264  0.2743
  779SOL     OW 3113   2.109   0.542   2.313 -0.2344 -0.2326  0.1162
  779SOL    HW1 3114   2.080   0.611   2.363  2.9059 -2.3385 -0.7541
  779SOL    HW2 3115   2.136   0.487   2.382  1.6655  2.0797 -0.3566
  779SOL     MW 3116   2.109   0.544   2.329  0.4306 -0.2054 -0.0610
  780SOL     OW 3117   0.172   0.119   2.837 -0.1163  0.0447 -0.4577
  780SOL    HW1 3118   0.120   0.176   2.898  1.0988 -0.2618  0.7354
  780SOL    HW2 3119   0.163   0.128   2.745  1.0429 -0.4920  0.9928
  780SOL     MW 3120   0.164   0.128   2.833  0.1970 -0.0665 -0.1089
  781SOL     OW 3121   3.043   1.377   2.449 -0.5252  0.1428 -0.4435
  781SOL    HW1 3122   3.006   1.422   2.374  0.8935  2.0352 -1.3295
  781SOL    HW2 3123   3.115   1.317   2.418  0.8760  1.0233 -0.6032
  781SOL     MW 3124   3.047   1.375   2.435 -0.1531  0.5087 -0.5815
  782SOL     OW 3125   0.547   1.574   3.061 -0.0215 -0.2522  0.8986
  782SOL    HW1 3126   0.483   1.647   3.066 -1.7166  1.1299 -0.8582
  782SOL    HW2 3127   0.533   1.537   3.149 -0.3862  1.7186 -1.8817
  782SOL     MW 3128   0.537   1.578   3.073 -0.2933  0.1902  0.3000
  783SOL     OW 3129   2.807   0.570   2.442  0.4711  0.2451 -0.1620
  783SOL    HW1 3130   2.845   0.541   2.359  0.1157 -1.8948 -2.0915
  783SOL    HW2 3131   2.767   0.497   2.484  2.1989 -1.0642 -1.0689
  783SOL     MW 3132   2.807   0.557   2.437  0.6522 -0.2100 -0.5362
  784SOL     OW 3133   0.211   0.918   2.891 -0.3763 -0.1580 -0.1972
  784SOL    HW1 3134   0.191   0.990   2.959  0.1611 -2.6524 -0.1403
  784SOL    HW2 3135   0.222   0.976   2.811  2.6559 -0.0860  2.9806
  784SOL     MW 3136   0.210   0.935   2.889  0.0947 -0.4776  0.2296
  785SOL     OW 3137   0.347   0.493   2.121  0.0767  0.9391  0.3209
  785SOL    HW1 3138   0.365   0.517   2.030  0.7409 -2.9475  0.4380
  785SOL    HW2 3139   0.300   0.409   2.119  2.8902  1.4346 -2.3376
  785SOL     MW 3140   0.343   0.485   2.109  0.5355  0.4917 -0.0144
  786SOL     OW 3141   2.028   0.499   2.833  0.1963 -0.4597  0.2093
  786SOL    HW1 3142   1.987   0.487   2.917  1.7544 -0.4120 -1.1218
  786SOL    HW2 3143   2.119   0.512   2.845 -0.4965 -0.8244  3.1059
  786SOL     MW 3144   2.035   0.499   2.846  0.3105 -0.5015  0.4158
  787SOL     OW 3145   2.437   0.172   2.931 -0.3307 -0.4005  0.4280
  787SOL    HW1 3146   2.503   0.132   2.874  0.1951 -1.6149 -0.2257
  787SOL    HW2 3147   2.472   0.250   2.971 -0.7598 -1.4743 -1.0063
  787SOL     MW 3148   2.450   0.177   2.929 -0.3179 -0.7024  0.1525
  788SOL     OW 3149   2.963   2.906   2.279 -0.2001 -0.5579  0.1521
  788SOL    HW1 3150   2.995   2.876   2.196 -0.8979 -1.0372 -1.5792
  788SOL    HW2 3151   2.978   2.835   2.343 -2.5222  0.6196  0.3133
  788SOL     MW 3152   2.969   2.893   2.276 -0.5985 -0.4658 -0.0550
  789SOL     OW 3153   0.035   0.266   3.015  0.2461  0.4080  0.0513
  789SOL    HW1 3154  -0.039   0.211   3.043 -1.3402 -1.2521  0.6482
  789SOL    HW2 3155   0.090   0.267   3.089  1.4475  0.6785 -1.9297
  789SOL     MW 3156   0.032   0.258   3.029  0.1953  0.2246 -0.1313
  790SOL     OW 3157   0.022   1.061   2.506  0.0376 -0.1238 -0.0542
  790SOL    HW1 3158  -0.017   0.995   2.561 -1.4780  1.1868 -3.2140
  790SOL    HW2 3159  -0.052   1.084   2.448 -1.0905  1.8315 -0.6941
  790SOL     MW 3160   0.007   1.056   2.506 -0.3112  0.3071 -0.5556
  791SOL     OW 3161   2.660   0.395   2.635  0.2661  0.4900  0.0931
  791SOL    HW1 3162   2.608   0.448   2.695  1.4701 -1.1865 -1.8370
  791SOL    HW2 3163   2.744   0.370   2.679 -1.0957  0.6175 -1.3554
  791SOL     MW 3164   2.665   0.399   2.649  0.2453  0.2856 -0.3527
  792SOL     OW 3165   2.444   0.246   2.362  0.4965  0.4580 -0.3602
  792SOL    HW1 3166   2.354   0.252   2.401 -0.9926 -0.0579  1.8816
  792SOL    HW2 3167   2.486   0.197   2.432 -1.9782  4.1247 -0.6297
  792SOL     MW 3168   2.437   0.241   2.376 -0.0265  0.8737 -0.1000
  793SOL     OW 3169   1.748   1.038   1.881 -0.0363 -0.2131  0.0357
  793SOL    HW1 3170   1.752   1.084   1.791  2.5884  1.5631  1.2212
  793SOL    HW2 3171   1.812   0.965   1.861  2.3766 -0.7512 -0.4492
  793SOL     MW 3172   1.757   1.035   1.866  0.6284 -0.0498  0.1281
  794SOL     OW 3173   1.441   2.304   0.110  0.2208  0.0749 -0.1061
  794SOL    HW1 3174   1.457   2.398   0.091 -0.6018 -0.6618  0.8741
  794SOL    HW2 3175   1.471   2.294   0.200  1.7009 -0.4083  0.5167
  794SOL     MW 3176   1.447   2.315   0.120  0.3076 -0.0861  0.1054
  795SOL     OW 3177   2.363   0.933   2.606  0.3592  0.0874  0.1446
  795SOL    HW1 3178   2.338   1.015   2.646 -0.7338 -1.2565  1.8637
  795SOL    HW2 3179   2.327   0.947   2.518 -1.6531  0.9794  0.0521
  795SOL     MW 3180   2.355   0.945   2.600 -0.0505  0.0277  0.3593
  796SOL     OW 3181   0.319   0.691   2.787 -0.1107 -0.1462  0.4298
  796SOL    HW1 3182   0.282   0.772   2.825  1.9236  1.5047 -2.0698
  796SOL    HW2 3183   0.254   0.666   2.721 -0.1849 -0.8784  0.2851
  796SOL     MW 3184   0.306   0.698   2.783  0.1479 -0.0250  0.0809
  797SOL     OW 3185   2.589   0.144   2.580 -0.2671  0.0192  0.1577
  797SOL    HW1 3186   2.582   0.234   2.614 -2.7443  1.3654  2.1041
  797SOL    HW2 3187   2.672   0.146   2.532  0.6589 -0.2465  0.4902
  797SOL     MW 3188   2.599   0.156   2.578 -0.4718  0.1618  0.4584
  798SOL     OW 3189   2.368   0.053   2.194  0.3128  0.2338 -0.2924
  798SOL    HW1 3190   2.387   0.141   2.227  0.0126 -0.0701  0.7737
  798SOL    HW2 3191   2.442   0.034   2.134 -2.2897 -1.1765 -1.9867
  798SOL     MW 3192   2.380   0.062   2.190 -0.0702  0.0076 -0.3753
  799SOL     OW 3193   2.522   2.948   0.205  0.0760 -0.2469 -0.2056
  799SOL    HW1 3194   2.558   2.905   0.129  1.6955 -1.3930  2.5115
  799SOL    HW2 3195   2.451   3.010   0.173 -0.2290  0.1755 -0.2501
  799SOL     MW 3196   2.517   2.950   0.191  0.2494 -0.3424  0.1470
  800SOL     OW 3197   1.920   3.088   1.709 -0.2188  0.1653  0.0913
  800SOL    HW1 3198   1.867   3.007   1.719  1.9506 -1.5601 -0.3934
  800SOL    HW2 3199   1.965   3.094   1.797 -0.5884 -2.8606 -0.8516
  800SOL     MW 3200   1.919   3.078   1.722  0.0186 -0.4616 -0.0971
  801SOL     OW 3201   2.825   1.296   2.622  0.1266  0.1989  0.4111
  801SOL    HW1 3202   2.811   1.198   2.606 -1.0607 -0.0397 -0.1532
  801SOL    HW2 3203   2.898   1.317   2.562  0.7071  0.3269 -1.2618
  801SOL     MW 3204   2.833   1.286   2.612  0.0466  0.1843  0.1159
  802SOL     OW 3205   2.571   1.508   2.769  0.1311  0.2638 -0.6550
  802SOL    HW1 3206   2.570   1.423   2.723 -0.6478 -2.6561  2.3305
  802SOL    HW2 3207   2.654   1.546   2.779 -1.1890  1.1497  0.1468
  802SOL     MW 3208   2.582   1.502   2.764 -0.1458 -0.0045 -0.1553
  803SOL     OW 3209   2.286   1.331   1.955 -0.0727 -0.0725 -0.1512
  803SOL    HW1 3210   2.241   1.283   2.024  0.0509 -2.5286 -0.3833
  803SOL    HW2 3211   2.292   1.266   1.889  0.3940  1.0370  1.8910
  803SOL     MW 3212   2.281   1.316   1.955  0.0052 -0.2502  0.0876
  804SOL     OW 3213   2.354   0.019   0.038 -0.0198 -0.4145 -0.0645
  804SOL    HW1 3214   2.273   0.075   0.028  0.4186 -0.5215 -1.2296
  804SOL    HW2 3215   2.404   0.064  -0.034  0.5482 -2.4033  0.3236
  804SOL     MW 3216   2.350   0.032   0.027  0.1130 -0.6910 -0.1670
  805SOL     OW 3217   2.804   1.029   2.538  1.0363  0.5566  0.2561
  805SOL    HW1 3218   2.741   0.956   2.535  0.6152 -0.2589  2.2185
  805SOL    HW2 3219   2.873   0.991   2.594 -1.1592 -1.3367 -0.1703
  805SOL     MW 3220   2.805   1.014   2.545  0.6911  0.1992  0.4588
  806SOL     OW 3221   2.650   0.326   2.219 -0.7608  0.1434 -0.3279
  806SOL    HW1 3222   2.572   0.303   2.265  1.7997 -0.8919  0.6442
  806SOL    HW2 3223   2.631   0.413   2.203 -0.1732 -1.1504  0.3003
  806SOL     MW 3224   2.638   0.334   2.223 -0.3454 -0.1639 -0.1168
  807SOL     OW 3225   0.034   1.158   2.085 -0.0379  0.0259  0.4884
  807SOL    HW1 3226   0.077   1.082   2.050  3.5909  0.4069  2.2669
  807SOL    HW2 3227  -0.048   1.121   2.117  0.2095 -2.0566 -0.8962
  807SOL     MW 3228   0.029   1.143   2.085  0.4735 -0.1986  0.5403
  808SOL     OW 3229   2.597   3.082   2.784  0.5107 -0.4017  0.0523
  808SOL    HW1 3230   2.565   2.998   2.749  1.9210  1.1491 -1.5875
  808SOL    HW2 3231   2.583   3.147   2.710  2.1376  0.3191  2.5505
  808SOL     MW 3232   2.591   3.079   2.770  0.9114 -0.1020  0.1655
  809SOL     OW 3233   2.497   1.244   2.406 -0.0477  0.0472 -0.0982
  809SOL    HW1 3234   2.521   1.258   2.496  1.3097  2.9113  3.5653
  809SOL    HW2 3235   2.571   1.257   2.346  0.9761 -0.2836 -2.2049
  809SOL     MW 3236   2.510   1.248   2.410  0.2665  0.3815  0.1072
  810SOL     OW 3237   2.140   1.173   2.172 -0.3279  0.3076 -0.0195
  810SOL    HW1 3238   2.181   1.111   2.236  0.4720 -1.2902  0.2059
  810SOL    HW2 3239   2.051   1.133   2.157  2.0227 -3.8977  0.3775
  810SOL     MW 3240   2.134   1.160   2.178  0.0878 -0.4580  0.0626
  811SOL     OW 3241   1.517   0.085   2.243 -0.2815  0.0119 -0.2361
  811SOL    HW1 3242   1.602   0.055   2.290 -0.0406 -1.2105  0.8347
  811SOL    HW2 3243   1.479   0.018   2.193 -1.7227 -1.5401  0.2112
  811SOL     MW 3244   1.523   0.072   2.243 -0.4399 -0.3541 -0.0358
  812SOL     OW 3245   1.445   2.755   2.112 -0.0115 -0.1339 -0.2330
  812SOL    HW1 3246   1.536   2.787   2.087 -1.3809 -1.9049 -1.7023
  812SOL    HW2 3247   1.458   2.703   2.193 -1.9464 -0.0965 -1.2486
  812SOL     MW 3248   1.459   2.753   2.120 -0.4475 -0.3626 -0.5608
  813SOL     OW 3249   1.864   0.730   2.175  0.4963  0.1703  0.2438
  813SOL    HW1 3250   1.819   0.646   2.182 -0.2142 -0.7921 -2.9145
  813SOL    HW2 3251   1.915   0.739   2.256 -0.3246  0.1259 -0.5481
  813SOL     MW 3252   1.865   0.720   2.186  0.2942  0.0375 -0.2774
  814SOL     OW 3253   2.820   1.204   1.645  0.6462 -0.3472  0.3136
  814SOL    HW1 3254   2.753   1.200   1.721 -1.3614 -0.6502  1.9848
  814SOL    HW2 3255   2.775   1.162   1.571 -1.3690  0.6260  0.3726
  814SOL     MW 3256   2.805   1.198   1.645  0.1154 -0.2588  0.5419
  815SOL     OW 3257   2.481   1.621   2.349  0.1533  0.0285  0.2378
  815SOL    HW1 3258   2.421   1.543   2.341 -0.3479  1.4431 -0.3454
  815SOL    HW2 3259   2.568   1.588   2.362  3.2962  1.4802 -0.5994
  815SOL     MW 3260   2.485   1.607   2.350  0.5018  0.4067  0.0504
  816SOL     OW 3261   0.668   0.681   2.672  0.4222  0.0494  0.4820
  816SOL    HW1 3262   0.712   0.632   2.739 -0.6253 -0.5837 -0.9438
  816SOL    HW2 3263   0.589   0.625   2.649 -0.2760 -2.3040  0.8411
  816SOL     MW 3264   0.664   0.667   2.678  0.1919 -0.3447  0.3413
  817SOL     OW 3265   3.042   1.161   1.313  0.1989  0.5323 -0.5245
  817SOL    HW1 3266   3.071   1.171   1.403 -1.8453 -1.1770 -2.2781
  817SOL    HW2 3267   3.006   1.253   1.292 -0.2177  0.2738 -2.2788
  817SOL     MW 3268   3.041   1.175   1.322 -0.1258  0.2727 -0.9874
  818SOL     OW 3269   1.907   0.960   2.695 -0.2153  0.1191  0.4269
  818SOL    HW1 3270   1.923   1.022   2.623  0.8763  1.0796 -1.3092
  818SOL    HW2 3271   1.986   0.905   2.695 -0.3041 -1.3494 -3.1198
  818SOL     MW 3272   1.919   0.961   2.685 -0.0830  0.0521 -0.2701
  819SOL     OW 3273   1.928   0.248   2.329  0.3853 -0.2403  0.0142
  819SOL    HW1 3274   1.879   0.313   2.366  2.1049  0.2609 -1.6976
  819SOL    HW2 3275   1.970   0.210   2.404  0.2763 -1.0499 -1.2927
  819SOL     MW 3276   1.927   0.251   2.344  0.5978 -0.2810 -0.3841
  820SOL     OW 3277   2.477   1.736   2.600 -0.0231 -0.2937 -0.0631
  820SOL    HW1 3278   2.482   1.651   2.652 -2.6238 -0.4295  3.8352
  820SOL    HW2 3279   2.487   1.699   2.514 -0.8002 -0.8820  1.0161
  820SOL     MW 3280   2.479   1.720   2.595 -0.4687 -0.3892  0.5936
  821SOL     OW 3281   2.559   1.318   2.012 -0.5850 -0.0988 -0.1373
  821SOL    HW1 3282   2.599   1.354   1.931  0.2786  0.9940  1.0483
  821SOL    HW2 3283   2.466   1.318   1.997 -2.6298 -0.9113 -1.4787
  821SOL     MW 3284   2.552   1.323   1.999 -0.7409 -0.0618 -0.1578
  822SOL     OW 3285   2.909   2.629   1.451 -0.3090 -0.4005  0.2245
  822SOL    HW1 3286   2.849   2.692   1.406 -1.9526 -1.0547 -2.4975
  822SOL    HW2 3287   2.982   2.686   1.481 -1.9059  0.4531 -0.9763
  822SOL     MW 3288   2.911   2.645   1.449 -0.7366 -0.3742 -0.2931
  823SOL     OW 3289   2.360   0.467   1.788  0.1482 -0.1659  0.0351
  823SOL    HW1 3290   2.445   0.425   1.755 -0.5653 -2.5595 -2.6980
  823SOL    HW2 3291   2.287   0.413   1.756  0.9448  1.4142  1.2268
  823SOL     MW 3292   2.362   0.454   1.780  0.1592 -0.2732 -0.1683
  824SOL     OW 3293   2.122   1.363   2.579  0.3856 -0.2710 -0.5150
  824SOL    HW1 3294   2.173   1.395   2.500  0.5155  0.7298  0.8142
  824SOL    HW2 3295   2.099   1.447   2.628  1.4352 -1.3973 -0.4670
  824SOL     MW 3296   2.125   1.378   2.575  0.5412 -0.2875 -0.3333
  825SOL     OW 3297   2.131   2.361   0.357 -0.1379 -0.7505 -0.0878
  825SOL    HW1 3298   2.180   2.349   0.275  0.5516 -1.0837  3.4702
  825SOL    HW2 3299   2.187   2.357   0.438  1.2953 -2.3071  1.2781
  825SOL     MW 3300   2.145   2.359   0.357  0.1422 -0.9999  0.5619
  826SOL     OW 3301   1.757   2.411   0.426  0.2232  0.5840 -0.1837
  826SOL    HW1 3302   1.763   2.353   0.499  0.2558  0.7197  1.6491
  826SOL    HW2 3303   1.818   2.484   0.439  0.6595 -1.1479  1.0752
  826SOL     MW 3304   1.766   2.413   0.437  0.2851  0.3734  0.2242
  827SOL     OW 3305   1.925   2.261   0.861 -0.1458 -0.3129 -0.1075
  827SOL    HW1 3306   1.881   2.268   0.776  1.2876 -0.9217  1.3926
  827SOL    HW2 3307   1.863   2.200   0.896 -0.8137 -0.7960 -0.8737
  827SOL     MW 3308   1.911   2.254   0.854 -0.0448 -0.4570 -0.0107
  828SOL     OW 3309   0.100   2.628   0.548  0.0529  0.5193 -0.1332
  828SOL    HW1 3310   0.179   2.649   0.590 -0.5197  0.2442 -0.2436
  828SOL    HW2 3311   0.092   2.677   0.466 -1.1626 -1.5811  1.3270
  828SOL     MW 3312   0.109   2.637   0.542 -0.1830  0.2059  0.0449
  829SOL     OW 3313   2.997   2.855   1.198 -0.3243  0.0089 -0.2957
  829SOL    HW1 3314   2.908   2.847   1.167  3.9018  1.1821  2.0939
  829SOL    HW2 3315   3.048   2.790   1.152 -1.2972  0.5200 -0.5492
  829SOL     MW 3316   2.992   2.845   1.188  0.1050  0.2311 -0.0139
  830SOL     OW 3317   2.498   2.804   1.992 -0.2957  0.4072 -0.1690
  830SOL    HW1 3318   2.404   2.837   1.963 -2.2634  1.8362  0.6161
  830SOL    HW2 3319   2.550   2.794   1.913 -1.9116  0.9845  0.6286
  830SOL     MW 3320   2.493   2.807   1.977 -0.7685  0.6719  0.0398
  831SOL     OW 3321   2.465   2.427   1.236 -0.1896  0.1477 -0.3415
  831SOL    HW1 3322   2.438   2.345   1.271  0.7966  2.1312  1.9184
  831SOL    HW2 3323   2.556   2.409   1.199  2.1341 -1.8313  2.6530
  831SOL     MW 3324   2.474   2.414   1.236  0.2471  0.1483  0.3518
  832SOL     OW 3325   2.431   2.104   1.916 -0.3985 -0.1342  0.3869
  832SOL    HW1 3326   2.444   2.201   1.934  0.1515  0.0147 -0.2818
  832SOL    HW2 3327   2.482   2.083   1.837  2.4583 -0.2229 -0.2257
  832SOL     MW 3328   2.439   2.114   1.908  0.0510 -0.1262  0.2178
  833SOL     OW 3329   1.611   2.492   0.799 -0.3311 -0.4059 -0.0914
  833SOL    HW1 3330   1.594   2.404   0.823 -0.1596  0.5200 -1.8254
  833SOL    HW2 3331   1.535   2.547   0.831  3.2135  1.4945 -1.8263
  833SOL     MW 3332   1.599   2.488   0.806  0.1592 -0.0330 -0.5491
  834SOL     OW 3333   2.199   2.411   0.627 -0.1804  0.1978 -1.0417
  834SOL    HW1 3334   2.187   2.319   0.659 -0.9625 -0.7659 -0.7169
  834SOL    HW2 3335   2.298   2.421   0.637  1.3049  0.1884 -1.5034
  834SOL     MW 3336   2.211   2.400   0.633 -0.0876  0.0694 -1.0597
  835SOL     OW 3337   1.870   2.599   0.670 -0.1987  1.0072 -0.2879
  835SOL    HW1 3338   1.800   2.564   0.734 -1.3861 -0.5871  3.9405
  835SOL    HW2 3339   1.950   2.563   0.697 -2.8609 -4.2387 -0.4748
  835SOL     MW 3340   1.871   2.590   0.682 -0.7066  0.1047  0.2453
  836SOL     OW 3341   2.091   2.062   1.765  0.0465 -0.0209  0.1684
  836SOL    HW1 3342   2.166   1.999   1.763 -1.1172  0.0541  0.6811
  836SOL    HW2 3343   2.129   2.143   1.804  0.5841 -1.3688  2.1692
  836SOL     MW 3344   2.106   2.064   1.770 -0.0361 -0.1889  0.5000
  837SOL     OW 3345   2.118   0.195   0.655 -0.7086  0.5889  0.1663
  837SOL    HW1 3346   2.038   0.187   0.615  2.9230  1.2263  1.5298
  837SOL    HW2 3347   2.171   0.178   0.581 -0.8271  0.6240  0.5396
  837SOL     MW 3348   2.115   0.192   0.640 -0.2450  0.6776  0.3954
  838SOL     OW 3349   2.930   2.037   0.913 -0.2212 -0.3861  0.1833
  838SOL    HW1 3350   2.853   1.985   0.916  1.7545 -0.6742 -3.1017
  838SOL    HW2 3351   2.959   2.033   1.003 -0.0525  0.4424 -0.6879
  838SOL     MW 3352   2.924   2.029   0.926  0.0617 -0.3148 -0.3651
  839SOL     OW 3353   1.522   2.393   1.061  0.0856  0.3908 -0.6950
  839SOL    HW1 3354   1.527   2.470   1.117 -1.5390  0.0239 -0.5611
  839SOL    HW2 3355   1.563   2.322   1.120 -5.2088  1.9009 -1.9311
  839SOL     MW 3356   1.528   2.394   1.076 -0.8273  0.5417 -0.8404
  840SOL     OW 3357   2.402   2.117   2.312 -0.4766  0.2814 -0.2644
  840SOL    HW1 3358   2.345   2.194   2.300  1.9783  0.1312 -0.8204
  840SOL    HW2 3359   2.456   2.130   2.395 -0.3041  0.0518  1.2966
  840SOL     MW 3360   2.402   2.129   2.322 -0.1300  0.2313 -0.1318
  841SOL     OW 3361   2.287   2.284   0.127 -0.2823 -0.2986  0.5784
  841SOL    HW1 3362   2.296   2.364   0.070 -0.4697 -0.2862  0.2031
  841SOL    HW2 3363   2.222   2.232   0.078  0.1457 -1.1599 -1.1835
  841SOL     MW 3364   2.280   2.288   0.113 -0.2506 -0.4106  0.2964
  842SOL     OW 3365   2.669   1.946   1.486 -0.2868  0.5158 -0.0761
  842SOL    HW1 3366   2.592   1.894   1.495  1.4363  0.1088 -0.4695
  842SOL    HW2 3367   2.663   1.983   1.400 -1.4682  0.4572  0.3806
  842SOL     MW 3368   2.658   1.944   1.476 -0.2153  0.4544 -0.0678
  843SOL     OW 3369   2.658   2.763   1.760  0.5834 -0.6669  0.1205
  843SOL    HW1 3370   2.746   2.739   1.773 -0.5518 -0.1752 -0.9700
  843SOL    HW2 3371   2.625   2.686   1.705  2.7737  0.5122 -0.3738
  843SOL     MW 3372   2.665   2.750   1.755  0.7226 -0.4465 -0.0886
  844SOL     OW 3373   2.674   2.337   1.089  0.0770 -0.2619  0.0828
  844SOL    HW1 3374   2.694   2.380   1.002 -1.3071  3.3592 -0.0736
  844SOL    HW2 3375   2.747   2.359   1.147 -1.1959  1.2803  0.5613
  844SOL     MW 3376   2.687   2.346   1.085 -0.2736  0.4193  0.1253
  845SOL     OW 3377   2.841   2.618   0.277 -0.0774  0.0062  0.2242
  845SOL    HW1 3378   2.841   2.541   0.342 -0.1362  0.3657 -1.2384
  845SOL    HW2 3379   2.822   2.703   0.322  1.5478 -0.4767 -2.3057
  845SOL     MW 3380   2.838   2.619   0.292  0.1293 -0.0101 -0.3026
  846SOL     OW 3381   1.437   2.725   0.780 -0.2546 -0.1098  0.3108
  846SOL    HW1 3382   1.502   2.793   0.796 -1.5139 -0.2760  1.9819
  846SOL    HW2 3383   1.349   2.768   0.773 -2.1552 -1.1335 -0.6884
  846SOL     MW 3384   1.434   2.740   0.781 -0.6715 -0.2668  0.3994
  847SOL     OW 3385   2.429   1.815   0.219 -0.7223 -0.0942 -0.2221
  847SOL    HW1 3386   2.419   1.733   0.260 -1.0559 -0.6061  0.5395
  847SOL    HW2 3387   2.431   1.799   0.120  0.2353  1.7814 -0.2815
  847SOL     MW 3388   2.428   1.802   0.211 -0.6400  0.0857 -0.1295
  848SOL     OW 3389   2.716   2.066   1.199 -0.0476  0.2163  0.1006
  848SOL    HW1 3390   2.708   2.134   1.131  0.1442  4.0331  0.1542
  848SOL    HW2 3391   2.724   1.989   1.144  2.6840  0.0693  1.2997
  848SOL     MW 3392   2.716   2.065   1.183  0.3381  0.7005  0.2659
  849SOL     OW 3393   1.932   2.847   0.823 -0.2469  0.1906  0.0450
  849SOL    HW1 3394   1.881   2.820   0.901 -1.0122 -1.4102  1.0720
  849SOL    HW2 3395   1.967   2.769   0.788 -2.7759 -0.7045  0.8574
  849SOL     MW 3396   1.930   2.833   0.828 -0.6816 -0.1387  0.2877
  850SOL     OW 3397   2.315   1.945   1.611 -0.2520 -0.1101 -0.1781
  850SOL    HW1 3398   2.229   1.934   1.568  0.5534 -0.3887  1.2360
  850SOL    HW2 3399   2.345   2.029   1.587 -0.1344  3.0147  1.0101
  850SOL     MW 3400   2.308   1.954   1.602 -0.1302  0.2654  0.1652
  851SOL     OW 3401   2.562   2.212   0.423  0.5254  0.6846  0.1251
  851SOL    HW1 3402   2.561   2.173   0.331  2.0806 -1.7042  0.4815
  851SOL    HW2 3403   2.517   2.298   0.415 -0.4936  3.1846  0.4114
  851SOL     MW 3404   2.556   2.218   0.410  0.5961  0.6992  0.2099
  852SOL     OW 3405   2.320   2.012   0.362  0.4900  0.4323  0.3158
  852SOL    HW1 3406   2.353   2.093   0.331  2.8896 -1.4761  0.9562
  852SOL    HW2 3407   2.367   1.944   0.305 -1.2678 -0.0782 -0.9928
  852SOL     MW 3408   2.331   2.014   0.350  0.5747  0.1131  0.2277
  853SOL     OW 3409   2.514   2.401   1.902 -0.1746  0.4085  0.3105
  853SOL    HW1 3410   2.497   2.431   1.810 -1.9198 -1.4942 -2.2090
  853SOL    HW2 3411   2.604   2.423   1.911 -1.0476 -0.3067 -0.8569
  853SOL     MW 3412   2.524   2.408   1.891 -0.5200  0.0631 -0.1759
  854SOL     OW 3413   2.879   2.267   0.734  0.7127  0.3602  0.0907
  854SOL    HW1 3414   2.808   2.241   0.675  2.2204 -1.2893 -0.6468
  854SOL    HW2 3415   2.886   2.193   0.803  0.2396  1.2567  1.2568
  854SOL     MW 3416   2.870   2.254   0.735  0.8492  0.2608  0.1472
  855SOL     OW 3417   2.804   2.381   0.423  0.4201  0.0523 -0.1277
  855SOL    HW1 3418   2.728   2.323   0.437 -0.3535 -0.4643 -0.4968
  855SOL    HW2 3419   2.878   2.320   0.407  1.6969 -1.4219 -1.0811
  855SOL     MW 3420   2.804   2.365   0.423  0.4865 -0.2104 -0.3022
  856SOL     OW 3421   2.104   1.836   0.238  0.1110 -0.9262  0.2326
  856SOL    HW1 3422   2.015   1.858   0.262 -0.2295 -0.4084 -0.5583
  856SOL    HW2 3423   2.161   1.875   0.305  2.2454  1.6330 -0.6985
  856SOL     MW 3424   2.100   1.844   0.250  0.3477 -0.5202  0.0054
  857SOL     OW 3425   2.452   1.924   0.575  0.0828  0.5317 -0.5223
  857SOL    HW1 3426   2.407   1.965   0.502 -0.8531 -0.2311  2.2174
  857SOL    HW2 3427   2.382   1.931   0.644  0.2774  2.0233  0.6090
  857SOL     MW 3428   2.437   1.930   0.574 -0.0150  0.6278 -0.0115
  858SOL     OW 3429   2.927   2.675   1.824  0.0451 -0.1726  0.4273
  858SOL    HW1 3430   3.005   2.710   1.866  0.0545  0.3335  0.2511
  858SOL    HW2 3431   2.945   2.605   1.766 -1.7515 -0.1130  1.8134
  858SOL     MW 3432   2.940   2.671   1.822 -0.1907 -0.0980  0.5870
  859SOL     OW 3433   1.757   2.648   0.983 -0.3197  0.1367  0.2404
  859SOL    HW1 3434   1.698   2.607   0.918 -2.5567 -0.3027 -0.0967
  859SOL    HW2 3435   1.808   2.588   1.030 -0.9188 -0.0501  0.5105
  859SOL     MW 3436   1.756   2.634   0.981 -0.6939  0.0541  0.2316
  860SOL     OW 3437   2.632   2.584   0.087  0.1316 -0.0304 -0.8235
  860SOL    HW1 3438   2.687   2.581   0.168 -0.7726  0.1267  0.0110
  860SOL    HW2 3439   2.653   2.676   0.050  0.1810 -0.7114 -1.2289
  860SOL     MW 3440   2.642   2.596   0.093  0.0188 -0.0995 -0.7669
  861SOL     OW 3441   1.610   2.158   1.187  0.2155 -0.3072  0.1902
  861SOL    HW1 3442   1.621   2.207   1.274 -0.3375  2.5409  1.7865
  861SOL    HW2 3443   1.544   2.086   1.199 -0.2050  0.1289  1.6052
  861SOL     MW 3444   1.603   2.155   1.200  0.0871  0.1261  0.5875
  862SOL     OW 3445   2.420   1.712   1.436  0.3498 -0.1778  0.3072
  862SOL    HW1 3446   2.377   1.772   1.504 -0.8444  1.1830  2.3568
  862SOL    HW2 3447   2.347   1.699   1.373  1.1100  2.5720 -2.4935
  862SOL     MW 3448   2.405   1.718   1.437  0.2925  0.3645  0.2081
  863SOL     OW 3449   2.898   1.677   0.961 -0.3324 -1.4338 -0.1858
  863SOL    HW1 3450   2.865   1.748   1.017 -0.8884 -1.0790 -1.1147
  863SOL    HW2 3451   2.837   1.683   0.886  0.5889 -2.3495 -0.4854
  863SOL     MW 3452   2.885   1.687   0.958 -0.2842 -1.5078 -0.3479
  864SOL     OW 3453   3.091   1.755   0.773 -0.5611  0.0356 -0.1230
  864SOL    HW1 3454   3.047   1.729   0.856 -1.8709  0.2874 -0.2252
  864SOL    HW2 3455   3.024   1.727   0.706 -1.5583 -0.3849  2.7877
  864SOL     MW 3456   3.076   1.748   0.775 -0.8654  0.0133  0.2476
  865SOL     OW 3457   2.535   2.144   0.133 -0.6716  0.3723  0.2203
  865SOL    HW1 3458   2.491   2.069   0.087 -1.0379  0.7266 -0.2611
  865SOL    HW2 3459   2.458   2.212   0.124 -1.0560 -2.1782 -1.1403
  865SOL     MW 3460   2.519   2.143   0.126 -0.7706  0.0825 -0.0227
  866SOL     OW 3461   2.740   2.364   1.513  0.0632  0.1934 -0.1009
  866SOL    HW1 3462   2.732   2.270   1.514 -1.6833  3.3857  0.9394
  866SOL    HW2 3463   2.774   2.378   1.426  1.3385  1.1936  0.4145
  866SOL     MW 3464   2.743   2.354   1.502  0.0011  0.7466  0.1043
  867SOL     OW 3465   0.136   2.661   1.730  0.5050  0.3186 -0.2701
  867SOL    HW1 3466   0.226   2.695   1.730  1.1518  1.1613  0.9144
  867SOL    HW2 3467   0.080   2.732   1.714  1.5641 -0.9642  1.6601
  867SOL     MW 3468   0.140   2.675   1.728  0.7301  0.2605  0.1408
  868SOL     OW 3469   2.748   2.674   0.604 -0.2162 -0.1374 -0.1551
  868SOL    HW1 3470   2.744   2.586   0.577  0.7985 -2.7457  0.2826
  868SOL    HW2 3471   2.675   2.713   0.552  0.2380 -1.6094  0.6364
  868SOL     MW 3472   2.738   2.668   0.594 -0.0224 -0.6758  0.0071
  869SOL     OW 3473   1.929   2.470   1.076 -0.2589 -0.2216  0.5178
  869SOL    HW1 3474   2.009   2.491   1.033 -0.6945 -1.5388  0.7079
  869SOL    HW2 3475   1.906   2.404   1.008  1.1405  0.0960 -2.5380
  869SOL     MW 3476   1.936   2.464   1.061 -0.1317 -0.3535  0.1397
  870SOL     OW 3477   2.179   3.086   0.458 -0.8677  0.5765  0.1543
  870SOL    HW1 3478   2.255   3.120   0.413  1.8004 -0.7174 -0.1902
  870SOL    HW2 3479   2.212   2.996   0.481  0.9104 -1.5067 -0.0767
  870SOL     MW 3480   2.194   3.079   0.455 -0.2811  0.1310  0.0784
  871SOL     OW 3481   2.480   2.068   0.915  0.2773 -0.8880 -0.3539
  871SOL    HW1 3482   2.400   2.018   0.895 -0.7068  0.5420  2.3501
  871SOL    HW2 3483   2.438   2.144   0.957 -0.6127 -0.3948  0.5595
  871SOL     MW 3484   2.464   2.071   0.917  0.0300 -0.6343  0.1234
  872SOL     OW 3485   2.101   2.487   1.618 -0.4144 -0.3302 -0.7144
  872SOL    HW1 3486   2.050   2.560   1.652  0.1354 -0.4399 -0.4833
  872SOL    HW2 3487   2.063   2.482   1.527  2.2200 -1.3524 -0.3195
  872SOL     MW 3488   2.090   2.496   1.611  0.0057 -0.4795 -0.6318
  873SOL     OW 3489   2.856   2.143   1.839  0.0683 -0.5944  0.0622
  873SOL    HW1 3490   2.836   2.225   1.879  0.6886  0.3033  0.0230
  873SOL    HW2 3491   2.924   2.159   1.776 -0.3049 -0.0626  1.4566
  873SOL     MW 3492   2.862   2.156   1.836  0.1009 -0.4058  0.2410
  874SOL     OW 3493   2.301   1.420   2.357  0.4058 -0.1417  0.6966
  874SOL    HW1 3494   2.252   1.398   2.280  0.3967  0.4878  0.1338
  874SOL    HW2 3495   2.370   1.354   2.374  4.1945 -1.5493  1.6255
  874SOL     MW 3496   2.304   1.409   2.349  0.9044 -0.2444  0.7449
  875SOL     OW 3497   2.374   2.341   0.988 -0.3647 -0.2910  0.4433
  875SOL    HW1 3498   2.409   2.380   0.908 -0.5669 -1.9439 -0.8479
  875SOL    HW2 3499   2.436   2.370   1.059 -1.7098 -1.7139  0.4191
  875SOL     MW 3500   2.387   2.350   0.987 -0.5688 -0.6968  0.2697
  876SOL     OW 3501   3.094   2.211   1.318  0.2332 -0.4484 -0.1583
  876SOL    HW1 3502   3.152   2.285   1.331 -1.2727  0.7558 -1.3999
  876SOL    HW2 3503   3.071   2.173   1.403 -2.2000  2.1183 -2.1471
  876SOL     MW 3504   3.099   2.216   1.331 -0.2865  0.0491 -0.5845
  877SOL     OW 3505   0.025   2.785   0.288 -0.1940  0.4731 -0.5189
  877SOL    HW1 3506   0.110   2.822   0.272  2.5986 -2.0962  0.5522
  877SOL    HW2 3507   0.003   2.730   0.210  0.5467  0.6573  1.6967
  877SOL     MW 3508   0.034   2.783   0.275  0.2722  0.1584 -0.0852
  878SOL     OW 3509   2.264   1.669   1.155  0.2358  0.3838 -0.3057
  878SOL    HW1 3510   2.175   1.644   1.212 -1.4237  0.6926  0.6648
  878SOL    HW2 3511   2.291   1.598   1.092 -1.5800 -0.3290  1.4874
  878SOL     MW 3512   2.256   1.657   1.154 -0.2227  0.3305  0.0590
  879SOL     OW 3513   2.720   2.462   0.848 -0.3201 -0.3444 -0.0291
  879SOL    HW1 3514   2.794   2.514   0.880 -0.0987 -1.4130 -1.8959
  879SOL    HW2 3515   2.767   2.390   0.795 -2.6623 -0.4446  1.2916
  879SOL     MW 3516   2.736   2.460   0.845 -0.5999 -0.4986 -0.1011
  880SOL     OW 3517   2.600   2.205   0.682 -0.5436 -0.1931 -0.0704
  880SOL    HW1 3518   2.555   2.165   0.757 -1.8267 -0.9421  3.0188
  880SOL    HW2 3519   2.561   2.181   0.592  0.0167 -1.5461  1.4989
  880SOL     MW 3520   2.589   2.197   0.680 -0.6389 -0.4705  0.5442
  881SOL     OW 3521   2.990   2.749   0.679  0.1854 -0.5324 -0.0443
  881SOL    HW1 3522   2.903   2.722   0.631 -0.9001 -0.5556 -1.2315
  881SOL    HW2 3523   3.058   2.695   0.643 -0.1021  2.6931 -2.5221
  881SOL     MW 3524   2.988   2.738   0.668  0.0043 -0.1099 -0.5279
  882SOL     OW 3525   2.241   2.905   1.941  0.5596  0.2498  0.0159
  882SOL    HW1 3526   2.233   2.934   1.848  0.3511  0.8995  0.6191
  882SOL    HW2 3527   2.203   2.819   1.948  0.9573  2.4243  0.0174
  882SOL     MW 3528   2.235   2.897   1.929  0.5846  0.6225  0.0957
  883SOL     OW 3529   2.455   2.147   1.296 -0.1103  0.2893  0.0118
  883SOL    HW1 3530   2.541   2.122   1.261  3.0140 -0.8546  0.6861
  883SOL    HW2 3531   2.379   2.115   1.244  1.2549 -0.2448 -2.3607
  883SOL     MW 3532   2.456   2.140   1.285  0.4821  0.0679 -0.2123
  884SOL     OW 3533   1.897   1.856   1.059 -0.4386 -0.1493  0.1485
  884SOL    HW1 3534   1.842   1.936   1.037  0.6066 -1.3232 -0.6671
  884SOL    HW2 3535   1.988   1.874   1.030 -1.5911 -0.8741 -1.4691
  884SOL     MW 3536   1.902   1.869   1.052 -0.4527 -0.3998 -0.1725
  885SOL     OW 3537   2.940   2.445   1.696 -0.0555  0.1540  0.4417
  885SOL    HW1 3538   3.011   2.387   1.669  0.8380 -0.6587  0.4280
  885SOL    HW2 3539   2.876   2.439   1.619 -0.4535 -1.0021 -1.9120
  885SOL     MW 3540   2.941   2.436   1.682  0.0099 -0.1057  0.1294
  886SOL     OW 3541   2.856   2.405   1.282 -0.0566 -0.3011  0.4267
  886SOL    HW1 3542   2.943   2.372   1.261  3.6973 -1.5868  2.0591
  886SOL    HW2 3543   2.877   2.494   1.322 -0.4315 -0.6392  1.3512
  886SOL     MW 3544   2.871   2.413   1.285  0.3892 -0.5153  0.7641
  887SOL     OW 3545   2.313   2.664   1.578  0.0776 -0.4896  0.2750
  887SOL    HW1 3546   2.320   2.689   1.484 -2.7077  0.9155 -0.9421
  887SOL    HW2 3547   2.237   2.605   1.579 -2.6995 -0.9053 -0.3499
  887SOL     MW 3548   2.304   2.659   1.566 -0.6563 -0.3590  0.0320
  888SOL     OW 3549   2.062   2.171   1.431  0.2318  0.1702  0.5240
  888SOL    HW1 3550   2.137   2.161   1.373 -1.0947 -1.2194 -0.9930
  888SOL    HW2 3551   2.092   2.177   1.518  2.6718 -0.5007 -1.8595
  888SOL     MW 3552   2.076   2.170   1.435  0.3787 -0.1016  0.0094
  889SOL     OW 3553   2.265   1.918   2.094 -0.1643  0.3661 -0.2547
  889SOL    HW1 3554   2.360   1.892   2.112  0.2708  0.0656 -0.4829
  889SOL    HW2 3555   2.273   2.009   2.069 -0.7913  0.2163 -3.3240
  889SOL     MW 3556   2.278   1.927   2.093 -0.1896  0.3067 -0.6898
  890SOL     OW 3557   0.079   2.333   0.147  0.0231  0.2684 -0.2467
  890SOL    HW1 3558   0.047   2.427   0.151  0.9129 -0.0256  1.2582
  890SOL    HW2 3559   0.078   2.296   0.239  1.6556  2.0522 -2.1443
  890SOL     MW 3560   0.075   2.340   0.160  0.3559  0.4650 -0.2985
  891SOL     OW 3561   2.993   1.977   1.174  0.2667 -0.1269  0.2536
  891SOL    HW1 3562   3.075   1.934   1.165 -0.2306  3.2021  3.4792
  891SOL    HW2 3563   3.009   2.069   1.211 -1.2445 -2.4462  2.6162
  891SOL     MW 3564   3.006   1.984   1.178  0.0017  0.0063  0.9909
  892SOL     OW 3565   2.465   2.355   2.753 -0.5281 -0.1203 -0.7187
  892SOL    HW1 3566   2.425   2.274   2.785  2.5401  1.3017 -1.9838
  892SOL    HW2 3567   2.564   2.364   2.780  0.6288 -0.4392  0.7862
  892SOL     MW 3568   2.473   2.346   2.761  0.0294  0.0253 -0.6870
  893SOL     OW 3569   1.629   2.328   1.402 -0.0299 -0.4934 -0.5272
  893SOL    HW1 3570   1.542   2.369   1.387  2.8011  0.1742  1.8921
  893SOL    HW2 3571   1.655   2.357   1.489 -0.8010  1.0608 -1.1352
  893SOL     MW 3572   1.621   2.337   1.411  0.2419 -0.2003 -0.2882
  894SOL     OW 3573   2.755   1.969   0.463  0.4199  0.0422 -0.6193
  894SOL    HW1 3574   2.662   1.980   0.497 -2.7866  0.5535  0.5639
  894SOL    HW2 3575   2.752   1.933   0.374 -1.4125 -0.3652  0.4217
  894SOL     MW 3576   2.743   1.966   0.456 -0.2450  0.0559 -0.3258
  895SOL     OW 3577   2.221   2.142   1.163 -0.5264  0.1182  0.6706
  895SOL    HW1 3578   2.225   2.209   1.094  0.1919  2.4454 -1.2682
  895SOL    HW2 3579   2.188   2.058   1.122 -2.5044 -0.9537 -1.1391
  895SOL     MW 3580   2.217   2.140   1.149 -0.6926  0.2838  0.1760
  896SOL     OW 3581   2.239   2.830   1.066  0.6137 -0.0792 -0.2077
  896SOL    HW1 3582   2.274   2.786   1.143  0.9845  0.7047  1.1725
  896SOL    HW2 3583   2.175   2.894   1.096  2.0866 -0.5343 -0.0634
  896SOL     MW 3584   2.235   2.832   1.080  0.8569 -0.0358 -0.0065
  897SOL     OW 3585   3.089   3.059   3.076 -0.3949  0.5936 -0.4762
  897SOL    HW1 3586   3.136   2.975   3.063  2.3636 -0.4937 -1.1493
  897SOL    HW2 3587   3.051   3.082   2.996 -1.9753  1.3228  0.5247
  897SOL     MW 3588   3.090   3.051   3.063 -0.2394  0.5464 -0.4330
  898SOL     OW 3589   2.202   0.163   1.438 -0.1505  0.3004 -0.3818
  898SOL    HW1 3590   2.143   0.088   1.437 -1.1303  1.0349 -0.1319
  898SOL    HW2 3591   2.175   0.230   1.370 -0.2428  2.2074 -0.8957
  898SOL     MW 3592   2.191   0.162   1.429 -0.2920  0.6489 -0.4167
  899SOL     OW 3593   2.963   3.014   0.635  0.5318 -0.6259  0.0298
  899SOL    HW1 3594   2.999   2.932   0.665  2.7356 -0.6467 -1.2789
  899SOL    HW2 3595   2.872   3.003   0.644 -0.4584 -0.8843 -0.2403
  899SOL     MW 3596   2.956   3.002   0.640  0.6919 -0.6627 -0.1785
  900SOL     OW 3597   0.167   2.369   1.134  0.0169 -0.4580 -0.3012
  900SOL    HW1 3598   0.121   2.451   1.117  1.3655 -0.3086 -1.2004
  900SOL    HW2 3599   0.140   2.312   1.059 -0.5384 -1.8361 -0.1581
  900SOL     MW 3600   0.157   2.373   1.122  0.1216 -0.6201 -0.4009
  901SOL     OW 3601   1.765   2.864   1.790 -0.2373  0.2319 -0.0732
  901SOL    HW1 3602   1.796   2.768   1.793  0.2893  2.7806  0.4775
  901SOL    HW2 3603   1.666   2.861   1.776 -2.6682 -1.3324 -3.0054
  901SOL     MW 3604   1.756   2.851   1.789 -0.4885  0.3618 -0.3874
  902SOL     OW 3605   2.621   2.096   1.714  0.0512 -0.3477  0.3519
  902SOL    HW1 3606   2.655   2.030   1.657 -0.2083  1.1552 -1.0557
  902SOL    HW2 3607   2.695   2.121   1.769  1.4708 -1.5252 -0.0977
  902SOL     MW 3608   2.635   2.091   1.714  0.2043 -0.3048  0.1069
  903SOL     OW 3609   1.531   2.643   0.532  0.9952 -0.3499  0.1832
  903SOL    HW1 3610   1.621   2.646   0.502  0.8048 -0.8374  0.7457
  903SOL    HW2 3611   1.515   2.685   0.615 -1.8082 -1.0777 -1.6354
  903SOL     MW 3612   1.541   2.649   0.539  0.6002 -0.5102  0.0175
  904SOL     OW 3613   2.549   2.533   1.658  0.7417 -0.2670 -0.1593
  904SOL    HW1 3614   2.468   2.557   1.608 -0.4513  0.5206 -0.9818
  904SOL    HW2 3615   2.606   2.477   1.597 -0.2428  0.2964 -0.6511
  904SOL     MW 3616   2.546   2.528   1.643  0.4544 -0.0887 -0.3327
  905SOL     OW 3617   2.332   2.495   2.094  0.2943  0.6389 -0.3218
  905SOL    HW1 3618   2.404   2.457   2.032 -1.0581  0.5021 -2.8966
  905SOL    HW2 3619   2.321   2.417   2.157 -0.5320 -0.4181 -0.3257
  905SOL     MW 3620   2.340   2.480   2.094  0.0069  0.4814 -0.6621
  906SOL     OW 3621   2.463   2.515   0.747 -0.1880 -0.6217  0.7042
  906SOL    HW1 3622   2.550   2.495   0.776  0.4390  1.6606 -1.1346
  906SOL    HW2 3623   2.432   2.595   0.784  0.0139 -1.7047 -0.3389
  906SOL     MW 3624   2.470   2.523   0.756 -0.0786 -0.4634  0.3240
  907SOL     OW 3625   2.686   2.772   1.311  0.4419 -0.3323  0.4520
  907SOL    HW1 3626   2.728   2.844   1.351 -1.0900  1.2289 -1.7547
  907SOL    HW2 3627   2.684   2.794   1.218  0.2153  3.0408 -1.2298
  907SOL     MW 3628   2.691   2.784   1.304  0.2099  0.3187 -0.0611
  908SOL     OW 3629   2.674   2.340   3.078  0.0067 -0.5345 -0.1987
  908SOL    HW1 3630   2.608   2.283   3.104  1.9898 -0.2548 -0.9878
  908SOL    HW2 3631   2.635   2.428   3.108 -0.5544  1.5019 -0.1056
  908SOL     MW 3632   2.660   2.344   3.086  0.1943 -0.2289 -0.2905
  909SOL     OW 3633   1.712   0.116   1.313 -0.2359 -0.2223  0.3648
  909SOL    HW1 3634   1.672   0.205   1.292 -0.3771 -1.1492  1.5020
  909SOL    HW2 3635   1.670   0.082   1.391  0.2905  0.7792 -3.9868
  909SOL     MW 3636   1.701   0.123   1.321 -0.1851 -0.2124 -0.0593
  910SOL     OW 3637   2.131   1.620   0.424 -0.4042  0.0968  0.0622
  910SOL    HW1 3638   2.083   1.537   0.415  2.3623  1.3386 -1.0057
  910SOL    HW2 3639   2.107   1.678   0.348 -1.0618 -1.0537 -0.0252
  910SOL     MW 3640   2.122   1.616   0.413 -0.1259  0.1088 -0.0902
  911SOL     OW 3641   2.412   2.208   1.563 -0.0394  0.4885 -0.0433
  911SOL    HW1 3642   2.494   2.194   1.612  2.7349  0.9190  0.8759
  911SOL    HW2 3643   2.436   2.193   1.475 -2.8701 -1.2014  1.4731
  911SOL     MW 3644   2.426   2.204   1.558 -0.0468  0.3223  0.2781
  912SOL     OW 3645   2.915   1.860   1.418  0.5458 -0.0242  0.4984
  912SOL    HW1 3646   2.950   1.910   1.339  2.5762  0.8046  0.4841
  912SOL    HW2 3647   2.841   1.917   1.436  1.3302 -1.1132 -2.5528
  912SOL     MW 3648   2.910   1.874   1.410  0.9172 -0.0585  0.0939
  913SOL     OW 3649   2.700   0.016   0.299 -0.2667  0.5150  0.6865
  913SOL    HW1 3650   2.779  -0.036   0.312  1.2188 -0.1468  1.7232
  913SOL    HW2 3651   2.637  -0.045   0.263  4.1272 -0.9479  1.3659
  913SOL     MW 3652   2.702   0.001   0.296  0.5090  0.2347  0.9129
  914SOL     OW 3653   2.642   1.799   3.014 -0.3973 -0.1084  0.3884
  914SOL    HW1 3654   2.693   1.878   2.987  1.2016 -0.7930  1.0781
  914SOL    HW2 3655   2.561   1.830   3.051 -1.7157  1.3090  2.2595
  914SOL     MW 3656   2.638   1.813   3.016 -0.3603 -0.0117  0.7263
  915SOL     OW 3657   1.821   0.100   0.141 -0.9204 -0.2990  0.8128
  915SOL    HW1 3658   1.897   0.056   0.190  0.5069 -1.1296  0.9669
  915SOL    HW2 3659   1.752   0.043   0.170  1.8921  0.9703 -2.1506
  915SOL     MW 3660   1.822   0.087   0.151 -0.3610 -0.2411  0.4421
  916SOL     OW 3661   1.794   2.166   1.981  0.2374  0.1734 -0.2593
  916SOL    HW1 3662   1.831   2.248   1.954 -0.0883  0.4066 -0.2592
  916SOL    HW2 3663   1.803   2.114   1.904 -1.4951  1.7078  1.3740
  916SOL     MW 3664   1.800   2.170   1.967 -0.0341  0.4066 -0.0438
  917SOL     OW 3665   2.533   2.186   2.539 -0.2867 -0.0992 -0.1475
  917SOL    HW1 3666   2.519   2.247   2.609 -0.5327  0.0111  2.7251
  917SOL    HW2 3667   2.604   2.229   2.487  1.3208  3.6569 -0.3889
  917SOL     MW 3668   2.540   2.200   2.541 -0.1071  0.4110  0.1997
  918SOL     OW 3669   2.052   1.610   2.706  0.0095  0.2498 -0.5904
  918SOL    HW1 3670   1.984   1.632   2.646  1.1559  1.4673  0.7221
  918SOL    HW2 3671   2.115   1.682   2.678 -0.1021  1.9558  0.6890
  918SOL     MW 3672   2.051   1.622   2.694  0.1460  0.6356 -0.2485
  919SOL     OW 3673   3.030   2.398   2.279 -0.4044 -0.0927  0.0305
  919SOL    HW1 3674   2.968   2.327   2.249 -0.5479  2.2119  2.0296
  919SOL    HW2 3675   3.088   2.426   2.209  0.6977 -4.0213 -1.9374
  919SOL     MW 3676   3.030   2.392   2.266 -0.2779 -0.3070  0.0346
  920SOL     OW 3677   2.642   2.833   3.075 -0.6227  0.0672 -0.9055
  920SOL    HW1 3678   2.550   2.822   3.047 -1.2637  1.0560 -1.3243
  920SOL    HW2 3679   2.688   2.786   3.004  0.3672  1.4347  2.9102
  920SOL     MW 3680   2.636   2.825   3.062 -0.5767  0.3781 -0.4573
  921SOL     OW 3681   2.446   2.605   2.595 -0.1897 -0.2476 -0.0416
  921SOL    HW1 3682   2.530   2.583   2.551 -0.7676 -0.9513 -0.1235
  921SOL    HW2 3683   2.451   2.537   2.665  3.0892  1.2652  0.8911
  921SOL     MW 3684   2.458   2.593   2.598  0.1667 -0.1408  0.0707
  922SOL     OW 3685   2.089   2.639   0.425 -0.0702 -0.0649  0.1804
  922SOL    HW1 3686   2.118   2.647   0.330  1.0339 -1.7369 -1.5482
  922SOL    HW2 3687   2.086   2.547   0.435 -0.6493 -3.4070 -2.2012
  922SOL     MW 3688   2.092   2.628   0.414 -0.0010 -0.7265 -0.3619
  923SOL     OW 3689   2.208   2.908   1.658  0.3413 -0.3381 -0.1181
  923SOL    HW1 3690   2.250   2.824   1.633 -1.6185 -0.8724  0.2201
  923SOL    HW2 3691   2.162   2.952   1.585  1.1815 -0.8897 -1.1684
  923SOL     MW 3692   2.207   2.903   1.645  0.1935 -0.4813 -0.2121
  924SOL     OW 3693   1.095   2.712   2.611  0.4837 -0.3103  0.4432
  924SOL    HW1 3694   1.187   2.737   2.604 -2.1075 -0.7126 -0.9110
  924SOL    HW2 3695   1.093   2.644   2.678 -1.0374 -1.4617  0.4188
  924SOL     MW 3696   1.107   2.706   2.618 -0.0588 -0.5153  0.2613
  925SOL     OW 3697   2.985   0.169   2.618  0.3414 -0.6131  0.0837
  925SOL    HW1 3698   2.922   0.183   2.555  2.7006 -1.5955  0.1186
  925SOL    HW2 3699   2.966   0.251   2.672  1.8848  0.2017  1.7657
  925SOL     MW 3700   2.974   0.182   2.617  0.8563 -0.6352  0.3102
  926SOL     OW 3701   2.818   2.413   1.945  0.1827  0.3367 -0.1100
  926SOL    HW1 3702   2.838   2.495   1.996  0.6278 -1.9619 -0.8340
  926SOL    HW2 3703   2.848   2.429   1.856  0.1830  1.0900  0.3531
  926SOL     MW 3704   2.825   2.426   1.940  0.2414  0.1328 -0.1444
  927SOL     OW 3705   2.391   0.099   0.315 -0.1698  0.2938 -0.3125
  927SOL    HW1 3706   2.472   0.147   0.330  1.3207  0.6111 -0.5962
  927SOL    HW2 3707   2.373   0.089   0.216  0.1195 -2.5305  2.2672
  927SOL     MW 3708   2.399   0.104   0.304  0.0650 -0.0370 -0.0096
  928SOL     OW 3709   2.155   2.309   1.838  0.0021 -0.3872  0.4160
  928SOL    HW1 3710   2.185   2.372   1.769  2.2424 -2.5278 -0.9632
  928SOL    HW2 3711   2.168   2.366   1.915  0.8794  2.9691  0.1153
  928SOL     MW 3712   2.161   2.325   1.839  0.4134 -0.2268  0.1944
  929SOL     OW 3713   2.737   2.359   2.453 -0.5221 -0.0518  0.1058
  929SOL    HW1 3714   2.780   2.310   2.381  1.7589 -0.2821  0.6752
  929SOL    HW2 3715   2.809   2.363   2.527  2.2274 -3.2278  2.0690
  929SOL     MW 3716   2.752   2.353   2.453  0.1416 -0.5012  0.4399
  930SOL     OW 3717   2.013   2.840   2.668  0.0980 -0.0144  0.0483
  930SOL    HW1 3718   2.010   2.761   2.726 -1.2680  1.5665 -0.4721
  930SOL    HW2 3719   2.105   2.858   2.634 -1.6129  0.5052 -1.9785
  930SOL     MW 3720   2.025   2.832   2.672 -0.3080  0.2628 -0.2878
  931SOL     OW 3721   0.041   2.788   2.453 -0.1519  0.0946  0.3594
  931SOL    HW1 3722   0.010   2.861   2.513  2.7758  0.5560 -2.7757
  931SOL    HW2 3723   0.137   2.806   2.451 -2.3790 -0.5272  0.1158
  931SOL     MW 3724   0.050   2.800   2.460 -0.0595  0.0735 -0.0864
  932SOL     OW 3725   2.782   2.035   2.459  0.5113  0.3197 -0.4841
  932SOL    HW1 3726   2.864   2.076   2.485  1.5163  1.3631 -1.1929
  932SOL    HW2 3727   2.794   2.000   2.369 -2.0409  0.0083 -1.8327
  932SOL     MW 3728   2.795   2.036   2.451  0.3071  0.4163 -0.7555
  933SOL     OW 3729   2.103   2.795   2.230 -0.3516 -0.1377  0.0258
  933SOL    HW1 3730   2.160   2.847   2.279 -0.2268 -3.4304  1.3449
  933SOL    HW2 3731   2.034   2.846   2.205  2.8284 -0.6616  3.2978
  933SOL     MW 3732   2.102   2.808   2.233  0.0844 -0.6412  0.6315
  934SOL     OW 3733   2.015   2.675   2.454 -0.1877  0.2726  0.1985
  934SOL    HW1 3734   2.007   2.727   2.532  0.5420 -0.2406  1.6297
  934SOL    HW2 3735   2.039   2.735   2.373  1.2182  0.8924  0.2733
  934SOL     MW 3736   2.017   2.690   2.454  0.0940  0.2867  0.3972
  935SOL     OW 3737   2.627   1.478   1.780 -0.0519  0.2814 -0.0726
  935SOL    HW1 3738   2.726   1.466   1.762  1.8080 -1.3898  1.5586
  935SOL    HW2 3739   2.587   1.480   1.693  0.7580  0.7785  0.5540
  935SOL     MW 3740   2.635   1.477   1.766  0.3004  0.1265  0.2253
  936SOL     OW 3741   2.921   2.213   0.035 -0.0269 -0.2184 -0.4101
  936SOL    HW1 3742   2.985   2.280   0.061  3.6079  0.6259  0.6823
  936SOL    HW2 3743   2.836   2.254   0.044 -3.1394 -0.8125 -0.4899
  936SOL     MW 3744   2.918   2.227   0.040  0.0420 -0.1854 -0.2765
  937SOL     OW 3745   1.910   2.123   2.617 -0.6304  0.5194 -0.3061
  937SOL    HW1 3746   1.985   2.110   2.679  0.4187  1.5369 -0.8511
  937SOL    HW2 3747   1.945   2.130   2.527 -1.0222  2.8142  0.7211
  937SOL     MW 3748   1.925   2.122   2.613 -0.5437  0.9564 -0.2425
  938SOL     OW 3749   2.247   1.784   1.838 -0.2909 -0.1357 -0.0869
  938SOL    HW1 3750   2.291   1.836   1.776 -2.9704  3.1301  1.1799
  938SOL    HW2 3751   2.230   1.834   1.921 -2.9202  3.1158 -2.6639
  938SOL     MW 3752   2.251   1.798   1.841 -0.9913  0.7242 -0.2598
  939SOL     OW 3753   2.791   1.959   2.185  0.4209  0.3621  0.3207
  939SOL    HW1 3754   2.832   1.924   2.105  0.5253 -1.2861  1.2343
  939SOL    HW2 3755   2.705   1.919   2.205  0.2705  0.1527 -1.6110
  939SOL     MW 3756   2.785   1.949   2.177  0.4148  0.1170  0.1864
  940SOL     OW 3757   2.175   0.102   2.777  0.6070 -0.3556  0.1632
  940SOL    HW1 3758   2.193   0.023   2.731 -1.7679  1.6476 -3.5186
  940SOL    HW2 3759   2.247   0.127   2.835  0.1687 -1.5913 -1.1928
  940SOL     MW 3760   2.187   0.095   2.778  0.2358 -0.2544 -0.5015
  941SOL     OW 3761   0.106   2.444   2.089  0.6016 -0.0028  0.0012
  941SOL    HW1 3762   0.194   2.403   2.105 -0.0113  0.1433  0.0650
  941SOL    HW2 3763   0.082   2.441   1.992 -3.2668 -1.1124 -0.1985
  941SOL     MW 3764   0.114   2.438   2.078  0.0103 -0.1299 -0.0168
  942SOL     OW 3765   2.836   2.252   2.189 -0.1187  0.4895 -0.7345
  942SOL    HW1 3766   2.812   2.310   2.113 -1.4563  0.5485  0.1234
  942SOL    HW2 3767   2.819   2.157   2.190 -1.1116  0.4078  1.4541
  942SOL     MW 3768   2.830   2.247   2.179 -0.4262  0.4865 -0.3325
  943SOL     OW 3769   0.322   2.122   2.261  0.2072  0.6874 -0.7866
  943SOL    HW1 3770   0.244   2.154   2.301  2.9750 -2.3184  3.5639
  943SOL    HW2 3771   0.387   2.121   2.330  1.1099  0.7492 -1.3809
  943SOL     MW 3772   0.320   2.126   2.276  0.6915  0.2990 -0.2910
  944SOL     OW 3773   2.143   2.646   1.962 -0.0911 -0.3883  0.0671
  944SOL    HW1 3774   2.230   2.619   1.993 -0.3735  1.1682 -2.0709
  944SOL    HW2 3775   2.088   2.658   2.043 -0.8733  1.3101  3.2789
  944SOL     MW 3776   2.147   2.644   1.977 -0.2316  0.0411  0.2087
  945SOL     OW 3777   2.750   2.720   2.866 -0.2176 -0.1536 -0.0169
  945SOL    HW1 3778   2.744   2.620   2.850 -2.4432 -0.6952  0.7348
  945SOL    HW2 3779   2.721   2.747   2.781  0.1828 -2.7786  0.7109
  945SOL     MW 3780   2.745   2.710   2.852 -0.4584 -0.5714  0.1783
  946SOL     OW 3781   2.458   2.689   2.241 -0.4534  0.1828 -0.2133
  946SOL    HW1 3782   2.488   2.728   2.165 -0.8484  2.0642  0.4379
  946SOL    HW2 3783   2.399   2.618   2.209 -4.2633  0.5478 -0.8399
  946SOL     MW 3784   2.454   2.685   2.226 -1.0082  0.4792 -0.2100
  947SOL     OW 3785   2.040   3.087   0.226  0.0262 -0.9140  0.0734
  947SOL    HW1 3786   2.057   3.008   0.165 -1.6190 -1.4535 -3.6279
  947SOL    HW2 3787   2.096   3.084   0.311 -1.2755  0.4918 -0.7648
  947SOL     MW 3788   2.050   3.076   0.229 -0.3626 -0.7997 -0.5255
  948SOL     OW 3789   1.810   3.040   2.623  0.0335 -0.1095  0.8001
  948SOL    HW1 3790   1.874   2.972   2.634  0.9582  1.6571  1.3568
  948SOL    HW2 3791   1.778   3.040   2.531  0.0336 -0.7520 -0.0892
  948SOL     MW 3792   1.814   3.031   2.613  0.1555  0.0388  0.7562
  949SOL     OW 3793   2.520   1.870   2.221 -0.0843  0.1503  0.3160
  949SOL    HW1 3794   2.497   1.787   2.263  1.1149 -0.4789  1.9506
  949SOL    HW2 3795   2.483   1.940   2.273 -2.4323 -1.4021  1.6457
  949SOL     MW 3796   2.512   1.869   2.233 -0.2359 -0.1375  0.7071
  950SOL     OW 3797   2.312   2.439   2.981 -0.0881 -0.0524 -0.3070
  950SOL    HW1 3798   2.371   2.395   2.915 -2.8092 -0.1564 -2.2237
  950SOL    HW2 3799   2.236   2.462   2.926 -0.0267 -1.7769 -2.3379
  950SOL     MW 3800   2.310   2.436   2.965 -0.4390 -0.2936 -0.8279
  951SOL     OW 3801   3.035   2.230   2.874 -0.3856  0.1060 -0.0771
  951SOL    HW1 3802   3.009   2.222   2.965 -1.4888  0.5125 -1.9366
  951SOL    HW2 3803   3.089   2.150   2.861  0.1027 -0.1621  1.0340
  951SOL     MW 3804   3.038   2.218   2.884 -0.4667  0.1243 -0.1758
  952SOL     OW 3805   3.065   1.732   2.116  0.4129 -0.4245 -0.3096
  952SOL    HW1 3806   2.997   1.769   2.054 -0.7986  1.6734  0.8006
  952SOL    HW2 3807   3.117   1.808   2.137  0.1167  0.4752 -1.2695
  952SOL     MW 3808   3.063   1.747   2.110  0.2139 -0.0290 -0.2898
  953SOL     OW 3809   1.938   1.768   2.935 -0.2794  0.4979 -0.6409
  953SOL    HW1 3810   1.865   1.709   2.950 -1.2180 -0.9319 -2.6602
  953SOL    HW2 3811   1.995   1.714   2.873  0.1302  1.3159 -1.6375
  953SOL     MW 3812   1.935   1.753   2.929 -0.3492  0.4172 -1.0388
  954SOL     OW 3813   2.375   2.125   2.908  0.3716 -0.2243 -0.3452
  954SOL    HW1 3814   2.286   2.112   2.872  0.6863  0.4705 -0.4560
  954SOL    HW2 3815   2.425   2.062   2.857  1.1285  0.0057  2.7716
  954SOL     MW 3816   2.370   2.115   2.897  0.5130 -0.1023  0.0514
  955SOL     OW 3817   1.571   1.517   2.554  0.0597  0.4947  0.1197
  955SOL    HW1 3818   1.540   1.531   2.458  1.5077 -3.3475  1.0579
  955SOL    HW2 3819   1.654   1.557   2.541 -1.3105 -2.2879  0.6499
  955SOL     MW 3820   1.578   1.524   2.540  0.0700 -0.3794  0.3134
  956SOL     OW 3821   2.710   2.442   2.811 -0.6293 -0.5494  0.1861
  956SOL    HW1 3822   2.713   2.394   2.889 -0.2961  1.2657 -1.1319
  956SOL    HW2 3823   2.780   2.407   2.749 -1.4204  1.9409 -1.5868
  956SOL     MW 3824   2.720   2.431   2.813 -0.6897  0.0186 -0.2217
  957SOL     OW 3825   2.262   2.835   0.530 -0.0107  0.2492  0.0689
  957SOL    HW1 3826   2.199   2.765   0.514  4.4552 -0.2328  0.0734
  957SOL    HW2 3827   2.264   2.853   0.626  1.6257  0.6783 -3.1187
  957SOL     MW 3828   2.254   2.828   0.540  0.7944  0.2423 -0.3511
  958SOL     OW 3829   2.076   2.542   2.843 -0.2779  0.0202 -0.4211
  958SOL    HW1 3830   2.035   2.487   2.772  2.4864 -1.3890  2.0253
  958SOL    HW2 3831   2.013   2.518   2.913 -0.6688 -1.7478 -0.4589
  958SOL     MW 3832   2.062   2.532   2.843  0.0353 -0.3990 -0.1033
  959SOL     OW 3833   2.509   2.785   0.435  0.4674 -0.3870 -0.3005
  959SOL    HW1 3834   2.497   2.834   0.352 -0.0138 -0.7448 -2.3407
  959SOL    HW2 3835   2.429   2.802   0.486  2.3547 -0.0983 -0.1340
  959SOL     MW 3836   2.497   2.794   0.431  0.6529 -0.3961 -0.5478
  960SOL     OW 3837   1.923   2.394   2.295 -0.1342 -0.6031  0.5642
  960SOL    HW1 3838   1.942   2.300   2.284 -0.2037  0.6628 -1.3895
  960SOL    HW2 3839   1.856   2.389   2.363  1.9909  0.9873  0.8056
  960SOL     MW 3840   1.917   2.381   2.302  0.1370 -0.2263  0.3383
  961SOL     OW 3841   2.230   2.335   2.288  0.0034 -0.3912 -0.2930
  961SOL    HW1 3842   2.140   2.336   2.260  1.0141  1.1887  0.3503
  961SOL    HW2 3843   2.212   2.384   2.373 -1.9452 -1.1733  0.8990
  961SOL     MW 3844   2.216   2.342   2.296 -0.1203 -0.2859 -0.0509
  962SOL     OW 3845   2.126   2.037   2.813  0.0220  0.4871  0.0512
  962SOL    HW1 3846   2.127   1.989   2.896  0.4673 -2.8808 -0.0632
  962SOL    HW2 3847   2.159   1.973   2.739  2.9018 -3.5442 -0.3092
  962SOL     MW 3848   2.131   2.022   2.814  0.4607 -0.4891 -0.0114
  963SOL     OW 3849   1.848   2.565   2.077 -0.2975 -0.2250 -0.3047
  963SOL    HW1 3850   1.851   2.499   2.144 -2.4760  1.0706 -0.0949
  963SOL    HW2 3851   1.874   2.516   1.994  2.9746 -1.8291  1.3014
  963SOL     MW 3852   1.852   2.550   2.075 -0.1532 -0.2657 -0.0651
  964SOL     OW 3853   1.823   1.866   2.705 -0.3764 -0.2209 -0.9323
  964SOL    HW1 3854   1.864   1.942   2.658 -2.8698  0.1069  0.3656
  964SOL    HW2 3855   1.861   1.839   2.787  0.5395 -0.0608  1.2854
  964SOL     MW 3856   1.833   1.872   2.709 -0.5846 -0.1565 -0.4685
  965SOL     OW 3857   2.112   2.580   0.813  0.6680  0.2034  1.0810
  965SOL    HW1 3858   2.153   2.519   0.748 -0.1948  0.9358 -0.7063
  965SOL    HW2 3859   2.189   2.631   0.840  1.8704  2.5755 -0.4218
  965SOL     MW 3860   2.128   2.579   0.808  0.7128  0.6130  0.6469
  966SOL     OW 3861   2.657   2.613   2.439 -0.1238  0.2646  0.2282
  966SOL    HW1 3862   2.578   2.647   2.391  3.2346  1.6169 -0.1353
  966SOL    HW2 3863   2.661   2.517   2.430 -0.1113 -0.9007  1.4347
  966SOL     MW 3864   2.647   2.605   2.431  0.3210  0.2893  0.3394
  967SOL     OW 3865   2.689   0.038   3.065 -0.8232  0.5662  0.2793
  967SOL    HW1 3866   2.665  -0.049   3.093 -1.6673 -2.3026  2.9662
  967SOL    HW2 3867   2.685   0.024   2.969  0.8537  1.7782  0.8578
  967SOL     MW 3868   2.685   0.025   3.056 -0.7133  0.3476  0.7102
  968SOL     OW 3869   3.019   2.682   2.892 -0.5552 -0.3409  0.0818
  968SOL    HW1 3870   2.925   2.686   2.872  0.8189 -1.2132  3.8838
  968SOL    HW2 3871   3.053   2.636   2.818 -0.7938  1.4501  0.5929
  968SOL     MW 3872   3.011   2.676   2.880 -0.4054 -0.2197  0.6509
  969SOL     OW 3873   1.565   2.108   1.712  0.4341 -0.5042  0.5311
  969SOL    HW1 3874   1.653   2.066   1.726 -0.5491 -2.2072  1.1935
  969SOL    HW2 3875   1.520   2.114   1.793  2.1705  0.2586 -1.8625
  969SOL     MW 3876   1.570   2.103   1.725  0.5335 -0.6283  0.3027
  970SOL     OW 3877   1.747   1.805   1.880 -0.5931  0.2406 -0.4462
  970SOL    HW1 3878   1.786   1.736   1.935  0.5368 -0.1999 -2.6264
  970SOL    HW2 3879   1.654   1.819   1.900 -1.1858 -0.8549  0.6279
  970SOL     MW 3880   1.740   1.797   1.890 -0.5222  0.0379 -0.5921
  971SOL     OW 3881   1.746   0.002   2.359  0.1321 -0.4402 -0.3408
  971SOL    HW1 3882   1.815  -0.037   2.297  2.3511  1.8229 -0.0465
  971SOL    HW2 3883   1.763   0.101   2.369  1.0236  1.0677  2.8454
  971SOL     MW 3884   1.757   0.010   2.352  0.5425  0.0573  0.1184
  972SOL     OW 3885   0.313   2.861   2.386 -0.1035 -0.8406  0.1241
  972SOL    HW1 3886   0.358   2.776   2.396 -0.6990  0.9591  0.3870
  972SOL    HW2 3887   0.375   2.927   2.413  0.0261  1.6778  0.2687
  972SOL     MW 3888   0.327   2.859   2.391 -0.1650 -0.2709  0.1779
  973SOL     OW 3889   2.625   3.016   2.116  0.0833 -0.0706 -0.0134
  973SOL    HW1 3890   2.587   2.929   2.088 -0.4524  3.2725  2.1910
  973SOL    HW2 3891   2.655   3.041   2.032 -1.7645  0.1669  0.1573
  973SOL     MW 3892   2.624   3.008   2.101 -0.2312  0.4018  0.3000
  974SOL     OW 3893   1.986   0.154   2.572  0.6245 -0.0029  0.2444
  974SOL    HW1 3894   2.047   0.139   2.645 -1.6869  0.8037 -0.2648
  974SOL    HW2 3895   1.923   0.081   2.574  0.2868  1.0158 -0.3400
  974SOL     MW 3896   1.986   0.142   2.582  0.2750  0.2379  0.1001
  975SOL     OW 3897   2.194   2.487   2.514 -0.1074 -0.3330 -0.3084
  975SOL    HW1 3898   2.275   2.534   2.544 -2.8437 -0.0315  0.2201
  975SOL    HW2 3899   2.132   2.557   2.467  0.4325 -0.4725 -0.1095
  975SOL     MW 3900   2.196   2.502   2.511 -0.3972 -0.3117 -0.2124
  976SOL     OW 3901   0.182   0.365   1.585 -0.1351 -0.1338  0.1714
  976SOL    HW1 3902   0.225   0.297   1.637 -2.1513 -2.7304 -0.2090
  976SOL    HW2 3903   0.100   0.318   1.581  1.9757 -0.9740 -2.0443
  976SOL     MW 3904   0.177   0.350   1.591 -0.1226 -0.5872 -0.1711
  977SOL     OW 3905   1.764   2.750   2.386  0.1079 -0.3309  0.2872
  977SOL    HW1 3906   1.851   2.710   2.401  3.5151  2.5841 -5.7067
  977SOL    HW2 3907   1.780   2.803   2.306  0.1564  1.2461 -0.2839
  977SOL     MW 3908   1.778   2.751   2.378  0.5639  0.2618 -0.5790
   3.10000   3.10000   3.10000
