977 TIP4P/2005f water molecules t=   1.57000 step= 1570
 3908
    1SOL     OW    1   0.400   0.825   0.094  0.5161  0.0709  0.2924
    1SOL    HW1    2   0.358   0.816   0.007  0.1867 -2.1856  2.5774
    1SOL    HW2    3   0.396   0.740   0.141  0.4220 -1.8354 -2.5248
    1SOL     MW    4   0.394   0.813   0.089  0.4602 -0.4783  0.2222
    2SOL     OW    5   0.322   3.026   1.076  0.2047 -0.1168 -0.6141
    2SOL    HW1    6   0.378   3.107   1.084 -1.1085  1.0398 -0.2900
    2SOL    HW2    7   0.233   3.058   1.087  1.3210  1.1775  2.1795
    2SOL     MW    8   0.318   3.041   1.078  0.1787  0.2066 -0.2028
    3SOL     OW    9   2.633   0.334   0.967  0.1009  0.3285 -0.3891
    3SOL    HW1   10   2.677   0.405   0.930  0.3547 -3.4628  4.5792
    3SOL    HW2   11   2.623   0.367   1.056 -2.0212  2.2077 -1.4170
    3SOL     MW   12   2.637   0.348   0.974 -0.1456  0.0762  0.1308
    4SOL     OW   13   2.999   1.716   0.525 -0.3735 -0.0990  0.1715
    4SOL    HW1   14   2.914   1.760   0.516  1.0695 -0.1571 -0.6954
    4SOL    HW2   15   3.040   1.728   0.438  0.5172 -1.7841 -1.9498
    4SOL     MW   16   2.993   1.724   0.513 -0.0656 -0.3290 -0.2227
    5SOL     OW   17   1.649   1.406   0.625 -0.1161 -0.3155 -0.0013
    5SOL    HW1   18   1.673   1.397   0.712  1.2287 -0.2770  0.8266
    5SOL    HW2   19   1.573   1.465   0.634  1.0553 -0.1959  1.7824
    5SOL     MW   20   1.642   1.412   0.637  0.2159 -0.2946  0.3433
    6SOL     OW   21   0.788   1.444   0.602  0.3295 -0.2118  0.1520
    6SOL    HW1   22   0.699   1.423   0.564 -1.5785  2.0099 -0.5497
    6SOL    HW2   23   0.815   1.363   0.641  0.6078  0.8262 -2.0172
    6SOL     MW   24   0.780   1.430   0.602  0.1145  0.2183 -0.2268
    7SOL     OW   25   1.934   1.038   0.028 -0.3495  0.1072 -0.5728
    7SOL    HW1   26   1.963   1.125  -0.006 -2.5194  0.0366  1.8321
    7SOL    HW2   27   1.960   1.047   0.122 -1.4406  1.5121  0.4442
    7SOL     MW   28   1.942   1.050   0.036 -0.7798  0.2832 -0.1213
    8SOL     OW   29   0.786   1.480   1.138  0.1382 -0.0141 -0.5822
    8SOL    HW1   30   0.880   1.479   1.128 -0.4916 -1.5649 -1.6053
    8SOL    HW2   31   0.754   1.399   1.182  2.5999 -0.9870  1.4164
    8SOL     MW   32   0.794   1.469   1.143  0.3799 -0.3471 -0.4535
    9SOL     OW   33   0.990   0.479   1.332 -0.4431  0.0418  0.7167
    9SOL    HW1   34   0.923   0.412   1.314 -2.4399 -2.2646  2.6703
    9SOL    HW2   35   1.027   0.438   1.412 -0.8149 -0.0855 -2.0538
    9SOL     MW   36   0.986   0.465   1.340 -0.7556 -0.2793  0.6089
   10SOL     OW   37   0.283   0.863   0.488  0.0078  0.0159 -0.3986
   10SOL    HW1   38   0.382   0.881   0.481  0.4925  0.1310  2.2090
   10SOL    HW2   39   0.245   0.908   0.562  0.4318  0.0916 -1.0927
   10SOL     MW   40   0.291   0.871   0.497  0.1277  0.0411 -0.1461
   11SOL     OW   41   0.778   1.131   1.529 -0.1852 -0.1527 -0.9392
   11SOL    HW1   42   0.860   1.131   1.582 -3.2247  3.2892  0.3583
   11SOL    HW2   43   0.780   1.042   1.489 -1.0739  2.9977 -2.4853
   11SOL     MW   44   0.789   1.120   1.530 -0.7035  0.7171 -0.9720
   12SOL     OW   45   3.063   1.101   0.872  0.0573  0.0003  0.2111
   12SOL    HW1   46   3.110   1.165   0.923  0.4746  0.3917 -1.3357
   12SOL    HW2   47   3.011   1.168   0.816 -1.2426 -0.9195  0.3788
   12SOL     MW   48   3.062   1.118   0.871 -0.0592 -0.0694  0.0291
   13SOL     OW   49   1.829   1.431   1.273 -0.6033 -0.2874 -0.1721
   13SOL    HW1   50   1.858   1.374   1.207 -0.5563  0.2372  2.2604
   13SOL    HW2   51   1.845   1.522   1.241 -0.9867  2.1618 -0.6683
   13SOL     MW   52   1.835   1.436   1.260 -0.6477  0.1049  0.0834
   14SOL     OW   53   0.517   0.357   1.817 -0.2545 -0.5335 -0.5492
   14SOL    HW1   54   0.456   0.285   1.795  0.9295  2.1407 -2.3093
   14SOL    HW2   55   0.550   0.400   1.735 -4.6714  1.4181  0.0226
   14SOL     MW   56   0.513   0.353   1.803 -0.6810  0.0768 -0.7060
   15SOL     OW   57   1.994   0.399   1.043 -0.1208  0.3659 -0.8262
   15SOL    HW1   58   1.945   0.481   1.062  2.4164  1.6206  2.1611
   15SOL    HW2   59   2.036   0.427   0.961 -1.5059  0.7310 -3.5989
   15SOL     MW   60   1.993   0.414   1.035  0.0312  0.5796 -0.7979
   16SOL     OW   61   0.282   1.830   0.275 -0.0158 -0.4945  0.5950
   16SOL    HW1   62   0.371   1.803   0.292  0.2679 -1.3819  2.9448
   16SOL    HW2   63   0.269   1.909   0.330  1.0371  0.0280 -1.6800
   16SOL     MW   64   0.292   1.837   0.284  0.1606 -0.5427  0.6049
   17SOL     OW   65   1.110   0.906   1.424 -0.1075 -0.1010  0.4555
   17SOL    HW1   66   1.111   0.891   1.516 -0.8831 -0.6865  1.9579
   17SOL    HW2   67   1.016   0.902   1.405  0.7495  1.9938 -0.8034
   17SOL     MW   68   1.098   0.903   1.434 -0.0968  0.0981  0.4876
   18SOL     OW   69   0.125   1.627   0.337 -0.1555  0.7591  0.6366
   18SOL    HW1   70   0.177   1.711   0.312  3.3226  0.7891 -1.2504
   18SOL    HW2   71   0.091   1.594   0.256  0.8702  0.1692 -2.9114
   18SOL     MW   72   0.127   1.634   0.323  0.4388  0.6852 -0.0805
   19SOL     OW   73   0.094   1.335   0.950 -0.4559 -0.4181 -0.0499
   19SOL    HW1   74   0.136   1.364   0.864  1.9612 -1.9517  2.9972
   19SOL    HW2   75   0.005   1.365   0.956 -1.7362 -0.0975  2.1363
   19SOL     MW   76   0.088   1.343   0.939 -0.3059 -0.5781  0.6406
   20SOL     OW   77   0.443   2.114   1.271 -0.3083 -0.2706  0.8151
   20SOL    HW1   78   0.390   2.048   1.216 -0.7000 -0.7038 -1.7582
   20SOL    HW2   79   0.411   2.127   1.361  0.8234 -0.6376 -0.1708
   20SOL     MW   80   0.432   2.107   1.275 -0.2106 -0.3762  0.3455
   21SOL     OW   81   0.557   0.858   0.429  0.3445 -0.3344 -0.2619
   21SOL    HW1   82   0.623   0.827   0.497 -0.2013 -0.0287  4.2423
   21SOL    HW2   83   0.600   0.893   0.343  1.8380  2.4889  0.0775
   21SOL     MW   84   0.571   0.859   0.427  0.4695  0.0784  0.3771
   22SOL     OW   85   1.542   0.705   1.005 -0.2850  0.4478  0.3150
   22SOL    HW1   86   1.521   0.686   0.917  2.2420 -0.0048  0.6063
   22SOL    HW2   87   1.468   0.753   1.034 -0.0779 -1.8886 -1.2655
   22SOL     MW   88   1.529   0.709   0.997  0.0758  0.0799  0.1449
   23SOL     OW   89   3.086   0.774   0.695  0.0591  0.5011  0.3969
   23SOL    HW1   90   3.126   0.711   0.759 -1.7549 -0.1648  1.4402
   23SOL    HW2   91   3.144   0.849   0.686 -1.9953  0.5376 -1.0670
   23SOL     MW   92   3.099   0.775   0.702 -0.4513  0.4181  0.3414
   24SOL     OW   93   2.090   2.188   0.020 -0.0517  0.8763  0.4171
   24SOL    HW1   94   2.083   2.192   0.116  2.5697 -3.0738 -1.4446
   24SOL    HW2   95   2.091   2.094  -0.004 -2.3578 -0.9636  1.1087
   24SOL     MW   96   2.089   2.176   0.030 -0.0101  0.1123  0.2627
   25SOL     OW   97   0.186   1.391   0.434 -0.2682  0.6847 -0.2234
   25SOL    HW1   98   0.164   1.474   0.390 -0.5954 -0.5184  0.2853
   25SOL    HW2   99   0.274   1.366   0.417 -2.5758  1.4250 -1.8079
   25SOL     MW  100   0.195   1.399   0.426 -0.6158  0.6237 -0.3654
   26SOL     OW  101   1.994   1.017   0.307 -0.1592  0.5925  0.4362
   26SOL    HW1  102   1.929   1.048   0.373 -2.4413  1.4928 -2.6374
   26SOL    HW2  103   2.068   1.082   0.297 -1.2450 -1.8346 -3.0787
   26SOL     MW  104   1.995   1.030   0.314 -0.6036  0.3910 -0.4331
   27SOL     OW  105   1.892   1.347   0.173 -0.0487  0.4494 -0.9464
   27SOL    HW1  106   1.826   1.400   0.215 -1.2706  0.6361  0.2454
   27SOL    HW2  107   1.947   1.332   0.250 -0.1600 -0.1155  0.1528
   27SOL     MW  108   1.891   1.352   0.188 -0.2246  0.3995 -0.6441
   28SOL     OW  109   0.422   0.923   2.001  0.0566 -0.0743  0.2146
   28SOL    HW1  110   0.466   0.910   2.084  2.1892 -1.7183 -0.9110
   28SOL    HW2  111   0.337   0.899   2.022  2.7420  1.2282  0.5546
   28SOL     MW  112   0.417   0.918   2.014  0.6923 -0.1194  0.1109
   29SOL     OW  113   0.228   1.387   0.716 -0.1324  0.4613  0.3577
   29SOL    HW1  114   0.222   1.481   0.742 -2.3998 -2.0481 -0.2135
   29SOL    HW2  115   0.232   1.381   0.622  0.4187  1.6676  0.2653
   29SOL     MW  116   0.228   1.398   0.707 -0.3589  0.2894  0.2701
   30SOL     OW  117   0.780   1.230   1.250 -0.3300 -0.4977 -0.2584
   30SOL    HW1  118   0.708   1.196   1.301  0.1254 -2.1213 -0.6714
   30SOL    HW2  119   0.857   1.199   1.293 -2.8019 -1.3825  2.4986
   30SOL     MW  120   0.781   1.221   1.263 -0.5960 -0.8287  0.0509
   31SOL     OW  121   0.490   0.294   0.186  0.1666  0.4693  0.1059
   31SOL    HW1  122   0.497   0.216   0.239 -0.1541  1.5439  0.6945
   31SOL    HW2  123   0.510   0.271   0.093  0.3775 -0.9247  1.0835
   31SOL     MW  124   0.494   0.280   0.180  0.1521  0.4271  0.3125
   32SOL     OW  125   2.731   0.992   1.100  0.4164 -0.3773 -0.3467
   32SOL    HW1  126   2.660   0.937   1.082 -0.2040 -2.2284 -0.7590
   32SOL    HW2  127   2.815   0.942   1.082 -0.7557  0.9079  1.9112
   32SOL     MW  128   2.733   0.978   1.095  0.1799 -0.4520 -0.1032
   33SOL     OW  129   1.668   1.272   0.407  0.2009 -0.5972  0.0098
   33SOL    HW1  130   1.744   1.222   0.431 -1.1304 -0.5341 -1.4730
   33SOL    HW2  131   1.638   1.320   0.488 -0.3874 -0.9022  0.8625
   33SOL     MW  132   1.674   1.272   0.421 -0.0524 -0.6291 -0.0733
   34SOL     OW  133   1.191   1.926   1.162 -0.8611  0.3124 -0.3702
   34SOL    HW1  134   1.111   1.967   1.206 -1.9410  0.1670  0.1137
   34SOL    HW2  135   1.266   1.967   1.214  0.2165  1.2377  3.1042
   34SOL     MW  136   1.190   1.937   1.175 -0.8614  0.4153  0.1521
   35SOL     OW  137   0.354   0.149   1.818 -0.0654 -0.0435 -0.2375
   35SOL    HW1  138   0.404   0.103   1.886 -0.1286  2.6274  1.2853
   35SOL    HW2  139   0.362   0.096   1.741  0.1370  2.7745 -1.9399
   35SOL     MW  140   0.362   0.136   1.817 -0.0470  0.6807 -0.2612
   36SOL     OW  141   1.927   1.962   0.571 -0.0398  0.2596 -0.1021
   36SOL    HW1  142   1.871   1.924   0.508  0.2420  1.2055  1.8241
   36SOL    HW2  143   1.988   1.895   0.609 -0.9516  0.6881  3.3386
   36SOL     MW  144   1.928   1.948   0.568 -0.1229  0.4410  0.6060
   37SOL     OW  145   1.820   2.054   1.018 -0.1379  0.0219 -0.6396
   37SOL    HW1  146   1.768   2.002   0.960 -1.4014 -1.4190  2.5678
   37SOL    HW2  147   1.756   2.094   1.076 -3.4231  0.6024 -1.2572
   37SOL     MW  148   1.805   2.053   1.018 -0.7381 -0.0917 -0.2979
   38SOL     OW  149   2.860   0.957   0.160  0.1227  0.0608 -0.5031
   38SOL    HW1  150   2.892   0.943   0.251 -1.2487  0.1932  0.5927
   38SOL    HW2  151   2.938   0.943   0.107 -2.2377  0.2213  1.1476
   38SOL     MW  152   2.875   0.953   0.165 -0.3697  0.0995 -0.1407
   39SOL     OW  153   1.485   0.613   0.749  0.1795  0.8318 -0.3903
   39SOL    HW1  154   1.436   0.539   0.787  2.1639  0.7307 -0.0735
   39SOL    HW2  155   1.428   0.680   0.729  3.6704  1.0130 -0.1574
   39SOL     MW  156   1.471   0.612   0.751  0.9019  0.8424 -0.3178
   40SOL     OW  157   1.254   1.865   0.252 -0.3373 -0.0797 -0.6530
   40SOL    HW1  158   1.320   1.807   0.293  0.1047 -2.0318 -0.4356
   40SOL    HW2  159   1.223   1.925   0.320  2.3829 -0.4754  1.6767
   40SOL     MW  160   1.258   1.865   0.266  0.0800 -0.3895 -0.3169
   41SOL     OW  161   0.535   0.566   1.599 -0.4657  0.6820 -0.5779
   41SOL    HW1  162   0.600   0.628   1.567 -2.0398 -2.1293 -1.1823
   41SOL    HW2  163   0.453   0.588   1.564  2.9383  2.4079  0.2736
   41SOL     MW  164   0.533   0.577   1.590 -0.2242  0.5388 -0.5453
   42SOL     OW  165   1.239   2.970   1.945  0.1596  0.1376  0.1441
   42SOL    HW1  166   1.192   3.026   2.008 -2.3348  0.7322  0.8489
   42SOL    HW2  167   1.286   2.899   1.991 -0.7252  0.0152 -0.7431
   42SOL     MW  168   1.239   2.968   1.960 -0.2862  0.1999  0.1200
   43SOL     OW  169   1.469   0.134   1.692 -0.2793 -0.2259  0.7052
   43SOL    HW1  170   1.526   0.076   1.643 -0.2757 -0.0950 -2.9130
   43SOL    HW2  171   1.389   0.088   1.676  2.0099 -1.2369 -1.8814
   43SOL     MW  172   1.466   0.121   1.684  0.0232 -0.3420 -0.1135
   44SOL     OW  173   1.250   0.792   1.066 -0.0134  0.3656  0.0457
   44SOL    HW1  174   1.255   0.890   1.067 -0.8871  0.4243  0.6787
   44SOL    HW2  175   1.235   0.749   1.154  1.9390 -0.8158  0.3176
   44SOL     MW  176   1.249   0.799   1.078  0.1289  0.2175  0.1651
   45SOL     OW  177   1.280   0.814   0.759  0.1181  0.5705 -0.3045
   45SOL    HW1  178   1.237   0.810   0.844 -0.9851 -0.2465  0.1697
   45SOL    HW2  179   1.228   0.781   0.684 -0.1797  0.6148  1.0654
   45SOL     MW  180   1.267   0.809   0.761 -0.0668  0.4686 -0.0612
   46SOL     OW  181   0.485   1.081   0.652 -0.7483  0.4511  0.2981
   46SOL    HW1  182   0.499   1.103   0.561  3.3307  0.6103  2.4489
   46SOL    HW2  183   0.470   1.169   0.687  4.1822 -0.9016  0.7562
   46SOL     MW  184   0.485   1.096   0.644  0.4404  0.2936  0.6423
   47SOL     OW  185   0.136   2.041   1.881 -0.1785  0.6431 -0.3566
   47SOL    HW1  186   0.119   1.956   1.844 -2.4777  0.9544  0.3343
   47SOL    HW2  187   0.117   2.032   1.981 -2.6715  0.2991  1.4895
   47SOL     MW  188   0.131   2.029   1.890 -0.8108  0.6388 -0.0219
   48SOL     OW  189   1.181   0.508   1.030  0.4289  0.0827  0.0067
   48SOL    HW1  190   1.103   0.505   0.967  1.0613  0.0139 -2.3025
   48SOL    HW2  191   1.215   0.598   1.018 -0.4886 -0.7391 -1.0031
   48SOL     MW  192   1.175   0.520   1.020  0.3913 -0.0348 -0.4312
   49SOL     OW  193   1.667   0.660   1.548 -0.5126  0.2973  0.0972
   49SOL    HW1  194   1.719   0.614   1.618 -1.0628  2.3365  0.5749
   49SOL    HW2  195   1.714   0.642   1.466 -0.2862  0.0416 -0.6859
   49SOL     MW  196   1.680   0.651   1.547 -0.5553  0.5326  0.0569
   50SOL     OW  197   1.265   1.232   0.601 -0.1300  0.4324  0.0703
   50SOL    HW1  198   1.210   1.227   0.671  1.7056 -0.9509 -1.6925
   50SOL    HW2  199   1.336   1.173   0.623  1.7258 -2.1530 -1.5146
   50SOL     MW  200   1.267   1.223   0.613  0.3570 -0.0912 -0.3714
   51SOL     OW  201   0.309   2.886   0.838 -0.3576  0.2118 -0.2938
   51SOL    HW1  202   0.384   2.830   0.852  0.0545  2.4945 -1.1131
   51SOL    HW2  203   0.300   2.947   0.908  2.2811 -0.4759  2.1528
   51SOL     MW  204   0.318   2.886   0.849  0.0449  0.4222 -0.0790
   52SOL     OW  205   0.817   1.795   0.470 -0.0109  0.0078  0.1571
   52SOL    HW1  206   0.777   1.884   0.487 -0.3435 -0.4928  0.6262
   52SOL    HW2  207   0.820   1.781   0.372  2.6057 -0.2608 -0.1192
   52SOL     MW  208   0.812   1.805   0.459  0.2904 -0.0937  0.1825
   53SOL     OW  209   0.449   2.144   0.502  0.1771 -0.3315 -0.4881
   53SOL    HW1  210   0.367   2.140   0.449 -1.7925 -0.6983 -0.2371
   53SOL    HW2  211   0.444   2.238   0.531  0.8544 -1.5109  2.3085
   53SOL     MW  212   0.438   2.156   0.499  0.0066 -0.5355 -0.0860
   54SOL     OW  213   2.030   0.973   0.722 -0.0312 -0.0142  0.1053
   54SOL    HW1  214   2.102   0.977   0.658 -1.1287 -3.1572  1.7965
   54SOL    HW2  215   2.035   0.879   0.742 -1.3303 -0.0039  1.9434
   54SOL     MW  216   2.040   0.961   0.716 -0.3474 -0.4275  0.5709
   55SOL     OW  217   0.449   1.507   1.678 -0.3888  0.2143 -0.0648
   55SOL    HW1  218   0.410   1.559   1.610  1.5817 -1.0697 -0.0936
   55SOL    HW2  219   0.527   1.462   1.645 -1.3807 -3.4872  0.4451
   55SOL     MW  220   0.454   1.508   1.665 -0.2597 -0.4435 -0.0013
   56SOL     OW  221   0.645   0.896   0.165  0.1937  0.0328 -0.2837
   56SOL    HW1  222   0.650   0.980   0.123 -1.3085 -1.3026 -4.4142
   56SOL    HW2  223   0.553   0.868   0.158 -0.4091 -2.1030  2.7640
   56SOL     MW  224   0.634   0.904   0.158 -0.0841 -0.4252 -0.4266
   57SOL     OW  225   1.091   1.266   1.118 -0.3995  0.5146 -0.2282
   57SOL    HW1  226   1.180   1.309   1.138  1.4487 -1.4221  1.2729
   57SOL    HW2  227   1.077   1.230   1.208  2.1358 -1.1410  0.4040
   57SOL     MW  228   1.101   1.267   1.133  0.1789  0.0407  0.0533
   58SOL     OW  229   0.449   1.250   1.290 -0.5958  0.2112  0.7372
   58SOL    HW1  230   0.436   1.341   1.279 -0.4358 -2.1405  0.9156
   58SOL    HW2  231   0.464   1.249   1.384 -3.7357  1.6098 -0.3728
   58SOL     MW  232   0.449   1.262   1.301 -0.9890  0.0854  0.6143
   59SOL     OW  233   1.438   1.700   0.397 -0.0682  0.2629  0.6812
   59SOL    HW1  234   1.506   1.735   0.462  0.2434 -2.6530  3.3112
   59SOL    HW2  235   1.356   1.670   0.442 -1.6884 -1.5747  0.8391
   59SOL     MW  236   1.436   1.701   0.411 -0.2409 -0.3643  1.0491
   60SOL     OW  237   3.076   0.196   1.655 -0.0010 -0.4574 -0.7563
   60SOL    HW1  238   2.981   0.221   1.680 -0.4263 -0.1448  2.1598
   60SOL    HW2  239   3.111   0.143   1.719  0.6229  1.4910  0.6912
   60SOL     MW  240   3.068   0.192   1.667  0.0252 -0.1591 -0.1806
   61SOL     OW  241   1.954   1.385   2.994 -0.6198 -0.2405  0.1631
   61SOL    HW1  242   1.957   1.385   3.093  0.5543 -1.1183  1.2775
   61SOL    HW2  243   2.026   1.325   2.981 -3.8264 -0.0034  0.0029
   61SOL     MW  244   1.964   1.377   3.006 -0.8879 -0.3250  0.2890
   62SOL     OW  245   0.595   1.715   0.593  0.3005 -0.2823  0.1959
   62SOL    HW1  246   0.683   1.742   0.558  0.1368 -0.2649 -2.4928
   62SOL    HW2  247   0.583   1.618   0.574 -1.0738 -0.9452  1.4090
   62SOL     MW  248   0.605   1.706   0.586  0.0976 -0.3675  0.0012
   63SOL     OW  249   1.734   0.693   0.649 -0.3921  0.4397 -0.1191
   63SOL    HW1  250   1.715   0.771   0.596 -0.3604 -0.8649  0.8248
   63SOL    HW2  251   1.648   0.667   0.690  1.9353 -1.2544  1.8007
   63SOL     MW  252   1.720   0.700   0.647 -0.0808  0.0440  0.2587
   64SOL     OW  253   0.233   1.649   0.754  0.4926  0.0679 -0.5066
   64SOL    HW1  254   0.318   1.690   0.731  1.5533 -1.3626  2.6974
   64SOL    HW2  255   0.165   1.711   0.730 -2.6982 -1.5893 -0.0138
   64SOL     MW  256   0.235   1.663   0.748  0.2116 -0.3395 -0.0188
   65SOL     OW  257   1.488   2.317   0.358 -0.2762 -0.0694  0.1727
   65SOL    HW1  258   1.580   2.334   0.355 -0.2523 -0.2067 -2.6604
   65SOL    HW2  259   1.448   2.347   0.442 -1.4088  0.6452  2.6777
   65SOL     MW  260   1.495   2.323   0.368 -0.4225  0.0068  0.1294
   66SOL     OW  261   0.354   0.613   0.491  0.1413 -0.0540 -0.0034
   66SOL    HW1  262   0.409   0.599   0.416  1.2082  0.5057 -0.2564
   66SOL    HW2  263   0.330   0.710   0.476 -0.5235 -1.1765  0.3851
   66SOL     MW  264   0.358   0.624   0.479  0.1944 -0.1282  0.0145
   67SOL     OW  265   1.483   0.050   1.998 -0.1096 -0.5182  0.4675
   67SOL    HW1  266   1.507   0.102   1.917  0.0671  2.5947 -0.3164
   67SOL    HW2  267   1.428  -0.016   1.964  1.0961 -0.1689  0.8303
   67SOL     MW  268   1.479   0.048   1.983  0.0728 -0.0614  0.4120
   68SOL     OW  269   0.787   3.081   2.987 -0.5799  0.3213 -0.3747
   68SOL    HW1  270   0.786   3.133   2.908 -1.7417 -1.0580 -0.2808
   68SOL    HW2  271   0.858   3.128   3.041  0.8630  1.9076 -0.6042
   68SOL     MW  272   0.796   3.094   2.984 -0.5428  0.3486 -0.3926
   69SOL     OW  273   1.006   0.229   1.945  0.7858  0.2904 -0.1594
   69SOL    HW1  274   1.101   0.226   1.958  0.7099 -0.0052  1.7323
   69SOL    HW2  275   0.972   0.153   1.984  0.5669 -1.4806 -1.1067
   69SOL     MW  276   1.014   0.219   1.952  0.7469  0.0177 -0.0348
   70SOL     OW  277   0.493   1.755   1.074  0.1077 -0.3250 -0.1249
   70SOL    HW1  278   0.576   1.807   1.060  1.3886  2.6457  3.0698
   70SOL    HW2  279   0.486   1.699   0.997 -1.3042  0.6751 -0.4187
   70SOL     MW  280   0.503   1.754   1.062  0.0904  0.1989  0.2578
   71SOL     OW  281   1.505   0.541   1.226  0.8703 -0.0207  0.7791
   71SOL    HW1  282   1.465   0.616   1.277 -0.6079 -0.7708  1.8821
   71SOL    HW2  283   1.538   0.590   1.150  0.0656  0.7224  2.3593
   71SOL     MW  284   1.504   0.558   1.223  0.5691 -0.0216  1.1331
   72SOL     OW  285   0.755   1.851   1.008 -0.1123 -0.5626 -0.2158
   72SOL    HW1  286   0.761   1.910   0.930  2.0701  0.6782 -0.0756
   72SOL    HW2  287   0.782   1.761   0.987  2.6108 -1.7438 -1.6233
   72SOL     MW  288   0.759   1.847   0.995  0.5349 -0.5547 -0.3830
   73SOL     OW  289   1.201   0.669   1.303 -0.4498  0.1693 -0.8427
   73SOL    HW1  290   1.146   0.582   1.295 -1.3099 -4.1986 -0.3863
   73SOL    HW2  291   1.151   0.740   1.347 -1.2007 -0.5478  0.4031
   73SOL     MW  292   1.187   0.667   1.307 -0.6624 -0.5016 -0.6181
   74SOL     OW  293   2.848   0.133   1.014 -0.7021 -0.7037 -0.4793
   74SOL    HW1  294   2.925   0.141   0.959  1.6958  2.6806 -0.6130
   74SOL    HW2  295   2.777   0.182   0.975 -3.3547 -3.8497 -0.4507
   74SOL     MW  296   2.849   0.141   1.001 -0.7357 -0.6723 -0.4931
   75SOL     OW  297   1.570   1.346   0.153 -0.4032  0.1219 -0.2168
   75SOL    HW1  298   1.630   1.298   0.095  0.6405 -1.6624  0.5162
   75SOL    HW2  299   1.602   1.326   0.248  0.2322 -0.4464  1.1300
   75SOL     MW  300   1.582   1.337   0.158 -0.1817 -0.1885  0.0576
   76SOL     OW  301   2.988   0.648   0.498 -0.0764 -0.0842  0.2156
   76SOL    HW1  302   3.030   0.700   0.573  0.7130  4.0769 -1.7935
   76SOL    HW2  303   3.071   0.620   0.451 -1.5235  0.0455 -1.1710
   76SOL     MW  304   3.005   0.651   0.501 -0.1632  0.4819 -0.2324
   77SOL     OW  305   0.874   0.607   0.423 -0.2572  0.3117 -0.0818
   77SOL    HW1  306   0.861   0.642   0.336  0.3951  1.2031  0.4721
   77SOL    HW2  307   0.854   0.514   0.424  1.5552 -0.1132  1.8127
   77SOL     MW  308   0.869   0.600   0.412  0.0680  0.3732  0.2413
   78SOL     OW  309   0.746   0.843   1.097  0.4600  0.4099 -0.1786
   78SOL    HW1  310   0.780   0.927   1.058 -0.8400 -2.6992 -2.0589
   78SOL    HW2  311   0.656   0.842   1.134 -0.0840 -1.5564  2.3640
   78SOL     MW  312   0.739   0.854   1.096  0.2167 -0.2597 -0.0912
   79SOL     OW  313   1.862   1.562   0.572  0.3741 -0.4710  0.0739
   79SOL    HW1  314   1.781   1.520   0.593 -2.7682 -0.3807  0.8883
   79SOL    HW2  315   1.901   1.585   0.659  1.2814 -1.3651 -1.5829
   79SOL     MW  316   1.857   1.560   0.587  0.0792 -0.5771 -0.0372
   80SOL     OW  317   0.079   0.976   0.340 -0.0363  0.3919 -0.3777
   80SOL    HW1  318  -0.008   0.935   0.377  0.4614 -3.2679  1.0830
   80SOL    HW2  319   0.141   0.927   0.391  0.4696  0.6315 -2.0880
   80SOL     MW  320   0.075   0.964   0.351  0.0961 -0.0594 -0.4106
   81SOL     OW  321   1.813   1.859   0.339 -0.4233  0.2751 -0.0423
   81SOL    HW1  322   1.790   1.774   0.305  3.1103  2.6274 -0.1687
   81SOL    HW2  323   1.772   1.920   0.271  0.7606  0.2468  0.7517
   81SOL     MW  324   1.805   1.856   0.326  0.1991  0.5817  0.0458
   82SOL     OW  325   0.897   1.035   0.518  0.3235  0.3072 -0.1619
   82SOL    HW1  326   0.864   1.063   0.435  1.0774  1.3997  0.4607
   82SOL    HW2  327   0.825   0.979   0.547 -0.2661  2.9585  0.8450
   82SOL     MW  328   0.883   1.031   0.511  0.3451  0.8012  0.0531
   83SOL     OW  329   0.041   0.773   1.542 -0.3803  0.5220  0.1422
   83SOL    HW1  330   0.029   0.841   1.472 -2.0621 -1.5590 -1.0122
   83SOL    HW2  331   0.117   0.720   1.533 -1.9878  2.1930  1.8157
   83SOL     MW  332   0.049   0.775   1.532 -0.8143  0.4679  0.2107
   84SOL     OW  333   0.049   0.205   0.912 -0.0230 -0.2650 -0.1186
   84SOL    HW1  334   0.010   0.291   0.934 -0.7112 -0.0851 -0.9509
   84SOL    HW2  335   0.054   0.144   0.987 -0.3986 -0.2404  2.2508
   84SOL     MW  336   0.045   0.209   0.925 -0.1634 -0.2380  0.0842
   85SOL     OW  337   0.396   0.460   0.720 -0.0608 -0.1107  0.4764
   85SOL    HW1  338   0.364   0.493   0.635 -0.8477 -0.9302  0.3440
   85SOL    HW2  339   0.369   0.369   0.727  2.0357  0.8609 -1.9242
   85SOL     MW  340   0.388   0.452   0.710  0.1120 -0.0906  0.1422
   86SOL     OW  341   1.221   0.267   1.157  0.7200  0.3845  0.4546
   86SOL    HW1  342   1.212   0.364   1.152 -2.9946  0.9204  1.5759
   86SOL    HW2  343   1.303   0.250   1.200 -1.4766  2.4256  1.6938
   86SOL     MW  344   1.230   0.278   1.162 -0.0599  0.7245  0.7660
   87SOL     OW  345   1.047   1.520   1.219 -0.1723  0.3757 -0.0325
   87SOL    HW1  346   1.103   1.587   1.182 -0.7212 -2.2884 -0.5568
   87SOL    HW2  347   1.062   1.439   1.164  1.8392 -0.3840 -2.4017
   87SOL     MW  348   1.056   1.518   1.207  0.0207 -0.0761 -0.4143
   88SOL     OW  349   1.261   1.065   1.027 -0.0408 -0.0805 -0.2893
   88SOL    HW1  350   1.346   1.105   1.049  2.5791  0.4233  0.9952
   88SOL    HW2  351   1.191   1.121   1.060 -1.3510 -0.3512  0.6474
   88SOL     MW  352   1.263   1.078   1.035  0.1320 -0.0497  0.0038
   89SOL     OW  353   1.737   0.721   0.280  0.0793 -0.4212 -0.4642
   89SOL    HW1  354   1.725   0.625   0.278  1.3275 -1.4402 -0.3990
   89SOL    HW2  355   1.826   0.741   0.311 -0.5618 -0.0673  0.8607
   89SOL     MW  356   1.747   0.711   0.283  0.1594 -0.5089 -0.2808
   90SOL     OW  357   0.842   1.211   2.898 -0.4014  0.1435 -0.3997
   90SOL    HW1  358   0.871   1.127   2.939  2.4026  1.6029  2.7216
   90SOL    HW2  359   0.837   1.282   2.962  2.0696 -0.5175 -0.5355
   90SOL     MW  360   0.845   1.209   2.912  0.2946  0.2488 -0.0058
   91SOL     OW  361   2.184   0.626   0.446 -0.2728 -0.3069  0.3612
   91SOL    HW1  362   2.257   0.658   0.390  1.2009  1.6897 -3.5627
   91SOL    HW2  363   2.168   0.534   0.427  0.3202  1.3779  1.7552
   91SOL     MW  364   2.192   0.618   0.436 -0.0001  0.1788  0.0274
   92SOL     OW  365   1.642   0.959   0.565  0.0569  0.1799 -0.2779
   92SOL    HW1  366   1.601   0.988   0.644  0.0132 -1.2571 -0.1852
   92SOL    HW2  367   1.582   0.999   0.503  1.8844 -1.0119 -0.8796
   92SOL     MW  368   1.629   0.968   0.567  0.2922 -0.1669 -0.3451
   93SOL     OW  369   1.083   0.240   0.355 -0.4533  0.4449 -0.0068
   93SOL    HW1  370   0.991   0.270   0.367 -0.4130 -1.6509 -2.4242
   93SOL    HW2  371   1.104   0.294   0.272 -0.1822  3.2583 -1.0476
   93SOL     MW  372   1.074   0.251   0.345 -0.4122  0.5396 -0.4631
   94SOL     OW  373   1.829   1.368   1.572  0.5907  0.4381  0.8076
   94SOL    HW1  374   1.828   1.375   1.474  0.6088  3.2354 -1.5353
   94SOL    HW2  375   1.835   1.272   1.589 -0.4490 -0.9546  0.3274
   94SOL     MW  376   1.830   1.356   1.561  0.4559  0.6234  0.4351
   95SOL     OW  377   0.609   1.549   0.923 -0.4875  0.0896  0.1182
   95SOL    HW1  378   0.639   1.529   1.017 -1.5766 -1.2053 -2.2832
   95SOL    HW2  379   0.609   1.464   0.877 -2.1329  2.9683 -0.4777
   95SOL     MW  380   0.613   1.535   0.930 -0.8483  0.2986 -0.2773
   96SOL     OW  381   1.329   1.849   1.655 -0.7383 -0.1926 -0.3844
   96SOL    HW1  382   1.246   1.854   1.701  2.1290  1.4630  0.6148
   96SOL    HW2  383   1.346   1.754   1.652  0.7377 -0.7199 -2.1186
   96SOL     MW  384   1.320   1.837   1.660 -0.1653 -0.0437 -0.4814
   97SOL     OW  385   1.075   1.483   0.929  0.2873  0.7142 -0.5621
   97SOL    HW1  386   1.105   1.564   0.972 -0.3075  0.7929  1.2566
   97SOL    HW2  387   1.016   1.519   0.858 -3.1531 -0.1532 -0.1379
   97SOL     MW  388   1.071   1.498   0.926 -0.2451  0.6101 -0.2661
   98SOL     OW  389   1.357   1.377   1.178 -0.4773  0.3473  0.3403
   98SOL    HW1  390   1.416   1.406   1.243  0.5242  0.5876 -0.1181
   98SOL    HW2  391   1.375   1.435   1.101  2.6104  1.5308  0.1610
   98SOL     MW  392   1.367   1.388   1.176  0.0623  0.5352  0.2562
   99SOL     OW  393   1.468   0.271   1.280  0.5973  0.4389  0.1977
   99SOL    HW1  394   1.481   0.361   1.239 -1.0619 -1.2754  2.9690
   99SOL    HW2  395   1.486   0.280   1.376  1.8857 -2.7151 -1.6044
   99SOL     MW  396   1.472   0.284   1.287  0.5484 -0.2035  0.3256
  100SOL     OW  397   1.062   1.160   1.360  0.2847 -0.4550  0.2380
  100SOL    HW1  398   1.123   1.191   1.430 -1.2153  0.7593  1.7715
  100SOL    HW2  399   1.081   1.065   1.357  1.1542 -1.4922 -1.3335
  100SOL     MW  400   1.073   1.151   1.369  0.2015 -0.4316  0.2330
  101SOL     OW  401   0.529   1.205   0.403  0.2419  0.3422  0.3563
  101SOL    HW1  402   0.456   1.174   0.342 -2.1684 -0.3783  0.2637
  101SOL    HW2  403   0.619   1.176   0.367  2.8099 -0.7458  2.9014
  101SOL     MW  404   0.532   1.197   0.390  0.2627  0.1036  0.6799
  102SOL     OW  405   2.913   0.659   1.096  0.1024 -0.0627  0.7162
  102SOL    HW1  406   2.958   0.744   1.083  0.6922  0.1085 -0.1734
  102SOL    HW2  407   2.873   0.665   1.187 -1.0360  0.4484  4.0825
  102SOL     MW  408   2.914   0.671   1.107  0.0300  0.0273  1.0429
  103SOL     OW  409   1.859   0.253   1.836  0.2662  0.0695  0.1760
  103SOL    HW1  410   1.842   0.159   1.810  2.4974  0.1141 -0.4400
  103SOL    HW2  411   1.863   0.244   1.935 -0.4583 -1.7174  0.0477
  103SOL     MW  412   1.857   0.239   1.845  0.4650 -0.1604  0.0778
  104SOL     OW  413   0.084   1.520   1.651  0.3578 -0.4678  0.1914
  104SOL    HW1  414   0.151   1.461   1.702 -0.4189 -0.5717  0.2029
  104SOL    HW2  415  -0.010   1.480   1.662  2.4781  0.5267 -1.3433
  104SOL     MW  416   0.081   1.507   1.659  0.5351 -0.3503 -0.0096
  105SOL     OW  417   3.057   1.231   0.402  0.1536  0.1826 -0.0403
  105SOL    HW1  418   3.104   1.150   0.405 -0.8904  1.8575 -2.5374
  105SOL    HW2  419   3.123   1.296   0.407 -0.4029 -0.0654  0.1967
  105SOL     MW  420   3.072   1.229   0.403 -0.0575  0.3709 -0.3385
  106SOL     OW  421   0.784   0.381   0.864  0.2029 -0.2307 -0.5063
  106SOL    HW1  422   0.706   0.421   0.898  1.8039  1.3254  0.5182
  106SOL    HW2  423   0.826   0.446   0.805  2.0600 -1.0682  0.5448
  106SOL     MW  424   0.779   0.395   0.861  0.6592 -0.1359 -0.2325
  107SOL     OW  425   0.825   2.162   2.876 -0.8751 -0.0032  0.0986
  107SOL    HW1  426   0.742   2.162   2.833  2.8431 -0.8925 -1.6353
  107SOL    HW2  427   0.807   2.134   2.970  0.1725  0.2424  1.1691
  107SOL     MW  428   0.812   2.158   2.883 -0.2463 -0.0881  0.0111
  108SOL     OW  429   1.345   1.576   1.645 -0.3350 -0.5720 -0.4237
  108SOL    HW1  430   1.289   1.557   1.565  1.7717  3.2532  3.3358
  108SOL    HW2  431   1.426   1.533   1.630  0.6676 -1.6945  3.2702
  108SOL     MW  432   1.348   1.568   1.633  0.0752 -0.2154  0.5597
  109SOL     OW  433   2.041   0.755   0.243  0.8046  0.0356 -0.1399
  109SOL    HW1  434   2.030   0.855   0.259 -0.5162  2.4105  0.8692
  109SOL    HW2  435   2.083   0.717   0.324  0.2605 -1.4051  1.9460
  109SOL     MW  436   2.045   0.763   0.256  0.5586  0.1588  0.2684
  110SOL     OW  437   0.422   1.980   0.708 -0.2170 -0.6368  0.3625
  110SOL    HW1  438   0.493   1.917   0.688  2.2764  1.9911  3.0986
  110SOL    HW2  439   0.421   2.042   0.636  1.6790  3.7021  0.4218
  110SOL     MW  440   0.432   1.980   0.696  0.3621  0.2824  0.7313
  111SOL     OW  441   0.844   0.899   1.366  0.3697 -0.5700 -0.2922
  111SOL    HW1  442   0.801   0.901   1.279 -0.4581  0.1146 -0.2405
  111SOL    HW2  443   0.821   0.804   1.399 -1.0593 -0.5870 -0.0981
  111SOL     MW  444   0.835   0.887   1.359  0.0720 -0.4819 -0.2598
  112SOL     OW  445   1.378   1.071   1.609 -0.1714 -0.0964  0.1092
  112SOL    HW1  446   1.306   1.138   1.585 -0.5005 -0.4423  1.3025
  112SOL    HW2  447   1.320   0.998   1.625 -0.8421  1.8147  0.6862
  112SOL     MW  448   1.361   1.071   1.608 -0.3033  0.1101  0.3428
  113SOL     OW  449   1.254   3.041   1.690 -0.3676 -0.5353  0.1532
  113SOL    HW1  450   1.239   2.998   1.774 -2.5876 -1.0850  0.2159
  113SOL    HW2  451   1.255   2.966   1.632 -2.5124  0.7139 -0.1225
  113SOL     MW  452   1.252   3.026   1.693 -0.9435 -0.4430  0.1251
  114SOL     OW  453   0.267   2.897   1.891 -0.1739  0.4997  0.0903
  114SOL    HW1  454   0.323   2.941   1.952 -1.4325  0.7580 -4.3784
  114SOL    HW2  455   0.193   2.952   1.884 -2.0492 -1.0607  0.9593
  114SOL     MW  456   0.264   2.910   1.898 -0.5874  0.3279 -0.3847
  115SOL     OW  457   0.458   0.808   1.187  0.4988 -0.1998 -0.7090
  115SOL    HW1  458   0.440   0.716   1.218  0.5201  1.4339  1.0916
  115SOL    HW2  459   0.428   0.868   1.251 -1.8715 -0.0605 -0.4627
  115SOL     MW  460   0.452   0.804   1.199  0.1889  0.0341 -0.4390
  116SOL     OW  461   0.779   1.100   0.967 -0.0223  0.5377 -0.5140
  116SOL    HW1  462   0.806   1.133   0.874  0.0938 -1.8086 -1.9037
  116SOL    HW2  463   0.820   1.168   1.030  0.2070 -0.4189  2.7806
  116SOL     MW  464   0.788   1.114   0.963  0.0233  0.1019 -0.2626
  117SOL     OW  465   1.128   1.234   0.826  0.4051  0.3502 -0.0374
  117SOL    HW1  466   1.193   1.188   0.881 -2.0513 -0.5475  0.9759
  117SOL    HW2  467   1.094   1.315   0.873 -2.9659  1.6743  0.5566
  117SOL     MW  468   1.132   1.239   0.839 -0.3637  0.4065  0.1747
  118SOL     OW  469   3.020   2.954   1.731  0.6937  0.3055  0.2969
  118SOL    HW1  470   3.053   3.018   1.799  1.0856  2.0223 -0.4704
  118SOL    HW2  471   2.930   2.974   1.715 -0.8613  1.1457  1.7752
  118SOL     MW  472   3.012   2.965   1.738  0.5403  0.6429  0.3907
  119SOL     OW  473   0.404   1.550   1.227 -0.1806  0.5476 -0.0854
  119SOL    HW1  474   0.452   1.625   1.187  1.0154  0.7913  0.1561
  119SOL    HW2  475   0.313   1.559   1.205  0.5238 -1.1791  2.8516
  119SOL     MW  476   0.399   1.561   1.219  0.0701  0.3520  0.3340
  120SOL     OW  477   0.262   0.800   0.994  0.1378  0.0982  0.0372
  120SOL    HW1  478   0.318   0.815   1.071 -0.6848  0.7099  1.3831
  120SOL    HW2  479   0.297   0.849   0.915  3.1719  2.8004  3.0586
  120SOL     MW  480   0.274   0.808   0.994  0.4296  0.5355  0.6134
  121SOL     OW  481   1.800   1.107   1.614 -0.2789  0.0402  0.0016
  121SOL    HW1  482   1.710   1.129   1.586  2.3799 -2.1349 -0.5337
  121SOL    HW2  483   1.826   1.031   1.554  4.2323  0.1605 -0.2275
  121SOL     MW  484   1.792   1.100   1.603  0.6671 -0.2309 -0.0993
  122SOL     OW  485   0.161   0.578   0.828 -0.6943  0.1393  0.1031
  122SOL    HW1  486   0.237   0.555   0.774 -4.3717 -0.4028  0.8406
  122SOL    HW2  487   0.199   0.636   0.894  0.1672  3.0965  0.8334
  122SOL     MW  488   0.176   0.583   0.829 -1.0658  0.4580  0.2968
  123SOL     OW  489   1.857   1.114   0.514  0.2933  0.2208  0.1472
  123SOL    HW1  490   1.796   1.044   0.548 -3.1787  1.3227 -2.1980
  123SOL    HW2  491   1.917   1.137   0.585 -0.2101 -3.3547 -0.6269
  123SOL     MW  492   1.857   1.108   0.528 -0.2312 -0.1055 -0.2643
  124SOL     OW  493   0.534   0.535   0.957 -0.0219 -0.9579 -0.1352
  124SOL    HW1  494   0.481   0.494   0.886  1.1435  1.8014 -2.5251
  124SOL    HW2  495   0.581   0.607   0.912 -0.3890  0.0393  0.9813
  124SOL     MW  496   0.533   0.539   0.942  0.0834 -0.4623 -0.3032
  125SOL     OW  497   0.706   1.727   1.787 -0.2629 -0.0707  0.7070
  125SOL    HW1  498   0.683   1.642   1.755 -0.6044  0.9249 -2.5710
  125SOL    HW2  499   0.662   1.778   1.720 -1.2695  0.1579 -1.7329
  125SOL     MW  500   0.697   1.722   1.774 -0.4408  0.0908 -0.0474
  126SOL     OW  501   2.164   1.534   1.945  0.8190  0.7207 -0.3850
  126SOL    HW1  502   2.226   1.604   1.932  1.1075 -2.8226 -2.8497
  126SOL    HW2  503   2.221   1.460   1.966  0.5264 -1.3653  0.5529
  126SOL     MW  504   2.180   1.533   1.946  0.8185 -0.0220 -0.5865
  127SOL     OW  505   0.552   0.835   1.771 -0.7854 -0.2736 -0.1534
  127SOL    HW1  506   0.635   0.795   1.797  0.1455 -1.1750  1.3753
  127SOL    HW2  507   0.500   0.850   1.854  0.5044  0.2692  0.9623
  127SOL     MW  508   0.556   0.832   1.786 -0.4924 -0.3209  0.1955
  128SOL     OW  509   1.738   0.694   2.874  0.1661 -0.0963  0.2200
  128SOL    HW1  510   1.784   0.655   2.789  0.0045 -3.3141 -3.0510
  128SOL    HW2  511   1.709   0.782   2.850 -1.5928 -0.1291  0.0330
  128SOL     MW  512   1.740   0.700   2.860 -0.0873 -0.5252 -0.2362
  129SOL     OW  513   1.574   0.939   0.191  0.0371 -0.3952 -0.0210
  129SOL    HW1  514   1.515   0.861   0.179  2.5355 -1.1287  0.4168
  129SOL    HW2  515   1.654   0.887   0.213  1.3736 -0.5998  0.9271
  129SOL     MW  516   1.576   0.922   0.192  0.5430 -0.5190  0.1619
  130SOL     OW  517   0.833   1.438   0.318  0.6015  0.4750 -0.0534
  130SOL    HW1  518   0.843   1.442   0.420  0.3567  1.8343 -0.4076
  130SOL    HW2  519   0.918   1.476   0.291  3.1377  2.3927  0.1845
  130SOL     MW  520   0.846   1.444   0.328  0.9038  0.9074 -0.0687
  131SOL     OW  521   0.002   0.782   0.051  0.1796 -0.1984  0.2762
  131SOL    HW1  522  -0.014   0.816  -0.037  2.0983  0.1654  1.6573
  131SOL    HW2  523   0.078   0.726   0.036  2.9807 -0.8243  1.0746
  131SOL     MW  524   0.010   0.779   0.037  0.8024 -0.2330  0.5638
  132SOL     OW  525   2.750   0.120   1.265  0.3360 -0.4587 -0.0534
  132SOL    HW1  526   2.803   0.120   1.185  1.9938  1.9355 -1.6515
  132SOL    HW2  527   2.652   0.098   1.235 -2.9876 -0.6756  1.8377
  132SOL     MW  528   2.744   0.117   1.250  0.1162 -0.1714 -0.0147
  133SOL     OW  529   1.016   0.106   1.658  0.1455  0.2989 -0.6783
  133SOL    HW1  530   1.105   0.058   1.659  2.0485 -1.0607 -0.0879
  133SOL    HW2  531   0.984   0.106   1.750  1.3126  1.5163 -0.2092
  133SOL     MW  532   1.024   0.099   1.671  0.5506  0.2801 -0.5385
  134SOL     OW  533   1.417   2.425   1.480 -0.0697  0.0918  0.3145
  134SOL    HW1  534   1.340   2.471   1.438 -0.2989  1.0537 -0.9421
  134SOL    HW2  535   1.456   2.469   1.559 -0.7068 -1.3054  0.2787
  134SOL     MW  536   1.412   2.437   1.485 -0.1840  0.0343  0.1440
  135SOL     OW  537   2.999   0.987   2.963 -0.5213 -0.0959  0.6256
  135SOL    HW1  538   3.078   1.045   2.963  0.8078  0.3369  0.2166
  135SOL    HW2  539   2.934   1.059   2.950 -0.4385  1.9991 -2.0927
  135SOL     MW  540   3.001   1.004   2.962 -0.3350  0.2376  0.2130
  136SOL     OW  541   0.210   1.993   0.880 -0.1286 -0.3142 -0.2263
  136SOL    HW1  542   0.148   1.931   0.841  1.6573  2.7128 -0.3848
  136SOL    HW2  543   0.279   1.995   0.816  0.1387 -0.3007  0.2666
  136SOL     MW  544   0.211   1.985   0.867  0.1423  0.0870 -0.1822
  137SOL     OW  545   0.702   2.028   0.567  0.1522 -0.2057 -0.2831
  137SOL    HW1  546   0.724   2.046   0.659 -1.7285 -1.7534  0.6030
  137SOL    HW2  547   0.611   2.059   0.544  1.5776 -2.0938 -0.3206
  137SOL     MW  548   0.693   2.034   0.576  0.0921 -0.6590 -0.1711
  138SOL     OW  549   0.436   0.547   1.222  0.3050  0.2278  0.4458
  138SOL    HW1  550   0.377   0.480   1.242  2.9120  0.9550 -0.4058
  138SOL    HW2  551   0.474   0.529   1.136  0.0929 -1.6913  0.4734
  138SOL     MW  552   0.433   0.536   1.213  0.6210  0.0706  0.3370
  139SOL     OW  553   2.816   0.570   1.348  0.4507 -0.0255 -0.3886
  139SOL    HW1  554   2.883   0.497   1.341 -0.3843 -0.1112  1.4444
  139SOL    HW2  555   2.845   0.608   1.433 -1.2644  0.4676 -0.9212
  139SOL     MW  556   2.829   0.565   1.358  0.1143  0.0283 -0.2170
  140SOL     OW  557   0.895   0.482   1.965  0.2685 -0.1547 -0.1889
  140SOL    HW1  558   0.934   0.400   1.937  0.9921 -1.4028 -0.1389
  140SOL    HW2  559   0.863   0.470   2.055 -0.6889 -0.9778 -0.1031
  140SOL     MW  560   0.896   0.469   1.973  0.2377 -0.4280 -0.1710
  141SOL     OW  561   1.011   0.663   1.642 -0.0281 -0.6400 -0.5825
  141SOL    HW1  562   1.031   0.571   1.656  0.3910 -1.9110  0.1245
  141SOL    HW2  563   1.097   0.706   1.641 -3.3082  0.4792  0.5414
  141SOL     MW  564   1.025   0.657   1.644 -0.4056 -0.6601 -0.3409
  142SOL     OW  565   0.877   1.209   0.720 -0.2541 -0.0751  0.2312
  142SOL    HW1  566   0.883   1.138   0.649 -1.6293  0.8781 -2.6282
  142SOL    HW2  567   0.970   1.219   0.741  1.3165 -1.9404 -0.0778
  142SOL     MW  568   0.890   1.201   0.713 -0.2283 -0.1955 -0.1868
  143SOL     OW  569   1.854   0.662   1.064 -0.5237 -0.2921 -0.3525
  143SOL    HW1  570   1.916   0.683   0.986  1.7223 -0.3426  1.7347
  143SOL    HW2  571   1.766   0.636   1.027 -1.8474 -1.2864  1.6909
  143SOL     MW  572   1.850   0.661   1.049 -0.4020 -0.4300  0.1925
  144SOL     OW  573   0.273   1.322   1.747  0.3472  0.2476  0.4147
  144SOL    HW1  574   0.339   1.384   1.710 -4.9832  2.5375  1.1702
  144SOL    HW2  575   0.330   1.260   1.801 -0.2219 -0.9915  1.0845
  144SOL     MW  576   0.289   1.322   1.749 -0.4312  0.3862  0.6027
  145SOL     OW  577   0.170   0.449   1.258 -0.6791  0.3675 -0.0848
  145SOL    HW1  578   0.192   0.349   1.267 -0.3643 -1.1471  1.1268
  145SOL    HW2  579   0.148   0.463   1.167  2.2288 -0.3422 -1.3172
  145SOL     MW  580   0.170   0.438   1.247 -0.2539  0.0740 -0.0875
  146SOL     OW  581   0.824   1.900   1.406 -0.4208  0.0993  1.0557
  146SOL    HW1  582   0.819   1.943   1.319  0.2383  2.2852  2.8894
  146SOL    HW2  583   0.736   1.869   1.427 -1.8323  1.8906 -0.7856
  146SOL     MW  584   0.811   1.901   1.398 -0.5201  0.6240  1.0547
  147SOL     OW  585   0.440   0.471   2.906  0.2559 -0.3021  0.0119
  147SOL    HW1  586   0.385   0.502   2.976 -0.6099  0.1407 -1.7682
  147SOL    HW2  587   0.428   0.534   2.836 -0.1957 -2.4847  0.2978
  147SOL     MW  588   0.431   0.484   2.906  0.0821 -0.5317 -0.1853
  148SOL     OW  589   0.064   0.937   1.298  0.1786  0.1090  0.9076
  148SOL    HW1  590   0.154   0.934   1.303 -1.2524 -0.3010 -2.0475
  148SOL    HW2  591   0.042   1.017   1.340 -1.4048 -0.0827 -0.1251
  148SOL     MW  592   0.073   0.947   1.305 -0.2191  0.0296  0.3814
  149SOL     OW  593   1.581   1.174   1.452  0.3478  0.0075 -0.7516
  149SOL    HW1  594   1.498   1.153   1.508 -2.7538 -1.0170  1.2543
  149SOL    HW2  595   1.582   1.267   1.430  0.7240 -0.4615 -1.1340
  149SOL     MW  596   1.571   1.184   1.456 -0.0118 -0.1895 -0.5374
  150SOL     OW  597   1.727   1.393   0.892  0.2611 -0.1616 -0.0369
  150SOL    HW1  598   1.803   1.330   0.884  3.6301  3.0816  0.8161
  150SOL    HW2  599   1.771   1.474   0.907 -0.6227 -1.8842  1.2504
  150SOL     MW  600   1.743   1.396   0.893  0.5890  0.0390  0.2455
  151SOL     OW  601   1.676   1.867   0.815 -0.0794  0.9355 -0.2003
  151SOL    HW1  602   1.646   1.852   0.723 -0.7497  1.5304  1.1771
  151SOL    HW2  603   1.602   1.850   0.867  1.7792 -0.8906  0.8091
  151SOL     MW  604   1.662   1.863   0.809  0.0774  0.7730  0.1146
  152SOL     OW  605   0.705   1.427   1.589 -0.5924 -0.4469 -0.5106
  152SOL    HW1  606   0.760   1.490   1.533  1.1546 -1.5424 -1.3250
  152SOL    HW2  607   0.725   1.341   1.543 -0.3765  1.8441 -0.6817
  152SOL     MW  608   0.715   1.424   1.576 -0.3334 -0.2892 -0.6406
  153SOL     OW  609   2.572   1.208   0.744 -0.3055 -0.6779 -0.3585
  153SOL    HW1  610   2.642   1.180   0.680 -0.4361 -0.7105  1.6561
  153SOL    HW2  611   2.534   1.118   0.765  1.7624  0.3167 -0.8109
  153SOL     MW  612   2.576   1.192   0.738 -0.0499 -0.5510 -0.1524
  154SOL     OW  613   0.094   1.773   1.762  0.1163  0.5060 -0.3181
  154SOL    HW1  614   0.076   1.685   1.738  0.0146 -0.1201  0.5264
  154SOL    HW2  615   0.179   1.757   1.812 -2.9934  3.3547  1.4052
  154SOL     MW  616   0.103   1.760   1.765 -0.3074  0.7993  0.0207
  155SOL     OW  617   1.222   0.743   0.300 -0.1768 -0.7535 -0.0102
  155SOL    HW1  618   1.192   0.714   0.393  1.4833  1.7177  0.4556
  155SOL    HW2  619   1.224   0.839   0.315  2.6012 -1.7154 -0.6186
  155SOL     MW  620   1.218   0.752   0.315  0.4087 -0.5544 -0.0290
  156SOL     OW  621   1.536   3.083   1.107 -0.6314 -0.3006 -0.1412
  156SOL    HW1  622   1.586   3.140   1.162  0.1343 -2.1193 -0.4326
  156SOL    HW2  623   1.592   3.006   1.096  2.0937  0.4105  1.3276
  156SOL     MW  624   1.550   3.080   1.113 -0.1708 -0.4467  0.0142
  157SOL     OW  625   1.399   1.140   0.123 -0.9498  0.8266  0.0042
  157SOL    HW1  626   1.458   1.072   0.170 -0.9694  0.3559 -3.3784
  157SOL    HW2  627   1.444   1.223   0.121 -1.9242 -0.8612 -0.1251
  157SOL     MW  628   1.413   1.142   0.129 -1.0810  0.5418 -0.4592
  158SOL     OW  629   0.446   1.688   2.270  0.1753 -0.2391 -0.3966
  158SOL    HW1  630   0.498   1.724   2.196 -1.6215  0.6402 -2.1775
  158SOL    HW2  631   0.374   1.749   2.276 -0.8487 -0.4260  2.9902
  158SOL     MW  632   0.443   1.701   2.261 -0.1969 -0.1477 -0.1847
  159SOL     OW  633   1.200   1.616   0.496  0.0883  0.2157  0.0262
  159SOL    HW1  634   1.159   1.592   0.411 -1.5743 -2.0193 -0.1961
  159SOL    HW2  635   1.138   1.678   0.541  0.9225  2.2001  0.8555
  159SOL     MW  636   1.187   1.621   0.491 -0.0210  0.1827  0.1063
  160SOL     OW  637   0.498   1.197   1.539 -0.1142 -0.9792 -0.0299
  160SOL    HW1  638   0.439   1.129   1.581 -0.0140 -0.3397 -0.9780
  160SOL    HW2  639   0.587   1.161   1.553 -0.6167  1.1041  0.0770
  160SOL     MW  640   0.502   1.183   1.547 -0.1673 -0.6199 -0.1409
  161SOL     OW  641   0.429   2.255   2.630 -0.3904  0.2091  0.9138
  161SOL    HW1  642   0.343   2.277   2.635  2.2716  0.2930  1.9319
  161SOL    HW2  643   0.443   2.177   2.566 -1.6226 -2.7730 -1.7654
  161SOL     MW  644   0.419   2.248   2.622 -0.2018 -0.1733  0.6947
  162SOL     OW  645   1.073   1.806   1.795  0.0592 -0.0953 -0.4440
  162SOL    HW1  646   1.072   1.900   1.797 -1.9260  0.2825  0.2310
  162SOL    HW2  647   1.032   1.781   1.879 -1.7043  1.1809 -2.3383
  162SOL     MW  648   1.067   1.815   1.806 -0.4354  0.1229 -0.6049
  163SOL     OW  649   2.132   3.090   0.856  0.3477  0.4496  0.4055
  163SOL    HW1  650   2.130   3.160   0.783 -0.1286 -1.2682 -0.4330
  163SOL    HW2  651   2.076   3.016   0.823 -0.5332 -1.5079 -2.1508
  163SOL     MW  652   2.125   3.089   0.842  0.1687 -0.0353 -0.0424
  164SOL     OW  653   0.301   0.211   0.790  0.3278  0.3265  0.2667
  164SOL    HW1  654   0.209   0.209   0.813 -0.1258  0.3036 -1.7065
  164SOL    HW2  655   0.313   0.132   0.742  0.0009  1.3433  2.2396
  164SOL     MW  656   0.291   0.200   0.787  0.2248  0.4577  0.2666
  165SOL     OW  657   1.192   1.301   0.325  0.1062 -0.1662  0.1985
  165SOL    HW1  658   1.202   1.285   0.422  0.0965 -1.4788  0.0634
  165SOL    HW2  659   1.253   1.238   0.289  1.8818 -1.3920  0.8260
  165SOL     MW  660   1.202   1.291   0.333  0.3392 -0.5011  0.2635
  166SOL     OW  661   0.497   1.117   1.036 -0.8312 -0.4689 -0.0748
  166SOL    HW1  662   0.464   1.136   1.120  0.2578 -2.0145 -0.7180
  166SOL    HW2  663   0.597   1.104   1.037 -0.3299 -0.2361  1.3274
  166SOL     MW  664   0.506   1.117   1.048 -0.6214 -0.6421  0.0253
  167SOL     OW  665   0.789   1.156   0.279 -0.0784 -0.3368  0.4606
  167SOL    HW1  666   0.787   1.256   0.271 -1.5631  0.0275  0.2803
  167SOL    HW2  667   0.868   1.134   0.222  2.2961  0.6489  0.4082
  167SOL     MW  668   0.799   1.166   0.270  0.0390 -0.1587  0.4299
  168SOL     OW  669   1.720   1.623   3.045 -0.0779 -0.3810  0.3860
  168SOL    HW1  670   1.656   1.684   3.010 -0.4649 -0.0174 -1.7152
  168SOL    HW2  671   1.691   1.541   3.002  1.0922  0.3434 -1.3665
  168SOL     MW  672   1.708   1.621   3.035  0.0254 -0.2374 -0.1225
  169SOL     OW  673   0.334   0.984   1.372  0.2083  1.3317  0.1736
  169SOL    HW1  674   0.329   0.951   1.468  0.5265  0.5508  0.4571
  169SOL    HW2  675   0.331   1.077   1.374 -0.6032  1.1594  1.4474
  169SOL     MW  676   0.333   0.992   1.385  0.1432  1.2059  0.3790
  170SOL     OW  677   1.164   1.522   1.458  0.3818 -0.0462  0.9273
  170SOL    HW1  678   1.102   1.589   1.491 -1.3439 -1.6079  1.4339
  170SOL    HW2  679   1.159   1.541   1.364 -3.1111  2.6861  0.8645
  170SOL     MW  680   1.155   1.533   1.450 -0.3067  0.1083  0.9858
  171SOL     OW  681   0.525   1.473   0.486 -0.2071  0.7247  0.3096
  171SOL    HW1  682   0.487   1.425   0.560 -2.0070 -3.0361  2.8552
  171SOL    HW2  683   0.532   1.414   0.412  0.8447 -0.6609 -1.6161
  171SOL     MW  684   0.521   1.459   0.486 -0.3058  0.0456  0.3914
  172SOL     OW  685   0.757   0.258   1.257 -0.6055  1.0903  0.5069
  172SOL    HW1  686   0.733   0.236   1.163 -1.5870 -0.0408 -2.2831
  172SOL    HW2  687   0.806   0.179   1.283 -0.0499  0.3186  2.6290
  172SOL     MW  688   0.760   0.245   1.248 -0.6617  0.8392  0.4188
  173SOL     OW  689   0.551   1.724   0.331  0.5784 -0.4193 -0.1531
  173SOL    HW1  690   0.585   1.642   0.288  2.2062  2.6950  3.2730
  173SOL    HW2  691   0.554   1.715   0.426 -1.5559 -0.8738  0.9112
  173SOL     MW  692   0.556   1.712   0.338  0.5116 -0.0683  0.4394
  174SOL     OW  693   1.862   0.871   1.512 -0.3013 -0.2307 -0.3268
  174SOL    HW1  694   1.826   0.787   1.547 -0.3885  0.2327  3.1250
  174SOL    HW2  695   1.876   0.862   1.413  1.1261 -0.2033 -0.9579
  174SOL     MW  696   1.859   0.859   1.503 -0.1245 -0.1659  0.0454
  175SOL     OW  697   0.570   1.505   0.145  0.3695 -0.2636  0.2769
  175SOL    HW1  698   0.480   1.464   0.156  0.4689  1.8888  0.2353
  175SOL    HW2  699   0.637   1.436   0.150  0.5439 -3.8253  0.3229
  175SOL     MW  700   0.567   1.490   0.147  0.4056 -0.4496  0.2775
  176SOL     OW  701   0.146   1.483   1.179 -0.3693  0.4848  0.5153
  176SOL    HW1  702   0.142   1.426   1.100 -1.7264 -3.0545 -1.7848
  176SOL    HW2  703   0.080   1.449   1.241 -2.0418  1.5678  1.7520
  176SOL     MW  704   0.136   1.471   1.177 -0.7690  0.1607  0.3750
  177SOL     OW  705   0.542   0.326   1.453  0.1528 -0.1411 -0.3017
  177SOL    HW1  706   0.587   0.337   1.371  2.3414 -1.9338 -1.0958
  177SOL    HW2  707   0.528   0.415   1.491 -0.8541  0.9044 -2.0013
  177SOL     MW  708   0.546   0.339   1.447  0.3087 -0.2397 -0.6307
  178SOL     OW  709   3.102   0.490   2.995 -0.4709  0.0272  0.0689
  178SOL    HW1  710   3.037   0.511   3.068 -2.5833  0.4203  4.2329
  178SOL    HW2  711   3.046   0.504   2.920  2.9293  1.4439 -0.5825
  178SOL     MW  712   3.086   0.495   2.995 -0.3010  0.2660  0.5323
  179SOL     OW  713   1.559   1.458   1.365  0.3178  0.4815 -0.9362
  179SOL    HW1  714   1.552   1.485   1.460 -0.1053 -0.5546 -2.0401
  179SOL    HW2  715   1.649   1.454   1.336 -0.8470 -0.2545 -1.9342
  179SOL     MW  716   1.570   1.461   1.374  0.1083  0.2477 -1.2136
  180SOL     OW  717   3.045   0.300   0.450  0.8865 -0.0156 -0.2597
  180SOL    HW1  718   3.012   0.302   0.363  1.8079  0.4603  2.1437
  180SOL    HW2  719   3.115   0.362   0.446  3.5731 -1.1909 -1.8568
  180SOL     MW  720   3.050   0.308   0.438  1.3626 -0.1079 -0.1533
  181SOL     OW  721   1.114   1.281   3.092  0.0132  0.4507 -0.0821
  181SOL    HW1  722   1.142   1.373   3.103 -0.8080 -1.4007  0.8520
  181SOL    HW2  723   1.187   1.228   3.070 -2.9908 -3.0888  0.5601
  181SOL     MW  724   1.127   1.286   3.091 -0.4915 -0.2606  0.1259
  182SOL     OW  725   0.371   0.977   1.632 -0.0363 -0.2828  0.3078
  182SOL    HW1  726   0.307   0.962   1.708  2.1331  1.4050  1.9885
  182SOL    HW2  727   0.447   0.934   1.668  1.6806  0.4134  1.7212
  182SOL     MW  728   0.372   0.969   1.647  0.4765  0.0317  0.7160
  183SOL     OW  729   1.538   1.723   1.259  0.7000  0.3151  0.4888
  183SOL    HW1  730   1.629   1.741   1.275 -1.8390 -1.3840  0.3680
  183SOL    HW2  731   1.519   1.629   1.271  0.1622  0.7471  0.4518
  183SOL     MW  732   1.548   1.713   1.262  0.2940  0.1479  0.4680
  184SOL     OW  733   0.785   0.724   1.802  0.1933  0.0439 -0.5313
  184SOL    HW1  734   0.860   0.725   1.746 -0.2711 -1.5650 -0.6602
  184SOL    HW2  735   0.812   0.664   1.871 -0.2836  2.2605 -1.0992
  184SOL     MW  736   0.799   0.716   1.803  0.0691  0.1241 -0.6232
  185SOL     OW  737   1.077   0.954   1.881  0.3131  0.5338 -0.4586
  185SOL    HW1  738   1.061   0.867   1.923  2.0112  2.2190  0.7701
  185SOL    HW2  739   1.137   0.991   1.948  0.1082 -1.7978  1.9798
  185SOL     MW  740   1.083   0.947   1.896  0.5101  0.4485  0.0253
  186SOL     OW  741   0.305   1.638   1.488 -0.1719 -0.2778  0.0500
  186SOL    HW1  742   0.325   1.609   1.400 -3.1795 -1.2545  0.7964
  186SOL    HW2  743   0.221   1.604   1.517 -0.5968 -1.2119 -2.1340
  186SOL     MW  744   0.297   1.629   1.481 -0.6248 -0.5299 -0.1397
  187SOL     OW  745   1.444   0.769   1.388 -0.5279 -0.1975  0.1120
  187SOL    HW1  746   1.505   0.745   1.459  0.0627 -0.7223 -0.3700
  187SOL    HW2  747   1.354   0.740   1.397 -0.6597  1.3809 -0.2812
  187SOL     MW  748   1.440   0.762   1.398 -0.4674 -0.0585 -0.0035
  188SOL     OW  749   1.919   1.206   0.833 -0.8410  0.0382 -0.0081
  188SOL    HW1  750   1.920   1.178   0.928  1.7443 -0.9085  1.8916
  188SOL    HW2  751   1.927   1.122   0.794 -1.2630 -1.1507 -0.0701
  188SOL     MW  752   1.920   1.191   0.841 -0.5556 -0.2436  0.2343
  189SOL     OW  753   0.676   0.733   0.876 -0.1118  0.0671  0.3509
  189SOL    HW1  754   0.606   0.790   0.854 -0.7216 -1.1180  1.9955
  189SOL    HW2  755   0.700   0.751   0.972 -1.3708 -1.4405  1.0851
  189SOL     MW  756   0.670   0.743   0.886 -0.3583 -0.2881  0.6647
  190SOL     OW  757   1.868   0.282   2.093 -0.3636 -0.1541  0.1254
  190SOL    HW1  758   1.859   0.257   2.190  3.0660  2.2388  0.5408
  190SOL    HW2  759   1.948   0.339   2.104 -1.1286 -0.3768  3.0405
  190SOL     MW  760   1.877   0.286   2.107 -0.0120  0.1322  0.5649
  191SOL     OW  761   1.527   0.986   1.240  0.1973 -0.3248 -0.3346
  191SOL    HW1  762   1.518   1.050   1.311 -1.3498 -0.7349  1.5289
  191SOL    HW2  763   1.490   0.905   1.279 -1.2296 -0.1978  1.0283
  191SOL     MW  764   1.521   0.984   1.254 -0.1951 -0.3621  0.0911
  192SOL     OW  765   0.522   2.172   2.877  0.3156  0.3925 -0.1883
  192SOL    HW1  766   0.503   2.219   2.797  0.6087  2.6461 -0.8337
  192SOL    HW2  767   0.521   2.084   2.845  0.0544 -0.1842 -0.5457
  192SOL     MW  768   0.519   2.167   2.862  0.3198  0.6138 -0.3206
  193SOL     OW  769   0.862   1.615   0.783 -0.2733  0.3809 -0.2827
  193SOL    HW1  770   0.785   1.604   0.836 -3.1495  1.2510 -0.3462
  193SOL    HW2  771   0.841   1.567   0.694  4.4899  2.8418  0.3539
  193SOL     MW  772   0.849   1.607   0.779 -0.0243  0.8204 -0.2071
  194SOL     OW  773   0.494   1.318   0.807 -0.4578  0.3053 -0.2354
  194SOL    HW1  774   0.490   1.261   0.887  0.8600 -0.4387  1.1131
  194SOL    HW2  775   0.408   1.355   0.803  1.0369 -0.1597 -0.4084
  194SOL     MW  776   0.482   1.315   0.817 -0.0867  0.1458 -0.0803
  195SOL     OW  777   1.302   1.097   2.954  0.0158 -0.1627  0.6567
  195SOL    HW1  778   1.364   1.112   3.022 -0.4486  1.2460  1.3328
  195SOL    HW2  779   1.240   1.033   2.986 -0.2874  1.2002  1.1785
  195SOL     MW  780   1.302   1.091   2.968 -0.0854  0.2030  0.8147
  196SOL     OW  781   2.269   1.004   0.579 -0.0477  0.4369  0.5274
  196SOL    HW1  782   2.271   0.992   0.486  1.8288  3.1615 -2.6191
  196SOL    HW2  783   2.243   1.098   0.585  0.1343  1.6636  1.7507
  196SOL     MW  784   2.266   1.015   0.568  0.2239  0.9582  0.2736
  197SOL     OW  785   0.631   1.310   2.213  0.4642  0.9171 -0.0677
  197SOL    HW1  786   0.659   1.235   2.165  0.7560  3.8186  0.4980
  197SOL    HW2  787   0.669   1.379   2.157 -0.6368  1.3282 -0.5137
  197SOL     MW  788   0.640   1.310   2.199  0.3575  1.3542 -0.0519
  198SOL     OW  789   2.913   1.422   0.994  0.8034  0.4796 -0.6104
  198SOL    HW1  790   2.859   1.492   0.956 -2.2531 -2.4791 -0.2801
  198SOL    HW2  791   2.850   1.347   1.007  0.2489  0.5177  0.8206
  198SOL     MW  792   2.897   1.421   0.991  0.3270  0.0943 -0.3780
  199SOL     OW  793   0.730   1.310   1.857 -0.6777 -0.0061 -0.6010
  199SOL    HW1  794   0.635   1.292   1.855 -1.8142  0.4921  0.7632
  199SOL    HW2  795   0.745   1.357   1.775  1.0891 -0.4470 -2.0249
  199SOL     MW  796   0.719   1.314   1.846 -0.5945  0.0015 -0.6089
  200SOL     OW  797   1.848   2.924   1.342  0.4097 -0.1799 -0.2920
  200SOL    HW1  798   1.907   2.965   1.268 -0.0512  2.5604 -0.0673
  200SOL    HW2  799   1.774   2.976   1.347 -2.9348  1.0285 -1.3678
  200SOL     MW  800   1.846   2.936   1.333 -0.0924  0.3411 -0.4043
  201SOL     OW  801   1.139   0.332   0.784  0.6027 -0.0287  0.5402
  201SOL    HW1  802   1.108   0.243   0.802  2.1952 -0.2818  3.6254
  201SOL    HW2  803   1.209   0.353   0.843 -1.0584  0.9190 -1.5219
  201SOL     MW  804   1.144   0.323   0.794  0.5936  0.0629  0.6752
  202SOL     OW  805   1.494   1.775   1.003  0.1876  0.0052 -0.0335
  202SOL    HW1  806   1.519   1.687   0.968  0.0965  0.1635  0.2036
  202SOL    HW2  807   1.501   1.758   1.097 -0.5392  0.8581 -3.3272
  202SOL     MW  808   1.498   1.761   1.011  0.0797  0.1386 -0.4368
  203SOL     OW  809   2.991   0.351   1.343  0.4840 -0.1540 -0.6556
  203SOL    HW1  810   3.023   0.263   1.355 -1.3258  0.5838  2.0934
  203SOL    HW2  811   3.050   0.377   1.276 -0.9630 -0.0975 -1.5653
  203SOL     MW  812   3.003   0.343   1.336  0.0543 -0.0492 -0.4129
  204SOL     OW  813   1.019   1.785   0.631 -0.8126  0.0266  0.0808
  204SOL    HW1  814   0.969   1.738   0.697  0.6354 -0.3293  2.0179
  204SOL    HW2  815   0.956   1.789   0.558 -1.7396 -0.2086  1.1060
  204SOL     MW  816   1.004   1.779   0.630 -0.7438 -0.0514  0.4716
  205SOL     OW  817   1.398   3.032   1.326  0.2942  0.2442 -0.1965
  205SOL    HW1  818   1.423   3.065   1.237  0.5425  1.9151 -1.2987
  205SOL    HW2  819   1.335   3.095   1.368  1.4476 -0.0600  0.6343
  205SOL     MW  820   1.393   3.045   1.320  0.4791  0.4245 -0.2323
  206SOL     OW  821   0.408   3.007   1.343 -0.1544 -0.8582 -0.1221
  206SOL    HW1  822   0.382   2.972   1.259  1.1439  0.1042 -1.5119
  206SOL    HW2  823   0.493   2.972   1.370 -2.1489 -0.5169  0.9115
  206SOL     MW  824   0.416   2.998   1.335 -0.2462 -0.6861 -0.1691
  207SOL     OW  825   0.879   1.761   0.210 -0.4632  0.5883  0.3418
  207SOL    HW1  826   0.931   1.821   0.163 -2.5508  1.3622  2.1391
  207SOL    HW2  827   0.926   1.681   0.230  1.2712 -0.3789  0.1382
  207SOL     MW  828   0.892   1.758   0.206 -0.5098  0.5628  0.5521
  208SOL     OW  829   0.797   1.595   1.395 -0.3244 -0.6516 -0.1204
  208SOL    HW1  830   0.879   1.633   1.406  1.3820 -3.5465  2.3666
  208SOL    HW2  831   0.796   1.568   1.298 -1.3613  3.6395  0.0578
  208SOL     MW  832   0.807   1.596   1.384 -0.2361 -0.4674  0.2313
  209SOL     OW  833   1.537   0.524   2.850  0.1977  0.4370 -0.1508
  209SOL    HW1  834   1.612   0.589   2.858  0.5553 -1.1796  1.4295
  209SOL    HW2  835   1.580   0.439   2.834  0.3910 -1.5287  0.9754
  209SOL     MW  836   1.552   0.522   2.849  0.2704 -0.0356  0.2063
  210SOL     OW  837   1.488   1.492   0.961 -0.3981 -0.7709 -0.3029
  210SOL    HW1  838   1.567   1.449   0.931  0.0650 -0.2667  0.1541
  210SOL    HW2  839   1.428   1.498   0.883 -1.9945 -0.4335  0.7625
  210SOL     MW  840   1.490   1.487   0.947 -0.5476 -0.6599 -0.1020
  211SOL     OW  841   1.747   0.334   0.969  0.1375  0.4889 -0.1191
  211SOL    HW1  842   1.756   0.362   0.877 -1.4682 -1.5584 -1.3704
  211SOL    HW2  843   1.832   0.348   1.019 -1.5561  0.2862  0.4134
  211SOL     MW  844   1.760   0.340   0.963 -0.2978  0.1920 -0.2139
  212SOL     OW  845   0.314   1.115   0.271 -0.0607  0.0986 -0.2622
  212SOL    HW1  846   0.219   1.092   0.276  0.0906 -0.0185  0.2733
  212SOL    HW2  847   0.340   1.050   0.209  0.4142  3.0916 -0.1321
  212SOL     MW  848   0.305   1.104   0.263  0.0219  0.4780 -0.1744
  213SOL     OW  849   0.364   1.851   3.032 -0.0055  0.6237  0.0173
  213SOL    HW1  850   0.410   1.886   3.115 -0.6323  1.0113  1.7710
  213SOL    HW2  851   0.432   1.872   2.960  0.0307  1.7734 -1.1844
  213SOL     MW  852   0.379   1.859   3.034 -0.0834  0.8266  0.0901
  214SOL     OW  853   0.604   0.298   2.121 -0.2686  0.0072 -0.3947
  214SOL    HW1  854   0.542   0.382   2.142 -0.5677  2.2250  1.4028
  214SOL    HW2  855   0.609   0.286   2.028  0.9890 -3.1802  2.5462
  214SOL     MW  856   0.597   0.307   2.112 -0.1421 -0.1207  0.2305
  215SOL     OW  857   0.492   0.552   2.533 -0.1930  0.0944 -0.4741
  215SOL    HW1  858   0.454   0.603   2.462  3.6362 -1.4829 -0.2960
  215SOL    HW2  859   0.427   0.572   2.598 -1.1457 -0.7641 -1.8908
  215SOL     MW  860   0.479   0.561   2.532  0.1865 -0.2270 -0.6375
  216SOL     OW  861   2.934   3.065   2.722 -0.2503  0.0124 -0.1482
  216SOL    HW1  862   2.905   3.032   2.809 -2.8515  1.1108  0.4970
  216SOL    HW2  863   2.938   3.167   2.727  0.3125  2.4380  1.3484
  216SOL     MW  864   2.930   3.074   2.734 -0.5192  0.4774  0.1344
  217SOL     OW  865   1.039   1.072   0.148 -0.0860 -0.2766 -0.0759
  217SOL    HW1  866   1.058   1.005   0.083 -2.2728  2.1557  1.5333
  217SOL    HW2  867   1.058   1.151   0.093  0.7156  0.6966 -1.4439
  217SOL     MW  868   1.044   1.073   0.132 -0.2688  0.1727 -0.0440
  218SOL     OW  869   0.861   1.367   2.659  0.3513 -0.6178 -0.3291
  218SOL    HW1  870   0.865   1.312   2.737  0.1019 -1.3928  0.4960
  218SOL    HW2  871   0.953   1.393   2.636 -0.8121  3.4445 -1.9936
  218SOL     MW  872   0.873   1.363   2.666  0.1649 -0.1841 -0.4399
  219SOL     OW  873   1.041   0.413   2.619 -0.0089 -0.1439  0.0123
  219SOL    HW1  874   1.107   0.475   2.657 -1.5564 -0.3739  0.5807
  219SOL    HW2  875   0.957   0.457   2.642 -1.2102  1.5267  0.7014
  219SOL     MW  876   1.038   0.427   2.627 -0.3716  0.0462  0.1782
  220SOL     OW  877   1.723   0.517   2.187  0.5904 -0.3235 -0.2174
  220SOL    HW1  878   1.630   0.543   2.169 -1.7230 -1.1709  2.2624
  220SOL    HW2  879   1.732   0.446   2.120 -0.1542  0.7581 -1.6600
  220SOL     MW  880   1.712   0.511   2.176  0.1870 -0.2926 -0.0806
  221SOL     OW  881   0.343   1.321   2.940  0.0405  0.0450  0.2506
  221SOL    HW1  882   0.401   1.248   2.949 -0.7691  1.5634  0.0295
  221SOL    HW2  883   0.390   1.375   2.882 -1.5135  2.2476  0.4176
  221SOL     MW  884   0.357   1.318   2.934 -0.2713  0.5359  0.2434
  222SOL     OW  885   0.502   0.975   2.685 -0.2181  0.0571 -0.1596
  222SOL    HW1  886   0.423   0.986   2.633  3.0615  0.1605 -1.7811
  222SOL    HW2  887   0.504   0.885   2.722  0.4106 -2.3084 -0.3237
  222SOL     MW  888   0.492   0.965   2.683  0.2976 -0.2414 -0.3952
  223SOL     OW  889   0.015   2.041   2.559  0.3796  0.2681 -0.3989
  223SOL    HW1  890  -0.025   2.081   2.632 -2.4878  0.5825 -2.6013
  223SOL    HW2  891   0.031   2.121   2.506  0.7977  2.0746 -3.4578
  223SOL     MW  892   0.012   2.057   2.561  0.0565  0.5479 -1.0930
  224SOL     OW  893   1.437   0.714   2.462  0.3049  0.1457  0.2113
  224SOL    HW1  894   1.497   0.687   2.533 -0.2102  0.5293 -0.6235
  224SOL    HW2  895   1.449   0.813   2.471 -1.1645  2.5817 -2.2636
  224SOL     MW  896   1.446   0.723   2.473  0.0430  0.5177 -0.2254
  225SOL     OW  897   2.947   1.445   2.284 -0.6823  0.1957  0.7265
  225SOL    HW1  898   2.988   1.516   2.229  0.2590 -1.7335 -0.9290
  225SOL    HW2  899   2.883   1.488   2.342  1.9668 -0.7946  0.5504
  225SOL     MW  900   2.944   1.460   2.285 -0.2086 -0.1895  0.4848
  226SOL     OW  901   0.412   1.482   2.711  0.3693 -0.1391 -0.0251
  226SOL    HW1  902   0.501   1.513   2.733  0.1154  2.1820  0.6423
  226SOL    HW2  903   0.362   1.556   2.683  1.6831 -2.7476  1.3776
  226SOL     MW  904   0.417   1.496   2.711  0.5092 -0.1770  0.2480
  227SOL     OW  905   0.571   1.130   2.908 -0.4467  0.4371  0.7252
  227SOL    HW1  906   0.649   1.173   2.871 -2.2253 -0.4064  1.1914
  227SOL    HW2  907   0.535   1.068   2.846 -0.1928 -0.7815  0.6961
  227SOL     MW  908   0.576   1.128   2.895 -0.6479  0.1650  0.7828
  228SOL     OW  909   0.759   1.132   2.041 -0.1545 -0.0350 -0.1326
  228SOL    HW1  910   0.751   1.201   1.970 -2.0573 -0.5207  1.7728
  228SOL    HW2  911   0.829   1.170   2.095 -0.4126 -0.2066 -0.4030
  228SOL     MW  912   0.767   1.146   2.038 -0.4396 -0.1217  0.0831
  229SOL     OW  913   0.236   0.581   3.087  0.3706 -0.0918 -0.0880
  229SOL    HW1  914   0.167   0.543   3.021  0.7172 -1.7628 -2.9020
  229SOL    HW2  915   0.230   0.504   3.148 -2.7310 -2.3851 -0.2653
  229SOL     MW  916   0.226   0.566   3.086  0.0071 -0.6149 -0.4827
  230SOL     OW  917   1.799   1.374   2.011 -0.0027  0.4136  0.5512
  230SOL    HW1  918   1.759   1.347   2.093 -3.8008 -0.1845 -0.3466
  230SOL    HW2  919   1.812   1.302   1.953  1.2342 -0.8780 -0.3808
  230SOL     MW  920   1.796   1.361   2.014 -0.3406  0.1642  0.3098
  231SOL     OW  921   2.724   1.260   2.255 -0.5219 -0.6913  0.6652
  231SOL    HW1  922   2.805   1.304   2.234  0.3031 -0.2408 -2.1155
  231SOL    HW2  923   2.671   1.277   2.180  2.3545 -1.7776  1.1356
  231SOL     MW  924   2.728   1.268   2.243 -0.0335 -0.7752  0.3604
  232SOL     OW  925   2.305   0.807   1.960  0.1393 -0.0261 -0.3174
  232SOL    HW1  926   2.228   0.837   1.907 -2.1351 -0.9384 -1.4609
  232SOL    HW2  927   2.277   0.809   2.054 -0.9164 -0.9112 -1.3521
  232SOL     MW  928   2.291   0.811   1.966 -0.3001 -0.2632 -0.6048
  233SOL     OW  929   2.112   0.440   2.091 -0.0644 -0.0097 -0.0792
  233SOL    HW1  930   2.153   0.357   2.061  1.2385 -1.3022 -0.7647
  233SOL    HW2  931   2.172   0.475   2.157 -2.7032 -1.7846 -2.3368
  233SOL     MW  932   2.125   0.434   2.096 -0.2407 -0.4144 -0.4675
  234SOL     OW  933   0.248   1.039   2.622 -0.1330 -0.0006  0.6555
  234SOL    HW1  934   0.203   1.011   2.545 -2.0918  1.9742  3.2126
  234SOL    HW2  935   0.272   1.132   2.592 -1.6398 -1.2938 -0.6563
  234SOL     MW  936   0.245   1.048   2.608 -0.5903  0.0893  0.8198
  235SOL     OW  937   1.074   3.000   2.820  1.1097  0.2494  0.1739
  235SOL    HW1  938   1.101   2.987   2.909  0.1694  1.0241  1.7698
  235SOL    HW2  939   1.070   3.098   2.821 -1.4067 -0.7983  0.6474
  235SOL     MW  940   1.077   3.012   2.832  0.6536  0.2134  0.4469
  236SOL     OW  941   2.953   0.611   0.186  0.3200 -0.0176  0.8718
  236SOL    HW1  942   2.947   0.628   0.278  1.3141  1.4889 -0.4848
  236SOL    HW2  943   3.004   0.677   0.137  0.5721 -1.0559  0.5492
  236SOL     MW  944   2.959   0.622   0.191  0.4844  0.0441  0.6503
  237SOL     OW  945   1.959   1.063   2.140 -0.0955 -0.0777 -0.3907
  237SOL    HW1  946   1.874   1.081   2.109 -0.5262  2.0371  1.7027
  237SOL    HW2  947   1.954   0.973   2.151 -3.7042  2.5422 -0.1105
  237SOL     MW  948   1.947   1.053   2.137 -0.6285  0.5470 -0.0775
  238SOL     OW  949   1.095   1.766   2.968 -0.0341 -0.3774 -0.4669
  238SOL    HW1  950   1.024   1.700   2.952  1.3632 -0.7309  0.7102
  238SOL    HW2  951   1.173   1.716   2.935  1.7520 -0.6947  2.1329
  238SOL     MW  952   1.096   1.750   2.962  0.3859 -0.4659  0.0315
  239SOL     OW  953   1.170   1.291   2.275 -0.3214 -0.2025  0.3588
  239SOL    HW1  954   1.085   1.251   2.254  0.5850  0.5392  1.1267
  239SOL    HW2  955   1.188   1.234   2.351 -0.2417 -2.8803  1.9284
  239SOL     MW  956   1.161   1.278   2.282 -0.1913 -0.4580  0.6672
  240SOL     OW  957   0.593   0.887   2.212 -0.3481  0.5154  0.0498
  240SOL    HW1  958   0.605   0.951   2.294 -1.2420  0.2884  1.1215
  240SOL    HW2  959   0.683   0.881   2.170  0.0819 -2.0724 -0.2072
  240SOL     MW  960   0.607   0.894   2.217 -0.4093  0.1440  0.1573
  241SOL     OW  961   0.679   0.451   3.061 -0.2977  0.0967  0.5880
  241SOL    HW1  962   0.696   0.517   3.126 -1.8994 -1.4235 -0.7457
  241SOL    HW2  963   0.603   0.481   3.014 -0.6174 -0.4298 -0.8368
  241SOL     MW  964   0.671   0.464   3.063 -0.5512 -0.1733  0.2240
  242SOL     OW  965   1.493   1.691   2.309 -0.1028 -0.5267  0.0830
  242SOL    HW1  966   1.443   1.770   2.293 -1.2467  1.0728  1.8361
  242SOL    HW2  967   1.440   1.621   2.261  1.4249  0.8841 -0.6343
  242SOL     MW  968   1.479   1.693   2.301 -0.0522 -0.1295  0.2197
  243SOL     OW  969   1.046   0.331   2.354  0.5272 -0.1638 -0.1869
  243SOL    HW1  970   1.135   0.286   2.354  1.3677 -0.3210 -1.1817
  243SOL    HW2  971   1.033   0.361   2.440  0.0318 -2.5585  1.3534
  243SOL     MW  972   1.056   0.329   2.365  0.5727 -0.5005 -0.1149
  244SOL     OW  973   0.111   0.756   2.388 -0.1212 -0.4288  0.1777
  244SOL    HW1  974   0.082   0.843   2.377 -0.5303  1.0063 -1.5404
  244SOL    HW2  975   0.199   0.758   2.357 -0.4096 -0.9353  0.3457
  244SOL     MW  976   0.119   0.768   2.383 -0.2132 -0.3063 -0.0269
  245SOL     OW  977   1.279   0.208   2.371 -0.3786 -0.2795  0.2244
  245SOL    HW1  978   1.349   0.170   2.312  0.7475 -0.9668  1.4960
  245SOL    HW2  979   1.291   0.156   2.454  2.5916 -0.3694  2.7492
  245SOL     MW  980   1.290   0.196   2.374  0.1619 -0.3820  0.7253
  246SOL     OW  981   1.230   1.090   2.055 -0.0217  0.1295  0.8164
  246SOL    HW1  982   1.153   1.101   2.113  0.7997  0.4308 -1.1369
  246SOL    HW2  983   1.314   1.085   2.110  1.0728 -1.7106  2.4216
  246SOL     MW  984   1.231   1.091   2.070  0.2311 -0.0735  0.7705
  247SOL     OW  985   0.761   0.648   0.135 -0.1771 -0.0870 -0.2333
  247SOL    HW1  986   0.713   0.733   0.134  0.2255  1.9652 -2.6154
  247SOL    HW2  987   0.855   0.670   0.127 -1.7531 -1.6403 -0.9633
  247SOL     MW  988   0.767   0.662   0.134 -0.3319 -0.0212 -0.6439
  248SOL     OW  989   0.314   1.280   2.550 -0.3202 -0.0902 -0.2401
  248SOL    HW1  990   0.324   1.280   2.452 -3.0434 -0.1514 -2.0953
  248SOL    HW2  991   0.373   1.350   2.595  0.2265 -2.1705  1.3596
  248SOL     MW  992   0.323   1.289   2.543 -0.6074 -0.3728 -0.2738
  249SOL     OW  993   2.984   1.936   2.811  0.1116  0.2558 -0.2227
  249SOL    HW1  994   2.963   1.875   2.740 -1.2447  1.1806 -0.2711
  249SOL    HW2  995   3.063   1.903   2.852  0.1959  0.4657  0.0736
  249SOL     MW  996   2.992   1.924   2.807 -0.0562  0.4055 -0.1900
  250SOL     OW  997   2.186   0.815   2.197  0.3749 -0.2975  0.2513
  250SOL    HW1  998   2.166   0.733   2.239 -3.5287 -5.3584 -2.7067
  250SOL    HW2  999   2.194   0.883   2.268  0.9523  2.5095 -0.9560
  250SOL     MW 1000   2.184   0.813   2.212 -0.0640 -0.5948 -0.2982
  251SOL     OW 1001   0.137   0.893   2.034 -0.1326 -0.3329 -0.3282
  251SOL    HW1 1002   0.088   0.817   2.051  0.1798 -2.5989 -1.9370
  251SOL    HW2 1003   0.155   0.893   1.939  0.0097  0.1349 -0.2210
  251SOL     MW 1004   0.133   0.883   2.024 -0.0726 -0.5702 -0.5263
  252SOL     OW 1005   1.672   0.980   2.821  0.0104  0.2686  0.3326
  252SOL    HW1 1006   1.687   1.001   2.913 -1.1626 -2.1905  2.4312
  252SOL    HW2 1007   1.757   1.005   2.780  1.7603  3.2707 -0.8177
  252SOL     MW 1008   1.685   0.986   2.828  0.0866  0.3402  0.4577
  253SOL     OW 1009   1.164   1.701   2.469  0.7331  0.1672  0.4737
  253SOL    HW1 1010   1.145   1.695   2.377 -2.3150  2.5184  0.0484
  253SOL    HW2 1011   1.092   1.753   2.499  2.9605 -1.7535 -2.2643
  253SOL     MW 1012   1.152   1.707   2.461  0.6248  0.2240  0.0563
  254SOL     OW 1013   0.958   1.133   2.228  0.5058  0.0180 -0.3358
  254SOL    HW1 1014   0.941   1.039   2.247 -1.7677 -1.6825  1.6146
  254SOL    HW2 1015   0.916   1.170   2.306  0.7197 -0.6416  0.9883
  254SOL     MW 1016   0.951   1.126   2.241  0.2340 -0.2934  0.0962
  255SOL     OW 1017   0.835   2.563   2.128 -0.3118 -0.2617 -0.5938
  255SOL    HW1 1018   0.762   2.501   2.107 -3.0403 -2.3852  0.7747
  255SOL    HW2 1019   0.907   2.522   2.169  0.3747  1.3850  3.3043
  255SOL     MW 1020   0.835   2.549   2.131 -0.5812 -0.3246  0.1011
  256SOL     OW 1021   1.213   2.765   3.006 -0.2095  0.2439 -0.0396
  256SOL    HW1 1022   1.173   2.693   2.963 -0.6059 -1.4959  1.4898
  256SOL    HW2 1023   1.299   2.769   2.963  2.2562 -0.3637 -1.0591
  256SOL     MW 1024   1.219   2.756   2.995  0.0636 -0.0658  0.0277
  257SOL     OW 1025   0.049   1.873   0.103 -0.4306  0.1326 -0.2448
  257SOL    HW1 1026   0.138   1.859   0.132  1.7213 -2.7595  0.2947
  257SOL    HW2 1027   0.049   1.872   0.009 -0.7265 -1.1056 -0.0276
  257SOL     MW 1028   0.061   1.871   0.094 -0.1857 -0.4124 -0.1450
  258SOL     OW 1029   0.644   0.997   2.441 -0.1090  0.3313 -0.0661
  258SOL    HW1 1030   0.690   1.078   2.427 -0.3332 -2.9467  0.7912
  258SOL    HW2 1031   0.615   0.999   2.528  0.1705 -0.7027 -0.7154
  258SOL     MW 1032   0.646   1.008   2.451 -0.1017 -0.2376 -0.0386
  259SOL     OW 1033   0.820   0.507   2.279  0.3241  0.3490 -0.1088
  259SOL    HW1 1034   0.762   0.431   2.256  1.5214  0.4667 -0.1818
  259SOL    HW2 1035   0.907   0.468   2.279 -0.3615 -1.1157 -1.7771
  259SOL     MW 1036   0.824   0.492   2.276  0.3916  0.1713 -0.3386
  260SOL     OW 1037   0.644   0.102   1.559 -0.3760  0.2285  0.3297
  260SOL    HW1 1038   0.593   0.173   1.528  1.8308 -0.0534 -0.7781
  260SOL    HW2 1039   0.712   0.098   1.496 -0.4421 -0.9687  2.8263
  260SOL     MW 1040   0.646   0.111   1.547 -0.0936  0.0333  0.5130
  261SOL     OW 1041   1.017   0.711   1.993 -0.7507 -0.3351 -0.1728
  261SOL    HW1 1042   1.072   0.711   2.074  3.2443  2.0282  1.3261
  261SOL    HW2 1043   0.985   0.620   1.992 -0.7234 -1.8303  1.4694
  261SOL     MW 1044   1.020   0.699   2.004 -0.2200 -0.2206  0.2416
  262SOL     OW 1045   1.148   0.350   0.118  0.4179  0.6715 -0.5285
  262SOL    HW1 1046   1.243   0.362   0.132  1.2508  1.3747  1.1191
  262SOL    HW2 1047   1.134   0.277   0.059  0.3604  0.6333 -3.7608
  262SOL     MW 1048   1.158   0.342   0.112  0.5202  0.7592 -0.7376
  263SOL     OW 1049   0.362   0.006   2.498  0.0996  0.4341 -0.0810
  263SOL    HW1 1050   0.288   0.071   2.490 -0.0173  2.0643  0.3905
  263SOL    HW2 1051   0.436   0.026   2.439  0.6664  0.2592  2.3961
  263SOL     MW 1052   0.362   0.018   2.489  0.1590  0.6261  0.3080
  264SOL     OW 1053   1.543   1.415   1.931  0.1836  0.5492  0.5219
  264SOL    HW1 1054   1.505   1.333   1.903 -0.6860  1.5502 -0.6339
  264SOL    HW2 1055   1.632   1.386   1.957 -1.5456 -0.8533 -1.9116
  264SOL     MW 1056   1.550   1.400   1.931 -0.1592  0.4962  0.0483
  265SOL     OW 1057   0.733   2.807   2.288 -0.1776 -0.0652 -0.1860
  265SOL    HW1 1058   0.803   2.756   2.250  1.2220  0.8978 -2.1965
  265SOL    HW2 1059   0.720   2.779   2.379 -2.1769  1.8222  0.2211
  265SOL     MW 1060   0.741   2.797   2.295 -0.2568  0.3109 -0.3975
  266SOL     OW 1061   0.881   0.886   2.112 -0.0963 -0.1072  0.5025
  266SOL    HW1 1062   0.868   0.953   2.047 -0.7504 -1.7418 -2.1447
  266SOL    HW2 1063   0.931   0.819   2.071  0.6863 -2.0777 -0.5382
  266SOL     MW 1064   0.886   0.886   2.098 -0.0793 -0.5828  0.0159
  267SOL     OW 1065   1.373   1.682   2.650  0.2073 -0.6075 -0.0901
  267SOL    HW1 1066   1.447   1.636   2.617 -3.4851  0.2305 -1.8223
  267SOL    HW2 1067   1.309   1.676   2.578 -2.5126  1.3864  1.7204
  267SOL     MW 1068   1.374   1.675   2.636 -0.6388 -0.2338 -0.0798
  268SOL     OW 1069   0.157   0.893   1.760  0.2919 -0.1155  0.5315
  268SOL    HW1 1070   0.111   0.973   1.731  0.2833  0.6140  1.4669
  268SOL    HW2 1071   0.119   0.828   1.699  1.6972 -1.6782  3.0206
  268SOL     MW 1072   0.146   0.895   1.748  0.4761 -0.2255  0.9834
  269SOL     OW 1073   1.324   1.889   2.294 -0.2834 -0.4061  0.1181
  269SOL    HW1 1074   1.352   1.970   2.346 -2.2184  1.5698 -1.2737
  269SOL    HW2 1075   1.266   1.835   2.352 -3.1934 -2.2095  0.1538
  269SOL     MW 1076   1.320   1.892   2.308 -0.9226 -0.3834 -0.0609
  270SOL     OW 1077   1.121   0.387   1.566 -0.0400 -0.5336 -0.3445
  270SOL    HW1 1078   1.086   0.309   1.608 -0.7379 -1.5598 -0.8062
  270SOL    HW2 1079   1.213   0.393   1.590 -0.5935 -0.6605  1.1715
  270SOL     MW 1080   1.129   0.377   1.575 -0.2051 -0.6857 -0.2054
  271SOL     OW 1081   0.879   0.117   2.473  0.5251  0.2208  0.2639
  271SOL    HW1 1082   0.927   0.037   2.493 -1.0296 -0.4642 -0.4320
  271SOL    HW2 1083   0.932   0.171   2.413 -1.3172 -1.0042  0.0258
  271SOL     MW 1084   0.893   0.113   2.468  0.0769 -0.0312  0.1407
  272SOL     OW 1085   1.449   2.807   2.828  0.2488 -0.4102 -0.2683
  272SOL    HW1 1086   1.410   2.817   2.743  1.1734 -1.4644 -0.3026
  272SOL    HW2 1087   1.508   2.883   2.844 -0.1724 -2.7483  1.1752
  272SOL     MW 1088   1.452   2.818   2.819  0.3152 -0.8578 -0.0824
  273SOL     OW 1089   1.407   0.800   2.754 -0.0724 -0.3164 -0.0453
  273SOL    HW1 1090   1.488   0.846   2.785 -0.6613 -2.0457  2.0314
  273SOL    HW2 1091   1.348   0.867   2.719  2.1418  3.4338 -1.5568
  273SOL     MW 1092   1.410   0.815   2.753  0.1421 -0.0498  0.0293
  274SOL     OW 1093   1.450   0.701   0.166  0.3058 -0.6358 -0.1508
  274SOL    HW1 1094   1.519   0.666   0.220  0.6682  0.3910  0.2516
  274SOL    HW2 1095   1.370   0.711   0.222 -0.1875  1.8611 -2.6616
  274SOL     MW 1096   1.449   0.698   0.181  0.2886 -0.1708 -0.4290
  275SOL     OW 1097   1.794   0.536   1.750  0.2980  0.3883 -0.0434
  275SOL    HW1 1098   1.853   0.562   1.824  2.0173 -1.4383  1.2047
  275SOL    HW2 1099   1.795   0.443   1.760 -0.5834  1.6990 -1.4819
  275SOL     MW 1100   1.802   0.527   1.761  0.4085  0.3202 -0.0685
  276SOL     OW 1101   0.461   1.204   1.911 -0.3816 -0.0246 -0.4829
  276SOL    HW1 1102   0.474   1.126   1.962 -1.4361  1.0796  2.6374
  276SOL    HW2 1103   0.393   1.243   1.966  0.5691 -1.2806  3.7986
  276SOL     MW 1104   0.453   1.199   1.925 -0.3953 -0.0446  0.4937
  277SOL     OW 1105   1.995   1.084   2.435 -0.6929 -0.0717  0.1857
  277SOL    HW1 1106   2.005   1.178   2.452 -0.5503 -0.5839 -1.4505
  277SOL    HW2 1107   1.959   1.077   2.345  3.0897  0.3785 -1.2961
  277SOL     MW 1108   1.992   1.095   2.425 -0.1750 -0.0799 -0.2257
  278SOL     OW 1109   1.450   0.658   1.707  0.3320 -0.2451 -0.4699
  278SOL    HW1 1110   1.461   0.598   1.792 -0.2984 -4.5181 -0.5959
  278SOL    HW2 1111   1.538   0.666   1.667 -2.2793 -2.5628 -2.4753
  278SOL     MW 1112   1.463   0.651   1.713 -0.0957 -1.1147 -0.7511
  279SOL     OW 1113   0.534   0.075   2.285 -0.2822  0.0441  0.5402
  279SOL    HW1 1114   0.630   0.049   2.280  0.5297 -3.0895  4.1242
  279SOL    HW2 1115   0.537   0.169   2.254 -2.1590  0.7005  0.9504
  279SOL     MW 1116   0.547   0.084   2.280 -0.4227 -0.2827  1.0672
  280SOL     OW 1117   1.463   1.104   2.202  0.2606 -0.6391 -0.0045
  280SOL    HW1 1118   1.502   1.038   2.142  2.8346 -2.2220 -0.4084
  280SOL    HW2 1119   1.446   1.059   2.290  1.3107  0.0457  1.2560
  280SOL     MW 1120   1.466   1.090   2.206  0.7388 -0.7576  0.1085
  281SOL     OW 1121   1.335   1.138   2.682 -0.9857  0.3501  0.7198
  281SOL    HW1 1122   1.415   1.200   2.681  0.0940 -0.7843  2.1394
  281SOL    HW2 1123   1.321   1.126   2.776 -0.6853  1.7601  0.8997
  281SOL     MW 1124   1.344   1.145   2.695 -0.8036  0.3864  0.9308
  282SOL     OW 1125   1.187   1.271   1.592  0.2380  0.3043 -0.0127
  282SOL    HW1 1126   1.168   1.357   1.559  1.6297 -0.9730  1.2615
  282SOL    HW2 1127   1.101   1.240   1.641 -1.4179 -2.4391  0.1602
  282SOL     MW 1128   1.173   1.278   1.594  0.2031 -0.2262  0.1782
  283SOL     OW 1129   0.840   1.399   0.018 -0.2753  0.7410 -0.0649
  283SOL    HW1 1130   0.935   1.387   0.023 -1.3116 -0.1547  2.6998
  283SOL    HW2 1131   0.836   1.495  -0.008 -1.4559 -0.2458 -1.1019
  283SOL     MW 1132   0.852   1.410   0.015 -0.5678  0.4926  0.1630
  284SOL     OW 1133   0.400   0.704   2.319 -0.3858 -0.6700  0.6385
  284SOL    HW1 1134   0.479   0.766   2.304  2.8060 -0.6676 -2.0084
  284SOL    HW2 1135   0.419   0.642   2.242  0.9208 -0.2414 -0.6785
  284SOL     MW 1136   0.413   0.704   2.307  0.2078 -0.6132  0.1155
  285SOL     OW 1137   0.886   0.851   2.869  0.2913 -0.5014  0.4315
  285SOL    HW1 1138   0.898   0.856   2.774 -1.4601  0.7950  1.3745
  285SOL    HW2 1139   0.802   0.808   2.888 -2.4109 -1.2860 -1.1696
  285SOL     MW 1140   0.876   0.846   2.859 -0.2963 -0.4339  0.3447
  286SOL     OW 1141   1.134   1.447   2.591 -0.1850  0.1537  0.3897
  286SOL    HW1 1142   1.117   1.358   2.556  1.7837  2.0996  1.9639
  286SOL    HW2 1143   1.103   1.512   2.532  0.8572  1.4725 -0.5765
  286SOL     MW 1144   1.127   1.444   2.578  0.2123  0.5844  0.4699
  287SOL     OW 1145   1.189   1.021   0.364 -0.3116  0.1891  0.2396
  287SOL    HW1 1146   1.157   1.053   0.452  1.2249 -1.1797  2.2049
  287SOL    HW2 1147   1.137   1.056   0.288 -0.4494 -3.0261 -1.5953
  287SOL     MW 1148   1.178   1.030   0.366 -0.1271 -0.4157  0.2568
  288SOL     OW 1149   1.461   0.618   2.114 -0.0428 -0.1682  0.2217
  288SOL    HW1 1150   1.397   0.618   2.183 -2.9101 -0.3407  2.4468
  288SOL    HW2 1151   1.500   0.710   2.094 -0.1685 -0.9765  0.8067
  288SOL     MW 1152   1.457   0.630   2.120 -0.4377 -0.2976  0.5925
  289SOL     OW 1153   0.935   0.954   2.599 -0.2984 -0.1627  0.0340
  289SOL    HW1 1154   0.983   0.880   2.563  1.1376 -2.7841 -0.3546
  289SOL    HW2 1155   0.853   0.961   2.548 -0.6140 -0.3906 -3.1639
  289SOL     MW 1156   0.930   0.945   2.587 -0.1506 -0.5386 -0.4392
  290SOL     OW 1157   0.807   0.643   1.458 -0.1045  0.3793 -0.0503
  290SOL    HW1 1158   0.866   0.590   1.402 -2.2243 -1.0573  0.2852
  290SOL    HW2 1159   0.855   0.655   1.542 -0.0524  1.0424  0.3947
  290SOL     MW 1160   0.821   0.637   1.462 -0.3773  0.2773  0.0527
  291SOL     OW 1161   0.204   0.353   0.159  0.5177 -0.9351 -0.3487
  291SOL    HW1 1162   0.301   0.342   0.173  0.8194  0.1630  0.1672
  291SOL    HW2 1163   0.184   0.275   0.107  1.5140  0.2629 -1.9326
  291SOL     MW 1164   0.214   0.341   0.154  0.6890 -0.6321 -0.4896
  292SOL     OW 1165   1.047   0.641   0.096 -0.2884 -0.0027  0.2065
  292SOL    HW1 1166   1.105   0.685   0.159 -1.6494 -0.3223 -1.7920
  292SOL    HW2 1167   1.083   0.548   0.095  1.9465  0.3847 -2.4929
  292SOL     MW 1168   1.059   0.635   0.104 -0.1731  0.0062 -0.4133
  293SOL     OW 1169   0.096   0.112   2.557  0.0279 -0.3648 -0.0064
  293SOL    HW1 1170   0.063   0.073   2.477  1.2362 -0.1219 -0.6464
  293SOL    HW2 1171   0.019   0.138   2.603 -0.9569 -1.4320  0.5464
  293SOL     MW 1172   0.082   0.111   2.553  0.0574 -0.4735 -0.0179
  294SOL     OW 1173   1.316   0.501   2.352  0.1743 -0.6093 -0.0974
  294SOL    HW1 1174   1.349   0.545   2.426 -1.2231  0.3165 -0.2819
  294SOL    HW2 1175   1.292   0.410   2.380  3.7010 -3.2151 -0.7090
  294SOL     MW 1176   1.317   0.495   2.365  0.4553 -0.8310 -0.2025
  295SOL     OW 1177   0.828   0.588   2.542  0.5441  0.5734  0.0736
  295SOL    HW1 1178   0.809   0.562   2.452 -0.9850 -0.2098  0.5414
  295SOL    HW2 1179   0.743   0.604   2.589 -2.0542  2.9218  0.3806
  295SOL     MW 1180   0.814   0.587   2.537 -0.0005  0.7799  0.1758
  296SOL     OW 1181   1.261   0.239   2.053 -0.0341  0.9684  0.1861
  296SOL    HW1 1182   1.325   0.169   2.041 -1.2248 -0.2968 -1.1448
  296SOL    HW2 1183   1.264   0.264   2.142  3.1223 -1.1429 -1.0959
  296SOL     MW 1184   1.270   0.233   2.063  0.2252  0.5229 -0.1586
  297SOL     OW 1185   1.416   0.374   1.596 -0.4986  0.4062  0.5933
  297SOL    HW1 1186   1.436   0.457   1.640 -0.5034 -0.8107 -1.4752
  297SOL    HW2 1187   1.460   0.303   1.643 -3.1830 -2.4060  2.0580
  297SOL     MW 1188   1.424   0.376   1.608 -0.8534 -0.1254  0.5136
  298SOL     OW 1189   1.584   0.880   2.088  0.1965 -0.0215  0.5921
  298SOL    HW1 1190   1.631   0.919   2.014 -1.4582  3.1337 -0.1487
  298SOL    HW2 1191   1.655   0.859   2.149 -1.1204 -0.0516 -0.7262
  298SOL     MW 1192   1.599   0.882   2.086 -0.1956  0.3908  0.3204
  299SOL     OW 1193   0.573   1.178   0.085  0.0348  0.1873  0.2362
  299SOL    HW1 1194   0.581   1.173  -0.007  1.6478  0.4833  0.0515
  299SOL    HW2 1195   0.663   1.186   0.111  1.0660  2.8210 -4.0859
  299SOL     MW 1196   0.586   1.179   0.077  0.3837  0.5739 -0.3585
  300SOL     OW 1197   1.105   1.189   2.559 -0.4199 -0.3885  0.2733
  300SOL    HW1 1198   1.069   1.102   2.580  2.8665 -1.2098 -1.6754
  300SOL    HW2 1199   1.184   1.194   2.620  1.5130 -0.6675  0.9846
  300SOL     MW 1200   1.111   1.178   2.570  0.2688 -0.5337  0.1100
  301SOL     OW 1201   1.443   1.056   0.738  0.5099  0.3853  0.4997
  301SOL    HW1 1202   1.469   1.096   0.822 -0.0855  1.5746  0.1367
  301SOL    HW2 1203   1.384   0.981   0.755 -2.5730 -0.4658  0.0822
  301SOL     MW 1204   1.439   1.052   0.751  0.0246  0.4300  0.3967
  302SOL     OW 1205   0.171   1.558   2.037  0.0486  0.1099 -0.0206
  302SOL    HW1 1206   0.151   1.461   2.032  1.1878  0.2621  1.2445
  302SOL    HW2 1207   0.086   1.592   2.067 -1.2705 -3.3483 -0.3369
  302SOL     MW 1208   0.157   1.550   2.040  0.0249 -0.3263  0.1046
  303SOL     OW 1209   0.349   1.773   2.658 -0.2305  0.0317 -0.2621
  303SOL    HW1 1210   0.314   1.753   2.575 -2.1045  2.3488  1.9480
  303SOL    HW2 1211   0.274   1.778   2.709 -0.9736 -0.0713 -1.3824
  303SOL     MW 1212   0.335   1.771   2.653 -0.5758  0.3239 -0.1183
  304SOL     OW 1213   0.485   2.055   2.420 -0.3743 -0.1355  0.6141
  304SOL    HW1 1214   0.560   2.107   2.378  1.3404  0.3694  2.0510
  304SOL    HW2 1215   0.528   1.969   2.438  3.7840  1.0773 -0.4737
  304SOL     MW 1216   0.501   2.050   2.417  0.4006  0.0911  0.6602
  305SOL     OW 1217   1.112   0.675   0.543  0.2572  0.0320 -0.6280
  305SOL    HW1 1218   1.035   0.661   0.487  0.4415  2.7520  2.2057
  305SOL    HW2 1219   1.152   0.591   0.538  0.2368  1.1409 -0.2953
  305SOL     MW 1220   1.107   0.662   0.535  0.2788  0.5372 -0.2102
  306SOL     OW 1221   1.072   1.528   0.262  0.1259 -0.7818  0.2597
  306SOL    HW1 1222   1.103   1.440   0.295 -0.2661 -2.3319  3.1185
  306SOL    HW2 1223   1.131   1.548   0.185 -0.3130  2.0842 -0.4353
  306SOL     MW 1224   1.084   1.519   0.256  0.0162 -0.6082  0.5452
  307SOL     OW 1225   1.382   0.456   1.912  0.5748  0.3128  0.3189
  307SOL    HW1 1226   1.318   0.395   1.949 -1.6504  0.3188 -0.6549
  307SOL    HW2 1227   1.396   0.517   1.986 -1.6783  1.5801 -1.1952
  307SOL     MW 1228   1.375   0.456   1.926 -0.0160  0.4808 -0.0093
  308SOL     OW 1229   2.208   0.494   2.676 -0.2073  0.0985  0.3702
  308SOL    HW1 1230   2.301   0.504   2.705 -0.2827 -0.0929  0.0606
  308SOL    HW2 1231   2.176   0.588   2.688 -1.9044 -1.4082 -0.9438
  308SOL     MW 1232   2.216   0.508   2.682 -0.4412 -0.1255  0.1560
  309SOL     OW 1233   0.509   0.581   0.239  0.1782 -0.6807 -0.0680
  309SOL    HW1 1234   0.598   0.613   0.258  0.4430  2.8676 -0.6473
  309SOL    HW2 1235   0.514   0.488   0.216  1.0814  0.7006  0.1044
  309SOL     MW 1236   0.521   0.573   0.238  0.3323 -0.0303 -0.1217
  310SOL     OW 1237   0.440   0.606   1.886 -0.3790 -0.9136 -0.3557
  310SOL    HW1 1238   0.467   0.523   1.842 -2.7222  1.2992  0.6342
  310SOL    HW2 1239   0.474   0.674   1.820  1.9979 -0.7314 -1.8661
  310SOL     MW 1240   0.448   0.604   1.872 -0.3746 -0.5976 -0.4243
  311SOL     OW 1241   1.952   0.627   1.951  0.1896 -0.2265 -0.3039
  311SOL    HW1 1242   1.929   0.670   2.034  0.5803 -0.2854  3.2567
  311SOL    HW2 1243   2.023   0.565   1.984  1.6459 -0.5241  1.3541
  311SOL     MW 1244   1.958   0.624   1.966  0.4333 -0.2735  0.3847
  312SOL     OW 1245   1.742   2.444   0.109 -0.4579  0.0896  0.0686
  312SOL    HW1 1246   1.776   2.431   0.196  1.0230  2.0212 -1.3511
  312SOL    HW2 1247   1.666   2.504   0.122 -1.7217 -0.1415 -0.1204
  312SOL     MW 1248   1.736   2.450   0.122 -0.4293  0.3140 -0.1437
  313SOL     OW 1249   0.128   1.121   3.038  0.2044 -0.1862 -0.0758
  313SOL    HW1 1250   0.063   1.148   3.106  1.3179 -0.8453  0.3735
  313SOL    HW2 1251   0.154   1.201   2.987  1.1204  0.3780 -2.2556
  313SOL     MW 1252   0.123   1.135   3.040  0.4722 -0.1987 -0.3041
  314SOL     OW 1253   2.162   2.950   0.018 -0.0726 -0.1443  0.4430
  314SOL    HW1 1254   2.129   2.951  -0.065  2.3759  2.3831  4.4724
  314SOL    HW2 1255   2.214   3.034   0.019 -0.1967 -1.1702 -1.4037
  314SOL     MW 1256   2.165   2.961   0.007  0.2341  0.0538  0.7310
  315SOL     OW 1257   1.539   1.816   2.967  0.1260  0.4711 -0.1447
  315SOL    HW1 1258   1.498   1.883   3.032  0.1074  0.4257  0.1825
  315SOL    HW2 1259   1.586   1.879   2.916  0.8411 -1.6397 -1.1019
  315SOL     MW 1260   1.540   1.833   2.969  0.2179  0.1866 -0.2278
  316SOL     OW 1261   1.203   0.620   2.712 -0.1079  1.0962 -0.7163
  316SOL    HW1 1262   1.301   0.635   2.717 -0.8724  1.2533  0.3941
  316SOL    HW2 1263   1.168   0.621   2.808 -0.3756  0.6575  0.1949
  316SOL     MW 1264   1.211   0.622   2.725 -0.2441  1.0590 -0.4496
  317SOL     OW 1265   0.663   1.599   2.640 -0.2827 -0.2439 -0.4996
  317SOL    HW1 1266   0.711   1.529   2.669  0.8274  1.5436 -0.0249
  317SOL    HW2 1267   0.660   1.593   2.539 -1.8575  2.1819 -1.6076
  317SOL     MW 1268   0.669   1.589   2.631 -0.3440  0.3120 -0.5832
  318SOL     OW 1269   1.321   0.390   2.965  0.0025 -0.1146 -0.0817
  318SOL    HW1 1270   1.228   0.424   2.973  0.1906 -1.4989  2.4215
  318SOL    HW2 1271   1.370   0.471   2.929 -0.7907  1.5378 -1.2236
  318SOL     MW 1272   1.315   0.405   2.961 -0.0773 -0.0792  0.0979
  319SOL     OW 1273   0.817   0.414   2.823 -1.2214  0.5922 -0.4482
  319SOL    HW1 1274   0.805   0.325   2.796 -1.2171  3.7779 -3.5276
  319SOL    HW2 1275   0.777   0.418   2.906  1.5154 -0.1194 -3.0483
  319SOL     MW 1276   0.810   0.403   2.830 -0.8597  0.9186 -1.1976
  320SOL     OW 1277   1.053   1.379   1.964 -0.0169 -0.6100 -0.2375
  320SOL    HW1 1278   1.114   1.308   1.980 -0.7966  2.3083  2.0513
  320SOL    HW2 1279   1.117   1.448   1.944  1.2677 -2.2842  0.8902
  320SOL     MW 1280   1.069   1.379   1.964  0.0497 -0.4458  0.2133
  321SOL     OW 1281   1.112   0.902   3.035 -0.6164  0.0461  0.4018
  321SOL    HW1 1282   1.035   0.877   2.985 -0.5594  2.3631  1.3223
  321SOL    HW2 1283   1.159   0.817   3.061  0.3676  0.0093  1.1580
  321SOL     MW 1284   1.108   0.888   3.032 -0.4791  0.3470  0.6231
  322SOL     OW 1285   1.237   0.830   1.679  0.8178  0.4690 -0.7513
  322SOL    HW1 1286   1.310   0.771   1.693  0.4723  1.7919  1.4299
  322SOL    HW2 1287   1.212   0.852   1.766  0.0195  1.5691 -1.0247
  322SOL     MW 1288   1.243   0.825   1.693  0.6669  0.7887 -0.4996
  323SOL     OW 1289   1.239   1.595   1.885  0.3106 -0.4888 -0.1964
  323SOL    HW1 1290   1.287   1.565   1.809  1.1339 -1.3620  1.5211
  323SOL    HW2 1291   1.172   1.650   1.844  0.8032  0.2037 -1.7178
  323SOL     MW 1292   1.236   1.599   1.870  0.4842 -0.5127 -0.1705
  324SOL     OW 1293   1.445   0.989   2.463  0.3289 -0.4399 -0.2284
  324SOL    HW1 1294   1.381   1.024   2.525 -1.0570  2.4107  3.5436
  324SOL    HW2 1295   1.527   1.035   2.496 -2.0337  2.1149  0.2135
  324SOL     MW 1296   1.447   1.000   2.476 -0.1656  0.2733  0.3276
  325SOL     OW 1297   1.060   0.520   2.926 -0.5154  0.3561 -0.4198
  325SOL    HW1 1298   1.064   0.579   2.997  0.1286 -0.3502 -1.4164
  325SOL    HW2 1299   0.972   0.493   2.918  0.3470  1.0626  1.3434
  325SOL     MW 1300   1.049   0.524   2.934 -0.3167  0.3562 -0.3187
  326SOL     OW 1301   0.327   1.386   2.270  0.0056  0.4219  0.5673
  326SOL    HW1 1302   0.418   1.375   2.251  0.5664  1.1835 -2.7575
  326SOL    HW2 1303   0.312   1.476   2.250  1.7396 -1.3407  1.5162
  326SOL     MW 1304   0.337   1.396   2.265  0.3084  0.2899  0.2538
  327SOL     OW 1305   1.957   0.813   2.430 -0.0046  0.4738 -0.3501
  327SOL    HW1 1306   1.909   0.765   2.504 -2.0272  2.6751  1.1066
  327SOL    HW2 1307   1.974   0.903   2.451 -0.2996 -1.3477  0.6594
  327SOL     MW 1308   1.953   0.818   2.443 -0.3104  0.5239 -0.0247
  328SOL     OW 1309   0.192   1.295   2.043 -0.2412  0.7901 -0.2401
  328SOL    HW1 1310   0.114   1.242   2.046  0.3087  1.3289 -0.8992
  328SOL    HW2 1311   0.232   1.297   2.126  1.4774 -0.1000 -0.9858
  328SOL     MW 1312   0.187   1.288   2.054  0.0581  0.7437 -0.4254
  329SOL     OW 1313   0.042   0.118   1.387 -0.3762 -0.4061  0.1685
  329SOL    HW1 1314   0.029   0.115   1.483 -0.4974  3.1545  2.0202
  329SOL    HW2 1315   0.144   0.122   1.369  0.6562  0.2000  2.2236
  329SOL     MW 1316   0.053   0.118   1.397 -0.2560  0.1436  0.6839
  330SOL     OW 1317   0.390   3.083   2.049 -0.1516  0.1516 -0.4642
  330SOL    HW1 1318   0.462   3.092   2.114  0.5383  0.2467 -0.2833
  330SOL    HW2 1319   0.310   3.046   2.095 -0.1377  0.4100  1.2392
  330SOL     MW 1320   0.389   3.079   2.064 -0.0588  0.1983 -0.2156
  331SOL     OW 1321   0.782   1.228   2.436 -0.3277  0.3423 -0.1779
  331SOL    HW1 1322   0.708   1.258   2.381  1.5437 -0.7888  1.0849
  331SOL    HW2 1323   0.795   1.293   2.506 -1.4779  1.3965 -2.1417
  331SOL     MW 1324   0.774   1.240   2.438 -0.2326  0.3322 -0.2704
  332SOL     OW 1325   1.335   1.640   2.921 -0.2477 -0.4106  0.4884
  332SOL    HW1 1326   1.345   1.643   2.826 -1.2713  0.9122 -0.6774
  332SOL    HW2 1327   1.413   1.699   2.942 -1.2273  3.4297  0.6666
  332SOL     MW 1328   1.346   1.648   2.911 -0.5120  0.2706  0.3581
  333SOL     OW 1329   1.688   1.381   2.930 -0.2141 -1.0755 -0.0487
  333SOL    HW1 1330   1.791   1.390   2.934  1.5746 -2.1711  2.0949
  333SOL    HW2 1331   1.662   1.291   2.954 -0.4136  1.2225 -0.0178
  333SOL     MW 1332   1.698   1.371   2.933 -0.0044 -0.9168  0.2382
  334SOL     OW 1333   1.291   3.063   2.637  0.3841  1.0023 -0.5551
  334SOL    HW1 1334   1.239   3.011   2.694  2.6267 -1.4034 -1.1426
  334SOL    HW2 1335   1.332   3.139   2.687 -0.2894 -1.0730  0.0131
  334SOL     MW 1336   1.290   3.066   2.651  0.5912  0.4111 -0.5576
  335SOL     OW 1337   1.282   0.701   3.031  0.1025 -0.2231  0.1245
  335SOL    HW1 1338   1.345   0.702   3.093 -2.5422 -0.6636 -1.1475
  335SOL    HW2 1339   1.317   0.707   2.939  2.5045  0.6362 -2.3613
  335SOL     MW 1340   1.295   0.702   3.027  0.0705 -0.1678 -0.3713
  336SOL     OW 1341   0.975   1.154   1.718  0.3799 -0.1588 -0.1685
  336SOL    HW1 1342   0.886   1.187   1.756 -3.3154  1.3383 -0.7914
  336SOL    HW2 1343   1.013   1.091   1.778  0.9932  0.9489 -0.0746
  336SOL     MW 1344   0.968   1.150   1.731 -0.0267  0.1848 -0.2383
  337SOL     OW 1345   0.563   1.898   2.846 -0.1660  0.6894  0.0191
  337SOL    HW1 1346   0.508   1.850   2.783 -0.5746 -0.0896  0.7208
  337SOL    HW2 1347   0.655   1.864   2.833  1.7277 -0.5969  1.1642
  337SOL     MW 1348   0.567   1.887   2.836  0.0299  0.4169  0.2628
  338SOL     OW 1349   1.063   0.744   2.504  0.2401 -0.2998  0.3406
  338SOL    HW1 1350   0.977   0.694   2.508  0.4555  0.5757  1.8618
  338SOL    HW2 1351   1.112   0.701   2.576 -1.7865  2.1307 -1.3173
  338SOL     MW 1352   1.058   0.732   2.514  0.0011  0.1364  0.3226
  339SOL     OW 1353   1.437   1.174   1.839  0.0896  0.4256 -0.2975
  339SOL    HW1 1354   1.406   1.157   1.749 -1.2442 -1.0556 -0.0029
  339SOL    HW2 1355   1.363   1.142   1.893 -1.1154  0.1578 -0.1170
  339SOL     MW 1356   1.423   1.168   1.834 -0.2453  0.1949 -0.2348
  340SOL     OW 1357   1.258   1.505   0.061 -0.6693  0.0967  0.1386
  340SOL    HW1 1358   1.276   1.557  -0.017  1.0039 -1.7533 -0.8347
  340SOL    HW2 1359   1.339   1.470   0.095  0.8351  0.4099  5.1143
  340SOL     MW 1360   1.271   1.507   0.055 -0.2500 -0.1060  0.6667
  341SOL     OW 1361   0.081   1.361   2.809  0.7959  0.2412  0.6305
  341SOL    HW1 1362   0.173   1.361   2.839  1.6764  0.9858  0.5742
  341SOL    HW2 1363   0.080   1.284   2.746  0.7087 -0.3187 -1.0712
  341SOL     MW 1364   0.093   1.351   2.805  0.9005  0.2656  0.3986
  342SOL     OW 1365   1.410   0.298   0.121  0.3267  0.0952  0.0865
  342SOL    HW1 1366   1.473   0.337   0.179 -1.5050 -1.9727  0.0336
  342SOL    HW2 1367   1.407   0.349   0.038  0.5328 -2.6139 -1.2111
  342SOL     MW 1368   1.418   0.310   0.118  0.1122 -0.5350 -0.0917
  343SOL     OW 1369   0.267   0.278   2.210 -1.0707 -0.2057 -0.8138
  343SOL    HW1 1370   0.337   0.230   2.174  1.7056  1.6542 -1.3773
  343SOL    HW2 1371   0.190   0.231   2.176 -0.7987 -0.7886  2.4899
  343SOL     MW 1372   0.266   0.266   2.201 -0.6685 -0.0372 -0.4523
  344SOL     OW 1373   1.710   2.004   0.121 -0.6549 -0.1202 -0.6885
  344SOL    HW1 1374   1.735   2.084   0.071  1.0811  3.7622  0.1884
  344SOL    HW2 1375   1.625   1.990   0.092  2.9773 -1.3649  0.8633
  344SOL     MW 1376   1.702   2.013   0.111  0.0534  0.2278 -0.3681
  345SOL     OW 1377   0.690   1.599   2.368 -0.3055 -0.3085 -0.0528
  345SOL    HW1 1378   0.596   1.597   2.344  1.0638 -2.0550 -1.8239
  345SOL    HW2 1379   0.740   1.570   2.287  2.1627  2.5330  0.0303
  345SOL     MW 1380   0.684   1.595   2.354  0.2008 -0.1640 -0.2755
  346SOL     OW 1381   1.675   1.093   3.086 -0.1596  0.2898  0.5104
  346SOL    HW1 1382   1.755   1.073   3.128 -0.8774 -0.5560 -1.3994
  346SOL    HW2 1383   1.614   1.062   3.146  0.4452  2.8926 -2.1615
  346SOL     MW 1384   1.678   1.086   3.099 -0.1745  0.5216 -0.0941
  347SOL     OW 1385   1.149   0.688   2.248  0.0998 -0.4052 -0.1495
  347SOL    HW1 1386   1.207   0.610   2.254 -0.8727 -0.7700 -1.0307
  347SOL    HW2 1387   1.117   0.701   2.336  0.8478 -1.7875 -0.4258
  347SOL     MW 1388   1.152   0.679   2.260  0.0702 -0.6357 -0.3023
  348SOL     OW 1389   1.342   2.536   1.931 -0.0991 -0.3436 -0.0299
  348SOL    HW1 1390   1.337   2.473   2.003  0.3864 -0.0702 -1.8780
  348SOL    HW2 1391   1.360   2.620   1.983 -0.9547  0.7240 -0.4154
  348SOL     MW 1392   1.344   2.539   1.948 -0.1479 -0.1667 -0.3246
  349SOL     OW 1393   1.430   0.179   2.762  0.6146 -0.5015 -0.0766
  349SOL    HW1 1394   1.368   0.228   2.821 -0.7448  1.1355  2.1119
  349SOL    HW2 1395   1.502   0.136   2.808  2.0143  0.6739  3.1468
  349SOL     MW 1396   1.431   0.179   2.775  0.6199 -0.1304  0.6374
  350SOL     OW 1397   1.843   0.666   2.627  0.3217 -0.2751 -0.0365
  350SOL    HW1 1398   1.786   0.610   2.566  2.0677 -1.3566 -2.4623
  350SOL    HW2 1399   1.928   0.621   2.654 -0.0340  1.3476 -0.3576
  350SOL     MW 1400   1.846   0.653   2.623  0.5051 -0.2037 -0.3989
  351SOL     OW 1401   0.092   1.127   1.639  0.1871 -0.2397 -0.1555
  351SOL    HW1 1402   0.002   1.142   1.679  0.5400 -1.1028  2.8677
  351SOL    HW2 1403   0.129   1.211   1.663 -2.0776 -1.3891 -2.9479
  351SOL     MW 1404   0.085   1.140   1.647 -0.0651 -0.5052 -0.1250
  352SOL     OW 1405   0.827   1.772   2.796 -0.4406  0.3412 -0.1884
  352SOL    HW1 1406   0.810   1.730   2.888  0.4877  2.4672  3.3925
  352SOL    HW2 1407   0.771   1.721   2.732 -3.4628 -0.5248  0.7111
  352SOL     MW 1408   0.817   1.760   2.800 -0.7169  0.5074  0.4028
  353SOL     OW 1409   0.027   2.566   2.706 -0.0233 -0.5398 -0.7361
  353SOL    HW1 1410   0.090   2.528   2.646  0.3649 -1.3789 -0.0019
  353SOL    HW2 1411   0.034   2.661   2.704 -2.1313 -0.6286  0.4027
  353SOL     MW 1412   0.036   2.574   2.698 -0.2502 -0.6622 -0.4890
  354SOL     OW 1413   0.359   2.439   0.888  0.0895  0.3595  0.2903
  354SOL    HW1 1414   0.387   2.413   0.979  3.0187 -0.1898  0.3517
  354SOL    HW2 1415   0.280   2.375   0.856 -1.1965 -2.4849 -2.7312
  354SOL     MW 1416   0.352   2.427   0.896  0.3063 -0.0882 -0.1002
  355SOL     OW 1417   3.073   2.180   0.360  0.3620 -0.0491 -0.2663
  355SOL    HW1 1418   2.985   2.144   0.358 -2.0694 -0.5783 -0.6263
  355SOL    HW2 1419   3.078   2.207   0.460  0.1418  0.5340  0.7472
  355SOL     MW 1420   3.062   2.179   0.373  0.0122 -0.0420 -0.1801
  356SOL     OW 1421   0.781   2.867   1.014 -0.0414  0.7613  0.7758
  356SOL    HW1 1422   0.842   2.893   0.947  0.0286 -0.6817  3.4219
  356SOL    HW2 1423   0.705   2.836   0.962 -0.9804 -0.2513  0.4702
  356SOL     MW 1424   0.779   2.866   0.998 -0.1561  0.4373  1.0846
  357SOL     OW 1425   1.825   2.808   0.482 -0.1017  0.1798 -0.0775
  357SOL    HW1 1426   1.816   2.762   0.565  1.6831  1.1988  1.0230
  357SOL    HW2 1427   1.914   2.781   0.457  1.4479  0.5608 -0.3143
  357SOL     MW 1428   1.836   2.799   0.490  0.3382  0.3645  0.0365
  358SOL     OW 1429   0.428   0.171   1.045 -0.5659 -0.6542 -0.1559
  358SOL    HW1 1430   0.518   0.176   1.021 -1.8321  3.1526  1.5995
  358SOL    HW2 1431   0.382   0.189   0.962 -1.3287 -0.2042 -0.5609
  358SOL     MW 1432   0.434   0.174   1.031 -0.8336 -0.0926  0.0222
  359SOL     OW 1433   0.886   2.994   1.823  0.4901  0.2437  0.0269
  359SOL    HW1 1434   0.887   2.913   1.874 -1.1621 -1.5959  3.1032
  359SOL    HW2 1435   0.893   2.967   1.727 -1.9514 -2.1427 -0.5465
  359SOL     MW 1436   0.887   2.980   1.817 -0.0500 -0.3139  0.3572
  360SOL     OW 1437   0.563   2.775   0.889 -0.0985  0.3165 -0.2341
  360SOL    HW1 1438   0.563   2.730   0.801  2.2540 -1.3898  0.3129
  360SOL    HW2 1439   0.552   2.707   0.954  0.4054  2.0454  0.0077
  360SOL     MW 1440   0.561   2.760   0.886  0.2784  0.3195 -0.1300
  361SOL     OW 1441   0.231   2.640   1.390  0.5722 -0.0060 -0.2790
  361SOL    HW1 1442   0.212   2.716   1.446 -0.2251  0.3840  1.9629
  361SOL    HW2 1443   0.309   2.674   1.347 -3.1926  0.7170  0.3398
  361SOL     MW 1444   0.239   2.655   1.392 -0.0298  0.1408  0.0984
  362SOL     OW 1445   1.390   2.400   0.615  0.0882  0.2349  0.1393
  362SOL    HW1 1446   1.444   2.355   0.677 -0.2735 -1.1160  1.8893
  362SOL    HW2 1447   1.443   2.481   0.594  0.7310 -1.3414 -0.2358
  362SOL     MW 1448   1.404   2.405   0.620  0.1253 -0.1513  0.3207
  363SOL     OW 1449   0.317   3.092   0.619  0.1236 -0.1555  0.3530
  363SOL    HW1 1450   0.326   3.019   0.684  4.9705  2.2773  0.9185
  363SOL    HW2 1451   0.223   3.102   0.600  1.3350  1.5672  0.0801
  363SOL     MW 1452   0.306   3.083   0.625  0.9229  0.3928  0.3916
  364SOL     OW 1453   0.790   0.261   0.125  0.1846  0.1064 -0.0560
  364SOL    HW1 1454   0.724   0.192   0.145 -0.5430 -2.1979  1.0377
  364SOL    HW2 1455   0.753   0.331   0.068  1.3116  0.1481 -0.4435
  364SOL     MW 1456   0.776   0.261   0.120  0.2373 -0.1921  0.0372
  365SOL     OW 1457   0.904   2.028   1.159 -0.1412 -0.0380  0.3813
  365SOL    HW1 1458   0.866   2.114   1.149  0.8205  0.4720  0.9377
  365SOL    HW2 1459   0.863   1.974   1.082  1.1426  3.4120  1.3634
  365SOL     MW 1460   0.893   2.032   1.147  0.1551  0.4845  0.5843
  366SOL     OW 1461   2.956   2.634   0.946  0.2649  0.2919  0.8198
  366SOL    HW1 1462   3.037   2.636   0.993 -0.8599 -0.2757 -0.6684
  366SOL    HW2 1463   2.969   2.689   0.863  0.9827 -0.2016 -2.4635
  366SOL     MW 1464   2.968   2.642   0.941  0.2112  0.1519  0.1903
  367SOL     OW 1465   1.217   2.969   0.924 -0.2859 -0.6623  0.6581
  367SOL    HW1 1466   1.254   3.035   0.864 -0.2674  0.1925 -1.0178
  367SOL    HW2 1467   1.139   2.935   0.876 -1.8607 -0.2505 -3.4965
  367SOL     MW 1468   1.211   2.974   0.910 -0.4912 -0.4952 -0.1112
  368SOL     OW 1469   1.749   0.411   0.708  0.1436  0.1968 -0.7697
  368SOL    HW1 1470   1.782   0.345   0.652  0.6827 -0.3746  3.1224
  368SOL    HW2 1471   1.764   0.494   0.664  0.0997  1.3247  0.6004
  368SOL     MW 1472   1.755   0.413   0.694  0.2089  0.2702 -0.0754
  369SOL     OW 1473   0.148   2.389   1.762  0.4025 -0.0102 -0.3149
  369SOL    HW1 1474   0.251   2.389   1.774  1.3308 -1.8747 -1.6309
  369SOL    HW2 1475   0.140   2.484   1.756  3.1225 -2.5778  0.2408
  369SOL     MW 1476   0.161   2.402   1.763  0.8839 -0.5950 -0.4152
  370SOL     OW 1477   0.734   0.151   0.995  0.1927 -0.7930 -0.0415
  370SOL    HW1 1478   0.779   0.223   0.951 -0.1854  1.2960  0.8013
  370SOL    HW2 1479   0.789   0.077   0.999 -1.7197  1.6370  1.4876
  370SOL     MW 1480   0.747   0.151   0.990 -0.1095 -0.1967  0.2715
  371SOL     OW 1481   1.231   2.806   1.501  0.6195  0.3278 -0.2446
  371SOL    HW1 1482   1.212   2.715   1.480 -1.6639  0.5737  1.5584
  371SOL    HW2 1483   1.219   2.853   1.421  0.5274 -1.4967 -0.7513
  371SOL     MW 1484   1.227   2.800   1.488  0.3061  0.1195 -0.0736
  372SOL     OW 1485   0.792   2.319   0.511 -0.5945  0.5863  0.0046
  372SOL    HW1 1486   0.760   2.234   0.536  1.0797  0.0094 -0.7268
  372SOL    HW2 1487   0.827   2.291   0.428  2.6391 -2.0940  2.5984
  372SOL     MW 1488   0.792   2.304   0.503  0.0530  0.1566  0.2503
  373SOL     OW 1489   2.851   3.016   1.406 -0.3577 -0.2943  0.0399
  373SOL    HW1 1490   2.932   2.979   1.366  0.4093  2.7861  1.3391
  373SOL    HW2 1491   2.818   3.083   1.345 -1.5015 -0.5008  0.4518
  373SOL     MW 1492   2.857   3.020   1.392 -0.4074  0.0849  0.2657
  374SOL     OW 1493   1.608   0.453   0.295 -0.2645  0.4395 -0.2531
  374SOL    HW1 1494   1.688   0.404   0.295  1.3445  1.9869  0.9198
  374SOL    HW2 1495   1.569   0.445   0.382 -0.3287 -0.9378  1.9226
  374SOL     MW 1496   1.613   0.445   0.307 -0.0607  0.4619  0.1887
  375SOL     OW 1497   0.934   2.171   2.320  0.6175 -0.0094 -0.7296
  375SOL    HW1 1498   1.003   2.130   2.380 -1.6812 -0.8215  0.4511
  375SOL    HW2 1499   0.903   2.103   2.260 -1.3629  1.3498  3.5646
  375SOL     MW 1500   0.939   2.157   2.320  0.0529  0.0628 -0.0072
  376SOL     OW 1501   0.727   2.525   0.043  0.6876 -0.1457  0.1139
  376SOL    HW1 1502   0.690   2.462   0.111 -0.0920 -2.1132  0.5177
  376SOL    HW2 1503   0.716   2.474  -0.038  2.4066  0.5031  0.2983
  376SOL     MW 1504   0.721   2.510   0.041  0.8115 -0.3197  0.1915
  377SOL     OW 1505   1.295   2.076   0.909  0.3092 -0.3895 -0.1070
  377SOL    HW1 1506   1.224   2.052   0.852  1.2381 -1.2006 -2.0187
  377SOL    HW2 1507   1.296   2.015   0.981 -0.3544  1.1172  0.4001
  377SOL     MW 1508   1.286   2.065   0.911  0.3442 -0.2977 -0.2923
  378SOL     OW 1509   0.935   2.867   1.551 -0.6253 -0.5255 -0.4072
  378SOL    HW1 1510   0.974   2.775   1.564  2.3588  0.8066  0.6126
  378SOL    HW2 1511   1.021   2.911   1.536  0.7412 -1.6314 -2.3656
  378SOL     MW 1512   0.952   2.861   1.551 -0.0513 -0.4956 -0.5311
  379SOL     OW 1513   1.125   1.650   2.195  0.1172 -0.2978  0.1871
  379SOL    HW1 1514   1.046   1.600   2.185  1.9436 -0.3730 -1.1325
  379SOL    HW2 1515   1.196   1.591   2.165 -0.9427 -0.3357  1.4002
  379SOL     MW 1516   1.124   1.636   2.189  0.2183 -0.3128  0.1731
  380SOL     OW 1517   0.897   0.071   1.417  0.0447  0.2636  0.5558
  380SOL    HW1 1518   0.938  -0.012   1.379 -0.2393 -2.0628 -1.9244
  380SOL    HW2 1519   0.938   0.085   1.504 -0.3598  1.4805  1.4890
  380SOL     MW 1520   0.908   0.062   1.423 -0.0461  0.1172  0.3517
  381SOL     OW 1521   0.798   2.036   0.838  0.6302  0.2322  0.2168
  381SOL    HW1 1522   0.893   2.039   0.834  0.8462 -0.3107  0.9695
  381SOL    HW2 1523   0.765   2.112   0.896  1.7742 -2.0363  0.6156
  381SOL     MW 1524   0.806   2.046   0.845  0.8097 -0.1387  0.3687
  382SOL     OW 1525   0.801   0.140   0.647  0.3614  0.3329 -0.4710
  382SOL    HW1 1526   0.759   0.187   0.716  1.8712  0.0119  1.4168
  382SOL    HW2 1527   0.758   0.054   0.638  0.2432 -0.2136 -1.3493
  382SOL     MW 1528   0.790   0.135   0.655  0.5450  0.2185 -0.3378
  383SOL     OW 1529   0.582   0.065   0.297  0.3160  0.0094  0.4614
  383SOL    HW1 1530   0.644   0.009   0.249  0.5060 -2.1369  0.4642
  383SOL    HW2 1531   0.527  -0.002   0.342 -3.5720 -0.1139 -0.8934
  383SOL     MW 1532   0.583   0.049   0.297 -0.1719 -0.2901  0.2830
  384SOL     OW 1533   0.750   2.970   0.635  0.0806 -0.4586  0.9944
  384SOL    HW1 1534   0.810   2.930   0.708 -0.4590  2.0246  2.2722
  384SOL    HW2 1535   0.681   2.898   0.624 -0.7051  1.6045  2.5281
  384SOL     MW 1536   0.749   2.955   0.643 -0.0943  0.1412  1.3653
  385SOL     OW 1537   1.420   2.088   1.546 -0.6093  0.8920  0.0185
  385SOL    HW1 1538   1.476   2.157   1.590 -0.3598 -0.9537  1.7212
  385SOL    HW2 1539   1.400   2.015   1.607  1.7394  0.3607 -2.3565
  385SOL     MW 1540   1.425   2.088   1.560 -0.2665  0.5784 -0.0702
  386SOL     OW 1541   1.413   0.367   0.864  0.6530 -0.2802  0.6267
  386SOL    HW1 1542   1.363   0.371   0.945  0.1904 -0.7288  0.8039
  386SOL    HW2 1543   1.471   0.291   0.881  2.2356  0.0767  0.9432
  386SOL     MW 1544   1.414   0.357   0.877  0.8008 -0.2923  0.6918
  387SOL     OW 1545   0.803   2.119   1.537 -0.1759  0.1527  0.7468
  387SOL    HW1 1546   0.854   2.181   1.477  0.0059 -0.4556  1.8314
  387SOL    HW2 1547   0.816   2.029   1.501  1.2736 -0.5087 -0.9038
  387SOL     MW 1548   0.812   2.116   1.524  0.0393 -0.0148  0.6721
  388SOL     OW 1549   1.462   2.767   1.310  0.2203  0.1794  0.5688
  388SOL    HW1 1550   1.415   2.854   1.315  0.9700 -1.5119 -2.5966
  388SOL    HW2 1551   1.402   2.715   1.264 -2.8422  2.8902  0.8863
  388SOL     MW 1552   1.448   2.772   1.305 -0.0848  0.3139  0.1930
  389SOL     OW 1553   0.547   0.138   3.052 -0.2299  0.0274 -0.1503
  389SOL    HW1 1554   0.622   0.084   3.031 -3.3809  1.3967 -0.7503
  389SOL    HW2 1555   0.521   0.182   2.972  0.1705  1.4104  3.0971
  389SOL     MW 1556   0.554   0.136   3.039 -0.5928  0.3906  0.1990
  390SOL     OW 1557   1.342   0.024   0.748  0.1708  0.2749 -0.0347
  390SOL    HW1 1558   1.369   0.033   0.655  0.5361 -0.7189  1.7411
  390SOL    HW2 1559   1.409   0.075   0.785  1.4900 -1.1936  1.8495
  390SOL     MW 1560   1.355   0.032   0.741  0.3930 -0.0500  0.4482
  391SOL     OW 1561   0.361   2.172   1.515  0.0058  0.1400 -0.2214
  391SOL    HW1 1562   0.311   2.088   1.535 -1.3193  0.8352  0.9303
  391SOL    HW2 1563   0.295   2.240   1.520  2.0570  2.5936 -0.4318
  391SOL     MW 1564   0.346   2.170   1.519  0.1016  0.5555 -0.0972
  392SOL     OW 1565   2.046   2.228   0.307 -0.2219  0.1650  0.2100
  392SOL    HW1 1566   2.067   2.315   0.337 -3.2149 -0.5336 -0.2166
  392SOL    HW2 1567   1.965   2.209   0.346 -0.0996 -0.0308 -1.9703
  392SOL     MW 1568   2.038   2.237   0.316 -0.6007  0.0470 -0.1339
  393SOL     OW 1569   0.255   2.957   2.860  0.0597  0.1569  0.0810
  393SOL    HW1 1570   0.330   2.919   2.805  0.8107 -0.6604  0.8809
  393SOL    HW2 1571   0.255   3.055   2.851 -0.9427  2.1210 -2.5120
  393SOL     MW 1572   0.265   2.965   2.851  0.0265  0.3082 -0.1556
  394SOL     OW 1573   1.007   1.710   1.521  0.3760  0.9026 -0.1365
  394SOL    HW1 1574   1.020   1.737   1.607  3.9969  1.8443 -0.9731
  394SOL    HW2 1575   0.957   1.782   1.478  0.3177  1.3968 -1.4334
  394SOL     MW 1576   1.002   1.723   1.526  0.8461  1.0920 -0.4180
  395SOL     OW 1577   0.951   2.979   2.574 -0.3511  0.1681  0.6137
  395SOL    HW1 1578   0.991   2.990   2.655 -1.6549 -1.2353  0.5247
  395SOL    HW2 1579   0.985   2.894   2.540  0.2745 -1.1550  0.0963
  395SOL     MW 1580   0.961   2.970   2.580 -0.4406 -0.1917  0.5337
  396SOL     OW 1581   0.717   1.855   2.435  0.2512  0.5664  0.1687
  396SOL    HW1 1582   0.798   1.848   2.484  0.1894  0.6333 -1.1771
  396SOL    HW2 1583   0.715   1.769   2.388 -2.3073  2.0794 -2.7413
  396SOL     MW 1584   0.727   1.842   2.435 -0.0946  0.7749 -0.3928
  397SOL     OW 1585   0.963   2.309   1.402  0.1273  0.1041 -0.6592
  397SOL    HW1 1586   0.984   2.336   1.309 -2.6151 -0.6137 -0.5953
  397SOL    HW2 1587   1.053   2.286   1.432  2.3977  0.8256  1.4565
  397SOL     MW 1588   0.978   2.310   1.394  0.0650  0.1046 -0.3716
  398SOL     OW 1589   0.600   2.727   0.603  0.1273 -0.0208  0.5988
  398SOL    HW1 1590   0.530   2.691   0.554  0.9706  0.6272  1.3905
  398SOL    HW2 1591   0.667   2.657   0.616  0.4815 -0.7986 -2.3718
  398SOL     MW 1592   0.600   2.713   0.598  0.2853 -0.0379  0.3113
  399SOL     OW 1593   0.246   2.094   0.330  1.0359  0.2542  0.3058
  399SOL    HW1 1594   0.163   2.135   0.338  1.9406 -0.0426 -1.0470
  399SOL    HW2 1595   0.291   2.135   0.251  1.0453  1.8924  1.6493
  399SOL     MW 1596   0.241   2.105   0.321  1.1565  0.4312  0.3045
  400SOL     OW 1597   0.573   1.920   0.096  0.3644 -0.2553  0.1113
  400SOL    HW1 1598   0.517   1.998   0.103 -0.5079 -0.6536 -0.0856
  400SOL    HW2 1599   0.569   1.866   0.171 -1.3281 -0.0167  1.7340
  400SOL     MW 1600   0.565   1.924   0.107  0.0260 -0.2764  0.2994
  401SOL     OW 1601   0.804   2.058   0.045 -0.6870  0.1113 -0.2954
  401SOL    HW1 1602   0.884   2.018   0.078  0.3315  3.7033  2.6603
  401SOL    HW2 1603   0.726   2.013   0.077  1.0716 -3.2539  0.8641
  401SOL     MW 1604   0.804   2.047   0.054 -0.3206  0.1413  0.2475
  402SOL     OW 1605   0.536   3.011   1.702 -0.1599  0.4790 -0.7534
  402SOL    HW1 1606   0.603   2.996   1.773 -1.0910  3.0724  2.7144
  402SOL    HW2 1607   0.571   3.091   1.658  1.7930  2.6009  1.8142
  402SOL     MW 1608   0.550   3.019   1.706 -0.0251  1.1011  0.0429
  403SOL     OW 1609   0.106   0.515   0.363  0.1812  0.1353  0.4519
  403SOL    HW1 1610   0.187   0.552   0.413 -0.2831  0.0676  3.0873
  403SOL    HW2 1611   0.136   0.454   0.301  1.7759  2.7623  1.3917
  403SOL     MW 1612   0.121   0.512   0.362  0.3304  0.4729  0.9236
  404SOL     OW 1613   0.974   2.904   0.790 -0.4999  0.5308  0.5934
  404SOL    HW1 1614   1.035   2.839   0.750 -0.7249  2.5664 -1.0643
  404SOL    HW2 1615   1.003   2.996   0.758  0.2664 -1.4072 -0.2897
  404SOL     MW 1616   0.986   2.908   0.781 -0.4285  0.5437  0.2581
  405SOL     OW 1617   0.449   2.477   1.524 -0.1615 -0.2375 -0.3223
  405SOL    HW1 1618   0.460   2.564   1.496 -2.7348  0.6803  0.4250
  405SOL    HW2 1619   0.488   2.422   1.456 -3.2121  0.9117  1.5490
  405SOL     MW 1620   0.455   2.481   1.511 -0.9035  0.0352  0.0232
  406SOL     OW 1621   0.368   2.393   1.161  0.3799  0.0382  0.1167
  406SOL    HW1 1622   0.271   2.402   1.173  1.3423 -1.3627  1.2670
  406SOL    HW2 1623   0.385   2.307   1.205  2.7587 -0.7125 -1.2608
  406SOL     MW 1624   0.358   2.383   1.168  0.8207 -0.2457  0.0867
  407SOL     OW 1625   0.064   2.659   1.169 -0.5087 -0.0831  0.1748
  407SOL    HW1 1626   0.122   2.640   1.247 -1.9537 -1.5813  1.3095
  407SOL    HW2 1627   0.128   2.688   1.099 -0.2170 -2.4636 -2.2628
  407SOL     MW 1628   0.080   2.661   1.170 -0.6608 -0.5949  0.0029
  408SOL     OW 1629   2.114   2.111   0.752  0.4936  0.2486 -0.1149
  408SOL    HW1 1630   2.072   2.169   0.820 -2.4175 -0.1947 -2.1336
  408SOL    HW2 1631   2.035   2.081   0.714  1.2789  0.6549  4.1229
  408SOL     MW 1632   2.098   2.115   0.756  0.2131  0.2437  0.1779
  409SOL     OW 1633   1.558   0.151   0.885  0.4733  0.6118 -0.4004
  409SOL    HW1 1634   1.646   0.182   0.916  0.2287 -3.5744  0.7608
  409SOL    HW2 1635   1.527   0.079   0.944 -0.7669 -1.0814  0.5711
  409SOL     MW 1636   1.565   0.145   0.897  0.2774 -0.1639 -0.1190
  410SOL     OW 1637   1.048   2.447   1.161  0.0882 -0.5431 -0.1021
  410SOL    HW1 1638   0.990   2.512   1.119  2.8139  3.4057 -0.4006
  410SOL    HW2 1639   1.107   2.410   1.095  0.2173 -0.2712  1.0919
  410SOL     MW 1640   1.048   2.451   1.147  0.4649  0.0138  0.0160
  411SOL     OW 1641   2.014   2.997   2.867 -0.0277 -0.1985 -0.1948
  411SOL    HW1 1642   1.983   2.982   2.781  1.1787 -1.4113  0.5302
  411SOL    HW2 1643   1.969   3.077   2.894 -1.1253  1.3735 -2.3761
  411SOL     MW 1644   2.004   3.006   2.859 -0.0133 -0.1511 -0.3869
  412SOL     OW 1645   1.062   2.274   0.608 -0.1994 -0.4455 -0.3802
  412SOL    HW1 1646   1.101   2.326   0.680 -1.8467 -0.4506 -0.4405
  412SOL    HW2 1647   0.976   2.316   0.604  1.1737 -0.3640  0.8042
  412SOL     MW 1648   1.056   2.286   0.617 -0.2356 -0.4354 -0.2319
  413SOL     OW 1649   0.598   2.766   0.079 -0.3324  0.1626 -0.1086
  413SOL    HW1 1650   0.656   2.692   0.081  2.6768 -1.3135 -0.2852
  413SOL    HW2 1651   0.597   2.780  -0.016  0.1133  1.4812  3.0022
  413SOL     MW 1652   0.605   2.758   0.067  0.1234  0.1418  0.2785
  414SOL     OW 1653   1.999   3.038   1.158 -0.3834 -0.0366 -0.3639
  414SOL    HW1 1654   2.058   3.110   1.151  0.2694 -1.4402 -0.2071
  414SOL    HW2 1655   1.949   3.029   1.077 -0.7692  0.6692 -1.8103
  414SOL     MW 1656   2.000   3.047   1.147 -0.3482 -0.1287 -0.5340
  415SOL     OW 1657   1.636   2.812   1.101 -0.2174  0.6290  0.6058
  415SOL    HW1 1658   1.590   2.800   1.186 -0.2580  1.7637 -0.1658
  415SOL    HW2 1659   1.718   2.765   1.100 -1.7199 -0.6504 -0.9508
  415SOL     MW 1660   1.641   2.804   1.112 -0.4210  0.6099  0.2986
  416SOL     OW 1661   0.605   1.771   1.480  0.2869 -0.2546  0.5623
  416SOL    HW1 1662   0.519   1.746   1.471  1.2825 -2.6916  1.6319
  416SOL    HW2 1663   0.653   1.694   1.453  0.0071  0.5521 -1.0303
  416SOL     MW 1664   0.600   1.757   1.475  0.3813 -0.4697  0.4933
  417SOL     OW 1665   0.982   3.042   2.088 -0.0191  0.4471  0.5963
  417SOL    HW1 1666   0.915   3.076   2.147 -0.7472  0.3137  1.2511
  417SOL    HW2 1667   0.939   3.036   1.999 -3.3357  0.5166 -0.3997
  417SOL     MW 1668   0.968   3.046   2.084 -0.5528  0.4387  0.5513
  418SOL     OW 1669   0.737   2.985   0.162  0.5671  0.4701  0.3237
  418SOL    HW1 1670   0.803   2.988   0.092  0.0019  0.1186 -0.4703
  418SOL    HW2 1671   0.689   2.906   0.134  1.3606  1.1805 -3.3462
  418SOL     MW 1672   0.740   2.975   0.149  0.5972  0.5174 -0.2652
  419SOL     OW 1673   0.547   2.700   1.345 -0.0580  0.0675 -0.2956
  419SOL    HW1 1674   0.577   2.772   1.398 -1.1988 -0.8266  1.7457
  419SOL    HW2 1675   0.625   2.650   1.351 -1.4132 -0.7884  1.1870
  419SOL     MW 1676   0.561   2.703   1.353 -0.3873 -0.1634  0.1693
  420SOL     OW 1677   0.763   2.236   1.046 -0.0218 -0.6788 -0.4250
  420SOL    HW1 1678   0.691   2.254   1.106  0.2863  0.5054 -0.0527
  420SOL    HW2 1679   0.802   2.327   1.025  0.0090  0.3373 -1.0818
  420SOL     MW 1680   0.759   2.250   1.051  0.0229 -0.3885 -0.4626
  421SOL     OW 1681   2.930   0.164   0.002 -0.3221  0.0554  0.4722
  421SOL    HW1 1682   2.898   0.142  -0.085 -0.5805  2.2382  1.3266
  421SOL    HW2 1683   2.947   0.081   0.051  0.6533 -1.0081  0.9237
  421SOL     MW 1684   2.928   0.150  -0.003 -0.2275  0.2031  0.6445
  422SOL     OW 1685   0.824   2.518   0.983  0.1948  0.7465  0.0962
  422SOL    HW1 1686   0.745   2.555   1.023  1.2405  0.7935  1.6687
  422SOL    HW2 1687   0.811   2.529   0.890 -1.3376 -1.7365  1.4270
  422SOL     MW 1688   0.812   2.524   0.976  0.1306  0.4251  0.4793
  423SOL     OW 1689   1.442   0.063   0.478 -0.1027  0.1127  0.2083
  423SOL    HW1 1690   1.480   0.056   0.394  0.1766 -0.6080  2.1035
  423SOL    HW2 1691   1.478   0.146   0.495 -0.9587 -1.3225 -1.2076
  423SOL     MW 1692   1.452   0.073   0.469 -0.1788 -0.1717  0.2716
  424SOL     OW 1693   0.652   2.298   1.356 -0.0465  0.1819  0.3114
  424SOL    HW1 1694   0.576   2.238   1.334 -0.4835 -1.3168 -0.1337
  424SOL    HW2 1695   0.698   2.252   1.427  1.5462 -0.3813  0.4030
  424SOL     MW 1696   0.648   2.284   1.362  0.1060 -0.0902  0.2648
  425SOL     OW 1697   1.677   2.775   2.062 -0.3022  0.0525 -0.0871
  425SOL    HW1 1698   1.704   2.785   1.967  2.7745  0.2396 -1.1217
  425SOL    HW2 1699   1.729   2.699   2.102  0.1169  3.0393  0.5411
  425SOL     MW 1700   1.688   2.766   2.054  0.1590  0.4713 -0.1407
  426SOL     OW 1701   0.909   1.743   1.996  0.4772 -0.2274  0.4349
  426SOL    HW1 1702   0.844   1.776   1.930 -0.1117  0.8950 -0.5744
  426SOL    HW2 1703   0.913   1.818   2.057 -2.3177 -1.4366 -2.2718
  426SOL     MW 1704   0.901   1.757   1.995  0.0308 -0.2388 -0.0554
  427SOL     OW 1705   0.350   1.704   1.873  0.1451 -0.1985  0.0574
  427SOL    HW1 1706   0.395   1.647   1.802  1.6811  0.7257 -0.5022
  427SOL    HW2 1707   0.311   1.638   1.943 -2.2588 -1.8048  1.7016
  427SOL     MW 1708   0.351   1.688   1.873  0.0306 -0.2885  0.2005
  428SOL     OW 1709   0.578   2.582   1.080  0.2332 -0.1131  0.0528
  428SOL    HW1 1710   0.521   2.502   1.101 -0.2161 -0.9647 -1.2743
  428SOL    HW2 1711   0.558   2.629   1.167 -0.8122 -2.4559 -0.7975
  428SOL     MW 1712   0.568   2.577   1.095  0.0360 -0.5345 -0.2345
  429SOL     OW 1713   1.182   2.742   1.127  0.0264 -0.2223 -0.5305
  429SOL    HW1 1714   1.095   2.738   1.165 -1.9040  0.5538 -1.2442
  429SOL    HW2 1715   1.199   2.835   1.108  0.7333  1.1631  0.5185
  429SOL     MW 1716   1.173   2.754   1.130 -0.1350  0.0629 -0.4863
  430SOL     OW 1717   1.163   2.744   0.694 -0.3640  0.4430 -0.8510
  430SOL    HW1 1718   1.165   2.654   0.733  0.3327 -0.5709 -0.2280
  430SOL    HW2 1719   1.118   2.729   0.607  2.0186 -0.6519  2.4801
  430SOL     MW 1720   1.157   2.730   0.688  0.0423  0.1647 -0.3293
  431SOL     OW 1721   0.292   1.921   1.136  0.0174  0.0965 -0.3814
  431SOL    HW1 1722   0.375   1.864   1.131  1.4387 -1.8055  2.4719
  431SOL    HW2 1723   0.280   1.952   1.043 -1.4902 -0.6516 -1.4977
  431SOL     MW 1724   0.301   1.918   1.123  0.0060 -0.2532 -0.1522
  432SOL     OW 1725   0.072   0.025   1.130  0.3937 -0.1031  0.1205
  432SOL    HW1 1726   0.060   0.068   1.215  1.9462 -1.6284  0.7795
  432SOL    HW2 1727   0.012  -0.054   1.134  2.4150 -0.4292 -0.1250
  432SOL     MW 1728   0.062   0.020   1.142  0.8652 -0.3474  0.1751
  433SOL     OW 1729   0.663   2.914   1.470  0.2751  0.5823  0.2293
  433SOL    HW1 1730   0.625   2.963   1.544  0.3136 -0.1610 -1.9104
  433SOL    HW2 1731   0.763   2.912   1.496 -1.0268  2.1593 -0.0355
  433SOL     MW 1732   0.671   2.920   1.484  0.1084  0.6923 -0.0880
  434SOL     OW 1733   1.512   2.845   1.571 -0.8249  0.3605 -0.0174
  434SOL    HW1 1734   1.416   2.831   1.582 -0.6262  0.0508 -0.4294
  434SOL    HW2 1735   1.524   2.832   1.475 -0.3574 -0.1570 -0.8630
  434SOL     MW 1736   1.501   2.842   1.560 -0.7370  0.2514 -0.1834
  435SOL     OW 1737   2.755   1.782   0.216  0.5634  0.2865 -0.5233
  435SOL    HW1 1738   2.804   1.827   0.155 -4.9160 -2.2884 -0.2757
  435SOL    HW2 1739   2.665   1.810   0.204 -0.3488 -1.6124  0.4722
  435SOL     MW 1740   2.749   1.791   0.206 -0.2799 -0.3037 -0.3593
  436SOL     OW 1741   1.380   2.689   0.319 -0.8309 -0.2917 -0.3193
  436SOL    HW1 1742   1.444   2.685   0.392 -1.7296  0.9743 -0.0391
  436SOL    HW2 1743   1.341   2.778   0.331  0.7991  0.7936  1.4489
  436SOL     MW 1744   1.383   2.700   0.331 -0.7344  0.0186 -0.0490
  437SOL     OW 1745   1.059   2.988   1.304  0.0969 -0.0018 -0.5322
  437SOL    HW1 1746   1.045   3.018   1.212 -1.2032  1.0080  1.4434
  437SOL    HW2 1747   1.008   2.907   1.301  4.1201 -0.6760 -0.9518
  437SOL     MW 1748   1.051   2.981   1.292  0.4562  0.0425 -0.3269
  438SOL     OW 1749   0.889   2.727   1.927  0.1946 -0.0388  0.0135
  438SOL    HW1 1750   0.857   2.680   2.007  1.3166 -0.2008 -0.6115
  438SOL    HW2 1751   0.900   2.653   1.864  1.1420  0.0235 -3.2512
  438SOL     MW 1752   0.886   2.711   1.929  0.4676 -0.0520 -0.4997
  439SOL     OW 1753   1.181   2.084   0.416  0.4608  0.5627 -0.0862
  439SOL    HW1 1754   1.120   2.119   0.481 -0.1980 -3.7164 -0.7377
  439SOL    HW2 1755   1.190   2.155   0.348  0.3000 -0.3639  1.4568
  439SOL     MW 1756   1.174   2.098   0.416  0.3527 -0.1241  0.0314
  440SOL     OW 1757   1.774   2.965   3.078  0.2344  0.4378 -0.1958
  440SOL    HW1 1758   1.799   2.934   3.165  0.5768 -1.8812 -1.3147
  440SOL    HW2 1759   1.852   2.968   3.029 -2.0351  0.4276 -0.3564
  440SOL     MW 1760   1.788   2.961   3.083 -0.0199  0.1305 -0.3646
  441SOL     OW 1761   0.337   2.665   0.457  0.1416  0.1014 -0.7195
  441SOL    HW1 1762   0.328   2.590   0.387  0.9056 -0.2877 -1.2695
  441SOL    HW2 1763   0.361   2.748   0.414 -0.4938 -0.0430 -1.2706
  441SOL     MW 1764   0.339   2.666   0.442  0.1586  0.0310 -0.8648
  442SOL     OW 1765   3.093   2.290   0.615  0.3471  0.2100  0.1915
  442SOL    HW1 1766   3.086   2.376   0.577 -0.6249 -1.9655  3.1801
  442SOL    HW2 1767   3.005   2.274   0.658 -0.2332 -0.7811  0.1831
  442SOL     MW 1768   3.080   2.299   0.615  0.1422 -0.2078  0.5847
  443SOL     OW 1769   1.501   1.774   1.897 -0.0311  0.4251  0.4865
  443SOL    HW1 1770   1.473   1.792   1.803 -1.5011 -1.0647 -0.3342
  443SOL    HW2 1771   1.454   1.696   1.922  1.0108 -0.0969 -2.7159
  443SOL     MW 1772   1.491   1.766   1.888 -0.0876  0.1597 -0.0443
  444SOL     OW 1773   0.997   2.610   1.617  0.7197 -0.2221  0.4178
  444SOL    HW1 1774   1.064   2.563   1.672  2.1811 -0.2653  1.1516
  444SOL    HW2 1775   0.911   2.581   1.647 -0.8322 -0.1623 -1.9135
  444SOL     MW 1776   0.994   2.600   1.628  0.7078 -0.2199  0.2070
  445SOL     OW 1777   1.220   0.142   1.431  0.4563 -0.4408 -0.2458
  445SOL    HW1 1778   1.246   0.218   1.481 -1.6533  1.5151  0.8893
  445SOL    HW2 1779   1.164   0.182   1.368  1.2783  0.5911  0.9853
  445SOL     MW 1780   1.216   0.158   1.429  0.2864 -0.0466  0.0664
  446SOL     OW 1781   2.783   2.850   1.032  0.0401 -0.0671  0.1526
  446SOL    HW1 1782   2.713   2.893   0.982  0.2239 -4.8398 -0.2116
  446SOL    HW2 1783   2.835   2.792   0.982 -1.2403  0.7437 -0.5752
  446SOL     MW 1784   2.780   2.848   1.019 -0.1046 -0.5899  0.0085
  447SOL     OW 1785   0.027   1.958   1.586  0.4115 -0.0955  0.4472
  447SOL    HW1 1786   0.045   1.890   1.654  0.3231 -1.7533  0.5517
  447SOL    HW2 1787  -0.044   1.925   1.522 -1.8904 -1.1906 -2.5490
  447SOL     MW 1788   0.020   1.945   1.586  0.0961 -0.4587  0.0657
  448SOL     OW 1789   1.784   2.428   1.667 -0.2759 -0.6395 -0.0982
  448SOL    HW1 1790   1.736   2.344   1.660  0.5451  1.9132  0.0443
  448SOL    HW2 1791   1.712   2.498   1.673  0.1941  1.2365 -0.9404
  448SOL     MW 1792   1.768   2.426   1.667 -0.1056 -0.0552 -0.1905
  449SOL     OW 1793   0.885   2.942   0.398 -0.3065 -0.3585 -0.4170
  449SOL    HW1 1794   0.832   2.946   0.317  1.1302 -0.0548  0.6735
  449SOL    HW2 1795   0.824   2.945   0.476  0.9176  0.4170 -0.2481
  449SOL     MW 1796   0.870   2.943   0.397  0.0446 -0.2161 -0.2509
  450SOL     OW 1797   1.179   2.474   0.777  0.1664  0.2281  0.4144
  450SOL    HW1 1798   1.206   2.432   0.855  1.2557  1.4091  0.7721
  450SOL    HW2 1799   1.251   2.454   0.713 -2.1746  0.5301 -1.7776
  450SOL     MW 1800   1.193   2.466   0.779  0.0013  0.4237  0.1724
  451SOL     OW 1801   0.544   1.984   1.711 -0.4665 -0.9420 -0.4632
  451SOL    HW1 1802   0.562   2.067   1.675  0.4537  0.8819  2.3189
  451SOL    HW2 1803   0.470   1.959   1.662 -1.0049  0.5581 -0.7565
  451SOL     MW 1804   0.537   1.992   1.700 -0.4161 -0.5035 -0.1348
  452SOL     OW 1805   0.355   2.638   0.046 -0.2199 -0.8024 -0.1253
  452SOL    HW1 1806   0.434   2.688   0.067  2.4453 -0.3323  1.1575
  452SOL    HW2 1807   0.295   2.705   0.020 -1.3510  2.1074  0.5559
  452SOL     MW 1808   0.357   2.654   0.045 -0.0175 -0.3564  0.1338
  453SOL     OW 1809   0.298   3.089   1.602  0.0828  0.0400  0.3844
  453SOL    HW1 1810   0.357   3.029   1.650  1.2521 -1.6863  0.6329
  453SOL    HW2 1811   0.332   3.090   1.513  1.0519 -0.3207 -1.7282
  453SOL     MW 1812   0.310   3.081   1.597  0.3649 -0.2354  0.1385
  454SOL     OW 1813   0.925   2.756   1.246 -0.2835  0.5097 -0.0062
  454SOL    HW1 1814   0.880   2.676   1.282 -2.2874 -2.5248  0.1460
  454SOL    HW2 1815   0.859   2.782   1.181 -3.2747 -0.6193  1.9747
  454SOL     MW 1816   0.911   2.749   1.242 -0.9426 -0.0396  0.2753
  455SOL     OW 1817   1.686   2.871   0.244  0.8964  0.0882  0.0917
  455SOL    HW1 1818   1.728   2.826   0.323  1.5128 -1.8074 -1.8738
  455SOL    HW2 1819   1.652   2.792   0.200  0.1259 -1.1179  1.2497
  455SOL     MW 1820   1.687   2.854   0.249  0.8760 -0.3210 -0.0149
  456SOL     OW 1821   2.756   0.288   1.492 -0.0540 -0.0908 -0.2792
  456SOL    HW1 1822   2.752   0.225   1.418 -0.1335 -1.9369 -0.9108
  456SOL    HW2 1823   2.836   0.337   1.475  2.3215  1.6995 -1.0688
  456SOL     MW 1824   2.766   0.286   1.480  0.2489 -0.0982 -0.4667
  457SOL     OW 1825   0.784   1.654   3.047  0.0886  0.3058  0.6360
  457SOL    HW1 1826   0.694   1.623   3.021  0.9823 -1.9973 -0.5716
  457SOL    HW2 1827   0.764   1.698   3.131 -2.6468 -0.0114 -2.4891
  457SOL     MW 1828   0.769   1.656   3.055 -0.1544 -0.0399  0.0644
  458SOL     OW 1829   1.372   1.518   0.685  0.1415  0.1135  0.6435
  458SOL    HW1 1830   1.298   1.575   0.643 -1.0417  0.3220 -1.6296
  458SOL    HW2 1831   1.346   1.435   0.655 -2.1952 -1.2161 -0.9299
  458SOL     MW 1832   1.359   1.514   0.676 -0.3229 -0.0344  0.1360
  459SOL     OW 1833   1.560   0.028   0.220  0.2540  0.1055  0.3766
  459SOL    HW1 1834   1.597  -0.059   0.214 -0.9936  1.9078 -0.0922
  459SOL    HW2 1835   1.509   0.032   0.134 -1.4091  0.2741  1.9034
  459SOL     MW 1836   1.558   0.017   0.208 -0.1300  0.3656  0.5162
  460SOL     OW 1837   1.778   2.208   0.668  0.2962  0.5102 -0.3455
  460SOL    HW1 1838   1.683   2.193   0.698  0.0139  0.3883 -1.5534
  460SOL    HW2 1839   1.806   2.120   0.644  1.6708  0.5036 -0.9496
  460SOL     MW 1840   1.769   2.194   0.669  0.4403  0.4932 -0.5846
  461SOL     OW 1841   0.469   2.430   0.634 -0.2264  0.3579  0.2275
  461SOL    HW1 1842   0.408   2.496   0.592  1.2129  2.5039  0.0735
  461SOL    HW2 1843   0.437   2.431   0.723 -2.3082  0.1878  0.5347
  461SOL     MW 1844   0.457   2.439   0.640 -0.3112  0.6186  0.2477
  462SOL     OW 1845   0.294   0.194   1.305 -0.3979 -0.2250  0.1180
  462SOL    HW1 1846   0.329   0.181   1.216  3.0879  0.1640  1.4282
  462SOL    HW2 1847   0.357   0.231   1.366 -0.2438 -0.2562 -0.7481
  462SOL     MW 1848   0.307   0.197   1.301  0.0824 -0.1778  0.1766
  463SOL     OW 1849   1.062   0.053   0.721  0.2692 -0.3024  0.1089
  463SOL    HW1 1850   1.138   0.054   0.658  1.7362 -1.5968 -0.3317
  463SOL    HW2 1851   0.980   0.077   0.666 -0.4694  0.2169  3.3709
  463SOL     MW 1852   1.061   0.056   0.706  0.3653 -0.4047  0.4811
  464SOL     OW 1853   0.780   3.093   2.257  0.3018  0.6265  0.0595
  464SOL    HW1 1854   0.769   3.001   2.280  1.8510  2.2213 -2.1460
  464SOL    HW2 1855   0.807   3.135   2.337  1.4543  1.0237  0.8606
  464SOL     MW 1856   0.782   3.087   2.271  0.6582  0.8894 -0.1258
  465SOL     OW 1857   0.814   0.326   0.407 -0.8557 -0.3980  0.1591
  465SOL    HW1 1858   0.785   0.240   0.448 -4.1275 -2.0359 -1.4570
  465SOL    HW2 1859   0.751   0.332   0.328 -0.5011 -1.2776  1.1492
  465SOL     MW 1860   0.802   0.315   0.402 -1.2406 -0.7302  0.0765
  466SOL     OW 1861   1.078   2.026   0.739  0.4536 -0.3318  0.5946
  466SOL    HW1 1862   1.066   1.948   0.685 -0.8326 -1.4376 -0.4696
  466SOL    HW2 1863   1.072   2.107   0.677 -0.3010  1.0945 -0.6151
  466SOL     MW 1864   1.075   2.026   0.724  0.1843 -0.2895  0.2946
  467SOL     OW 1865   1.271   2.330   1.004 -0.0419 -0.2775 -0.0630
  467SOL    HW1 1866   1.365   2.332   1.018  0.7040  0.4343  0.2659
  467SOL    HW2 1867   1.258   2.236   0.984 -1.6362 -1.2959 -1.7030
  467SOL     MW 1868   1.281   2.318   1.004 -0.1539 -0.3180 -0.2360
  468SOL     OW 1869   0.455   2.661   1.874  0.5601 -0.4579  0.3378
  468SOL    HW1 1870   0.438   2.569   1.859 -0.5216  0.0796  0.6172
  468SOL    HW2 1871   0.383   2.708   1.821  1.3381  2.0016  0.0989
  468SOL     MW 1872   0.443   2.655   1.865  0.5201 -0.0625  0.3431
  469SOL     OW 1873   0.384   2.132   1.875 -0.0310 -0.0492  0.3995
  469SOL    HW1 1874   0.295   2.081   1.870  0.6333 -2.4352 -3.2381
  469SOL    HW2 1875   0.447   2.068   1.837 -0.6148  1.6970 -1.1634
  469SOL     MW 1876   0.380   2.117   1.869 -0.0204 -0.1336 -0.2867
  470SOL     OW 1877   3.071   2.594   0.146 -0.4612 -0.1530 -0.0131
  470SOL    HW1 1878   2.978   2.583   0.184  0.4958 -1.2720 -0.3721
  470SOL    HW2 1879   3.055   2.599   0.053 -1.9868  0.3537 -2.0978
  470SOL     MW 1880   3.056   2.593   0.139 -0.5362 -0.2338 -0.3355
  471SOL     OW 1881   1.174   2.538   1.430 -0.0856  0.4637  0.1960
  471SOL    HW1 1882   1.087   2.537   1.464  0.0727  2.1697  1.3011
  471SOL    HW2 1883   1.155   2.507   1.338  0.3570 -4.5370  1.0617
  471SOL     MW 1884   1.160   2.534   1.423 -0.0063  0.0290  0.4560
  472SOL     OW 1885   2.812   2.100   0.361  0.5236  0.2547 -0.1675
  472SOL    HW1 1886   2.831   2.063   0.273  2.3253 -0.7500 -0.5401
  472SOL    HW2 1887   2.788   2.023   0.411  0.8146  0.4460 -1.3887
  472SOL     MW 1888   2.812   2.085   0.356  0.7997  0.1474 -0.3778
  473SOL     OW 1889   0.802   2.555   1.380  0.5854 -0.1705  0.3585
  473SOL    HW1 1890   0.778   2.463   1.364  1.9601 -1.9772  0.0575
  473SOL    HW2 1891   0.840   2.544   1.469  0.2144 -0.1436  0.9207
  473SOL     MW 1892   0.804   2.541   1.390  0.7178 -0.4053  0.3929
  474SOL     OW 1893   0.716   2.282   1.725  0.0130 -0.1653 -0.2179
  474SOL    HW1 1894   0.785   2.307   1.793 -0.1841  2.8001  0.5824
  474SOL    HW2 1895   0.768   2.223   1.666 -1.0593 -0.5360  3.5154
  474SOL     MW 1896   0.732   2.277   1.726 -0.1545  0.1771  0.3802
  475SOL     OW 1897   1.593   3.087   1.483  0.0327 -0.1969  0.4395
  475SOL    HW1 1898   1.517   3.095   1.423  1.5280  1.5155 -1.5091
  475SOL    HW2 1899   1.570   3.021   1.547 -2.7517  0.3284  0.8694
  475SOL     MW 1900   1.580   3.079   1.483 -0.1374  0.0983  0.2391
  476SOL     OW 1901   1.427   2.593   1.084 -0.1036 -0.3601  0.1002
  476SOL    HW1 1902   1.338   2.631   1.100  0.2893  1.0521 -0.2782
  476SOL    HW2 1903   1.482   2.676   1.085 -1.2527 -1.3298  2.2691
  476SOL     MW 1904   1.422   2.609   1.086 -0.2033 -0.3017  0.3364
  477SOL     OW 1905   0.822   2.572   0.657  0.3647 -0.0781  0.0517
  477SOL    HW1 1906   0.894   2.618   0.617  0.6809  0.2333  0.1654
  477SOL    HW2 1907   0.806   2.493   0.613  0.9488  3.1903  1.6269
  477SOL     MW 1908   0.829   2.568   0.646  0.4835  0.3942  0.2745
  478SOL     OW 1909   0.155   2.671   0.904  0.3443 -0.4834  0.2147
  478SOL    HW1 1910   0.195   2.750   0.869  2.9585 -1.5321  0.1030
  478SOL    HW2 1911   0.222   2.603   0.885  1.8903 -0.5583 -0.7315
  478SOL     MW 1912   0.169   2.673   0.897  0.8932 -0.6316  0.0751
  479SOL     OW 1913   1.437   1.991   1.291 -0.1294 -0.3170 -0.0940
  479SOL    HW1 1914   1.421   2.028   1.374  0.6362 -0.5319 -1.7800
  479SOL    HW2 1915   1.462   1.896   1.304 -1.4235 -1.3967 -0.1873
  479SOL     MW 1916   1.438   1.983   1.304 -0.1991 -0.4878 -0.3287
  480SOL     OW 1917   2.018   2.448   1.314  0.1447 -0.1419  0.1478
  480SOL    HW1 1918   2.007   2.357   1.344  0.7742 -2.1762 -0.0983
  480SOL    HW2 1919   2.026   2.445   1.219 -1.8299 -0.9895 -1.1218
  480SOL     MW 1920   2.017   2.436   1.306 -0.0327 -0.5221 -0.0522
  481SOL     OW 1921   1.037   0.039   1.084 -0.5241 -0.0788 -0.2904
  481SOL    HW1 1922   1.096   0.001   1.015  1.0847  0.5458 -1.2583
  481SOL    HW2 1923   1.086   0.114   1.126  1.8325  1.0045 -1.5098
  481SOL     MW 1924   1.051   0.044   1.080 -0.0009  0.1465 -0.5790
  482SOL     OW 1925   1.099   3.076   0.276 -0.2883  0.0932  0.0924
  482SOL    HW1 1926   1.029   3.029   0.323  0.1386 -0.1491  2.1729
  482SOL    HW2 1927   1.092   3.169   0.314  1.0211 -1.0084 -0.1946
  482SOL     MW 1928   1.089   3.082   0.287 -0.0592 -0.0841  0.3290
  483SOL     OW 1929   0.434   2.939   0.397  0.4024  0.2678  0.3161
  483SOL    HW1 1930   0.354   2.979   0.355 -1.3263  2.5663 -1.9390
  483SOL    HW2 1931   0.433   2.985   0.480  0.2061  1.1597 -0.0022
  483SOL     MW 1932   0.423   2.950   0.402  0.1484  0.6887 -0.0235
  484SOL     OW 1933   1.880   1.927   1.488 -0.3099 -0.3098  0.1307
  484SOL    HW1 1934   1.921   1.990   1.434 -0.0626 -0.1724  1.1051
  484SOL    HW2 1935   1.870   1.979   1.570 -1.8343  1.7168 -0.3242
  484SOL     MW 1936   1.884   1.942   1.492 -0.4784 -0.0242  0.1992
  485SOL     OW 1937   0.562   2.299   0.265  0.2946  0.2339  0.0630
  485SOL    HW1 1938   0.617   2.276   0.342 -1.4538  0.2970 -1.4990
  485SOL    HW2 1939   0.490   2.359   0.297  0.2859 -0.1756  1.1151
  485SOL     MW 1940   0.560   2.304   0.279  0.0628  0.1882 -0.0042
  486SOL     OW 1941   0.160   2.376   1.502  0.4664  0.7934  0.3727
  486SOL    HW1 1942   0.187   2.468   1.474  0.6338  0.8740 -1.3975
  486SOL    HW2 1943   0.140   2.387   1.597 -1.5138  1.0792  1.2163
  486SOL     MW 1944   0.161   2.390   1.511  0.2273  0.8418  0.2504
  487SOL     OW 1945   1.229   1.678   1.049 -0.2948 -0.1343 -0.2339
  487SOL    HW1 1946   1.201   1.759   1.100  4.3125  1.3870 -0.1184
  487SOL    HW2 1947   1.318   1.701   1.021 -1.6349  1.3521  0.0607
  487SOL     MW 1948   1.237   1.692   1.052  0.1363  0.2626 -0.1798
  488SOL     OW 1949   1.604   1.828   0.550 -0.1748 -0.3281  0.2866
  488SOL    HW1 1950   1.677   1.811   0.490 -2.7721 -0.8078  1.7049
  488SOL    HW2 1951   1.575   1.912   0.512  1.1439 -1.9149 -0.7401
  488SOL     MW 1952   1.610   1.837   0.537 -0.3435 -0.6007  0.3383
  489SOL     OW 1953   0.764   0.810   0.612 -0.0448  0.6911  0.3651
  489SOL    HW1 1954   0.816   0.746   0.562  1.2326  0.1254  1.0653
  489SOL    HW2 1955   0.762   0.774   0.702 -1.0189  1.1941 -1.7753
  489SOL     MW 1956   0.771   0.797   0.617 -0.0048  0.6828  0.1751
  490SOL     OW 1957   1.457   2.067   0.464  0.6557 -0.1684 -0.1288
  490SOL    HW1 1958   1.468   2.152   0.426 -1.0083 -1.8176  1.5517
  490SOL    HW2 1959   1.362   2.042   0.438 -0.7021 -1.9537  1.7728
  490SOL     MW 1960   1.446   2.075   0.455  0.2570 -0.6215  0.3438
  491SOL     OW 1961   1.283   2.925   0.422  0.7977  0.0086  0.6271
  491SOL    HW1 1962   1.338   2.999   0.449 -0.4062 -2.7203  1.8355
  491SOL    HW2 1963   1.219   2.964   0.359 -1.4835 -1.2222 -0.6518
  491SOL     MW 1964   1.282   2.940   0.417  0.3379 -0.5139  0.6178
  492SOL     OW 1965   1.493   2.187   0.734 -0.7642  0.5799  0.1838
  492SOL    HW1 1966   1.475   2.151   0.649  1.0407  2.0757  1.1944
  492SOL    HW2 1967   1.427   2.159   0.797 -0.8059 -2.4215  2.3304
  492SOL     MW 1968   1.482   2.179   0.731 -0.5316  0.3813  0.6004
  493SOL     OW 1969   0.183   3.046   0.357 -0.4742  0.2733  0.1504
  493SOL    HW1 1970   0.128   3.094   0.420 -1.8057  0.7965  0.3564
  493SOL    HW2 1971   0.174   3.086   0.270 -0.1827  1.1392  2.3560
  493SOL     MW 1972   0.175   3.057   0.354 -0.6114  0.4566  0.4686
  494SOL     OW 1973   0.410   2.415   1.778 -0.0545  0.2036 -0.1717
  494SOL    HW1 1974   0.416   2.319   1.792 -3.2154 -0.2428  0.5437
  494SOL    HW2 1975   0.441   2.429   1.683  0.4894  0.3848 -0.3047
  494SOL     MW 1976   0.415   2.404   1.768 -0.3998  0.1686 -0.0949
  495SOL     OW 1977   2.875   1.654   2.600 -0.1271  0.2691 -0.5688
  495SOL    HW1 1978   2.852   1.739   2.565  2.1639  1.6690 -2.4236
  495SOL    HW2 1979   2.847   1.646   2.692 -0.4479 -0.3553 -0.2688
  495SOL     MW 1980   2.868   1.664   2.607  0.1328  0.3714 -0.7739
  496SOL     OW 1981   2.915   2.387   2.708 -0.0238  0.2358  0.0952
  496SOL    HW1 1982   2.967   2.319   2.763  0.1386  1.2561  1.6397
  496SOL    HW2 1983   2.974   2.461   2.701  0.5826  0.4380 -1.0633
  496SOL     MW 1984   2.929   2.388   2.714  0.0776  0.3971  0.1461
  497SOL     OW 1985   1.644   2.200   2.610  0.0264 -0.4651  0.3980
  497SOL    HW1 1986   1.559   2.164   2.584 -1.0682 -2.2577  1.0040
  497SOL    HW2 1987   1.649   2.166   2.699 -1.1381 -0.1065  2.1495
  497SOL     MW 1988   1.634   2.191   2.618 -0.2716 -0.6543  0.7090
  498SOL     OW 1989   1.444   2.718   2.344 -0.1362 -0.0606  0.2481
  498SOL    HW1 1990   1.447   2.621   2.351 -0.2719  2.8575 -0.0803
  498SOL    HW2 1991   1.539   2.743   2.365  0.4168  0.6754  2.6945
  498SOL     MW 1992   1.457   2.708   2.348 -0.0811  0.4215  0.5275
  499SOL     OW 1993   0.996   0.146   3.083  0.2321 -0.1972 -0.0160
  499SOL    HW1 1994   0.934   0.194   3.150  0.8922  0.7231  6.1210
  499SOL    HW2 1995   1.063   0.100   3.130 -2.0831 -0.3598 -1.5507
  499SOL     MW 1996   0.996   0.146   3.098  0.0137 -0.0972  0.5912
  500SOL     OW 1997   1.095   2.518   2.777 -0.0932  0.0807 -0.7057
  500SOL    HW1 1998   1.155   2.490   2.850  1.8983 -1.4916 -1.3155
  500SOL    HW2 1999   1.005   2.507   2.816  0.8186  0.0658  0.8790
  500SOL     MW 2000   1.091   2.513   2.792  0.2899 -0.1287 -0.5771
  501SOL     OW 2001   1.797   2.209   3.070 -0.4814 -0.2941 -0.0350
  501SOL    HW1 2002   1.766   2.302   3.076 -0.3931 -3.3744  0.0619
  501SOL    HW2 2003   1.896   2.207   3.072  0.2818 -1.1097  1.2837
  501SOL     MW 2004   1.806   2.221   3.071 -0.3690 -0.8081  0.1518
  502SOL     OW 2005   0.152   2.796   3.083 -0.5026 -0.1241 -0.0293
  502SOL    HW1 2006   0.092   2.747   3.026  0.5291  2.1566 -2.2893
  502SOL    HW2 2007   0.188   2.854   3.013 -0.5155 -1.1601  3.0585
  502SOL     MW 2008   0.149   2.797   3.066 -0.3682  0.0401  0.0799
  503SOL     OW 2009   1.042   2.791   2.178 -0.2808  0.1636  0.1762
  503SOL    HW1 2010   1.056   2.753   2.092 -0.2491  1.9135  1.1749
  503SOL    HW2 2011   1.024   2.878   2.140  0.4602  4.3866  1.5740
  503SOL     MW 2012   1.041   2.797   2.162 -0.1788  0.9516  0.4924
  504SOL     OW 2013   0.073   2.675   2.107 -0.1214  0.2970 -0.1719
  504SOL    HW1 2014   0.114   2.587   2.084 -1.3833  0.3012  0.4328
  504SOL    HW2 2015   0.034   2.653   2.186  0.7347 -1.3592 -2.0720
  504SOL     MW 2016   0.074   2.660   2.115 -0.1750  0.0790 -0.3428
  505SOL     OW 2017   1.697   2.688   2.685  0.0079 -0.1522 -0.3056
  505SOL    HW1 2018   1.690   2.728   2.596 -0.4511  0.1578  1.3396
  505SOL    HW2 2019   1.610   2.695   2.724 -0.7040  2.2740 -0.9215
  505SOL     MW 2020   1.684   2.694   2.678 -0.1466  0.2088 -0.1698
  506SOL     OW 2021   1.612   3.046   2.832  0.4003  0.0594 -0.1559
  506SOL    HW1 2022   1.630   3.050   2.926  2.0433 -1.3053  0.3497
  506SOL    HW2 2023   1.690   3.016   2.779 -0.0887  0.2749 -0.4429
  506SOL     MW 2024   1.625   3.042   2.837  0.5525 -0.0922 -0.1271
  507SOL     OW 2025   0.873   2.734   2.861  0.0810  0.0530  0.1343
  507SOL    HW1 2026   0.896   2.803   2.810  3.2982 -2.2808 -1.7093
  507SOL    HW2 2027   0.777   2.733   2.855  0.6840 -2.3117 -0.3991
  507SOL     MW 2028   0.864   2.743   2.853  0.5850 -0.5669 -0.1794
  508SOL     OW 2029   1.129   2.084   2.519  0.0540  0.1252  0.1673
  508SOL    HW1 2030   1.206   2.051   2.562 -0.1372 -0.6188 -0.4988
  508SOL    HW2 2031   1.115   2.161   2.583 -0.3581  0.6054 -1.2410
  508SOL     MW 2032   1.137   2.090   2.533 -0.0256  0.0904 -0.1064
  509SOL     OW 2033   0.596   2.520   2.827 -0.8716  0.2710  0.5596
  509SOL    HW1 2034   0.611   2.489   2.739 -1.4993 -1.0284  2.0700
  509SOL    HW2 2035   0.507   2.521   2.849  0.4379  3.1209  1.9186
  509SOL     MW 2036   0.586   2.516   2.818 -0.7817  0.4756  0.9382
  510SOL     OW 2037   1.531   2.552   1.708 -0.4775  0.0140  0.2549
  510SOL    HW1 2038   1.510   2.642   1.676  0.2769 -2.5391 -0.8834
  510SOL    HW2 2039   1.470   2.546   1.780  0.5913 -0.1086 -2.1785
  510SOL     MW 2040   1.521   2.563   1.713 -0.2370 -0.3390 -0.2163
  511SOL     OW 2041   0.459   2.646   2.449 -0.6368 -0.1580 -0.1390
  511SOL    HW1 2042   0.531   2.599   2.496 -0.3674  2.8525  0.2225
  511SOL    HW2 2043   0.483   2.638   2.360 -3.9304  3.1520  2.1239
  511SOL     MW 2044   0.472   2.639   2.443 -1.0358  0.6759  0.2073
  512SOL     OW 2045   1.044   2.014   2.862  0.1984  0.0134  0.1880
  512SOL    HW1 2046   0.954   2.048   2.867 -0.6267 -0.5159 -0.0429
  512SOL    HW2 2047   1.049   1.926   2.903 -0.7631  0.4916  0.7297
  512SOL     MW 2048   1.033   2.007   2.868 -0.0374  0.0066  0.2290
  513SOL     OW 2049   1.509   2.438   2.344 -0.3733 -0.0975  0.8041
  513SOL    HW1 2050   1.602   2.446   2.370  1.1404 -2.0369  0.3783
  513SOL    HW2 2051   1.504   2.349   2.374  0.4380  0.3112 -1.2374
  513SOL     MW 2052   1.520   2.427   2.352 -0.0666 -0.2995  0.4785
  514SOL     OW 2053   0.252   2.495   2.585 -0.0085 -0.9003 -0.0652
  514SOL    HW1 2054   0.303   2.537   2.517 -1.5235  0.0754  2.5918
  514SOL    HW2 2055   0.297   2.507   2.669  1.3439  1.6076 -2.1364
  514SOL     MW 2056   0.265   2.502   2.587 -0.0300 -0.4407  0.0121
  515SOL     OW 2057   1.054   2.081   1.807 -0.1386 -0.3157  0.8443
  515SOL    HW1 2058   1.013   2.166   1.823 -1.5290  0.7239  1.3472
  515SOL    HW2 2059   1.115   2.070   1.876 -2.9577 -1.0487 -0.2572
  515SOL     MW 2060   1.056   2.091   1.818 -0.6940 -0.2752  0.7653
  516SOL     OW 2061   1.459   2.490   3.034  0.1749  0.1549  0.0053
  516SOL    HW1 2062   1.516   2.477   2.953 -0.8254 -0.3166 -0.8611
  516SOL    HW2 2063   1.369   2.470   3.009  2.0017  1.1962 -1.8969
  516SOL     MW 2064   1.455   2.485   3.020  0.2840  0.2301 -0.3600
  517SOL     OW 2065   0.609   2.417   2.145 -0.1062 -0.2251 -0.3876
  517SOL    HW1 2066   0.574   2.505   2.154  0.0735  2.1734  0.0051
  517SOL    HW2 2067   0.533   2.361   2.137  0.6133 -2.4277 -2.7718
  517SOL     MW 2068   0.594   2.421   2.145  0.0124 -0.1993 -0.6504
  518SOL     OW 2069   1.921   0.152   2.966  0.3538 -0.5321 -0.4838
  518SOL    HW1 2070   1.889   0.226   2.915 -1.1428  0.8115  0.3459
  518SOL    HW2 2071   1.866   0.147   3.046  0.8415  1.9603 -1.8137
  518SOL     MW 2072   1.910   0.161   2.970  0.2207 -0.0260 -0.5498
  519SOL     OW 2073   0.727   2.573   1.704  0.1532  0.4855  0.5830
  519SOL    HW1 2074   0.703   2.486   1.721  1.6708 -0.5048 -1.3007
  519SOL    HW2 2075   0.671   2.625   1.752  0.1330  0.8560 -1.3650
  519SOL     MW 2076   0.716   2.568   1.712  0.3507  0.4037  0.0775
  520SOL     OW 2077   1.275   2.147   2.933 -0.6402 -0.2527  0.0418
  520SOL    HW1 2078   1.189   2.101   2.935 -0.9994  2.5286  1.3766
  520SOL    HW2 2079   1.312   2.115   3.012  1.0797  1.9543  1.4182
  520SOL     MW 2080   1.268   2.137   2.944 -0.4606  0.4055  0.3995
  521SOL     OW 2081   1.725   2.055   2.310 -0.2199 -0.1638 -0.3949
  521SOL    HW1 2082   1.725   2.113   2.233  2.2869 -1.4150 -0.1151
  521SOL    HW2 2083   1.734   1.961   2.283 -0.4438  0.6037 -1.6393
  521SOL     MW 2084   1.726   2.050   2.297  0.0813 -0.2276 -0.5222
  522SOL     OW 2085   2.844   2.552   2.162 -0.4109  0.4449 -0.0311
  522SOL    HW1 2086   2.925   2.516   2.202  1.6846 -1.7859 -0.1449
  522SOL    HW2 2087   2.798   2.598   2.234  0.8269  0.0856  1.5085
  522SOL     MW 2088   2.849   2.553   2.177  0.0289  0.1032  0.1570
  523SOL     OW 2089   0.856   1.513   2.129 -0.3957 -0.2256  0.0400
  523SOL    HW1 2090   0.862   1.582   2.063  0.4243 -0.8820  1.6477
  523SOL    HW2 2091   0.890   1.435   2.088 -1.8739  1.9631  0.8386
  523SOL     MW 2092   0.862   1.512   2.115 -0.4825 -0.0234  0.3575
  524SOL     OW 2093   0.872   2.437   2.896  1.1410  0.3787  0.3426
  524SOL    HW1 2094   0.787   2.465   2.862  3.1188  0.3007 -0.1312
  524SOL    HW2 2095   0.868   2.343   2.912  0.8194  0.7062 -2.1424
  524SOL     MW 2096   0.860   2.429   2.894  1.3595  0.4116 -0.0478
  525SOL     OW 2097   0.411   2.261   2.113 -0.6417 -0.0117 -0.3548
  525SOL    HW1 2098   0.352   2.212   2.172  0.8684 -3.9448  1.3656
  525SOL    HW2 2099   0.421   2.213   2.028 -2.6005  1.8885 -0.0412
  525SOL     MW 2100   0.404   2.248   2.110 -0.7009 -0.2799 -0.0864
  526SOL     OW 2101   0.703   2.093   1.983  0.3059  0.3483 -0.1732
  526SOL    HW1 2102   0.715   2.144   1.906  0.9864 -1.1299  0.9537
  526SOL    HW2 2103   0.698   2.159   2.052 -0.6899 -1.4688 -1.2488
  526SOL     MW 2104   0.704   2.108   1.982  0.2643 -0.0865 -0.1664
  527SOL     OW 2105   1.314   1.969   2.018  0.2765 -0.0711  0.1484
  527SOL    HW1 2106   1.309   1.942   2.111 -2.0696  0.5836  1.6186
  527SOL    HW2 2107   1.381   1.906   1.992  1.7303 -1.3628 -0.2730
  527SOL     MW 2108   1.322   1.957   2.027  0.1588 -0.1552  0.2868
  528SOL     OW 2109   0.628   2.877   2.934  0.1688  0.1919  1.1811
  528SOL    HW1 2110   0.682   2.950   2.953  0.1399 -0.9346 -1.4570
  528SOL    HW2 2111   0.568   2.905   2.862 -0.7805 -0.4307  0.6070
  528SOL     MW 2112   0.627   2.890   2.927  0.0397 -0.0388  0.7573
  529SOL     OW 2113   0.930   2.350   1.881 -0.3591 -0.6116 -0.1408
  529SOL    HW1 2114   0.949   2.365   1.976 -2.1712 -0.4400 -2.1181
  529SOL    HW2 2115   1.007   2.394   1.839 -2.0677 -0.0183  3.6590
  529SOL     MW 2116   0.943   2.358   1.888 -0.8236 -0.5107  0.0996
  530SOL     OW 2117   1.211   2.402   3.019  0.6133 -0.5199  0.3429
  530SOL    HW1 2118   1.139   2.413   3.074 -0.6036 -0.4618 -0.8577
  530SOL    HW2 2119   1.230   2.309   2.988  2.4005 -0.1406  0.5791
  530SOL     MW 2120   1.204   2.391   3.023  0.6886 -0.4622  0.2157
  531SOL     OW 2121   0.979   1.860   2.582 -0.0441  0.2740 -0.1514
  531SOL    HW1 2122   1.024   1.945   2.562 -1.2663 -0.6170 -1.2563
  531SOL    HW2 2123   0.947   1.865   2.668 -1.3270 -2.0347  3.9084
  531SOL     MW 2124   0.981   1.872   2.591 -0.3747 -0.1482  0.2385
  532SOL     OW 2125   1.733   0.333   2.824  0.3117  0.0596 -0.2967
  532SOL    HW1 2126   1.751   0.265   2.756  3.1141 -2.4095  0.5263
  532SOL    HW2 2127   1.792   0.405   2.804  2.6415  1.6691 -0.9103
  532SOL     MW 2128   1.743   0.333   2.812  0.9888 -0.0538 -0.2690
  533SOL     OW 2129   1.838   2.676   3.008 -0.3733  0.2236  0.1569
  533SOL    HW1 2130   1.779   2.606   3.047 -2.5947 -2.6322  0.0647
  533SOL    HW2 2131   1.782   2.749   2.997 -0.0376  1.8456  1.3162
  533SOL     MW 2132   1.822   2.676   3.012 -0.6221  0.0608  0.2977
  534SOL     OW 2133   1.761   2.427   2.509 -0.0722 -0.0294 -0.4413
  534SOL    HW1 2134   1.726   2.339   2.541 -2.3361 -0.6839  3.2709
  534SOL    HW2 2135   1.831   2.444   2.567  0.8637 -1.2226 -2.4500
  534SOL     MW 2136   1.765   2.417   2.521 -0.2474 -0.2732 -0.2165
  535SOL     OW 2137   1.911   2.398   1.916 -0.0831 -0.0414  0.1520
  535SOL    HW1 2138   1.872   2.413   1.825  0.2415 -1.7255  0.1633
  535SOL    HW2 2139   2.004   2.382   1.896 -0.5833  1.0416  0.7315
  535SOL     MW 2140   1.918   2.398   1.901 -0.1063 -0.1207  0.2300
  536SOL     OW 2141   0.570   1.805   2.062  0.2199  0.0792  0.1215
  536SOL    HW1 2142   0.521   1.759   1.995  2.1760 -1.8645 -1.7078
  536SOL    HW2 2143   0.591   1.889   2.022  0.3950 -2.4050  1.0926
  536SOL     MW 2144   0.566   1.810   2.048  0.5011 -0.5050  0.0083
  537SOL     OW 2145   1.089   0.183   2.795  0.0279 -0.5484 -0.6983
  537SOL    HW1 2146   1.033   0.195   2.873  0.0583 -0.5220 -0.3270
  537SOL    HW2 2147   1.057   0.249   2.737  1.7564 -1.1607  1.1297
  537SOL     MW 2148   1.078   0.193   2.798  0.2599 -0.6257 -0.4081
  538SOL     OW 2149   1.450   0.047   3.069  0.6297 -0.0641  0.1648
  538SOL    HW1 2150   1.437   0.138   3.089 -0.6964 -2.1930  1.0930
  538SOL    HW2 2151   1.357   0.005   3.068 -0.5534 -0.5120 -0.6211
  538SOL     MW 2152   1.436   0.053   3.071  0.2986 -0.4041  0.1836
  539SOL     OW 2153   0.716   2.807   2.576 -0.6103 -0.0714  0.2109
  539SOL    HW1 2154   0.781   2.879   2.586 -0.4426  2.2004  3.3113
  539SOL    HW2 2155   0.732   2.738   2.635  3.4711 -0.7276 -0.2782
  539SOL     MW 2156   0.727   2.808   2.585 -0.0497  0.1418  0.5554
  540SOL     OW 2157   0.343   2.498   2.894 -0.4021 -0.2584 -0.3760
  540SOL    HW1 2158   0.332   2.553   2.972  1.1257  0.3447  0.6765
  540SOL    HW2 2159   0.285   2.423   2.924 -2.1777  0.2642  1.8283
  540SOL     MW 2160   0.334   2.495   2.908 -0.4348 -0.1099  0.0537
  541SOL     OW 2161   0.202   2.929   2.171 -0.4953 -0.2251 -0.9834
  541SOL    HW1 2162   0.150   2.857   2.127 -3.8011 -2.0343  2.1782
  541SOL    HW2 2163   0.265   2.885   2.233  2.1927  0.9483  0.9800
  541SOL     MW 2164   0.204   2.913   2.174 -0.5768 -0.3090 -0.3072
  542SOL     OW 2165   1.025   2.272   2.692 -0.6429  0.0225 -0.0309
  542SOL    HW1 2166   0.943   2.250   2.737 -0.9614 -0.6232 -0.3641
  542SOL    HW2 2167   1.057   2.358   2.728 -0.7820  1.1892 -1.2586
  542SOL     MW 2168   1.019   2.281   2.703 -0.7033  0.0913 -0.2369
  543SOL     OW 2169   1.695   2.419   2.833 -0.7202  0.0262  0.4195
  543SOL    HW1 2170   1.681   2.348   2.775 -2.1572 -1.1382 -0.5698
  543SOL    HW2 2171   1.725   2.492   2.776  2.1962  1.9685  0.3071
  543SOL     MW 2172   1.697   2.419   2.817 -0.5250  0.1289  0.2741
  544SOL     OW 2173   0.775   0.152   2.747  0.0089  0.3075 -0.3727
  544SOL    HW1 2174   0.678   0.162   2.773 -0.8487 -1.1434  1.1616
  544SOL    HW2 2175   0.783   0.154   2.651  1.9068  0.4214 -1.4375
  544SOL     MW 2176   0.763   0.154   2.738  0.1461  0.1311 -0.3107
  545SOL     OW 2177   1.439   2.160   2.335 -0.0769 -0.7350 -0.4978
  545SOL    HW1 2178   1.419   2.187   2.247  0.7051  0.4680  0.5800
  545SOL    HW2 2179   1.533   2.117   2.330  2.8393  0.3003 -0.6405
  545SOL     MW 2180   1.449   2.158   2.323  0.4111 -0.4397 -0.3744
  546SOL     OW 2181   2.892   2.014   0.122 -0.3049 -0.1325 -0.0046
  546SOL    HW1 2182   2.903   2.091   0.067  2.4239 -1.8246  0.5708
  546SOL    HW2 2183   2.976   1.969   0.110 -2.3703 -0.8075  2.8111
  546SOL     MW 2184   2.905   2.019   0.113 -0.2174 -0.4448  0.4428
  547SOL     OW 2185   0.207   0.068   0.097  0.5739 -0.2708  0.1172
  547SOL    HW1 2186   0.253   0.076   0.014 -1.1579 -1.0820  2.9274
  547SOL    HW2 2187   0.120   0.032   0.073 -0.3868  1.2627 -0.0652
  547SOL     MW 2188   0.201   0.064   0.083  0.2187 -0.1755  0.4639
  548SOL     OW 2189   0.314   2.453   0.249 -0.0094 -0.4147 -0.4825
  548SOL    HW1 2190   0.334   2.509   0.170  1.3228 -2.8832  0.7637
  548SOL    HW2 2191   0.229   2.423   0.225 -2.7849 -1.2042 -1.8678
  548SOL     MW 2192   0.305   2.456   0.235 -0.1998 -0.8446 -0.5008
  549SOL     OW 2193   0.850   1.950   2.182  0.0065  0.2473 -0.8355
  549SOL    HW1 2194   0.786   1.982   2.115 -0.0589  0.6857 -2.7820
  549SOL    HW2 2195   0.804   1.936   2.261  0.9613 -3.0245  1.5492
  549SOL     MW 2196   0.836   1.952   2.184  0.1238 -0.1265 -0.7777
  550SOL     OW 2197   1.840   1.732   2.544  1.0219  0.4809  0.0374
  550SOL    HW1 2198   1.799   1.754   2.460  0.5591  1.4740 -2.4607
  550SOL    HW2 2199   1.834   1.809   2.602  0.3568  1.9977  0.7013
  550SOL     MW 2200   1.834   1.745   2.540  0.8731  0.8121 -0.2046
  551SOL     OW 2201   0.886   2.240   0.262 -0.5100 -0.6741 -0.1981
  551SOL    HW1 2202   0.975   2.260   0.245 -4.0451  1.4860 -1.0730
  551SOL    HW2 2203   0.873   2.184   0.181 -0.1628  0.4863 -0.5165
  551SOL     MW 2204   0.896   2.235   0.249 -0.9306 -0.2360 -0.3555
  552SOL     OW 2205   1.756   1.796   2.262 -0.1605  0.2692 -0.1186
  552SOL    HW1 2206   1.687   1.731   2.267  1.4983  0.3538 -1.8245
  552SOL    HW2 2207   1.826   1.750   2.200  1.7085 -4.0425  0.9219
  552SOL     MW 2208   1.756   1.782   2.255  0.3049 -0.2885 -0.2064
  553SOL     OW 2209   1.192   2.244   1.547 -0.4861  0.4292 -0.1104
  553SOL    HW1 2210   1.242   2.163   1.563  1.9761 -1.3579  1.7483
  553SOL    HW2 2211   1.257   2.298   1.496  0.1706  0.7533 -3.0986
  553SOL     MW 2212   1.207   2.241   1.542 -0.0746  0.2362 -0.2594
  554SOL     OW 2213   0.479   2.912   2.705 -0.3211 -0.1810 -0.2726
  554SOL    HW1 2214   0.467   2.991   2.656 -0.3361 -1.4923 -0.6533
  554SOL    HW2 2215   0.538   2.860   2.649 -0.7197  2.2699 -0.6771
  554SOL     MW 2216   0.485   2.916   2.691 -0.3757 -0.0307 -0.3762
  555SOL     OW 2217   0.608   2.459   2.584 -0.4429 -0.2614  0.3919
  555SOL    HW1 2218   0.547   2.386   2.580  0.1816 -0.8145  1.3406
  555SOL    HW2 2219   0.696   2.452   2.541 -2.0355  2.8510  0.9442
  555SOL     MW 2220   0.612   2.448   2.578 -0.5707  0.0763  0.5899
  556SOL     OW 2221   1.066   1.920   0.074  0.3442 -0.1448 -0.4339
  556SOL    HW1 2222   1.094   1.856   0.010  0.3049  2.8165  1.1253
  556SOL    HW2 2223   1.130   1.906   0.149 -0.8401 -3.7583  0.8058
  556SOL     MW 2224   1.078   1.910   0.075  0.1827 -0.2308 -0.0646
  557SOL     OW 2225   1.022   2.705   0.466  0.7829  0.6359 -0.0386
  557SOL    HW1 2226   1.042   2.638   0.397 -0.6618  1.8925 -0.6252
  557SOL    HW2 2227   0.953   2.768   0.437  1.6561 -2.2702  0.3833
  557SOL     MW 2228   1.016   2.705   0.453  0.7075  0.4183 -0.0603
  558SOL     OW 2229   0.198   2.249   3.011 -0.5334 -0.1143  0.4546
  558SOL    HW1 2230   0.118   2.229   2.958  0.7805 -2.1838 -0.1203
  558SOL    HW2 2231   0.155   2.261   3.091 -0.1348 -3.2783  0.4358
  558SOL     MW 2232   0.181   2.248   3.014 -0.3074 -0.8048  0.3763
  559SOL     OW 2233   1.055   2.388   2.181 -0.2385  0.5327 -0.4278
  559SOL    HW1 2234   1.147   2.376   2.178 -0.0926 -2.9645  0.6377
  559SOL    HW2 2235   1.020   2.314   2.228 -1.4545  0.0460 -0.6311
  559SOL     MW 2236   1.062   2.377   2.187 -0.3797  0.0070 -0.3140
  560SOL     OW 2237   1.973   2.773   0.151  0.7146 -0.8778 -0.0788
  560SOL    HW1 2238   2.036   2.818   0.095  1.8147 -1.3427 -0.2453
  560SOL    HW2 2239   1.909   2.730   0.094  0.3625  2.1536  0.7364
  560SOL     MW 2240   1.973   2.773   0.136  0.8133 -0.5392  0.0068
  561SOL     OW 2241   0.414   2.135   0.095  0.7233 -0.4239  0.1391
  561SOL    HW1 2242   0.402   2.167   0.002  2.9876  0.5096 -1.1087
  561SOL    HW2 2243   0.454   2.208   0.148  3.4081 -1.0314  1.1742
  561SOL     MW 2244   0.418   2.149   0.090  1.3763 -0.3809  0.1111
  562SOL     OW 2245   0.668   2.187   2.269  0.3668 -0.0976  0.4554
  562SOL    HW1 2246   0.647   2.274   2.242 -0.2438 -3.6164  0.5829
  562SOL    HW2 2247   0.758   2.190   2.306  2.5954 -3.2422  3.4040
  562SOL     MW 2248   0.677   2.199   2.270  0.5803 -0.9768  0.8612
  563SOL     OW 2249   1.221   0.412   0.525  0.1279 -0.3272  0.4905
  563SOL    HW1 2250   1.172   0.357   0.461  0.8342 -0.2653  0.4391
  563SOL    HW2 2251   1.185   0.397   0.616  3.9848  1.8849 -1.6458
  563SOL     MW 2252   1.210   0.403   0.529  0.7299 -0.0271  0.2019
  564SOL     OW 2253   1.052   2.598   2.370 -0.3116 -0.1659 -0.5909
  564SOL    HW1 2254   1.033   2.669   2.300 -1.4651 -0.8849  0.0837
  564SOL    HW2 2255   1.053   2.639   2.456  1.9458 -1.0307  0.5590
  564SOL     MW 2256   1.050   2.612   2.372 -0.1660 -0.3748 -0.3502
  565SOL     OW 2257   2.760   2.829   2.548  0.2873 -0.0348 -0.0276
  565SOL    HW1 2258   2.755   2.921   2.529 -1.8810 -0.6982  0.6406
  565SOL    HW2 2259   2.762   2.776   2.470 -1.0685  2.2899  2.0977
  565SOL     MW 2260   2.760   2.834   2.535 -0.1777  0.1844  0.3410
  566SOL     OW 2261   2.176   1.925   2.303  0.2358  0.4711 -0.1858
  566SOL    HW1 2262   2.190   1.919   2.210 -0.0667 -0.3849 -0.4483
  566SOL    HW2 2263   2.252   1.974   2.338  2.7563  1.5836 -0.5898
  566SOL     MW 2264   2.188   1.931   2.296  0.5285  0.5049 -0.2737
  567SOL     OW 2265   1.209   3.021   0.012  0.2517  0.1587 -0.5507
  567SOL    HW1 2266   1.160   3.009   0.092  1.3833 -3.3925  0.3845
  567SOL    HW2 2267   1.250   2.937  -0.004 -2.3344  0.2957  0.1047
  567SOL     MW 2268   1.208   3.008   0.021  0.0598 -0.2918 -0.3408
  568SOL     OW 2269   1.639   2.101   2.869  0.4090  0.4553  0.1476
  568SOL    HW1 2270   1.683   2.144   2.940  2.1315 -0.9937 -0.1434
  568SOL    HW2 2271   1.712   2.048   2.836  0.2572  3.4588  2.4138
  568SOL     MW 2272   1.655   2.100   2.874  0.6162  0.6604  0.4082
  569SOL     OW 2273   0.122   2.296   2.455 -0.3006 -0.0763  0.4934
  569SOL    HW1 2274   0.092   2.350   2.381  1.6478 -1.0469 -2.7203
  569SOL    HW2 2275   0.166   2.354   2.519 -0.1258 -0.7841  0.7837
  569SOL     MW 2276   0.124   2.311   2.454 -0.0205 -0.2977  0.1077
  570SOL     OW 2277   1.490   0.357   0.534 -0.0267 -0.5539  0.1745
  570SOL    HW1 2278   1.399   0.376   0.525  0.7146  2.4178  0.2902
  570SOL    HW2 2279   1.518   0.377   0.623  2.0811 -0.3250  0.1056
  570SOL     MW 2280   1.481   0.362   0.544  0.3492 -0.1316  0.1806
  571SOL     OW 2281   1.332   2.368   2.130  0.0484  0.4093 -0.1543
  571SOL    HW1 2282   1.393   2.388   2.200 -0.1908 -1.9562 -1.3297
  571SOL    HW2 2283   1.382   2.314   2.063  1.4312  0.0637 -3.1528
  571SOL     MW 2284   1.346   2.363   2.130  0.1993  0.0516 -0.7050
  572SOL     OW 2285   1.007   2.564   0.062  0.4352 -0.0877 -0.0017
  572SOL    HW1 2286   1.009   2.654   0.046  1.9832 -1.3724  3.1801
  572SOL    HW2 2287   0.913   2.537   0.046 -0.9120 -2.2355  0.8769
  572SOL     MW 2288   0.995   2.573   0.058  0.4617 -0.5406  0.5340
  573SOL     OW 2289   1.174   2.273   0.226 -0.2180  0.1111  0.4792
  573SOL    HW1 2290   1.250   2.286   0.168  1.3735  0.4486 -0.6038
  573SOL    HW2 2291   1.161   2.362   0.259  3.5096  1.1670  0.1025
  573SOL     MW 2292   1.182   2.286   0.222  0.4838  0.2950  0.2866
  574SOL     OW 2293   1.161   2.540   0.309  0.1302 -0.2563  0.0022
  574SOL    HW1 2294   1.231   2.605   0.331  3.4429  2.1018 -0.6635
  574SOL    HW2 2295   1.127   2.583   0.230 -1.1444 -0.2353  1.8183
  574SOL     MW 2296   1.165   2.554   0.302  0.3991  0.0576  0.1540
  575SOL     OW 2297   3.048   2.197   1.678  0.4162  0.0318 -0.6722
  575SOL    HW1 2298   3.102   2.124   1.639  0.1781  0.2700  0.2579
  575SOL    HW2 2299   3.124   2.249   1.717 -0.0164 -2.9915  1.7201
  575SOL     MW 2300   3.065   2.195   1.678  0.3277 -0.3357 -0.2338
  576SOL     OW 2301   2.836   1.837   2.018 -0.4504 -0.0811 -0.1736
  576SOL    HW1 2302   2.864   1.900   1.949  1.1316  3.6671 -0.3561
  576SOL    HW2 2303   2.740   1.823   1.999 -1.4658 -3.5998  0.4719
  576SOL     MW 2304   2.827   1.843   2.006 -0.3757 -0.0509 -0.1126
  577SOL     OW 2305   2.100   0.242   0.043 -0.1251 -0.3557 -0.7927
  577SOL    HW1 2306   2.035   0.224  -0.025  2.4795 -0.1355  0.2852
  577SOL    HW2 2307   2.075   0.202   0.122  2.5922  1.0955 -1.7015
  577SOL     MW 2308   2.088   0.234   0.044  0.5770 -0.1352 -0.7704
  578SOL     OW 2309   1.987   2.095   2.402  0.5719  0.2668 -0.4126
  578SOL    HW1 2310   1.903   2.052   2.388  0.4735  2.7452  1.2799
  578SOL    HW2 2311   2.053   2.040   2.354  1.4401  1.9788  2.5178
  578SOL     MW 2312   1.985   2.082   2.394  0.6735  0.8197  0.1973
  579SOL     OW 2313   0.885   2.428   2.496  0.4309  0.1361  0.1002
  579SOL    HW1 2314   0.945   2.366   2.551  3.6852 -4.3446 -1.1554
  579SOL    HW2 2315   0.941   2.481   2.432  1.6459 -0.7272  0.1865
  579SOL     MW 2316   0.900   2.426   2.495  1.0206 -0.5690 -0.0541
  580SOL     OW 2317   0.963   2.847   3.100 -0.1654 -0.2222 -0.3646
  580SOL    HW1 2318   1.058   2.838   3.079  1.6692 -0.3071  2.0995
  580SOL    HW2 2319   0.918   2.801   3.028 -0.0958  0.5007 -1.2103
  580SOL     MW 2320   0.970   2.840   3.088  0.0858 -0.1381 -0.1510
  581SOL     OW 2321   1.141   2.426   1.750 -0.3426  0.1905  0.6182
  581SOL    HW1 2322   1.206   2.455   1.814 -1.6565 -1.5645 -2.1747
  581SOL    HW2 2323   1.192   2.379   1.681  0.3544 -0.9478 -2.4453
  581SOL     MW 2324   1.157   2.424   1.750 -0.4240 -0.1913 -0.1545
  582SOL     OW 2325   0.028   2.878   2.738 -0.1625  0.1880 -0.1517
  582SOL    HW1 2326  -0.056   2.931   2.737 -1.4536 -0.9729 -0.1160
  582SOL    HW2 2327   0.099   2.941   2.763 -0.3496 -0.1922  0.6319
  582SOL     MW 2328   0.026   2.893   2.741 -0.3576 -0.0154 -0.0436
  583SOL     OW 2329   1.998   2.426   2.682 -0.1669 -0.1575  0.2583
  583SOL    HW1 2330   2.075   2.434   2.631 -2.4820 -4.0562  0.1532
  583SOL    HW2 2331   1.994   2.331   2.699 -2.3804 -0.5012 -0.8895
  583SOL     MW 2332   2.008   2.414   2.678 -0.7644 -0.7172  0.0930
  584SOL     OW 2333   0.096   1.908   2.188  0.1728 -0.1952 -0.1612
  584SOL    HW1 2334   0.100   1.857   2.275 -0.4472  0.3035  1.2804
  584SOL    HW2 2335   0.168   1.976   2.202  2.8894 -0.9680 -0.2855
  584SOL     MW 2336   0.106   1.910   2.202  0.4494 -0.2314  0.0126
  585SOL     OW 2337   1.568   2.649   0.142 -0.3927 -0.5499 -0.2987
  585SOL    HW1 2338   1.519   2.624   0.065  1.2482  2.3201  0.9391
  585SOL    HW2 2339   1.504   2.676   0.207 -2.3901 -1.1719 -1.0521
  585SOL     MW 2340   1.553   2.649   0.141 -0.4397 -0.2533 -0.2348
  586SOL     OW 2341   1.353   2.819   2.569 -0.1209 -0.3123  0.1707
  586SOL    HW1 2342   1.386   2.795   2.474 -1.2013 -0.3701  0.3632
  586SOL    HW2 2343   1.341   2.913   2.562 -3.7120 -0.0120 -1.4590
  586SOL     MW 2344   1.356   2.829   2.556 -0.7373 -0.2803 -0.0189
  587SOL     OW 2345   1.364   1.487   2.188 -0.0153  0.5505 -0.1598
  587SOL    HW1 2346   1.296   1.423   2.225  0.1427  0.1802  0.6338
  587SOL    HW2 2347   1.385   1.460   2.099 -0.1253  2.8551 -0.7746
  587SOL     MW 2348   1.358   1.475   2.181 -0.0090  0.8057 -0.1362
  588SOL     OW 2349   1.386   1.980   2.630  0.0166  0.1510 -0.0006
  588SOL    HW1 2350   1.374   1.883   2.613  0.3475 -1.4230 -0.5578
  588SOL    HW2 2351   1.398   1.988   2.724  0.3847  0.2099 -0.0852
  588SOL     MW 2352   1.386   1.968   2.640  0.1088 -0.0489 -0.0853
  589SOL     OW 2353   1.417   1.988   0.054  0.0646 -0.0054  0.6051
  589SOL    HW1 2354   1.418   2.081   0.079  2.2398 -0.1508  1.5244
  589SOL    HW2 2355   1.367   1.938   0.118 -0.9885  1.5357 -0.8777
  589SOL     MW 2356   1.411   1.994   0.065  0.2127  0.1788  0.5308
  590SOL     OW 2357   0.499   2.676   2.171  0.0829  0.0788 -0.2543
  590SOL    HW1 2358   0.470   2.666   2.078  0.4195  0.7647 -0.1583
  590SOL    HW2 2359   0.558   2.751   2.172  1.0284 -1.9526 -3.1300
  590SOL     MW 2360   0.503   2.684   2.159  0.2520 -0.0987 -0.6210
  591SOL     OW 2361   2.262   0.685   0.076 -0.8895 -0.5955  0.7834
  591SOL    HW1 2362   2.180   0.699   0.117  1.1763  0.3777  0.7464
  591SOL    HW2 2363   2.262   0.747   0.005  1.9449 -4.3544 -0.0526
  591SOL     MW 2364   2.251   0.695   0.072 -0.2429 -0.9631  0.6682
  592SOL     OW 2365   1.702   2.951   0.802 -0.3879  0.5368  0.0289
  592SOL    HW1 2366   1.715   2.993   0.715  0.8286  0.7751 -2.5098
  592SOL    HW2 2367   1.782   2.905   0.817 -0.8018  1.7596  1.4412
  592SOL     MW 2368   1.715   2.950   0.793 -0.2820  0.7296 -0.1197
  593SOL     OW 2369   1.988   0.687   0.782  0.4479  0.6844 -0.4884
  593SOL    HW1 2370   1.917   0.662   0.722  1.7222  0.0045 -0.0369
  593SOL    HW2 2371   2.048   0.611   0.775 -0.7394  0.1449  0.1232
  593SOL     MW 2372   1.987   0.673   0.773  0.4593  0.5235 -0.3481
  594SOL     OW 2373   2.718   1.068   1.390 -0.2404 -0.1591  0.2041
  594SOL    HW1 2374   2.798   1.017   1.370 -3.4697 -1.4664 -1.3887
  594SOL    HW2 2375   2.687   1.066   1.300  0.3800 -0.5408 -0.9924
  594SOL     MW 2376   2.724   1.061   1.375 -0.5846 -0.3820 -0.1639
  595SOL     OW 2377   0.471   0.900   0.860  0.3055  0.4977  0.1840
  595SOL    HW1 2378   0.493   0.956   0.784  1.1306 -2.9814  0.4643
  595SOL    HW2 2379   0.476   0.963   0.936  1.6413  1.2052 -1.7321
  595SOL     MW 2380   0.474   0.916   0.860  0.5906  0.1320 -0.0318
  596SOL     OW 2381   2.458   1.333   0.524 -0.0412  0.4686 -0.0352
  596SOL    HW1 2382   2.483   1.423   0.504  0.8649  0.2741  1.2899
  596SOL    HW2 2383   2.490   1.306   0.610  0.1049  0.0873  0.9443
  596SOL     MW 2384   2.465   1.341   0.532  0.0976  0.3926  0.2689
  597SOL     OW 2385   2.205   0.645   1.574  0.7608  0.1341  0.0895
  597SOL    HW1 2386   2.242   0.588   1.638  0.7552 -2.1739  0.1134
  597SOL    HW2 2387   2.124   0.594   1.537 -1.6866 -2.8912 -1.2750
  597SOL     MW 2388   2.199   0.631   1.578  0.4372 -0.5696 -0.0874
  598SOL     OW 2389   2.598   1.049   2.860 -0.3323  0.7523 -0.3645
  598SOL    HW1 2390   2.598   0.953   2.864  1.9904 -0.1576 -1.6187
  598SOL    HW2 2391   2.692   1.071   2.844  0.4007  0.4830  2.6449
  598SOL     MW 2392   2.610   1.039   2.859  0.0709  0.5967 -0.1329
  599SOL     OW 2393   3.022   0.429   2.188  0.6185 -0.0745  1.1332
  599SOL    HW1 2394   3.027   0.458   2.279  2.6041 -0.9029 -2.9002
  599SOL    HW2 2395   3.063   0.505   2.145 -0.4494  1.9628  0.3529
  599SOL     MW 2396   3.028   0.443   2.194  0.7396  0.0850  0.4981
  600SOL     OW 2397   1.850   1.648   0.879  0.0155  0.3373 -0.6156
  600SOL    HW1 2398   1.890   1.688   0.958  1.2290 -0.4465 -0.5422
  600SOL    HW2 2399   1.788   1.710   0.842  1.3093  0.7455 -0.5078
  600SOL     MW 2400   1.847   1.661   0.884  0.3463  0.2877 -0.5917
  601SOL     OW 2401   2.536   0.705   0.812  0.5960  0.6373  0.2473
  601SOL    HW1 2402   2.524   0.707   0.908  0.3403 -0.7162 -0.2132
  601SOL    HW2 2403   2.479   0.626   0.790 -3.4681 -0.5529 -1.3708
  601SOL     MW 2404   2.527   0.695   0.822  0.0261  0.3017 -0.0270
  602SOL     OW 2405   2.307   1.931   0.754 -0.0178  0.0837 -0.2257
  602SOL    HW1 2406   2.241   1.860   0.731  1.8118 -0.9329 -0.4733
  602SOL    HW2 2407   2.238   2.003   0.754 -3.1052 -4.9394  0.7832
  602SOL     MW 2408   2.289   1.931   0.751 -0.1837 -0.7132 -0.1253
  603SOL     OW 2409   2.959   1.380   1.976  0.2078  0.0385  0.4994
  603SOL    HW1 2410   2.973   1.409   2.063 -1.5159  1.8479 -1.0456
  603SOL    HW2 2411   2.967   1.285   1.962  0.5884 -1.0341 -3.6679
  603SOL     MW 2412   2.962   1.371   1.986  0.0306  0.1357 -0.2543
  604SOL     OW 2413   2.009   1.391   0.400  0.4508 -0.3852 -0.0549
  604SOL    HW1 2414   2.052   1.334   0.465 -0.9381 -2.6610  2.0835
  604SOL    HW2 2415   1.953   1.452   0.452  1.1720  0.0976  2.5495
  604SOL     MW 2416   2.007   1.392   0.415  0.3627 -0.6217  0.5709
  605SOL     OW 2417   2.446   1.456   0.832 -0.6243  0.6075 -0.1839
  605SOL    HW1 2418   2.478   1.518   0.763  1.9712  1.9507 -0.7210
  605SOL    HW2 2419   2.493   1.376   0.821 -2.5263  0.2100  1.0969
  605SOL     MW 2420   2.456   1.453   0.821 -0.5328  0.7323 -0.0857
  606SOL     OW 2421   2.605   1.810   1.875  0.5140  0.0052 -0.1185
  606SOL    HW1 2422   2.513   1.778   1.883 -0.6495 -0.5994 -1.7969
  606SOL    HW2 2423   2.638   1.726   1.837 -1.0929  2.1468  0.7720
  606SOL     MW 2424   2.597   1.795   1.871  0.1485  0.2080 -0.2225
  607SOL     OW 2425   2.408   1.028   3.069 -0.2313 -0.3107  0.2258
  607SOL    HW1 2426   2.485   1.066   3.024  2.8999 -3.3660  0.9252
  607SOL    HW2 2427   2.433   1.026   3.158  0.2181  0.5637 -1.7615
  607SOL     MW 2428   2.422   1.033   3.075  0.2411 -0.5985  0.0559
  608SOL     OW 2429   1.856   0.218   0.528 -0.0975 -0.1477  0.1474
  608SOL    HW1 2430   1.815   0.252   0.446  1.8173 -3.3666  0.7185
  608SOL    HW2 2431   1.813   0.124   0.547  1.1306 -2.1693 -2.0690
  608SOL     MW 2432   1.845   0.210   0.519  0.3172 -0.8391 -0.0697
  609SOL     OW 2433   2.128   1.902   3.082  0.0968 -0.5325  0.0908
  609SOL    HW1 2434   2.071   1.842   3.040 -1.8376 -0.6155  4.1244
  609SOL    HW2 2435   2.103   1.895   3.172  0.5305  0.0336 -0.3006
  609SOL     MW 2436   2.117   1.893   3.088 -0.1012 -0.4688  0.5713
  610SOL     OW 2437   1.800   0.914   1.233  0.4868 -0.1518 -0.0031
  610SOL    HW1 2438   1.791   0.835   1.178  2.0266 -1.3741 -0.9875
  610SOL    HW2 2439   1.713   0.955   1.235  1.0991  0.4414  0.0020
  610SOL     MW 2440   1.788   0.909   1.226  0.7708 -0.2348 -0.1323
  611SOL     OW 2441   2.505   1.628   0.630 -0.3513 -0.2081  0.0676
  611SOL    HW1 2442   2.571   1.589   0.571  1.8282  3.8883  0.0320
  611SOL    HW2 2443   2.437   1.675   0.583  1.4677 -1.9116  1.6680
  611SOL     MW 2444   2.504   1.629   0.616  0.1762  0.1076  0.2740
  612SOL     OW 2445   2.960   2.965   0.319  0.0489 -0.0283 -0.1400
  612SOL    HW1 2446   2.935   2.969   0.410 -0.5836  0.8814 -4.7923
  612SOL    HW2 2447   3.016   2.883   0.322  0.3744  0.7206  2.2843
  612SOL     MW 2448   2.964   2.955   0.332  0.0084  0.1905 -0.4339
  613SOL     OW 2449   1.523   1.140   1.010 -0.0147  0.4936  0.1015
  613SOL    HW1 2450   1.540   1.223   1.051 -2.0848 -0.2674 -0.8206
  613SOL    HW2 2451   1.549   1.083   1.082  0.3210  0.5272 -0.7016
  613SOL     MW 2452   1.529   1.143   1.025 -0.2435  0.3976 -0.1262
  614SOL     OW 2453   2.026   0.480   1.405 -0.3689 -0.0826 -0.4517
  614SOL    HW1 2454   2.037   0.406   1.461 -1.5983 -0.1149 -2.3640
  614SOL    HW2 2455   1.940   0.476   1.360 -0.3921  1.7245 -0.5996
  614SOL     MW 2456   2.016   0.470   1.406 -0.5341  0.1516 -0.7235
  615SOL     OW 2457   2.412   0.722   0.337  0.0025  0.2960 -0.0679
  615SOL    HW1 2458   2.491   0.668   0.356 -2.8069 -0.3616  0.0645
  615SOL    HW2 2459   2.383   0.677   0.253  0.2122 -3.0483 -2.7990
  615SOL     MW 2460   2.418   0.709   0.328 -0.3405 -0.2320 -0.4108
  616SOL     OW 2461   2.506   0.431   1.604  0.6611 -0.4301  0.2955
  616SOL    HW1 2462   2.564   0.368   1.561 -1.4289 -0.7073 -1.0169
  616SOL    HW2 2463   2.475   0.479   1.524  0.1629 -2.1020 -1.5410
  616SOL     MW 2464   2.510   0.429   1.588  0.3196 -0.6873 -0.1200
  617SOL     OW 2465   2.876   0.567   1.870  0.5962 -0.4123 -0.0985
  617SOL    HW1 2466   2.809   0.579   1.935  0.2346 -0.9391 -0.9341
  617SOL    HW2 2467   2.858   0.482   1.836 -1.8522  0.2707  1.2860
  617SOL     MW 2468   2.864   0.557   1.874  0.2255 -0.3917 -0.0261
  618SOL     OW 2469   2.762   0.277   2.005  0.1008 -0.5509 -0.4943
  618SOL    HW1 2470   2.718   0.356   2.040 -1.3832  1.1717  2.1104
  618SOL    HW2 2471   2.833   0.259   2.067  0.6484  1.1721 -3.1124
  618SOL     MW 2472   2.765   0.285   2.018 -0.0227 -0.0963 -0.4961
  619SOL     OW 2473   2.673   0.738   0.079  0.2826 -0.0075 -0.1146
  619SOL    HW1 2474   2.754   0.788   0.092 -1.1781 -1.1637 -1.3202
  619SOL    HW2 2475   2.669   0.678   0.156  0.9509  0.2687 -0.7767
  619SOL     MW 2476   2.683   0.737   0.091  0.1780 -0.1236 -0.3610
  620SOL     OW 2477   2.218   1.067   0.926 -0.0862 -0.2664 -0.2448
  620SOL    HW1 2478   2.282   1.020   0.874  0.3168  0.2521  1.6296
  620SOL    HW2 2479   2.138   1.049   0.878 -0.4428 -0.0640 -1.6902
  620SOL     MW 2480   2.216   1.058   0.913 -0.0800 -0.1713 -0.1882
  621SOL     OW 2481   1.467   2.204   1.961  0.1012 -0.0463  0.0327
  621SOL    HW1 2482   1.419   2.116   1.958 -1.5367 -0.3714  0.5785
  621SOL    HW2 2483   1.566   2.193   1.984  1.8371 -0.6759 -0.2294
  621SOL     MW 2484   1.474   2.191   1.964  0.1142 -0.1722  0.0701
  622SOL     OW 2485   2.662   0.244   0.275 -0.5430 -0.4986  0.2074
  622SOL    HW1 2486   2.751   0.285   0.264  1.6287  1.6166 -2.9192
  622SOL    HW2 2487   2.672   0.149   0.284  1.4233  0.2209  0.0552
  622SOL     MW 2488   2.675   0.237   0.275  0.0029 -0.1246 -0.2252
  623SOL     OW 2489   2.410   2.757   0.889 -0.3632  0.2176  0.2262
  623SOL    HW1 2490   2.459   2.835   0.889 -1.7517 -0.5515  0.9173
  623SOL    HW2 2491   2.331   2.780   0.948 -0.1512 -1.0259 -0.0128
  623SOL     MW 2492   2.406   2.770   0.897 -0.5184 -0.0480  0.2859
  624SOL     OW 2493   2.160   1.574   3.042  0.3173 -0.5636  0.2802
  624SOL    HW1 2494   2.106   1.492   3.024 -1.1170 -2.3632 -1.1685
  624SOL    HW2 2495   2.110   1.640   3.007  0.3534 -0.8585  0.6017
  624SOL     MW 2496   2.147   1.572   3.035  0.1329 -0.8400  0.1315
  625SOL     OW 2497   2.220   1.905   1.046  0.1872 -0.7912 -0.5529
  625SOL    HW1 2498   2.282   1.854   1.095 -1.9785  1.7472  0.1977
  625SOL    HW2 2499   2.253   1.912   0.958 -1.5900 -0.8753 -0.1176
  625SOL     MW 2500   2.232   1.899   1.041 -0.3330 -0.4674 -0.3964
  626SOL     OW 2501   0.122   1.786   2.452  0.1957  0.1270  0.2064
  626SOL    HW1 2502   0.076   1.718   2.493 -1.3764  1.3598  0.5950
  626SOL    HW2 2503   0.093   1.867   2.488  1.5057 -1.0956  0.2941
  626SOL     MW 2504   0.112   1.788   2.462  0.1612  0.1284  0.2692
  627SOL     OW 2505   2.513   0.831   2.564  0.3308  0.3143 -0.5996
  627SOL    HW1 2506   2.458   0.896   2.611  0.5102 -0.1687 -0.7129
  627SOL    HW2 2507   2.475   0.818   2.477 -0.0043 -1.1587  0.0561
  627SOL     MW 2508   2.501   0.838   2.559  0.3103  0.0562 -0.5280
  628SOL     OW 2509   2.280   1.362   1.315  0.5015 -0.5159 -0.2687
  628SOL    HW1 2510   2.228   1.299   1.270  0.8547  2.0671  1.6430
  628SOL    HW2 2511   2.367   1.352   1.280 -0.4862 -1.1825 -2.3141
  628SOL     MW 2512   2.285   1.352   1.304  0.4178 -0.2630 -0.2863
  629SOL     OW 2513   1.766   0.571   1.313 -0.1243  0.0924 -0.0683
  629SOL    HW1 2514   1.802   0.610   1.234  1.5772  1.6362  1.3443
  629SOL    HW2 2515   1.680   0.530   1.297  0.8223  1.0912 -1.5337
  629SOL     MW 2516   1.760   0.571   1.300  0.2251  0.4279 -0.0753
  630SOL     OW 2517   2.416   1.877   3.017  0.1553  0.6588  0.2030
  630SOL    HW1 2518   2.431   1.972   3.012  0.6110 -0.9039  0.6592
  630SOL    HW2 2519   2.326   1.852   3.047  0.9150 -1.7857 -0.2034
  630SOL     MW 2520   2.406   1.886   3.021  0.3156  0.1301  0.2096
  631SOL     OW 2521   2.107   1.756   1.518  0.2653  0.5118 -0.5177
  631SOL    HW1 2522   2.085   1.678   1.566  1.3168  1.8382 -0.7801
  631SOL    HW2 2523   2.024   1.795   1.494 -0.0246  2.8472  1.1331
  631SOL     MW 2524   2.093   1.751   1.521  0.3658  0.9949 -0.3345
  632SOL     OW 2525   0.279   1.913   1.533  0.1999 -0.8134  0.3768
  632SOL    HW1 2526   0.183   1.917   1.544  4.0234  0.7981 -1.3300
  632SOL    HW2 2527   0.290   1.818   1.520 -3.0479  0.6930  2.0741
  632SOL     MW 2528   0.268   1.901   1.532  0.2758 -0.4021  0.3755
  633SOL     OW 2529   2.628   0.540   0.389  0.0864 -0.0004  0.5540
  633SOL    HW1 2530   2.686   0.525   0.462 -1.5424 -1.1875  1.8214
  633SOL    HW2 2531   2.590   0.452   0.361 -1.4512  0.4288 -1.6547
  633SOL     MW 2532   2.630   0.526   0.395 -0.3314 -0.1004  0.4298
  634SOL     OW 2533   2.631   3.096   0.644 -0.5785  0.2652  0.1395
  634SOL    HW1 2534   2.681   3.181   0.634  0.8025  0.3327  1.7922
  634SOL    HW2 2535   2.608   3.072   0.554  1.5263 -1.8648 -0.0846
  634SOL     MW 2536   2.634   3.104   0.631 -0.1186 -0.0070  0.3280
  635SOL     OW 2537   2.629   0.051   1.903  0.3198 -0.3818  0.0857
  635SOL    HW1 2538   2.677  -0.003   1.834 -0.7169 -0.5496  2.0974
  635SOL    HW2 2539   2.681   0.128   1.927 -1.4949 -1.8384 -0.0843
  635SOL     MW 2540   2.642   0.054   1.897 -0.0564 -0.5961  0.3287
  636SOL     OW 2541   2.726   1.672   0.818  0.0539  0.9409 -0.4342
  636SOL    HW1 2542   2.640   1.692   0.781 -2.6598 -1.1069 -1.3516
  636SOL    HW2 2543   2.742   1.747   0.874  1.0832  0.9405 -2.7578
  636SOL     MW 2544   2.717   1.685   0.820 -0.1683  0.6706 -0.8619
  637SOL     OW 2545   2.863   1.506   0.659  0.0012 -0.4739 -0.0118
  637SOL    HW1 2546   2.931   1.568   0.625 -0.1315 -0.0950 -0.2229
  637SOL    HW2 2547   2.813   1.560   0.724 -0.8104 -0.5809  2.2314
  637SOL     MW 2548   2.865   1.522   0.663 -0.1234 -0.4380  0.2564
  638SOL     OW 2549   2.795   0.491   0.615 -0.0029  0.3664  0.2395
  638SOL    HW1 2550   2.877   0.533   0.581 -0.0899 -0.0732  2.2568
  638SOL    HW2 2551   2.797   0.523   0.702  0.3292  2.2034 -1.2906
  638SOL     MW 2552   2.806   0.501   0.622  0.0295  0.5508  0.3038
  639SOL     OW 2553   1.725   3.075   0.563 -0.5593 -0.2469  0.2714
  639SOL    HW1 2554   1.632   3.074   0.538 -0.7454  2.2329 -2.7181
  639SOL    HW2 2555   1.764   3.008   0.513 -0.9052 -0.1179  0.1539
  639SOL     MW 2556   1.718   3.066   0.553 -0.6295  0.0973 -0.1385
  640SOL     OW 2557   0.323   1.370   0.101 -0.5559 -0.3141 -0.0423
  640SOL    HW1 2558   0.343   1.354   0.002  0.9757  1.9589 -3.0123
  640SOL    HW2 2559   0.325   1.282   0.144 -0.8796  1.4411 -1.4841
  640SOL     MW 2560   0.326   1.356   0.094 -0.3965  0.2174 -0.6244
  641SOL     OW 2561   2.124   0.373   0.394  0.8045 -0.7907  0.2775
  641SOL    HW1 2562   2.178   0.298   0.389  1.4074 -1.1017  1.5967
  641SOL    HW2 2563   2.045   0.343   0.443  1.7589 -0.5822  0.2737
  641SOL     MW 2564   2.121   0.359   0.399  1.0100 -0.8042  0.4511
  642SOL     OW 2565   0.052   0.043   0.576 -0.0499 -0.0877 -0.2491
  642SOL    HW1 2566   0.024   0.139   0.584 -0.3895 -1.1059 -1.4031
  642SOL    HW2 2567  -0.035   0.007   0.588  0.4482  1.9433  2.0455
  642SOL     MW 2568   0.037   0.051   0.578 -0.0290  0.0459 -0.0986
  643SOL     OW 2569   2.067   0.316   1.667  0.1258 -0.1007 -0.1832
  643SOL    HW1 2570   2.007   0.289   1.736  0.2664  0.4145  1.7794
  643SOL    HW2 2571   2.065   0.249   1.603  0.2700 -0.6801  0.4982
  643SOL     MW 2572   2.059   0.304   1.668  0.1634 -0.1092  0.1657
  644SOL     OW 2573   2.675   1.898   1.005  0.2452 -0.0489  0.3119
  644SOL    HW1 2574   2.682   1.816   1.059 -1.7158 -0.8124 -1.8900
  644SOL    HW2 2575   2.578   1.913   1.000 -0.4785 -0.3246 -0.3406
  644SOL     MW 2576   2.663   1.890   1.011 -0.1090 -0.1860 -0.0647
  645SOL     OW 2577   2.778   0.860   0.697 -0.4303  0.0148  0.3942
  645SOL    HW1 2578   2.852   0.812   0.739 -2.7021  0.5438  0.8728
  645SOL    HW2 2579   2.702   0.827   0.751 -1.0337 -1.6396  2.3297
  645SOL     MW 2580   2.778   0.849   0.710 -0.8097 -0.1337  0.7127
  646SOL     OW 2581   0.165   2.260   0.820  0.4035 -0.2874  0.2529
  646SOL    HW1 2582   0.180   2.162   0.831  0.1929 -0.4460  1.6433
  646SOL    HW2 2583   0.113   2.264   0.735  0.3115 -4.2786  0.1656
  646SOL     MW 2584   0.160   2.248   0.810  0.3636 -0.8350  0.4248
  647SOL     OW 2585   2.730   0.504   3.027  0.4799 -0.0507 -0.2828
  647SOL    HW1 2586   2.660   0.438   3.041 -1.8247 -1.4040  0.5355
  647SOL    HW2 2587   2.714   0.583   3.079 -1.5940  1.2105  1.4196
  647SOL     MW 2588   2.719   0.506   3.036 -0.0978 -0.0629  0.0498
  648SOL     OW 2589   2.258   0.676   1.112  0.0816 -0.1798  0.0950
  648SOL    HW1 2590   2.242   0.581   1.134 -2.2251  2.4098 -1.5424
  648SOL    HW2 2591   2.225   0.727   1.186  1.6698  0.4788  0.6984
  648SOL     MW 2592   2.252   0.670   1.125 -0.0132  0.2488 -0.0415
  649SOL     OW 2593   2.436   2.703   1.254  0.3204 -0.3932  0.0737
  649SOL    HW1 2594   2.517   2.759   1.252  0.3916 -0.7308 -0.0339
  649SOL    HW2 2595   2.460   2.616   1.226  1.2366  2.3632 -1.8519
  649SOL     MW 2596   2.450   2.699   1.250  0.4506 -0.0741 -0.1946
  650SOL     OW 2597   2.768   0.228   0.631  0.2677 -0.0701 -0.4397
  650SOL    HW1 2598   2.765   0.325   0.638  0.5223 -0.5388  0.7619
  650SOL    HW2 2599   2.857   0.221   0.596  0.8041  2.7119 -3.4042
  650SOL     MW 2600   2.780   0.240   0.628  0.3720  0.2351 -0.6723
  651SOL     OW 2601   3.070   0.454   1.004  0.0444  0.1413 -0.2035
  651SOL    HW1 2602   3.129   0.499   0.938  2.1466  0.1342  0.6423
  651SOL    HW2 2603   2.999   0.513   1.019  0.9830 -0.5818  3.9609
  651SOL     MW 2604   3.068   0.468   0.997  0.4456  0.0449  0.4575
  652SOL     OW 2605   2.363   1.404   3.011  0.1969  0.6332  0.1207
  652SOL    HW1 2606   2.428   1.446   2.950 -1.2419 -0.2015 -2.3792
  652SOL    HW2 2607   2.315   1.481   3.045  2.1328  0.6496 -1.7584
  652SOL     MW 2608   2.365   1.420   3.008  0.2625  0.5252 -0.4570
  653SOL     OW 2609   1.860   0.351   0.274 -0.0287 -0.2779 -0.2862
  653SOL    HW1 2610   1.841   0.278   0.209  1.0712 -0.1361 -0.5373
  653SOL    HW2 2611   1.944   0.382   0.245 -0.4686 -1.2064 -0.4697
  653SOL     MW 2612   1.868   0.346   0.262  0.0584 -0.3817 -0.3436
  654SOL     OW 2613   2.470   0.955   0.777  0.0832  0.5317 -0.2601
  654SOL    HW1 2614   2.415   0.942   0.697 -0.0639 -1.1582  0.3827
  654SOL    HW2 2615   2.495   0.868   0.805  0.3665 -1.2091 -0.0364
  654SOL     MW 2616   2.466   0.942   0.770  0.1012  0.0790 -0.1458
  655SOL     OW 2617   2.948   0.923   0.424  0.2548  0.5326 -0.7748
  655SOL    HW1 2618   2.890   0.990   0.460 -2.2862 -0.1860 -0.7808
  655SOL    HW2 2619   2.927   0.844   0.477  0.4095 -0.5980 -0.5367
  655SOL     MW 2620   2.937   0.922   0.436 -0.0601  0.2886 -0.7442
  656SOL     OW 2621   1.822   2.640   1.410  0.2757  0.3449 -0.1365
  656SOL    HW1 2622   1.847   2.733   1.399 -0.4440  1.3941 -0.8519
  656SOL    HW2 2623   1.874   2.591   1.347 -1.7436  1.1815 -0.4910
  656SOL     MW 2624   1.832   2.646   1.400 -0.0856  0.5937 -0.2777
  657SOL     OW 2625   0.066   1.808   1.244 -0.4582 -0.3426 -0.2158
  657SOL    HW1 2626   0.152   1.822   1.202  0.5023  1.1142 -0.2559
  657SOL    HW2 2627   0.085   1.818   1.336  2.5880  1.5580 -2.7045
  657SOL     MW 2628   0.080   1.811   1.251  0.0705  0.1003 -0.5494
  658SOL     OW 2629   2.731   1.351   0.246  0.5684  0.7753  0.2013
  658SOL    HW1 2630   2.705   1.265   0.288  0.2254 -2.4637 -0.7641
  658SOL    HW2 2631   2.727   1.416   0.315 -2.2255 -0.6695 -1.8069
  658SOL     MW 2632   2.727   1.348   0.261  0.1545  0.1573 -0.1910
  659SOL     OW 2633   2.186   1.501   1.030 -0.0648 -0.2049  0.0802
  659SOL    HW1 2634   2.225   1.416   1.053  2.0755 -2.7694 -0.0346
  659SOL    HW2 2635   2.112   1.514   1.083  0.3959  0.0626 -0.2572
  659SOL     MW 2636   2.181   1.491   1.040  0.2784 -0.5080  0.0206
  660SOL     OW 2637   2.081   1.504   1.679 -0.2244 -0.1458 -0.0636
  660SOL    HW1 2638   2.073   1.508   1.774 -1.6590 -0.1730  1.7052
  660SOL    HW2 2639   2.004   1.458   1.640  0.3057  0.0838 -2.5280
  660SOL     MW 2640   2.070   1.498   1.686 -0.3438 -0.1191 -0.1554
  661SOL     OW 2641   2.398   0.988   0.239  0.2238  0.1770  0.3451
  661SOL    HW1 2642   2.470   1.034   0.287 -1.4770 -3.0886  0.0295
  661SOL    HW2 2643   2.413   0.888   0.245 -1.6788 -1.2594 -1.2310
  661SOL     MW 2644   2.409   0.981   0.246 -0.2516 -0.4434  0.0955
  662SOL     OW 2645   2.580   2.973   0.895  0.5672 -0.0274 -0.3081
  662SOL    HW1 2646   2.508   3.042   0.915 -1.5563  0.4706 -0.3062
  662SOL    HW2 2647   2.613   2.995   0.801 -1.3217 -0.7713 -1.7500
  662SOL     MW 2648   2.575   2.985   0.885  0.0378 -0.0598 -0.4981
  663SOL     OW 2649   2.681   1.507   0.459  0.4578  0.1110 -0.1770
  663SOL    HW1 2650   2.709   1.587   0.407  0.5961 -0.4489  0.7349
  663SOL    HW2 2651   2.741   1.497   0.530 -0.2114 -2.0793 -3.1215
  663SOL     MW 2652   2.693   1.516   0.461  0.3878 -0.2519 -0.4452
  664SOL     OW 2653   2.543   1.490   1.544 -0.3377  0.3566 -0.8144
  664SOL    HW1 2654   2.558   1.580   1.525  0.7720  1.1018  1.8271
  664SOL    HW2 2655   2.458   1.456   1.521 -1.7056 -0.0988 -1.9137
  664SOL     MW 2656   2.534   1.497   1.539 -0.3717  0.3948 -0.6109
  665SOL     OW 2657   2.844   0.810   2.100  0.2117  0.3405  0.2523
  665SOL    HW1 2658   2.830   0.871   2.025  2.3499 -0.4145 -1.3599
  665SOL    HW2 2659   2.932   0.771   2.085 -0.8966  0.0363 -0.2835
  665SOL     MW 2660   2.854   0.813   2.088  0.3476  0.2007 -0.0311
  666SOL     OW 2661   2.756   3.021   1.676  0.0181  0.1315 -0.1903
  666SOL    HW1 2662   2.794   3.032   1.589 -0.7674 -0.5438 -1.2009
  666SOL    HW2 2663   2.710   2.939   1.686  0.7929 -0.6364  0.9813
  666SOL     MW 2664   2.755   3.012   1.666  0.0167 -0.0589 -0.1691
  667SOL     OW 2665   1.986   2.700   1.730  0.1425  0.1874 -0.7146
  667SOL    HW1 2666   2.023   2.659   1.810 -2.7203  0.8466  2.1059
  667SOL    HW2 2667   2.052   2.771   1.717 -1.2085  0.0375 -1.8860
  667SOL     MW 2668   2.000   2.704   1.739 -0.4134  0.2546 -0.4971
  668SOL     OW 2669   2.762   0.575   0.868 -0.1760 -0.1254 -0.0712
  668SOL    HW1 2670   2.792   0.619   0.954  2.4207  3.3793  0.8256
  668SOL    HW2 2671   2.679   0.618   0.846  1.9794 -1.2784  1.1579
  668SOL     MW 2672   2.755   0.587   0.876  0.4510  0.1849  0.2093
  669SOL     OW 2673   0.189   0.979   0.724  0.7766  0.2834  0.3560
  669SOL    HW1 2674   0.117   1.016   0.778  0.4197 -1.5389 -1.2278
  669SOL    HW2 2675   0.278   1.011   0.738  1.1782  0.2116 -1.3373
  669SOL     MW 2676   0.191   0.988   0.733  0.7825  0.0335 -0.0764
  670SOL     OW 2677   2.917   0.344   0.216  0.4166  0.4683 -0.3981
  670SOL    HW1 2678   2.896   0.304   0.129 -0.5851 -3.3288 -0.1781
  670SOL    HW2 2679   2.930   0.438   0.204 -1.3531 -0.1868  0.4522
  670SOL     MW 2680   2.916   0.351   0.203  0.0509 -0.1191 -0.2569
  671SOL     OW 2681   2.017   3.004   1.541 -0.5921 -0.1958 -0.3435
  671SOL    HW1 2682   1.947   2.965   1.486 -0.0082  1.3948  0.3175
  671SOL    HW2 2683   1.978   3.014   1.631  2.9220  0.5954 -0.0061
  671SOL     MW 2684   2.003   3.000   1.545 -0.0514  0.1184 -0.2117
  672SOL     OW 2685   1.827   1.734   1.308  0.4056  0.4116 -0.0083
  672SOL    HW1 2686   1.819   1.791   1.387  2.1632 -3.8519  0.3076
  672SOL    HW2 2687   1.889   1.770   1.245 -0.5083 -0.2571  1.5296
  672SOL     MW 2688   1.834   1.746   1.310  0.5169 -0.2391  0.2363
  673SOL     OW 2689   2.763   1.113   0.585  0.5277  0.0992 -0.7216
  673SOL    HW1 2690   2.780   1.044   0.642 -1.4399 -1.0743  0.5331
  673SOL    HW2 2691   2.832   1.182   0.607  1.7906  2.4829 -2.1622
  673SOL     MW 2692   2.774   1.113   0.596  0.4347  0.2589 -0.7461
  674SOL     OW 2693   2.482   0.022   1.209 -0.2485 -0.4388 -0.4242
  674SOL    HW1 2694   2.435   0.025   1.127 -0.4007  0.7079  2.0000
  674SOL    HW2 2695   2.517  -0.065   1.215  0.8859 -0.5878 -2.8532
  674SOL     MW 2696   2.480   0.011   1.199 -0.1189 -0.3072 -0.4249
  675SOL     OW 2697   2.986   0.920   1.044 -0.1944 -0.7253  0.4364
  675SOL    HW1 2698   3.038   0.941   1.122  1.3706  3.7465 -1.0961
  675SOL    HW2 2699   3.014   0.986   0.984  0.8409 -1.8168  1.6754
  675SOL     MW 2700   2.996   0.931   1.046  0.1487 -0.2793  0.3977
  676SOL     OW 2701   2.921   1.438   1.721 -0.3547  0.0992 -0.0547
  676SOL    HW1 2702   2.858   1.380   1.675  2.5418  2.1552 -0.9503
  676SOL    HW2 2703   2.940   1.422   1.818  1.2972  1.8351  0.5555
  676SOL     MW 2704   2.915   1.428   1.727  0.2455  0.5995 -0.0923
  677SOL     OW 2705   2.405   0.572   2.024 -0.2923  0.4650 -0.5006
  677SOL    HW1 2706   2.365   0.537   1.948 -0.1509  1.6676 -0.1907
  677SOL    HW2 2707   2.366   0.664   2.009  1.9894  0.5574 -1.8986
  677SOL     MW 2708   2.394   0.580   2.012  0.0274  0.6358 -0.6442
  678SOL     OW 2709   2.410   1.641   0.265 -0.4557  0.2477  0.2786
  678SOL    HW1 2710   2.323   1.637   0.305  1.3189  2.4194  2.0088
  678SOL    HW2 2711   2.428   1.543   0.249  1.4388 -0.3700 -0.5793
  678SOL     MW 2712   2.401   1.628   0.268  0.0284  0.4527  0.3937
  679SOL     OW 2713   2.237   0.420   1.242  0.0667 -0.2171  0.2216
  679SOL    HW1 2714   2.219   0.325   1.223  0.3650 -1.1585  3.4025
  679SOL    HW2 2715   2.159   0.452   1.290  2.4889 -0.1785 -0.3452
  679SOL     MW 2716   2.224   0.411   1.246  0.4256 -0.3362  0.5665
  680SOL     OW 2717   2.386   0.109   1.477  0.4824 -0.1713  0.3734
  680SOL    HW1 2718   2.294   0.107   1.481  3.0096 -0.0119  1.8949
  680SOL    HW2 2719   2.415   0.119   1.387  1.7074 -2.2637 -3.2282
  680SOL     MW 2720   2.378   0.110   1.465  0.9775 -0.4264  0.0990
  681SOL     OW 2721   0.222   0.589   1.505  0.9763  0.0658 -0.2673
  681SOL    HW1 2722   0.184   0.504   1.538 -2.0844 -2.2374  0.4375
  681SOL    HW2 2723   0.230   0.582   1.412  0.5271  1.7817  1.3478
  681SOL     MW 2724   0.218   0.577   1.497  0.5132 -0.0117  0.0388
  682SOL     OW 2725   0.095   2.922   1.511 -0.6017  0.0945  0.5579
  682SOL    HW1 2726   0.166   2.985   1.524 -1.8215 -1.4278 -0.8448
  682SOL    HW2 2727   0.022   2.943   1.564 -0.1177 -0.0502  2.1802
  682SOL     MW 2728   0.095   2.933   1.519 -0.6988 -0.1255  0.5869
  683SOL     OW 2729   2.051   0.831   2.994  0.1672  0.1655  0.2822
  683SOL    HW1 2730   1.988   0.760   3.016  1.4185  2.1844 -1.0246
  683SOL    HW2 2731   2.007   0.904   3.043 -0.3179 -1.8640  2.9647
  683SOL     MW 2732   2.037   0.831   3.003  0.2683  0.1641  0.4637
  684SOL     OW 2733   2.121   1.732   0.656 -0.0547  0.1262 -0.6072
  684SOL    HW1 2734   2.125   1.689   0.570 -0.5814  0.0901  3.0262
  684SOL    HW2 2735   2.137   1.659   0.712 -3.7356  1.3424 -0.0818
  684SOL     MW 2736   2.124   1.717   0.652 -0.6099  0.2819 -0.0585
  685SOL     OW 2737   2.692   1.682   1.162 -0.2321  0.0750 -0.1639
  685SOL    HW1 2738   2.719   1.667   1.254 -1.1345  3.0636 -0.0752
  685SOL    HW2 2739   2.622   1.612   1.156 -1.5739 -0.6112  0.2916
  685SOL     MW 2740   2.687   1.671   1.174 -0.5282  0.3788 -0.0921
  686SOL     OW 2741   2.909   0.633   1.595 -0.1522 -0.4994 -0.2981
  686SOL    HW1 2742   2.898   0.607   1.684 -0.3142  2.4680 -3.1502
  686SOL    HW2 2743   2.998   0.661   1.588  1.3854  0.1536  2.2342
  686SOL     MW 2744   2.919   0.633   1.606  0.0293 -0.0217 -0.3403
  687SOL     OW 2745   2.163   0.176   1.126 -0.1334  0.0844 -0.8716
  687SOL    HW1 2746   2.240   0.132   1.091  1.5433  0.4163  1.9378
  687SOL    HW2 2747   2.143   0.245   1.057  1.3875  2.9674 -0.9916
  687SOL     MW 2748   2.170   0.179   1.112  0.2885  0.5086 -0.5168
  688SOL     OW 2749   2.419   0.581   1.409 -0.2043  0.6582  0.2547
  688SOL    HW1 2750   2.373   0.519   1.349  1.2687 -0.7987  0.1729
  688SOL    HW2 2751   2.358   0.611   1.480  2.5144 -2.5221  0.3610
  688SOL     MW 2752   2.405   0.576   1.410  0.3488  0.0463  0.2579
  689SOL     OW 2753   2.493   0.782   2.963  0.5247 -0.0398  0.7907
  689SOL    HW1 2754   2.449   0.860   2.988 -0.3616 -0.2707 -1.7151
  689SOL    HW2 2755   2.558   0.766   3.033 -0.0635  2.1846  1.1181
  689SOL     MW 2756   2.496   0.790   2.975  0.3301  0.2232  0.5032
  690SOL     OW 2757   2.042   0.870   1.879  0.3073 -0.4859 -0.5605
  690SOL    HW1 2758   2.039   0.778   1.887  0.2074  1.3613 -1.0946
  690SOL    HW2 2759   2.056   0.889   1.788  0.7531 -0.9007  1.1636
  690SOL     MW 2760   2.043   0.861   1.868  0.3529 -0.2969 -0.4035
  691SOL     OW 2761   2.369   0.263   0.861 -0.2974  0.6484  0.0209
  691SOL    HW1 2762   2.444   0.313   0.909  2.8820  1.3224  2.9159
  691SOL    HW2 2763   2.290   0.317   0.870 -0.6053  1.2753 -0.2681
  691SOL     MW 2764   2.368   0.277   0.869  0.0815  0.8201  0.3647
  692SOL     OW 2765   2.890   1.597   1.429 -0.1127 -0.0213  0.2234
  692SOL    HW1 2766   2.919   1.569   1.515  1.0520  2.6739 -0.9183
  692SOL    HW2 2767   2.918   1.688   1.421 -0.7317  0.5698 -1.3919
  692SOL     MW 2768   2.897   1.605   1.439 -0.0407  0.4123 -0.1404
  693SOL     OW 2769   2.346   0.417   0.065  0.4775  0.6705 -0.3651
  693SOL    HW1 2770   2.269   0.371   0.041  1.4518 -0.7599  2.8356
  693SOL    HW2 2771   2.317   0.513   0.054 -0.7402 -0.1061 -1.4425
  693SOL     MW 2772   2.332   0.424   0.061  0.4453  0.3793 -0.0850
  694SOL     OW 2773   1.871   1.165   1.104 -0.5365  0.6936  0.4357
  694SOL    HW1 2774   1.960   1.176   1.148  2.8816  3.1923  1.1117
  694SOL    HW2 2775   1.828   1.081   1.144 -2.0204  1.1347  2.0116
  694SOL     MW 2776   1.877   1.156   1.115 -0.2813  1.0815  0.7328
  695SOL     OW 2777   2.964   1.381   1.273  0.0151  0.3317 -0.1263
  695SOL    HW1 2778   2.955   1.404   1.186 -0.8810  2.4471  0.4727
  695SOL    HW2 2779   2.912   1.447   1.323  0.4325 -1.0543  0.7923
  695SOL     MW 2780   2.956   1.392   1.268 -0.0481  0.4280  0.0739
  696SOL     OW 2781   2.096   1.444   0.765 -0.3210 -0.0286 -0.0910
  696SOL    HW1 2782   2.145   1.461   0.844  0.9305 -0.2816 -2.6310
  696SOL    HW2 2783   2.031   1.380   0.784 -1.8766  1.6890 -0.4184
  696SOL     MW 2784   2.094   1.438   0.778 -0.3611  0.1646 -0.4693
  697SOL     OW 2785   2.921   1.033   2.273  0.4705  0.7504 -0.2670
  697SOL    HW1 2786   2.842   1.092   2.278 -4.0802  2.1061  1.4203
  697SOL    HW2 2787   2.878   0.945   2.267  0.0310  0.9848  0.4086
  697SOL     MW 2788   2.905   1.029   2.273 -0.1879  0.9602  0.0447
  698SOL     OW 2789   2.550   0.290   3.081 -0.0704  0.1937 -0.7466
  698SOL    HW1 2790   2.475   0.346   3.115 -0.8840 -0.2672 -0.6037
  698SOL    HW2 2791   2.584   0.239   3.154 -1.6031  2.2905 -1.0588
  698SOL     MW 2792   2.545   0.291   3.095 -0.3800  0.4095 -0.7689
  699SOL     OW 2793   1.905   1.622   2.078 -0.7736 -0.5402 -0.2266
  699SOL    HW1 2794   1.846   1.545   2.054 -0.9721 -1.2046  2.8085
  699SOL    HW2 2795   1.988   1.572   2.054  1.1703  1.2002  1.2236
  699SOL     MW 2796   1.908   1.605   2.071 -0.5433 -0.3982  0.3652
  700SOL     OW 2797   2.700   0.826   1.564 -0.1345 -0.4664 -0.2746
  700SOL    HW1 2798   2.740   0.905   1.527 -1.8317 -0.5203  2.2436
  700SOL    HW2 2799   2.778   0.771   1.584  0.5003  2.0820  3.1396
  700SOL     MW 2800   2.715   0.829   1.562 -0.2747 -0.1373  0.5081
  701SOL     OW 2801   1.680   1.164   2.514  0.0489 -0.2962 -0.0003
  701SOL    HW1 2802   1.749   1.141   2.569 -0.2995 -0.0336 -0.3378
  701SOL    HW2 2803   1.638   1.224   2.573  2.6979 -0.8191 -1.4228
  701SOL     MW 2804   1.683   1.169   2.529  0.3525 -0.3305 -0.2325
  702SOL     OW 2805   2.159   0.421   0.819 -0.0623 -0.4636 -0.3931
  702SOL    HW1 2806   2.146   0.343   0.763 -0.7261  1.1779 -1.0422
  702SOL    HW2 2807   2.235   0.463   0.777 -0.6610 -1.4694 -0.7990
  702SOL     MW 2808   2.168   0.416   0.806 -0.2288 -0.3797 -0.5323
  703SOL     OW 2809   2.732   1.222   0.960 -0.2456 -0.2373 -0.1695
  703SOL    HW1 2810   2.655   1.215   0.900 -0.6955 -2.1243 -1.0853
  703SOL    HW2 2811   2.742   1.143   1.012  1.8142 -0.3487 -0.4023
  703SOL     MW 2812   2.723   1.210   0.959 -0.0332 -0.5010 -0.3210
  704SOL     OW 2813   3.050   1.234   0.105  0.0825 -0.6249  0.2695
  704SOL    HW1 2814   2.955   1.212   0.077  0.2181  0.0029 -0.3596
  704SOL    HW2 2815   3.050   1.201   0.198  0.4221 -0.7753 -0.1542
  704SOL     MW 2816   3.037   1.227   0.114  0.1452 -0.5619  0.1306
  705SOL     OW 2817   2.094   1.578   1.279 -0.8588  0.1156  0.7453
  705SOL    HW1 2818   2.099   1.636   1.355  0.8424  0.0508 -4.0945
  705SOL    HW2 2819   2.153   1.506   1.297 -0.1636  2.9393  1.7374
  705SOL     MW 2820   2.102   1.576   1.291 -0.5427  0.4796  0.2377
  706SOL     OW 2821   2.962   1.267   0.677  0.2486  0.2670  0.1560
  706SOL    HW1 2822   3.003   1.263   0.586  0.0547 -0.4997 -1.6498
  706SOL    HW2 2823   2.938   1.360   0.686 -1.0457 -1.5469 -1.9206
  706SOL     MW 2824   2.964   1.278   0.666  0.0523 -0.0734 -0.3562
  707SOL     OW 2825   2.358   0.031   0.976  0.0859  0.2712  0.3888
  707SOL    HW1 2826   2.366   0.117   0.920  4.1477  1.3184 -0.6481
  707SOL    HW2 2827   2.277  -0.018   0.939 -0.6209  0.0036 -1.3533
  707SOL     MW 2828   2.348   0.036   0.964  0.5286  0.3741  0.0221
  708SOL     OW 2829   2.459   1.389   0.171 -0.7025 -0.2515  0.0421
  708SOL    HW1 2830   2.553   1.395   0.192 -0.4083  0.4273  0.1620
  708SOL    HW2 2831   2.461   1.411   0.076  0.3773  2.3014  0.0163
  708SOL     MW 2832   2.472   1.393   0.161 -0.5212  0.1749  0.0545
  709SOL     OW 2833   1.708   1.608   0.221  0.2184 -0.5505  0.1397
  709SOL    HW1 2834   1.710   1.615   0.126  2.4682  1.7702 -0.2096
  709SOL    HW2 2835   1.626   1.561   0.249  0.0370  2.0145 -0.6895
  709SOL     MW 2836   1.698   1.603   0.212  0.4913  0.0941 -0.0158
  710SOL     OW 2837   2.138   1.188   1.150  0.6487  0.0704  0.4117
  710SOL    HW1 2838   2.185   1.159   1.069 -4.1579 -1.4869  0.6092
  710SOL    HW2 2839   2.165   1.115   1.203 -0.4256 -0.2178 -1.2300
  710SOL     MW 2840   2.148   1.174   1.147 -0.1273 -0.1731  0.2211
  711SOL     OW 2841   2.376   0.178   1.782  0.2443  0.4963 -0.3357
  711SOL    HW1 2842   2.448   0.123   1.814  0.4772 -0.7964  1.6775
  711SOL    HW2 2843   2.400   0.201   1.694 -0.1202 -0.4224 -2.5137
  711SOL     MW 2844   2.388   0.174   1.775  0.2270  0.2045 -0.3575
  712SOL     OW 2845   1.905   0.625   3.094 -0.2475 -0.5059  0.5269
  712SOL    HW1 2846   1.818   0.651   3.058 -0.4515  1.8192  2.5106
  712SOL    HW2 2847   1.901   0.655   3.188  1.7481  1.2693 -0.8396
  712SOL     MW 2848   1.893   0.632   3.102 -0.0111  0.0351  0.6083
  713SOL     OW 2849   2.532   0.702   1.082 -0.3206  0.0045  0.2144
  713SOL    HW1 2850   2.592   0.675   1.153  1.2539  0.4592  2.6889
  713SOL    HW2 2851   2.440   0.687   1.116 -2.3149 -3.0421 -2.2202
  713SOL     MW 2852   2.528   0.697   1.096 -0.3760 -0.3375  0.2197
  714SOL     OW 2853   2.231   0.195   2.016  0.0605 -0.1039 -0.1834
  714SOL    HW1 2854   2.269   0.136   2.083  1.5069  3.6489  0.4703
  714SOL    HW2 2855   2.290   0.177   1.941  0.3003  0.1517 -0.6016
  714SOL     MW 2856   2.244   0.185   2.015  0.2830  0.4250 -0.1523
  715SOL     OW 2857   1.806   2.047   1.769 -0.2293  0.0064  0.4154
  715SOL    HW1 2858   1.886   2.089   1.744  0.1220 -0.0992 -0.7904
  715SOL    HW2 2859   1.826   1.965   1.821 -2.7522  1.5601  1.8843
  715SOL     MW 2860   1.819   2.042   1.772 -0.5158  0.1974  0.4501
  716SOL     OW 2861   2.359   0.541   0.660 -0.2022 -0.3486 -0.2277
  716SOL    HW1 2862   2.407   0.468   0.621 -0.2086 -0.1407  0.5027
  716SOL    HW2 2863   2.326   0.595   0.582 -0.1028 -1.0219  1.5002
  716SOL     MW 2864   2.361   0.539   0.645 -0.1900 -0.4100  0.0967
  717SOL     OW 2865   2.814   1.580   2.871  0.1005 -0.7068 -0.0333
  717SOL    HW1 2866   2.908   1.576   2.889 -0.8871 -1.9659 -1.5927
  717SOL    HW2 2867   2.797   1.659   2.916  0.1625  0.1777  0.7374
  717SOL     MW 2868   2.824   1.590   2.880 -0.0216 -0.7562 -0.1374
  718SOL     OW 2869   2.657   1.361   1.310  0.1220 -0.2252  0.4364
  718SOL    HW1 2870   2.648   1.397   1.398  0.0452 -1.6400  0.1246
  718SOL    HW2 2871   2.736   1.313   1.311 -1.7182 -0.5573 -1.5201
  718SOL     MW 2872   2.666   1.360   1.322 -0.1309 -0.4557  0.1371
  719SOL     OW 2873   2.208   1.273   0.584 -0.6087 -0.0034 -0.2024
  719SOL    HW1 2874   2.293   1.303   0.557  0.3733  0.3591  0.0263
  719SOL    HW2 2875   2.191   1.341   0.658 -1.9363  1.1765  2.9957
  719SOL     MW 2876   2.217   1.286   0.590 -0.6543  0.2001  0.2498
  720SOL     OW 2877   2.798   1.206   0.032  0.0007  0.3985 -0.0532
  720SOL    HW1 2878   2.791   1.119   0.078  4.1123  1.0187  1.4494
  720SOL    HW2 2879   2.772   1.262   0.108  0.2999 -0.6527 -0.2515
  720SOL     MW 2880   2.794   1.202   0.048  0.5826  0.3417  0.1189
  721SOL     OW 2881   2.472   0.848   1.356 -0.1044 -0.1799 -0.3380
  721SOL    HW1 2882   2.469   0.756   1.358 -0.9936  0.5472 -0.8738
  721SOL    HW2 2883   2.532   0.871   1.435 -1.1450  0.9351  0.3592
  721SOL     MW 2884   2.480   0.839   1.367 -0.3590  0.0632 -0.3167
  722SOL     OW 2885   2.581   1.152   0.358  0.4687 -0.6856  0.4151
  722SOL    HW1 2886   2.530   1.226   0.403  2.0819 -0.2303 -3.1062
  722SOL    HW2 2887   2.645   1.118   0.422 -1.1178  0.5905 -2.8893
  722SOL     MW 2888   2.582   1.158   0.372  0.4722 -0.4572 -0.4855
  723SOL     OW 2889   2.308   1.331   1.598 -0.3328  0.8823 -0.3239
  723SOL    HW1 2890   2.307   1.330   1.499  2.0905  0.0412 -1.0555
  723SOL    HW2 2891   2.227   1.377   1.625 -2.8591  0.5570  1.1413
  723SOL     MW 2892   2.297   1.337   1.589 -0.3464  0.7284 -0.2271
  724SOL     OW 2893   2.486   0.315   0.607 -0.0106 -0.1017  0.1298
  724SOL    HW1 2894   2.434   0.295   0.688  0.6970  0.7394  1.7578
  724SOL    HW2 2895   2.568   0.274   0.626  0.6098  0.8091 -0.6095
  724SOL     MW 2896   2.490   0.307   0.620  0.1646  0.1294  0.2470
  725SOL     OW 2897   2.623   0.415   1.241  0.5308  0.0631  0.1652
  725SOL    HW1 2898   2.680   0.465   1.304  1.1887  0.5212  2.2441
  725SOL    HW2 2899   2.602   0.338   1.294  0.3035  0.0721  0.5572
  725SOL     MW 2900   2.628   0.411   1.256  0.5876  0.1247  0.4912
  726SOL     OW 2901   2.522   2.515   0.498 -0.1097 -0.2938 -0.1329
  726SOL    HW1 2902   2.526   2.598   0.451 -1.3667 -0.0677  0.1791
  726SOL    HW2 2903   2.511   2.537   0.589 -0.5685 -0.1420  0.9751
  726SOL     MW 2904   2.521   2.529   0.504 -0.3361 -0.2440  0.0545
  727SOL     OW 2905   2.841   0.321   1.745  0.3571 -0.3663 -0.0680
  727SOL    HW1 2906   2.782   0.280   1.676  0.9214 -0.0369  0.4033
  727SOL    HW2 2907   2.811   0.291   1.828 -1.0368 -1.2905  0.8709
  727SOL     MW 2908   2.829   0.312   1.747  0.2476 -0.4447  0.1180
  728SOL     OW 2909   2.831   1.183   2.857 -0.0102  0.1454 -0.4010
  728SOL    HW1 2910   2.838   1.241   2.784 -1.4462 -0.6599 -1.7182
  728SOL    HW2 2911   2.805   1.238   2.936  1.5045  0.6870  0.2593
  728SOL     MW 2912   2.828   1.198   2.858  0.0002  0.1106 -0.4877
  729SOL     OW 2913   2.500   1.486   1.126  0.2382  0.2897 -0.4452
  729SOL    HW1 2914   2.552   1.432   1.183  2.6807  2.3333 -2.6164
  729SOL    HW2 2915   2.497   1.452   1.035 -1.0982  2.6596 -0.7891
  729SOL     MW 2916   2.506   1.475   1.122  0.3841  0.8720 -0.7770
  730SOL     OW 2917   2.205   1.165   0.249 -0.3549 -0.2102 -0.4772
  730SOL    HW1 2918   2.286   1.108   0.228 -1.0232  0.7298 -4.9806
  730SOL    HW2 2919   2.236   1.256   0.271  0.9367  1.0904 -0.7807
  730SOL     MW 2920   2.219   1.170   0.249 -0.2726  0.0854 -1.1115
  731SOL     OW 2921   2.755   2.103   2.871 -0.2531  0.2582  0.2838
  731SOL    HW1 2922   2.699   2.059   2.802  1.1151 -1.4173  0.7243
  731SOL    HW2 2923   2.838   2.068   2.841 -0.1507  1.7409 -2.7134
  731SOL     MW 2924   2.759   2.093   2.858 -0.0591  0.2327 -0.0535
  732SOL     OW 2925   2.215   0.975   1.357 -0.2247 -0.0372  0.5379
  732SOL    HW1 2926   2.172   0.960   1.438  1.6233 -1.0450  2.3633
  732SOL    HW2 2927   2.298   0.922   1.348  2.8280  3.4726 -0.5546
  732SOL     MW 2928   2.221   0.966   1.366  0.4219  0.2929  0.6346
  733SOL     OW 2929   2.403   2.805   3.031 -0.2030  0.1974 -0.1923
  733SOL    HW1 2930   2.319   2.849   3.052  0.1140 -0.9747 -0.3135
  733SOL    HW2 2931   2.367   2.715   3.011  0.7339 -1.4197  3.1225
  733SOL     MW 2932   2.387   2.799   3.031 -0.0375 -0.1706  0.2291
  734SOL     OW 2933   1.566   0.251   2.533  0.4099 -0.2276  0.4247
  734SOL    HW1 2934   1.513   0.232   2.611 -0.3553  0.8915  0.4489
  734SOL    HW2 2935   1.527   0.208   2.455  0.6618  0.5066 -0.7997
  734SOL     MW 2936   1.554   0.243   2.533  0.3422  0.0169  0.2664
  735SOL     OW 2937   3.000   0.953   2.688  0.3367  0.2113  0.5010
  735SOL    HW1 2938   2.976   0.856   2.682 -1.8604 -0.5298  1.9374
  735SOL    HW2 2939   2.996   0.966   2.783 -0.2130  0.8084 -0.1940
  735SOL     MW 2940   2.996   0.942   2.700 -0.0257  0.1923  0.5988
  736SOL     OW 2941   0.124   0.606   2.608  0.2041  0.1800  0.2869
  736SOL    HW1 2942   0.123   0.673   2.535  0.8978  1.1536 -0.0774
  736SOL    HW2 2943   0.113   0.520   2.562 -0.4556 -0.4829  0.1771
  736SOL     MW 2944   0.122   0.603   2.593  0.2086  0.2210  0.2243
  737SOL     OW 2945   2.954   0.691   2.610  0.8286 -0.2333 -0.1924
  737SOL    HW1 2946   2.901   0.639   2.543  0.5912 -2.2526 -1.2851
  737SOL    HW2 2947   3.038   0.646   2.619 -1.0586  0.4453 -2.5800
  737SOL     MW 2948   2.958   0.678   2.602  0.5483 -0.4102 -0.6516
  738SOL     OW 2949   0.183   0.545   1.880 -0.2945 -0.3196  0.3261
  738SOL    HW1 2950   0.281   0.575   1.872 -0.4497  1.0361 -1.6783
  738SOL    HW2 2951   0.173   0.475   1.812 -0.8382 -0.3954 -1.2572
  738SOL     MW 2952   0.195   0.540   1.870 -0.3867 -0.1507 -0.1472
  739SOL     OW 2953   2.464   1.000   2.085  0.1685  0.2786 -0.1395
  739SOL    HW1 2954   2.424   0.948   2.010  3.5155 -4.0134 -2.4286
  739SOL    HW2 2955   2.475   1.083   2.040  2.3266 -0.2858 -4.2008
  739SOL     MW 2956   2.460   1.004   2.069  0.8948 -0.3621 -0.9774
  740SOL     OW 2957   0.120   1.853   2.947 -0.3915  0.7175 -0.0554
  740SOL    HW1 2958   0.093   1.761   2.950 -2.0543  1.2569 -1.7638
  740SOL    HW2 2959   0.215   1.856   2.976 -1.3868  1.2247  0.5307
  740SOL     MW 2960   0.129   1.841   2.952 -0.7422  0.8556 -0.2035
  741SOL     OW 2961   2.263   1.195   2.715  0.3369 -0.6748  0.2872
  741SOL    HW1 2962   2.215   1.240   2.647  1.2861  0.9100  1.6160
  741SOL    HW2 2963   2.224   1.203   2.798 -1.8754 -0.5165 -0.2976
  741SOL     MW 2964   2.251   1.202   2.717  0.1702 -0.4448  0.3853
  742SOL     OW 2965   1.705   1.249   2.220 -0.2815 -0.4132  0.0678
  742SOL    HW1 2966   1.617   1.211   2.229 -0.4660 -1.2667  0.0974
  742SOL    HW2 2967   1.722   1.279   2.308 -0.9693  2.6132  0.4520
  742SOL     MW 2968   1.696   1.248   2.232 -0.3966 -0.1265  0.1224
  743SOL     OW 2969   2.525   1.242   2.682  0.6398 -0.0228  0.2074
  743SOL    HW1 2970   2.438   1.221   2.718  0.5475  0.5338 -0.8951
  743SOL    HW2 2971   2.564   1.179   2.740  0.0532  1.5077 -1.6961
  743SOL     MW 2972   2.518   1.231   2.695  0.5502  0.2526 -0.1892
  744SOL     OW 2973   2.785   0.950   1.864 -0.2724 -0.1447 -0.1266
  744SOL    HW1 2974   2.713   1.010   1.839 -1.5031  0.6793  1.5493
  744SOL    HW2 2975   2.763   0.879   1.806  0.6155 -0.4505 -0.5908
  744SOL     MW 2976   2.773   0.948   1.853 -0.3176 -0.0763  0.0333
  745SOL     OW 2977   1.695   0.493   2.468 -0.2483  0.8146 -0.4157
  745SOL    HW1 2978   1.665   0.519   2.380 -0.3766  0.0915 -0.4830
  745SOL    HW2 2979   1.647   0.411   2.501  1.5545  0.4890  1.7853
  745SOL     MW 2980   1.685   0.485   2.461 -0.0274  0.6762 -0.1342
  746SOL     OW 2981   1.585   1.434   1.636  0.2935 -0.2109 -0.1670
  746SOL    HW1 2982   1.677   1.427   1.620 -2.0474  1.9192 -0.1904
  746SOL    HW2 2983   1.577   1.431   1.732 -0.2492 -0.1262 -0.9690
  746SOL     MW 2984   1.596   1.432   1.647 -0.0870  0.0813 -0.2759
  747SOL     OW 2985   2.599   1.149   1.825  0.3734  0.7969  0.1833
  747SOL    HW1 2986   2.510   1.138   1.789  0.0326 -1.9101 -1.6934
  747SOL    HW2 2987   2.602   1.233   1.877  0.2832  2.5549 -3.0078
  747SOL     MW 2988   2.588   1.158   1.827  0.3165  0.6717 -0.4853
  748SOL     OW 2989   0.083   0.015   1.893  0.2197  0.1945 -0.9919
  748SOL    HW1 2990   0.176   0.051   1.874 -0.1524  0.4036  0.4080
  748SOL    HW2 2991   0.046   0.071   1.967 -2.2290 -1.0625  1.5015
  748SOL     MW 2992   0.091   0.027   1.900 -0.1524  0.0562 -0.4782
  749SOL     OW 2993   2.469   0.610   2.733 -0.3756 -0.1970 -0.0017
  749SOL    HW1 2994   2.483   0.672   2.661  1.9807  0.0824 -1.4146
  749SOL    HW2 2995   2.463   0.675   2.799  2.1356  0.8855  0.3648
  749SOL     MW 2996   2.470   0.627   2.732  0.2666 -0.0173 -0.1397
  750SOL     OW 2997   2.050   3.088   1.987 -0.2422 -0.1245 -0.1286
  750SOL    HW1 2998   2.102   3.167   1.991  1.7179 -2.7896  1.3495
  750SOL    HW2 2999   2.121   3.027   1.982  0.8018  0.1016  1.3517
  750SOL     MW 3000   2.066   3.091   1.987  0.1542 -0.4463  0.2617
  751SOL     OW 3001   0.116   0.375   2.435  0.1658 -1.1605  0.7413
  751SOL    HW1 3002   0.099   0.289   2.473 -1.6637 -1.3897  2.0111
  751SOL    HW2 3003   0.184   0.364   2.372  2.3064 -1.1528  1.7867
  751SOL     MW 3004   0.123   0.362   2.432  0.2068 -1.1897  1.0467
  752SOL     OW 3005   2.089   0.750   2.731 -0.4392  0.2520 -0.0797
  752SOL    HW1 3006   2.137   0.817   2.676  0.9111 -0.5490 -1.9966
  752SOL    HW2 3007   2.089   0.777   2.823  1.0701 -0.9492  0.6874
  752SOL     MW 3008   2.096   0.763   2.736 -0.0619 -0.0122 -0.2314
  753SOL     OW 3009   2.899   0.220   2.422 -0.2873 -0.3841 -0.6898
  753SOL    HW1 3010   2.847   0.143   2.395  1.7324  0.6473  0.1661
  753SOL    HW2 3011   2.859   0.301   2.400  1.5204 -1.2140  0.0146
  753SOL     MW 3012   2.887   0.220   2.415  0.2177 -0.3575 -0.4839
  754SOL     OW 3013   2.232   2.987   2.584 -0.4172 -0.3491 -0.4855
  754SOL    HW1 3014   2.251   2.948   2.497  0.5836 -0.6603 -0.7496
  754SOL    HW2 3015   2.302   2.934   2.636 -0.1021  2.8507 -1.8617
  754SOL     MW 3016   2.244   2.975   2.579 -0.2436  0.0320 -0.7019
  755SOL     OW 3017   2.697   1.522   2.465  0.3211 -0.1951  0.0416
  755SOL    HW1 3018   2.723   1.441   2.503 -0.1573  2.6284 -2.0950
  755SOL    HW2 3019   2.761   1.585   2.509 -1.9485  0.9862 -0.5833
  755SOL     MW 3020   2.709   1.520   2.476 -0.0415  0.3333 -0.3228
  756SOL     OW 3021   2.160   1.219   3.012  0.0388  0.2699  0.1014
  756SOL    HW1 3022   2.247   1.273   3.019  1.2314 -2.3597 -3.1417
  756SOL    HW2 3023   2.186   1.129   3.028 -1.2421 -1.4472  3.5414
  756SOL     MW 3024   2.175   1.214   3.015  0.0272 -0.3036  0.1274
  757SOL     OW 3025   2.113   0.887   1.606  0.9681 -0.0926  0.0489
  757SOL    HW1 3026   2.153   0.800   1.598  0.8688 -1.0378  0.4927
  757SOL    HW2 3027   2.014   0.880   1.580  0.3395  0.7250 -2.1448
  757SOL     MW 3028   2.105   0.875   1.602  0.8720 -0.1095 -0.1820
  758SOL     OW 3029   2.235   1.837   2.611  0.0202  0.3219  0.5365
  758SOL    HW1 3030   2.197   1.864   2.523 -4.4935  1.1956 -2.5196
  758SOL    HW2 3031   2.322   1.795   2.613  0.0948  2.0632 -0.0645
  758SOL     MW 3032   2.242   1.835   2.600 -0.5655  0.6669  0.0540
  759SOL     OW 3033   1.571   1.344   2.695  0.2491 -0.3987  0.0419
  759SOL    HW1 3034   1.547   1.424   2.647 -2.5764  1.0920  0.7344
  759SOL    HW2 3035   1.603   1.371   2.784 -1.6861 -1.3865  0.8873
  759SOL     MW 3036   1.572   1.358   2.701 -0.3791 -0.3323  0.2448
  760SOL     OW 3037   2.562   1.985   2.711 -0.6116  0.0244  0.1249
  760SOL    HW1 3038   2.531   1.897   2.687  1.5578  1.5877 -3.5713
  760SOL    HW2 3039   2.549   2.036   2.625 -1.4776 -0.5061 -1.2538
  760SOL     MW 3040   2.556   1.980   2.696 -0.4397  0.1606 -0.5447
  761SOL     OW 3041   2.138   0.336   2.447 -0.6901  0.4038  0.4854
  761SOL    HW1 3042   2.126   0.246   2.470  0.4862 -1.6478  0.0716
  761SOL    HW2 3043   2.154   0.385   2.528  0.9199 -0.6343 -1.6759
  761SOL     MW 3044   2.139   0.331   2.461 -0.3225 -0.0038  0.1457
  762SOL     OW 3045   3.097   0.171   2.110 -0.2456 -0.1277  0.0440
  762SOL    HW1 3046   3.087   0.109   2.186  1.8720 -2.5483  2.4153
  762SOL    HW2 3047   3.056   0.252   2.125  0.8422 -2.4983 -1.4848
  762SOL     MW 3048   3.090   0.174   2.122  0.1773 -0.7599  0.1552
  763SOL     OW 3049   2.347   1.014   2.337 -0.2402  0.5250  0.4778
  763SOL    HW1 3050   2.393   0.999   2.250  0.7688 -0.7857  1.3548
  763SOL    HW2 3051   2.406   1.080   2.386  0.9650  1.6921  0.4437
  763SOL     MW 3052   2.361   1.021   2.332  0.0519  0.5061  0.5890
  764SOL     OW 3053   0.523   0.231   2.788  0.7072  0.1859  0.2042
  764SOL    HW1 3054   0.434   0.194   2.791 -2.8501  0.9563 -0.7980
  764SOL    HW2 3055   0.504   0.322   2.797  0.5073  0.4532  0.9268
  764SOL     MW 3056   0.509   0.238   2.790  0.2115  0.3228  0.1673
  765SOL     OW 3057   2.749   3.090   2.359  0.3253  0.1874 -0.1345
  765SOL    HW1 3058   2.677   3.104   2.291 -1.1242 -0.0815  1.9421
  765SOL    HW2 3059   2.806   3.030   2.309 -0.5728  0.3209  0.6831
  765SOL     MW 3060   2.747   3.084   2.344  0.0156  0.1695  0.2473
  766SOL     OW 3061   1.864   2.968   2.165 -0.1354  0.2214  0.1175
  766SOL    HW1 3062   1.892   3.017   2.092 -1.0581 -0.7409 -1.4870
  766SOL    HW2 3063   1.806   2.896   2.130  0.3574  0.1947  1.0118
  766SOL     MW 3064   1.860   2.965   2.151 -0.1921  0.0909  0.0238
  767SOL     OW 3065   2.681   0.559   2.051  0.3740  0.0191  1.1623
  767SOL    HW1 3066   2.718   0.639   2.091  0.1801  0.2570 -0.9342
  767SOL    HW2 3067   2.586   0.588   2.038  0.7952  1.6739  0.7330
  767SOL     MW 3068   2.673   0.573   2.054  0.4040  0.2688  0.8290
  768SOL     OW 3069   3.092   1.607   2.956 -0.0873 -0.3140 -1.1997
  768SOL    HW1 3070   3.106   1.570   3.046 -0.8496  0.5561  2.0867
  768SOL    HW2 3071   3.135   1.548   2.907  1.5332 -0.6315  0.2201
  768SOL     MW 3072   3.099   1.594   2.961  0.0259 -0.2411 -0.5787
  769SOL     OW 3073   2.442   0.708   2.326  0.1196 -0.3288  0.4215
  769SOL    HW1 3074   2.356   0.674   2.333 -0.0216  1.4289  0.4010
  769SOL    HW2 3075   2.445   0.703   2.232 -0.7649  4.9805 -1.3737
  769SOL     MW 3076   2.431   0.703   2.315 -0.0157  0.6036  0.1819
  770SOL     OW 3077   0.052   1.584   2.611 -0.6709  0.3211 -0.1904
  770SOL    HW1 3078  -0.045   1.600   2.621  2.0986 -0.7335 -0.8242
  770SOL    HW2 3079   0.066   1.493   2.646  3.5089 -0.3939  2.8510
  770SOL     MW 3080   0.041   1.574   2.617  0.2460  0.0876  0.1273
  771SOL     OW 3081   3.079   0.650   2.033  0.2409 -0.0812  0.1541
  771SOL    HW1 3082   3.015   0.602   1.979 -1.5731 -1.6072  2.6460
  771SOL    HW2 3083   3.169   0.629   1.991 -0.0445  2.2413  0.1054
  771SOL     MW 3084   3.082   0.641   2.021 -0.0361  0.0239  0.4765
  772SOL     OW 3085   0.033   3.084   2.306  0.7606  0.1697 -0.1398
  772SOL    HW1 3086  -0.045   3.034   2.296  1.7036 -2.4156 -0.1256
  772SOL    HW2 3087   0.106   3.024   2.279  1.2723 -1.2135 -1.1810
  772SOL     MW 3088   0.033   3.069   2.301  0.9525 -0.3539 -0.2753
  773SOL     OW 3089   2.396   2.859   2.753 -0.2861  0.1249  0.4198
  773SOL    HW1 3090   2.422   2.776   2.706 -0.7579  0.0082 -2.1785
  773SOL    HW2 3091   2.404   2.845   2.846 -0.6578  0.1302 -1.1618
  773SOL     MW 3092   2.400   2.846   2.759 -0.3974  0.1102 -0.1317
  774SOL     OW 3093   2.314   1.102   1.731  0.0191 -0.3403  0.4566
  774SOL    HW1 3094   2.323   1.183   1.675  0.2493  0.4090 -0.6976
  774SOL    HW2 3095   2.251   1.046   1.695  3.5696 -0.6582 -1.1465
  774SOL     MW 3096   2.307   1.105   1.719  0.5179 -0.2834  0.0928
  775SOL     OW 3097   2.288   2.894   2.318  0.4450  0.6718  0.7242
  775SOL    HW1 3098   2.299   2.982   2.275  0.5306  0.3788 -1.4243
  775SOL    HW2 3099   2.348   2.826   2.287  0.3971  0.0924  2.1417
  775SOL     MW 3100   2.298   2.896   2.308  0.4500  0.5567  0.6278
  776SOL     OW 3101   0.072   1.494   0.094 -0.0170 -0.0586  0.1770
  776SOL    HW1 3102   0.163   1.461   0.092 -2.6728 -1.6941  0.7777
  776SOL    HW2 3103   0.010   1.418   0.089 -2.2894 -1.4906 -2.8977
  776SOL     MW 3104   0.076   1.480   0.093 -0.6672 -0.4634 -0.1494
  777SOL     OW 3105   2.951   1.138   1.738  0.0933 -0.9493  0.2799
  777SOL    HW1 3106   2.884   1.178   1.684  0.9082 -2.3658  0.8084
  777SOL    HW2 3107   2.910   1.068   1.785  1.8799 -1.7630 -0.4175
  777SOL     MW 3108   2.937   1.134   1.737  0.4365 -1.2436  0.2576
  778SOL     OW 3109   2.900   0.491   2.821 -0.3083  0.2991 -0.1137
  778SOL    HW1 3110   2.840   0.491   2.899 -0.1193  0.5175 -2.4248
  778SOL    HW2 3111   2.872   0.555   2.758  0.5988 -1.3724  0.4891
  778SOL     MW 3112   2.888   0.500   2.823 -0.1637  0.1074 -0.3391
  779SOL     OW 3113   2.160   0.588   2.350  0.3130 -0.5580 -0.2589
  779SOL    HW1 3114   2.089   0.646   2.395 -0.3747  2.8174 -1.3389
  779SOL    HW2 3115   2.153   0.497   2.376  1.9629  2.7166  2.4373
  779SOL     MW 3116   2.150   0.584   2.360  0.4399  0.3194 -0.0457
  780SOL     OW 3117   0.256   0.133   2.799  0.1596  0.4030  0.0110
  780SOL    HW1 3118   0.198   0.175   2.868  0.8275 -1.2220  0.4201
  780SOL    HW2 3119   0.206   0.144   2.717  0.4392 -3.0965 -1.0858
  780SOL     MW 3120   0.241   0.140   2.798  0.2846 -0.2731 -0.0797
  781SOL     OW 3121   3.061   1.289   2.518  0.2888  0.0537  0.0672
  781SOL    HW1 3122   3.045   1.344   2.441 -1.9515  0.5853  0.2314
  781SOL    HW2 3123   3.081   1.199   2.485 -1.0680 -0.9565 -1.7102
  781SOL     MW 3124   3.062   1.284   2.504 -0.1858 -0.0095 -0.1457
  782SOL     OW 3125   0.517   1.615   2.998 -0.0593  0.4485  0.0098
  782SOL    HW1 3126   0.463   1.692   3.013  0.5430  2.3141 -0.3363
  782SOL    HW2 3127   0.534   1.585   3.095  4.1163 -0.3266  2.8037
  782SOL     MW 3128   0.512   1.621   3.013  0.5711  0.5924  0.3328
  783SOL     OW 3129   2.802   0.503   2.463 -0.1750  0.4214  0.2151
  783SOL    HW1 3130   2.736   0.504   2.388 -0.4648  0.3528  1.6533
  783SOL    HW2 3131   2.752   0.472   2.542 -1.7132  2.1760 -1.9702
  783SOL     MW 3132   2.787   0.499   2.464 -0.4162  0.6438  0.1165
  784SOL     OW 3133   0.244   0.917   2.899  0.2472  0.4547 -0.0853
  784SOL    HW1 3134   0.212   0.992   2.962  1.8055 -0.9301 -1.4492
  784SOL    HW2 3135   0.217   0.951   2.811 -2.0796  1.3472  0.0486
  784SOL     MW 3136   0.236   0.931   2.895  0.1458  0.3897 -0.2476
  785SOL     OW 3137   0.433   0.504   2.145 -0.4217 -0.2094  0.0049
  785SOL    HW1 3138   0.438   0.551   2.054 -0.1732 -0.5552 -0.6835
  785SOL    HW2 3139   0.347   0.460   2.153 -0.3391 -1.7434 -2.1743
  785SOL     MW 3140   0.422   0.504   2.134 -0.3780 -0.4574 -0.3735
  786SOL     OW 3141   1.993   0.466   2.848 -0.3755 -0.5389 -0.3822
  786SOL    HW1 3142   2.008   0.486   2.936 -2.2382 -3.0381  1.5685
  786SOL    HW2 3143   2.074   0.432   2.823 -1.9772  0.3570  0.9214
  786SOL     MW 3144   2.006   0.464   2.857 -0.8326 -0.7505  0.0472
  787SOL     OW 3145   2.429   0.122   2.883 -0.1367  0.4724 -0.1937
  787SOL    HW1 3146   2.498   0.060   2.843 -1.1244 -0.2844  1.4506
  787SOL    HW2 3147   2.474   0.199   2.926 -0.5014 -1.9149 -1.1169
  787SOL     MW 3148   2.444   0.124   2.883 -0.3152  0.0576 -0.0986
  788SOL     OW 3149   2.943   2.890   2.296 -0.0852  0.7398 -0.7368
  788SOL    HW1 3150   2.973   2.824   2.228  0.4709 -0.4259 -2.0101
  788SOL    HW2 3151   2.987   2.859   2.373  0.2869  1.1301 -0.5201
  788SOL     MW 3152   2.953   2.877   2.297  0.0373  0.6375 -0.8762
  789SOL     OW 3153   0.073   0.216   2.974 -0.3445 -0.0049  0.3247
  789SOL    HW1 3154  -0.009   0.177   3.015 -0.0526  0.7608  1.2864
  789SOL    HW2 3155   0.045   0.307   2.969  1.2465  2.0107 -0.5044
  789SOL     MW 3156   0.059   0.223   2.979 -0.0960  0.3621  0.3422
  790SOL     OW 3157   0.025   1.009   2.434  0.2159  0.0712 -0.1548
  790SOL    HW1 3158  -0.012   0.979   2.515  0.3760  3.5488  0.2232
  790SOL    HW2 3159  -0.056   1.007   2.380  0.1112  1.9639 -0.6930
  790SOL     MW 3160   0.009   1.004   2.438  0.2232  0.7797 -0.1759
  791SOL     OW 3161   2.689   0.389   2.678  0.3262 -0.0831 -0.3077
  791SOL    HW1 3162   2.610   0.447   2.696  1.1571 -1.2360 -2.3046
  791SOL    HW2 3163   2.754   0.414   2.742 -1.5762  0.4438 -1.7792
  791SOL     MW 3164   2.687   0.400   2.689  0.1848 -0.1657 -0.7653
  792SOL     OW 3165   2.425   0.239   2.363 -0.0115 -0.1335  0.6496
  792SOL    HW1 3166   2.337   0.268   2.399 -2.1734 -0.2025  1.8867
  792SOL    HW2 3167   2.473   0.183   2.433  0.6786  0.0284  0.2828
  792SOL     MW 3168   2.420   0.235   2.377 -0.2057 -0.1212  0.7644
  793SOL     OW 3169   1.758   1.008   1.908  0.0247  0.0406 -0.0352
  793SOL    HW1 3170   1.752   1.014   1.809 -0.6727  1.7745 -3.3409
  793SOL    HW2 3171   1.847   0.969   1.926 -0.6259 -1.6742  0.1431
  793SOL     MW 3172   1.769   1.004   1.898 -0.1532  0.0431 -0.4478
  794SOL     OW 3173   1.413   2.252   0.097  0.1594  0.5202  0.2982
  794SOL    HW1 3174   1.440   2.320   0.033 -1.9019  2.2097  2.5529
  794SOL    HW2 3175   1.442   2.290   0.179  1.3280  2.3648  1.3158
  794SOL     MW 3176   1.421   2.266   0.099  0.0416  0.9865  0.7300
  795SOL     OW 3177   2.232   0.938   2.587  0.2994 -0.2340  0.6059
  795SOL    HW1 3178   2.242   1.027   2.623  0.2327  0.4143  1.6679
  795SOL    HW2 3179   2.264   0.941   2.499  0.2726  0.6027  0.2461
  795SOL     MW 3180   2.238   0.950   2.580  0.2871 -0.0381  0.6985
  796SOL     OW 3181   0.343   0.688   2.727  0.0099 -0.2658 -0.0723
  796SOL    HW1 3182   0.322   0.752   2.797  0.3137 -0.4110 -1.2606
  796SOL    HW2 3183   0.253   0.667   2.696  3.3888 -0.7027 -0.2329
  796SOL     MW 3184   0.328   0.694   2.732  0.4958 -0.3426 -0.2502
  797SOL     OW 3185   2.588   0.109   2.563 -0.5714 -0.3562 -0.0340
  797SOL    HW1 3186   2.625   0.195   2.559  1.8982  1.2726  0.8712
  797SOL    HW2 3187   2.640   0.051   2.506 -0.5360  0.2676  0.4138
  797SOL     MW 3188   2.599   0.113   2.555 -0.2409 -0.0590  0.1445
  798SOL     OW 3189   2.328   0.045   2.203  0.0862 -0.1937  0.0744
  798SOL    HW1 3190   2.359   0.120   2.264 -0.5884 -1.7897 -1.4803
  798SOL    HW2 3191   2.418   0.005   2.177 -0.7860 -3.8633 -1.0694
  798SOL     MW 3192   2.344   0.050   2.208 -0.1179 -0.8884 -0.2817
  799SOL     OW 3193   2.469   2.917   0.190  0.4099 -0.6042 -0.1457
  799SOL    HW1 3194   2.489   2.844   0.135  1.5254  0.2581 -2.2717
  799SOL    HW2 3195   2.388   2.958   0.160  0.8520  0.5676  2.4229
  799SOL     MW 3196   2.461   2.913   0.179  0.6154 -0.3358 -0.0873
  800SOL     OW 3197   1.869   3.064   1.772  0.1212 -0.0213 -0.1503
  800SOL    HW1 3198   1.821   2.987   1.799 -0.1439  0.9274  2.9802
  800SOL    HW2 3199   1.935   3.075   1.841  1.1250 -1.6287  0.3724
  800SOL     MW 3200   1.871   3.056   1.784  0.2187 -0.1082  0.3317
  801SOL     OW 3201   2.812   1.324   2.622 -0.2998 -0.1886 -0.1286
  801SOL    HW1 3202   2.764   1.247   2.581 -2.2082  0.7754 -0.2363
  801SOL    HW2 3203   2.904   1.311   2.596  0.5637  1.1757  1.1055
  801SOL     MW 3204   2.818   1.312   2.613 -0.4376  0.1186  0.0200
  802SOL     OW 3205   2.568   1.498   2.823 -0.3069 -0.3544 -0.3726
  802SOL    HW1 3206   2.565   1.403   2.803  0.9207 -1.6367 -1.0527
  802SOL    HW2 3207   2.666   1.510   2.840  4.1607 -0.2696  2.4020
  802SOL     MW 3208   2.581   1.487   2.823  0.4445 -0.5124 -0.0962
  803SOL     OW 3209   2.332   1.269   1.935  0.0531  0.4605 -0.0532
  803SOL    HW1 3210   2.303   1.234   2.018  3.2782  1.6005  0.4961
  803SOL    HW2 3211   2.311   1.202   1.871  0.4280 -2.4099  0.1252
  803SOL     MW 3212   2.325   1.256   1.937  0.5281  0.2322  0.0428
  804SOL     OW 3213   2.305   0.064   0.026  0.4060  0.0640  0.1957
  804SOL    HW1 3214   2.235   0.126   0.019  0.7070 -2.5927  0.1559
  804SOL    HW2 3215   2.363   0.074  -0.050 -0.6089  0.7151  0.0990
  804SOL     MW 3216   2.304   0.074   0.015  0.3118 -0.2006  0.1777
  805SOL     OW 3217   2.721   1.042   2.561  0.2787  0.1124 -0.5162
  805SOL    HW1 3218   2.671   0.959   2.550 -0.3593 -1.2953  0.2449
  805SOL    HW2 3219   2.809   1.016   2.582  0.4210 -2.2540 -0.2467
  805SOL     MW 3220   2.726   1.028   2.563  0.2133 -0.3855 -0.3802
  806SOL     OW 3221   2.636   0.410   2.271  0.0952  0.2253 -0.0628
  806SOL    HW1 3222   2.549   0.362   2.286  0.2810 -1.6464  1.3964
  806SOL    HW2 3223   2.622   0.465   2.190  2.2326  0.2540  0.5254
  806SOL     MW 3224   2.623   0.411   2.262  0.4017 -0.0179  0.2074
  807SOL     OW 3225   3.090   1.123   2.059 -0.2986  0.4270 -0.6808
  807SOL    HW1 3226   3.147   1.046   2.047 -2.9297 -2.3271  0.2889
  807SOL    HW2 3227   3.040   1.095   2.139 -0.8506  0.1746 -0.2998
  807SOL     MW 3228   3.091   1.109   2.068 -0.7186  0.0304 -0.5026
  808SOL     OW 3229   2.599   3.045   2.768 -0.4512  0.5404 -0.2486
  808SOL    HW1 3230   2.526   2.988   2.746 -1.4164  1.1467 -0.1204
  808SOL    HW2 3231   2.599   3.114   2.698 -0.8651 -0.5151  3.3722
  808SOL     MW 3232   2.589   3.047   2.756 -0.6332  0.4811  0.2460
  809SOL     OW 3233   2.485   1.236   2.415  0.2171 -0.1096 -0.0863
  809SOL    HW1 3234   2.471   1.254   2.516 -1.3522  1.1068  0.9089
  809SOL    HW2 3235   2.579   1.228   2.399  0.8127 -1.5298  0.7372
  809SOL     MW 3236   2.495   1.237   2.426  0.0886 -0.1365  0.1536
  810SOL     OW 3237   2.186   1.191   2.189 -0.0812  0.0060 -0.0611
  810SOL    HW1 3238   2.225   1.129   2.260  2.2380  0.5793  2.0589
  810SOL    HW2 3239   2.102   1.153   2.158 -1.3905  2.3363  0.4992
  810SOL     MW 3240   2.180   1.178   2.195  0.0520  0.3891  0.2926
  811SOL     OW 3241   1.524   0.095   2.274 -0.0064 -0.5919 -0.6448
  811SOL    HW1 3242   1.605   0.045   2.306 -1.1567  4.0841 -0.7062
  811SOL    HW2 3243   1.524   0.063   2.176 -1.8962  0.0599  0.5554
  811SOL     MW 3244   1.535   0.084   2.265 -0.4075  0.1110 -0.4946
  812SOL     OW 3245   1.390   2.785   2.064 -0.3045 -0.3178  0.2183
  812SOL    HW1 3246   1.474   2.804   2.025  1.6286 -1.7624 -1.0370
  812SOL    HW2 3247   1.422   2.789   2.154  0.9572  0.9109 -0.0819
  812SOL     MW 3248   1.405   2.788   2.071  0.1170 -0.3463  0.0131
  813SOL     OW 3249   1.834   0.804   2.189 -0.3512  0.3707  0.1336
  813SOL    HW1 3250   1.787   0.725   2.173 -1.9511  2.2294 -1.2782
  813SOL    HW2 3251   1.876   0.779   2.275 -0.6206  0.7980 -0.9828
  813SOL     MW 3252   1.833   0.790   2.199 -0.5978  0.6724 -0.2000
  814SOL     OW 3253   2.741   1.251   1.599 -0.0806 -0.7490  0.1384
  814SOL    HW1 3254   2.667   1.227   1.661  2.4365 -0.6468  0.7897
  814SOL    HW2 3255   2.738   1.192   1.523 -1.2632 -2.0863 -0.3270
  814SOL     MW 3256   2.731   1.240   1.597  0.0955 -0.9120  0.1629
  815SOL     OW 3257   2.464   1.674   2.362 -0.6900 -1.0088 -0.0658
  815SOL    HW1 3258   2.388   1.619   2.344  2.6297 -0.1047 -1.1650
  815SOL    HW2 3259   2.532   1.603   2.364 -1.2585  0.0743 -1.6070
  815SOL     MW 3260   2.463   1.657   2.360 -0.3270 -0.7466 -0.4142
  816SOL     OW 3261   0.656   0.618   2.764 -0.2558 -0.0789  0.0185
  816SOL    HW1 3262   0.726   0.563   2.799 -1.6822  2.1471  0.4473
  816SOL    HW2 3263   0.597   0.568   2.702 -2.1368 -1.6728  0.7314
  816SOL     MW 3264   0.657   0.604   2.760 -0.6922  0.0045  0.1692
  817SOL     OW 3265   3.036   1.136   1.405  0.4283 -0.0329 -0.2691
  817SOL    HW1 3266   3.099   1.151   1.477  1.5623 -3.2489 -1.9093
  817SOL    HW2 3267   3.003   1.225   1.377  0.1667 -1.7465 -2.1437
  817SOL     MW 3268   3.040   1.150   1.411  0.5434 -0.6833 -0.7328
  818SOL     OW 3269   1.930   0.992   2.728  0.3294 -0.3118 -0.5420
  818SOL    HW1 3270   1.960   1.018   2.642  0.8606 -0.9550 -2.3618
  818SOL    HW2 3271   2.002   0.931   2.758  2.1887  0.0839 -0.1167
  818SOL     MW 3272   1.944   0.987   2.721  0.6448 -0.3444 -0.7260
  819SOL     OW 3273   1.829   0.232   2.366 -0.0816 -0.0813 -0.6081
  819SOL    HW1 3274   1.778   0.313   2.378 -3.2241  0.8257 -0.8175
  819SOL    HW2 3275   1.881   0.207   2.445  2.6394 -1.5607 -0.4635
  819SOL     MW 3276   1.829   0.240   2.378 -0.1373 -0.1568 -0.6167
  820SOL     OW 3277   2.494   1.714   2.645 -0.3971 -0.0051  0.1496
  820SOL    HW1 3278   2.519   1.634   2.692  1.0835 -2.0817 -2.6520
  820SOL    HW2 3279   2.509   1.684   2.557  0.7583 -1.1583 -2.8198
  820SOL     MW 3280   2.499   1.700   2.640 -0.0493 -0.4312 -0.6118
  821SOL     OW 3281   2.584   1.357   2.002 -0.1871 -0.5008  0.2092
  821SOL    HW1 3282   2.620   1.431   1.957 -1.5672 -0.1670  1.6728
  821SOL    HW2 3283   2.492   1.359   1.980 -0.5471  0.1842  0.7208
  821SOL     MW 3284   2.577   1.367   1.993 -0.4167 -0.3664  0.4698
  822SOL     OW 3285   2.858   2.676   1.401  0.0298  0.4603 -0.0151
  822SOL    HW1 3286   2.814   2.695   1.485  0.3694  2.7955 -2.4148
  822SOL    HW2 3287   2.862   2.757   1.347  1.0962  0.4092 -1.1580
  822SOL     MW 3288   2.853   2.689   1.405  0.2153  0.7617 -0.4825
  823SOL     OW 3289   2.276   0.461   1.761 -0.4173  0.2802 -0.2983
  823SOL    HW1 3290   2.353   0.421   1.720 -0.9358  0.2146 -1.8163
  823SOL    HW2 3291   2.214   0.394   1.744  2.3748 -1.7753 -0.2316
  823SOL     MW 3292   2.278   0.447   1.753 -0.1173  0.0003 -0.4898
  824SOL     OW 3293   2.117   1.345   2.520 -0.0144  0.3559  0.0193
  824SOL    HW1 3294   2.189   1.385   2.453  0.7096  1.5015  2.9712
  824SOL    HW2 3295   2.082   1.426   2.558  1.2586  2.0583  0.9680
  824SOL     MW 3296   2.122   1.361   2.516  0.2491  0.7317  0.5340
  825SOL     OW 3297   2.178   2.456   0.430  0.4299 -0.8641 -0.1537
  825SOL    HW1 3298   2.247   2.445   0.357  0.3925 -1.5964  0.1535
  825SOL    HW2 3299   2.203   2.406   0.510  0.9334 -1.7928 -2.0372
  825SOL     MW 3300   2.190   2.448   0.431  0.4914 -1.0832 -0.3617
  826SOL     OW 3301   1.756   2.349   0.406 -0.5104 -0.4994 -0.6981
  826SOL    HW1 3302   1.757   2.300   0.490 -0.7921  0.4066  2.4095
  826SOL    HW2 3303   1.780   2.437   0.440 -0.7343 -1.3410 -1.2546
  826SOL     MW 3304   1.760   2.354   0.422 -0.5772 -0.4909 -0.3615
  827SOL     OW 3305   1.954   2.275   0.904  0.0033  0.6481  0.2229
  827SOL    HW1 3306   1.880   2.258   0.848 -0.7976 -0.0814  2.5444
  827SOL    HW2 3307   1.925   2.210   0.966 -3.6099  1.5525 -1.5492
  827SOL     MW 3308   1.940   2.264   0.905 -0.5791  0.6712  0.2954
  828SOL     OW 3309   0.085   2.627   0.577 -0.1031 -0.1636  0.0688
  828SOL    HW1 3310   0.176   2.652   0.585 -0.5812 -2.0658 -0.3253
  828SOL    HW2 3311   0.070   2.658   0.486  2.9191 -0.9175 -2.9036
  828SOL     MW 3312   0.095   2.634   0.566  0.2326 -0.5140 -0.3754
  829SOL     OW 3313   3.015   2.902   1.186 -0.4032 -0.1049  0.0879
  829SOL    HW1 3314   2.944   2.889   1.129  1.3984 -0.6484  1.6932
  829SOL    HW2 3315   3.053   2.821   1.200  0.2306  2.2269 -1.0218
  829SOL     MW 3316   3.011   2.890   1.180 -0.0819  0.1310  0.1533
  830SOL     OW 3317   2.548   2.782   2.008 -0.2032  0.0336 -0.3897
  830SOL    HW1 3318   2.461   2.816   1.995  3.6998 -3.0946 -0.6030
  830SOL    HW2 3319   2.574   2.793   1.915 -1.4447  0.0869 -1.0876
  830SOL     MW 3320   2.540   2.788   1.994  0.1480 -0.3721 -0.5099
  831SOL     OW 3321   2.490   2.453   1.177 -0.3824  0.4491  0.2272
  831SOL    HW1 3322   2.461   2.405   1.250  0.4787 -1.2009  0.2396
  831SOL    HW2 3323   2.583   2.423   1.154 -1.6512 -0.6297 -1.4219
  831SOL     MW 3324   2.499   2.443   1.184 -0.4362  0.0891  0.0113
  832SOL     OW 3325   2.423   2.124   1.829 -0.3697  0.4630  0.4991
  832SOL    HW1 3326   2.447   2.210   1.864  1.5023 -2.2513  0.2141
  832SOL    HW2 3327   2.504   2.071   1.828  1.5177 -0.3105  3.8027
  832SOL     MW 3328   2.437   2.128   1.834  0.1263  0.0028  0.8974
  833SOL     OW 3329   1.690   2.608   0.904 -0.8833 -0.1027  0.1380
  833SOL    HW1 3330   1.659   2.524   0.954  2.9472  2.3742  0.1741
  833SOL    HW2 3331   1.615   2.669   0.904 -0.3630  0.7031 -0.9188
  833SOL     MW 3332   1.676   2.605   0.910 -0.3093  0.3304  0.0033
  834SOL     OW 3333   2.261   2.361   0.661 -0.5631 -0.3047  0.5690
  834SOL    HW1 3334   2.217   2.282   0.632  1.0440  2.4202 -0.5138
  834SOL    HW2 3335   2.349   2.349   0.637 -0.4129  1.7502  2.3303
  834SOL     MW 3336   2.267   2.349   0.654 -0.3313  0.3259  0.6585
  835SOL     OW 3337   1.776   2.553   0.637 -1.1247 -0.3305 -0.5595
  835SOL    HW1 3338   1.737   2.601   0.713  0.2177 -1.7827 -0.5699
  835SOL    HW2 3339   1.824   2.481   0.675  2.1746  0.4693 -0.6345
  835SOL     MW 3340   1.778   2.550   0.652 -0.5123 -0.4166 -0.5707
  836SOL     OW 3341   2.040   2.140   1.662  0.0151 -0.4529  0.1826
  836SOL    HW1 3342   2.118   2.085   1.643 -1.1640 -0.4113 -0.3483
  836SOL    HW2 3343   2.080   2.223   1.693 -1.4331  1.2875  0.1201
  836SOL     MW 3344   2.056   2.144   1.664 -0.3316 -0.2177  0.1043
  837SOL     OW 3345   2.119   0.188   0.663  0.1613  0.6896 -0.3925
  837SOL    HW1 3346   2.034   0.196   0.621  0.6430 -4.0407 -2.0560
  837SOL    HW2 3347   2.157   0.122   0.599 -1.6997  0.5496 -0.9552
  837SOL     MW 3348   2.112   0.180   0.649 -0.0207  0.0470 -0.6862
  838SOL     OW 3349   2.867   2.087   0.927 -0.1184 -0.3068 -0.5420
  838SOL    HW1 3350   2.787   2.038   0.946 -1.3426 -0.8846 -0.4822
  838SOL    HW2 3351   2.906   2.092   1.014  0.1718  0.6362  0.1960
  838SOL     MW 3352   2.862   2.081   0.941 -0.2416 -0.2586 -0.4367
  839SOL     OW 3353   1.570   2.354   1.013  0.2004  0.0201  0.4486
  839SOL    HW1 3354   1.522   2.444   1.036  0.9065 -0.9224  0.3628
  839SOL    HW2 3355   1.599   2.312   1.096  1.5894 -1.6817  3.6951
  839SOL     MW 3356   1.567   2.360   1.027  0.4769 -0.3288  0.8656
  840SOL     OW 3357   2.376   2.083   2.410  0.4625 -0.0477 -0.2563
  840SOL    HW1 3358   2.323   2.151   2.359 -1.1143  0.1637 -2.1160
  840SOL    HW2 3359   2.435   2.135   2.469  2.0433  0.0306 -0.6090
  840SOL     MW 3360   2.377   2.099   2.411  0.4630 -0.0095 -0.5482
  841SOL     OW 3361   2.325   2.390   0.069  0.0035 -0.5521  0.1839
  841SOL    HW1 3362   2.318   2.475   0.017  2.3150  1.8687  1.3939
  841SOL    HW2 3363   2.249   2.341   0.039  0.2448 -0.5461 -1.5707
  841SOL     MW 3364   2.314   2.395   0.058  0.3403 -0.2319  0.1121
  842SOL     OW 3365   2.683   1.954   1.406 -0.5740 -0.5943  0.3687
  842SOL    HW1 3366   2.634   1.873   1.398 -0.2629 -1.3693 -2.6344
  842SOL    HW2 3367   2.654   2.018   1.334  0.6102  1.7270 -1.0828
  842SOL     MW 3368   2.673   1.952   1.395 -0.3767 -0.3903 -0.2190
  843SOL     OW 3369   2.635   2.769   1.747 -0.3626  0.2919 -0.2210
  843SOL    HW1 3370   2.717   2.725   1.770 -1.8672  1.5282  0.4948
  843SOL    HW2 3371   2.568   2.705   1.728  0.5357 -2.5153  2.7235
  843SOL     MW 3372   2.637   2.755   1.748 -0.4426  0.0846  0.2620
  844SOL     OW 3373   2.739   2.340   1.144  0.0123  0.0988 -0.5577
  844SOL    HW1 3374   2.777   2.380   1.068 -0.1905 -0.9881  1.6364
  844SOL    HW2 3375   2.790   2.356   1.221 -2.8146 -0.0004  0.4344
  844SOL     MW 3376   2.751   2.347   1.144 -0.3875 -0.0577 -0.1373
  845SOL     OW 3377   2.841   2.565   0.278  0.3114 -0.0369 -0.3969
  845SOL    HW1 3378   2.829   2.477   0.316  2.8062 -2.0735  1.0945
  845SOL    HW2 3379   2.843   2.629   0.351  1.8015 -1.8721  0.6684
  845SOL     MW 3380   2.839   2.562   0.293  0.8371 -0.5477 -0.0596
  846SOL     OW 3381   1.447   2.836   0.797 -0.1707 -0.2359 -0.3176
  846SOL    HW1 3382   1.528   2.885   0.823  0.2074  1.0455  2.3055
  846SOL    HW2 3383   1.372   2.890   0.815 -0.3483  0.0607 -3.5872
  846SOL     MW 3384   1.447   2.849   0.803 -0.1442 -0.0277 -0.4029
  847SOL     OW 3385   2.508   1.874   0.191 -0.4792 -0.0461  0.1985
  847SOL    HW1 3386   2.469   1.790   0.227 -1.6358 -3.6074  1.7742
  847SOL    HW2 3387   2.484   1.877   0.098  0.4403  1.1120  1.9760
  847SOL     MW 3388   2.500   1.863   0.184 -0.5105 -0.3632  0.6409
  848SOL     OW 3389   2.600   2.098   1.188  0.7476 -0.1882  0.0506
  848SOL    HW1 3390   2.649   2.173   1.167 -2.5915  1.3667 -0.6554
  848SOL    HW2 3391   2.649   2.028   1.146  2.0208 -1.7223  1.7961
  848SOL     MW 3392   2.613   2.099   1.180  0.4750 -0.1854  0.1878
  849SOL     OW 3393   1.992   2.850   0.799 -0.6214 -0.1403  0.4398
  849SOL    HW1 3394   1.985   2.816   0.893 -0.3336  1.1781  0.3121
  849SOL    HW2 3395   2.030   2.781   0.744 -0.6331 -1.1571 -0.1452
  849SOL     MW 3396   1.996   2.836   0.804 -0.5850 -0.1005  0.3458
  850SOL     OW 3397   2.342   1.834   1.654 -0.1982  0.2643  0.1191
  850SOL    HW1 3398   2.286   1.813   1.578 -0.9582 -2.4619 -0.8584
  850SOL    HW2 3399   2.341   1.929   1.661  1.1688  1.5695  0.3003
  850SOL     MW 3400   2.335   1.843   1.645 -0.1181  0.0768  0.0140
  851SOL     OW 3401   2.400   2.281   0.302  0.4063 -0.3559  0.4259
  851SOL    HW1 3402   2.379   2.320   0.218  0.6542 -2.1735  0.4895
  851SOL    HW2 3403   2.466   2.334   0.335 -0.1660  0.6450 -0.6716
  851SOL     MW 3404   2.406   2.293   0.295  0.3635 -0.4637  0.2895
  852SOL     OW 3405   2.316   2.019   0.349 -0.1409 -0.8575 -0.4319
  852SOL    HW1 3406   2.329   2.106   0.312 -0.7702 -1.2709  0.9774
  852SOL    HW2 3407   2.364   1.968   0.287  0.1650  0.9201  1.3056
  852SOL     MW 3408   2.324   2.023   0.336 -0.1836 -0.6775 -0.0167
  853SOL     OW 3409   2.522   2.385   1.922 -0.2473  0.1257  0.2687
  853SOL    HW1 3410   2.516   2.434   1.840 -1.4738  2.7034 -1.0643
  853SOL    HW2 3411   2.614   2.382   1.953  0.7219  0.7570  0.8689
  853SOL     MW 3412   2.534   2.391   1.916 -0.2812  0.5491  0.1720
  854SOL     OW 3413   2.847   2.266   0.719  0.0535  0.2623  0.4274
  854SOL    HW1 3414   2.769   2.235   0.671 -0.3435  1.8263 -1.3156
  854SOL    HW2 3415   2.858   2.197   0.790 -1.0424  1.0398 -0.0839
  854SOL     MW 3416   2.838   2.253   0.722 -0.1434  0.5713  0.1299
  855SOL     OW 3417   2.776   2.359   0.439 -0.0094 -0.0362  0.4366
  855SOL    HW1 3418   2.693   2.357   0.485 -0.6631  1.0514 -2.9248
  855SOL    HW2 3419   2.798   2.265   0.421 -0.4180 -2.1551  0.1692
  855SOL     MW 3420   2.768   2.346   0.442 -0.1495 -0.1723 -0.0422
  856SOL     OW 3421   2.087   1.891   0.248 -0.5486  0.4740  0.8618
  856SOL    HW1 3422   2.000   1.903   0.283 -0.6411 -0.2388 -2.6529
  856SOL    HW2 3423   2.146   1.949   0.298  1.2848  0.1806 -0.9709
  856SOL     MW 3424   2.084   1.900   0.259 -0.3189  0.3413  0.1563
  857SOL     OW 3425   2.519   1.955   0.527  0.1308 -0.2689  0.5190
  857SOL    HW1 3426   2.445   1.989   0.477  0.3746  2.3238  2.2561
  857SOL    HW2 3427   2.476   1.954   0.612 -0.0091 -0.5419 -2.2241
  857SOL     MW 3428   2.504   1.959   0.532  0.1445  0.0372  0.3863
  858SOL     OW 3429   2.885   2.656   1.788 -0.1776  0.0710 -0.0382
  858SOL    HW1 3430   2.972   2.678   1.822  0.8470 -0.3410 -1.3085
  858SOL    HW2 3431   2.881   2.562   1.769  3.3883 -1.2802 -0.8444
  858SOL     MW 3432   2.896   2.647   1.790  0.4281 -0.1616 -0.3122
  859SOL     OW 3433   1.915   2.737   1.028 -0.1878  0.2034 -0.5486
  859SOL    HW1 3434   1.853   2.673   0.986 -0.9688 -1.0090 -2.8662
  859SOL    HW2 3435   2.005   2.699   1.040  1.1102 -2.9075 -3.0639
  859SOL     MW 3436   1.918   2.723   1.024 -0.1196 -0.3670 -1.1862
  860SOL     OW 3437   2.605   2.647   0.162 -0.5542  0.5534  0.0408
  860SOL    HW1 3438   2.688   2.625   0.217  1.2975 -2.4493  1.4339
  860SOL    HW2 3439   2.641   2.692   0.089  0.1815 -1.5567 -0.9782
  860SOL     MW 3440   2.621   2.650   0.159 -0.2128 -0.1212  0.0902
  861SOL     OW 3441   1.651   2.164   1.203  0.0507 -0.1172 -0.2414
  861SOL    HW1 3442   1.642   2.243   1.262 -0.5930 -0.0337  0.1563
  861SOL    HW2 3443   1.586   2.107   1.241  0.3340  0.4752  1.0694
  861SOL     MW 3444   1.641   2.167   1.216  0.0032 -0.0280 -0.0160
  862SOL     OW 3445   2.513   1.729   1.424 -0.3731 -0.2800 -0.0274
  862SOL    HW1 3446   2.468   1.771   1.498 -1.8616  1.0116 -1.9517
  862SOL    HW2 3447   2.443   1.691   1.374  1.3025  1.1386  1.9730
  862SOL     MW 3448   2.498   1.729   1.427 -0.3485  0.0776 -0.0174
  863SOL     OW 3449   3.006   1.716   0.976  0.1872 -0.4266 -0.5561
  863SOL    HW1 3450   3.061   1.674   1.039 -2.0344  1.1330  1.0015
  863SOL    HW2 3451   2.988   1.803   1.012  1.9514 -1.0643  0.5655
  863SOL     MW 3452   3.011   1.722   0.989  0.1269 -0.3050 -0.2027
  864SOL     OW 3453   0.016   1.829   0.743 -0.5639 -0.4307  0.0877
  864SOL    HW1 3454  -0.036   1.798   0.815 -0.6068  0.7229 -0.3706
  864SOL    HW2 3455  -0.026   1.796   0.663 -0.2872 -0.8332  0.6481
  864SOL     MW 3456   0.004   1.821   0.742 -0.5330 -0.3316  0.1012
  865SOL     OW 3457   2.624   2.192   0.075 -0.6631 -0.5370  0.3136
  865SOL    HW1 3458   2.636   2.127   0.141  2.6041  1.6455  3.6626
  865SOL    HW2 3459   2.563   2.159   0.009 -1.1130  0.5054  0.3450
  865SOL     MW 3460   2.617   2.179   0.075 -0.2914 -0.1115  0.7596
  866SOL     OW 3461   2.642   2.393   1.536  1.1084 -0.1850 -0.7770
  866SOL    HW1 3462   2.636   2.296   1.561  0.7608 -2.8883  0.6387
  866SOL    HW2 3463   2.709   2.409   1.473 -1.4249  0.6913 -0.9401
  866SOL     MW 3464   2.650   2.382   1.531  0.7283 -0.4260 -0.6118
  867SOL     OW 3465   0.118   2.662   1.757 -0.1527 -0.8005 -0.2566
  867SOL    HW1 3466   0.118   2.705   1.843  0.2303  0.8515 -0.5418
  867SOL    HW2 3467   0.127   2.738   1.694  0.8256 -0.8917  1.9712
  867SOL     MW 3468   0.119   2.678   1.760  0.0269 -0.5946 -0.0003
  868SOL     OW 3469   2.768   2.685   0.517  0.0144  0.6092 -0.2465
  868SOL    HW1 3470   2.732   2.591   0.539 -2.5843 -0.1629  2.6768
  868SOL    HW2 3471   2.692   2.738   0.499 -1.4684 -3.6570 -0.2827
  868SOL     MW 3472   2.753   2.680   0.517 -0.5241 -0.0556  0.1344
  869SOL     OW 3473   2.063   2.493   1.034  0.2532  0.4123 -0.1008
  869SOL    HW1 3474   2.153   2.478   1.007  0.3173  2.5225  0.5327
  869SOL    HW2 3475   2.010   2.428   0.991 -1.4643 -1.2511  3.1663
  869SOL     MW 3476   2.068   2.482   1.024  0.0350  0.4712  0.4139
  870SOL     OW 3477   2.195   0.025   0.454 -0.2379 -0.6675  0.3439
  870SOL    HW1 3478   2.269   0.063   0.402 -0.1473  2.0422 -0.8710
  870SOL    HW2 3479   2.235  -0.052   0.494  0.3909  4.1041 -2.0319
  870SOL     MW 3480   2.210   0.020   0.452 -0.1429  0.3196 -0.1299
  871SOL     OW 3481   2.485   2.093   0.855 -0.7808 -0.0523 -0.3316
  871SOL    HW1 3482   2.424   2.021   0.826  1.7536  0.0040  0.4414
  871SOL    HW2 3483   2.428   2.159   0.901  0.1635  1.2615 -0.0207
  871SOL     MW 3484   2.469   2.092   0.857 -0.3218  0.1284 -0.1886
  872SOL     OW 3485   2.115   2.563   1.527  0.1844  0.1768  0.6242
  872SOL    HW1 3486   2.043   2.605   1.576 -0.9769  0.4949  0.5432
  872SOL    HW2 3487   2.078   2.528   1.443  1.8356 -0.5139 -1.8810
  872SOL     MW 3488   2.101   2.564   1.523  0.2491  0.1276  0.2830
  873SOL     OW 3489   2.843   2.087   1.820  0.2709 -0.0159  0.0082
  873SOL    HW1 3490   2.823   2.158   1.883  0.4658 -0.2424 -2.0176
  873SOL    HW2 3491   2.917   2.129   1.770  1.6506  1.4168  2.0865
  873SOL     MW 3492   2.850   2.102   1.821  0.4786  0.1432  0.0151
  874SOL     OW 3493   2.292   1.413   2.338 -0.5103  0.0851 -0.0355
  874SOL    HW1 3494   2.253   1.347   2.280 -1.0687  1.8574 -1.5275
  874SOL    HW2 3495   2.381   1.377   2.354  1.9970  0.5721  2.0330
  874SOL     MW 3496   2.298   1.400   2.333 -0.2532  0.3832  0.0406
  875SOL     OW 3497   2.345   2.344   0.979  0.1877  0.3156 -0.5493
  875SOL    HW1 3498   2.358   2.383   0.895 -2.4803  0.7504 -0.4833
  875SOL    HW2 3499   2.414   2.376   1.044 -0.3328 -1.5425 -0.5026
  875SOL     MW 3500   2.356   2.353   0.976 -0.2330  0.1278 -0.5344
  876SOL     OW 3501   3.083   2.249   1.321  0.1156  0.3581  0.5412
  876SOL    HW1 3502   3.125   2.310   1.258  2.6032 -1.3618 -0.0667
  876SOL    HW2 3503   3.134   2.262   1.404 -1.9368  0.4302  0.9481
  876SOL     MW 3504   3.095   2.259   1.323  0.1730  0.1407  0.5147
  877SOL     OW 3505   0.051   2.782   0.330  0.0279 -0.2840 -0.1979
  877SOL    HW1 3506   0.109   2.853   0.310  0.1900 -4.0805  0.7154
  877SOL    HW2 3507   0.037   2.721   0.258  0.6078  1.2585  0.8609
  877SOL     MW 3508   0.056   2.783   0.318  0.1258 -0.5814  0.0623
  878SOL     OW 3509   2.327   1.692   1.199 -0.6430 -0.0281  0.2560
  878SOL    HW1 3510   2.232   1.665   1.216 -1.1017 -0.8034  0.2215
  878SOL    HW2 3511   2.363   1.618   1.140  0.2131  0.6498 -2.5248
  878SOL     MW 3512   2.320   1.679   1.193 -0.5906 -0.0410 -0.1154
  879SOL     OW 3513   2.758   2.451   0.862 -0.4888 -0.0833  0.0124
  879SOL    HW1 3514   2.821   2.521   0.874 -1.2717 -2.2147  0.7409
  879SOL    HW2 3515   2.813   2.394   0.807 -0.0841 -1.0220 -0.1804
  879SOL     MW 3516   2.774   2.453   0.856 -0.5387 -0.4884  0.0831
  880SOL     OW 3517   2.581   2.198   0.632  0.2583  0.4138  0.3142
  880SOL    HW1 3518   2.550   2.161   0.720 -2.4941 -0.6537  0.1902
  880SOL    HW2 3519   2.562   2.141   0.553  0.8863 -0.3113 -5.4906
  880SOL     MW 3520   2.574   2.185   0.633 -0.0220  0.1772 -0.4681
  881SOL     OW 3521   2.945   2.766   0.715 -0.1727 -0.3591  0.1878
  881SOL    HW1 3522   2.882   2.722   0.667 -0.5435  2.8147 -0.7491
  881SOL    HW2 3523   3.031   2.743   0.673 -1.2433  2.6915 -1.6821
  881SOL     MW 3524   2.948   2.757   0.703 -0.3629  0.4621 -0.1825
  882SOL     OW 3525   2.303   2.858   1.933 -0.2346  0.3298  0.1669
  882SOL    HW1 3526   2.292   2.886   1.840  0.8481  1.3320  1.0693
  882SOL    HW2 3527   2.241   2.786   1.945 -0.3310  0.8831 -2.0332
  882SOL     MW 3528   2.294   2.852   1.922 -0.1045  0.5350 -0.0044
  883SOL     OW 3529   2.399   2.230   1.313  1.0765 -0.3582  0.0418
  883SOL    HW1 3530   2.461   2.165   1.275  0.1657  1.6309  0.2016
  883SOL    HW2 3531   2.316   2.229   1.260 -2.3283 -3.1572 -0.0726
  883SOL     MW 3532   2.396   2.221   1.301  0.5071 -0.4651  0.0478
  884SOL     OW 3533   1.957   1.813   1.068 -0.3909 -0.1974  0.1727
  884SOL    HW1 3534   1.927   1.903   1.078 -1.1612  0.6717  0.1182
  884SOL    HW2 3535   2.051   1.824   1.055 -2.6559  1.7527  0.1978
  884SOL     MW 3536   1.965   1.826   1.068 -0.7914  0.1746  0.1688
  885SOL     OW 3537   2.846   2.406   1.720  0.8146  0.0790 -0.4191
  885SOL    HW1 3538   2.924   2.357   1.687 -1.1902  0.7592 -0.2634
  885SOL    HW2 3539   2.776   2.397   1.656  1.2580 -0.8397 -1.8995
  885SOL     MW 3540   2.847   2.398   1.707  0.6086  0.0476 -0.5939
  886SOL     OW 3541   2.862   2.401   1.371 -0.0827 -0.5219 -0.3987
  886SOL    HW1 3542   2.952   2.360   1.374 -1.5394  1.6425  1.7359
  886SOL    HW2 3543   2.891   2.500   1.379 -1.9397 -0.4367 -0.6697
  886SOL     MW 3544   2.878   2.409   1.372 -0.5199 -0.2251 -0.1528
  887SOL     OW 3545   2.352   2.704   1.501  0.3269  0.0883  0.1696
  887SOL    HW1 3546   2.383   2.696   1.411  3.0177 -1.6233  3.4008
  887SOL    HW2 3547   2.268   2.655   1.501  1.3048  2.7563 -0.7905
  887SOL     MW 3548   2.345   2.697   1.489  0.8110  0.2145  0.4692
  888SOL     OW 3549   2.036   2.171   1.344  1.0138  0.2766 -0.3096
  888SOL    HW1 3550   2.085   2.183   1.259  0.8418  1.3413 -0.4481
  888SOL    HW2 3551   2.100   2.138   1.402  0.9511 -1.2105  0.4179
  888SOL     MW 3552   2.051   2.168   1.340  0.9828  0.2208 -0.2319
  889SOL     OW 3553   2.290   1.930   2.058 -0.2401 -0.5764 -0.5058
  889SOL    HW1 3554   2.366   1.902   2.110 -0.7277 -1.0478 -2.6479
  889SOL    HW2 3555   2.311   2.003   2.004 -0.6753 -1.5390 -0.4558
  889SOL     MW 3556   2.303   1.936   2.058 -0.3619 -0.7656 -0.7818
  890SOL     OW 3557   0.045   2.338   0.164 -0.5846  0.5386  0.2016
  890SOL    HW1 3558   0.017   2.429   0.179  0.3685 -1.9973  3.2145
  890SOL    HW2 3559   0.003   2.290   0.241 -1.9186  1.8954  2.9960
  890SOL     MW 3560   0.036   2.344   0.176 -0.6348  0.3831  0.9678
  891SOL     OW 3561   2.979   2.049   1.174  0.2454  0.2545 -0.3578
  891SOL    HW1 3562   3.060   1.993   1.169 -1.3079 -2.4842 -2.3018
  891SOL    HW2 3563   3.004   2.129   1.216  0.1650 -1.2014 -0.9357
  891SOL     MW 3564   2.993   2.052   1.179  0.0299 -0.2989 -0.6906
  892SOL     OW 3565   2.484   2.404   2.841  0.7965 -0.0166  0.2219
  892SOL    HW1 3566   2.473   2.318   2.881 -1.0664  0.2487 -2.2517
  892SOL    HW2 3567   2.569   2.443   2.871 -2.5091  1.5905 -3.9394
  892SOL     MW 3568   2.494   2.398   2.850  0.1146  0.2304 -0.6535
  893SOL     OW 3569   1.676   2.380   1.360 -0.0637 -0.0468  0.5255
  893SOL    HW1 3570   1.593   2.403   1.395  1.7668  2.8828  0.8312
  893SOL    HW2 3571   1.731   2.405   1.433  1.5009 -0.3662  0.0090
  893SOL     MW 3572   1.672   2.386   1.375  0.3843  0.2976  0.4977
  894SOL     OW 3573   2.777   1.840   0.477 -0.0788  0.3776  0.4454
  894SOL    HW1 3574   2.675   1.864   0.489 -2.7270  1.6920 -0.5665
  894SOL    HW2 3575   2.787   1.833   0.378  0.4612 -0.0414 -1.8041
  894SOL     MW 3576   2.765   1.842   0.466 -0.3570  0.4957  0.0151
  895SOL     OW 3577   2.189   2.185   1.140 -0.1746  0.2825 -0.0398
  895SOL    HW1 3578   2.232   2.238   1.073  0.2987 -0.1670  1.5092
  895SOL    HW2 3579   2.219   2.097   1.110 -2.0226  2.2920 -1.0396
  895SOL     MW 3580   2.199   2.180   1.127 -0.3560  0.4883  0.0327
  896SOL     OW 3581   2.215   2.762   1.090 -0.2125 -0.5389 -0.4861
  896SOL    HW1 3582   2.304   2.751   1.125  1.0628  1.6199  0.1674
  896SOL    HW2 3583   2.170   2.825   1.148 -1.2606  0.7591  0.3164
  896SOL     MW 3584   2.220   2.769   1.102 -0.1825 -0.0828 -0.2940
  897SOL     OW 3585   3.069   3.005   3.091 -0.3349 -0.0305  0.2459
  897SOL    HW1 3586   3.111   2.924   3.101 -0.1398  0.5026  0.6701
  897SOL    HW2 3587   3.001   2.996   3.030 -0.9900  0.1074 -0.5592
  897SOL     MW 3588   3.065   2.993   3.084 -0.3956  0.0580  0.1956
  898SOL     OW 3589   2.080   0.152   1.424  0.8278 -0.1336  0.7480
  898SOL    HW1 3590   2.061   0.062   1.459  0.6194 -1.2778 -1.4702
  898SOL    HW2 3591   2.081   0.142   1.325  1.4231  0.4988 -0.8261
  898SOL     MW 3592   2.077   0.139   1.415  0.8788 -0.2012  0.2477
  899SOL     OW 3593   2.905   3.012   0.600 -0.8183  0.6547 -0.1526
  899SOL    HW1 3594   2.937   2.951   0.669  1.6595  0.2756  2.4339
  899SOL    HW2 3595   2.822   3.045   0.635  0.4481  0.5655 -0.7813
  899SOL     MW 3596   2.898   3.008   0.614 -0.3243  0.5929  0.1057
  900SOL     OW 3597   0.089   2.351   1.096 -0.2001 -0.1062 -0.2281
  900SOL    HW1 3598   0.102   2.445   1.090 -0.5578 -0.1632 -0.6651
  900SOL    HW2 3599   0.081   2.323   1.006  1.1891 -1.6243  1.0398
  900SOL     MW 3600   0.090   2.360   1.083 -0.0640 -0.3140 -0.1185
  901SOL     OW 3601   1.737   2.823   1.801  0.2594  1.0942  0.5419
  901SOL    HW1 3602   1.805   2.757   1.765  1.8925 -1.4180 -0.7591
  901SOL    HW2 3603   1.660   2.834   1.744  0.3899 -1.4430 -1.7195
  901SOL     MW 3604   1.736   2.816   1.788  0.4921  0.4280  0.0719
  902SOL     OW 3605   2.646   2.142   1.608 -0.2536  0.0956 -0.7196
  902SOL    HW1 3606   2.666   2.071   1.540  0.5467 -1.9865 -0.8425
  902SOL    HW2 3607   2.709   2.117   1.680 -2.4431 -1.3777  1.4370
  902SOL     MW 3608   2.657   2.129   1.609 -0.4368 -0.3735 -0.4513
  903SOL     OW 3609   1.492   2.647   0.578 -0.1438 -0.0045 -0.3463
  903SOL    HW1 3610   1.585   2.649   0.603  0.2682  2.6465  0.2832
  903SOL    HW2 3611   1.443   2.694   0.655  2.0404 -1.5571  1.0314
  903SOL     MW 3612   1.498   2.654   0.591  0.1987  0.1404 -0.0815
  904SOL     OW 3613   2.481   2.543   1.700 -0.0222  0.1940  0.1689
  904SOL    HW1 3614   2.439   2.611   1.635 -1.0273 -0.2609  0.2288
  904SOL    HW2 3615   2.542   2.490   1.642 -1.3389  1.2416 -1.2791
  904SOL     MW 3616   2.483   2.545   1.683 -0.3285  0.2722 -0.0142
  905SOL     OW 3617   2.318   2.450   2.099 -0.0348 -0.1353 -0.4631
  905SOL    HW1 3618   2.388   2.415   2.046 -0.1646 -0.7518  1.8147
  905SOL    HW2 3619   2.295   2.360   2.138  1.4382 -0.5386  1.2293
  905SOL     MW 3620   2.324   2.434   2.097  0.1424 -0.2699  0.0608
  906SOL     OW 3621   2.515   2.517   0.779  0.2971 -0.0402 -0.7294
  906SOL    HW1 3622   2.594   2.481   0.820 -0.3477 -2.7373  3.3440
  906SOL    HW2 3623   2.492   2.598   0.825 -2.4643 -0.2979 -0.1438
  906SOL     MW 3624   2.522   2.523   0.790 -0.1523 -0.4300 -0.1147
  907SOL     OW 3625   2.661   2.867   1.277 -0.2587 -0.2583  0.1892
  907SOL    HW1 3626   2.709   2.913   1.348  0.6502  3.6357  1.8954
  907SOL    HW2 3627   2.714   2.876   1.202 -0.3234  3.4066 -0.8501
  907SOL     MW 3628   2.674   2.874   1.277 -0.1473  0.7390  0.2772
  908SOL     OW 3629   2.715   2.435   0.026  0.1661  0.0812  0.3097
  908SOL    HW1 3630   2.665   2.354   0.048 -1.7944  1.0216 -2.1357
  908SOL    HW2 3631   2.674   2.501   0.075 -0.8207 -1.2144  2.5146
  908SOL     MW 3632   2.703   2.433   0.036 -0.2228  0.0344  0.2779
  909SOL     OW 3633   1.718   0.140   1.253 -0.3036  0.2342  0.6200
  909SOL    HW1 3634   1.663   0.206   1.226  0.3987 -1.8737  0.4436
  909SOL    HW2 3635   1.700   0.114   1.344  0.6192 -2.6978  1.1276
  909SOL     MW 3636   1.708   0.145   1.261 -0.0892 -0.4308  0.6637
  910SOL     OW 3637   2.134   1.664   0.392 -0.1445 -0.4214  0.0844
  910SOL    HW1 3638   2.080   1.591   0.360 -0.2593 -1.1330 -0.3818
  910SOL    HW2 3639   2.102   1.733   0.332 -1.2367 -1.2907  0.7512
  910SOL     MW 3640   2.123   1.663   0.380 -0.3038 -0.6300  0.1109
  911SOL     OW 3641   2.316   2.122   1.568  0.4459  0.3371 -0.0203
  911SOL    HW1 3642   2.376   2.145   1.645  2.6253  0.1844  1.7814
  911SOL    HW2 3643   2.355   2.173   1.490  0.9593  0.7571  0.1511
  911SOL     MW 3644   2.329   2.132   1.568  0.8012  0.3724  0.2400
  912SOL     OW 3645   2.942   1.863   1.394  0.0636 -0.0904 -0.5309
  912SOL    HW1 3646   2.967   1.892   1.302 -2.9516 -2.5331  1.5318
  912SOL    HW2 3647   2.862   1.912   1.406 -2.1162  0.0495  0.4267
  912SOL     MW 3648   2.935   1.873   1.383 -0.6219 -0.3942 -0.1324
  913SOL     OW 3649   2.698   3.062   0.267  0.0256  0.4305 -0.1442
  913SOL    HW1 3650   2.787   3.020   0.260  0.2520 -1.0731 -0.4276
  913SOL    HW2 3651   2.635   2.997   0.244  2.1319 -1.9967  1.8015
  913SOL     MW 3652   2.702   3.048   0.263  0.3333 -0.0882  0.0751
  914SOL     OW 3653   2.698   1.815   2.940  0.2245 -0.0528 -0.5081
  914SOL    HW1 3654   2.738   1.901   2.926  0.9613  1.8298  1.6720
  914SOL    HW2 3655   2.602   1.831   2.969 -0.3796 -0.5275  2.3062
  914SOL     MW 3656   2.691   1.829   2.942  0.2420  0.1330  0.1508
  915SOL     OW 3657   1.801   0.143   0.128  0.3747 -0.5119 -0.3316
  915SOL    HW1 3658   1.861   0.097   0.184 -3.7623 -0.8295 -0.8637
  915SOL    HW2 3659   1.710   0.126   0.165 -1.5275 -0.9183 -0.5891
  915SOL     MW 3660   1.797   0.135   0.140 -0.4221 -0.6074 -0.4357
  916SOL     OW 3661   1.734   2.192   2.013  0.3062 -0.0057 -0.4625
  916SOL    HW1 3662   1.792   2.269   2.000  2.3308 -2.1778 -1.2638
  916SOL    HW2 3663   1.773   2.135   1.949 -1.4232  0.1486  0.0406
  916SOL     MW 3664   1.747   2.195   2.003  0.3451 -0.2719 -0.5019
  917SOL     OW 3665   2.520   2.269   2.595 -0.0750 -0.6202 -0.0526
  917SOL    HW1 3666   2.504   2.314   2.676 -0.3065 -0.4038  0.4320
  917SOL    HW2 3667   2.595   2.309   2.560 -1.8743  1.2762  3.6557
  917SOL     MW 3668   2.528   2.281   2.601 -0.3429 -0.3415  0.5006
  918SOL     OW 3669   2.063   1.595   2.637  0.5848 -0.3610 -0.5528
  918SOL    HW1 3670   1.986   1.624   2.590 -0.2933 -2.0240 -1.4343
  918SOL    HW2 3671   2.128   1.666   2.623  2.1885  1.2176 -1.2629
  918SOL     MW 3672   2.062   1.609   2.629  0.6805 -0.3721 -0.7628
  919SOL     OW 3673   3.080   2.420   2.245  0.4550  0.0096  0.7059
  919SOL    HW1 3674   3.038   2.339   2.228 -0.7278  0.4079 -2.2433
  919SOL    HW2 3675   3.144   2.423   2.172  0.1302 -0.7081 -0.6805
  919SOL     MW 3676   3.083   2.409   2.233  0.2560 -0.0325  0.1339
  920SOL     OW 3677   2.669   2.789   3.034 -0.2883 -0.8703 -0.1679
  920SOL    HW1 3678   2.578   2.803   3.009  1.7601  0.7028  0.4933
  920SOL    HW2 3679   2.710   2.780   2.950 -3.4978 -3.1459 -1.0463
  920SOL     MW 3680   2.663   2.790   3.020 -0.4415 -0.9630 -0.1966
  921SOL     OW 3681   2.468   2.629   2.633  0.4700  0.2807 -0.2616
  921SOL    HW1 3682   2.534   2.661   2.571  1.8048  0.5999  1.6759
  921SOL    HW2 3683   2.507   2.548   2.665 -0.1577  0.9290  0.7708
  921SOL     MW 3684   2.482   2.622   2.629  0.5633  0.4084  0.1302
  922SOL     OW 3685   2.094   2.716   0.391  0.1628 -0.3784  0.2006
  922SOL    HW1 3686   2.071   2.727   0.299  1.5990 -1.6779  2.9144
  922SOL    HW2 3687   2.079   2.622   0.426  2.5104 -2.0308  0.8029
  922SOL     MW 3688   2.089   2.705   0.384  0.6620 -0.7679  0.6381
  923SOL     OW 3689   2.206   2.852   1.661 -0.0631  0.3943 -0.3813
  923SOL    HW1 3690   2.246   2.787   1.605 -0.5626 -0.4788 -1.1156
  923SOL    HW2 3691   2.151   2.909   1.609 -0.5925  0.8262  0.9981
  923SOL     MW 3692   2.204   2.851   1.647 -0.1989  0.3361 -0.2962
  924SOL     OW 3693   1.081   2.737   2.608  0.1531  0.3584  0.1534
  924SOL    HW1 3694   1.177   2.759   2.589 -2.9955 -0.2262 -0.1675
  924SOL    HW2 3695   1.086   2.659   2.664  0.1542 -2.2533 -0.0372
  924SOL     MW 3696   1.095   2.730   2.613 -0.2622 -0.0633  0.0859
  925SOL     OW 3697   2.973   0.248   2.678 -0.1386  0.2408 -0.0538
  925SOL    HW1 3698   2.937   0.249   2.586  1.7287 -0.9648  0.5668
  925SOL    HW2 3699   2.931   0.327   2.725  1.2367  1.2727 -1.6927
  925SOL     MW 3700   2.963   0.259   2.672  0.2892  0.2179 -0.1882
  926SOL     OW 3701   2.785   2.356   1.988  0.5574  0.0532 -0.1843
  926SOL    HW1 3702   2.800   2.440   2.039 -2.1145 -1.3283 -3.0158
  926SOL    HW2 3703   2.809   2.379   1.899 -0.1089 -2.2452 -0.1774
  926SOL     MW 3704   2.790   2.370   1.983  0.1169 -0.4323 -0.5570
  927SOL     OW 3705   2.382   0.155   0.299 -0.1257 -0.0578 -0.2604
  927SOL    HW1 3706   2.466   0.199   0.309  1.2154 -2.0318 -2.2403
  927SOL    HW2 3707   2.370   0.137   0.209  1.6286  2.9267  0.0665
  927SOL     MW 3708   2.391   0.158   0.288  0.2827  0.0755 -0.4785
  928SOL     OW 3709   2.138   2.392   1.727 -0.4138 -0.4908  0.5753
  928SOL    HW1 3710   2.089   2.428   1.651  0.0945 -1.0199  0.7433
  928SOL    HW2 3711   2.225   2.426   1.720  0.5776 -2.9661  1.2210
  928SOL     MW 3712   2.143   2.401   1.716 -0.2159 -0.8872  0.6826
  929SOL     OW 3713   2.754   2.351   2.470  0.3117  0.0353  0.3243
  929SOL    HW1 3714   2.806   2.308   2.409 -1.2800  1.0967  4.3080
  929SOL    HW2 3715   2.812   2.368   2.545  3.9909 -0.3260 -0.7205
  929SOL     MW 3716   2.769   2.348   2.472  0.5871  0.1277  0.7120
  930SOL     OW 3717   2.028   2.800   2.660  0.6336 -0.1505  0.3072
  930SOL    HW1 3718   2.060   2.743   2.732  0.2626  0.3832 -0.2357
  930SOL    HW2 3719   2.091   2.873   2.657  2.5798  1.6594  3.3879
  930SOL     MW 3720   2.040   2.802   2.669  0.8414  0.1587  0.6420
  931SOL     OW 3721   0.028   2.780   2.472  0.0928 -0.4317  0.4112
  931SOL    HW1 3722   0.019   2.814   2.557  0.5646 -1.6398 -3.4302
  931SOL    HW2 3723   0.115   2.808   2.459 -0.6166  3.0534 -1.5760
  931SOL     MW 3724   0.038   2.788   2.482  0.0615 -0.1313 -0.3579
  932SOL     OW 3725   2.848   1.910   2.514 -0.5804  0.7884  0.4197
  932SOL    HW1 3726   2.923   1.970   2.515  0.6128 -0.7069 -0.9393
  932SOL    HW2 3727   2.810   1.915   2.423  0.3760  1.7399 -0.4105
  932SOL     MW 3728   2.853   1.919   2.502 -0.2968  0.7166  0.1309
  933SOL     OW 3729   2.058   2.796   2.217 -0.1884  0.0590 -0.3402
  933SOL    HW1 3730   2.135   2.834   2.257  1.8933  1.7604  2.7461
  933SOL    HW2 3731   2.000   2.867   2.190  2.2214 -0.1756  0.8755
  933SOL     MW 3732   2.061   2.810   2.218  0.4042  0.2525  0.2274
  934SOL     OW 3733   2.005   2.641   2.446  0.3548  0.5085 -0.2301
  934SOL    HW1 3734   2.019   2.693   2.525 -1.3438 -0.7564 -3.9964
  934SOL    HW2 3735   2.030   2.682   2.362 -0.8524 -4.0232  0.3065
  934SOL     MW 3736   2.010   2.653   2.445 -0.0286 -0.2563 -0.6562
  935SOL     OW 3737   2.649   1.525   1.802 -0.5659 -0.8988 -0.3194
  935SOL    HW1 3738   2.739   1.512   1.785 -3.9916 -0.6110 -1.6852
  935SOL    HW2 3739   2.618   1.500   1.716  2.5041 -2.1188 -2.0821
  935SOL     MW 3740   2.657   1.520   1.788 -0.6128 -1.0218 -0.7321
  936SOL     OW 3741   2.945   2.251   3.085  0.1188 -0.4053 -0.1122
  936SOL    HW1 3742   3.016   2.283   3.139 -1.6741 -0.5895  0.0440
  936SOL    HW2 3743   2.867   2.307   3.113  0.3704  0.9614 -1.4101
  936SOL     MW 3744   2.944   2.262   3.096 -0.0845 -0.2493 -0.2629
  937SOL     OW 3745   1.980   2.157   2.703  0.1736  0.3639 -0.8050
  937SOL    HW1 3746   2.054   2.129   2.757  0.2495  0.1845 -0.7190
  937SOL    HW2 3747   1.989   2.128   2.613 -3.8075  1.2621  0.1444
  937SOL     MW 3748   1.991   2.149   2.698 -0.3416  0.4587 -0.6684
  938SOL     OW 3749   2.356   1.709   1.911 -0.1627 -0.1119 -0.3669
  938SOL    HW1 3750   2.359   1.724   1.815  2.1167 -0.2241 -0.6855
  938SOL    HW2 3751   2.330   1.793   1.954 -0.2687 -1.5005 -0.0145
  938SOL     MW 3752   2.353   1.722   1.904  0.1241 -0.3099 -0.3624
  939SOL     OW 3753   2.758   1.966   2.246  0.4394 -0.7091  0.0620
  939SOL    HW1 3754   2.795   1.916   2.169  0.9353  0.6201 -0.9967
  939SOL    HW2 3755   2.665   1.957   2.233  1.7017  2.5137  0.4966
  939SOL     MW 3756   2.750   1.958   2.234  0.6714 -0.1085 -0.0203
  940SOL     OW 3757   2.227   0.138   2.672 -0.2939 -0.3038  0.2784
  940SOL    HW1 3758   2.228   0.046   2.643  1.6799 -1.7369  1.8357
  940SOL    HW2 3759   2.287   0.149   2.744 -0.1873  0.5274  0.7181
  940SOL     MW 3760   2.235   0.127   2.678 -0.0194 -0.3832  0.5419
  941SOL     OW 3761   0.185   2.444   2.031 -0.0409  0.3902 -0.2516
  941SOL    HW1 3762   0.266   2.414   2.058  0.6180 -0.9962  0.4965
  941SOL    HW2 3763   0.163   2.407   1.948 -3.3088 -0.0677  0.2397
  941SOL     MW 3764   0.193   2.435   2.024 -0.3851  0.1468 -0.0881
  942SOL     OW 3765   2.873   2.217   2.229  0.3335  0.0744 -0.5894
  942SOL    HW1 3766   2.846   2.235   2.144 -0.7860  1.4061 -1.5953
  942SOL    HW2 3767   2.839   2.129   2.250 -2.1085  1.4029  0.6988
  942SOL     MW 3768   2.865   2.207   2.221 -0.1364  0.4254 -0.5521
  943SOL     OW 3769   0.245   2.118   2.306  0.7205  0.3381  0.1006
  943SOL    HW1 3770   0.202   2.172   2.382  1.7742  3.8381 -0.4639
  943SOL    HW2 3771   0.325   2.072   2.344 -1.0332  0.4901 -1.0296
  943SOL     MW 3772   0.250   2.119   2.321  0.6282  0.8199 -0.1230
  944SOL     OW 3773   2.106   2.659   1.978  0.6735 -0.4194  0.0575
  944SOL    HW1 3774   2.156   2.582   1.986 -0.7045 -1.2369 -0.6957
  944SOL    HW2 3775   2.069   2.680   2.060  0.9577 -1.7141 -0.7017
  944SOL     MW 3776   2.108   2.651   1.990  0.5291 -0.6981 -0.1420
  945SOL     OW 3777   2.827   2.750   2.809 -0.4692  0.1530  0.3475
  945SOL    HW1 3778   2.784   2.670   2.828 -4.0023  2.4673 -0.7005
  945SOL    HW2 3779   2.811   2.768   2.714 -0.7343  0.4212  2.0741
  945SOL     MW 3780   2.819   2.742   2.799 -0.9703  0.4937  0.4370
  946SOL     OW 3781   2.450   2.643   2.231  0.2243  0.0803  0.2421
  946SOL    HW1 3782   2.484   2.663   2.149  2.3562 -4.4292 -1.0713
  946SOL    HW2 3783   2.380   2.581   2.201 -1.1325  0.1396 -0.9896
  946SOL     MW 3784   2.445   2.638   2.216  0.3266 -0.5068 -0.0937
  947SOL     OW 3785   2.039   0.065   0.243  0.3756 -0.1588  0.0907
  947SOL    HW1 3786   2.058  -0.016   0.189  2.5137 -2.5869 -1.3103
  947SOL    HW2 3787   2.091   0.061   0.324 -2.5766  0.1012 -0.4787
  947SOL     MW 3788   2.049   0.054   0.247  0.2682 -0.4449 -0.1693
  948SOL     OW 3789   1.814   3.003   2.651 -0.2837  0.1449 -0.3996
  948SOL    HW1 3790   1.837   2.909   2.663 -2.6147  0.6432 -0.5415
  948SOL    HW2 3791   1.754   3.016   2.577 -1.4765  0.3752  0.7329
  948SOL     MW 3792   1.809   2.993   2.643 -0.7487  0.2410 -0.2689
  949SOL     OW 3793   2.496   1.901   2.237 -0.5372 -0.4742 -0.5494
  949SOL    HW1 3794   2.463   1.818   2.277 -1.0738  2.1945 -1.3271
  949SOL    HW2 3795   2.463   1.974   2.293  0.4451  0.4471 -0.3415
  949SOL     MW 3796   2.487   1.900   2.250 -0.4784 -0.0005 -0.6245
  950SOL     OW 3797   2.296   2.571   2.978  0.1694  0.0678  0.6875
  950SOL    HW1 3798   2.333   2.503   2.922  0.7998  0.8105 -1.2354
  950SOL    HW2 3799   2.203   2.573   2.949 -3.2861 -0.3466 -1.1341
  950SOL     MW 3800   2.289   2.562   2.967 -0.2033  0.1111  0.1935
  951SOL     OW 3801   3.061   2.186   2.844 -0.0451 -0.4228  0.1008
  951SOL    HW1 3802   3.025   2.207   2.934 -4.9601 -0.3457  0.7605
  951SOL    HW2 3803   3.030   2.096   2.827 -2.1670  0.3172  1.0929
  951SOL     MW 3804   3.052   2.177   2.854 -0.9736 -0.3150  0.3187
  952SOL     OW 3805   3.026   1.682   2.138  0.1242  0.7562 -0.5616
  952SOL    HW1 3806   2.940   1.720   2.110 -1.2425 -0.0752  1.9098
  952SOL    HW2 3807   3.083   1.756   2.124  1.4972  1.6848  4.5331
  952SOL     MW 3808   3.022   1.697   2.132  0.1250  0.7690  0.4367
  953SOL     OW 3809   1.973   1.720   2.904 -0.1359  0.1221  0.2992
  953SOL    HW1 3810   1.903   1.679   2.950 -0.1891 -0.7488 -2.2068
  953SOL    HW2 3811   1.993   1.642   2.851  0.2189 -1.5679  1.7495
  953SOL     MW 3812   1.966   1.704   2.903 -0.0961 -0.2158  0.1599
  954SOL     OW 3813   2.466   2.138   2.931 -0.7533 -0.4440 -0.5223
  954SOL    HW1 3814   2.377   2.132   2.901 -0.8571  1.1434  2.3198
  954SOL    HW2 3815   2.515   2.094   2.868  2.3190 -1.3875  1.0041
  954SOL     MW 3816   2.461   2.131   2.919 -0.3616 -0.3590  0.0541
  955SOL     OW 3817   1.588   1.568   2.540 -0.1832 -1.0433  0.1815
  955SOL    HW1 3818   1.551   1.605   2.451  0.9122 -1.7720 -2.5739
  955SOL    HW2 3819   1.672   1.618   2.556 -2.3296 -1.8200  2.1363
  955SOL     MW 3820   1.594   1.580   2.530 -0.3218 -1.2419  0.0758
  956SOL     OW 3821   2.722   2.513   2.879  0.4879  0.6346 -0.2523
  956SOL    HW1 3822   2.723   2.495   2.973  3.3908  0.5120  0.7367
  956SOL    HW2 3823   2.786   2.451   2.842  0.5124 -0.8998 -3.3005
  956SOL     MW 3824   2.730   2.502   2.886  0.8741  0.4160 -0.5240
  957SOL     OW 3825   2.260   2.868   0.539  0.3675 -0.3113  0.4336
  957SOL    HW1 3826   2.207   2.828   0.467 -0.4018 -0.3927  1.0733
  957SOL    HW2 3827   2.283   2.790   0.601  0.6559 -1.1360  1.2297
  957SOL     MW 3828   2.256   2.852   0.538  0.3041 -0.4308  0.6230
  958SOL     OW 3829   2.065   2.637   2.877  0.2635 -0.6945  0.3232
  958SOL    HW1 3830   2.046   2.578   2.806  0.2806 -0.5663 -1.3614
  958SOL    HW2 3831   1.981   2.663   2.920  2.1300 -0.8347 -0.6201
  958SOL     MW 3832   2.052   2.633   2.873  0.5120 -0.6961 -0.0235
  959SOL     OW 3833   2.516   2.815   0.445  0.0366  0.3008  0.0718
  959SOL    HW1 3834   2.478   2.831   0.356 -0.7074  0.0647  0.2180
  959SOL    HW2 3835   2.444   2.840   0.506  0.6124 -1.9026  0.2493
  959SOL     MW 3836   2.502   2.820   0.441  0.0144 -0.0211  0.1145
  960SOL     OW 3837   1.930   2.338   2.301 -0.3670 -0.0456 -0.2671
  960SOL    HW1 3838   1.947   2.242   2.314 -0.0283 -0.1017  0.7042
  960SOL    HW2 3839   1.904   2.372   2.387 -1.2979  1.0107 -0.3196
  960SOL     MW 3840   1.929   2.330   2.314 -0.4451  0.0864 -0.1458
  961SOL     OW 3841   2.217   2.275   2.303  0.4163 -0.1025  0.6500
  961SOL    HW1 3842   2.123   2.295   2.297  0.4471  2.9738 -1.5899
  961SOL    HW2 3843   2.249   2.337   2.367  1.0306 -0.7704 -3.5241
  961SOL     MW 3844   2.209   2.286   2.311  0.5014  0.2153 -0.1962
  962SOL     OW 3845   2.214   2.065   2.834 -0.1598 -0.1099  0.1377
  962SOL    HW1 3846   2.193   2.023   2.918  1.1325 -0.1602  1.8739
  962SOL    HW2 3847   2.243   1.993   2.773  2.1823 -3.6477 -3.5707
  962SOL     MW 3848   2.215   2.050   2.837  0.3198 -0.5833 -0.1225
  963SOL     OW 3849   1.836   2.561   2.124  0.6337  0.4579 -0.8852
  963SOL    HW1 3850   1.856   2.488   2.184 -1.0676  3.2543 -0.1946
  963SOL    HW2 3851   1.855   2.524   2.032  0.0483  0.9627 -0.6253
  963SOL     MW 3852   1.841   2.547   2.120  0.3320  0.8935 -0.7598
  964SOL     OW 3853   1.841   1.929   2.782 -0.3001 -0.9554  0.3566
  964SOL    HW1 3854   1.900   2.002   2.755  2.2256 -0.7722  0.0830
  964SOL    HW2 3855   1.883   1.850   2.824 -1.0277  0.3614 -0.5632
  964SOL     MW 3856   1.855   1.928   2.784 -0.0628 -0.7575  0.1992
  965SOL     OW 3857   2.208   2.624   0.720 -0.1214 -0.8702  0.9684
  965SOL    HW1 3858   2.231   2.532   0.722  0.6618  0.0025  1.7505
  965SOL    HW2 3859   2.265   2.662   0.786 -1.7493  2.1778 -2.2162
  965SOL     MW 3860   2.219   2.617   0.729 -0.2329 -0.3529  0.6514
  966SOL     OW 3861   2.671   2.604   2.412 -0.3325 -0.0790  0.3691
  966SOL    HW1 3862   2.610   2.599   2.340  1.6162 -0.5548  3.4787
  966SOL    HW2 3863   2.689   2.515   2.440  0.8582  1.3823 -0.8631
  966SOL     MW 3864   2.665   2.591   2.407  0.0818  0.0510  0.6168
  967SOL     OW 3865   2.802   3.015   2.955 -0.4219 -0.2039  0.4471
  967SOL    HW1 3866   2.768   2.954   3.018  2.6085  1.2675 -0.9341
  967SOL    HW2 3867   2.722   3.031   2.900 -2.1948  1.3677 -0.6354
  967SOL     MW 3868   2.787   3.009   2.956 -0.2560  0.1976  0.1220
  968SOL     OW 3869   3.057   2.648   2.968  0.3121  0.5708 -0.1747
  968SOL    HW1 3870   3.005   2.715   2.932  0.8657 -0.6280  0.9112
  968SOL    HW2 3871   3.092   2.601   2.895  1.2244  1.6683 -0.1052
  968SOL     MW 3872   3.055   2.650   2.954  0.5055  0.5574 -0.0223
  969SOL     OW 3873   1.607   2.219   1.692  0.0759 -0.1868  0.4610
  969SOL    HW1 3874   1.671   2.146   1.713 -0.4051 -0.2901  1.1129
  969SOL    HW2 3875   1.560   2.238   1.770  0.1956 -0.5282  2.0577
  969SOL     MW 3876   1.609   2.212   1.705  0.0282 -0.2455  0.7577
  970SOL     OW 3877   1.806   1.828   1.926 -0.0937  0.1148 -0.0322
  970SOL    HW1 3878   1.849   1.747   1.961  0.3038  2.4200  1.5993
  970SOL    HW2 3879   1.711   1.830   1.950 -1.1851  1.2529 -2.8207
  970SOL     MW 3880   1.799   1.818   1.934 -0.1853  0.5691 -0.1849
  971SOL     OW 3881   1.732   3.089   2.370 -0.5182  0.7042 -0.5006
  971SOL    HW1 3882   1.766   3.038   2.293 -1.5716  0.9306  2.7741
  971SOL    HW2 3883   1.768   3.175   2.364  0.9793  1.3635 -2.4350
  971SOL     MW 3884   1.741   3.094   2.359 -0.4596  0.8211 -0.3237
  972SOL     OW 3885   0.309   2.858   2.408  0.7483  0.4837 -0.3112
  972SOL    HW1 3886   0.379   2.793   2.423  2.2659 -1.0735  0.3687
  972SOL    HW2 3887   0.342   2.940   2.447  0.9562 -0.6211 -0.1663
  972SOL     MW 3888   0.323   2.860   2.415  0.9760  0.1325 -0.2024
  973SOL     OW 3889   2.569   3.041   2.127 -0.1988 -0.2779 -0.3855
  973SOL    HW1 3890   2.580   2.946   2.110 -0.0712  0.8359  1.5754
  973SOL    HW2 3891   2.581   3.083   2.035 -1.2971  2.4229 -2.4280
  973SOL     MW 3892   2.572   3.034   2.113 -0.3269  0.2254 -0.3963
  974SOL     OW 3893   1.941   0.141   2.602  0.0414  0.3702 -0.4011
  974SOL    HW1 3894   2.028   0.125   2.639 -0.8740  1.8760 -0.0489
  974SOL    HW2 3895   1.887   0.066   2.628 -1.0101 -0.8272 -0.0899
  974SOL     MW 3896   1.945   0.129   2.610 -0.2181  0.4109 -0.3136
  975SOL     OW 3897   2.225   2.485   2.497  0.2232 -0.1813 -0.3452
  975SOL    HW1 3898   2.299   2.547   2.514  0.7786 -1.1053  2.8605
  975SOL    HW2 3899   2.151   2.538   2.455 -1.7724  0.0039  0.8587
  975SOL     MW 3900   2.225   2.500   2.493  0.0332 -0.2788  0.2366
  976SOL     OW 3901   0.177   0.366   1.677  0.7369 -0.3390 -0.4503
  976SOL    HW1 3902   0.256   0.312   1.704  1.3984 -0.8719 -2.6298
  976SOL    HW2 3903   0.108   0.299   1.657  0.3328  1.0410  0.8320
  976SOL     MW 3904   0.178   0.350   1.678  0.7708 -0.2272 -0.5687
  977SOL     OW 3905   1.707   2.742   2.398  0.6603  0.5705 -0.4949
  977SOL    HW1 3906   1.739   2.652   2.385 -2.9254 -0.5947 -1.1313
  977SOL    HW2 3907   1.789   2.789   2.411  1.5712  2.4487 -0.4435
  977SOL     MW 3908   1.722   2.736   2.398  0.3074  0.6646 -0.5721
   3.10000   3.10000   3.10000
