977 TIP4P/2005f water molecules t=   1.69000 step= 1690
 3908
    1SOL     OW    1   0.388   0.780   0.109 -0.0639 -0.1725  0.0011
    1SOL    HW1    2   0.385   0.729   0.027 -1.5233  3.0994 -0.5729
    1SOL    HW2    3   0.401   0.733   0.192  2.2273 -1.6388  0.4900
    1SOL     MW    4   0.390   0.767   0.109  0.0458  0.0657 -0.0101
    2SOL     OW    5   0.314   3.007   1.086 -0.1110  0.0841 -0.1789
    2SOL    HW1    6   0.358   3.094   1.078 -0.3648 -0.3958  0.6441
    2SOL    HW2    7   0.224   3.021   1.121 -0.2453  2.1349 -1.0582
    2SOL     MW    8   0.308   3.020   1.089 -0.1622  0.2914 -0.1864
    3SOL     OW    9   2.665   0.340   0.979  0.5130 -0.3298 -0.2318
    3SOL    HW1   10   2.716   0.416   0.942 -0.7434 -2.9592  2.9186
    3SOL    HW2   11   2.642   0.371   1.073  2.4863 -2.1492 -0.0481
    3SOL     MW   12   2.669   0.354   0.987  0.6076 -0.9168  0.2081
    4SOL     OW   13   2.967   1.708   0.518 -0.9979  0.2472 -0.4219
    4SOL    HW1   14   2.889   1.770   0.504 -1.2643  1.8479 -3.0987
    4SOL    HW2   15   3.025   1.721   0.443  0.5508 -1.3199 -0.4835
    4SOL     MW   16   2.964   1.718   0.506 -0.8287  0.2516 -0.7832
    5SOL     OW   17   1.605   1.413   0.617 -0.7229 -0.3113 -0.4270
    5SOL    HW1   18   1.655   1.424   0.697 -1.0388 -0.3507  2.5783
    5SOL    HW2   19   1.524   1.448   0.640  1.9665  1.6398  1.2990
    5SOL     MW   20   1.601   1.419   0.630 -0.4097 -0.0591  0.1973
    6SOL     OW   21   0.778   1.446   0.617 -0.5815 -0.2417 -0.0404
    6SOL    HW1   22   0.682   1.423   0.612  1.8295 -0.8125 -3.1492
    6SOL    HW2   23   0.807   1.368   0.666 -2.8621 -0.3731 -1.1693
    6SOL     MW   24   0.769   1.433   0.623 -0.5643 -0.3344 -0.5995
    7SOL     OW   25   1.935   1.078   0.001  0.4553 -0.1199 -0.2485
    7SOL    HW1   26   2.001   1.148  -0.017 -0.6182 -1.1203  0.7068
    7SOL    HW2   27   1.949   1.055   0.100  1.8535  2.9639  1.5387
    7SOL     MW   28   1.946   1.084   0.011  0.4981  0.1550  0.1133
    8SOL     OW   29   0.794   1.466   1.078 -0.1138 -0.1357 -0.6790
    8SOL    HW1   30   0.883   1.489   1.080 -2.2708  0.8212  0.4016
    8SOL    HW2   31   0.767   1.394   1.136  1.6978  1.9000  0.0551
    8SOL     MW   32   0.802   1.459   1.086 -0.1594  0.2592 -0.4396
    9SOL     OW   33   0.933   0.503   1.329 -0.2417  0.7540 -0.5143
    9SOL    HW1   34   0.868   0.442   1.280 -0.4382 -0.6957 -2.1517
    9SOL    HW2   35   0.983   0.435   1.371 -0.6221  2.3849 -0.2735
    9SOL     MW   36   0.931   0.486   1.328 -0.3178  0.7779 -0.6986
   10SOL     OW   37   0.294   0.851   0.477 -0.0336 -0.6220  0.1188
   10SOL    HW1   38   0.386   0.886   0.469 -0.7557  1.3670  0.9260
   10SOL    HW2   39   0.247   0.896   0.552 -1.6638 -0.1718  0.3553
   10SOL     MW   40   0.300   0.861   0.486 -0.3439 -0.3002  0.2565
   11SOL     OW   41   0.778   1.119   1.486  0.0068  0.4550  0.3102
   11SOL    HW1   42   0.816   1.131   1.576 -2.1456  2.4897  0.8234
   11SOL    HW2   43   0.815   1.041   1.443 -0.5263 -1.0497 -2.4336
   11SOL     MW   44   0.788   1.110   1.492 -0.3476  0.5249  0.0159
   12SOL     OW   45   0.024   1.072   0.890  0.8656  0.4410  0.6049
   12SOL    HW1   46   0.067   1.138   0.949 -2.5989  0.3436  1.8067
   12SOL    HW2   47  -0.024   1.123   0.830 -0.3731 -0.7139  1.2409
   12SOL     MW   48   0.023   1.087   0.890  0.2451  0.2758  0.8474
   13SOL     OW   49   1.804   1.414   1.326  0.2332 -0.2994 -0.0912
   13SOL    HW1   50   1.799   1.342   1.268 -1.4418  1.0380  1.8978
   13SOL    HW2   51   1.886   1.457   1.310 -1.6857  0.9775  0.3713
   13SOL     MW   52   1.814   1.410   1.316 -0.2410  0.0455  0.2322
   14SOL     OW   53   0.545   0.334   1.764  0.0239 -0.1051  0.8148
   14SOL    HW1   54   0.464   0.283   1.779 -1.5266 -2.1393 -0.8359
   14SOL    HW2   55   0.591   0.282   1.695  0.1933  0.5595 -1.4241
   14SOL     MW   56   0.541   0.320   1.757 -0.1583 -0.2858  0.3016
   15SOL     OW   57   2.009   0.415   0.998 -0.4160  0.0954 -0.3396
   15SOL    HW1   58   2.047   0.499   1.021  1.3270 -0.0230 -0.7303
   15SOL    HW2   59   2.046   0.418   0.907 -0.3608  0.0286  0.7474
   15SOL     MW   60   2.019   0.426   0.989 -0.1787  0.0710 -0.2477
   16SOL     OW   61   0.274   1.821   0.291 -0.5028 -0.2797 -0.2400
   16SOL    HW1   62   0.367   1.800   0.312 -2.0313  0.8366 -0.5014
   16SOL    HW2   63   0.280   1.916   0.295  0.4203 -0.9860 -0.4533
   16SOL     MW   64   0.287   1.831   0.295 -0.5827 -0.2256 -0.3026
   17SOL     OW   65   1.114   0.886   1.429 -0.0832 -0.5446 -0.4329
   17SOL    HW1   66   1.153   0.884   1.521  1.0129 -0.5017 -0.9992
   17SOL    HW2   67   1.018   0.884   1.434  3.1089 -1.8038  1.1902
   17SOL     MW   68   1.106   0.885   1.442  0.4826 -0.7051 -0.2935
   18SOL     OW   69   0.067   1.649   0.320 -0.1551 -0.1616  0.3370
   18SOL    HW1   70   0.149   1.704   0.312  0.8859  0.3417  1.9595
   18SOL    HW2   71   0.029   1.616   0.240  0.3722 -0.5466 -2.9939
   18SOL     MW   72   0.073   1.652   0.309  0.0518 -0.1460  0.1116
   19SOL     OW   73   0.101   1.321   0.979  0.2200 -0.0046 -0.4471
   19SOL    HW1   74   0.121   1.357   0.893  2.4528 -1.2602  1.0647
   19SOL    HW2   75   0.008   1.319   0.995  0.7238 -0.7624  2.9293
   19SOL     MW   76   0.091   1.325   0.970  0.5811 -0.2703  0.1978
   20SOL     OW   77   0.431   2.115   1.264  0.0286 -0.1280  0.0830
   20SOL    HW1   78   0.389   2.051   1.200 -1.1952  1.2878 -0.5013
   20SOL    HW2   79   0.379   2.114   1.349 -0.4567 -2.0968  0.9006
   20SOL     MW   80   0.419   2.106   1.267 -0.1969 -0.2010  0.1138
   21SOL     OW   81   0.556   0.873   0.404  0.0735  0.1955  0.4419
   21SOL    HW1   82   0.619   0.881   0.470 -2.8854  3.3257 -2.9661
   21SOL    HW2   83   0.580   0.926   0.326 -0.0066 -2.1073 -3.7215
   21SOL     MW   84   0.568   0.881   0.402 -0.3275  0.3047 -0.5571
   22SOL     OW   85   1.540   0.697   1.028  0.4631  0.0752 -0.3934
   22SOL    HW1   86   1.558   0.703   0.936  0.6202 -0.2611  0.5085
   22SOL    HW2   87   1.481   0.774   1.043 -1.1639  1.0608  0.0530
   22SOL     MW   88   1.535   0.708   1.018  0.2692  0.1608 -0.2155
   23SOL     OW   89   3.048   0.820   0.726 -0.2504 -0.0760  0.3309
   23SOL    HW1   90   3.100   0.758   0.782 -1.9327 -0.3871  1.1009
   23SOL    HW2   91   3.104   0.899   0.724 -3.2027  0.8224 -1.7060
   23SOL     MW   92   3.062   0.822   0.733 -0.8619  0.0015  0.1637
   24SOL     OW   93   2.078   2.193   0.064  0.3753 -0.3815  0.2545
   24SOL    HW1   94   2.021   2.206   0.142 -0.1011 -3.7262  1.9081
   24SOL    HW2   95   2.083   2.098   0.049 -0.1056 -1.7209  1.7366
   24SOL     MW   96   2.071   2.182   0.072  0.2490 -0.9995  0.6682
   25SOL     OW   97   0.200   1.437   0.423  0.3024  0.7205 -0.3203
   25SOL    HW1   98   0.154   1.518   0.396 -0.4337 -4.0325 -0.1775
   25SOL    HW2   99   0.264   1.414   0.361 -1.9177  0.7242  1.9986
   25SOL     MW  100   0.202   1.444   0.411 -0.0876  0.0939  0.0045
   26SOL     OW  101   1.984   1.054   0.287  0.4780  0.4078 -0.1293
   26SOL    HW1  102   1.956   1.042   0.379  0.3385  1.2968  0.0008
   26SOL    HW2  103   2.052   1.123   0.285  0.7982 -0.6548 -1.0488
   26SOL     MW  104   1.990   1.061   0.299  0.5018  0.3849 -0.2335
   27SOL     OW  105   1.859   1.376   0.142 -0.1265 -0.1543 -1.0859
   27SOL    HW1  106   1.802   1.443   0.176 -0.6365 -0.5134 -1.0439
   27SOL    HW2  107   1.917   1.374   0.220 -0.6205 -2.5616 -0.9480
   27SOL     MW  108   1.859   1.384   0.157 -0.2589 -0.5193 -1.0621
   28SOL     OW  109   0.413   0.936   2.014  0.1584 -0.2588  0.6043
   28SOL    HW1  110   0.446   0.911   2.098 -1.0230 -1.7621  2.9868
   28SOL    HW2  111   0.318   0.911   2.031 -3.1387  1.3984  1.1319
   28SOL     MW  112   0.405   0.930   2.027 -0.4325 -0.2385  0.9883
   29SOL     OW  113   0.201   1.423   0.742 -0.4658  0.8587  0.1461
   29SOL    HW1  114   0.227   1.518   0.752 -0.4547 -1.0886 -1.4042
   29SOL    HW2  115   0.205   1.407   0.648  2.2954  0.6156  1.2949
   29SOL     MW  116   0.205   1.433   0.731 -0.1000  0.5697  0.0931
   30SOL     OW  117   0.709   1.252   1.219 -0.4316  1.0531  0.4674
   30SOL    HW1  118   0.617   1.263   1.245  0.3503  0.1590  0.0565
   30SOL    HW2  119   0.745   1.201   1.297 -2.6425 -0.1876  0.4681
   30SOL     MW  120   0.702   1.247   1.232 -0.6201  0.7714  0.4132
   31SOL     OW  121   0.510   0.282   0.216 -0.2190 -0.1386  0.0795
   31SOL    HW1  122   0.545   0.208   0.272  2.0401  0.7280  2.3686
   31SOL    HW2  123   0.527   0.252   0.122  0.8351  1.0943  2.3742
   31SOL     MW  124   0.517   0.269   0.211  0.2182  0.1384  0.6843
   32SOL     OW  125   2.710   0.950   1.079 -0.2650  0.0291 -0.1515
   32SOL    HW1  126   2.684   0.865   1.080  0.1682  0.9370 -2.2851
   32SOL    HW2  127   2.798   0.948   1.049 -0.0046  0.0089 -0.7940
   32SOL     MW  128   2.718   0.938   1.075 -0.1735  0.1462 -0.5178
   33SOL     OW  129   1.632   1.236   0.407 -0.3498  0.0446  0.3945
   33SOL    HW1  130   1.724   1.247   0.393 -2.4107 -0.3137  0.7782
   33SOL    HW2  131   1.613   1.262   0.495 -0.7425 -0.6243  0.6133
   33SOL     MW  132   1.641   1.241   0.416 -0.6735 -0.0910  0.4740
   34SOL     OW  133   1.156   1.980   1.135  0.0193  0.4668  0.4851
   34SOL    HW1  134   1.089   2.014   1.197  2.4985 -1.6288  1.6707
   34SOL    HW2  135   1.238   1.979   1.186 -1.7830  0.4170 -2.3979
   34SOL     MW  136   1.158   1.984   1.150  0.1086  0.1838  0.2612
   35SOL     OW  137   0.351   0.150   1.780  0.5062 -0.1160 -0.5633
   35SOL    HW1  138   0.389   0.108   1.862  1.9944  2.5189  1.0372
   35SOL    HW2  139   0.355   0.090   1.707 -0.6195 -0.7570 -2.5210
   35SOL     MW  140   0.357   0.137   1.781  0.5540  0.1471 -0.6104
   36SOL     OW  141   1.924   1.982   0.602 -0.3103 -0.2677 -0.1284
   36SOL    HW1  142   1.895   1.973   0.509  2.2279  0.6691  0.2802
   36SOL    HW2  143   1.947   1.897   0.637  3.2647 -0.4565  1.2528
   36SOL     MW  144   1.923   1.970   0.594  0.4963 -0.1690  0.1077
   37SOL     OW  145   1.813   2.083   1.008 -0.3042  0.3784  0.2841
   37SOL    HW1  146   1.769   2.041   0.936  0.9344  0.5446 -0.9351
   37SOL    HW2  147   1.742   2.106   1.065 -1.3452  0.3483 -1.1805
   37SOL     MW  148   1.798   2.080   1.006 -0.2781  0.3964 -0.0700
   38SOL     OW  149   2.809   0.968   0.066 -0.6903 -0.1025 -0.6986
   38SOL    HW1  150   2.834   0.968   0.160 -0.2357 -0.7627 -1.7455
   38SOL    HW2  151   2.893   0.960   0.017  1.7041 -0.6103 -2.2109
   38SOL     MW  152   2.823   0.967   0.072 -0.3144 -0.2566 -1.0363
   39SOL     OW  153   1.507   0.664   0.768  0.4268  0.0615 -0.2856
   39SOL    HW1  154   1.486   0.591   0.829  0.9543 -1.5287 -0.3230
   39SOL    HW2  155   1.426   0.709   0.751  3.5009  0.3989 -1.5841
   39SOL     MW  156   1.493   0.660   0.774  0.9020 -0.1038 -0.4619
   40SOL     OW  157   1.264   1.892   0.237 -0.3087  0.3458 -0.3546
   40SOL    HW1  158   1.296   1.809   0.276 -0.9789 -0.8398  0.7717
   40SOL    HW2  159   1.247   1.939   0.321 -1.0511 -0.7557  0.5689
   40SOL     MW  160   1.266   1.887   0.254 -0.4951  0.0440 -0.0841
   41SOL     OW  161   0.503   0.560   1.519 -0.8019 -0.0385  0.2580
   41SOL    HW1  162   0.576   0.593   1.472  0.0035  2.2693 -1.2772
   41SOL    HW2  163   0.419   0.612   1.497  0.1352 -1.0892 -2.2600
   41SOL     MW  164   0.501   0.571   1.510 -0.5720  0.1273 -0.2767
   42SOL     OW  165   1.217   2.954   1.987 -0.4813 -0.9300  0.2004
   42SOL    HW1  166   1.159   2.971   2.057  2.1203  1.3212 -0.5712
   42SOL    HW2  167   1.264   2.874   2.002  0.9563 -0.3107 -1.5549
   42SOL     MW  168   1.215   2.946   1.999  0.0516 -0.5513 -0.1330
   43SOL     OW  169   1.427   0.096   1.696 -0.7126  0.2620 -0.3294
   43SOL    HW1  170   1.487   0.042   1.640 -2.0633 -0.7822 -1.4333
   43SOL    HW2  171   1.337   0.052   1.689 -0.4004 -0.3400 -1.5228
   43SOL     MW  172   1.423   0.083   1.688 -0.8496  0.0448 -0.6325
   44SOL     OW  173   1.253   0.802   1.025 -0.6214  0.2534  0.0126
   44SOL    HW1  174   1.223   0.888   1.002 -0.9230 -0.5499 -0.4192
   44SOL    HW2  175   1.197   0.776   1.100 -1.0449  0.3670 -1.1973
   44SOL     MW  176   1.242   0.810   1.032 -0.7170  0.1624 -0.2040
   45SOL     OW  177   1.299   0.848   0.730 -0.1599  0.0832 -0.0818
   45SOL    HW1  178   1.262   0.839   0.816  2.0358 -0.6538 -0.9719
   45SOL    HW2  179   1.247   0.813   0.661  1.7186  0.3857 -3.1005
   45SOL     MW  180   1.287   0.842   0.732  0.3776  0.0259 -0.5975
   46SOL     OW  181   0.442   1.134   0.653 -0.0980  0.2496  0.1535
   46SOL    HW1  182   0.491   1.150   0.568 -0.5075 -0.0061 -1.7290
   46SOL    HW2  183   0.430   1.220   0.693  1.9299 -0.8399 -0.1109
   46SOL     MW  184   0.447   1.147   0.647  0.1155  0.0721 -0.1297
   47SOL     OW  185   0.089   2.035   1.896  0.2189 -0.6905  0.2148
   47SOL    HW1  186   0.114   1.945   1.878  0.7485  1.6882 -1.0516
   47SOL    HW2  187   0.040   2.035   1.984 -0.2032 -2.2813  0.3820
   47SOL     MW  188   0.086   2.023   1.905  0.2331 -0.5865  0.0697
   48SOL     OW  189   1.211   0.499   1.015  0.2435 -0.1720 -0.1493
   48SOL    HW1  190   1.203   0.458   0.930  0.0841  2.5842  0.0900
   48SOL    HW2  191   1.186   0.591   1.016 -1.7821 -0.7140 -2.3779
   48SOL     MW  192   1.207   0.505   1.004 -0.0448  0.1201 -0.4117
   49SOL     OW  193   1.686   0.686   1.568  0.0952  0.1079  0.1236
   49SOL    HW1  194   1.736   0.641   1.637  1.3418  0.2602  0.5980
   49SOL    HW2  195   1.717   0.637   1.491 -1.1746  0.0881 -0.1616
   49SOL     MW  196   1.696   0.674   1.567  0.0921  0.1254  0.1486
   50SOL     OW  197   1.310   1.217   0.618 -0.6042 -0.0585 -0.2091
   50SOL    HW1  198   1.245   1.237   0.698  2.3116  0.7709 -1.9238
   50SOL    HW2  199   1.381   1.155   0.655  1.8536 -2.3683  0.5079
   50SOL     MW  200   1.311   1.211   0.633  0.1048 -0.2538 -0.3408
   51SOL     OW  201   0.314   2.876   0.840  0.2691  0.7936  0.2763
   51SOL    HW1  202   0.406   2.853   0.856 -1.8095  2.0653  0.2157
   51SOL    HW2  203   0.287   2.916   0.920  5.0903 -1.2628 -0.5022
   51SOL     MW  204   0.322   2.878   0.853  0.6310  0.6900  0.1656
   52SOL     OW  205   0.789   1.813   0.475 -0.1730  0.1264  0.4828
   52SOL    HW1  206   0.777   1.907   0.497 -0.3218  1.6943  0.6333
   52SOL    HW2  207   0.806   1.806   0.380 -1.0608 -0.3351  0.6720
   52SOL     MW  208   0.790   1.825   0.465 -0.3098  0.2724  0.5276
   53SOL     OW  209   0.491   2.164   0.582 -0.0590 -0.5504  0.6794
   53SOL    HW1  210   0.457   2.156   0.490  2.3634 -1.6975 -1.2621
   53SOL    HW2  211   0.481   2.257   0.590  2.3291 -2.8513  0.3360
   53SOL     MW  212   0.486   2.175   0.571  0.5757 -1.0053  0.3779
   54SOL     OW  213   2.045   0.983   0.739  0.0441 -0.1582  0.4011
   54SOL    HW1  214   2.128   0.988   0.693 -1.5527 -1.0868 -0.6594
   54SOL    HW2  215   2.030   0.888   0.755 -1.2112  1.1154 -1.5785
   54SOL     MW  216   2.054   0.971   0.735 -0.3322 -0.1127 -0.0000
   55SOL     OW  217   0.438   1.514   1.703 -0.4190  0.0343  0.5683
   55SOL    HW1  218   0.380   1.553   1.640  1.2816  0.4315  0.5953
   55SOL    HW2  219   0.509   1.475   1.643  0.6889  0.6517  1.6523
   55SOL     MW  220   0.440   1.514   1.687 -0.0484  0.1682  0.7149
   56SOL     OW  221   0.663   0.925   0.147 -0.5195  0.2928 -0.3077
   56SOL    HW1  222   0.674   1.017   0.133  0.4586 -1.2997 -1.9812
   56SOL    HW2  223   0.575   0.890   0.126 -0.5470  0.2438 -0.7527
   56SOL     MW  224   0.653   0.932   0.143 -0.3941  0.0762 -0.5872
   57SOL     OW  225   1.098   1.277   1.154 -0.1772  0.2287  0.2753
   57SOL    HW1  226   1.182   1.322   1.172 -1.8761 -0.0106 -0.2699
   57SOL    HW2  227   1.080   1.233   1.242  1.2910  2.8998 -0.1264
   57SOL     MW  228   1.107   1.277   1.168 -0.2077  0.5495  0.1504
   58SOL     OW  229   0.457   1.275   1.292  0.5273 -0.1632  0.1940
   58SOL    HW1  230   0.395   1.346   1.304  0.8887 -1.4689  3.8020
   58SOL    HW2  231   0.463   1.239   1.379  1.8318 -1.3990 -1.9489
   58SOL     MW  232   0.450   1.280   1.305  0.7471 -0.4986  0.3873
   59SOL     OW  233   1.433   1.679   0.387  0.3956  0.1705 -0.1576
   59SOL    HW1  234   1.503   1.720   0.430  0.3808 -1.8070  0.4861
   59SOL    HW2  235   1.377   1.638   0.452 -1.7706 -1.4555  3.0243
   59SOL     MW  236   1.435   1.679   0.401  0.1078 -0.3050  0.3472
   60SOL     OW  237   3.102   0.176   1.624  0.0828  0.6262 -0.0473
   60SOL    HW1  238   3.025   0.215   1.661  0.9189 -1.5837  0.1309
   60SOL    HW2  239   3.124   0.115   1.695 -1.0453 -3.6363  2.4546
   60SOL     MW  240   3.095   0.173   1.638  0.0443 -0.2277  0.3063
   61SOL     OW  241   1.954   1.344   2.980  0.0149 -0.3901  0.2922
   61SOL    HW1  242   1.924   1.327   3.068 -0.3795  0.1886 -0.0674
   61SOL    HW2  243   2.026   1.281   2.961  0.0291 -1.2789  0.3506
   61SOL     MW  244   1.960   1.334   2.989 -0.0353 -0.4310  0.2525
   62SOL     OW  245   0.586   1.719   0.659  0.2266 -0.4619 -0.0193
   62SOL    HW1  246   0.679   1.714   0.640  0.5971 -1.6851  1.6872
   62SOL    HW2  247   0.556   1.634   0.694 -1.3038  0.1628 -0.8977
   62SOL     MW  248   0.594   1.707   0.661  0.0735 -0.5409  0.0900
   63SOL     OW  249   1.745   0.721   0.619 -0.7177 -0.2099 -0.2452
   63SOL    HW1  250   1.712   0.796   0.567 -0.3513  1.3628 -0.8341
   63SOL    HW2  251   1.664   0.702   0.670  2.0789 -0.5280 -0.4328
   63SOL     MW  252   1.730   0.728   0.619 -0.3004 -0.0444 -0.3477
   64SOL     OW  253   0.279   1.674   0.711  0.1839 -0.3559 -0.4075
   64SOL    HW1  254   0.323   1.759   0.726  2.4009  0.1830 -0.5273
   64SOL    HW2  255   0.189   1.713   0.711 -4.0685 -0.3014  1.0839
   64SOL     MW  256   0.273   1.691   0.713 -0.0847 -0.2776 -0.2266
   65SOL     OW  257   1.488   2.291   0.390  0.5314  0.2263 -0.0793
   65SOL    HW1  258   1.575   2.329   0.385 -1.7563 -1.2877 -0.8477
   65SOL    HW2  259   1.425   2.340   0.451 -2.4102 -2.9835  0.3531
   65SOL     MW  260   1.491   2.302   0.397 -0.1586 -0.3970 -0.1237
   66SOL     OW  261   0.394   0.587   0.494 -0.1288  0.4065  0.6888
   66SOL    HW1  262   0.455   0.576   0.419  0.6570 -1.8480 -1.8448
   66SOL    HW2  263   0.365   0.675   0.480 -1.6186 -0.1067  0.8855
   66SOL     MW  264   0.398   0.598   0.483 -0.2217  0.0413  0.3805
   67SOL     OW  265   1.440   0.046   1.987 -0.1813  0.2405 -0.4529
   67SOL    HW1  266   1.435   0.069   1.894  1.2737  1.5747  0.4099
   67SOL    HW2  267   1.367  -0.014   2.006 -3.2393 -0.0095  0.0272
   67SOL     MW  268   1.430   0.041   1.977 -0.3928  0.3836 -0.2757
   68SOL     OW  269   0.752   0.070   2.952  0.1786  0.4339 -0.2067
   68SOL    HW1  270   0.745   0.118   2.866 -1.1648  0.1036  0.9993
   68SOL    HW2  271   0.836   0.078   2.987  0.1859 -2.7757  0.9734
   68SOL     MW  272   0.762   0.078   2.945  0.0023 -0.0331  0.1081
   69SOL     OW  273   1.080   0.246   1.937  0.7243  1.0756  0.4915
   69SOL    HW1  274   1.152   0.289   1.986  1.1538  2.0608  3.5947
   69SOL    HW2  275   1.074   0.160   1.982 -0.9962  0.9527 -0.3358
   69SOL     MW  276   1.089   0.240   1.949  0.5539  1.1894  0.7918
   70SOL     OW  277   0.504   1.736   1.095  0.1971 -0.2347  0.4803
   70SOL    HW1  278   0.578   1.792   1.092  0.9032 -2.2701 -1.6313
   70SOL    HW2  279   0.522   1.685   1.013 -2.7236 -0.1900 -1.5004
   70SOL     MW  280   0.516   1.737   1.084 -0.0951 -0.4974 -0.0596
   71SOL     OW  281   1.542   0.562   1.261 -0.0227 -0.4275  0.2937
   71SOL    HW1  282   1.482   0.616   1.321 -0.1270  1.3350  2.9798
   71SOL    HW2  283   1.539   0.603   1.175  1.9272 -0.9425  0.9918
   71SOL     MW  284   1.533   0.574   1.258  0.2208 -0.2629  0.7402
   72SOL     OW  285   0.806   1.842   1.007 -0.1163 -0.0835 -0.4944
   72SOL    HW1  286   0.814   1.926   0.949  1.3227  0.0464 -1.6139
   72SOL    HW2  287   0.809   1.761   0.955  1.4570 -2.1683 -0.1587
   72SOL     MW  288   0.808   1.842   0.992  0.2812 -0.3414 -0.5978
   73SOL     OW  289   1.125   0.667   1.237  0.0176  0.1793 -0.7358
   73SOL    HW1  290   1.050   0.599   1.255 -1.1908  4.7800 -2.0731
   73SOL    HW2  291   1.101   0.745   1.290 -1.7044  0.7893 -0.9135
   73SOL     MW  292   1.112   0.668   1.247 -0.3690  0.8668 -0.9357
   74SOL     OW  293   2.778   0.090   0.976 -0.5215  0.0159  0.0081
   74SOL    HW1  294   2.855   0.129   0.935  0.0559  2.3899  0.8660
   74SOL    HW2  295   2.724   0.167   0.969 -1.0442 -2.4375  2.0178
   74SOL     MW  296   2.781   0.106   0.970 -0.5143  0.0054  0.3865
   75SOL     OW  297   1.522   1.355   0.152 -0.4319  0.2581  0.2797
   75SOL    HW1  298   1.567   1.289   0.099 -0.4208 -1.2337  0.8026
   75SOL    HW2  299   1.568   1.349   0.241  0.7995 -1.1402  2.0371
   75SOL     MW  300   1.534   1.346   0.157 -0.2680 -0.1232  0.5806
   76SOL     OW  301   3.028   0.688   0.508  0.3238  0.1271 -0.5499
   76SOL    HW1  302   3.043   0.728   0.601  0.9420  1.1592  1.6617
   76SOL    HW2  303   3.111   0.640   0.496 -0.8213  1.8697 -0.8973
   76SOL     MW  304   3.041   0.687   0.519  0.2543  0.4932 -0.3039
   77SOL     OW  305   0.832   0.625   0.450 -0.3898 -0.0863  0.1702
   77SOL    HW1  306   0.798   0.659   0.366 -0.4170  2.3764  0.9215
   77SOL    HW2  307   0.799   0.531   0.455  3.0249 -0.9128  0.7464
   77SOL     MW  308   0.823   0.617   0.440  0.0571  0.1296  0.3454
   78SOL     OW  309   0.777   0.886   1.088  0.3024 -0.2639 -0.1810
   78SOL    HW1  310   0.770   0.968   1.043  0.2219 -2.1215  1.1040
   78SOL    HW2  311   0.691   0.868   1.128 -1.0710 -1.7130 -0.2998
   78SOL     MW  312   0.765   0.895   1.087  0.1106 -0.7002 -0.0271
   79SOL     OW  313   1.844   1.504   0.556  0.0624 -0.0840 -0.5073
   79SOL    HW1  314   1.755   1.471   0.563 -1.1521  0.3288 -0.6549
   79SOL    HW2  315   1.883   1.471   0.641 -0.1483 -3.7721 -1.7425
   79SOL     MW  316   1.837   1.496   0.568 -0.1257 -0.5161 -0.6897
   80SOL     OW  317   0.141   1.003   0.308  0.8656 -0.6986 -0.2289
   80SOL    HW1  318   0.132   0.936   0.247  1.5814 -1.7934 -0.2537
   80SOL    HW2  319   0.193   0.956   0.376  0.1100 -0.0024 -0.4186
   80SOL     MW  320   0.147   0.988   0.309  0.8603 -0.7512 -0.2572
   81SOL     OW  321   1.801   1.865   0.367  0.8873  0.1546  0.1600
   81SOL    HW1  322   1.801   1.781   0.326  1.8829  3.4312  0.2028
   81SOL    HW2  323   1.750   1.924   0.302  2.3357 -0.6946 -1.9577
   81SOL     MW  324   1.795   1.862   0.353  1.2097  0.4749 -0.1137
   82SOL     OW  325   0.963   1.039   0.547  0.3135 -0.0521  0.4491
   82SOL    HW1  326   0.921   1.092   0.481  1.1225 -0.6533 -1.6571
   82SOL    HW2  327   0.905   0.964   0.549 -1.3921  2.6147  3.6289
   82SOL     MW  328   0.950   1.036   0.539  0.1952  0.2205  0.5908
   83SOL     OW  329   0.045   0.738   1.563 -0.4040  0.1640  0.1055
   83SOL    HW1  330   0.026   0.798   1.483 -0.4124 -1.5509  3.6341
   83SOL    HW2  331   0.125   0.685   1.540 -1.1184 -1.5328  1.5724
   83SOL     MW  332   0.053   0.739   1.549 -0.4994 -0.2862  0.7646
   84SOL     OW  333   0.039   0.173   0.938 -0.2176 -0.3078  0.2657
   84SOL    HW1  334   0.019   0.261   0.968  0.1112 -0.7135  0.2013
   84SOL    HW2  335   0.054   0.101   1.005  0.3565  0.3841 -1.2439
   84SOL     MW  336   0.039   0.175   0.951 -0.0984 -0.2701  0.0580
   85SOL     OW  337   0.328   0.495   0.768 -0.4128  0.0228  0.3145
   85SOL    HW1  338   0.366   0.502   0.682  1.8181 -0.2702  2.6671
   85SOL    HW2  339   0.315   0.400   0.783 -1.4149  1.8179 -0.3223
   85SOL     MW  340   0.331   0.483   0.759 -0.2507  0.2210  0.5409
   86SOL     OW  341   1.226   0.273   1.153  0.0195 -0.0810 -0.3284
   86SOL    HW1  342   1.224   0.358   1.105  0.3546 -1.2782  0.3810
   86SOL    HW2  343   1.297   0.279   1.218 -0.2674 -1.5490  0.3238
   86SOL     MW  344   1.235   0.285   1.156  0.0258 -0.4326 -0.1488
   87SOL     OW  345   1.036   1.541   1.184 -0.2887 -0.1924 -0.2799
   87SOL    HW1  346   1.093   1.610   1.151  1.5298 -0.9555 -2.0800
   87SOL    HW2  347   1.077   1.463   1.150  1.8937  0.1795 -2.4203
   87SOL     MW  348   1.049   1.540   1.175  0.2392 -0.2440 -0.7998
   88SOL     OW  349   1.206   1.080   0.996 -0.4560 -0.2940 -0.4265
   88SOL    HW1  350   1.301   1.103   1.017 -1.0752  1.1786  1.6813
   88SOL    HW2  351   1.154   1.138   1.054 -1.1397  1.3655 -1.2990
   88SOL     MW  352   1.212   1.090   1.007 -0.6279  0.1193 -0.2635
   89SOL     OW  353   1.783   0.700   0.230 -0.3841 -0.1344 -0.6811
   89SOL    HW1  354   1.727   0.639   0.277 -0.0775 -0.9249  0.8504
   89SOL    HW2  355   1.873   0.699   0.266 -1.1481  0.3426 -0.7417
   89SOL     MW  356   1.788   0.692   0.241 -0.4445 -0.1758 -0.4871
   90SOL     OW  357   0.786   1.232   2.862 -0.2100 -0.0569 -0.3402
   90SOL    HW1  358   0.837   1.150   2.857 -2.7474 -0.5377 -1.7067
   90SOL    HW2  359   0.800   1.279   2.945 -0.3252 -2.0661 -2.1076
   90SOL     MW  360   0.794   1.228   2.872 -0.5600 -0.3854 -0.7537
   91SOL     OW  361   2.205   0.602   0.462  0.6034  0.0398  0.2344
   91SOL    HW1  362   2.274   0.645   0.408 -1.5003  1.5348  2.9266
   91SOL    HW2  363   2.210   0.507   0.437 -2.6542  1.0763 -0.9630
   91SOL     MW  364   2.215   0.595   0.452 -0.1040  0.3738  0.4316
   92SOL     OW  365   1.631   0.966   0.535 -0.0554  0.3168 -0.5044
   92SOL    HW1  366   1.576   1.000   0.602  1.6082  0.5396 -1.7074
   92SOL    HW2  367   1.581   0.998   0.461 -0.3979 -1.2512  1.4702
   92SOL     MW  368   1.618   0.974   0.534  0.1189  0.1393 -0.4026
   93SOL     OW  369   1.053   0.291   0.358  0.4717  0.1065  0.4499
   93SOL    HW1  370   0.970   0.336   0.356 -0.2442 -0.8929  1.9400
   93SOL    HW2  371   1.084   0.312   0.265  0.5191 -0.6898 -0.3732
   93SOL     MW  372   1.046   0.300   0.345  0.3835 -0.1304  0.5379
   94SOL     OW  373   1.878   1.385   1.572  0.1933  0.0763  0.0478
   94SOL    HW1  374   1.859   1.374   1.474  5.8865  0.6786  0.9892
   94SOL    HW2  375   1.865   1.294   1.607  2.4426 -0.9108  1.5368
   94SOL     MW  376   1.874   1.371   1.563  1.2412  0.0255  0.3685
   95SOL     OW  377   0.589   1.550   0.915  0.5710  0.2870  0.6833
   95SOL    HW1  378   0.656   1.524   0.980 -2.8228 -2.1147 -2.5483
   95SOL    HW2  379   0.542   1.468   0.897  1.3234  1.2967  0.1413
   95SOL     MW  380   0.592   1.535   0.921  0.2225  0.1034  0.1854
   96SOL     OW  381   1.347   1.855   1.684 -0.3434  0.4603  0.2829
   96SOL    HW1  382   1.250   1.854   1.697 -1.2839  1.2849  0.1790
   96SOL    HW2  383   1.363   1.774   1.632  1.8818 -0.3081  1.9386
   96SOL     MW  384   1.337   1.844   1.679 -0.1739  0.4677  0.4877
   97SOL     OW  385   1.089   1.557   0.839  0.0986  0.5156 -0.1453
   97SOL    HW1  386   1.142   1.618   0.897  0.7164  0.3297  0.2153
   97SOL    HW2  387   1.000   1.592   0.843 -0.8922  0.6272 -3.9270
   97SOL     MW  388   1.084   1.569   0.847  0.0494  0.5058 -0.5966
   98SOL     OW  389   1.332   1.407   1.178 -0.1562 -0.1149  0.3826
   98SOL    HW1  390   1.396   1.422   1.254 -1.8269  0.5725  2.4158
   98SOL    HW2  391   1.373   1.451   1.104  0.7184  1.0216  0.0081
   98SOL     MW  392   1.346   1.415   1.178 -0.2612  0.1257  0.6015
   99SOL     OW  393   1.497   0.293   1.337  0.4223  0.1131 -0.1784
   99SOL    HW1  394   1.498   0.376   1.288 -0.8304 -2.0639  3.9463
   99SOL    HW2  395   1.463   0.316   1.428  0.5067  0.6284  2.9353
   99SOL     MW  396   1.493   0.307   1.342  0.2682 -0.1061  0.7766
  100SOL     OW  397   1.063   1.133   1.375 -0.4897  0.1197 -0.2005
  100SOL    HW1  398   1.084   1.166   1.462  2.2550  3.3728 -0.8251
  100SOL    HW2  399   1.103   1.041   1.373 -0.3334 -1.3383 -1.5552
  100SOL     MW  400   1.071   1.125   1.386 -0.1070  0.3566 -0.4616
  101SOL     OW  401   0.547   1.212   0.414 -0.0526  0.2901 -0.1132
  101SOL    HW1  402   0.479   1.192   0.337 -2.6523 -1.8650 -0.9938
  101SOL    HW2  403   0.635   1.192   0.382 -0.4922 -2.0686  1.2255
  101SOL     MW  404   0.550   1.207   0.400 -0.4536 -0.3055 -0.0528
  102SOL     OW  405   2.952   0.638   1.102  0.4849 -0.2337 -0.0527
  102SOL    HW1  406   2.981   0.726   1.096  0.1564 -1.8948  2.1088
  102SOL    HW2  407   2.931   0.614   1.197 -1.1640 -2.3290  1.0253
  102SOL     MW  408   2.953   0.647   1.114  0.2240 -0.7293  0.3747
  103SOL     OW  409   1.856   0.275   1.792  0.2350 -0.4087 -0.3568
  103SOL    HW1  410   1.851   0.184   1.771 -0.5614  1.7127  1.1003
  103SOL    HW2  411   1.853   0.275   1.892 -2.1941  0.5012 -0.3406
  103SOL     MW  412   1.855   0.263   1.802 -0.1906 -0.0087 -0.1624
  104SOL     OW  413   0.047   1.529   1.660 -0.4628  0.3918  0.1599
  104SOL    HW1  414   0.101   1.448   1.697 -0.7992  0.3254  1.2853
  104SOL    HW2  415  -0.043   1.507   1.653  1.8850 -0.0238  0.1335
  104SOL     MW  416   0.042   1.516   1.664 -0.1974  0.3282  0.3049
  105SOL     OW  417   0.001   1.228   0.402  0.5534  0.1605  0.2870
  105SOL    HW1  418   0.043   1.147   0.370 -1.2820  1.3542 -1.6986
  105SOL    HW2  419   0.069   1.295   0.387  1.5197 -3.5446  1.3040
  105SOL     MW  420   0.016   1.226   0.396  0.4387 -0.1708  0.1592
  106SOL     OW  421   0.781   0.302   0.825 -0.0500 -0.6558  0.2809
  106SOL    HW1  422   0.719   0.348   0.885 -1.0791  0.6264  0.4480
  106SOL    HW2  423   0.859   0.354   0.823 -1.7114 -1.5901 -3.2214
  106SOL     MW  424   0.783   0.315   0.832 -0.4050 -0.6099 -0.1591
  107SOL     OW  425   0.822   2.211   2.886 -0.1560  0.2985  0.1432
  107SOL    HW1  426   0.736   2.202   2.855 -0.9173  0.1365  2.7519
  107SOL    HW2  427   0.821   2.179   2.981  1.5874 -1.4185 -0.4150
  107SOL     MW  428   0.810   2.206   2.895 -0.0264  0.0506  0.4137
  108SOL     OW  429   1.371   1.579   1.638 -0.5771 -0.4249 -0.3595
  108SOL    HW1  430   1.301   1.532   1.600  0.0333  0.9103  2.3689
  108SOL    HW2  431   1.445   1.517   1.632  3.5628 -2.4384 -1.1143
  108SOL     MW  432   1.372   1.565   1.632  0.0496 -0.5144 -0.0991
  109SOL     OW  433   2.027   0.759   0.329  0.3246 -0.0967  0.8807
  109SOL    HW1  434   2.030   0.859   0.328  0.8144  0.9288  1.1006
  109SOL    HW2  435   2.083   0.725   0.400  1.6259  0.1638 -0.0445
  109SOL     MW  436   2.034   0.767   0.338  0.5609  0.0730  0.7876
  110SOL     OW  437   0.418   1.915   0.741 -0.5217  0.6802  0.2892
  110SOL    HW1  438   0.497   1.871   0.718 -1.1469  3.2003 -0.3241
  110SOL    HW2  439   0.423   2.004   0.699 -2.5610 -0.3982  1.6898
  110SOL     MW  440   0.429   1.921   0.733 -0.8732  0.8704  0.3931
  111SOL     OW  441   0.856   0.863   1.367  0.4059 -0.2523 -0.4219
  111SOL    HW1  442   0.843   0.862   1.274  3.5509 -0.3465 -0.5745
  111SOL    HW2  443   0.803   0.791   1.397 -1.0384  2.5326 -1.7109
  111SOL     MW  444   0.847   0.853   1.359  0.6303  0.1027 -0.6121
  112SOL     OW  445   1.403   1.102   1.586 -0.0333  0.2222  0.4598
  112SOL    HW1  446   1.331   1.164   1.608 -0.3329 -1.2998 -0.7691
  112SOL    HW2  447   1.364   1.020   1.618  0.7572 -0.9995  0.6855
  112SOL     MW  448   1.388   1.099   1.593  0.0315 -0.1398  0.3274
  113SOL     OW  449   1.220   3.008   1.714  0.4717 -0.2399  0.6041
  113SOL    HW1  450   1.209   2.972   1.805  3.1082 -1.2150  0.7773
  113SOL    HW2  451   1.204   2.943   1.649 -2.7816  2.1506  1.7651
  113SOL     MW  452   1.217   2.994   1.718  0.3903 -0.0532  0.7801
  114SOL     OW  453   0.295   2.869   1.779  1.1418  0.1659 -0.5516
  114SOL    HW1  454   0.373   2.923   1.813  0.9551 -1.3392 -2.6905
  114SOL    HW2  455   0.223   2.886   1.836  1.0244 -0.1219 -0.4408
  114SOL     MW  456   0.296   2.878   1.791  1.1016 -0.0707 -0.8192
  115SOL     OW  457   0.514   0.845   1.194  0.5210  0.2783 -0.0075
  115SOL    HW1  458   0.492   0.753   1.202 -1.6182  0.2343 -0.5786
  115SOL    HW2  459   0.437   0.901   1.236 -2.0424  0.9593  0.0383
  115SOL     MW  460   0.501   0.840   1.201 -0.0995  0.3624 -0.0768
  116SOL     OW  461   0.715   1.121   0.954 -0.2953  0.3093 -0.5836
  116SOL    HW1  462   0.759   1.149   0.866 -0.4026  1.2228 -1.4828
  116SOL    HW2  463   0.758   1.171   1.020 -2.1968 -2.0193  0.9338
  116SOL     MW  464   0.726   1.131   0.951 -0.5603  0.1226 -0.5021
  117SOL     OW  465   1.124   1.279   0.807  0.2361  0.7933 -0.1826
  117SOL    HW1  466   1.158   1.229   0.879 -0.2840 -1.4283 -1.3615
  117SOL    HW2  467   1.122   1.381   0.818 -1.0314  0.3949 -0.3069
  117SOL     MW  468   1.128   1.285   0.818  0.0002  0.4476 -0.3546
  118SOL     OW  469   3.031   2.942   1.800  1.0327 -0.1195  0.4809
  118SOL    HW1  470   3.052   3.006   1.865  1.6068 -0.4879 -0.3580
  118SOL    HW2  471   2.943   2.973   1.771 -1.9276  0.2466  2.3917
  118SOL     MW  472   3.022   2.955   1.805  0.7179 -0.1198  0.6223
  119SOL     OW  473   0.365   1.543   1.234  0.1590  0.4333 -0.2132
  119SOL    HW1  474   0.416   1.616   1.195  0.5657  0.0473  3.0659
  119SOL    HW2  475   0.273   1.533   1.203  1.2234 -2.6555  0.6754
  119SOL     MW  476   0.360   1.551   1.225  0.3531 -0.0252  0.3367
  120SOL     OW  477   0.268   0.826   0.995  0.1504  0.3077 -0.0464
  120SOL    HW1  478   0.313   0.776   1.062 -1.7512  2.8455  3.8365
  120SOL    HW2  479   0.334   0.867   0.937  1.9080 -1.6643 -0.4612
  120SOL     MW  480   0.283   0.825   0.996  0.1314  0.3823  0.4112
  121SOL     OW  481   1.773   1.133   1.611  0.0833 -0.4521 -0.1747
  121SOL    HW1  482   1.702   1.165   1.554 -0.3059  3.5004  1.0116
  121SOL    HW2  483   1.805   1.060   1.565  0.1078  1.3807 -1.2406
  121SOL     MW  484   1.768   1.128   1.597  0.0352  0.3112 -0.1588
  122SOL     OW  485   0.115   0.618   0.845 -0.2886  0.4781  0.2777
  122SOL    HW1  486   0.188   0.562   0.819 -0.2001 -1.0054 -1.4793
  122SOL    HW2  487   0.150   0.684   0.900 -0.7374 -0.5734 -1.9757
  122SOL     MW  488   0.129   0.619   0.849 -0.3361  0.1436 -0.2514
  123SOL     OW  489   1.867   1.097   0.529 -0.1153 -0.0205  0.0266
  123SOL    HW1  490   1.780   1.053   0.535  0.6833 -3.5015 -3.9548
  123SOL    HW2  491   1.921   1.075   0.609 -0.2798  1.8158  1.3925
  123SOL     MW  492   1.862   1.088   0.541 -0.0316 -0.2375 -0.3185
  124SOL     OW  493   0.593   0.447   0.964  0.5753  0.2061 -0.3059
  124SOL    HW1  494   0.531   0.410   0.904  1.5828 -0.7498 -0.6397
  124SOL    HW2  495   0.632   0.528   0.925  1.5877  0.4172  0.3573
  124SOL     MW  496   0.590   0.453   0.951  0.8418  0.1079 -0.2624
  125SOL     OW  497   0.686   1.728   1.782  0.2004 -0.6268 -0.3180
  125SOL    HW1  498   0.664   1.685   1.700 -0.7768  2.0717 -1.7837
  125SOL    HW2  499   0.616   1.801   1.785 -0.4442 -1.9045 -1.1505
  125SOL     MW  500   0.674   1.732   1.771 -0.0136 -0.4394 -0.6212
  126SOL     OW  501   2.135   1.532   1.907 -0.1479  0.4150 -0.1324
  126SOL    HW1  502   2.208   1.591   1.896 -1.7092  1.5265 -0.8952
  126SOL    HW2  503   2.182   1.451   1.927 -1.3634  1.0263  1.3927
  126SOL     MW  504   2.151   1.529   1.908 -0.5143  0.6423 -0.0318
  127SOL     OW  505   0.539   0.786   1.806 -0.6510  0.0164  0.3037
  127SOL    HW1  506   0.634   0.785   1.781  2.8782  1.9205 -1.3520
  127SOL    HW2  507   0.531   0.838   1.881  0.5636  0.7337 -0.8330
  127SOL     MW  508   0.551   0.792   1.812 -0.0251  0.3623 -0.0647
  128SOL     OW  509   1.750   0.707   2.901 -0.1850 -0.0186  0.0647
  128SOL    HW1  510   1.763   0.678   2.811  0.1092 -3.0164 -2.7291
  128SOL    HW2  511   1.746   0.801   2.900 -0.6490  0.6193 -1.6068
  128SOL     MW  512   1.751   0.716   2.889 -0.2074 -0.3299 -0.5244
  129SOL     OW  513   1.573   0.882   0.187 -0.2373 -1.0155  0.0829
  129SOL    HW1  514   1.520   0.830   0.131 -1.7090 -0.4429  1.7371
  129SOL    HW2  515   1.648   0.831   0.210  2.0354  0.3709 -2.6012
  129SOL     MW  516   1.576   0.868   0.183 -0.1316 -0.7571 -0.0530
  130SOL     OW  517   0.828   1.457   0.319 -0.1087  0.6010  0.5524
  130SOL    HW1  518   0.812   1.493   0.407 -0.2478 -0.2089 -1.1608
  130SOL    HW2  519   0.927   1.468   0.311  4.1611 -1.4393 -1.1900
  130SOL     MW  520   0.839   1.463   0.330  0.4363  0.2249  0.0964
  131SOL     OW  521   0.058   0.793   0.092  0.2502  0.4289  0.6759
  131SOL    HW1  522   0.048   0.841   0.013  0.8293 -1.3752  3.0738
  131SOL    HW2  523   0.139   0.747   0.081  0.5164  0.4159 -1.5383
  131SOL     MW  524   0.067   0.793   0.080  0.3617  0.1892  0.7002
  132SOL     OW  525   2.753   0.088   1.250  0.1242 -0.1458 -0.0520
  132SOL    HW1  526   2.803   0.088   1.169  2.0008 -1.0770 -2.7371
  132SOL    HW2  527   2.661   0.068   1.235 -1.6976 -1.1596  0.1677
  132SOL     MW  528   2.747   0.085   1.237  0.1315 -0.4024 -0.3773
  133SOL     OW  529   1.040   0.136   1.669 -0.6700 -0.0912 -0.1714
  133SOL    HW1  530   1.105   0.063   1.679 -0.6722 -1.7532 -0.5826
  133SOL    HW2  531   1.044   0.187   1.749  0.1019 -1.3703 -1.2117
  133SOL     MW  532   1.049   0.133   1.681 -0.5685 -0.4793 -0.3629
  134SOL     OW  533   1.417   2.456   1.475  0.0435  0.7946 -0.5838
  134SOL    HW1  534   1.356   2.503   1.423 -1.1156  0.9648 -1.0654
  134SOL    HW2  535   1.459   2.513   1.544 -3.9281 -0.0731 -1.1999
  134SOL     MW  536   1.415   2.470   1.477 -0.6335  0.7026 -0.7287
  135SOL     OW  537   3.019   0.984   2.969  0.1038 -0.5442 -0.3992
  135SOL    HW1  538   3.099   1.042   2.986  1.5968 -0.8767 -0.0448
  135SOL    HW2  539   2.954   1.053   2.937  3.3792  2.3832 -1.7750
  135SOL     MW  540   3.021   1.000   2.967  0.7329 -0.2018 -0.5340
  136SOL     OW  541   0.192   1.973   0.869  0.2002  0.0545 -0.1085
  136SOL    HW1  542   0.140   1.910   0.818  1.3941  0.9445  1.9627
  136SOL    HW2  543   0.283   1.969   0.838 -0.2127  0.0780  0.5893
  136SOL     MW  544   0.197   1.964   0.858  0.3032  0.1750  0.2569
  137SOL     OW  545   0.758   2.078   0.579 -0.0843  0.0973  0.2552
  137SOL    HW1  546   0.778   2.055   0.674 -2.7867 -2.4418  1.8223
  137SOL    HW2  547   0.661   2.091   0.573  1.2333  1.3692  0.3700
  137SOL     MW  548   0.748   2.077   0.591 -0.2670 -0.0699  0.4771
  138SOL     OW  549   0.471   0.574   1.192 -0.1740  0.1256 -0.8895
  138SOL    HW1  550   0.385   0.551   1.217  2.6445  1.3779 -1.5409
  138SOL    HW2  551   0.506   0.510   1.125 -0.4577 -1.0058 -0.6478
  138SOL     MW  552   0.464   0.562   1.187  0.1604  0.1415 -0.9435
  139SOL     OW  553   2.845   0.538   1.354  0.0360 -0.2875  0.1298
  139SOL    HW1  554   2.914   0.470   1.335  0.2795  1.1766  0.1598
  139SOL    HW2  555   2.859   0.577   1.443 -1.9039 -2.1237 -0.1075
  139SOL     MW  556   2.856   0.534   1.363 -0.1878 -0.3366  0.1025
  140SOL     OW  557   0.871   0.448   1.970  0.0400  0.2813 -0.4282
  140SOL    HW1  558   0.934   0.377   1.947  0.2382 -0.2611 -2.2343
  140SOL    HW2  559   0.853   0.446   2.062  1.6827  1.1154 -0.4345
  140SOL     MW  560   0.877   0.438   1.979  0.2829  0.3198 -0.6674
  141SOL     OW  561   1.048   0.609   1.642  0.6210  0.4818  0.5072
  141SOL    HW1  562   1.062   0.528   1.593 -1.0011  0.2629 -0.1816
  141SOL    HW2  563   1.117   0.666   1.610 -2.2150 -0.3708  1.3972
  141SOL     MW  564   1.059   0.606   1.631  0.0328  0.3404  0.5338
  142SOL     OW  565   0.869   1.208   0.744 -0.2411 -0.0444 -0.0887
  142SOL    HW1  566   0.906   1.146   0.680  1.5945 -0.6906  3.6129
  142SOL    HW2  567   0.952   1.228   0.786 -0.9842 -1.2913  0.3216
  142SOL     MW  568   0.884   1.202   0.741 -0.0969 -0.2942  0.4538
  143SOL     OW  569   1.825   0.714   1.027 -0.1967  0.7317 -0.0601
  143SOL    HW1  570   1.875   0.702   0.948  4.3783  2.4912  1.2795
  143SOL    HW2  571   1.736   0.724   1.000 -0.4470  2.2747  1.3464
  143SOL     MW  572   1.820   0.714   1.013  0.3739  1.1674  0.3022
  144SOL     OW  573   0.263   1.320   1.729  0.3114  0.0003  0.1347
  144SOL    HW1  574   0.347   1.364   1.701 -0.4740  1.0537  0.1603
  144SOL    HW2  575   0.284   1.268   1.805 -2.6909  0.9735 -1.5905
  144SOL     MW  576   0.277   1.319   1.735 -0.1884  0.2677 -0.0895
  145SOL     OW  577   0.186   0.479   1.248  0.6146  0.6425 -0.3458
  145SOL    HW1  578   0.214   0.386   1.269  1.3256  0.9148  0.0583
  145SOL    HW2  579   0.149   0.468   1.159 -0.7046  2.6186 -3.0114
  145SOL     MW  580   0.185   0.465   1.239  0.5343  0.9391 -0.6442
  146SOL     OW  581   0.789   1.927   1.472 -0.3438  0.2411  0.8410
  146SOL    HW1  582   0.805   1.952   1.375 -0.0779 -0.3363 -0.0938
  146SOL    HW2  583   0.717   1.859   1.473 -0.4082 -0.0169  1.3693
  146SOL     MW  584   0.782   1.921   1.459 -0.3172  0.1309  0.7874
  147SOL     OW  585   0.462   0.500   2.911  0.5076 -0.0695  0.0796
  147SOL    HW1  586   0.388   0.523   2.967  1.7932 -0.3897  3.0993
  147SOL    HW2  587   0.444   0.549   2.832 -0.5583  0.2508  1.2217
  147SOL     MW  588   0.450   0.509   2.908  0.5366 -0.0695  0.6287
  148SOL     OW  589   0.068   0.922   1.348 -0.6469  0.2337  0.9726
  148SOL    HW1  590   0.163   0.931   1.342  1.4613  1.0584 -1.2478
  148SOL    HW2  591   0.033   1.007   1.367  1.0503  0.0320  0.9991
  148SOL     MW  592   0.076   0.934   1.350 -0.1448  0.3159  0.6831
  149SOL     OW  593   1.606   1.174   1.388  0.1524  0.3648 -0.3471
  149SOL    HW1  594   1.534   1.141   1.447  3.9831 -0.1341 -2.8076
  149SOL    HW2  595   1.594   1.267   1.377  0.3104 -0.3032  0.8039
  149SOL     MW  596   1.595   1.182   1.395  0.6787  0.2108 -0.5199
  150SOL     OW  597   1.726   1.463   0.887 -0.0244  0.2675 -0.4218
  150SOL    HW1  598   1.795   1.400   0.901  1.0251  2.3837 -0.5847
  150SOL    HW2  599   1.772   1.548   0.880  3.7729 -1.4420 -1.3059
  150SOL     MW  600   1.741   1.466   0.888  0.6151  0.3211 -0.5599
  151SOL     OW  601   1.650   1.892   0.827 -0.3758 -0.2405  0.0294
  151SOL    HW1  602   1.638   1.866   0.731 -0.8149 -0.2684  1.2508
  151SOL    HW2  603   1.584   1.839   0.872  1.1508 -1.2672  1.2485
  151SOL     MW  604   1.640   1.881   0.820 -0.2323 -0.3797  0.3514
  152SOL     OW  605   0.645   1.418   1.564 -0.3086  0.5484 -0.1870
  152SOL    HW1  606   0.701   1.446   1.498 -0.5935 -1.5792  1.5113
  152SOL    HW2  607   0.636   1.326   1.535  3.6062 -2.7050 -0.1649
  152SOL     MW  608   0.651   1.409   1.551  0.1703 -0.1616  0.0400
  153SOL     OW  609   2.594   1.209   0.713 -0.1021  0.3260  0.1838
  153SOL    HW1  610   2.667   1.166   0.667 -2.9364 -0.4992  0.2518
  153SOL    HW2  611   2.540   1.129   0.748 -0.1016 -3.1989 -2.0003
  153SOL     MW  612   2.596   1.193   0.711 -0.4760 -0.2480 -0.0954
  154SOL     OW  613   0.123   1.776   1.786 -0.0093  0.1909 -0.2236
  154SOL    HW1  614   0.073   1.692   1.760 -1.8164  2.4794  2.0467
  154SOL    HW2  615   0.214   1.762   1.773 -0.8364 -1.2941  0.9265
  154SOL     MW  616   0.129   1.763   1.781 -0.3568  0.2969  0.2277
  155SOL     OW  617   1.221   0.709   0.272  0.0669 -0.7412  0.6776
  155SOL    HW1  618   1.219   0.678   0.362  1.0648  2.1012 -2.3243
  155SOL    HW2  619   1.215   0.806   0.290 -0.9544  1.9277 -1.5402
  155SOL     MW  620   1.220   0.718   0.286  0.0638 -0.0141 -0.0111
  156SOL     OW  621   1.553   0.009   1.089  0.2496  0.1482 -0.0914
  156SOL    HW1  622   1.585   0.049   1.165 -1.5819  0.2477 -2.1275
  156SOL    HW2  623   1.581  -0.080   1.093  0.1316 -0.1619 -0.4111
  156SOL     MW  624   1.561   0.003   1.100 -0.0076  0.1204 -0.4022
  157SOL     OW  625   1.329   1.145   0.176 -0.2447 -0.5957  0.4668
  157SOL    HW1  626   1.340   1.088   0.255  1.8241 -1.8518  1.2498
  157SOL    HW2  627   1.391   1.213   0.186 -2.4414 -0.5698  0.4139
  157SOL     MW  628   1.339   1.147   0.188 -0.2616 -0.7580  0.5631
  158SOL     OW  629   0.413   1.672   2.232 -0.5936 -0.1074 -0.2872
  158SOL    HW1  630   0.466   1.738   2.187  1.5301  0.2669  0.9623
  158SOL    HW2  631   0.333   1.670   2.180 -0.6346  1.3604 -2.1180
  158SOL     MW  632   0.410   1.680   2.219 -0.3188  0.1356 -0.3639
  159SOL     OW  633   1.202   1.631   0.550 -0.0246  0.4466 -0.1621
  159SOL    HW1  634   1.153   1.592   0.476  0.5639  0.9353 -0.3787
  159SOL    HW2  635   1.134   1.688   0.594  0.1272  2.2795  0.1701
  159SOL     MW  636   1.186   1.633   0.546  0.0731  0.7529 -0.1469
  160SOL     OW  637   0.512   1.170   1.531 -0.2375 -0.1891 -0.7964
  160SOL    HW1  638   0.460   1.096   1.577  2.1118 -0.1887 -1.6198
  160SOL    HW2  639   0.602   1.138   1.511  0.4819 -0.6519  3.8653
  160SOL     MW  640   0.517   1.156   1.535  0.1674 -0.2501 -0.2900
  161SOL     OW  641   0.437   2.240   2.678  0.7788  0.0843  0.4767
  161SOL    HW1  642   0.353   2.292   2.652 -1.3087  1.4973  2.0573
  161SOL    HW2  643   0.453   2.165   2.619 -0.6051  1.8006 -0.2485
  161SOL     MW  644   0.428   2.237   2.667  0.3208  0.4972  0.5896
  162SOL     OW  645   1.071   1.817   1.791  0.6470 -0.0743 -0.1415
  162SOL    HW1  646   1.077   1.906   1.829  0.0737 -2.9313  0.5786
  162SOL    HW2  647   1.010   1.776   1.848 -0.4552  1.5173 -2.4304
  162SOL     MW  648   1.064   1.823   1.804  0.4259 -0.2413 -0.3485
  163SOL     OW  649   2.118   3.096   0.841  0.4340 -0.1388  0.2511
  163SOL    HW1  650   2.103   3.158   0.772 -2.9932 -0.8474  0.3375
  163SOL    HW2  651   2.059   3.017   0.815  0.1867 -0.6542  0.9222
  163SOL     MW  652   2.108   3.094   0.828 -0.0508 -0.3003  0.3511
  164SOL     OW  653   0.281   0.234   0.822 -0.1939  0.2259  0.7995
  164SOL    HW1  654   0.199   0.201   0.864  0.4239 -0.7534 -0.8183
  164SOL    HW2  655   0.309   0.163   0.767  1.3663  1.9054  0.7757
  164SOL     MW  656   0.274   0.220   0.820  0.0935  0.3183  0.5829
  165SOL     OW  657   1.204   1.311   0.390 -0.2570  0.3429  0.6664
  165SOL    HW1  658   1.246   1.271   0.476 -0.0099 -1.5932  0.7699
  165SOL    HW2  659   1.244   1.265   0.313 -1.7433  0.0166  2.4203
  165SOL     MW  660   1.215   1.300   0.391 -0.4205  0.0444  0.9115
  166SOL     OW  661   0.459   1.170   1.047 -0.8487 -0.0372  0.1487
  166SOL    HW1  662   0.444   1.220   1.131  1.1274 -2.8739  0.0885
  166SOL    HW2  663   0.556   1.167   1.035  1.5523 -0.1335  4.9393
  166SOL     MW  664   0.470   1.176   1.057 -0.2712 -0.4242  0.7729
  167SOL     OW  665   0.804   1.171   0.322  0.2011 -0.2311  0.6862
  167SOL    HW1  666   0.838   1.255   0.350  0.2172  0.9268  0.7018
  167SOL    HW2  667   0.879   1.144   0.266  0.7813 -0.7130 -1.8527
  167SOL     MW  668   0.819   1.179   0.318  0.2798 -0.1419  0.3533
  168SOL     OW  669   1.712   1.627   3.037 -0.1944  0.2146 -0.0115
  168SOL    HW1  670   1.668   1.714   3.029 -0.1661  0.1195  1.0254
  168SOL    HW2  671   1.640   1.564   3.024 -2.2279  0.9801 -0.3167
  168SOL     MW  672   1.697   1.630   3.034 -0.4590  0.3030  0.0850
  169SOL     OW  673   0.334   0.989   1.316  0.3126 -0.4643 -0.1383
  169SOL    HW1  674   0.371   0.972   1.400  0.4822  0.3713 -0.5362
  169SOL    HW2  675   0.357   1.074   1.281  1.7719 -2.1863 -0.0826
  169SOL     MW  676   0.342   0.998   1.322  0.5275 -0.5812 -0.1834
  170SOL     OW  677   1.128   1.511   1.466  0.0511 -0.2305  0.0752
  170SOL    HW1  678   1.084   1.600   1.462 -0.5959 -0.6035  2.9286
  170SOL    HW2  679   1.150   1.488   1.378 -0.0718  2.0433 -0.4196
  170SOL     MW  680   1.125   1.520   1.454 -0.0505  0.0203  0.3864
  171SOL     OW  681   0.510   1.443   0.571  0.5072 -0.1414  0.5869
  171SOL    HW1  682   0.488   1.519   0.521 -1.3451  2.7094 -0.3237
  171SOL    HW2  683   0.489   1.352   0.523 -0.0873 -2.3664 -0.3030
  171SOL     MW  684   0.504   1.441   0.558  0.1844 -0.0589  0.3493
  172SOL     OW  685   0.759   0.292   1.268 -0.4348  0.4744  0.6303
  172SOL    HW1  686   0.732   0.247   1.187  0.9204  2.1484  2.0677
  172SOL    HW2  687   0.813   0.218   1.304  2.5171 -1.6320  1.0266
  172SOL     MW  688   0.762   0.276   1.262  0.1335  0.4173  0.8722
  173SOL     OW  689   0.562   1.697   0.327 -0.2996 -0.0748  0.2238
  173SOL    HW1  690   0.589   1.615   0.290 -0.9774  2.6319  2.4338
  173SOL    HW2  691   0.621   1.728   0.393 -0.2380 -0.0653 -2.6717
  173SOL     MW  692   0.573   1.691   0.331 -0.3809  0.2836  0.1334
  174SOL     OW  693   1.916   0.902   1.491 -0.2396  0.8732 -0.4559
  174SOL    HW1  694   1.880   0.818   1.520  2.8209  0.9150 -0.3820
  174SOL    HW2  695   1.892   0.908   1.398 -1.7966  0.6109  1.3588
  174SOL     MW  696   1.908   0.892   1.482 -0.0412  0.8441 -0.2067
  175SOL     OW  697   0.577   1.485   0.185 -0.2801 -0.0285  0.3905
  175SOL    HW1  698   0.507   1.420   0.184  2.1116 -2.3152  1.3267
  175SOL    HW2  699   0.657   1.445   0.173 -1.7205  1.5547 -1.3374
  175SOL     MW  700   0.578   1.471   0.184 -0.1546 -0.1213  0.2860
  176SOL     OW  701   0.102   1.513   1.186 -0.6254  0.4823 -0.1219
  176SOL    HW1  702   0.114   1.473   1.097 -1.7766  0.3118 -2.8218
  176SOL    HW2  703   0.024   1.471   1.219  0.8137 -2.0058  2.0765
  176SOL     MW  704   0.094   1.502   1.179 -0.5874  0.1315 -0.1881
  177SOL     OW  705   0.501   0.305   1.429  0.2381 -0.7114 -0.1742
  177SOL    HW1  706   0.588   0.295   1.383 -0.1924 -5.9472  1.2886
  177SOL    HW2  707   0.501   0.398   1.471  0.4471 -2.2487 -0.1347
  177SOL     MW  708   0.512   0.316   1.428  0.2089 -1.6050  0.0240
  178SOL     OW  709   3.059   0.518   3.019  0.3387  0.2057 -0.0877
  178SOL    HW1  710   2.964   0.497   3.041 -4.8667  3.4831  0.1375
  178SOL    HW2  711   3.053   0.509   2.920  2.2956  1.7444 -0.2794
  178SOL     MW  712   3.046   0.514   3.009 -0.0899  0.8411 -0.0833
  179SOL     OW  713   1.550   1.474   1.383  0.5996  0.1453  0.9496
  179SOL    HW1  714   1.542   1.465   1.478 -1.7313  0.5852  2.0754
  179SOL    HW2  715   1.649   1.466   1.373 -1.3345 -1.2097  2.2203
  179SOL     MW  716   1.562   1.472   1.394  0.0369  0.0246  1.2658
  180SOL     OW  717   0.008   0.266   0.418  0.1466 -0.8852  0.0139
  180SOL    HW1  718  -0.063   0.288   0.360 -2.5489  1.0361  0.3318
  180SOL    HW2  719   0.056   0.351   0.419  1.9301  1.7336 -0.5083
  180SOL     MW  720   0.005   0.280   0.410  0.0263 -0.2862 -0.0131
  181SOL     OW  721   1.070   1.316   3.098  0.1937  0.6664  0.1282
  181SOL    HW1  722   1.133   1.380   3.131 -2.9864  2.0593  0.7026
  181SOL    HW2  723   1.107   1.269   3.022 -1.5544 -0.1222  3.3732
  181SOL     MW  724   1.083   1.319   3.093 -0.4565  0.7462  0.6321
  182SOL     OW  725   0.374   0.930   1.606 -0.0519 -0.4724 -0.4619
  182SOL    HW1  726   0.297   0.940   1.657  3.7511 -1.4526 -0.1139
  182SOL    HW2  727   0.428   0.881   1.671 -2.5256 -3.0973 -1.4489
  182SOL     MW  728   0.371   0.925   1.622  0.1235 -0.9480 -0.5462
  183SOL     OW  729   1.574   1.766   1.284 -0.0176  0.0889 -0.4485
  183SOL    HW1  730   1.672   1.768   1.282 -1.8322 -1.4403 -0.4253
  183SOL    HW2  731   1.549   1.684   1.323  1.2233 -0.2009  2.0637
  183SOL     MW  732   1.584   1.756   1.289 -0.0933 -0.1511 -0.1140
  184SOL     OW  733   0.816   0.685   1.773  0.1351 -1.1887 -0.1787
  184SOL    HW1  734   0.896   0.650   1.725  2.7572 -0.9059  2.1132
  184SOL    HW2  735   0.802   0.617   1.842 -0.4226  0.3163  0.8206
  184SOL     MW  736   0.825   0.671   1.775  0.4075 -0.9528  0.2555
  185SOL     OW  737   1.138   0.961   1.885  0.0537  0.1532 -0.2567
  185SOL    HW1  738   1.102   0.875   1.919 -1.3422  0.0507  3.1543
  185SOL    HW2  739   1.160   1.008   1.970  1.6055 -1.3468  1.7052
  185SOL     MW  740   1.136   0.956   1.900  0.0743 -0.0582  0.4522
  186SOL     OW  741   0.264   1.621   1.518 -0.2922  0.0354  0.2824
  186SOL    HW1  742   0.285   1.559   1.449  0.9830 -1.4827  0.0358
  186SOL    HW2  743   0.189   1.577   1.564 -0.1319 -1.5055  0.6186
  186SOL     MW  744   0.257   1.607   1.515 -0.1028 -0.3682  0.2943
  187SOL     OW  745   1.388   0.775   1.381 -0.5924  0.3321 -0.2129
  187SOL    HW1  746   1.395   0.791   1.477 -0.3218  2.6053 -0.5167
  187SOL    HW2  747   1.295   0.765   1.356  0.2513  1.1906 -2.1365
  187SOL     MW  748   1.377   0.776   1.391 -0.4454  0.7453 -0.5068
  188SOL     OW  749   1.896   1.223   0.899 -0.0552  0.6322  0.2150
  188SOL    HW1  750   1.899   1.214   0.998 -0.2020  3.0640  2.3540
  188SOL    HW2  751   1.935   1.140   0.876 -2.6570  0.1550  1.8999
  188SOL     MW  752   1.902   1.211   0.909 -0.4179  0.8901  0.7195
  189SOL     OW  753   0.698   0.706   0.882  0.1369 -0.2661  0.2738
  189SOL    HW1  754   0.634   0.762   0.842  2.7272 -0.0728  1.1948
  189SOL    HW2  755   0.730   0.750   0.960 -2.4656  2.4523 -0.3437
  189SOL     MW  756   0.694   0.719   0.887  0.1353  0.1181  0.3138
  190SOL     OW  757   1.852   0.298   2.066  0.0780 -0.7838 -0.4164
  190SOL    HW1  758   1.851   0.275   2.165  1.4152  1.2429 -1.6391
  190SOL    HW2  759   1.943   0.336   2.067  1.5586  2.1836 -1.6558
  190SOL     MW  760   1.864   0.300   2.080  0.4498 -0.1248 -0.7413
  191SOL     OW  761   1.566   0.955   1.210 -0.0623 -0.0062 -0.0889
  191SOL    HW1  762   1.592   1.031   1.261 -3.5100 -0.0460 -1.0362
  191SOL    HW2  763   1.523   0.899   1.275  1.3224  0.8066  0.0403
  191SOL     MW  764   1.564   0.958   1.225 -0.3345  0.0958 -0.1969
  192SOL     OW  765   0.505   2.189   2.934 -0.0246 -0.1753  0.7558
  192SOL    HW1  766   0.464   2.232   2.859 -2.4340 -0.3685  1.0905
  192SOL    HW2  767   0.507   2.110   2.886 -2.7186  0.3239  1.2204
  192SOL     MW  768   0.500   2.184   2.918 -0.6979 -0.1349  0.8612
  193SOL     OW  769   0.825   1.633   0.800  0.7460 -0.2596  0.1877
  193SOL    HW1  770   0.723   1.638   0.822 -3.1690  0.4022  1.4935
  193SOL    HW2  771   0.815   1.573   0.719  1.1431  4.5278  0.1360
  193SOL     MW  772   0.810   1.626   0.792  0.2819  0.4594  0.3532
  194SOL     OW  773   0.440   1.340   0.832 -0.8523  0.3606 -0.2648
  194SOL    HW1  774   0.416   1.279   0.908 -2.0720 -1.6443  2.1377
  194SOL    HW2  775   0.365   1.400   0.815  0.8395  3.5023 -2.0266
  194SOL     MW  776   0.427   1.340   0.840 -0.7900  0.5106 -0.1803
  195SOL     OW  777   1.233   1.092   3.007 -0.7291  0.3545  0.4246
  195SOL    HW1  778   1.282   1.113   3.085  4.3022 -0.8628 -1.2220
  195SOL    HW2  779   1.193   1.008   3.024 -1.8221 -0.3577 -2.4639
  195SOL     MW  780   1.234   1.084   3.019 -0.2094  0.1000 -0.1737
  196SOL     OW  781   2.239   1.016   0.537 -0.2829  0.0859 -0.6577
  196SOL    HW1  782   2.288   0.984   0.465 -0.3352  0.0085 -3.6065
  196SOL    HW2  783   2.219   1.108   0.518  1.8260 -1.7056 -1.0892
  196SOL     MW  784   2.242   1.024   0.525 -0.0115 -0.1607 -1.1037
  197SOL     OW  785   0.609   1.340   2.165  0.2200 -0.1326 -0.4158
  197SOL    HW1  786   0.645   1.264   2.115  1.7384 -0.5268 -0.3578
  197SOL    HW2  787   0.642   1.415   2.122 -1.0791 -1.8330 -0.9828
  197SOL     MW  788   0.618   1.340   2.153  0.2490 -0.4089 -0.4829
  198SOL     OW  789   2.939   1.411   1.004  0.1707 -0.9899  0.8260
  198SOL    HW1  790   2.936   1.491   0.952 -2.0208  1.4981  0.0658
  198SOL    HW2  791   2.861   1.360   0.991  0.5917 -0.1778  0.5054
  198SOL     MW  792   2.928   1.415   0.995 -0.0629 -0.5545  0.6834
  199SOL     OW  793   0.653   1.271   1.832  0.0830 -0.0126 -0.1950
  199SOL    HW1  794   0.560   1.253   1.850 -1.7749 -1.3475 -0.7221
  199SOL    HW2  795   0.650   1.355   1.791  0.7558 -2.1639  0.9470
  199SOL     MW  796   0.641   1.280   1.829 -0.0733 -0.4726 -0.1139
  200SOL     OW  797   1.840   2.953   1.294  0.0022  0.4890  0.0398
  200SOL    HW1  798   1.877   2.949   1.202  0.3432 -0.8343 -3.6553
  200SOL    HW2  799   1.782   3.024   1.289  5.1350 -1.9955  1.9024
  200SOL     MW  800   1.838   2.962   1.281  0.7244 -0.0134 -0.2020
  201SOL     OW  801   1.194   0.301   0.822  0.0760 -0.4313 -0.0722
  201SOL    HW1  802   1.138   0.225   0.842  1.1545 -0.2897 -0.7759
  201SOL    HW2  803   1.287   0.283   0.845 -0.0655 -2.0656  3.6485
  201SOL     MW  804   1.199   0.289   0.828  0.1997 -0.6282  0.3258
  202SOL     OW  805   1.500   1.717   0.994 -0.2477  0.0617  0.6125
  202SOL    HW1  806   1.513   1.624   0.979 -2.2939  3.7436 -0.7781
  202SOL    HW2  807   1.534   1.737   1.082  3.3208  1.2052  1.7817
  202SOL     MW  808   1.506   1.707   1.004 -0.0469  0.6983  0.5833
  203SOL     OW  809   3.019   0.343   1.302  0.0728  0.1215  0.0019
  203SOL    HW1  810   3.048   0.249   1.317  2.9335 -2.4966 -2.2731
  203SOL    HW2  811   3.102   0.391   1.317  0.5387  2.3450  1.9404
  203SOL     MW  812   3.034   0.337   1.306  0.5117  0.0695 -0.0425
  204SOL     OW  813   0.992   1.811   0.671 -0.6424  0.1146  0.0679
  204SOL    HW1  814   0.927   1.750   0.713 -1.7312  1.4850  0.8660
  204SOL    HW2  815   0.963   1.829   0.585  3.2287 -2.0154 -1.8182
  204SOL     MW  816   0.980   1.806   0.665 -0.2753  0.0144 -0.0756
  205SOL     OW  817   1.418   3.033   1.319  0.5454  0.1336  0.3891
  205SOL    HW1  818   1.442   3.061   1.230  0.1659 -1.0515 -0.3452
  205SOL    HW2  819   1.355   3.099   1.347  0.4440  0.6176 -1.1779
  205SOL     MW  820   1.413   3.045   1.311  0.4820  0.0411  0.0855
  206SOL     OW  821   0.388   2.932   1.337 -0.2875 -0.4372 -0.2944
  206SOL    HW1  822   0.371   2.943   1.242 -0.6378  3.5418 -0.4934
  206SOL    HW2  823   0.484   2.924   1.356  0.5640 -1.9390  0.8050
  206SOL     MW  824   0.398   2.932   1.327 -0.2214 -0.1104 -0.1756
  207SOL     OW  825   0.883   1.751   0.222  0.8174 -0.3730  0.1618
  207SOL    HW1  826   0.958   1.795   0.186 -0.5132 -0.8682  0.9428
  207SOL    HW2  827   0.906   1.668   0.263 -2.7620 -0.9256  3.0881
  207SOL     MW  828   0.896   1.746   0.223  0.1696 -0.5113  0.6509
  208SOL     OW  829   0.784   1.558   1.331 -0.1532  0.0204  0.0765
  208SOL    HW1  830   0.874   1.549   1.353 -2.1256  0.1475 -4.5718
  208SOL    HW2  831   0.795   1.538   1.237  0.8419 -0.3632 -1.4778
  208SOL     MW  832   0.798   1.554   1.321 -0.2822 -0.0134 -0.7419
  209SOL     OW  833   1.598   0.497   2.838  0.5542 -0.2438 -0.1619
  209SOL    HW1  834   1.647   0.576   2.863  1.8630  0.3418  1.4897
  209SOL    HW2  835   1.664   0.424   2.827  0.4467  0.5575  1.7086
  209SOL     MW  836   1.613   0.498   2.840  0.7127 -0.0608  0.3028
  210SOL     OW  837   1.464   1.453   0.946 -0.0415 -0.4587 -0.3341
  210SOL    HW1  838   1.559   1.457   0.930  1.7308 -1.6750  0.7344
  210SOL    HW2  839   1.416   1.466   0.860 -1.1982 -1.4597 -0.6250
  210SOL     MW  840   1.470   1.455   0.933  0.0397 -0.7513 -0.2315
  211SOL     OW  841   1.731   0.411   0.908  0.3956  1.1115 -0.7673
  211SOL    HW1  842   1.728   0.429   0.808 -1.5773  0.1359 -0.5828
  211SOL    HW2  843   1.818   0.402   0.942  0.1173  1.2823  2.3644
  211SOL     MW  844   1.742   0.413   0.899  0.0986  1.0054 -0.3297
  212SOL     OW  845   0.363   1.145   0.232  0.5507  0.1885 -0.1798
  212SOL    HW1  846   0.292   1.081   0.226 -1.2955  2.3305  0.4800
  212SOL    HW2  847   0.425   1.111   0.168  0.4025  1.1920  1.1386
  212SOL     MW  848   0.362   1.132   0.223  0.2875  0.6035  0.0812
  213SOL     OW  849   0.364   1.861   3.007 -0.2015 -0.4228 -0.0098
  213SOL    HW1  850   0.428   1.881   3.077  1.9112  0.4585  1.7586
  213SOL    HW2  851   0.411   1.882   2.921 -0.5783 -0.5412 -2.8716
  213SOL     MW  852   0.379   1.866   3.005  0.0275 -0.3221 -0.1541
  214SOL     OW  853   0.593   0.337   2.116 -0.1931  0.9282 -0.4022
  214SOL    HW1  854   0.522   0.396   2.138  3.9839  0.1441  0.8725
  214SOL    HW2  855   0.625   0.351   2.029  4.5601  0.4814  3.9778
  214SOL     MW  856   0.588   0.347   2.108  0.9852  0.7658  0.3439
  215SOL     OW  857   0.493   0.536   2.518  0.2701 -0.1117 -0.2000
  215SOL    HW1  858   0.422   0.576   2.465 -1.7975  0.6983 -3.4174
  215SOL    HW2  859   0.493   0.452   2.478 -0.6612 -1.3420 -0.0932
  215SOL     MW  860   0.483   0.530   2.505 -0.1256 -0.1672 -0.6104
  216SOL     OW  861   2.898   3.082   2.742 -0.4093  0.0468  0.4053
  216SOL    HW1  862   2.846   3.060   2.819  0.2770  2.4170  1.3972
  216SOL    HW2  863   2.900   3.182   2.719 -1.3173  0.3953  1.0244
  216SOL     MW  864   2.891   3.092   2.749 -0.4385  0.4055  0.6178
  217SOL     OW  865   1.011   1.084   0.146 -0.1281  0.1037 -0.7685
  217SOL    HW1  866   1.014   1.009   0.091  0.6207  0.2874  0.5736
  217SOL    HW2  867   1.058   1.145   0.083 -0.6729 -0.0118 -0.0414
  217SOL     MW  868   1.018   1.083   0.130 -0.1012  0.1127 -0.4955
  218SOL     OW  869   0.856   1.342   2.634  0.2220 -0.5358 -0.4763
  218SOL    HW1  870   0.837   1.299   2.721  0.1038  2.7619  0.0235
  218SOL    HW2  871   0.934   1.399   2.640 -2.0913  0.5074 -0.5322
  218SOL     MW  872   0.864   1.344   2.646 -0.0988  0.0369 -0.4177
  219SOL     OW  873   1.049   0.441   2.605  0.0361  0.8695 -0.3291
  219SOL    HW1  874   1.105   0.508   2.643  0.9700  0.3181  1.3725
  219SOL    HW2  875   0.966   0.490   2.582  2.0096  0.4422  0.4488
  219SOL     MW  876   1.045   0.456   2.607  0.4197  0.7404 -0.0019
  220SOL     OW  877   1.729   0.494   2.186 -0.0208 -0.7343  0.9013
  220SOL    HW1  878   1.633   0.511   2.166  0.4272  0.0822 -0.3687
  220SOL    HW2  879   1.752   0.429   2.117 -0.1272  2.1541 -2.1522
  220SOL     MW  880   1.719   0.488   2.174  0.0243 -0.2455  0.3308
  221SOL     OW  881   0.384   1.370   2.942  0.5225  0.1922  0.2837
  221SOL    HW1  882   0.428   1.286   2.939 -0.7690  0.7710  1.0159
  221SOL    HW2  883   0.422   1.429   2.879 -1.8963  3.5777 -1.2047
  221SOL     MW  884   0.395   1.366   2.933  0.0330  0.7153  0.1839
  222SOL     OW  885   0.512   0.942   2.714  0.3242 -0.3541  0.2643
  222SOL    HW1  886   0.414   0.939   2.723 -0.6481  1.0156 -1.7537
  222SOL    HW2  887   0.546   0.855   2.717  2.0092 -0.2352  0.5204
  222SOL     MW  888   0.503   0.930   2.716  0.4183 -0.1577  0.0319
  223SOL     OW  889   3.093   2.031   2.529 -0.2160  0.2250  0.3783
  223SOL    HW1  890   3.102   2.031   2.622  2.4587 -1.3280 -0.2660
  223SOL    HW2  891   3.128   2.120   2.502 -0.6309  0.5834  2.3876
  223SOL     MW  892   3.099   2.043   2.538  0.0822  0.0674  0.5584
  224SOL     OW  893   1.454   0.695   2.441  0.3612 -0.0366 -0.1206
  224SOL    HW1  894   1.543   0.691   2.471 -2.3301 -0.6948  0.6648
  224SOL    HW2  895   1.436   0.783   2.474  1.4921  1.9526 -0.9831
  224SOL     MW  896   1.463   0.706   2.449  0.1553  0.1390 -0.1308
  225SOL     OW  897   2.947   1.473   2.281  0.3578  0.3818 -0.6604
  225SOL    HW1  898   2.971   1.556   2.239  2.6306  0.5209 -1.4088
  225SOL    HW2  899   2.876   1.499   2.341  0.6142 -1.6896 -0.8682
  225SOL     MW  900   2.940   1.487   2.283  0.6915  0.1268 -0.7865
  226SOL     OW  901   0.428   1.526   2.681 -0.0584  0.6097 -0.5109
  226SOL    HW1  902   0.523   1.541   2.684 -0.2706  2.5867 -1.3429
  226SOL    HW2  903   0.396   1.619   2.705  0.6427  1.4195  2.4119
  226SOL     MW  904   0.436   1.540   2.684  0.0061  0.9774 -0.2350
  227SOL     OW  905   0.556   1.122   2.905 -0.1554 -0.1527 -0.1208
  227SOL    HW1  906   0.635   1.168   2.878 -1.2988 -0.9729  3.0328
  227SOL    HW2  907   0.540   1.044   2.845  0.3450  1.6582  0.3114
  227SOL     MW  908   0.565   1.118   2.893 -0.2403 -0.0220  0.3523
  228SOL     OW  909   0.732   1.136   2.050  0.1120 -0.6189  0.5092
  228SOL    HW1  910   0.713   1.175   1.963  0.7181 -1.0762  2.4938
  228SOL    HW2  911   0.822   1.166   2.073  0.2992 -1.2492 -2.1385
  228SOL     MW  912   0.742   1.145   2.042  0.2166 -0.7624  0.4217
  229SOL     OW  913   0.227   0.558   3.095 -0.8834  0.3056 -0.2388
  229SOL    HW1  914   0.145   0.544   3.054  2.5787  1.2968  1.3892
  229SOL    HW2  915   0.234   0.476   3.148 -0.9843 -0.2795  2.1546
  229SOL     MW  916   0.217   0.546   3.097 -0.4399  0.3592  0.2918
  230SOL     OW  917   1.775   1.354   2.035 -0.4147  0.0867  0.4125
  230SOL    HW1  918   1.744   1.317   2.114 -0.5426  1.3030 -0.6397
  230SOL    HW2  919   1.718   1.327   1.962 -0.9295  2.5991 -2.5150
  230SOL     MW  920   1.763   1.346   2.036 -0.4995  0.5786 -0.1126
  231SOL     OW  921   2.715   1.235   2.248  0.1970  0.0161 -0.2342
  231SOL    HW1  922   2.774   1.300   2.276 -0.7501  0.6321  0.1282
  231SOL    HW2  923   2.680   1.274   2.169  3.3891  4.1844 -1.4483
  231SOL     MW  924   2.718   1.249   2.241  0.4932  0.6473 -0.3466
  232SOL     OW  925   2.293   0.876   1.926  0.0957  0.5110 -0.1457
  232SOL    HW1  926   2.207   0.899   1.901  2.2084 -2.1826  2.0685
  232SOL    HW2  927   2.283   0.816   1.999 -0.6233 -1.1316  1.0230
  232SOL     MW  928   2.280   0.871   1.932  0.2796 -0.0611  0.3006
  233SOL     OW  929   2.116   0.427   2.079 -0.3531  0.1016 -0.4260
  233SOL    HW1  930   2.179   0.361   2.053  2.6012 -1.9245 -1.3759
  233SOL    HW2  931   2.142   0.460   2.171  0.6434  0.6902  1.6571
  233SOL     MW  932   2.127   0.423   2.088  0.1682 -0.0880 -0.2765
  234SOL     OW  933   0.232   1.064   2.654  0.1222 -0.1005  0.3760
  234SOL    HW1  934   0.171   1.042   2.579  0.1035  3.8806 -1.5967
  234SOL    HW2  935   0.262   1.157   2.633  0.3922  0.6095  0.6414
  234SOL     MW  936   0.228   1.073   2.642  0.1554  0.5184  0.1507
  235SOL     OW  937   1.153   3.039   2.808  0.0005  0.3381 -0.1640
  235SOL    HW1  938   1.201   3.005   2.885  0.8572  1.9625  1.3049
  235SOL    HW2  939   1.182   3.133   2.804 -1.8755 -0.0534  1.8461
  235SOL     MW  940   1.163   3.047   2.817 -0.1340  0.5007  0.2950
  236SOL     OW  941   2.955   0.618   0.213  0.6994 -0.3658  0.0547
  236SOL    HW1  942   2.968   0.624   0.307 -0.9468  0.8829  1.2545
  236SOL    HW2  943   3.015   0.668   0.161  0.1534 -0.4786 -0.4178
  236SOL     MW  944   2.964   0.625   0.218  0.4101 -0.2159  0.1507
  237SOL     OW  945   1.914   1.099   2.162 -0.4181 -0.7345 -0.5550
  237SOL    HW1  946   1.834   1.152   2.180 -3.4511  0.2657 -4.1980
  237SOL    HW2  947   1.897   1.070   2.070  3.8437  1.2676  0.8425
  237SOL     MW  948   1.901   1.102   2.152 -0.2559 -0.3383 -0.8512
  238SOL     OW  949   1.060   1.731   2.933  0.1791 -0.0856  0.0540
  238SOL    HW1  950   1.021   1.646   2.954  0.1245  2.2210 -0.1041
  238SOL    HW2  951   1.153   1.707   2.929 -0.5044 -2.4644  1.2935
  238SOL     MW  952   1.067   1.716   2.935  0.0817 -0.0952  0.1967
  239SOL     OW  953   1.193   1.304   2.349  0.2912  0.4233  0.2433
  239SOL    HW1  954   1.119   1.267   2.300  0.4335 -1.0270  3.2146
  239SOL    HW2  955   1.193   1.244   2.426 -0.1671  1.6541 -1.5066
  239SOL     MW  956   1.183   1.291   2.353  0.2495  0.3943  0.4044
  240SOL     OW  957   0.567   0.870   2.276  0.0046  0.3785  0.1669
  240SOL    HW1  958   0.594   0.927   2.356  0.9480  2.7771  3.5190
  240SOL    HW2  959   0.648   0.861   2.231  1.8404 -1.3519  2.6785
  240SOL     MW  960   0.581   0.876   2.281  0.3713  0.4666  0.9406
  241SOL     OW  961   0.681   0.439   3.088  0.1978 -0.1084  0.3715
  241SOL    HW1  962   0.702   0.521   3.133  0.4114 -0.3754  0.0341
  241SOL    HW2  963   0.598   0.471   3.040  0.9831  0.2573  1.1714
  241SOL     MW  964   0.673   0.454   3.088  0.3296 -0.0954  0.4325
  242SOL     OW  965   1.494   1.664   2.303 -0.0665 -0.2167 -0.0902
  242SOL    HW1  966   1.432   1.743   2.298 -2.5039  2.9014  1.3881
  242SOL    HW2  967   1.445   1.597   2.255 -0.0343  0.2090  0.1789
  242SOL     MW  968   1.479   1.666   2.296 -0.3838  0.2509  0.1404
  243SOL     OW  969   1.029   0.331   2.363 -0.3288  0.4528  0.1452
  243SOL    HW1  970   1.120   0.302   2.336 -1.1786  1.1312 -3.7124
  243SOL    HW2  971   1.034   0.376   2.447 -1.6099  0.2509  1.2072
  243SOL     MW  972   1.042   0.333   2.370 -0.6099  0.5156 -0.2236
  244SOL     OW  973   0.129   0.744   2.376 -0.2033  0.2980  0.1584
  244SOL    HW1  974   0.135   0.831   2.407 -0.7464 -1.9077 -2.4181
  244SOL    HW2  975   0.215   0.730   2.344 -2.0636  0.5480  1.4928
  244SOL     MW  976   0.141   0.754   2.376 -0.5204  0.0399 -0.0055
  245SOL     OW  977   1.267   0.194   2.396  0.7260 -0.3362 -0.0994
  245SOL    HW1  978   1.296   0.150   2.310  0.1399 -2.6126 -0.5232
  245SOL    HW2  979   1.274   0.128   2.471  0.9739  0.8651  0.3120
  245SOL     MW  980   1.271   0.179   2.394  0.6814 -0.4780 -0.1011
  246SOL     OW  981   1.214   1.122   2.075 -0.5022  0.7904 -0.0275
  246SOL    HW1  982   1.135   1.121   2.139 -1.3198 -3.4656  2.1601
  246SOL    HW2  983   1.295   1.091   2.122  1.7321 -0.4264 -0.4009
  246SOL     MW  984   1.214   1.118   2.089 -0.3153  0.0683  0.2119
  247SOL     OW  985   0.754   0.657   0.154  0.2426  0.2349  0.4869
  247SOL    HW1  986   0.748   0.756   0.145  1.0170  1.1840 -0.0803
  247SOL    HW2  987   0.851   0.636   0.137  0.5493  0.4655  0.8414
  247SOL     MW  988   0.766   0.667   0.151  0.3853  0.3906  0.4589
  248SOL     OW  989   0.294   1.320   2.558  0.2695  1.0549 -0.0483
  248SOL    HW1  990   0.316   1.331   2.464  0.2387 -1.5449  1.8678
  248SOL    HW2  991   0.340   1.396   2.591  2.5966 -1.4811  1.2480
  248SOL     MW  992   0.303   1.332   2.550  0.5725  0.3773  0.3755
  249SOL     OW  993   2.988   1.950   2.789  0.9961 -0.1967  0.1283
  249SOL    HW1  994   2.954   1.888   2.726  1.4510  1.5833 -0.9033
  249SOL    HW2  995   3.063   1.908   2.831 -0.6828 -0.8303  2.3160
  249SOL     MW  996   2.993   1.937   2.786  0.8346 -0.0454  0.2809
  250SOL     OW  997   2.226   0.797   2.185  0.1057 -0.3446 -0.3198
  250SOL    HW1  998   2.182   0.712   2.209 -1.4830 -5.4826  0.4732
  250SOL    HW2  999   2.195   0.866   2.247  3.3664 -0.4244  1.8216
  250SOL     MW 1000   2.216   0.795   2.196  0.3263 -1.0330  0.0673
  251SOL     OW 1001   0.133   0.888   2.045  0.2466  0.0415 -0.5769
  251SOL    HW1 1002   0.092   0.810   2.091  0.7630  1.6511 -0.4339
  251SOL    HW2 1003   0.132   0.871   1.952  0.3394 -0.4335  1.5286
  251SOL     MW 1004   0.127   0.875   2.039  0.3270  0.1912 -0.2802
  252SOL     OW 1005   1.702   0.984   2.864  0.3815  0.5491  0.4047
  252SOL    HW1 1006   1.704   1.044   2.939  0.8046 -1.6332  1.1590
  252SOL    HW2 1007   1.790   1.006   2.818  0.4969 -2.4544 -0.3803
  252SOL     MW 1008   1.714   0.995   2.868  0.4525 -0.1351  0.4006
  253SOL     OW 1009   1.163   1.718   2.492 -0.5324 -0.0703  0.4616
  253SOL    HW1 1010   1.153   1.708   2.395  1.5425 -1.8667 -0.5632
  253SOL    HW2 1011   1.083   1.772   2.519  0.2021 -3.4739 -0.5743
  253SOL     MW 1012   1.151   1.724   2.483 -0.1617 -0.7564  0.1897
  254SOL     OW 1013   0.966   1.137   2.208  0.2614  0.0561 -0.6715
  254SOL    HW1 1014   0.941   1.045   2.226  2.3387  0.1539  0.3751
  254SOL    HW2 1015   0.914   1.177   2.284 -1.9197 -1.7500  2.0920
  254SOL     MW 1016   0.956   1.131   2.221  0.2477 -0.1693 -0.1688
  255SOL     OW 1017   0.841   2.562   2.137  0.1202 -0.7665  0.8257
  255SOL    HW1 1018   0.758   2.519   2.135  0.2202  1.1170 -1.0647
  255SOL    HW2 1019   0.912   2.514   2.177 -1.0158  4.5204 -2.3068
  255SOL     MW 1020   0.839   2.550   2.142 -0.0165  0.1795  0.1630
  256SOL     OW 1021   1.285   2.773   3.007  0.5867  0.4462  0.6026
  256SOL    HW1 1022   1.256   2.687   2.985 -0.3100  0.1744  0.5250
  256SOL    HW2 1023   1.350   2.785   2.932  0.0307  1.5584 -1.4631
  256SOL     MW 1024   1.290   2.763   2.994  0.3950  0.5571  0.3198
  257SOL     OW 1025   0.043   1.881   0.107  0.2782  0.3172 -0.5512
  257SOL    HW1 1026   0.102   1.849   0.176 -0.2864 -2.7544  1.7512
  257SOL    HW2 1027   0.079   1.870   0.016 -0.5707  3.3783  0.2516
  257SOL     MW 1028   0.056   1.875   0.104  0.0917  0.3158 -0.1415
  258SOL     OW 1029   0.670   1.001   2.490 -0.1035 -0.0216  0.4987
  258SOL    HW1 1030   0.713   1.082   2.480 -1.3003  0.9776 -1.1861
  258SOL    HW2 1031   0.592   1.010   2.541 -0.6077  1.0957 -0.9570
  258SOL     MW 1032   0.666   1.013   2.495 -0.3280  0.2577  0.0843
  259SOL     OW 1033   0.832   0.456   2.236 -0.5662 -0.6004  0.0015
  259SOL    HW1 1034   0.768   0.390   2.200 -1.5774  0.2108 -0.7655
  259SOL    HW2 1035   0.905   0.402   2.268 -0.4822 -2.0259 -2.9510
  259SOL     MW 1036   0.833   0.441   2.236 -0.6885 -0.6814 -0.4892
  260SOL     OW 1037   0.643   0.148   1.591 -0.1495 -0.3282 -0.1992
  260SOL    HW1 1038   0.596   0.212   1.544  0.1803 -2.2261  1.5305
  260SOL    HW2 1039   0.729   0.138   1.549  0.1343 -0.0146 -0.8299
  260SOL     MW 1040   0.648   0.155   1.579 -0.0685 -0.5372 -0.0542
  261SOL     OW 1041   1.051   0.734   1.986  0.0729 -0.0834  0.6022
  261SOL    HW1 1042   1.084   0.689   2.059 -0.6515  1.4993 -1.5817
  261SOL    HW2 1043   1.002   0.668   1.934 -1.3122  1.4733 -1.0564
  261SOL     MW 1044   1.049   0.719   1.989 -0.2054  0.3308  0.0952
  262SOL     OW 1045   1.147   0.352   0.106  0.1155 -0.7685  0.1185
  262SOL    HW1 1046   1.247   0.341   0.094  0.3767  1.8259 -1.9266
  262SOL    HW2 1047   1.107   0.314   0.027  0.8870 -1.8768  0.4699
  262SOL     MW 1048   1.155   0.345   0.094  0.2517 -0.5724 -0.1050
  263SOL     OW 1049   0.400   0.028   2.537  0.2437  0.1915 -0.3324
  263SOL    HW1 1050   0.321   0.043   2.581  1.2247 -0.5824 -0.8415
  263SOL    HW2 1051   0.416   0.090   2.471  0.3835 -2.7416 -0.2729
  263SOL     MW 1052   0.392   0.038   2.534  0.3916 -0.2976 -0.3918
  264SOL     OW 1053   1.534   1.491   1.894 -0.4571  0.3141 -0.4705
  264SOL    HW1 1054   1.470   1.421   1.914  0.7930  0.8006  1.2665
  264SOL    HW2 1055   1.589   1.492   1.971  4.4568  1.3426 -0.6380
  264SOL     MW 1056   1.533   1.482   1.906  0.3562  0.5140 -0.2635
  265SOL     OW 1057   0.723   2.831   2.295  0.3639 -0.2172  0.1655
  265SOL    HW1 1058   0.797   2.779   2.262 -2.6892 -2.6951  1.9902
  265SOL    HW2 1059   0.716   2.819   2.394 -1.3779  3.1227  0.8405
  265SOL     MW 1060   0.732   2.822   2.304 -0.2687 -0.1035  0.4953
  266SOL     OW 1061   0.827   0.880   2.149 -0.3206  0.2180 -0.4056
  266SOL    HW1 1062   0.812   0.962   2.102  3.2699  1.9678  1.0754
  266SOL    HW2 1063   0.904   0.836   2.100  4.0364 -1.6795 -2.2437
  266SOL     MW 1064   0.835   0.885   2.137  0.7280  0.1985 -0.4527
  267SOL     OW 1065   1.383   1.684   2.655  0.2386  0.2974 -0.5616
  267SOL    HW1 1066   1.453   1.616   2.637  3.3773 -0.5451 -0.8891
  267SOL    HW2 1067   1.323   1.685   2.583  0.8458 -0.1898  1.1892
  267SOL     MW 1068   1.384   1.675   2.643  0.7328  0.1219 -0.3738
  268SOL     OW 1069   0.119   0.902   1.781  0.0527  0.0427  0.0501
  268SOL    HW1 1070   0.062   0.980   1.761 -2.3425 -0.8703  2.6871
  268SOL    HW2 1071   0.088   0.845   1.708  1.0202 -2.7393 -0.5712
  268SOL     MW 1072   0.108   0.905   1.769 -0.1357 -0.4448  0.3160
  269SOL     OW 1073   1.333   1.882   2.302  0.8309 -0.4476  0.6476
  269SOL    HW1 1074   1.370   1.964   2.330 -2.5400  1.4064 -1.4257
  269SOL    HW2 1075   1.264   1.873   2.365  1.4780 -0.8846 -0.9106
  269SOL     MW 1076   1.329   1.892   2.314  0.4715 -0.2606  0.1685
  270SOL     OW 1077   1.095   0.350   1.529  0.4250 -0.2621 -0.1449
  270SOL    HW1 1078   1.062   0.271   1.572  0.3090 -0.6705 -0.7625
  270SOL    HW2 1079   1.183   0.364   1.569 -1.2442 -1.7395 -0.7906
  270SOL     MW 1080   1.102   0.342   1.540  0.1895 -0.5109 -0.3116
  271SOL     OW 1081   0.902   0.103   2.480 -0.2879 -0.8169 -0.1856
  271SOL    HW1 1082   0.944   0.066   2.561  0.2681  1.1556  1.2297
  271SOL    HW2 1083   0.963   0.172   2.442 -0.8231 -0.6659  2.7771
  271SOL     MW 1084   0.916   0.107   2.486 -0.2851 -0.5367  0.3920
  272SOL     OW 1085   1.468   2.785   2.820 -0.3262 -0.4226 -0.3905
  272SOL    HW1 1086   1.422   2.787   2.739  0.5527 -0.9748  0.0050
  272SOL    HW2 1087   1.509   2.877   2.830 -1.0463 -0.3702  0.7768
  272SOL     MW 1088   1.468   2.797   2.811 -0.3052 -0.4885 -0.1843
  273SOL     OW 1089   1.448   0.822   2.806  0.6894  0.0964  0.0320
  273SOL    HW1 1090   1.526   0.788   2.769 -1.6197  0.0650  1.9123
  273SOL    HW2 1091   1.468   0.915   2.818  1.7732  1.6276  0.4264
  273SOL     MW 1092   1.461   0.830   2.803  0.5277  0.2943  0.3321
  274SOL     OW 1093   1.443   0.636   0.128  0.0446 -0.2871 -0.1581
  274SOL    HW1 1094   1.496   0.596   0.197  0.8098  0.2044 -0.7171
  274SOL    HW2 1095   1.356   0.656   0.170 -0.3081  0.2047 -0.8025
  274SOL     MW 1096   1.439   0.633   0.143  0.0991 -0.1574 -0.3169
  275SOL     OW 1097   1.825   0.529   1.741  0.1561  0.6342 -0.1552
  275SOL    HW1 1098   1.880   0.562   1.819  1.4502 -1.1943  0.8995
  275SOL    HW2 1099   1.832   0.430   1.752 -1.5445 -1.5640 -0.9371
  275SOL     MW 1100   1.833   0.520   1.753  0.1025  0.1029 -0.1192
  276SOL     OW 1101   0.414   1.209   1.933 -0.6370  0.1295 -0.2357
  276SOL    HW1 1102   0.413   1.113   1.954 -0.6498 -2.0574 -0.3374
  276SOL    HW2 1103   0.350   1.244   1.996 -0.5533  1.4354  2.9827
  276SOL     MW 1104   0.406   1.201   1.944 -0.6277  0.0132  0.1755
  277SOL     OW 1105   1.986   1.137   2.454  0.7444  0.1594  0.6812
  277SOL    HW1 1106   2.039   1.216   2.471  2.0378  0.9531 -0.3307
  277SOL    HW2 1107   2.004   1.104   2.366 -0.8680 -1.5602 -0.7705
  277SOL     MW 1108   1.995   1.143   2.445  0.7023  0.0372  0.3561
  278SOL     OW 1109   1.403   0.613   1.682  0.6946 -0.3964 -0.1044
  278SOL    HW1 1110   1.404   0.580   1.773 -1.4061 -0.1207 -4.0482
  278SOL    HW2 1111   1.490   0.621   1.649  0.9034  1.7002  0.2867
  278SOL     MW 1112   1.415   0.609   1.689  0.4450 -0.0834 -0.5731
  279SOL     OW 1113   0.512   0.104   2.260  0.0800 -0.0143 -0.4514
  279SOL    HW1 1114   0.609   0.072   2.260  1.4680  1.7680  3.4249
  279SOL    HW2 1115   0.521   0.185   2.212  1.1019  0.2634  1.2618
  279SOL     MW 1116   0.526   0.110   2.253  0.3980  0.2575  0.2861
  280SOL     OW 1117   1.450   1.051   2.230 -0.6060 -0.5419 -0.0046
  280SOL    HW1 1118   1.501   0.993   2.178 -0.8687 -0.1204 -1.2166
  280SOL    HW2 1119   1.426   1.012   2.314  1.4508 -1.0489  0.2824
  280SOL     MW 1120   1.454   1.038   2.234 -0.3693 -0.5531 -0.1267
  281SOL     OW 1121   1.296   1.129   2.734 -0.2118 -0.7594  0.1066
  281SOL    HW1 1122   1.383   1.172   2.735 -0.1944 -0.2356  0.3030
  281SOL    HW2 1123   1.269   1.130   2.828  0.8945  0.2619  1.9897
  281SOL     MW 1124   1.304   1.135   2.747 -0.0635 -0.5555  0.3810
  282SOL     OW 1125   1.183   1.270   1.618 -0.0973  0.5442  0.6820
  282SOL    HW1 1126   1.149   1.344   1.575  0.7441  3.0335 -1.6834
  282SOL    HW2 1127   1.113   1.251   1.689 -1.7248  0.9059  2.3881
  282SOL     MW 1128   1.170   1.277   1.622 -0.2010  0.9204  0.5950
  283SOL     OW 1129   0.813   1.389   3.096  0.0458  0.0586 -0.0237
  283SOL    HW1 1130   0.910   1.372   3.102  0.4157 -1.7555 -1.0421
  283SOL    HW2 1131   0.809   1.483   3.091 -1.5112  1.0898 -1.8485
  283SOL     MW 1132   0.825   1.399   3.096 -0.1108 -0.0447 -0.3989
  284SOL     OW 1133   0.381   0.680   2.314 -0.5556 -0.4022  0.6532
  284SOL    HW1 1134   0.460   0.734   2.291  1.2808  0.7648 -0.5239
  284SOL    HW2 1135   0.403   0.597   2.264  2.0262 -2.5468  2.0117
  284SOL     MW 1136   0.394   0.676   2.304  0.0273 -0.5312  0.6771
  285SOL     OW 1137   0.875   0.824   2.849  0.0620  0.2855 -0.2799
  285SOL    HW1 1138   0.917   0.859   2.772 -0.2907  0.9170 -0.5207
  285SOL    HW2 1139   0.785   0.792   2.822 -1.4782 -1.6009 -1.4726
  285SOL     MW 1140   0.868   0.824   2.835 -0.1877  0.1199 -0.4690
  286SOL     OW 1141   1.095   1.478   2.674 -0.3721 -0.0839  0.2705
  286SOL    HW1 1142   1.140   1.396   2.644  0.4092  0.7699  2.0454
  286SOL    HW2 1143   1.138   1.545   2.624  1.9395  3.2255  2.9718
  286SOL     MW 1144   1.107   1.476   2.663  0.0360  0.4654  0.8611
  287SOL     OW 1145   1.147   0.971   0.349 -0.0889  0.0283 -0.3225
  287SOL    HW1 1146   1.110   1.006   0.430 -1.1907 -0.5709  2.5082
  287SOL    HW2 1147   1.093   1.011   0.272 -0.9353 -1.6556 -1.9241
  287SOL     MW 1148   1.135   0.981   0.349 -0.3459 -0.2729 -0.1603
  288SOL     OW 1149   1.496   0.634   2.149 -0.3497  0.8944  0.0048
  288SOL    HW1 1150   1.421   0.631   2.209  2.3550 -0.0249 -3.1491
  288SOL    HW2 1151   1.524   0.723   2.124  1.9486  1.5494 -1.9874
  288SOL     MW 1152   1.489   0.645   2.154  0.3104  0.8595 -0.6741
  289SOL     OW 1153   0.906   0.949   2.618  0.4093  0.0594  0.3424
  289SOL    HW1 1154   0.956   0.894   2.557  2.8590 -1.3296 -1.4559
  289SOL    HW2 1155   0.809   0.942   2.593  4.7788 -0.6364 -1.3013
  289SOL     MW 1156   0.900   0.941   2.607  1.3091 -0.2156 -0.1117
  290SOL     OW 1157   0.769   0.651   1.486 -0.1538 -0.3925  0.7953
  290SOL    HW1 1158   0.834   0.591   1.449 -0.3503  1.4357 -1.6285
  290SOL    HW2 1159   0.772   0.652   1.580  1.4358 -1.2688 -0.7317
  290SOL     MW 1160   0.778   0.643   1.493  0.0300 -0.2669  0.2740
  291SOL     OW 1161   0.239   0.320   0.158  0.0384 -0.4797  0.6225
  291SOL    HW1 1162   0.328   0.319   0.199  0.0070  0.7788  1.1850
  291SOL    HW2 1163   0.229   0.224   0.150  0.6815 -2.1593  1.3624
  291SOL     MW 1164   0.250   0.307   0.163  0.1191 -0.5353  0.7943
  292SOL     OW 1165   1.017   0.628   0.106 -0.5251 -0.6598 -0.2933
  292SOL    HW1 1166   1.086   0.680   0.151  0.8883  1.4219 -0.5263
  292SOL    HW2 1167   1.060   0.542   0.089  2.7268  1.7566  0.8185
  292SOL     MW 1168   1.032   0.624   0.109  0.0904 -0.0663 -0.1774
  293SOL     OW 1169   0.110   0.066   2.585 -0.0570  0.0396 -0.1879
  293SOL    HW1 1170   0.088   0.024   2.505  1.3209  1.6907  1.3717
  293SOL    HW2 1171   0.027   0.117   2.604  0.1730  1.0520 -0.9246
  293SOL     MW 1172   0.096   0.067   2.577  0.1552  0.3910 -0.0793
  294SOL     OW 1173   1.351   0.453   2.355 -0.1086 -0.6298  0.1968
  294SOL    HW1 1174   1.371   0.534   2.406 -0.2927  2.7815 -1.4497
  294SOL    HW2 1175   1.327   0.384   2.419 -3.1960  0.0586  2.9784
  294SOL     MW 1176   1.350   0.455   2.370 -0.5402 -0.0889  0.3466
  295SOL     OW 1177   0.848   0.593   2.518  0.3177 -0.1009 -0.9242
  295SOL    HW1 1178   0.800   0.571   2.435  0.6323  0.2316  0.5262
  295SOL    HW2 1179   0.795   0.647   2.579  0.1983 -0.8985 -2.1228
  295SOL     MW 1180   0.835   0.597   2.515  0.3434 -0.1622 -0.8910
  296SOL     OW 1181   1.317   0.296   2.069  0.4814  0.0259  0.1421
  296SOL    HW1 1182   1.352   0.206   2.056  1.0350  0.1413  0.5909
  296SOL    HW2 1183   1.364   0.327   2.144 -1.1525 -2.2981  0.6550
  296SOL     MW 1184   1.327   0.288   2.077  0.3389 -0.2655  0.2690
  297SOL     OW 1185   1.363   0.347   1.599 -0.1804 -0.8429 -0.5013
  297SOL    HW1 1186   1.390   0.431   1.632 -1.3692 -0.5852  0.8014
  297SOL    HW2 1187   1.430   0.283   1.624  0.5918  0.7216 -1.8415
  297SOL     MW 1188   1.376   0.350   1.607 -0.2353 -0.6025 -0.5063
  298SOL     OW 1189   1.599   0.865   2.051  0.7893  0.1411 -0.1581
  298SOL    HW1 1190   1.640   0.903   1.971 -0.5479 -2.2991  1.6412
  298SOL    HW2 1191   1.675   0.856   2.106 -1.4325 -0.4832 -2.0206
  298SOL     MW 1192   1.614   0.869   2.048  0.3197 -0.2633 -0.1665
  299SOL     OW 1193   0.612   1.192   0.092  0.2833 -0.1826 -0.2799
  299SOL    HW1 1194   0.592   1.190  -0.005  3.1182 -3.5708  0.2374
  299SOL    HW2 1195   0.700   1.227   0.094  0.4302  1.4097 -4.0341
  299SOL     MW 1196   0.621   1.196   0.079  0.6767 -0.4196 -0.7070
  300SOL     OW 1197   1.107   1.137   2.556  0.0226 -0.1966  0.1059
  300SOL    HW1 1198   1.035   1.077   2.582 -0.5244 -1.1670 -0.9771
  300SOL    HW2 1199   1.179   1.132   2.626 -1.5044  0.4959  0.9879
  300SOL     MW 1200   1.107   1.128   2.568 -0.2510 -0.2333  0.0794
  301SOL     OW 1201   1.487   1.052   0.741  0.7467 -0.9765  0.5230
  301SOL    HW1 1202   1.510   1.090   0.826  0.9428  0.1293  0.6354
  301SOL    HW2 1203   1.408   0.991   0.752 -0.4586 -1.5832  0.5355
  301SOL     MW 1204   1.480   1.049   0.754  0.6136 -0.9106  0.5395
  302SOL     OW 1205   0.186   1.583   2.039  0.9367 -0.4736  0.1627
  302SOL    HW1 1206   0.183   1.490   2.039 -3.6636  1.6909  2.2742
  302SOL    HW2 1207   0.094   1.602   2.063  2.2867 -0.4189  0.1054
  302SOL     MW 1208   0.173   1.573   2.042  0.5079 -0.1808  0.4337
  303SOL     OW 1209   0.317   1.772   2.700 -0.1765 -0.3716  0.4789
  303SOL    HW1 1210   0.279   1.784   2.613 -3.1018 -0.6450 -0.1482
  303SOL    HW2 1211   0.245   1.774   2.762 -1.9414  1.7776  1.0428
  303SOL     MW 1212   0.302   1.774   2.697 -0.7953 -0.1241  0.4705
  304SOL     OW 1213   0.515   2.054   2.477  0.2515 -0.1242 -0.1652
  304SOL    HW1 1214   0.556   2.118   2.410  3.3622  3.3988  0.1626
  304SOL    HW2 1215   0.581   1.990   2.493 -0.5691 -2.1836 -1.6505
  304SOL     MW 1216   0.529   2.054   2.470  0.5537  0.0689 -0.3179
  305SOL     OW 1217   1.151   0.651   0.551  0.2479  0.0126 -0.0188
  305SOL    HW1 1218   1.059   0.653   0.515 -2.6202  1.1101  0.8906
  305SOL    HW2 1219   1.176   0.559   0.550  1.4115 -3.3999 -0.1218
  305SOL     MW 1220   1.142   0.639   0.546  0.0230 -0.2929  0.0876
  306SOL     OW 1221   1.085   1.536   0.306  0.0150  0.3775 -0.0268
  306SOL    HW1 1222   1.123   1.462   0.360 -0.3826 -0.2534  1.1683
  306SOL    HW2 1223   1.143   1.544   0.231 -1.4644  2.0686 -0.0429
  306SOL     MW 1224   1.097   1.527   0.303 -0.2327  0.5174  0.1287
  307SOL     OW 1225   1.440   0.497   1.918  0.4047  0.4251 -0.2060
  307SOL    HW1 1226   1.403   0.421   1.963 -0.4482  1.1537 -0.8098
  307SOL    HW2 1227   1.469   0.557   1.987  2.6179  0.0541 -0.6003
  307SOL     MW 1228   1.439   0.495   1.933  0.5842  0.4723 -0.3377
  308SOL     OW 1229   2.237   0.526   2.732  1.1682  0.5146  0.4528
  308SOL    HW1 1230   2.327   0.543   2.705  0.9943  2.3107  0.7390
  308SOL    HW2 1231   2.199   0.613   2.745 -2.1984 -3.0317  1.7369
  308SOL     MW 1232   2.244   0.539   2.730  0.7011  0.2837  0.6600
  309SOL     OW 1233   0.516   0.558   0.241  0.1827 -0.7864  0.2163
  309SOL    HW1 1234   0.595   0.606   0.213 -2.6069  3.5010  1.6215
  309SOL    HW2 1235   0.529   0.466   0.246  0.7703  0.4863 -2.1016
  309SOL     MW 1236   0.528   0.552   0.238 -0.1078 -0.0528  0.0959
  310SOL     OW 1237   0.402   0.538   1.874 -0.1886 -0.6766 -0.4892
  310SOL    HW1 1238   0.454   0.466   1.834  1.7952 -0.9203  2.2025
  310SOL    HW2 1239   0.454   0.616   1.847  2.0761  1.3982 -0.8387
  310SOL     MW 1240   0.416   0.539   1.865  0.3720 -0.4350 -0.1802
  311SOL     OW 1241   1.964   0.638   1.958 -0.1498  0.0047  0.0927
  311SOL    HW1 1242   1.916   0.668   2.032  2.0772  0.5675 -1.2582
  311SOL    HW2 1243   2.041   0.589   1.999  1.0922  1.4015  0.2600
  311SOL     MW 1244   1.968   0.635   1.973  0.3079  0.2633 -0.0635
  312SOL     OW 1245   1.714   2.455   0.139 -0.4570  0.2225  0.7003
  312SOL    HW1 1246   1.730   2.408   0.219  0.6879  1.0349  0.7280
  312SOL    HW2 1247   1.649   2.520   0.167  0.3443  0.2886 -2.1763
  312SOL     MW 1248   1.707   2.457   0.153 -0.2002  0.3384  0.3244
  313SOL     OW 1249   0.140   1.130   3.038  0.0357  0.4777  0.1086
  313SOL    HW1 1250   0.074   1.166   3.106 -0.2169  0.1772 -0.1398
  313SOL    HW2 1251   0.140   1.203   2.980  0.8439  2.6601  0.0964
  313SOL     MW 1252   0.131   1.145   3.039  0.1090  0.7260  0.0742
  314SOL     OW 1253   2.187   2.944   0.037  0.2928 -0.8618 -0.0031
  314SOL    HW1 1254   2.124   2.952  -0.040  0.2942 -0.9217 -0.0665
  314SOL    HW2 1255   2.247   3.009   0.034 -0.6602 -1.1209 -2.4876
  314SOL     MW 1256   2.187   2.953   0.026  0.1672 -0.9039 -0.3393
  315SOL     OW 1257   1.535   1.849   2.986  0.1434  0.1324  0.7107
  315SOL    HW1 1258   1.495   1.899   3.056 -0.4956  0.8911 -0.0097
  315SOL    HW2 1259   1.583   1.929   2.944 -2.8228  0.4199 -0.7517
  315SOL     MW 1260   1.536   1.866   2.990 -0.3323  0.2704  0.4227
  316SOL     OW 1261   1.202   0.646   2.698 -0.0459  0.1529 -0.3289
  316SOL    HW1 1262   1.289   0.674   2.709 -0.3703 -0.7080 -1.8275
  316SOL    HW2 1263   1.171   0.617   2.793 -0.9376 -0.4672 -0.4514
  316SOL     MW 1264   1.209   0.646   2.712 -0.2064 -0.0425 -0.5428
  317SOL     OW 1265   0.685   1.591   2.646 -0.2251  0.0979 -0.3158
  317SOL    HW1 1266   0.740   1.517   2.646  0.0068 -1.7077  0.9783
  317SOL    HW2 1267   0.698   1.629   2.556  1.7424  0.2299  3.0584
  317SOL     MW 1268   0.694   1.586   2.634  0.0650 -0.1229  0.3001
  318SOL     OW 1269   1.360   0.378   2.924  0.3441  0.1268 -0.8267
  318SOL    HW1 1270   1.274   0.397   2.879 -2.0587 -0.0818 -0.4391
  318SOL    HW2 1271   1.420   0.447   2.888  2.8178  0.0960 -2.7022
  318SOL     MW 1272   1.357   0.390   2.913  0.3534  0.0952 -1.0230
  319SOL     OW 1273   0.789   0.461   2.832 -0.1118  0.9841  0.2725
  319SOL    HW1 1274   0.778   0.392   2.764 -0.6038 -0.2478 -1.4442
  319SOL    HW2 1275   0.743   0.434   2.913  1.8476 -0.9342 -4.0740
  319SOL     MW 1276   0.781   0.449   2.834  0.0818  0.5685 -0.5275
  320SOL     OW 1277   1.047   1.326   1.987 -0.2848 -0.5719  0.4171
  320SOL    HW1 1278   1.117   1.262   1.989  0.1874  2.8420  0.3558
  320SOL    HW2 1279   1.091   1.404   1.948  0.2765 -0.8999  0.8023
  320SOL     MW 1280   1.062   1.328   1.982 -0.1484 -0.1647  0.4598
  321SOL     OW 1281   1.069   0.874   3.051 -0.0756 -0.5297 -0.2983
  321SOL    HW1 1282   0.995   0.852   2.990 -3.0989  0.0904  1.4094
  321SOL    HW2 1283   1.136   0.803   3.033 -0.5109  0.5467  3.0517
  321SOL     MW 1284   1.068   0.861   3.041 -0.5319 -0.3058  0.3690
  322SOL     OW 1285   1.255   0.850   1.656 -0.1235  0.3910  0.1656
  322SOL    HW1 1286   1.278   0.767   1.692 -1.0574  1.5130 -1.5228
  322SOL    HW2 1287   1.205   0.890   1.728  1.5092  0.7889 -0.0668
  322SOL     MW 1288   1.251   0.844   1.670 -0.0313  0.5915 -0.0879
  323SOL     OW 1289   1.224   1.533   1.907 -0.2668 -0.3177 -0.2099
  323SOL    HW1 1290   1.264   1.520   1.820 -2.9748 -0.0621 -1.5871
  323SOL    HW2 1291   1.171   1.611   1.894  0.6637  1.6648  2.4193
  323SOL     MW 1292   1.222   1.542   1.894 -0.5014 -0.0224 -0.0447
  324SOL     OW 1293   1.433   0.994   2.519 -0.5339 -0.5484  0.5844
  324SOL    HW1 1294   1.373   1.045   2.574  3.3916 -1.4124 -2.7237
  324SOL    HW2 1295   1.525   1.030   2.516  0.4782 -0.1362  1.9709
  324SOL     MW 1296   1.437   1.005   2.526  0.1175 -0.6080  0.3309
  325SOL     OW 1297   1.041   0.532   2.909  0.3541  0.0003  0.4283
  325SOL    HW1 1298   1.005   0.609   2.950  1.5784 -0.2384 -2.0747
  325SOL    HW2 1299   0.957   0.492   2.875 -2.3673  0.6164 -0.1546
  325SOL     MW 1300   1.025   0.537   2.910  0.1566  0.0501  0.0212
  326SOL     OW 1301   0.379   1.386   2.301  0.2575 -0.4245  0.8727
  326SOL    HW1 1302   0.446   1.351   2.240  0.1412  0.0353 -0.7514
  326SOL    HW2 1303   0.380   1.481   2.282 -1.8824  3.5633  1.1972
  326SOL     MW 1304   0.388   1.394   2.291 -0.0402  0.1623  0.7012
  327SOL     OW 1305   1.992   0.792   2.420  0.1176 -0.2070 -0.0584
  327SOL    HW1 1306   1.932   0.749   2.481  1.9587 -1.9155 -1.2023
  327SOL    HW2 1307   2.018   0.876   2.462 -0.3681 -1.6407  2.1881
  327SOL     MW 1308   1.987   0.798   2.434  0.2964 -0.6216  0.0870
  328SOL     OW 1309   0.219   1.311   2.098 -0.1581  0.5842  0.5683
  328SOL    HW1 1310   0.140   1.256   2.119 -3.0625  1.1977 -1.1771
  328SOL    HW2 1311   0.269   1.335   2.173  0.8531  1.4244 -0.3880
  328SOL     MW 1312   0.215   1.307   2.111 -0.4079  0.7760  0.2118
  329SOL     OW 1313   0.058   0.113   1.368  0.4335 -0.4538 -0.5741
  329SOL    HW1 1314   0.040   0.112   1.463 -0.0273  2.8955  1.9863
  329SOL    HW2 1315   0.148   0.156   1.360 -2.2549 -0.7927  2.1380
  329SOL     MW 1316   0.067   0.118   1.379  0.0180 -0.0566  0.1216
  330SOL     OW 1317   0.386   0.041   2.021 -0.0582  0.9816 -0.6488
  330SOL    HW1 1318   0.438   0.041   2.103 -2.3231  1.4132  0.9340
  330SOL    HW2 1319   0.325  -0.035   2.039  1.3350 -0.7230 -0.3531
  330SOL     MW 1320   0.385   0.031   2.034 -0.1732  0.8137 -0.4009
  331SOL     OW 1321   0.776   1.263   2.380 -0.1078  0.2378 -0.0742
  331SOL    HW1 1322   0.721   1.307   2.321 -1.4376 -1.8314  1.8267
  331SOL    HW2 1323   0.781   1.300   2.470 -1.0290  1.9110 -1.4356
  331SOL     MW 1324   0.769   1.274   2.384 -0.4048  0.1856 -0.0030
  332SOL     OW 1325   1.368   1.647   2.932 -0.0119  0.1419  0.0374
  332SOL    HW1 1326   1.378   1.645   2.834 -0.1331  1.5634 -2.1642
  332SOL    HW2 1327   1.424   1.723   2.962 -2.2531 -0.1228  0.9437
  332SOL     MW 1328   1.376   1.657   2.923 -0.3236  0.2946 -0.1335
  333SOL     OW 1329   1.669   1.345   2.916  0.2282  0.6623 -0.1478
  333SOL    HW1 1330   1.766   1.358   2.905 -0.3929 -1.1625  0.3542
  333SOL    HW2 1331   1.660   1.285   2.988  3.2147 -0.2391  2.4779
  333SOL     MW 1332   1.681   1.339   2.924  0.5403  0.3026  0.2649
  334SOL     OW 1333   1.332   3.094   2.628  0.5263 -0.1113  0.0821
  334SOL    HW1 1334   1.254   3.062   2.686  0.0213 -0.8079  0.2062
  334SOL    HW2 1335   1.400   3.133   2.683 -0.6005 -1.2534 -0.7765
  334SOL     MW 1336   1.331   3.095   2.643  0.3110 -0.3539 -0.0148
  335SOL     OW 1337   1.287   0.725   3.001 -0.5357  0.7340  0.0712
  335SOL    HW1 1338   1.341   0.672   3.064 -0.6922 -4.9240  0.1799
  335SOL    HW2 1339   1.341   0.777   2.941 -3.0845 -2.7946  1.4068
  335SOL     MW 1340   1.301   0.725   3.001 -0.8926 -0.4781  0.2618
  336SOL     OW 1341   0.934   1.171   1.718 -0.3694 -0.2807  0.1402
  336SOL    HW1 1342   0.886   1.234   1.764 -1.3627  1.5529 -1.4167
  336SOL    HW2 1343   0.955   1.096   1.778 -2.5742 -1.1831 -1.6400
  336SOL     MW 1344   0.931   1.170   1.732 -0.7914 -0.1578 -0.3001
  337SOL     OW 1345   0.495   1.948   2.780 -0.5057  0.3803 -0.3150
  337SOL    HW1 1346   0.435   1.882   2.741  0.0056  0.0796 -1.0330
  337SOL    HW2 1347   0.582   1.900   2.785  0.5315 -0.1589 -0.0239
  337SOL     MW 1348   0.499   1.933   2.776 -0.3014  0.2695 -0.3713
  338SOL     OW 1349   1.061   0.785   2.451 -0.3504  0.1304  0.2081
  338SOL    HW1 1350   0.990   0.716   2.459  0.5716 -0.4240 -0.6086
  338SOL    HW2 1351   1.115   0.758   2.523 -1.2252  1.1921 -1.8112
  338SOL     MW 1352   1.058   0.772   2.462 -0.3442  0.1973 -0.1660
  339SOL     OW 1353   1.411   1.232   1.902 -0.1218  0.6037  0.5267
  339SOL    HW1 1354   1.432   1.173   1.833 -1.4746  0.0325  0.4431
  339SOL    HW2 1355   1.335   1.197   1.948 -2.0745  0.4968 -0.8039
  339SOL     MW 1356   1.404   1.220   1.899 -0.5579  0.5142  0.3401
  340SOL     OW 1357   1.291   1.493   0.068  0.4452 -0.4927  0.3381
  340SOL    HW1 1358   1.293   1.534  -0.023 -1.9454  0.4967 -0.4866
  340SOL    HW2 1359   1.374   1.455   0.077 -1.8238 -2.2962 -3.9987
  340SOL     MW 1360   1.302   1.493   0.057 -0.1696 -0.6001 -0.3429
  341SOL     OW 1361   0.135   1.364   2.787  0.1746 -0.1216  0.0227
  341SOL    HW1 1362   0.225   1.371   2.814 -3.7715 -0.2359  1.0937
  341SOL    HW2 1363   0.148   1.348   2.694  0.8765 -0.4604 -1.1227
  341SOL     MW 1364   0.149   1.363   2.778 -0.2534 -0.1814  0.0129
  342SOL     OW 1365   1.429   0.337   0.076 -0.8042  0.3789 -0.2395
  342SOL    HW1 1366   1.457   0.408   0.141  2.2309 -1.6010  0.4192
  342SOL    HW2 1367   1.411   0.378  -0.007  0.8045 -1.1242 -1.4022
  342SOL     MW 1368   1.430   0.352   0.074 -0.1915 -0.0807 -0.3060
  343SOL     OW 1369   0.237   0.243   2.146  0.1705 -0.8586 -0.3710
  343SOL    HW1 1370   0.258   0.168   2.095 -0.7187 -2.9466  0.9158
  343SOL    HW2 1371   0.140   0.248   2.143 -0.5298  0.2088  2.2585
  343SOL     MW 1372   0.227   0.233   2.139 -0.0392 -0.9932  0.1457
  344SOL     OW 1373   1.697   1.983   0.128  0.4733  0.1917  0.5067
  344SOL    HW1 1374   1.750   2.064   0.097 -2.0174  1.0333  4.4805
  344SOL    HW2 1375   1.618   1.973   0.078 -2.8519 -1.6370 -2.4120
  344SOL     MW 1376   1.694   1.992   0.117 -0.2941  0.0615  0.6459
  345SOL     OW 1377   0.694   1.644   2.374 -0.1251  0.4003 -0.0810
  345SOL    HW1 1378   0.616   1.678   2.330  0.8296 -0.1056  1.1716
  345SOL    HW2 1379   0.748   1.607   2.304 -1.2659 -1.4551 -1.7183
  345SOL     MW 1380   0.691   1.644   2.359 -0.1496  0.0887 -0.1318
  346SOL     OW 1381   1.648   1.110   0.033  0.2794  0.2893  0.2940
  346SOL    HW1 1382   1.741   1.099   0.042 -0.5453  1.7761 -4.7290
  346SOL    HW2 1383   1.600   1.056   0.096 -0.4775 -1.2273 -0.0324
  346SOL     MW 1384   1.654   1.101   0.042  0.0707  0.2854 -0.4118
  347SOL     OW 1385   1.160   0.620   2.225  0.1922 -0.2963 -0.4268
  347SOL    HW1 1386   1.192   0.538   2.259  0.7513 -2.6807  0.6579
  347SOL    HW2 1387   1.132   0.680   2.296  0.1178 -0.4153  0.1069
  347SOL     MW 1388   1.160   0.617   2.239  0.2562 -0.6266 -0.2132
  348SOL     OW 1389   1.336   2.537   1.919  0.0144  0.0040  0.0597
  348SOL    HW1 1390   1.328   2.472   1.996  0.6640  0.0048 -2.0406
  348SOL    HW2 1391   1.349   2.626   1.959 -0.5987 -2.4762 -0.3706
  348SOL     MW 1392   1.336   2.540   1.934  0.0192 -0.3232 -0.2742
  349SOL     OW 1393   1.480   0.152   2.783 -0.2613 -0.0873 -0.1282
  349SOL    HW1 1394   1.436   0.195   2.852  1.5384  0.8376  0.3826
  349SOL    HW2 1395   1.542   0.078   2.808  1.7030  0.5132 -0.2756
  349SOL     MW 1396   1.482   0.148   2.796  0.2353  0.1139 -0.0803
  350SOL     OW 1397   1.818   0.657   2.636 -0.2984 -0.0301  0.0976
  350SOL    HW1 1398   1.756   0.593   2.595  0.2253  1.2277  1.5687
  350SOL    HW2 1399   1.908   0.617   2.647  1.1703 -2.2269  2.2698
  350SOL     MW 1400   1.821   0.643   2.632 -0.0355 -0.1540  0.5783
  351SOL     OW 1401   0.087   1.147   1.595 -0.2744  0.1803 -0.9169
  351SOL    HW1 1402   0.010   1.118   1.648 -0.1058  2.1012  1.1888
  351SOL    HW2 1403   0.138   1.203   1.650 -1.4741  0.5103 -2.2187
  351SOL     MW 1404   0.084   1.150   1.609 -0.4105  0.4773 -0.8108
  352SOL     OW 1405   0.754   1.805   2.784 -0.2801  0.6488 -0.1766
  352SOL    HW1 1406   0.789   1.774   2.872  1.8058  4.0527 -0.7284
  352SOL    HW2 1407   0.748   1.730   2.728  1.0562 -0.3955  0.0152
  352SOL     MW 1408   0.758   1.791   2.788  0.1714  0.9602 -0.2241
  353SOL     OW 1409   0.020   2.574   2.646 -0.2382  0.1850 -0.6394
  353SOL    HW1 1410   0.109   2.534   2.633 -1.0263  0.2633  1.3655
  353SOL    HW2 1411   0.013   2.644   2.580 -0.1220  1.7022  1.2010
  353SOL     MW 1412   0.031   2.578   2.636 -0.3268  0.3955 -0.1321
  354SOL     OW 1413   0.379   2.424   0.873  0.0334 -0.1010 -0.6037
  354SOL    HW1 1414   0.416   2.395   0.952  0.9875 -0.8718 -3.1894
  354SOL    HW2 1415   0.318   2.361   0.855  2.0332 -1.5220 -0.8128
  354SOL     MW 1416   0.376   2.412   0.881  0.4231 -0.3902 -0.9725
  355SOL     OW 1417   0.049   2.197   0.393  0.6667  0.7816 -0.0088
  355SOL    HW1 1418  -0.024   2.133   0.395 -0.3482 -1.6555  1.0124
  355SOL    HW2 1419   0.045   2.226   0.482  0.7388  1.4948  0.0018
  355SOL     MW 1420   0.039   2.192   0.405  0.5423  0.5541  0.1273
  356SOL     OW 1421   0.750   2.955   1.063 -0.4469  0.6525 -0.0483
  356SOL    HW1 1422   0.805   2.948   0.981 -0.8935  3.1306 -1.1669
  356SOL    HW2 1423   0.678   2.899   1.037  0.3154 -0.8802 -1.0400
  356SOL     MW 1424   0.748   2.947   1.049 -0.4053  0.7772 -0.3268
  357SOL     OW 1425   1.840   2.813   0.461  0.1003 -0.1327 -0.4222
  357SOL    HW1 1426   1.833   2.788   0.554  0.7299 -0.9191 -0.9896
  357SOL    HW2 1427   1.914   2.757   0.431 -3.2449 -1.4576  0.0788
  357SOL     MW 1428   1.849   2.802   0.470 -0.2580 -0.4113 -0.4310
  358SOL     OW 1429   0.429   0.158   1.072  0.2965 -0.2420  0.2364
  358SOL    HW1 1430   0.525   0.135   1.060 -0.1537 -0.6775 -0.3289
  358SOL    HW2 1431   0.399   0.195   0.988 -0.3793  0.6011  0.2869
  358SOL     MW 1432   0.438   0.160   1.059  0.1479 -0.1882  0.1684
  359SOL     OW 1433   0.901   2.982   1.849 -0.1882  0.3907 -0.0942
  359SOL    HW1 1434   0.898   2.888   1.849 -0.4185 -2.6590  2.2936
  359SOL    HW2 1435   0.930   3.023   1.765 -0.1936 -1.4349 -2.1305
  359SOL     MW 1436   0.905   2.975   1.838 -0.2193 -0.2526 -0.0478
  360SOL     OW 1437   0.569   2.790   0.915  0.7072  0.1670 -0.0465
  360SOL    HW1 1438   0.593   2.757   0.829 -1.9267 -0.5828  0.7998
  360SOL    HW2 1439   0.557   2.709   0.975 -0.9861  0.4139  2.1087
  360SOL     MW 1440   0.571   2.775   0.912  0.1362  0.1007  0.3495
  361SOL     OW 1441   0.238   2.705   1.358 -0.9142 -0.0940 -0.3832
  361SOL    HW1 1442   0.174   2.734   1.418  2.8187  0.8181 -1.3484
  361SOL    HW2 1443   0.288   2.792   1.353  0.9259  1.4268  3.0175
  361SOL     MW 1444   0.236   2.720   1.365 -0.1789  0.2270 -0.0619
  362SOL     OW 1445   1.368   2.423   0.607  0.1372 -0.0605  0.0122
  362SOL    HW1 1446   1.425   2.396   0.676  1.7424 -0.1681  0.5683
  362SOL    HW2 1447   1.400   2.512   0.588 -0.5166 -0.0982  0.5528
  362SOL     MW 1448   1.380   2.431   0.614  0.2627 -0.0797  0.1569
  363SOL     OW 1449   0.329   3.100   0.676 -1.1218  0.2252  0.4208
  363SOL    HW1 1450   0.323   3.027   0.744  1.4738 -0.9665  2.1640
  363SOL    HW2 1451   0.241   3.102   0.631 -0.4475 -1.7669 -2.8608
  363SOL     MW 1452   0.316   3.091   0.679 -0.6904 -0.1949  0.2179
  364SOL     OW 1453   0.800   0.205   0.123 -0.1189 -0.2885 -0.0157
  364SOL    HW1 1454   0.759   0.147   0.186 -0.5247 -1.6953  1.6611
  364SOL    HW2 1455   0.744   0.273   0.092  1.6392 -2.9651 -2.6153
  364SOL     MW 1456   0.787   0.206   0.127  0.0595 -0.8273 -0.1374
  365SOL     OW 1457   0.880   2.000   1.213 -0.1760  0.4898  0.4549
  365SOL    HW1 1458   0.845   2.076   1.167  1.4667 -0.9977  2.7179
  365SOL    HW2 1459   0.856   1.921   1.156  0.8807  1.9915  0.2269
  365SOL     MW 1460   0.872   2.000   1.199  0.1801  0.4917  0.7234
  366SOL     OW 1461   2.938   2.643   0.951  0.1112  0.4370 -0.5264
  366SOL    HW1 1462   2.992   2.632   1.034 -2.2538  0.2155  0.9981
  366SOL    HW2 1463   2.995   2.680   0.884 -1.2829 -2.1817  0.0558
  366SOL     MW 1464   2.953   2.646   0.953 -0.3848  0.0623 -0.2485
  367SOL     OW 1465   1.204   2.983   0.991  0.7875  0.5960  0.6299
  367SOL    HW1 1466   1.278   3.022   0.946 -1.9371 -1.2512  0.4719
  367SOL    HW2 1467   1.170   2.930   0.922  0.9493 -0.1608 -2.4663
  367SOL     MW 1468   1.209   2.981   0.976  0.4494  0.2525  0.2005
  368SOL     OW 1469   1.725   0.425   0.640 -0.1859  0.4696 -0.1599
  368SOL    HW1 1470   1.772   0.369   0.581 -1.0561 -0.3915  0.6476
  368SOL    HW2 1471   1.753   0.516   0.625 -0.8543  1.1563 -0.1994
  368SOL     MW 1472   1.735   0.429   0.630 -0.3889  0.4466 -0.0586
  369SOL     OW 1473   0.152   2.394   1.766 -0.1420  0.4214 -0.8087
  369SOL    HW1 1474   0.250   2.405   1.762  3.7169  1.2774 -2.2060
  369SOL    HW2 1475   0.125   2.491   1.758 -1.3322 -0.3970 -1.0233
  369SOL     MW 1476   0.161   2.408   1.764  0.2101  0.4263 -1.0214
  370SOL     OW 1477   0.724   0.141   1.050 -0.7878 -1.0343 -0.3672
  370SOL    HW1 1478   0.787   0.188   0.990 -1.2421  0.5850 -0.5889
  370SOL    HW2 1479   0.756   0.044   1.055  0.6327 -1.5883  1.8930
  370SOL     MW 1480   0.736   0.135   1.043 -0.6603 -0.8937 -0.0982
  371SOL     OW 1481   1.177   2.881   1.473 -0.5094  0.6299 -0.2936
  371SOL    HW1 1482   1.197   2.789   1.459  0.0267 -0.1055  2.2295
  371SOL    HW2 1483   1.152   2.909   1.384 -0.2895 -0.2197 -0.5609
  371SOL     MW 1484   1.176   2.872   1.459 -0.4096  0.4208  0.0040
  372SOL     OW 1485   0.802   2.328   0.496  0.3651  0.8523 -0.3221
  372SOL    HW1 1486   0.789   2.235   0.528 -0.8616 -0.6296 -2.4541
  372SOL    HW2 1487   0.836   2.308   0.408  2.5971 -1.4052  1.0785
  372SOL     MW 1488   0.805   2.313   0.488  0.4977  0.3590 -0.4186
  373SOL     OW 1489   2.856   3.001   1.415  0.3170  0.4000 -0.2998
  373SOL    HW1 1490   2.921   2.961   1.355  0.7769 -2.2372 -1.6080
  373SOL    HW2 1491   2.819   3.066   1.360 -0.7214  0.1093  2.3219
  373SOL     MW 1492   2.859   3.004   1.400  0.2406  0.0137 -0.1265
  374SOL     OW 1493   1.595   0.457   0.286  0.2043  0.4376 -0.0672
  374SOL    HW1 1494   1.666   0.391   0.276  2.3474 -1.9066 -1.9730
  374SOL    HW2 1495   1.543   0.423   0.359  0.0088  0.8958  1.1830
  374SOL     MW 1496   1.598   0.444   0.295  0.4613  0.1888 -0.1537
  375SOL     OW 1497   1.031   2.125   2.274  0.6220 -0.6568 -0.1878
  375SOL    HW1 1498   1.077   2.087   2.346 -0.8058  1.2969 -1.5664
  375SOL    HW2 1499   0.985   2.052   2.231 -0.2851 -1.0330  3.3934
  375SOL     MW 1500   1.031   2.110   2.278  0.3140 -0.4487  0.1028
  376SOL     OW 1501   0.779   2.498   0.118  0.4569  0.3395  0.4723
  376SOL    HW1 1502   0.723   2.440   0.164  0.5050  0.3261  0.4351
  376SOL    HW2 1503   0.769   2.471   0.028  0.4450 -0.2398 -0.1550
  376SOL     MW 1504   0.770   2.487   0.112  0.4617  0.2613  0.3846
  377SOL     OW 1505   1.344   2.051   0.933  0.6164  0.3692 -0.0997
  377SOL    HW1 1506   1.265   2.059   0.886 -0.1893  0.5641  0.6087
  377SOL    HW2 1507   1.312   2.015   1.018  1.6616 -0.5987  0.1530
  377SOL     MW 1508   1.330   2.048   0.938  0.6480  0.2672  0.0271
  378SOL     OW 1509   0.888   2.849   1.527 -0.6553 -0.1405  0.0630
  378SOL    HW1 1510   0.921   2.766   1.560  1.8233  4.2794  0.6744
  378SOL    HW2 1511   0.965   2.906   1.520  2.3155 -2.0336  2.5107
  378SOL     MW 1512   0.903   2.845   1.531  0.0637  0.1929  0.4666
  379SOL     OW 1513   1.095   1.614   2.235 -0.4874 -0.1834  0.3054
  379SOL    HW1 1514   1.023   1.560   2.205  0.3452 -1.0809  3.4736
  379SOL    HW2 1515   1.169   1.556   2.250 -1.4238 -2.3905  1.9991
  379SOL     MW 1516   1.095   1.599   2.233 -0.5011 -0.5930  0.9469
  380SOL     OW 1517   0.883   0.105   1.440  0.5061 -0.0851  0.4710
  380SOL    HW1 1518   0.917   0.049   1.375 -1.4352 -0.1064  3.0603
  380SOL    HW2 1519   0.954   0.101   1.510 -0.0051 -0.2215  0.9767
  380SOL     MW 1520   0.897   0.097   1.441  0.1825 -0.1059  0.8793
  381SOL     OW 1521   0.810   2.047   0.844 -0.2797  0.4445  0.7273
  381SOL    HW1 1522   0.905   2.046   0.848  1.3986 -0.5683  1.9894
  381SOL    HW2 1523   0.783   2.116   0.906  2.6030 -1.1634 -0.4096
  381SOL     MW 1524   0.819   2.056   0.853  0.3221  0.0988  0.7438
  382SOL     OW 1525   0.836   0.152   0.612  0.1714 -0.0335 -0.8768
  382SOL    HW1 1526   0.810   0.212   0.686  1.0043  1.1856  1.6102
  382SOL    HW2 1527   0.765   0.082   0.610  1.3063 -1.8424  1.4455
  382SOL     MW 1528   0.823   0.151   0.622  0.4311 -0.1113 -0.2422
  383SOL     OW 1529   0.618   0.043   0.330  0.4210 -0.9817  0.0371
  383SOL    HW1 1530   0.638  -0.022   0.265 -0.4668  0.2129  0.6507
  383SOL    HW2 1531   0.552   0.009   0.390  1.0360 -0.5052 -0.0104
  383SOL     MW 1532   0.612   0.030   0.330  0.3850 -0.7612  0.1118
  384SOL     OW 1533   0.748   2.979   0.639  0.2075  0.0949 -0.3661
  384SOL    HW1 1534   0.801   2.971   0.722 -0.4764  0.7565 -4.1590
  384SOL    HW2 1535   0.663   2.935   0.651 -0.5401 -0.1802 -0.7151
  384SOL     MW 1536   0.744   2.972   0.651  0.0186  0.1459 -0.9126
  385SOL     OW 1537   1.357   2.082   1.531 -0.6618  0.2027 -0.2532
  385SOL    HW1 1538   1.428   2.126   1.577 -0.9925 -3.3382  0.4460
  385SOL    HW2 1539   1.355   1.995   1.572 -1.1579  2.4630  0.4583
  385SOL     MW 1540   1.366   2.076   1.542 -0.7709  0.0337 -0.0670
  386SOL     OW 1541   1.454   0.424   0.906  0.4400  0.7294 -0.0495
  386SOL    HW1 1542   1.405   0.474   0.970  0.8541  2.5014 -1.1251
  386SOL    HW2 1543   1.546   0.442   0.931 -0.3043 -0.9807  0.8262
  386SOL     MW 1544   1.460   0.433   0.918  0.3964  0.7375 -0.0759
  387SOL     OW 1545   0.797   2.209   1.585 -0.1357  0.6592  0.5610
  387SOL    HW1 1546   0.859   2.238   1.519 -1.5466 -2.4111  2.6981
  387SOL    HW2 1547   0.792   2.110   1.573 -1.5300  0.6156  0.1164
  387SOL     MW 1548   0.804   2.200   1.574 -0.5058  0.2484  0.7843
  388SOL     OW 1549   1.476   2.751   1.382  0.3824 -0.4024  1.1161
  388SOL    HW1 1550   1.423   2.829   1.346 -3.1138 -0.7516  1.9729
  388SOL    HW2 1551   1.453   2.681   1.318 -0.8759  1.6505  0.4423
  388SOL     MW 1552   1.466   2.752   1.369 -0.2449 -0.1776  1.1403
  389SOL     OW 1553   0.513   0.140   3.069 -0.4784 -0.0974 -0.0022
  389SOL    HW1 1554   0.595   0.087   3.066  0.2888 -0.6753 -0.7961
  389SOL    HW2 1555   0.507   0.172   2.979 -2.4876  0.0586 -3.0862
  389SOL     MW 1556   0.523   0.137   3.057 -0.6423 -0.1531 -0.5138
  390SOL     OW 1557   1.370   0.033   0.753 -0.1945 -0.0361  0.2546
  390SOL    HW1 1558   1.382   0.017   0.658  0.2552 -0.7586 -1.8152
  390SOL    HW2 1559   1.455   0.067   0.766  1.2652 -0.1605 -1.4366
  390SOL     MW 1560   1.383   0.035   0.742  0.0575 -0.1479 -0.2416
  391SOL     OW 1561   0.346   2.181   1.507 -0.3656 -0.0351 -0.4216
  391SOL    HW1 1562   0.358   2.177   1.605  2.4548  0.8032  0.7072
  391SOL    HW2 1563   0.313   2.271   1.494 -0.5118  0.5808  0.4649
  391SOL     MW 1564   0.343   2.193   1.518 -0.0128  0.1568 -0.1557
  392SOL     OW 1565   1.959   2.229   0.320 -0.2813 -0.1969 -0.1115
  392SOL    HW1 1566   2.037   2.279   0.351 -1.0697 -1.6895  2.1376
  392SOL    HW2 1567   1.886   2.283   0.347  1.0284 -0.6560 -0.6980
  392SOL     MW 1568   1.960   2.243   0.328 -0.2125 -0.4544  0.1078
  393SOL     OW 1569   0.255   2.976   2.867 -0.2259 -0.1733 -0.1541
  393SOL    HW1 1570   0.333   2.947   2.823 -0.7141 -1.4280 -0.2504
  393SOL    HW2 1571   0.237   3.074   2.858  3.3375  0.7164 -0.7309
  393SOL     MW 1572   0.262   2.985   2.860  0.1798 -0.2215 -0.2429
  394SOL     OW 1573   1.050   1.774   1.502 -0.0448  0.5214  0.0014
  394SOL    HW1 1574   1.058   1.779   1.600 -0.4695 -0.7514  2.1590
  394SOL    HW2 1575   0.970   1.817   1.479  0.5570 -1.0616 -1.0405
  394SOL     MW 1576   1.041   1.780   1.512 -0.0214  0.1446  0.1486
  395SOL     OW 1577   0.914   2.952   2.687 -0.0535 -0.2461  1.0331
  395SOL    HW1 1578   0.970   2.997   2.761  0.1243  1.7200  3.0702
  395SOL    HW2 1579   0.974   2.882   2.651  0.9478  0.2499  0.7645
  395SOL     MW 1580   0.929   2.948   2.692  0.1021  0.0788  1.2665
  396SOL     OW 1581   0.750   1.894   2.372  0.4797  0.2227 -0.8845
  396SOL    HW1 1582   0.807   1.916   2.446  1.6501  0.4317  2.1470
  396SOL    HW2 1583   0.738   1.798   2.368 -1.0888  0.1271 -3.5685
  396SOL     MW 1584   0.756   1.885   2.381  0.4272  0.2376 -0.8387
  397SOL     OW 1585   0.968   2.303   1.380  0.5205  0.3862  0.0780
  397SOL    HW1 1586   0.996   2.323   1.293 -3.6991  1.9260 -0.0413
  397SOL    HW2 1587   1.048   2.292   1.431  3.2850 -1.2635  1.9111
  397SOL     MW 1588   0.983   2.304   1.376  0.3285  0.3717  0.3041
  398SOL     OW 1589   0.626   2.717   0.635  0.2777 -0.0455  0.5435
  398SOL    HW1 1590   0.580   2.680   0.559  0.8649  1.5289  2.2263
  398SOL    HW2 1591   0.712   2.667   0.642  0.1855 -2.1111 -3.7235
  398SOL     MW 1592   0.631   2.706   0.626  0.3430 -0.1103  0.2025
  399SOL     OW 1593   0.313   2.096   0.338  0.5421  0.0245  0.7941
  399SOL    HW1 1594   0.221   2.131   0.340  0.7423  0.0976 -0.5944
  399SOL    HW2 1595   0.351   2.117   0.255  1.4031  0.7248 -0.0455
  399SOL     MW 1596   0.306   2.104   0.327  0.6821  0.1265  0.5001
  400SOL     OW 1597   0.608   1.903   0.080 -0.2295  0.1054 -0.2063
  400SOL    HW1 1598   0.565   1.991   0.101  1.8334 -1.2391 -3.1868
  400SOL    HW2 1599   0.622   1.850   0.158  0.4638  1.2018 -0.4712
  400SOL     MW 1600   0.604   1.908   0.093  0.1342  0.0727 -0.6345
  401SOL     OW 1601   0.823   2.074   0.040  0.3180  0.3758 -0.4309
  401SOL    HW1 1602   0.905   2.017   0.034  0.2022  0.2302 -0.2118
  401SOL    HW2 1603   0.750   2.010   0.032 -0.1368 -1.1052  1.5051
  401SOL     MW 1604   0.824   2.058   0.038  0.2427  0.1612 -0.1466
  402SOL     OW 1605   0.553   3.010   1.745  0.1816  0.1187  0.4814
  402SOL    HW1 1606   0.636   2.980   1.786  0.4355  1.5238  1.1292
  402SOL    HW2 1607   0.571   3.096   1.715  0.9324  0.8495  2.2930
  402SOL     MW 1608   0.566   3.017   1.746  0.3141  0.4005  0.8059
  403SOL     OW 1609   0.137   0.521   0.398  0.3215  0.1338 -0.2785
  403SOL    HW1 1610   0.226   0.546   0.433  3.1412  1.1599  0.4746
  403SOL    HW2 1611   0.141   0.509   0.300  1.1608  0.3386  1.6158
  403SOL     MW 1612   0.150   0.522   0.390  0.8043  0.2962  0.0708
  404SOL     OW 1613   0.945   2.931   0.851 -0.4675  0.5275  0.0945
  404SOL    HW1 1614   0.992   2.859   0.818  1.3297  2.1668  0.6957
  404SOL    HW2 1615   0.986   2.999   0.803 -0.4481  0.5139 -0.1562
  404SOL     MW 1616   0.957   2.930   0.841 -0.2278  0.7420  0.1408
  405SOL     OW 1617   0.503   2.465   1.509  0.5008  0.1608  0.1900
  405SOL    HW1 1618   0.497   2.513   1.431  0.3186  0.0806  0.3753
  405SOL    HW2 1619   0.533   2.379   1.482 -0.8880 -3.7809  2.5939
  405SOL     MW 1620   0.506   2.460   1.495  0.2935 -0.3698  0.5316
  406SOL     OW 1621   0.408   2.357   1.127  0.2442  0.0876 -0.4000
  406SOL    HW1 1622   0.320   2.373   1.165 -1.3352 -0.4822 -1.2606
  406SOL    HW2 1623   0.436   2.276   1.174 -2.3169 -0.2824 -1.7056
  406SOL     MW 1624   0.400   2.349   1.138 -0.3021 -0.0364 -0.6858
  407SOL     OW 1625   0.045   2.657   1.168  0.5054 -0.1495  0.4263
  407SOL    HW1 1626   0.100   2.644   1.242 -0.6796  0.8416  2.0141
  407SOL    HW2 1627   0.113   2.671   1.101 -1.2977 -3.2147 -1.8019
  407SOL     MW 1628   0.061   2.657   1.169  0.1112 -0.4232  0.3418
  408SOL     OW 1629   2.122   2.117   0.760  0.5340 -0.1895  0.1228
  408SOL    HW1 1630   2.060   2.186   0.807 -0.4161  1.0479 -0.8465
  408SOL    HW2 1631   2.066   2.095   0.677 -3.1827  1.5980 -0.9148
  408SOL     MW 1632   2.106   2.124   0.755 -0.0818  0.2096 -0.1420
  409SOL     OW 1633   1.622   0.137   0.838  0.1752 -0.7318 -0.6666
  409SOL    HW1 1634   1.641   0.229   0.835  1.5922 -0.1494  2.0199
  409SOL    HW2 1635   1.582   0.127   0.922  0.8109  2.3713 -1.0272
  409SOL     MW 1636   1.619   0.148   0.849  0.4461 -0.2455 -0.3597
  410SOL     OW 1637   1.085   2.410   1.150  0.1400  0.0962 -0.2047
  410SOL    HW1 1638   1.026   2.466   1.103 -0.0046 -0.3253  0.0281
  410SOL    HW2 1639   1.139   2.368   1.083 -1.1434  1.6292  0.0651
  410SOL     MW 1640   1.084   2.412   1.135 -0.0484  0.2428 -0.1384
  411SOL     OW 1641   2.009   2.949   2.908 -0.0575 -0.0931 -0.2488
  411SOL    HW1 1642   2.015   2.911   2.820  0.2296  0.9008 -1.5017
  411SOL    HW2 1643   1.992   3.042   2.894 -0.9626 -0.5590  1.5688
  411SOL     MW 1644   2.008   2.956   2.894 -0.1390 -0.0234 -0.1743
  412SOL     OW 1645   1.038   2.221   0.602  0.5673 -0.0574 -0.3297
  412SOL    HW1 1646   1.074   2.311   0.613 -1.4446  2.4877 -0.4358
  412SOL    HW2 1647   0.948   2.242   0.571 -1.2573  1.5950  1.2403
  412SOL     MW 1648   1.031   2.236   0.599  0.0611  0.4964 -0.1366
  413SOL     OW 1649   0.593   2.717   0.095  0.4343 -0.1326 -0.8080
  413SOL    HW1 1650   0.675   2.657   0.111 -0.6250 -2.1450 -1.2011
  413SOL    HW2 1651   0.609   2.739   0.005  0.4681 -2.9741  0.8007
  413SOL     MW 1652   0.606   2.712   0.085  0.2990 -0.7730 -0.6476
  414SOL     OW 1653   1.992   3.037   1.083  0.4456 -0.1155 -0.5426
  414SOL    HW1 1654   1.984   3.120   1.129  0.6013 -1.1829 -0.5272
  414SOL    HW2 1655   2.019   3.051   0.989 -4.3305 -0.0463 -4.0199
  414SOL     MW 1656   1.995   3.049   1.077 -0.1640 -0.2472 -0.9994
  415SOL     OW 1657   1.622   2.824   1.119 -0.3511 -0.4775 -0.3461
  415SOL    HW1 1658   1.656   2.794   1.203  0.2279  1.3557  0.3651
  415SOL    HW2 1659   1.699   2.821   1.062 -1.1190  1.4010 -0.5227
  415SOL     MW 1660   1.636   2.820   1.123 -0.3760  0.0122 -0.2756
  416SOL     OW 1661   0.610   1.701   1.503  0.8467 -0.1530 -0.5988
  416SOL    HW1 1662   0.535   1.697   1.451 -0.9725  0.0600 -0.8588
  416SOL    HW2 1663   0.672   1.655   1.445 -4.1234 -2.4587 -2.0222
  416SOL     MW 1664   0.608   1.694   1.488 -0.0491 -0.4291 -0.8209
  417SOL     OW 1665   0.989   0.011   2.085 -0.7050  0.0957  0.7528
  417SOL    HW1 1666   0.922   0.026   2.152 -1.5951  0.0239 -0.3802
  417SOL    HW2 1667   0.944  -0.028   2.011  2.6940 -0.3946  0.7957
  417SOL     MW 1668   0.974   0.008   2.084 -0.3740  0.0215  0.6090
  418SOL     OW 1669   0.751   2.953   0.136 -0.5212 -0.6798  0.2527
  418SOL    HW1 1670   0.834   2.921   0.095 -0.7584 -1.1381  0.3368
  418SOL    HW2 1671   0.686   2.879   0.126 -0.7706 -1.0692 -0.9754
  418SOL     MW 1672   0.753   2.939   0.129 -0.5854 -0.7917  0.1018
  419SOL     OW 1673   0.588   2.679   1.354  0.5411 -0.1780 -0.1718
  419SOL    HW1 1674   0.606   2.769   1.394 -0.4326  1.6961  0.1370
  419SOL    HW2 1675   0.668   2.631   1.381  1.5406 -1.4795  2.8130
  419SOL     MW 1676   0.601   2.685   1.363  0.5445 -0.1024  0.2627
  420SOL     OW 1677   0.795   2.251   1.031  0.1954 -0.3224 -0.0406
  420SOL    HW1 1678   0.719   2.277   1.080  1.4866 -1.3362  2.2854
  420SOL    HW2 1679   0.838   2.333   1.002 -2.1462 -1.5847 -0.7158
  420SOL     MW 1680   0.790   2.265   1.034  0.0568 -0.6228  0.1772
  421SOL     OW 1681   2.897   0.168   0.038 -0.0976  0.6004  0.5538
  421SOL    HW1 1682   2.809   0.134   0.018  0.8587 -0.4041  0.7138
  421SOL    HW2 1683   2.945   0.086   0.044  1.7092  2.7089  0.6781
  421SOL     MW 1684   2.891   0.152   0.036  0.2670  0.7461  0.5913
  422SOL     OW 1685   0.870   2.503   0.982  0.3089 -0.3304 -0.1821
  422SOL    HW1 1686   0.780   2.534   1.006  2.0250  1.1108 -0.7227
  422SOL    HW2 1687   0.883   2.518   0.886  2.5996  1.1036  1.9711
  422SOL     MW 1688   0.860   2.509   0.972  0.8375  0.0490  0.0307
  423SOL     OW 1689   1.466   0.068   0.472  0.4562  0.0366  0.0193
  423SOL    HW1 1690   1.510   0.051   0.384  0.7863 -0.5484 -1.7081
  423SOL    HW2 1691   1.486   0.164   0.477 -2.4670 -1.4510  1.2624
  423SOL     MW 1692   1.474   0.078   0.461  0.1140 -0.2369 -0.0446
  424SOL     OW 1693   0.643   2.266   1.372  0.2684 -0.1098 -0.2605
  424SOL    HW1 1694   0.563   2.216   1.371  1.3776  2.3519 -2.1914
  424SOL    HW2 1695   0.702   2.223   1.434 -2.7862  0.2050  0.3593
  424SOL     MW 1696   0.641   2.254   1.380  0.0117  0.2566 -0.4335
  425SOL     OW 1697   1.682   2.796   2.033  0.2359 -0.2582 -0.2258
  425SOL    HW1 1698   1.710   2.826   1.945  1.3288 -0.1438 -2.4026
  425SOL    HW2 1699   1.745   2.731   2.063  0.4280  1.3734  0.7971
  425SOL     MW 1700   1.694   2.792   2.026  0.4054 -0.0278 -0.3780
  426SOL     OW 1701   0.877   1.715   1.958 -0.0792 -0.0278  0.1864
  426SOL    HW1 1702   0.802   1.721   1.893 -2.5382 -2.2563 -0.8809
  426SOL    HW2 1703   0.868   1.796   2.005 -0.7941 -1.9593 -0.4480
  426SOL     MW 1704   0.866   1.727   1.955 -0.4979 -0.5766 -0.0381
  427SOL     OW 1705   0.392   1.722   1.887  0.4290  0.2042  0.0721
  427SOL    HW1 1706   0.425   1.658   1.826  1.0854  3.4347  3.4263
  427SOL    HW2 1707   0.327   1.681   1.939 -1.6418  0.2391  0.6501
  427SOL     MW 1708   0.388   1.708   1.886  0.2424  0.6350  0.5909
  428SOL     OW 1709   0.580   2.587   1.087  0.4255 -0.2522  0.2754
  428SOL    HW1 1710   0.508   2.528   1.098 -0.1264 -0.9235 -0.0746
  428SOL    HW2 1711   0.603   2.609   1.181 -2.4804 -2.2524 -1.0989
  428SOL     MW 1712   0.573   2.582   1.101 -0.0307 -0.6047  0.0479
  429SOL     OW 1713   1.162   2.714   1.101 -0.5602 -0.0828 -0.2230
  429SOL    HW1 1714   1.085   2.730   1.155 -0.9454  0.3634 -2.3664
  429SOL    HW2 1715   1.202   2.799   1.076 -1.9779  1.6574  1.5998
  429SOL     MW 1716   1.157   2.728   1.105 -0.7981  0.2057 -0.2653
  430SOL     OW 1717   1.162   2.771   0.754  0.0587  0.2617  0.5983
  430SOL    HW1 1718   1.160   2.685   0.799  0.7722 -3.1967 -0.3859
  430SOL    HW2 1719   1.136   2.758   0.659 -0.7038 -0.5165  2.5724
  430SOL     MW 1720   1.158   2.758   0.747  0.0523 -0.2973  0.7289
  431SOL     OW 1721   0.309   1.933   1.117 -0.3135 -0.2529 -0.2216
  431SOL    HW1 1722   0.376   1.865   1.122  3.0271 -2.7037  2.3189
  431SOL    HW2 1723   0.267   1.932   1.027 -1.2241 -0.1416 -1.0028
  431SOL     MW 1724   0.312   1.924   1.106  0.0071 -0.5616  0.0105
  432SOL     OW 1725   0.060   3.086   1.127 -0.2894 -0.3286 -0.7744
  432SOL    HW1 1726   0.059   3.147   1.205 -0.7795 -1.7232  3.8954
  432SOL    HW2 1727  -0.016   3.033   1.132  1.1708  2.8132  1.4556
  432SOL     MW 1728   0.050   3.087   1.138 -0.1614 -0.0981  0.1360
  433SOL     OW 1729   0.629   2.917   1.463 -0.2656  0.2114 -0.0943
  433SOL    HW1 1730   0.613   2.993   1.521  0.0686 -0.1628  2.9201
  433SOL    HW2 1731   0.735   2.906   1.475  1.8842  1.9444 -0.4573
  433SOL     MW 1732   0.640   2.926   1.472  0.0621  0.3907  0.2555
  434SOL     OW 1733   1.528   2.836   1.626 -0.0879 -0.1531  0.0843
  434SOL    HW1 1734   1.453   2.891   1.652 -0.3046  0.8738  0.1714
  434SOL    HW2 1735   1.515   2.798   1.535  0.0625 -1.9698 -0.4303
  434SOL     MW 1736   1.516   2.838   1.617 -0.0966 -0.2573  0.0279
  435SOL     OW 1737   2.748   1.753   0.207 -0.0831 -0.6323 -0.0667
  435SOL    HW1 1738   2.798   1.808   0.150 -0.1039  0.6990 -3.1804
  435SOL    HW2 1739   2.661   1.786   0.205  0.8806 -2.2047  0.6632
  435SOL     MW 1740   2.743   1.765   0.199  0.0413 -0.6641 -0.3812
  436SOL     OW 1741   1.333   2.711   0.318 -0.5229  0.3318 -0.2221
  436SOL    HW1 1742   1.404   2.718   0.378 -2.0356  2.1341  0.6104
  436SOL    HW2 1743   1.281   2.785   0.345 -1.0587 -1.0202 -0.0070
  436SOL     MW 1744   1.336   2.722   0.330 -0.7932  0.3912 -0.0838
  437SOL     OW 1745   1.028   3.025   1.282 -0.9046  1.1130 -0.4832
  437SOL    HW1 1746   1.028   3.077   1.203 -0.1288  0.4210 -0.0886
  437SOL    HW2 1747   0.983   2.946   1.265 -1.9022  1.1560  2.1312
  437SOL     MW 1748   1.022   3.021   1.269 -0.9339  1.0274 -0.0862
  438SOL     OW 1749   0.908   2.713   1.912  0.0184 -0.3376  0.2131
  438SOL    HW1 1750   0.890   2.658   1.994  0.4676  0.5472  1.0503
  438SOL    HW2 1751   0.838   2.688   1.855 -1.2897  2.9383 -2.6517
  438SOL     MW 1752   0.896   2.703   1.916 -0.0949  0.2113 -0.0544
  439SOL     OW 1753   1.220   2.076   0.433 -0.5395  0.1911  0.3974
  439SOL    HW1 1754   1.158   2.118   0.498  0.6165  0.7469  0.9744
  439SOL    HW2 1755   1.197   2.121   0.346 -2.5783 -1.5508 -0.1268
  439SOL     MW 1756   1.208   2.088   0.430 -0.6560  0.0346  0.4044
  440SOL     OW 1757   1.757   2.934   3.028 -0.5848 -0.8009 -0.2751
  440SOL    HW1 1758   1.758   2.949   3.125 -1.3202 -0.8369  0.1340
  440SOL    HW2 1759   1.845   2.943   3.003  0.8206  0.4960  1.0093
  440SOL     MW 1760   1.769   2.937   3.038 -0.4964 -0.6346 -0.0516
  441SOL     OW 1761   0.449   2.642   0.429  1.2814  0.0461  0.1649
  441SOL    HW1 1762   0.382   2.595   0.377 -1.8326 -2.4603 -0.1814
  441SOL    HW2 1763   0.437   2.733   0.419 -1.6701 -0.6511  0.4548
  441SOL     MW 1764   0.438   2.648   0.421  0.4811 -0.3766  0.1575
  442SOL     OW 1765   0.033   2.343   0.642 -0.0582  0.0274 -0.0740
  442SOL    HW1 1766   0.024   2.437   0.613 -0.3242  3.9395  2.6062
  442SOL    HW2 1767  -0.048   2.325   0.687 -0.8667 -1.0944  0.7022
  442SOL     MW 1768   0.021   2.353   0.644 -0.2000  0.3956  0.3820
  443SOL     OW 1769   1.477   1.770   1.882 -0.0582 -0.6074  0.3373
  443SOL    HW1 1770   1.421   1.802   1.810  1.3923 -3.3362  1.4786
  443SOL    HW2 1771   1.467   1.677   1.893  2.4983  1.0469  0.4522
  443SOL     MW 1772   1.468   1.762   1.874  0.4705 -0.7492  0.5030
  444SOL     OW 1773   0.991   2.597   1.626 -0.3637 -0.4503 -0.6636
  444SOL    HW1 1774   1.048   2.528   1.662  0.8264 -0.7226 -2.2798
  444SOL    HW2 1775   0.905   2.596   1.672 -1.4137 -0.7658  1.4454
  444SOL     MW 1776   0.987   2.588   1.637 -0.3452 -0.5279 -0.5986
  445SOL     OW 1777   1.252   0.151   1.410 -0.4303 -0.7047  0.1579
  445SOL    HW1 1778   1.246   0.222   1.473  2.2965  1.7435 -0.5976
  445SOL    HW2 1779   1.194   0.172   1.336 -0.0507  1.0372 -1.2978
  445SOL     MW 1780   1.244   0.163   1.409 -0.0204 -0.1518 -0.1338
  446SOL     OW 1781   2.779   2.860   1.030  0.2160  0.1022 -0.1471
  446SOL    HW1 1782   2.715   2.903   0.969 -1.1661  1.9131  1.6409
  446SOL    HW2 1783   2.804   2.776   0.998 -0.8032  3.5613 -1.8557
  446SOL     MW 1784   2.774   2.854   1.018 -0.1008  0.7975 -0.1366
  447SOL     OW 1785   0.044   1.932   1.554 -0.0651  0.0924  0.3451
  447SOL    HW1 1786   0.050   1.900   1.648 -0.7716 -2.3342 -0.0907
  447SOL    HW2 1787  -0.033   1.896   1.501 -1.2031  1.0425 -2.0898
  447SOL     MW 1788   0.035   1.923   1.559 -0.3085 -0.1024 -0.0337
  448SOL     OW 1789   1.730   2.405   1.665 -0.9500 -0.0577 -0.1608
  448SOL    HW1 1790   1.677   2.331   1.684  3.1091 -1.9958  1.0021
  448SOL    HW2 1791   1.671   2.479   1.686 -1.6426  1.9602  1.0751
  448SOL     MW 1792   1.715   2.405   1.670 -0.5058 -0.0472  0.1557
  449SOL     OW 1793   0.882   2.945   0.406  0.2571  0.3249  0.0224
  449SOL    HW1 1794   0.831   2.973   0.331  1.3386  1.3942  0.8101
  449SOL    HW2 1795   0.830   2.971   0.483  1.8378  1.3268 -0.2485
  449SOL     MW 1796   0.868   2.952   0.406  0.6084  0.5982  0.0906
  450SOL     OW 1797   1.156   2.498   0.778 -0.5136 -0.0425  0.2560
  450SOL    HW1 1798   1.190   2.442   0.857 -1.1346 -1.2247  1.4884
  450SOL    HW2 1799   1.221   2.493   0.707 -2.0842  0.7928 -1.5627
  450SOL     MW 1800   1.169   2.490   0.779 -0.8027 -0.0882  0.1786
  451SOL     OW 1801   0.525   1.921   1.688 -0.1447  0.3338 -0.3905
  451SOL    HW1 1802   0.597   1.914   1.630 -1.5588  1.8556 -0.8679
  451SOL    HW2 1803   0.450   1.878   1.638 -1.1027 -1.1413 -1.0509
  451SOL     MW 1804   0.525   1.914   1.674 -0.4577  0.3400 -0.5406
  452SOL     OW 1805   0.337   2.626   0.013 -0.1548  0.4306 -0.2521
  452SOL    HW1 1806   0.414   2.665   0.057  0.8415 -0.4483  1.5849
  452SOL    HW2 1807   0.279   2.707   0.022  0.7770  3.5700 -0.7796
  452SOL     MW 1808   0.340   2.642   0.020  0.0996  0.7289 -0.0793
  453SOL     OW 1809   0.280   3.048   1.565 -0.4519 -0.7356  0.3418
  453SOL    HW1 1810   0.314   2.975   1.619 -0.1290  0.4099  0.8567
  453SOL    HW2 1811   0.326   3.040   1.480 -0.6582 -0.7475 -1.2377
  453SOL     MW 1812   0.291   3.037   1.561 -0.4365 -0.5860  0.2013
  454SOL     OW 1813   0.933   2.757   1.240  0.3056  0.0320 -0.2048
  454SOL    HW1 1814   0.872   2.701   1.302 -1.5121  0.4100 -1.7878
  454SOL    HW2 1815   0.865   2.785   1.178  2.0272  1.1255 -1.3447
  454SOL     MW 1816   0.916   2.753   1.240  0.2929  0.2261 -0.5640
  455SOL     OW 1817   1.761   2.874   0.187  0.8063 -0.2156 -0.2508
  455SOL    HW1 1818   1.792   2.851   0.275 -0.1672 -2.3413 -2.6129
  455SOL    HW2 1819   1.698   2.801   0.162  1.3198 -1.3811  1.0574
  455SOL     MW 1820   1.757   2.862   0.196  0.7456 -0.6498 -0.3899
  456SOL     OW 1821   2.766   0.270   1.466  0.0833 -0.0236  0.0313
  456SOL    HW1 1822   2.768   0.210   1.386 -0.3744  0.1149 -1.0613
  456SOL    HW2 1823   2.797   0.352   1.439  0.9613 -0.3726  0.6922
  456SOL     MW 1824   2.771   0.273   1.452  0.1388 -0.0513 -0.0257
  457SOL     OW 1825   0.783   1.693   3.035  0.2062 -0.3779 -0.6264
  457SOL    HW1 1826   0.688   1.690   3.036  1.8653 -1.4174  0.9400
  457SOL    HW2 1827   0.796   1.734   3.118 -1.5823 -1.1231  0.8713
  457SOL     MW 1828   0.772   1.698   3.046  0.1891 -0.6134 -0.2221
  458SOL     OW 1829   1.360   1.499   0.711  0.2688 -0.1450  0.1809
  458SOL    HW1 1830   1.286   1.549   0.670  1.9056 -1.4859  2.9539
  458SOL    HW2 1831   1.340   1.410   0.688  0.0331  0.5453  0.7784
  458SOL     MW 1832   1.348   1.494   0.703  0.4537 -0.2308  0.6256
  459SOL     OW 1833   1.602   3.089   0.255  0.7226 -0.1168  0.2693
  459SOL    HW1 1834   1.652   3.007   0.240  1.9797 -1.0302  0.9222
  459SOL    HW2 1835   1.552   3.107   0.171  1.5058 -0.2354 -2.5846
  459SOL     MW 1836   1.602   3.080   0.242  0.9918 -0.2530 -0.0211
  460SOL     OW 1837   1.781   2.229   0.656 -0.4691  0.0938  0.1568
  460SOL    HW1 1838   1.693   2.224   0.691  0.2544 -0.3562  0.0111
  460SOL    HW2 1839   1.803   2.133   0.651 -1.0747 -0.2050 -1.1135
  460SOL     MW 1840   1.772   2.216   0.660 -0.4536 -0.0050 -0.0300
  461SOL     OW 1841   0.425   2.426   0.589 -0.4641  0.1672 -0.3133
  461SOL    HW1 1842   0.443   2.513   0.552  2.0798  1.6979 -0.3191
  461SOL    HW2 1843   0.412   2.441   0.683 -2.8543 -0.7944 -1.3422
  461SOL     MW 1844   0.425   2.440   0.596 -0.4438  0.2423 -0.4498
  462SOL     OW 1845   0.275   0.228   1.285  0.1609 -0.0586 -0.7228
  462SOL    HW1 1846   0.326   0.188   1.213  3.2027 -1.0090 -0.0987
  462SOL    HW2 1847   0.333   0.255   1.354 -1.7237 -0.1071 -0.4786
  462SOL     MW 1848   0.289   0.226   1.284  0.3136 -0.1904 -0.6082
  463SOL     OW 1849   1.069   0.070   0.757  0.1030 -0.1870  0.1963
  463SOL    HW1 1850   1.154   0.031   0.728  3.3017 -0.4012  2.0924
  463SOL    HW2 1851   1.028   0.101   0.677 -2.4263 -2.1695  0.8428
  463SOL     MW 1852   1.075   0.069   0.743  0.1913 -0.4768  0.5318
  464SOL     OW 1853   0.766   3.101   2.274 -0.2315  0.2303 -0.1984
  464SOL    HW1 1854   0.751   3.006   2.278  2.9553  1.1556 -1.5826
  464SOL    HW2 1855   0.795   3.129   2.364 -1.8764 -2.0512 -1.6032
  464SOL     MW 1856   0.768   3.092   2.286 -0.0281  0.0514 -0.5664
  465SOL     OW 1857   0.788   0.353   0.413  0.3118  1.0334  0.1695
  465SOL    HW1 1858   0.782   0.282   0.480  0.4188 -0.3489 -0.9756
  465SOL    HW2 1859   0.782   0.319   0.324 -1.3982 -2.6045 -1.0845
  465SOL     MW 1860   0.787   0.339   0.410  0.1003  0.3710 -0.1470
  466SOL     OW 1861   1.096   2.030   0.792 -0.0455 -0.1576  0.2619
  466SOL    HW1 1862   1.069   1.951   0.750  2.1837  0.9313  4.4272
  466SOL    HW2 1863   1.082   2.104   0.728 -0.4148  0.3008  0.2683
  466SOL     MW 1864   1.091   2.030   0.778  0.1999  0.0465  0.8123
  467SOL     OW 1865   1.292   2.314   0.964  0.7425  0.0887 -0.6103
  467SOL    HW1 1866   1.379   2.349   0.984  0.8522  1.2833 -0.5896
  467SOL    HW2 1867   1.319   2.225   0.982 -0.6359 -0.1284  1.0640
  467SOL     MW 1868   1.307   2.307   0.969  0.5751  0.2177 -0.3867
  468SOL     OW 1869   0.509   2.665   1.879 -0.2043  0.5317  0.2984
  468SOL    HW1 1870   0.466   2.596   1.826  0.5075 -2.4537  1.4494
  468SOL    HW2 1871   0.485   2.754   1.836  0.6493  3.4377 -3.6338
  468SOL     MW 1872   0.500   2.668   1.866  0.0022  0.5212 -0.0686
  469SOL     OW 1873   0.364   2.105   1.851 -0.9102 -0.0450 -0.1411
  469SOL    HW1 1874   0.275   2.071   1.852  1.9350  0.0615 -0.8890
  469SOL    HW2 1875   0.420   2.031   1.816 -1.7261 -2.4904 -0.3773
  469SOL     MW 1876   0.360   2.090   1.847 -0.6425 -0.3536 -0.2709
  470SOL     OW 1877   3.047   2.605   0.100  0.0625 -0.5039 -0.0541
  470SOL    HW1 1878   2.959   2.621   0.139  0.5156 -0.3228 -0.3675
  470SOL    HW2 1879   3.035   2.628   0.004  0.8096  1.7037 -0.0827
  470SOL     MW 1880   3.034   2.610   0.093  0.2209 -0.1888 -0.0992
  471SOL     OW 1881   1.172   2.612   1.382  0.2176  0.1341 -0.3628
  471SOL    HW1 1882   1.108   2.594   1.452 -0.9068 -0.7773 -0.3431
  471SOL    HW2 1883   1.127   2.592   1.300 -1.5327  0.4708 -1.9995
  471SOL     MW 1884   1.157   2.607   1.381 -0.1617  0.0583 -0.5761
  472SOL     OW 1885   2.870   2.117   0.350  0.9752 -0.2871 -0.4172
  472SOL    HW1 1886   2.878   2.074   0.266 -1.7557  0.0268 -1.2320
  472SOL    HW2 1887   2.810   2.064   0.395  0.9584 -0.9027  2.3674
  472SOL     MW 1888   2.863   2.105   0.345  0.6127 -0.3269 -0.1573
  473SOL     OW 1889   0.815   2.562   1.405  0.6157 -0.2917 -0.0029
  473SOL    HW1 1890   0.813   2.473   1.371  0.6401 -0.7465  0.3501
  473SOL    HW2 1891   0.882   2.561   1.478 -1.1232 -2.1956  1.2234
  473SOL     MW 1892   0.823   2.550   1.410  0.3895 -0.6029  0.2055
  474SOL     OW 1893   0.672   2.318   1.806 -0.4306 -0.2444  0.0432
  474SOL    HW1 1894   0.745   2.289   1.862 -1.3675 -1.3918  0.6746
  474SOL    HW2 1895   0.706   2.290   1.724  1.2177  3.0456  2.1764
  474SOL     MW 1896   0.686   2.311   1.802 -0.3367  0.0383  0.4080
  475SOL     OW 1897   1.593   3.070   1.527  0.0352 -0.1399 -0.3435
  475SOL    HW1 1898   1.533   3.042   1.451 -2.8766  3.3380 -2.0402
  475SOL    HW2 1899   1.585   2.985   1.577 -2.2050  1.4300  0.3534
  475SOL     MW 1900   1.584   3.055   1.523 -0.6446  0.5261 -0.4754
  476SOL     OW 1901   1.436   2.623   1.150  0.4265  0.5280  0.9719
  476SOL    HW1 1902   1.341   2.651   1.134  0.8521  2.4175  2.6182
  476SOL    HW2 1903   1.489   2.706   1.127  3.5809 -0.1859  0.1537
  476SOL     MW 1904   1.431   2.637   1.145  0.8988  0.6831  1.0812
  477SOL     OW 1905   0.844   2.559   0.632 -0.3033 -0.3228  0.1672
  477SOL    HW1 1906   0.923   2.606   0.601 -0.5635 -3.3069  0.8237
  477SOL    HW2 1907   0.825   2.489   0.572 -2.8934 -0.8032 -0.8725
  477SOL     MW 1908   0.852   2.556   0.620 -0.6794 -0.7799  0.1166
  478SOL     OW 1909   0.208   2.654   0.948  0.2080 -0.8066  0.1343
  478SOL    HW1 1910   0.250   2.728   0.897  0.5241 -0.5812 -1.7635
  478SOL    HW2 1911   0.268   2.580   0.932  0.4879  0.1835  0.8977
  478SOL     MW 1912   0.222   2.654   0.939  0.2866 -0.6463 -0.0153
  479SOL     OW 1913   1.407   2.000   1.275 -0.2674  0.0139 -0.3714
  479SOL    HW1 1914   1.396   2.042   1.360 -1.5028 -0.3665 -1.8023
  479SOL    HW2 1915   1.440   1.911   1.295 -1.5982  1.7117  1.3201
  479SOL     MW 1916   1.410   1.994   1.289 -0.6060  0.1877 -0.3370
  480SOL     OW 1917   2.009   2.458   1.330 -0.0022 -0.1837  0.3621
  480SOL    HW1 1918   2.015   2.362   1.354 -0.4266 -0.4314 -0.8938
  480SOL    HW2 1919   2.020   2.455   1.235  3.1416 -1.7619 -2.1190
  480SOL     MW 1920   2.011   2.445   1.321  0.3566 -0.4246 -0.1310
  481SOL     OW 1921   1.044   0.098   1.076  0.2366  0.7955  0.6383
  481SOL    HW1 1922   1.092   0.020   1.047 -0.1120  0.3809  1.8287
  481SOL    HW2 1923   1.111   0.160   1.104  2.4222 -1.5575  1.4853
  481SOL     MW 1924   1.059   0.096   1.076  0.4790  0.4303  0.9071
  482SOL     OW 1925   1.097   3.093   0.280 -0.5848  0.4853 -0.2687
  482SOL    HW1 1926   1.023   3.041   0.326 -1.7880  0.3386 -0.6535
  482SOL    HW2 1927   1.084   3.186   0.298  0.5031  2.3419 -0.2881
  482SOL     MW 1928   1.086   3.098   0.289 -0.6000  0.7109 -0.3220
  483SOL     OW 1929   0.415   2.999   0.437  0.3389  0.3637  0.0827
  483SOL    HW1 1930   0.327   2.995   0.397 -1.2997  0.7830 -3.3333
  483SOL    HW2 1931   0.401   3.028   0.524  0.7999 -1.0973  1.9370
  483SOL     MW 1932   0.402   3.002   0.443  0.1836  0.2262 -0.1234
  484SOL     OW 1933   1.873   1.954   1.500 -0.3836  0.7169 -0.4300
  484SOL    HW1 1934   1.892   2.042   1.470 -1.2367 -1.3187 -0.8537
  484SOL    HW2 1935   1.848   1.972   1.590 -0.7057 -0.4566  0.9788
  484SOL     MW 1936   1.873   1.968   1.508 -0.5387  0.2935 -0.3000
  485SOL     OW 1937   0.572   2.385   0.237  0.0087  0.2527  0.3012
  485SOL    HW1 1938   0.586   2.397   0.331 -0.5071  0.9458 -1.8629
  485SOL    HW2 1939   0.479   2.412   0.219  0.6264  0.9181 -1.8004
  485SOL     MW 1940   0.562   2.390   0.247  0.0222  0.4320 -0.2617
  486SOL     OW 1941   0.183   2.424   1.494  0.2147  0.0587  0.2242
  486SOL    HW1 1942   0.240   2.499   1.479  2.5096  0.2024 -0.8536
  486SOL    HW2 1943   0.170   2.423   1.592 -1.7994  0.5657 -1.3123
  486SOL     MW 1944   0.189   2.434   1.505  0.2517  0.1446 -0.1207
  487SOL     OW 1945   1.207   1.716   1.033 -0.1456 -0.1807 -0.5164
  487SOL    HW1 1946   1.191   1.808   1.064  2.4548  3.4752 -0.2313
  487SOL    HW2 1947   1.295   1.718   0.994  0.4211  1.2063  0.3072
  487SOL     MW 1948   1.217   1.729   1.032  0.2723  0.4847 -0.3701
  488SOL     OW 1949   1.612   1.817   0.555 -0.6462 -0.1311 -0.1993
  488SOL    HW1 1950   1.682   1.825   0.488  0.4067 -2.6483 -1.2165
  488SOL    HW2 1951   1.565   1.904   0.543  0.7790  0.4025  0.5657
  488SOL     MW 1952   1.615   1.829   0.545 -0.3193 -0.3928 -0.2326
  489SOL     OW 1953   0.790   0.834   0.609  0.2280 -0.6299 -0.4177
  489SOL    HW1 1954   0.821   0.752   0.564 -0.2766 -0.2579 -0.0531
  489SOL    HW2 1955   0.781   0.810   0.699  2.4006  0.2670 -0.7522
  489SOL     MW 1956   0.793   0.820   0.615  0.4481 -0.4625 -0.4137
  490SOL     OW 1957   1.481   2.057   0.512 -0.1926 -0.4798  0.1896
  490SOL    HW1 1958   1.499   2.136   0.457 -1.6292  0.7390 -2.3714
  490SOL    HW2 1959   1.383   2.048   0.493  2.0449 -1.5365 -0.1325
  490SOL     MW 1960   1.470   2.066   0.502 -0.0869 -0.4584 -0.1908
  491SOL     OW 1961   1.280   2.961   0.431 -0.6096 -0.1617 -0.2635
  491SOL    HW1 1962   1.352   3.027   0.459  4.5267  0.3522  1.5140
  491SOL    HW2 1963   1.223   3.013   0.373 -0.3148 -0.7584  1.0541
  491SOL     MW 1964   1.282   2.977   0.427  0.1070 -0.1726  0.1449
  492SOL     OW 1965   1.526   2.201   0.733  0.5670  0.8176  0.4495
  492SOL    HW1 1966   1.506   2.140   0.665  0.6700  0.4931  1.7404
  492SOL    HW2 1967   1.478   2.173   0.809  3.3551 -0.0819 -0.6579
  492SOL     MW 1968   1.517   2.189   0.734  0.9485  0.6561  0.4737
  493SOL     OW 1969   0.163   2.997   0.321  0.3677 -0.0412 -0.6536
  493SOL    HW1 1970   0.118   3.046   0.394  2.1109  0.2549  0.3868
  493SOL    HW2 1971   0.180   3.058   0.255  0.2979  1.9345  2.0092
  493SOL     MW 1972   0.159   3.012   0.322  0.5885  0.2585 -0.1650
  494SOL     OW 1973   0.412   2.450   1.758 -0.5267  0.5061 -0.2311
  494SOL    HW1 1974   0.474   2.383   1.793  1.4033  2.3082 -1.5999
  494SOL    HW2 1975   0.436   2.454   1.665 -2.4680 -0.6892 -0.7195
  494SOL     MW 1976   0.423   2.441   1.750 -0.5282  0.5862 -0.4761
  495SOL     OW 1977   2.841   1.711   2.588 -0.3103  0.1717 -0.1275
  495SOL    HW1 1978   2.800   1.798   2.576 -1.8552  2.4213 -0.5324
  495SOL    HW2 1979   2.824   1.687   2.686 -2.4797  0.0079 -2.1518
  495SOL     MW 1980   2.833   1.719   2.600 -0.8003  0.4469 -0.4480
  496SOL     OW 1981   2.936   2.369   2.680  0.0850  0.1317 -0.3510
  496SOL    HW1 1982   2.968   2.312   2.754  0.3366  3.1635  0.4711
  496SOL    HW2 1983   3.009   2.428   2.659  1.5327 -2.4751 -2.1377
  496SOL     MW 1984   2.950   2.369   2.687  0.3092  0.1877 -0.4783
  497SOL     OW 1985   1.595   2.199   2.618 -0.4230 -0.0203  0.0360
  497SOL    HW1 1986   1.534   2.136   2.583 -1.2973 -1.2983  1.1187
  497SOL    HW2 1987   1.598   2.184   2.714 -1.0520  0.1112  0.9483
  497SOL     MW 1988   1.587   2.189   2.626 -0.6213 -0.1716  0.2993
  498SOL     OW 1989   1.462   2.683   2.372  0.4313  0.1831  0.3720
  498SOL    HW1 1990   1.475   2.589   2.391 -1.8050 -1.4762 -0.6287
  498SOL    HW2 1991   1.543   2.722   2.356  0.3668 -2.1907  3.2524
  498SOL     MW 1992   1.475   2.676   2.372  0.1277 -0.3490  0.6200
  499SOL     OW 1993   1.013   0.154   3.061 -0.0495  0.2206 -0.4463
  499SOL    HW1 1994   0.941   0.182   3.111 -0.1201  1.8622 -0.2047
  499SOL    HW2 1995   1.078   0.112   3.122  1.7009  3.0056 -1.2853
  499SOL     MW 1996   1.012   0.152   3.076  0.1721  0.8047 -0.5251
  500SOL     OW 1997   1.101   2.487   2.750 -1.1087 -0.1168 -0.2726
  500SOL    HW1 1998   1.168   2.459   2.814  1.8990  1.4414 -1.0681
  500SOL    HW2 1999   1.026   2.508   2.803 -1.4112 -2.5518 -0.3249
  500SOL     MW 2000   1.100   2.486   2.765 -0.7518 -0.2325 -0.3845
  501SOL     OW 2001   1.800   2.196   3.085 -0.6964 -0.1394 -0.4015
  501SOL    HW1 2002   1.783   2.284   3.117 -0.8832 -1.7013 -0.8077
  501SOL    HW2 2003   1.898   2.190   3.073 -1.7586 -2.1565  1.1477
  501SOL     MW 2004   1.811   2.207   3.088 -0.8612 -0.6116 -0.2507
  502SOL     OW 2005   0.155   2.819   3.078 -0.2230 -0.7241 -0.2369
  502SOL    HW1 2006   0.090   2.762   3.039  2.5211  1.2168 -1.8176
  502SOL    HW2 2007   0.192   2.869   2.997  0.5081 -1.8563 -0.0731
  502SOL     MW 2008   0.151   2.818   3.062  0.2355 -0.6174 -0.4239
  503SOL     OW 2009   1.000   2.853   2.165 -0.5800  0.6142 -0.2910
  503SOL    HW1 2010   0.975   2.825   2.076 -3.5671  0.3044  2.3364
  503SOL    HW2 2011   0.980   2.940   2.142  0.1304 -2.3963 -0.1230
  503SOL     MW 2012   0.994   2.861   2.150 -0.8804  0.1761  0.0778
  504SOL     OW 2013   0.041   2.713   2.132 -0.2171  1.1667  0.4275
  504SOL    HW1 2014   0.064   2.637   2.080 -1.3273 -0.9291  2.9249
  504SOL    HW2 2015   0.031   2.681   2.218  2.8394 -1.7973  0.8728
  504SOL     MW 2016   0.043   2.699   2.136  0.0397  0.4991  0.8158
  505SOL     OW 2017   1.697   2.690   2.678  0.4612  0.6036 -0.3837
  505SOL    HW1 2018   1.675   2.689   2.582 -0.6648 -1.2993  0.4240
  505SOL    HW2 2019   1.629   2.740   2.729 -2.8080  0.1283 -1.8505
  505SOL     MW 2020   1.685   2.696   2.672 -0.1187  0.2898 -0.4706
  506SOL     OW 2021   1.601   3.012   2.817  0.1769  0.2164 -0.4228
  506SOL    HW1 2022   1.639   2.991   2.905 -0.1232  0.4855 -0.0058
  506SOL    HW2 2023   1.673   3.013   2.752 -0.3141 -1.6960  0.5316
  506SOL     MW 2024   1.615   3.009   2.820  0.0725 -0.0004 -0.2418
  507SOL     OW 2025   0.847   2.738   2.849 -0.2058  0.3240 -0.1378
  507SOL    HW1 2026   0.896   2.806   2.808 -2.7690 -2.6787  1.9430
  507SOL    HW2 2027   0.779   2.799   2.874  0.9701  1.0115  2.7555
  507SOL     MW 2028   0.844   2.755   2.847 -0.3889  0.0185  0.5185
  508SOL     OW 2029   1.133   2.054   2.523  0.0072 -0.4923  0.5429
  508SOL    HW1 2030   1.217   2.048   2.573  0.6387  0.8888 -0.3922
  508SOL    HW2 2031   1.088   2.115   2.582 -1.9128  0.4031 -2.6409
  508SOL     MW 2032   1.138   2.061   2.537 -0.1628 -0.1920 -0.0006
  509SOL     OW 2033   0.617   2.559   2.923 -0.0842 -0.1246  0.5450
  509SOL    HW1 2034   0.569   2.549   2.837  1.4603  1.9320 -0.0345
  509SOL    HW2 2035   0.548   2.563   2.987  1.5936  0.5313 -0.4572
  509SOL     MW 2036   0.601   2.558   2.920  0.3410  0.2333  0.3363
  510SOL     OW 2037   1.527   2.562   1.705  0.0551 -0.4091  0.5919
  510SOL    HW1 2038   1.534   2.653   1.692  3.5031 -1.8198 -0.1873
  510SOL    HW2 2039   1.459   2.553   1.769  2.6859  0.6984  0.8360
  510SOL     MW 2040   1.519   2.573   1.712  0.8572 -0.4491  0.5213
  511SOL     OW 2041   0.408   2.604   2.427 -0.2092 -0.2341  0.2690
  511SOL    HW1 2042   0.472   2.556   2.483 -1.0776  1.7277  0.3244
  511SOL    HW2 2043   0.430   2.608   2.330 -0.3064  3.2067 -2.7580
  511SOL     MW 2044   0.419   2.598   2.422 -0.3366  0.4788 -0.1231
  512SOL     OW 2045   1.014   1.976   2.828 -0.1898 -0.1625 -0.4883
  512SOL    HW1 2046   0.922   1.993   2.829 -0.2414 -0.2559  2.2442
  512SOL    HW2 2047   1.034   1.883   2.838 -0.2261 -0.1133 -1.1248
  512SOL     MW 2048   1.005   1.966   2.829 -0.2014 -0.1683 -0.2118
  513SOL     OW 2049   1.458   2.409   2.392 -0.6379 -0.1403  0.0079
  513SOL    HW1 2050   1.524   2.394   2.455 -1.3796 -1.4404 -1.3651
  513SOL    HW2 2051   1.407   2.329   2.397  1.4477 -0.9086  0.0161
  513SOL     MW 2052   1.460   2.396   2.401 -0.4606 -0.4132 -0.1721
  514SOL     OW 2053   0.250   2.456   2.627 -0.5995 -0.3377 -0.3755
  514SOL    HW1 2054   0.311   2.511   2.589 -2.5532 -0.6836 -0.0935
  514SOL    HW2 2055   0.250   2.467   2.727  1.1386  0.1508 -1.6034
  514SOL     MW 2056   0.258   2.464   2.635 -0.6280 -0.3189 -0.5003
  515SOL     OW 2057   1.067   2.049   1.945  0.7280 -0.1483  1.1719
  515SOL    HW1 2058   1.013   2.132   1.935  1.2321 -1.7500  0.8348
  515SOL    HW2 2059   1.113   2.050   2.025 -1.1810 -1.3185 -1.3887
  515SOL     MW 2060   1.066   2.060   1.954  0.5426 -0.5140  0.7896
  516SOL     OW 2061   1.463   2.514   3.072  0.2610  0.4622  0.7300
  516SOL    HW1 2062   1.514   2.474   2.995 -0.4202 -0.7603 -2.3664
  516SOL    HW2 2063   1.372   2.485   3.063 -0.9764 -1.7874  1.3859
  516SOL     MW 2064   1.457   2.505   3.061  0.0078  0.0041  0.4080
  517SOL     OW 2065   0.595   2.393   2.145  0.4228  0.1607  0.1461
  517SOL    HW1 2066   0.586   2.482   2.171 -0.8950 -0.8026 -0.0093
  517SOL    HW2 2067   0.521   2.362   2.103  2.3586  0.3528  1.0568
  517SOL     MW 2068   0.584   2.401   2.143  0.5043  0.0589  0.2457
  518SOL     OW 2069   1.901   0.111   2.928 -0.0611 -0.6643  0.1083
  518SOL    HW1 2070   1.850   0.176   2.879  1.1007 -0.1300  1.2742
  518SOL    HW2 2071   1.867   0.121   3.018 -1.3164  1.2433  0.1927
  518SOL     MW 2072   1.890   0.121   2.934 -0.0734 -0.3421  0.2732
  519SOL     OW 2073   0.729   2.576   1.750  0.3272 -0.1277  0.1001
  519SOL    HW1 2074   0.707   2.486   1.758  0.4042 -2.3936  1.1505
  519SOL    HW2 2075   0.650   2.618   1.788  1.1127  1.9718 -0.5005
  519SOL     MW 2076   0.716   2.570   1.756  0.4410 -0.1496  0.1595
  520SOL     OW 2077   1.272   2.109   2.953 -0.3395 -0.0482 -0.0882
  520SOL    HW1 2078   1.184   2.076   2.968  0.9810 -1.8405  0.0742
  520SOL    HW2 2079   1.317   2.080   3.034 -0.7491  0.6500 -2.1382
  520SOL     MW 2080   1.266   2.101   2.966 -0.2193 -0.1926 -0.3372
  521SOL     OW 2081   1.740   2.049   2.249 -0.2330 -0.5494 -0.2290
  521SOL    HW1 2082   1.775   2.063   2.162 -0.5567 -0.2615  0.3693
  521SOL    HW2 2083   1.727   1.955   2.265  1.0748 -1.3942  2.9909
  521SOL     MW 2084   1.743   2.039   2.240 -0.1031 -0.6229  0.2748
  522SOL     OW 2085   2.832   2.554   2.190  0.0753 -0.3843 -0.1820
  522SOL    HW1 2086   2.911   2.523   2.224 -3.0466 -1.2234  0.8978
  522SOL    HW2 2087   2.782   2.599   2.259  2.0206  0.9754 -1.2632
  522SOL     MW 2088   2.836   2.556   2.204 -0.0799 -0.3156 -0.1822
  523SOL     OW 2089   0.856   1.498   2.118 -0.0026 -0.2777 -0.3484
  523SOL    HW1 2090   0.872   1.571   2.056  1.2967  0.9544  2.4376
  523SOL    HW2 2091   0.901   1.424   2.067  3.3591 -0.4391  0.3834
  523SOL     MW 2092   0.864   1.498   2.103  0.6124 -0.1364  0.1157
  524SOL     OW 2093   0.894   2.458   2.944  0.0891  0.2310  0.1878
  524SOL    HW1 2094   0.830   2.520   2.909 -2.9706  1.7409  2.6396
  524SOL    HW2 2095   0.873   2.370   2.913 -1.0228  0.2701  0.2619
  524SOL     MW 2096   0.883   2.454   2.936 -0.4613  0.4353  0.5211
  525SOL     OW 2097   0.351   2.261   2.072 -0.2373 -0.2843 -0.3195
  525SOL    HW1 2098   0.336   2.211   2.157  0.0337  0.6519  1.0967
  525SOL    HW2 2099   0.351   2.191   1.998  0.4782 -2.3903  1.9671
  525SOL     MW 2100   0.349   2.245   2.073 -0.1072 -0.4387  0.1690
  526SOL     OW 2101   0.663   2.091   1.998 -0.6202 -0.3151  0.7546
  526SOL    HW1 2102   0.651   2.144   1.917  0.5091  0.8266  2.0096
  526SOL    HW2 2103   0.645   2.161   2.065 -2.9135 -2.2518 -0.7067
  526SOL     MW 2104   0.659   2.107   1.996 -0.7738 -0.4200  0.7274
  527SOL     OW 2105   1.350   1.978   2.043 -0.0792 -0.2984 -0.0434
  527SOL    HW1 2106   1.334   1.939   2.126 -0.0422 -0.4368 -0.9790
  527SOL    HW2 2107   1.386   1.901   2.001  1.9141 -0.2843 -1.1832
  527SOL     MW 2108   1.352   1.962   2.048  0.1887 -0.3148 -0.3172
  528SOL     OW 2109   0.660   2.904   2.922  0.1616  0.4670 -0.0114
  528SOL    HW1 2110   0.695   2.993   2.919 -0.6777 -0.1632 -3.3643
  528SOL    HW2 2111   0.577   2.908   2.881 -0.3675 -0.0447  0.2649
  528SOL     MW 2112   0.654   2.916   2.916 -0.0190  0.3163 -0.4174
  529SOL     OW 2113   0.919   2.276   1.896  0.3560 -0.1164  0.4420
  529SOL    HW1 2114   0.946   2.303   1.982  1.0193 -3.3681  1.4979
  529SOL    HW2 2115   0.973   2.332   1.835  0.7001 -3.5664 -0.0278
  529SOL     MW 2116   0.930   2.287   1.900  0.4889 -1.0006  0.5193
  530SOL     OW 2117   1.210   2.423   2.985 -0.3315 -0.1749  0.0613
  530SOL    HW1 2118   1.133   2.456   3.044 -0.0173 -0.0592 -0.4166
  530SOL    HW2 2119   1.227   2.327   2.988  0.6216  1.0551 -1.1138
  530SOL     MW 2120   1.202   2.415   2.993 -0.1643  0.0027 -0.1568
  531SOL     OW 2121   0.945   1.858   2.571 -0.4014  0.0541  0.2000
  531SOL    HW1 2122   1.003   1.931   2.577 -1.1312  1.7327 -1.8324
  531SOL    HW2 2123   0.897   1.851   2.665  0.6542 -3.2132  1.5969
  531SOL     MW 2124   0.947   1.867   2.585 -0.3584 -0.1555  0.1162
  532SOL     OW 2125   1.759   0.299   2.773  0.9078 -0.1976  0.0953
  532SOL    HW1 2126   1.696   0.282   2.707  2.1321  0.1459 -0.2137
  532SOL    HW2 2127   1.843   0.288   2.726  2.3968 -0.3036 -2.3033
  532SOL     MW 2128   1.762   0.295   2.758  1.2658 -0.1663 -0.2619
  533SOL     OW 2129   1.854   2.659   3.065  1.0731 -0.3603  0.1993
  533SOL    HW1 2130   1.783   2.603   3.089  0.5382 -1.3719  1.4516
  533SOL    HW2 2131   1.814   2.723   3.015 -0.2493 -3.7292  2.2907
  533SOL     MW 2132   1.839   2.660   3.062  0.8281 -0.9383  0.6404
  534SOL     OW 2133   1.742   2.395   2.484 -0.0285 -0.2958 -0.2128
  534SOL    HW1 2134   1.702   2.306   2.504  0.0657 -1.6750  0.1927
  534SOL    HW2 2135   1.810   2.409   2.555  1.5976  0.1588  0.7124
  534SOL     MW 2136   1.745   2.385   2.496  0.1985 -0.4178 -0.0372
  535SOL     OW 2137   1.878   2.397   1.910  0.0728  0.0550  0.0724
  535SOL    HW1 2138   1.842   2.410   1.822 -0.9039 -0.8071 -1.8241
  535SOL    HW2 2139   1.970   2.397   1.882 -0.3795  1.4205 -1.4606
  535SOL     MW 2140   1.886   2.398   1.895 -0.1158  0.1214 -0.3801
  536SOL     OW 2141   0.553   1.834   2.086 -0.5922  0.7275  0.3093
  536SOL    HW1 2142   0.496   1.784   2.026  0.1326 -0.2212  1.5799
  536SOL    HW2 2143   0.553   1.929   2.060  0.2098 -1.4052 -0.0749
  536SOL     MW 2144   0.546   1.840   2.075 -0.3908  0.3209  0.4262
  537SOL     OW 2145   1.086   0.210   2.768  0.1201  0.4373  0.1932
  537SOL    HW1 2146   1.046   0.225   2.857 -1.4360  0.5527  0.9383
  537SOL    HW2 2147   1.073   0.294   2.720 -1.4580  2.0593  0.1487
  537SOL     MW 2148   1.079   0.223   2.773 -0.2934  0.6665  0.2856
  538SOL     OW 2149   1.464   0.057   0.042 -0.3833  0.1292  0.0554
  538SOL    HW1 2150   1.467   0.152   0.039 -2.8819  1.4519 -1.5038
  538SOL    HW2 2151   1.377   0.033   0.021  0.4111 -0.1682  2.6160
  538SOL     MW 2152   1.453   0.066   0.039 -0.6082  0.2644  0.1875
  539SOL     OW 2153   0.696   2.803   2.563 -0.2171 -0.2946 -0.1294
  539SOL    HW1 2154   0.765   2.848   2.613  0.5813 -0.3591 -1.3999
  539SOL    HW2 2155   0.696   2.712   2.562 -1.5071  0.6938 -1.8590
  539SOL     MW 2156   0.705   2.797   2.569 -0.2820 -0.1727 -0.5252
  540SOL     OW 2157   0.249   2.470   2.901 -0.1539  0.4440  0.2230
  540SOL    HW1 2158   0.310   2.505   2.968 -0.2672  1.1256  2.3107
  540SOL    HW2 2159   0.224   2.378   2.940 -0.3778 -0.7877 -1.0663
  540SOL     MW 2160   0.254   2.463   2.915 -0.1984  0.3714  0.3284
  541SOL     OW 2161   0.216   2.940   2.118 -0.0672 -0.2408 -0.1323
  541SOL    HW1 2162   0.154   2.866   2.101  1.5545 -0.0656 -1.9443
  541SOL    HW2 2163   0.260   2.917   2.197 -0.5367 -0.6166  1.8179
  541SOL     MW 2164   0.213   2.927   2.126  0.0848 -0.2672 -0.1141
  542SOL     OW 2165   0.988   2.261   2.657  0.0650  0.3420 -0.8285
  542SOL    HW1 2166   0.942   2.230   2.738  0.3268 -0.6675  0.0424
  542SOL    HW2 2167   1.044   2.339   2.692  1.7091 -0.7331 -1.3573
  542SOL     MW 2168   0.989   2.268   2.672  0.3165  0.0670 -0.7834
  543SOL     OW 2169   1.642   2.456   2.802 -0.1952 -0.0524 -0.1474
  543SOL    HW1 2170   1.630   2.412   2.720 -3.9453 -1.4513 -2.0833
  543SOL    HW2 2171   1.686   2.537   2.764  2.1524 -1.5685  0.0683
  543SOL     MW 2172   1.646   2.461   2.786 -0.3802 -0.4370 -0.3744
  544SOL     OW 2173   0.740   0.223   2.697 -0.7910  1.0502 -0.2714
  544SOL    HW1 2174   0.642   0.225   2.710 -0.5131 -2.5248  1.8151
  544SOL    HW2 2175   0.767   0.189   2.609  0.7124  1.6063 -0.1340
  544SOL     MW 2176   0.731   0.219   2.687 -0.5559  0.6519  0.0220
  545SOL     OW 2177   1.483   2.122   2.317  0.3354 -0.1042  0.1641
  545SOL    HW1 2178   1.453   2.159   2.235  1.4537  1.0673  0.8382
  545SOL    HW2 2179   1.581   2.094   2.299  1.9239  0.9529 -0.0326
  545SOL     MW 2180   1.492   2.123   2.304  0.6926  0.1898  0.2271
  546SOL     OW 2181   2.861   1.982   0.091  0.0718 -0.1520 -0.0828
  546SOL    HW1 2182   2.875   2.067   0.050 -0.8009 -0.9789  1.2310
  546SOL    HW2 2183   2.951   1.941   0.075 -2.6596 -2.1668  0.6828
  546SOL     MW 2184   2.874   1.988   0.083 -0.4037 -0.5270  0.1916
  547SOL     OW 2185   0.226   0.049   0.089  0.0679  0.1955 -0.2764
  547SOL    HW1 2186   0.307   0.053   0.036 -0.9844 -0.4199  1.4669
  547SOL    HW2 2187   0.150   0.030   0.031 -1.6483 -1.0536 -1.8464
  547SOL     MW 2188   0.226   0.047   0.074 -0.2974 -0.0505 -0.2535
  548SOL     OW 2189   0.312   2.431   0.213  0.1056  0.5621 -0.3331
  548SOL    HW1 2190   0.308   2.508   0.157  1.2757  1.5391  2.2427
  548SOL    HW2 2191   0.223   2.384   0.194  1.7229  1.1250 -1.0832
  548SOL     MW 2192   0.299   2.435   0.203  0.4734  0.7652 -0.0922
  549SOL     OW 2193   0.879   1.935   2.142 -0.2406 -0.4903 -0.1833
  549SOL    HW1 2194   0.821   1.991   2.083  0.5084 -0.3055  0.1222
  549SOL    HW2 2195   0.823   1.911   2.228  0.2656 -2.0189  1.2013
  549SOL     MW 2196   0.864   1.939   2.145 -0.0750 -0.6676  0.0397
  550SOL     OW 2197   1.895   1.760   2.514  0.4427 -0.3525 -0.0725
  550SOL    HW1 2198   1.848   1.776   2.427 -0.1418 -2.0119 -0.3288
  550SOL    HW2 2199   1.858   1.813   2.590  2.1763 -0.2375 -0.1812
  550SOL     MW 2200   1.884   1.769   2.513  0.5943 -0.5563 -0.1207
  551SOL     OW 2201   0.877   2.215   0.260  0.4943  0.0119 -0.3866
  551SOL    HW1 2202   0.972   2.213   0.240 -1.6910 -2.9570  1.5632
  551SOL    HW2 2203   0.847   2.171   0.186  4.4779  2.5439  0.4187
  551SOL     MW 2204   0.886   2.209   0.248  0.7315 -0.0458 -0.0231
  552SOL     OW 2205   1.759   1.788   2.294 -0.2385  0.0294  0.0071
  552SOL    HW1 2206   1.672   1.754   2.270 -3.7618 -2.2978 -3.8671
  552SOL    HW2 2207   1.827   1.732   2.242 -0.0671  0.4603 -2.8880
  552SOL     MW 2208   1.757   1.776   2.284 -0.6807 -0.2208 -0.8861
  553SOL     OW 2209   1.197   2.308   1.545  0.0943 -0.0995  0.0766
  553SOL    HW1 2210   1.240   2.217   1.551  0.8005  0.0979  1.8113
  553SOL    HW2 2211   1.274   2.362   1.524  0.4467  1.3877 -1.1956
  553SOL     MW 2212   1.213   2.303   1.543  0.2340  0.1228  0.1376
  554SOL     OW 2213   0.476   2.906   2.716  0.4154  0.0307  0.4233
  554SOL    HW1 2214   0.467   2.990   2.663 -2.1599 -1.0087  0.8405
  554SOL    HW2 2215   0.528   2.849   2.660  2.5855 -0.3631  1.9703
  554SOL     MW 2216   0.482   2.910   2.701  0.3619 -0.1584  0.6825
  555SOL     OW 2217   0.578   2.476   2.581 -0.7390  0.3046  0.4824
  555SOL    HW1 2218   0.557   2.396   2.632  2.3762  1.1903  3.7812
  555SOL    HW2 2219   0.667   2.470   2.535 -1.4647  1.4939 -0.9927
  555SOL     MW 2220   0.587   2.464   2.582 -0.4237  0.5784  0.7230
  556SOL     OW 2221   1.043   1.913   0.050  0.6015 -0.6035 -0.1033
  556SOL    HW1 2222   1.055   1.849  -0.019 -0.0950 -1.2663 -0.8445
  556SOL    HW2 2223   1.124   1.925   0.093 -0.5201 -1.2839  0.4367
  556SOL     MW 2224   1.055   1.906   0.047  0.3616 -0.7807 -0.1299
  557SOL     OW 2225   1.025   2.714   0.518  0.3014  0.3730  1.0598
  557SOL    HW1 2226   1.035   2.643   0.445 -2.0900 -1.1566 -0.6760
  557SOL    HW2 2227   0.956   2.774   0.488  0.1444 -0.3818  0.3995
  557SOL     MW 2228   1.017   2.712   0.504 -0.0348  0.0716  0.7437
  558SOL     OW 2229   0.172   2.234   3.029  0.2447 -0.4457  0.6190
  558SOL    HW1 2230   0.094   2.203   2.986  0.7470 -3.2467  1.6094
  558SOL    HW2 2231   0.140   2.283   3.101  0.7464 -0.6893 -1.7317
  558SOL     MW 2232   0.157   2.237   3.033  0.3771 -0.8474  0.4395
  559SOL     OW 2233   1.051   2.351   2.132  0.4978  0.3116  0.1572
  559SOL    HW1 2234   1.137   2.384   2.152 -1.4275 -1.1277  0.4962
  559SOL    HW2 2235   1.032   2.279   2.197  1.3209 -2.1321 -1.3521
  559SOL     MW 2236   1.060   2.346   2.143  0.3523 -0.2007  0.0028
  560SOL     OW 2237   2.071   2.686   0.139  0.6903 -0.3921  0.2905
  560SOL    HW1 2238   2.095   2.774   0.114  1.0115  0.4236 -2.8728
  560SOL    HW2 2239   1.991   2.659   0.090  0.4261 -2.5458  1.2450
  560SOL     MW 2240   2.064   2.694   0.129  0.6979 -0.5686 -0.0009
  561SOL     OW 2241   0.493   2.146   0.101  0.2041  1.0689  0.0992
  561SOL    HW1 2242   0.489   2.182   0.014  1.3179 -3.0665 -1.2070
  561SOL    HW2 2243   0.548   2.211   0.155  1.2118  0.1577 -1.9669
  561SOL     MW 2244   0.499   2.160   0.097  0.4840  0.4031 -0.3457
  562SOL     OW 2245   0.681   2.225   2.325  0.2570  0.6167  0.4973
  562SOL    HW1 2246   0.649   2.289   2.261 -2.0426  1.1822 -1.0661
  562SOL    HW2 2247   0.769   2.226   2.346 -2.1661 -0.2867 -0.3542
  562SOL     MW 2248   0.688   2.233   2.319 -0.3661  0.5721  0.1787
  563SOL     OW 2249   1.236   0.384   0.556  0.1905 -0.4838 -0.4220
  563SOL    HW1 2250   1.168   0.342   0.499 -0.5291  0.0227 -0.9983
  563SOL    HW2 2251   1.211   0.373   0.660  2.4643  0.4127  4.3324
  563SOL     MW 2252   1.224   0.377   0.562  0.3956 -0.2987  0.1292
  564SOL     OW 2253   1.034   2.627   2.362 -0.4475  0.0439 -0.3729
  564SOL    HW1 2254   1.030   2.702   2.309  1.5404  0.4376 -0.1510
  564SOL    HW2 2255   1.048   2.654   2.455  0.2496 -0.7091  0.3696
  564SOL     MW 2256   1.035   2.641   2.367 -0.0932 -0.0035 -0.2457
  565SOL     OW 2257   2.766   2.844   2.542 -0.1346  0.3316 -0.0833
  565SOL    HW1 2258   2.720   2.912   2.494  0.6367  0.1128 -0.8278
  565SOL    HW2 2259   2.742   2.754   2.507  2.7733 -2.2854 -1.8683
  565SOL     MW 2260   2.757   2.841   2.531  0.3508 -0.0425 -0.4170
  566SOL     OW 2261   2.180   1.957   2.344  0.2263 -0.0016  0.3297
  566SOL    HW1 2262   2.190   1.926   2.251 -2.0122 -1.4667  1.5671
  566SOL    HW2 2263   2.265   2.007   2.354 -0.7066  0.0095 -0.2199
  566SOL     MW 2264   2.193   1.960   2.333 -0.1921 -0.1934  0.4204
  567SOL     OW 2265   1.213   3.016   0.032 -0.3116 -0.1910  0.5024
  567SOL    HW1 2266   1.185   3.028   0.126  0.1286 -0.6920  0.0806
  567SOL    HW2 2267   1.266   2.933   0.034  1.7078 -2.1941  1.3070
  567SOL     MW 2268   1.217   3.006   0.045  0.0129 -0.5214  0.5529
  568SOL     OW 2269   1.670   2.061   2.889 -0.1720 -0.1334 -0.0302
  568SOL    HW1 2270   1.733   2.113   2.949  1.5196  0.2005 -1.5278
  568SOL    HW2 2271   1.736   2.021   2.825  1.0364 -1.3647  0.8704
  568SOL     MW 2272   1.687   2.062   2.888  0.2106 -0.2518 -0.1089
  569SOL     OW 2273   0.120   2.289   2.459  0.3263 -0.3992 -0.3685
  569SOL    HW1 2274   0.088   2.322   2.373  1.0370 -1.5581 -0.5248
  569SOL    HW2 2275   0.169   2.355   2.511 -0.7558 -0.6029 -2.3026
  569SOL     MW 2276   0.122   2.302   2.455  0.2773 -0.5790 -0.6443
  570SOL     OW 2277   1.510   0.336   0.507 -0.5105  0.3843 -0.1676
  570SOL    HW1 2278   1.418   0.360   0.537 -3.0990 -1.0740 -0.2156
  570SOL    HW2 2279   1.575   0.368   0.571 -0.7598  0.1387 -2.8329
  570SOL     MW 2280   1.507   0.344   0.520 -0.8849  0.1595 -0.5256
  571SOL     OW 2281   1.344   2.379   2.130 -0.0770  0.1392  0.1086
  571SOL    HW1 2282   1.384   2.420   2.209  0.0786  1.0861  1.2592
  571SOL    HW2 2283   1.411   2.331   2.083 -1.0896  1.3161  0.9736
  571SOL     MW 2284   1.358   2.378   2.134 -0.1901  0.4194  0.3745
  572SOL     OW 2285   1.056   2.573   0.065  0.5660 -0.5524  0.5251
  572SOL    HW1 2286   1.041   2.662   0.038  0.6954  2.1709 -3.8612
  572SOL    HW2 2287   0.965   2.535   0.074  2.0397 -0.6034  0.0738
  572SOL     MW 2288   1.042   2.580   0.063  0.7775 -0.1998 -0.1132
  573SOL     OW 2289   1.148   2.240   0.209 -0.1029  0.1927 -0.1905
  573SOL    HW1 2290   1.230   2.262   0.164  0.5274 -2.9902  1.6880
  573SOL    HW2 2291   1.141   2.324   0.257  0.4547  0.2127  1.4862
  573SOL     MW 2292   1.158   2.254   0.209  0.0538 -0.2246  0.2786
  574SOL     OW 2293   1.131   2.511   0.322 -0.0240 -0.1104 -0.3673
  574SOL    HW1 2294   1.207   2.557   0.340  1.8176 -1.6744  0.3084
  574SOL    HW2 2295   1.115   2.551   0.236  0.7514 -2.3486  2.9367
  574SOL     MW 2296   1.139   2.522   0.313  0.3213 -0.6120  0.1578
  575SOL     OW 2297   3.070   2.184   1.638 -0.0943 -0.3968  0.1237
  575SOL    HW1 2298   3.082   2.100   1.593 -1.7391 -0.1134 -0.7811
  575SOL    HW2 2299   3.135   2.179   1.705  0.5192  0.5162 -1.0685
  575SOL     MW 2300   3.080   2.172   1.641 -0.2304 -0.2389 -0.1530
  576SOL     OW 2301   2.860   1.888   1.983  0.4640 -0.0212 -0.0922
  576SOL    HW1 2302   2.864   1.966   1.921  2.5356 -0.1944 -0.9907
  576SOL    HW2 2303   2.791   1.834   1.937 -2.4293 -1.7448 -1.4661
  576SOL     MW 2304   2.851   1.891   1.969  0.3556 -0.2715 -0.3920
  577SOL     OW 2305   2.126   0.212   0.010 -0.3621 -0.8286 -0.1878
  577SOL    HW1 2306   2.074   0.202  -0.066  1.2416  1.7637 -0.8136
  577SOL    HW2 2307   2.077   0.172   0.088  1.9796 -0.4887  0.3986
  577SOL     MW 2308   2.112   0.206   0.010  0.1585 -0.4417 -0.1930
  578SOL     OW 2309   1.958   2.112   2.376  0.0314  0.1773 -0.1509
  578SOL    HW1 2310   1.868   2.077   2.366 -0.4007  0.3254 -0.3397
  578SOL    HW2 2311   2.023   2.045   2.349  2.0451  2.6842 -1.7702
  578SOL     MW 2312   1.955   2.098   2.371  0.2401  0.5276 -0.3895
  579SOL     OW 2313   0.860   2.447   2.481  0.0943 -0.0785 -0.4699
  579SOL    HW1 2314   0.890   2.378   2.539  2.1722  3.0737  0.1605
  579SOL    HW2 2315   0.932   2.499   2.437  0.9022  1.1529  1.1938
  579SOL     MW 2316   0.873   2.445   2.483  0.4750  0.4999 -0.1672
  580SOL     OW 2317   0.956   2.829   3.098  0.0264  0.5181 -0.6282
  580SOL    HW1 2318   1.035   2.881   3.097  0.3856  1.1434  2.5005
  580SOL    HW2 2319   0.921   2.814   3.013 -0.2140  1.0932  0.2651
  580SOL     MW 2320   0.962   2.834   3.087  0.0421  0.6765 -0.0976
  581SOL     OW 2321   1.122   2.411   1.779 -0.1865  0.7359 -0.1793
  581SOL    HW1 2322   1.193   2.447   1.827 -0.2767 -2.1536 -0.2524
  581SOL    HW2 2323   1.165   2.361   1.703  1.1211 -2.7287 -2.3635
  581SOL     MW 2324   1.137   2.409   1.775 -0.0259 -0.1025 -0.4772
  582SOL     OW 2325   3.099   2.897   2.685  0.0900  0.6170 -0.6882
  582SOL    HW1 2326   3.024   2.963   2.696 -2.3600 -3.5363  1.2720
  582SOL    HW2 2327   3.146   2.903   2.769  1.5122 -0.5928 -1.3637
  582SOL     MW 2328   3.095   2.907   2.698 -0.0456 -0.0906 -0.5187
  583SOL     OW 2329   1.971   2.390   2.631 -0.3131 -0.5108 -0.5309
  583SOL    HW1 2330   2.056   2.421   2.589  2.3142 -2.3095  0.6534
  583SOL    HW2 2331   1.974   2.295   2.635  0.7110 -1.8559 -0.4155
  583SOL     MW 2332   1.983   2.381   2.626  0.1686 -0.9256 -0.3594
  584SOL     OW 2333   0.141   1.904   2.202 -0.0258 -0.2786 -0.0512
  584SOL    HW1 2334   0.166   1.856   2.286  2.1396  2.3103 -1.4118
  584SOL    HW2 2335   0.187   1.985   2.206  0.9640 -2.4693  0.0869
  584SOL     MW 2336   0.150   1.908   2.213  0.3905 -0.2261 -0.2125
  585SOL     OW 2337   1.565   2.694   0.154  0.1396  0.3446  0.3072
  585SOL    HW1 2338   1.527   2.670   0.069  3.0347  1.6258  1.1738
  585SOL    HW2 2339   1.484   2.719   0.202 -1.5734  2.1127 -0.6436
  585SOL     MW 2340   1.549   2.694   0.149  0.2955  0.7469  0.2961
  586SOL     OW 2341   1.336   2.835   2.576 -0.2236 -0.1784 -0.0873
  586SOL    HW1 2342   1.388   2.802   2.494  2.0532 -1.7232 -1.0596
  586SOL    HW2 2343   1.348   2.933   2.571  1.4071  3.5868 -0.8210
  586SOL     MW 2344   1.344   2.844   2.564  0.2920  0.1146 -0.3124
  587SOL     OW 2345   1.361   1.470   2.162 -0.4979 -0.4452  0.0827
  587SOL    HW1 2346   1.336   1.408   2.228  1.9940  0.7013 -0.0651
  587SOL    HW2 2347   1.283   1.478   2.108  1.7825 -2.7202  0.5922
  587SOL     MW 2348   1.348   1.463   2.163  0.1318 -0.5941  0.1304
  588SOL     OW 2349   1.368   1.994   2.661 -0.1628  0.0019  0.6764
  588SOL    HW1 2350   1.384   1.903   2.677  0.4248 -0.4455  2.5650
  588SOL    HW2 2351   1.342   2.033   2.742 -0.9556  2.2546 -2.1193
  588SOL     MW 2352   1.367   1.987   2.674 -0.1898  0.2401  0.5567
  589SOL     OW 2353   1.415   2.023   0.065 -0.0158 -0.1622 -0.3711
  589SOL    HW1 2354   1.435   2.123   0.084 -0.1597  0.1308 -1.0850
  589SOL    HW2 2355   1.376   1.986   0.147  2.9286 -0.2117 -1.4124
  589SOL     MW 2356   1.412   2.031   0.078  0.3537 -0.1300 -0.6027
  590SOL     OW 2357   0.536   2.663   2.188  0.1766 -0.3691 -0.1500
  590SOL    HW1 2358   0.499   2.675   2.103  0.2509  2.2566  1.6040
  590SOL    HW2 2359   0.610   2.723   2.199  0.7691  0.8179  0.8806
  590SOL     MW 2360   0.541   2.672   2.178  0.2646  0.1340  0.2174
  591SOL     OW 2361   2.232   0.697   0.105  0.0979 -0.0664  0.6140
  591SOL    HW1 2362   2.162   0.688   0.164 -2.7110 -1.9878  2.2076
  591SOL    HW2 2363   2.189   0.740   0.026  2.1927  0.9754  0.4868
  591SOL     MW 2364   2.217   0.701   0.102  0.0037 -0.1825  0.8075
  592SOL     OW 2365   1.682   2.955   0.825 -0.3348 -0.4641 -0.0059
  592SOL    HW1 2366   1.670   3.052   0.827  2.5835 -1.4401  1.7106
  592SOL    HW2 2367   1.771   2.943   0.800 -2.2817 -0.9818 -0.1987
  592SOL     MW 2368   1.692   2.966   0.822 -0.2067 -0.6612  0.1951
  593SOL     OW 2369   1.961   0.698   0.798 -0.2269  0.1467  0.3975
  593SOL    HW1 2370   1.889   0.703   0.728 -0.9246 -2.0371 -0.9162
  593SOL    HW2 2371   2.012   0.619   0.769 -1.9193 -0.9893 -1.9716
  593SOL     MW 2372   1.959   0.688   0.785 -0.5423 -0.2913 -0.0884
  594SOL     OW 2373   2.742   1.029   1.405  1.1885 -0.1053  0.4726
  594SOL    HW1 2374   2.833   1.049   1.374 -0.4967  2.7525 -1.3699
  594SOL    HW2 2375   2.683   1.037   1.329  0.5774  0.9150 -2.1222
  594SOL     MW 2376   2.746   1.033   1.391  0.8855  0.4064 -0.1129
  595SOL     OW 2377   0.497   0.915   0.843  0.3095  0.3747 -0.1493
  595SOL    HW1 2378   0.477   0.974   0.773  0.4713  1.0928  0.6973
  595SOL    HW2 2379   0.532   0.964   0.911  0.1777 -2.0074 -1.5004
  595SOL     MW 2380   0.499   0.929   0.843  0.3134  0.1552 -0.2159
  596SOL     OW 2381   2.461   1.345   0.486  0.0184  0.3167  0.2388
  596SOL    HW1 2382   2.462   1.438   0.458  0.9165 -0.4607 -2.0036
  596SOL    HW2 2383   2.503   1.332   0.569 -1.4186  1.0317  0.6085
  596SOL     MW 2384   2.467   1.356   0.493 -0.0527  0.3084 -0.0083
  597SOL     OW 2385   2.218   0.622   1.554  1.4314  0.3104  0.3365
  597SOL    HW1 2386   2.234   0.559   1.622  0.8431 -1.2720 -0.4397
  597SOL    HW2 2387   2.142   0.593   1.499 -3.4934 -2.6995 -0.0815
  597SOL     MW 2388   2.210   0.610   1.556  0.7040 -0.2955  0.1789
  598SOL     OW 2389   2.597   1.046   2.890  0.0297  0.0540  0.3664
  598SOL    HW1 2390   2.624   0.954   2.883 -1.0872 -0.9214 -0.0163
  598SOL    HW2 2391   2.679   1.103   2.883  2.3807 -4.3957  1.3080
  598SOL     MW 2392   2.611   1.042   2.888  0.1925 -0.6618  0.4402
  599SOL     OW 2393   3.081   0.413   2.261 -0.0713  0.4487 -0.1962
  599SOL    HW1 2394   3.077   0.421   2.362  0.7139  1.2157 -1.3355
  599SOL    HW2 2395   3.081   0.502   2.229  1.8696  1.4394  1.1404
  599SOL     MW 2396   3.081   0.425   2.270  0.2884  0.6806 -0.1702
  600SOL     OW 2397   1.848   1.703   0.825  0.0603  0.6779 -0.0219
  600SOL    HW1 2398   1.894   1.733   0.902 -2.4747  0.8756  0.1138
  600SOL    HW2 2399   1.772   1.762   0.827 -0.5853 -0.5795 -0.4217
  600SOL     MW 2400   1.844   1.715   0.835 -0.3594  0.5381 -0.0568
  601SOL     OW 2401   2.554   0.726   0.818  0.2451  0.3193  0.5385
  601SOL    HW1 2402   2.528   0.720   0.910 -0.2568  1.8198 -0.5016
  601SOL    HW2 2403   2.488   0.660   0.771  1.1224 -1.4230 -2.3683
  601SOL     MW 2404   2.542   0.716   0.824  0.2946  0.2874  0.0178
  602SOL     OW 2405   2.273   1.900   0.751 -0.5106 -0.0089  0.0269
  602SOL    HW1 2406   2.198   1.836   0.717 -1.6176  0.0298 -1.9534
  602SOL    HW2 2407   2.219   1.984   0.753  0.9911  2.0513 -0.1031
  602SOL     MW 2408   2.256   1.902   0.747 -0.4585  0.2680 -0.2515
  603SOL     OW 2409   2.957   1.391   1.954  0.2320 -0.0101 -0.3642
  603SOL    HW1 2410   2.936   1.441   2.031 -2.1000  1.2533 -0.4395
  603SOL    HW2 2411   3.009   1.312   1.986 -0.6763  0.0927 -2.5370
  603SOL     MW 2412   2.961   1.387   1.969 -0.1956  0.1702 -0.6608
  604SOL     OW 2413   2.015   1.383   0.381  0.2289 -0.4032  0.4030
  604SOL    HW1 2414   2.075   1.340   0.445 -1.2021  1.3942  2.3347
  604SOL    HW2 2415   1.961   1.435   0.437  0.8887  0.8362 -0.3287
  604SOL     MW 2416   2.016   1.384   0.397  0.1271 -0.0025  0.5614
  605SOL     OW 2417   2.408   1.452   0.816  0.1091  0.0407 -0.5165
  605SOL    HW1 2418   2.418   1.524   0.753  0.6707 -1.2144  0.0154
  605SOL    HW2 2419   2.465   1.386   0.782 -1.6745 -0.9382 -0.0071
  605SOL     MW 2420   2.417   1.453   0.803 -0.0521 -0.2541 -0.3791
  606SOL     OW 2421   2.651   1.759   1.809  0.5440 -0.7167 -0.2988
  606SOL    HW1 2422   2.560   1.753   1.834 -0.0298 -2.6641 -1.9770
  606SOL    HW2 2423   2.656   1.664   1.772  1.4099 -3.0718 -0.3824
  606SOL     MW 2424   2.639   1.746   1.808  0.5825 -1.2844 -0.5313
  607SOL     OW 2425   2.374   1.000   3.061  0.0254 -0.4426 -0.1029
  607SOL    HW1 2426   2.459   1.019   3.022 -0.0261 -1.1313  0.9675
  607SOL    HW2 2427   2.399   1.013   3.156  0.9602 -0.7128  1.5133
  607SOL     MW 2428   2.388   1.004   3.068  0.1419 -0.5691  0.2516
  608SOL     OW 2429   1.852   0.225   0.523  0.7706  0.6411  0.3633
  608SOL    HW1 2430   1.857   0.241   0.433 -1.9601 -2.3148  1.5599
  608SOL    HW2 2431   1.777   0.159   0.531 -1.0917 -0.3509 -1.6157
  608SOL     MW 2432   1.843   0.218   0.513  0.1646  0.1202  0.2601
  609SOL     OW 2433   2.130   1.892   3.083 -0.3507 -0.1961  0.0032
  609SOL    HW1 2434   2.074   1.827   3.038  0.6230  0.9058  0.6845
  609SOL    HW2 2435   2.107   1.874   3.175 -3.0234 -1.8713  0.7121
  609SOL     MW 2436   2.120   1.881   3.089 -0.5748 -0.2717  0.1866
  610SOL     OW 2437   1.837   0.926   1.197  0.4339 -0.1455 -0.3267
  610SOL    HW1 2438   1.850   0.873   1.121  0.3606  0.8838 -0.2129
  610SOL    HW2 2439   1.738   0.928   1.207 -0.0023 -2.3994  1.4758
  610SOL     MW 2440   1.826   0.919   1.188  0.3667 -0.3071 -0.0739
  611SOL     OW 2441   2.484   1.640   0.594 -0.1971  0.1875  0.0408
  611SOL    HW1 2442   2.538   1.604   0.521 -0.5098 -2.3337 -0.0536
  611SOL    HW2 2443   2.465   1.733   0.575  0.3509 -2.3669  3.0397
  611SOL     MW 2444   2.488   1.648   0.582 -0.1660 -0.4822  0.4240
  612SOL     OW 2445   2.941   2.957   0.350 -0.2065 -0.3453 -0.2242
  612SOL    HW1 2446   2.943   2.975   0.441 -1.4896 -0.7104  0.8843
  612SOL    HW2 2447   3.001   2.884   0.341  1.3066 -3.6960  1.6728
  612SOL     MW 2448   2.949   2.949   0.361 -0.1762 -0.8356  0.1724
  613SOL     OW 2449   1.470   1.140   1.014 -0.7018 -0.6172 -0.0578
  613SOL    HW1 2450   1.476   1.227   1.049  0.0075 -1.6439 -0.9418
  613SOL    HW2 2451   1.499   1.090   1.088  1.9326  2.3555  0.0413
  613SOL     MW 2452   1.474   1.145   1.029 -0.2607 -0.3604 -0.1614
  614SOL     OW 2453   2.036   0.462   1.410 -0.0316 -0.1495 -1.0821
  614SOL    HW1 2454   2.036   0.409   1.487 -1.2806  0.9760 -0.2835
  614SOL    HW2 2455   1.953   0.501   1.389  0.0592  0.4989  0.2625
  614SOL     MW 2456   2.025   0.460   1.418 -0.1844  0.0846 -0.7994
  615SOL     OW 2457   2.403   0.715   0.326 -0.0025  0.7999  0.0685
  615SOL    HW1 2458   2.475   0.656   0.352 -0.6408  0.9090 -0.3546
  615SOL    HW2 2459   2.381   0.681   0.232  2.0183 -0.7856 -2.5872
  615SOL     MW 2460   2.410   0.703   0.317  0.1799  0.6051 -0.3377
  616SOL     OW 2461   2.558   0.417   1.608  0.0447  0.3766 -0.1233
  616SOL    HW1 2462   2.565   0.349   1.542 -0.4705  2.1867  0.3933
  616SOL    HW2 2463   2.540   0.493   1.557  0.0336 -0.9095 -1.7002
  616SOL     MW 2464   2.557   0.418   1.593 -0.0247  0.4457 -0.2632
  617SOL     OW 2465   2.875   0.543   1.867 -0.9143 -0.1170 -0.1017
  617SOL    HW1 2466   2.800   0.550   1.927  0.6121 -0.0739  0.8835
  617SOL    HW2 2467   2.881   0.455   1.840 -0.8012  1.1564  4.3916
  617SOL     MW 2468   2.866   0.532   1.871 -0.6980  0.0567  0.6211
  618SOL     OW 2469   2.793   0.228   2.010  0.7069 -0.5587 -0.3694
  618SOL    HW1 2470   2.779   0.304   2.067 -0.8316  0.1489  3.7089
  618SOL    HW2 2471   2.889   0.201   2.031  1.5318  1.5400  1.4521
  618SOL     MW 2472   2.804   0.234   2.020  0.6127 -0.1884  0.4090
  619SOL     OW 2473   2.719   0.706   0.107 -0.4425 -0.1366 -0.3019
  619SOL    HW1 2474   2.746   0.790   0.076  0.2720 -2.2521  1.0789
  619SOL    HW2 2475   2.788   0.689   0.174  2.2364 -1.9416 -0.6314
  619SOL     MW 2476   2.731   0.715   0.112  0.0052 -0.6539 -0.1632
  620SOL     OW 2477   2.207   1.055   0.951 -0.1336 -0.2879 -0.0480
  620SOL    HW1 2478   2.292   1.032   0.910  1.5991  0.8334  1.5394
  620SOL    HW2 2479   2.149   1.002   0.900  2.7628 -1.6258  0.7003
  620SOL     MW 2480   2.211   1.045   0.939  0.4771 -0.3164  0.2601
  621SOL     OW 2481   1.502   2.200   2.000  0.5350  0.5070  0.2041
  621SOL    HW1 2482   1.457   2.115   1.997  0.0856  2.7031  3.1188
  621SOL    HW2 2483   1.593   2.172   2.015 -0.3013 -0.4957  0.8004
  621SOL     MW 2484   1.508   2.185   2.002  0.3654  0.6645  0.6673
  622SOL     OW 2485   2.624   0.269   0.232 -0.4409  0.1023 -0.6753
  622SOL    HW1 2486   2.710   0.305   0.265 -0.0205 -0.3031  0.9641
  622SOL    HW2 2487   2.637   0.175   0.229 -0.2855  1.9367  0.0998
  622SOL     MW 2488   2.637   0.261   0.236 -0.3650  0.2908 -0.3567
  623SOL     OW 2489   2.377   2.759   0.851 -1.0084 -0.0043  0.0815
  623SOL    HW1 2490   2.441   2.824   0.862 -0.5005 -1.0946 -3.3497
  623SOL    HW2 2491   2.323   2.760   0.937 -0.8438  2.0958 -1.1910
  623SOL     MW 2492   2.378   2.768   0.864 -0.9197  0.1290 -0.5391
  624SOL     OW 2493   2.149   1.529   3.068  0.1705 -0.0848 -0.0720
  624SOL    HW1 2494   2.069   1.479   3.045  2.4204  1.1902  1.1420
  624SOL    HW2 2495   2.132   1.616   3.049  0.6978 -3.5481 -0.0667
  624SOL     MW 2496   2.136   1.534   3.062  0.5369 -0.3735  0.0889
  625SOL     OW 2497   2.189   1.880   1.006 -0.2764  0.2383  0.4920
  625SOL    HW1 2498   2.219   1.808   1.061 -0.2139 -0.2192  0.0193
  625SOL    HW2 2499   2.231   1.872   0.918  0.4948  1.9917 -0.9585
  625SOL     MW 2500   2.198   1.870   1.002 -0.1664  0.4093  0.2383
  626SOL     OW 2501   0.173   1.819   2.463  0.7356 -0.0160  0.1976
  626SOL    HW1 2502   0.131   1.751   2.515  0.3280  3.0278 -0.6141
  626SOL    HW2 2503   0.146   1.903   2.493 -0.8212  0.4116 -1.5720
  626SOL     MW 2504   0.164   1.821   2.474  0.4764  0.4420 -0.1430
  627SOL     OW 2505   2.570   0.842   2.570  0.7662 -0.7340  0.3050
  627SOL    HW1 2506   2.495   0.899   2.553  0.0806  2.2087  0.9395
  627SOL    HW2 2507   2.575   0.785   2.493 -1.4566 -0.8117  0.1069
  627SOL     MW 2508   2.561   0.842   2.558  0.3825 -0.3560  0.3626
  628SOL     OW 2509   2.318   1.358   1.283  0.0722  0.2483 -0.1906
  628SOL    HW1 2510   2.273   1.286   1.239 -2.8620  1.9049  2.8689
  628SOL    HW2 2511   2.403   1.372   1.242 -1.2052 -1.8699 -2.5927
  628SOL     MW 2512   2.323   1.350   1.272 -0.4835  0.1874 -0.1039
  629SOL     OW 2513   1.806   0.609   1.308  0.2535  0.3417  0.0190
  629SOL    HW1 2514   1.820   0.670   1.236  1.3071 -0.3620  1.4534
  629SOL    HW2 2515   1.719   0.572   1.286  0.7521  1.2364  0.2518
  629SOL     MW 2516   1.796   0.612   1.295  0.4583  0.3669  0.2390
  630SOL     OW 2517   2.421   1.889   3.033 -0.0491  0.3208  0.0510
  630SOL    HW1 2518   2.451   1.976   3.016 -0.6357 -3.0096  0.9378
  630SOL    HW2 2519   2.327   1.893   3.043 -0.0225 -2.2110  1.4300
  630SOL     MW 2520   2.413   1.901   3.032 -0.1229 -0.4526  0.3499
  631SOL     OW 2521   2.088   1.808   1.513 -0.1026  0.8048 -0.1374
  631SOL    HW1 2522   2.089   1.726   1.556  1.2365  1.4671 -2.7450
  631SOL    HW2 2523   2.011   1.858   1.541  0.3772  2.7486  0.4860
  631SOL     MW 2524   2.078   1.804   1.522  0.1374  1.1487 -0.3992
  632SOL     OW 2525   0.300   1.883   1.551  0.4627 -0.0651 -0.0457
  632SOL    HW1 2526   0.207   1.905   1.553  4.8697 -1.7678 -0.1653
  632SOL    HW2 2527   0.290   1.790   1.536 -0.4735  2.6192 -1.4887
  632SOL     MW 2528   0.286   1.873   1.549  0.9206  0.0645 -0.2519
  633SOL     OW 2529   2.587   0.522   0.398 -0.1566 -0.4159 -0.0124
  633SOL    HW1 2530   2.647   0.545   0.470  0.7014 -0.4032 -1.9634
  633SOL    HW2 2531   2.597   0.426   0.374 -0.3039 -1.1290 -1.8055
  633SOL     MW 2532   2.596   0.512   0.404 -0.0628 -0.5083 -0.5064
  634SOL     OW 2533   2.625   3.097   0.618  0.3352 -0.2064 -0.4762
  634SOL    HW1 2534   2.649   3.184   0.590 -1.2143 -0.6611  0.4490
  634SOL    HW2 2535   2.583   3.059   0.541  2.2402 -1.4971 -0.6959
  634SOL     MW 2536   2.623   3.103   0.604  0.3821 -0.4367 -0.3831
  635SOL     OW 2537   2.628   0.048   1.898  0.2716  0.0202  0.1615
  635SOL    HW1 2538   2.687   0.003   1.828  0.5985 -0.0766  1.6802
  635SOL    HW2 2539   2.680   0.118   1.942 -1.0158  0.4038  2.0364
  635SOL     MW 2540   2.643   0.051   1.895  0.1449  0.0580  0.6093
  636SOL     OW 2541   2.702   1.722   0.763 -0.3743 -0.2908 -0.5548
  636SOL    HW1 2542   2.616   1.720   0.725  0.1790  1.8842 -1.3582
  636SOL    HW2 2543   2.687   1.787   0.834  0.1397 -0.5113 -0.4933
  636SOL     MW 2544   2.689   1.731   0.767 -0.2335 -0.0329 -0.6527
  637SOL     OW 2545   2.851   1.488   0.682 -0.0026 -0.2542  0.0246
  637SOL    HW1 2546   2.925   1.545   0.658  0.8317 -0.1062  0.8403
  637SOL    HW2 2547   2.789   1.551   0.729 -0.1057  1.1294  1.6527
  637SOL     MW 2548   2.853   1.504   0.685  0.0939 -0.0521  0.3471
  638SOL     OW 2549   2.796   0.524   0.587  0.3849 -0.2178 -0.8966
  638SOL    HW1 2550   2.879   0.561   0.563 -2.9603 -0.1905 -1.2741
  638SOL    HW2 2551   2.807   0.544   0.681  1.8258  1.2092 -2.4452
  638SOL     MW 2552   2.809   0.532   0.597  0.1336 -0.0259 -1.1508
  639SOL     OW 2553   1.738   3.080   0.538  0.8327 -0.2543  0.1794
  639SOL    HW1 2554   1.639   3.065   0.533 -1.0395 -3.3832  0.2877
  639SOL    HW2 2555   1.786   2.998   0.503 -0.5801  0.5590 -2.8417
  639SOL     MW 2556   1.731   3.067   0.533  0.3993 -0.5598 -0.2049
  640SOL     OW 2557   0.285   1.410   0.101  0.1827  0.3916 -0.3484
  640SOL    HW1 2558   0.321   1.437   0.010  0.0229  2.0271  1.1595
  640SOL    HW2 2559   0.290   1.316   0.102  0.0913  1.6410 -1.7091
  640SOL     MW 2560   0.291   1.401   0.089  0.1496  0.7723 -0.3289
  641SOL     OW 2561   2.229   0.353   0.409  0.3484  0.1090  0.1391
  641SOL    HW1 2562   2.275   0.298   0.349 -2.2928  1.3260 -0.3092
  641SOL    HW2 2563   2.166   0.297   0.461  1.0293 -0.6626  0.9033
  641SOL     MW 2564   2.227   0.339   0.408  0.0898  0.1678  0.1808
  642SOL     OW 2565   0.072   0.028   0.550  0.6766 -0.5530 -0.1999
  642SOL    HW1 2566   0.043   0.108   0.499  1.5055  0.1779 -1.0671
  642SOL    HW2 2567  -0.010   0.021   0.601  1.5455 -0.3863  1.0183
  642SOL     MW 2568   0.057   0.038   0.550  0.9006 -0.4346 -0.1536
  643SOL     OW 2569   2.087   0.330   1.647  0.2600 -0.3898  0.5620
  643SOL    HW1 2570   2.014   0.303   1.705 -0.5866 -0.1378  0.8890
  643SOL    HW2 2571   2.113   0.258   1.591  1.2219 -2.0352  1.5995
  643SOL     MW 2572   2.081   0.317   1.647  0.2752 -0.5736  0.7420
  644SOL     OW 2573   2.634   1.889   0.969 -0.2170  0.1692 -0.4815
  644SOL    HW1 2574   2.630   1.833   1.048 -0.0087 -1.6283 -0.6835
  644SOL    HW2 2575   2.552   1.939   0.965 -1.2049  2.5962  2.7112
  644SOL     MW 2576   2.623   1.888   0.979 -0.3198  0.2523 -0.0869
  645SOL     OW 2577   2.779   0.864   0.755  0.4277  0.2775  0.4072
  645SOL    HW1 2578   2.871   0.829   0.744  0.1921 -1.8180  1.7384
  645SOL    HW2 2579   2.718   0.794   0.761  1.9584 -0.3459 -0.9049
  645SOL     MW 2580   2.783   0.850   0.755  0.5986 -0.0812  0.4097
  646SOL     OW 2581   0.162   2.239   0.851 -0.1764  0.2790  0.1320
  646SOL    HW1 2582   0.158   2.137   0.843  0.0618  0.3352 -0.3988
  646SOL    HW2 2583   0.122   2.271   0.772  1.9092  0.0170  0.3845
  646SOL     MW 2584   0.156   2.230   0.840  0.1302  0.2518  0.0953
  647SOL     OW 2585   2.774   0.532   3.002  0.3512  0.4529 -0.2549
  647SOL    HW1 2586   2.715   0.457   3.018 -0.8914 -2.1404  0.5816
  647SOL    HW2 2587   2.758   0.606   3.064 -0.1279 -0.8280 -0.1222
  647SOL     MW 2588   2.764   0.532   3.012  0.1240 -0.0583 -0.1270
  648SOL     OW 2589   2.231   0.650   1.131 -0.2622 -0.4546  0.3146
  648SOL    HW1 2590   2.258   0.573   1.178 -0.2231  1.8362 -2.3843
  648SOL    HW2 2591   2.221   0.723   1.193  2.7272  0.6601 -1.0977
  648SOL     MW 2592   2.233   0.650   1.145  0.1374 -0.0053 -0.2279
  649SOL     OW 2593   2.402   2.703   1.261 -0.3658  0.2056  0.3709
  649SOL    HW1 2594   2.488   2.745   1.265 -1.2171 -2.7670 -1.7033
  649SOL    HW2 2595   2.407   2.631   1.199 -0.9802 -1.6491  0.4885
  649SOL     MW 2596   2.414   2.699   1.254 -0.5591 -0.4313  0.1128
  650SOL     OW 2597   2.769   0.249   0.559 -0.4027  0.5890  0.0042
  650SOL    HW1 2598   2.791   0.343   0.558 -0.7611  0.1957  0.3923
  650SOL    HW2 2599   2.852   0.203   0.549 -0.4215 -0.4068 -4.4549
  650SOL     MW 2600   2.783   0.256   0.557 -0.4525  0.4057 -0.5329
  651SOL     OW 2601   0.034   0.436   1.026  0.7521 -0.0174 -0.1808
  651SOL    HW1 2602   0.080   0.491   0.957 -0.0116 -0.3963 -0.2213
  651SOL    HW2 2603  -0.042   0.489   1.051 -1.6252 -0.2841  1.7034
  651SOL     MW 2604   0.030   0.450   1.020  0.3377 -0.1026  0.0624
  652SOL     OW 2605   2.392   1.421   3.009 -0.2813  0.5640 -0.1958
  652SOL    HW1 2606   2.446   1.488   2.969 -0.3620  0.3170  1.7747
  652SOL    HW2 2607   2.307   1.469   3.031 -1.6917  0.0379  0.5525
  652SOL     MW 2608   2.388   1.436   3.007 -0.4780  0.4620  0.1629
  653SOL     OW 2609   1.827   0.326   0.276 -0.2745  0.2972 -0.3439
  653SOL    HW1 2610   1.828   0.249   0.213  1.2931  1.2564 -1.3881
  653SOL    HW2 2611   1.875   0.395   0.235 -1.7824  1.2818 -1.0470
  653SOL     MW 2612   1.833   0.325   0.262 -0.2666  0.5537 -0.5744
  654SOL     OW 2613   2.432   0.989   0.786  0.1915  0.5912 -0.1806
  654SOL    HW1 2614   2.380   0.988   0.708  1.2052  1.2686 -1.6590
  654SOL    HW2 2615   2.486   0.905   0.799  0.5508 -3.6471  1.0473
  654SOL     MW 2616   2.433   0.978   0.777  0.3727  0.1214 -0.2137
  655SOL     OW 2617   2.892   0.912   0.332 -0.2617 -0.1970 -0.8578
  655SOL    HW1 2618   2.848   0.960   0.401  0.5170  0.8608 -2.2882
  655SOL    HW2 2619   2.952   0.856   0.379  0.5170  0.8116 -0.2917
  655SOL     MW 2620   2.894   0.911   0.347 -0.0562  0.0756 -0.9718
  656SOL     OW 2621   1.823   2.641   1.410 -0.3448  0.0010  0.1269
  656SOL    HW1 2622   1.870   2.721   1.386  0.5179  0.0066  1.8858
  656SOL    HW2 2623   1.876   2.567   1.376 -1.3012 -0.9151 -1.4117
  656SOL     MW 2624   1.836   2.642   1.403 -0.3571 -0.1191  0.1560
  657SOL     OW 2625   0.077   1.795   1.160  0.6962 -0.5009 -0.3700
  657SOL    HW1 2626   0.154   1.847   1.139  0.4787  0.5643 -0.6624
  657SOL    HW2 2627   0.109   1.738   1.228  1.8485  1.1524 -1.4416
  657SOL     MW 2628   0.091   1.795   1.166  0.8195 -0.1422 -0.5500
  658SOL     OW 2629   2.684   1.360   0.229 -0.8846  0.5619 -0.5297
  658SOL    HW1 2630   2.668   1.273   0.265 -0.3214 -0.9635  2.0273
  658SOL    HW2 2631   2.703   1.424   0.299 -0.4552  2.1932  1.4937
  658SOL     MW 2632   2.684   1.357   0.243 -0.7536  0.5759  0.0746
  659SOL     OW 2633   2.145   1.461   1.034 -0.0815 -0.0372  0.2833
  659SOL    HW1 2634   2.233   1.421   1.014  0.0566 -3.3940 -0.1451
  659SOL    HW2 2635   2.123   1.432   1.117 -2.5240  0.3857 -2.7639
  659SOL     MW 2636   2.154   1.452   1.043 -0.3856 -0.4243 -0.1753
  660SOL     OW 2637   2.097   1.568   1.643 -0.3704 -0.6188 -0.1769
  660SOL    HW1 2638   2.097   1.560   1.741 -0.5423  2.6495  0.3935
  660SOL    HW2 2639   2.021   1.531   1.599  1.0705 -1.8217 -2.7694
  660SOL     MW 2640   2.087   1.562   1.650 -0.2030 -0.3463 -0.4437
  661SOL     OW 2641   2.407   0.985   0.256 -0.3293  0.1770  0.0259
  661SOL    HW1 2642   2.487   1.023   0.302  0.0913  1.2290 -2.3090
  661SOL    HW2 2643   2.425   0.886   0.270 -1.5226 -0.8999 -0.5245
  661SOL     MW 2644   2.420   0.977   0.264 -0.4313  0.1737 -0.3548
  662SOL     OW 2645   2.583   2.949   0.862  0.4133  0.2275 -0.5229
  662SOL    HW1 2646   2.534   3.017   0.909  1.4459 -0.6035 -1.5240
  662SOL    HW2 2647   2.610   2.993   0.778  0.1958  0.6662  1.8396
  662SOL     MW 2648   2.580   2.963   0.857  0.5208  0.1757 -0.3433
  663SOL     OW 2649   2.698   1.580   0.439  0.3325 -0.5380 -0.2502
  663SOL    HW1 2650   2.731   1.641   0.373  0.0904  1.7897 -1.1777
  663SOL    HW2 2651   2.766   1.570   0.501 -2.4052  2.3401 -2.3465
  663SOL     MW 2652   2.711   1.586   0.438 -0.0607  0.1488 -0.6491
  664SOL     OW 2653   2.530   1.484   1.507  0.2102  0.0019  0.0117
  664SOL    HW1 2654   2.528   1.581   1.508  3.1562  0.4811  2.7585
  664SOL    HW2 2655   2.435   1.456   1.517  0.3035  1.4130  1.1924
  664SOL     MW 2656   2.517   1.493   1.508  0.6112  0.2513  0.5299
  665SOL     OW 2657   2.851   0.839   2.110 -0.1927 -0.1585 -0.1333
  665SOL    HW1 2658   2.830   0.853   2.016 -1.8297  0.5380  1.2650
  665SOL    HW2 2659   2.926   0.777   2.107 -0.5544 -1.2786 -5.4248
  665SOL     MW 2660   2.858   0.833   2.097 -0.4564 -0.2144 -0.6469
  666SOL     OW 2661   2.773   3.021   1.698  0.0140  0.0248 -0.1222
  666SOL    HW1 2662   2.801   3.035   1.611 -1.0073  0.7304 -0.3266
  666SOL    HW2 2663   2.716   2.944   1.692 -0.4432 -1.0680  1.0156
  666SOL     MW 2664   2.769   3.013   1.686 -0.1811 -0.0263  0.0009
  667SOL     OW 2665   2.003   2.734   1.748  0.2146  0.2072  0.0073
  667SOL    HW1 2666   2.045   2.698   1.826 -1.2239  1.7003 -1.0862
  667SOL    HW2 2667   2.065   2.801   1.724 -0.0252 -0.6062  0.4187
  667SOL     MW 2668   2.017   2.738   1.755 -0.0068  0.2969 -0.0827
  668SOL     OW 2669   2.775   0.567   0.852 -0.0932  0.2516 -0.4925
  668SOL    HW1 2670   2.820   0.606   0.934 -0.9165  0.7938  0.5004
  668SOL    HW2 2671   2.695   0.616   0.846 -1.3337  0.3765 -3.2356
  668SOL     MW 2672   2.770   0.579   0.862 -0.3655  0.3396 -0.7235
  669SOL     OW 2673   0.210   0.989   0.706 -0.2301 -0.2727 -0.3355
  669SOL    HW1 2674   0.164   1.008   0.790 -0.1916 -1.6759 -1.3350
  669SOL    HW2 2675   0.288   1.053   0.689  0.5251 -1.7865 -3.1380
  669SOL     MW 2676   0.214   1.000   0.715 -0.1254 -0.6576 -0.8372
  670SOL     OW 2677   2.898   0.336   0.268 -0.1927  0.0374  0.0289
  670SOL    HW1 2678   2.905   0.280   0.187 -0.0813 -0.2954 -0.7017
  670SOL    HW2 2679   2.884   0.428   0.247 -0.6413  2.8188  2.8521
  670SOL     MW 2680   2.897   0.341   0.254 -0.2372  0.3604  0.3050
  671SOL     OW 2681   2.005   3.032   1.508  0.1592  0.2743 -0.3849
  671SOL    HW1 2682   1.936   3.007   1.441  0.8272 -1.2817 -3.9397
  671SOL    HW2 2683   1.957   3.071   1.582  0.3779 -1.6221  0.8275
  671SOL     MW 2684   1.989   3.034   1.509  0.2762 -0.1812 -0.6939
  672SOL     OW 2685   1.884   1.748   1.310  0.2041  0.4876 -0.1267
  672SOL    HW1 2686   1.883   1.825   1.374 -0.2830 -0.4113 -2.4918
  672SOL    HW2 2687   1.907   1.786   1.217  0.8729 -1.5366 -1.9724
  672SOL     MW 2688   1.887   1.763   1.306  0.2281  0.1019 -0.6823
  673SOL     OW 2689   2.788   1.089   0.571  0.0106 -0.4483 -0.0788
  673SOL    HW1 2690   2.784   1.019   0.644  0.2852 -3.0767  2.7915
  673SOL    HW2 2691   2.865   1.137   0.590 -2.1835  1.0532 -1.4316
  673SOL     MW 2692   2.798   1.086   0.583 -0.2426 -0.5970  0.1214
  674SOL     OW 2693   2.464   0.005   1.259 -0.3969  0.0681 -0.1055
  674SOL    HW1 2694   2.407   0.041   1.188 -1.3835  1.8599 -1.5223
  674SOL    HW2 2695   2.481  -0.084   1.246 -0.6217  0.1810 -0.8188
  674SOL     MW 2696   2.459  -0.002   1.248 -0.5567  0.3194 -0.3865
  675SOL     OW 2697   3.027   0.892   1.102 -0.2207 -0.2671 -0.3103
  675SOL    HW1 2698   3.085   0.907   1.180  1.4055  3.1922 -1.4309
  675SOL    HW2 2699   3.060   0.966   1.039  0.0397  0.9839  0.5268
  675SOL     MW 2700   3.039   0.904   1.104  0.0282  0.3544 -0.3477
  676SOL     OW 2701   2.902   1.445   1.703 -0.1434 -0.6391 -0.3094
  676SOL    HW1 2702   2.870   1.361   1.670 -2.2756  0.8069  0.5914
  676SOL    HW2 2703   2.925   1.431   1.797  1.0431  1.0044  4.2513
  676SOL     MW 2704   2.901   1.432   1.711 -0.2682 -0.2315  0.4112
  677SOL     OW 2705   2.452   0.597   1.965  0.3397  0.7956 -0.1444
  677SOL    HW1 2706   2.400   0.535   1.902 -1.1830  0.9644 -1.6714
  677SOL    HW2 2707   2.442   0.683   1.927  1.6752  1.9219 -2.9258
  677SOL     MW 2708   2.444   0.600   1.951  0.3150  0.9665 -0.7128
  678SOL     OW 2709   2.404   1.614   0.329 -0.0212 -0.8327 -0.2351
  678SOL    HW1 2710   2.315   1.645   0.350  1.3165 -0.6409  4.1169
  678SOL    HW2 2711   2.399   1.541   0.266 -0.6629  1.9078 -0.5373
  678SOL     MW 2712   2.392   1.609   0.324  0.0706 -0.4458  0.2992
  679SOL     OW 2713   2.258   0.407   1.253 -0.3795 -0.0947 -0.1373
  679SOL    HW1 2714   2.231   0.323   1.212 -1.0716 -0.3460  3.1456
  679SOL    HW2 2715   2.181   0.418   1.307  2.6786 -2.2875  0.3812
  679SOL     MW 2716   2.244   0.397   1.255 -0.0674 -0.4172  0.3643
  680SOL     OW 2717   2.458   0.100   1.509  0.8434  0.1784  0.1451
  680SOL    HW1 2718   2.378   0.156   1.485 -0.9391  0.2455 -0.8586
  680SOL    HW2 2719   2.476   0.049   1.435 -0.2026 -0.4630  0.2748
  680SOL     MW 2720   2.450   0.100   1.496  0.4702  0.1026  0.0298
  681SOL     OW 2721   0.245   0.605   1.465  0.2793 -0.5927 -0.3580
  681SOL    HW1 2722   0.228   0.535   1.528 -0.4525  4.5460  2.9515
  681SOL    HW2 2723   0.219   0.561   1.376  3.2633 -2.1270  0.0945
  681SOL     MW 2724   0.239   0.590   1.461  0.5764 -0.1171  0.1383
  682SOL     OW 2725   0.082   2.838   1.542 -0.5133 -0.1039 -0.0830
  682SOL    HW1 2726   0.159   2.897   1.536  1.3177  1.0477 -0.5487
  682SOL    HW2 2727   0.020   2.871   1.600 -0.6726  0.6994 -0.4013
  682SOL     MW 2728   0.084   2.850   1.549 -0.2927  0.1540 -0.1865
  683SOL     OW 2729   2.078   0.792   3.006 -0.2925 -0.1430 -0.4109
  683SOL    HW1 2730   2.013   0.743   3.058  2.2992  3.5063  3.3833
  683SOL    HW2 2731   2.066   0.882   3.033  0.2679  1.2448  0.8862
  683SOL     MW 2732   2.068   0.797   3.016  0.1234  0.5216  0.2609
  684SOL     OW 2733   2.063   1.740   0.645 -0.6788  0.2201  0.6162
  684SOL    HW1 2734   2.064   1.686   0.561  0.6292 -0.9336  1.3525
  684SOL    HW2 2735   1.980   1.711   0.689 -1.0612  2.3191 -2.2005
  684SOL     MW 2736   2.052   1.729   0.639 -0.5567  0.3448  0.3417
  685SOL     OW 2737   2.687   1.704   1.183 -0.0813  0.1037  0.2904
  685SOL    HW1 2738   2.692   1.682   1.276  2.3251 -0.7734 -1.0905
  685SOL    HW2 2739   2.631   1.632   1.161 -1.4602  1.7023 -0.3496
  685SOL     MW 2740   2.680   1.691   1.192  0.0543  0.1989  0.0238
  686SOL     OW 2741   2.883   0.663   1.615 -0.0742  0.4425  0.2307
  686SOL    HW1 2742   2.892   0.626   1.699  0.9824  1.1521 -2.5230
  686SOL    HW2 2743   2.977   0.676   1.589 -0.5006 -0.7026  0.3442
  686SOL     MW 2744   2.896   0.660   1.623  0.0089  0.3850 -0.1176
  687SOL     OW 2745   2.123   0.213   1.145 -0.1087  0.1953  0.4189
  687SOL    HW1 2746   2.147   0.155   1.076 -1.4565  0.9546  1.3233
  687SOL    HW2 2747   2.063   0.282   1.108 -0.1303 -1.2323  0.2227
  687SOL     MW 2748   2.118   0.215   1.131 -0.2893  0.1071  0.5123
  688SOL     OW 2749   2.456   0.586   1.409  0.4402 -0.2771  0.4299
  688SOL    HW1 2750   2.432   0.503   1.368 -0.3400  1.3448 -0.0078
  688SOL    HW2 2751   2.375   0.600   1.468  0.9940  1.6503  1.1834
  688SOL     MW 2752   2.442   0.577   1.412  0.4103  0.1912  0.4715
  689SOL     OW 2753   2.510   0.744   2.977 -0.0466 -0.3422 -0.1481
  689SOL    HW1 2754   2.463   0.819   3.017 -0.7195 -0.2043  1.0969
  689SOL    HW2 2755   2.558   0.711   3.050  1.9684 -2.1955  0.0779
  689SOL     MW 2756   2.510   0.750   2.992  0.1305 -0.5685  0.0460
  690SOL     OW 2757   2.007   0.885   1.835  0.2883  0.2976 -0.2791
  690SOL    HW1 2758   1.994   0.801   1.879  1.1517 -0.1872 -0.2795
  690SOL    HW2 2759   2.074   0.868   1.767 -0.2540  0.4908  0.4607
  690SOL     MW 2760   2.014   0.871   1.832  0.3307  0.2591 -0.1815
  691SOL     OW 2761   2.415   0.300   0.881  0.1994  0.1409  0.1367
  691SOL    HW1 2762   2.501   0.321   0.914 -1.2018 -2.9130  0.4802
  691SOL    HW2 2763   2.369   0.380   0.891  3.9873  0.2870 -1.5228
  691SOL     MW 2764   2.420   0.314   0.886  0.5143 -0.2428 -0.0369
  692SOL     OW 2765   2.860   1.599   1.437 -0.4528  0.0733 -0.1240
  692SOL    HW1 2766   2.837   1.570   1.528 -0.6892  2.4586 -0.1370
  692SOL    HW2 2767   2.867   1.695   1.432 -1.0630 -1.0727  0.1688
  692SOL     MW 2768   2.858   1.608   1.448 -0.5645  0.2368 -0.0871
  693SOL     OW 2769   2.340   0.389   0.033 -0.6352 -0.0039 -0.1953
  693SOL    HW1 2770   2.259   0.338   0.008  2.6686  0.4801 -3.0924
  693SOL    HW2 2771   2.315   0.475   0.020  1.4509 -0.8797 -3.1591
  693SOL     MW 2772   2.326   0.394   0.028  0.0759 -0.0556 -0.9686
  694SOL     OW 2773   1.902   1.173   1.167 -0.0919 -0.6197  0.6733
  694SOL    HW1 2774   1.995   1.172   1.162 -2.0144  0.3237 -2.1656
  694SOL    HW2 2775   1.881   1.082   1.177 -1.8117  2.9283 -1.2507
  694SOL     MW 2776   1.911   1.161   1.168 -0.5724 -0.0271  0.0449
  695SOL     OW 2777   2.955   1.406   1.270 -0.3377 -0.1320  0.3049
  695SOL    HW1 2778   2.934   1.430   1.177 -2.3046  2.2673 -2.9971
  695SOL    HW2 2779   2.912   1.475   1.327 -1.0376 -0.9247 -1.2411
  695SOL     MW 2780   2.947   1.419   1.265 -0.6895  0.0800 -0.3347
  696SOL     OW 2781   2.023   1.428   0.786 -0.5598 -0.3982  0.2095
  696SOL    HW1 2782   2.077   1.445   0.860 -0.1479  0.0801 -0.1709
  696SOL    HW2 2783   1.967   1.355   0.819 -2.1171  0.1596 -1.7080
  696SOL     MW 2784   2.023   1.421   0.800 -0.7109 -0.2615 -0.0937
  697SOL     OW 2785   2.940   1.060   2.248  0.5411 -0.1512  0.0028
  697SOL    HW1 2786   2.859   1.115   2.249 -2.2432  2.5799 -0.8477
  697SOL    HW2 2787   2.904   0.978   2.220 -0.5755  1.6321  0.6872
  697SOL     MW 2788   2.924   1.056   2.244  0.0264  0.4444 -0.0191
  698SOL     OW 2789   2.595   0.321   3.042  0.2331  0.4099  0.4368
  698SOL    HW1 2790   2.509   0.356   3.058  0.7131  0.0754  0.4485
  698SOL    HW2 2791   2.616   0.284   3.131  0.7149  0.6057 -0.2314
  698SOL     MW 2792   2.587   0.321   3.056  0.3600  0.3916  0.3502
  699SOL     OW 2793   1.898   1.619   2.080  0.0778 -0.2820 -0.1894
  699SOL    HW1 2794   1.852   1.538   2.058 -3.2368  1.5880  1.7233
  699SOL    HW2 2795   1.977   1.598   2.025  0.9315 -1.7404 -1.0531
  699SOL     MW 2796   1.903   1.605   2.070 -0.2469 -0.2277 -0.0510
  700SOL     OW 2797   2.672   0.838   1.603 -0.1225  0.2899  0.3939
  700SOL    HW1 2798   2.716   0.899   1.545 -0.1159  1.2612 -0.1719
  700SOL    HW2 2799   2.717   0.758   1.590 -2.8316  0.6602  1.3829
  700SOL     MW 2800   2.684   0.835   1.593 -0.4791  0.4669  0.4497
  701SOL     OW 2801   1.695   1.122   2.515  0.0487 -0.5714  0.0321
  701SOL    HW1 2802   1.784   1.139   2.498 -1.0960 -1.3245  2.4614
  701SOL    HW2 2803   1.680   1.161   2.598 -0.4249  1.1318 -1.0799
  701SOL     MW 2804   1.705   1.129   2.524 -0.1648 -0.4460  0.2059
  702SOL     OW 2805   2.098   0.463   0.731 -0.3722  0.6238 -0.5542
  702SOL    HW1 2806   2.107   0.375   0.693 -0.1518 -0.7318 -1.7487
  702SOL    HW2 2807   2.165   0.511   0.675 -1.0762 -1.3448 -3.2640
  702SOL     MW 2808   2.108   0.458   0.718 -0.4360  0.1852 -1.0693
  703SOL     OW 2809   2.717   1.250   0.951 -0.2529  0.1901  0.0065
  703SOL    HW1 2810   2.678   1.242   0.865  1.0907  1.3477 -0.1462
  703SOL    HW2 2811   2.731   1.166   0.996  0.8442  2.8201  0.8448
  703SOL     MW 2812   2.714   1.238   0.945  0.0692  0.6898  0.0970
  704SOL     OW 2813   3.074   1.243   0.122  0.1208  0.2123 -0.4051
  704SOL    HW1 2814   2.976   1.247   0.100 -1.6920  1.7788 -2.3586
  704SOL    HW2 2815   3.079   1.210   0.213  1.6630  1.6730 -1.0037
  704SOL     MW 2816   3.061   1.239   0.131  0.0851  0.6117 -0.7418
  705SOL     OW 2817   2.059   1.553   1.298 -0.1151 -0.1104  0.0105
  705SOL    HW1 2818   1.996   1.624   1.312  0.8958 -0.5295  0.6052
  705SOL    HW2 2819   2.110   1.546   1.378 -2.2403 -0.0944 -0.6022
  705SOL     MW 2820   2.057   1.561   1.311 -0.2621 -0.1636  0.0081
  706SOL     OW 2821   3.002   1.227   0.668  0.3708 -0.1508  0.8224
  706SOL    HW1 2822   3.054   1.243   0.586  1.0707  2.6688  0.0848
  706SOL    HW2 2823   2.947   1.305   0.675 -1.7567 -0.6958 -0.5236
  706SOL     MW 2824   3.001   1.239   0.658  0.1825  0.1493  0.5475
  707SOL     OW 2825   2.374   0.035   0.960 -0.4342 -0.2734  0.2070
  707SOL    HW1 2826   2.386   0.128   0.945 -0.8363  1.9422  0.3246
  707SOL    HW2 2827   2.311   0.008   0.888 -0.0685  0.4176 -1.6085
  707SOL     MW 2828   2.368   0.043   0.949 -0.4390  0.1101 -0.0170
  708SOL     OW 2829   2.412   1.379   0.184 -0.0504  0.0885 -0.1757
  708SOL    HW1 2830   2.503   1.357   0.195 -0.5878  1.4586  2.6728
  708SOL    HW2 2831   2.415   1.400   0.088  1.9154 -0.2529  1.3198
  708SOL     MW 2832   2.425   1.379   0.173  0.1381  0.2242  0.3975
  709SOL     OW 2833   1.758   1.645   0.231 -0.2977  0.4665 -0.4629
  709SOL    HW1 2834   1.751   1.651   0.136  0.9953  0.9041 -0.4864
  709SOL    HW2 2835   1.667   1.654   0.271 -1.1957  0.7848  1.0471
  709SOL     MW 2836   1.745   1.647   0.224 -0.2456  0.5663 -0.2668
  710SOL     OW 2837   2.175   1.171   1.181  1.1800  0.5363  0.5865
  710SOL    HW1 2838   2.216   1.141   1.094  0.1742 -1.7545  3.3460
  710SOL    HW2 2839   2.202   1.099   1.247  0.0513  0.4763  0.4053
  710SOL     MW 2840   2.184   1.158   1.178  0.8984  0.2261  0.9267
  711SOL     OW 2841   2.402   0.157   1.768 -0.3622 -0.3787  0.0268
  711SOL    HW1 2842   2.488   0.124   1.812  2.1106  2.6109 -0.7123
  711SOL    HW2 2843   2.406   0.120   1.674  2.3884 -4.3573  0.2608
  711SOL     MW 2844   2.414   0.148   1.761  0.3270 -0.5092 -0.0399
  712SOL     OW 2845   1.896   0.610   3.092 -0.4507 -0.1360 -0.6289
  712SOL    HW1 2846   1.842   0.653   3.023  1.1122 -1.5822  1.5565
  712SOL    HW2 2847   1.849   0.640   3.171  1.2983  0.1422  2.1294
  712SOL     MW 2848   1.883   0.620   3.094 -0.0137 -0.2901  0.0234
  713SOL     OW 2849   2.523   0.694   1.086 -0.1367 -0.2098 -0.0317
  713SOL    HW1 2850   2.520   0.602   1.121 -1.9087 -1.9717  0.6465
  713SOL    HW2 2851   2.432   0.723   1.112  1.1445  2.3664  1.5189
  713SOL     MW 2852   2.510   0.686   1.094 -0.2015 -0.1023  0.2623
  714SOL     OW 2853   2.228   0.168   1.970 -0.2319 -0.6993  0.3801
  714SOL    HW1 2854   2.274   0.122   2.043  2.1403  0.0867  2.2418
  714SOL    HW2 2855   2.287   0.175   1.894 -2.9159 -0.3471 -1.3074
  714SOL     MW 2856   2.242   0.163   1.970 -0.2730 -0.5491  0.4031
  715SOL     OW 2857   1.809   2.028   1.755  0.2166 -0.2019 -0.0909
  715SOL    HW1 2858   1.900   2.053   1.750 -1.8386  0.9361 -1.5785
  715SOL    HW2 2859   1.783   1.953   1.819 -0.3520 -2.0651  0.4492
  715SOL     MW 2860   1.818   2.022   1.763 -0.1296 -0.2976 -0.2159
  716SOL     OW 2861   2.399   0.569   0.668  0.4804 -0.0434  0.0693
  716SOL    HW1 2862   2.444   0.490   0.623  2.3364 -0.4654 -2.6891
  716SOL    HW2 2863   2.355   0.617   0.593  0.8329 -1.6595  2.0306
  716SOL     MW 2864   2.399   0.565   0.652  0.7718 -0.3123 -0.0359
  717SOL     OW 2865   2.830   1.597   2.825  0.2825  0.6657 -0.2495
  717SOL    HW1 2866   2.916   1.598   2.858 -1.0839  0.3900 -2.4345
  717SOL    HW2 2867   2.789   1.672   2.872 -0.4865 -1.5840 -2.8673
  717SOL     MW 2868   2.836   1.607   2.836  0.0007  0.3325 -0.8832
  718SOL     OW 2869   2.647   1.341   1.286 -0.0093 -0.1075 -0.6135
  718SOL    HW1 2870   2.621   1.364   1.372 -1.8850  0.5493 -0.0701
  718SOL    HW2 2871   2.738   1.326   1.296 -0.6538 -0.3197 -2.4478
  718SOL     MW 2872   2.656   1.342   1.298 -0.3419 -0.0489 -0.7838
  719SOL     OW 2873   2.211   1.302   0.588  0.2097  0.0867 -0.4593
  719SOL    HW1 2874   2.293   1.335   0.567 -1.2222  1.2861  2.8053
  719SOL    HW2 2875   2.190   1.366   0.655  1.3061 -0.8106 -1.4738
  719SOL     MW 2876   2.219   1.315   0.594  0.1654  0.1265 -0.1624
  720SOL     OW 2877   2.833   1.236   0.027  0.1653  0.8511  0.0724
  720SOL    HW1 2878   2.805   1.146   0.051  2.6496 -0.1922  1.0547
  720SOL    HW2 2879   2.779   1.299   0.074 -0.7427  2.4722 -0.6672
  720SOL     MW 2880   2.822   1.232   0.037  0.3733  0.9273  0.1044
  721SOL     OW 2881   2.493   0.862   1.364  0.9654 -0.2915 -0.0151
  721SOL    HW1 2882   2.498   0.768   1.339  0.2072 -2.2384  2.2408
  721SOL    HW2 2883   2.575   0.883   1.413  2.1595  1.4243  3.7538
  721SOL     MW 2884   2.504   0.853   1.367  1.0229 -0.3220  0.7798
  722SOL     OW 2885   2.598   1.142   0.382 -0.4316 -0.4376  0.4927
  722SOL    HW1 2886   2.534   1.208   0.417 -1.3534  0.7848 -3.6314
  722SOL    HW2 2887   2.664   1.136   0.451  1.4586  2.4455 -2.8223
  722SOL     MW 2888   2.598   1.150   0.395 -0.3038  0.1041 -0.4888
  723SOL     OW 2889   2.282   1.350   1.566 -0.0534 -0.8598 -0.0347
  723SOL    HW1 2890   2.286   1.332   1.472 -0.6626 -1.1687  0.3089
  723SOL    HW2 2891   2.224   1.420   1.601 -2.0586  2.9796 -0.0095
  723SOL     MW 2892   2.275   1.357   1.558 -0.3983 -0.3940  0.0139
  724SOL     OW 2893   2.492   0.313   0.604  0.1326  0.3290 -0.0303
  724SOL    HW1 2894   2.469   0.304   0.697 -0.9936 -0.0175 -0.3678
  724SOL    HW2 2895   2.585   0.298   0.600 -0.9619  1.0185  1.6111
  724SOL     MW 2896   2.501   0.310   0.616 -0.1604  0.3743  0.1418
  725SOL     OW 2897   2.626   0.416   1.250 -0.2911  0.3237  0.2687
  725SOL    HW1 2898   2.681   0.493   1.280 -1.1097 -0.5184  0.3571
  725SOL    HW2 2899   2.635   0.356   1.324  1.6137  1.4082 -1.3889
  725SOL     MW 2900   2.634   0.418   1.264 -0.1478  0.3557  0.0617
  726SOL     OW 2901   2.501   2.498   0.457 -0.0679  0.1417 -0.2616
  726SOL    HW1 2902   2.489   2.585   0.423 -0.3197  0.9145  0.8574
  726SOL    HW2 2903   2.502   2.515   0.553 -1.3653  0.7183  1.2816
  726SOL     MW 2904   2.500   2.511   0.465 -0.2723  0.3197  0.0897
  727SOL     OW 2905   2.859   0.298   1.724  0.0451 -0.0600  0.2597
  727SOL    HW1 2906   2.805   0.295   1.646  0.7370 -1.4117 -0.5766
  727SOL    HW2 2907   2.811   0.250   1.796  0.0242 -0.0485 -2.5018
  727SOL     MW 2908   2.845   0.291   1.723  0.1337 -0.2368 -0.2150
  728SOL     OW 2909   2.846   1.184   2.849 -0.0348 -0.1098  0.0022
  728SOL    HW1 2910   2.865   1.237   2.766 -1.6222 -0.4705 -0.1771
  728SOL    HW2 2911   2.829   1.243   2.920 -0.9392 -0.5795 -1.1349
  728SOL     MW 2912   2.846   1.199   2.847 -0.3636 -0.2193 -0.1715
  729SOL     OW 2913   2.503   1.505   1.112  0.1046  0.2926  0.2735
  729SOL    HW1 2914   2.580   1.449   1.141  2.2531  2.1591  0.7833
  729SOL    HW2 2915   2.484   1.481   1.019  1.2883 -1.4256  0.2888
  729SOL     MW 2916   2.510   1.494   1.104  0.5442  0.3121  0.3428
  730SOL     OW 2917   2.217   1.171   0.175  0.3779 -0.5743  0.2229
  730SOL    HW1 2918   2.261   1.100   0.214 -2.2374 -0.7420  0.6076
  730SOL    HW2 2919   2.280   1.243   0.178  1.6651 -0.2731 -0.4416
  730SOL     MW 2920   2.231   1.171   0.181  0.2027 -0.5567  0.1859
  731SOL     OW 2921   2.741   2.069   2.863  0.1526  0.0619  0.4514
  731SOL    HW1 2922   2.682   2.016   2.800  2.2809 -2.2801  0.0259
  731SOL    HW2 2923   2.833   2.052   2.838 -0.0141 -1.6938 -2.0872
  731SOL     MW 2924   2.745   2.060   2.851  0.4114 -0.4787  0.0603
  732SOL     OW 2925   2.253   0.991   1.363  0.2323  0.2361 -0.2179
  732SOL    HW1 2926   2.209   0.963   1.449  0.0592 -2.2536  0.7986
  732SOL    HW2 2927   2.335   0.939   1.356 -1.9904  1.6863 -1.7792
  732SOL     MW 2928   2.258   0.980   1.373 -0.0838  0.0989 -0.2898
  733SOL     OW 2929   2.379   2.798   3.015  0.2485 -1.0878 -0.1878
  733SOL    HW1 2930   2.302   2.843   3.057  0.9197 -1.1166 -0.3676
  733SOL    HW2 2931   2.362   2.699   3.021  0.6038 -0.2713  1.1201
  733SOL     MW 2932   2.366   2.791   3.021  0.3839 -0.9839 -0.0390
  734SOL     OW 2933   1.569   0.260   2.557 -1.0238  0.1498 -0.2868
  734SOL    HW1 2934   1.530   0.242   2.644 -1.6813  2.6730 -0.2461
  734SOL    HW2 2935   1.539   0.191   2.495  0.9083 -2.9654  1.4605
  734SOL     MW 2936   1.560   0.248   2.560 -0.8556  0.0717 -0.0509
  735SOL     OW 2937   2.974   0.950   2.690 -0.1308 -0.0414  0.6826
  735SOL    HW1 2938   2.968   0.852   2.678  1.5125 -2.8496  2.3872
  735SOL    HW2 2939   3.019   0.958   2.776 -1.4254  1.0803  0.2538
  735SOL     MW 2940   2.979   0.938   2.700 -0.0848 -0.2639  0.8509
  736SOL     OW 2941   0.137   0.583   2.588  0.0284  0.3725 -0.2641
  736SOL    HW1 2942   0.128   0.633   2.503 -1.5319 -0.0829 -0.0971
  736SOL    HW2 2943   0.146   0.490   2.557 -1.1706  0.8591 -0.4839
  736SOL     MW 2944   0.137   0.578   2.573 -0.3357  0.3766 -0.2711
  737SOL     OW 2945   2.984   0.670   2.631  0.1240 -0.6760  0.4954
  737SOL    HW1 2946   2.930   0.630   2.556 -0.2305 -0.8999 -2.2799
  737SOL    HW2 2947   3.068   0.632   2.630 -0.2623  0.4747 -1.3646
  737SOL     MW 2948   2.988   0.660   2.621  0.0262 -0.5537 -0.1162
  738SOL     OW 2949   0.132   0.490   1.875 -0.4106 -0.4498 -0.0654
  738SOL    HW1 2950   0.223   0.530   1.864  0.5080 -1.3098 -1.0153
  738SOL    HW2 2951   0.122   0.428   1.806 -1.9069 -0.8818 -0.6866
  738SOL     MW 2952   0.143   0.487   1.865 -0.4868 -0.6202 -0.2727
  739SOL     OW 2953   2.481   1.009   2.093 -0.2043 -0.3479  0.5826
  739SOL    HW1 2954   2.417   0.985   2.027  0.7973  2.6398  2.9806
  739SOL    HW2 2955   2.555   0.956   2.063 -0.2163  0.6946 -2.7975
  739SOL     MW 2956   2.482   0.999   2.081 -0.0737  0.1838  0.4530
  740SOL     OW 2957   0.102   1.827   2.931  0.2548 -0.1852  0.0916
  740SOL    HW1 2958   0.072   1.731   2.944 -1.3577 -0.8307 -1.0650
  740SOL    HW2 2959   0.196   1.829   2.948 -0.8043 -0.9694 -1.2170
  740SOL     MW 2960   0.110   1.814   2.935 -0.0977 -0.3739 -0.2337
  741SOL     OW 2961   2.227   1.148   2.723 -0.7775 -0.9123 -0.7845
  741SOL    HW1 2962   2.196   1.210   2.663  1.0204 -4.0895  1.0092
  741SOL    HW2 2963   2.202   1.168   2.815 -0.2716  1.2189 -0.3379
  741SOL     MW 2964   2.220   1.158   2.727 -0.4735 -1.0503 -0.4889
  742SOL     OW 2965   1.672   1.211   2.251 -0.8278  0.1035  0.6538
  742SOL    HW1 2966   1.593   1.161   2.224 -0.2963  1.0981 -1.2927
  742SOL    HW2 2967   1.677   1.199   2.348 -2.0569  3.3215  0.6320
  742SOL     MW 2968   1.663   1.203   2.260 -0.9198  0.6593  0.3941
  743SOL     OW 2969   2.483   1.235   2.692 -0.2008 -0.0275  0.2542
  743SOL    HW1 2970   2.392   1.209   2.708  2.9396  0.5268  1.4246
  743SOL    HW2 2971   2.530   1.176   2.746  2.2448  1.0846  1.2896
  743SOL     MW 2972   2.477   1.224   2.701  0.5362  0.1923  0.5452
  744SOL     OW 2973   2.710   0.884   1.859 -0.6012 -0.9335  0.3043
  744SOL    HW1 2974   2.677   0.976   1.860  1.1467 -0.3734 -0.4557
  744SOL    HW2 2975   2.680   0.868   1.768 -0.0114  0.9765  1.1570
  744SOL     MW 2976   2.701   0.894   1.847 -0.2928 -0.6076  0.3166
  745SOL     OW 2977   1.692   0.503   2.450  0.0498 -0.1906  0.1006
  745SOL    HW1 2978   1.685   0.487   2.351  0.6916  0.4896 -1.0798
  745SOL    HW2 2979   1.632   0.441   2.491 -0.4935  1.5620  1.3371
  745SOL     MW 2980   1.683   0.493   2.443  0.0628  0.1304  0.1080
  746SOL     OW 2981   1.605   1.429   1.645  0.2332  0.4854  0.0035
  746SOL    HW1 2982   1.697   1.418   1.632 -1.6598 -1.6142 -1.1702
  746SOL    HW2 2983   1.582   1.455   1.734 -1.8345  0.6579 -3.1328
  746SOL     MW 2984   1.614   1.431   1.655 -0.2894  0.2311 -0.5652
  747SOL     OW 2985   2.625   1.134   1.817  0.5238 -0.0075 -0.0705
  747SOL    HW1 2986   2.540   1.132   1.765 -1.5465 -0.3936 -0.0507
  747SOL    HW2 2987   2.599   1.181   1.899  2.6744 -0.2892  0.7378
  747SOL     MW 2988   2.610   1.140   1.821  0.5344 -0.0956  0.0387
  748SOL     OW 2989   0.054   0.074   1.893 -0.0895 -0.1321 -0.0042
  748SOL    HW1 2990   0.146   0.078   1.900 -2.0647 -1.8301  0.9549
  748SOL    HW2 2991   0.016   0.123   1.974 -1.6112  1.3343  2.1043
  748SOL     MW 2992   0.061   0.081   1.905 -0.5509 -0.1627  0.4005
  749SOL     OW 2993   2.500   0.602   2.735  0.5628  0.5476  0.2961
  749SOL    HW1 2994   2.531   0.683   2.698 -0.2429 -0.7112 -0.8190
  749SOL    HW2 2995   2.501   0.629   2.830  2.0502  0.3595 -0.6132
  749SOL     MW 2996   2.504   0.616   2.743  0.6527  0.3567  0.0290
  750SOL     OW 2997   2.051   3.061   1.998 -0.4915  0.6768 -0.0483
  750SOL    HW1 2998   2.102   3.142   1.989  2.5979 -0.0803  1.3499
  750SOL    HW2 2999   2.127   3.007   1.967 -1.2129 -0.1420  1.4167
  750SOL     MW 3000   2.068   3.064   1.993 -0.1791  0.4689  0.3295
  751SOL     OW 3001   0.178   0.319   2.460  0.9514 -0.6979 -0.3259
  751SOL    HW1 3002   0.148   0.239   2.510  0.5645 -2.2483 -1.6757
  751SOL    HW2 3003   0.188   0.298   2.370  1.5612  0.6432  0.9958
  751SOL     MW 3004   0.175   0.305   2.455  0.9808 -0.7255 -0.3296
  752SOL     OW 3005   2.125   0.787   2.740  0.2331  0.7961 -0.2214
  752SOL    HW1 3006   2.196   0.840   2.700  1.5590  0.9796  0.2735
  752SOL    HW2 3007   2.131   0.780   2.838 -1.5307 -1.2844  0.6111
  752SOL     MW 3008   2.135   0.793   2.748  0.1754  0.5458 -0.0463
  753SOL     OW 3009   2.883   0.202   2.388 -1.0446 -0.3103 -0.2875
  753SOL    HW1 3010   2.845   0.112   2.381  0.4311 -3.2672  0.6047
  753SOL    HW2 3011   2.816   0.255   2.347  0.3497 -0.5999 -0.9114
  753SOL     MW 3012   2.869   0.197   2.382 -0.6659 -0.7387 -0.2521
  754SOL     OW 3013   2.225   2.987   2.591  0.1981 -0.3443 -0.3633
  754SOL    HW1 3014   2.280   2.982   2.511  0.9456  1.5605 -1.2294
  754SOL    HW2 3015   2.287   2.940   2.654 -0.6347 -0.3546  2.2587
  754SOL     MW 3016   2.241   2.980   2.589  0.1869 -0.0943 -0.1316
  755SOL     OW 3017   2.709   1.523   2.459  0.7182  0.6430  0.2488
  755SOL    HW1 3018   2.728   1.438   2.506 -1.9923 -0.7358  0.0561
  755SOL    HW2 3019   2.739   1.596   2.522 -1.4389  0.9733 -0.7740
  755SOL     MW 3020   2.716   1.521   2.473  0.0760  0.5047  0.0884
  756SOL     OW 3021   2.216   1.220   2.989  0.0658  0.2390  0.1086
  756SOL    HW1 3022   2.285   1.288   2.983 -0.4721 -1.7532  0.2959
  756SOL    HW2 3023   2.256   1.152   3.047 -0.6588 -0.0197 -2.9934
  756SOL     MW 3024   2.230   1.220   2.996 -0.1008 -0.0580 -0.2759
  757SOL     OW 3025   2.153   0.885   1.595  0.4163  0.0311  0.4241
  757SOL    HW1 3026   2.193   0.799   1.573 -2.3457 -1.4652  2.3901
  757SOL    HW2 3027   2.062   0.895   1.551 -1.9476  2.0623 -0.7191
  757SOL     MW 3028   2.146   0.875   1.586 -0.2600  0.1017  0.5327
  758SOL     OW 3029   2.226   1.852   2.616 -0.6509  0.2026 -0.5945
  758SOL    HW1 3030   2.204   1.866   2.527  0.1016  3.9853  3.1196
  758SOL    HW2 3031   2.306   1.798   2.615  1.3439  3.1672 -0.6538
  758SOL     MW 3032   2.234   1.847   2.604 -0.2884  1.0928 -0.1123
  759SOL     OW 3033   1.557   1.263   2.685 -0.1173 -0.1180 -0.1133
  759SOL    HW1 3034   1.573   1.329   2.609 -1.0283  2.0747  1.5359
  759SOL    HW2 3035   1.612   1.289   2.761  0.5149 -0.7755 -0.1251
  759SOL     MW 3036   1.566   1.275   2.685 -0.1541  0.0845  0.1028
  760SOL     OW 3037   2.518   1.974   2.734 -0.5163 -0.1012  0.4074
  760SOL    HW1 3038   2.500   1.887   2.691  0.7622  0.7499 -2.4774
  760SOL    HW2 3039   2.535   2.041   2.668 -2.2954 -2.7487 -1.6206
  760SOL     MW 3040   2.518   1.971   2.720 -0.5824 -0.3382 -0.2408
  761SOL     OW 3041   2.157   0.375   2.512 -0.1480  0.4887  0.3271
  761SOL    HW1 3042   2.087   0.318   2.529  0.3587  2.2787  2.1431
  761SOL    HW2 3043   2.178   0.424   2.599 -0.7144  1.4897  0.5382
  761SOL     MW 3044   2.151   0.374   2.526 -0.1559  0.8569  0.5946
  762SOL     OW 3045   3.029   0.185   2.119 -1.2123  0.5530  0.8859
  762SOL    HW1 3046   3.018   0.110   2.181  0.5004  0.5436 -2.1479
  762SOL    HW2 3047   3.052   0.266   2.176  1.9309 -0.6731 -0.4384
  762SOL     MW 3048   3.031   0.186   2.135 -0.5716  0.3900  0.3109
  763SOL     OW 3049   2.319   1.036   2.347 -0.3719 -0.3836  0.0889
  763SOL    HW1 3050   2.374   1.031   2.266  0.8598  3.9366  0.1233
  763SOL    HW2 3051   2.379   1.099   2.393  1.4604  2.4787  3.0500
  763SOL     MW 3052   2.334   1.044   2.343  0.0323  0.5641  0.4842
  764SOL     OW 3053   0.480   0.240   2.795 -0.6040  0.3776  0.1608
  764SOL    HW1 3054   0.391   0.198   2.811 -1.1080 -0.1040  1.9327
  764SOL    HW2 3055   0.457   0.325   2.831 -1.9489  0.7583 -1.1235
  764SOL     MW 3056   0.466   0.245   2.802 -0.8480  0.3643  0.2251
  765SOL     OW 3057   2.735   3.066   2.352  0.2492 -0.3263  0.1017
  765SOL    HW1 3058   2.685   3.049   2.269  2.2326  2.7260  0.1424
  765SOL    HW2 3059   2.813   3.005   2.346 -0.2149 -0.4531  2.6166
  765SOL     MW 3060   2.739   3.055   2.340  0.4496  0.0597  0.4389
  766SOL     OW 3061   1.869   2.967   2.164  0.1924  0.0339  0.3084
  766SOL    HW1 3062   1.923   3.004   2.088  0.9279  0.9091 -1.4556
  766SOL    HW2 3063   1.810   2.902   2.121  2.1961 -1.9250  0.5321
  766SOL     MW 3064   1.868   2.963   2.148  0.5538 -0.1091  0.1052
  767SOL     OW 3065   2.692   0.598   2.096  0.3133 -0.6911  0.3539
  767SOL    HW1 3066   2.725   0.690   2.105 -1.4538  1.6005 -3.2052
  767SOL    HW2 3067   2.599   0.600   2.057  0.9310 -0.9957 -1.6633
  767SOL     MW 3068   2.684   0.610   2.092  0.1616 -0.4289 -0.3818
  768SOL     OW 3069   0.001   1.584   2.948 -0.1256 -0.7681  0.0703
  768SOL    HW1 3070   0.005   1.560   3.052  1.7702 -1.3384  0.5467
  768SOL    HW2 3071   0.038   1.502   2.905 -2.2462  1.2764  4.3925
  768SOL     MW 3072   0.006   1.570   2.956 -0.1553 -0.5736  0.7034
  769SOL     OW 3073   2.458   0.685   2.354  0.4054 -0.0177  0.4439
  769SOL    HW1 3074   2.381   0.642   2.382 -2.1804  1.4671 -1.1167
  769SOL    HW2 3075   2.417   0.727   2.278  1.6945  0.6257 -0.1521
  769SOL     MW 3076   2.442   0.685   2.347  0.2343  0.2631  0.1594
  770SOL     OW 3077   0.033   1.634   2.581 -0.7592  0.4069 -0.5790
  770SOL    HW1 3078  -0.036   1.690   2.590  3.4215  0.1656 -0.1808
  770SOL    HW2 3079  -0.015   1.549   2.584  1.2896 -3.4249  3.0887
  770SOL     MW 3080   0.018   1.630   2.583  0.0627 -0.1305 -0.0426
  771SOL     OW 3081   3.057   0.610   2.067  0.0137 -0.5645  0.3979
  771SOL    HW1 3082   2.983   0.587   2.011 -2.3871  0.9284  0.8950
  771SOL    HW2 3083   3.137   0.563   2.026  1.2741 -2.8345 -0.1399
  771SOL     MW 3084   3.058   0.601   2.054 -0.1368 -0.6671  0.3925
  772SOL     OW 3085   0.064   3.103   2.303  0.0704  0.5135  0.0360
  772SOL    HW1 3086  -0.005   3.040   2.294 -1.0334  1.1708 -1.8927
  772SOL    HW2 3087   0.139   3.060   2.261  0.6027 -0.2031 -1.6895
  772SOL     MW 3088   0.065   3.089   2.296 -0.0050  0.5057 -0.4461
  773SOL     OW 3089   2.405   2.857   2.752  0.3206  0.1766 -0.1511
  773SOL    HW1 3090   2.440   2.769   2.737  0.8589 -0.7801  1.1678
  773SOL    HW2 3091   2.392   2.861   2.845  1.3847  2.3910  0.7376
  773SOL     MW 3092   2.408   2.846   2.762  0.5320  0.3425  0.1401
  774SOL     OW 3093   2.346   1.147   1.735 -0.0799  0.7249 -0.4681
  774SOL    HW1 3094   2.324   1.222   1.674 -0.9824  1.1506 -1.6761
  774SOL    HW2 3095   2.309   1.066   1.704 -0.8589  2.8979  1.5764
  774SOL     MW 3096   2.338   1.146   1.723 -0.3018  1.0678 -0.3578
  775SOL     OW 3097   2.326   2.878   2.325  0.2719 -0.0006 -0.0650
  775SOL    HW1 3098   2.358   2.946   2.269  0.3519  2.0901 -0.1415
  775SOL    HW2 3099   2.364   2.793   2.303  1.2434  0.2892  1.1004
  775SOL     MW 3100   2.335   2.876   2.315  0.4106  0.3135  0.0786
  776SOL     OW 3101   0.026   1.507   0.094 -0.4882  0.3160 -0.4624
  776SOL    HW1 3102   0.118   1.486   0.087 -1.1279 -2.0594 -0.7041
  776SOL    HW2 3103  -0.016   1.419   0.109  1.7879  0.8163  0.8666
  776SOL     MW 3104   0.032   1.493   0.095 -0.2723  0.0686 -0.3189
  777SOL     OW 3105   2.977   1.046   1.743  0.0040 -0.8507  0.1758
  777SOL    HW1 3106   2.913   1.115   1.725  1.0983  2.8387 -1.0423
  777SOL    HW2 3107   2.961   1.002   1.825  1.0767 -1.5720 -1.1586
  777SOL     MW 3108   2.966   1.049   1.751  0.2899 -0.4591 -0.1610
  778SOL     OW 3109   2.888   0.449   2.768 -0.0264 -0.8482 -0.2845
  778SOL    HW1 3110   2.855   0.486   2.855  0.2485 -1.8305  1.1390
  778SOL    HW2 3111   2.904   0.525   2.714 -0.1870 -1.4305 -0.1990
  778SOL     MW 3112   2.886   0.464   2.773 -0.0113 -1.0546 -0.0854
  779SOL     OW 3113   2.131   0.575   2.314 -0.4734 -0.2943 -0.1180
  779SOL    HW1 3114   2.074   0.625   2.365  0.6359  3.5360  1.7237
  779SOL    HW2 3115   2.154   0.503   2.368 -0.6702  1.2767 -3.1945
  779SOL     MW 3116   2.127   0.572   2.328 -0.3530  0.4183 -0.2809
  780SOL     OW 3117   0.228   0.138   2.822 -0.1846  0.0951  0.3521
  780SOL    HW1 3118   0.155   0.170   2.878 -1.3697 -2.0982  1.1560
  780SOL    HW2 3119   0.196   0.130   2.729 -0.7477 -1.4729 -1.6158
  780SOL     MW 3120   0.214   0.141   2.817 -0.4152 -0.4012  0.1985
  781SOL     OW 3121   3.070   1.323   2.515  0.1565  0.6000 -0.2373
  781SOL    HW1 3122   3.086   1.364   2.432  0.8094 -1.0074  0.0411
  781SOL    HW2 3123   3.090   1.233   2.510 -0.8810  3.0526 -1.9587
  781SOL     MW 3124   3.075   1.317   2.504  0.1057  0.7115 -0.4277
  782SOL     OW 3125   0.530   1.636   3.049 -0.3396 -0.2935 -0.0157
  782SOL    HW1 3126   0.453   1.694   3.047 -0.0356  0.8241  0.0714
  782SOL    HW2 3127   0.515   1.591   3.138 -0.8148  0.1164  4.2763
  782SOL     MW 3128   0.518   1.638   3.060 -0.3622 -0.0919  0.5621
  783SOL     OW 3129   2.791   0.551   2.480 -0.1868  0.1200  0.3438
  783SOL    HW1 3130   2.775   0.538   2.388 -1.4110 -1.0549 -0.5860
  783SOL    HW2 3131   2.726   0.500   2.524  0.2645 -0.1818 -2.7599
  783SOL     MW 3132   2.781   0.543   2.473 -0.2888 -0.0748 -0.1884
  784SOL     OW 3133   0.264   0.908   2.915 -0.4298  0.1961  0.1595
  784SOL    HW1 3134   0.263   0.961   2.987 -0.5778  1.0336  1.2557
  784SOL    HW2 3135   0.223   0.976   2.859  0.9362 -0.2745  1.6584
  784SOL     MW 3136   0.258   0.924   2.917 -0.2691  0.2445  0.5019
  785SOL     OW 3137   0.372   0.485   2.142 -0.1182 -0.1682 -0.3504
  785SOL    HW1 3138   0.373   0.511   2.050 -1.0620 -1.3765  1.6460
  785SOL    HW2 3139   0.324   0.403   2.153  0.9009  2.6536 -1.9052
  785SOL     MW 3140   0.366   0.478   2.131 -0.1082  0.0447 -0.2922
  786SOL     OW 3141   1.979   0.471   2.862 -0.7517  0.0737  0.2790
  786SOL    HW1 3142   1.958   0.502   2.946  3.8255  1.8398 -1.0800
  786SOL    HW2 3143   2.077   0.484   2.863 -0.9216  2.9828 -1.2581
  786SOL     MW 3144   1.989   0.476   2.873 -0.1702  0.6905 -0.1031
  787SOL     OW 3145   2.403   0.168   2.890  0.4089  0.7030  0.4052
  787SOL    HW1 3146   2.455   0.095   2.855  2.0653 -2.4115  0.1889
  787SOL    HW2 3147   2.462   0.235   2.919  0.0307 -1.1208 -1.2812
  787SOL     MW 3148   2.418   0.167   2.890  0.5775  0.0514  0.1541
  788SOL     OW 3149   2.965   2.929   2.271  0.1494 -0.1661  0.3778
  788SOL    HW1 3150   2.952   2.894   2.180 -1.8071 -2.7475 -1.3261
  788SOL    HW2 3151   3.009   2.860   2.323  2.3430  0.1614  0.3145
  788SOL     MW 3152   2.969   2.915   2.266  0.1807 -0.4635  0.1447
  789SOL     OW 3153   0.051   0.232   2.989 -0.4505  0.1341  0.8025
  789SOL    HW1 3154  -0.037   0.201   3.013 -3.8082  1.2967 -1.5614
  789SOL    HW2 3155   0.088   0.277   3.065 -1.1314 -0.4322 -0.7419
  789SOL     MW 3156   0.044   0.234   3.002 -0.9834  0.2128  0.2868
  790SOL     OW 3157   3.104   1.039   2.450 -0.1269  0.2951 -0.1430
  790SOL    HW1 3158   3.050   1.000   2.513  2.1423  1.8069 -0.6666
  790SOL    HW2 3159   3.043   1.058   2.377 -2.6357 -1.2457  1.1600
  790SOL     MW 3160   3.089   1.036   2.448 -0.1585  0.2913 -0.0402
  791SOL     OW 3161   2.634   0.390   2.651  0.2624  0.6296 -0.2989
  791SOL    HW1 3162   2.595   0.471   2.676 -2.2972 -0.0541  1.3066
  791SOL    HW2 3163   2.707   0.376   2.708 -0.9728 -2.0416 -0.1388
  791SOL     MW 3164   2.639   0.399   2.662 -0.2383  0.1870 -0.0660
  792SOL     OW 3165   2.370   0.244   2.397  0.3361 -0.3695 -0.1389
  792SOL    HW1 3166   2.302   0.306   2.440  0.6016  1.1471 -1.0588
  792SOL    HW2 3167   2.390   0.178   2.467 -0.9982  2.0051  0.4018
  792SOL     MW 3168   2.364   0.244   2.412  0.1950  0.1439 -0.1889
  793SOL     OW 3169   1.778   0.993   1.876 -0.6547  0.3050 -0.1495
  793SOL    HW1 3170   1.744   1.038   1.806  0.8183 -0.4967  1.3660
  793SOL    HW2 3171   1.865   0.968   1.841 -0.6951  1.6406  1.3601
  793SOL     MW 3172   1.785   0.996   1.862 -0.4657  0.3754  0.2497
  794SOL     OW 3173   1.431   2.285   0.123 -0.2937  0.3329  0.1570
  794SOL    HW1 3174   1.490   2.354   0.092  0.8135  1.1087  0.2110
  794SOL    HW2 3175   1.451   2.284   0.216  1.5292 -0.7653 -0.9935
  794SOL     MW 3176   1.442   2.294   0.131  0.0929  0.2904  0.0123
  795SOL     OW 3177   2.317   0.930   2.606  0.4744  0.3854 -0.2494
  795SOL    HW1 3178   2.282   1.008   2.645  0.1507 -0.4805 -0.8973
  795SOL    HW2 3179   2.298   0.944   2.512  0.7354 -0.2564 -1.2962
  795SOL     MW 3180   2.310   0.942   2.599  0.4661  0.1865 -0.4730
  796SOL     OW 3181   0.324   0.674   2.767 -0.5705  0.0251 -0.0836
  796SOL    HW1 3182   0.285   0.750   2.811 -0.2467  0.0550  0.5517
  796SOL    HW2 3183   0.256   0.644   2.708  2.7633 -1.0140 -0.7651
  796SOL     MW 3184   0.310   0.680   2.765 -0.0879 -0.1081 -0.0897
  797SOL     OW 3185   2.601   0.120   2.567 -0.1829 -0.3650  0.0630
  797SOL    HW1 3186   2.608   0.217   2.574  1.3916  3.1958  0.8873
  797SOL    HW2 3187   2.654   0.089   2.492  2.1269 -1.5395  1.4068
  797SOL     MW 3188   2.609   0.129   2.558  0.3296 -0.0502  0.3490
  798SOL     OW 3189   2.353   0.056   2.194  0.2934  0.2662 -0.2669
  798SOL    HW1 3190   2.351   0.131   2.256  0.3596  0.5428 -0.1338
  798SOL    HW2 3191   2.449   0.052   2.165  1.0988 -2.4681 -2.4015
  798SOL     MW 3192   2.366   0.065   2.198  0.4084 -0.0581 -0.5310
  799SOL     OW 3193   2.483   2.927   0.200 -0.1754  0.0186 -0.2877
  799SOL    HW1 3194   2.518   2.871   0.132 -0.4682 -0.2491  0.3761
  799SOL    HW2 3195   2.440   3.002   0.156  1.5234  0.1479  2.3433
  799SOL     MW 3196   2.482   2.930   0.185  0.0101  0.0003  0.1470
  800SOL     OW 3197   1.905   3.097   1.769 -0.0285  0.0066  0.0395
  800SOL    HW1 3198   1.837   3.030   1.770 -0.9291  0.3373 -0.2111
  800SOL    HW2 3199   1.954   3.080   1.852  0.2363  0.2819  0.7433
  800SOL     MW 3200   1.902   3.086   1.780 -0.1124  0.0866  0.0993
  801SOL     OW 3201   2.797   1.298   2.562  0.1032 -0.3179  0.1313
  801SOL    HW1 3202   2.771   1.205   2.538 -0.6476  0.1888 -2.0093
  801SOL    HW2 3203   2.890   1.295   2.544  0.7095  0.3339 -1.2493
  801SOL     MW 3204   2.806   1.286   2.557  0.0842 -0.1651 -0.3333
  802SOL     OW 3205   2.559   1.521   2.766  0.0205 -0.0651 -0.2900
  802SOL    HW1 3206   2.547   1.428   2.756 -0.7969 -0.1383 -1.2196
  802SOL    HW2 3207   2.657   1.527   2.779 -0.2053  1.0345  2.7190
  802SOL     MW 3208   2.570   1.509   2.766 -0.1171  0.0703 -0.0157
  803SOL     OW 3209   2.314   1.297   1.959  0.0606 -0.0689  0.0955
  803SOL    HW1 3210   2.256   1.259   2.020  1.4093 -1.5794  0.4030
  803SOL    HW2 3211   2.304   1.246   1.873 -2.6405  1.2651 -1.3537
  803SOL     MW 3212   2.305   1.285   1.956 -0.1178 -0.0922 -0.0551
  804SOL     OW 3213   2.349   0.048   0.028 -0.0787 -0.0024  0.1103
  804SOL    HW1 3214   2.279   0.114   0.018  2.0421  1.5090  0.9940
  804SOL    HW2 3215   2.397   0.074  -0.051  1.7825 -0.5129 -1.1271
  804SOL     MW 3216   2.346   0.060   0.016  0.4467  0.1297  0.0637
  805SOL     OW 3217   2.775   1.024   2.542 -0.1468 -0.0490 -0.2791
  805SOL    HW1 3218   2.699   0.969   2.575  1.9246 -1.6909  1.2189
  805SOL    HW2 3219   2.849   0.991   2.600 -0.3957 -0.7279  0.0502
  805SOL     MW 3220   2.775   1.012   2.554  0.0936 -0.3552 -0.0380
  806SOL     OW 3221   2.670   0.355   2.259  0.2419 -0.0033 -0.6425
  806SOL    HW1 3222   2.583   0.344   2.298 -0.3658 -1.4334  1.6438
  806SOL    HW2 3223   2.656   0.442   2.218  2.6115  0.6572 -0.8592
  806SOL     MW 3224   2.657   0.365   2.259  0.4744 -0.1049 -0.3694
  807SOL     OW 3225   0.020   1.139   2.026  0.5914  0.2104  0.3727
  807SOL    HW1 3226   0.090   1.072   2.030  1.5602  0.1741 -1.5166
  807SOL    HW2 3227  -0.032   1.106   2.101  0.1011 -0.1540  1.8145
  807SOL     MW 3228   0.022   1.126   2.036  0.6545  0.1575  0.3136
  808SOL     OW 3229   2.569   3.082   2.795  0.1071  0.4995 -0.1468
  808SOL    HW1 3230   2.512   3.007   2.767  1.8443 -3.6345 -0.2035
  808SOL    HW2 3231   2.582   3.139   2.720 -1.6013 -0.0712  2.1254
  808SOL     MW 3232   2.563   3.080   2.781  0.1109 -0.1213  0.1455
  809SOL     OW 3233   2.483   1.258   2.417  0.3462 -0.4888 -0.0707
  809SOL    HW1 3234   2.494   1.272   2.515 -1.0167 -0.0566 -0.5928
  809SOL    HW2 3235   2.560   1.227   2.373  2.4299  1.8621  0.4014
  809SOL     MW 3236   2.495   1.256   2.424  0.4413 -0.1216 -0.0773
  810SOL     OW 3237   2.160   1.184   2.181  0.1175  0.0929 -0.1540
  810SOL    HW1 3238   2.196   1.104   2.222  0.5687  0.1317 -1.7659
  810SOL    HW2 3239   2.062   1.171   2.177 -1.4193 -1.7312  2.6393
  810SOL     MW 3240   2.152   1.172   2.186 -0.0257 -0.1426  0.0019
  811SOL     OW 3241   1.481   0.098   2.247 -0.7337  0.3801  0.7442
  811SOL    HW1 3242   1.565   0.065   2.277  1.6156  3.6101 -1.4864
  811SOL    HW2 3243   1.468   0.057   2.154 -3.8107  2.1166 -3.1383
  811SOL     MW 3244   1.490   0.088   2.238 -0.8297  1.0354 -0.0624
  812SOL     OW 3245   1.394   2.766   2.094  0.1098  0.2462  0.5704
  812SOL    HW1 3246   1.491   2.795   2.096  1.0346  0.9243 -2.5640
  812SOL    HW2 3247   1.375   2.733   2.182  1.2139  0.3616  1.1212
  812SOL     MW 3248   1.405   2.766   2.106  0.3775  0.3509  0.2295
  813SOL     OW 3249   1.851   0.763   2.169  0.5128 -0.1700 -0.3281
  813SOL    HW1 3250   1.818   0.675   2.178  0.9115  0.6370 -0.8331
  813SOL    HW2 3251   1.893   0.783   2.249 -1.1686  3.0273  0.9089
  813SOL     MW 3252   1.852   0.754   2.181  0.3435  0.3583 -0.2315
  814SOL     OW 3253   2.801   1.219   1.616  0.1614  0.2825 -0.0404
  814SOL    HW1 3254   2.730   1.220   1.688  0.3421  0.7688 -0.1411
  814SOL    HW2 3255   2.779   1.142   1.560 -1.4549 -0.2465  2.2601
  814SOL     MW 3256   2.789   1.209   1.618 -0.0280  0.2768  0.2498
  815SOL     OW 3257   2.464   1.640   2.359  0.1475  0.4048 -0.8097
  815SOL    HW1 3258   2.412   1.580   2.315 -1.6344  0.6274  0.8009
  815SOL    HW2 3259   2.542   1.582   2.367 -2.7559  0.9624  2.7478
  815SOL     MW 3260   2.468   1.624   2.354 -0.4707  0.5077 -0.1278
  816SOL     OW 3261   0.668   0.706   2.711  0.3293  0.0470 -0.1255
  816SOL    HW1 3262   0.676   0.646   2.782 -0.9515  0.3823 -2.7516
  816SOL    HW2 3263   0.612   0.660   2.640  0.6946  0.4712 -1.2018
  816SOL     MW 3264   0.662   0.692   2.711  0.2085  0.1472 -0.6140
  817SOL     OW 3265   3.030   1.150   1.377  0.0437 -0.2187  0.0133
  817SOL    HW1 3266   3.078   1.158   1.460 -0.3548 -2.0695 -0.2930
  817SOL    HW2 3267   3.004   1.241   1.355 -2.4217  0.4166 -5.4097
  817SOL     MW 3268   3.033   1.163   1.385 -0.3342 -0.3790 -0.7426
  818SOL     OW 3269   1.916   0.975   2.681 -0.3755 -0.3209  0.0502
  818SOL    HW1 3270   1.961   1.027   2.619 -0.1961 -0.9465  1.0334
  818SOL    HW2 3271   1.973   0.901   2.702  0.9656  0.7794 -1.4926
  818SOL     MW 3272   1.929   0.972   2.675 -0.1749 -0.2583 -0.0236
  819SOL     OW 3273   1.834   0.273   2.360  0.3543  0.0958 -0.6751
  819SOL    HW1 3274   1.784   0.350   2.367 -0.5977 -0.7301 -0.4244
  819SOL    HW2 3275   1.896   0.273   2.435  1.2649  0.3501 -1.1914
  819SOL     MW 3276   1.836   0.283   2.370  0.3488  0.0204 -0.7102
  820SOL     OW 3277   2.468   1.723   2.619  0.5615  0.3704 -0.0359
  820SOL    HW1 3278   2.501   1.646   2.668 -1.3247  0.3586  4.1605
  820SOL    HW2 3279   2.479   1.687   2.528  2.4702 -2.6176 -1.6605
  820SOL     MW 3280   2.473   1.708   2.614  0.5645 -0.0254  0.3034
  821SOL     OW 3281   2.576   1.333   2.027 -0.2150 -0.1566 -0.7021
  821SOL    HW1 3282   2.615   1.389   1.958 -1.5938  2.2942 -0.9222
  821SOL    HW2 3283   2.488   1.320   2.001  0.3340 -1.2360 -1.0910
  821SOL     MW 3284   2.570   1.338   2.015 -0.3244  0.0243 -0.7825
  822SOL     OW 3285   2.914   2.684   1.383  0.2852  0.0082  0.1975
  822SOL    HW1 3286   2.840   2.739   1.355  1.2662  0.9640  0.2805
  822SOL    HW2 3287   2.971   2.739   1.439  0.3465 -2.2403  0.6527
  822SOL     MW 3288   2.912   2.698   1.387  0.4227 -0.1623  0.2685
  823SOL     OW 3289   2.317   0.433   1.756  0.5625  0.2607 -0.4468
  823SOL    HW1 3290   2.385   0.383   1.707 -0.1131 -2.1463  1.5043
  823SOL    HW2 3291   2.238   0.376   1.747  0.7312 -2.5398 -1.9481
  823SOL     MW 3292   2.316   0.419   1.748  0.4956 -0.4264 -0.3875
  824SOL     OW 3293   2.126   1.341   2.558 -0.1774  0.9072  0.4859
  824SOL    HW1 3294   2.176   1.360   2.471 -0.5062  2.3747 -0.8629
  824SOL    HW2 3295   2.105   1.434   2.588 -0.7483  2.1869 -0.4680
  824SOL     MW 3296   2.129   1.355   2.550 -0.2961  1.2697  0.1821
  825SOL     OW 3297   2.164   2.395   0.396 -1.0326 -0.1240 -0.8876
  825SOL    HW1 3298   2.229   2.425   0.341 -1.8513  4.0824  0.0384
  825SOL    HW2 3299   2.199   2.390   0.487  0.2835 -0.1184 -3.2303
  825SOL     MW 3300   2.177   2.398   0.401 -0.9670  0.4317 -1.0745
  826SOL     OW 3301   1.747   2.358   0.401 -0.0226  0.7558 -0.0151
  826SOL    HW1 3302   1.745   2.285   0.467 -1.2593 -0.6900  1.3098
  826SOL    HW2 3303   1.759   2.441   0.453 -1.4437  1.1984  3.7594
  826SOL     MW 3304   1.748   2.359   0.417 -0.3733  0.6234  0.6577
  827SOL     OW 3305   1.933   2.292   0.868  0.3796  0.2837 -0.5372
  827SOL    HW1 3306   1.872   2.278   0.791  0.0682 -1.7566  0.2923
  827SOL    HW2 3307   1.893   2.220   0.925 -1.1441 -3.1926 -1.0935
  827SOL     MW 3308   1.920   2.281   0.865  0.1374 -0.4441 -0.5012
  828SOL     OW 3309   0.048   2.595   0.564  0.1198  0.1636 -0.0043
  828SOL    HW1 3310   0.138   2.610   0.582  0.5314 -3.3753 -2.5889
  828SOL    HW2 3311   0.026   2.638   0.476  0.8657 -1.4841 -1.3653
  828SOL     MW 3312   0.057   2.603   0.554  0.2725 -0.5207 -0.5249
  829SOL     OW 3313   3.007   2.887   1.219 -0.4452 -0.1413  0.1740
  829SOL    HW1 3314   2.942   2.887   1.157  1.5609  0.9649  1.2508
  829SOL    HW2 3315   3.054   2.804   1.211 -0.9664 -0.0333 -0.7484
  829SOL     MW 3316   3.005   2.876   1.210 -0.2493  0.0189  0.1944
  830SOL     OW 3317   2.489   2.781   1.983  0.4829 -0.2534 -0.0632
  830SOL    HW1 3318   2.395   2.819   1.961 -2.6954  2.3195 -2.0745
  830SOL    HW2 3319   2.543   2.805   1.906  0.3677  1.2123  1.1031
  830SOL     MW 3320   2.484   2.789   1.970  0.0483  0.2795 -0.1747
  831SOL     OW 3321   2.460   2.436   1.202 -0.2210  0.2099  0.5350
  831SOL    HW1 3322   2.422   2.363   1.256 -0.1765 -2.3219  3.9827
  831SOL    HW2 3323   2.541   2.397   1.161  1.8422  0.2788  2.9602
  831SOL     MW 3324   2.466   2.421   1.204  0.0571 -0.1151  1.3099
  832SOL     OW 3325   2.413   2.117   1.907  0.0352 -0.1012  0.1277
  832SOL    HW1 3326   2.439   2.206   1.920  1.5861  1.3087  1.1435
  832SOL    HW2 3327   2.495   2.067   1.896  2.5453  0.3830  0.0163
  832SOL     MW 3328   2.427   2.122   1.907  0.5710  0.1487  0.2471
  833SOL     OW 3329   1.632   2.557   0.841 -0.5006 -1.1022 -0.1250
  833SOL    HW1 3330   1.604   2.493   0.914  3.0391  1.3198  1.6017
  833SOL    HW2 3331   1.561   2.629   0.830  0.8804  1.7409 -3.0136
  833SOL     MW 3332   1.619   2.558   0.849  0.1486 -0.4075 -0.2783
  834SOL     OW 3333   2.257   2.364   0.636  0.1524  0.4424  0.3292
  834SOL    HW1 3334   2.208   2.299   0.686 -1.2622 -1.7764  0.9604
  834SOL    HW2 3335   2.340   2.368   0.677 -0.6890 -0.8046 -3.0991
  834SOL     MW 3336   2.262   2.356   0.648 -0.1453 -0.0149 -0.0399
  835SOL     OW 3337   1.765   2.541   0.613  1.1197  0.1290 -0.1215
  835SOL    HW1 3338   1.720   2.549   0.696  1.6936 -3.2568 -0.8135
  835SOL    HW2 3339   1.801   2.451   0.607  0.2931 -3.0771  2.6936
  835SOL     MW 3340   1.764   2.530   0.624  1.0863 -0.7407  0.1586
  836SOL     OW 3341   2.088   2.092   1.699  0.6323 -0.2506  0.4818
  836SOL    HW1 3342   2.174   2.054   1.680 -0.5831 -0.4683  1.6894
  836SOL    HW2 3343   2.113   2.174   1.745 -0.2423 -1.2165  2.4034
  836SOL     MW 3344   2.103   2.098   1.703  0.3566 -0.4068  0.8947
  837SOL     OW 3345   2.105   0.173   0.630  0.0200  0.0123 -0.2693
  837SOL    HW1 3346   2.020   0.157   0.601 -1.2015  1.1439 -0.3455
  837SOL    HW2 3347   2.155   0.104   0.585 -1.3732 -2.2220 -0.8923
  837SOL     MW 3348   2.100   0.162   0.620 -0.3250 -0.1332 -0.3615
  838SOL     OW 3349   2.901   2.057   0.902  0.4973 -0.1399  0.0248
  838SOL    HW1 3350   2.833   1.995   0.904  0.1682  1.3488 -0.9914
  838SOL    HW2 3351   2.959   2.028   0.977  0.9750 -1.6006  0.1452
  838SOL     MW 3352   2.900   2.045   0.912  0.5169 -0.1362 -0.0934
  839SOL     OW 3353   1.561   2.388   1.049 -0.5255  0.1317 -0.0911
  839SOL    HW1 3354   1.528   2.444   1.116  1.0106  1.3298 -2.9016
  839SOL    HW2 3355   1.597   2.307   1.109 -2.5080 -1.5641  1.2026
  839SOL     MW 3356   1.561   2.385   1.066 -0.5844  0.0660 -0.2912
  840SOL     OW 3357   2.429   2.103   2.337  0.1057  0.0981 -0.5457
  840SOL    HW1 3358   2.393   2.187   2.304  0.6998  1.9074 -2.1919
  840SOL    HW2 3359   2.464   2.122   2.424  2.5644 -0.7674  0.0932
  840SOL     MW 3360   2.429   2.116   2.344  0.5085  0.2226 -0.6786
  841SOL     OW 3361   2.326   2.291   0.110 -0.1894 -0.3940  0.4309
  841SOL    HW1 3362   2.344   2.380   0.090  2.9702 -0.3113  0.4719
  841SOL    HW2 3363   2.236   2.279   0.078  0.7267 -0.1192 -0.7061
  841SOL     MW 3364   2.316   2.301   0.103  0.3483 -0.3469  0.2863
  842SOL     OW 3365   2.635   1.912   1.438 -0.2467 -0.0282  0.9111
  842SOL    HW1 3366   2.572   1.845   1.415 -1.2063  1.4727 -0.1680
  842SOL    HW2 3367   2.638   1.973   1.362 -0.1312  1.1341  0.6739
  842SOL     MW 3368   2.627   1.911   1.425 -0.3581  0.3232  0.7374
  843SOL     OW 3369   2.636   2.779   1.746 -0.2115  0.1848  0.3955
  843SOL    HW1 3370   2.722   2.737   1.768  0.9660 -0.7545  1.7205
  843SOL    HW2 3371   2.578   2.697   1.723  3.6381 -3.8410 -0.5691
  843SOL     MW 3372   2.640   2.762   1.746  0.4518 -0.4703  0.4430
  844SOL     OW 3373   2.713   2.330   1.108 -0.1574 -0.0662 -0.5748
  844SOL    HW1 3374   2.739   2.357   1.020 -1.2263  0.1081  1.0128
  844SOL    HW2 3375   2.776   2.371   1.169 -1.4376  1.3963  0.5121
  844SOL     MW 3376   2.725   2.339   1.104 -0.4673  0.1498 -0.2219
  845SOL     OW 3377   2.858   2.595   0.291  0.5386  0.1902  0.0280
  845SOL    HW1 3378   2.857   2.512   0.331 -1.8462  1.0402 -0.0711
  845SOL    HW2 3379   2.859   2.665   0.352  0.8877 -0.3998 -1.9901
  845SOL     MW 3380   2.858   2.593   0.304  0.2700  0.2245 -0.2513
  846SOL     OW 3381   1.468   2.762   0.796 -0.0194 -0.2107  0.1465
  846SOL    HW1 3382   1.530   2.838   0.805 -0.5819  0.7468 -0.6053
  846SOL    HW2 3383   1.380   2.791   0.822  0.8689 -0.3891 -0.0980
  846SOL     MW 3384   1.464   2.776   0.801  0.0236 -0.1079  0.0150
  847SOL     OW 3385   2.486   1.849   0.222 -0.6489  0.0226  0.2657
  847SOL    HW1 3386   2.467   1.760   0.264 -1.3416  1.4658  1.9079
  847SOL    HW2 3387   2.468   1.837   0.120 -0.0657 -1.4477 -1.7574
  847SOL     MW 3388   2.481   1.836   0.214 -0.6634  0.0190  0.2154
  848SOL     OW 3389   2.684   2.061   1.203  0.2474 -0.2046 -0.5318
  848SOL    HW1 3390   2.701   2.155   1.181  0.5623 -1.3826  2.5000
  848SOL    HW2 3391   2.689   2.012   1.119 -2.0996 -2.6192  2.7400
  848SOL     MW 3392   2.687   2.067   1.189 -0.0207 -0.6786  0.2999
  849SOL     OW 3393   1.965   2.855   0.799 -0.3643  0.1097  0.5926
  849SOL    HW1 3394   1.912   2.812   0.868 -1.9377 -2.6210 -1.0909
  849SOL    HW2 3395   2.033   2.789   0.783 -0.9180 -2.8086  1.1955
  849SOL     MW 3396   1.967   2.841   0.806 -0.6449 -0.6356  0.4500
  850SOL     OW 3397   2.310   1.885   1.627 -0.4994  0.1118 -0.1460
  850SOL    HW1 3398   2.229   1.861   1.582  0.4341  2.4145  1.7713
  850SOL    HW2 3399   2.338   1.973   1.591  4.0333  1.9639 -0.0679
  850SOL     MW 3400   2.303   1.893   1.616  0.2218  0.6600  0.1173
  851SOL     OW 3401   2.466   2.227   0.374  0.9322 -0.3818  0.2760
  851SOL    HW1 3402   2.505   2.234   0.288  3.0000 -1.8419 -0.7465
  851SOL    HW2 3403   2.476   2.319   0.411 -1.1089  0.6138  0.1535
  851SOL     MW 3404   2.473   2.240   0.368  0.9357 -0.4431  0.1249
  852SOL     OW 3405   2.301   2.011   0.369 -0.6010 -0.4095 -0.3135
  852SOL    HW1 3406   2.343   2.096   0.361  0.0683 -0.8698  1.9480
  852SOL    HW2 3407   2.365   1.946   0.333  0.2232  2.5955  1.6346
  852SOL     MW 3408   2.315   2.014   0.363 -0.4039 -0.0738  0.2419
  853SOL     OW 3409   2.523   2.378   1.926  0.4859 -0.1969 -0.1206
  853SOL    HW1 3410   2.508   2.440   1.855 -1.4662  0.1588 -0.2709
  853SOL    HW2 3411   2.618   2.371   1.944 -1.7694 -0.1002  1.0029
  853SOL     MW 3412   2.533   2.385   1.919 -0.0693 -0.1372  0.0078
  854SOL     OW 3413   2.875   2.289   0.738  0.1843  0.3709 -0.2255
  854SOL    HW1 3414   2.830   2.272   0.652  2.3344 -0.8852  0.1058
  854SOL    HW2 3415   2.880   2.202   0.785  2.4384  0.0536  2.1876
  854SOL     MW 3416   2.870   2.275   0.733  0.7654  0.1633  0.1366
  855SOL     OW 3417   2.775   2.368   0.436  0.2649  0.7753 -0.2465
  855SOL    HW1 3418   2.678   2.368   0.424  0.4133 -2.2301  0.3673
  855SOL    HW2 3419   2.810   2.290   0.389  0.7500  2.1706  0.3952
  855SOL     MW 3420   2.767   2.358   0.428  0.3485  0.5628 -0.0808
  856SOL     OW 3421   2.060   1.857   0.242 -0.0577 -0.1147 -0.3534
  856SOL    HW1 3422   1.966   1.871   0.262 -0.4489 -1.6799 -2.1905
  856SOL    HW2 3423   2.101   1.927   0.293  1.2238 -0.9497  0.7617
  856SOL     MW 3424   2.053   1.868   0.252  0.0598 -0.4314 -0.4486
  857SOL     OW 3425   2.475   1.955   0.572  0.0809  0.0430  0.3603
  857SOL    HW1 3426   2.414   1.985   0.499 -1.1909  0.6494  0.1353
  857SOL    HW2 3427   2.398   1.929   0.633 -2.8599 -0.9369  0.1861
  857SOL     MW 3428   2.457   1.955   0.570 -0.4749 -0.0063  0.3076
  858SOL     OW 3429   2.902   2.681   1.782 -0.0385 -0.1982  0.0539
  858SOL    HW1 3430   2.971   2.743   1.758 -0.6651  0.4307  0.7291
  858SOL    HW2 3431   2.920   2.591   1.749  0.9762  1.7526 -1.3160
  858SOL     MW 3432   2.913   2.677   1.774  0.0127  0.1422 -0.0378
  859SOL     OW 3433   1.831   2.689   1.001 -1.0477  0.2151 -0.4410
  859SOL    HW1 3434   1.779   2.630   0.947 -0.8546 -2.1092 -1.4030
  859SOL    HW2 3435   1.890   2.644   1.052  0.9712 -1.0322 -0.6567
  859SOL     MW 3436   1.832   2.676   1.000 -0.7558 -0.2561 -0.5963
  860SOL     OW 3437   2.610   2.587   0.166  0.2050 -0.4313 -0.5396
  860SOL    HW1 3438   2.695   2.600   0.220 -0.1892 -2.0810  0.2463
  860SOL    HW2 3439   2.606   2.655   0.102 -1.4804  0.9795  0.1168
  860SOL     MW 3440   2.621   2.597   0.165 -0.0694 -0.4628 -0.3493
  861SOL     OW 3441   1.631   2.140   1.203 -0.0853  0.0775 -0.0309
  861SOL    HW1 3442   1.668   2.180   1.280  2.6326  0.4935  0.3533
  861SOL    HW2 3443   1.555   2.088   1.228 -1.5227  0.9434  1.7743
  861SOL     MW 3444   1.626   2.139   1.217  0.0836  0.2466  0.2580
  862SOL     OW 3445   2.444   1.726   1.430 -0.4618 -0.2075  0.0133
  862SOL    HW1 3446   2.390   1.782   1.485  0.8047 -2.2650 -1.2056
  862SOL    HW2 3447   2.387   1.692   1.361  0.9665 -2.8855  1.5979
  862SOL     MW 3448   2.430   1.729   1.428 -0.1062 -0.8323  0.0616
  863SOL     OW 3449   2.985   1.707   0.983 -1.0798  0.3608 -0.3906
  863SOL    HW1 3450   3.065   1.717   1.039  1.2396 -0.0494 -3.7809
  863SOL    HW2 3451   2.909   1.734   1.033  1.9858  1.9198  2.2006
  863SOL     MW 3452   2.985   1.712   0.997 -0.3693  0.5123 -0.4960
  864SOL     OW 3453   0.017   1.786   0.743  0.1641 -0.4286  0.4877
  864SOL    HW1 3454  -0.038   1.766   0.820 -1.5157 -2.2327 -0.4469
  864SOL    HW2 3455  -0.038   1.759   0.673  1.1666  0.6374  1.4875
  864SOL     MW 3456   0.003   1.779   0.744  0.0748 -0.5260  0.4963
  865SOL     OW 3457   2.567   2.167   0.100  0.1240 -0.0529  0.1142
  865SOL    HW1 3458   2.573   2.072   0.086 -2.9792 -1.7765 -0.7469
  865SOL    HW2 3459   2.473   2.174   0.087  0.9885  2.8139 -1.4406
  865SOL     MW 3460   2.555   2.156   0.096 -0.1714  0.0979 -0.2045
  866SOL     OW 3461   2.686   2.366   1.540  0.6368 -0.6466 -0.1120
  866SOL    HW1 3462   2.690   2.275   1.567  2.2983  0.5862  1.7693
  866SOL    HW2 3463   2.717   2.378   1.450  0.7489  0.0307 -3.2602
  866SOL     MW 3464   2.691   2.356   1.532  0.8708 -0.3946 -0.2791
  867SOL     OW 3465   0.101   2.647   1.734  0.0454 -0.9818  0.0063
  867SOL    HW1 3466   0.161   2.702   1.785  0.5236  0.9065  1.0082
  867SOL    HW2 3467   0.079   2.696   1.653 -1.6497  0.5601 -1.0239
  867SOL     MW 3468   0.106   2.661   1.730 -0.1152 -0.5292  0.0026
  868SOL     OW 3469   2.757   2.700   0.547 -0.3285  0.0058  0.7719
  868SOL    HW1 3470   2.710   2.619   0.557 -4.0070 -2.6317 -1.8021
  868SOL    HW2 3471   2.691   2.760   0.516  0.6913  1.3295  1.2130
  868SOL     MW 3472   2.742   2.697   0.545 -0.6793 -0.1676  0.4905
  869SOL     OW 3473   2.027   2.480   1.049 -0.7434 -0.5074 -0.1576
  869SOL    HW1 3474   2.054   2.540   0.980  1.5414  0.6598  1.2776
  869SOL    HW2 3475   1.971   2.417   0.999 -3.7722 -1.8681  0.3797
  869SOL     MW 3476   2.023   2.479   1.033 -0.8416 -0.5329  0.1027
  870SOL     OW 3477   2.236   3.083   0.477  0.2076 -0.0464 -0.2434
  870SOL    HW1 3478   2.319   3.123   0.460  0.1176 -2.9564  1.4206
  870SOL    HW2 3479   2.250   2.993   0.496  0.3415 -1.0255  0.4134
  870SOL     MW 3480   2.249   3.076   0.477  0.2134 -0.5595  0.0628
  871SOL     OW 3481   2.481   2.114   0.886  0.2554 -0.1630  0.2342
  871SOL    HW1 3482   2.394   2.080   0.858  0.7602 -3.8819  0.6242
  871SOL    HW2 3483   2.451   2.199   0.915 -0.0964  0.1700  0.0924
  871SOL     MW 3484   2.465   2.121   0.887  0.2756 -0.6098  0.2669
  872SOL     OW 3485   2.127   2.540   1.565  0.0153 -0.1013  1.0963
  872SOL    HW1 3486   2.059   2.601   1.597  0.4673 -0.3913  2.3134
  872SOL    HW2 3487   2.085   2.510   1.483 -2.9100 -2.2076 -0.1291
  872SOL     MW 3488   2.112   2.544   1.558 -0.3111 -0.4175  1.0952
  873SOL     OW 3489   2.865   2.125   1.829  0.1314  0.8400 -0.3901
  873SOL    HW1 3490   2.854   2.219   1.860  0.4767  2.0752 -2.6369
  873SOL    HW2 3491   2.931   2.131   1.757  0.4439  1.7452  1.0095
  873SOL     MW 3492   2.872   2.138   1.824  0.2182  1.1224 -0.5019
  874SOL     OW 3493   2.254   1.388   2.342 -0.6257  0.0431  0.0786
  874SOL    HW1 3494   2.210   1.332   2.273 -0.9300 -1.3611 -2.0493
  874SOL    HW2 3495   2.330   1.343   2.365  0.6847  4.1312  0.7013
  874SOL     MW 3496   2.258   1.375   2.336 -0.4930  0.3972 -0.1200
  875SOL     OW 3497   2.383   2.370   0.944  0.2612  0.1795 -0.1968
  875SOL    HW1 3498   2.436   2.423   0.881  0.7321  0.7590 -0.0329
  875SOL    HW2 3499   2.410   2.402   1.032 -0.3665 -1.2420  3.7267
  875SOL     MW 3500   2.393   2.381   0.947  0.2405  0.0684  0.3425
  876SOL     OW 3501   3.087   2.244   1.304 -0.5486 -0.1056 -0.4144
  876SOL    HW1 3502   3.145   2.260   1.226  2.2540 -0.2357  0.5134
  876SOL    HW2 3503   3.136   2.276   1.379 -4.1551 -3.1494  0.9891
  876SOL     MW 3504   3.101   2.250   1.304 -0.6547 -0.5243 -0.1068
  877SOL     OW 3505   0.041   2.748   0.328 -0.7028 -0.6869  0.0075
  877SOL    HW1 3506   0.088   2.829   0.341 -2.9213 -1.6616  1.4672
  877SOL    HW2 3507   0.033   2.727   0.236  0.0486  0.1100 -3.0076
  877SOL     MW 3508   0.046   2.756   0.318 -0.8964 -0.7103 -0.1977
  878SOL     OW 3509   2.266   1.692   1.182 -0.4274 -0.7306 -0.7021
  878SOL    HW1 3510   2.176   1.640   1.210 -0.5820 -0.0440  0.4435
  878SOL    HW2 3511   2.330   1.628   1.158 -1.6602  0.8152 -2.6620
  878SOL     MW 3512   2.263   1.677   1.182 -0.6104 -0.4361 -0.8095
  879SOL     OW 3513   2.730   2.473   0.848 -0.1856 -0.0626 -0.7740
  879SOL    HW1 3514   2.804   2.528   0.877 -2.3787 -0.3766 -2.0442
  879SOL    HW2 3515   2.779   2.392   0.811  0.5301  0.4121  3.5026
  879SOL     MW 3516   2.747   2.470   0.847 -0.3805 -0.0414 -0.3774
  880SOL     OW 3517   2.582   2.217   0.658 -0.0240 -0.3361  0.5681
  880SOL    HW1 3518   2.569   2.184   0.749 -1.1762  0.7785 -0.5998
  880SOL    HW2 3519   2.527   2.175   0.602  1.1785  0.6091  1.0835
  880SOL     MW 3520   2.573   2.207   0.663 -0.0174 -0.0643  0.4820
  881SOL     OW 3521   2.980   2.772   0.685  0.1747  0.1111  0.3199
  881SOL    HW1 3522   2.889   2.746   0.661  1.2979  2.5175 -1.0018
  881SOL    HW2 3523   3.046   2.708   0.643  0.6309  4.2086 -2.3059
  881SOL     MW 3524   2.977   2.760   0.677  0.3831  0.9692 -0.2009
  882SOL     OW 3525   2.261   2.883   1.943 -0.2713  0.4139 -0.1299
  882SOL    HW1 3526   2.252   2.913   1.849  0.7471 -0.8505 -0.8048
  882SOL    HW2 3527   2.215   2.798   1.953 -1.7991  1.1222 -0.9702
  882SOL     MW 3528   2.254   2.876   1.932 -0.3385  0.3405 -0.3298
  883SOL     OW 3529   2.427   2.165   1.308  0.1546 -0.5518 -0.3556
  883SOL    HW1 3530   2.495   2.114   1.270 -1.8289 -0.8145 -1.5025
  883SOL    HW2 3531   2.355   2.166   1.236  0.9611 -2.1077  0.4136
  883SOL     MW 3532   2.426   2.159   1.294 -0.0007 -0.7917 -0.4054
  884SOL     OW 3533   1.927   1.837   1.049 -0.0206 -0.0402 -0.1281
  884SOL    HW1 3534   1.902   1.932   1.052 -2.8691 -1.1027 -1.0290
  884SOL    HW2 3535   2.022   1.836   1.057 -0.1210  2.4743  0.9972
  884SOL     MW 3536   1.936   1.850   1.051 -0.4097  0.1514 -0.0985
  885SOL     OW 3537   2.901   2.433   1.694  0.5389  0.2586  0.0201
  885SOL    HW1 3538   2.977   2.383   1.664 -0.6355  1.9317 -1.4699
  885SOL    HW2 3539   2.839   2.434   1.622  0.9228  0.2156 -3.1623
  885SOL     MW 3540   2.903   2.427   1.681  0.4346  0.4737 -0.5964
  886SOL     OW 3541   2.880   2.435   1.278  0.5636 -0.2628 -0.4372
  886SOL    HW1 3542   2.956   2.380   1.290 -0.9554 -2.2852 -0.5377
  886SOL    HW2 3543   2.910   2.527   1.311 -0.6620  2.8984  1.5887
  886SOL     MW 3544   2.894   2.440   1.284  0.2015 -0.1125 -0.1831
  887SOL     OW 3545   2.344   2.711   1.542 -0.7074  0.1164  0.5570
  887SOL    HW1 3546   2.389   2.705   1.458  2.0855 -0.9305  1.2418
  887SOL    HW2 3547   2.273   2.642   1.538  0.3193 -0.8215  0.6614
  887SOL     MW 3548   2.340   2.701   1.530 -0.2035 -0.1455  0.6611
  888SOL     OW 3549   2.056   2.160   1.390 -0.2415 -0.1963  0.4084
  888SOL    HW1 3550   2.134   2.122   1.353 -0.2260  0.3481 -0.2703
  888SOL    HW2 3551   2.067   2.138   1.480  2.3138  3.4100  0.7530
  888SOL     MW 3552   2.068   2.152   1.397  0.0977  0.3514  0.3643
  889SOL     OW 3553   2.282   1.922   2.034  0.1760 -0.3833  0.4483
  889SOL    HW1 3554   2.358   1.889   2.088 -1.0469 -1.9422  1.2080
  889SOL    HW2 3555   2.308   2.009   1.993  1.9116  0.5685  2.5915
  889SOL     MW 3556   2.296   1.929   2.036  0.2436 -0.4634  0.8313
  890SOL     OW 3557   0.056   2.344   0.167 -0.1053  0.2304  0.1662
  890SOL    HW1 3558   0.027   2.436   0.168 -0.2957  1.5713  2.4044
  890SOL    HW2 3559   0.034   2.296   0.246 -1.1434 -1.1661  3.0167
  890SOL     MW 3560   0.049   2.350   0.177 -0.2674  0.2231  0.8376
  891SOL     OW 3561   3.014   2.029   1.161  0.1408 -0.2102  0.6009
  891SOL    HW1 3562   3.085   1.971   1.157 -1.7627 -0.1957 -3.8543
  891SOL    HW2 3563   3.029   2.104   1.225 -2.2123  0.8796  1.1420
  891SOL     MW 3564   3.025   2.031   1.169 -0.4208 -0.0645  0.0845
  892SOL     OW 3565   2.478   2.389   2.795 -0.0920 -0.2294 -0.2505
  892SOL    HW1 3566   2.451   2.313   2.844 -1.4131 -0.3252 -1.1858
  892SOL    HW2 3567   2.570   2.408   2.827  2.8450 -0.3741 -0.6648
  892SOL     MW 3568   2.487   2.382   2.806  0.1212 -0.2612 -0.4286
  893SOL     OW 3569   1.649   2.342   1.379 -0.3644 -0.6376 -0.3849
  893SOL    HW1 3570   1.568   2.383   1.422  0.0035  1.5521  1.7521
  893SOL    HW2 3571   1.715   2.373   1.441  0.0985 -1.9445  0.4737
  893SOL     MW 3572   1.647   2.351   1.393 -0.2548 -0.5211  0.0104
  894SOL     OW 3573   2.758   1.879   0.459  0.2113  0.6740  0.3794
  894SOL    HW1 3574   2.688   1.874   0.533 -0.1427  0.5762  0.8949
  894SOL    HW2 3575   2.720   1.839   0.386  1.6292 -0.1942  2.6145
  894SOL     MW 3576   2.743   1.873   0.459  0.3516  0.5465  0.7423
  895SOL     OW 3577   2.256   2.135   1.116  0.5308 -0.9032  0.4119
  895SOL    HW1 3578   2.218   2.205   1.061 -2.1848 -0.0780 -0.8723
  895SOL    HW2 3579   2.226   2.048   1.078  1.3747 -3.0972 -2.0091
  895SOL     MW 3580   2.247   2.132   1.103  0.2838 -1.0838 -0.0770
  896SOL     OW 3581   2.221   2.772   1.067  0.6695  0.4183 -0.3141
  896SOL    HW1 3582   2.288   2.775   1.139 -1.7385  0.4195  0.1421
  896SOL    HW2 3583   2.149   2.830   1.091 -0.6831 -0.1469 -0.2112
  896SOL     MW 3584   2.220   2.780   1.079  0.1733  0.3439 -0.2403
  897SOL     OW 3585   3.077   3.018   0.007  0.2492  0.1710  0.0259
  897SOL    HW1 3586   3.136   2.939   0.004  2.1855 -2.8461  1.8396
  897SOL    HW2 3587   3.005   3.004  -0.046  1.3022  1.0704 -1.5091
  897SOL     MW 3588   3.075   3.006  -0.001  0.6436 -0.1084  0.0627
  898SOL     OW 3589   2.183   0.135   1.456  0.4502  0.2629  0.0235
  898SOL    HW1 3590   2.130   0.060   1.484 -0.6279  0.9377 -0.2576
  898SOL    HW2 3591   2.161   0.141   1.359 -1.9044  0.9475 -0.9964
  898SOL     MW 3592   2.173   0.126   1.447 -0.0027  0.4422 -0.1482
  899SOL     OW 3593   2.905   3.025   0.605  0.7340 -0.5805  0.7280
  899SOL    HW1 3594   2.937   2.944   0.646  0.9390  1.6724  0.5486
  899SOL    HW2 3595   2.809   3.021   0.621 -1.9717  3.2630  0.1022
  899SOL     MW 3596   2.897   3.014   0.613  0.4041  0.2239  0.6218
  900SOL     OW 3597   0.121   2.356   1.106  0.9714  0.9351  0.0194
  900SOL    HW1 3598   0.073   2.436   1.095 -1.1539 -0.5003 -1.4732
  900SOL    HW2 3599   0.134   2.324   1.014 -0.4502 -2.0615 -0.1761
  900SOL     MW 3600   0.116   2.362   1.092  0.5034  0.3503 -0.2033
  901SOL     OW 3601   1.741   2.875   1.782  0.5653  0.2934 -0.1477
  901SOL    HW1 3602   1.801   2.808   1.772 -2.7212  1.3319  0.9420
  901SOL    HW2 3603   1.660   2.859   1.737  1.0242 -0.8445  0.6121
  901SOL     MW 3604   1.738   2.864   1.775  0.1922  0.2803  0.0963
  902SOL     OW 3605   2.642   2.113   1.646  0.0201 -0.1457  0.7065
  902SOL    HW1 3606   2.634   2.027   1.599 -0.5537 -2.3000  2.8360
  902SOL    HW2 3607   2.708   2.100   1.715  1.7193  1.8713  1.4000
  902SOL     MW 3608   2.650   2.100   1.649  0.1686 -0.1638  1.0790
  903SOL     OW 3609   1.513   2.646   0.538 -0.0042 -0.3705 -0.3724
  903SOL    HW1 3610   1.605   2.617   0.550  0.7695 -0.2777 -0.2552
  903SOL    HW2 3611   1.487   2.714   0.610  1.1627  1.8747  4.6977
  903SOL     MW 3612   1.522   2.651   0.549  0.2518 -0.0620  0.3120
  904SOL     OW 3613   2.517   2.540   1.699  0.1419  0.2762 -0.1243
  904SOL    HW1 3614   2.441   2.581   1.646 -0.7774 -0.1673 -0.7229
  904SOL    HW2 3615   2.561   2.482   1.641 -1.6558 -0.1759 -0.8269
  904SOL     MW 3616   2.513   2.538   1.685 -0.2166  0.1580 -0.2960
  905SOL     OW 3617   2.331   2.469   2.088  0.7105  0.5252 -0.1374
  905SOL    HW1 3618   2.411   2.423   2.059  2.6039  0.2165  1.3556
  905SOL    HW2 3619   2.288   2.399   2.154 -1.6782 -1.7891 -0.3317
  905SOL     MW 3620   2.336   2.453   2.093  0.6451  0.1791  0.0339
  906SOL     OW 3621   2.496   2.525   0.751 -0.0753  0.0534 -0.4821
  906SOL    HW1 3622   2.584   2.512   0.782  0.2949 -1.5353 -0.1002
  906SOL    HW2 3623   2.465   2.608   0.780  1.0464 -0.5025 -1.4891
  906SOL     MW 3624   2.503   2.534   0.759  0.1215 -0.2296 -0.5646
  907SOL     OW 3625   2.661   2.843   1.295 -0.2252 -1.1950  0.4017
  907SOL    HW1 3626   2.718   2.908   1.344  0.8734  0.8539 -1.4419
  907SOL    HW2 3627   2.692   2.845   1.205 -0.8432  1.1702  4.3973
  907SOL     MW 3628   2.672   2.852   1.289 -0.1618 -0.6126  0.6857
  908SOL     OW 3629   2.703   2.386   0.012 -0.7639 -0.5960 -0.3530
  908SOL    HW1 3630   2.641   2.313   0.026  0.7767  0.3771  1.6604
  908SOL    HW2 3631   2.651   2.450   0.071 -2.9671 -1.1971 -0.1350
  908SOL     MW 3632   2.688   2.385   0.021 -0.8513 -0.5469 -0.0586
  909SOL     OW 3633   1.687   0.088   1.306 -0.4822 -0.0735  0.8556
  909SOL    HW1 3634   1.634   0.172   1.315  1.9685  2.9188 -0.7325
  909SOL    HW2 3635   1.675   0.041   1.389  0.6570 -0.4090 -0.0702
  909SOL     MW 3636   1.678   0.093   1.318 -0.0085  0.2770  0.5239
  910SOL     OW 3637   2.121   1.645   0.384  0.0868  0.2539 -0.1420
  910SOL    HW1 3638   2.097   1.549   0.361  0.4144  0.0495 -2.5214
  910SOL    HW2 3639   2.084   1.700   0.314 -0.6370 -0.9419  0.1141
  910SOL     MW 3640   2.113   1.640   0.372  0.0345  0.0692 -0.4221
  911SOL     OW 3641   2.356   2.154   1.572  0.5469  0.7388 -0.1722
  911SOL    HW1 3642   2.437   2.157   1.615 -0.2089  1.3349 -3.8478
  911SOL    HW2 3643   2.387   2.154   1.476 -1.7066 -0.6148 -0.1423
  911SOL     MW 3644   2.371   2.155   1.565  0.1498  0.6388 -0.6532
  912SOL     OW 3645   2.917   1.864   1.384 -0.0337 -0.1421  0.0195
  912SOL    HW1 3646   2.938   1.907   1.301 -1.3516  1.1589 -4.5965
  912SOL    HW2 3647   2.829   1.897   1.395  4.0174  0.4605 -1.0340
  912SOL     MW 3648   2.908   1.874   1.374  0.3270  0.1091 -0.7285
  913SOL     OW 3649   2.691   3.102   0.253 -0.0181  0.8959 -0.0821
  913SOL    HW1 3650   2.774   3.057   0.267 -1.3553 -0.2177 -0.4767
  913SOL    HW2 3651   2.617   3.033   0.253  1.0063 -0.2173  1.7874
  913SOL     MW 3652   2.692   3.087   0.255 -0.0594  0.6021  0.1125
  914SOL     OW 3653   2.706   1.806   2.937 -0.0582  0.0903  0.5002
  914SOL    HW1 3654   2.741   1.894   2.931 -2.6102 -2.2325 -0.9691
  914SOL    HW2 3655   2.611   1.817   2.954 -2.6441 -2.0550 -1.3540
  914SOL     MW 3656   2.698   1.819   2.939 -0.7361 -0.4992  0.0617
  915SOL     OW 3657   1.820   0.119   0.107 -0.4158 -0.2414 -0.1263
  915SOL    HW1 3658   1.888   0.071   0.157 -0.1630 -1.2826  1.6064
  915SOL    HW2 3659   1.741   0.089   0.145  0.7688  0.2576 -0.6207
  915SOL     MW 3660   1.818   0.109   0.119 -0.2261 -0.3129  0.0371
  916SOL     OW 3661   1.769   2.170   1.987  0.3529 -0.1240 -0.6803
  916SOL    HW1 3662   1.805   2.260   1.972  2.1430 -3.4682 -1.5183
  916SOL    HW2 3663   1.782   2.135   1.899 -1.5358 -0.2103 -1.0621
  916SOL     MW 3664   1.776   2.177   1.973  0.3399 -0.5766 -0.8412
  917SOL     OW 3665   2.555   2.218   2.585 -0.0023 -0.5406 -0.1018
  917SOL    HW1 3666   2.536   2.278   2.658  1.2465 -0.2595 -1.6604
  917SOL    HW2 3667   2.620   2.258   2.536 -1.4327 -0.4476  0.3103
  917SOL     MW 3668   2.561   2.231   2.589 -0.0263 -0.4913 -0.2531
  918SOL     OW 3669   2.072   1.610   2.659 -0.4263 -0.5071  0.8009
  918SOL    HW1 3670   2.005   1.643   2.601 -1.8656 -0.8517 -1.0983
  918SOL    HW2 3671   2.141   1.675   2.643 -2.0803 -1.4927  2.0472
  918SOL     MW 3672   2.072   1.623   2.649 -0.8344 -0.6826  0.7148
  919SOL     OW 3673   3.058   2.428   2.267 -0.3037  0.5425  0.8321
  919SOL    HW1 3674   2.987   2.364   2.268 -1.0240 -2.2405  0.5339
  919SOL    HW2 3675   3.088   2.419   2.176 -5.6461  1.4176  1.3295
  919SOL     MW 3676   3.053   2.418   2.255 -1.1036  0.2908  0.8584
  920SOL     OW 3677   2.641   2.788   3.064 -0.1150  0.8115  0.6838
  920SOL    HW1 3678   2.554   2.801   3.028 -0.4812  1.9326 -0.6335
  920SOL    HW2 3679   2.698   2.779   2.982 -2.8045 -1.1740  1.3390
  920SOL     MW 3680   2.637   2.789   3.048 -0.5182  0.6974  0.5965
  921SOL     OW 3681   2.464   2.616   2.650 -0.4981 -0.6308 -0.2023
  921SOL    HW1 3682   2.522   2.609   2.575  0.7705  0.2662  1.4443
  921SOL    HW2 3683   2.490   2.537   2.697 -0.7429 -1.5492  0.1667
  921SOL     MW 3684   2.475   2.605   2.647 -0.3630 -0.6336  0.0636
  922SOL     OW 3685   2.085   2.658   0.421 -0.0361 -0.4816 -0.0129
  922SOL    HW1 3686   2.092   2.662   0.326  0.7187 -1.8203  1.4196
  922SOL    HW2 3687   2.087   2.565   0.443  0.5529  3.4411 -1.3026
  922SOL     MW 3688   2.087   2.647   0.412  0.1412 -0.1407  0.0060
  923SOL     OW 3689   2.198   2.913   1.676  0.2162  0.1346 -0.2049
  923SOL    HW1 3690   2.254   2.841   1.638 -0.9759  0.1502  0.9534
  923SOL    HW2 3691   2.159   2.966   1.605 -0.8535 -1.3417 -1.0065
  923SOL     MW 3692   2.200   2.911   1.661 -0.0822 -0.0581 -0.1579
  924SOL     OW 3693   1.074   2.735   2.624  0.7393  0.1075  0.1111
  924SOL    HW1 3694   1.167   2.761   2.610  1.5047 -1.8483  1.2841
  924SOL    HW2 3695   1.084   2.647   2.661 -1.5174 -3.5219 -0.4935
  924SOL     MW 3696   1.087   2.727   2.627  0.5425 -0.6294  0.1861
  925SOL     OW 3697   2.994   0.236   2.631  0.3834 -0.4354 -0.4432
  925SOL    HW1 3698   2.948   0.231   2.546  0.1684 -0.1595 -0.7305
  925SOL    HW2 3699   2.943   0.304   2.678 -1.0449  0.8829  2.6911
  925SOL     MW 3700   2.981   0.244   2.626  0.1666 -0.2251 -0.0676
  926SOL     OW 3701   2.798   2.380   1.951 -0.1678  0.6252  0.5032
  926SOL    HW1 3702   2.824   2.440   2.018 -0.4757 -2.9048  0.0823
  926SOL    HW2 3703   2.831   2.412   1.863 -0.5216  0.9890  0.1147
  926SOL     MW 3704   2.806   2.392   1.948 -0.2551  0.2074  0.3964
  927SOL     OW 3705   2.402   0.138   0.295  0.7136 -0.6077  0.4023
  927SOL    HW1 3706   2.481   0.194   0.274  1.4204  1.2654 -0.7826
  927SOL    HW2 3707   2.371   0.102   0.206  0.3136  0.3266 -2.9292
  927SOL     MW 3708   2.408   0.140   0.281  0.7541 -0.2373 -0.1936
  928SOL     OW 3709   2.154   2.336   1.806  0.0230  0.1438  0.1976
  928SOL    HW1 3710   2.169   2.382   1.722  1.2185 -1.6996 -1.2508
  928SOL    HW2 3711   2.241   2.336   1.848  0.8011 -3.1465  2.9099
  928SOL     MW 3712   2.168   2.342   1.801  0.2834 -0.5335  0.3643
  929SOL     OW 3713   2.749   2.345   2.464 -0.0992  0.1970 -0.9312
  929SOL    HW1 3714   2.798   2.281   2.400  0.4927 -1.5509 -0.6163
  929SOL    HW2 3715   2.796   2.342   2.546  3.2593 -0.3840 -0.8241
  929SOL     MW 3716   2.762   2.336   2.466  0.4220 -0.1103 -0.8755
  930SOL     OW 3717   2.009   2.799   2.672 -0.6139  0.2263  0.2462
  930SOL    HW1 3718   2.047   2.737   2.729 -1.3570 -0.8441 -0.5941
  930SOL    HW2 3719   2.070   2.858   2.633 -0.9922  1.9991 -0.3694
  930SOL     MW 3720   2.022   2.799   2.675 -0.7618  0.3190  0.0541
  931SOL     OW 3721   0.046   2.790   2.437  0.0703  0.3344 -0.4605
  931SOL    HW1 3722   0.018   2.838   2.526  0.0243  0.2410  0.6888
  931SOL    HW2 3723   0.138   2.820   2.428 -1.5315 -0.4544 -0.3099
  931SOL     MW 3724   0.055   2.800   2.448 -0.1471  0.2180 -0.2890
  932SOL     OW 3725   2.816   1.983   2.522 -0.8314  0.0817 -0.3663
  932SOL    HW1 3726   2.909   1.995   2.494 -0.2325 -0.5767 -1.5101
  932SOL    HW2 3727   2.766   1.964   2.443 -0.0975  0.5564  0.1636
  932SOL     MW 3728   2.822   1.982   2.508 -0.6555  0.0575 -0.4473
  933SOL     OW 3729   2.091   2.802   2.207  0.0859 -0.3560  0.0562
  933SOL    HW1 3730   2.174   2.839   2.227  1.0363  0.9455 -0.1941
  933SOL    HW2 3731   2.034   2.871   2.186 -2.2748  1.5373 -2.0448
  933SOL     MW 3732   2.095   2.816   2.207 -0.1002  0.0656 -0.2540
  934SOL     OW 3733   2.017   2.665   2.428  0.0759  0.3129  0.0641
  934SOL    HW1 3734   2.000   2.729   2.492  0.8314 -1.2055 -1.6804
  934SOL    HW2 3735   2.040   2.709   2.337 -1.9230 -0.0249 -0.3947
  934SOL     MW 3736   2.018   2.679   2.424 -0.0882  0.0680 -0.2266
  935SOL     OW 3737   2.636   1.477   1.776 -0.2687  0.2098  0.1816
  935SOL    HW1 3738   2.729   1.469   1.753 -0.1923 -0.3639 -0.6612
  935SOL    HW2 3739   2.605   1.472   1.683  1.0489  0.5636  1.3139
  935SOL     MW 3740   2.644   1.475   1.761 -0.0848  0.1808  0.2198
  936SOL     OW 3741   2.944   2.244   0.019 -0.0549 -0.1894  0.2875
  936SOL    HW1 3742   3.008   2.280   0.076 -0.0071 -3.2571 -1.4115
  936SOL    HW2 3743   2.860   2.285   0.045  2.5338  0.6383 -2.6088
  936SOL     MW 3744   2.941   2.254   0.030  0.2930 -0.4850 -0.3188
  937SOL     OW 3745   1.955   2.123   2.671 -0.0828  0.6065 -0.2753
  937SOL    HW1 3746   2.044   2.099   2.696 -0.9827 -0.1697 -2.7847
  937SOL    HW2 3747   1.953   2.118   2.577 -1.6473  2.0498  0.8267
  937SOL     MW 3748   1.967   2.119   2.662 -0.4079  0.6945 -0.4610
  938SOL     OW 3749   2.310   1.720   1.833 -0.8279  0.5616  0.1203
  938SOL    HW1 3750   2.326   1.764   1.744 -1.9901  1.4403 -0.9099
  938SOL    HW2 3751   2.281   1.791   1.902 -1.7445 -2.1257  1.2683
  938SOL     MW 3752   2.308   1.735   1.831 -1.1022  0.3229  0.1358
  939SOL     OW 3753   2.769   1.946   2.244 -0.2930  0.2004 -0.3095
  939SOL    HW1 3754   2.816   1.911   2.167 -1.2003  0.8626 -2.5020
  939SOL    HW2 3755   2.673   1.937   2.222 -0.7670  0.5739  2.0123
  939SOL     MW 3756   2.763   1.940   2.231 -0.4753  0.3371 -0.2924
  940SOL     OW 3757   2.181   0.126   2.741 -0.5477  0.0963  0.7243
  940SOL    HW1 3758   2.216   0.044   2.708  2.1738 -2.3950  3.3201
  940SOL    HW2 3759   2.243   0.167   2.802 -0.7882  1.4090  0.2294
  940SOL     MW 3760   2.194   0.120   2.744 -0.2204 -0.0592  1.0015
  941SOL     OW 3761   0.128   2.457   2.024 -0.2023 -0.1957 -0.0252
  941SOL    HW1 3762   0.205   2.415   2.048 -2.0457  1.1331 -0.0290
  941SOL    HW2 3763   0.114   2.445   1.927  1.2847  4.7565  0.1678
  941SOL     MW 3764   0.136   2.450   2.014 -0.2493  0.6330 -0.0002
  942SOL     OW 3765   2.867   2.232   2.202 -0.5072 -0.2576 -0.1249
  942SOL    HW1 3766   2.822   2.268   2.125 -1.8718 -0.2411  2.0094
  942SOL    HW2 3767   2.856   2.133   2.210 -2.5976 -2.3067  1.7738
  942SOL     MW 3768   2.860   2.224   2.193 -0.9631 -0.5258  0.4073
  943SOL     OW 3769   0.300   2.120   2.318  0.0268  0.6101  0.2190
  943SOL    HW1 3770   0.245   2.174   2.374  1.7506 -2.5196 -0.9865
  943SOL    HW2 3771   0.360   2.067   2.370  1.3993  2.6752 -1.8543
  943SOL     MW 3772   0.301   2.121   2.332  0.4353  0.4697 -0.2136
  944SOL     OW 3773   2.134   2.647   1.954 -0.2836  0.0454 -0.0238
  944SOL    HW1 3774   2.198   2.589   1.996  1.2166  0.6342  2.6068
  944SOL    HW2 3775   2.058   2.658   2.008 -3.9029 -2.0149 -0.6273
  944SOL     MW 3776   2.133   2.641   1.967 -0.5632 -0.1487  0.2436
  945SOL     OW 3777   2.810   2.771   2.829 -0.6563 -0.3166  0.1603
  945SOL    HW1 3778   2.787   2.686   2.801  1.0395 -0.4220 -1.3827
  945SOL    HW2 3779   2.824   2.820   2.741 -1.0085 -3.7155  0.7981
  945SOL     MW 3780   2.809   2.766   2.813 -0.4790 -0.7789  0.0409
  946SOL     OW 3781   2.463   2.654   2.233 -0.1871  0.0510  0.3067
  946SOL    HW1 3782   2.480   2.684   2.142  2.3559 -0.2532 -4.3868
  946SOL    HW2 3783   2.407   2.581   2.216 -0.5012  1.5911 -0.9417
  946SOL     MW 3784   2.458   2.648   2.219  0.1070  0.2140 -0.4773
  947SOL     OW 3785   2.036   0.009   0.208 -0.1043 -0.2241  0.4142
  947SOL    HW1 3786   2.088  -0.054   0.149 -1.0042 -0.0052  2.6524
  947SOL    HW2 3787   2.069   0.009   0.299  0.1718  2.3470  2.1173
  947SOL     MW 3788   2.047   0.000   0.212 -0.1866  0.1440  0.9342
  948SOL     OW 3789   1.790   3.001   2.618  0.3911  0.1283  0.1569
  948SOL    HW1 3790   1.817   2.910   2.644 -2.1058 -1.0787  0.2662
  948SOL    HW2 3791   1.753   3.004   2.529  0.6918  1.1598  0.2295
  948SOL     MW 3792   1.789   2.990   2.610  0.1014  0.1052  0.1809
  949SOL     OW 3793   2.499   1.869   2.199  0.3492 -0.3238 -0.2008
  949SOL    HW1 3794   2.493   1.796   2.259  2.5504  0.0919  0.0006
  949SOL    HW2 3795   2.456   1.947   2.242 -0.1485 -3.0830  1.7218
  949SOL     MW 3796   2.493   1.870   2.213  0.5740 -0.6330  0.0794
  950SOL     OW 3797   2.339   2.538   2.997 -0.0741 -0.4643 -0.0700
  950SOL    HW1 3798   2.387   2.488   2.933 -1.6427  0.0378 -0.7878
  950SOL    HW2 3799   2.262   2.545   2.950 -0.3433 -1.2316  0.3501
  950SOL     MW 3800   2.335   2.533   2.983 -0.3166 -0.4993 -0.1093
  951SOL     OW 3801   3.055   2.190   2.884 -0.2040 -0.1434  0.2974
  951SOL    HW1 3802   2.992   2.203   2.958 -1.8572 -0.2567  1.8789
  951SOL    HW2 3803   3.033   2.099   2.863 -2.4079  2.0139  0.0518
  951SOL     MW 3804   3.044   2.179   2.891 -0.7129  0.1263  0.4736
  952SOL     OW 3805   3.025   1.713   2.141 -0.2759  0.2190  0.4348
  952SOL    HW1 3806   2.958   1.753   2.085 -0.0259  0.7681 -2.1198
  952SOL    HW2 3807   3.087   1.790   2.166  0.1845  0.9602 -3.1506
  952SOL     MW 3808   3.024   1.728   2.137 -0.1822  0.3893 -0.3753
  953SOL     OW 3809   1.961   1.718   2.932  0.5071  0.6840 -0.2144
  953SOL    HW1 3810   1.886   1.674   2.980  0.2470 -0.6836 -0.1245
  953SOL    HW2 3811   1.997   1.643   2.882 -2.9954 -1.5632  1.9830
  953SOL     MW 3812   1.956   1.702   2.932  0.0107  0.2071  0.0874
  954SOL     OW 3813   2.395   2.153   2.909 -0.8438 -0.1994 -0.4855
  954SOL    HW1 3814   2.306   2.135   2.881 -1.4908  1.5111 -0.5536
  954SOL    HW2 3815   2.452   2.096   2.854  3.6725  0.2606 -1.1140
  954SOL     MW 3816   2.391   2.143   2.898 -0.3333  0.0869 -0.5774
  955SOL     OW 3817   1.594   1.508   2.546  0.0857 -0.1024  0.1702
  955SOL    HW1 3818   1.543   1.562   2.477 -1.9237  0.0968 -0.6858
  955SOL    HW2 3819   1.666   1.568   2.569 -2.5513  0.1326  0.7219
  955SOL     MW 3820   1.597   1.523   2.540 -0.5273 -0.0451  0.1301
  956SOL     OW 3821   2.734   2.490   2.861 -0.1526 -0.2395 -0.0127
  956SOL    HW1 3822   2.753   2.463   2.947  0.6700 -0.3277 -0.2182
  956SOL    HW2 3823   2.790   2.442   2.800 -0.9453 -1.8490 -0.2238
  956SOL     MW 3824   2.744   2.480   2.864 -0.1487 -0.4635 -0.0676
  957SOL     OW 3825   2.271   2.828   0.594 -0.6943 -0.6119  0.0391
  957SOL    HW1 3826   2.225   2.746   0.570  0.9661  2.5299  1.5833
  957SOL    HW2 3827   2.306   2.827   0.687  4.7740  0.1239  1.7675
  957SOL     MW 3828   2.270   2.817   0.603  0.2463 -0.1003  0.4709
  958SOL     OW 3829   2.073   2.572   2.894  0.2995 -0.3805 -0.0485
  958SOL    HW1 3830   2.036   2.491   2.873 -0.7139 -0.9903  3.8651
  958SOL    HW2 3831   2.009   2.610   2.955 -0.7831  2.0865 -1.3505
  958SOL     MW 3832   2.060   2.567   2.899  0.0230 -0.1354  0.2960
  959SOL     OW 3833   2.509   2.813   0.456  0.0120 -0.1110  0.0502
  959SOL    HW1 3834   2.491   2.869   0.382  2.0108 -1.9346 -0.4024
  959SOL    HW2 3835   2.424   2.806   0.504 -0.1982  0.6579 -0.6281
  959SOL     MW 3836   2.496   2.819   0.453  0.2480 -0.2502 -0.0990
  960SOL     OW 3837   1.921   2.381   2.257 -0.0049  0.2827 -0.0939
  960SOL    HW1 3838   1.935   2.300   2.303 -0.0325  0.2326  0.8238
  960SOL    HW2 3839   1.850   2.415   2.312  0.2625  1.9049  0.9720
  960SOL     MW 3840   1.914   2.375   2.271  0.0267  0.4901  0.1678
  961SOL     OW 3841   2.241   2.307   2.308 -0.1994  0.2383  0.3867
  961SOL    HW1 3842   2.151   2.281   2.296 -0.4819  0.7788  1.0719
  961SOL    HW2 3843   2.226   2.366   2.380 -1.3908  2.0351 -1.0137
  961SOL     MW 3844   2.227   2.312   2.316 -0.3939  0.5467  0.2924
  962SOL     OW 3845   2.154   2.011   2.850 -0.0860 -0.0194 -0.0112
  962SOL    HW1 3846   2.148   1.959   2.932 -0.0972 -1.5960 -1.2047
  962SOL    HW2 3847   2.179   1.950   2.784 -1.5484  2.8564  4.1279
  962SOL     MW 3848   2.157   1.996   2.852 -0.2805  0.1520  0.3775
  963SOL     OW 3849   1.889   2.611   2.083  0.0409  0.5776  0.0728
  963SOL    HW1 3850   1.922   2.555   2.157 -1.1228 -0.5641  0.8056
  963SOL    HW2 3851   1.876   2.534   2.018 -1.0111 -0.2665 -2.2244
  963SOL     MW 3852   1.891   2.593   2.084 -0.2514  0.3156 -0.1336
  964SOL     OW 3853   1.836   1.901   2.738 -0.0789 -0.6283 -0.2369
  964SOL    HW1 3854   1.878   1.986   2.711  0.3129 -0.6039 -0.3709
  964SOL    HW2 3855   1.884   1.851   2.797 -0.7974  1.8422  0.3661
  964SOL     MW 3856   1.848   1.906   2.742 -0.1220 -0.2991 -0.1751
  965SOL     OW 3857   2.118   2.614   0.810 -0.9276 -0.3762  0.3883
  965SOL    HW1 3858   2.117   2.531   0.763 -1.9323 -1.0509 -1.8221
  965SOL    HW2 3859   2.213   2.639   0.804  0.3034  1.6405 -0.3648
  965SOL     MW 3860   2.130   2.606   0.803 -0.8978 -0.1991 -0.0027
  966SOL     OW 3861   2.681   2.606   2.417 -0.0864  0.2146  0.0117
  966SOL    HW1 3862   2.623   2.619   2.338  2.5113 -1.9112 -1.3656
  966SOL    HW2 3863   2.716   2.516   2.425 -2.0560 -1.0210 -0.7505
  966SOL     MW 3864   2.678   2.596   2.407 -0.0035 -0.2289 -0.2706
  967SOL     OW 3865   2.744   3.056   3.016 -0.6441  0.4248  0.3689
  967SOL    HW1 3866   2.706   2.964   3.041  1.4985 -1.7811  1.4337
  967SOL    HW2 3867   2.679   3.075   2.948 -0.7977 -0.0949 -1.1716
  967SOL     MW 3868   2.731   3.046   3.010 -0.3817  0.0652  0.3062
  968SOL     OW 3869   3.060   2.689   2.917  0.6120  0.2751 -0.0691
  968SOL    HW1 3870   2.972   2.712   2.883 -1.2452  2.0691  0.3149
  968SOL    HW2 3871   3.105   2.654   2.837  0.6067  0.7923 -1.8285
  968SOL     MW 3872   3.054   2.687   2.902  0.3663  0.5801 -0.2506
  969SOL     OW 3873   1.552   2.182   1.700 -0.0372 -0.4322 -0.6194
  969SOL    HW1 3874   1.624   2.121   1.704 -1.1123 -0.6695 -0.1465
  969SOL    HW2 3875   1.523   2.193   1.790 -0.9516 -1.5988  3.4206
  969SOL     MW 3876   1.558   2.176   1.712 -0.2997 -0.6174 -0.0240
  970SOL     OW 3877   1.748   1.810   1.916 -0.5713 -0.1189 -0.3042
  970SOL    HW1 3878   1.797   1.744   1.964  2.2649  0.0113 -2.4646
  970SOL    HW2 3879   1.654   1.801   1.925  0.3728  1.4961  2.6563
  970SOL     MW 3880   1.742   1.800   1.924 -0.0725  0.1114 -0.1986
  971SOL     OW 3881   1.720   0.016   2.346  0.6515  0.1205 -0.3825
  971SOL    HW1 3882   1.763  -0.033   2.267  0.2893 -0.7234  0.7749
  971SOL    HW2 3883   1.766   0.101   2.353  1.0144  1.0987  3.4513
  971SOL     MW 3884   1.732   0.021   2.336  0.6516  0.1382  0.2761
  972SOL     OW 3885   0.309   2.892   2.393 -0.2140 -0.3903  0.4533
  972SOL    HW1 3886   0.357   2.821   2.438  0.4840 -0.7577 -2.7164
  972SOL    HW2 3887   0.345   2.966   2.438  2.0026 -2.2959 -0.9816
  972SOL     MW 3888   0.320   2.893   2.405  0.1705 -0.6902 -0.1542
  973SOL     OW 3889   2.599   3.013   2.110 -0.3253 -0.1672  0.1054
  973SOL    HW1 3890   2.587   2.922   2.077  0.8277 -2.3277  0.6997
  973SOL    HW2 3891   2.605   3.058   2.021  4.2376  1.5769 -3.9269
  973SOL     MW 3892   2.598   3.007   2.094  0.4289 -0.2221 -0.3482
  974SOL     OW 3893   1.949   0.160   2.600 -0.3557 -0.2188  0.2465
  974SOL    HW1 3894   2.031   0.144   2.646 -1.1178 -0.3816 -1.3489
  974SOL    HW2 3895   1.903   0.077   2.604 -0.2820  1.7267  0.9978
  974SOL     MW 3896   1.954   0.147   2.607 -0.4466  0.0164  0.1351
  975SOL     OW 3897   2.210   2.497   2.521 -0.0059 -0.1864  0.3401
  975SOL    HW1 3898   2.292   2.535   2.558  0.7815  1.2032 -0.1039
  975SOL    HW2 3899   2.154   2.567   2.490 -3.2571  1.2859 -1.9015
  975SOL     MW 3900   2.213   2.511   2.522 -0.3310  0.1912 -0.0143
  976SOL     OW 3901   0.207   0.359   1.611 -0.4757  0.4272 -0.7617
  976SOL    HW1 3902   0.278   0.296   1.628  0.9070  0.3197 -0.5768
  976SOL    HW2 3903   0.138   0.298   1.589 -0.0371 -0.0004  0.6629
  976SOL     MW 3904   0.207   0.343   1.610 -0.2354  0.3566 -0.5494
  977SOL     OW 3905   1.759   2.767   2.385 -0.1042 -0.1831  0.1175
  977SOL    HW1 3906   1.825   2.701   2.403  0.7347  2.9181  1.4178
  977SOL    HW2 3907   1.816   2.806   2.318  0.2921  0.6673 -0.2419
  977SOL     MW 3908   1.776   2.764   2.379  0.0587  0.3383  0.2416
   3.10000   3.10000   3.10000
