977 TIP4P/2005f water molecules t=   1.30000 step= 1300
 3908
    1SOL     OW    1   0.365   0.839   0.041 -0.3483  0.6907  0.2339
    1SOL    HW1    2   0.335   0.865  -0.048  1.2656  1.8170 -1.7981
    1SOL    HW2    3   0.309   0.759   0.062 -2.2542  0.3821  0.1715
    1SOL     MW    4   0.354   0.832   0.032 -0.3868  0.7986 -0.0425
    2SOL     OW    5   0.345   3.048   1.178 -0.1496  0.2416 -0.5141
    2SOL    HW1    6   0.392   3.110   1.119  1.9362 -0.7623  0.4865
    2SOL    HW2    7   0.253   3.083   1.191  1.2207 -0.5472 -0.1447
    2SOL     MW    8   0.339   3.061   1.172  0.3064  0.0051 -0.3334
    3SOL     OW    9   2.604   0.329   0.974  0.2887  0.0959  0.0669
    3SOL    HW1   10   2.639   0.388   0.916  0.3769 -0.5093  0.7657
    3SOL    HW2   11   2.570   0.395   1.056  1.2511  1.5163  0.5526
    3SOL     MW   12   2.604   0.345   0.977  0.4273  0.2035  0.2232
    4SOL     OW   13   3.063   1.747   0.568  0.1396  0.2882  0.4099
    4SOL    HW1   14   3.009   1.804   0.517 -3.2009 -1.8279 -0.2913
    4SOL    HW2   15   3.092   1.686   0.499  1.6218 -0.3577  0.1376
    4SOL     MW   16   3.060   1.746   0.552 -0.1056 -0.0762  0.2814
    5SOL     OW   17   1.648   1.514   0.564  0.0543  0.1216  0.1708
    5SOL    HW1   18   1.674   1.450   0.635  1.8968  0.6223 -1.3937
    5SOL    HW2   19   1.548   1.535   0.574 -2.4548  2.4129  0.0269
    5SOL     MW   20   1.638   1.509   0.575 -0.0336  0.4900 -0.0546
    6SOL     OW   21   0.842   1.375   0.569 -0.0061  0.0103  0.1902
    6SOL    HW1   22   0.749   1.380   0.569  0.2434 -1.1808  1.3587
    6SOL    HW2   23   0.879   1.302   0.618  1.9735  2.0417 -0.7919
    6SOL     MW   24   0.835   1.366   0.576  0.2880  0.1212  0.2148
    7SOL     OW   25   2.032   1.069   0.013 -0.8797 -0.0199 -0.2172
    7SOL    HW1   26   2.103   1.111  -0.030 -1.5647 -0.9740 -0.7679
    7SOL    HW2   27   2.052   1.062   0.106  0.3102  0.3247  2.5119
    7SOL     MW   28   2.044   1.074   0.019 -0.8131 -0.1003  0.0702
    8SOL     OW   29   0.848   1.539   1.193 -0.5312  0.1099 -0.2904
    8SOL    HW1   30   0.942   1.551   1.195 -3.1109  2.3303  2.7222
    8SOL    HW2   31   0.834   1.448   1.218 -2.0839  2.1398 -0.3535
    8SOL     MW   32   0.859   1.529   1.196 -1.0764  0.6707  0.0988
    9SOL     OW   33   1.018   0.520   1.351 -0.0408 -0.1490 -0.6070
    9SOL    HW1   34   0.977   0.442   1.307 -0.2631  1.9654 -1.1610
    9SOL    HW2   35   1.087   0.478   1.404  2.8551 -1.2011 -1.7224
    9SOL     MW   36   1.022   0.504   1.352  0.3120 -0.0089 -0.8273
   10SOL     OW   37   0.260   0.792   0.524  0.1798 -0.4268  0.1060
   10SOL    HW1   38   0.351   0.816   0.492 -0.4729 -0.7758 -0.1977
   10SOL    HW2   39   0.239   0.834   0.606  1.3143  0.7742  0.9200
   10SOL     MW   40   0.269   0.801   0.531  0.2434 -0.3144  0.1733
   11SOL     OW   41   0.747   1.121   1.601 -0.3814  0.4387 -0.1153
   11SOL    HW1   42   0.768   1.098   1.692 -0.5333  1.6263 -1.5924
   11SOL    HW2   43   0.767   1.049   1.535 -1.2740  0.3364 -2.6389
   11SOL     MW   44   0.753   1.109   1.604 -0.5192  0.5819 -0.6432
   12SOL     OW   45   3.066   1.113   0.884 -0.4619  0.7697  0.3057
   12SOL    HW1   46   3.123   1.181   0.928 -0.1544  2.4942  0.5728
   12SOL    HW2   47   3.030   1.162   0.815  2.5991  0.2452  1.4069
   12SOL     MW   48   3.069   1.128   0.881 -0.0175  0.9281  0.4862
   13SOL     OW   49   1.862   1.414   1.335  0.0912 -0.1623  0.1448
   13SOL    HW1   50   1.883   1.368   1.248  0.7770  1.0502 -0.0206
   13SOL    HW2   51   1.851   1.505   1.311  0.3361  0.6683  0.5563
   13SOL     MW   52   1.864   1.420   1.320  0.2140  0.1073  0.1772
   14SOL     OW   53   0.546   0.316   1.881 -0.3596 -0.0147  0.1695
   14SOL    HW1   54   0.492   0.243   1.861  1.8217  1.6493  0.6502
   14SOL    HW2   55   0.604   0.332   1.806  0.0904 -0.0743  0.8427
   14SOL     MW   56   0.546   0.308   1.868 -0.0124  0.1970  0.3218
   15SOL     OW   57   1.982   0.347   1.052  0.0145  0.0263 -0.1675
   15SOL    HW1   58   1.985   0.401   1.134  0.9911  1.2977 -0.9110
   15SOL    HW2   59   2.057   0.369   0.995  1.4420  0.9665 -0.2685
   15SOL     MW   60   1.992   0.357   1.055  0.3317  0.3181 -0.2789
   16SOL     OW   61   0.221   1.836   0.311 -0.1376 -0.1207 -0.1682
   16SOL    HW1   62   0.311   1.840   0.277  1.4383  1.1611  1.0602
   16SOL    HW2   63   0.197   1.930   0.320  0.7572 -0.7766  0.0335
   16SOL     MW   64   0.229   1.849   0.308  0.1884 -0.0381  0.0205
   17SOL     OW   65   1.036   0.900   1.414  0.3942 -0.2868 -0.1298
   17SOL    HW1   66   1.080   0.863   1.495  0.2394 -2.3318 -0.6321
   17SOL    HW2   67   0.947   0.864   1.420  1.4979 -2.1175 -0.3468
   17SOL     MW   68   1.030   0.890   1.426  0.5194 -0.7981 -0.2247
   18SOL     OW   69   0.089   1.589   0.360  0.3753 -0.2091  0.0019
   18SOL    HW1   70   0.124   1.680   0.340  0.8476 -0.4161 -2.6056
   18SOL    HW2   71   0.068   1.562   0.273 -1.0265  1.3603  1.9527
   18SOL     MW   72   0.091   1.597   0.346  0.2527 -0.0294 -0.0847
   19SOL     OW   73   0.088   1.333   0.973  0.3740  0.3811 -0.4620
   19SOL    HW1   74   0.148   1.360   0.905 -0.4587  0.0400  1.8416
   19SOL    HW2   75   0.004   1.380   0.965  1.5153  0.2300  0.4509
   19SOL     MW   76   0.085   1.343   0.963  0.4147  0.3162 -0.0376
   20SOL     OW   77   0.418   2.174   1.191 -0.2184 -0.3441  0.7178
   20SOL    HW1   78   0.353   2.122   1.148 -0.6385  1.4410 -0.1464
   20SOL    HW2   79   0.389   2.174   1.287 -0.6381  0.3123  1.5973
   20SOL     MW   80   0.406   2.167   1.198 -0.3292 -0.0219  0.7198
   21SOL     OW   81   0.497   0.852   0.408 -0.7597  0.2192 -0.2419
   21SOL    HW1   82   0.569   0.824   0.466  0.8834  1.6567 -0.7064
   21SOL    HW2   83   0.534   0.865   0.316  1.0250  2.5561  1.0369
   21SOL     MW   84   0.512   0.850   0.403 -0.3075  0.7172 -0.1344
   22SOL     OW   85   1.535   0.712   0.978  0.1290 -0.1190 -0.4350
   22SOL    HW1   86   1.535   0.665   0.899 -1.7402 -1.7743  0.7853
   22SOL    HW2   87   1.441   0.735   0.994 -0.5756  1.0655 -1.4821
   22SOL     MW   88   1.522   0.709   0.970 -0.2106 -0.1811 -0.4121
   23SOL     OW   89   3.083   0.667   0.688 -0.2851  0.4847 -0.4335
   23SOL    HW1   90   3.141   0.594   0.709  0.0112 -0.6228  0.2165
   23SOL    HW2   91   3.122   0.747   0.721  0.2870  1.5802 -1.3827
   23SOL     MW   92   3.096   0.668   0.695 -0.1705  0.4831 -0.4730
   24SOL     OW   93   2.052   2.228   0.042 -0.0783  0.1690 -0.9451
   24SOL    HW1   94   2.041   2.208   0.137 -1.6048 -1.9572 -0.2708
   24SOL    HW2   95   2.089   2.148   0.014  1.3149  1.1671 -1.3730
   24SOL     MW   96   2.056   2.215   0.051 -0.0959  0.0201 -0.9126
   25SOL     OW   97   0.224   1.369   0.484  0.6959 -0.5589 -0.8338
   25SOL    HW1   98   0.205   1.452   0.433  0.5570  2.3934 -0.7804
   25SOL    HW2   99   0.313   1.331   0.460 -0.7360 -2.4539 -1.5034
   25SOL     MW  100   0.233   1.375   0.474  0.4887 -0.4194 -0.9151
   26SOL     OW  101   2.052   1.038   0.283  0.0108 -0.7867  0.2516
   26SOL    HW1  102   1.980   1.076   0.338  1.6693  0.8852 -0.2142
   26SOL    HW2  103   2.123   1.112   0.277  0.2587  2.8542  0.2140
   26SOL     MW  104   2.052   1.053   0.290  0.2623 -0.0857  0.1852
   27SOL     OW  105   1.962   1.458   0.224 -0.0855 -0.4128 -0.0593
   27SOL    HW1  106   1.891   1.520   0.248 -0.2104  0.2861  0.0171
   27SOL    HW2  107   2.003   1.434   0.309 -0.8973  0.4284  1.6379
   27SOL     MW  108   1.958   1.463   0.238 -0.2091 -0.2096  0.1747
   28SOL     OW  109   0.445   1.005   1.988 -0.2070 -0.1360  0.0696
   28SOL    HW1  110   0.475   0.983   2.075 -0.3021 -0.3550  2.9160
   28SOL    HW2  111   0.347   0.987   1.984  0.9501  0.3312  1.0771
   28SOL     MW  112   0.436   0.999   1.999 -0.0669 -0.1033  0.5781
   29SOL     OW  113   0.254   1.430   0.761 -0.2005 -0.0171 -0.6478
   29SOL    HW1  114   0.255   1.530   0.753  1.3539 -0.3940 -1.0413
   29SOL    HW2  115   0.242   1.399   0.674 -0.7211  1.5796  1.7678
   29SOL     MW  116   0.252   1.439   0.749 -0.0641  0.1439 -0.3810
   30SOL     OW  117   0.837   1.258   1.245  0.4037  0.2796  0.0186
   30SOL    HW1  118   0.768   1.217   1.301 -1.0745 -0.1124 -2.5872
   30SOL    HW2  119   0.919   1.224   1.291  0.5046  0.0571  1.3344
   30SOL     MW  120   0.839   1.248   1.258  0.2220  0.1985 -0.1516
   31SOL     OW  121   0.413   0.250   0.196  0.0883 -0.3685  0.0375
   31SOL    HW1  122   0.442   0.168   0.237  0.4750  0.5196 -2.2666
   31SOL    HW2  123   0.446   0.233   0.106  2.2294  1.2223  2.0978
   31SOL     MW  124   0.421   0.237   0.190  0.4218 -0.0414  0.0053
   32SOL     OW  125   2.711   0.978   1.153 -1.0005  0.1468 -0.4470
   32SOL    HW1  126   2.648   0.907   1.158  1.7786  2.6096  0.6437
   32SOL    HW2  127   2.790   0.940   1.105 -2.1057  0.1686 -2.6785
   32SOL     MW  128   2.713   0.964   1.147 -0.7796  0.4746 -0.5975
   33SOL     OW  129   1.629   1.328   0.377 -0.3190  0.4932  0.5788
   33SOL    HW1  130   1.701   1.269   0.404  0.4973 -0.9650  0.6113
   33SOL    HW2  131   1.639   1.404   0.437  0.0331  1.2302 -1.6632
   33SOL     MW  132   1.640   1.330   0.388 -0.1649  0.3980  0.2873
   34SOL     OW  133   1.243   1.919   1.090  0.3180  0.7033 -0.0060
   34SOL    HW1  134   1.157   1.941   1.120  0.1860 -1.2842 -1.9939
   34SOL    HW2  135   1.299   1.958   1.152 -1.7759  2.2319 -0.7992
   34SOL     MW  136   1.239   1.927   1.102  0.0243  0.6427 -0.3729
   35SOL     OW  137   0.368   0.116   1.818  0.3057  0.1486 -0.7082
   35SOL    HW1  138   0.399   0.053   1.884  1.4703  2.4224  0.0402
   35SOL    HW2  139   0.364   0.062   1.735 -0.7921 -1.5187 -0.9252
   35SOL     MW  140   0.372   0.100   1.816  0.3145  0.2286 -0.6381
   36SOL     OW  141   1.960   1.902   0.575 -0.7389 -0.3077 -0.1012
   36SOL    HW1  142   1.940   1.890   0.481 -0.0638 -0.7439 -0.3301
   36SOL    HW2  143   1.946   1.814   0.605  0.1671 -0.3532  2.0004
   36SOL     MW  144   1.955   1.889   0.566 -0.5303 -0.3712  0.1458
   37SOL     OW  145   1.790   2.000   0.968  0.1860  0.1609  0.3423
   37SOL    HW1  146   1.742   1.949   0.908  1.0995 -1.6222  0.4598
   37SOL    HW2  147   1.744   2.076   0.992 -0.3539  0.5915 -1.7357
   37SOL     MW  148   1.778   2.004   0.963  0.2353 -0.0176  0.0837
   38SOL     OW  149   2.826   0.959   0.129 -0.1160  0.0131 -0.3227
   38SOL    HW1  150   2.843   0.912   0.215 -0.3030 -0.2928 -1.3644
   38SOL    HW2  151   2.903   0.926   0.082 -1.2736 -1.2957  3.0707
   38SOL     MW  152   2.838   0.948   0.134 -0.2934 -0.1999 -0.0124
   39SOL     OW  153   1.445   0.570   0.754 -0.2763  0.0938 -0.4769
   39SOL    HW1  154   1.399   0.495   0.792  0.0402 -0.8319  0.9859
   39SOL    HW2  155   1.375   0.638   0.741 -0.7152  1.7516  0.1844
   39SOL     MW  156   1.430   0.569   0.757 -0.2925  0.1904 -0.1966
   40SOL     OW  157   1.201   1.883   0.232  0.7270 -0.0009 -0.4002
   40SOL    HW1  158   1.212   1.815   0.295 -1.6827 -0.7987 -2.6990
   40SOL    HW2  159   1.198   1.965   0.282  0.5005 -1.9154  3.4814
   40SOL     MW  160   1.202   1.885   0.247  0.3792 -0.3588 -0.1913
   41SOL     OW  161   0.563   0.466   1.592 -0.1265  0.2466  0.6846
   41SOL    HW1  162   0.637   0.521   1.573 -0.4209  1.0193  2.0298
   41SOL    HW2  163   0.494   0.519   1.603  1.3433 -2.7971  1.8992
   41SOL     MW  164   0.564   0.480   1.591  0.0285 -0.0531  1.0223
   42SOL     OW  165   1.314   3.000   1.985 -0.2935  0.2609 -0.5461
   42SOL    HW1  166   1.231   3.001   2.033  0.1213  0.9048 -2.3634
   42SOL    HW2  167   1.346   2.911   2.004  0.0805 -0.9455 -0.8881
   42SOL     MW  168   1.307   2.988   1.994 -0.1894  0.1867 -0.8310
   43SOL     OW  169   1.486   0.142   1.625 -0.1327 -0.4752 -0.0762
   43SOL    HW1  170   1.527   0.095   1.552  0.0849 -2.5075 -1.8751
   43SOL    HW2  171   1.393   0.114   1.644  0.4695  1.1708  1.6058
   43SOL     MW  172   1.479   0.132   1.618 -0.0245 -0.5262 -0.0916
   44SOL     OW  173   1.245   0.749   1.043  1.0792 -0.0105  0.5926
   44SOL    HW1  174   1.221   0.841   1.019 -1.0114  0.1731  1.6538
   44SOL    HW2  175   1.232   0.744   1.142 -2.0849  0.0253 -0.2062
   44SOL     MW  176   1.240   0.760   1.053  0.3859  0.0184  0.6272
   45SOL     OW  177   1.247   0.756   0.729  0.9284 -0.2432  0.4604
   45SOL    HW1  178   1.204   0.738   0.812  0.9511 -1.6489  0.2591
   45SOL    HW2  179   1.188   0.704   0.674  0.9608  2.1881  0.9599
   45SOL     MW  180   1.233   0.747   0.733  0.9357 -0.1079  0.4997
   46SOL     OW  181   0.576   1.083   0.584  0.4994 -0.1700  0.3227
   46SOL    HW1  182   0.529   1.054   0.502 -1.0903  1.2299 -1.2888
   46SOL    HW2  183   0.665   1.061   0.552  0.3410  0.0665 -3.0435
   46SOL     MW  184   0.582   1.077   0.569  0.2688  0.0459 -0.3340
   47SOL     OW  185   0.223   1.936   1.963 -0.1586  0.0120 -0.4141
   47SOL    HW1  186   0.298   1.895   2.009  2.1159 -0.8417 -0.3188
   47SOL    HW2  187   0.159   1.921   2.029 -1.2076  0.5330 -3.1501
   47SOL     MW  188   0.225   1.929   1.977  0.0031 -0.0319 -0.7625
   48SOL     OW  189   1.089   0.519   1.030  0.5903 -0.2793 -0.3313
   48SOL    HW1  190   0.995   0.506   1.037  0.2379  1.5909  3.7366
   48SOL    HW2  191   1.108   0.616   1.037 -0.8478 -1.3256 -2.3984
   48SOL     MW  192   1.079   0.530   1.032  0.3541 -0.1706 -0.0673
   49SOL     OW  193   1.723   0.653   1.517 -0.4231  0.3691  0.1644
   49SOL    HW1  194   1.719   0.613   1.604 -1.3959 -1.5935  0.0569
   49SOL    HW2  195   1.801   0.614   1.479 -1.0245 -1.8890 -0.7925
   49SOL     MW  196   1.732   0.642   1.523 -0.6308 -0.1877  0.0239
   50SOL     OW  197   1.239   1.144   0.560  0.1192  0.2774  0.0592
   50SOL    HW1  198   1.197   1.181   0.638 -1.2199 -1.2492 -1.4343
   50SOL    HW2  199   1.310   1.083   0.595 -0.7150 -3.2625 -0.0051
   50SOL     MW  200   1.243   1.141   0.575 -0.1676 -0.3910 -0.1463
   51SOL     OW  201   0.324   2.928   0.913 -0.3614 -0.1161 -0.1029
   51SOL    HW1  202   0.415   2.900   0.890 -0.9717  1.0782  1.2319
   51SOL    HW2  203   0.318   2.955   1.004 -0.5672  0.9250 -0.8589
   51SOL     MW  204   0.335   2.928   0.922 -0.4691  0.1789 -0.0266
   52SOL     OW  205   0.798   1.786   0.463  0.1072  0.0814  0.1818
   52SOL    HW1  206   0.774   1.881   0.472 -1.6433  0.4698  0.1150
   52SOL    HW2  207   0.841   1.774   0.380  2.3326 -0.6847  1.5737
   52SOL     MW  208   0.801   1.797   0.453  0.1699  0.0315  0.3567
   53SOL     OW  209   0.435   2.130   0.476 -0.4797 -0.0873  0.2575
   53SOL    HW1  210   0.352   2.118   0.435 -0.1365 -1.7871  0.6449
   53SOL    HW2  211   0.437   2.208   0.533 -2.1054 -1.0949  1.9300
   53SOL     MW  212   0.424   2.139   0.478 -0.6489 -0.4445  0.5293
   54SOL     OW  213   2.072   0.934   0.769  0.3061  0.0060 -0.2505
   54SOL    HW1  214   2.124   0.936   0.686 -0.3928  1.4777  0.5630
   54SOL    HW2  215   2.036   0.847   0.779 -0.0808 -0.1899 -1.0214
   54SOL     MW  216   2.074   0.922   0.759  0.1628  0.1744 -0.2449
   55SOL     OW  217   0.526   1.585   1.655  0.4195 -0.0233  0.4906
   55SOL    HW1  218   0.482   1.631   1.579 -2.6849  5.7825  0.8483
   55SOL    HW2  219   0.601   1.543   1.609  1.4681 -0.4686 -0.2607
   55SOL     MW  220   0.530   1.586   1.639  0.1483  0.6840  0.4387
   56SOL     OW  221   0.633   0.857   0.163  0.0847  0.3320 -0.3446
   56SOL    HW1  222   0.669   0.945   0.153 -2.3102 -0.8935 -1.6720
   56SOL    HW2  223   0.560   0.857   0.106  0.1265 -0.3412 -0.0030
   56SOL     MW  224   0.628   0.869   0.155 -0.2258  0.0815 -0.4747
   57SOL     OW  225   1.207   1.224   1.169 -0.2947 -0.7493  0.1885
   57SOL    HW1  226   1.301   1.237   1.175 -0.5626  1.3768 -0.9964
   57SOL    HW2  227   1.176   1.203   1.264 -1.1483 -1.3648  2.2634
   57SOL     MW  228   1.216   1.223   1.182 -0.4427 -0.5500  0.3059
   58SOL     OW  229   0.521   1.206   1.291 -0.1885 -0.3093  0.3109
   58SOL    HW1  230   0.504   1.296   1.266  0.0718  0.4746  0.5613
   58SOL    HW2  231   0.528   1.209   1.389 -1.4845  0.8510 -0.2545
   58SOL     MW  232   0.520   1.218   1.301 -0.3252 -0.0528  0.2693
   59SOL     OW  233   1.512   1.694   0.312 -0.1324 -0.2579 -0.4413
   59SOL    HW1  234   1.546   1.751   0.379 -0.7808 -2.0205  1.2068
   59SOL    HW2  235   1.435   1.653   0.347  2.3489  0.1792  1.7086
   59SOL     MW  236   1.506   1.696   0.325  0.1095 -0.4328  0.0598
   60SOL     OW  237   3.092   0.222   1.667  0.1006  0.2119 -0.0258
   60SOL    HW1  238   2.997   0.251   1.705 -1.7235  1.3760  0.5562
   60SOL    HW2  239   3.106   0.148   1.726  0.4640 -0.9844  1.0993
   60SOL     MW  240   3.081   0.216   1.680 -0.0921  0.2077  0.1995
   61SOL     OW  241   1.985   1.362   3.059 -0.7084  0.3017  0.5010
   61SOL    HW1  242   1.961   1.390   3.146 -1.0829 -0.5794 -2.7615
   61SOL    HW2  243   2.072   1.314   3.059  0.9467 -3.1382 -1.7695
   61SOL     MW  244   1.994   1.359   3.070 -0.5394 -0.2684 -0.2290
   62SOL     OW  245   0.544   1.697   0.520 -0.7232  0.1894  0.5278
   62SOL    HW1  246   0.637   1.724   0.495  4.1909  0.0952 -1.7007
   62SOL    HW2  247   0.554   1.605   0.522  1.1345  3.5919 -0.9348
   62SOL     MW  248   0.557   1.688   0.517  0.1702  0.6259  0.0408
   63SOL     OW  249   1.722   0.632   0.711 -0.2492  0.4692 -0.3216
   63SOL    HW1  250   1.737   0.714   0.661 -2.9162 -0.2466 -1.4873
   63SOL    HW2  251   1.628   0.621   0.709  0.2874 -0.1235 -0.2022
   63SOL     MW  252   1.712   0.641   0.704 -0.5303  0.2966 -0.4597
   64SOL     OW  253   0.302   1.693   0.790  0.0905  0.1094 -0.9460
   64SOL    HW1  254   0.341   1.758   0.727  0.4190  2.1644  0.4512
   64SOL    HW2  255   0.231   1.735   0.839  4.0540 -0.3513  2.4525
   64SOL     MW  256   0.298   1.707   0.788  0.6568  0.3198 -0.3133
   65SOL     OW  257   1.580   2.313   0.420 -0.0593  0.6242 -0.6218
   65SOL    HW1  258   1.640   2.383   0.400  0.3660  0.2272 -0.3143
   65SOL    HW2  259   1.543   2.337   0.508  2.2330  3.5553  0.4440
   65SOL     MW  260   1.583   2.326   0.429  0.2993  0.9585 -0.4406
   66SOL     OW  261   0.327   0.539   0.462  0.0997 -0.3576  0.1287
   66SOL    HW1  262   0.360   0.547   0.372  1.0498  3.7299  0.9522
   66SOL    HW2  263   0.294   0.633   0.477  0.1338 -0.6083 -1.3729
   66SOL     MW  264   0.327   0.553   0.452  0.2296  0.1487  0.0392
   67SOL     OW  265   1.464   0.130   1.994  0.0513  0.4769  0.0182
   67SOL    HW1  266   1.488   0.156   1.906 -0.9207 -1.3817  1.1315
   67SOL    HW2  267   1.402   0.056   1.990  1.7883 -0.5668 -1.9548
   67SOL     MW  268   1.459   0.123   1.982  0.1522  0.0940 -0.0952
   68SOL     OW  269   0.757   0.052   2.944  0.6562 -0.3139 -0.2513
   68SOL    HW1  270   0.766   0.117   2.877  0.7145 -0.1542 -0.1623
   68SOL    HW2  271   0.800   0.070   3.022  2.3198  0.1045 -0.3881
   68SOL     MW  272   0.764   0.063   2.946  0.8834 -0.2376 -0.2576
   69SOL     OW  273   0.949   0.192   1.962  0.2373  0.0672 -0.5784
   69SOL    HW1  274   1.014   0.246   2.008 -0.4580  0.4691 -2.3034
   69SOL    HW2  275   0.953   0.111   2.006 -1.5433 -0.4404 -0.2317
   69SOL     MW  276   0.958   0.189   1.974 -0.0894  0.0533 -0.7603
   70SOL     OW  277   0.538   1.722   1.131 -0.4900 -0.3408  0.1578
   70SOL    HW1  278   0.606   1.746   1.196  1.1248 -0.4570 -3.5312
   70SOL    HW2  279   0.586   1.681   1.058  0.1317  0.1265  0.5520
   70SOL     MW  280   0.553   1.720   1.130 -0.1949 -0.2945 -0.2769
   71SOL     OW  281   1.552   0.511   1.187 -0.3532 -0.0896 -0.5078
   71SOL    HW1  282   1.536   0.585   1.246 -1.9137 -2.5589  1.7558
   71SOL    HW2  283   1.571   0.554   1.107 -1.0256  2.5561  1.1786
   71SOL     MW  284   1.553   0.526   1.184 -0.6478 -0.0663  0.0134
   72SOL     OW  285   0.807   1.849   1.009 -0.3521  0.1515 -0.6532
   72SOL    HW1  286   0.795   1.930   0.956 -2.1022  0.1819 -2.1414
   72SOL    HW2  287   0.773   1.784   0.952 -1.5801 -1.7802  2.8084
   72SOL     MW  288   0.801   1.851   0.995 -0.7451 -0.0994 -0.3928
   73SOL     OW  289   1.194   0.724   1.311  0.5244 -0.4470  0.1201
   73SOL    HW1  290   1.146   0.646   1.328 -0.6520  2.1889  1.3939
   73SOL    HW2  291   1.133   0.798   1.331 -1.4030 -0.3959  0.3958
   73SOL     MW  292   1.180   0.723   1.316  0.1149 -0.0925  0.3245
   74SOL     OW  293   2.827   0.276   1.120  0.5504  0.1396 -0.6351
   74SOL    HW1  294   2.903   0.323   1.100  2.1857  0.3695  3.5428
   74SOL    HW2  295   2.755   0.301   1.061  1.8523  0.0639 -1.0663
   74SOL     MW  296   2.827   0.285   1.109  0.9379  0.1599 -0.1407
   75SOL     OW  297   1.594   1.375   0.103  0.1039 -0.6950 -0.0962
   75SOL    HW1  298   1.658   1.308   0.074 -1.3321 -0.4887  0.1374
   75SOL    HW2  299   1.599   1.373   0.201 -0.3908  1.2914 -0.9834
   75SOL     MW  300   1.603   1.366   0.112 -0.1508 -0.4057 -0.1824
   76SOL     OW  301   2.964   0.588   0.439 -0.1164  0.5412 -0.0193
   76SOL    HW1  302   3.011   0.607   0.524  2.4762  2.0305 -1.4294
   76SOL    HW2  303   3.028   0.542   0.383  0.5964  0.7514 -0.1723
   76SOL     MW  304   2.979   0.585   0.443  0.3197  0.7654 -0.2256
   77SOL     OW  305   0.826   0.544   0.472  0.4027  0.5156 -0.0476
   77SOL    HW1  306   0.797   0.550   0.379 -0.6201 -1.7656  0.1082
   77SOL    HW2  307   0.843   0.446   0.479  0.2470 -0.1908  0.2298
   77SOL     MW  308   0.824   0.532   0.461  0.2472  0.1214  0.0096
   78SOL     OW  309   0.730   0.837   1.177 -0.1863 -0.1267  0.1322
   78SOL    HW1  310   0.751   0.911   1.120  0.8333 -4.3860  0.1288
   78SOL    HW2  311   0.637   0.820   1.145 -1.1762  1.4948 -1.6252
   78SOL     MW  312   0.721   0.845   1.165 -0.1824 -0.4747 -0.1001
   79SOL     OW  313   1.904   1.641   0.635 -0.2712 -0.1505 -0.1566
   79SOL    HW1  314   1.829   1.603   0.585  1.4759 -2.1854  0.5996
   79SOL    HW2  315   1.863   1.631   0.722 -0.4861 -1.8316  1.7490
   79SOL     MW  316   1.888   1.635   0.640 -0.0691 -0.6408  0.1946
   80SOL     OW  317   0.068   0.932   0.360  0.0802  0.3237  0.0274
   80SOL    HW1  318  -0.004   0.876   0.377  0.9600 -2.2451 -0.1424
   80SOL    HW2  319   0.139   0.884   0.403  0.9289  0.9573 -4.1350
   80SOL     MW  320   0.068   0.919   0.368  0.3083  0.0684 -0.5442
   81SOL     OW  321   1.869   1.912   0.308 -0.5134  0.5923  0.0897
   81SOL    HW1  322   1.834   1.822   0.275  0.4350 -0.4714 -0.7813
   81SOL    HW2  323   1.808   1.969   0.268 -0.1321 -3.1633 -0.1340
   81SOL     MW  324   1.857   1.908   0.298 -0.3380 -0.0436 -0.0547
   82SOL     OW  325   0.816   1.019   0.499 -0.2684  0.3272 -0.2634
   82SOL    HW1  326   0.817   1.048   0.405  0.0040  0.4992  1.0986
   82SOL    HW2  327   0.777   0.928   0.517  0.0729 -1.9239  1.2608
   82SOL     MW  328   0.811   1.011   0.489 -0.1874  0.0529  0.1174
   83SOL     OW  329   0.042   0.742   1.487 -0.2654  0.1898  0.2256
   83SOL    HW1  330   0.055   0.799   1.409  1.6208 -1.7949  0.1704
   83SOL    HW2  331   0.127   0.708   1.506  0.6585  0.5382 -2.4555
   83SOL     MW  332   0.055   0.745   1.479  0.1054 -0.0261 -0.1354
   84SOL     OW  333   0.039   0.183   0.902 -0.3943  0.1182 -0.1525
   84SOL    HW1  334  -0.002   0.263   0.926  3.3559  0.3315 -3.1626
   84SOL    HW2  335   0.048   0.137   0.984 -1.5007  1.6579  0.8108
   84SOL     MW  336   0.034   0.187   0.916 -0.0455  0.3495 -0.4226
   85SOL     OW  337   0.435   0.456   0.714 -0.2980  0.0109 -0.4515
   85SOL    HW1  338   0.420   0.485   0.629 -1.1207  0.5582  0.4721
   85SOL    HW2  339   0.392   0.368   0.719 -2.3726 -1.2352 -0.6892
   85SOL     MW  340   0.427   0.448   0.704 -0.6802 -0.0813 -0.3610
   86SOL     OW  341   1.213   0.245   1.131  0.6055 -0.0220  0.3712
   86SOL    HW1  342   1.187   0.338   1.129 -0.8071 -1.7188 -3.7357
   86SOL    HW2  343   1.306   0.265   1.144 -0.3041  0.9696 -1.3826
   86SOL     MW  344   1.221   0.260   1.132  0.2991 -0.1150 -0.4020
   87SOL     OW  345   1.141   1.492   1.216 -0.6196 -0.6239 -0.2214
   87SOL    HW1  346   1.178   1.545   1.142  2.1505 -0.1363 -0.3983
   87SOL    HW2  347   1.158   1.403   1.189 -1.8617  2.6259  1.0344
   87SOL     MW  348   1.148   1.487   1.203 -0.4180 -0.1308 -0.0791
   88SOL     OW  349   1.184   1.035   0.980  0.5732  0.0248  0.6044
   88SOL    HW1  350   1.269   1.042   0.937 -0.9034 -0.8628 -0.5091
   88SOL    HW2  351   1.177   1.101   1.055 -1.5234 -2.4390  1.6350
   88SOL     MW  352   1.194   1.044   0.984  0.1018 -0.4174  0.5935
   89SOL     OW  353   1.731   0.746   0.335 -0.4386 -0.2859 -0.2619
   89SOL    HW1  354   1.731   0.651   0.346  0.5871 -0.4025 -0.7342
   89SOL    HW2  355   1.823   0.763   0.305  1.4557  0.3439 -1.6326
   89SOL     MW  356   1.743   0.735   0.333 -0.0534 -0.2182 -0.5051
   90SOL     OW  357   0.826   1.157   2.849 -0.3192 -0.4152  0.8110
   90SOL    HW1  358   0.877   1.079   2.868  0.5416  1.3613  1.5334
   90SOL    HW2  359   0.834   1.216   2.928 -1.3711 -0.9917  2.5660
   90SOL     MW  360   0.834   1.155   2.862 -0.3444 -0.2569  1.1379
   91SOL     OW  361   2.166   0.690   0.524  0.0628 -0.1884  0.5316
   91SOL    HW1  362   2.214   0.762   0.490  1.6979  0.2566 -0.4677
   91SOL    HW2  363   2.195   0.604   0.475  0.2378 -1.6915 -2.0677
   91SOL     MW  364   2.176   0.688   0.513  0.3016 -0.3280  0.0568
   92SOL     OW  365   1.742   0.888   0.576 -0.5531  0.0300  0.4675
   92SOL    HW1  366   1.658   0.922   0.605  0.3072  1.3767  2.4678
   92SOL    HW2  367   1.723   0.850   0.486 -2.2047  1.1721 -0.5356
   92SOL     MW  368   1.729   0.888   0.568 -0.6575  0.3584  0.5991
   93SOL     OW  369   1.124   0.174   0.419  0.9853 -0.4321 -0.1920
   93SOL    HW1  370   1.035   0.206   0.415  0.0457 -1.7515  0.8650
   93SOL    HW2  371   1.164   0.219   0.345 -0.1271 -0.3728 -0.4071
   93SOL     MW  372   1.118   0.184   0.409  0.7146 -0.5984 -0.0809
   94SOL     OW  373   1.866   1.379   1.609  0.5564  0.3412 -1.0071
   94SOL    HW1  374   1.879   1.387   1.515 -0.5804 -0.3289  1.9893
   94SOL    HW2  375   1.844   1.284   1.621  0.5438 -0.3754 -1.8803
   94SOL     MW  376   1.865   1.367   1.598  0.4048  0.1582 -0.7270
   95SOL     OW  377   0.707   1.581   0.939 -0.8102  0.0898 -0.3415
   95SOL    HW1  378   0.750   1.545   1.017 -0.7229  0.4560 -1.2580
   95SOL    HW2  379   0.625   1.533   0.915  1.1906 -1.6893 -0.8186
   95SOL     MW  380   0.702   1.570   0.946 -0.5347 -0.0966 -0.5254
   96SOL     OW  381   1.336   1.902   1.720  0.2029 -0.1697  0.1020
   96SOL    HW1  382   1.255   1.910   1.765 -1.8636 -0.2731 -0.6770
   96SOL    HW2  383   1.336   1.809   1.689 -0.3011  2.2076  0.6186
   96SOL     MW  384   1.326   1.891   1.722 -0.1362  0.1303  0.0674
   97SOL     OW  385   1.126   1.458   0.868 -0.8685  0.4764 -0.4773
   97SOL    HW1  386   1.169   1.527   0.922  0.3757  0.2970 -1.0837
   97SOL    HW2  387   1.051   1.505   0.841  2.5002 -1.9324 -2.3906
   97SOL     MW  388   1.122   1.473   0.872 -0.2599  0.1349 -0.8098
   98SOL     OW  389   1.461   1.287   1.147  0.2175  0.5130  0.5374
   98SOL    HW1  390   1.510   1.338   1.215 -0.2355 -0.8125  0.6093
   98SOL    HW2  391   1.458   1.348   1.071 -0.0820 -1.1061  2.6494
   98SOL     MW  392   1.467   1.302   1.146  0.1182  0.1245  0.8256
   99SOL     OW  393   1.453   0.289   1.256  0.2365  0.4007 -0.5880
   99SOL    HW1  394   1.489   0.373   1.220 -0.7023  1.1399 -0.0738
   99SOL    HW2  395   1.406   0.319   1.329  0.6836 -0.2779  1.6776
   99SOL     MW  396   1.451   0.304   1.261  0.1716  0.4087 -0.2213
  100SOL     OW  397   1.058   1.167   1.389  0.1713 -0.3493 -0.0289
  100SOL    HW1  398   1.067   1.193   1.481  1.8677  0.5162  0.8455
  100SOL    HW2  399   1.057   1.070   1.402 -1.1668 -1.2491  0.9487
  100SOL     MW  400   1.059   1.158   1.403  0.2186 -0.3538  0.2155
  101SOL     OW  401   0.466   1.228   0.329  0.1790  0.3500 -0.2782
  101SOL    HW1  402   0.436   1.154   0.273 -1.0276 -0.4954 -2.4110
  101SOL    HW2  403   0.545   1.248   0.281 -1.1344 -0.1831  3.2589
  101SOL     MW  404   0.472   1.221   0.315 -0.1535  0.1681 -0.0929
  102SOL     OW  405   2.891   0.616   0.984  0.2015  0.0850 -0.1092
  102SOL    HW1  406   2.909   0.705   0.968 -1.6932 -1.9964 -1.3915
  102SOL    HW2  407   2.894   0.596   1.083  0.5558 -1.0641  0.7969
  102SOL     MW  408   2.894   0.625   0.995 -0.0018 -0.3412 -0.1588
  103SOL     OW  409   1.793   0.281   1.880  0.9594 -0.0632  0.2756
  103SOL    HW1  410   1.778   0.190   1.847 -0.8783  2.0322  1.7646
  103SOL    HW2  411   1.815   0.271   1.968  0.0189  1.1433 -2.5366
  103SOL     MW  412   1.794   0.268   1.887  0.5928  0.3724  0.1010
  104SOL     OW  413   0.112   1.511   1.572 -0.5075 -0.0248  0.3269
  104SOL    HW1  414   0.172   1.457   1.615 -1.0120  0.3318 -0.1334
  104SOL    HW2  415   0.027   1.473   1.594  1.7775 -1.0090  0.4532
  104SOL     MW  416   0.109   1.499   1.581 -0.2726 -0.1076  0.2829
  105SOL     OW  417   0.013   1.204   0.417 -0.4068  0.3736  0.1415
  105SOL    HW1  418   0.060   1.118   0.420  0.7569 -4.1034  2.2089
  105SOL    HW2  419   0.078   1.271   0.443 -0.8231  0.7587 -2.8120
  105SOL     MW  420   0.028   1.202   0.421 -0.3082 -0.1663  0.0246
  106SOL     OW  421   0.821   0.416   0.977 -0.8507  0.3608 -1.3216
  106SOL    HW1  422   0.739   0.467   0.977  0.9876  1.1295  1.2939
  106SOL    HW2  423   0.865   0.438   0.893 -2.2093  1.4947 -2.0700
  106SOL     MW  424   0.816   0.425   0.966 -0.7874  0.6118 -1.0752
  107SOL     OW  425   0.813   2.137   2.914  0.3060  0.0563 -0.0630
  107SOL    HW1  426   0.732   2.130   2.867  0.0016  1.6477  1.7383
  107SOL    HW2  427   0.793   2.139   3.010 -0.2563 -0.8135 -1.4878
  107SOL     MW  428   0.800   2.136   2.921  0.1916  0.1515 -0.0134
  108SOL     OW  429   1.337   1.623   1.633  0.6215 -0.2106  0.1540
  108SOL    HW1  430   1.261   1.597   1.571 -3.2056 -0.7954 -4.2029
  108SOL    HW2  431   1.414   1.559   1.621  1.0303 -0.8555  4.1158
  108SOL     MW  432   1.337   1.611   1.623  0.1705 -0.3729  0.1019
  109SOL     OW  433   2.007   0.779   0.265 -0.6802  0.3201 -0.2147
  109SOL    HW1  434   2.027   0.873   0.271  0.1908 -0.4357  0.9015
  109SOL    HW2  435   2.083   0.735   0.304  0.3928  1.4580  1.5125
  109SOL     MW  436   2.020   0.786   0.271 -0.4237  0.3705  0.1605
  110SOL     OW  437   0.419   1.908   0.642  0.3152 -0.5475  0.2055
  110SOL    HW1  438   0.453   1.831   0.589 -3.1760  2.1305 -0.6511
  110SOL    HW2  439   0.420   1.976   0.577  0.1202 -1.4950  0.5746
  110SOL     MW  440   0.423   1.907   0.626 -0.1712 -0.3192  0.1412
  111SOL     OW  441   0.764   0.867   1.442  0.2843 -0.2256 -0.3766
  111SOL    HW1  442   0.746   0.846   1.349 -1.4614  1.1176  1.6375
  111SOL    HW2  443   0.760   0.781   1.480  0.7407 -0.5338  0.5335
  111SOL     MW  444   0.761   0.853   1.435  0.1142 -0.0891  0.0092
  112SOL     OW  445   1.347   1.070   1.619 -0.0959 -0.3302  0.1120
  112SOL    HW1  446   1.278   1.129   1.640  1.5970  0.9331  0.2536
  112SOL    HW2  447   1.301   0.985   1.623  1.6111 -1.9683 -0.1907
  112SOL     MW  448   1.332   1.067   1.623  0.3527 -0.3797  0.0908
  113SOL     OW  449   1.238   3.050   1.705  0.0698  0.2810 -0.3696
  113SOL    HW1  450   1.269   3.006   1.787 -0.0954 -1.4415  1.5148
  113SOL    HW2  451   1.224   2.974   1.644 -1.2129  1.2880 -1.1242
  113SOL     MW  452   1.240   3.034   1.708 -0.1212  0.1866 -0.2205
  114SOL     OW  453   0.255   2.880   1.884  0.1354 -0.2558 -0.0907
  114SOL    HW1  454   0.306   2.917   1.950  1.8185  0.6269 -0.8995
  114SOL    HW2  455   0.203   2.962   1.854 -1.0701  0.9076  0.7112
  114SOL     MW  456   0.255   2.895   1.889  0.1984  0.0142 -0.0916
  115SOL     OW  457   0.471   0.826   1.145  0.3845 -1.2689  0.6036
  115SOL    HW1  458   0.481   0.738   1.180  0.5395  2.2146 -2.3106
  115SOL    HW2  459   0.438   0.882   1.221  0.6648  1.8832 -0.7569
  115SOL     MW  460   0.468   0.822   1.159  0.4419 -0.3934  0.0396
  116SOL     OW  461   0.798   1.042   1.005  0.5372  0.0148 -0.2419
  116SOL    HW1  462   0.806   1.080   0.918 -1.1854  1.8275 -0.7896
  116SOL    HW2  463   0.831   1.110   1.072  0.2258  1.2482  0.4788
  116SOL     MW  464   0.804   1.056   1.002  0.2688  0.4167 -0.2191
  117SOL     OW  465   1.111   1.208   0.785 -0.4357  0.1051  0.4429
  117SOL    HW1  466   1.142   1.141   0.853 -3.7621 -0.1179 -0.9797
  117SOL    HW2  467   1.120   1.293   0.825 -2.3067 -1.9844  0.2338
  117SOL     MW  468   1.116   1.210   0.799 -1.1215 -0.2000  0.2276
  118SOL     OW  469   3.064   2.951   1.657 -0.1198 -0.1550  0.4250
  118SOL    HW1  470   3.130   3.013   1.683  0.5607 -1.9178  2.3288
  118SOL    HW2  471   2.990   2.971   1.707  1.3217  1.3623 -1.4663
  118SOL     MW  472   3.063   2.962   1.667  0.1601 -0.1874  0.4267
  119SOL     OW  473   0.448   1.481   1.245  0.0950  0.4078  0.4219
  119SOL    HW1  474   0.479   1.555   1.188 -1.4517  0.9029  2.5203
  119SOL    HW2  475   0.355   1.474   1.236  1.0021  1.9993  1.2886
  119SOL     MW  476   0.440   1.490   1.236  0.0106  0.6831  0.8131
  120SOL     OW  477   0.253   0.738   1.025 -0.7276  0.3166  0.3221
  120SOL    HW1  478   0.231   0.659   1.071 -1.4299 -0.6070 -0.8717
  120SOL    HW2  479   0.328   0.775   1.081 -1.3822 -0.0769 -0.5825
  120SOL     MW  480   0.260   0.732   1.039 -0.9066  0.1428  0.0452
  121SOL     OW  481   1.742   1.099   1.686 -0.8968 -0.4325  0.1325
  121SOL    HW1  482   1.656   1.067   1.727  1.8737 -2.6723  0.7554
  121SOL    HW2  483   1.759   1.048   1.609  1.7941  0.2681 -1.7024
  121SOL     MW  484   1.733   1.088   1.681 -0.1762 -0.6356 -0.0274
  122SOL     OW  485   0.186   0.527   0.817  0.2849  0.2134  0.3461
  122SOL    HW1  486   0.271   0.503   0.783  1.3547  0.8991  0.5178
  122SOL    HW2  487   0.202   0.615   0.849 -0.4248 -2.2850 -1.0894
  122SOL     MW  488   0.199   0.536   0.817  0.3324 -0.0258  0.1793
  123SOL     OW  489   1.850   1.137   0.455 -0.1534 -0.7043 -0.3166
  123SOL    HW1  490   1.804   1.071   0.511  1.8135  0.8124 -0.2821
  123SOL    HW2  491   1.914   1.173   0.517  1.8240 -0.6454  0.4716
  123SOL     MW  492   1.852   1.133   0.470  0.3670 -0.4964 -0.2080
  124SOL     OW  493   0.591   0.545   0.934 -0.4503 -0.1342 -0.1385
  124SOL    HW1  494   0.548   0.508   0.856 -0.9603 -0.1034 -1.3721
  124SOL    HW2  495   0.632   0.626   0.899 -0.7079  0.2473  2.9001
  124SOL     MW  496   0.591   0.551   0.919 -0.5516 -0.0798  0.0996
  125SOL     OW  497   0.719   1.787   1.743 -0.1092 -0.3962 -0.4351
  125SOL    HW1  498   0.669   1.717   1.701  1.5220  0.6982 -1.6228
  125SOL    HW2  499   0.664   1.863   1.741 -1.0730  1.5848  1.2743
  125SOL     MW  500   0.705   1.788   1.737 -0.0212  0.0096 -0.3663
  126SOL     OW  501   2.158   1.554   1.986  0.0509 -0.4854 -0.2003
  126SOL    HW1  502   2.201   1.631   1.945 -0.6987 -1.1080  0.9244
  126SOL    HW2  503   2.226   1.484   1.978  1.8124 -0.5429 -0.7249
  126SOL     MW  504   2.173   1.555   1.980  0.1844 -0.5751 -0.1211
  127SOL     OW  505   0.562   0.815   1.817  0.0281  0.3982 -0.3372
  127SOL    HW1  506   0.641   0.792   1.873 -0.8872  2.4230  1.3364
  127SOL    HW2  507   0.515   0.882   1.875  0.9782  2.2539  0.5891
  127SOL     MW  508   0.566   0.821   1.832  0.0327  0.9102  0.0059
  128SOL     OW  509   1.712   0.710   2.920 -0.7192  0.3513  0.2094
  128SOL    HW1  510   1.752   0.697   2.833 -1.8100  0.4817 -0.0209
  128SOL    HW2  511   1.700   0.806   2.921  0.7053  0.5639 -2.3164
  128SOL     MW  512   1.716   0.721   2.908 -0.6752  0.3966 -0.1543
  129SOL     OW  513   1.646   0.915   0.148 -0.1787 -0.2167  0.4877
  129SOL    HW1  514   1.562   0.885   0.124  1.0060 -1.0830  0.0052
  129SOL    HW2  515   1.682   0.860   0.217  0.2074 -1.3048  0.9322
  129SOL     MW  516   1.640   0.904   0.154  0.0286 -0.4746  0.4826
  130SOL     OW  517   0.810   1.374   0.287  0.0536  0.0590  0.4972
  130SOL    HW1  518   0.836   1.380   0.382 -0.5485 -2.1424  1.1598
  130SOL    HW2  519   0.830   1.458   0.252  0.2670  1.0126  1.5445
  130SOL     MW  520   0.816   1.386   0.295  0.0023 -0.1056  0.7228
  131SOL     OW  521   3.034   0.840   3.097 -0.0594 -0.1145  0.0519
  131SOL    HW1  522   3.011   0.869   3.007 -1.7164 -1.6940 -2.7605
  131SOL    HW2  523   3.132   0.832   3.104  3.0945 -0.1238  0.6016
  131SOL     MW  524   3.044   0.843   3.086  0.1381 -0.3241 -0.2466
  132SOL     OW  525   2.704   0.131   1.331 -0.1648 -0.2002 -0.9273
  132SOL    HW1  526   2.751   0.179   1.264  0.4400  0.8689  0.5458
  132SOL    HW2  527   2.621   0.101   1.286  2.5990  0.6744 -1.2117
  132SOL     MW  528   2.699   0.134   1.316  0.2797  0.0562 -0.7705
  133SOL     OW  529   1.040   0.143   1.714 -0.1718 -0.2049  0.2801
  133SOL    HW1  530   1.119   0.087   1.731 -0.6226 -0.8557  0.1409
  133SOL    HW2  531   1.006   0.156   1.804 -0.0203 -0.2413  0.3141
  133SOL     MW  532   1.046   0.138   1.728 -0.2113 -0.2956  0.2662
  134SOL     OW  533   1.415   2.513   1.417  0.0525 -0.2954  0.2384
  134SOL    HW1  534   1.327   2.546   1.415  1.9070 -2.9074  2.0027
  134SOL    HW2  535   1.437   2.525   1.512  1.1709  0.3018  2.3359
  134SOL     MW  536   1.406   2.519   1.430  0.4447 -0.5613  0.7479
  135SOL     OW  537   3.025   0.959   2.842  0.2469  0.2542 -0.2205
  135SOL    HW1  538   3.086   1.031   2.884  2.4079 -1.9457 -1.2389
  135SOL    HW2  539   2.942   1.002   2.851  1.0492  0.4971 -1.9429
  135SOL     MW  540   3.022   0.974   2.849  0.6379 -0.0040 -0.5821
  136SOL     OW  541   0.212   2.059   0.802  0.1491  0.8403  0.5993
  136SOL    HW1  542   0.139   1.992   0.801  1.0792 -0.8974  0.9442
  136SOL    HW2  543   0.282   2.019   0.739 -0.4441 -1.5596 -1.6115
  136SOL     MW  544   0.211   2.045   0.793  0.1935  0.2944  0.3531
  137SOL     OW  545   0.691   2.045   0.517 -0.0549  0.3689  0.7598
  137SOL    HW1  546   0.706   2.036   0.614  0.6418 -0.7508  0.6157
  137SOL    HW2  547   0.597   2.063   0.502  0.5505 -2.1336  1.0610
  137SOL     MW  548   0.680   2.046   0.528  0.1169 -0.1090  0.7805
  138SOL     OW  549   0.503   0.571   1.194  0.4624 -0.4251  0.3578
  138SOL    HW1  550   0.411   0.540   1.170 -0.1538  3.0987 -2.3681
  138SOL    HW2  551   0.538   0.570   1.104 -0.1051 -0.5070 -0.3288
  138SOL     MW  552   0.496   0.567   1.179  0.3062  0.0290 -0.0924
  139SOL     OW  553   2.880   0.534   1.240  0.3479 -0.4412  0.7351
  139SOL    HW1  554   2.930   0.467   1.282 -1.7088  0.1757 -1.5210
  139SOL    HW2  555   2.862   0.595   1.315  1.5767  0.5543  1.1571
  139SOL     MW  556   2.884   0.533   1.256  0.2387 -0.2285  0.4931
  140SOL     OW  557   0.965   0.499   2.020 -0.4094 -0.1737 -0.0512
  140SOL    HW1  558   0.966   0.426   1.959 -0.7472 -1.9297 -1.8426
  140SOL    HW2  559   0.899   0.474   2.092 -0.7560 -1.0485  0.8861
  140SOL     MW  560   0.957   0.486   2.021 -0.4997 -0.5208 -0.1639
  141SOL     OW  561   1.001   0.643   1.702  0.1077 -0.1175  0.1019
  141SOL    HW1  562   1.067   0.572   1.690 -0.0586 -0.4544  0.5267
  141SOL    HW2  563   1.050   0.720   1.687 -0.6270  0.8583  1.1119
  141SOL     MW  564   1.016   0.644   1.699 -0.0112 -0.0332  0.2912
  142SOL     OW  565   0.862   1.151   0.738 -0.4402  0.5353 -0.4113
  142SOL    HW1  566   0.863   1.104   0.648 -0.9483  1.3012 -0.8881
  142SOL    HW2  567   0.959   1.163   0.753  1.4053  2.4102  0.7915
  142SOL     MW  568   0.875   1.147   0.728 -0.2637  0.8837 -0.3155
  143SOL     OW  569   1.806   0.693   1.103  0.1859 -0.4127 -0.1936
  143SOL    HW1  570   1.860   0.656   1.030  0.1799 -4.0894  1.5871
  143SOL    HW2  571   1.721   0.722   1.068 -0.7921  0.0098  0.1728
  143SOL     MW  572   1.801   0.692   1.089  0.0561 -0.8421  0.0897
  144SOL     OW  573   0.287   1.341   1.708  0.0132  0.4152 -0.1732
  144SOL    HW1  574   0.362   1.340   1.647  0.9650  0.9642  0.6720
  144SOL    HW2  575   0.329   1.334   1.800  2.6246  0.7462 -0.5237
  144SOL     MW  576   0.302   1.340   1.712  0.4833  0.5313 -0.1080
  145SOL     OW  577   0.224   0.498   1.206 -0.6021 -0.3964  0.5318
  145SOL    HW1  578   0.253   0.403   1.212 -3.6809 -0.4871 -0.3784
  145SOL    HW2  579   0.144   0.477   1.171 -0.2242 -1.1672  2.2401
  145SOL     MW  580   0.218   0.482   1.202 -0.9584 -0.5100  0.6371
  146SOL     OW  581   0.837   1.979   1.408 -0.4006 -0.3881  0.1338
  146SOL    HW1  582   0.889   1.979   1.331  0.3138  0.1048 -0.8488
  146SOL    HW2  583   0.744   1.974   1.384  0.0956 -1.8243  0.6819
  146SOL     MW  584   0.831   1.979   1.394 -0.2408 -0.5125  0.0765
  147SOL     OW  585   0.387   0.510   2.975  0.3896  0.3645 -0.2998
  147SOL    HW1  586   0.312   0.493   3.037  0.3444  1.2258  1.2353
  147SOL    HW2  587   0.350   0.579   2.919  0.3945 -1.4871 -1.1286
  147SOL     MW  588   0.372   0.517   2.975  0.3843  0.2339 -0.2066
  148SOL     OW  589   0.076   0.931   1.288 -0.3689 -1.4811 -0.6883
  148SOL    HW1  590   0.172   0.937   1.305  5.0489  1.7522 -3.0053
  148SOL    HW2  591   0.043   1.022   1.296  0.4186 -2.7309  1.6908
  148SOL     MW  592   0.084   0.944   1.291  0.4498 -1.2194 -0.6801
  149SOL     OW  593   1.501   1.129   1.406  0.8940  0.8176 -0.2696
  149SOL    HW1  594   1.446   1.113   1.485  1.6862 -2.1920  1.3533
  149SOL    HW2  595   1.510   1.223   1.399  1.8136  1.8720 -0.8176
  149SOL     MW  596   1.495   1.139   1.415  1.1199  0.5597 -0.1278
  150SOL     OW  597   1.725   1.389   0.804  0.2928 -0.1871  1.1028
  150SOL    HW1  598   1.776   1.309   0.806 -0.1809  0.3967  0.9930
  150SOL    HW2  599   1.777   1.461   0.842  0.3691  4.1462 -1.6910
  150SOL     MW  600   1.739   1.388   0.809  0.2404  0.4616  0.7197
  151SOL     OW  601   1.669   1.833   0.790  0.4028  0.0917 -0.0287
  151SOL    HW1  602   1.652   1.835   0.693  0.7062 -1.8089  0.3135
  151SOL    HW2  603   1.584   1.818   0.827 -2.1567 -2.5057 -1.4354
  151SOL     MW  604   1.656   1.831   0.782  0.1051 -0.5017 -0.1692
  152SOL     OW  605   0.777   1.434   1.657 -0.2996 -0.6351  0.3147
  152SOL    HW1  606   0.859   1.447   1.704 -0.4100  3.0348 -1.3863
  152SOL    HW2  607   0.787   1.351   1.616  1.1872  1.2136 -2.4873
  152SOL     MW  608   0.789   1.424   1.658 -0.1180  0.0930 -0.2795
  153SOL     OW  609   2.574   1.221   0.777 -0.4607  0.5229 -0.0168
  153SOL    HW1  610   2.658   1.192   0.738 -1.8962 -1.0680 -2.9406
  153SOL    HW2  611   2.530   1.134   0.771  0.2370 -1.1079 -1.2595
  153SOL     MW  612   2.579   1.206   0.771 -0.5580  0.0978 -0.5665
  154SOL     OW  613   0.137   1.748   1.711 -0.1714  0.0782 -0.1178
  154SOL    HW1  614   0.136   1.660   1.671 -2.7154 -3.0554 -0.5513
  154SOL    HW2  615   0.215   1.759   1.764 -2.4395  0.8598 -0.1010
  154SOL     MW  616   0.147   1.738   1.713 -0.8063 -0.2321 -0.1728
  155SOL     OW  617   1.171   0.730   0.297  0.2601  0.7948  0.4390
  155SOL    HW1  618   1.141   0.697   0.383  0.5824 -0.8628  3.2036
  155SOL    HW2  619   1.189   0.827   0.314  0.2241  0.7238  0.1070
  155SOL     MW  620   1.169   0.739   0.310  0.2978  0.5667  0.7600
  156SOL     OW  621   1.562   3.004   1.054 -0.0111  0.5165  0.0276
  156SOL    HW1  622   1.646   3.045   1.075  1.4630  0.1962  0.2864
  156SOL    HW2  623   1.568   2.922   1.103  0.6640 -0.8748  1.0361
  156SOL     MW  624   1.574   2.999   1.063  0.2724  0.2906  0.1948
  157SOL     OW  625   1.392   1.147   0.111 -0.3324 -0.2286  0.0216
  157SOL    HW1  626   1.390   1.060   0.168 -2.7103 -1.8320  4.2904
  157SOL    HW2  627   1.489   1.163   0.099  0.1093 -0.3290 -0.3017
  157SOL     MW  628   1.405   1.138   0.117 -0.5879 -0.4534  0.5421
  158SOL     OW  629   0.381   1.648   2.284 -0.0903  0.3640  0.4910
  158SOL    HW1  630   0.421   1.706   2.217 -1.4986 -0.6518 -1.2614
  158SOL    HW2  631   0.327   1.710   2.330  1.7336  0.1164 -0.1853
  158SOL     MW  632   0.380   1.664   2.281 -0.0355  0.1973  0.1705
  159SOL     OW  633   1.242   1.709   0.478 -0.6173 -0.0583 -0.2159
  159SOL    HW1  634   1.203   1.645   0.420  1.1951 -0.7540 -0.3372
  159SOL    HW2  635   1.169   1.745   0.530  1.6800 -1.7255  0.8593
  159SOL     MW  636   1.227   1.705   0.477 -0.0751 -0.3701 -0.0901
  160SOL     OW  637   0.491   1.216   1.561 -0.4867  0.8700 -0.1893
  160SOL    HW1  638   0.453   1.131   1.589 -0.1989  1.2783  0.1683
  160SOL    HW2  639   0.584   1.196   1.573  1.0286  1.0477  2.8929
  160SOL     MW  640   0.499   1.202   1.566 -0.2488  0.9473  0.2645
  161SOL     OW  641   0.465   2.221   2.537 -0.5357 -0.3767  0.4947
  161SOL    HW1  642   0.379   2.254   2.542  2.8913 -1.2371  0.3215
  161SOL    HW2  643   0.469   2.161   2.467 -0.4006 -0.3007  0.3464
  161SOL     MW  644   0.454   2.217   2.529 -0.0657 -0.4802  0.4523
  162SOL     OW  645   1.077   1.780   1.846  0.4557  0.5785 -0.0739
  162SOL    HW1  646   1.077   1.868   1.893 -0.3416  2.0033 -1.6800
  162SOL    HW2  647   0.993   1.756   1.888  1.0021  0.9846 -0.4694
  162SOL     MW  648   1.066   1.789   1.858  0.4226  0.8201 -0.3380
  163SOL     OW  649   2.046   3.062   0.894 -0.4470  0.4927 -0.2066
  163SOL    HW1  650   2.019   3.130   0.839  1.4398 -0.3605  0.5237
  163SOL    HW2  651   2.059   2.979   0.840  1.0024 -1.3699 -0.1953
  163SOL     MW  652   2.044   3.060   0.880 -0.0068  0.1344 -0.1087
  164SOL     OW  653   0.306   0.204   0.808 -0.0288 -0.0101 -0.2419
  164SOL    HW1  654   0.210   0.205   0.845  0.5088 -0.0076  1.0870
  164SOL    HW2  655   0.305   0.134   0.742  2.3978  1.4981  0.9194
  164SOL     MW  656   0.293   0.195   0.804  0.3623  0.1892  0.0867
  165SOL     OW  657   1.258   1.315   0.332 -0.6062  0.3112 -0.0434
  165SOL    HW1  658   1.259   1.253   0.414 -2.3778 -1.9678  0.2171
  165SOL    HW2  659   1.282   1.261   0.256  0.4838  0.0731 -0.1526
  165SOL     MW  660   1.261   1.300   0.333 -0.6961 -0.0209 -0.0235
  166SOL     OW  661   0.535   1.170   1.018 -0.4169 -0.5842 -0.4570
  166SOL    HW1  662   0.503   1.167   1.108  3.6605 -0.8965  4.5428
  166SOL    HW2  663   0.616   1.118   1.025  1.1062  0.0691 -1.2970
  166SOL     MW  664   0.542   1.163   1.031  0.3220 -0.5392  0.0918
  167SOL     OW  665   0.815   1.102   0.249 -0.0598  0.0523  0.0065
  167SOL    HW1  666   0.809   1.200   0.273  1.3597 -1.8446 -2.2292
  167SOL    HW2  667   0.898   1.079   0.201 -0.4243 -0.3751  0.4042
  167SOL     MW  668   0.825   1.112   0.245  0.0794 -0.2544 -0.2360
  168SOL     OW  669   1.730   1.648   3.046  0.0374 -0.0744  0.5234
  168SOL    HW1  670   1.659   1.709   3.027  4.6329  1.3986  3.9452
  168SOL    HW2  671   1.716   1.556   3.008  1.4961 -0.6169  0.1715
  168SOL     MW  672   1.719   1.644   3.039  0.8361  0.0483  0.9284
  169SOL     OW  673   0.350   0.993   1.311 -0.2520  0.1582 -0.0191
  169SOL    HW1  674   0.386   0.964   1.397 -2.6737 -1.0113  0.2037
  169SOL    HW2  675   0.388   1.079   1.297 -0.7011  0.6169  0.1782
  169SOL     MW  676   0.360   1.000   1.321 -0.6308  0.0644  0.0363
  170SOL     OW  677   1.112   1.546   1.499  0.2170 -0.3986 -0.0757
  170SOL    HW1  678   1.047   1.612   1.512 -2.2765  0.1226  0.7917
  170SOL    HW2  679   1.116   1.533   1.399  4.5007  1.3457 -1.9785
  170SOL     MW  680   1.104   1.553   1.487  0.4532 -0.0997 -0.2123
  171SOL     OW  681   0.552   1.419   0.555 -0.1604  0.3760 -0.3642
  171SOL    HW1  682   0.531   1.434   0.651 -0.6760 -0.1032 -1.4872
  171SOL    HW2  683   0.553   1.326   0.531 -0.3753  3.0261 -3.9556
  171SOL     MW  684   0.549   1.409   0.564 -0.2568  0.6624 -0.9862
  172SOL     OW  685   0.868   0.301   1.275  0.4173 -0.1922  0.5193
  172SOL    HW1  686   0.803   0.288   1.205 -0.0264 -1.4425  0.1923
  172SOL    HW2  687   0.855   0.244   1.349  0.9746  4.0702 -0.7233
  172SOL     MW  688   0.858   0.292   1.276  0.4323  0.2052  0.3122
  173SOL     OW  689   0.494   1.781   0.249  0.1197 -0.0232  0.3179
  173SOL    HW1  690   0.494   1.685   0.230  0.4269 -0.6789 -0.0115
  173SOL    HW2  691   0.530   1.782   0.340  2.0725 -2.2093 -0.9419
  173SOL     MW  692   0.499   1.768   0.259  0.4179 -0.3982  0.1083
  174SOL     OW  693   1.861   0.890   1.511  0.3127 -0.1080  0.4344
  174SOL    HW1  694   1.801   0.818   1.523 -0.0054  1.0850  1.3053
  174SOL    HW2  695   1.857   0.899   1.417 -2.3282 -0.1180  0.9402
  174SOL     MW  696   1.853   0.881   1.500 -0.0777  0.0481  0.6160
  175SOL     OW  697   0.485   1.484   0.253  0.3412 -0.2470  0.3767
  175SOL    HW1  698   0.429   1.422   0.204 -0.0063  0.6274  2.1588
  175SOL    HW2  699   0.502   1.437   0.327 -1.2688  1.4991 -1.0229
  175SOL     MW  700   0.480   1.470   0.256  0.0829  0.0988  0.4271
  176SOL     OW  701   0.159   1.474   1.196 -0.8556  0.0436 -0.2678
  176SOL    HW1  702   0.134   1.434   1.119 -0.1833  0.5274 -0.8420
  176SOL    HW2  703   0.095   1.469   1.267  1.6269  1.8613  1.0981
  176SOL     MW  704   0.147   1.468   1.195 -0.4393  0.3472 -0.1633
  177SOL     OW  705   0.561   0.358   1.352 -0.5434  0.2045 -0.0208
  177SOL    HW1  706   0.552   0.425   1.284  1.1762 -3.3889  0.6100
  177SOL    HW2  707   0.570   0.405   1.441 -0.2640  0.3746  1.0248
  177SOL     MW  708   0.561   0.373   1.355 -0.2796 -0.2472  0.2004
  178SOL     OW  709   3.081   0.526   2.968  0.3906  0.2185  0.1312
  178SOL    HW1  710   3.044   0.525   3.053  3.4129  1.0687 -0.8669
  178SOL    HW2  711   3.007   0.510   2.903 -0.5276 -0.1827 -2.8631
  178SOL     MW  712   3.067   0.524   2.971  0.6682  0.2777 -0.3956
  179SOL     OW  713   1.556   1.431   1.363 -0.5117  0.2772  0.6381
  179SOL    HW1  714   1.547   1.477   1.443  4.0548  0.6694  2.5022
  179SOL    HW2  715   1.649   1.425   1.353 -0.8406  0.5363 -0.0571
  179SOL     MW  716   1.567   1.436   1.372  0.0474  0.3632  0.7923
  180SOL     OW  717   2.996   0.225   0.480  0.4649  0.3475  0.5214
  180SOL    HW1  718   2.983   0.187   0.394  2.5794  1.1114  2.7797
  180SOL    HW2  719   3.070   0.288   0.465 -0.8608 -1.7681 -1.2477
  180SOL     MW  720   3.004   0.229   0.467  0.5689  0.1691  0.5859
  181SOL     OW  721   1.126   1.350   3.064  0.3895  0.2699  0.0649
  181SOL    HW1  722   1.199   1.406   3.095  1.4750  0.3649  1.6072
  181SOL    HW2  723   1.163   1.287   3.002  0.1847 -2.7260 -0.2776
  181SOL     MW  724   1.141   1.349   3.060  0.5057 -0.1129  0.2232
  182SOL     OW  725   0.418   0.928   1.581 -0.3133  0.7036  0.2942
  182SOL    HW1  726   0.351   0.913   1.648 -1.2767  0.4061 -0.5625
  182SOL    HW2  727   0.493   0.895   1.626  0.4965  2.7198 -2.5057
  182SOL     MW  728   0.419   0.921   1.596 -0.3335  0.9304 -0.1883
  183SOL     OW  729   1.581   1.729   1.226 -0.6522 -0.3699 -0.1532
  183SOL    HW1  730   1.678   1.734   1.221  0.5984  2.6332 -2.3992
  183SOL    HW2  731   1.564   1.662   1.293 -3.4561 -1.4037 -0.0713
  183SOL     MW  732   1.591   1.721   1.234 -0.8572 -0.1101 -0.4387
  184SOL     OW  733   0.817   0.729   1.906  0.4183 -0.0590 -0.5950
  184SOL    HW1  734   0.873   0.750   1.837 -0.9063 -0.7775  0.5820
  184SOL    HW2  735   0.841   0.638   1.917 -2.4160 -1.5377 -0.8194
  184SOL     MW  736   0.828   0.719   1.899 -0.1304 -0.3489 -0.4693
  185SOL     OW  737   1.113   0.952   1.924 -0.0909 -0.3082  0.1435
  185SOL    HW1  738   1.114   0.861   1.964 -0.8481 -1.5105 -0.5954
  185SOL    HW2  739   1.143   1.010   1.988  1.4535 -2.2076  0.5845
  185SOL     MW  740   1.117   0.948   1.938  0.0130 -0.7174  0.1042
  186SOL     OW  741   0.374   1.687   1.451 -0.1454  0.3982 -0.3796
  186SOL    HW1  742   0.387   1.640   1.365 -1.7921 -1.3785 -0.4168
  186SOL    HW2  743   0.294   1.648   1.485  3.1588  1.0901 -1.9318
  186SOL     MW  744   0.365   1.676   1.444  0.0733  0.2550 -0.5894
  187SOL     OW  745   1.507   0.715   1.351 -0.3078 -0.1553  0.1032
  187SOL    HW1  746   1.586   0.701   1.404  1.0171 -1.6235 -2.3249
  187SOL    HW2  747   1.433   0.667   1.383  2.4937 -0.0890  0.7196
  187SOL     MW  748   1.507   0.706   1.363  0.2366 -0.3403 -0.1358
  188SOL     OW  749   1.908   1.161   0.818  0.0397 -0.1703 -0.6825
  188SOL    HW1  750   1.923   1.152   0.910 -3.1493 -0.2502 -4.0349
  188SOL    HW2  751   1.949   1.084   0.779  1.8815 -0.3771 -0.8070
  188SOL     MW  752   1.916   1.150   0.825 -0.1381 -0.2081 -1.1413
  189SOL     OW  753   0.696   0.800   0.845  0.1128 -0.5623  0.0285
  189SOL    HW1  754   0.604   0.825   0.839 -3.1260  0.6686  0.7294
  189SOL    HW2  755   0.745   0.852   0.911 -1.0900  0.7660 -0.2507
  189SOL     MW  756   0.691   0.810   0.853 -0.4733 -0.2246  0.0841
  190SOL     OW  757   1.852   0.271   2.187 -0.1427  0.8792 -0.3592
  190SOL    HW1  758   1.858   0.199   2.249 -2.3358 -0.0826 -2.1879
  190SOL    HW2  759   1.939   0.298   2.172 -2.4593  0.7145  0.6728
  190SOL     MW  760   1.865   0.265   2.193 -0.7377  0.7305 -0.4643
  191SOL     OW  761   1.545   0.947   1.181 -0.2093  0.4134  0.4902
  191SOL    HW1  762   1.521   1.018   1.238 -0.7895 -0.6714 -0.3084
  191SOL    HW2  763   1.531   0.871   1.234 -0.7119 -0.3292 -2.8774
  191SOL     MW  764   1.540   0.947   1.195 -0.3522  0.1723 -0.0595
  192SOL     OW  765   0.560   2.115   2.781  0.0105 -0.5955  0.2332
  192SOL    HW1  766   0.519   2.143   2.697  1.3552  1.8655  0.4674
  192SOL    HW2  767   0.593   2.025   2.763 -0.9464  0.1965  0.1597
  192SOL     MW  768   0.559   2.107   2.768  0.0616 -0.1663  0.2544
  193SOL     OW  769   0.907   1.593   0.750  0.0259 -0.1809 -0.2579
  193SOL    HW1  770   0.830   1.579   0.809  2.1887 -0.8495 -1.7510
  193SOL    HW2  771   0.887   1.512   0.688 -0.4210  0.4556 -0.4965
  193SOL     MW  772   0.894   1.581   0.749  0.2523 -0.1851 -0.4864
  194SOL     OW  773   0.497   1.438   0.890  0.2972 -0.4879 -0.2331
  194SOL    HW1  774   0.513   1.346   0.918  2.3303 -2.0528  3.6001
  194SOL    HW2  775   0.405   1.440   0.862  1.5217  0.2599 -3.7355
  194SOL     MW  776   0.487   1.426   0.890  0.7270 -0.5957 -0.1894
  195SOL     OW  777   1.284   1.139   2.948 -0.2764 -0.2695  0.2617
  195SOL    HW1  778   1.336   1.130   3.030 -1.0476 -0.8909  0.5155
  195SOL    HW2  779   1.252   1.054   2.944 -1.7324  1.5650  1.8742
  195SOL     MW  780   1.287   1.126   2.958 -0.5702 -0.1094  0.5080
  196SOL     OW  781   2.194   1.004   0.522 -0.0212 -0.3937  0.0194
  196SOL    HW1  782   2.174   1.004   0.431 -2.2606 -1.8763 -2.0873
  196SOL    HW2  783   2.204   1.102   0.544 -0.8100 -0.6438 -0.1629
  196SOL     MW  784   2.193   1.017   0.513 -0.4208 -0.6223 -0.2826
  197SOL     OW  785   0.618   1.347   2.173 -0.1611 -0.1313  0.5028
  197SOL    HW1  786   0.641   1.252   2.149 -0.1712 -4.0018 -1.4361
  197SOL    HW2  787   0.640   1.397   2.092  0.6214 -1.4456 -1.7469
  197SOL     MW  788   0.624   1.341   2.159 -0.0592 -0.8154 -0.0499
  198SOL     OW  789   2.934   1.406   1.002 -0.2726  0.2660 -0.3661
  198SOL    HW1  790   2.888   1.473   0.947 -0.7243  1.1078 -1.6440
  198SOL    HW2  791   2.866   1.347   1.025  0.4683  0.1834 -0.3267
  198SOL     MW  792   2.919   1.407   0.998 -0.2344  0.3662 -0.5295
  199SOL     OW  793   0.671   1.373   1.889  1.5810 -0.4238  0.7903
  199SOL    HW1  794   0.576   1.352   1.878  0.9822  1.2630  0.0198
  199SOL    HW2  795   0.708   1.404   1.802  2.4448 -0.2155  2.8289
  199SOL     MW  796   0.663   1.374   1.876  1.6160 -0.1738  0.9576
  200SOL     OW  797   1.867   2.916   1.379 -0.1912 -0.4234  0.0296
  200SOL    HW1  798   1.923   2.950   1.307  2.0264 -1.4566  0.3262
  200SOL    HW2  799   1.796   2.986   1.385 -1.6366  0.6296  2.1782
  200SOL     MW  800   1.865   2.930   1.370 -0.0893 -0.4208  0.3522
  201SOL     OW  801   0.981   0.348   0.750  0.0672 -0.1471 -0.3751
  201SOL    HW1  802   0.983   0.253   0.739 -2.9055  1.7562  1.4160
  201SOL    HW2  803   1.067   0.370   0.797  2.8880 -0.6955  0.1823
  201SOL     MW  804   0.993   0.338   0.754  0.0471  0.0316 -0.0652
  202SOL     OW  805   1.472   1.687   0.939 -0.1444  1.4893  0.8762
  202SOL    HW1  806   1.494   1.595   0.926 -0.8384 -1.0769  1.4391
  202SOL    HW2  807   1.501   1.705   1.027  0.3687  2.6626  0.3758
  202SOL     MW  808   1.479   1.677   0.949 -0.1683  1.3055  0.8845
  203SOL     OW  809   3.020   0.443   1.460 -0.2793 -0.3468  0.3650
  203SOL    HW1  810   3.073   0.372   1.426 -1.5954  0.2923  1.4187
  203SOL    HW2  811   3.091   0.488   1.508 -0.8087  0.6754  0.6735
  203SOL     MW  812   3.036   0.439   1.462 -0.5228 -0.1276  0.5447
  204SOL     OW  813   1.026   1.798   0.613 -0.2485 -0.0027  0.0243
  204SOL    HW1  814   0.992   1.738   0.683  0.0247 -1.6892  1.5830
  204SOL    HW2  815   0.951   1.799   0.550  0.1208 -0.3541 -0.5538
  204SOL     MW  816   1.012   1.791   0.614 -0.1637 -0.2716  0.1537
  205SOL     OW  817   1.413   3.090   1.309 -0.1838 -0.3034  0.1073
  205SOL    HW1  818   1.435   3.052   1.223 -2.8148 -2.0974  1.2228
  205SOL    HW2  819   1.338   3.147   1.298 -1.0494 -1.7545  0.1509
  205SOL     MW  820   1.406   3.093   1.296 -0.6452 -0.7316  0.2602
  206SOL     OW  821   0.506   3.092   1.403 -0.1989 -0.0740 -0.6366
  206SOL    HW1  822   0.443   3.070   1.333  0.7667 -1.6153  0.4520
  206SOL    HW2  823   0.578   3.029   1.388 -1.3137 -2.0954 -0.1382
  206SOL     MW  824   0.507   3.081   1.392 -0.2186 -0.5441 -0.4272
  207SOL     OW  825   0.904   1.635   0.230 -0.1006  0.1446  0.2556
  207SOL    HW1  826   0.910   1.708   0.173  0.5755  2.1194  1.9330
  207SOL    HW2  827   0.994   1.635   0.265 -0.5057 -2.1498 -0.1930
  207SOL     MW  828   0.917   1.644   0.227 -0.0648  0.1024  0.4177
  208SOL     OW  829   0.675   1.704   1.370 -0.6097 -0.0806  0.1949
  208SOL    HW1  830   0.749   1.706   1.434 -1.6845  0.7345  0.3507
  208SOL    HW2  831   0.714   1.649   1.308 -2.5951  1.2770  1.9426
  208SOL     MW  832   0.690   1.697   1.370 -1.0134  0.2061  0.4460
  209SOL     OW  833   1.537   0.539   2.796 -0.5260  0.1260 -0.6814
  209SOL    HW1  834   1.570   0.616   2.842 -0.3348 -2.0642 -1.1805
  209SOL    HW2  835   1.611   0.481   2.814 -1.9633 -1.1562 -2.6003
  209SOL     MW  836   1.551   0.541   2.805 -0.6904 -0.3322 -1.0004
  210SOL     OW  837   1.461   1.391   0.887 -0.0209  0.9171  0.7987
  210SOL    HW1  838   1.552   1.393   0.843 -0.5679 -1.3148  1.0988
  210SOL    HW2  839   1.398   1.387   0.810  0.0174 -1.2846  1.0601
  210SOL     MW  840   1.465   1.390   0.871 -0.0880  0.3321  0.8728
  211SOL     OW  841   1.708   0.279   1.011 -0.1549 -0.0496 -0.0166
  211SOL    HW1  842   1.684   0.279   0.917  0.2720  1.3321 -1.6283
  211SOL    HW2  843   1.795   0.315   1.018 -0.4930  2.8496 -1.0712
  211SOL     MW  844   1.716   0.284   0.999 -0.1432  0.5152 -0.3684
  212SOL     OW  845   0.311   1.054   0.171  0.4591  0.1403  0.0120
  212SOL    HW1  846   0.227   1.021   0.203 -2.4575  3.8119  1.9884
  212SOL    HW2  847   0.345   0.973   0.129 -0.1454 -0.7786 -1.1376
  212SOL     MW  848   0.305   1.039   0.170 -0.0055  0.5035  0.1211
  213SOL     OW  849   0.483   1.746   2.979  0.0672  0.3271 -0.4624
  213SOL    HW1  850   0.494   1.821   3.037 -0.1141  0.2547 -0.1252
  213SOL    HW2  851   0.517   1.781   2.899 -1.8226 -0.4208  1.2777
  213SOL     MW  852   0.489   1.761   2.976 -0.2061  0.2189 -0.1883
  214SOL     OW  853   0.636   0.363   2.142 -0.2718 -0.1534 -0.4741
  214SOL    HW1  854   0.603   0.449   2.159  0.5211 -0.9151 -4.1184
  214SOL    HW2  855   0.616   0.337   2.052  0.6556 -0.3353 -3.3047
  214SOL     MW  856   0.629   0.371   2.133 -0.0449 -0.2779 -1.3284
  215SOL     OW  857   0.480   0.657   2.637 -0.1707 -0.4412  0.2370
  215SOL    HW1  858   0.465   0.675   2.546 -2.1013 -3.7708 -0.1193
  215SOL    HW2  859   0.396   0.642   2.679 -1.0683  1.7856 -1.7682
  215SOL     MW  860   0.467   0.658   2.631 -0.5439 -0.5867 -0.0746
  216SOL     OW  861   2.988   3.042   2.745 -0.0971  0.7609 -0.3540
  216SOL    HW1  862   2.917   3.044   2.809  0.4616 -0.2919  3.0287
  216SOL    HW2  863   2.995   3.127   2.712 -1.0613  0.6162  1.2525
  216SOL     MW  864   2.980   3.053   2.749 -0.1506  0.6029  0.3043
  217SOL     OW  865   1.047   1.123   0.092  0.1712 -0.1657 -0.5162
  217SOL    HW1  866   1.069   1.048   0.036 -2.1179 -2.3898  0.2109
  217SOL    HW2  867   1.091   1.208   0.065  1.7403  0.5150 -0.5920
  217SOL     MW  868   1.055   1.124   0.081  0.0762 -0.3693 -0.4302
  218SOL     OW  869   0.877   1.358   2.659 -0.1766  0.1095  0.3367
  218SOL    HW1  870   0.870   1.280   2.716  1.4600 -1.4945  0.3008
  218SOL    HW2  871   0.965   1.395   2.663 -1.5342  2.9448  0.1243
  218SOL     MW  872   0.888   1.352   2.667 -0.1398  0.2719  0.3040
  219SOL     OW  873   1.132   0.339   2.606  0.1137 -0.2633 -0.2004
  219SOL    HW1  874   1.216   0.386   2.640 -0.2261 -0.0715  0.2096
  219SOL    HW2  875   1.083   0.408   2.569 -0.9653 -2.1099  3.0254
  219SOL     MW  876   1.136   0.354   2.606 -0.0735 -0.4816  0.2793
  220SOL     OW  877   1.663   0.456   2.231 -0.4543  0.0045  0.3935
  220SOL    HW1  878   1.609   0.465   2.154 -0.1875 -3.1203  1.9629
  220SOL    HW2  879   1.728   0.385   2.217  1.1377  1.3763  0.4680
  220SOL     MW  880   1.664   0.448   2.219 -0.2091 -0.2268  0.6104
  221SOL     OW  881   0.337   1.308   2.911 -0.1549 -0.7857 -0.4981
  221SOL    HW1  882   0.408   1.248   2.895 -0.5450 -2.1922  0.4826
  221SOL    HW2  883   0.381   1.393   2.904  2.7690  0.9925  0.0761
  221SOL     MW  884   0.352   1.311   2.908  0.1794 -0.7367 -0.2930
  222SOL     OW  885   0.473   0.949   2.628 -0.0644 -0.2790 -0.0459
  222SOL    HW1  886   0.391   0.981   2.591  1.4117  2.9915  1.5754
  222SOL    HW2  887   0.467   0.862   2.605 -0.0518  0.8028  0.6452
  222SOL     MW  888   0.461   0.942   2.620  0.1320  0.2952  0.2592
  223SOL     OW  889   0.099   1.999   2.521  0.5262  0.1677 -0.0394
  223SOL    HW1  890   0.087   1.966   2.612 -2.4590  1.0045 -1.0447
  223SOL    HW2  891   0.127   2.091   2.522 -1.0301 -2.8611  0.8918
  223SOL     MW  892   0.101   2.007   2.533 -0.0730 -0.1215 -0.0491
  224SOL     OW  893   1.530   0.756   2.516 -0.5782  0.4807 -0.2792
  224SOL    HW1  894   1.573   0.737   2.601  0.3756  1.8698 -0.8015
  224SOL    HW2  895   1.538   0.848   2.494 -1.2820 -0.1991  0.6300
  224SOL     MW  896   1.537   0.766   2.525 -0.5453  0.5742 -0.2282
  225SOL     OW  897   2.915   1.456   2.268  0.0938 -0.5664 -0.8879
  225SOL    HW1  898   2.967   1.509   2.211  0.9571  0.3707  0.2819
  225SOL    HW2  899   2.844   1.515   2.299 -0.1001 -0.7609 -0.4600
  225SOL     MW  900   2.913   1.471   2.265  0.1821 -0.4684 -0.6771
  226SOL     OW  901   0.414   1.507   2.721  0.1778  0.0658 -0.9642
  226SOL    HW1  902   0.512   1.508   2.698  1.5900 -1.1883  0.2950
  226SOL    HW2  903   0.390   1.596   2.699 -3.0742 -0.6939  0.1480
  226SOL     MW  904   0.424   1.519   2.715 -0.0649 -0.1999 -0.6513
  227SOL     OW  905   0.544   1.132   2.834  0.0856  0.1224  0.1088
  227SOL    HW1  906   0.637   1.114   2.849 -0.4261  1.5542 -2.3246
  227SOL    HW2  907   0.529   1.065   2.769  1.1261 -2.3869  2.3822
  227SOL     MW  908   0.554   1.121   2.827  0.1554 -0.0198  0.0877
  228SOL     OW  909   0.755   1.125   2.066 -0.3325  0.1219 -0.3655
  228SOL    HW1  910   0.779   1.176   1.989  2.5514  1.7940 -0.2927
  228SOL    HW2  911   0.826   1.138   2.135  0.5654 -3.1267  0.0113
  228SOL     MW  912   0.768   1.134   2.065  0.1665 -0.0861 -0.3062
  229SOL     OW  913   0.152   0.669   0.031  0.1489 -0.1208 -0.6572
  229SOL    HW1  914   0.103   0.638  -0.046 -0.0926 -0.8860 -0.5386
  229SOL    HW2  915   0.150   0.596   0.087  0.4294  0.5287 -0.7255
  229SOL     MW  916   0.145   0.655   0.028  0.1541 -0.1361 -0.6505
  230SOL     OW  917   1.794   1.341   2.019 -0.0846 -0.0120  0.4203
  230SOL    HW1  918   1.731   1.314   2.083  1.3783  0.1472 -1.2967
  230SOL    HW2  919   1.822   1.254   1.994  0.1129  1.9932 -1.2101
  230SOL     MW  920   1.789   1.326   2.024  0.1345  0.2736 -0.0213
  231SOL     OW  921   2.744   1.266   2.188 -0.2088  0.2539 -0.2977
  231SOL    HW1  922   2.812   1.329   2.214  3.8461 -2.9256  2.2551
  231SOL    HW2  923   2.682   1.297   2.119 -1.4320 -0.9523  1.8411
  231SOL     MW  924   2.744   1.279   2.183  0.1648 -0.3248  0.3213
  232SOL     OW  925   2.252   0.837   1.999  0.4705 -0.0957 -0.6735
  232SOL    HW1  926   2.188   0.877   1.942  0.4597 -1.9490 -1.0085
  232SOL    HW2  927   2.220   0.883   2.080  0.3063  2.6508  0.6588
  232SOL     MW  928   2.239   0.848   2.002  0.4474  0.0221 -0.5419
  233SOL     OW  929   2.055   0.409   2.060 -0.3959  0.7994  0.3598
  233SOL    HW1  930   2.107   0.332   2.022 -0.8464 -4.0435  1.5942
  233SOL    HW2  931   2.108   0.457   2.121 -0.2793 -1.8821 -0.2811
  233SOL     MW  932   2.069   0.405   2.063 -0.4399 -0.1934  0.4381
  234SOL     OW  933   0.213   1.055   2.564  1.0291  0.0064  1.0348
  234SOL    HW1  934   0.125   1.039   2.526  1.9626  0.3435  1.2828
  234SOL    HW2  935   0.232   1.153   2.562 -0.7351  0.6548  1.3797
  234SOL     MW  936   0.204   1.066   2.558  0.9195  0.1364  1.1130
  235SOL     OW  937   1.098   3.054   2.789 -0.7734  0.3768 -0.4600
  235SOL    HW1  938   1.118   3.008   2.868 -1.0544  2.2415  2.0468
  235SOL    HW2  939   1.107   3.149   2.817 -2.7655 -1.3185 -0.3222
  235SOL     MW  940   1.102   3.060   2.803 -1.0733  0.3991 -0.1111
  236SOL     OW  941   2.949   0.601   0.121  0.4617  0.3698  0.9475
  236SOL    HW1  942   2.857   0.612   0.087  0.6180 -3.7294 -1.1364
  236SOL    HW2  943   2.991   0.685   0.091  0.8080  2.4169  0.3169
  236SOL     MW  944   2.942   0.614   0.113  0.5280  0.0990  0.5893
  237SOL     OW  945   1.981   1.140   2.203 -0.3516 -0.5012 -0.5241
  237SOL    HW1  946   1.920   1.136   2.125  0.0223  2.4332 -1.7540
  237SOL    HW2  947   2.023   1.053   2.212 -2.1931  1.2151 -1.1545
  237SOL     MW  948   1.978   1.128   2.194 -0.5452  0.1124 -0.7695
  238SOL     OW  949   1.078   1.767   2.936  0.0968 -0.0186 -0.0354
  238SOL    HW1  950   1.020   1.694   2.947  1.1480 -0.2634 -1.1179
  238SOL    HW2  951   1.165   1.732   2.920  0.8181  2.1233 -1.3999
  238SOL     MW  952   1.082   1.753   2.936  0.3306  0.2317 -0.3582
  239SOL     OW  953   1.229   1.406   2.363 -0.2406 -0.0944 -0.9210
  239SOL    HW1  954   1.208   1.419   2.458  1.0133 -0.7872 -0.5588
  239SOL    HW2  955   1.225   1.311   2.354 -1.0623 -3.7698  1.2137
  239SOL     MW  956   1.226   1.395   2.375 -0.1836 -0.6707 -0.5916
  240SOL     OW  957   0.635   0.925   2.304  0.0155 -0.1369 -0.4466
  240SOL    HW1  958   0.658   0.961   2.394 -1.4328  0.5685  3.4173
  240SOL    HW2  959   0.715   0.902   2.258  0.3599  2.9639 -1.1168
  240SOL     MW  960   0.648   0.927   2.310 -0.1302  0.3653 -0.0253
  241SOL     OW  961   0.670   0.411   0.022 -0.1822  0.2702  0.1604
  241SOL    HW1  962   0.715   0.482   0.075 -0.0821  1.3491 -0.8280
  241SOL    HW2  963   0.600   0.462  -0.029 -5.4425 -0.0493  0.5726
  241SOL     MW  964   0.666   0.427   0.023 -0.8631  0.3704  0.0844
  242SOL     OW  965   1.492   1.716   2.300 -0.0589 -0.0437 -0.0787
  242SOL    HW1  966   1.446   1.799   2.284  0.5676  1.4074  2.4661
  242SOL    HW2  967   1.450   1.637   2.258 -0.4909 -2.2230 -1.4934
  242SOL     MW  968   1.480   1.716   2.293 -0.0332 -0.1397  0.0704
  243SOL     OW  969   0.993   0.198   2.401  0.4555  1.2072 -0.8602
  243SOL    HW1  970   1.081   0.189   2.363  2.5159  1.1651  1.3488
  243SOL    HW2  971   1.010   0.223   2.492  3.0438 -0.1283 -2.2972
  243SOL     MW  972   1.007   0.200   2.408  1.0689  1.0255 -0.7584
  244SOL     OW  973   0.147   0.806   2.349 -0.3097 -0.2244  0.1524
  244SOL    HW1  974   0.126   0.894   2.331 -0.2368 -1.7526 -0.0672
  244SOL    HW2  975   0.244   0.800   2.368  0.7808 -0.8541  0.2575
  244SOL     MW  976   0.157   0.817   2.349 -0.1562 -0.5091  0.1373
  245SOL     OW  977   1.229   0.200   2.307  0.2607  0.1705 -0.1799
  245SOL    HW1  978   1.280   0.117   2.319 -0.2239 -2.3448  1.8203
  245SOL    HW2  979   1.280   0.275   2.342  0.9760  1.5264  0.1072
  245SOL     MW  980   1.243   0.199   2.313  0.2911  0.0175  0.1219
  246SOL     OW  981   1.191   1.147   2.114 -0.3965 -0.3622 -0.2008
  246SOL    HW1  982   1.136   1.137   2.195 -0.0290  1.8849 -0.5810
  246SOL    HW2  983   1.274   1.099   2.141  0.8200 -1.4081  2.3214
  246SOL     MW  984   1.195   1.139   2.129 -0.1875 -0.2037  0.0818
  247SOL     OW  985   0.751   0.621   0.211 -0.1922  0.2913 -0.1876
  247SOL    HW1  986   0.718   0.703   0.181  1.5836 -0.6075 -0.0507
  247SOL    HW2  987   0.845   0.616   0.185  1.8443 -1.2281  1.9118
  247SOL     MW  988   0.759   0.631   0.204  0.3108 -0.0278  0.1074
  248SOL     OW  989   0.327   1.298   2.572  0.2947  0.5773 -0.2840
  248SOL    HW1  990   0.352   1.324   2.481 -0.0801 -2.0651  0.3853
  248SOL    HW2  991   0.349   1.375   2.624  4.1495  0.2327 -3.9458
  248SOL     MW  992   0.333   1.312   2.567  0.7538  0.1832 -0.6789
  249SOL     OW  993   0.032   1.877   2.766 -0.6339  0.3447  0.5228
  249SOL    HW1  994  -0.035   1.810   2.747 -5.0399  2.3301  0.8398
  249SOL    HW2  995   0.103   1.827   2.809 -0.0881 -1.6094  1.9108
  249SOL     MW  996   0.032   1.861   2.769 -1.1432  0.3489  0.7478
  250SOL     OW  997   2.135   0.904   2.268  0.3535  0.5743  0.0237
  250SOL    HW1  998   2.139   0.810   2.280 -0.9499 -0.3220  1.1773
  250SOL    HW2  999   2.214   0.923   2.315 -0.6873  0.8626  0.7125
  250SOL     MW 1000   2.146   0.894   2.276  0.0442  0.4941  0.2668
  251SOL     OW 1001   0.174   0.893   1.948  0.5280  0.6058  0.0432
  251SOL    HW1 1002   0.190   0.801   1.968  1.9034 -1.4089  0.3558
  251SOL    HW2 1003   0.175   0.908   1.854 -0.3235  0.4286  2.5323
  251SOL     MW 1004   0.176   0.883   1.938  0.5971  0.3166  0.4129
  252SOL     OW 1005   1.690   0.989   2.916 -0.5322  0.5601 -0.2466
  252SOL    HW1 1006   1.716   1.027   2.997  0.7558 -0.7327 -0.7550
  252SOL    HW2 1007   1.759   1.002   2.852 -1.5347  1.1832  0.2321
  252SOL     MW 1008   1.703   0.995   2.918 -0.4945  0.4717 -0.2505
  253SOL     OW 1009   1.123   1.726   2.477  0.0757 -0.2821 -0.2690
  253SOL    HW1 1010   1.139   1.723   2.374  2.0931  1.2559 -1.9088
  253SOL    HW2 1011   1.063   1.804   2.506 -1.6297 -1.8677  1.5171
  253SOL     MW 1012   1.117   1.736   2.467  0.1169 -0.2884 -0.2497
  254SOL     OW 1013   0.949   1.102   2.241 -0.1138 -0.1199  0.2044
  254SOL    HW1 1014   0.929   1.006   2.241  0.4317 -0.2412 -2.4131
  254SOL    HW2 1015   0.904   1.144   2.319  0.8288 -3.3722 -0.4585
  254SOL     MW 1016   0.940   1.095   2.251  0.0826 -0.5650 -0.2284
  255SOL     OW 1017   0.847   2.502   2.180  0.3473 -0.1411  0.6728
  255SOL    HW1 1018   0.757   2.464   2.150 -2.0603  1.0346 -2.7229
  255SOL    HW2 1019   0.908   2.438   2.221  1.1604  0.0379  1.9182
  255SOL     MW 1020   0.844   2.488   2.181  0.1369  0.0376  0.3891
  256SOL     OW 1021   1.254   2.734   2.968 -0.6854  0.3913  0.0390
  256SOL    HW1 1022   1.204   2.668   2.926 -1.1011 -1.8678  1.6665
  256SOL    HW2 1023   1.337   2.742   2.923  1.8251 -1.7846  0.6740
  256SOL     MW 1024   1.259   2.727   2.957 -0.4090 -0.1938  0.3375
  257SOL     OW 1025   0.085   1.924   0.006 -0.9332 -0.5933 -0.0339
  257SOL    HW1 1026   0.152   1.966   0.064 -2.3083  0.7713 -3.0206
  257SOL    HW2 1027   0.132   1.847  -0.031  1.8282 -1.9923 -0.9759
  257SOL     MW 1028   0.100   1.919   0.009 -0.7503 -0.5978 -0.5522
  258SOL     OW 1029   0.785   0.993   2.505 -0.4325 -0.2733  0.0314
  258SOL    HW1 1030   0.810   1.087   2.503 -0.1627 -0.4739  0.2423
  258SOL    HW2 1031   0.749   0.984   2.598 -1.7807 -3.2577  2.7522
  258SOL     MW 1032   0.784   1.004   2.517 -0.5747 -0.6935  0.4182
  259SOL     OW 1033   0.876   0.413   2.279 -0.3086  0.1140 -0.0692
  259SOL    HW1 1034   0.798   0.378   2.233 -0.2323  1.7061 -0.9211
  259SOL    HW2 1035   0.911   0.332   2.321  0.0062  1.1238 -0.4179
  259SOL     MW 1036   0.871   0.398   2.278 -0.2570  0.4573 -0.2276
  260SOL     OW 1037   0.641   0.126   1.622  0.4207 -0.4553  0.4396
  260SOL    HW1 1038   0.583   0.114   1.551  1.7315 -1.6377  0.0070
  260SOL    HW2 1039   0.732   0.131   1.592  1.0459  0.8050  0.0686
  260SOL     MW 1040   0.645   0.125   1.608  0.6761 -0.4450  0.3335
  261SOL     OW 1041   1.134   0.720   2.037 -0.4185  0.1716 -0.0017
  261SOL    HW1 1042   1.135   0.723   2.140 -0.8914  0.9642 -0.4521
  261SOL    HW2 1043   1.082   0.641   2.024  0.1175 -1.2722  1.8252
  261SOL     MW 1044   1.127   0.710   2.049 -0.4102  0.0857  0.1799
  262SOL     OW 1045   1.073   0.334   0.194  0.5169  0.3688 -0.1938
  262SOL    HW1 1046   1.164   0.322   0.172 -1.2347  0.0734  2.3103
  262SOL    HW2 1047   1.037   0.260   0.147  0.1071 -0.4571  2.1872
  262SOL     MW 1048   1.080   0.323   0.185  0.2317  0.2208  0.4507
  263SOL     OW 1049   0.428   0.041   2.481 -0.7978  0.1612  0.1245
  263SOL    HW1 1050   0.344   0.084   2.488 -1.1280  0.3044  1.0183
  263SOL    HW2 1051   0.460   0.058   2.390 -3.1365 -0.1259 -1.0131
  263SOL     MW 1052   0.421   0.049   2.470 -1.1499  0.1423  0.0924
  264SOL     OW 1053   1.552   1.335   1.884  0.0975  0.3345  0.2343
  264SOL    HW1 1054   1.546   1.245   1.853  1.7822 -0.1082  0.6402
  264SOL    HW2 1055   1.639   1.343   1.921  1.5782  0.0365  0.8742
  264SOL     MW 1056   1.563   1.324   1.885  0.5151  0.2368  0.3723
  265SOL     OW 1057   0.774   2.755   2.238  0.2256 -0.7326  0.5104
  265SOL    HW1 1058   0.821   2.672   2.215 -0.2604 -0.2603 -3.1897
  265SOL    HW2 1059   0.750   2.749   2.330 -1.6627 -0.5324  1.6330
  265SOL     MW 1060   0.777   2.743   2.247 -0.0877 -0.6439  0.1703
  266SOL     OW 1061   0.885   0.835   2.196  0.6884  0.5948 -0.2744
  266SOL    HW1 1062   0.886   0.828   2.098  1.4027  1.4064  0.8126
  266SOL    HW2 1063   0.969   0.798   2.231  0.0698 -2.2843 -1.7384
  266SOL     MW 1064   0.896   0.829   2.187  0.7010  0.3220 -0.3241
  267SOL     OW 1065   1.336   1.765   2.652 -0.4226 -0.2224 -0.2148
  267SOL    HW1 1066   1.416   1.733   2.608  1.0105 -0.0065  3.2100
  267SOL    HW2 1067   1.255   1.744   2.602  2.9836 -0.2070  0.2042
  267SOL     MW 1068   1.336   1.758   2.639  0.2159 -0.1919  0.2924
  268SOL     OW 1069   0.168   0.926   1.692 -0.7824  0.3832  0.4681
  268SOL    HW1 1070   0.158   1.011   1.641  0.3231  0.2063  0.8183
  268SOL    HW2 1071   0.115   0.856   1.653  2.2639  2.6201 -1.5379
  268SOL     MW 1072   0.160   0.928   1.680 -0.2346  0.6550  0.2496
  269SOL     OW 1073   1.333   1.980   2.323  0.3495 -0.6683 -0.1636
  269SOL    HW1 1074   1.410   2.027   2.348 -0.2992  2.8944 -1.5689
  269SOL    HW2 1075   1.268   2.023   2.381 -1.2459  1.9343  1.4191
  269SOL     MW 1076   1.334   1.992   2.334  0.0534  0.1451 -0.1402
  270SOL     OW 1077   1.159   0.419   1.595 -0.1030  0.3673  0.4480
  270SOL    HW1 1078   1.145   0.337   1.636 -0.1679 -0.4603 -0.8724
  270SOL    HW2 1079   1.257   0.429   1.585 -0.6721  1.6102 -1.5028
  270SOL     MW 1080   1.170   0.410   1.599 -0.1867  0.4221  0.0164
  271SOL     OW 1081   0.778   0.058   2.504 -0.3210 -0.3136 -0.1522
  271SOL    HW1 1082   0.839  -0.006   2.533 -0.0387  2.4938 -1.9900
  271SOL    HW2 1083   0.837   0.111   2.453  2.2360  1.5905 -0.4662
  271SOL     MW 1084   0.794   0.056   2.501  0.0536  0.3080 -0.4361
  272SOL     OW 1085   1.492   2.824   2.844 -0.1339  0.0364 -0.0080
  272SOL    HW1 1086   1.449   2.829   2.754 -1.1505  2.8934  2.1589
  272SOL    HW2 1087   1.509   2.916   2.853  1.0128  1.1935 -0.0032
  272SOL     MW 1088   1.489   2.836   2.833 -0.1167  0.5660  0.2786
  273SOL     OW 1089   1.461   0.905   2.802 -0.3775  0.0232 -0.2426
  273SOL    HW1 1090   1.535   0.929   2.854 -3.0251 -1.2018  0.0943
  273SOL    HW2 1091   1.433   0.973   2.740  0.1795 -0.5516  0.1278
  273SOL     MW 1092   1.467   0.917   2.800 -0.6533 -0.2143 -0.1492
  274SOL     OW 1093   1.398   0.760   0.130 -0.0298  0.3763 -0.1077
  274SOL    HW1 1094   1.459   0.703   0.178 -1.5485  1.8594  3.0367
  274SOL    HW2 1095   1.316   0.746   0.177 -1.5734 -0.6460  1.1368
  274SOL     MW 1096   1.396   0.751   0.142 -0.4338  0.4371  0.4714
  275SOL     OW 1097   1.700   0.518   1.758  0.1298 -0.1880 -0.3442
  275SOL    HW1 1098   1.754   0.567   1.821 -0.2020  0.3893  0.4162
  275SOL    HW2 1099   1.692   0.428   1.796 -0.2793 -0.4494  0.5351
  275SOL     MW 1100   1.706   0.512   1.771  0.0321 -0.1463 -0.1279
  276SOL     OW 1101   0.405   1.298   1.944  0.1681 -0.4690  0.1307
  276SOL    HW1 1102   0.445   1.210   1.954  2.4294  0.6152 -0.5255
  276SOL    HW2 1103   0.343   1.327   2.010  0.2205  1.7000 -1.4500
  276SOL     MW 1104   0.403   1.290   1.954  0.4734 -0.0398 -0.1644
  277SOL     OW 1105   1.968   1.165   2.488  0.4330  0.0997  0.0550
  277SOL    HW1 1106   2.004   1.257   2.503  1.3725  0.8137 -0.3598
  277SOL    HW2 1107   1.989   1.159   2.395  1.5206  0.8095  1.4728
  277SOL     MW 1108   1.976   1.177   2.478  0.7005  0.2875  0.1873
  278SOL     OW 1109   1.361   0.677   1.679 -0.0962  0.4629  0.4700
  278SOL    HW1 1110   1.318   0.597   1.709 -1.3083 -1.7762  1.3778
  278SOL    HW2 1111   1.438   0.678   1.738  1.7158 -1.8569  3.2868
  278SOL     MW 1112   1.365   0.667   1.691 -0.0170 -0.1386  0.9615
  279SOL     OW 1113   0.528   0.102   2.203 -0.3293 -0.6936  0.0790
  279SOL    HW1 1114   0.608   0.049   2.209 -1.1279 -1.2192 -2.2569
  279SOL    HW2 1115   0.562   0.193   2.206  0.5423 -1.2144 -1.5719
  279SOL     MW 1116   0.543   0.107   2.204 -0.3197 -0.8316 -0.4470
  280SOL     OW 1117   1.421   0.999   2.157  0.0279  0.6049 -0.4189
  280SOL    HW1 1118   1.504   0.953   2.131 -0.2788  2.0060  3.7342
  280SOL    HW2 1119   1.437   0.991   2.255  2.1042 -0.4176 -0.6365
  280SOL     MW 1120   1.434   0.992   2.167  0.2614  0.6549  0.1003
  281SOL     OW 1121   1.374   1.217   2.694  0.5635 -0.7098 -0.0444
  281SOL    HW1 1122   1.447   1.284   2.695  0.2932 -0.9728 -1.2420
  281SOL    HW2 1123   1.341   1.208   2.786 -0.4087 -1.9576 -1.1306
  281SOL     MW 1124   1.379   1.224   2.706  0.3996 -0.9091 -0.3457
  282SOL     OW 1125   1.120   1.256   1.636 -0.1071  0.2008 -0.0777
  282SOL    HW1 1126   1.142   1.349   1.639  0.1385  1.5707  2.8821
  282SOL    HW2 1127   1.063   1.226   1.708  1.5378 -0.1153 -0.9486
  282SOL     MW 1128   1.115   1.264   1.646  0.1424  0.3398  0.1979
  283SOL     OW 1129   0.828   1.309   3.085 -0.0636  0.7953  0.4233
  283SOL    HW1 1130   0.902   1.281   3.145 -1.3226  0.4469  0.1433
  283SOL    HW2 1131   0.846   1.392   3.040  2.3495 -0.2922 -0.1826
  283SOL     MW 1132   0.840   1.316   3.087  0.0886  0.6059  0.3064
  284SOL     OW 1133   0.425   0.762   2.385 -0.1094  0.1490  0.2072
  284SOL    HW1 1134   0.493   0.833   2.362  1.2262 -1.3800 -1.5884
  284SOL    HW2 1135   0.412   0.704   2.306 -1.6614  1.2305  1.3546
  284SOL     MW 1136   0.432   0.764   2.371 -0.1379  0.0900  0.1217
  285SOL     OW 1137   0.890   0.890   2.808 -0.1217  0.2231 -0.2759
  285SOL    HW1 1138   0.932   0.906   2.727 -2.5944  0.2824 -0.1233
  285SOL    HW2 1139   0.846   0.807   2.796  1.8042  2.1905 -1.0784
  285SOL     MW 1140   0.890   0.881   2.795 -0.1938  0.4905 -0.3616
  286SOL     OW 1141   1.115   1.461   2.610 -0.1560  0.0931  0.1552
  286SOL    HW1 1142   1.177   1.461   2.686  0.9529 -0.1138 -0.8489
  286SOL    HW2 1143   1.105   1.552   2.585  0.0414 -1.0172 -0.9812
  286SOL     MW 1144   1.122   1.473   2.617  0.0164 -0.0807 -0.1272
  287SOL     OW 1145   1.201   0.975   0.332  0.3295  0.1879 -0.0443
  287SOL    HW1 1146   1.210   1.023   0.418 -0.9026  0.4582 -0.1506
  287SOL    HW2 1147   1.139   1.029   0.288  4.0369 -2.3593 -1.0418
  287SOL     MW 1148   1.194   0.989   0.337  0.6561 -0.1125 -0.1899
  288SOL     OW 1149   1.494   0.592   2.055  0.0458  0.6283  0.0641
  288SOL    HW1 1150   1.456   0.612   2.140  1.9440  0.7343  0.1625
  288SOL    HW2 1151   1.515   0.678   2.041 -0.8299 -2.4917  2.7929
  288SOL     MW 1152   1.492   0.606   2.064  0.1807  0.2306  0.4372
  289SOL     OW 1153   1.055   0.984   2.554 -0.9036 -0.1171  0.1068
  289SOL    HW1 1154   1.107   0.898   2.564 -1.9391 -1.6318  1.6782
  289SOL    HW2 1155   0.974   0.955   2.517 -1.4679  0.8793  0.8169
  289SOL     MW 1156   1.051   0.969   2.551 -1.1147 -0.1855  0.4078
  290SOL     OW 1157   0.798   0.604   1.516 -0.0362  0.0032 -0.7962
  290SOL    HW1 1158   0.840   0.591   1.431  1.3461  0.7312 -0.8033
  290SOL    HW2 1159   0.867   0.594   1.582  0.9805  2.2936 -1.5984
  290SOL     MW 1160   0.813   0.601   1.513  0.2804  0.4015 -0.9030
  291SOL     OW 1161   0.174   0.405   0.141  0.3000  0.1547 -0.0247
  291SOL    HW1 1162   0.246   0.339   0.162  1.1985 -2.2914 -3.4263
  291SOL    HW2 1163   0.119   0.348   0.089  2.0892 -2.0867 -0.4949
  291SOL     MW 1164   0.176   0.389   0.137  0.6546 -0.4638 -0.5355
  292SOL     OW 1165   1.024   0.595   0.083  0.4206  0.1701  0.1538
  292SOL    HW1 1166   1.077   0.644   0.146  2.5858  0.7420  2.0808
  292SOL    HW2 1167   1.034   0.508   0.116 -0.9348 -0.4814 -4.5866
  292SOL     MW 1168   1.032   0.590   0.096  0.5274  0.1596 -0.2174
  293SOL     OW 1169   0.136   0.173   2.479 -0.1735  0.7466  0.5911
  293SOL    HW1 1170   0.106   0.100   2.422 -0.2656  0.6798 -2.5384
  293SOL    HW2 1171   0.065   0.183   2.541  0.1658 -0.1795 -0.7339
  293SOL     MW 1172   0.122   0.165   2.480 -0.1409  0.6156  0.0034
  294SOL     OW 1173   1.397   0.556   2.324 -0.4627  0.0504 -0.6622
  294SOL    HW1 1174   1.435   0.627   2.380 -0.7665  0.3380 -0.4758
  294SOL    HW2 1175   1.431   0.473   2.355 -0.3333 -0.1039  3.3530
  294SOL     MW 1176   1.407   0.554   2.335 -0.4857  0.0680 -0.1078
  295SOL     OW 1177   0.953   0.531   2.543 -0.3474  0.1709  0.3013
  295SOL    HW1 1178   0.934   0.540   2.448  0.6045  2.0372 -0.6492
  295SOL    HW2 1179   0.868   0.553   2.590 -0.3029 -0.6985 -1.1540
  295SOL     MW 1180   0.939   0.535   2.537 -0.2159  0.3024 -0.0161
  296SOL     OW 1181   1.216   0.262   2.050 -0.1026 -0.4388  0.2507
  296SOL    HW1 1182   1.303   0.220   2.032  0.2105  0.1949 -1.4483
  296SOL    HW2 1183   1.205   0.248   2.142  0.3604  0.0020 -2.5363
  296SOL     MW 1184   1.226   0.254   2.059 -0.0002 -0.2970 -0.3412
  297SOL     OW 1185   1.430   0.409   1.554 -0.1638  0.0768 -0.1278
  297SOL    HW1 1186   1.500   0.455   1.607  0.2507 -0.2857 -0.4414
  297SOL    HW2 1187   1.453   0.322   1.582 -3.8161 -1.1447  1.4866
  297SOL     MW 1188   1.442   0.403   1.565 -0.5910 -0.1322  0.0438
  298SOL     OW 1189   1.622   0.851   2.036 -0.6945  0.2156  0.4709
  298SOL    HW1 1190   1.673   0.904   1.975 -1.8563 -0.1335  0.3971
  298SOL    HW2 1191   1.681   0.805   2.090  0.4720 -2.3014 -0.8796
  298SOL     MW 1192   1.636   0.852   2.035 -0.6939 -0.1625  0.2830
  299SOL     OW 1193   0.620   1.110   0.024  0.0838  0.1193 -0.4363
  299SOL    HW1 1194   0.589   1.101  -0.066 -4.1597 -0.2628 -1.5750
  299SOL    HW2 1195   0.701   1.162   0.024  2.2868  0.1324  1.8651
  299SOL     MW 1196   0.627   1.115   0.012 -0.1855  0.0706 -0.2829
  300SOL     OW 1197   1.236   1.158   2.471  0.3502 -1.2600 -0.2645
  300SOL    HW1 1198   1.157   1.099   2.482 -1.3179  2.3334 -2.1524
  300SOL    HW2 1199   1.272   1.188   2.556  0.6033  1.8760 -1.6136
  300SOL     MW 1200   1.230   1.154   2.483  0.1635 -0.3721 -0.6916
  301SOL     OW 1201   1.442   0.961   0.661 -0.3107 -0.6013  0.1700
  301SOL    HW1 1202   1.454   0.990   0.750 -0.7767  0.0987 -0.1222
  301SOL    HW2 1203   1.390   0.889   0.678 -1.4677  2.0299 -1.3920
  301SOL     MW 1204   1.437   0.955   0.675 -0.5248 -0.1618 -0.0746
  302SOL     OW 1205   0.204   1.546   2.026  0.4222 -0.2441  0.6642
  302SOL    HW1 1206   0.202   1.472   2.089 -0.3558 -2.2758 -0.9762
  302SOL    HW2 1207   0.144   1.612   2.057  0.2737 -0.9000 -0.8387
  302SOL     MW 1208   0.196   1.545   2.038  0.3000 -0.5987  0.2495
  303SOL     OW 1209   0.372   1.802   2.698 -0.6851 -0.0139 -0.0957
  303SOL    HW1 1210   0.305   1.795   2.626  0.3863 -0.5887 -2.4841
  303SOL    HW2 1211   0.321   1.802   2.779  0.2776  0.3129  3.0788
  303SOL     MW 1212   0.356   1.801   2.700 -0.4167 -0.0466  0.0080
  304SOL     OW 1213   0.496   2.041   2.328  0.0934 -0.2047 -0.4343
  304SOL    HW1 1214   0.576   2.090   2.291  1.2646  0.5092 -0.8232
  304SOL    HW2 1215   0.518   1.966   2.379 -2.5114  1.4739 -0.1887
  304SOL     MW 1216   0.510   2.038   2.330 -0.0957  0.1109 -0.4532
  305SOL     OW 1217   1.091   0.597   0.548  0.2453  0.6393  0.4429
  305SOL    HW1 1218   1.004   0.578   0.517  1.6767 -0.4431  1.3174
  305SOL    HW2 1219   1.120   0.510   0.575 -0.3823  1.6023 -0.2311
  305SOL     MW 1220   1.084   0.583   0.547  0.3513  0.6235  0.4694
  306SOL     OW 1221   1.189   1.561   0.251 -0.2199  0.0669 -0.3060
  306SOL    HW1 1222   1.202   1.466   0.288 -2.9373 -0.2978 -1.6405
  306SOL    HW2 1223   1.222   1.551   0.161 -1.2275  0.3240 -2.2250
  306SOL     MW 1224   1.195   1.547   0.244 -0.7114  0.0527 -0.7352
  307SOL     OW 1225   1.335   0.447   1.867 -0.3522 -0.4751  0.2592
  307SOL    HW1 1226   1.283   0.406   1.937 -2.4122  0.6923 -1.6827
  307SOL    HW2 1227   1.378   0.513   1.921  2.0672  0.7446  0.8312
  307SOL     MW 1228   1.334   0.450   1.883 -0.3048 -0.1602  0.0784
  308SOL     OW 1229   2.214   0.519   2.689  0.5193 -0.0195 -0.6108
  308SOL    HW1 1230   2.311   0.531   2.702 -1.1928 -0.2744 -1.9335
  308SOL    HW2 1231   2.187   0.615   2.683  1.2925  0.4482  1.4471
  308SOL     MW 1232   2.224   0.533   2.690  0.3954  0.0085 -0.5138
  309SOL     OW 1233   0.471   0.537   0.231  0.1238  0.6368  0.0138
  309SOL    HW1 1234   0.562   0.565   0.235 -0.3110  0.0927 -5.3294
  309SOL    HW2 1235   0.476   0.441   0.225  0.2061  0.7666 -0.7394
  309SOL     MW 1236   0.484   0.528   0.230  0.0773  0.5822 -0.7906
  310SOL     OW 1237   0.453   0.577   1.890  0.5831 -0.4662 -0.3056
  310SOL    HW1 1238   0.495   0.496   1.870  1.1944  4.0975 -0.3238
  310SOL    HW2 1239   0.497   0.659   1.856  2.6553  1.1167  1.3819
  310SOL     MW 1240   0.464   0.578   1.883  0.9371  0.3448 -0.0854
  311SOL     OW 1241   1.887   0.645   1.948 -0.0129  0.0472  0.6422
  311SOL    HW1 1242   1.843   0.669   2.029  0.4661  3.2582 -0.3485
  311SOL    HW2 1243   1.933   0.560   1.961  1.8720  2.2312 -0.4052
  311SOL     MW 1244   1.887   0.637   1.961  0.2990  0.7590  0.3733
  312SOL     OW 1245   1.824   2.463   0.205  0.0352 -0.4391 -0.4364
  312SOL    HW1 1246   1.889   2.499   0.268 -2.6813 -0.5849  2.4727
  312SOL    HW2 1247   1.741   2.499   0.235  0.5418  1.2348 -2.3300
  312SOL     MW 1248   1.821   2.473   0.217 -0.2563 -0.2375 -0.3024
  313SOL     OW 1249   0.118   1.099   2.988 -0.3564 -0.2888  0.8764
  313SOL    HW1 1250   0.083   1.119   3.079  0.4957 -0.1457 -1.0797
  313SOL    HW2 1251   0.163   1.180   2.953 -2.6952  3.2302  0.1738
  313SOL     MW 1252   0.120   1.112   2.996 -0.5526  0.1944  0.5256
  314SOL     OW 1253   2.152   3.000   2.963 -0.0046 -0.3200  0.2906
  314SOL    HW1 1254   2.074   3.047   2.924  1.4271 -0.5496  1.9225
  314SOL    HW2 1255   2.168   3.068   3.033 -2.2048 -3.2581  0.5446
  314SOL     MW 1256   2.144   3.015   2.967 -0.1060 -0.7379  0.5394
  315SOL     OW 1257   1.532   1.839   3.015 -0.0269 -0.0900  0.1230
  315SOL    HW1 1258   1.478   1.890   3.085  1.6865  4.0384 -0.4806
  315SOL    HW2 1259   1.582   1.917   2.977  0.1757 -2.5905 -0.9694
  315SOL     MW 1260   1.532   1.856   3.019  0.2259  0.1248 -0.1008
  316SOL     OW 1261   1.272   0.548   2.718 -0.8984  0.2365  0.1170
  316SOL    HW1 1262   1.366   0.554   2.740  2.4047 -0.5548 -0.4571
  316SOL    HW2 1263   1.232   0.571   2.805  1.7144  0.1287 -0.5039
  316SOL     MW 1264   1.279   0.552   2.732 -0.1178  0.1179 -0.0407
  317SOL     OW 1265   0.683   1.516   2.648 -0.5869  0.6574  0.1364
  317SOL    HW1 1266   0.740   1.439   2.678  0.5366 -2.4163  1.7729
  317SOL    HW2 1267   0.700   1.537   2.553 -0.5895  0.3926  0.3095
  317SOL     MW 1268   0.693   1.509   2.640 -0.4390  0.2169  0.3752
  318SOL     OW 1269   1.360   0.326   2.954 -0.3839  0.1292 -0.6667
  318SOL    HW1 1270   1.267   0.355   2.942  0.1688 -1.0336  2.3546
  318SOL    HW2 1271   1.410   0.399   2.907  3.0445  0.5010 -0.6990
  318SOL     MW 1272   1.354   0.339   2.946  0.1414  0.0248 -0.2723
  319SOL     OW 1273   0.859   0.367   2.921  0.1107 -0.9011 -0.0827
  319SOL    HW1 1274   0.832   0.324   2.840 -1.9325  1.3622  2.0884
  319SOL    HW2 1275   0.784   0.355   2.977 -1.3759 -1.9297 -1.6170
  319SOL     MW 1276   0.845   0.360   2.918 -0.3551 -0.7382  0.0014
  320SOL     OW 1277   1.064   1.371   1.991 -0.2804  0.5913  0.3491
  320SOL    HW1 1278   1.116   1.304   2.044 -0.0857  1.2888  2.6673
  320SOL    HW2 1279   1.116   1.432   1.936  1.5072  0.0092 -1.8475
  320SOL     MW 1280   1.078   1.370   1.991 -0.0189  0.6065  0.3652
  321SOL     OW 1281   1.127   0.914   3.019 -0.5031 -0.1027 -0.4719
  321SOL    HW1 1282   1.061   0.892   2.954 -0.4327  1.1901  1.8892
  321SOL    HW2 1283   1.206   0.856   3.013  1.0242 -1.3271  1.3473
  321SOL     MW 1284   1.128   0.903   3.010 -0.2923 -0.0936  0.0796
  322SOL     OW 1285   1.163   0.857   1.669 -0.2024 -0.1763 -0.4482
  322SOL    HW1 1286   1.237   0.791   1.660  1.5603 -1.5670 -1.9309
  322SOL    HW2 1287   1.153   0.888   1.762 -2.0516 -1.8166  0.8676
  322SOL     MW 1288   1.171   0.852   1.680 -0.2138 -0.5762 -0.4702
  323SOL     OW 1289   1.232   1.571   1.886 -0.0971  0.9214 -0.0340
  323SOL    HW1 1290   1.266   1.578   1.794  0.3440 -0.5944 -0.2073
  323SOL    HW2 1291   1.175   1.655   1.890 -2.5228 -1.9683  0.0069
  323SOL     MW 1292   1.229   1.583   1.874 -0.3590  0.3402 -0.0514
  324SOL     OW 1293   1.481   1.033   2.419 -0.2775  0.2484  0.3018
  324SOL    HW1 1294   1.392   1.074   2.434 -5.2089 -0.5583 -0.4041
  324SOL    HW2 1295   1.548   1.091   2.452 -0.2650  0.1966  0.9559
  324SOL     MW 1296   1.478   1.046   2.425 -0.9265  0.1352  0.2950
  325SOL     OW 1297   1.113   0.512   2.940  0.0621 -0.1379  0.3607
  325SOL    HW1 1298   1.091   0.548   3.023 -0.1290 -1.8983 -0.0834
  325SOL    HW2 1299   1.029   0.471   2.915 -2.0507 -0.2974 -2.1658
  325SOL     MW 1300   1.099   0.511   2.948 -0.2419 -0.3912 -0.0312
  326SOL     OW 1301   0.395   1.365   2.307 -0.8424  0.1680  0.5691
  326SOL    HW1 1302   0.487   1.351   2.268  0.2939 -0.5327 -2.7246
  326SOL    HW2 1303   0.383   1.461   2.321  0.0747 -3.2970  2.2383
  326SOL     MW 1304   0.406   1.376   2.304 -0.5715 -0.3817  0.3547
  327SOL     OW 1305   1.924   0.781   2.440  0.0690 -0.0831  0.4073
  327SOL    HW1 1306   1.898   0.764   2.533  0.1740  1.6201 -0.0380
  327SOL    HW2 1307   1.985   0.849   2.452 -1.6175  0.7977 -1.2215
  327SOL     MW 1308   1.929   0.788   2.454 -0.1396  0.2579  0.1337
  328SOL     OW 1309   0.205   1.313   2.146  0.2336 -0.6968 -0.6503
  328SOL    HW1 1310   0.152   1.235   2.147  1.2980 -1.1198 -0.1525
  328SOL    HW2 1311   0.279   1.307   2.210 -1.2255  0.0697  2.5018
  328SOL     MW 1312   0.208   1.302   2.154  0.1815 -0.6515 -0.1687
  329SOL     OW 1313   0.020   0.194   1.407 -0.5461 -0.5814 -0.6829
  329SOL    HW1 1314  -0.004   0.191   1.505  1.6029  1.0398  2.5970
  329SOL    HW2 1315   0.114   0.188   1.390  1.3443  0.2528 -0.4450
  329SOL     MW 1316   0.029   0.193   1.418 -0.0132 -0.2574 -0.2187
  330SOL     OW 1317   0.391   3.040   2.043  0.5250  0.1817  0.2007
  330SOL    HW1 1318   0.440   3.099   2.103 -0.6403 -1.1430  3.0302
  330SOL    HW2 1319   0.317   3.017   2.105  1.0058  2.8404 -0.3629
  330SOL     MW 1320   0.388   3.045   2.059  0.4347  0.3577  0.4997
  331SOL     OW 1321   0.820   1.250   2.429 -0.4764  0.3797  0.1091
  331SOL    HW1 1322   0.762   1.314   2.390  0.5222  2.4446 -0.0387
  331SOL    HW2 1323   0.853   1.294   2.509 -0.3756  1.5901  0.5484
  331SOL     MW 1324   0.817   1.264   2.435 -0.3313  0.8118  0.1476
  332SOL     OW 1325   1.350   1.646   2.891 -0.1194 -0.0154 -0.3240
  332SOL    HW1 1326   1.332   1.677   2.801 -0.5046 -1.7116  0.0041
  332SOL    HW2 1327   1.421   1.705   2.920  0.1029 -1.4311 -2.9494
  332SOL     MW 1328   1.357   1.658   2.883 -0.1409 -0.4260 -0.6271
  333SOL     OW 1329   1.750   1.381   2.926  0.0051  0.0759 -0.4896
  333SOL    HW1 1330   1.850   1.366   2.930  2.7909 -1.4332  0.9741
  333SOL    HW2 1331   1.706   1.313   2.981  0.0941  2.0817  0.8699
  333SOL     MW 1332   1.757   1.370   2.934  0.3844  0.1415 -0.1171
  334SOL     OW 1333   1.262   3.069   2.554  0.0262 -0.2567  0.1984
  334SOL    HW1 1334   1.223   3.054   2.641 -2.7776 -1.6968  0.5783
  334SOL    HW2 1335   1.275   3.159   2.550 -1.8105  0.4655 -1.1716
  334SOL     MW 1336   1.259   3.079   2.565 -0.5861 -0.3514  0.0678
  335SOL     OW 1337   1.316   0.743   2.958  0.3639 -0.0487  0.3809
  335SOL    HW1 1338   1.370   0.737   3.040 -1.7857 -1.0502  2.9188
  335SOL    HW2 1339   1.368   0.804   2.889  0.0422 -0.2248 -2.6391
  335SOL     MW 1340   1.330   0.750   2.960  0.0379 -0.2041  0.3173
  336SOL     OW 1341   0.956   1.166   1.834 -0.0696 -0.3216 -0.3869
  336SOL    HW1 1342   1.001   1.235   1.894  1.4795  0.0338  1.6910
  336SOL    HW2 1343   1.001   1.084   1.860  0.3657  0.0085 -0.9634
  336SOL     MW 1344   0.968   1.164   1.846  0.1922 -0.2311 -0.1888
  337SOL     OW 1345   0.641   1.834   2.765 -0.6969  0.5982  0.3166
  337SOL    HW1 1346   0.576   1.786   2.712 -1.0974 -1.9207  1.5325
  337SOL    HW2 1347   0.720   1.779   2.762 -0.1978 -0.1126 -0.0135
  337SOL     MW 1348   0.642   1.820   2.758 -0.6839  0.1721  0.4334
  338SOL     OW 1349   1.143   0.721   2.568  0.1128  0.1725 -0.1676
  338SOL    HW1 1350   1.076   0.649   2.558 -0.8639  0.6340  1.0804
  338SOL    HW2 1351   1.214   0.679   2.615 -1.0954  1.6552 -2.7644
  338SOL     MW 1352   1.143   0.706   2.573 -0.1755  0.4290 -0.3456
  339SOL     OW 1353   1.518   1.064   1.823  0.2153  0.1041 -0.0520
  339SOL    HW1 1354   1.459   1.074   1.745  1.2190  2.7011 -1.4763
  339SOL    HW2 1355   1.460   1.038   1.895  0.8489 -0.9251 -0.1846
  339SOL     MW 1356   1.502   1.062   1.822  0.4313  0.3110 -0.2574
  340SOL     OW 1357   1.335   1.515   0.034  0.4142 -0.5745  0.1292
  340SOL    HW1 1358   1.350   1.557  -0.049  0.2390 -0.5397  0.0036
  340SOL    HW2 1359   1.419   1.483   0.062 -1.5570  2.2335 -2.2583
  340SOL     MW 1360   1.348   1.516   0.026  0.1310 -0.1994 -0.2024
  341SOL     OW 1361   0.102   1.353   2.737  0.5566 -0.5053  0.0043
  341SOL    HW1 1362   0.197   1.330   2.740 -0.4235  0.0614  0.5299
  341SOL    HW2 1363   0.066   1.293   2.668 -1.0910  0.8518  0.9237
  341SOL     MW 1364   0.110   1.342   2.728  0.2099 -0.2515  0.1949
  342SOL     OW 1365   1.359   0.361   0.154  0.1366 -0.1268  0.3194
  342SOL    HW1 1366   1.401   0.444   0.178  2.5464  3.2806 -0.5592
  342SOL    HW2 1367   1.375   0.358   0.058  0.1093  1.3391 -0.4084
  342SOL     MW 1368   1.366   0.372   0.144  0.4510  0.5162  0.1074
  343SOL     OW 1369   0.286   0.303   2.195  0.4198  0.1626  0.7121
  343SOL    HW1 1370   0.294   0.277   2.283 -2.8698 -0.6419  0.1928
  343SOL    HW2 1371   0.208   0.268   2.153 -0.1638  0.3447  1.2756
  343SOL     MW 1372   0.277   0.295   2.201 -0.0913  0.0805  0.7179
  344SOL     OW 1373   1.657   2.055   0.192  0.3034 -0.5190  0.4981
  344SOL    HW1 1374   1.667   2.101   0.110 -2.1338  0.0785  0.2504
  344SOL    HW2 1375   1.572   2.010   0.199  3.0985  1.0639 -0.9282
  344SOL     MW 1376   1.647   2.055   0.182  0.3506 -0.2313  0.2773
  345SOL     OW 1377   0.707   1.554   2.387 -0.2785 -0.0971 -0.4865
  345SOL    HW1 1378   0.634   1.555   2.328  1.5186  1.9285  0.7613
  345SOL    HW2 1379   0.779   1.536   2.321  0.8464 -2.9015  1.4886
  345SOL     MW 1380   0.706   1.551   2.371  0.1070 -0.1998 -0.0613
  346SOL     OW 1381   1.750   1.159   0.036  0.1308  0.6106 -0.4560
  346SOL    HW1 1382   1.844   1.190   0.026  0.7356 -3.0119 -1.3238
  346SOL    HW2 1383   1.749   1.081   0.097 -0.9390 -0.6880 -2.2804
  346SOL     MW 1384   1.762   1.153   0.042  0.0695 -0.0387 -0.8112
  347SOL     OW 1385   1.143   0.699   2.299 -0.0976  0.9782 -0.6268
  347SOL    HW1 1386   1.204   0.629   2.286 -0.2608 -1.5284  2.2044
  347SOL    HW2 1387   1.148   0.718   2.387 -2.8036 -0.5906 -0.4693
  347SOL     MW 1388   1.151   0.692   2.309 -0.4762  0.4405 -0.2325
  348SOL     OW 1389   1.300   2.611   1.879  0.0952 -0.4474 -0.1127
  348SOL    HW1 1390   1.326   2.532   1.930  2.4554  0.4037  1.9404
  348SOL    HW2 1391   1.351   2.682   1.931  1.7055  0.2830 -0.3163
  348SOL     MW 1392   1.310   2.610   1.893  0.6191 -0.2388  0.1313
  349SOL     OW 1393   1.414   0.204   2.704 -0.3804 -0.6983  0.3530
  349SOL    HW1 1394   1.383   0.249   2.785 -0.5695  0.7090  1.9758
  349SOL    HW2 1395   1.474   0.134   2.741  1.5100 -1.2241 -0.4936
  349SOL     MW 1396   1.418   0.201   2.719 -0.1559 -0.5820  0.4554
  350SOL     OW 1397   1.815   0.630   2.665 -0.2750 -0.0549  0.0514
  350SOL    HW1 1398   1.793   0.562   2.594  0.2631 -0.1409 -2.3662
  350SOL    HW2 1399   1.848   0.572   2.743  2.3329  3.4207 -1.7884
  350SOL     MW 1400   1.816   0.613   2.666  0.1401  0.3923 -0.5103
  351SOL     OW 1401   0.074   1.163   1.608  0.1270  0.2015  0.3802
  351SOL    HW1 1402   0.032   1.122   1.685 -0.2498  2.8454 -2.6038
  351SOL    HW2 1403   0.136   1.241   1.629  0.6859  1.2648  0.2311
  351SOL     MW 1404   0.077   1.168   1.621  0.1510  0.6906 -0.0332
  352SOL     OW 1405   0.869   1.671   2.755 -0.1017  0.2956  0.2953
  352SOL    HW1 1406   0.879   1.641   2.852  0.4530  2.2913  1.6432
  352SOL    HW2 1407   0.801   1.615   2.717 -2.0795  1.5935  2.5845
  352SOL     MW 1408   0.862   1.660   2.763 -0.2894  0.7301  0.7752
  353SOL     OW 1409   0.041   2.517   2.741 -0.0079  0.3231  0.1636
  353SOL    HW1 1410   0.130   2.480   2.740  2.1449 -2.2210 -2.7976
  353SOL    HW2 1411   0.044   2.612   2.724  1.3851 -0.9412  0.2637
  353SOL     MW 1412   0.053   2.525   2.739  0.4599 -0.1794 -0.2139
  354SOL     OW 1413   0.299   2.454   0.804  0.0067 -0.6184  0.2841
  354SOL    HW1 1414   0.351   2.441   0.885  1.2719  1.9532  1.4824
  354SOL    HW2 1415   0.239   2.387   0.820  1.9790  2.2644  1.5679
  354SOL     MW 1416   0.298   2.444   0.817  0.4339  0.1013  0.6116
  355SOL     OW 1417   3.083   2.232   0.339 -0.1932 -0.1711 -0.7329
  355SOL    HW1 1418   3.015   2.160   0.343 -2.7273  0.8320  1.3292
  355SOL    HW2 1419   3.067   2.272   0.425 -1.4835 -2.8076 -1.1233
  355SOL     MW 1420   3.072   2.228   0.351 -0.6978 -0.3866 -0.5123
  356SOL     OW 1421   0.842   2.787   0.953  0.0326 -0.2904 -0.7605
  356SOL    HW1 1422   0.873   2.851   0.890  1.7853 -0.7206 -0.5928
  356SOL    HW2 1423   0.742   2.781   0.939 -2.2792  0.0826 -0.4481
  356SOL     MW 1424   0.833   2.795   0.942 -0.0412 -0.2979 -0.6972
  357SOL     OW 1425   1.780   2.869   0.408 -0.2452 -0.1503  0.3766
  357SOL    HW1 1426   1.791   2.804   0.478  1.0556 -2.2637 -0.4980
  357SOL    HW2 1427   1.848   2.848   0.343  1.9919  1.5561  0.9631
  357SOL     MW 1428   1.791   2.857   0.408  0.2216 -0.2040  0.3386
  358SOL     OW 1429   0.460   0.136   1.025 -0.0696 -0.3152 -0.1164
  358SOL    HW1 1430   0.547   0.124   0.996  0.1842  0.1561  1.4606
  358SOL    HW2 1431   0.397   0.136   0.951 -0.8977  1.6680  2.2291
  358SOL     MW 1432   0.463   0.134   1.012 -0.1454  0.0087  0.4012
  359SOL     OW 1433   0.807   2.874   1.880 -0.3981  0.6396 -0.0072
  359SOL    HW1 1434   0.805   2.780   1.888  0.6282  0.2720 -2.1608
  359SOL    HW2 1435   0.845   2.884   1.793  0.0533 -0.4245 -0.9850
  359SOL     MW 1436   0.812   2.863   1.869 -0.2032  0.4507 -0.4203
  360SOL     OW 1437   0.570   2.811   0.895 -0.0493  0.0523 -0.2232
  360SOL    HW1 1438   0.579   2.759   0.812  0.4692 -1.0556  0.7947
  360SOL    HW2 1439   0.534   2.743   0.956  0.5919  0.7766  0.0124
  360SOL     MW 1440   0.566   2.795   0.892  0.1037  0.0017 -0.0578
  361SOL     OW 1441   0.218   2.620   1.342  0.8567  0.2428  0.2535
  361SOL    HW1 1442   0.193   2.683   1.408  1.2413 -0.6304  0.4525
  361SOL    HW2 1443   0.308   2.641   1.312 -2.3124 -0.2232 -0.8049
  361SOL     MW 1444   0.227   2.631   1.347  0.4893  0.0661  0.1401
  362SOL     OW 1445   1.446   2.395   0.657  0.1789 -0.0832 -0.5132
  362SOL    HW1 1446   1.470   2.373   0.752 -0.5231  0.2425 -1.2185
  362SOL    HW2 1447   1.487   2.484   0.636 -1.9214 -0.8795 -0.7868
  362SOL     MW 1448   1.454   2.404   0.667 -0.1908 -0.1453 -0.6423
  363SOL     OW 1449   0.297   0.004   0.643 -0.4388 -0.1062  0.6132
  363SOL    HW1 1450   0.301  -0.049   0.717 -0.1657  0.6869  1.5226
  363SOL    HW2 1451   0.205  -0.002   0.606  0.1096  0.2494 -0.9848
  363SOL     MW 1452   0.285  -0.004   0.648 -0.3304  0.0454  0.5224
  364SOL     OW 1453   0.724   0.233   0.219  0.2040  0.3810 -0.1590
  364SOL    HW1 1454   0.659   0.172   0.257 -2.1130  0.2279 -0.5706
  364SOL    HW2 1455   0.679   0.289   0.154 -0.9623  1.5017  0.4142
  364SOL     MW 1456   0.709   0.232   0.216 -0.2556  0.5087 -0.1377
  365SOL     OW 1457   0.990   1.980   1.167  0.2093  0.2965 -0.1358
  365SOL    HW1 1458   0.956   2.060   1.119  1.9725  1.0549 -0.8060
  365SOL    HW2 1459   0.945   1.908   1.116  0.9742 -0.1440  0.3149
  365SOL     MW 1460   0.979   1.981   1.154  0.5429  0.3384 -0.1647
  366SOL     OW 1461   2.952   2.669   0.966  1.0220  0.2032 -0.5443
  366SOL    HW1 1462   3.010   2.688   1.037 -1.0644  1.7085 -1.0023
  366SOL    HW2 1463   3.003   2.682   0.887 -1.2561  0.1046  0.1650
  366SOL     MW 1464   2.966   2.673   0.965  0.4462  0.3888 -0.5111
  367SOL     OW 1465   1.251   2.916   0.860  0.0817 -0.4366  0.2631
  367SOL    HW1 1466   1.271   2.998   0.815 -0.8386  0.0433  0.8747
  367SOL    HW2 1467   1.211   2.856   0.799 -1.8560 -2.0853  0.4981
  367SOL     MW 1468   1.248   2.919   0.846 -0.2954 -0.5908  0.3748
  368SOL     OW 1469   1.667   0.344   0.744  0.4873 -0.3507  0.0665
  368SOL    HW1 1470   1.725   0.286   0.696 -0.4414 -1.9768  2.1522
  368SOL    HW2 1471   1.704   0.431   0.728 -0.9449  0.5549 -0.5090
  368SOL     MW 1472   1.680   0.348   0.736  0.1758 -0.4458  0.2657
  369SOL     OW 1473   0.135   2.407   1.782 -0.0904 -0.4432 -0.2331
  369SOL    HW1 1474   0.236   2.403   1.781  2.7430 -0.1127  0.9701
  369SOL    HW2 1475   0.106   2.500   1.798 -0.2595  1.0393 -0.4492
  369SOL     MW 1476   0.144   2.419   1.784  0.2611 -0.2040 -0.1029
  370SOL     OW 1477   0.753   0.160   0.904  0.0708 -0.2199 -0.2058
  370SOL    HW1 1478   0.774   0.247   0.941  2.3186  0.6426 -0.9829
  370SOL    HW2 1479   0.829   0.115   0.922 -3.2241 -0.0355 -0.4275
  370SOL     MW 1480   0.766   0.166   0.911 -0.0673 -0.0818 -0.3376
  371SOL     OW 1481   1.297   2.868   1.513 -0.4217  0.2246 -0.4681
  371SOL    HW1 1482   1.245   2.800   1.468 -2.3824  1.8547  2.9693
  371SOL    HW2 1483   1.333   2.930   1.446  0.0320  0.2714 -2.7761
  371SOL     MW 1484   1.295   2.867   1.498 -0.6206  0.4458 -0.3191
  372SOL     OW 1485   0.801   2.293   0.462 -0.0642  0.2736 -0.0725
  372SOL    HW1 1486   0.749   2.212   0.452  2.2307 -0.1944 -1.9864
  372SOL    HW2 1487   0.862   2.316   0.378  2.4479  4.5784  0.7447
  372SOL     MW 1488   0.802   2.285   0.450  0.5700  0.7798 -0.2172
  373SOL     OW 1489   2.821   3.028   1.459 -0.0139 -0.1232 -0.0172
  373SOL    HW1 1490   2.903   2.997   1.416 -1.6810 -0.4025  0.2811
  373SOL    HW2 1491   2.788   3.104   1.399 -0.1555  2.1914  2.9031
  373SOL     MW 1492   2.827   3.034   1.445 -0.2525  0.1453  0.4075
  374SOL     OW 1493   1.500   0.551   0.302  0.2730  0.1059 -0.0119
  374SOL    HW1 1494   1.579   0.503   0.291 -0.6131  1.6065  1.1701
  374SOL    HW2 1495   1.470   0.513   0.381  1.7576  0.1165 -0.1197
  374SOL     MW 1496   1.507   0.540   0.311  0.3520  0.3053  0.1299
  375SOL     OW 1497   0.985   2.103   2.249  0.4709  0.1429  0.6058
  375SOL    HW1 1498   1.050   2.075   2.313 -1.3983 -0.7006 -1.1542
  375SOL    HW2 1499   0.994   2.028   2.190 -1.4824  1.3675  2.1655
  375SOL     MW 1500   0.994   2.090   2.250 -0.0335  0.1931  0.5793
  376SOL     OW 1501   0.746   2.534   0.048 -0.6118 -0.8066  0.3082
  376SOL    HW1 1502   0.739   2.495   0.131 -1.4941  1.7787 -1.7982
  376SOL    HW2 1503   0.724   2.481  -0.031 -1.0691  2.5520 -1.8190
  376SOL     MW 1504   0.742   2.522   0.049 -0.7886 -0.0224 -0.2504
  377SOL     OW 1505   1.246   2.039   0.859 -0.6604  0.4800  0.1902
  377SOL    HW1 1506   1.150   2.026   0.836  1.7620 -0.7716  1.0926
  377SOL    HW2 1507   1.260   1.995   0.950  0.0800  2.3697  2.9578
  377SOL     MW 1508   1.235   2.032   0.868 -0.2431  0.5642  0.6744
  378SOL     OW 1509   0.911   2.844   1.595  0.1549  0.2242  0.4819
  378SOL    HW1 1510   0.904   2.749   1.585  0.7928 -0.7838  0.7178
  378SOL    HW2 1511   0.916   2.882   1.504  0.4655 -0.0110  0.1861
  378SOL     MW 1512   0.911   2.836   1.582  0.2800  0.0601  0.4740
  379SOL     OW 1513   1.117   1.700   2.199  0.4274 -0.0322 -0.8521
  379SOL    HW1 1514   1.044   1.639   2.204 -0.8143 -0.7559 -1.4735
  379SOL    HW2 1515   1.195   1.652   2.179 -0.3430 -1.5431  0.9405
  379SOL     MW 1516   1.118   1.685   2.197  0.1619 -0.3270 -0.6976
  380SOL     OW 1517   0.881   0.127   1.487  0.0661  0.2191 -0.4082
  380SOL    HW1 1518   0.871   0.029   1.471 -1.1609  0.2975  0.0036
  380SOL    HW2 1519   0.944   0.134   1.561  3.1237  0.7220  1.4522
  380SOL     MW 1520   0.888   0.115   1.495  0.3076  0.2958 -0.1084
  381SOL     OW 1521   0.727   2.054   0.843 -0.3955  0.5285  0.1784
  381SOL    HW1 1522   0.817   2.043   0.813  0.2811  1.5778  0.1741
  381SOL    HW2 1523   0.740   2.116   0.913 -0.9713 -1.5735 -2.7715
  381SOL     MW 1524   0.741   2.061   0.848 -0.3822  0.3896 -0.2114
  382SOL     OW 1525   0.706   0.124   0.647 -0.2068  0.6088  0.0763
  382SOL    HW1 1526   0.699   0.125   0.745  0.7753  0.6937  0.5767
  382SOL    HW2 1527   0.680   0.031   0.624  0.8915  1.9443 -0.6295
  382SOL     MW 1528   0.702   0.112   0.657  0.0677  0.7962  0.0492
  383SOL     OW 1529   0.561   0.020   0.283 -0.1380 -0.3995  0.2774
  383SOL    HW1 1530   0.603  -0.045   0.221 -1.7596 -0.6219 -2.9240
  383SOL    HW2 1531   0.536  -0.028   0.366  1.9217 -2.0735  0.2153
  383SOL     MW 1532   0.563   0.005   0.286 -0.0802 -0.6497 -0.1532
  384SOL     OW 1533   0.732   2.951   0.566  0.3770  0.2940 -0.4207
  384SOL    HW1 1534   0.807   2.945   0.629  3.5135  0.1659  0.5627
  384SOL    HW2 1535   0.682   2.867   0.591 -0.4213  0.2417  0.4899
  384SOL     MW 1536   0.735   2.939   0.577  0.6855  0.2702 -0.1708
  385SOL     OW 1537   1.404   2.057   1.522  0.0661 -0.1244  0.2671
  385SOL    HW1 1538   1.487   2.092   1.556  0.9999  0.5629 -1.5030
  385SOL    HW2 1539   1.358   2.002   1.594  0.0036  0.0090  1.8943
  385SOL     MW 1540   1.409   2.054   1.536  0.1811 -0.0161  0.2482
  386SOL     OW 1541   1.250   0.389   0.851  0.5530 -0.1279  0.0784
  386SOL    HW1 1542   1.191   0.449   0.904 -0.3558 -0.8715 -0.3481
  386SOL    HW2 1543   1.268   0.317   0.911 -2.9300  0.3675 -0.1351
  386SOL     MW 1544   1.245   0.388   0.866 -0.0265 -0.1607 -0.0060
  387SOL     OW 1545   0.819   2.224   1.525  0.2994 -0.0009 -0.4649
  387SOL    HW1 1546   0.887   2.282   1.482 -1.4839 -2.2967 -0.3513
  387SOL    HW2 1547   0.847   2.137   1.488 -1.2516  0.1418 -3.5104
  387SOL     MW 1548   0.832   2.220   1.515 -0.1405 -0.2850 -0.8518
  388SOL     OW 1549   1.485   2.804   1.266  0.2062 -0.3418  0.0182
  388SOL    HW1 1550   1.396   2.821   1.251  1.8679  0.8241 -3.5812
  388SOL    HW2 1551   1.497   2.728   1.212 -3.0554  0.9171  1.0540
  388SOL     MW 1552   1.474   2.796   1.257 -0.0049 -0.0219 -0.3201
  389SOL     OW 1553   0.478   0.173   3.025  0.7756  0.4698  0.0372
  389SOL    HW1 1554   0.543   0.109   3.002 -0.4854 -2.5010  1.3878
  389SOL    HW2 1555   0.473   0.233   2.955 -1.6190  2.1595 -0.1664
  389SOL     MW 1556   0.486   0.173   3.012  0.2932  0.3008  0.1886
  390SOL     OW 1557   1.339   0.040   0.733 -0.4573 -0.0735 -0.3090
  390SOL    HW1 1558   1.397   0.049   0.660  0.6468  0.6715 -1.0409
  390SOL    HW2 1559   1.377   0.086   0.809  2.5425 -0.1187 -2.5474
  390SOL     MW 1560   1.351   0.047   0.734  0.0842  0.0188 -0.7009
  391SOL     OW 1561   0.370   2.194   1.454  0.2133 -0.6767 -0.0071
  391SOL    HW1 1562   0.319   2.113   1.450 -0.2533  0.5172  1.5082
  391SOL    HW2 1563   0.311   2.268   1.477 -0.7371 -0.2240  1.5613
  391SOL     MW 1564   0.356   2.193   1.456  0.0263 -0.4594  0.3998
  392SOL     OW 1565   2.067   2.216   0.297  0.6373 -0.1043  0.0191
  392SOL    HW1 1566   2.152   2.202   0.339  2.0125  1.9919  2.0313
  392SOL    HW2 1567   2.007   2.261   0.363 -1.4748 -0.0059  0.6346
  392SOL     MW 1568   2.070   2.220   0.312  0.5401  0.1853  0.3658
  393SOL     OW 1569   0.282   2.918   2.772 -0.2835  0.0472  0.1159
  393SOL    HW1 1570   0.359   2.898   2.723 -1.0361 -0.7312  1.2061
  393SOL    HW2 1571   0.280   3.015   2.777  2.4024 -1.1943 -2.8072
  393SOL     MW 1572   0.292   2.929   2.766 -0.0284 -0.2193 -0.1259
  394SOL     OW 1573   0.922   1.741   1.531  0.4603 -0.1087  0.3207
  394SOL    HW1 1574   0.874   1.741   1.617 -0.1602  3.3294 -1.7118
  394SOL    HW2 1575   0.914   1.834   1.504  2.2914 -1.0346 -1.0024
  394SOL     MW 1576   0.914   1.753   1.539  0.6200  0.2228 -0.1221
  395SOL     OW 1577   0.944   2.948   2.574 -0.2339  0.5732 -0.3868
  395SOL    HW1 1578   0.996   3.000   2.635  0.0668  1.6641 -1.6952
  395SOL    HW2 1579   1.003   2.878   2.550  0.0363 -1.1694 -0.4646
  395SOL     MW 1580   0.959   2.946   2.579 -0.1586  0.4872 -0.5697
  396SOL     OW 1581   0.687   1.850   2.407  0.3893 -0.3184  0.4666
  396SOL    HW1 1582   0.769   1.857   2.460 -0.7836 -0.9641 -0.3973
  396SOL    HW2 1583   0.673   1.759   2.391 -2.8527 -1.5001 -0.1071
  396SOL     MW 1584   0.696   1.839   2.412 -0.1932 -0.5595  0.2769
  397SOL     OW 1585   1.041   2.362   1.430 -0.1446 -0.4000  0.4930
  397SOL    HW1 1586   1.069   2.393   1.341 -1.6664  0.5084 -1.3639
  397SOL    HW2 1587   1.115   2.322   1.477  0.6929 -0.5847  1.3611
  397SOL     MW 1588   1.055   2.360   1.425 -0.2349 -0.3045  0.3625
  398SOL     OW 1589   0.616   2.693   0.641  0.2519 -0.1733 -0.5368
  398SOL    HW1 1590   0.546   2.675   0.584  2.9589 -1.7180  0.9173
  398SOL    HW2 1591   0.665   2.613   0.653 -0.0816 -1.0678 -2.2918
  398SOL     MW 1592   0.613   2.680   0.635  0.5651 -0.4952 -0.5765
  399SOL     OW 1593   0.219   2.113   0.301 -0.0106  0.1851  0.5066
  399SOL    HW1 1594   0.130   2.143   0.323  1.6764 -1.8757  1.3666
  399SOL    HW2 1595   0.245   2.140   0.217  1.8178  1.3937  1.6438
  399SOL     MW 1596   0.211   2.120   0.293  0.4533  0.0727  0.7701
  400SOL     OW 1597   0.563   1.963   0.045 -0.0278  0.0889 -0.7090
  400SOL    HW1 1598   0.484   2.009   0.039  2.3305 -0.2867 -1.7859
  400SOL    HW2 1599   0.547   1.899   0.111  1.3194  3.4703  0.8707
  400SOL     MW 1600   0.550   1.961   0.053  0.4611  0.4855 -0.6427
  401SOL     OW 1601   0.801   2.080   0.087  0.2890  0.3626  0.2481
  401SOL    HW1 1602   0.843   1.999   0.116  2.2642  3.1285  0.7943
  401SOL    HW2 1603   0.708   2.054   0.082 -0.8656  1.8590 -1.1448
  401SOL     MW 1604   0.794   2.066   0.090  0.3973  0.9250  0.1364
  402SOL     OW 1605   0.566   2.987   1.750  0.2306  0.4860 -0.3469
  402SOL    HW1 1606   0.638   2.939   1.801  0.1543 -1.0011  2.6667
  402SOL    HW2 1607   0.602   3.072   1.731  1.1695 -1.0274  1.2901
  402SOL     MW 1608   0.580   2.992   1.754  0.3444  0.0901  0.2667
  403SOL     OW 1609   0.101   0.407   0.400 -0.1592 -0.2549  0.7051
  403SOL    HW1 1610   0.179   0.455   0.427  0.1277 -1.1469 -1.1505
  403SOL    HW2 1611   0.115   0.388   0.304  2.6174 -2.0416 -0.0963
  403SOL     MW 1612   0.113   0.411   0.391  0.2450 -0.6083  0.3546
  404SOL     OW 1613   0.943   2.940   0.733 -0.3243  0.2286  0.2139
  404SOL    HW1 1614   1.011   2.876   0.706 -0.5253 -0.0719  3.2777
  404SOL    HW2 1615   0.985   3.031   0.727  0.9334  1.2513  2.2434
  404SOL     MW 1616   0.957   2.944   0.729 -0.1849  0.3239  0.8859
  405SOL     OW 1617   0.525   2.400   1.528 -0.6095  0.3009  0.3941
  405SOL    HW1 1618   0.547   2.455   1.455 -0.7040  0.6061  1.6302
  405SOL    HW2 1619   0.503   2.320   1.480  2.0196 -0.3791 -2.8743
  405SOL     MW 1620   0.525   2.397   1.512 -0.2751  0.2515  0.1259
  406SOL     OW 1621   0.341   2.409   1.084 -0.3656  0.1769 -0.2426
  406SOL    HW1 1622   0.251   2.437   1.108  0.3602  0.1970 -0.3878
  406SOL    HW2 1623   0.364   2.333   1.138  0.1835 -0.5440  0.2488
  406SOL     MW 1624   0.332   2.403   1.094 -0.1974  0.0844 -0.1969
  407SOL     OW 1625   0.036   2.698   1.154 -0.5005 -0.1096 -0.4555
  407SOL    HW1 1626   0.084   2.666   1.235  0.7993  0.2070  2.9186
  407SOL    HW2 1627   0.105   2.704   1.088  0.2745 -1.0242  2.8250
  407SOL     MW 1628   0.051   2.694   1.156 -0.2267 -0.1885  0.4225
  408SOL     OW 1629   2.138   2.123   0.601  0.3423 -0.2494  0.5692
  408SOL    HW1 1630   2.120   2.166   0.687 -3.8623 -1.1232 -0.1815
  408SOL    HW2 1631   2.065   2.058   0.606 -0.1106 -0.6284  0.5491
  408SOL     MW 1632   2.126   2.120   0.613 -0.2722 -0.4147  0.4675
  409SOL     OW 1633   1.451   0.148   0.967  0.0875 -0.1490  0.3835
  409SOL    HW1 1634   1.533   0.193   0.998 -0.0052  1.2935  1.0087
  409SOL    HW2 1635   1.451   0.063   1.014 -2.9105  0.9105  0.8637
  409SOL     MW 1636   1.462   0.142   0.977 -0.3203  0.1811  0.5294
  410SOL     OW 1637   1.097   2.419   1.156 -0.3197 -0.2584  0.2652
  410SOL    HW1 1638   1.044   2.445   1.087  1.4477  1.3333 -0.3958
  410SOL    HW2 1639   1.163   2.375   1.106  0.0916  0.8637 -0.1147
  410SOL     MW 1640   1.099   2.417   1.140 -0.0322  0.0996  0.1279
  411SOL     OW 1641   1.922   0.017   2.890  0.1317  0.1641  0.3131
  411SOL    HW1 1642   1.859  -0.037   2.842  1.0159 -0.1461 -0.8076
  411SOL    HW2 1643   1.867   0.060   2.957 -1.3593 -0.5090 -0.0659
  411SOL     MW 1644   1.907   0.016   2.893  0.0517  0.0344  0.1152
  412SOL     OW 1645   1.063   2.237   0.598 -0.6167 -0.0779  0.9187
  412SOL    HW1 1646   1.101   2.316   0.649 -1.5373  1.2030 -1.2742
  412SOL    HW2 1647   0.983   2.261   0.560  2.1781 -1.1619  0.5096
  412SOL     MW 1648   1.057   2.250   0.600 -0.3695 -0.0519  0.5754
  413SOL     OW 1649   0.545   2.722   0.024  0.4694 -0.2106  0.7084
  413SOL    HW1 1650   0.617   2.657   0.012 -1.8058  3.4045  2.5510
  413SOL    HW2 1651   0.567   2.781  -0.042 -0.0470 -2.4985  1.2076
  413SOL     MW 1652   0.557   2.721   0.014  0.1011 -0.0355  1.0174
  414SOL     OW 1653   2.004   3.016   1.159  0.8132 -0.3302  0.1440
  414SOL    HW1 1654   1.936   3.087   1.170  0.4453  4.2157  1.3236
  414SOL    HW2 1655   2.020   3.027   1.065  0.2055  0.9250  0.1125
  414SOL     MW 1656   1.997   3.027   1.148  0.6845  0.4352  0.2955
  415SOL     OW 1657   1.788   2.769   1.089 -0.3254  0.6040 -0.3248
  415SOL    HW1 1658   1.775   2.761   1.183 -0.9222  1.5478  0.9246
  415SOL    HW2 1659   1.812   2.858   1.079 -0.0206 -0.1316 -0.4897
  415SOL     MW 1660   1.789   2.780   1.100 -0.3639  0.6315 -0.1817
  416SOL     OW 1661   0.574   1.962   1.345  0.8764 -0.7609  0.1720
  416SOL    HW1 1662   0.549   2.002   1.260 -0.2345 -1.4949  1.5602
  416SOL    HW2 1663   0.547   1.870   1.349  1.8827  2.2885  3.6254
  416SOL     MW 1664   0.567   1.955   1.335  0.8626 -0.4554  0.8108
  417SOL     OW 1665   1.003   2.993   2.053  0.0499 -0.3343  0.0895
  417SOL    HW1 1666   0.943   2.981   2.120  0.2443  2.3811 -1.7936
  417SOL    HW2 1667   0.959   2.976   1.970  0.5724 -0.9173 -0.6744
  417SOL     MW 1668   0.989   2.989   2.051  0.1445 -0.0529 -0.2597
  418SOL     OW 1669   0.687   2.916   0.159  0.2437 -0.2770  0.2786
  418SOL    HW1 1670   0.770   2.901   0.110  0.1746  0.1089 -2.3847
  418SOL    HW2 1671   0.635   2.836   0.140 -0.8327  1.3591  0.0610
  418SOL     MW 1672   0.691   2.904   0.150  0.0926 -0.0102 -0.1015
  419SOL     OW 1673   0.507   2.632   1.311  0.1930 -0.0126  0.1773
  419SOL    HW1 1674   0.540   2.717   1.350 -0.4227  2.2457  2.0789
  419SOL    HW2 1675   0.577   2.619   1.246 -0.8542 -1.9771 -1.3143
  419SOL     MW 1676   0.520   2.642   1.307 -0.0264  0.0262  0.2314
  420SOL     OW 1677   0.796   2.216   1.054 -0.3900 -0.4620  0.2666
  420SOL    HW1 1678   0.757   2.236   1.140  2.6930  4.0563  0.6053
  420SOL    HW2 1679   0.818   2.308   1.027  1.1298  1.4232 -2.4447
  420SOL     MW 1680   0.794   2.231   1.062  0.2173  0.3829 -0.0465
  421SOL     OW 1681   2.974   0.204   3.080 -0.5204  0.0692  0.6879
  421SOL    HW1 1682   2.918   0.216   3.008  2.7703  1.9298  0.5866
  421SOL    HW2 1683   2.993   0.110   3.083 -0.6423  1.2078  0.0137
  421SOL     MW 1684   2.969   0.193   3.071 -0.1023  0.4649  0.5856
  422SOL     OW 1685   0.853   2.468   0.965 -0.5717  0.2195  0.0724
  422SOL    HW1 1686   0.875   2.560   0.969 -0.5519 -2.6750  1.1455
  422SOL    HW2 1687   0.865   2.450   0.873  1.1109 -1.5696 -0.4495
  422SOL     MW 1688   0.858   2.478   0.954 -0.3471 -0.3985  0.1451
  423SOL     OW 1689   1.478   0.071   0.492  0.2188  0.5460 -0.0436
  423SOL    HW1 1690   1.450   0.063   0.401  0.0338  0.2360  1.3455
  423SOL    HW2 1691   1.490   0.164   0.504  0.6479 -3.1589  1.7380
  423SOL     MW 1692   1.476   0.082   0.481  0.2510  0.0163  0.3748
  424SOL     OW 1693   0.665   2.278   1.290  0.1156 -0.4337  0.5379
  424SOL    HW1 1694   0.589   2.229   1.280  0.5297  0.9299  1.5354
  424SOL    HW2 1695   0.706   2.257   1.376  0.4961  1.1661  0.2229
  424SOL     MW 1696   0.661   2.269   1.300  0.2205 -0.0427  0.6279
  425SOL     OW 1697   1.717   2.753   2.073  0.4401 -0.3282 -0.1163
  425SOL    HW1 1698   1.727   2.762   1.974 -0.1715 -1.6427  0.8302
  425SOL    HW2 1699   1.737   2.654   2.091  0.0701 -2.1748 -0.5219
  425SOL     MW 1700   1.721   2.741   2.062  0.3106 -0.7452 -0.0449
  426SOL     OW 1701   0.851   1.691   1.944 -0.5618  0.1030 -0.1519
  426SOL    HW1 1702   0.795   1.710   1.864  2.0630 -0.6489  1.6691
  426SOL    HW2 1703   0.825   1.759   2.015  0.4076 -1.8767  2.0025
  426SOL     MW 1704   0.841   1.703   1.943 -0.0876 -0.2575  0.3726
  427SOL     OW 1705   0.370   1.715   1.863  0.1365  0.2376 -0.2308
  427SOL    HW1 1706   0.428   1.681   1.800  0.3520  0.7309  0.6975
  427SOL    HW2 1707   0.328   1.641   1.908  0.3943 -1.6420  1.4982
  427SOL     MW 1708   0.372   1.701   1.860  0.1990  0.0547  0.1198
  428SOL     OW 1709   0.548   2.566   1.025  0.4409  0.3942  0.2508
  428SOL    HW1 1710   0.609   2.511   0.970  1.5190  0.3994  0.4974
  428SOL    HW2 1711   0.486   2.496   1.063 -0.1035 -1.9777  0.3250
  428SOL     MW 1712   0.548   2.550   1.023  0.5113  0.0819  0.2932
  429SOL     OW 1713   1.236   2.824   1.134 -0.1183  0.1858 -0.2813
  429SOL    HW1 1714   1.141   2.820   1.153 -1.4785  0.0994 -1.9186
  429SOL    HW2 1715   1.251   2.867   1.050  0.3962  0.2547  0.1241
  429SOL     MW 1716   1.225   2.829   1.125 -0.2299  0.1834 -0.4438
  430SOL     OW 1717   1.147   2.717   0.680 -0.0325 -0.3357 -0.3600
  430SOL    HW1 1718   1.181   2.631   0.712 -0.4994 -1.5173 -1.1878
  430SOL    HW2 1719   1.091   2.706   0.595 -0.7871  2.8268 -3.5994
  430SOL     MW 1720   1.144   2.704   0.673 -0.1937 -0.0744 -0.8966
  431SOL     OW 1721   0.310   1.964   1.050  0.0937 -0.1939  0.2325
  431SOL    HW1 1722   0.401   1.935   1.023 -0.8076  0.2017 -2.8245
  431SOL    HW2 1723   0.275   2.001   0.968  0.4416 -1.0024  1.9626
  431SOL     MW 1724   0.318   1.965   1.035  0.0207 -0.2484  0.0574
  432SOL     OW 1725   0.097   0.045   1.171 -0.1963 -0.2741 -0.6187
  432SOL    HW1 1726   0.063   0.101   1.239  2.4181 -0.8991  1.1340
  432SOL    HW2 1727   0.042  -0.032   1.178  2.1805 -0.1721 -3.1235
  432SOL     MW 1728   0.085   0.042   1.181  0.4623 -0.3431 -0.7179
  433SOL     OW 1729   0.616   2.847   1.473  0.0171  0.1073 -0.2642
  433SOL    HW1 1730   0.577   2.885   1.554  0.6841  3.0464  1.4474
  433SOL    HW2 1731   0.687   2.799   1.503  1.2258  2.6590  0.2447
  433SOL     MW 1732   0.620   2.846   1.488  0.2646  0.8317  0.0288
  434SOL     OW 1733   1.574   2.766   1.558  0.1403  0.4936  0.9100
  434SOL    HW1 1734   1.489   2.807   1.542  0.4431 -0.3118  0.7905
  434SOL    HW2 1735   1.597   2.736   1.471 -1.7922 -1.1810  1.3861
  434SOL     MW 1736   1.566   2.768   1.545 -0.0747  0.1664  0.9571
  435SOL     OW 1737   2.793   1.790   0.186 -0.7486 -0.5576 -0.5623
  435SOL    HW1 1738   2.861   1.857   0.162  0.0901 -1.4164  0.5920
  435SOL    HW2 1739   2.759   1.776   0.103 -1.4037  1.2181  3.6753
  435SOL     MW 1740   2.797   1.797   0.172 -0.7244 -0.4366  0.1491
  436SOL     OW 1741   1.405   2.663   0.420  0.6217  0.6899 -0.0464
  436SOL    HW1 1742   1.466   2.660   0.498  0.4251 -1.2067 -0.6264
  436SOL    HW2 1743   1.390   2.756   0.408  0.8482 -3.2649 -1.3345
  436SOL     MW 1744   1.411   2.675   0.429  0.6256 -0.0821 -0.2928
  437SOL     OW 1745   0.903   2.992   1.345  0.3219 -0.1740  0.5508
  437SOL    HW1 1746   0.954   3.065   1.312 -0.2520 -1.4984 -1.6134
  437SOL    HW2 1747   0.925   2.909   1.306 -1.2486  0.4585  1.4194
  437SOL     MW 1748   0.912   2.991   1.336  0.0390 -0.2653  0.3798
  438SOL     OW 1749   0.803   2.602   1.907 -0.1272  0.2935 -0.1493
  438SOL    HW1 1750   0.831   2.565   1.995 -0.1218 -0.7815 -0.2070
  438SOL    HW2 1751   0.765   2.525   1.868  1.6329  0.8292  1.3348
  438SOL     MW 1752   0.802   2.587   1.914  0.1057  0.2224  0.0389
  439SOL     OW 1753   1.217   2.103   0.387 -0.1088 -0.6427 -0.2187
  439SOL    HW1 1754   1.171   2.127   0.470 -1.3332  1.2338 -3.2256
  439SOL    HW2 1755   1.197   2.179   0.329 -0.8096  0.3084 -0.9504
  439SOL     MW 1756   1.209   2.116   0.391 -0.3628 -0.2696 -0.7120
  440SOL     OW 1757   1.714   2.980   3.061 -0.6256 -0.3236  0.3719
  440SOL    HW1 1758   1.680   2.953   3.149 -1.7134 -0.3365 -0.1305
  440SOL    HW2 1759   1.806   2.953   3.057  0.2754 -1.7488 -0.6017
  440SOL     MW 1760   1.722   2.973   3.072 -0.6503 -0.5133  0.1771
  441SOL     OW 1761   0.378   2.698   0.491  0.0862  0.3320 -0.1739
  441SOL    HW1 1762   0.356   2.648   0.408  1.0796  0.7551 -2.2647
  441SOL    HW2 1763   0.381   2.792   0.475 -1.0859 -0.9126  2.2728
  441SOL     MW 1764   0.376   2.704   0.478  0.0626  0.2236 -0.1270
  442SOL     OW 1765   3.052   2.355   0.588 -0.0273  0.2184  0.5149
  442SOL    HW1 1766   3.060   2.449   0.567  0.1220 -4.0179 -0.5045
  442SOL    HW2 1767   2.966   2.332   0.628 -1.6282  0.2807 -1.0033
  442SOL     MW 1768   3.042   2.364   0.591 -0.2188 -0.3323  0.1801
  443SOL     OW 1769   1.482   1.766   1.957  0.3025 -0.0295  0.3338
  443SOL    HW1 1770   1.404   1.718   1.931  0.0917 -1.5669  1.0897
  443SOL    HW2 1771   1.523   1.745   2.042 -0.8847  2.9895 -0.1605
  443SOL     MW 1772   1.477   1.757   1.965  0.1181  0.1660  0.3684
  444SOL     OW 1773   0.878   2.574   1.570 -0.3539  0.1890 -0.5276
  444SOL    HW1 1774   0.952   2.514   1.565 -0.0442 -2.8930  2.6641
  444SOL    HW2 1775   0.832   2.544   1.648  0.3010  0.4229  0.6199
  444SOL     MW 1776   0.882   2.562   1.579 -0.2266 -0.1868  0.0449
  445SOL     OW 1777   1.124   0.092   1.339  0.3053  0.7841  0.6122
  445SOL    HW1 1778   1.069   0.131   1.402  0.3408 -0.1174 -0.3842
  445SOL    HW2 1779   1.131   0.170   1.282 -2.1661  0.6827 -2.9489
  445SOL     MW 1780   1.118   0.108   1.340 -0.0161  0.6518  0.0109
  446SOL     OW 1781   2.776   2.859   1.065  0.0671 -0.3481 -0.5013
  446SOL    HW1 1782   2.724   2.904   1.000  2.2041  0.6421 -2.3674
  446SOL    HW2 1783   2.827   2.793   1.015  0.9367  0.1373 -1.0684
  446SOL     MW 1784   2.776   2.857   1.050  0.4638 -0.1534 -0.8224
  447SOL     OW 1785   0.051   1.993   1.647  0.2763  0.0228 -0.1421
  447SOL    HW1 1786   0.067   1.909   1.696 -1.3963  0.6363  2.3378
  447SOL    HW2 1787  -0.016   1.962   1.578  0.2678 -0.0886 -0.8337
  447SOL     MW 1788   0.044   1.978   1.644  0.0545  0.0891  0.0939
  448SOL     OW 1789   1.747   2.419   1.666 -0.2127 -0.0071 -0.1732
  448SOL    HW1 1790   1.726   2.324   1.670  2.5102  0.3452 -0.2979
  448SOL    HW2 1791   1.660   2.457   1.676 -2.1019  2.5382 -1.3811
  448SOL     MW 1792   1.733   2.411   1.668 -0.1027  0.3752 -0.3490
  449SOL     OW 1793   0.887   2.863   0.350 -0.2021 -0.7799  0.6333
  449SOL    HW1 1794   0.820   2.872   0.279  0.1432 -0.1937 -0.1308
  449SOL    HW2 1795   0.830   2.899   0.416  2.9373 -0.3603 -0.7745
  449SOL     MW 1796   0.871   2.869   0.349  0.2577 -0.6472  0.3468
  450SOL     OW 1797   1.174   2.446   0.712  0.1801  0.1172  0.4996
  450SOL    HW1 1798   1.180   2.412   0.803  0.2519  2.0268  1.1811
  450SOL    HW2 1799   1.260   2.423   0.674  3.5985  0.6124  0.2949
  450SOL     MW 1800   1.186   2.438   0.719  0.6406  0.4345  0.5625
  451SOL     OW 1801   0.572   1.992   1.661  0.0602 -0.1005  0.4522
  451SOL    HW1 1802   0.633   2.060   1.635 -0.4536  1.4070  0.3985
  451SOL    HW2 1803   0.518   1.976   1.585  1.2204 -0.8214 -3.0392
  451SOL     MW 1804   0.573   1.999   1.648  0.1455  0.0033 -0.0156
  452SOL     OW 1805   0.276   2.664   0.053  0.2269 -0.2571  0.2848
  452SOL    HW1 1806   0.365   2.695   0.057  1.2432 -0.0586 -1.6913
  452SOL    HW2 1807   0.221   2.734   0.009 -1.1235  2.2538  1.8924
  452SOL     MW 1808   0.281   2.677   0.048  0.1828  0.1004  0.2362
  453SOL     OW 1809   0.330   3.013   1.617 -0.2351  0.4746  0.0688
  453SOL    HW1 1810   0.391   2.990   1.687 -2.2999  0.8783 -0.9380
  453SOL    HW2 1811   0.383   3.041   1.535 -0.6308  1.0443  0.1472
  453SOL     MW 1812   0.345   3.013   1.615 -0.5597  0.6030 -0.0537
  454SOL     OW 1813   0.976   2.751   1.202 -0.6379 -1.1727  0.1633
  454SOL    HW1 1814   0.926   2.671   1.204  1.5000 -0.8009 -3.5724
  454SOL    HW2 1815   0.948   2.801   1.128 -0.8497 -2.1069 -1.9496
  454SOL     MW 1816   0.965   2.747   1.193 -0.3838 -1.2469 -0.6083
  455SOL     OW 1817   1.601   2.847   0.197  0.1957 -0.2953  0.8379
  455SOL    HW1 1818   1.642   2.854   0.284 -0.9093 -0.4204  0.0160
  455SOL    HW2 1819   1.583   2.752   0.203 -0.1984 -0.9294  0.6663
  455SOL     MW 1820   1.604   2.835   0.209 -0.0021 -0.3955  0.7068
  456SOL     OW 1821   2.734   0.307   1.540 -0.0787 -0.3075  0.3386
  456SOL    HW1 1822   2.711   0.247   1.469  1.6173 -1.3435 -1.5213
  456SOL    HW2 1823   2.807   0.357   1.491  2.8953  0.2149 -0.3544
  456SOL     MW 1824   2.741   0.306   1.524  0.5374 -0.3752  0.0018
  457SOL     OW 1825   0.885   1.591   3.055 -0.7266 -0.2445  0.0008
  457SOL    HW1 1826   0.795   1.573   3.082 -0.5006 -0.2129 -1.6997
  457SOL    HW2 1827   0.931   1.576   3.140 -0.5880 -1.2510  0.6257
  457SOL     MW 1828   0.879   1.587   3.070 -0.6785 -0.3732 -0.1411
  458SOL     OW 1829   1.395   1.447   0.586  0.0057 -0.3971  0.3433
  458SOL    HW1 1830   1.322   1.504   0.579  0.3850  0.2164 -0.2026
  458SOL    HW2 1831   1.389   1.386   0.514  1.1374 -0.7239  1.4823
  458SOL     MW 1832   1.385   1.446   0.576  0.2051 -0.3593  0.4216
  459SOL     OW 1833   1.513   0.029   0.216  0.5451 -0.0516 -0.3163
  459SOL    HW1 1834   1.497  -0.061   0.244  1.3813  0.7877 -0.4136
  459SOL    HW2 1835   1.434   0.057   0.169 -0.5149  1.0940 -1.1842
  459SOL     MW 1836   1.501   0.021   0.214  0.5156  0.2103 -0.4437
  460SOL     OW 1837   1.777   2.153   0.634 -0.4598  0.0420  0.3976
  460SOL    HW1 1838   1.696   2.108   0.660  1.1467 -1.1699 -0.5921
  460SOL    HW2 1839   1.835   2.079   0.622 -0.7074 -0.7755  0.3377
  460SOL     MW 1840   1.774   2.137   0.636 -0.2805 -0.2258  0.2591
  461SOL     OW 1841   0.428   2.395   0.561  0.5071  0.0054 -0.2056
  461SOL    HW1 1842   0.401   2.475   0.510  1.2289  0.3931  2.4536
  461SOL    HW2 1843   0.393   2.423   0.650  1.2158 -2.3879  2.5223
  461SOL     MW 1844   0.420   2.409   0.566  0.6958 -0.2592  0.5052
  462SOL     OW 1845   0.325   0.260   1.248  0.1268  0.0864 -0.3135
  462SOL    HW1 1846   0.375   0.220   1.175  2.4645  1.3872 -2.5902
  462SOL    HW2 1847   0.401   0.290   1.306  0.1940  0.6841  0.0633
  462SOL     MW 1848   0.342   0.259   1.246  0.4441  0.3369 -0.5641
  463SOL     OW 1849   0.980   0.095   0.682  0.1964 -0.3777 -0.0966
  463SOL    HW1 1850   1.030   0.119   0.601  0.6758 -0.4835  0.2377
  463SOL    HW2 1851   0.881   0.124   0.670 -0.5217  0.6078 -0.3349
  463SOL     MW 1852   0.973   0.102   0.670  0.1649 -0.2616 -0.0839
  464SOL     OW 1853   0.770   3.038   2.229  0.0310 -0.3549 -0.3338
  464SOL    HW1 1854   0.751   2.944   2.224 -2.2845  0.2246 -4.0958
  464SOL    HW2 1855   0.785   3.063   2.318  0.7003 -0.9605 -1.3630
  464SOL     MW 1856   0.769   3.029   2.240 -0.1862 -0.3584 -0.9660
  465SOL     OW 1857   0.842   0.272   0.463 -0.1967 -0.4332 -0.6149
  465SOL    HW1 1858   0.775   0.229   0.523  1.2080  0.0218 -0.2291
  465SOL    HW2 1859   0.801   0.252   0.376 -0.9064  1.9893 -2.0668
  465SOL     MW 1860   0.827   0.263   0.460 -0.1050 -0.0535 -0.7555
  466SOL     OW 1861   0.995   2.018   0.766  0.1247  0.1608  0.7633
  466SOL    HW1 1862   1.020   1.938   0.724 -0.5594  0.4258  1.6079
  466SOL    HW2 1863   1.024   2.092   0.706  1.4218 -0.3619  2.2528
  466SOL     MW 1864   1.002   2.017   0.753  0.2055  0.1268  1.0713
  467SOL     OW 1865   1.246   2.288   0.956  0.0949  0.1906  0.0225
  467SOL    HW1 1866   1.337   2.309   0.933  0.2741  2.0588 -0.9198
  467SOL    HW2 1867   1.226   2.201   0.907  1.7701 -1.5740  1.0653
  467SOL     MW 1868   1.255   2.279   0.947  0.3396  0.2043  0.0357
  468SOL     OW 1869   0.440   2.648   1.961  0.4225  0.3448 -0.7768
  468SOL    HW1 1870   0.426   2.570   1.904  4.7571 -1.3955 -1.6577
  468SOL    HW2 1871   0.399   2.724   1.915 -1.0604 -0.0193  0.2631
  468SOL     MW 1872   0.433   2.647   1.948  0.7987  0.0671 -0.7559
  469SOL     OW 1873   0.374   2.124   1.851  0.1027 -0.1045 -0.5005
  469SOL    HW1 1874   0.307   2.057   1.878 -0.1606  0.0188  0.3017
  469SOL    HW2 1875   0.442   2.071   1.816  1.4566 -2.9654  0.6436
  469SOL     MW 1876   0.374   2.108   1.850  0.2466 -0.4657 -0.2437
  470SOL     OW 1877   3.029   2.598   0.160  0.2938  0.1497  0.6538
  470SOL    HW1 1878   2.945   2.568   0.208  0.0056  0.5014  0.0471
  470SOL    HW2 1879   3.003   2.610   0.069 -0.4178 -0.4631  0.9134
  470SOL     MW 1880   3.015   2.595   0.155  0.1619  0.1153  0.6080
  471SOL     OW 1881   1.168   2.647   1.423  0.0905 -0.0105 -0.3065
  471SOL    HW1 1882   1.127   2.620   1.506 -4.5605  0.3813 -1.1612
  471SOL    HW2 1883   1.094   2.663   1.368 -0.4668 -2.6928 -0.2883
  471SOL     MW 1884   1.153   2.645   1.427 -0.5967 -0.3127 -0.4169
  472SOL     OW 1885   2.832   2.100   0.342  0.3915 -0.3441 -0.1917
  472SOL    HW1 1886   2.856   2.059   0.259 -0.6556  0.7489  0.9588
  472SOL    HW2 1887   2.799   2.022   0.397  0.8192 -1.1179  4.3729
  472SOL     MW 1888   2.831   2.084   0.338  0.3097 -0.3020  0.5624
  473SOL     OW 1889   0.806   2.554   1.308  0.0054  0.8632  0.5933
  473SOL    HW1 1890   0.776   2.463   1.306 -3.2976  0.3769  0.5105
  473SOL    HW2 1891   0.854   2.557   1.391 -0.1349 -0.0247 -0.5296
  473SOL     MW 1892   0.808   2.543   1.319 -0.4489  0.6819  0.4342
  474SOL     OW 1893   0.839   2.111   1.803 -0.2759  0.9492 -0.2463
  474SOL    HW1 1894   0.914   2.151   1.856  1.3499  1.3988 -1.8158
  474SOL    HW2 1895   0.864   2.127   1.711  0.8258  2.1612  0.1697
  474SOL     MW 1896   0.852   2.118   1.798  0.0839  1.1684 -0.3985
  475SOL     OW 1897   1.615   3.070   1.468 -0.3002 -0.2188  0.3469
  475SOL    HW1 1898   1.543   3.063   1.408  1.3564  0.2046  1.6186
  475SOL    HW2 1899   1.606   2.998   1.528  1.9087 -1.0639 -1.2239
  475SOL     MW 1900   1.604   3.060   1.468  0.2098 -0.2744  0.3075
  476SOL     OW 1901   1.409   2.626   1.022 -0.3846 -0.3760  0.1513
  476SOL    HW1 1902   1.344   2.671   1.070  1.2092  2.4340 -0.0038
  476SOL    HW2 1903   1.439   2.688   0.959 -1.3958  0.3042  1.2121
  476SOL     MW 1904   1.404   2.640   1.020 -0.3077  0.0845  0.2708
  477SOL     OW 1905   0.796   2.485   0.662 -0.0175  0.1103 -0.0437
  477SOL    HW1 1906   0.849   2.543   0.604 -0.6898  3.4527  1.2035
  477SOL    HW2 1907   0.785   2.411   0.600 -0.0507 -0.4870 -0.2807
  477SOL     MW 1908   0.802   2.483   0.646 -0.1106  0.4725  0.0896
  478SOL     OW 1909   0.166   2.688   0.920 -0.1656  0.3535 -0.3699
  478SOL    HW1 1910   0.238   2.754   0.909  4.5300  1.0700  1.3243
  478SOL    HW2 1911   0.213   2.619   0.883  0.1276  2.4572 -0.6348
  478SOL     MW 1912   0.182   2.688   0.913  0.4926  0.7256 -0.1813
  479SOL     OW 1913   1.481   1.980   1.250  0.1595  0.3264  0.1588
  479SOL    HW1 1914   1.459   2.020   1.335 -1.8110  2.5429  0.6864
  479SOL    HW2 1915   1.530   1.896   1.263 -0.8059  1.7926 -0.1245
  479SOL     MW 1916   1.485   1.974   1.263 -0.2278  0.8123  0.1910
  480SOL     OW 1917   1.942   2.415   1.274  0.4130  0.7399  0.2958
  480SOL    HW1 1918   1.916   2.349   1.344 -1.2244 -2.9173 -1.7894
  480SOL    HW2 1919   1.971   2.370   1.196  0.7062  3.4128  0.1259
  480SOL     MW 1920   1.942   2.400   1.273  0.2356  0.6100 -0.0017
  481SOL     OW 1921   1.038   3.098   1.042  0.2534 -0.0815  0.6093
  481SOL    HW1 1922   1.088   3.065   0.971 -0.5514 -1.3243  1.4310
  481SOL    HW2 1923   1.090   3.159   1.097  0.8191  0.0922 -0.9570
  481SOL     MW 1924   1.052   3.101   1.040  0.2219 -0.2226  0.5111
  482SOL     OW 1925   1.080   3.026   0.271  0.3607  0.4014 -0.4480
  482SOL    HW1 1926   1.014   2.968   0.304  0.9947 -0.0835 -0.7826
  482SOL    HW2 1927   1.108   3.084   0.345 -0.5257 -1.3720  2.3174
  482SOL     MW 1928   1.075   3.026   0.285  0.3274  0.1034 -0.1273
  483SOL     OW 1929   0.429   2.944   0.443  0.3245 -0.2715 -0.4835
  483SOL    HW1 1930   0.368   2.972   0.373  0.0567  0.1292 -1.1096
  483SOL    HW2 1931   0.393   2.998   0.515  1.2939  0.7824  0.7944
  483SOL     MW 1932   0.416   2.955   0.443  0.4171 -0.0796 -0.3975
  484SOL     OW 1933   1.810   1.897   1.457  0.5526  0.3036  0.0270
  484SOL    HW1 1934   1.825   1.986   1.417  2.3628 -0.5168 -2.7935
  484SOL    HW2 1935   1.784   1.913   1.548 -0.5836  1.0025  0.6340
  484SOL     MW 1936   1.808   1.911   1.464  0.6415  0.2876 -0.2650
  485SOL     OW 1937   0.470   2.295   0.226  0.0306  0.6099 -0.8298
  485SOL    HW1 1938   0.472   2.264   0.322  1.4383 -0.2522 -0.6589
  485SOL    HW2 1939   0.424   2.380   0.228 -0.5167  1.6660 -0.4439
  485SOL     MW 1940   0.464   2.302   0.239  0.1441  0.6355 -0.7564
  486SOL     OW 1941   0.206   2.397   1.481 -0.2369 -0.5321 -0.1599
  486SOL    HW1 1942   0.217   2.482   1.438  0.8738 -1.8750 -1.0514
  486SOL    HW2 1943   0.164   2.407   1.565  1.2651 -2.1558 -1.5390
  486SOL     MW 1944   0.202   2.410   1.486  0.1078 -0.9235 -0.4594
  487SOL     OW 1945   1.226   1.664   1.005 -0.0385 -0.2268 -0.1628
  487SOL    HW1 1946   1.219   1.745   1.049 -0.5924  0.5583  0.4457
  487SOL    HW2 1947   1.324   1.673   0.983  1.3373  0.7722 -1.4230
  487SOL     MW 1948   1.238   1.676   1.008  0.0699  0.0086 -0.2488
  488SOL     OW 1949   1.658   1.874   0.525  0.1088  0.3391  0.6567
  488SOL    HW1 1950   1.742   1.900   0.472  1.7199 -1.4214 -0.3555
  488SOL    HW2 1951   1.593   1.947   0.499 -1.2734 -0.2941 -2.1005
  488SOL     MW 1952   1.661   1.887   0.514  0.1390  0.0233  0.1594
  489SOL     OW 1953   0.710   0.779   0.567  0.9556 -0.1487 -0.3793
  489SOL    HW1 1954   0.730   0.683   0.547  1.9286 -0.6058  1.2231
  489SOL    HW2 1955   0.701   0.775   0.661  4.1628 -0.7819 -0.1153
  489SOL     MW 1956   0.712   0.766   0.577  1.5071 -0.2925 -0.1330
  490SOL     OW 1957   1.483   2.056   0.465 -0.5948 -0.4178  0.3443
  490SOL    HW1 1958   1.525   2.138   0.437 -1.0198  2.7580 -1.1194
  490SOL    HW2 1959   1.387   2.066   0.444  1.0608  0.6604  0.4545
  490SOL     MW 1960   1.476   2.069   0.459 -0.4324  0.1434  0.1657
  491SOL     OW 1961   1.336   2.942   0.355  0.7329 -0.1933 -0.1471
  491SOL    HW1 1962   1.326   3.011   0.421 -1.8741 -1.7768 -1.1278
  491SOL    HW2 1963   1.245   2.940   0.313 -0.1462  1.9129 -0.6883
  491SOL     MW 1964   1.322   2.951   0.359  0.2729 -0.1243 -0.3479
  492SOL     OW 1965   1.505   2.082   0.749  0.1053  0.3886 -0.1938
  492SOL    HW1 1966   1.498   2.075   0.652  0.0313 -0.7884  1.8244
  492SOL    HW2 1967   1.421   2.057   0.782 -0.2690 -0.5849 -1.1087
  492SOL     MW 1968   1.493   2.078   0.740  0.0461  0.1049 -0.0482
  493SOL     OW 1969   0.205   3.005   0.272 -0.2114 -0.2866 -0.1051
  493SOL    HW1 1970   0.165   3.054   0.343 -0.6735  0.0980 -0.6601
  493SOL    HW2 1971   0.190   3.062   0.198 -0.9819  1.9314  1.2077
  493SOL     MW 1972   0.198   3.019   0.271 -0.3740  0.0568 -0.0051
  494SOL     OW 1973   0.404   2.428   1.772  0.0148 -0.5705 -0.6197
  494SOL    HW1 1974   0.427   2.337   1.796  0.0380  1.1028 -0.5102
  494SOL    HW2 1975   0.439   2.430   1.683 -2.2503 -2.3612  1.8315
  494SOL     MW 1976   0.412   2.417   1.764 -0.2810 -0.5860 -0.2819
  495SOL     OW 1977   2.945   1.655   2.617 -0.1448 -0.4522  0.7729
  495SOL    HW1 1978   2.936   1.743   2.578 -1.1041  1.3933  0.9718
  495SOL    HW2 1979   2.919   1.652   2.705 -0.7480  0.5492 -1.1784
  495SOL     MW 1980   2.941   1.666   2.623 -0.3509 -0.0766  0.5417
  496SOL     OW 1981   2.939   2.319   2.686  0.3651  0.2531 -0.1119
  496SOL    HW1 1982   2.987   2.256   2.735 -1.3611 -2.8076  0.8583
  496SOL    HW2 1983   3.000   2.395   2.694  1.7150  3.4679  4.2554
  496SOL     MW 1984   2.953   2.321   2.694  0.3155  0.2734  0.5924
  497SOL     OW 1985   1.521   2.291   2.648  0.2533  0.4041  0.0999
  497SOL    HW1 1986   1.524   2.263   2.557 -0.6094  0.2961 -0.1133
  497SOL    HW2 1987   1.471   2.225   2.693  0.6482 -0.6977 -0.0973
  497SOL     MW 1988   1.515   2.279   2.642  0.1916  0.2445  0.0458
  498SOL     OW 1989   1.513   2.748   2.347 -0.3920  0.1121 -0.3501
  498SOL    HW1 1990   1.460   2.666   2.366 -2.7359 -1.5445  1.2034
  498SOL    HW2 1991   1.597   2.726   2.387 -1.3752 -0.5452 -0.5332
  498SOL     MW 1992   1.517   2.734   2.355 -0.8310 -0.1932 -0.1693
  499SOL     OW 1993   0.926   0.088   0.089 -0.1427  0.4005  0.0837
  499SOL    HW1 1994   0.871   0.147   0.143  0.5944 -2.0538 -1.9907
  499SOL    HW2 1995   0.960   0.006   0.128 -0.6264  1.1533  1.1443
  499SOL     MW 1996   0.923   0.085   0.101 -0.1093  0.1760 -0.0501
  500SOL     OW 1997   1.099   2.550   2.814 -0.2746 -0.2145  0.6255
  500SOL    HW1 1998   1.133   2.492   2.886 -1.8572  2.6553  1.3047
  500SOL    HW2 1999   1.020   2.591   2.839  0.1302 -0.6445  0.0035
  500SOL     MW 2000   1.093   2.547   2.827 -0.4300  0.1074  0.6331
  501SOL     OW 2001   1.763   2.258  -0.002  0.5407 -0.7191 -0.0773
  501SOL    HW1 2002   1.726   2.346   0.013 -0.7800  3.7386 -1.7801
  501SOL    HW2 2003   1.859   2.268   0.023  1.1371 -1.5119 -0.4962
  501SOL     MW 2004   1.771   2.270   0.003  0.4451 -0.2355 -0.3573
  502SOL     OW 2005   0.125   2.820   3.002  0.4632 -0.4620  0.2736
  502SOL    HW1 2006   0.075   2.736   2.982  1.6264  0.2060  0.1512
  502SOL    HW2 2007   0.182   2.843   2.930  1.1631  0.9901  1.7422
  502SOL     MW 2008   0.126   2.812   2.990  0.7090 -0.1823  0.4512
  503SOL     OW 2009   1.135   2.740   2.133 -0.0335  0.8262 -0.0753
  503SOL    HW1 2010   1.102   2.655   2.096 -0.0876 -0.9546  0.9246
  503SOL    HW2 2011   1.075   2.808   2.104 -1.9037 -2.4918  1.5140
  503SOL     MW 2012   1.123   2.738   2.124 -0.2874  0.1535  0.2663
  504SOL     OW 2013   0.071   2.706   2.115  0.7189  0.2079  0.3832
  504SOL    HW1 2014   0.111   2.623   2.090 -1.6652 -0.3712  0.6432
  504SOL    HW2 2015  -0.013   2.704   2.069 -0.3357  0.0683 -1.3874
  504SOL     MW 2016   0.065   2.694   2.106  0.2652  0.1131  0.1839
  505SOL     OW 2017   1.746   2.718   2.828 -0.6797  0.5786 -0.4100
  505SOL    HW1 2018   1.761   2.746   2.738 -2.0849 -1.4866 -0.7729
  505SOL    HW2 2019   1.651   2.756   2.836 -2.4561  0.0323  1.9848
  505SOL     MW 2020   1.736   2.727   2.818 -1.0995  0.2340 -0.1419
  506SOL     OW 2021   1.573   3.081   2.850 -0.3693 -0.0038  0.1016
  506SOL    HW1 2022   1.624   3.048   2.927  0.9865  2.3436 -1.0578
  506SOL    HW2 2023   1.613   3.032   2.775 -1.5276  1.6144 -1.6074
  506SOL     MW 2024   1.585   3.070   2.851 -0.3433  0.5194 -0.2769
  507SOL     OW 2025   0.910   2.771   2.870  0.2659  0.3596  0.2167
  507SOL    HW1 2026   0.930   2.858   2.838 -0.3413 -3.0791  2.5723
  507SOL    HW2 2027   0.864   2.721   2.810 -0.3291 -1.5362  1.5942
  507SOL     MW 2028   0.906   2.776   2.858  0.1073 -0.3442  0.7093
  508SOL     OW 2029   1.152   2.101   2.496 -0.0210  0.2649  0.4368
  508SOL    HW1 2030   1.204   2.071   2.571 -0.6952 -2.5557  0.1650
  508SOL    HW2 2031   1.119   2.179   2.523  1.3949 -1.2999 -0.7360
  508SOL     MW 2032   1.155   2.107   2.510  0.0768 -0.3137  0.2462
  509SOL     OW 2033   0.696   2.566   2.718 -0.2052 -0.0432 -0.0564
  509SOL    HW1 2034   0.672   2.515   2.641  0.1974 -1.6356  1.1121
  509SOL    HW2 2035   0.618   2.614   2.752  0.3997  0.0007 -3.2071
  509SOL     MW 2036   0.682   2.566   2.713 -0.0723 -0.2475 -0.3179
  510SOL     OW 2037   1.480   2.533   1.676  0.1373  0.1057 -0.0854
  510SOL    HW1 2038   1.515   2.611   1.643  0.8401 -0.3643  0.7635
  510SOL    HW2 2039   1.414   2.548   1.746 -2.0230 -1.7461  2.2881
  510SOL     MW 2040   1.476   2.545   1.681 -0.0550 -0.2006  0.3398
  511SOL     OW 2041   0.414   2.657   2.434 -0.2719 -0.0450 -0.2470
  511SOL    HW1 2042   0.481   2.585   2.444 -0.4950  2.8558  0.8814
  511SOL    HW2 2043   0.453   2.718   2.363  0.6376  2.3214 -3.5542
  511SOL     MW 2044   0.428   2.655   2.426 -0.1813  0.6500 -0.5345
  512SOL     OW 2045   1.049   2.031   2.826 -0.4868  0.2118 -0.0821
  512SOL    HW1 2046   0.969   2.065   2.868 -1.1135 -2.0907 -0.5079
  512SOL    HW2 2047   1.064   1.945   2.868  0.0005  0.1770 -0.2584
  512SOL     MW 2048   1.040   2.024   2.837 -0.5052 -0.0966 -0.1616
  513SOL     OW 2049   1.543   2.461   2.304 -0.6604 -0.5426 -0.2383
  513SOL    HW1 2050   1.595   2.482   2.226  0.5910 -0.5017  0.0858
  513SOL    HW2 2051   1.590   2.441   2.383  0.0218 -1.1519  0.5338
  513SOL     MW 2052   1.556   2.461   2.304 -0.4053 -0.6176 -0.0937
  514SOL     OW 2053   0.294   2.466   2.651  0.0395  0.4638 -0.1149
  514SOL    HW1 2054   0.323   2.538   2.597  0.3005  1.9310 -0.3358
  514SOL    HW2 2055   0.329   2.481   2.743  2.2150  2.0924  0.0839
  514SOL     MW 2056   0.302   2.478   2.656  0.3610  0.8723 -0.1178
  515SOL     OW 2057   1.131   2.061   1.944  0.3815  0.1189 -0.9006
  515SOL    HW1 2058   1.096   2.147   1.918 -0.8576  0.8849  0.4781
  515SOL    HW2 2059   1.223   2.077   1.960 -0.6219  0.1124 -1.9081
  515SOL     MW 2060   1.138   2.075   1.943  0.0857  0.2191 -0.8516
  516SOL     OW 2061   1.449   2.497   3.073  0.1262  0.1554 -0.3666
  516SOL    HW1 2062   1.513   2.481   3.003 -0.6154 -1.4101  3.0122
  516SOL    HW2 2063   1.359   2.507   3.038 -2.5101 -2.2233 -0.9508
  516SOL     MW 2064   1.445   2.496   3.060 -0.3194 -0.3650  0.0021
  517SOL     OW 2065   0.574   2.449   2.123 -0.1305  0.6037  0.2295
  517SOL    HW1 2066   0.538   2.530   2.082  0.3131  0.2774 -1.0804
  517SOL    HW2 2067   0.491   2.387   2.130  2.1158  0.4268  0.3504
  517SOL     MW 2068   0.558   2.451   2.119  0.2244  0.5373  0.0726
  518SOL     OW 2069   1.807   0.232   3.073  0.5707  0.1641 -0.2757
  518SOL    HW1 2070   1.747   0.255   3.007 -1.9165  0.8714  1.5470
  518SOL    HW2 2071   1.753   0.198   3.143  2.3210 -0.3969 -1.1147
  518SOL     MW 2072   1.792   0.230   3.074  0.4735  0.1834 -0.1459
  519SOL     OW 2073   0.703   2.395   1.749 -0.2822  0.7419 -0.6954
  519SOL    HW1 2074   0.756   2.316   1.739  0.0447 -0.8066  1.4008
  519SOL    HW2 2075   0.640   2.414   1.679 -1.5887 -1.6830  0.6756
  519SOL     MW 2076   0.702   2.387   1.739 -0.4115  0.2177 -0.2379
  520SOL     OW 2077   1.275   2.123   2.947  0.2677  0.7119  0.4467
  520SOL    HW1 2078   1.189   2.086   2.908 -0.5439  0.9669 -0.6053
  520SOL    HW2 2079   1.297   2.060   3.016 -1.8900  2.6819 -0.5317
  520SOL     MW 2080   1.266   2.110   2.951 -0.1240  1.0055  0.1788
  521SOL     OW 2081   1.713   2.027   2.206 -0.4151  1.0731  0.1818
  521SOL    HW1 2082   1.758   2.074   2.137  0.3606 -0.3144  1.0191
  521SOL    HW2 2083   1.738   1.933   2.191 -0.5392  1.2525 -5.0860
  521SOL     MW 2084   1.722   2.021   2.195 -0.3292  0.9137 -0.4028
  522SOL     OW 2085   2.866   2.574   2.229 -0.5612  0.1462 -0.0709
  522SOL    HW1 2086   2.945   2.546   2.277 -1.9735 -1.6126  1.4714
  522SOL    HW2 2087   2.815   2.600   2.302  0.0143 -0.0596 -3.0407
  522SOL     MW 2088   2.870   2.574   2.245 -0.6716 -0.1130 -0.2592
  523SOL     OW 2089   0.889   1.498   2.158 -0.5729 -0.5856 -0.3428
  523SOL    HW1 2090   0.858   1.566   2.098 -1.9744 -2.0822  0.2653
  523SOL    HW2 2091   0.951   1.450   2.108  0.0036 -0.0769  1.3352
  523SOL     MW 2092   0.893   1.501   2.143 -0.6818 -0.7159 -0.0411
  524SOL     OW 2093   0.688   2.379   2.924  0.7408 -1.0056 -0.4387
  524SOL    HW1 2094   0.690   2.413   2.837 -0.1582  3.5892  0.0023
  524SOL    HW2 2095   0.715   2.288   2.921 -1.9678 -0.1856 -1.3095
  524SOL     MW 2096   0.692   2.371   2.912  0.2648 -0.2912 -0.4954
  525SOL     OW 2097   0.360   2.296   2.083  0.3560  0.0611  0.0614
  525SOL    HW1 2098   0.309   2.232   2.139  1.9170  0.7459  0.0554
  525SOL    HW2 2099   0.371   2.243   2.003  0.8972  0.0362  4.1222
  525SOL     MW 2100   0.355   2.280   2.080  0.6334  0.1482  0.5964
  526SOL     OW 2101   0.669   2.094   2.023 -0.1445 -0.3501  0.5422
  526SOL    HW1 2102   0.726   2.103   1.949 -1.1913  0.0587  0.5840
  526SOL    HW2 2103   0.688   2.175   2.075  1.8293  1.6937 -0.6417
  526SOL     MW 2104   0.679   2.106   2.020 -0.0222 -0.0265  0.3915
  527SOL     OW 2105   1.425   2.021   2.043 -0.5983 -0.4234 -0.5833
  527SOL    HW1 2106   1.377   1.997   2.119 -0.5489  0.5244  0.1413
  527SOL    HW2 2107   1.460   1.941   2.002 -1.3232  0.3712 -1.6233
  527SOL     MW 2108   1.423   2.008   2.048 -0.6875 -0.1935 -0.6249
  528SOL     OW 2109   0.635   2.920   2.897 -0.0963  0.1510  0.3392
  528SOL    HW1 2110   0.668   3.006   2.921 -2.6957 -1.9083  0.7962
  528SOL    HW2 2111   0.594   2.927   2.811 -0.3523 -0.8346 -0.5671
  528SOL     MW 2112   0.634   2.932   2.889 -0.4730 -0.2507  0.2799
  529SOL     OW 2113   1.044   2.318   1.848 -0.5666  0.4761 -0.1486
  529SOL    HW1 2114   1.077   2.347   1.934  0.7141  0.7616  1.7337
  529SOL    HW2 2115   1.065   2.399   1.799 -0.4082 -0.7305  4.8647
  529SOL     MW 2116   1.052   2.333   1.853 -0.3768  0.3546  0.7612
  530SOL     OW 2117   1.193   2.401   2.996  0.0472 -0.5764 -0.4275
  530SOL    HW1 2118   1.176   2.426   3.083 -0.2571  0.9988 -0.6854
  530SOL    HW2 2119   1.243   2.318   2.997  1.3864  0.3765 -0.9726
  530SOL     MW 2120   1.198   2.393   3.007  0.1837 -0.2429 -0.5334
  531SOL     OW 2121   0.918   1.879   2.575  0.2417  0.3743  0.0070
  531SOL    HW1 2122   0.958   1.961   2.622  1.5383  2.6402 -0.2726
  531SOL    HW2 2123   0.908   1.812   2.648  1.6384  0.3132  1.2748
  531SOL     MW 2124   0.922   1.881   2.591  0.5970  0.6652  0.1374
  532SOL     OW 2125   1.755   0.293   2.815  0.1628 -0.3120  0.1308
  532SOL    HW1 2126   1.768   0.248   2.734  1.2126  2.7540 -0.9755
  532SOL    HW2 2127   1.837   0.341   2.831 -0.2402  1.0313 -2.0465
  532SOL     MW 2128   1.767   0.293   2.806  0.2481  0.2698 -0.3024
  533SOL     OW 2129   1.885   2.640   3.072  0.1432  0.4158  0.1660
  533SOL    HW1 2130   1.847   2.577   3.142  1.1391 -1.2051 -1.1702
  533SOL    HW2 2131   1.813   2.667   3.019  0.3322 -0.6801  0.7373
  533SOL     MW 2132   1.870   2.635   3.074  0.2995  0.0574  0.0651
  534SOL     OW 2133   1.733   2.403   2.548  0.7478  0.3279 -0.2826
  534SOL    HW1 2134   1.670   2.352   2.603  0.0968  0.3541  0.0645
  534SOL    HW2 2135   1.809   2.424   2.605 -0.4360  2.0511 -0.6419
  534SOL     MW 2136   1.735   2.399   2.563  0.5057  0.5587 -0.2842
  535SOL     OW 2137   1.921   2.368   1.890  0.5967 -0.6023  0.4751
  535SOL    HW1 2138   1.872   2.387   1.810  0.6564 -1.9962 -1.2914
  535SOL    HW2 2139   2.011   2.382   1.862  1.7078 -3.4461  0.7827
  535SOL     MW 2140   1.926   2.373   1.876  0.7512 -1.1614  0.2826
  536SOL     OW 2141   0.434   1.831   2.093  0.3415 -0.0373 -0.0892
  536SOL    HW1 2142   0.434   1.767   2.016  0.6511 -1.5015 -1.3884
  536SOL    HW2 2143   0.503   1.887   2.067 -0.1342 -1.0070 -0.7828
  536SOL     MW 2144   0.443   1.830   2.079  0.3196 -0.3585 -0.3521
  537SOL     OW 2145   1.100   0.213   2.843  0.0681 -0.4543  0.1167
  537SOL    HW1 2146   1.021   0.249   2.873  1.8591 -1.9399 -1.7897
  537SOL    HW2 2147   1.112   0.264   2.764  1.2695  1.3746  2.7730
  537SOL     MW 2148   1.091   0.224   2.837  0.4629 -0.4090  0.2156
  538SOL     OW 2149   1.350   0.056   3.086  0.4526 -0.6298 -0.0007
  538SOL    HW1 2150   1.332   0.143   3.040  1.6152  1.2789 -0.8728
  538SOL    HW2 2151   1.425   0.020   3.043 -1.3273 -0.3432  0.1710
  538SOL     MW 2152   1.358   0.063   3.074  0.3712 -0.3402 -0.0931
  539SOL     OW 2153   0.736   2.769   2.526  1.1670 -0.2768  1.0226
  539SOL    HW1 2154   0.816   2.821   2.535 -1.3902  0.7615 -1.7065
  539SOL    HW2 2155   0.741   2.695   2.587  1.5995  0.9401  1.5843
  539SOL     MW 2156   0.747   2.766   2.535  0.8867  0.0208  0.7366
  540SOL     OW 2157   0.395   2.496   2.888 -0.2453 -0.0287  0.2782
  540SOL    HW1 2158   0.433   2.538   2.964 -1.3159  1.1167 -0.6726
  540SOL    HW2 2159   0.332   2.433   2.922  1.6601  1.0676 -0.8754
  540SOL     MW 2160   0.392   2.493   2.902 -0.1351  0.2671  0.0006
  541SOL     OW 2161   0.192   2.932   2.221  0.1023  0.1004  0.3760
  541SOL    HW1 2162   0.154   2.852   2.198  1.8159  1.5832  0.8852
  541SOL    HW2 2163   0.218   2.918   2.309 -2.6087 -0.0916 -0.1796
  541SOL     MW 2164   0.190   2.920   2.229 -0.0293  0.2707  0.3699
  542SOL     OW 2165   1.057   2.313   2.661  0.3834  0.2159  0.0793
  542SOL    HW1 2166   1.041   2.243   2.721 -0.0058  0.2746  0.6318
  542SOL    HW2 2167   1.085   2.389   2.716 -1.0255  0.2271 -0.7976
  542SOL     MW 2168   1.058   2.314   2.676  0.1461  0.2251  0.0365
  543SOL     OW 2169   1.632   2.440   2.893  0.6596  0.3031 -0.8184
  543SOL    HW1 2170   1.597   2.407   2.809  0.0812 -2.5163 -0.1801
  543SOL    HW2 2171   1.686   2.510   2.859  1.6672  0.7768 -1.4177
  543SOL     MW 2172   1.634   2.445   2.878  0.7163 -0.0064 -0.8132
  544SOL     OW 2173   0.704   0.235   2.718 -0.0765  0.1403  0.0563
  544SOL    HW1 2174   0.608   0.247   2.726 -1.4320  0.4146  2.5857
  544SOL    HW2 2175   0.701   0.168   2.650  0.5911 -1.1127 -0.7085
  544SOL     MW 2176   0.691   0.228   2.710 -0.1673  0.0112  0.2891
  545SOL     OW 2177   1.534   2.167   2.362 -0.4193  0.0341  0.3805
  545SOL    HW1 2178   1.508   2.235   2.304  1.8695 -2.0428 -0.7272
  545SOL    HW2 2179   1.584   2.106   2.295 -3.0581  0.9993 -1.2292
  545SOL     MW 2180   1.537   2.168   2.345 -0.4655 -0.1126  0.0220
  546SOL     OW 2181   2.958   2.003   0.118 -0.7419  0.3489 -0.0933
  546SOL    HW1 2182   2.942   2.075   0.052 -1.2366  2.0412  1.3534
  546SOL    HW2 2183   3.034   1.952   0.088 -1.2175 -0.1716 -1.4255
  546SOL     MW 2184   2.966   2.006   0.105 -0.8699  0.5035 -0.0782
  547SOL     OW 2185   0.190   0.066   0.046 -0.7832  0.6672 -0.1675
  547SOL    HW1 2186   0.284   0.071   0.008 -0.6280  0.6651 -0.8671
  547SOL    HW2 2187   0.143   0.019  -0.025 -1.4282  0.2930  1.7778
  547SOL     MW 2188   0.196   0.060   0.031 -0.8478  0.6175 -0.0031
  548SOL     OW 2189   0.308   2.530   0.289 -0.0364  0.5556  0.3424
  548SOL    HW1 2190   0.275   2.584   0.218  2.6503 -4.2257  1.4201
  548SOL    HW2 2191   0.233   2.467   0.293  0.6440  0.7115 -0.4700
  548SOL     MW 2192   0.294   2.529   0.280  0.4079 -0.0546  0.3774
  549SOL     OW 2193   0.791   1.891   2.126 -0.0824  0.3541  0.3379
  549SOL    HW1 2194   0.752   1.970   2.075 -2.9208  0.9606 -0.1502
  549SOL    HW2 2195   0.740   1.888   2.208  1.1837  0.1082  1.5140
  549SOL     MW 2196   0.779   1.901   2.130 -0.2899  0.4017  0.4286
  550SOL     OW 2197   1.792   1.747   2.539  0.3124  0.3937 -0.3750
  550SOL    HW1 2198   1.777   1.780   2.451  0.0901 -0.0399 -0.5230
  550SOL    HW2 2199   1.791   1.827   2.597  0.5592 -1.1384  1.6742
  550SOL     MW 2200   1.790   1.762   2.535  0.3156  0.1344 -0.1242
  551SOL     OW 2201   0.918   2.290   0.232  0.3307  0.2966  0.0600
  551SOL    HW1 2202   1.015   2.287   0.215  0.3809  0.9190 -1.6677
  551SOL    HW2 2203   0.889   2.248   0.152  0.7988  0.3702  2.3022
  551SOL     MW 2204   0.927   2.284   0.219  0.3991  0.3885  0.1279
  552SOL     OW 2205   1.763   1.758   2.262  0.5416 -0.0041 -0.1017
  552SOL    HW1 2206   1.674   1.714   2.264 -3.9094  0.3056 -1.2682
  552SOL    HW2 2207   1.805   1.717   2.184 -1.3159 -3.2891  3.8247
  552SOL     MW 2208   1.757   1.747   2.252 -0.2908 -0.3967  0.2624
  553SOL     OW 2209   1.276   2.308   1.578  0.1864 -0.7106  0.2299
  553SOL    HW1 2210   1.301   2.223   1.551 -1.4550 -1.1637 -0.2909
  553SOL    HW2 2211   1.329   2.357   1.517 -3.1376 -2.1326 -1.0071
  553SOL     MW 2212   1.286   2.303   1.566 -0.4688 -0.9580 -0.0020
  554SOL     OW 2213   0.538   2.947   2.651  0.1057  0.3005 -0.0449
  554SOL    HW1 2214   0.517   3.017   2.581 -2.9898  0.3508  1.0290
  554SOL    HW2 2215   0.606   2.898   2.607 -0.1519  0.5059  1.0987
  554SOL     MW 2216   0.544   2.950   2.636 -0.3367  0.3342  0.2477
  555SOL     OW 2217   0.619   2.447   2.496  0.3464 -0.2010  0.4052
  555SOL    HW1 2218   0.562   2.368   2.510 -0.1126 -1.5902  2.3451
  555SOL    HW2 2219   0.690   2.419   2.449  0.2702  1.5519 -1.4756
  555SOL     MW 2220   0.621   2.433   2.492  0.2758 -0.1530  0.4130
  556SOL     OW 2221   0.969   1.847   0.091  0.3015  0.5725  0.1106
  556SOL    HW1 2222   0.995   1.841   0.002  0.6958 -0.6244 -1.5656
  556SOL    HW2 2223   1.050   1.860   0.136 -0.6714 -1.6296  1.4205
  556SOL     MW 2224   0.983   1.848   0.085  0.2252  0.1241  0.0623
  557SOL     OW 2225   0.988   2.670   0.488  0.1659  0.0540 -0.4865
  557SOL    HW1 2226   1.039   2.605   0.440 -1.6881 -0.0613  3.7292
  557SOL    HW2 2227   0.936   2.717   0.429  2.0690 -0.7430  1.5740
  557SOL     MW 2228   0.988   2.668   0.474  0.1723 -0.0663  0.3416
  558SOL     OW 2229   0.216   2.321   3.009 -0.1499 -0.2325 -0.0480
  558SOL    HW1 2230   0.145   2.299   2.952  0.3399 -1.4243 -1.7072
  558SOL    HW2 2231   0.169   2.352   3.084  2.1436  1.5347  2.4054
  558SOL     MW 2232   0.201   2.322   3.011  0.2173 -0.1566  0.0568
  559SOL     OW 2233   1.069   2.325   2.131  0.0433  0.2654  0.1159
  559SOL    HW1 2234   1.162   2.343   2.154  0.9391 -3.9419 -0.5451
  559SOL    HW2 2235   1.053   2.240   2.173 -2.7239 -0.8220 -2.0297
  559SOL     MW 2236   1.079   2.316   2.140 -0.2036 -0.4332 -0.2544
  560SOL     OW 2237   1.969   2.882   0.023 -0.2699 -0.0117  0.2090
  560SOL    HW1 2238   2.025   2.922  -0.041 -0.9979 -0.0067  2.7074
  560SOL    HW2 2239   1.960   2.787  -0.003  1.9291 -2.3037  1.9871
  560SOL     MW 2240   1.975   2.875   0.011 -0.0758 -0.3134  0.7732
  561SOL     OW 2241   0.341   2.127   0.053 -0.4542 -0.1186  0.3542
  561SOL    HW1 2242   0.302   2.198  -0.001  0.3768  2.5999  2.0186
  561SOL    HW2 2243   0.408   2.179   0.103 -0.3607  0.3210  0.6751
  561SOL     MW 2244   0.345   2.143   0.052 -0.3322  0.2981  0.6161
  562SOL     OW 2245   0.702   2.237   2.298 -0.0294 -0.1296  0.5699
  562SOL    HW1 2246   0.664   2.320   2.264  0.9797 -0.1071 -1.3447
  562SOL    HW2 2247   0.782   2.248   2.340 -0.5164  1.4132 -1.3597
  562SOL     MW 2248   0.708   2.249   2.299  0.0395  0.0769  0.0627
  563SOL     OW 2249   1.239   0.360   0.589 -0.2366  1.0351  0.2795
  563SOL    HW1 2250   1.196   0.283   0.550  1.4600 -0.0948  2.2243
  563SOL    HW2 2251   1.244   0.345   0.682 -3.0310  2.2207 -1.5816
  563SOL     MW 2252   1.234   0.348   0.596 -0.3814  1.0425  0.2905
  564SOL     OW 2253   1.160   2.591   2.364 -0.2374  0.6943 -0.0099
  564SOL    HW1 2254   1.147   2.647   2.290  0.3839 -1.3708  1.8404
  564SOL    HW2 2255   1.163   2.640   2.441  1.9700 -0.3624 -0.9862
  564SOL     MW 2256   1.158   2.605   2.365  0.1358  0.2824  0.1054
  565SOL     OW 2257   2.774   2.755   2.647 -0.8891 -0.4014 -0.3592
  565SOL    HW1 2258   2.753   2.846   2.627  0.3195  0.3567 -0.3038
  565SOL    HW2 2259   2.746   2.703   2.567  1.5311 -0.1152 -2.1765
  565SOL     MW 2260   2.767   2.760   2.634 -0.4103 -0.2637 -0.5917
  566SOL     OW 2261   2.129   1.829   2.427  0.1397  0.5980  0.1507
  566SOL    HW1 2262   2.146   1.789   2.343 -0.8973 -1.5496  1.3344
  566SOL    HW2 2263   2.168   1.923   2.427  0.5732  0.7019  0.4432
  566SOL     MW 2264   2.137   1.836   2.416  0.0600  0.3283  0.3455
  567SOL     OW 2265   1.116   2.978   3.070  0.1857  0.3850  0.3590
  567SOL    HW1 2266   1.172   3.056   3.081 -2.6915  1.4874 -1.3195
  567SOL    HW2 2267   1.174   2.906   3.046  2.1867 -1.3669 -0.2552
  567SOL     MW 2268   1.131   2.979   3.069  0.0701  0.2993  0.0565
  568SOL     OW 2269   1.618   2.073   2.875 -0.2580  0.0991  0.5730
  568SOL    HW1 2270   1.660   2.146   2.918  0.1063 -1.2698 -2.3236
  568SOL    HW2 2271   1.671   2.048   2.804 -0.7047  0.3171 -0.6468
  568SOL     MW 2272   1.630   2.080   2.871 -0.2689 -0.0527  0.0299
  569SOL     OW 2273   0.163   2.272   2.498  0.1157 -0.6375  0.3185
  569SOL    HW1 2274   0.092   2.316   2.447 -1.8247 -3.1087  1.4084
  569SOL    HW2 2275   0.186   2.340   2.560 -1.8444  1.3844 -0.0773
  569SOL     MW 2276   0.157   2.287   2.499 -0.3989 -0.6968  0.4100
  570SOL     OW 2277   1.501   0.342   0.511  0.0392 -0.5494  0.4481
  570SOL    HW1 2278   1.410   0.356   0.551 -2.5065 -0.3392  0.3220
  570SOL    HW2 2279   1.557   0.378   0.582  1.7174 -2.6554  0.2024
  570SOL     MW 2280   1.496   0.348   0.526 -0.0753 -0.7996  0.3991
  571SOL     OW 2281   1.363   2.407   2.049 -0.7244 -0.2465  0.8214
  571SOL    HW1 2282   1.398   2.432   2.134 -1.5372 -0.0573  1.9670
  571SOL    HW2 2283   1.426   2.350   2.001  1.1573 -2.9249 -0.0307
  571SOL     MW 2284   1.376   2.403   2.054 -0.5833 -0.5749  0.8601
  572SOL     OW 2285   1.059   2.606   0.104  0.1266 -0.0149 -0.1670
  572SOL    HW1 2286   1.041   2.697   0.075 -2.7550  1.2314  0.3859
  572SOL    HW2 2287   0.966   2.570   0.086 -0.8919 -0.9802 -1.9292
  572SOL     MW 2288   1.045   2.614   0.098 -0.3880  0.0222 -0.3266
  573SOL     OW 2289   1.180   2.299   0.224  0.0411  0.3677  0.1642
  573SOL    HW1 2290   1.269   2.288   0.193  0.4429  0.0099  0.2458
  573SOL    HW2 2291   1.184   2.379   0.276  0.8520  1.6730 -2.3393
  573SOL     MW 2292   1.192   2.308   0.227  0.2011  0.4927 -0.1554
  574SOL     OW 2293   1.166   2.530   0.335 -0.2884 -0.0740 -0.3649
  574SOL    HW1 2294   1.240   2.576   0.381 -1.9090 -0.2156 -0.7960
  574SOL    HW2 2295   1.140   2.581   0.261  0.8124  2.1572  0.7524
  574SOL     MW 2296   1.172   2.543   0.331 -0.3570  0.2017 -0.2744
  575SOL     OW 2297   3.042   2.216   1.793 -0.0194  0.8774 -0.8299
  575SOL    HW1 2298   3.087   2.147   1.741  3.2355 -0.7913  1.0141
  575SOL    HW2 2299   3.105   2.285   1.776 -2.8371 -0.9140 -2.9706
  575SOL     MW 2300   3.056   2.216   1.784  0.0383  0.4209 -0.8690
  576SOL     OW 2301   2.810   1.820   2.031  0.0613  0.3795 -0.2684
  576SOL    HW1 2302   2.845   1.903   1.993  3.4547  1.4616  0.3897
  576SOL    HW2 2303   2.712   1.828   2.008  0.8426  0.2263 -0.2176
  576SOL     MW 2304   2.802   1.832   2.023  0.6121  0.5020 -0.1748
  577SOL     OW 2305   2.046   0.203   0.087  0.1284  0.6303  0.5159
  577SOL    HW1 2306   1.963   0.238   0.041 -0.9368  0.9077  1.3657
  577SOL    HW2 2307   2.024   0.148   0.167 -0.5770 -1.6793  0.8736
  577SOL     MW 2308   2.032   0.200   0.092 -0.1052  0.3622  0.6752
  578SOL     OW 2309   1.925   2.051   2.369  0.0601  0.3570  1.1731
  578SOL    HW1 2310   1.835   2.033   2.325  1.7499  2.4005 -0.1301
  578SOL    HW2 2311   1.983   1.970   2.366 -0.2600  1.2752 -1.7310
  578SOL     MW 2312   1.920   2.038   2.363  0.2408  0.7478  0.6180
  579SOL     OW 2313   0.950   2.437   2.442  0.0198  0.1673  0.1149
  579SOL    HW1 2314   0.988   2.410   2.525  1.9319  1.3809  2.7879
  579SOL    HW2 2315   1.008   2.505   2.414 -0.3418 -2.9454  0.7872
  579SOL     MW 2316   0.963   2.442   2.449  0.2244 -0.0832  0.5563
  580SOL     OW 2317   0.900   2.819   0.031 -0.2609  0.0040  0.0779
  580SOL    HW1 2318   0.976   2.878   0.026  0.9279 -1.5328  0.1379
  580SOL    HW2 2319   0.888   2.791  -0.062  0.0188 -1.3602 -1.4032
  580SOL     MW 2320   0.908   2.823   0.018 -0.0672 -0.3788 -0.1096
  581SOL     OW 2321   1.144   2.517   1.679  0.1872 -0.1894  0.2422
  581SOL    HW1 2322   1.198   2.567   1.739  0.5698 -1.8364 -3.7544
  581SOL    HW2 2323   1.196   2.432   1.659  3.7356 -2.4752 -4.0232
  581SOL     MW 2324   1.158   2.512   1.684  0.7058 -0.7083 -0.8479
  582SOL     OW 2325   0.043   2.775   2.690 -0.1279  0.0229  0.4866
  582SOL    HW1 2326  -0.009   2.855   2.712  1.5537  2.8715  2.4099
  582SOL    HW2 2327   0.133   2.809   2.688  0.1191 -3.1853  1.1686
  582SOL     MW 2328   0.048   2.790   2.693  0.1265 -0.0245  0.8304
  583SOL     OW 2329   1.988   2.425   2.663 -0.0175  0.2468  0.2379
  583SOL    HW1 2330   2.069   2.443   2.618 -0.4817  1.5976  1.3483
  583SOL    HW2 2331   1.978   2.333   2.667  0.9735  2.9223 -1.9206
  583SOL     MW 2332   1.998   2.415   2.657  0.0520  0.7780  0.0996
  584SOL     OW 2333   0.100   1.906   2.208 -0.8253 -0.1514  0.3597
  584SOL    HW1 2334   0.126   1.847   2.277  0.0858 -0.0654 -3.4297
  584SOL    HW2 2335   0.158   1.984   2.218 -0.8266  0.9328 -0.9924
  584SOL     MW 2336   0.111   1.909   2.218 -0.7052  0.0030 -0.3187
  585SOL     OW 2337   1.568   2.557   0.234 -0.0772  0.4244  0.3040
  585SOL    HW1 2338   1.512   2.557   0.154 -3.7451  0.7837 -1.0653
  585SOL    HW2 2339   1.503   2.586   0.307 -2.1446 -0.9689  0.5306
  585SOL     MW 2340   1.552   2.560   0.233 -0.8339  0.2879  0.1532
  586SOL     OW 2341   1.406   2.840   2.584  0.5549 -0.7949  0.1773
  586SOL    HW1 2342   1.473   2.822   2.522  1.8502 -0.6427  2.7313
  586SOL    HW2 2343   1.371   2.923   2.556  0.3484  0.2448 -2.3387
  586SOL     MW 2344   1.410   2.849   2.572  0.6985 -0.6376  0.1823
  587SOL     OW 2345   1.372   1.516   2.152  0.3315 -0.2509 -0.0174
  587SOL    HW1 2346   1.322   1.458   2.216 -2.1463 -0.2197 -0.2765
  587SOL    HW2 2347   1.379   1.465   2.072  0.1452  0.6074  0.4457
  587SOL     MW 2348   1.366   1.502   2.150 -0.0200 -0.1336  0.0096
  588SOL     OW 2349   1.353   2.051   2.689  0.1699 -0.4633  0.1270
  588SOL    HW1 2350   1.363   1.955   2.692  0.3558  1.8403  0.8969
  588SOL    HW2 2351   1.328   2.076   2.778 -1.3448  2.3409 -1.6709
  588SOL     MW 2352   1.351   2.041   2.701 -0.0054  0.2106 -0.0086
  589SOL     OW 2353   1.400   2.018   0.074  0.0421 -0.2878 -0.9269
  589SOL    HW1 2354   1.426   2.102   0.104 -1.7385  0.2263 -1.8891
  589SOL    HW2 2355   1.352   1.980   0.145  1.1936  0.2113 -1.6193
  589SOL     MW 2356   1.397   2.024   0.087 -0.0409 -0.1541 -1.1452
  590SOL     OW 2357   0.513   2.780   2.215 -0.4433 -0.0633  0.2910
  590SOL    HW1 2358   0.485   2.766   2.127  2.9992 -1.4299  0.9054
  590SOL    HW2 2359   0.608   2.762   2.204 -1.9861 -0.6519 -1.4662
  590SOL     MW 2360   0.522   2.776   2.202 -0.1927 -0.3213  0.1402
  591SOL     OW 2361   2.259   0.687   0.032  0.8046  0.3816 -0.1399
  591SOL    HW1 2362   2.187   0.741  -0.012 -0.4905 -3.5253  2.1903
  591SOL    HW2 2363   2.341   0.713  -0.009 -0.4001 -2.5293  0.8410
  591SOL     MW 2364   2.260   0.698   0.020  0.4748 -0.5179  0.2970
  592SOL     OW 2365   1.739   2.938   0.771  0.1596  0.1705 -0.3824
  592SOL    HW1 2366   1.741   2.999   0.700  1.0888 -2.4067  1.0470
  592SOL    HW2 2367   1.832   2.922   0.790  0.1439  2.3043 -0.8247
  592SOL     MW 2368   1.752   2.944   0.764  0.2802  0.1120 -0.2521
  593SOL     OW 2369   1.953   0.644   0.854 -0.0448  0.5752  0.2458
  593SOL    HW1 2370   1.874   0.639   0.800  1.4615  1.1601 -1.8799
  593SOL    HW2 2371   1.998   0.560   0.851 -0.8657  0.2621 -2.2876
  593SOL     MW 2372   1.948   0.633   0.846  0.0456  0.6111 -0.3689
  594SOL     OW 2373   2.783   1.135   1.376 -0.2829 -0.3900  0.5245
  594SOL    HW1 2374   2.878   1.147   1.353  3.2370 -0.0987 -0.4559
  594SOL    HW2 2375   2.750   1.067   1.318  2.3508 -2.3750 -0.4141
  594SOL     MW 2376   2.791   1.127   1.365  0.5290 -0.6135  0.2713
  595SOL     OW 2377   0.482   0.968   0.824 -0.3069 -0.5381  0.4128
  595SOL    HW1 2378   0.505   0.984   0.729  1.4823  0.0503  0.1412
  595SOL    HW2 2379   0.500   1.058   0.855  2.9916  1.7253  1.4721
  595SOL     MW 2380   0.488   0.982   0.816  0.3644 -0.1619  0.5167
  596SOL     OW 2381   2.441   1.331   0.563 -0.1578  0.2046 -0.1752
  596SOL    HW1 2382   2.503   1.392   0.523 -1.6864 -0.5075  0.0831
  596SOL    HW2 2383   2.482   1.293   0.642  0.1730  0.1007 -4.8280
  596SOL     MW 2384   2.454   1.334   0.568 -0.3158  0.0969 -0.7550
  597SOL     OW 2385   2.184   0.676   1.629 -0.2693 -0.0304 -0.1980
  597SOL    HW1 2386   2.213   0.610   1.692  1.2143  3.0105 -1.0327
  597SOL    HW2 2387   2.115   0.629   1.575 -2.0539  0.5969 -2.0835
  597SOL     MW 2388   2.179   0.661   1.630 -0.3090  0.4536 -0.5569
  598SOL     OW 2389   2.556   1.028   2.822  0.3308  0.2076  0.7350
  598SOL    HW1 2390   2.547   0.978   2.740 -1.7074 -0.5959  0.4556
  598SOL    HW2 2391   2.648   1.057   2.827  2.4951 -1.5340  0.4447
  598SOL     MW 2392   2.567   1.026   2.812  0.3475 -0.1282  0.6598
  599SOL     OW 2393   2.980   0.402   2.084  0.0996 -0.0547  0.3674
  599SOL    HW1 2394   3.036   0.409   2.163 -0.8448 -3.6300 -0.0042
  599SOL    HW2 2395   2.988   0.487   2.038  0.3110 -0.6140 -0.1087
  599SOL     MW 2396   2.989   0.414   2.088  0.0028 -0.6002  0.2556
  600SOL     OW 2397   1.823   1.640   0.902 -0.4065  0.0984 -0.2670
  600SOL    HW1 2398   1.894   1.686   0.950  1.3223 -0.8122 -0.8887
  600SOL    HW2 2399   1.767   1.707   0.856 -0.8241  1.6127  0.2854
  600SOL     MW 2400   1.825   1.655   0.902 -0.2335  0.1781 -0.2761
  601SOL     OW 2401   2.542   0.761   0.818  0.3418 -0.7159  0.1983
  601SOL    HW1 2402   2.541   0.778   0.915  1.0024 -0.7295 -1.2059
  601SOL    HW2 2403   2.463   0.706   0.797 -1.0317 -1.0320 -2.9715
  601SOL     MW 2404   2.531   0.756   0.828  0.2477 -0.7594 -0.4052
  602SOL     OW 2405   2.292   1.936   0.745  0.2000 -0.3957  0.1994
  602SOL    HW1 2406   2.258   1.842   0.746  1.8542 -1.2423  0.7175
  602SOL    HW2 2407   2.229   1.982   0.690 -0.6998 -2.8305 -1.7023
  602SOL     MW 2408   2.280   1.929   0.738  0.2995 -0.8286  0.0169
  603SOL     OW 2409   3.051   1.397   1.956 -0.8941 -0.2129  0.2287
  603SOL    HW1 2410   3.131   1.453   1.979 -1.7228  2.6997  1.5410
  603SOL    HW2 2411   3.078   1.304   1.975 -0.1241 -0.4974 -2.0270
  603SOL     MW 2412   3.065   1.392   1.962 -0.9019  0.1338  0.1043
  604SOL     OW 2413   2.067   1.486   0.459 -0.4486  0.4831 -0.2268
  604SOL    HW1 2414   2.132   1.411   0.482  3.5923  0.8172  0.0180
  604SOL    HW2 2415   2.017   1.508   0.534 -1.5513  0.0384 -4.4589
  604SOL     MW 2416   2.069   1.479   0.472 -0.0609  0.4685 -0.7529
  605SOL     OW 2417   2.534   1.479   0.896  0.0138 -0.5318 -0.6360
  605SOL    HW1 2418   2.536   1.524   0.814  0.0852 -0.0189  2.7420
  605SOL    HW2 2419   2.537   1.388   0.871 -0.1503  0.8225  1.2326
  605SOL     MW 2420   2.535   1.473   0.882  0.0016 -0.2854  0.0562
  606SOL     OW 2421   2.537   1.768   2.024 -0.0511  0.5360 -0.6920
  606SOL    HW1 2422   2.456   1.772   1.975 -1.1156  0.5831  1.5266
  606SOL    HW2 2423   2.577   1.687   1.999 -2.1660  0.0722  0.4547
  606SOL     MW 2424   2.531   1.758   2.014 -0.4706  0.4810 -0.2480
  607SOL     OW 2425   2.396   0.996   3.037 -0.1714 -1.3165  0.2481
  607SOL    HW1 2426   2.462   1.016   2.972  1.9920 -0.6673  2.3491
  607SOL    HW2 2427   2.445   0.992   3.124  1.8444  0.3095 -0.5207
  607SOL     MW 2428   2.411   0.998   3.040  0.3800 -1.0163  0.4239
  608SOL     OW 2429   1.855   0.276   0.560 -0.0524 -0.2923 -0.1358
  608SOL    HW1 2430   1.811   0.337   0.502  1.0732 -0.7540  2.1139
  608SOL    HW2 2431   1.833   0.191   0.517 -1.3060 -3.2051 -3.5131
  608SOL     MW 2432   1.846   0.273   0.547 -0.0693 -0.7376 -0.2846
  609SOL     OW 2433   2.123   1.942   3.046  0.4960 -0.4864 -1.0569
  609SOL    HW1 2434   2.051   1.877   3.023 -2.8463 -0.8427  0.0536
  609SOL    HW2 2435   2.129   1.927   3.140  0.3129 -2.1016 -0.4680
  609SOL     MW 2436   2.114   1.931   3.056  0.0308 -0.7465 -0.8327
  610SOL     OW 2437   1.826   0.935   1.228 -0.3376  0.0245  0.0946
  610SOL    HW1 2438   1.826   0.849   1.192 -2.9109  0.8947  0.1747
  610SOL    HW2 2439   1.735   0.966   1.215  2.2409  0.8932 -1.4899
  610SOL     MW 2440   1.814   0.928   1.222 -0.3369  0.2539 -0.1039
  611SOL     OW 2441   2.504   1.652   0.681 -0.2421  0.0259  0.1177
  611SOL    HW1 2442   2.519   1.726   0.618 -0.5870 -1.2669 -0.9311
  611SOL    HW2 2443   2.415   1.654   0.709  1.5771  1.5124  2.3435
  611SOL     MW 2444   2.494   1.662   0.676 -0.0475  0.0514  0.2730
  612SOL     OW 2445   2.829   2.911   0.377 -0.0014  0.4610  0.0373
  612SOL    HW1 2446   2.859   2.913   0.470  0.8092  2.3109  2.1933
  612SOL    HW2 2447   2.906   2.878   0.325  1.7924  2.0800 -1.6145
  612SOL     MW 2448   2.843   2.907   0.382  0.3422  0.9187  0.1038
  613SOL     OW 2449   1.455   1.052   0.929  0.2761 -0.3270  0.1101
  613SOL    HW1 2450   1.487   1.131   0.976  2.2554 -1.5402  1.1419
  613SOL    HW2 2451   1.472   0.983   0.992 -0.0179  1.7314 -1.0355
  613SOL     MW 2452   1.462   1.053   0.944  0.4985 -0.2155  0.0951
  614SOL     OW 2453   1.995   0.491   1.498  0.3095 -0.4599  0.3225
  614SOL    HW1 2454   1.999   0.442   1.584 -0.5932 -0.6556 -3.2806
  614SOL    HW2 2455   1.939   0.428   1.448 -0.6223 -1.3364  0.5417
  614SOL     MW 2456   1.988   0.476   1.503  0.0674 -0.6014 -0.1240
  615SOL     OW 2457   2.341   0.732   0.285  0.6101 -0.2181  0.1362
  615SOL    HW1 2458   2.395   0.658   0.311 -0.8884 -1.4417 -0.2538
  615SOL    HW2 2459   2.318   0.710   0.188  0.3259 -0.5047 -2.7861
  615SOL     MW 2460   2.345   0.719   0.275  0.3749 -0.4174 -0.3008
  616SOL     OW 2461   2.509   0.452   1.663 -0.3373 -0.0382 -0.2149
  616SOL    HW1 2462   2.546   0.380   1.616  1.2471  2.5598  0.0788
  616SOL    HW2 2463   2.487   0.522   1.599 -3.3519 -0.6744  2.2931
  616SOL     MW 2464   2.511   0.452   1.648 -0.5260  0.2206  0.1548
  617SOL     OW 2465   2.849   0.604   1.696  0.0674 -0.1173  0.1038
  617SOL    HW1 2466   2.772   0.609   1.751  0.0599  2.8597  1.1321
  617SOL    HW2 2467   2.875   0.515   1.690 -1.0205  2.8661  0.0605
  617SOL     MW 2468   2.842   0.593   1.702 -0.0772  0.6691  0.2338
  618SOL     OW 2469   2.721   0.387   1.996  0.3132  0.1146  0.1111
  618SOL    HW1 2470   2.689   0.465   1.957  0.2576 -1.9257  0.2928
  618SOL    HW2 2471   2.798   0.403   2.050  1.6951  2.2942 -0.4021
  618SOL     MW 2472   2.727   0.399   1.998  0.4882  0.1330  0.0673
  619SOL     OW 2473   2.674   0.712   0.052 -0.5875 -0.0705  0.3509
  619SOL    HW1 2474   2.705   0.791   0.091 -0.4881  0.9083 -1.2126
  619SOL    HW2 2475   2.620   0.676   0.128 -0.3886 -0.7634  0.4233
  619SOL     MW 2476   2.671   0.718   0.067 -0.5481 -0.0328  0.1541
  620SOL     OW 2477   2.249   1.079   0.936 -0.3040  0.2566  0.6707
  620SOL    HW1 2478   2.325   1.075   0.879  0.5102  1.6539  2.0587
  620SOL    HW2 2479   2.191   1.028   0.878  3.3824  0.9395 -0.1862
  620SOL     MW 2480   2.251   1.071   0.921  0.2898  0.5311  0.7408
  621SOL     OW 2481   1.556   2.235   1.935 -0.2521  0.1955 -0.0356
  621SOL    HW1 2482   1.536   2.149   1.970 -0.0294 -1.4626 -0.5940
  621SOL    HW2 2483   1.650   2.245   1.959  0.3774 -0.9560  1.2217
  621SOL     MW 2484   1.566   2.225   1.943 -0.1397 -0.1752  0.0566
  622SOL     OW 2485   2.652   0.234   0.253 -0.3313  0.3299 -0.1159
  622SOL    HW1 2486   2.746   0.263   0.229  1.1282  0.9523  1.6984
  622SOL    HW2 2487   2.661   0.142   0.275  1.0989  0.4633  0.6295
  622SOL     MW 2488   2.666   0.226   0.253  0.0500  0.4296  0.2218
  623SOL     OW 2489   2.432   2.741   0.864  0.0549  0.5312  0.1804
  623SOL    HW1 2490   2.486   2.815   0.866 -0.2222 -0.5913 -1.0695
  623SOL    HW2 2491   2.364   2.779   0.923 -0.2908 -1.0453 -3.3886
  623SOL     MW 2492   2.430   2.755   0.872 -0.0272  0.1751 -0.4554
  624SOL     OW 2493   2.149   1.606   3.029  0.4444  0.1255 -0.0503
  624SOL    HW1 2494   2.095   1.534   3.074  2.5723 -2.1838 -1.6956
  624SOL    HW2 2495   2.090   1.659   2.987 -0.4802 -1.1737  1.3951
  624SOL     MW 2496   2.135   1.604   3.030  0.6031 -0.3506 -0.0767
  625SOL     OW 2497   2.206   1.942   1.102 -0.2799  0.5404  0.2929
  625SOL    HW1 2498   2.258   1.878   1.151 -0.6480  0.0097  1.9331
  625SOL    HW2 2499   2.258   1.972   1.030  2.1957  1.2190  1.6155
  625SOL     MW 2500   2.219   1.938   1.099 -0.0018  0.5599  0.6838
  626SOL     OW 2501   0.234   1.788   2.467 -0.3983  0.6240  0.7759
  626SOL    HW1 2502   0.174   1.715   2.491 -1.4660  0.1210 -0.1687
  626SOL    HW2 2503   0.186   1.873   2.476 -1.2209 -1.8543  0.2155
  626SOL     MW 2504   0.220   1.789   2.471 -0.6477  0.2306  0.5773
  627SOL     OW 2505   2.539   0.771   2.563  0.1259  0.3435  0.3468
  627SOL    HW1 2506   2.481   0.845   2.577  1.4863  0.9060  0.9590
  627SOL    HW2 2507   2.507   0.726   2.484  0.4097  2.2085  0.9102
  627SOL     MW 2508   2.527   0.775   2.554  0.3429  0.6638  0.5019
  628SOL     OW 2509   2.236   1.342   1.309 -0.1296 -0.6246 -0.2594
  628SOL    HW1 2510   2.211   1.255   1.274  0.9594 -1.2638 -1.7916
  628SOL    HW2 2511   2.315   1.373   1.255  3.0889  1.2318 -0.0999
  628SOL     MW 2512   2.243   1.335   1.298  0.4387 -0.4640 -0.4405
  629SOL     OW 2513   1.858   0.475   1.257 -0.4493 -0.6961  0.4675
  629SOL    HW1 2514   1.841   0.554   1.201 -0.7397  0.8371 -1.8830
  629SOL    HW2 2515   1.769   0.444   1.254 -0.8308  2.4730  0.4556
  629SOL     MW 2516   1.844   0.482   1.250 -0.5380 -0.0757  0.1558
  630SOL     OW 2517   2.404   1.863   3.012  0.2107 -0.0034 -0.3959
  630SOL    HW1 2518   2.413   1.938   2.958  0.9455 -1.2086 -2.2300
  630SOL    HW2 2519   2.310   1.858   3.023 -1.8394 -1.8578  0.7252
  630SOL     MW 2520   2.393   1.872   3.006  0.0372 -0.4071 -0.4900
  631SOL     OW 2521   2.008   1.678   1.554  0.4271  0.0252 -0.2491
  631SOL    HW1 2522   1.998   1.601   1.617 -0.1616 -2.2351  2.2875
  631SOL    HW2 2523   1.925   1.695   1.520  2.6832 -0.5315  1.5892
  631SOL     MW 2524   1.996   1.670   1.558  0.6471 -0.3465  0.3282
  632SOL     OW 2525   0.262   1.950   1.460 -0.1395  0.0072  0.7683
  632SOL    HW1 2526   0.192   1.948   1.531  1.5899  0.3338 -2.6095
  632SOL    HW2 2527   0.267   1.874   1.409  0.4256  1.3458 -0.3313
  632SOL     MW 2528   0.254   1.940   1.462  0.1632  0.2269  0.1775
  633SOL     OW 2529   2.546   0.535   0.290  0.7902 -0.4355 -0.0162
  633SOL    HW1 2530   2.597   0.505   0.369 -0.0403  3.1644  2.0931
  633SOL    HW2 2531   2.544   0.457   0.240  2.2847  0.8427  0.9412
  633SOL     MW 2532   2.552   0.521   0.294  0.8778  0.2081  0.3884
  634SOL     OW 2533   2.712   3.071   0.640  0.3038 -0.5218 -0.3681
  634SOL    HW1 2534   2.714   3.162   0.655  0.0854 -1.8490 -1.5955
  634SOL    HW2 2535   2.664   3.064   0.559  0.2879 -0.8596 -1.3181
  634SOL     MW 2536   2.706   3.082   0.632  0.2729 -0.7415 -0.6554
  635SOL     OW 2537   2.584   0.136   1.832  0.0008 -0.3430  0.5868
  635SOL    HW1 2538   2.654   0.087   1.786  1.8243 -0.4877  0.3056
  635SOL    HW2 2539   2.622   0.226   1.838 -1.7160 -2.0151  0.2569
  635SOL     MW 2540   2.598   0.141   1.827  0.0149 -0.5827  0.5062
  636SOL     OW 2541   2.785   1.585   0.863  0.3529  0.3293 -0.1113
  636SOL    HW1 2542   2.695   1.546   0.872  1.5198 -0.9438  3.3332
  636SOL    HW2 2543   2.773   1.677   0.875 -1.9945 -1.4803 -1.5522
  636SOL     MW 2544   2.772   1.592   0.866  0.1971 -0.0774  0.1530
  637SOL     OW 2545   2.889   1.521   0.619 -0.2666  0.0489  0.7344
  637SOL    HW1 2546   2.964   1.582   0.626 -0.6126  2.7139  0.0991
  637SOL    HW2 2547   2.831   1.546   0.690  0.5638  1.0305 -1.2021
  637SOL     MW 2548   2.892   1.532   0.629 -0.2027  0.5300  0.3951
  638SOL     OW 2549   2.712   0.522   0.521 -0.3737 -0.3165  0.3331
  638SOL    HW1 2550   2.806   0.536   0.498 -0.6710 -0.4290 -0.2503
  638SOL    HW2 2551   2.713   0.530   0.619  1.4318  2.4841  2.2911
  638SOL     MW 2552   2.724   0.525   0.531 -0.1747  0.0382  0.5145
  639SOL     OW 2553   1.737   0.026   0.511  0.4599 -0.5007 -0.0304
  639SOL    HW1 2554   1.640   0.041   0.498  3.0115  2.9859  1.2319
  639SOL    HW2 2555   1.763  -0.062   0.472  1.0466 -1.9600  0.8801
  639SOL     MW 2556   1.728   0.017   0.504  0.8740 -0.2332  0.2563
  640SOL     OW 2557   0.308   1.332   0.081 -0.0586 -0.1174  0.2392
  640SOL    HW1 2558   0.341   1.356  -0.007  3.9350 -3.0523 -0.4165
  640SOL    HW2 2559   0.317   1.236   0.082  2.0610  0.4098 -1.1284
  640SOL     MW 2560   0.313   1.323   0.069  0.7480 -0.4351 -0.0278
  641SOL     OW 2561   2.222   0.430   0.407  0.0119 -0.5006 -0.4881
  641SOL    HW1 2562   2.195   0.397   0.322  0.9570  0.2578  2.0363
  641SOL    HW2 2563   2.304   0.382   0.438 -0.1072 -0.5164  0.0909
  641SOL     MW 2564   2.230   0.420   0.400  0.1209 -0.4026 -0.0786
  642SOL     OW 2565   0.078   0.006   0.489 -0.0708  0.6249  0.3116
  642SOL    HW1 2566   0.035   0.092   0.518  0.4545  0.2832  0.3708
  642SOL    HW2 2567   0.027  -0.064   0.522  1.4771 -1.6418 -2.1331
  642SOL     MW 2568   0.066   0.008   0.497  0.2028  0.2808 -0.0031
  643SOL     OW 2569   2.002   0.331   1.724  0.2830 -0.0139 -0.8466
  643SOL    HW1 2570   1.916   0.313   1.768  2.6414 -0.3082 -1.5406
  643SOL    HW2 2571   2.027   0.258   1.663  0.2722 -1.0958  0.9345
  643SOL     MW 2572   1.994   0.319   1.722  0.5927 -0.1955 -0.7032
  644SOL     OW 2573   2.681   1.853   0.997  0.2671 -0.1169 -0.2248
  644SOL    HW1 2574   2.709   1.794   1.069 -0.7098  0.1582 -1.2449
  644SOL    HW2 2575   2.587   1.841   0.980 -1.5187 -1.6203  0.9124
  644SOL     MW 2576   2.672   1.843   1.004 -0.0974 -0.2790 -0.2094
  645SOL     OW 2577   2.823   0.833   0.733  0.6568  0.2456  0.3494
  645SOL    HW1 2578   2.890   0.761   0.744 -2.5071 -1.2114  0.3565
  645SOL    HW2 2579   2.743   0.805   0.772 -0.2921  0.5161 -0.2256
  645SOL     MW 2580   2.821   0.820   0.740  0.1141  0.0891  0.2745
  646SOL     OW 2581   0.080   2.295   0.874 -0.2394  0.4180  0.0124
  646SOL    HW1 2582   0.107   2.206   0.848  0.1189  0.2455  1.6691
  646SOL    HW2 2583   0.048   2.325   0.787  0.7370 -0.5304 -3.3415
  646SOL     MW 2584   0.080   2.287   0.859 -0.0633  0.2701 -0.2115
  647SOL     OW 2585   2.718   0.486   2.984 -0.3867  0.1147  0.1493
  647SOL    HW1 2586   2.651   0.421   2.992  0.3180  0.6694 -1.1243
  647SOL    HW2 2587   2.689   0.559   3.038  0.4900  0.5564  0.6167
  647SOL     MW 2588   2.705   0.487   2.992 -0.1781  0.2462  0.0429
  648SOL     OW 2589   2.267   0.739   1.102  0.6378  0.0393  0.5709
  648SOL    HW1 2590   2.187   0.689   1.088  1.5043  2.0164 -0.1716
  648SOL    HW2 2591   2.252   0.774   1.188  1.3417 -1.6747  0.1494
  648SOL     MW 2592   2.254   0.737   1.112  0.8450  0.0740  0.4173
  649SOL     OW 2593   2.406   2.708   1.314 -0.4710 -0.1181 -0.1729
  649SOL    HW1 2594   2.500   2.739   1.319 -0.4357 -1.6866 -0.0107
  649SOL    HW2 2595   2.407   2.609   1.293  1.6644  0.3224  1.5410
  649SOL     MW 2596   2.419   2.699   1.312 -0.1846 -0.2669  0.0746
  650SOL     OW 2597   2.778   0.227   0.664 -0.1361 -0.4414 -0.5381
  650SOL    HW1 2598   2.844   0.216   0.731  2.1870  2.6742 -1.7059
  650SOL    HW2 2599   2.831   0.239   0.587 -1.2725  2.1916 -1.6523
  650SOL     MW 2600   2.794   0.227   0.663  0.0205  0.3171 -0.8392
  651SOL     OW 2601   0.004   0.450   1.034 -0.2330  0.4604 -0.4285
  651SOL    HW1 2602   0.065   0.453   0.957  0.1538 -2.0336  0.0133
  651SOL    HW2 2603  -0.071   0.505   1.014  0.8525 -0.9722 -2.8906
  651SOL     MW 2604   0.002   0.458   1.021 -0.0388 -0.0577 -0.6951
  652SOL     OW 2605   2.378   1.495   3.016 -0.1762  0.0043 -0.0693
  652SOL    HW1 2606   2.433   1.517   2.939 -2.6799  0.4369  0.7848
  652SOL    HW2 2607   2.293   1.535   3.015  1.2834 -0.9811  1.3968
  652SOL     MW 2608   2.374   1.503   3.006 -0.3139 -0.0686  0.2369
  653SOL     OW 2609   1.834   0.456   0.326  0.0622 -0.0891 -0.4099
  653SOL    HW1 2610   1.804   0.374   0.283 -3.6181 -2.2431  2.2335
  653SOL    HW2 2611   1.927   0.456   0.316 -0.1668 -1.7208  2.5581
  653SOL     MW 2612   1.842   0.445   0.319 -0.4536 -0.5886  0.3305
  654SOL     OW 2613   2.432   1.004   0.733  0.4404 -0.3807  0.0986
  654SOL    HW1 2614   2.378   0.979   0.660  0.1211  2.6573  1.2311
  654SOL    HW2 2615   2.474   0.912   0.771 -0.9777  0.0875  0.8645
  654SOL     MW 2616   2.431   0.988   0.729  0.2112  0.0819  0.3491
  655SOL     OW 2617   2.883   0.853   0.373  0.1681 -0.0265  0.3031
  655SOL    HW1 2618   2.857   0.893   0.455 -3.1019 -2.4998  1.7307
  655SOL    HW2 2619   2.916   0.766   0.393 -0.5541  2.3231  1.0113
  655SOL     MW 2620   2.884   0.847   0.387 -0.3586 -0.0428  0.5849
  656SOL     OW 2621   1.784   2.647   1.366  0.3801  0.2417  0.3535
  656SOL    HW1 2622   1.826   2.711   1.419 -0.5483  0.2831  0.2580
  656SOL    HW2 2623   1.852   2.598   1.319 -1.1326 -0.5231  1.0451
  656SOL     MW 2624   1.799   2.649   1.367  0.0580  0.1462  0.4322
  657SOL     OW 2625   0.140   1.769   1.135 -0.4399 -0.4523 -0.2941
  657SOL    HW1 2626   0.220   1.823   1.106  2.5600 -0.1488  2.0779
  657SOL    HW2 2627   0.165   1.681   1.149 -1.5965 -1.1627  2.4749
  657SOL     MW 2628   0.154   1.765   1.133 -0.1967 -0.5060  0.3842
  658SOL     OW 2629   2.639   1.305   0.247  0.2226 -0.3926  0.2151
  658SOL    HW1 2630   2.618   1.229   0.305  2.2764  1.1785 -2.0461
  658SOL    HW2 2631   2.671   1.378   0.302  1.2883  0.3227  0.3905
  658SOL     MW 2632   2.640   1.305   0.262  0.6342 -0.0909 -0.0601
  659SOL     OW 2633   2.208   1.562   0.980  0.2511  0.4279  0.2752
  659SOL    HW1 2634   2.294   1.531   1.003 -0.4131 -0.6309  0.2748
  659SOL    HW2 2635   2.154   1.548   1.062 -4.0696 -2.3559  1.4273
  659SOL     MW 2636   2.212   1.556   0.994 -0.4066 -0.0791  0.4272
  660SOL     OW 2637   2.098   1.457   1.725  0.0241 -0.0022 -0.0016
  660SOL    HW1 2638   2.100   1.464   1.818  0.7569 -2.5579  0.3036
  660SOL    HW2 2639   2.008   1.423   1.702 -0.1485 -1.1120 -1.6755
  660SOL     MW 2640   2.086   1.454   1.734  0.0980 -0.4859 -0.1822
  661SOL     OW 2641   2.493   0.975   0.184 -0.1872  0.3177 -0.0203
  661SOL    HW1 2642   2.539   1.009   0.266  1.3488  4.7105  0.6394
  661SOL    HW2 2643   2.451   0.899   0.217  2.2843 -2.5065 -1.7883
  661SOL     MW 2644   2.493   0.970   0.199  0.3416  0.5247 -0.1665
  662SOL     OW 2645   2.595   2.973   0.891 -0.2220 -0.0930 -0.2816
  662SOL    HW1 2646   2.524   3.031   0.910  1.3739 -1.9609  1.2148
  662SOL    HW2 2647   2.639   3.006   0.809  1.6399 -2.0939 -0.5624
  662SOL     MW 2648   2.591   2.985   0.883  0.2342 -0.6035 -0.1212
  663SOL     OW 2649   2.659   1.477   0.450  0.2748  0.1065  0.0221
  663SOL    HW1 2650   2.618   1.562   0.448 -1.0356 -2.0984  1.8518
  663SOL    HW2 2651   2.753   1.495   0.471  3.2992 -1.9445 -0.2264
  663SOL     MW 2652   2.666   1.491   0.452  0.5009 -0.4550  0.2307
  664SOL     OW 2653   2.596   1.512   1.607 -0.4005 -0.5882  0.8597
  664SOL    HW1 2654   2.571   1.588   1.548 -1.1754 -1.6091 -2.1107
  664SOL    HW2 2655   2.515   1.472   1.616  1.7705 -2.8805 -1.6235
  664SOL     MW 2656   2.582   1.517   1.600 -0.2163 -1.0253  0.1402
  665SOL     OW 2657   2.778   0.767   2.105 -0.0234  0.0732  0.3310
  665SOL    HW1 2658   2.781   0.797   2.012 -0.7846 -0.4972  0.3453
  665SOL    HW2 2659   2.840   0.694   2.099 -1.0965 -1.2051 -2.1295
  665SOL     MW 2660   2.786   0.761   2.092 -0.2654 -0.1707  0.0082
  666SOL     OW 2661   2.752   3.052   1.733  0.2108  0.2457 -0.4441
  666SOL    HW1 2662   2.792   3.058   1.642 -0.1845 -0.1349  0.0561
  666SOL    HW2 2663   2.703   2.966   1.736 -0.3054 -0.4157  2.7430
  666SOL     MW 2664   2.750   3.042   1.722  0.0905  0.1082  0.0424
  667SOL     OW 2665   1.986   2.707   1.703  0.1127  0.0746 -0.1134
  667SOL    HW1 2666   2.007   2.677   1.790  1.6979 -1.4385 -0.9381
  667SOL    HW2 2667   2.053   2.774   1.685  2.6418  1.8869  0.4336
  667SOL     MW 2668   1.997   2.712   1.712  0.6556  0.1140 -0.1500
  668SOL     OW 2669   2.700   0.532   0.811  0.2571  0.2716 -0.1354
  668SOL    HW1 2670   2.770   0.554   0.879  0.4337  4.2774  1.0622
  668SOL    HW2 2671   2.655   0.617   0.800  0.6803 -2.2163 -3.6637
  668SOL     MW 2672   2.703   0.546   0.818  0.3362  0.4719 -0.4429
  669SOL     OW 2673   0.124   0.901   0.765  0.4546 -0.1314  0.3884
  669SOL    HW1 2674   0.073   0.978   0.783 -0.6146 -2.3502 -2.8986
  669SOL    HW2 2675   0.169   0.903   0.848  0.1461  0.2508  1.6593
  669SOL     MW 2676   0.123   0.912   0.778  0.2729 -0.3737  0.1224
  670SOL     OW 2677   2.905   0.319   0.209 -0.2628 -0.4697 -0.1449
  670SOL    HW1 2678   2.937   0.269   0.127  0.0510 -0.7041  0.8897
  670SOL    HW2 2679   2.924   0.412   0.194 -1.4607 -1.5868 -1.2793
  670SOL     MW 2680   2.912   0.325   0.196 -0.3795 -0.6480 -0.1580
  671SOL     OW 2681   1.998   3.040   1.576  0.3164  0.1069 -0.3503
  671SOL    HW1 2682   1.948   2.991   1.509 -1.5894  0.4502 -0.9324
  671SOL    HW2 2683   1.930   3.046   1.649  2.1419 -1.0974  1.1525
  671SOL     MW 2684   1.982   3.035   1.577  0.3058 -0.0067 -0.2288
  672SOL     OW 2685   1.839   1.702   1.292 -0.1840  0.4979 -0.1509
  672SOL    HW1 2686   1.832   1.781   1.351  0.2792 -1.0434 -2.5966
  672SOL    HW2 2687   1.883   1.724   1.210  2.3029 -0.8512 -0.3523
  672SOL     MW 2688   1.844   1.716   1.289  0.2053  0.1165 -0.5001
  673SOL     OW 2689   2.770   1.074   0.654  0.0169 -0.3956  0.3908
  673SOL    HW1 2690   2.789   0.989   0.692  0.1483 -3.6712 -1.9822
  673SOL    HW2 2691   2.849   1.123   0.648  0.7110 -1.2277  3.5084
  673SOL     MW 2692   2.783   1.069   0.658  0.1258 -0.9376  0.4890
  674SOL     OW 2693   2.476   0.007   1.289  0.1596 -0.1636  0.5749
  674SOL    HW1 2694   2.418  -0.001   1.219  1.9914 -0.2354  0.5600
  674SOL    HW2 2695   2.497  -0.078   1.324  0.1518  0.2905 -0.8452
  674SOL     MW 2696   2.471  -0.005   1.284  0.4003 -0.1131  0.3856
  675SOL     OW 2697   2.974   0.911   1.048 -0.5399 -0.1034 -0.5514
  675SOL    HW1 2698   3.045   0.895   1.106  2.1954  1.7911 -0.8901
  675SOL    HW2 2699   3.009   0.974   0.979 -1.8249  2.1387 -3.0059
  675SOL     MW 2700   2.988   0.917   1.046 -0.3486  0.4424 -0.9200
  676SOL     OW 2701   2.965   1.438   1.686  0.1005 -0.0152 -0.2757
  676SOL    HW1 2702   2.902   1.359   1.682 -1.0514 -2.0954  1.1308
  676SOL    HW2 2703   2.998   1.430   1.775 -6.6147 -0.4107 -0.3938
  676SOL     MW 2704   2.961   1.426   1.697 -0.9375 -0.3418 -0.1057
  677SOL     OW 2705   2.359   0.584   2.046  0.2209 -0.1377  0.3974
  677SOL    HW1 2706   2.304   0.546   1.970  0.2002 -3.1343 -2.2784
  677SOL    HW2 2707   2.316   0.667   2.058 -2.5008 -4.0610 -0.0495
  677SOL     MW 2708   2.346   0.590   2.037 -0.1409 -1.0507 -0.0146
  678SOL     OW 2709   2.475   1.672   0.343 -0.3981 -0.4948 -0.4517
  678SOL    HW1 2710   2.390   1.696   0.373  0.5933  0.3011  0.2422
  678SOL    HW2 2711   2.463   1.590   0.300  3.1207 -1.3296 -2.1400
  678SOL     MW 2712   2.462   1.664   0.341  0.1970 -0.4999 -0.5829
  679SOL     OW 2713   2.190   0.454   1.307  0.4231  0.3649 -0.5727
  679SOL    HW1 2714   2.187   0.363   1.270  0.8999 -1.2002  2.5029
  679SOL    HW2 2715   2.105   0.474   1.346  2.0158  1.6273 -0.6424
  679SOL     MW 2716   2.178   0.445   1.307  0.6961  0.3250 -0.1761
  680SOL     OW 2717   2.343   0.173   1.497 -0.6448 -0.1179 -0.1393
  680SOL    HW1 2718   2.250   0.181   1.494 -2.0666 -0.6828 -0.4179
  680SOL    HW2 2719   2.354   0.106   1.426  0.9744  2.2937  0.6692
  680SOL     MW 2720   2.332   0.166   1.487 -0.6188  0.1258 -0.0694
  681SOL     OW 2721   0.270   0.607   1.578 -0.3081 -0.4730  0.1067
  681SOL    HW1 2722   0.273   0.563   1.668  0.7102 -0.9012 -1.7342
  681SOL    HW2 2723   0.294   0.541   1.512 -2.2544 -0.1197 -0.4848
  681SOL     MW 2724   0.274   0.593   1.581 -0.4306 -0.4829 -0.2143
  682SOL     OW 2725   0.143   2.810   1.522  0.3793 -0.2424  0.0806
  682SOL    HW1 2726   0.204   2.884   1.533 -0.5398  0.1450 -3.4412
  682SOL    HW2 2727   0.059   2.851   1.552 -0.3088  3.7999  0.0978
  682SOL     MW 2728   0.140   2.825   1.528  0.1672  0.3421 -0.3818
  683SOL     OW 2729   2.062   0.819   2.967  0.3316 -0.1995  0.1916
  683SOL    HW1 2730   1.992   0.758   2.998 -0.0612  0.4221 -1.9024
  683SOL    HW2 2731   2.044   0.901   3.026 -1.8773  2.0986  2.8857
  683SOL     MW 2732   2.050   0.822   2.979 -0.0116  0.1858  0.2708
  684SOL     OW 2733   2.227   1.677   0.685 -0.7889  0.7524 -0.6170
  684SOL    HW1 2734   2.218   1.677   0.587 -0.0626 -0.2724  1.7965
  684SOL    HW2 2735   2.166   1.612   0.717  0.1506 -2.0678  0.0451
  684SOL     MW 2736   2.218   1.669   0.676 -0.5691  0.2451 -0.2112
  685SOL     OW 2737   2.690   1.680   1.234  0.2533 -0.4273 -0.6313
  685SOL    HW1 2738   2.730   1.715   1.316 -0.1484 -0.4341  1.5616
  685SOL    HW2 2739   2.665   1.595   1.265 -0.1109  1.7124 -2.6394
  685SOL     MW 2740   2.692   1.674   1.249  0.1522 -0.1459 -0.6069
  686SOL     OW 2741   2.860   0.714   1.438 -0.1325  0.1558  0.4050
  686SOL    HW1 2742   2.877   0.671   1.527  0.8968 -0.4860  0.3023
  686SOL    HW2 2743   2.948   0.736   1.424 -1.8984 -2.5499  0.1229
  686SOL     MW 2744   2.874   0.712   1.448 -0.2297 -0.2859  0.3542
  687SOL     OW 2745   2.150   0.201   1.225  0.0145 -0.7108  0.2004
  687SOL    HW1 2746   2.193   0.129   1.175 -0.5378 -2.3313 -0.4010
  687SOL    HW2 2747   2.066   0.220   1.172 -0.3150 -0.7927  0.6445
  687SOL     MW 2748   2.144   0.194   1.211 -0.1019 -0.9354  0.1797
  688SOL     OW 2749   2.394   0.613   1.473  0.0093  0.5465 -0.4622
  688SOL    HW1 2750   2.354   0.578   1.391  2.0728  0.9938  0.3945
  688SOL    HW2 2751   2.320   0.651   1.521 -0.1242 -1.6533 -1.7369
  688SOL     MW 2752   2.379   0.613   1.468  0.2640  0.3153 -0.5174
  689SOL     OW 2753   2.428   0.714   2.903 -0.0340  0.0977  0.1899
  689SOL    HW1 2754   2.369   0.783   2.882 -0.7626 -0.4900  0.3628
  689SOL    HW2 2755   2.517   0.759   2.911  1.0202  1.2336  1.9197
  689SOL     MW 2756   2.432   0.729   2.901  0.0089  0.1700  0.4410
  690SOL     OW 2757   2.037   0.899   1.862  0.3898  0.6621 -0.4434
  690SOL    HW1 2758   1.997   0.812   1.884 -0.8065  2.0216  0.2901
  690SOL    HW2 2759   2.055   0.907   1.765  3.6037  0.8958 -1.7468
  690SOL     MW 2760   2.034   0.889   1.852  0.6560  0.8723 -0.5186
  691SOL     OW 2761   2.366   0.237   0.836  0.3562 -0.2771  0.1409
  691SOL    HW1 2762   2.446   0.268   0.877  0.0344 -1.6752 -1.0680
  691SOL    HW2 2763   2.297   0.306   0.851 -1.9553 -0.6929 -0.5460
  691SOL     MW 2764   2.367   0.250   0.844  0.0087 -0.5164 -0.1093
  692SOL     OW 2765   2.902   1.637   1.505  0.8391 -0.6042  0.5407
  692SOL    HW1 2766   2.939   1.588   1.582 -0.9463  0.8187 -0.1645
  692SOL    HW2 2767   2.927   1.730   1.512  0.4729  1.2859  2.2442
  692SOL     MW 2768   2.910   1.642   1.516  0.5552 -0.1671  0.6724
  693SOL     OW 2769   2.266   0.397   0.073 -0.6761  0.1087  0.0839
  693SOL    HW1 2770   2.194   0.353   0.033  0.4043 -0.3889 -0.1380
  693SOL    HW2 2771   2.254   0.489   0.053 -0.5045 -0.5960 -1.0062
  693SOL     MW 2772   2.255   0.403   0.065 -0.5109 -0.0499 -0.0892
  694SOL     OW 2773   1.932   1.180   1.078  0.2889 -0.4924 -0.5473
  694SOL    HW1 2774   2.029   1.166   1.094  2.4924  0.9956 -0.8509
  694SOL    HW2 2775   1.896   1.103   1.130 -0.6162  1.6779  2.2322
  694SOL     MW 2776   1.940   1.168   1.087  0.4602 -0.0097 -0.2206
  695SOL     OW 2777   3.011   1.434   1.322 -0.3533 -0.1366 -0.1208
  695SOL    HW1 2778   2.969   1.454   1.239 -2.2079 -1.3613  1.2807
  695SOL    HW2 2779   2.984   1.507   1.386 -0.4273  0.2395 -1.7318
  695SOL     MW 2780   3.002   1.446   1.320 -0.6078 -0.2485 -0.1484
  696SOL     OW 2781   2.088   1.360   0.775  0.4261  0.7562 -0.3670
  696SOL    HW1 2782   2.100   1.416   0.851 -1.7468 -1.8475 -0.6297
  696SOL    HW2 2783   2.031   1.287   0.807 -1.5411 -3.4777 -0.2747
  696SOL     MW 2784   2.082   1.358   0.790 -0.1202 -0.1460 -0.3895
  697SOL     OW 2785   2.870   1.003   2.214 -0.1863  0.0451 -0.0722
  697SOL    HW1 2786   2.839   1.088   2.227  1.3891  0.5520 -0.2252
  697SOL    HW2 2787   2.809   0.953   2.162  2.1029  0.9407 -0.9547
  697SOL     MW 2788   2.858   1.008   2.209  0.3236  0.2301 -0.2088
  698SOL     OW 2789   2.529   0.337   0.038  0.4452 -0.3706 -0.1001
  698SOL    HW1 2790   2.431   0.353   0.043 -0.0526 -1.6289  0.7053
  698SOL    HW2 2791   2.565   0.284   0.106 -2.1844 -2.1112 -2.0743
  698SOL     MW 2792   2.521   0.332   0.047  0.0326 -0.7662 -0.2543
  699SOL     OW 2793   1.871   1.604   2.045  0.3771  0.9195 -0.0806
  699SOL    HW1 2794   1.838   1.511   2.033  2.2466  2.3001  0.0137
  699SOL    HW2 2795   1.971   1.612   2.037  0.1483  1.3897 -2.1384
  699SOL     MW 2796   1.880   1.593   2.042  0.5936  1.1637 -0.3396
  700SOL     OW 2797   2.735   0.918   1.585 -0.1748  0.2332  0.6091
  700SOL    HW1 2798   2.762   1.001   1.538 -0.9565  0.6864  2.4665
  700SOL    HW2 2799   2.765   0.844   1.533 -1.5970 -0.3877  0.3915
  700SOL     MW 2800   2.743   0.919   1.572 -0.4656  0.2111  0.8254
  701SOL     OW 2801   1.700   1.171   2.482 -0.1616 -0.2041  0.1095
  701SOL    HW1 2802   1.794   1.161   2.479  0.6821 -0.1227 -0.2883
  701SOL    HW2 2803   1.673   1.236   2.557  1.2135  0.4588 -0.8632
  701SOL     MW 2804   1.709   1.179   2.491  0.1311 -0.1059 -0.0713
  702SOL     OW 2805   2.146   0.386   0.822 -0.1875 -0.1686  0.1562
  702SOL    HW1 2806   2.118   0.314   0.768  0.5383  0.0271 -0.1605
  702SOL    HW2 2807   2.204   0.446   0.770 -0.3377  1.9459 -0.3344
  702SOL     MW 2808   2.150   0.385   0.808 -0.1115  0.1362  0.0497
  703SOL     OW 2809   2.684   1.257   1.043  0.1107 -0.2235  0.0468
  703SOL    HW1 2810   2.674   1.242   0.949  0.5321  0.9928  0.6282
  703SOL    HW2 2811   2.686   1.171   1.084 -2.5038 -2.2973  1.2545
  703SOL     MW 2812   2.683   1.244   1.036 -0.1787 -0.3366  0.2828
  704SOL     OW 2813   3.095   1.213   0.150 -0.3106  0.3874 -0.1771
  704SOL    HW1 2814   3.000   1.224   0.134 -0.0724 -0.3924  3.0373
  704SOL    HW2 2815   3.098   1.212   0.244  0.2518  1.1622  1.0998
  704SOL     MW 2816   3.083   1.214   0.160 -0.2050  0.3868  0.4155
  705SOL     OW 2817   2.193   1.645   1.277  0.0915 -0.1210  0.4898
  705SOL    HW1 2818   2.142   1.673   1.351  0.1984  2.9314 -2.1805
  705SOL    HW2 2819   2.229   1.560   1.308  0.8460  0.5553  2.0654
  705SOL     MW 2820   2.191   1.637   1.291  0.2052  0.3710  0.3454
  706SOL     OW 2821   2.971   1.256   0.641 -1.0035  0.2221 -0.0148
  706SOL    HW1 2822   3.013   1.229   0.560 -0.5300 -0.5452 -3.6035
  706SOL    HW2 2823   2.947   1.350   0.622 -0.4829  1.2851 -1.5461
  706SOL     MW 2824   2.973   1.265   0.628 -0.8724  0.2611 -0.6903
  707SOL     OW 2825   2.307   0.041   1.028  0.4241 -0.0282 -0.3889
  707SOL    HW1 2826   2.349   0.084   0.953 -1.0686 -0.2473  1.5355
  707SOL    HW2 2827   2.230   0.008   0.985  1.8480  1.9385  0.1592
  707SOL     MW 2828   2.302   0.042   1.013  0.4150  0.2023 -0.0627
  708SOL     OW 2829   2.405   1.450   0.196  0.2397  0.0615 -0.1795
  708SOL    HW1 2830   2.499   1.430   0.192  0.0013 -1.8409  1.3476
  708SOL    HW2 2831   2.385   1.491   0.109 -0.8873 -1.4970 -1.5306
  708SOL     MW 2832   2.414   1.453   0.184  0.0595 -0.3951 -0.1563
  709SOL     OW 2833   1.771   1.648   0.224 -0.1506 -0.1076 -0.9466
  709SOL    HW1 2834   1.760   1.644   0.127  0.4004 -0.7112 -1.4976
  709SOL    HW2 2835   1.677   1.640   0.244 -1.0638  1.1924 -0.5952
  709SOL     MW 2836   1.757   1.647   0.214 -0.1984 -0.0157 -0.9729
  710SOL     OW 2837   2.162   1.103   1.184  0.2142  0.7971  0.0859
  710SOL    HW1 2838   2.226   1.108   1.108 -0.6595  0.0291  1.2280
  710SOL    HW2 2839   2.182   1.021   1.226  0.8177  1.2748 -1.1542
  710SOL     MW 2840   2.173   1.093   1.180  0.1785  0.7588  0.0730
  711SOL     OW 2841   2.317   0.104   1.755 -0.1214 -0.1939  0.5199
  711SOL    HW1 2842   2.414   0.113   1.779  1.4692 -1.3086 -0.2911
  711SOL    HW2 2843   2.321   0.127   1.659  1.9415 -1.2755  1.9233
  711SOL     MW 2844   2.330   0.108   1.746  0.3606 -0.4837  0.5981
  712SOL     OW 2845   1.905   0.642   3.095  0.6502 -0.0179 -0.0499
  712SOL    HW1 2846   1.818   0.668   3.059 -1.9711 -0.8146  0.2132
  712SOL    HW2 2847   1.897   0.647   3.191  2.1208 -1.1174 -1.6799
  712SOL     MW 2848   1.893   0.647   3.103  0.4983 -0.2681 -0.2303
  713SOL     OW 2849   2.526   0.750   1.095 -0.1753  0.0781 -0.0880
  713SOL    HW1 2850   2.563   0.667   1.118 -1.4228 -1.9548 -2.7068
  713SOL    HW2 2851   2.433   0.728   1.115 -3.3634 -1.3975  1.5794
  713SOL     MW 2852   2.519   0.737   1.101 -0.7605 -0.3848 -0.2135
  714SOL     OW 2853   2.186   0.157   1.989  0.9115 -0.3826 -0.5376
  714SOL    HW1 2854   2.258   0.141   2.057 -1.6012 -0.3786  2.5417
  714SOL    HW2 2855   2.239   0.146   1.907  0.4605 -1.5907  2.0327
  714SOL     MW 2856   2.202   0.154   1.987  0.5205 -0.5415  0.2078
  715SOL     OW 2857   1.831   2.007   1.729  0.5182  0.7274  0.5263
  715SOL    HW1 2858   1.917   2.061   1.713  1.3107  1.6326  1.6246
  715SOL    HW2 2859   1.846   1.924   1.777 -0.1823 -0.3822 -0.6017
  715SOL     MW 2860   1.844   2.003   1.733  0.5303  0.7004  0.5224
  716SOL     OW 2861   2.314   0.562   0.699  0.6740 -0.1224 -0.2588
  716SOL    HW1 2862   2.368   0.518   0.632  0.0531 -1.0888 -2.8551
  716SOL    HW2 2863   2.250   0.613   0.645 -0.0592 -0.7794 -2.4476
  716SOL     MW 2864   2.313   0.563   0.683  0.4954 -0.3366 -0.8902
  717SOL     OW 2865   2.843   1.594   2.881  0.3399  0.5949  0.3021
  717SOL    HW1 2866   2.923   1.543   2.910 -0.9540  0.2282 -2.8927
  717SOL    HW2 2867   2.812   1.657   2.946 -0.2063  1.0584  0.6752
  717SOL     MW 2868   2.850   1.595   2.893  0.0971  0.6077 -0.0702
  718SOL     OW 2869   2.673   1.423   1.367 -0.0433  0.2954 -0.9021
  718SOL    HW1 2870   2.678   1.452   1.459 -3.0172  0.3248  0.3580
  718SOL    HW2 2871   2.720   1.338   1.356  1.7494  0.4430  0.6938
  718SOL     MW 2872   2.680   1.416   1.377 -0.1991  0.3187 -0.5253
  719SOL     OW 2873   2.197   1.257   0.548  0.1020 -0.0913 -0.3236
  719SOL    HW1 2874   2.294   1.288   0.552 -0.8710 -0.3668  1.6109
  719SOL    HW2 2875   2.169   1.278   0.641 -0.0959 -1.6766 -0.4719
  719SOL     MW 2876   2.206   1.264   0.561 -0.0525 -0.3368 -0.0879
  720SOL     OW 2877   2.830   1.218   0.041 -0.6489  0.0170  0.0559
  720SOL    HW1 2878   2.825   1.125   0.060 -0.4680 -1.3337 -0.5084
  720SOL    HW2 2879   2.756   1.255   0.090 -2.6056 -1.7112  1.3690
  720SOL     MW 2880   2.819   1.211   0.050 -0.8832 -0.3893  0.1547
  721SOL     OW 2881   2.486   0.895   1.397 -0.4928 -0.0904  0.1160
  721SOL    HW1 2882   2.479   0.802   1.371 -1.8141  1.4636 -1.8873
  721SOL    HW2 2883   2.544   0.885   1.474  2.1030 -1.6807  0.2280
  721SOL     MW 2884   2.493   0.881   1.404 -0.3246 -0.0952 -0.1335
  722SOL     OW 2885   2.587   1.089   0.425  0.1854  0.0891 -1.1075
  722SOL    HW1 2886   2.528   1.156   0.469 -2.8358  4.3215  1.0323
  722SOL    HW2 2887   2.664   1.081   0.482  1.4876  2.1099 -0.4832
  722SOL     MW 2888   2.589   1.097   0.439 -0.0414  0.9142 -0.7428
  723SOL     OW 2889   2.316   1.395   1.567  0.2192  0.1248  0.2821
  723SOL    HW1 2890   2.270   1.369   1.484 -2.2873 -2.5858  0.5411
  723SOL    HW2 2891   2.241   1.444   1.614 -0.9783  1.2311 -0.3848
  723SOL     MW 2892   2.300   1.398   1.562 -0.2695 -0.0869  0.2283
  724SOL     OW 2893   2.465   0.372   0.562 -0.2649  0.4080 -0.0118
  724SOL    HW1 2894   2.440   0.320   0.637 -0.9581 -1.8404 -0.6775
  724SOL    HW2 2895   2.560   0.371   0.550  1.6526 -2.1474 -0.5097
  724SOL     MW 2896   2.474   0.365   0.570 -0.1033 -0.2258 -0.1653
  725SOL     OW 2897   2.594   0.502   1.187 -0.5536 -1.0970  0.3681
  725SOL    HW1 2898   2.685   0.482   1.213  0.5973 -0.2721 -1.9836
  725SOL    HW2 2899   2.545   0.504   1.267 -2.0123 -2.1116  0.4064
  725SOL     MW 2900   2.600   0.499   1.201 -0.5942 -1.1220  0.0629
  726SOL     OW 2901   2.579   2.514   0.540 -0.2857  0.2423 -0.5608
  726SOL    HW1 2902   2.504   2.563   0.506  0.8851  0.8100  1.6179
  726SOL    HW2 2903   2.553   2.500   0.630 -1.3863  0.7959 -1.7384
  726SOL     MW 2904   2.566   2.518   0.547 -0.2764  0.3903 -0.4287
  727SOL     OW 2905   2.868   0.335   1.772 -0.4381  0.3279  0.6025
  727SOL    HW1 2906   2.819   0.309   1.689  0.3117  3.3068  1.6392
  727SOL    HW2 2907   2.809   0.340   1.852  0.4530  1.0887  1.3844
  727SOL     MW 2908   2.854   0.332   1.771 -0.2216  0.8213  0.8425
  728SOL     OW 2909   2.802   1.131   2.877  0.1979 -0.0896 -0.0162
  728SOL    HW1 2910   2.793   1.206   2.817  1.4432  0.8067  1.4222
  728SOL    HW2 2911   2.807   1.172   2.960 -0.9724  0.6871 -1.3506
  728SOL     MW 2912   2.802   1.146   2.880  0.2078  0.1311 -0.0025
  729SOL     OW 2913   2.488   1.449   1.188 -0.7590 -0.0353  0.2828
  729SOL    HW1 2914   2.552   1.424   1.260 -3.0099 -1.4845  0.9750
  729SOL    HW2 2915   2.532   1.425   1.107 -0.9264  1.6856  0.1482
  729SOL     MW 2916   2.502   1.443   1.187 -1.0781  0.0005  0.3564
  730SOL     OW 2917   2.299   1.172   0.246 -0.2251  0.2779  0.7735
  730SOL    HW1 2918   2.346   1.095   0.229 -1.7755  2.5419 -0.4910
  730SOL    HW2 2919   2.358   1.247   0.239  1.8530 -2.8011  0.7552
  730SOL     MW 2920   2.313   1.172   0.243 -0.1555  0.1704  0.6042
  731SOL     OW 2921   2.799   2.048   2.918  0.3352  0.2552  0.2176
  731SOL    HW1 2922   2.765   2.029   2.834  1.0303  1.6569 -0.2170
  731SOL    HW2 2923   2.888   2.074   2.907 -1.9824  0.4035 -0.9276
  731SOL     MW 2924   2.806   2.049   2.906  0.1211  0.4597  0.0092
  732SOL     OW 2925   2.213   0.880   1.343 -0.0044 -0.2940  0.1406
  732SOL    HW1 2926   2.172   0.915   1.424  1.9162 -1.4471  0.2772
  732SOL    HW2 2927   2.308   0.890   1.375 -1.3987  1.7384  0.1396
  732SOL     MW 2928   2.220   0.886   1.358  0.0651 -0.1780  0.1585
  733SOL     OW 2929   2.377   2.822   3.018  0.4324  0.1204 -0.1740
  733SOL    HW1 2930   2.308   2.884   2.993  0.0751 -1.0334 -2.0746
  733SOL    HW2 2931   2.356   2.728   3.003  0.9889  0.6980  1.2535
  733SOL     MW 2932   2.365   2.817   3.012  0.4587  0.0444 -0.2364
  734SOL     OW 2933   1.443   0.304   2.445  0.4910 -0.6577 -0.1334
  734SOL    HW1 2934   1.438   0.271   2.533 -0.4954  1.5194  0.4248
  734SOL    HW2 2935   1.489   0.233   2.396  0.2967 -1.7860  0.3165
  734SOL     MW 2936   1.448   0.290   2.450  0.3352 -0.5193 -0.0004
  735SOL     OW 2937   2.920   0.870   2.614 -0.3209  0.1216  0.5094
  735SOL    HW1 2938   2.894   0.779   2.633  1.2402 -0.4038 -0.8021
  735SOL    HW2 2939   2.961   0.906   2.690  0.3340  3.9214 -1.8455
  735SOL     MW 2940   2.922   0.863   2.626 -0.0285  0.5537  0.0256
  736SOL     OW 2941   0.096   0.634   2.542  0.0663  0.3308  0.3878
  736SOL    HW1 2942   0.102   0.708   2.482  0.3025 -1.4718 -2.3045
  736SOL    HW2 2943   0.096   0.560   2.480 -0.4164  2.0733  1.2505
  736SOL     MW 2944   0.097   0.634   2.526  0.0338  0.3229  0.1464
  737SOL     OW 2945   2.918   0.599   2.618  0.3081 -0.0386  0.5748
  737SOL    HW1 2946   2.857   0.574   2.549  0.8732 -0.0630 -0.7606
  737SOL    HW2 2947   3.008   0.587   2.589  0.9993  0.3478  1.8882
  737SOL     MW 2948   2.922   0.594   2.605  0.4739  0.0092  0.5719
  738SOL     OW 2949   0.193   0.616   1.968  0.4496 -0.5148 -0.1840
  738SOL    HW1 2950   0.279   0.633   1.934  0.8437 -2.5482  0.2964
  738SOL    HW2 2951   0.177   0.526   1.937 -0.1425 -0.9931  0.0576
  738SOL     MW 2952   0.202   0.606   1.960  0.4235 -0.8462 -0.0887
  739SOL     OW 2953   2.500   0.984   2.040  0.2285  0.2742  0.4427
  739SOL    HW1 2954   2.425   0.942   2.007 -0.4352 -0.7428 -0.3714
  739SOL    HW2 2955   2.524   1.043   1.965 -0.2362 -4.5553 -2.0737
  739SOL     MW 2956   2.494   0.986   2.026  0.0797 -0.4972  0.0032
  740SOL     OW 2957   0.221   1.746   2.946 -0.0068 -0.1161 -0.2110
  740SOL    HW1 2958   0.175   1.665   2.954 -0.1583  0.5781  1.7796
  740SOL    HW2 2959   0.316   1.728   2.972  0.6850 -0.0238  0.2761
  740SOL     MW 2960   0.228   1.733   2.951  0.0644 -0.0123  0.1159
  741SOL     OW 2961   2.214   1.165   2.712  0.1948  0.3258 -0.7631
  741SOL    HW1 2962   2.124   1.133   2.705 -0.6212  1.9344 -0.3397
  741SOL    HW2 2963   2.205   1.212   2.795 -1.7973  2.9192 -1.3905
  741SOL     MW 2964   2.201   1.167   2.722 -0.1757  0.8802 -0.7900
  742SOL     OW 2965   1.605   1.244   2.203  0.7252  0.3163 -0.0686
  742SOL    HW1 2966   1.540   1.184   2.176  1.2084  1.1001  0.5853
  742SOL    HW2 2967   1.640   1.219   2.290 -0.3522 -1.3835  0.9595
  742SOL     MW 2968   1.601   1.233   2.211  0.6468  0.1954  0.1533
  743SOL     OW 2969   2.460   1.325   2.721 -0.4458  0.0490  0.3852
  743SOL    HW1 2970   2.370   1.319   2.704 -1.6774 -0.8015 -0.9824
  743SOL    HW2 2971   2.490   1.243   2.771 -0.1686  0.9096 -2.6680
  743SOL     MW 2972   2.452   1.313   2.725 -0.5717  0.0503 -0.1981
  744SOL     OW 2973   2.751   0.930   1.871 -0.1262 -0.5080  0.8552
  744SOL    HW1 2974   2.687   1.003   1.884 -2.1636  2.5330 -2.9227
  744SOL    HW2 2975   2.730   0.896   1.783 -1.4672 -0.7269  0.3702
  744SOL     MW 2976   2.739   0.935   1.861 -0.5720 -0.1357  0.2928
  745SOL     OW 2977   1.730   0.426   2.499  0.6185  0.1267 -0.0763
  745SOL    HW1 2978   1.710   0.468   2.413 -0.6516 -0.3595  1.0045
  745SOL    HW2 2979   1.646   0.418   2.542 -0.0794 -0.6279 -1.8979
  745SOL     MW 2980   1.717   0.430   2.493  0.3588 -0.0370 -0.1740
  746SOL     OW 2981   1.588   1.500   1.637 -0.3521  0.1777  0.0471
  746SOL    HW1 2982   1.681   1.470   1.635 -1.4742  0.8563 -1.7746
  746SOL    HW2 2983   1.569   1.489   1.730 -1.0556 -1.0758 -0.0650
  746SOL     MW 2984   1.598   1.495   1.649 -0.5930  0.1019 -0.2081
  747SOL     OW 2985   2.559   1.145   1.820 -0.4607  0.3793 -0.3505
  747SOL    HW1 2986   2.475   1.150   1.774  0.2087  1.4961 -2.6278
  747SOL    HW2 2987   2.570   1.234   1.867 -0.5881  0.1789  1.5411
  747SOL     MW 2988   2.549   1.158   1.820 -0.3892  0.5002 -0.4014
  748SOL     OW 2989   0.094   0.039   1.843 -0.0656 -0.0493  0.4985
  748SOL    HW1 2990   0.190   0.051   1.842  0.9727  0.3560 -0.1196
  748SOL    HW2 2991   0.068   0.080   1.927  1.4718  1.2762  2.0994
  748SOL     MW 2992   0.103   0.046   1.854  0.2743  0.1790  0.6282
  749SOL     OW 2993   2.507   0.526   2.709 -0.3239  0.7250  0.4278
  749SOL    HW1 2994   2.535   0.583   2.637 -2.1787  0.2142 -0.8470
  749SOL    HW2 2995   2.487   0.581   2.789  0.7119  2.0108  1.7883
  749SOL     MW 2996   2.508   0.541   2.710 -0.4320  0.8272  0.4391
  750SOL     OW 2997   2.020   3.031   1.996  0.3709 -0.4708 -0.2073
  750SOL    HW1 2998   2.075   3.115   1.993  0.4061 -1.2231  0.4194
  750SOL    HW2 2999   2.088   2.964   1.989  1.4755 -0.8583 -1.1918
  750SOL     MW 3000   2.036   3.033   1.995  0.5213 -0.6212 -0.2545
  751SOL     OW 3001   0.084   0.418   2.329  0.0094 -0.4937  0.1955
  751SOL    HW1 3002   0.092   0.336   2.373  0.3110  2.0620 -1.1219
  751SOL    HW2 3003   0.158   0.415   2.266  2.6145 -0.3909  0.6694
  751SOL     MW 3004   0.094   0.407   2.327  0.3929 -0.1429  0.0842
  752SOL     OW 3005   2.143   0.779   2.695 -0.1706 -0.5477  0.2596
  752SOL    HW1 3006   2.218   0.833   2.668 -1.0872 -1.0044 -0.1133
  752SOL    HW2 3007   2.141   0.780   2.792  0.5122  0.8119  0.1863
  752SOL     MW 3008   2.153   0.786   2.704 -0.2015 -0.4286  0.2007
  753SOL     OW 3009   2.924   0.269   2.432 -0.0086 -0.1489  0.4255
  753SOL    HW1 3010   2.874   0.220   2.374  2.8482 -0.1122 -1.5827
  753SOL    HW2 3011   2.879   0.352   2.415 -0.6074  0.1037  1.9204
  753SOL     MW 3012   2.911   0.273   2.422  0.2894 -0.1107  0.3578
  754SOL     OW 3013   2.260   2.950   2.600  0.4067 -0.2680 -0.5549
  754SOL    HW1 3014   2.285   2.944   2.509 -3.1342  1.6964 -0.6781
  754SOL    HW2 3015   2.334   2.908   2.647  0.5202 -2.5352  2.4918
  754SOL     MW 3016   2.273   2.944   2.594 -0.0455 -0.3079 -0.1691
  755SOL     OW 3017   2.726   1.503   2.492  0.0002 -0.0736  0.4411
  755SOL    HW1 3018   2.736   1.428   2.552 -1.8374  2.9025  0.6551
  755SOL    HW2 3019   2.792   1.562   2.531  1.1582 -1.1233  1.1899
  755SOL     MW 3020   2.736   1.501   2.505 -0.0894  0.1806  0.5681
  756SOL     OW 3021   2.233   1.234   3.010 -0.4286 -0.1337  0.0404
  756SOL    HW1 3022   2.288   1.302   3.051 -1.7749  1.2464  1.3597
  756SOL    HW2 3023   2.281   1.154   3.033  0.2542 -2.0062 -0.8061
  756SOL     MW 3024   2.247   1.233   3.019 -0.5162 -0.1986  0.1028
  757SOL     OW 3025   2.096   0.931   1.606 -0.2467 -0.0605 -0.4337
  757SOL    HW1 3026   2.144   0.848   1.615  1.0335  1.1198  0.1508
  757SOL    HW2 3027   2.005   0.912   1.571  0.0802 -0.1257 -1.1401
  757SOL     MW 3028   2.090   0.918   1.603 -0.0347  0.0866 -0.4498
  758SOL     OW 3029   2.195   1.707   2.661  0.4463 -0.2109  0.0295
  758SOL    HW1 3030   2.180   1.747   2.577  2.2691  2.0599 -2.1093
  758SOL    HW2 3031   2.288   1.726   2.661  0.4740 -0.3773 -0.1453
  758SOL     MW 3032   2.205   1.715   2.650  0.6905  0.0668 -0.2758
  759SOL     OW 3033   1.629   1.379   2.650 -0.2116  0.6061 -0.2374
  759SOL    HW1 3034   1.609   1.460   2.603  2.2120 -0.5580 -1.3053
  759SOL    HW2 3035   1.673   1.403   2.730  0.6487  0.7956 -1.2466
  759SOL     MW 3036   1.632   1.393   2.654  0.2217  0.4775 -0.5114
  760SOL     OW 3037   2.625   1.994   2.705 -0.1139 -0.0527  0.2110
  760SOL    HW1 3038   2.588   1.912   2.672  1.0714 -1.6941  2.5479
  760SOL    HW2 3039   2.593   2.061   2.636 -1.2686  3.3338 -0.1952
  760SOL     MW 3040   2.616   1.992   2.692 -0.1099  0.1775  0.4657
  761SOL     OW 3041   2.197   0.396   2.449  0.3374 -0.1644 -0.0279
  761SOL    HW1 3042   2.120   0.343   2.438 -1.2488  1.1247 -1.3661
  761SOL    HW2 3043   2.213   0.415   2.543 -1.9431 -0.9885  2.9671
  761SOL     MW 3044   2.189   0.391   2.460 -0.1728 -0.1030  0.1907
  762SOL     OW 3045   0.028   0.165   2.090 -0.2766  0.2446  0.6692
  762SOL    HW1 3046   0.010   0.120   2.170  0.3481  0.5888  1.5893
  762SOL    HW2 3047  -0.025   0.244   2.096 -0.8648  3.2453 -2.4324
  762SOL     MW 3048   0.018   0.170   2.101 -0.2718  0.6859  0.3814
  763SOL     OW 3049   2.378   1.068   2.301 -0.4004  0.3144  0.0698
  763SOL    HW1 3050   2.417   1.013   2.230  0.6477 -0.2850 -1.9202
  763SOL    HW2 3051   2.449   1.133   2.329 -0.7602 -1.2615  2.5564
  763SOL     MW 3052   2.392   1.070   2.295 -0.3096  0.0274  0.1353
  764SOL     OW 3053   0.438   0.300   2.794 -0.0722 -0.7315 -0.3855
  764SOL    HW1 3054   0.362   0.263   2.754  2.7140  2.0002  1.0932
  764SOL    HW2 3055   0.407   0.376   2.848  1.4683 -0.6733  1.0348
  764SOL     MW 3056   0.424   0.305   2.796  0.4986 -0.3634 -0.0030
  765SOL     OW 3057   2.767   0.093   2.317  0.1462 -0.4016  0.1724
  765SOL    HW1 3058   2.726   0.079   2.230  0.8987 -1.6754 -0.7916
  765SOL    HW2 3059   2.807   0.008   2.330 -0.9456  0.8084 -0.8823
  765SOL     MW 3060   2.767   0.080   2.307  0.1014 -0.4100 -0.0940
  766SOL     OW 3061   1.812   2.979   2.177 -0.5130 -0.2066 -0.2607
  766SOL    HW1 3062   1.882   3.004   2.113 -0.4865  0.9060  1.5945
  766SOL    HW2 3063   1.774   2.888   2.143  1.0897 -1.5627 -0.2756
  766SOL     MW 3064   1.816   2.970   2.164 -0.2980 -0.2387 -0.0179
  767SOL     OW 3065   2.648   0.640   1.899  0.2784 -0.0666  0.1803
  767SOL    HW1 3066   2.646   0.700   1.971 -1.5374 -2.0102 -0.0711
  767SOL    HW2 3067   2.557   0.621   1.882  0.6866 -0.0975  0.2636
  767SOL     MW 3068   2.636   0.646   1.907  0.0927 -0.3271  0.1581
  768SOL     OW 3069   0.002   1.542   2.936 -0.5622  0.5829  0.2871
  768SOL    HW1 3070   0.013   1.511   3.034 -0.1515 -2.2972  2.3989
  768SOL    HW2 3071   0.050   1.479   2.872 -0.8490 -0.9039  0.9562
  768SOL     MW 3072   0.009   1.529   2.941 -0.5459  0.0067  0.6540
  769SOL     OW 3073   2.416   0.667   2.339  0.3917 -0.3942 -0.4130
  769SOL    HW1 3074   2.326   0.625   2.345  0.9391 -0.1448 -1.2223
  769SOL    HW2 3075   2.436   0.634   2.250  1.4844 -0.7005  2.2279
  769SOL     MW 3076   2.406   0.657   2.328  0.6081 -0.4017 -0.1713
  770SOL     OW 3077   0.098   1.589   2.611  0.2009  0.3488 -0.1416
  770SOL    HW1 3078   0.000   1.615   2.616 -0.7239 -0.7636 -1.4585
  770SOL    HW2 3079   0.109   1.501   2.656  0.1534  1.0550 -0.0102
  770SOL     MW 3080   0.087   1.581   2.617  0.0726  0.2952 -0.2980
  771SOL     OW 3081   2.968   0.626   1.931  0.6152  0.4349  0.4663
  771SOL    HW1 3082   2.930   0.631   1.838  1.7877 -2.7322 -0.0773
  771SOL    HW2 3083   3.061   0.653   1.930  2.5073 -2.2392  1.3095
  771SOL     MW 3084   2.975   0.630   1.919  1.0195 -0.3358  0.5058
  772SOL     OW 3085   0.004   3.092   2.295 -0.3992  0.0672  0.0237
  772SOL    HW1 3086  -0.065   3.051   2.347  1.1459 -1.1953  2.5758
  772SOL    HW2 3087   0.071   3.027   2.266  0.3283  0.6893 -0.1970
  772SOL     MW 3088   0.004   3.078   2.298 -0.0993 -0.0173  0.3313
  773SOL     OW 3089   2.466   2.853   2.728 -0.1817  0.1089 -0.0020
  773SOL    HW1 3090   2.473   2.771   2.672 -1.3394 -1.0142  0.9301
  773SOL    HW2 3091   2.446   2.816   2.813 -0.9999  0.3425 -0.4570
  773SOL     MW 3092   2.465   2.837   2.732 -0.4424 -0.0085  0.0610
  774SOL     OW 3093   2.280   1.122   1.703  0.8049 -0.6164  0.3504
  774SOL    HW1 3094   2.273   1.211   1.668  0.7879 -1.1535 -0.8721
  774SOL    HW2 3095   2.200   1.076   1.660 -1.2444  0.0546 -1.8860
  774SOL     MW 3096   2.269   1.128   1.692  0.5323 -0.5987 -0.1059
  775SOL     OW 3097   2.285   2.917   2.331 -0.4999  0.2821  0.6080
  775SOL    HW1 3098   2.304   2.971   2.253  0.1293 -0.3310 -0.9494
  775SOL    HW2 3099   2.329   2.830   2.315  1.1650 -1.4144 -4.2458
  775SOL     MW 3100   2.294   2.913   2.318 -0.1972 -0.0226 -0.2379
  776SOL     OW 3101   0.077   1.483   0.102  0.7327  0.6758 -0.4777
  776SOL    HW1 3102   0.167   1.459   0.100 -1.3384 -1.8116  2.2306
  776SOL    HW2 3103   0.027   1.413   0.143  0.1177 -0.7486 -0.1017
  776SOL     MW 3104   0.082   1.470   0.107  0.3783  0.1597 -0.0708
  777SOL     OW 3105   2.966   1.072   1.770 -0.3511 -0.2357  0.2816
  777SOL    HW1 3106   2.911   1.122   1.709 -0.1480  2.0895  1.9602
  777SOL    HW2 3107   2.903   1.021   1.819  1.7615  0.6889 -2.4232
  777SOL     MW 3108   2.950   1.072   1.768 -0.0456  0.1931  0.1462
  778SOL     OW 3109   2.904   0.409   2.807  0.1950 -0.5672  0.2233
  778SOL    HW1 3110   2.831   0.439   2.867 -1.4607  2.7896  0.2611
  778SOL    HW2 3111   2.906   0.469   2.731  0.9943 -1.0395  1.5341
  778SOL     MW 3112   2.894   0.421   2.804  0.0820 -0.1866  0.4012
  779SOL     OW 3113   2.131   0.633   2.322  0.4359 -0.4276  0.6175
  779SOL    HW1 3114   2.033   0.662   2.353 -4.1233 -1.4961 -2.2191
  779SOL    HW2 3115   2.160   0.564   2.381 -0.0949 -4.7215  0.6313
  779SOL     MW 3116   2.122   0.628   2.334 -0.2356 -1.1351  0.2451
  780SOL     OW 3117   0.234   0.087   2.803  0.2308 -0.0213 -0.1324
  780SOL    HW1 3118   0.212   0.156   2.866 -2.3504  0.0867  0.1828
  780SOL    HW2 3119   0.146   0.059   2.771 -0.9917  0.1442  0.1893
  780SOL     MW 3120   0.220   0.092   2.807 -0.2710  0.0148 -0.0484
  781SOL     OW 3121   3.004   1.304   2.494  0.0152  0.0961 -0.2057
  781SOL    HW1 3122   2.991   1.352   2.416  1.0978 -1.1322  0.5724
  781SOL    HW2 3123   3.013   1.216   2.466 -1.6431  0.4339  2.8459
  781SOL     MW 3124   3.003   1.299   2.480 -0.0608 -0.0214  0.2996
  782SOL     OW 3125   0.610   1.512   3.075 -0.3976 -0.3938 -0.3770
  782SOL    HW1 3126   0.572   1.591   3.046 -0.4020  1.2018 -0.7427
  782SOL    HW2 3127   0.569   1.484   3.163  0.2813 -1.5095  1.1269
  782SOL     MW 3128   0.600   1.518   3.083 -0.3086 -0.3305 -0.2268
  783SOL     OW 3129   2.714   0.506   2.461  0.2523 -0.1799  0.0632
  783SOL    HW1 3130   2.652   0.487   2.386 -1.4805  1.5005  0.4033
  783SOL    HW2 3131   2.689   0.433   2.520 -0.8502  0.9658  0.0968
  783SOL     MW 3132   2.703   0.494   2.459 -0.1218  0.1930  0.1125
  784SOL     OW 3133   0.270   0.908   2.882  0.4363  0.3520  0.0594
  784SOL    HW1 3134   0.215   0.980   2.926  0.8522 -1.9960 -0.8394
  784SOL    HW2 3135   0.302   0.947   2.807  0.7323  3.4628  2.6343
  784SOL     MW 3136   0.267   0.923   2.878  0.5303  0.4526  0.2806
  785SOL     OW 3137   0.445   0.558   2.174  0.0133  0.2471  0.3040
  785SOL    HW1 3138   0.449   0.585   2.078 -2.4550 -3.1281 -1.9941
  785SOL    HW2 3139   0.377   0.492   2.161  0.1931 -0.4902 -1.7170
  785SOL     MW 3140   0.436   0.553   2.159 -0.2886 -0.2955 -0.2659
  786SOL     OW 3141   1.946   0.476   2.843  0.4895 -0.5166 -0.7710
  786SOL    HW1 3142   1.970   0.495   2.936  2.8617  2.3568  1.7178
  786SOL    HW2 3143   2.017   0.454   2.794 -2.6425  0.5260  1.1421
  786SOL     MW 3144   1.959   0.475   2.849  0.3892  0.0001 -0.1902
  787SOL     OW 3145   2.426   0.146   2.977  0.3197  0.3520 -0.1507
  787SOL    HW1 3146   2.497   0.098   2.933 -0.9805 -1.8682 -0.8624
  787SOL    HW2 3147   2.467   0.222   3.014 -3.0367  0.9176  0.6526
  787SOL     MW 3148   2.441   0.150   2.976 -0.2947  0.1337 -0.1386
  788SOL     OW 3149   2.851   2.932   2.389 -0.0112 -0.1958 -0.1760
  788SOL    HW1 3150   2.807   2.891   2.322 -0.8644  0.3464 -0.8313
  788SOL    HW2 3151   2.914   2.863   2.407  1.8310 -1.5492  1.0990
  788SOL     MW 3152   2.853   2.918   2.382  0.1193 -0.3028 -0.0942
  789SOL     OW 3153   0.120   0.291   2.948  0.3960 -0.9986 -0.0776
  789SOL    HW1 3154   0.060   0.230   2.994  0.1533 -0.9157 -2.7573
  789SOL    HW2 3155   0.074   0.379   2.940 -1.7192  0.8569 -1.8346
  789SOL     MW 3156   0.106   0.295   2.953  0.0849 -0.7428 -0.6630
  790SOL     OW 3157   3.066   1.018   2.427  0.0570  0.3026 -0.5585
  790SOL    HW1 3158   3.029   0.949   2.484  1.4375 -2.2224 -0.0825
  790SOL    HW2 3159   3.025   0.995   2.342 -0.7861 -1.5511  3.6090
  790SOL     MW 3160   3.056   1.006   2.423  0.1279 -0.2751  0.0542
  791SOL     OW 3161   2.700   0.320   2.654  0.3069  0.1216 -0.0047
  791SOL    HW1 3162   2.626   0.375   2.695 -0.0372  2.7269  0.3256
  791SOL    HW2 3163   2.779   0.343   2.705  1.6686 -0.4581  0.8270
  791SOL     MW 3164   2.701   0.330   2.666  0.4411  0.3888  0.1486
  792SOL     OW 3165   2.397   0.225   2.361  0.0074  0.0111 -0.5739
  792SOL    HW1 3166   2.327   0.286   2.381  0.2967 -0.0152 -1.3256
  792SOL    HW2 3167   2.438   0.200   2.441 -0.0742  0.9805  1.4180
  792SOL     MW 3168   2.393   0.230   2.374  0.0348  0.1356 -0.4103
  793SOL     OW 3169   1.856   1.075   1.951  0.3290 -0.9544 -0.3000
  793SOL    HW1 3170   1.783   1.070   1.897 -2.2725 -1.3737  2.9907
  793SOL    HW2 3171   1.921   1.020   1.906 -2.8813  2.6469 -2.0046
  793SOL     MW 3172   1.855   1.067   1.938 -0.4378 -0.5345 -0.0908
  794SOL     OW 3173   1.456   2.275   0.177  0.0982 -0.6928  0.3997
  794SOL    HW1 3174   1.475   2.340   0.107  2.4012  1.5336  0.3199
  794SOL    HW2 3175   1.513   2.309   0.247  0.5391  0.5211 -0.6028
  794SOL     MW 3176   1.466   2.288   0.177  0.4603 -0.2389  0.2569
  795SOL     OW 3177   2.332   0.967   2.577 -0.4574  0.2078  0.6060
  795SOL    HW1 3178   2.302   1.047   2.618  1.3085  2.0432 -0.8311
  795SOL    HW2 3179   2.334   0.997   2.487 -2.7816 -5.5132  1.2199
  795SOL     MW 3180   2.329   0.981   2.570 -0.5311 -0.3048  0.4974
  796SOL     OW 3181   0.233   0.659   2.784  0.4185 -0.1461 -0.7408
  796SOL    HW1 3182   0.234   0.745   2.824 -1.8951 -2.3976  2.5723
  796SOL    HW2 3183   0.190   0.666   2.699 -0.8309 -0.1664 -1.3306
  796SOL     MW 3184   0.228   0.671   2.778 -0.0516 -0.4458 -0.3815
  797SOL     OW 3185   2.576   0.111   2.525  0.0893 -0.1014  0.5924
  797SOL    HW1 3186   2.632   0.189   2.562  2.9437  2.8939  2.4193
  797SOL    HW2 3187   2.634   0.086   2.448  1.2661 -1.9627  0.3892
  797SOL     MW 3188   2.591   0.118   2.520  0.6211  0.0482  0.8066
  798SOL     OW 3189   2.358   0.028   2.160  0.0479 -0.0874  0.2152
  798SOL    HW1 3190   2.354   0.102   2.228 -0.1251  0.2341 -0.0267
  798SOL    HW2 3191   2.450   0.018   2.136  1.9752  0.7297  0.8473
  798SOL     MW 3192   2.370   0.037   2.166  0.2793  0.0628  0.2667
  799SOL     OW 3193   2.454   2.917   0.154 -0.0216  0.4198  0.4842
  799SOL    HW1 3194   2.420   2.872   0.075  0.5293  0.7248  1.5378
  799SOL    HW2 3195   2.411   2.999   0.141  1.7710 -0.8967 -0.6381
  799SOL     MW 3196   2.444   2.922   0.142  0.2876  0.2863  0.4752
  800SOL     OW 3197   1.838   3.081   1.784 -0.2237 -0.0672 -0.2847
  800SOL    HW1 3198   1.788   3.001   1.800  1.5162 -0.7231 -2.2428
  800SOL    HW2 3199   1.915   3.072   1.846 -1.0947  0.5373  1.0507
  800SOL     MW 3200   1.842   3.069   1.794 -0.1091 -0.0740 -0.3668
  801SOL     OW 3201   2.784   1.296   2.657  0.6104  0.0720 -0.5180
  801SOL    HW1 3202   2.751   1.216   2.605 -1.2841  0.4005  0.3608
  801SOL    HW2 3203   2.871   1.306   2.618 -3.2473  1.8275  0.1567
  801SOL     MW 3204   2.791   1.287   2.645 -0.1486  0.3470 -0.3130
  802SOL     OW 3205   2.560   1.559   2.824 -0.5735 -0.5222 -0.2806
  802SOL    HW1 3206   2.526   1.479   2.774 -1.0798 -1.3635 -0.9770
  802SOL    HW2 3207   2.659   1.548   2.844  3.6083  0.4222 -1.1202
  802SOL     MW 3208   2.569   1.547   2.820 -0.0886 -0.5086 -0.4832
  803SOL     OW 3209   2.311   1.352   1.962  0.2435  0.0159 -0.0612
  803SOL    HW1 3210   2.294   1.349   2.053 -3.4291  0.6573 -0.7857
  803SOL    HW2 3211   2.287   1.267   1.928 -0.8548 -0.5738 -1.1617
  803SOL     MW 3212   2.305   1.340   1.969 -0.3860  0.0227 -0.3020
  804SOL     OW 3213   2.284   0.045   0.072  0.7803 -0.1565 -0.1100
  804SOL    HW1 3214   2.213   0.112   0.076  1.0338  0.2949  3.5205
  804SOL    HW2 3215   2.339   0.082   0.000  0.6676 -0.1984  1.4628
  804SOL     MW 3216   2.282   0.058   0.063  0.7989 -0.1025  0.5765
  805SOL     OW 3217   2.709   1.024   2.522 -0.2217  0.0884  0.3419
  805SOL    HW1 3218   2.714   0.985   2.435 -0.0140 -1.2078  1.1893
  805SOL    HW2 3219   2.787   0.978   2.554  1.9939 -0.6953 -0.9061
  805SOL     MW 3220   2.720   1.012   2.515  0.0981 -0.1860  0.2891
  806SOL     OW 3221   2.583   0.407   2.254 -0.2760 -0.1051 -0.2352
  806SOL    HW1 3222   2.530   0.324   2.277 -2.1071  0.1362 -0.1187
  806SOL    HW2 3223   2.603   0.404   2.162  2.6239 -0.6306  0.5926
  806SOL     MW 3224   2.579   0.396   2.245 -0.1350 -0.1426 -0.1106
  807SOL     OW 3225   3.102   1.118   2.047 -0.4946 -0.3675  0.7821
  807SOL    HW1 3226   3.127   1.046   1.980 -0.1758  1.6042  1.3370
  807SOL    HW2 3227   3.008   1.093   2.074 -2.7690 -0.0706  1.4583
  807SOL     MW 3228   3.093   1.105   2.042 -0.7527 -0.0682  0.9445
  808SOL     OW 3229   2.584   0.008   2.770  0.1783  0.0572  0.4316
  808SOL    HW1 3230   2.556  -0.081   2.753  1.0552  1.0382 -0.9437
  808SOL    HW2 3231   2.572   0.059   2.683  1.5400  0.9653 -3.1078
  808SOL     MW 3232   2.578   0.003   2.756  0.4736  0.3064 -0.2168
  809SOL     OW 3233   2.572   1.253   2.378 -0.4535 -0.2361 -0.2309
  809SOL    HW1 3234   2.624   1.214   2.450 -2.5035 -0.7455 -2.1372
  809SOL    HW2 3235   2.627   1.252   2.296  1.9374 -0.6751 -0.3208
  809SOL     MW 3236   2.586   1.248   2.377 -0.4086 -0.3612 -0.4943
  810SOL     OW 3237   2.222   1.275   2.225 -0.4911 -0.9998  0.2132
  810SOL    HW1 3238   2.267   1.194   2.248 -0.2477  1.0181  1.3097
  810SOL    HW2 3239   2.126   1.257   2.237  0.8214 -0.7418 -0.0114
  810SOL     MW 3240   2.215   1.262   2.230 -0.2858 -0.6995  0.3282
  811SOL     OW 3241   1.535   0.086   2.284 -0.6204  0.3881  0.6932
  811SOL    HW1 3242   1.615   0.077   2.329 -2.2446 -1.8275 -4.0240
  811SOL    HW2 3243   1.561   0.072   2.198  0.8413  1.7170  1.7038
  811SOL     MW 3244   1.549   0.083   2.278 -0.6419  0.2711  0.2042
  812SOL     OW 3245   1.452   2.773   2.039  0.1344 -0.2594 -0.2382
  812SOL    HW1 3246   1.537   2.771   2.084 -0.1250  0.5319 -0.5929
  812SOL    HW2 3247   1.389   2.786   2.113  0.9100  0.8321  1.5497
  812SOL     MW 3248   1.455   2.774   2.055  0.2025 -0.0110 -0.0491
  813SOL     OW 3249   1.790   0.709   2.191  0.4060 -0.0273 -0.1747
  813SOL    HW1 3250   1.761   0.617   2.200  1.2879  0.8449  1.5421
  813SOL    HW2 3251   1.819   0.735   2.279  1.5577 -1.5963 -2.0070
  813SOL     MW 3252   1.790   0.700   2.204  0.6743 -0.1193 -0.1899
  814SOL     OW 3253   2.776   1.238   1.648 -0.4300  0.4858 -0.4418
  814SOL    HW1 3254   2.699   1.206   1.699 -0.9992 -1.8250  1.2195
  814SOL    HW2 3255   2.771   1.201   1.559  1.1757  0.8498 -1.2734
  814SOL     MW 3256   2.765   1.229   1.643 -0.2933  0.2290 -0.3323
  815SOL     OW 3257   2.511   1.641   2.394 -0.2966  0.6026 -0.2611
  815SOL    HW1 3258   2.440   1.571   2.395 -0.8275  2.3153 -1.1146
  815SOL    HW2 3259   2.583   1.580   2.403 -0.0007 -2.6682  1.1959
  815SOL     MW 3260   2.511   1.624   2.396 -0.3276  0.3971 -0.1815
  816SOL     OW 3261   0.751   0.629   2.771 -0.0550  0.3010 -0.0803
  816SOL    HW1 3262   0.763   0.557   2.835  1.3525 -0.5228  0.7828
  816SOL    HW2 3263   0.662   0.641   2.749  1.8771  2.2500 -0.8614
  816SOL     MW 3264   0.741   0.621   2.776  0.3856  0.4495 -0.0695
  817SOL     OW 3265   3.058   1.172   1.370  0.1214  0.2583  0.0976
  817SOL    HW1 3266   3.106   1.171   1.455 -1.1465 -1.4615  0.3348
  817SOL    HW2 3267   3.066   1.262   1.335 -1.8898 -0.1365  0.4753
  817SOL     MW 3268   3.065   1.184   1.377 -0.3112 -0.0207  0.1787
  818SOL     OW 3269   1.910   1.000   2.765 -0.0973  0.4304 -0.8337
  818SOL    HW1 3270   1.939   1.033   2.679  1.5775 -0.3137  0.2104
  818SOL    HW2 3271   1.967   0.935   2.798  0.5532  1.4903  2.0215
  818SOL     MW 3272   1.922   0.996   2.758  0.2095  0.4721 -0.3192
  819SOL     OW 3273   1.938   0.243   2.483 -0.0846 -0.4324 -0.2412
  819SOL    HW1 3274   1.870   0.310   2.479  1.7142 -2.3147  1.8348
  819SOL    HW2 3275   1.965   0.234   2.573  0.8151  0.1969 -0.4447
  819SOL     MW 3276   1.933   0.251   2.494  0.2714 -0.5977  0.0058
  820SOL     OW 3277   2.480   1.760   2.651  0.0030 -0.5662 -0.3348
  820SOL    HW1 3278   2.519   1.685   2.704 -0.2439 -1.0105  1.7947
  820SOL    HW2 3279   2.498   1.730   2.565 -0.5116  3.7084  1.1228
  820SOL     MW 3280   2.487   1.746   2.647 -0.0975 -0.0609  0.1385
  821SOL     OW 3281   2.581   1.357   1.984  0.2805 -0.2855 -0.3994
  821SOL    HW1 3282   2.616   1.432   1.930 -0.2596 -0.0730 -1.0232
  821SOL    HW2 3283   2.485   1.367   1.989  2.1522 -1.5411  2.8774
  821SOL     MW 3284   2.573   1.369   1.978  0.4562 -0.4231 -0.0494
  822SOL     OW 3285   2.832   2.680   1.474  0.1387  0.0877 -0.1794
  822SOL    HW1 3286   2.834   2.717   1.563  4.0872  3.3488  0.3180
  822SOL    HW2 3287   2.766   2.727   1.418 -0.9252  0.5827  1.0968
  822SOL     MW 3288   2.824   2.691   1.478  0.5193  0.5833  0.0546
  823SOL     OW 3289   2.239   0.462   1.765  0.1669 -0.2330  0.2171
  823SOL    HW1 3290   2.320   0.424   1.730 -0.5037 -0.2025 -1.7202
  823SOL    HW2 3291   2.165   0.397   1.744  1.2515 -2.9797  0.0249
  823SOL     MW 3292   2.239   0.448   1.758  0.2215 -0.5914 -0.0639
  824SOL     OW 3293   2.066   1.405   2.502  0.3064 -0.7309 -0.0764
  824SOL    HW1 3294   2.156   1.407   2.492 -0.8079  1.3787 -3.3247
  824SOL    HW2 3295   2.039   1.478   2.552 -1.2286  0.8805 -4.0299
  824SOL     MW 3296   2.074   1.415   2.507 -0.0431 -0.2400 -1.0266
  825SOL     OW 3297   2.059   2.543   0.326  0.3588  0.1342  0.6903
  825SOL    HW1 3298   2.064   2.481   0.404 -0.1369  0.2169  1.1077
  825SOL    HW2 3299   2.101   2.503   0.251 -3.4726  2.7480  1.5274
  825SOL     MW 3300   2.065   2.529   0.327 -0.2121  0.4900  0.8558
  826SOL     OW 3301   1.905   2.363   0.502 -0.1870  0.7013 -0.5667
  826SOL    HW1 3302   1.870   2.288   0.548 -1.3499  0.6316 -2.1083
  826SOL    HW2 3303   1.904   2.433   0.574 -3.1717 -2.8881 -0.7782
  826SOL     MW 3304   1.900   2.362   0.517 -0.7343  0.2185 -0.7980
  827SOL     OW 3305   1.959   2.192   0.828 -0.2042 -0.5301  0.4105
  827SOL    HW1 3306   1.901   2.210   0.751 -0.8446  0.8815  0.3424
  827SOL    HW2 3307   1.914   2.112   0.861  0.7659 -0.0614 -0.3103
  827SOL     MW 3308   1.946   2.183   0.822 -0.1607 -0.2820  0.3064
  828SOL     OW 3309   0.060   2.617   0.502 -0.4788  0.0971  0.2133
  828SOL    HW1 3310   0.151   2.632   0.540  0.2891  0.9280 -1.0630
  828SOL    HW2 3311   0.041   2.686   0.437  0.0823 -0.3531 -0.3817
  828SOL     MW 3312   0.069   2.628   0.498 -0.3035  0.1473 -0.0336
  829SOL     OW 3313   3.000   2.949   1.213 -0.0954 -0.2064 -0.0995
  829SOL    HW1 3314   2.932   2.947   1.148  3.0558  1.0787 -1.0313
  829SOL    HW2 3315   3.050   2.867   1.204  1.3844 -2.7238 -0.5399
  829SOL     MW 3316   2.998   2.938   1.203  0.5156 -0.3690 -0.2805
  830SOL     OW 3317   2.527   2.861   2.037 -0.2648 -0.2005 -0.1148
  830SOL    HW1 3318   2.432   2.885   2.014 -1.2512 -2.0620 -0.0647
  830SOL    HW2 3319   2.570   2.838   1.955  0.6068 -0.8145  3.2643
  830SOL     MW 3320   2.521   2.861   2.023 -0.2800 -0.5271  0.3377
  831SOL     OW 3321   2.393   2.447   1.238  0.7480 -0.0662  0.2318
  831SOL    HW1 3322   2.358   2.360   1.270  0.1662  1.6249 -0.7871
  831SOL    HW2 3323   2.489   2.427   1.218  1.4934 -0.2997 -1.2124
  831SOL     MW 3324   2.401   2.433   1.239  0.7696  0.1262 -0.0932
  832SOL     OW 3325   2.385   2.135   1.832 -0.3157 -0.5327 -0.2512
  832SOL    HW1 3326   2.394   2.225   1.856 -2.1147  0.8513 -1.3951
  832SOL    HW2 3327   2.478   2.114   1.825  0.6762  0.6823 -1.5818
  832SOL     MW 3328   2.398   2.144   1.834 -0.4222 -0.1898 -0.5777
  833SOL     OW 3329   1.801   2.485   0.919 -0.2072  0.1034 -0.0797
  833SOL    HW1 3330   1.703   2.450   0.925 -0.7860  0.5485  5.2175
  833SOL    HW2 3331   1.796   2.550   0.994 -3.6840 -1.2736 -2.7245
  833SOL     MW 3332   1.787   2.489   0.929 -0.7423 -0.0195  0.2703
  834SOL     OW 3333   2.234   2.442   0.550 -0.2528 -0.4530  0.8923
  834SOL    HW1 3334   2.299   2.388   0.591  1.7340 -0.3520 -0.3467
  834SOL    HW2 3335   2.273   2.479   0.466  1.2254  0.2153 -1.9865
  834SOL     MW 3336   2.248   2.440   0.544  0.2044 -0.3515  0.3490
  835SOL     OW 3337   1.868   2.595   0.674 -0.5847 -0.2288  0.1365
  835SOL    HW1 3338   1.828   2.553   0.752  0.7951  1.5644 -0.1336
  835SOL    HW2 3339   1.923   2.663   0.720  1.9883  0.5969 -0.9929
  835SOL     MW 3340   1.870   2.598   0.690 -0.0632  0.1167 -0.0481
  836SOL     OW 3341   2.012   2.179   1.642  0.2340  0.4150  0.0589
  836SOL    HW1 3342   2.097   2.138   1.621  0.6155  1.3048  0.5484
  836SOL    HW2 3343   2.037   2.269   1.661  0.8368  0.0147 -3.7081
  836SOL     MW 3344   2.026   2.185   1.642  0.3639  0.4796 -0.3736
  837SOL     OW 3345   2.045   0.168   0.716 -0.1883 -0.1724  0.4315
  837SOL    HW1 3346   1.971   0.203   0.657 -0.9546  0.6248 -0.6184
  837SOL    HW2 3347   2.100   0.119   0.655 -3.6440 -2.4458  2.5461
  837SOL     MW 3348   2.043   0.166   0.701 -0.7453 -0.3671  0.5720
  838SOL     OW 3349   2.861   2.056   0.920 -0.0137 -0.0313  0.3065
  838SOL    HW1 3350   2.808   1.977   0.939 -1.2335  3.0919  1.7774
  838SOL    HW2 3351   2.924   2.052   0.991  0.0801 -0.4909  1.9624
  838SOL     MW 3352   2.863   2.045   0.932 -0.1623  0.3202  0.7191
  839SOL     OW 3353   1.512   2.378   0.938  0.5670  0.9574  0.6721
  839SOL    HW1 3354   1.471   2.432   1.004 -1.3886 -0.6106  0.1880
  839SOL    HW2 3355   1.547   2.300   0.985 -0.0250  1.2408  0.5226
  839SOL     MW 3356   1.511   2.375   0.953  0.2309  0.7879  0.5885
  840SOL     OW 3357   2.266   2.066   2.406 -0.5093 -0.1645  0.5679
  840SOL    HW1 3358   2.260   2.127   2.335 -0.7487  4.4482 -1.3795
  840SOL    HW2 3359   2.331   2.106   2.466 -1.4013  1.1483  1.6675
  840SOL     MW 3360   2.274   2.080   2.404 -0.6585  0.6173  0.4560
  841SOL     OW 3361   2.229   2.429   0.053  0.4427  0.0742 -0.3373
  841SOL    HW1 3362   2.275   2.479  -0.016  0.1892 -2.2083  1.8072
  841SOL    HW2 3363   2.151   2.392   0.010  1.4360 -0.3263 -2.1532
  841SOL     MW 3364   2.225   2.430   0.038  0.5403 -0.2798 -0.2939
  842SOL     OW 3365   2.661   2.011   1.493  0.0447  0.4689 -0.3587
  842SOL    HW1 3366   2.634   1.926   1.506  0.7529  0.8011  0.8909
  842SOL    HW2 3367   2.623   2.044   1.404  1.3689 -2.7601  0.2913
  842SOL     MW 3368   2.652   2.004   1.483  0.3128  0.0867 -0.1081
  843SOL     OW 3369   2.641   2.806   1.787 -0.2427 -0.4276 -0.0108
  843SOL    HW1 3370   2.734   2.776   1.793  0.6008 -0.3972 -4.0252
  843SOL    HW2 3371   2.598   2.738   1.740 -3.3400  2.1048  1.0864
  843SOL     MW 3372   2.648   2.793   1.782 -0.5401 -0.0895 -0.3957
  844SOL     OW 3373   2.639   2.353   1.201  0.0499 -0.0904  0.1407
  844SOL    HW1 3374   2.697   2.381   1.130  0.1669  0.3261  1.4566
  844SOL    HW2 3375   2.691   2.389   1.277 -0.9753 -1.1483  0.0427
  844SOL     MW 3376   2.654   2.361   1.202 -0.0699 -0.1751  0.3014
  845SOL     OW 3377   2.838   2.548   0.356  0.5634  0.4193  0.0100
  845SOL    HW1 3378   2.773   2.477   0.336 -2.0581 -1.0499 -1.4932
  845SOL    HW2 3379   2.806   2.604   0.428  1.1468 -1.3063  0.3642
  845SOL     MW 3380   2.825   2.546   0.363  0.2945 -0.0022 -0.1416
  846SOL     OW 3381   1.493   2.796   0.842 -0.1208 -0.2916 -0.2034
  846SOL    HW1 3382   1.565   2.860   0.851  0.0064  2.6845 -0.1461
  846SOL    HW2 3383   1.410   2.846   0.837  0.6443  2.6331  0.4124
  846SOL     MW 3384   1.491   2.811   0.842 -0.0031  0.4870 -0.1146
  847SOL     OW 3385   2.467   1.910   0.174 -0.0002 -0.0894  0.2698
  847SOL    HW1 3386   2.473   1.824   0.224 -0.1160 -2.4946 -0.2864
  847SOL    HW2 3387   2.446   1.876   0.086  0.9031 -1.1897 -0.9513
  847SOL     MW 3388   2.465   1.894   0.169  0.1037 -0.5519  0.0353
  848SOL     OW 3389   2.582   2.093   1.255 -0.2695  0.2324 -0.9541
  848SOL    HW1 3390   2.604   2.176   1.216  0.3374  0.6038 -1.8407
  848SOL    HW2 3391   2.585   2.025   1.187 -2.9848  1.2613 -1.0779
  848SOL     MW 3392   2.585   2.095   1.241 -0.5477  0.4172 -1.0874
  849SOL     OW 3393   2.071   2.778   0.785 -0.4131  0.5605  0.4814
  849SOL    HW1 3394   2.078   2.724   0.867  1.4595  1.4898 -1.8050
  849SOL    HW2 3395   2.138   2.734   0.728  0.9351  0.2062  0.1333
  849SOL     MW 3396   2.081   2.765   0.789  0.0119  0.6364  0.1338
  850SOL     OW 3397   2.265   1.804   1.647 -0.1132 -0.4741  0.3101
  850SOL    HW1 3398   2.188   1.759   1.620 -0.7466  3.0252 -1.4374
  850SOL    HW2 3399   2.243   1.900   1.629 -1.1569  0.5385 -0.7288
  850SOL     MW 3400   2.252   1.811   1.641 -0.3345  0.1212 -0.0575
  851SOL     OW 3401   2.405   2.364   0.302  0.0243 -0.5874  0.0547
  851SOL    HW1 3402   2.367   2.381   0.215 -0.7661 -0.3808  1.0494
  851SOL    HW2 3403   2.502   2.369   0.287  1.3736 -0.8391 -0.7850
  851SOL     MW 3404   2.413   2.367   0.288  0.0980 -0.5934  0.0752
  852SOL     OW 3405   2.326   2.106   0.348 -0.2844  0.2330 -0.2290
  852SOL    HW1 3406   2.355   2.201   0.354  1.4018  1.8466  0.1995
  852SOL    HW2 3407   2.378   2.056   0.284 -0.8726 -1.4436  0.1067
  852SOL     MW 3408   2.337   2.112   0.340 -0.1395  0.2247 -0.1282
  853SOL     OW 3409   2.452   2.418   1.896  0.2695 -0.2847 -0.6192
  853SOL    HW1 3410   2.453   2.471   1.817 -0.4938 -1.0633  0.8194
  853SOL    HW2 3411   2.541   2.420   1.942 -0.1060  1.4637  1.7347
  853SOL     MW 3412   2.464   2.426   1.892  0.1193 -0.1568 -0.1188
  854SOL     OW 3413   2.854   2.269   0.759  0.3220 -0.3843 -0.2301
  854SOL    HW1 3414   2.759   2.246   0.738  0.0593  0.2560 -0.4699
  854SOL    HW2 3415   2.879   2.183   0.803 -1.4346 -0.2720 -2.7021
  854SOL     MW 3416   2.845   2.255   0.762  0.0556 -0.2850 -0.5879
  855SOL     OW 3417   2.664   2.353   0.332  0.5676  0.9600  0.5188
  855SOL    HW1 3418   2.628   2.361   0.425 -1.4257 -0.9285  2.3902
  855SOL    HW2 3419   2.720   2.271   0.328  0.1615  0.1511 -1.8925
  855SOL     MW 3420   2.667   2.343   0.344  0.2510  0.6041  0.4475
  856SOL     OW 3421   2.133   1.923   0.229  0.5782  0.1083  0.4355
  856SOL    HW1 3422   2.047   1.949   0.266  1.5930  1.4386  2.0599
  856SOL    HW2 3423   2.185   1.966   0.294 -0.1548 -2.1521 -0.3672
  856SOL     MW 3424   2.128   1.932   0.242  0.6154 -0.0144  0.5439
  857SOL     OW 3425   2.472   1.971   0.549  0.5213 -0.1715 -0.3646
  857SOL    HW1 3426   2.409   2.031   0.496 -0.9332  0.7280  1.0274
  857SOL    HW2 3427   2.407   1.937   0.623 -0.4259  2.3342  0.9981
  857SOL     MW 3428   2.455   1.974   0.552  0.2044  0.2778 -0.0011
  858SOL     OW 3429   2.880   2.696   1.775  0.0600 -0.1751  0.2621
  858SOL    HW1 3430   2.973   2.722   1.771  2.8666 -0.0245  2.7558
  858SOL    HW2 3431   2.882   2.600   1.779  0.5814 -0.0690 -1.6336
  858SOL     MW 3432   2.893   2.687   1.775  0.4991 -0.1412  0.3410
  859SOL     OW 3433   2.112   2.622   0.995 -0.6761  0.3757  1.3454
  859SOL    HW1 3434   2.064   2.545   1.020  0.2295  0.7744 -1.4170
  859SOL    HW2 3435   2.185   2.634   1.056  1.0099  1.3366  0.3297
  859SOL     MW 3436   2.116   2.614   1.007 -0.3342  0.5551  0.8469
  860SOL     OW 3437   2.699   2.623   0.131 -0.3331  0.0269 -0.4308
  860SOL    HW1 3438   2.731   2.630   0.226  0.8160  1.0466  3.8677
  860SOL    HW2 3439   2.697   2.718   0.091  0.1535  2.4589  0.0512
  860SOL     MW 3440   2.703   2.636   0.138 -0.1173  0.4823  0.1999
  861SOL     OW 3441   1.624   2.185   1.099  0.4216 -0.4979 -0.1125
  861SOL    HW1 3442   1.644   2.257   1.161 -0.5103 -0.3250 -1.0730
  861SOL    HW2 3443   1.577   2.118   1.148  0.0623 -1.2925  0.6464
  861SOL     MW 3444   1.620   2.186   1.114  0.2512 -0.5799 -0.1391
  862SOL     OW 3445   2.506   1.767   1.509  0.1820  0.1532 -0.4020
  862SOL    HW1 3446   2.430   1.776   1.562  0.2061 -1.4874 -0.4002
  862SOL    HW2 3447   2.480   1.790   1.419  2.0616 -1.5716 -1.0750
  862SOL     MW 3448   2.492   1.771   1.504  0.4332 -0.2908 -0.4905
  863SOL     OW 3449   2.969   1.777   1.048 -0.0521 -0.0807 -0.3590
  863SOL    HW1 3450   3.059   1.761   1.070 -1.0339  2.2964 -0.7295
  863SOL    HW2 3451   2.939   1.791   1.134  1.3681  1.3309  0.6326
  863SOL     MW 3452   2.977   1.777   1.062  0.0058  0.4192 -0.2771
  864SOL     OW 3453   0.057   1.835   0.829  0.2115 -0.3239  0.1354
  864SOL    HW1 3454  -0.029   1.828   0.870  1.6484  0.2690 -0.7579
  864SOL    HW2 3455   0.029   1.790   0.746  1.4255 -1.8553  2.5657
  864SOL     MW 3456   0.042   1.828   0.823  0.5613 -0.4477  0.3382
  865SOL     OW 3457   2.536   2.163   0.044  0.6785 -0.5804 -0.4647
  865SOL    HW1 3458   2.519   2.081   0.091 -0.3714  1.3958  1.6968
  865SOL    HW2 3459   2.481   2.146  -0.032 -0.5062  1.6149 -3.0899
  865SOL     MW 3460   2.527   2.150   0.040  0.3837 -0.0300 -0.5259
  866SOL     OW 3461   2.667   2.352   1.601  0.2262 -0.1673 -0.5547
  866SOL    HW1 3462   2.670   2.261   1.633 -0.4165  0.4421 -1.2446
  866SOL    HW2 3463   2.734   2.367   1.530  2.3538 -1.1707  1.5956
  866SOL     MW 3464   2.676   2.342   1.595  0.4221 -0.2193 -0.3620
  867SOL     OW 3465   0.098   2.681   1.787  0.0078  0.3424 -0.3434
  867SOL    HW1 3466   0.149   2.741   1.849 -2.1658  1.2399  0.1484
  867SOL    HW2 3467   0.086   2.733   1.706  1.2222  3.2419 -0.8089
  867SOL     MW 3468   0.103   2.696   1.785 -0.1188  0.8434 -0.3399
  868SOL     OW 3469   2.744   2.702   0.578 -0.1423 -0.4819  0.4508
  868SOL    HW1 3470   2.680   2.621   0.572 -2.7301 -1.6943 -0.9768
  868SOL    HW2 3471   2.699   2.769   0.519  1.4915 -0.6413 -1.0596
  868SOL     MW 3472   2.730   2.700   0.569 -0.2681 -0.6629  0.0632
  869SOL     OW 3473   2.080   2.330   1.020  0.1377  0.0487  0.2968
  869SOL    HW1 3474   2.171   2.326   0.984  1.6494 -0.0595 -1.1621
  869SOL    HW2 3475   2.013   2.314   0.948 -1.7531  4.6317  0.4467
  869SOL     MW 3476   2.083   2.327   1.006  0.0877  0.6391  0.1241
  870SOL     OW 3477   2.146   0.040   0.485  0.3097  0.4720 -0.4703
  870SOL    HW1 3478   2.221   0.081   0.434  2.1843  1.9268 -0.1835
  870SOL    HW2 3479   2.159  -0.051   0.480 -0.9419  1.5708  1.0827
  870SOL     MW 3480   2.157   0.034   0.478  0.3919  0.8089 -0.2276
  871SOL     OW 3481   2.460   2.087   0.931  0.3160 -0.0001 -0.2302
  871SOL    HW1 3482   2.397   2.058   0.865 -3.3408 -2.7836  2.1326
  871SOL    HW2 3483   2.417   2.170   0.960 -1.6562 -1.8691  0.3714
  871SOL     MW 3484   2.446   2.094   0.926 -0.4267 -0.6140  0.1609
  872SOL     OW 3485   2.051   2.499   1.504  0.2940  0.3445 -0.1165
  872SOL    HW1 3486   1.978   2.558   1.529  0.9533 -0.6843 -2.1384
  872SOL    HW2 3487   2.024   2.470   1.415 -0.0293 -0.9891  1.9346
  872SOL     MW 3488   2.038   2.503   1.495  0.3383  0.0328 -0.1126
  873SOL     OW 3489   2.876   2.081   1.979 -0.8514  0.0799  0.2024
  873SOL    HW1 3490   2.874   2.135   2.060 -1.4858  0.3753 -1.5693
  873SOL    HW2 3491   2.924   2.125   1.909 -0.7455  1.5976  1.3157
  873SOL     MW 3492   2.882   2.094   1.980 -0.9212  0.3191  0.1155
  874SOL     OW 3493   2.342   1.436   2.421  0.1273 -0.2061 -0.4530
  874SOL    HW1 3494   2.303   1.413   2.337  1.0791 -0.8978 -1.2961
  874SOL    HW2 3495   2.415   1.383   2.435 -0.8916  1.0446  1.6889
  874SOL     MW 3496   2.347   1.426   2.412  0.1185 -0.1323 -0.2816
  875SOL     OW 3497   2.345   2.339   0.986  0.1231  0.0584 -0.3115
  875SOL    HW1 3498   2.394   2.390   0.926 -0.0884  1.0609  1.1660
  875SOL    HW2 3499   2.349   2.388   1.067 -0.3479  0.4316  0.8194
  875SOL     MW 3500   2.352   2.352   0.989  0.0330  0.2399  0.0327
  876SOL     OW 3501   3.063   2.277   1.362  0.6015  0.0381 -0.0132
  876SOL    HW1 3502   3.082   2.319   1.278 -2.0312 -0.7124  0.5974
  876SOL    HW2 3503   3.143   2.307   1.406 -1.7991 -0.5273  3.2779
  876SOL     MW 3504   3.076   2.286   1.357 -0.0626 -0.1355  0.5016
  877SOL     OW 3505   3.084   2.819   0.307  0.2501 -0.9523 -0.1922
  877SOL    HW1 3506   3.156   2.873   0.282 -0.4435 -2.8901  0.0157
  877SOL    HW2 3507   3.088   2.736   0.260 -0.0479 -2.2339 -0.5282
  877SOL     MW 3508   3.094   2.815   0.298  0.1192 -1.3771 -0.2091
  878SOL     OW 3509   2.431   1.777   1.229 -0.0995 -0.5818 -0.2370
  878SOL    HW1 3510   2.350   1.728   1.230 -0.4181  1.9893 -0.8001
  878SOL    HW2 3511   2.509   1.715   1.222  1.4554  0.5235  0.1760
  878SOL     MW 3512   2.430   1.762   1.228  0.0636 -0.0968 -0.2568
  879SOL     OW 3513   2.779   2.422   0.957  0.0096 -0.1844 -0.2897
  879SOL    HW1 3514   2.835   2.498   0.967 -1.9382  1.4532  1.7588
  879SOL    HW2 3515   2.815   2.371   0.880  2.6751 -2.8409 -1.9944
  879SOL     MW 3516   2.791   2.425   0.948  0.1043 -0.3188 -0.2444
  880SOL     OW 3517   2.598   2.157   0.686 -0.1913  0.2614 -0.5412
  880SOL    HW1 3518   2.571   2.126   0.774  0.9059  0.1772 -0.9708
  880SOL    HW2 3519   2.565   2.093   0.624 -3.8196 -1.2912 -2.9736
  880SOL     MW 3520   2.590   2.144   0.689 -0.5253  0.0454 -0.9188
  881SOL     OW 3521   2.992   2.725   0.694  0.0513 -0.0169 -0.2549
  881SOL    HW1 3522   2.899   2.717   0.682  2.2237  1.2163  2.0970
  881SOL    HW2 3523   3.039   2.672   0.623 -0.4566 -1.7611 -0.8476
  881SOL     MW 3524   2.986   2.717   0.683  0.2709 -0.0843 -0.0228
  882SOL     OW 3525   2.250   2.872   1.948  0.0518 -0.5661  0.2628
  882SOL    HW1 3526   2.250   2.892   1.849 -1.0499 -1.4992  1.5190
  882SOL    HW2 3527   2.194   2.789   1.954  1.9277 -0.8716  0.0648
  882SOL     MW 3528   2.243   2.864   1.935  0.1540 -0.7295  0.4024
  883SOL     OW 3529   2.350   2.203   1.357  0.1704 -0.3638 -0.3189
  883SOL    HW1 3530   2.415   2.144   1.322 -1.3546  2.4199  2.5958
  883SOL    HW2 3531   2.269   2.179   1.323  0.4008  0.6791  1.7882
  883SOL     MW 3532   2.348   2.192   1.348 -0.0004  0.1411  0.3437
  884SOL     OW 3533   1.962   1.817   1.072 -0.0100 -0.3056 -0.0008
  884SOL    HW1 3534   1.902   1.893   1.058 -0.3073  2.9289 -1.4080
  884SOL    HW2 3535   2.054   1.852   1.079 -0.1944 -1.9467  1.1496
  884SOL     MW 3536   1.966   1.831   1.071 -0.0736 -0.0953 -0.0347
  885SOL     OW 3537   2.845   2.421   1.795 -0.2848 -0.6843 -0.1877
  885SOL    HW1 3538   2.908   2.345   1.798  1.8033  0.0885 -0.7424
  885SOL    HW2 3539   2.799   2.401   1.717  1.6200 -1.4767  1.9556
  885SOL     MW 3540   2.847   2.408   1.785  0.2420 -0.6868  0.0219
  886SOL     OW 3541   2.828   2.396   1.391 -0.2792  0.3347  0.2680
  886SOL    HW1 3542   2.904   2.344   1.387 -1.8467 -0.5937 -3.2570
  886SOL    HW2 3543   2.862   2.480   1.381 -0.6733  0.7570  0.4396
  886SOL     MW 3544   2.843   2.400   1.389 -0.5380  0.2679 -0.1745
  887SOL     OW 3545   2.263   2.663   1.536  0.0256  0.1228 -0.2280
  887SOL    HW1 3546   2.318   2.662   1.455  2.2102 -0.7819 -0.3062
  887SOL    HW2 3547   2.196   2.597   1.536 -1.0769  0.7997  1.0490
  887SOL     MW 3548   2.262   2.654   1.526  0.1684  0.0927 -0.0698
  888SOL     OW 3549   1.873   2.155   1.395 -0.3050 -0.1297  0.5154
  888SOL    HW1 3550   1.948   2.150   1.332  0.4034 -1.4552  0.9057
  888SOL    HW2 3551   1.921   2.170   1.481  1.9364 -0.3152 -0.3562
  888SOL     MW 3552   1.890   2.156   1.398  0.0842 -0.3291  0.4519
  889SOL     OW 3553   2.356   2.021   2.077  0.0440 -0.3280 -0.1331
  889SOL    HW1 3554   2.438   1.972   2.072 -0.2872  1.2802 -0.1013
  889SOL    HW2 3555   2.346   2.067   1.994 -2.8869 -1.7041 -1.2759
  889SOL     MW 3556   2.365   2.021   2.066 -0.3864 -0.2974 -0.2797
  890SOL     OW 3557   0.077   2.375   0.148  0.6278  0.3303  0.1787
  890SOL    HW1 3558   0.045   2.464   0.151  0.2741 -3.0854  3.0146
  890SOL    HW2 3559   0.031   2.331   0.227  1.0874 -0.5297 -1.6737
  890SOL     MW 3560   0.066   2.381   0.159  0.6417 -0.2338  0.3084
  891SOL     OW 3561   3.069   1.977   1.259 -0.8104 -0.0584 -0.2589
  891SOL    HW1 3562   3.146   1.921   1.225  1.9360  0.5983  0.1941
  891SOL    HW2 3563   3.112   2.059   1.288  1.6174 -0.6356 -1.7693
  891SOL     MW 3564   3.085   1.981   1.258 -0.1277 -0.0479 -0.3984
  892SOL     OW 3565   2.458   2.387   2.763 -0.3354  0.4286 -0.2852
  892SOL    HW1 3566   2.445   2.298   2.808  0.9754  1.4625 -1.1445
  892SOL    HW2 3567   2.556   2.406   2.782  3.0576  0.0374  1.4842
  892SOL     MW 3568   2.469   2.378   2.771  0.2852  0.5134 -0.1651
  893SOL     OW 3569   1.617   2.446   1.212  0.7121 -0.3822  0.2942
  893SOL    HW1 3570   1.547   2.464   1.273 -1.6009 -0.0843 -0.1420
  893SOL    HW2 3571   1.691   2.496   1.242 -1.1627  1.5400  0.0164
  893SOL     MW 3572   1.618   2.455   1.224  0.1596 -0.0893  0.2000
  894SOL     OW 3573   2.722   1.892   0.451  0.1010  0.0567  0.3839
  894SOL    HW1 3574   2.639   1.925   0.482 -2.4826  0.1951  0.1299
  894SOL    HW2 3575   2.708   1.840   0.370 -1.9379 -0.4857  2.6561
  894SOL     MW 3576   2.709   1.889   0.444 -0.5089  0.0034  0.6502
  895SOL     OW 3577   2.106   2.155   1.239  0.7134  0.0641 -0.9383
  895SOL    HW1 3578   2.083   2.196   1.155  2.1565  0.1470 -0.8854
  895SOL    HW2 3579   2.128   2.060   1.220  1.4562  0.1031 -1.7588
  895SOL     MW 3580   2.106   2.148   1.225  1.0018  0.0802 -1.0396
  896SOL     OW 3581   2.302   2.815   1.100 -0.7367  0.3379 -0.1449
  896SOL    HW1 3582   2.360   2.776   1.165 -4.0318  0.5072  1.1650
  896SOL    HW2 3583   2.250   2.879   1.160 -0.8578 -0.5479  2.3830
  896SOL     MW 3584   2.303   2.818   1.116 -1.1874  0.2434  0.3615
  897SOL     OW 3585   3.072   3.044   3.053  0.4600 -0.4565  0.0787
  897SOL    HW1 3586   3.104   2.951   3.055  0.5762  3.6196 -0.4071
  897SOL    HW2 3587   2.996   3.019   3.006 -0.8928 -0.6130 -0.8009
  897SOL     MW 3588   3.066   3.029   3.047  0.2969  0.0607 -0.1015
  898SOL     OW 3589   2.062   0.183   1.490 -0.4840 -0.0521  0.2199
  898SOL    HW1 3590   2.041   0.091   1.519 -0.3287  0.6995 -1.9102
  898SOL    HW2 3591   2.084   0.179   1.399  0.6728  1.5248  2.1010
  898SOL     MW 3592   2.062   0.170   1.482 -0.3109  0.2551  0.1871
  899SOL     OW 3593   2.983   2.990   0.615 -0.0431  0.0935  0.0447
  899SOL    HW1 3594   2.990   2.896   0.656 -0.5785  0.7617 -1.7984
  899SOL    HW2 3595   2.902   3.033   0.643  0.5323  1.0140  0.3468
  899SOL     MW 3596   2.973   2.983   0.624 -0.0378  0.3031 -0.1586
  900SOL     OW 3597   0.023   2.398   1.137 -0.1710  0.2786 -0.8478
  900SOL    HW1 3598   0.002   2.485   1.113  0.0080 -0.0761  0.1403
  900SOL    HW2 3599   0.050   2.346   1.058 -0.1993 -0.5132 -1.2511
  900SOL     MW 3600   0.024   2.403   1.124 -0.1512  0.1274 -0.7707
  901SOL     OW 3601   1.759   2.825   1.791 -0.4464 -0.5782  0.4994
  901SOL    HW1 3602   1.842   2.785   1.758  3.8298 -0.4191  0.0786
  901SOL    HW2 3603   1.697   2.784   1.730  1.6681 -2.3726 -1.9521
  901SOL     MW 3604   1.762   2.814   1.778  0.3968 -0.7940  0.1204
  902SOL     OW 3605   2.652   2.075   1.788  0.3134  0.1546 -0.8957
  902SOL    HW1 3606   2.663   2.032   1.709  0.1575 -3.2410 -0.2794
  902SOL    HW2 3607   2.728   2.064   1.847 -0.2640 -0.2364  0.7835
  902SOL     MW 3608   2.664   2.068   1.786  0.2167 -0.3450 -0.5928
  903SOL     OW 3609   1.556   2.646   0.629 -0.6956 -0.5528 -0.7674
  903SOL    HW1 3610   1.648   2.660   0.621 -1.9000 -1.3930  0.1865
  903SOL    HW2 3611   1.514   2.695   0.707 -2.7426 -0.1063  0.3472
  903SOL     MW 3612   1.562   2.655   0.638 -1.1246 -0.6048 -0.4945
  904SOL     OW 3613   2.512   2.573   1.670 -0.6625 -0.3753  0.4836
  904SOL    HW1 3614   2.446   2.598   1.605 -0.9409  2.5767 -0.2536
  904SOL    HW2 3615   2.561   2.487   1.645 -1.0064 -0.1336 -0.9303
  904SOL     MW 3616   2.510   2.565   1.658 -0.7446  0.0461  0.1998
  905SOL     OW 3617   2.317   2.497   2.120  0.6801 -0.0081 -0.1162
  905SOL    HW1 3618   2.341   2.454   2.045 -0.3651  0.1029  0.4382
  905SOL    HW2 3619   2.259   2.435   2.170 -0.0187  0.0015  1.2836
  905SOL     MW 3620   2.313   2.483   2.117  0.4500  0.0078  0.1416
  906SOL     OW 3621   2.519   2.486   0.802  0.3331 -0.4432 -0.3833
  906SOL    HW1 3622   2.605   2.451   0.834 -0.3582  1.2256  1.4759
  906SOL    HW2 3623   2.508   2.575   0.844  1.1711 -3.9320  1.1160
  906SOL     MW 3624   2.529   2.493   0.812  0.3525 -0.6834  0.0598
  907SOL     OW 3625   2.647   2.859   1.303  0.6185  0.5469 -0.2986
  907SOL    HW1 3626   2.700   2.912   1.367 -0.4620  1.3820  0.2680
  907SOL    HW2 3627   2.702   2.862   1.217  0.5985  2.2042  0.6404
  907SOL     MW 3628   2.661   2.867   1.300  0.4733  0.8757 -0.0999
  908SOL     OW 3629   2.731   2.379   0.011  0.7046  0.5612 -0.2535
  908SOL    HW1 3630   2.660   2.326   0.045 -0.4713 -1.4583 -0.1795
  908SOL    HW2 3631   2.734   2.456   0.074  0.7674  1.1105 -0.1565
  908SOL     MW 3632   2.722   2.382   0.024  0.5578  0.3672 -0.2310
  909SOL     OW 3633   1.788   0.067   1.177  0.0858  0.5264 -0.3259
  909SOL    HW1 3634   1.767   0.133   1.109 -0.8662  2.0176 -0.3201
  909SOL    HW2 3635   1.746   0.090   1.256  0.6632  2.0696 -0.2007
  909SOL     MW 3636   1.779   0.079   1.179  0.0364  0.9268 -0.3086
  910SOL     OW 3637   2.209   1.716   0.416 -0.4018 -1.1682  0.5185
  910SOL    HW1 3638   2.157   1.635   0.410 -1.4281  1.7503  1.7454
  910SOL    HW2 3639   2.179   1.771   0.341  0.1002 -0.7062  0.8697
  910SOL     MW 3640   2.198   1.713   0.405 -0.4710 -0.7222  0.7267
  911SOL     OW 3641   2.251   2.073   1.577  0.1153 -0.3177 -0.8525
  911SOL    HW1 3642   2.294   2.103   1.654  1.0777  0.6315  0.2325
  911SOL    HW2 3643   2.292   2.114   1.504 -1.6314  0.5271  0.9199
  911SOL     MW 3644   2.262   2.082   1.578  0.0118 -0.0810 -0.4755
  912SOL     OW 3645   2.925   1.897   1.475 -0.2117 -0.2632 -0.1211
  912SOL    HW1 3646   2.961   1.948   1.396 -0.1728 -2.3157  3.2251
  912SOL    HW2 3647   2.847   1.950   1.507 -1.4237  0.6552 -3.7529
  912SOL     MW 3648   2.920   1.911   1.469 -0.3664 -0.4129 -0.1588
  913SOL     OW 3649   2.602   3.071   0.354 -0.5958  0.8164  0.3175
  913SOL    HW1 3650   2.676   3.007   0.360  1.7534 -0.3112 -0.8126
  913SOL    HW2 3651   2.543   3.012   0.314 -0.2235 -1.8262 -2.3757
  913SOL     MW 3652   2.604   3.055   0.350 -0.2367  0.3189 -0.1870
  914SOL     OW 3653   2.697   1.809   3.014 -0.0699  0.6582  0.0126
  914SOL    HW1 3654   2.733   1.886   2.973 -1.5560  1.9482  1.3034
  914SOL    HW2 3655   2.603   1.806   2.985 -0.9636 -0.4587 -1.6058
  914SOL     MW 3656   2.690   1.819   3.005 -0.3839  0.6811 -0.0306
  915SOL     OW 3657   1.724   0.203   0.233  0.6882 -0.2980 -0.2516
  915SOL    HW1 3658   1.809   0.153   0.255 -1.9292 -0.0176  1.2609
  915SOL    HW2 3659   1.659   0.131   0.228 -0.7836 -0.7151  0.0180
  915SOL     MW 3660   1.726   0.187   0.235  0.1487 -0.3160 -0.0165
  916SOL     OW 3661   1.819   2.138   1.977 -0.4456  0.2568  0.1174
  916SOL    HW1 3662   1.881   2.212   1.957 -1.6889  1.4253 -0.1727
  916SOL    HW2 3663   1.803   2.088   1.895 -0.1409 -2.0080 -0.1658
  916SOL     MW 3664   1.825   2.141   1.964 -0.5694  0.1122  0.0418
  917SOL     OW 3665   2.488   2.180   2.564  0.3204  0.1071  0.2051
  917SOL    HW1 3666   2.484   2.251   2.624 -1.2037  0.0946 -1.1582
  917SOL    HW2 3667   2.561   2.202   2.509  1.0006  0.8642  1.5894
  917SOL     MW 3668   2.497   2.192   2.565  0.2091  0.2054  0.2079
  918SOL     OW 3669   1.957   1.578   2.691 -0.0652 -0.4327  0.1437
  918SOL    HW1 3670   1.894   1.613   2.622 -2.3755 -3.4178 -0.5723
  918SOL    HW2 3671   2.045   1.626   2.674  1.8892  3.4790  3.9489
  918SOL     MW 3672   1.960   1.589   2.679 -0.1122 -0.3104  0.5513
  919SOL     OW 3673   3.077   2.372   2.319  0.0299  0.5402  0.6901
  919SOL    HW1 3674   2.993   2.341   2.284 -2.1282  0.1869 -1.0527
  919SOL    HW2 3675   3.121   2.407   2.241  1.3537  1.3980 -2.9013
  919SOL     MW 3676   3.072   2.373   2.305 -0.0802  0.6068 -0.0137
  920SOL     OW 3677   2.710   2.876   3.088 -0.1896 -0.0062  0.0148
  920SOL    HW1 3678   2.614   2.885   3.106 -0.3466 -1.3828 -0.6766
  920SOL    HW2 3679   2.719   2.815   3.011  0.5585 -2.0035 -0.5001
  920SOL     MW 3680   2.699   2.869   3.080 -0.1116 -0.4514 -0.1443
  921SOL     OW 3681   2.440   2.604   2.587  0.8153 -0.5251 -0.2658
  921SOL    HW1 3682   2.507   2.593   2.520  0.3913 -0.1163 -0.0551
  921SOL    HW2 3683   2.451   2.535   2.649  0.6959  0.0618 -4.2586
  921SOL     MW 3684   2.450   2.594   2.586  0.7436 -0.3937 -0.7648
  922SOL     OW 3685   2.024   2.811   0.280 -0.0987 -0.3392 -0.0087
  922SOL    HW1 3686   2.019   2.836   0.184 -2.1082 -2.1507 -1.0493
  922SOL    HW2 3687   2.069   2.723   0.290 -0.5309 -0.8070  2.0869
  922SOL     MW 3688   2.029   2.803   0.268 -0.4208 -0.6400  0.1305
  923SOL     OW 3689   2.196   2.899   1.685  0.1700  0.0221 -0.4197
  923SOL    HW1 3690   2.227   2.824   1.629 -3.3834 -2.2235  1.0917
  923SOL    HW2 3691   2.132   2.945   1.629 -0.7000 -0.8405  1.1411
  923SOL     MW 3692   2.192   2.895   1.670 -0.4136 -0.3880 -0.0143
  924SOL     OW 3693   1.149   2.740   2.584 -0.1047  0.5196  0.9115
  924SOL    HW1 3694   1.242   2.773   2.572  3.1526 -1.0781 -1.2863
  924SOL    HW2 3695   1.146   2.678   2.659  1.0137 -1.3832 -1.0617
  924SOL     MW 3696   1.161   2.737   2.592  0.4726  0.0578  0.3612
  925SOL     OW 3697   3.034   0.195   2.669 -0.2992  0.0568  0.6149
  925SOL    HW1 3698   2.979   0.216   2.592  0.8919 -2.0269 -0.0212
  925SOL    HW2 3699   3.033   0.269   2.733  0.0183  1.2194  1.6490
  925SOL     MW 3700   3.027   0.207   2.667 -0.1002 -0.0647  0.6674
  926SOL     OW 3701   2.709   2.400   2.031  0.1400 -0.6479 -0.4027
  926SOL    HW1 3702   2.750   2.476   2.076  1.4321  2.2100  1.2714
  926SOL    HW2 3703   2.751   2.397   1.940 -1.1891 -1.4405 -0.0862
  926SOL     MW 3704   2.720   2.410   2.025  0.1351 -0.3754 -0.1400
  927SOL     OW 3705   2.347   0.163   0.333 -0.0285  0.2525 -0.2218
  927SOL    HW1 3706   2.440   0.140   0.358  2.5731  1.6905  0.2616
  927SOL    HW2 3707   2.346   0.146   0.239  2.7750  0.4231 -2.3327
  927SOL     MW 3708   2.359   0.158   0.324  0.6846  0.4647 -0.4366
  928SOL     OW 3709   2.158   2.424   1.739 -0.7397  0.7747 -0.4815
  928SOL    HW1 3710   2.133   2.471   1.659 -0.0797  0.3144  2.3612
  928SOL    HW2 3711   2.248   2.437   1.767 -0.0642 -1.4507  0.8269
  928SOL     MW 3712   2.166   2.432   1.732 -0.5635  0.4204  0.0662
  929SOL     OW 3713   2.725   2.320   2.464 -0.1698  0.6232  0.3923
  929SOL    HW1 3714   2.748   2.290   2.370 -2.1948 -0.1583 -2.0669
  929SOL    HW2 3715   2.801   2.308   2.519 -0.0431  1.5396  1.9674
  929SOL     MW 3716   2.738   2.314   2.459 -0.4203  0.6410  0.2757
  930SOL     OW 3717   2.013   2.837   2.674  0.0992 -0.2107 -0.9038
  930SOL    HW1 3718   2.014   2.767   2.748  0.4742 -0.8601 -1.0077
  930SOL    HW2 3719   2.099   2.881   2.672 -0.0921  1.0863  0.0401
  930SOL     MW 3720   2.024   2.834   2.684  0.1234 -0.1252 -0.7930
  931SOL     OW 3721   3.028   2.721   2.436  0.4082  0.3347  0.2387
  931SOL    HW1 3722   3.072   2.751   2.515 -0.3078  1.5748  2.0054
  931SOL    HW2 3723   3.091   2.669   2.388 -2.2121  0.3596  4.8612
  931SOL     MW 3724   3.042   2.718   2.440 -0.0320  0.5016  1.0817
  932SOL     OW 3725   2.941   1.893   2.485 -0.4635 -0.5924 -0.0660
  932SOL    HW1 3726   3.016   1.953   2.478 -0.9388  0.5290  0.6500
  932SOL    HW2 3727   2.888   1.901   2.408  0.4098 -1.5349 -0.7340
  932SOL     MW 3728   2.944   1.902   2.474 -0.4110 -0.5688 -0.0597
  933SOL     OW 3729   2.059   2.796   2.209 -0.2888  0.2046 -0.1485
  933SOL    HW1 3730   2.124   2.852   2.245 -0.9562 -0.6283  0.2265
  933SOL    HW2 3731   1.982   2.846   2.203  3.7996  1.5064  0.4889
  933SOL     MW 3732   2.057   2.810   2.213  0.1626  0.2665 -0.0149
  934SOL     OW 3733   1.995   2.700   2.452 -0.3020 -0.5794 -0.2326
  934SOL    HW1 3734   2.013   2.776   2.517  0.1664  0.5749 -1.1010
  934SOL    HW2 3735   2.027   2.731   2.366  2.0230 -0.9371  1.6101
  934SOL     MW 3736   2.002   2.714   2.449  0.0665 -0.4743 -0.1041
  935SOL     OW 3737   2.672   1.576   1.860 -0.2969  0.3911  0.2211
  935SOL    HW1 3738   2.764   1.589   1.890  0.9983  0.9113 -0.8996
  935SOL    HW2 3739   2.673   1.569   1.765  3.5082  1.8153 -3.1357
  935SOL     MW 3740   2.684   1.577   1.852  0.3761  0.6477 -0.3697
  936SOL     OW 3741   2.984   2.269   3.096 -0.6822  0.4524 -0.5539
  936SOL    HW1 3742   3.031   2.329   3.159 -0.9999  1.4209  1.2341
  936SOL    HW2 3743   2.894   2.298   3.091 -0.8522 -1.6671  0.3686
  936SOL     MW 3744   2.979   2.281   3.104 -0.7465  0.3006 -0.1963
  937SOL     OW 3745   1.983   2.143   2.643  0.5672  0.0337 -0.1559
  937SOL    HW1 3746   2.061   2.099   2.667 -0.1350  2.6123 -0.6037
  937SOL    HW2 3747   1.973   2.140   2.544  2.1107 -0.5683 -4.1467
  937SOL     MW 3748   1.992   2.137   2.633  0.6782  0.2945 -0.7415
  938SOL     OW 3749   2.285   1.791   1.915  0.0046 -0.2764 -0.2419
  938SOL    HW1 3750   2.275   1.805   1.821  3.4936 -0.5496  0.3718
  938SOL    HW2 3751   2.278   1.872   1.963  1.0561 -0.4439 -0.8903
  938SOL     MW 3752   2.283   1.803   1.909  0.6037 -0.3346 -0.2465
  939SOL     OW 3753   2.777   1.964   2.269  0.5943 -0.2402 -0.2552
  939SOL    HW1 3754   2.799   1.922   2.188  1.3040 -0.6150 -0.6526
  939SOL    HW2 3755   2.694   1.938   2.297  1.1956 -0.0420 -0.3244
  939SOL     MW 3756   2.769   1.955   2.262  0.7673 -0.2635 -0.3167
  940SOL     OW 3757   2.314   0.154   2.698 -0.0328 -0.1290  0.6103
  940SOL    HW1 3758   2.307   0.069   2.657  0.0444 -2.4891 -0.3790
  940SOL    HW2 3759   2.349   0.147   2.790  0.2357  1.7717  0.0599
  940SOL     MW 3760   2.318   0.142   2.704  0.0128 -0.1896  0.4072
  941SOL     OW 3761   0.129   2.434   2.089  0.8715 -0.4303 -0.1944
  941SOL    HW1 3762   0.217   2.397   2.095 -3.6390  0.0504 -1.4140
  941SOL    HW2 3763   0.111   2.409   2.000  1.2768 -2.6396  1.6532
  941SOL     MW 3764   0.138   2.426   2.078  0.3298 -0.6583 -0.1115
  942SOL     OW 3765   2.832   2.230   2.201 -0.1901  0.1717 -0.0897
  942SOL    HW1 3766   2.781   2.282   2.140  0.0406  1.6558 -0.5066
  942SOL    HW2 3767   2.803   2.138   2.218 -0.3075 -0.0520 -1.6568
  942SOL     MW 3768   2.821   2.225   2.195 -0.1752  0.3380 -0.3514
  943SOL     OW 3769   0.240   2.142   2.245 -0.3662  0.4985 -0.1842
  943SOL    HW1 3770   0.208   2.203   2.318 -1.5475  0.0712  0.5066
  943SOL    HW2 3771   0.321   2.101   2.286  0.6848 -0.7367 -0.4752
  943SOL     MW 3772   0.246   2.144   2.260 -0.3834  0.2791 -0.1314
  944SOL     OW 3773   2.082   2.637   1.982  0.3792  0.3438  0.0333
  944SOL    HW1 3774   2.150   2.573   2.011  0.0311 -2.6576  1.0136
  944SOL    HW2 3775   2.043   2.655   2.063 -0.7891 -1.5509 -2.0947
  944SOL     MW 3776   2.086   2.631   1.997  0.1791 -0.3022 -0.1181
  945SOL     OW 3777   2.744   2.664   2.893  0.6104  0.0723  0.3538
  945SOL    HW1 3778   2.730   2.567   2.891 -0.8646  2.1334 -0.2765
  945SOL    HW2 3779   2.758   2.691   2.800  1.8519  1.3989 -1.7194
  945SOL     MW 3780   2.744   2.655   2.881  0.5796  0.5193 -0.0029
  946SOL     OW 3781   2.454   2.695   2.245 -0.2192 -0.0390  0.1310
  946SOL    HW1 3782   2.500   2.750   2.182 -0.7775  2.7516 -1.0958
  946SOL    HW2 3783   2.393   2.624   2.196 -1.6470 -2.4757 -3.2630
  946SOL     MW 3784   2.452   2.693   2.230 -0.4812  0.0077 -0.4786
  947SOL     OW 3785   1.962   0.049   0.283  0.4038 -0.1718 -0.4206
  947SOL    HW1 3786   1.951  -0.052   0.292  0.6909 -0.9402 -2.0262
  947SOL    HW2 3787   2.039   0.068   0.341  0.3502  1.5240 -0.9653
  947SOL     MW 3788   1.971   0.038   0.292  0.4346 -0.0494 -0.7043
  948SOL     OW 3789   1.799   3.002   2.668  0.1767 -0.4859 -0.6414
  948SOL    HW1 3790   1.871   2.945   2.657 -0.5173  0.7726 -0.0734
  948SOL    HW2 3791   1.803   3.042   2.578 -2.1027  2.7036  1.1180
  948SOL     MW 3792   1.809   3.000   2.655 -0.2156  0.1010 -0.3343
  949SOL     OW 3793   2.516   1.929   2.334 -0.3110 -0.0819  0.4642
  949SOL    HW1 3794   2.520   1.837   2.353  1.9990 -0.9504  1.0523
  949SOL    HW2 3795   2.424   1.946   2.337  0.2005 -1.4546 -2.2757
  949SOL     MW 3796   2.504   1.919   2.337  0.0613 -0.3776  0.1803
  950SOL     OW 3797   2.333   2.567   2.908 -0.4831  0.1399  0.0668
  950SOL    HW1 3798   2.370   2.492   2.858 -2.2505 -0.4206 -1.2713
  950SOL    HW2 3799   2.251   2.594   2.873 -0.3518  1.1471  1.7064
  950SOL     MW 3800   2.327   2.560   2.897 -0.6990  0.1988  0.1066
  951SOL     OW 3801   3.054   2.143   2.869 -0.0553  0.6463 -0.0304
  951SOL    HW1 3802   3.043   2.187   2.953 -2.2597 -1.8787 -0.8253
  951SOL    HW2 3803   3.091   2.057   2.881  0.5305  0.6244  0.1063
  951SOL     MW 3804   3.058   2.137   2.881 -0.2688  0.3103 -0.1172
  952SOL     OW 3805   3.049   1.674   2.128  0.5124 -0.0293 -0.2450
  952SOL    HW1 3806   2.973   1.697   2.078  0.9811 -4.6105 -2.3471
  952SOL    HW2 3807   3.065   1.758   2.167 -0.3670  0.2878  0.1705
  952SOL     MW 3808   3.041   1.688   2.127  0.4582 -0.5919 -0.4676
  953SOL     OW 3809   1.943   1.748   2.897  0.5384  0.3002  0.6302
  953SOL    HW1 3810   1.866   1.709   2.953 -1.3712 -1.2871  0.8202
  953SOL    HW2 3811   1.938   1.685   2.823 -1.6526 -0.4498 -1.4159
  953SOL     MW 3812   1.932   1.735   2.895 -0.0027 -0.0082  0.3853
  954SOL     OW 3813   2.443   2.123   2.861  0.6772  0.0451  0.2630
  954SOL    HW1 3814   2.359   2.112   2.808  3.0937  3.1259  2.4129
  954SOL    HW2 3815   2.515   2.075   2.820  2.0047 -0.9322  1.6860
  954SOL     MW 3816   2.441   2.115   2.848  1.1712  0.3227  0.7344
  955SOL     OW 3817   1.549   1.605   2.554 -0.5071 -0.3768 -0.4649
  955SOL    HW1 3818   1.515   1.663   2.480  1.2583 -0.7611 -1.4388
  955SOL    HW2 3819   1.648   1.624   2.552  4.1218 -2.3813  1.6110
  955SOL     MW 3820   1.558   1.615   2.544  0.3366 -0.6919 -0.3195
  956SOL     OW 3821   2.712   2.388   2.845  0.1663 -0.0963  0.2725
  956SOL    HW1 3822   2.720   2.347   2.929 -0.5105  1.8616  0.0919
  956SOL    HW2 3823   2.785   2.338   2.804 -0.2277 -0.7452 -3.6801
  956SOL     MW 3824   2.723   2.376   2.851  0.0250  0.0764 -0.2729
  957SOL     OW 3825   2.230   2.870   0.458 -0.2519  0.3894  0.1149
  957SOL    HW1 3826   2.159   2.844   0.408  1.0843  1.2045  4.0177
  957SOL    HW2 3827   2.231   2.822   0.538 -2.6114  2.4808 -1.2394
  957SOL     MW 3828   2.221   2.860   0.462 -0.3869  0.7729  0.4511
  958SOL     OW 3829   2.063   2.620   2.857 -0.1259  0.4436  0.4101
  958SOL    HW1 3830   2.041   2.553   2.801 -0.1169  2.8320  0.1446
  958SOL    HW2 3831   2.014   2.610   2.941 -2.5421  0.8979 -2.4617
  958SOL     MW 3832   2.054   2.610   2.861 -0.4435  0.8186 -0.0038
  959SOL     OW 3833   2.480   2.748   0.393  0.5927  0.3226  0.0406
  959SOL    HW1 3834   2.467   2.735   0.295 -1.5140  0.1723  1.3495
  959SOL    HW2 3835   2.397   2.796   0.415  1.2217  0.7242 -0.6787
  959SOL     MW 3836   2.467   2.753   0.383  0.3977  0.3557  0.1184
  960SOL     OW 3837   1.879   2.319   2.309  0.0308 -0.2507 -0.0674
  960SOL    HW1 3838   1.915   2.228   2.322 -1.0740 -1.2130 -0.0573
  960SOL    HW2 3839   1.841   2.323   2.394  0.3187 -0.9681 -0.4005
  960SOL     MW 3840   1.878   2.308   2.322 -0.0770 -0.4723 -0.1100
  961SOL     OW 3841   2.164   2.324   2.289  0.0851  0.0404 -0.7607
  961SOL    HW1 3842   2.067   2.319   2.281 -1.4859  0.7605  0.8786
  961SOL    HW2 3843   2.177   2.393   2.354  1.0364  0.0023 -4.2029
  961SOL     MW 3844   2.153   2.333   2.296  0.0034  0.1304 -0.9986
  962SOL     OW 3845   2.183   2.008   2.772  0.5689  0.5034  0.3495
  962SOL    HW1 3846   2.151   2.012   2.864 -0.9328 -1.0967 -1.0770
  962SOL    HW2 3847   2.189   1.910   2.754 -1.4783 -2.3309 -0.6313
  962SOL     MW 3848   2.180   1.996   2.782  0.1007 -0.0817  0.0319
  963SOL     OW 3849   1.797   2.496   2.099  0.1430  0.3767  0.8728
  963SOL    HW1 3850   1.831   2.427   2.156  0.4468  1.5155 -0.2966
  963SOL    HW2 3851   1.828   2.476   2.009 -2.7644 -0.9662 -1.1765
  963SOL     MW 3852   1.806   2.485   2.094 -0.2005  0.3498  0.4481
  964SOL     OW 3853   1.813   1.942   2.715 -0.0661 -0.1903 -0.3532
  964SOL    HW1 3854   1.873   2.018   2.691 -2.5804 -0.5722 -0.8818
  964SOL    HW2 3855   1.845   1.882   2.788 -0.2835 -1.2835  1.5208
  964SOL     MW 3856   1.825   1.944   2.722 -0.4265 -0.3849 -0.1757
  965SOL     OW 3857   2.281   2.674   0.651  0.1998  0.2872 -0.3995
  965SOL    HW1 3858   2.266   2.578   0.649  2.6404 -0.0402 -1.1552
  965SOL    HW2 3859   2.337   2.681   0.729 -0.0972 -0.0243  0.1204
  965SOL     MW 3860   2.287   2.663   0.661  0.4826  0.2029 -0.4307
  966SOL     OW 3861   2.655   2.597   2.418  0.0108 -0.3252 -0.1263
  966SOL    HW1 3862   2.587   2.603   2.339 -0.3579  1.6154  0.7710
  966SOL    HW2 3863   2.654   2.500   2.440 -1.2783 -0.3937  0.4577
  966SOL     MW 3864   2.646   2.585   2.410 -0.2079 -0.0782  0.0691
  967SOL     OW 3865   2.796   3.082   2.928  0.1713 -0.1861 -0.5778
  967SOL    HW1 3866   2.779   3.017   3.002  3.1048  1.5958  1.1068
  967SOL    HW2 3867   2.724   3.082   2.868  2.4652 -0.8560 -3.6938
  967SOL     MW 3868   2.784   3.073   2.930  0.8610 -0.0394 -0.7667
  968SOL     OW 3869   3.038   2.637   2.974 -0.0041  0.0201  0.4943
  968SOL    HW1 3870   2.951   2.662   2.941 -0.0909 -0.2762  0.2784
  968SOL    HW2 3871   3.071   2.590   2.889  1.5374 -0.8158 -1.1140
  968SOL     MW 3872   3.031   2.634   2.958  0.1879 -0.1293  0.2537
  969SOL     OW 3873   1.613   2.156   1.674  0.1135  0.0913  0.1158
  969SOL    HW1 3874   1.689   2.101   1.689 -0.6111  0.5542  0.5150
  969SOL    HW2 3875   1.576   2.173   1.763 -0.4577  0.8252  2.4738
  969SOL     MW 3876   1.619   2.151   1.687 -0.0575  0.2492  0.4796
  970SOL     OW 3877   1.754   1.823   1.920  0.7167  0.0631 -0.0038
  970SOL    HW1 3878   1.794   1.743   1.942 -3.5222  1.0194 -1.3328
  970SOL    HW2 3879   1.672   1.796   1.887  3.0163  0.3430  0.8096
  970SOL     MW 3880   1.749   1.809   1.919  0.4608  0.2262 -0.0718
  971SOL     OW 3881   1.800   0.036   2.411 -0.0322 -0.5088  0.2142
  971SOL    HW1 3882   1.836  -0.006   2.331  0.5672 -1.6218 -0.9397
  971SOL    HW2 3883   1.860   0.115   2.434  1.7385 -1.7278  0.0367
  971SOL     MW 3884   1.813   0.041   2.403  0.2805 -0.8165  0.0386
  972SOL     OW 3885   0.251   2.902   2.473 -0.2634 -0.1952  0.1622
  972SOL    HW1 3886   0.318   2.829   2.476  1.5445  0.0547 -2.0299
  972SOL    HW2 3887   0.297   2.974   2.513  1.2623  2.7936 -1.0703
  972SOL     MW 3888   0.266   2.902   2.478  0.1765  0.2321 -0.2897
  973SOL     OW 3889   2.627   0.016   2.086 -0.3442 -0.2592 -0.6034
  973SOL    HW1 3890   2.609  -0.076   2.056  1.1129  1.7833  0.0896
  973SOL    HW2 3891   2.621   0.072   2.011 -0.0297  0.0405  0.7512
  973SOL     MW 3892   2.624   0.011   2.072 -0.1104  0.0498 -0.3332
  974SOL     OW 3893   2.042   0.204   2.741 -0.0976 -1.0377 -0.0372
  974SOL    HW1 3894   2.136   0.188   2.736 -0.8945  0.9452  0.3810
  974SOL    HW2 3895   2.005   0.143   2.803 -0.0450 -3.3179 -0.2539
  974SOL     MW 3896   2.049   0.194   2.749 -0.1958 -1.0769 -0.0106
  975SOL     OW 3897   2.205   2.514   2.503  0.0106 -0.5690  0.3880
  975SOL    HW1 3898   2.278   2.568   2.533 -0.5511  0.8364  0.1036
  975SOL    HW2 3899   2.142   2.584   2.479  2.1516  0.3313 -1.2129
  975SOL     MW 3900   2.206   2.530   2.504  0.2190 -0.2648  0.1392
  976SOL     OW 3901   0.205   0.382   1.779 -0.9530  0.2869 -0.5724
  976SOL    HW1 3902   0.271   0.317   1.777 -1.7173 -1.8450  1.9870
  976SOL    HW2 3903   0.126   0.327   1.747 -1.7231 -0.6298 -0.3013
  976SOL     MW 3904   0.203   0.366   1.774 -1.1554 -0.1154 -0.1989
  977SOL     OW 3905   1.740   2.692   2.522 -0.4579  0.2367 -0.1820
  977SOL    HW1 3906   1.746   2.604   2.561 -0.0922 -2.3245  1.1532
  977SOL    HW2 3907   1.829   2.709   2.486  0.4958  2.4361  0.0620
  977SOL     MW 3908   1.753   2.682   2.523 -0.2838  0.1890  0.0263
   3.10000   3.10000   3.10000
