977 TIP4P/2005f water molecules t=   0.11000 step= 110
 3908
    1SOL     OW    1   0.197   0.761   0.022  0.5448 -0.5222  0.7540
    1SOL    HW1    2   0.169   0.782  -0.070  0.9900 -1.1628  0.2491
    1SOL    HW2    3   0.233   0.670   0.008 -0.7437 -1.2083 -1.6540
    1SOL     MW    4   0.198   0.752   0.008  0.4335 -0.6973  0.3697
    2SOL     OW    5   0.338   3.042   1.128  0.5503 -0.2678  0.3739
    2SOL    HW1    6   0.395   3.109   1.093  1.9432  0.2861  2.4006
    2SOL    HW2    7   0.246   3.082   1.136 -1.5403 -1.6151  1.0420
    2SOL     MW    8   0.333   3.056   1.124  0.4583 -0.3725  0.7294
    3SOL     OW    9   2.754   0.381   0.869 -0.0885 -0.0595  0.0044
    3SOL    HW1   10   2.746   0.467   0.819 -0.9046  2.5042  1.3265
    3SOL    HW2   11   2.726   0.416   0.961  0.2651  1.6899 -1.3595
    3SOL     MW   12   2.749   0.397   0.875 -0.1495  0.5096 -0.0012
    4SOL     OW   13   3.100   1.705   0.689  0.2473  0.8395 -0.8451
    4SOL    HW1   14   3.023   1.742   0.644  2.3278  1.8693  0.3098
    4SOL    HW2   15   3.152   1.661   0.623 -0.7263  0.6050  0.2651
    4SOL     MW   16   3.097   1.704   0.675  0.3934  0.9445 -0.5463
    5SOL     OW   17   1.670   1.442   0.511 -0.0313  0.0142 -0.1970
    5SOL    HW1   18   1.739   1.428   0.579  1.1620  0.3155  0.0312
    5SOL    HW2   19   1.588   1.428   0.552 -0.1867  2.2615 -1.9381
    5SOL     MW   20   1.668   1.438   0.526  0.1057  0.3504 -0.3966
    6SOL     OW   21   0.847   1.342   0.573  0.0635  0.4299  0.0342
    6SOL    HW1   22   0.760   1.334   0.606  0.0940  1.6654  0.5328
    6SOL    HW2   23   0.891   1.257   0.603 -0.3052 -1.6400 -0.2692
    6SOL     MW   24   0.841   1.330   0.581  0.0189  0.3198  0.0600
    7SOL     OW   25   1.958   1.053   3.060 -0.5914  0.0739  0.7451
    7SOL    HW1   26   2.016   1.092   2.997 -0.6089 -1.2019 -0.0720
    7SOL    HW2   27   2.003   1.093   3.132  3.0214  1.1872 -1.3723
    7SOL     MW   28   1.972   1.063   3.061 -0.1170  0.0525  0.3579
    8SOL     OW   29   1.014   1.310   1.069 -0.6282 -0.1128  0.0994
    8SOL    HW1   30   1.103   1.274   1.088  3.2907 -0.7430  2.2192
    8SOL    HW2   31   0.958   1.231   1.054 -1.7109 -0.8752 -1.0298
    8SOL     MW   32   1.018   1.294   1.070 -0.2540 -0.2965  0.2301
    9SOL     OW   33   0.995   0.501   1.430 -0.1363  0.2270 -0.3925
    9SOL    HW1   34   0.939   0.425   1.444  1.7763  1.0083  0.8428
    9SOL    HW2   35   1.065   0.501   1.493  0.3964  0.9770 -1.0857
    9SOL     MW   36   0.997   0.491   1.440  0.1863  0.4291 -0.3210
   10SOL     OW   37   0.307   0.868   0.433 -0.0523  0.3551  0.7275
   10SOL    HW1   38   0.407   0.885   0.419  0.4698  1.6635 -1.4549
   10SOL    HW2   39   0.286   0.896   0.522 -1.4970 -0.3966 -0.2359
   10SOL     MW   40   0.317   0.874   0.443 -0.1740  0.4286  0.3125
   11SOL     OW   41   0.923   1.087   1.548 -0.0877  0.0395 -0.6056
   11SOL    HW1   42   0.944   1.102   1.642 -0.8217 -1.7581 -0.6153
   11SOL    HW2   43   0.835   1.036   1.544  0.8277 -0.9458 -0.3171
   11SOL     MW   44   0.914   1.082   1.560 -0.0637 -0.3277 -0.5688
   12SOL     OW   45   3.062   1.069   0.856  0.4758  0.6659 -0.7668
   12SOL    HW1   46   3.101   1.136   0.909 -0.3945  0.8620  0.0968
   12SOL    HW2   47   3.031   1.116   0.771 -3.3596  3.2857 -2.0050
   12SOL     MW   48   3.063   1.084   0.852 -0.1451  1.0374 -0.8162
   13SOL     OW   49   1.913   1.410   1.440 -0.4034  0.6172  0.0313
   13SOL    HW1   50   1.952   1.366   1.365 -0.7642  1.1286 -2.2767
   13SOL    HW2   51   1.902   1.500   1.420 -0.5379 -0.1119  0.0703
   13SOL     MW   52   1.917   1.416   1.428 -0.4688  0.5885 -0.2681
   14SOL     OW   53   0.600   0.384   1.761 -0.2203 -0.4674 -0.0397
   14SOL    HW1   54   0.592   0.297   1.713 -0.8849 -1.6357 -0.6664
   14SOL    HW2   55   0.676   0.377   1.818 -0.8313  0.5517 -1.1927
   14SOL     MW   56   0.609   0.371   1.762 -0.3886 -0.4871 -0.2745
   15SOL     OW   57   2.010   0.562   0.920 -0.0712 -0.0048 -0.3860
   15SOL    HW1   58   2.033   0.558   1.014 -0.5021  0.7498 -0.1842
   15SOL    HW2   59   2.075   0.514   0.871 -1.7125 -1.4622 -0.1495
   15SOL     MW   60   2.022   0.555   0.926 -0.3446 -0.0975 -0.3282
   16SOL     OW   61   0.156   1.775   0.262  0.6131  0.3221  0.0026
   16SOL    HW1   62   0.230   1.716   0.284  1.4363 -0.5061  2.4396
   16SOL    HW2   63   0.180   1.855   0.298  1.0850 -0.2431 -1.2859
   16SOL     MW   64   0.169   1.778   0.269  0.7840  0.1383  0.1541
   17SOL     OW   65   1.161   0.777   1.470 -0.5023  0.2051  0.4583
   17SOL    HW1   66   1.186   0.830   1.550 -1.2237  0.8917  1.4825
   17SOL    HW2   67   1.065   0.766   1.466  0.3281 -1.5109  1.6659
   17SOL     MW   68   1.152   0.783   1.480 -0.4879  0.0693  0.7528
   18SOL     OW   69   3.096   1.560   0.375  0.0541 -0.2333 -0.2888
   18SOL    HW1   70   3.137   1.632   0.323 -0.7413  2.1159  1.8855
   18SOL    HW2   71   3.094   1.484   0.324 -0.3922  0.8227  0.0459
   18SOL     MW   72   3.101   1.560   0.362 -0.1098  0.2160  0.0422
   19SOL     OW   73   0.069   1.237   1.028  0.2667  0.3785  0.0201
   19SOL    HW1   74   0.126   1.300   0.976 -0.2761  0.2183 -0.8213
   19SOL    HW2   75  -0.019   1.282   1.037  0.1408 -4.0988  1.7238
   19SOL     MW   76   0.065   1.252   1.023  0.1785 -0.2334  0.1339
   20SOL     OW   77   0.493   2.202   1.306  0.2234  0.6308  0.3686
   20SOL    HW1   78   0.447   2.155   1.230  0.8309 -0.7873  1.4730
   20SOL    HW2   79   0.424   2.230   1.373 -0.4869  0.3073  0.3038
   20SOL     MW   80   0.478   2.199   1.305  0.2099  0.4010  0.5058
   21SOL     OW   81   0.564   0.899   0.356 -0.1243  0.4771 -0.3424
   21SOL    HW1   82   0.603   0.822   0.399  1.7887 -1.4726  1.8316
   21SOL    HW2   83   0.529   0.874   0.266 -0.2655 -0.8724 -2.8213
   21SOL     MW   84   0.564   0.886   0.350  0.1095  0.0418 -0.3827
   22SOL     OW   85   1.586   0.614   1.156 -0.5290 -0.1641 -0.4521
   22SOL    HW1   86   1.613   0.565   1.074 -1.3000  0.6900 -0.3651
   22SOL    HW2   87   1.502   0.662   1.131 -0.4115 -0.5620  1.4766
   22SOL     MW   88   1.579   0.614   1.141 -0.6152 -0.1039 -0.1861
   23SOL     OW   89   3.062   0.715   0.701 -0.1923  0.3260  0.7104
   23SOL    HW1   90   3.115   0.639   0.684  0.9771  1.2926  1.3309
   23SOL    HW2   91   3.129   0.777   0.733 -3.3331 -0.3904 -2.9910
   23SOL     MW   92   3.078   0.713   0.703 -0.4524  0.3590  0.3039
   24SOL     OW   93   2.087   2.232   0.001  0.1328  0.0122  0.6385
   24SOL    HW1   94   2.083   2.202   0.092  1.7138  0.5266  0.5020
   24SOL    HW2   95   2.130   2.160  -0.052 -0.2051 -0.2778  0.6277
   24SOL     MW   96   2.092   2.219   0.006  0.2968  0.0418  0.6190
   25SOL     OW   97   0.179   1.464   0.588  0.0077 -0.5193  0.0723
   25SOL    HW1   98   0.123   1.494   0.519  1.7772  2.2815  1.8967
   25SOL    HW2   99   0.255   1.435   0.545 -1.1427 -2.8437  1.2726
   25SOL     MW  100   0.181   1.464   0.573  0.0894 -0.4565  0.4714
   26SOL     OW  101   2.011   1.020   0.406  0.7018 -0.3882  0.3170
   26SOL    HW1  102   1.914   1.023   0.418  2.2619  0.0773 -0.2242
   26SOL    HW2  103   2.036   1.081   0.328  0.1350  2.7378  0.5727
   26SOL     MW  104   2.002   1.028   0.398  0.8328  0.0856  0.2793
   27SOL     OW  105   1.998   1.454   0.236 -0.2975  0.6403  0.3601
   27SOL    HW1  106   1.926   1.397   0.264 -1.7202  1.0039  1.5176
   27SOL    HW2  107   2.029   1.490   0.323 -0.0474 -0.3265  0.9282
   27SOL     MW  108   1.993   1.452   0.251 -0.4522  0.5607  0.5877
   28SOL     OW  109   0.332   0.957   1.925  0.8510 -0.2196 -0.2043
   28SOL    HW1  110   0.251   0.918   1.962 -1.9863 -1.5268  2.7534
   28SOL    HW2  111   0.370   0.899   1.863 -0.2482 -0.1192  0.4559
   28SOL     MW  112   0.326   0.944   1.922  0.3316 -0.3788  0.2731
   29SOL     OW  113   0.230   1.421   0.904 -0.6773 -0.2395 -0.1711
   29SOL    HW1  114   0.269   1.502   0.947 -1.6573 -0.4852 -0.9601
   29SOL    HW2  115   0.209   1.448   0.819 -1.0888  1.1375  1.9392
   29SOL     MW  116   0.232   1.435   0.898 -0.8609 -0.0902  0.0032
   30SOL     OW  117   0.911   1.010   1.146  0.2202  0.1480  0.2190
   30SOL    HW1  118   0.830   1.042   1.187 -0.2535 -2.0156  0.7249
   30SOL    HW2  119   0.989   1.034   1.198  1.3829 -3.5727 -0.7428
   30SOL     MW  120   0.911   1.018   1.159  0.3111 -0.6283  0.1588
   31SOL     OW  121   0.493   0.244   0.193 -0.2636  0.0073  1.0515
   31SOL    HW1  122   0.477   0.174   0.259 -0.7229 -0.8941 -1.7171
   31SOL    HW2  123   0.467   0.213   0.102 -0.6501  1.3857 -0.0256
   31SOL     MW  124   0.488   0.231   0.190 -0.3752  0.0702  0.5441
   32SOL     OW  125   2.684   1.034   1.126 -0.4002  0.2487 -0.5459
   32SOL    HW1  126   2.651   0.945   1.137  1.3462  1.0564 -3.6545
   32SOL    HW2  127   2.779   1.011   1.124  0.3207 -2.4060 -2.6041
   32SOL     MW  128   2.692   1.019   1.127 -0.0747  0.0050 -1.2276
   33SOL     OW  129   1.789   1.280   0.341  0.0572  0.0945  0.3738
   33SOL    HW1  130   1.783   1.198   0.398 -0.7178 -1.7083 -0.1928
   33SOL    HW2  131   1.751   1.349   0.398  0.4115 -2.2108 -0.6352
   33SOL     MW  132   1.783   1.278   0.356  0.0017 -0.4475  0.1659
   34SOL     OW  133   1.276   1.846   1.122 -0.0797 -0.1665  0.5252
   34SOL    HW1  134   1.204   1.907   1.116  1.0592  2.7609 -2.3726
   34SOL    HW2  135   1.330   1.861   1.198 -0.0492 -2.7384  0.9224
   34SOL     MW  136   1.274   1.856   1.131  0.0746 -0.1196  0.1953
   35SOL     OW  137   0.361   0.057   1.880 -0.0873 -0.8466  0.0675
   35SOL    HW1  138   0.423   0.024   1.954  3.0024 -0.9197 -1.2944
   35SOL    HW2  139   0.378  -0.006   1.810  1.1392  0.2609  1.5980
   35SOL     MW  140   0.372   0.044   1.881  0.4822 -0.7101  0.0897
   36SOL     OW  141   1.848   1.910   0.495  0.8229  0.0579  0.3542
   36SOL    HW1  142   1.843   1.904   0.395  0.1406  1.0686  1.5766
   36SOL    HW2  143   1.863   1.825   0.537 -2.9602  1.9556  2.2201
   36SOL     MW  144   1.849   1.898   0.487  0.2337  0.4417  0.7617
   37SOL     OW  145   1.813   1.988   0.955 -0.5409  0.0225  0.3879
   37SOL    HW1  146   1.774   1.959   0.876 -0.3134  1.7729 -3.4597
   37SOL    HW2  147   1.742   2.018   1.023  1.3959 -1.8056  0.8526
   37SOL     MW  148   1.799   1.988   0.954 -0.2553  0.0123 -0.0584
   38SOL     OW  149   2.836   0.915   0.226  0.4829 -0.2363 -0.6939
   38SOL    HW1  150   2.871   0.926   0.312 -0.5476 -1.3256  0.8834
   38SOL    HW2  151   2.910   0.871   0.175  1.6370  0.1930  0.8709
   38SOL     MW  152   2.850   0.911   0.231  0.4992 -0.3234 -0.2793
   39SOL     OW  153   1.455   0.671   0.804  0.1380  0.4242  1.0104
   39SOL    HW1  154   1.444   0.576   0.814 -0.9234 -2.1484 -1.7122
   39SOL    HW2  155   1.430   0.717   0.884  0.1043  0.8429  1.7156
   39SOL     MW  156   1.450   0.665   0.816 -0.0065  0.1400  0.7442
   40SOL     OW  157   1.298   1.897   0.239  0.1802 -0.3017  0.2001
   40SOL    HW1  158   1.271   1.817   0.286  0.0709  1.1873 -1.3741
   40SOL    HW2  159   1.314   1.964   0.305 -0.6449  0.0901  0.6060
   40SOL     MW  160   1.296   1.896   0.254  0.0569 -0.0535  0.0460
   41SOL     OW  161   0.613   0.540   1.547  0.3732  0.0169  0.3215
   41SOL    HW1  162   0.689   0.607   1.561  0.9040  0.2513 -1.4401
   41SOL    HW2  163   0.608   0.485   1.622  0.6287  4.2873 -0.1783
   41SOL     MW  164   0.622   0.542   1.558  0.4769  0.6113  0.0232
   42SOL     OW  165   1.400   3.064   1.967  0.0534  0.3707 -0.5433
   42SOL    HW1  166   1.312   3.079   1.995 -2.6127 -1.1733 -0.6117
   42SOL    HW2  167   1.423   2.976   1.996 -0.0982  2.2346 -3.0937
   42SOL     MW  168   1.391   3.054   1.974 -0.3184  0.4129 -0.8888
   43SOL     OW  169   1.582   0.165   1.575  0.3465  0.3485 -0.3037
   43SOL    HW1  170   1.616   0.112   1.505  1.3016 -0.7207 -0.0161
   43SOL    HW2  171   1.500   0.122   1.613 -1.7372  1.3113  1.5492
   43SOL     MW  172   1.576   0.152   1.570  0.1976  0.3345 -0.0213
   44SOL     OW  173   1.323   0.736   1.073 -0.2437  0.1674 -0.6454
   44SOL    HW1  174   1.309   0.831   1.070 -0.5871  0.2089 -0.0001
   44SOL    HW2  175   1.319   0.714   1.166  1.8522 -0.0667 -0.1562
   44SOL     MW  176   1.321   0.746   1.085 -0.0125  0.1420 -0.4957
   45SOL     OW  177   1.024   0.808   0.795  0.1230 -0.5446  0.0007
   45SOL    HW1  178   1.027   0.741   0.866  1.7413 -0.0366 -1.2481
   45SOL    HW2  179   0.976   0.769   0.732  4.7512 -0.4118  1.1594
   45SOL     MW  180   1.018   0.794   0.796  0.9472 -0.4601 -0.0112
   46SOL     OW  181   0.609   1.132   0.604 -0.4025 -0.0678 -0.1376
   46SOL    HW1  182   0.619   1.148   0.509 -0.5851  0.8789  1.1990
   46SOL    HW2  183   0.692   1.098   0.630 -0.6143 -0.9925  2.1088
   46SOL     MW  184   0.621   1.130   0.595 -0.4545 -0.0649  0.3351
   47SOL     OW  185   0.096   1.868   1.821  0.0209  0.8893  0.4217
   47SOL    HW1  186   0.172   1.828   1.781 -0.8986  0.9553  0.6401
   47SOL    HW2  187   0.092   1.852   1.912 -0.4490  0.7858 -1.4786
   47SOL     MW  188   0.105   1.860   1.828 -0.1624  0.8844  0.1998
   48SOL     OW  189   1.051   0.635   1.043  0.3541  0.3333  0.0654
   48SOL    HW1  190   0.990   0.663   1.115  1.3044 -0.1732  1.0994
   48SOL    HW2  191   1.143   0.676   1.046 -2.4942  2.0477 -0.7952
   48SOL     MW  192   1.055   0.644   1.053  0.1037  0.4927  0.0883
   49SOL     OW  193   1.856   0.753   1.590 -0.2266  0.1828 -0.2517
   49SOL    HW1  194   1.779   0.721   1.640 -0.3145 -0.4421  4.2326
   49SOL    HW2  195   1.904   0.675   1.568 -2.3568  1.7060  0.8092
   49SOL     MW  196   1.853   0.739   1.593 -0.5193  0.3013  0.4800
   50SOL     OW  197   1.279   1.009   0.588  0.2748  0.1993  0.1973
   50SOL    HW1  198   1.252   1.068   0.653  2.2827 -3.2552 -0.9196
   50SOL    HW2  199   1.308   0.923   0.628  2.5819 -1.6779  0.9895
   50SOL     MW  200   1.280   1.005   0.602  0.8441 -0.5042  0.1545
   51SOL     OW  201   0.296   2.885   0.899  0.2253 -0.0233  0.6737
   51SOL    HW1  202   0.377   2.826   0.908 -1.1617  0.4593 -0.8697
   51SOL    HW2  203   0.303   2.939   0.982 -0.3625 -1.5921  2.5950
   51SOL     MW  204   0.307   2.884   0.911 -0.0353 -0.1666  0.7235
   52SOL     OW  205   0.822   1.900   0.445 -0.1843  0.2217 -0.5790
   52SOL    HW1  206   0.767   1.972   0.471 -0.4716 -1.4161 -0.1133
   52SOL    HW2  207   0.761   1.858   0.381  0.7449  0.0321 -1.4735
   52SOL     MW  208   0.807   1.904   0.440 -0.0996 -0.0194 -0.6356
   53SOL     OW  209   0.361   2.023   0.602 -0.8772  0.0151 -0.4249
   53SOL    HW1  210   0.331   2.009   0.514 -1.6534  0.0538  1.1921
   53SOL    HW2  211   0.345   2.125   0.616  1.1185 -1.9073 -0.4227
   53SOL     MW  212   0.355   2.035   0.592 -0.7163 -0.2335 -0.2112
   54SOL     OW  213   2.189   0.855   0.830  0.5546 -0.1312 -0.0712
   54SOL    HW1  214   2.199   0.811   0.744  0.2103  0.4202 -1.4843
   54SOL    HW2  215   2.096   0.872   0.838  0.0461  0.3324 -0.5263
   54SOL     MW  216   2.178   0.852   0.819  0.4421  0.0027 -0.3177
   55SOL     OW  217   0.515   1.432   1.543 -0.3862  0.0181 -0.3428
   55SOL    HW1  218   0.479   1.467   1.461  0.1857  0.0622  0.3799
   55SOL    HW2  219   0.607   1.396   1.524  1.4465 -1.1800 -1.5856
   55SOL     MW  220   0.522   1.432   1.530 -0.0690 -0.1342 -0.4114
   56SOL     OW  221   0.471   0.815   0.116 -0.2119  0.0135 -0.0540
   56SOL    HW1  222   0.492   0.877   0.052 -0.2148  1.5592  0.6552
   56SOL    HW2  223   0.384   0.785   0.088  0.3262  0.8828 -2.4020
   56SOL     MW  224   0.462   0.819   0.104 -0.1413  0.3321 -0.2702
   57SOL     OW  225   1.256   1.219   1.155  0.0995  0.0455 -0.3739
   57SOL    HW1  226   1.352   1.227   1.153 -0.8301  0.5928 -1.2548
   57SOL    HW2  227   1.232   1.155   1.229  0.1470  1.9670 -0.1281
   57SOL     MW  228   1.266   1.211   1.165 -0.0169  0.3713 -0.4577
   58SOL     OW  229   0.676   1.079   1.262  0.5376  0.3810 -0.4655
   58SOL    HW1  230   0.617   1.157   1.284  0.5820 -1.0778  1.0603
   58SOL    HW2  231   0.676   1.020   1.339  0.4752 -0.8161 -1.1588
   58SOL     MW  232   0.668   1.082   1.275  0.5352  0.0306 -0.3556
   59SOL     OW  233   1.565   1.582   0.288 -0.5460 -0.1426 -0.7554
   59SOL    HW1  234   1.573   1.525   0.361  0.1001  0.4440  1.5686
   59SOL    HW2  235   1.510   1.657   0.305  0.1412  1.1729  0.1269
   59SOL     MW  236   1.558   1.584   0.300 -0.3701  0.1084 -0.3324
   60SOL     OW  237   0.021   0.156   1.714 -0.2707  0.0542 -0.1749
   60SOL    HW1  238  -0.065   0.199   1.701  0.0809  2.5612 -0.4246
   60SOL    HW2  239  -0.002   0.061   1.723 -3.3391 -1.2803 -0.9536
   60SOL     MW  240   0.007   0.149   1.713 -0.6292  0.2089 -0.3105
   61SOL     OW  241   2.013   1.473   3.063  0.1949  0.0489  0.0039
   61SOL    HW1  242   2.018   1.505   3.154 -2.7248  0.1454 -3.0205
   61SOL    HW2  243   2.043   1.380   3.069  1.9146 -2.8320 -1.1580
   61SOL     MW  244   2.018   1.465   3.076  0.0366 -0.3184 -0.5484
   62SOL     OW  245   0.591   1.631   0.576  0.2682  0.5007 -0.1807
   62SOL    HW1  246   0.667   1.623   0.517 -0.8119  3.6638  0.3395
   62SOL    HW2  247   0.592   1.542   0.616 -0.4711 -1.3695  1.0428
   62SOL     MW  248   0.601   1.618   0.574  0.0282  0.6713  0.0494
   63SOL     OW  249   1.721   0.772   0.735  0.1324 -0.2978 -0.0206
   63SOL    HW1  250   1.714   0.745   0.644 -0.1482  2.7461 -1.0756
   63SOL    HW2  251   1.639   0.739   0.758  0.9356  0.0600 -1.8810
   63SOL     MW  252   1.710   0.764   0.726  0.2013  0.1510 -0.4053
   64SOL     OW  253   0.291   1.699   0.959  0.1892  0.2427  0.4979
   64SOL    HW1  254   0.349   1.704   0.879  2.7590 -0.5263 -0.7176
   64SOL    HW2  255   0.280   1.794   0.969  2.0762  0.9180  0.1024
   64SOL     MW  256   0.297   1.712   0.950  0.7773  0.2303  0.2854
   65SOL     OW  257   1.533   2.214   0.324 -0.3349  0.0110  0.1597
   65SOL    HW1  258   1.617   2.205   0.268 -0.6543  1.0970 -4.7815
   65SOL    HW2  259   1.556   2.269   0.390  0.8558 -1.9841 -2.2366
   65SOL     MW  260   1.547   2.220   0.325 -0.2199 -0.1089 -0.8084
   66SOL     OW  261   0.283   0.595   0.529  0.4532 -0.4180 -0.7993
   66SOL    HW1  262   0.334   0.553   0.463 -1.9685 -1.5879  0.9921
   66SOL    HW2  263   0.312   0.683   0.512 -1.4163 -1.4400  0.1382
   66SOL     MW  264   0.294   0.601   0.518 -0.1130 -0.7072 -0.4392
   67SOL     OW  265   1.559   0.216   1.999  0.1079 -0.0114 -0.2501
   67SOL    HW1  266   1.591   0.261   1.920  2.7272 -0.0839 -1.9271
   67SOL    HW2  267   1.513   0.137   1.974 -1.5216 -0.7548  0.6658
   67SOL     MW  268   1.557   0.212   1.986  0.2385 -0.1190 -0.3505
   68SOL     OW  269   0.716   0.075   2.960 -0.6020  0.9137  0.4745
   68SOL    HW1  270   0.734   0.090   2.866 -0.7921 -0.1554 -1.8688
   68SOL    HW2  271   0.749   0.155   3.001  1.4024  2.4063  1.4007
   68SOL     MW  272   0.723   0.087   2.953 -0.3626  0.9696  0.2875
   69SOL     OW  273   1.016   0.149   1.955 -0.3272 -0.0421  0.2142
   69SOL    HW1  274   1.095   0.186   1.996 -0.6611 -2.4233 -1.6170
   69SOL    HW2  275   1.029   0.053   1.979  1.8594 -0.4464  0.3410
   69SOL     MW  276   1.028   0.141   1.964 -0.0828 -0.4096 -0.0107
   70SOL     OW  277   0.585   1.802   1.162 -0.5242 -0.3096  0.0015
   70SOL    HW1  278   0.592   1.715   1.204 -0.5672 -0.1900 -0.5387
   70SOL    HW2  279   0.672   1.809   1.106  0.0198  1.6164  0.6772
   70SOL     MW  280   0.598   1.791   1.160 -0.4581 -0.0397  0.0194
   71SOL     OW  281   1.798   0.692   1.321 -0.2223  0.3947 -0.2250
   71SOL    HW1  282   1.770   0.676   1.411 -0.3663  0.2468  0.7444
   71SOL    HW2  283   1.723   0.671   1.269  0.1959 -1.1269  0.3240
   71SOL     MW  284   1.784   0.687   1.326 -0.1861  0.1744 -0.0247
   72SOL     OW  285   0.833   1.835   1.041  0.1926  0.2973  0.2040
   72SOL    HW1  286   0.820   1.882   0.959  0.7141  0.8845 -1.8079
   72SOL    HW2  287   0.851   1.747   1.011  1.1006  3.0178 -0.5055
   72SOL     MW  288   0.834   1.830   1.026  0.3812  0.7337 -0.1551
   73SOL     OW  289   1.333   0.644   1.327 -0.1232  0.3273  0.0376
   73SOL    HW1  290   1.296   0.559   1.301 -1.4311  1.5744  0.4848
   73SOL    HW2  291   1.262   0.687   1.382 -0.1679  1.3888 -1.4570
   73SOL     MW  292   1.319   0.638   1.331 -0.3017  0.6319 -0.1006
   74SOL     OW  293   2.786   0.105   1.016 -0.3107 -0.0299 -0.1424
   74SOL    HW1  294   2.717   0.055   0.966  0.4927 -1.0501  0.0471
   74SOL    HW2  295   2.828   0.161   0.951 -0.3917  1.5105 -1.7366
   74SOL     MW  296   2.783   0.106   1.001 -0.2154  0.0387 -0.3278
   75SOL     OW  297   1.657   1.269   0.100 -0.0398  0.0752 -0.0054
   75SOL    HW1  298   1.710   1.268   0.187  0.0078 -0.4086  0.9749
   75SOL    HW2  299   1.670   1.174   0.059  0.6558 -0.6867 -2.3085
   75SOL     MW  300   1.666   1.256   0.106  0.0583 -0.0892 -0.1799
   76SOL     OW  301   2.940   0.631   0.463  0.4343  0.0180  0.0840
   76SOL    HW1  302   2.970   0.652   0.557 -0.5106  1.0346 -0.2747
   76SOL    HW2  303   3.024   0.602   0.419  0.2808 -1.2076 -0.0748
   76SOL     MW  304   2.955   0.630   0.469  0.2894 -0.0096  0.0157
   77SOL     OW  305   0.911   0.455   0.527 -0.6017 -0.6752 -0.0376
   77SOL    HW1  306   0.868   0.536   0.506  0.8518 -1.3899 -0.2978
   77SOL    HW2  307   0.842   0.386   0.535 -0.0834 -1.3192  1.0798
   77SOL     MW  308   0.896   0.456   0.525 -0.3415 -0.8545  0.0755
   78SOL     OW  309   0.869   0.750   1.215 -0.4953  0.3987  0.3313
   78SOL    HW1  310   0.775   0.754   1.199 -2.6381 -0.1836 -1.5755
   78SOL    HW2  311   0.899   0.843   1.217 -2.4558  0.3501  1.8291
   78SOL     MW  312   0.861   0.763   1.213 -1.0367  0.3155  0.2773
   79SOL     OW  313   1.838   1.662   0.602 -0.4103  0.2262 -0.3283
   79SOL    HW1  314   1.760   1.627   0.563 -0.4171  1.6654  1.4382
   79SOL    HW2  315   1.814   1.655   0.697  1.6511  0.2018  0.7409
   79SOL     MW  316   1.825   1.656   0.609 -0.1392  0.4129  0.0459
   80SOL     OW  317   0.154   1.046   0.266  0.0746 -0.7163 -0.1690
   80SOL    HW1  318   0.065   1.018   0.284 -2.9287  0.4289 -0.8334
   80SOL    HW2  319   0.196   0.962   0.292  0.2478 -3.5084 -0.9881
   80SOL     MW  320   0.148   1.031   0.272 -0.2988 -0.9336 -0.3647
   81SOL     OW  321   1.918   1.907   0.221  0.1591 -0.3616  0.3402
   81SOL    HW1  322   1.844   1.857   0.186 -0.8252  2.3397 -0.5761
   81SOL    HW2  323   1.914   1.997   0.177  1.5521  1.9529 -1.5807
   81SOL     MW  324   1.908   1.912   0.211  0.2130  0.3002 -0.0341
   82SOL     OW  325   0.867   0.906   0.551  0.1376  0.6176  0.2379
   82SOL    HW1  326   0.947   0.920   0.495 -0.1386  0.4319 -1.8303
   82SOL    HW2  327   0.809   0.834   0.518 -0.6663  2.0977 -0.1506
   82SOL     MW  328   0.870   0.899   0.540 -0.0049  0.7884 -0.0863
   83SOL     OW  329   0.082   0.615   1.384  0.2330  0.7810  0.2974
   83SOL    HW1  330   0.102   0.701   1.360 -1.8639  1.1137  2.3193
   83SOL    HW2  331   0.155   0.555   1.391  2.2702  0.9375  2.8702
   83SOL     MW  332   0.094   0.618   1.382  0.2252  0.8455  0.9037
   84SOL     OW  333   0.042   0.296   1.074  0.0054  0.3479  0.4011
   84SOL    HW1  334   0.012   0.300   0.981  0.8262 -0.3541  0.3922
   84SOL    HW2  335   0.038   0.203   1.103 -0.0442 -1.6986 -0.8368
   84SOL     MW  336   0.037   0.285   1.066  0.1071 -0.0147  0.2366
   85SOL     OW  337   0.456   0.407   0.720 -0.3756  0.4355 -0.2409
   85SOL    HW1  338   0.388   0.444   0.672  1.0608 -1.9280  2.4068
   85SOL    HW2  339   0.412   0.353   0.789 -2.9487 -1.2542  1.5073
   85SOL     MW  340   0.441   0.404   0.723 -0.5256 -0.0993  0.3391
   86SOL     OW  341   1.142   0.417   1.198 -0.0393 -0.7194 -0.0857
   86SOL    HW1  342   1.073   0.473   1.148 -0.1301  1.4743 -0.4822
   86SOL    HW2  343   1.104   0.420   1.288  2.7442 -0.2830  0.6353
   86SOL     MW  344   1.128   0.425   1.203  0.3160 -0.3724 -0.0429
   87SOL     OW  345   1.269   1.408   1.365 -0.0048 -0.0678 -0.1403
   87SOL    HW1  346   1.240   1.477   1.307 -0.6034 -0.2557  1.8913
   87SOL    HW2  347   1.276   1.336   1.305  1.0070  0.8825  0.5889
   87SOL     MW  348   1.266   1.408   1.349  0.0497  0.0328  0.2239
   88SOL     OW  349   1.370   1.020   1.012  0.0762 -0.1965 -0.2491
   88SOL    HW1  350   1.461   1.013   1.033  0.0944  0.4942 -0.4134
   88SOL    HW2  351   1.331   1.082   1.070  2.6833 -3.8609  0.7935
   88SOL     MW  352   1.377   1.027   1.023  0.4226 -0.5889 -0.1332
   89SOL     OW  353   1.814   0.562   0.289 -0.4790  0.2500 -0.1474
   89SOL    HW1  354   1.879   0.499   0.328 -0.7430 -1.6701 -1.9538
   89SOL    HW2  355   1.858   0.631   0.232 -1.4147  1.1436  0.5932
   89SOL     MW  356   1.828   0.562   0.287 -0.6373  0.1145 -0.2880
   90SOL     OW  357   0.755   1.241   2.833 -0.3295  0.1985 -0.0736
   90SOL    HW1  358   0.796   1.183   2.894 -0.5030 -0.5317 -0.9288
   90SOL    HW2  359   0.727   1.317   2.893 -1.6300 -0.3494  0.6821
   90SOL     MW  360   0.757   1.243   2.849 -0.5240  0.0299 -0.0867
   91SOL     OW  361   1.961   0.740   0.465  0.1961 -0.3175 -0.3935
   91SOL    HW1  362   1.986   0.836   0.455 -0.0662 -1.2251  1.1368
   91SOL    HW2  363   1.927   0.712   0.378 -0.2449 -0.4790  1.9143
   91SOL     MW  364   1.960   0.749   0.452  0.1033 -0.4586  0.1129
   92SOL     OW  365   1.661   0.744   0.468  0.0475 -0.4225  0.0586
   92SOL    HW1  366   1.565   0.733   0.472 -1.3876  0.7966  0.1760
   92SOL    HW2  367   1.698   0.667   0.416  0.7891  0.8162 -3.2857
   92SOL     MW  368   1.653   0.732   0.462 -0.0440 -0.0982 -0.3671
   93SOL     OW  369   1.012   0.204   0.391  0.7406  0.1074 -0.0727
   93SOL    HW1  370   0.967   0.272   0.445 -2.0278 -1.1940  0.3315
   93SOL    HW2  371   0.949   0.200   0.322  0.4435 -1.8302 -0.5327
   93SOL     MW  372   0.998   0.213   0.389  0.3361 -0.3199 -0.0800
   94SOL     OW  373   1.970   1.276   1.698  0.0588 -0.1350 -0.0383
   94SOL    HW1  374   1.951   1.302   1.610  1.8215  0.9285  0.0656
   94SOL    HW2  375   1.907   1.215   1.735 -0.5191 -2.8952  1.2480
   94SOL     MW  376   1.959   1.272   1.691  0.2151 -0.3589  0.1452
   95SOL     OW  377   0.919   1.564   1.008  0.1881 -0.4949  0.0526
   95SOL    HW1  378   0.948   1.479   1.030  1.2430  0.9484 -0.9620
   95SOL    HW2  379   0.938   1.613   1.092 -0.9193 -0.8110 -0.4065
   95SOL     MW  380   0.925   1.559   1.022  0.1812 -0.3462 -0.1418
   96SOL     OW  381   1.236   1.784   1.693 -0.3600 -0.0799 -0.6217
   96SOL    HW1  382   1.163   1.718   1.709  1.9119 -0.1269  1.8460
   96SOL    HW2  383   1.298   1.748   1.627 -0.3226  1.0767  0.2451
   96SOL     MW  384   1.235   1.771   1.686 -0.0553  0.0665 -0.1818
   97SOL     OW  385   1.250   1.447   0.847  1.0171  0.0435 -0.5607
   97SOL    HW1  386   1.252   1.474   0.937  0.7196  0.1873  0.6548
   97SOL    HW2  387   1.166   1.488   0.810 -0.3192 -0.8795 -1.2786
   97SOL     MW  388   1.239   1.456   0.854  0.8015 -0.0593 -0.4950
   98SOL     OW  389   1.535   1.280   1.154 -0.1984 -0.2479 -0.1203
   98SOL    HW1  390   1.542   1.371   1.186 -0.6244 -0.4158 -0.3285
   98SOL    HW2  391   1.581   1.283   1.069 -0.3693  0.5662 -0.2895
   98SOL     MW  392   1.542   1.292   1.147 -0.2772 -0.1626 -0.1701
   99SOL     OW  393   1.474   0.377   1.221  0.5208 -0.6306  0.8487
   99SOL    HW1  394   1.522   0.463   1.206  3.8305  1.1684  1.2874
   99SOL    HW2  395   1.462   0.367   1.312  0.6225 -0.0270 -1.7076
   99SOL     MW  396   1.479   0.387   1.231  0.9709 -0.3136  0.5693
  100SOL     OW  397   1.128   1.068   1.334  0.4235  0.3654 -0.1342
  100SOL    HW1  398   1.070   1.086   1.414  2.8724  0.6973  0.3781
  100SOL    HW2  399   1.206   1.020   1.370  0.7114 -3.4852  0.1028
  100SOL     MW  400   1.131   1.064   1.349  0.7846 -0.0989 -0.0354
  101SOL     OW  401   0.643   1.167   0.327 -0.6313 -0.1205  0.0412
  101SOL    HW1  402   0.609   1.071   0.339  1.5929 -0.0348  0.5739
  101SOL    HW2  403   0.645   1.174   0.232  1.1428  0.6745  0.3944
  101SOL     MW  404   0.639   1.155   0.316 -0.1038 -0.0043  0.1581
  102SOL     OW  405   2.930   0.610   0.913  0.3588 -0.8214  0.1473
  102SOL    HW1  406   2.993   0.647   0.846 -3.0047  0.1613  0.5493
  102SOL    HW2  407   2.971   0.604   0.997  2.2760  2.5744 -0.4635
  102SOL     MW  408   2.943   0.614   0.915  0.1680 -0.2437  0.1197
  103SOL     OW  409   1.634   0.346   1.776 -0.9743  0.1797  0.4041
  103SOL    HW1  410   1.639   0.300   1.695  1.8506 -0.5236 -0.1494
  103SOL    HW2  411   1.725   0.341   1.822 -0.4389 -0.4942  1.0105
  103SOL     MW  412   1.647   0.339   1.771 -0.5310 -0.0020  0.4111
  104SOL     OW  413   0.090   1.831   1.511 -0.1995  0.0608  0.2606
  104SOL    HW1  414   0.178   1.806   1.497 -0.4766  2.4973  2.2354
  104SOL    HW2  415   0.075   1.802   1.607 -0.1596 -1.0874  0.2441
  104SOL     MW  416   0.099   1.824   1.521 -0.2308  0.2308  0.5190
  105SOL     OW  417   0.155   1.166   0.545  0.3621  0.0183 -0.0376
  105SOL    HW1  418   0.204   1.138   0.466 -0.7693  0.6966 -2.2562
  105SOL    HW2  419   0.177   1.254   0.556  2.6636 -2.0051  1.6931
  105SOL     MW  420   0.164   1.174   0.536  0.5165 -0.1592 -0.1020
  106SOL     OW  421   0.848   0.347   0.940  0.0408  0.4551  0.0126
  106SOL    HW1  422   0.783   0.416   0.902  1.2965  1.7439 -1.2034
  106SOL    HW2  423   0.917   0.342   0.883 -1.2576  1.3417  1.5363
  106SOL     MW  424   0.848   0.356   0.927  0.0352  0.7421  0.0532
  107SOL     OW  425   0.784   2.209   3.066 -0.0973  0.0916 -0.5881
  107SOL    HW1  426   0.742   2.143   3.012  2.1128 -0.5700  3.5639
  107SOL    HW2  427   0.866   2.168   3.099  0.9356  1.8749  0.9539
  107SOL     MW  428   0.790   2.195   3.063  0.3306  0.2396  0.1632
  108SOL     OW  429   1.405   1.594   1.548  0.3047  0.1344 -0.3463
  108SOL    HW1  430   1.342   1.528   1.510 -2.4461 -2.0614 -2.7737
  108SOL    HW2  431   1.471   1.539   1.584  1.3884 -1.4332 -1.3223
  108SOL     MW  432   1.405   1.578   1.547  0.0848 -0.3621 -0.7953
  109SOL     OW  433   1.957   0.759   0.166 -0.4127 -0.0666 -0.2634
  109SOL    HW1  434   1.927   0.811   0.094  1.1721 -1.4505  1.2398
  109SOL    HW2  435   2.049   0.783   0.183  1.0203 -2.4324  0.4989
  109SOL     MW  436   1.965   0.769   0.158 -0.0145 -0.5613  0.0356
  110SOL     OW  437   0.426   1.771   0.744 -0.5078 -0.2750 -0.1545
  110SOL    HW1  438   0.501   1.727   0.693  0.3949 -0.4050  2.1889
  110SOL    HW2  439   0.406   1.846   0.682  1.6518  1.8708 -1.2978
  110SOL     MW  440   0.433   1.775   0.729 -0.1037 -0.0090  0.0039
  111SOL     OW  441   0.685   0.930   1.506  0.0479  0.4295  0.3695
  111SOL    HW1  442   0.733   0.843   1.527  0.5324 -0.0988  3.0502
  111SOL    HW2  443   0.621   0.942   1.574 -1.1063 -0.3458  1.3778
  111SOL     MW  444   0.683   0.920   1.517 -0.0405  0.2575  0.8562
  112SOL     OW  445   1.295   1.142   1.601  0.0899 -0.3300  0.0546
  112SOL    HW1  446   1.226   1.197   1.655 -1.4319  0.1184 -0.1945
  112SOL    HW2  447   1.274   1.051   1.619 -1.4016  1.4574  1.9741
  112SOL     MW  448   1.283   1.137   1.611 -0.3077 -0.0350  0.2750
  113SOL     OW  449   1.359   0.052   1.714 -0.3310  0.1929  0.4106
  113SOL    HW1  450   1.387   0.010   1.793  0.7638  1.2150  0.1006
  113SOL    HW2  451   1.349  -0.022   1.656  0.3666 -2.2443 -3.6420
  113SOL     MW  452   1.362   0.037   1.717 -0.0945  0.0062 -0.1650
  114SOL     OW  453   0.458   2.813   1.846  0.1650 -0.4301  0.5340
  114SOL    HW1  454   0.445   2.856   1.935 -1.1338 -1.2994  2.5293
  114SOL    HW2  455   0.436   2.874   1.772  1.2850  0.3225 -1.5042
  114SOL     MW  456   0.453   2.827   1.848  0.1414 -0.4455  0.5283
  115SOL     OW  457   0.383   0.850   1.053  0.3340  0.1266 -0.1152
  115SOL    HW1  458   0.432   0.771   1.081  0.8188 -0.5271  0.5429
  115SOL    HW2  459   0.357   0.892   1.138 -1.3813 -2.0317 -1.2861
  115SOL     MW  460   0.386   0.845   1.068  0.1716 -0.2444 -0.1829
  116SOL     OW  461   0.767   0.967   0.909  0.2167  0.2970 -0.2513
  116SOL    HW1  462   0.837   0.968   0.846  0.8073  1.8495  2.3864
  116SOL    HW2  463   0.800   0.947   1.001 -0.4422  0.4638  0.9546
  116SOL     MW  464   0.780   0.965   0.913  0.2077  0.5238  0.2558
  117SOL     OW  465   1.207   1.173   0.812 -0.0984 -0.6554  0.5369
  117SOL    HW1  466   1.279   1.135   0.869 -0.1224 -0.8667  0.4014
  117SOL    HW2  467   1.203   1.266   0.817 -1.6865 -0.4200 -0.0530
  117SOL     MW  468   1.216   1.180   0.820 -0.3111 -0.6522  0.4412
  118SOL     OW  469   3.095   2.966   1.728 -0.1454 -0.1070 -0.2362
  118SOL    HW1  470   3.138   2.994   1.806 -0.4999  0.8609 -0.2524
  118SOL    HW2  471   3.007   2.955   1.754  1.4505  2.6082 -0.0306
  118SOL     MW  472   3.090   2.968   1.742  0.0184  0.3789 -0.2112
  119SOL     OW  473   0.495   1.311   1.239  0.6347  0.5119 -0.0010
  119SOL    HW1  474   0.516   1.333   1.147  0.8764 -0.6116  0.2059
  119SOL    HW2  475   0.398   1.279   1.237 -0.1037  0.2830 -1.6204
  119SOL     MW  476   0.485   1.309   1.227  0.5692  0.3335 -0.1874
  120SOL     OW  477   0.178   0.597   0.953  0.1036  0.0295 -0.2071
  120SOL    HW1  478   0.205   0.556   1.030  0.6735  1.4137 -1.0113
  120SOL    HW2  479   0.188   0.688   0.972 -0.3443  0.1580  1.9129
  120SOL     MW  480   0.183   0.604   0.966  0.1197  0.2291 -0.0335
  121SOL     OW  481   1.802   1.050   1.753 -0.2842  0.2080 -0.3564
  121SOL    HW1  482   1.753   1.021   1.668  0.2737 -2.0262 -0.5929
  121SOL    HW2  483   1.842   0.973   1.792 -0.0485  1.7411 -3.1243
  121SOL     MW  484   1.801   1.036   1.747 -0.1795  0.1155 -0.7528
  122SOL     OW  485   0.094   0.478   0.716 -0.0644  0.1032 -0.2168
  122SOL    HW1  486   0.160   0.514   0.653  0.2309  0.1767  2.4818
  122SOL    HW2  487   0.125   0.504   0.807 -2.3657  0.6477  0.0856
  122SOL     MW  488   0.106   0.486   0.719 -0.3291  0.1847  0.1792
  123SOL     OW  489   1.733   1.034   0.482  0.5003 -0.0245  0.1941
  123SOL    HW1  490   1.709   0.945   0.462  0.6636 -0.4696  0.9511
  123SOL    HW2  491   1.766   1.018   0.570 -3.2414  0.3097 -0.5739
  123SOL     MW  492   1.734   1.020   0.491  0.0281 -0.0392  0.1926
  124SOL     OW  493   0.660   0.528   0.863  0.3195 -0.3641 -0.3277
  124SOL    HW1  494   0.592   0.480   0.817 -0.7188  1.1216 -0.5836
  124SOL    HW2  495   0.648   0.619   0.833  2.6986 -1.0733  0.6812
  124SOL     MW  496   0.649   0.534   0.853  0.4964 -0.2616 -0.2283
  125SOL     OW  497   0.625   1.663   1.670  0.3150  0.7099 -0.4454
  125SOL    HW1  498   0.569   1.601   1.632 -1.8874 -0.7199  1.0007
  125SOL    HW2  499   0.582   1.750   1.676  0.2514  0.1704 -0.7901
  125SOL     MW  500   0.612   1.666   1.666  0.0160  0.4501 -0.3001
  126SOL     OW  501   2.126   1.612   2.014  0.0922 -0.2066 -0.3450
  126SOL    HW1  502   2.170   1.688   1.982 -2.1766 -0.6890 -0.9967
  126SOL    HW2  503   2.194   1.547   2.041 -0.4837 -0.8087  0.0972
  126SOL     MW  504   2.141   1.613   2.013 -0.2831 -0.3497 -0.3726
  127SOL     OW  505   0.610   0.698   1.878 -0.2533 -0.1601  0.1651
  127SOL    HW1  506   0.673   0.633   1.917  2.0982  0.7982  0.3333
  127SOL    HW2  507   0.630   0.784   1.922 -3.5446  2.5766 -0.2708
  127SOL     MW  508   0.621   0.701   1.889 -0.3773  0.3274  0.1298
  128SOL     OW  509   1.708   0.747   2.854 -0.1764  0.2900  0.6459
  128SOL    HW1  510   1.739   0.697   2.777  0.8685  2.0876  2.8132
  128SOL    HW2  511   1.705   0.844   2.829  0.9469  1.1122  1.6150
  128SOL     MW  512   1.711   0.753   2.840  0.1097  0.6357  1.0597
  129SOL     OW  513   1.556   0.880   0.214 -0.8552  0.6656  0.1125
  129SOL    HW1  514   1.487   0.832   0.171 -1.3436 -2.3969 -1.3328
  129SOL    HW2  515   1.614   0.813   0.247  0.5893  3.7999  1.9846
  129SOL     MW  516   1.555   0.865   0.212 -0.7290  0.6751  0.1688
  130SOL     OW  517   0.768   1.528   0.338  0.2780 -0.2374  0.4028
  130SOL    HW1  518   0.794   1.461   0.396  0.1174  2.2546 -0.8866
  130SOL    HW2  519   0.855   1.556   0.293 -1.0929 -1.7532 -1.6117
  130SOL     MW  520   0.783   1.523   0.340  0.0759 -0.1086 -0.0331
  131SOL     OW  521   3.034   0.807   0.077  0.3008  0.4418 -0.2724
  131SOL    HW1  522   3.014   0.866  -0.006  0.7714 -0.6558 -1.2517
  131SOL    HW2  523   3.129   0.806   0.083  0.2153  0.0421  0.0084
  131SOL     MW  524   3.044   0.815   0.067  0.3516  0.2442 -0.3646
  132SOL     OW  525   2.690   0.099   1.281 -0.1455  0.3364 -0.2034
  132SOL    HW1  526   2.727   0.093   1.190 -0.5170  1.0379 -0.0469
  132SOL    HW2  527   2.595   0.091   1.270  1.0397 -1.1734 -0.1261
  132SOL     MW  528   2.683   0.097   1.268 -0.0381  0.2298 -0.1726
  133SOL     OW  529   1.117   0.220   1.699  0.9398 -0.2306  0.1920
  133SOL    HW1  530   1.200   0.178   1.707  1.5108 -1.8951 -1.3825
  133SOL    HW2  531   1.068   0.198   1.777 -2.5981 -0.0593 -1.9992
  133SOL     MW  532   1.122   0.212   1.711  0.5483 -0.4276 -0.3048
  134SOL     OW  533   1.383   2.509   1.429 -0.0985  0.5720 -0.8476
  134SOL    HW1  534   1.320   2.575   1.425  1.0609 -0.2536 -0.2917
  134SOL    HW2  535   1.425   2.524   1.515 -1.0239 -3.1004 -0.2438
  134SOL     MW  536   1.381   2.520   1.440 -0.0676 -0.0215 -0.6946
  135SOL     OW  537   3.027   1.016   2.969  0.3953 -0.0525  0.1898
  135SOL    HW1  538   3.112   1.060   2.961  0.7540  0.9565 -1.6236
  135SOL    HW2  539   2.953   1.068   2.995  0.8871 -3.5628 -1.9973
  135SOL     MW  540   3.029   1.028   2.971  0.5075 -0.3825 -0.3380
  136SOL     OW  541   0.239   2.074   0.867  0.0406 -0.4351 -0.5988
  136SOL    HW1  542   0.161   2.016   0.880  0.6190  0.2103 -0.4843
  136SOL    HW2  543   0.278   2.039   0.791  1.1588  2.2064  2.7318
  136SOL     MW  544   0.234   2.062   0.858  0.2645 -0.0014 -0.1443
  137SOL     OW  545   0.670   2.076   0.602  0.1085 -0.3650 -0.0582
  137SOL    HW1  546   0.738   2.048   0.665  0.4977 -0.5037  0.2753
  137SOL    HW2  547   0.579   2.060   0.636  0.1282  2.2203 -2.9203
  137SOL     MW  548   0.667   2.070   0.615  0.1625 -0.0422 -0.3918
  138SOL     OW  549   0.518   0.610   1.085  0.7651  0.2124 -0.7156
  138SOL    HW1  550   0.442   0.557   1.086  3.7117 -1.5544  0.6860
  138SOL    HW2  551   0.569   0.577   1.010  0.5817 -2.2698  2.9539
  138SOL     MW  552   0.515   0.599   1.075  1.1297 -0.3482 -0.0465
  139SOL     OW  553   2.714   0.555   1.408  0.2136  0.0931  0.3908
  139SOL    HW1  554   2.719   0.462   1.444 -0.6644 -0.1645 -0.7561
  139SOL    HW2  555   2.807   0.589   1.409  3.4677  0.2042  0.5273
  139SOL     MW  556   2.727   0.547   1.413  0.5271  0.0738  0.2575
  140SOL     OW  557   0.864   0.304   2.184 -0.7825  0.0354  0.0353
  140SOL    HW1  558   0.885   0.252   2.096  0.5679  1.0408 -3.6118
  140SOL    HW2  559   0.943   0.287   2.229  2.5377  0.6436 -2.0741
  140SOL     MW  560   0.877   0.295   2.179 -0.1662  0.2483 -0.7242
  141SOL     OW  561   1.024   0.671   1.768 -0.3938  0.0329 -0.0883
  141SOL    HW1  562   1.081   0.601   1.732 -0.1004 -2.0976  1.6632
  141SOL    HW2  563   1.070   0.752   1.787 -1.2503 -1.6068  0.9744
  141SOL     MW  564   1.038   0.673   1.766 -0.4681 -0.4645  0.2830
  142SOL     OW  565   0.968   1.119   0.688  0.2150 -0.7439 -0.1677
  142SOL    HW1  566   0.961   1.029   0.660 -0.7832  3.1590 -1.1129
  142SOL    HW2  567   1.045   1.138   0.746  1.3048 -0.4604 -0.5114
  142SOL     MW  568   0.977   1.110   0.692  0.2271 -0.1916 -0.3378
  143SOL     OW  569   1.904   0.895   1.185 -0.0128  0.6902 -0.1052
  143SOL    HW1  570   1.918   0.875   1.089  2.2527  0.7764 -0.0628
  143SOL    HW2  571   1.849   0.823   1.222 -3.1913  0.8803 -0.1974
  143SOL     MW  572   1.898   0.883   1.177 -0.1333  0.7267 -0.1117
  144SOL     OW  573   0.172   1.229   1.528  0.4841 -0.5906  0.3265
  144SOL    HW1  574   0.267   1.212   1.509  0.5051 -1.5739 -1.2140
  144SOL    HW2  575   0.173   1.246   1.624  0.7445  2.2562  1.1061
  144SOL     MW  576   0.185   1.229   1.538  0.5212 -0.3447  0.2261
  145SOL     OW  577   0.271   0.417   1.160 -0.5195  0.2921 -0.0618
  145SOL    HW1  578   0.291   0.356   1.232 -1.1788  0.2017  2.1362
  145SOL    HW2  579   0.206   0.372   1.108  0.6889  0.2904  1.4426
  145SOL     MW  580   0.265   0.403   1.163 -0.4471  0.2799  0.4267
  146SOL     OW  581   0.862   1.940   1.383 -0.1128  0.1045  0.5016
  146SOL    HW1  582   0.925   1.934   1.306  1.9460 -0.6117 -1.1872
  146SOL    HW2  583   0.783   1.961   1.333 -0.4405  0.8467 -1.5701
  146SOL     MW  584   0.860   1.942   1.366  0.1156  0.1079  0.0054
  147SOL     OW  585   0.420   0.434   2.853 -0.7677 -0.0362 -0.2217
  147SOL    HW1  586   0.378   0.463   2.933 -0.2590 -1.9865  2.9691
  147SOL    HW2  587   0.399   0.502   2.787  1.0875  1.3111 -1.9418
  147SOL     MW  588   0.412   0.447   2.855 -0.4558 -0.1158 -0.0276
  148SOL     OW  589   0.053   0.882   1.285 -0.2541 -0.0619  0.0521
  148SOL    HW1  590   0.146   0.896   1.305 -2.0315  4.8279  0.3484
  148SOL    HW2  591   0.008   0.904   1.366 -3.0314 -2.9160 -2.1378
  148SOL     MW  592   0.060   0.886   1.298 -0.8551  0.2067 -0.1977
  149SOL     OW  593   1.430   1.099   1.365 -0.0945  0.0715  0.0502
  149SOL    HW1  594   1.397   1.141   1.452 -1.1506  0.9611 -1.3864
  149SOL    HW2  595   1.495   1.160   1.328 -0.8994  0.0244 -0.7491
  149SOL     MW  596   1.434   1.113   1.372 -0.3400  0.1827 -0.2448
  150SOL     OW  597   1.854   1.360   0.716 -0.5229  0.1650  0.4019
  150SOL    HW1  598   1.888   1.273   0.692 -1.3177 -2.1891 -1.0099
  150SOL    HW2  599   1.901   1.381   0.795 -1.1193  1.5447 -0.4949
  150SOL     MW  600   1.865   1.352   0.723 -0.7064  0.0364  0.0973
  151SOL     OW  601   1.622   1.793   0.816  0.3434 -0.1008 -0.3243
  151SOL    HW1  602   1.564   1.807   0.743  1.0965 -2.6351  1.9860
  151SOL    HW2  603   1.581   1.745   0.888 -0.1364 -0.2385  0.5135
  151SOL     MW  604   1.609   1.789   0.816  0.3795 -0.4534  0.0911
  152SOL     OW  605   0.770   1.328   1.485  0.1038  0.0715  0.4294
  152SOL    HW1  606   0.809   1.242   1.474  3.1467 -0.5145  3.3473
  152SOL    HW2  607   0.851   1.385   1.507 -1.3021  1.0704 -0.0862
  152SOL     MW  608   0.786   1.325   1.486  0.3198  0.1260  0.7464
  153SOL     OW  609   2.650   1.219   0.716  0.6640 -0.5506  0.2484
  153SOL    HW1  610   2.702   1.219   0.630  0.0935 -1.1448 -3.0861
  153SOL    HW2  611   2.603   1.141   0.720 -1.6359  1.1384 -2.8646
  153SOL     MW  612   2.651   1.209   0.705  0.2853 -0.4061 -0.6023
  154SOL     OW  613   0.308   1.743   1.711 -0.0490  0.3824 -0.3700
  154SOL    HW1  614   0.331   1.730   1.615 -1.0363 -0.4705 -4.3239
  154SOL    HW2  615   0.352   1.667   1.756  1.0185 -1.1204 -1.3141
  154SOL     MW  616   0.317   1.731   1.704 -0.0384  0.0716 -1.0162
  155SOL     OW  617   1.097   0.713   0.250  0.4660 -0.1523 -0.4679
  155SOL    HW1  618   1.135   0.660   0.318 -0.7836  0.0657 -1.1080
  155SOL    HW2  619   1.093   0.799   0.297 -1.3558 -0.8405  0.8985
  155SOL     MW  620   1.101   0.717   0.265  0.0608 -0.2143 -0.3721
  156SOL     OW  621   1.589   3.027   0.981 -0.2875 -0.0317 -0.2361
  156SOL    HW1  622   1.656   3.097   0.990 -1.8213  0.4531  1.4075
  156SOL    HW2  623   1.612   2.960   1.044 -2.0410  0.0202 -1.3105
  156SOL     MW  624   1.601   3.027   0.990 -0.7212  0.0391 -0.1610
  157SOL     OW  625   1.404   1.195   0.079  0.4041 -0.4079 -0.0085
  157SOL    HW1  626   1.383   1.163   0.168 -0.7022 -0.5448 -1.6404
  157SOL    HW2  627   1.493   1.239   0.085  0.4666  0.6786 -2.9625
  157SOL     MW  628   1.413   1.197   0.091  0.2664 -0.2826 -0.6136
  158SOL     OW  629   0.387   1.641   2.270 -0.1304  0.6415  0.7578
  158SOL    HW1  630   0.349   1.667   2.187  0.8859 -0.4207  1.1528
  158SOL    HW2  631   0.303   1.632   2.323 -2.3575  2.4174 -2.5576
  158SOL     MW  632   0.371   1.644   2.266 -0.2901  0.7356  0.3725
  159SOL     OW  633   1.250   1.665   0.403  0.2362 -0.9107 -0.0343
  159SOL    HW1  634   1.233   1.576   0.371 -0.8665  1.1486  2.2682
  159SOL    HW2  635   1.174   1.702   0.456 -1.5218  1.3746  0.2478
  159SOL     MW  636   1.238   1.658   0.406 -0.1413 -0.3375  0.3067
  160SOL     OW  637   0.419   1.064   1.577 -0.1328 -0.0139  0.3769
  160SOL    HW1  638   0.440   0.981   1.623 -1.5469  0.0091  1.1263
  160SOL    HW2  639   0.443   1.134   1.640  2.4166 -1.7804  0.8520
  160SOL     MW  640   0.425   1.062   1.591  0.0170 -0.2440  0.5384
  161SOL     OW  641   0.570   2.148   2.657  0.6900  0.3038  0.6665
  161SOL    HW1  642   0.482   2.144   2.704 -0.2146  0.3055 -2.5351
  161SOL    HW2  643   0.557   2.097   2.575  2.0794 -2.4173 -2.1784
  161SOL     MW  644   0.556   2.141   2.653  0.7540 -0.0550 -0.1313
  162SOL     OW  645   1.018   1.712   1.837 -0.7161 -0.6891  0.1411
  162SOL    HW1  646   1.044   1.800   1.854  1.9937  1.5961  1.0412
  162SOL    HW2  647   0.938   1.710   1.881  0.5875  1.8548 -0.0720
  162SOL     MW  648   1.011   1.723   1.845 -0.1865 -0.0519  0.2317
  163SOL     OW  649   2.161   0.151   1.003  0.3216 -0.1980  0.3373
  163SOL    HW1  650   2.161   0.188   0.911 -0.2049  0.0322 -0.9021
  163SOL    HW2  651   2.095   0.088   0.999  0.4965 -1.3085  0.6073
  163SOL     MW  652   2.152   0.148   0.991  0.2752 -0.3142  0.2094
  164SOL     OW  653   0.300   0.204   0.847 -0.1456 -0.5681  0.0803
  164SOL    HW1  654   0.207   0.175   0.858  1.3433 -0.4646  1.4183
  164SOL    HW2  655   0.333   0.150   0.777  0.5510 -1.7816 -0.3221
  164SOL     MW  656   0.292   0.193   0.840  0.1427 -0.7145  0.2037
  165SOL     OW  657   1.388   1.192   0.389 -0.1185 -0.1572  0.3024
  165SOL    HW1  658   1.339   1.125   0.429 -0.4980  0.3447 -0.7961
  165SOL    HW2  659   1.473   1.152   0.372 -2.1359  0.8841  1.5475
  165SOL     MW  660   1.393   1.178   0.392 -0.4347  0.0465  0.3218
  166SOL     OW  661   0.536   1.100   0.978 -0.0018 -0.3298  0.1006
  166SOL    HW1  662   0.516   1.037   1.047 -0.0525  0.1929  0.9319
  166SOL    HW2  663   0.632   1.086   0.957  2.8175  1.3317 -0.3518
  166SOL     MW  664   0.546   1.090   0.984  0.3635 -0.0416  0.1506
  167SOL     OW  665   0.954   1.168   0.352 -0.1121  0.0238 -0.3217
  167SOL    HW1  666   0.854   1.188   0.363 -1.2772 -0.9937 -1.1267
  167SOL    HW2  667   0.976   1.201   0.260 -0.1570  3.3663 -0.3562
  167SOL     MW  668   0.944   1.175   0.341 -0.2718  0.3306 -0.4324
  168SOL     OW  669   1.691   1.761   2.912  0.1091  0.9966 -0.2744
  168SOL    HW1  670   1.648   1.838   2.951  0.9830 -0.1641 -0.8939
  168SOL    HW2  671   1.735   1.707   2.982 -1.3847 -2.4999  1.0867
  168SOL     MW  672   1.691   1.764   2.926  0.0273  0.3821 -0.1765
  169SOL     OW  673   0.330   0.975   1.293 -0.0790 -0.5688  0.3958
  169SOL    HW1  674   0.379   0.994   1.375  0.9598  2.2624  3.2824
  169SOL    HW2  675   0.289   1.060   1.264  1.7840  2.2077 -0.1062
  169SOL     MW  676   0.331   0.988   1.300  0.3039  0.1711  0.7104
  170SOL     OW  677   1.016   1.442   1.514 -0.4989 -0.0300 -0.4744
  170SOL    HW1  678   0.976   1.522   1.486  3.0767  0.1242 -1.3048
  170SOL    HW2  679   1.086   1.427   1.451  2.3458 -0.7131 -0.2623
  170SOL     MW  680   1.020   1.451   1.502  0.3482 -0.0998 -0.5560
  171SOL     OW  681   0.565   1.387   0.682  0.2055 -0.0871  0.3651
  171SOL    HW1  682   0.564   1.390   0.776 -2.6488  1.9017 -0.8187
  171SOL    HW2  683   0.553   1.289   0.663  0.6912 -0.6910 -1.6578
  171SOL     MW  684   0.563   1.375   0.692 -0.1070  0.0957 -0.0580
  172SOL     OW  685   0.846   0.310   1.199  0.1804  0.2560  0.2885
  172SOL    HW1  686   0.848   0.324   1.106  1.6309 -1.2221  0.2597
  172SOL    HW2  687   0.761   0.340   1.225  0.1675  0.3765 -1.4952
  172SOL     MW  688   0.835   0.316   1.190  0.3701  0.0769  0.0493
  173SOL     OW  689   0.409   1.656   0.352  0.0487  0.6998 -0.1074
  173SOL    HW1  690   0.416   1.568   0.317 -0.4918 -1.2362 -1.6681
  173SOL    HW2  691   0.470   1.647   0.425 -0.2142  0.8291  1.2220
  173SOL     MW  692   0.418   1.643   0.357 -0.0573  0.4615 -0.1379
  174SOL     OW  693   2.022   0.958   1.518 -0.0720  0.2773  0.2639
  174SOL    HW1  694   1.966   0.879   1.541  0.1566 -0.6697 -0.6635
  174SOL    HW2  695   1.967   1.017   1.471 -1.4888  1.4986  1.0286
  174SOL     MW  696   2.007   0.956   1.515 -0.2288  0.3135  0.2424
  175SOL     OW  697   0.368   1.356   0.381  0.3363 -0.2185 -0.3611
  175SOL    HW1  698   0.365   1.381   0.290 -0.6366 -0.1013  0.8360
  175SOL    HW2  699   0.456   1.315   0.393 -0.9784 -0.8311  1.7685
  175SOL     MW  700   0.379   1.354   0.371  0.0344 -0.2839  0.0778
  176SOL     OW  701   0.211   1.231   1.255  0.0268 -0.4542 -0.1889
  176SOL    HW1  702   0.147   1.223   1.185 -0.2122  1.0985  1.5179
  176SOL    HW2  703   0.175   1.288   1.325 -3.5015  2.5817  1.9669
  176SOL     MW  704   0.198   1.237   1.255 -0.4703  0.1512  0.3208
  177SOL     OW  705   0.614   0.434   1.317 -0.7448  0.0489 -0.1502
  177SOL    HW1  706   0.591   0.505   1.262  1.2467 -1.5044  1.1209
  177SOL    HW2  707   0.611   0.480   1.405 -3.6535 -1.0878  0.6224
  177SOL     MW  708   0.611   0.450   1.322 -0.8658 -0.3060  0.1194
  178SOL     OW  709   0.010   0.410   3.024  0.4013 -0.4052 -0.1699
  178SOL    HW1  710  -0.040   0.434   3.107  1.2145 -1.7930 -1.5773
  178SOL    HW2  711  -0.048   0.430   2.955  0.4659 -0.2863 -0.8838
  178SOL     MW  712  -0.004   0.416   3.026  0.5171 -0.5726 -0.4498
  179SOL     OW  713   1.642   1.323   1.467  0.5425  0.1421 -0.9651
  179SOL    HW1  714   1.628   1.374   1.552  0.1526 -1.5806  0.9173
  179SOL    HW2  715   1.736   1.331   1.453 -0.1392 -2.2035  3.2087
  179SOL     MW  716   1.653   1.331   1.476  0.4011 -0.3946 -0.1661
  180SOL     OW  717   2.991   0.299   0.490 -0.1017 -0.0866  0.2142
  180SOL    HW1  718   2.945   0.299   0.400  2.3221 -2.1397  0.8217
  180SOL    HW2  719   3.007   0.396   0.506  1.5038  1.7184 -1.2626
  180SOL     MW  720   2.987   0.312   0.480  0.4299 -0.1193  0.0995
  181SOL     OW  721   1.149   1.373   3.037  0.2102  0.3515  0.0491
  181SOL    HW1  722   1.234   1.402   3.068  2.3763 -0.4973  0.6704
  181SOL    HW2  723   1.171   1.335   2.955  1.1022  0.1483  0.1606
  181SOL     MW  724   1.163   1.372   3.030  0.6137  0.2127  0.1457
  182SOL     OW  725   0.466   0.818   1.691  0.3157 -0.7994 -0.7539
  182SOL    HW1  726   0.381   0.780   1.675 -1.7728  3.2833  3.0667
  182SOL    HW2  727   0.516   0.763   1.747  1.0991  0.4639  0.2302
  182SOL     MW  728   0.462   0.806   1.696  0.1435 -0.0941 -0.1200
  183SOL     OW  729   1.581   1.528   1.292  0.0472  0.0561  0.1988
  183SOL    HW1  730   1.490   1.552   1.321 -1.0288  2.3571  0.7949
  183SOL    HW2  731   1.600   1.447   1.351  0.5981  0.7180  2.1698
  183SOL     MW  732   1.572   1.520   1.304 -0.0221  0.4470  0.5375
  184SOL     OW  733   0.789   0.498   1.967 -0.5889  0.6815  0.3574
  184SOL    HW1  734   0.870   0.553   1.950  0.3367  2.7406 -1.7343
  184SOL    HW2  735   0.808   0.451   2.051  0.4123 -5.3067  1.9579
  184SOL     MW  736   0.802   0.499   1.976 -0.3347  0.1631  0.2926
  185SOL     OW  737   1.133   0.914   1.960  0.1345  0.4370  0.0283
  185SOL    HW1  738   1.107   0.845   2.021  1.6838  0.9989 -0.4165
  185SOL    HW2  739   1.161   0.988   2.022 -1.0683 -0.3624 -1.0854
  185SOL     MW  740   1.133   0.914   1.976  0.1802  0.4056 -0.1773
  186SOL     OW  741   0.355   1.754   1.452 -0.0800 -0.7286 -0.3162
  186SOL    HW1  742   0.424   1.811   1.420 -0.0510  1.9577  0.1708
  186SOL    HW2  743   0.318   1.698   1.385 -1.6911 -3.6769  0.5390
  186SOL     MW  744   0.360   1.754   1.439 -0.2888 -0.7632 -0.1391
  187SOL     OW  745   1.527   0.701   1.501  0.4885 -0.6231 -0.0585
  187SOL    HW1  746   1.480   0.706   1.587  0.3373 -0.9392 -0.6276
  187SOL    HW2  747   1.463   0.686   1.433  1.5966  0.5185  1.1102
  187SOL     MW  748   1.512   0.700   1.504  0.6147 -0.5142  0.0206
  188SOL     OW  749   1.917   1.080   0.695  0.1700 -0.0544 -0.2071
  188SOL    HW1  750   1.917   1.054   0.785 -2.4223  0.9092  1.1794
  188SOL    HW2  751   2.009   1.095   0.675  1.1306  2.1489  0.1609
  188SOL     MW  752   1.929   1.079   0.704 -0.0453  0.3634  0.0244
  189SOL     OW  753   0.624   0.772   0.761 -0.3321 -0.2767 -0.0038
  189SOL    HW1  754   0.562   0.839   0.791 -2.7264  1.7255 -1.1599
  189SOL    HW2  755   0.688   0.807   0.828 -0.6409  1.3140  1.4383
  189SOL     MW  756   0.624   0.785   0.774 -0.6888  0.1973  0.0339
  190SOL     OW  757   1.870   0.368   1.970 -0.4530  0.7654  0.3615
  190SOL    HW1  758   1.934   0.299   2.002  0.0075 -0.7389 -1.0277
  190SOL    HW2  759   1.924   0.433   1.920 -0.3929 -1.4175 -1.0860
  190SOL     MW  760   1.885   0.368   1.968 -0.3844  0.2789 -0.0128
  191SOL     OW  761   1.632   0.966   1.517  0.3619 -0.4289  0.3388
  191SOL    HW1  762   1.559   1.014   1.476  3.8607 -0.9811  0.4742
  191SOL    HW2  763   1.610   0.873   1.508  0.4590  0.8263  2.1235
  191SOL     MW  764   1.619   0.960   1.510  0.8364 -0.3361  0.5921
  192SOL     OW  765   0.684   2.032   2.881  0.4343 -0.2610  0.2866
  192SOL    HW1  766   0.647   2.069   2.797 -0.2081  0.8503 -0.2861
  192SOL    HW2  767   0.658   1.938   2.871 -2.9757 -0.4508 -0.7938
  192SOL     MW  768   0.676   2.025   2.868 -0.1004 -0.1394  0.0685
  193SOL     OW  769   0.983   1.539   0.722 -0.2703 -0.0034 -0.7453
  193SOL    HW1  770   0.936   1.533   0.801 -0.0141 -0.7772 -0.0175
  193SOL    HW2  771   0.941   1.484   0.655  0.4424  2.3281  0.5835
  193SOL     MW  772   0.971   1.531   0.723 -0.1424  0.2021 -0.4739
  194SOL     OW  773   0.506   1.364   0.968  0.2105  0.4328  0.3745
  194SOL    HW1  774   0.517   1.274   0.976 -0.8537  2.7416  0.2088
  194SOL    HW2  775   0.413   1.380   0.959  0.1279  1.6070 -1.2333
  194SOL     MW  776   0.495   1.355   0.968  0.0592  0.8923  0.1405
  195SOL     OW  777   1.320   1.141   2.930  0.6472  0.0442  0.6520
  195SOL    HW1  778   1.352   1.161   3.021 -2.2769  0.2357  1.5281
  195SOL    HW2  779   1.241   1.084   2.949 -1.7459 -0.2740 -2.7511
  195SOL     MW  780   1.314   1.136   2.945 -0.0544  0.0275  0.3186
  196SOL     OW  781   2.212   1.048   0.603  0.0559 -0.6922  0.0025
  196SOL    HW1  782   2.179   1.017   0.516  1.0320 -0.2317  1.6927
  196SOL    HW2  783   2.234   1.142   0.591  0.7452 -1.5330 -0.0281
  196SOL     MW  784   2.211   1.056   0.590  0.2756 -0.7424  0.2215
  197SOL     OW  785   0.547   1.202   1.970  0.3885  0.4222  0.9181
  197SOL    HW1  786   0.521   1.115   1.979  0.7684  2.9903  0.7845
  197SOL    HW2  787   0.494   1.230   1.898 -0.6477  3.5537  0.5674
  197SOL     MW  788   0.536   1.194   1.962  0.3019  1.1742  0.8542
  198SOL     OW  789   2.928   1.385   1.076  1.0825 -0.4189 -0.2161
  198SOL    HW1  790   2.928   1.483   1.065  1.3429  0.8601  1.4133
  198SOL    HW2  791   2.844   1.356   1.045 -0.9402 -3.2150  1.1010
  198SOL     MW  792   2.917   1.394   1.071  0.8500 -0.6191  0.1726
  199SOL     OW  793   0.426   1.284   1.739  0.1698 -0.3157  0.1820
  199SOL    HW1  794   0.327   1.268   1.755 -1.5587 -0.7062  0.8540
  199SOL    HW2  795   0.438   1.359   1.668  1.3073  2.2564  0.1685
  199SOL     MW  796   0.415   1.292   1.731  0.0919 -0.0279  0.2689
  200SOL     OW  797   1.945   3.020   1.288  0.0322  0.6821  0.6029
  200SOL    HW1  798   1.964   3.044   1.197  1.8841 -1.1403 -0.8457
  200SOL    HW2  799   1.851   3.031   1.300 -1.0062 -0.9463  1.3758
  200SOL     MW  800   1.935   3.025   1.277  0.1395  0.2268  0.5137
  201SOL     OW  801   1.063   0.305   0.761  0.4890  0.3494  0.1322
  201SOL    HW1  802   1.092   0.212   0.745  0.5125 -2.6833 -0.4537
  201SOL    HW2  803   1.087   0.352   0.682  0.2539 -0.7486  1.9619
  201SOL     MW  804   1.070   0.299   0.749  0.4611 -0.1956  0.2963
  202SOL     OW  805   1.587   1.577   1.015  0.6504 -0.5683 -0.0927
  202SOL    HW1  806   1.610   1.496   0.971 -1.1216 -0.1708  0.9004
  202SOL    HW2  807   1.616   1.579   1.106  2.2129  1.6690 -1.2678
  202SOL     MW  808   1.594   1.567   1.021  0.6227 -0.2206 -0.1167
  203SOL     OW  809   3.001   0.482   1.213 -0.1479  0.1183 -0.0461
  203SOL    HW1  810   3.036   0.392   1.179  2.5406  1.6818 -0.2507
  203SOL    HW2  811   3.078   0.519   1.256  4.0231  2.3042  1.4741
  203SOL     MW  812   3.016   0.475   1.214  0.7572  0.6130  0.1275
  204SOL     OW  813   1.053   1.770   0.584  0.0408 -0.1720  0.3067
  204SOL    HW1  814   1.023   1.690   0.637  1.4259 -0.7779 -0.6488
  204SOL    HW2  815   0.975   1.800   0.535  0.0399 -1.6920  1.0433
  204SOL     MW  816   1.039   1.763   0.585  0.2234 -0.4525  0.2778
  205SOL     OW  817   1.426   0.054   1.227 -0.8350 -0.3129  0.4612
  205SOL    HW1  818   1.386   0.018   1.150 -1.4371 -3.5868  1.5111
  205SOL    HW2  819   1.408   0.148   1.213  0.7161  0.6679 -0.4592
  205SOL     MW  820   1.418   0.062   1.215 -0.7098 -0.6155  0.4783
  206SOL     OW  821   0.496   3.104   1.356  0.3118  0.1129 -0.4849
  206SOL    HW1  822   0.438   3.062   1.295  0.3076 -0.0265 -0.5048
  206SOL    HW2  823   0.547   3.029   1.402 -1.4328 -1.3011 -1.3756
  206SOL     MW  824   0.495   3.089   1.354  0.0811 -0.0921 -0.6050
  207SOL     OW  825   0.995   1.604   0.232 -0.3640  0.1998 -0.1818
  207SOL    HW1  826   1.025   1.692   0.199  0.2403 -3.7920 -0.4432
  207SOL    HW2  827   1.072   1.540   0.229  2.1393 -0.3019 -1.7629
  207SOL     MW  828   1.009   1.608   0.227  0.0460 -0.3931 -0.4249
  208SOL     OW  829   0.612   1.567   1.287  0.2947 -0.2886 -0.3956
  208SOL    HW1  830   0.692   1.597   1.334  1.3105 -0.9765  1.9569
  208SOL    HW2  831   0.614   1.476   1.280  0.5836 -0.8295 -0.5518
  208SOL     MW  832   0.623   1.559   1.292  0.4669 -0.4507 -0.1058
  209SOL     OW  833   1.507   0.543   2.799 -0.2701 -0.3877  0.0617
  209SOL    HW1  834   1.554   0.613   2.842 -0.3287 -1.6704 -0.1214
  209SOL    HW2  835   1.571   0.478   2.785 -0.6925  0.8808  1.1736
  209SOL     MW  836   1.522   0.544   2.803 -0.3336 -0.3896  0.1843
  210SOL     OW  837   1.633   1.322   0.906  0.1870 -0.1937  0.5920
  210SOL    HW1  838   1.705   1.342   0.849  0.3493 -0.8789  2.3563
  210SOL    HW2  839   1.563   1.314   0.841  0.3409 -0.0862 -1.1169
  210SOL     MW  840   1.633   1.324   0.890  0.2287 -0.2699  0.5993
  211SOL     OW  841   1.712   0.493   0.937 -0.1922 -0.0526 -0.6580
  211SOL    HW1  842   1.701   0.502   0.842  0.9198 -1.3158  3.0035
  211SOL    HW2  843   1.806   0.515   0.950 -0.8276  1.1397 -0.5066
  211SOL     MW  844   1.723   0.497   0.926 -0.1293 -0.0620 -0.1550
  212SOL     OW  845   0.309   1.110   0.026 -0.7758 -0.3111 -0.1502
  212SOL    HW1  846   0.275   1.080   0.115  0.2538 -0.3012 -2.0109
  212SOL    HW2  847   0.399   1.070   0.005 -1.7210 -0.7138 -2.0703
  212SOL     MW  848   0.316   1.101   0.035 -0.7647 -0.3629 -0.6490
  213SOL     OW  849   0.511   1.698   3.076 -0.0873 -0.4592 -0.0672
  213SOL    HW1  850   0.534   1.760   3.154  1.5866 -0.2946  0.6223
  213SOL    HW2  851   0.570   1.730   3.003 -0.4833  0.3510 -1.6390
  213SOL     MW  852   0.522   1.710   3.077  0.0813 -0.3306 -0.1836
  214SOL     OW  853   0.607   0.233   2.275 -0.2451  0.0246 -0.2436
  214SOL    HW1  854   0.552   0.302   2.225 -0.2634  1.7142 -0.6953
  214SOL    HW2  855   0.698   0.253   2.241  2.0836  1.5393 -0.8792
  214SOL     MW  856   0.612   0.244   2.264  0.0597  0.4474 -0.3871
  215SOL     OW  857   0.507   0.675   2.606  0.0952 -0.4142 -0.1537
  215SOL    HW1  858   0.506   0.653   2.513  0.1904  0.0070  0.1983
  215SOL    HW2  859   0.418   0.643   2.633  1.7361  0.2800  0.1242
  215SOL     MW  860   0.495   0.667   2.597  0.3243 -0.2670 -0.0706
  216SOL     OW  861   3.075   0.003   2.825 -0.1244  0.1941 -0.5753
  216SOL    HW1  862   2.986  -0.027   2.834  2.4828  0.4445 -0.4049
  216SOL    HW2  863   3.060   0.085   2.786 -2.0687 -3.5584 -0.3457
  216SOL     MW  864   3.062   0.010   2.821 -0.0369 -0.2680 -0.5225
  217SOL     OW  865   0.972   1.158   0.067 -0.1019 -0.0127 -0.1076
  217SOL    HW1  866   1.007   1.076   0.027 -1.2872 -4.1240  1.3248
  217SOL    HW2  867   1.045   1.228   0.062  2.5753  2.5069 -3.2207
  217SOL     MW  868   0.986   1.156   0.061  0.0949 -0.2227 -0.3294
  218SOL     OW  869   0.928   1.321   2.470 -0.0184  0.0157 -0.3366
  218SOL    HW1  870   0.928   1.248   2.532 -0.5329  1.3976 -1.1322
  218SOL    HW2  871   0.992   1.387   2.516  1.1896  0.8301  1.4755
  218SOL     MW  872   0.936   1.320   2.484  0.0731  0.3055 -0.2025
  219SOL     OW  873   1.036   0.394   2.573  0.1119  0.7041  0.0513
  219SOL    HW1  874   1.042   0.483   2.541 -2.5677 -0.8490 -0.6257
  219SOL    HW2  875   0.954   0.387   2.612  0.3490  0.6585 -0.8220
  219SOL     MW  876   1.026   0.405   2.574 -0.2103  0.4931 -0.1533
  220SOL     OW  877   1.740   0.552   2.170 -0.4840 -0.1241  0.0374
  220SOL    HW1  878   1.660   0.595   2.156  1.0600  0.2224 -3.6771
  220SOL    HW2  879   1.768   0.499   2.092 -1.8850 -3.6616  0.1424
  220SOL     MW  880   1.733   0.551   2.158 -0.4652 -0.5451 -0.4389
  221SOL     OW  881   0.388   1.444   2.935 -0.0730  0.5049  0.5113
  221SOL    HW1  882   0.404   1.349   2.921  1.0362 -1.6356 -3.4721
  221SOL    HW2  883   0.412   1.473   2.846  2.3083 -0.0090 -0.5590
  221SOL     MW  884   0.393   1.435   2.921  0.3875  0.1547 -0.1555
  222SOL     OW  885   0.410   0.942   2.671 -0.0131  0.2765 -0.3209
  222SOL    HW1  886   0.345   0.967   2.596 -0.9817  2.3986  1.1286
  222SOL    HW2  887   0.474   0.883   2.634 -0.3786  1.9733  2.2656
  222SOL     MW  888   0.410   0.938   2.656 -0.1891  0.7804  0.2116
  223SOL     OW  889   3.056   2.016   2.666  0.6037  0.3583 -0.4019
  223SOL    HW1  890   3.125   1.961   2.699  0.9198 -1.8394  1.1377
  223SOL    HW2  891   3.102   2.077   2.610  1.5286 -1.8210  1.7777
  223SOL     MW  892   3.071   2.016   2.663  0.7674 -0.2192  0.0888
  224SOL     OW  893   1.547   0.786   2.594 -0.0655  0.0073  0.3452
  224SOL    HW1  894   1.466   0.788   2.654 -0.9985  0.6617 -1.2727
  224SOL    HW2  895   1.545   0.864   2.545  1.8571 -0.2020 -0.9048
  224SOL     MW  896   1.536   0.796   2.596  0.0651  0.0660 -0.0332
  225SOL     OW  897   2.988   1.472   2.279  0.1535 -0.6403 -0.0569
  225SOL    HW1  898   2.988   1.512   2.191 -0.9383 -0.9873 -0.8731
  225SOL    HW2  899   2.912   1.502   2.322  0.1556 -3.4317 -1.1537
  225SOL     MW  900   2.978   1.481   2.273  0.0097 -1.0544 -0.3093
  226SOL     OW  901   0.437   1.520   2.673  0.0458 -0.3989  0.0276
  226SOL    HW1  902   0.504   1.484   2.619  1.5008 -3.5727 -0.9320
  226SOL    HW2  903   0.420   1.607   2.636  2.8600  1.7447 -1.4059
  226SOL     MW  904   0.444   1.527   2.661  0.6091 -0.5348 -0.2882
  227SOL     OW  905   0.433   1.161   2.824 -0.5921 -0.2469 -0.1042
  227SOL    HW1  906   0.476   1.214   2.759 -0.0874 -0.1880  1.3139
  227SOL    HW2  907   0.419   1.078   2.765 -4.4402  2.0476  2.8000
  227SOL     MW  908   0.437   1.157   2.807 -1.0332  0.0636  0.4661
  228SOL     OW  909   0.675   0.926   1.989  0.1919  0.4692  0.1209
  228SOL    HW1  910   0.765   0.961   1.973 -0.5824  0.3199 -0.1003
  228SOL    HW2  911   0.658   0.913   2.087  1.6801 -1.8336  2.1928
  228SOL     MW  912   0.685   0.928   2.000  0.2861  0.1457  0.3651
  229SOL     OW  913   0.271   0.484   3.057 -0.0522  0.6541 -0.0984
  229SOL    HW1  914   0.170   0.467   3.033 -3.6937  2.0483 -0.7902
  229SOL    HW2  915   0.281   0.427   3.137 -1.4187 -2.4617 -0.6557
  229SOL     MW  916   0.259   0.474   3.064 -0.7130  0.4270 -0.2632
  230SOL     OW  917   1.722   1.381   2.110  1.1244 -0.0567  0.0334
  230SOL    HW1  918   1.683   1.370   2.194 -1.1545 -0.0360 -0.3234
  230SOL    HW2  919   1.777   1.304   2.090 -1.2114  0.6152  1.7968
  230SOL     MW  920   1.724   1.370   2.118  0.5155  0.0347  0.2190
  231SOL     OW  921   2.818   1.246   2.218 -0.0683 -0.7317  0.7634
  231SOL    HW1  922   2.891   1.308   2.225 -4.4779 -3.4143 -1.0353
  231SOL    HW2  923   2.783   1.280   2.134  1.6148  1.3617  0.7274
  231SOL     MW  924   2.823   1.258   2.208 -0.4280 -0.8095  0.5213
  232SOL     OW  925   2.302   1.020   2.101  0.1330 -0.3917  0.0513
  232SOL    HW1  926   2.229   1.027   2.046 -2.7086 -1.2107 -0.4377
  232SOL    HW2  927   2.263   0.983   2.180  1.9911  1.4380 -1.2071
  232SOL     MW  928   2.287   1.016   2.104  0.0033 -0.2584 -0.1792
  233SOL     OW  929   2.027   0.582   1.894  0.3181 -0.4094  0.3720
  233SOL    HW1  930   2.077   0.635   1.833 -0.6327  0.4502  2.7613
  233SOL    HW2  931   2.094   0.557   1.963  2.7512 -1.7826 -1.2205
  233SOL     MW  932   2.043   0.586   1.895  0.5137 -0.4771  0.4771
  234SOL     OW  933   0.218   0.981   2.477  0.0211 -0.1641  0.1126
  234SOL    HW1  934   0.118   0.979   2.480 -1.2054 -1.0310 -0.8233
  234SOL    HW2  935   0.250   1.060   2.418  1.5711 -0.6970 -2.7186
  234SOL     MW  936   0.209   0.991   2.470  0.0638 -0.3488 -0.3844
  235SOL     OW  937   1.001   3.039   2.803  0.2537 -0.4954  0.4417
  235SOL    HW1  938   1.051   2.981   2.860  2.4303  0.8370 -0.2228
  235SOL    HW2  939   0.958   3.110   2.854  1.8131 -0.5079  0.8826
  235SOL     MW  940   1.002   3.041   2.817  0.7466 -0.3212  0.4122
  236SOL     OW  941   2.927   0.542   0.103 -0.2269 -0.6597 -0.1469
  236SOL    HW1  942   2.870   0.551   0.023  0.3954  1.0868  0.0697
  236SOL    HW2  943   2.968   0.621   0.115 -2.4395  0.4391 -0.3263
  236SOL     MW  944   2.925   0.553   0.094 -0.4368 -0.2843 -0.1420
  237SOL     OW  945   1.758   0.887   2.176 -0.2226 -0.0145 -0.0386
  237SOL    HW1  946   1.797   0.969   2.139  0.6903 -1.2985  2.5204
  237SOL    HW2  947   1.795   0.875   2.266  2.8139  0.9717  0.8630
  237SOL     MW  948   1.768   0.897   2.183  0.2985 -0.0538  0.4180
  238SOL     OW  949   1.061   1.769   2.964  0.7981  0.0292  0.3271
  238SOL    HW1  950   1.020   1.682   2.961  1.0580 -0.2341 -0.7681
  238SOL    HW2  951   1.154   1.758   2.941  3.0205  2.1803 -0.8252
  238SOL     MW  952   1.068   1.756   2.961  1.1256  0.2783  0.0306
  239SOL     OW  953   1.255   1.418   2.331 -0.0997 -0.1982 -0.5919
  239SOL    HW1  954   1.241   1.420   2.427 -2.6842 -3.4420  2.3598
  239SOL    HW2  955   1.344   1.445   2.327 -0.1704 -1.3867  1.1635
  239SOL     MW  956   1.265   1.422   2.343 -0.4500 -0.7830  0.0292
  240SOL     OW  957   0.615   0.815   2.240  0.5501 -0.4930  0.3283
  240SOL    HW1  958   0.586   0.873   2.310 -0.6563  0.2398 -0.1422
  240SOL    HW2  959   0.709   0.788   2.256  0.4506 -3.0124  2.3146
  240SOL     MW  960   0.623   0.819   2.251  0.3778 -0.7288  0.5283
  241SOL     OW  961   0.675   0.344   3.018  0.3829  0.5341  0.0089
  241SOL    HW1  962   0.670   0.401   3.093  0.5208 -1.5579 -0.7823
  241SOL    HW2  963   0.590   0.341   2.970 -0.5396 -2.9812 -1.1357
  241SOL     MW  964   0.664   0.351   3.021  0.2794 -0.2057 -0.2465
  242SOL     OW  965   1.426   1.686   2.321  0.2469  0.4719  0.8065
  242SOL    HW1  966   1.412   1.769   2.359 -0.1920 -2.3215  1.4969
  242SOL    HW2  967   1.357   1.687   2.254 -0.5246 -1.5084 -0.5197
  242SOL     MW  968   1.415   1.697   2.317  0.0872 -0.1580  0.7226
  243SOL     OW  969   1.069   0.204   2.348 -0.0653  0.1941 -0.5558
  243SOL    HW1  970   1.164   0.201   2.356  0.6498 -1.9359 -0.7333
  243SOL    HW2  971   1.041   0.255   2.422 -0.4708 -2.4248  0.6494
  243SOL     MW  972   1.077   0.210   2.359 -0.0244 -0.4325 -0.4202
  244SOL     OW  973   0.228   0.762   2.318 -0.0862 -0.2995 -0.3298
  244SOL    HW1  974   0.223   0.832   2.384 -2.2636  1.8872 -0.3110
  244SOL    HW2  975   0.306   0.708   2.330 -1.8587  2.7934 -0.2529
  244SOL     MW  976   0.237   0.764   2.328 -0.6074  0.3970 -0.3172
  245SOL     OW  977   1.331   0.149   2.308  0.0922  0.2076 -0.1365
  245SOL    HW1  978   1.324   0.053   2.309 -0.5963 -0.8281  2.0923
  245SOL    HW2  979   1.423   0.178   2.319  0.6370  0.6216 -3.5273
  245SOL     MW  980   1.342   0.140   2.309  0.0733  0.1256 -0.2898
  246SOL     OW  981   1.168   1.132   2.157 -0.3668 -0.4218 -0.7373
  246SOL    HW1  982   1.104   1.109   2.226  1.9523  2.5057 -2.3080
  246SOL    HW2  983   1.257   1.148   2.201 -0.4104 -0.1775 -0.6905
  246SOL     MW  984   1.171   1.131   2.172 -0.0665 -0.0033 -0.9383
  247SOL     OW  985   0.648   0.556   0.117  0.5850 -0.7620  0.0830
  247SOL    HW1  986   0.619   0.648   0.123 -1.2364  0.5583 -0.2520
  247SOL    HW2  987   0.741   0.567   0.090 -0.5378  0.4162 -2.2649
  247SOL     MW  988   0.657   0.570   0.115  0.1965 -0.4323 -0.2710
  248SOL     OW  989   0.352   1.199   2.415  0.9927 -0.1570 -0.3795
  248SOL    HW1  990   0.358   1.252   2.336  1.8856  0.5417 -1.2674
  248SOL    HW2  991   0.314   1.245   2.487 -4.0768  1.5957 -2.7125
  248SOL     MW  992   0.348   1.212   2.414  0.4417  0.1664 -0.8044
  249SOL     OW  993   0.155   1.819   2.721  0.4023 -0.5707  0.1911
  249SOL    HW1  994   0.096   1.746   2.703 -1.8986  0.1090  0.2831
  249SOL    HW2  995   0.195   1.781   2.801  0.9282  0.4354  0.1871
  249SOL     MW  996   0.152   1.804   2.729  0.1681 -0.3482  0.2027
  250SOL     OW  997   2.153   0.903   2.316 -0.8794  0.6816  0.4036
  250SOL    HW1  998   2.201   0.819   2.329  2.8133  0.7117 -2.2014
  250SOL    HW2  999   2.179   0.950   2.398  1.2702 -0.2050  1.4826
  250SOL     MW 1000   2.163   0.898   2.328 -0.1086  0.5686  0.2022
  251SOL     OW 1001   0.102   0.822   2.055  0.7085  0.2559 -0.3124
  251SOL    HW1 1002   0.104   0.795   2.144 -0.1572 -2.2327 -3.2551
  251SOL    HW2 1003   0.093   0.741   2.010 -0.4316 -0.2209 -0.3182
  251SOL     MW 1004   0.101   0.808   2.061  0.4438 -0.1354 -0.7014
  252SOL     OW 1005   1.695   1.009   2.787 -0.1074  0.2943  0.3196
  252SOL    HW1 1006   1.697   1.062   2.867  3.9797  1.4285  0.5467
  252SOL    HW2 1007   1.779   1.016   2.743 -1.9976  1.8056 -4.1826
  252SOL     MW 1008   1.706   1.017   2.792  0.1824  0.6433 -0.2445
  253SOL     OW 1009   1.147   1.758   2.575  0.4810 -0.2159 -0.0164
  253SOL    HW1 1010   1.165   1.751   2.481 -0.7899  0.0330 -0.6615
  253SOL    HW2 1011   1.052   1.789   2.580 -1.1690  2.0697  0.3850
  253SOL     MW 1012   1.137   1.761   2.563  0.0956  0.1185 -0.0485
  254SOL     OW 1013   0.961   1.063   2.314  0.1769 -0.3003 -0.3708
  254SOL    HW1 1014   0.950   0.979   2.269  2.3883  0.2379  0.0889
  254SOL    HW2 1015   0.884   1.118   2.302  3.1515 -1.9133 -1.5773
  254SOL     MW 1016   0.949   1.059   2.307  0.8611 -0.4421 -0.4693
  255SOL     OW 1017   0.733   2.342   2.277  0.3960  0.8886 -0.3345
  255SOL    HW1 1018   0.644   2.324   2.292  0.3041  0.0421 -0.4884
  255SOL    HW2 1019   0.759   2.392   2.356 -0.3780  1.9127 -1.3537
  255SOL     MW 1020   0.725   2.346   2.289  0.2817  0.9120 -0.4893
  256SOL     OW 1021   1.197   2.863   2.957  0.0176 -0.0373 -0.9122
  256SOL    HW1 1022   1.240   2.783   2.920 -0.7186 -0.4923  0.6107
  256SOL    HW2 1023   1.248   2.940   2.934 -2.4524  0.3037  0.8264
  256SOL     MW 1024   1.210   2.862   2.949 -0.4054 -0.0523 -0.4818
  257SOL     OW 1025   0.122   1.863   0.006 -0.2576  0.5133 -0.2847
  257SOL    HW1 1026   0.124   1.833   0.095 -1.7086  0.9654  0.4447
  257SOL    HW2 1027   0.163   1.799  -0.050 -0.1407  0.1412 -0.5343
  257SOL     MW 1028   0.128   1.851   0.011 -0.4336  0.5239 -0.2214
  258SOL     OW 1029   0.577   1.043   2.404  0.1314  0.1986  0.1545
  258SOL    HW1 1030   0.616   1.099   2.337  1.0282 -0.9267 -2.0303
  258SOL    HW2 1031   0.499   1.093   2.432  3.2025  0.4039 -0.7073
  258SOL     MW 1032   0.572   1.057   2.399  0.6549  0.0772 -0.2474
  259SOL     OW 1033   0.601   0.365   2.510 -0.3473  0.4167 -0.8290
  259SOL    HW1 1034   0.534   0.419   2.490  0.0576 -1.8592  0.8293
  259SOL    HW2 1035   0.608   0.303   2.431  0.3149  0.3628 -2.7212
  259SOL     MW 1036   0.593   0.364   2.497 -0.2065  0.1093 -0.8599
  260SOL     OW 1037   0.591   0.152   1.587  0.3350  0.2707  0.1012
  260SOL    HW1 1038   0.541   0.179   1.511 -2.0846 -0.2186 -0.1136
  260SOL    HW2 1039   0.673   0.181   1.559 -0.9747 -1.6091  0.8523
  260SOL     MW 1040   0.595   0.159   1.573 -0.1570 -0.0419  0.1720
  261SOL     OW 1041   1.062   0.688   2.080  0.5210  0.3646  0.0625
  261SOL    HW1 1042   1.121   0.662   2.153  1.4870 -0.3395  1.1025
  261SOL    HW2 1043   1.093   0.646   2.004  0.2100 -1.7278  2.2817
  261SOL     MW 1044   1.074   0.679   2.080  0.6075 -0.0043  0.4925
  262SOL     OW 1045   1.140   0.392   0.131  0.0539 -0.5868 -0.4029
  262SOL    HW1 1046   1.159   0.303   0.152 -1.4467  0.4782 -0.3327
  262SOL    HW2 1047   1.202   0.408   0.063 -0.8241  0.3888  1.3981
  262SOL     MW 1048   1.151   0.382   0.125 -0.2599 -0.3176 -0.1560
  263SOL     OW 1049   0.431   2.989   2.496  0.2751 -0.1937  0.6638
  263SOL    HW1 1050   0.369   3.059   2.505 -0.3162  0.6089  2.1548
  263SOL    HW2 1051   0.466   3.001   2.411  1.0839 -4.0446  2.5201
  263SOL     MW 1052   0.427   2.999   2.486  0.3038 -0.5959  1.1054
  264SOL     OW 1053   1.485   1.328   1.976  0.5620  0.1578  0.3207
  264SOL    HW1 1054   1.429   1.288   2.045 -2.3880  0.7961 -0.9480
  264SOL    HW2 1055   1.573   1.356   2.011  0.5596 -0.7234 -0.6633
  264SOL     MW 1056   1.489   1.326   1.990  0.1724  0.1258  0.0235
  265SOL     OW 1057   0.743   2.738   2.208 -0.2148 -0.4061 -0.0023
  265SOL    HW1 1058   0.762   2.653   2.178 -2.4670  1.6325  0.9806
  265SOL    HW2 1059   0.695   2.728   2.293  0.1181  0.6461  1.7063
  265SOL     MW 1060   0.739   2.726   2.215 -0.4680  0.0017  0.3528
  266SOL     OW 1061   0.879   0.806   2.277 -0.0793  0.1291 -0.0872
  266SOL    HW1 1062   0.934   0.747   2.231  0.8031 -1.5492 -2.1639
  266SOL    HW2 1063   0.866   0.774   2.366 -1.2855  1.6893  0.8197
  266SOL     MW 1064   0.884   0.794   2.283 -0.1220  0.1135 -0.2415
  267SOL     OW 1065   1.389   1.814   2.671  0.1646 -0.4111 -0.3474
  267SOL    HW1 1066   1.453   1.741   2.637  0.7969 -0.7316  1.1771
  267SOL    HW2 1067   1.303   1.787   2.648  2.5881  2.5678  1.6778
  267SOL     MW 1068   1.386   1.801   2.663  0.5677 -0.0603  0.1210
  268SOL     OW 1069   0.206   0.758   1.656  0.4931 -0.7601 -0.2029
  268SOL    HW1 1070   0.135   0.822   1.614 -0.5515  0.6488 -1.3671
  268SOL    HW2 1071   0.204   0.680   1.603 -2.7118  1.9852  0.7449
  268SOL     MW 1072   0.196   0.756   1.643 -0.0676 -0.2120 -0.2314
  269SOL     OW 1073   1.402   1.949   2.439  0.5240 -0.1377 -0.1522
  269SOL    HW1 1074   1.429   1.918   2.528 -1.0462  2.1644 -1.2524
  269SOL    HW2 1075   1.324   1.991   2.470  1.1247 -0.1700 -0.2212
  269SOL     MW 1076   1.395   1.951   2.455  0.3961  0.1618 -0.3064
  270SOL     OW 1077   1.186   0.474   1.632 -0.4420 -0.2413 -0.5401
  270SOL    HW1 1078   1.149   0.391   1.660 -0.6043 -0.7947  0.7794
  270SOL    HW2 1079   1.280   0.454   1.597 -0.0069 -0.6157  1.0012
  270SOL     MW 1080   1.194   0.461   1.631 -0.4060 -0.3638 -0.1626
  271SOL     OW 1081   0.894   0.006   2.460 -0.4986 -0.2697 -0.2928
  271SOL    HW1 1082   0.931  -0.041   2.535 -0.8759  0.7356 -1.3000
  271SOL    HW2 1083   0.964   0.070   2.436 -0.2919 -1.3559  2.2681
  271SOL     MW 1084   0.908   0.009   2.467 -0.5211 -0.2803 -0.0878
  272SOL     OW 1085   1.366   2.998   2.773  0.1658 -0.3709 -0.5163
  272SOL    HW1 1086   1.312   3.032   2.702  1.2775 -1.1157  2.5583
  272SOL    HW2 1087   1.358   3.068   2.848 -0.5890  3.7734  1.3215
  272SOL     MW 1088   1.358   3.012   2.773  0.2129  0.0776  0.1318
  273SOL     OW 1089   1.425   0.933   2.806 -0.1923  0.1447  0.5687
  273SOL    HW1 1090   1.521   0.936   2.807  0.1156 -2.2596 -0.2032
  273SOL    HW2 1091   1.397   1.020   2.839 -0.9175 -0.5402 -0.5031
  273SOL     MW 1092   1.434   0.945   2.810 -0.2473 -0.2629  0.3254
  274SOL     OW 1093   1.347   0.710   0.126 -0.8381 -0.1614  0.0496
  274SOL    HW1 1094   1.380   0.633   0.171  1.0608 -1.4294 -1.4594
  274SOL    HW2 1095   1.257   0.728   0.152  2.7954 -1.2661 -0.4686
  274SOL     MW 1096   1.339   0.702   0.136 -0.1081 -0.4745 -0.2179
  275SOL     OW 1097   1.676   0.656   1.754  0.1049  0.1148  0.1447
  275SOL    HW1 1098   1.738   0.677   1.831  2.9091 -0.5896 -1.6365
  275SOL    HW2 1099   1.689   0.558   1.736  0.9004 -0.8032 -1.1727
  275SOL     MW 1100   1.686   0.646   1.762  0.5799 -0.0993 -0.2641
  276SOL     OW 1101   0.193   1.178   1.818  0.1228  0.0061 -0.2358
  276SOL    HW1 1102   0.253   1.103   1.845 -0.1189 -1.3665  1.7996
  276SOL    HW2 1103   0.121   1.158   1.872 -0.4260  0.1276 -1.0257
  276SOL     MW 1104   0.191   1.166   1.829  0.0185 -0.1590 -0.0715
  277SOL     OW 1105   1.907   1.377   2.732  0.0998 -0.0362 -0.0566
  277SOL    HW1 1106   1.955   1.462   2.721  0.4028  2.6820  0.8259
  277SOL    HW2 1107   1.982   1.311   2.723  4.6686  0.6917 -1.6835
  277SOL     MW 1108   1.924   1.379   2.729  0.7426  0.4185 -0.1548
  278SOL     OW 1109   1.431   0.734   1.757 -0.3360 -0.0213 -0.0402
  278SOL    HW1 1110   1.400   0.666   1.825  1.7746 -0.4522  3.0154
  278SOL    HW2 1111   1.527   0.736   1.774  0.5632 -1.5518  1.5604
  278SOL     MW 1112   1.440   0.725   1.769  0.0611 -0.2801  0.5741
  279SOL     OW 1113   0.579   3.069   2.263  0.3307  1.1777 -0.0919
  279SOL    HW1 1114   0.667   3.028   2.271 -1.6542 -2.2409  1.5537
  279SOL    HW2 1115   0.600   3.162   2.242  3.4228 -0.8395  0.2673
  279SOL     MW 1116   0.593   3.076   2.261  0.4767  0.4605  0.1726
  280SOL     OW 1117   1.425   1.162   2.245  0.2739 -0.2245  0.1212
  280SOL    HW1 1118   1.448   1.084   2.186 -0.5447  2.0233  0.4933
  280SOL    HW2 1119   1.433   1.118   2.334  0.2601 -0.7340 -1.2884
  280SOL     MW 1120   1.429   1.146   2.249  0.1641  0.0048 -0.0157
  281SOL     OW 1121   1.328   1.394   2.793 -0.1620  0.5450  0.7774
  281SOL    HW1 1122   1.420   1.426   2.799  0.4487  2.4107  1.0500
  281SOL    HW2 1123   1.315   1.304   2.830  0.1127  0.1905  0.3638
  281SOL     MW 1124   1.338   1.386   2.799 -0.0452  0.7444  0.7588
  282SOL     OW 1125   1.130   1.303   1.744 -0.9163 -0.6842  0.1941
  282SOL    HW1 1126   1.084   1.371   1.688  0.8300  0.4229  1.5121
  282SOL    HW2 1127   1.067   1.245   1.789  1.6899 -2.0565  0.4356
  282SOL     MW 1128   1.116   1.304   1.742 -0.3420 -0.7192  0.3999
  283SOL     OW 1129   0.697   1.192   0.046 -0.2591  0.0862 -1.2710
  283SOL    HW1 1130   0.787   1.155   0.050  0.0714 -0.7199 -1.0472
  283SOL    HW2 1131   0.697   1.287   0.048  0.8716  1.2365  0.7284
  283SOL     MW 1132   0.709   1.200   0.047 -0.0663  0.1316 -0.9777
  284SOL     OW 1133   0.467   0.609   2.354  0.5953  0.1464 -0.4695
  284SOL    HW1 1134   0.531   0.664   2.298 -0.7561  2.4370  1.1287
  284SOL    HW2 1135   0.447   0.544   2.284  0.3062  1.9379 -1.4545
  284SOL     MW 1136   0.473   0.608   2.337  0.3789  0.6850 -0.3886
  285SOL     OW 1137   0.881   0.903   2.775  0.7858 -0.0354  0.2131
  285SOL    HW1 1138   0.837   0.957   2.707  0.8003  0.5465 -2.0069
  285SOL    HW2 1139   0.826   0.818   2.784  3.8818  0.0469  0.9513
  285SOL     MW 1140   0.868   0.899   2.767  1.1962  0.0522  0.0176
  286SOL     OW 1141   1.154   1.461   2.595  0.1979  0.1667  0.0511
  286SOL    HW1 1142   1.215   1.439   2.666  1.5775  0.2236  1.7742
  286SOL    HW2 1143   1.131   1.552   2.590  1.5873 -0.9645  1.5746
  286SOL     MW 1144   1.159   1.470   2.603  0.5632  0.0249  0.4795
  287SOL     OW 1145   1.102   0.944   0.405 -0.4033 -0.1105  0.5161
  287SOL    HW1 1146   1.176   0.961   0.466 -1.4447 -1.4743 -0.4679
  287SOL    HW2 1147   1.053   1.029   0.389  0.2534  2.3897  1.1358
  287SOL     MW 1148   1.105   0.957   0.411 -0.4540  0.0395  0.4681
  288SOL     OW 1149   1.487   0.696   2.166  0.5484  0.1994 -0.0104
  288SOL    HW1 1150   1.462   0.680   2.261 -0.3804  2.9026  2.8655
  288SOL    HW2 1151   1.473   0.788   2.140  1.2318 -0.5327  0.6066
  288SOL     MW 1152   1.482   0.706   2.175  0.5160  0.4594  0.4505
  289SOL     OW 1153   0.797   1.035   2.553  0.5190  1.2915  1.0498
  289SOL    HW1 1154   0.856   1.017   2.482  1.6448 -1.4466  0.6434
  289SOL    HW2 1155   0.726   1.029   2.494 -0.5606  1.6880 -0.0727
  289SOL     MW 1156   0.795   1.032   2.536  0.5251  0.9825  0.8480
  290SOL     OW 1157   0.842   0.700   1.550  0.1533 -0.4917 -0.2589
  290SOL    HW1 1158   0.885   0.637   1.487  0.3979 -0.5638 -1.9470
  290SOL    HW2 1159   0.894   0.709   1.633 -0.3495  1.1310  1.8830
  290SOL     MW 1160   0.854   0.693   1.552  0.1192 -0.2871 -0.1990
  291SOL     OW 1161   0.250   0.378   0.202 -0.0919  0.0169  0.0478
  291SOL    HW1 1162   0.336   0.337   0.213 -2.6094 -0.5409 -0.5389
  291SOL    HW2 1163   0.196   0.308   0.165 -0.7097  1.1334  0.3835
  291SOL     MW 1164   0.254   0.364   0.199 -0.5056  0.0906  0.0147
  292SOL     OW 1165   0.933   0.567   0.100  0.0601  0.3612  0.0206
  292SOL    HW1 1166   0.970   0.635   0.155 -1.6346  1.1430 -1.2410
  292SOL    HW2 1167   0.992   0.493   0.121  1.5455  1.3773  0.6220
  292SOL     MW 1168   0.946   0.566   0.110  0.0324  0.5984 -0.0665
  293SOL     OW 1169   0.246   0.098   2.472 -0.1138  0.1667  0.6678
  293SOL    HW1 1170   0.161   0.054   2.464 -1.0374  1.3137  2.9348
  293SOL    HW2 1171   0.236   0.152   2.555  1.1495 -0.3759  2.7761
  293SOL     MW 1172   0.233   0.100   2.482 -0.0690  0.2464  1.2451
  294SOL     OW 1173   1.430   0.622   2.417 -0.0911  0.6358  0.5756
  294SOL    HW1 1174   1.452   0.692   2.479 -1.8630  1.5030  0.3182
  294SOL    HW2 1175   1.462   0.541   2.457 -0.4025 -0.8980 -3.2006
  294SOL     MW 1176   1.437   0.621   2.430 -0.3660  0.5478  0.0434
  295SOL     OW 1177   0.771   0.591   2.496 -0.2393  0.5507  0.0713
  295SOL    HW1 1178   0.740   0.498   2.508  0.4043 -0.7791  3.8133
  295SOL    HW2 1179   0.765   0.633   2.587 -2.2503  0.2791  5.6253
  295SOL     MW 1180   0.766   0.584   2.510 -0.4197  0.3394  1.2978
  296SOL     OW 1181   1.257   0.284   2.068  0.1435  0.2579  0.4529
  296SOL    HW1 1182   1.344   0.246   2.069  2.0920  0.2194 -3.1590
  296SOL    HW2 1183   1.232   0.265   2.162 -2.1186 -0.9988  0.3039
  296SOL     MW 1184   1.265   0.277   2.080  0.1021  0.0870 -0.0433
  297SOL     OW 1185   1.452   0.434   1.520  0.2291 -0.3133 -0.4232
  297SOL    HW1 1186   1.509   0.502   1.549 -0.7941 -0.4302  1.2832
  297SOL    HW2 1187   1.493   0.358   1.551  0.5085 -1.9718 -2.1732
  297SOL     MW 1188   1.465   0.433   1.528  0.1309 -0.5475 -0.4289
  298SOL     OW 1189   1.492   0.946   2.089 -0.3572 -0.3266 -0.3148
  298SOL    HW1 1190   1.481   0.976   2.000 -0.8414  1.1201  0.7070
  298SOL    HW2 1191   1.586   0.919   2.099 -0.0683 -0.5388 -2.2164
  298SOL     MW 1192   1.503   0.946   2.079 -0.3830 -0.1637 -0.4309
  299SOL     OW 1193   0.515   0.998   3.019 -0.3620 -0.1443  0.2756
  299SOL    HW1 1194   0.601   1.050   3.021 -2.2723  0.5749 -0.3380
  299SOL    HW2 1195   0.473   1.046   2.950  1.8803  0.6278  2.7136
  299SOL     MW 1196   0.521   1.011   3.010 -0.3182  0.0525  0.5163
  300SOL     OW 1197   1.177   1.068   2.552  0.1217  0.6111  0.0786
  300SOL    HW1 1198   1.151   1.136   2.495 -0.2681  2.8253 -2.1677
  300SOL    HW2 1199   1.140   0.993   2.510  0.9122  0.6151 -1.4480
  300SOL     MW 1200   1.169   1.067   2.539  0.1746  0.9038 -0.4192
  301SOL     OW 1201   1.399   0.736   0.542  0.1213  0.1024 -0.0156
  301SOL    HW1 1202   1.401   0.716   0.637 -1.1979  0.5631  1.5789
  301SOL    HW2 1203   1.334   0.676   0.510  2.5262  2.2495 -1.9216
  301SOL     MW 1204   1.391   0.725   0.550  0.2646  0.4465 -0.0567
  302SOL     OW 1205   0.140   1.506   1.955 -0.1556  0.0472 -0.2328
  302SOL    HW1 1206   0.119   1.450   2.028  0.1798 -0.4428 -1.8477
  302SOL    HW2 1207   0.080   1.580   1.963 -0.8848 -1.8923 -0.9612
  302SOL     MW 1208   0.130   1.508   1.966 -0.2075 -0.2733 -0.5420
  303SOL     OW 1209   0.414   1.822   2.655 -0.4012 -0.0889 -0.3931
  303SOL    HW1 1210   0.443   1.870   2.579 -0.2831 -1.2751  0.0883
  303SOL    HW2 1211   0.320   1.826   2.673 -0.0804  2.5586 -1.1495
  303SOL     MW 1212   0.405   1.829   2.647 -0.3433  0.1039 -0.4294
  304SOL     OW 1213   0.524   1.983   2.426 -0.4441  0.7465  0.5377
  304SOL    HW1 1214   0.540   2.061   2.376  3.0376  0.4037 -0.0973
  304SOL    HW2 1215   0.606   1.940   2.413 -0.1490  1.5746 -0.8775
  304SOL     MW 1216   0.537   1.988   2.418  0.0542  0.8105  0.2672
  305SOL     OW 1217   1.183   0.564   0.447  0.1929  0.5755 -0.0668
  305SOL    HW1 1218   1.099   0.541   0.488 -1.7545 -2.7617  3.0032
  305SOL    HW2 1219   1.230   0.484   0.426 -1.7252  2.2937  0.3390
  305SOL     MW 1220   1.178   0.550   0.450 -0.3171  0.3619  0.3918
  306SOL     OW 1221   1.215   1.421   0.282  0.0853 -0.3878  0.4603
  306SOL    HW1 1222   1.261   1.356   0.336 -1.6491  0.2017 -0.4417
  306SOL    HW2 1223   1.274   1.430   0.200  0.0867  2.4378  0.2357
  306SOL     MW 1224   1.229   1.413   0.278 -0.1433  0.0628  0.3117
  307SOL     OW 1225   1.316   0.566   1.968 -0.2030  0.5176  0.1304
  307SOL    HW1 1226   1.291   0.474   1.974  0.8453  0.3373 -0.2796
  307SOL    HW2 1227   1.360   0.588   2.051  1.6793  4.0019  2.1856
  307SOL     MW 1228   1.318   0.557   1.980  0.1836  0.9535  0.3475
  308SOL     OW 1229   2.134   0.557   2.752 -0.1112 -0.0725 -0.3677
  308SOL    HW1 1230   2.097   0.459   2.733  0.0130 -1.9949 -1.0455
  308SOL    HW2 1231   2.225   0.542   2.735 -0.4311  2.9402  1.5765
  308SOL     MW 1232   2.141   0.542   2.747 -0.1370  0.0713 -0.2006
  309SOL     OW 1233   0.503   0.508   0.377 -0.3591 -0.1010  0.0925
  309SOL    HW1 1234   0.526   0.419   0.402 -2.5503  0.7416  1.0300
  309SOL    HW2 1235   0.543   0.519   0.293 -0.3127 -0.0228  2.3424
  309SOL     MW 1236   0.511   0.498   0.369 -0.6421  0.0205  0.5130
  310SOL     OW 1237   0.413   0.516   1.907  0.1019  0.0187  0.1561
  310SOL    HW1 1238   0.470   0.454   1.852 -0.0514 -3.4378 -0.9407
  310SOL    HW2 1239   0.463   0.601   1.915  1.8119  1.8082  1.3504
  310SOL     MW 1240   0.427   0.519   1.901  0.3073 -0.2012  0.1690
  311SOL     OW 1241   1.832   0.767   1.950  0.5557 -0.2732 -0.1928
  311SOL    HW1 1242   1.821   0.794   2.043  0.2866  0.2337 -1.8467
  311SOL    HW2 1243   1.903   0.706   1.943 -2.2057  3.4226  0.5293
  311SOL     MW 1244   1.840   0.762   1.962  0.1559  0.2813 -0.3157
  312SOL     OW 1245   1.734   2.628   3.074 -0.2903 -0.3271 -0.2397
  312SOL    HW1 1246   1.782   2.628   3.158 -1.3969 -1.5351  0.3557
  312SOL    HW2 1247   1.648   2.596   3.090 -2.9587 -0.4835 -4.2096
  312SOL     MW 1248   1.729   2.624   3.087 -0.7884 -0.5071 -0.6849
  313SOL     OW 1249   0.135   1.196   2.924  0.0990  0.3187  0.2854
  313SOL    HW1 1250   0.204   1.196   2.988 -2.3564  0.9333  0.5213
  313SOL    HW2 1251   0.192   1.195   2.844 -0.9921  0.1202  1.1997
  313SOL     MW 1252   0.152   1.196   2.922 -0.3689  0.3736  0.4372
  314SOL     OW 1253   2.149   3.044   2.987  0.0438 -0.3917 -0.2200
  314SOL    HW1 1254   2.090   3.105   2.941  1.2221 -1.8452 -0.0500
  314SOL    HW2 1255   2.193   3.092   3.055  2.8972  1.4221 -0.0948
  314SOL     MW 1256   2.147   3.058   2.990  0.5757 -0.3441 -0.1811
  315SOL     OW 1257   1.571   1.989   3.016  0.1030 -0.2072 -0.0492
  315SOL    HW1 1258   1.477   2.014   3.043  0.3332  0.1141 -0.5973
  315SOL    HW2 1259   1.582   2.047   2.941  2.4762 -0.2880  3.4847
  315SOL     MW 1260   1.560   2.000   3.010  0.4465 -0.1754  0.3447
  316SOL     OW 1261   1.219   0.633   2.695  0.4957  0.4124 -0.1257
  316SOL    HW1 1262   1.304   0.597   2.679 -0.8269 -2.0993 -0.4469
  316SOL    HW2 1263   1.217   0.685   2.780  0.0200  1.9905  0.0386
  316SOL     MW 1264   1.230   0.635   2.704  0.2584  0.2892 -0.1464
  317SOL     OW 1265   0.666   1.357   2.590 -0.4070  0.3959 -0.0677
  317SOL    HW1 1266   0.693   1.298   2.655 -1.3872  0.6146  1.0612
  317SOL    HW2 1267   0.736   1.365   2.521 -0.1045  0.4250  2.1354
  317SOL     MW 1268   0.679   1.351   2.589 -0.4964  0.4286  0.3719
  318SOL     OW 1269   1.279   0.419   2.941 -0.2634 -0.5620 -0.1982
  318SOL    HW1 1270   1.194   0.443   2.899 -2.4350 -1.6045 -1.2342
  318SOL    HW2 1271   1.350   0.476   2.903 -0.7412 -2.2241 -0.3140
  318SOL     MW 1272   1.277   0.430   2.931 -0.6130 -0.9189 -0.3501
  319SOL     OW 1273   0.760   0.408   2.738 -0.0148 -0.4098  0.0043
  319SOL    HW1 1274   0.696   0.395   2.670  0.4871 -1.6846 -0.7808
  319SOL    HW2 1275   0.752   0.330   2.794 -1.9571 -0.6235 -0.3415
  319SOL     MW 1276   0.751   0.396   2.737 -0.2049 -0.6062 -0.1449
  320SOL     OW 1277   1.007   1.311   2.020  0.4750 -0.1526 -0.4924
  320SOL    HW1 1278   1.071   1.266   2.072  0.3802  0.6658 -0.3290
  320SOL    HW2 1279   1.052   1.380   1.974  1.1179  0.7071  2.6220
  320SOL     MW 1280   1.021   1.314   2.021  0.5473  0.0688 -0.0600
  321SOL     OW 1281   1.097   0.985   2.975 -0.0610 -0.1101 -0.3209
  321SOL    HW1 1282   1.033   0.983   2.897  3.5983  1.3517  1.2834
  321SOL    HW2 1283   1.137   0.894   2.966  1.8063 -3.0949  1.0732
  321SOL     MW 1284   1.094   0.973   2.963  0.6681 -0.3110  0.0747
  322SOL     OW 1285   1.230   0.892   1.708 -0.1081 -0.5991  0.0646
  322SOL    HW1 1286   1.308   0.834   1.732 -0.0783 -2.0730  0.1071
  322SOL    HW2 1287   1.210   0.924   1.794  0.8489  2.3666  0.0112
  322SOL     MW 1288   1.238   0.888   1.723  0.0221 -0.4023  0.0631
  323SOL     OW 1289   1.192   1.519   1.915  0.0795 -0.3549 -0.4139
  323SOL    HW1 1290   1.203   1.438   1.859  0.4615  1.7039  0.6281
  323SOL    HW2 1291   1.131   1.570   1.865  2.3115  1.0000  0.2141
  323SOL     MW 1292   1.185   1.515   1.901  0.4244  0.0955 -0.1936
  324SOL     OW 1293   1.490   1.088   2.502  0.2959  0.3872 -0.9756
  324SOL    HW1 1294   1.427   1.062   2.561 -1.0054 -0.0333 -2.8399
  324SOL    HW2 1295   1.563   1.137   2.540 -0.7936  0.8390 -3.7897
  324SOL     MW 1296   1.491   1.091   2.515 -0.0195  0.3913 -1.5929
  325SOL     OW 1297   0.990   0.448   2.915 -0.1444  0.4180  0.3319
  325SOL    HW1 1298   0.961   0.499   2.998  2.3955  0.1362 -1.5858
  325SOL    HW2 1299   0.910   0.452   2.859  1.3091  0.2976 -1.2307
  325SOL     MW 1300   0.976   0.455   2.919  0.3825  0.3649 -0.1273
  326SOL     OW 1301   0.389   1.336   2.171 -0.1576  0.2294 -0.3055
  326SOL    HW1 1302   0.446   1.307   2.100 -1.9320 -1.4206  1.0722
  326SOL    HW2 1303   0.395   1.434   2.181 -0.7311  0.8984  2.3850
  326SOL     MW 1304   0.397   1.345   2.163 -0.4674  0.0999  0.2312
  327SOL     OW 1305   1.905   0.854   2.413  0.2599 -0.2580 -0.1752
  327SOL    HW1 1306   1.915   0.815   2.500  3.2768  2.6035  0.8844
  327SOL    HW2 1307   1.993   0.861   2.374 -2.7616 -0.9762 -0.4752
  327SOL     MW 1308   1.918   0.850   2.419  0.2593  0.0248 -0.0749
  328SOL     OW 1309   0.138   1.257   2.187 -0.1702  0.4053  0.1010
  328SOL    HW1 1310   0.092   1.224   2.112  3.0875 -0.4151  0.2882
  328SOL    HW2 1311   0.228   1.263   2.159 -1.8980  1.0717  1.6248
  328SOL     MW 1312   0.144   1.254   2.174  0.0317  0.3850  0.3268
  329SOL     OW 1313   0.123   0.165   1.410  0.3767  0.2007 -0.0611
  329SOL    HW1 1314   0.069   0.221   1.464 -1.0383 -1.3503 -3.9062
  329SOL    HW2 1315   0.213   0.194   1.417  0.5154  1.7721 -0.4579
  329SOL     MW 1316   0.128   0.176   1.418  0.2083  0.2034 -0.6208
  330SOL     OW 1317   0.409   2.956   2.076 -0.4407 -0.1815  0.1635
  330SOL    HW1 1318   0.482   2.999   2.128  0.0453 -0.6017 -1.0007
  330SOL    HW2 1319   0.333   2.950   2.130  0.4429 -0.3601  1.1968
  330SOL     MW 1320   0.409   2.961   2.090 -0.2600 -0.2605  0.1463
  331SOL     OW 1321   0.729   1.177   2.222 -0.2008  0.1228 -0.1506
  331SOL    HW1 1322   0.681   1.190   2.141 -0.2892  4.0225  2.7560
  331SOL    HW2 1323   0.754   1.266   2.252 -3.6902  1.3703  0.3204
  331SOL     MW 1324   0.726   1.190   2.215 -0.6729  0.8019  0.2950
  332SOL     OW 1325   1.353   1.750   2.940  0.1276 -0.3689 -0.4347
  332SOL    HW1 1326   1.358   1.761   2.840 -0.4399 -0.1188 -2.1074
  332SOL    HW2 1327   1.423   1.802   2.978 -2.5558  1.0339  2.3650
  332SOL     MW 1328   1.363   1.758   2.932 -0.3014 -0.1508 -0.2860
  333SOL     OW 1329   1.736   1.511   3.033  0.0400  0.3708 -0.0149
  333SOL    HW1 1330   1.831   1.485   3.037  0.1782 -1.3108 -0.9312
  333SOL    HW2 1331   1.698   1.436   3.081  2.5865 -2.2950  0.6694
  333SOL     MW 1332   1.744   1.497   3.040  0.3942 -0.2028 -0.0455
  334SOL     OW 1333   1.164   3.089   2.590 -0.0699 -0.5373 -0.2434
  334SOL    HW1 1334   1.115   3.076   2.678  0.8320 -1.2416  1.9552
  334SOL    HW2 1335   1.192   3.181   2.586 -1.5356 -0.3574 -0.0896
  334SOL     MW 1336   1.161   3.100   2.601 -0.1443 -0.6065  0.0670
  335SOL     OW 1337   1.260   0.769   2.943 -0.0936 -0.7187  0.3471
  335SOL    HW1 1338   1.297   0.733   3.020  0.3553  1.0926 -0.3818
  335SOL    HW2 1339   1.326   0.828   2.897  2.0961  0.5978 -0.6097
  335SOL     MW 1340   1.273   0.772   2.947  0.2545 -0.3060  0.1247
  336SOL     OW 1341   0.945   1.094   1.855 -0.0585 -0.8929 -0.0222
  336SOL    HW1 1342   0.929   1.165   1.920 -1.7805  2.5176 -0.2141
  336SOL    HW2 1343   1.005   1.035   1.895  1.8169 -1.6813 -1.1265
  336SOL     MW 1344   0.950   1.096   1.869 -0.0383 -0.5470 -0.1932
  337SOL     OW 1345   0.639   1.771   2.832 -0.7786  0.4657 -0.2637
  337SOL    HW1 1346   0.564   1.760   2.773 -0.2003 -2.0650 -1.4501
  337SOL    HW2 1347   0.709   1.733   2.787  2.6515 -0.6407  0.9710
  337SOL     MW 1348   0.638   1.764   2.819 -0.2498 -0.0141 -0.2573
  338SOL     OW 1349   1.037   0.803   2.574 -0.0332 -0.2619 -1.0095
  338SOL    HW1 1350   0.965   0.827   2.641  0.9823  1.0272  0.6829
  338SOL    HW2 1351   1.101   0.753   2.624 -1.8364 -4.2031  1.7507
  338SOL     MW 1352   1.036   0.800   2.590 -0.1371 -0.6118 -0.4220
  339SOL     OW 1353   1.411   1.102   1.853  0.1057 -0.0280 -0.4761
  339SOL    HW1 1354   1.376   1.105   1.763  2.3827 -2.9861 -2.7468
  339SOL    HW2 1355   1.449   1.185   1.875  2.4462  1.5565 -1.6373
  339SOL     MW 1356   1.411   1.113   1.844  0.7149 -0.2092 -0.9289
  340SOL     OW 1357   1.370   1.537   0.083 -0.3446  0.6031  0.2860
  340SOL    HW1 1358   1.376   1.606   0.014  1.0318  1.9107 -2.2136
  340SOL    HW2 1359   1.445   1.546   0.138  0.2669 -0.5256 -2.0897
  340SOL     MW 1360   1.381   1.548   0.081 -0.0823  0.6267 -0.3573
  341SOL     OW 1361   0.204   1.263   2.646 -1.1332 -0.0708  0.2388
  341SOL    HW1 1362   0.216   1.358   2.662  0.2106  1.2072  1.5493
  341SOL    HW2 1363   0.139   1.254   2.579 -1.0947 -1.2089  0.3202
  341SOL     MW 1364   0.197   1.274   2.639 -0.9508 -0.0523  0.4224
  342SOL     OW 1365   1.401   0.265   0.080  0.1595  0.4263  0.1499
  342SOL    HW1 1366   1.440   0.342   0.114 -0.9128  1.0309 -1.0047
  342SOL    HW2 1367   1.405   0.262  -0.015 -1.7740 -2.8546 -0.1835
  342SOL     MW 1368   1.407   0.275   0.072 -0.2371  0.0732 -0.0464
  343SOL     OW 1369   0.219   0.312   2.265 -0.9076 -0.0393  0.6765
  343SOL    HW1 1370   0.248   0.234   2.306 -1.2244 -0.6375 -0.8264
  343SOL    HW2 1371   0.168   0.275   2.190  1.3584 -0.2566 -1.2479
  343SOL     MW 1372   0.216   0.297   2.261 -0.6504 -0.1469  0.2243
  344SOL     OW 1373   1.684   2.178   0.092 -0.0433 -0.0460  0.4610
  344SOL    HW1 1374   1.729   2.237   0.038 -1.0922 -2.9142  0.5006
  344SOL    HW2 1375   1.645   2.111   0.030  0.3838 -0.0129 -2.7137
  344SOL     MW 1376   1.685   2.177   0.077 -0.1253 -0.4201  0.0474
  345SOL     OW 1377   0.666   1.579   2.363  0.3912  0.6158  0.1103
  345SOL    HW1 1378   0.568   1.585   2.351  0.2490 -2.2525 -0.3585
  345SOL    HW2 1379   0.700   1.536   2.278 -0.2132  0.3000 -0.0892
  345SOL     MW 1380   0.658   1.574   2.351  0.2927  0.1957  0.0221
  346SOL     OW 1381   1.682   1.028   0.008  0.4047  0.2362  0.0307
  346SOL    HW1 1382   1.779   1.031   0.003 -0.4394 -3.0647 -0.6939
  346SOL    HW2 1383   1.654   0.964   0.069 -0.9317  1.5857 -0.2196
  346SOL     MW 1384   1.691   1.020   0.015  0.1170 -0.0212 -0.0979
  347SOL     OW 1385   1.177   0.658   2.347 -0.0304 -0.0609  0.0413
  347SOL    HW1 1386   1.266   0.626   2.380  2.5558 -0.1417 -0.2090
  347SOL    HW2 1387   1.140   0.705   2.426  2.4787  0.8772 -1.1878
  347SOL     MW 1388   1.184   0.660   2.362  0.6418  0.0522 -0.1539
  348SOL     OW 1389   1.306   2.671   1.886  0.2160 -0.1467 -0.1704
  348SOL    HW1 1390   1.357   2.597   1.909  0.3627  1.7210  1.4514
  348SOL    HW2 1391   1.358   2.741   1.921  0.3226  0.2342  1.5251
  348SOL     MW 1392   1.319   2.670   1.894  0.2494  0.1500  0.2673
  349SOL     OW 1393   1.328   0.218   2.685  0.3749 -0.3958 -0.0366
  349SOL    HW1 1394   1.285   0.263   2.756 -0.0961 -2.0160 -0.1362
  349SOL    HW2 1395   1.414   0.188   2.720  0.9615 -0.8491  1.3124
  349SOL     MW 1396   1.334   0.220   2.699  0.3902 -0.6694  0.1282
  350SOL     OW 1397   1.904   0.666   2.642 -0.1144 -0.6505 -0.0996
  350SOL    HW1 1398   1.863   0.606   2.578 -2.4839 -2.9838  3.2071
  350SOL    HW2 1399   1.985   0.623   2.681 -0.5092 -3.7322 -0.0363
  350SOL     MW 1400   1.909   0.653   2.638 -0.4792 -1.3649  0.3450
  351SOL     OW 1401   0.060   0.978   1.562 -0.6981 -0.1977  0.1475
  351SOL    HW1 1402  -0.014   1.019   1.611  0.0390 -2.0630  1.3785
  351SOL    HW2 1403   0.119   1.051   1.545 -0.8119 -3.0469 -0.7611
  351SOL     MW 1404   0.058   0.993   1.566 -0.6159 -0.8197  0.1900
  352SOL     OW 1405   0.819   1.573   2.719 -0.1823 -0.5123  0.0709
  352SOL    HW1 1406   0.864   1.545   2.798 -0.1335 -0.5630 -3.4073
  352SOL    HW2 1407   0.787   1.494   2.674 -1.0008 -1.2897 -1.6206
  352SOL     MW 1408   0.821   1.559   2.724 -0.2839 -0.6216 -0.6112
  353SOL     OW 1409   3.081   2.435   2.780  0.5168  0.0298 -0.4571
  353SOL    HW1 1410   3.167   2.411   2.756 -2.5977 -1.8320 -1.1106
  353SOL    HW2 1411   3.071   2.520   2.737  3.0120 -3.3157 -1.6828
  353SOL     MW 1412   3.091   2.443   2.771  0.4351 -0.6573 -0.7051
  354SOL     OW 1413   0.342   2.468   0.890  0.4495 -0.3086  0.2318
  354SOL    HW1 1414   0.378   2.461   0.986 -2.3875  0.8470  1.2750
  354SOL    HW2 1415   0.275   2.398   0.892  0.8645 -1.6155 -0.5461
  354SOL     MW 1416   0.338   2.458   0.903  0.1300 -0.3285  0.2668
  355SOL     OW 1417   0.078   2.268   0.380  0.5810 -0.1382 -0.1900
  355SOL    HW1 1418  -0.001   2.211   0.376 -3.0138  1.2801  0.3317
  355SOL    HW2 1419   0.064   2.301   0.469 -0.5924 -0.2844  0.2060
  355SOL     MW 1420   0.066   2.265   0.391 -0.0481  0.0297 -0.0689
  356SOL     OW 1421   0.711   2.933   0.974 -0.3105  0.0636 -0.0236
  356SOL    HW1 1422   0.793   2.899   0.941 -1.6069  2.3825  0.3761
  356SOL    HW2 1423   0.639   2.865   0.967 -0.5820  0.0271 -0.0270
  356SOL     MW 1424   0.713   2.920   0.969 -0.5174  0.3647  0.0287
  357SOL     OW 1425   1.784   2.987   0.372  0.3513 -0.4708 -0.2840
  357SOL    HW1 1426   1.741   2.911   0.414 -0.6652 -1.2248  1.7874
  357SOL    HW2 1427   1.871   2.956   0.333  0.1913 -2.2344 -0.8888
  357SOL     MW 1428   1.790   2.973   0.372  0.1960 -0.8029 -0.0905
  358SOL     OW 1429   0.515   0.140   1.030 -0.3540  0.0951  0.3619
  358SOL    HW1 1430   0.586   0.119   0.962  2.2418  1.9708 -1.7667
  358SOL    HW2 1431   0.451   0.188   0.979  0.1535  0.4111  0.1327
  358SOL     MW 1432   0.516   0.144   1.014  0.0554  0.3843  0.0508
  359SOL     OW 1433   0.909   2.720   1.913 -0.4828  0.0049  0.2089
  359SOL    HW1 1434   0.865   2.668   1.984 -0.9514  3.9642 -2.4165
  359SOL    HW2 1435   0.975   2.662   1.871  1.0852  1.1897  0.3625
  359SOL     MW 1436   0.912   2.705   1.917 -0.3377  0.6836 -0.1172
  360SOL     OW 1437   0.510   2.726   0.922  0.4333 -0.3633 -0.2851
  360SOL    HW1 1438   0.531   2.679   0.841  2.1174  0.4145  2.0878
  360SOL    HW2 1439   0.528   2.678   1.004 -2.0193  2.7915 -0.5751
  360SOL     MW 1440   0.515   2.713   0.922  0.3319  0.1556 -0.0103
  361SOL     OW 1441   0.177   2.746   1.379  0.0938  0.0501  0.0531
  361SOL    HW1 1442   0.180   2.829   1.410 -2.9202 -0.2026 -1.5072
  361SOL    HW2 1443   0.264   2.709   1.380  0.1232  1.2136  0.0169
  361SOL     MW 1444   0.189   2.752   1.383 -0.3000  0.1703 -0.1575
  362SOL     OW 1445   1.472   2.405   0.626  0.7724 -0.1903 -0.3733
  362SOL    HW1 1446   1.487   2.323   0.670  0.9701  1.9063  0.9289
  362SOL    HW2 1447   1.478   2.467   0.696 -0.9542 -0.4666  0.3698
  362SOL     MW 1448   1.474   2.403   0.641  0.5707  0.0499 -0.1034
  363SOL     OW 1449   0.286   3.074   0.685 -0.1611 -0.2713 -0.6500
  363SOL    HW1 1450   0.291   3.015   0.757  1.4490 -1.6939  2.2329
  363SOL    HW2 1451   0.203   3.077   0.645 -1.4098 -2.3718  1.6958
  363SOL     MW 1452   0.276   3.067   0.689 -0.1134 -0.7361  0.0399
  364SOL     OW 1453   0.746   0.153   0.244 -0.2132  0.1411 -0.2666
  364SOL    HW1 1454   0.711   0.063   0.237  1.1333  0.4218  2.0320
  364SOL    HW2 1455   0.669   0.200   0.208 -2.1619  1.3724  0.4681
  364SOL     MW 1456   0.731   0.147   0.238 -0.2927  0.3406  0.1336
  365SOL     OW 1457   1.030   1.989   1.131 -0.1965 -0.7262  0.0186
  365SOL    HW1 1458   1.040   2.083   1.106 -1.1237  2.1783 -0.8390
  365SOL    HW2 1459   0.962   1.940   1.085 -0.8145 -0.4978 -0.4956
  365SOL     MW 1460   1.022   1.995   1.121 -0.4004 -0.3128 -0.1624
  366SOL     OW 1461   2.869   2.632   0.990  0.2641  0.5038  0.3706
  366SOL    HW1 1462   2.926   2.638   1.061 -1.1414 -1.9648  0.0832
  366SOL    HW2 1463   2.918   2.660   0.909  1.8786 -1.6606 -1.3960
  366SOL     MW 1464   2.883   2.636   0.988  0.2917 -0.1075  0.0996
  367SOL     OW 1465   1.265   2.953   0.852  0.5081 -0.1291  0.5273
  367SOL    HW1 1466   1.189   2.973   0.909  1.0907 -1.1279 -0.8215
  367SOL    HW2 1467   1.231   2.883   0.804  3.0389  2.8905  0.5320
  367SOL     MW 1468   1.250   2.946   0.853  0.9189  0.1375  0.3500
  368SOL     OW 1469   1.703   0.453   0.655 -0.0163 -0.3386  0.2188
  368SOL    HW1 1470   1.755   0.378   0.687  0.9847 -2.1522 -1.5718
  368SOL    HW2 1471   1.767   0.524   0.620 -2.0335  1.0377  0.1175
  368SOL     MW 1472   1.718   0.453   0.655 -0.1503 -0.3963 -0.0308
  369SOL     OW 1473   0.157   2.456   1.748  0.3180  0.4272 -0.0406
  369SOL    HW1 1474   0.239   2.412   1.778 -0.1918 -1.7516  0.8658
  369SOL    HW2 1475   0.163   2.545   1.787  0.4257 -2.3579 -1.0555
  369SOL     MW 1476   0.168   2.462   1.757  0.2650 -0.2278 -0.0549
  370SOL     OW 1477   0.713   0.091   0.866 -0.4751 -0.1231  0.3876
  370SOL    HW1 1478   0.777   0.154   0.900  0.6160  0.0019 -0.6965
  370SOL    HW2 1479   0.735   0.001   0.907 -0.3770  1.2187 -1.1916
  370SOL     MW 1480   0.725   0.087   0.876 -0.3182  0.0704  0.0362
  371SOL     OW 1481   1.381   2.990   1.470 -0.4579  0.4175  0.7870
  371SOL    HW1 1482   1.311   2.929   1.438 -2.1084 -3.5956 -0.9609
  371SOL    HW2 1483   1.393   3.045   1.395  3.3248 -0.5989  0.8734
  371SOL     MW 1484   1.373   2.989   1.456 -0.1766 -0.2461  0.5678
  372SOL     OW 1485   0.777   2.301   0.469  0.2778 -0.1725 -0.3262
  372SOL    HW1 1486   0.733   2.220   0.488 -0.1649 -2.0631  1.5481
  372SOL    HW2 1487   0.779   2.306   0.375 -3.4961  1.4623  0.7421
  372SOL     MW 1488   0.771   2.291   0.459 -0.2785 -0.2062  0.0621
  373SOL     OW 1489   2.795   2.993   1.386 -0.8726  0.0397 -0.0823
  373SOL    HW1 1490   2.861   2.975   1.315  1.1071 -0.6775 -1.0091
  373SOL    HW2 1491   2.744   3.068   1.352  2.0287  0.4322 -1.3969
  373SOL     MW 1492   2.797   3.000   1.372 -0.2286 -0.0032 -0.3780
  374SOL     OW 1493   1.485   0.502   0.234 -0.8132  0.6008  0.0515
  374SOL    HW1 1494   1.580   0.525   0.213  1.5489  2.7779  1.4737
  374SOL    HW2 1495   1.495   0.438   0.306  1.3902 -0.9478  2.2052
  374SOL     MW 1496   1.499   0.496   0.241 -0.2108  0.6837  0.5233
  375SOL     OW 1497   1.121   2.118   2.252  0.1555  0.2416  0.0403
  375SOL    HW1 1498   1.140   2.149   2.339  0.5677 -0.5368  0.2205
  375SOL    HW2 1499   1.095   2.029   2.280 -1.0120 -1.9134  1.8605
  375SOL     MW 1500   1.120   2.110   2.267  0.0558 -0.1455  0.3043
  376SOL     OW 1501   0.668   2.558   0.153  0.3903 -0.1141  0.2018
  376SOL    HW1 1502   0.723   2.509   0.213  2.8246  1.5054  2.5056
  376SOL    HW2 1503   0.616   2.488   0.107  1.1473 -2.3522 -0.2842
  376SOL     MW 1504   0.668   2.542   0.155  0.8114 -0.1957  0.4416
  377SOL     OW 1505   1.307   2.086   0.900  0.2195  0.6350  0.1515
  377SOL    HW1 1506   1.227   2.059   0.849  1.7975  1.8618  0.1994
  377SOL    HW2 1507   1.336   2.011   0.949  1.3660 -0.7491  1.6850
  377SOL     MW 1508   1.300   2.072   0.900  0.5790  0.6143  0.3602
  378SOL     OW 1509   0.992   2.839   1.498 -0.3020 -0.3901  0.1972
  378SOL    HW1 1510   0.930   2.768   1.517  0.0153 -0.3206 -0.4082
  378SOL    HW2 1511   0.964   2.879   1.413 -2.0661 -0.9270  0.0873
  378SOL     MW 1512   0.980   2.835   1.490 -0.4929 -0.4518  0.1029
  379SOL     OW 1513   1.042   1.828   2.273 -0.2972 -0.0202  0.3001
  379SOL    HW1 1514   0.952   1.807   2.290  1.3361 -0.7141  0.3561
  379SOL    HW2 1515   1.081   1.763   2.212 -1.7068  1.6633  0.8009
  379SOL     MW 1516   1.036   1.817   2.267 -0.2677  0.1103  0.3735
  380SOL     OW 1517   0.917   0.233   1.493 -0.3648  0.1431  0.8706
  380SOL    HW1 1518   0.948   0.174   1.429  1.0276 -1.0581 -0.5380
  380SOL    HW2 1519   0.982   0.229   1.563  0.3920  2.3142  1.4582
  380SOL     MW 1520   0.930   0.224   1.494 -0.0812  0.2711  0.7623
  381SOL     OW 1521   0.834   2.005   0.806 -0.1423  0.2075 -0.1697
  381SOL    HW1 1522   0.923   1.983   0.769 -1.5329  1.0494  1.9167
  381SOL    HW2 1523   0.849   2.081   0.870 -0.0085  0.4957  2.2165
  381SOL     MW 1524   0.847   2.012   0.810 -0.3081  0.3566  0.4204
  382SOL     OW 1525   0.664   0.027   0.603  0.3527 -0.3703 -0.3282
  382SOL    HW1 1526   0.650   0.050   0.691 -1.9806  1.7035 -1.8346
  382SOL    HW2 1527   0.629  -0.063   0.593  3.2131 -1.9023  0.6806
  382SOL     MW 1528   0.657   0.018   0.613  0.4222 -0.2988 -0.3938
  383SOL     OW 1529   0.517   0.041   0.348 -0.4935 -0.3897 -0.3000
  383SOL    HW1 1530   0.562   0.084   0.425  0.9977 -2.1213  1.2135
  383SOL    HW2 1531   0.458  -0.023   0.389  1.5260  3.8176 -0.7453
  383SOL     MW 1532   0.515   0.038   0.364 -0.0303 -0.0630 -0.1591
  384SOL     OW 1533   0.629   2.847   0.570  0.0303  0.4664  0.3790
  384SOL    HW1 1534   0.615   2.759   0.612  0.6424 -0.0402  1.2654
  384SOL    HW2 1535   0.542   2.873   0.524  0.1541  0.5135  0.9304
  384SOL     MW 1536   0.616   2.838   0.570  0.1274  0.4058  0.5687
  385SOL     OW 1537   1.336   2.039   1.542 -0.3368 -0.2232 -0.5900
  385SOL    HW1 1538   1.403   2.069   1.607 -2.0747 -1.5198  0.0832
  385SOL    HW2 1539   1.278   1.986   1.597  3.1769 -0.4059 -2.1847
  385SOL     MW 1540   1.337   2.036   1.558 -0.1025 -0.4184 -0.7116
  386SOL     OW 1541   1.278   0.435   0.940  0.3927  0.3808 -0.2453
  386SOL    HW1 1542   1.202   0.393   0.907  3.3628  1.8333 -0.0023
  386SOL    HW2 1543   1.270   0.440   1.036  1.5907 -2.2450  0.1126
  386SOL     MW 1544   1.267   0.430   0.948  0.9426  0.2260 -0.1660
  387SOL     OW 1545   0.855   2.214   1.443  0.2080 -0.3880 -0.6467
  387SOL    HW1 1546   0.939   2.254   1.405  0.8460  0.0596  0.9643
  387SOL    HW2 1547   0.873   2.121   1.454 -0.8303 -2.0664 -1.3126
  387SOL     MW 1548   0.869   2.207   1.440  0.1552 -0.5504 -0.5220
  388SOL     OW 1549   1.578   2.859   1.229  0.4952  0.3010  0.0155
  388SOL    HW1 1550   1.497   2.853   1.171 -0.0615 -0.0514 -1.2852
  388SOL    HW2 1551   1.633   2.782   1.192  0.8071 -1.5832  1.1163
  388SOL     MW 1552   1.574   2.848   1.216  0.4629  0.0059 -0.0109
  389SOL     OW 1553   0.451   0.074   3.074 -0.2832  0.5753  0.2594
  389SOL    HW1 1554   0.545   0.060   3.045  0.0524 -0.6362  0.3711
  389SOL    HW2 1555   0.412  -0.010   3.092 -3.4004 -1.0812 -1.5884
  389SOL     MW 1556   0.458   0.061   3.073 -0.6502  0.1969  0.0304
  390SOL     OW 1557   1.362   0.100   0.652  0.2810 -0.6455  0.0697
  390SOL    HW1 1558   1.455   0.106   0.636  1.2153  1.4055 -1.1953
  390SOL    HW2 1559   1.369   0.095   0.747  0.1356 -0.5962  0.4184
  390SOL     MW 1560   1.375   0.100   0.662  0.3851 -0.3683 -0.0512
  391SOL     OW 1561   0.286   2.286   1.439 -0.3175  0.1793 -0.4990
  391SOL    HW1 1562   0.257   2.224   1.505 -0.0459  2.1571 -1.0449
  391SOL    HW2 1563   0.225   2.367   1.440 -0.2916 -4.4692  1.0142
  391SOL     MW 1564   0.274   2.289   1.448 -0.2783 -0.1731 -0.3714
  392SOL     OW 1565   2.019   2.172   0.272 -0.8909 -0.0324  0.4611
  392SOL    HW1 1566   1.944   2.209   0.313  0.5451  0.7025 -1.9865
  392SOL    HW2 1567   2.074   2.140   0.343  2.2184 -1.7246  0.4071
  392SOL     MW 1568   2.016   2.172   0.287 -0.2912 -0.1587  0.1311
  393SOL     OW 1569   0.212   3.000   2.939  0.3366 -0.1602  0.3010
  393SOL    HW1 1570   0.274   3.047   2.886 -1.8380 -2.9699 -0.5041
  393SOL    HW2 1571   0.133   3.053   2.932  3.8334 -0.0448  0.4899
  393SOL     MW 1572   0.210   3.013   2.931  0.5110 -0.5157  0.2197
  394SOL     OW 1573   0.817   1.675   1.475 -0.3560  0.0169 -0.8013
  394SOL    HW1 1574   0.749   1.670   1.553  0.6740 -0.0303  3.1288
  394SOL    HW2 1575   0.838   1.762   1.464 -1.4934 -3.0546  2.2193
  394SOL     MW 1576   0.811   1.686   1.484 -0.3702 -0.3946  0.1158
  395SOL     OW 1577   0.917   2.842   2.614 -0.0895 -0.0812 -0.4630
  395SOL    HW1 1578   0.911   2.900   2.695 -0.3596  1.3212  1.0854
  395SOL    HW2 1579   1.013   2.808   2.599  2.3800  1.0780  1.2478
  395SOL     MW 1580   0.929   2.846   2.623  0.2007  0.2568 -0.0330
  396SOL     OW 1581   0.744   1.830   2.375 -0.2503  0.0896 -0.5869
  396SOL    HW1 1582   0.778   1.852   2.462 -0.2037  1.4601  1.6933
  396SOL    HW2 1583   0.714   1.738   2.371 -0.0437  1.4039 -1.2540
  396SOL     MW 1584   0.745   1.821   2.386 -0.2169  0.4438 -0.3741
  397SOL     OW 1585   1.044   2.343   1.279  0.1476 -0.0718  0.4014
  397SOL    HW1 1586   1.059   2.412   1.217 -2.1761  1.0155 -1.3402
  397SOL    HW2 1587   1.119   2.347   1.345 -0.5322  0.2854  1.5848
  397SOL     MW 1588   1.056   2.352   1.280 -0.2487  0.1188  0.3277
  398SOL     OW 1589   0.575   2.606   0.685 -0.1478 -0.0408 -0.3301
  398SOL    HW1 1590   0.510   2.591   0.621  0.4316  1.8093  0.2280
  398SOL    HW2 1591   0.665   2.570   0.655  1.6755 -2.1898  1.6749
  398SOL     MW 1592   0.578   2.599   0.672  0.1692 -0.0802  0.0081
  399SOL     OW 1593   0.250   2.036   0.352  0.2671  0.1520  0.3094
  399SOL    HW1 1594   0.189   2.103   0.345  1.2055  1.0666 -0.7796
  399SOL    HW2 1595   0.319   2.046   0.286  2.8189  2.4246 -2.6169
  399SOL     MW 1596   0.251   2.046   0.343  0.7276  0.5725 -0.2204
  400SOL     OW 1597   0.582   1.826   0.203  0.6618  0.5097  0.0086
  400SOL    HW1 1598   0.540   1.917   0.202 -2.3029 -1.6363  1.4067
  400SOL    HW2 1599   0.519   1.771   0.250  1.0728 -0.5431 -0.7667
  400SOL     MW 1600   0.568   1.831   0.209  0.3249  0.0877  0.0908
  401SOL     OW 1601   1.012   2.107   0.086 -0.2007 -0.3507 -0.5214
  401SOL    HW1 1602   0.987   2.017   0.088  0.9485  1.0734  0.6915
  401SOL    HW2 1603   1.048   2.123   0.170  3.2457  1.5523 -2.4900
  401SOL     MW 1604   1.013   2.098   0.098  0.4056  0.0882 -0.6211
  402SOL     OW 1605   0.676   2.699   1.730  0.0829  0.6879  0.1301
  402SOL    HW1 1606   0.593   2.731   1.759  2.1100  2.3231 -2.0504
  402SOL    HW2 1607   0.732   2.702   1.806 -3.0578 -0.1925 -1.1870
  402SOL     MW 1608   0.673   2.704   1.744 -0.0640  0.7875 -0.3313
  403SOL     OW 1609   0.078   0.574   0.351  0.1927  0.0127  0.2819
  403SOL    HW1 1610   0.161   0.612   0.379  0.3266  0.0423 -0.2720
  403SOL    HW2 1611   0.103   0.488   0.322 -2.7036  2.8470  1.2969
  403SOL     MW 1612   0.092   0.568   0.351 -0.1717  0.3906  0.3428
  404SOL     OW 1613   0.978   2.910   0.881 -0.0289 -0.0286 -0.1127
  404SOL    HW1 1614   1.002   2.836   0.832  3.2897  1.2720  1.2218
  404SOL    HW2 1615   0.965   2.975   0.811 -0.5951  0.2969  1.3367
  404SOL     MW 1616   0.979   2.909   0.865  0.3342  0.1859  0.2546
  405SOL     OW 1617   0.447   2.456   1.584  0.1692  0.1049 -0.1774
  405SOL    HW1 1618   0.468   2.542   1.548 -0.6431 -3.1268  3.7061
  405SOL    HW2 1619   0.391   2.413   1.524 -0.9317  0.3292 -0.5038
  405SOL     MW 1620   0.442   2.462   1.571 -0.0832 -0.2919  0.2919
  406SOL     OW 1621   0.407   2.407   1.159 -0.1106 -0.3745  0.3433
  406SOL    HW1 1622   0.313   2.409   1.175  1.2994 -0.5208 -0.4867
  406SOL    HW2 1623   0.437   2.345   1.222 -2.5833  1.8900 -0.5850
  406SOL     MW 1624   0.399   2.399   1.169 -0.2508 -0.0950  0.1113
  407SOL     OW 1625   3.075   2.723   1.171  0.5167 -0.7017  0.0228
  407SOL    HW1 1626   3.128   2.726   1.254  0.3700  0.0404 -0.5655
  407SOL    HW2 1627   3.136   2.715   1.100  0.9533  0.6061  2.0907
  407SOL     MW 1628   3.090   2.722   1.173  0.5550 -0.4312  0.2180
  408SOL     OW 1629   2.081   2.059   0.545 -0.3016  0.7146  0.4893
  408SOL    HW1 1630   2.032   2.118   0.606 -3.2625  0.0651  1.2648
  408SOL    HW2 1631   2.005   2.004   0.509 -2.6866 -0.6768  2.0514
  408SOL     MW 1632   2.065   2.060   0.548 -1.0070  0.4453  0.7977
  409SOL     OW 1633   1.426   0.163   0.908 -0.1210 -0.3022 -0.4867
  409SOL    HW1 1634   1.432   0.254   0.940 -1.8742  1.1540 -0.2289
  409SOL    HW2 1635   1.496   0.118   0.959  1.8081  1.5967 -2.3748
  409SOL     MW 1636   1.436   0.169   0.919 -0.0978  0.1405 -0.7018
  410SOL     OW 1637   1.072   2.509   1.044 -0.1148 -0.3085  0.1109
  410SOL    HW1 1638   0.998   2.505   0.983  3.2262  2.8434 -0.5458
  410SOL    HW2 1639   1.136   2.470   0.983  1.6520 -0.6758 -1.2148
  410SOL     MW 1640   1.071   2.503   1.028  0.5591  0.0589 -0.1507
  411SOL     OW 1641   1.945   0.090   2.871 -0.0306  0.4306 -0.0250
  411SOL    HW1 1642   1.890   0.055   2.799  2.3940 -0.8392 -0.6245
  411SOL    HW2 1643   1.897   0.147   2.928  2.9243 -0.6208  0.7095
  411SOL     MW 1644   1.931   0.093   2.869  0.6791  0.1244 -0.0072
  412SOL     OW 1645   1.025   2.226   0.574  0.4801 -0.2862 -0.5888
  412SOL    HW1 1646   1.062   2.320   0.591  0.1661 -2.1705  2.0140
  412SOL    HW2 1647   0.930   2.235   0.540 -0.3814  0.3919  1.0186
  412SOL     MW 1648   1.017   2.240   0.571  0.3250 -0.4453 -0.0333
  413SOL     OW 1649   0.547   2.778   0.097  0.0417 -0.2700  0.6282
  413SOL    HW1 1650   0.600   2.709   0.143  1.9981 -0.7292  2.5374
  413SOL    HW2 1651   0.586   2.814   0.014 -1.3372 -0.6487  0.9047
  413SOL     MW 1652   0.559   2.774   0.092  0.1179 -0.3806  0.9166
  414SOL     OW 1653   2.004   3.018   1.007 -0.2829 -0.0167 -0.0635
  414SOL    HW1 1654   1.930   2.993   0.955 -0.6416  2.0094  4.0903
  414SOL    HW2 1655   2.062   2.944   1.026 -0.1899  0.8400 -2.6650
  414SOL     MW 1656   2.002   3.005   1.003 -0.3180  0.3636  0.1413
  415SOL     OW 1657   1.731   2.672   1.109  0.4835  0.7518 -0.3684
  415SOL    HW1 1658   1.692   2.602   1.167 -1.9135 -1.5040  0.0004
  415SOL    HW2 1659   1.824   2.694   1.146  0.7622 -0.4640  0.5925
  415SOL     MW 1660   1.738   2.666   1.121  0.2040  0.2938 -0.1930
  416SOL     OW 1661   0.568   1.939   1.384 -0.1245  0.3712 -0.3837
  416SOL    HW1 1662   0.533   2.029   1.367  1.4639 -0.8660 -2.1535
  416SOL    HW2 1663   0.596   1.912   1.295  0.3839  0.3531  0.0533
  416SOL     MW 1664   0.567   1.947   1.370  0.1522  0.2055 -0.5595
  417SOL     OW 1665   1.070   2.992   2.007  0.3950  0.3252 -0.7294
  417SOL    HW1 1666   1.010   2.987   2.086  2.4288 -1.3443 -0.4069
  417SOL    HW2 1667   1.047   2.915   1.953  0.6182 -0.5433 -0.5473
  417SOL     MW 1668   1.059   2.981   2.010  0.6928 -0.0097 -0.6628
  418SOL     OW 1669   0.714   2.960   0.171  0.1414  0.1630 -0.1320
  418SOL    HW1 1670   0.790   2.912   0.127  0.1097 -2.5054  0.6240
  418SOL    HW2 1671   0.652   2.887   0.170 -0.6411  0.3455  1.2724
  418SOL     MW 1672   0.716   2.944   0.165  0.0340 -0.1650  0.1531
  419SOL     OW 1673   0.461   2.679   1.402 -0.0392 -0.4193 -0.2568
  419SOL    HW1 1674   0.514   2.734   1.458 -0.1215  0.3751  1.9276
  419SOL    HW2 1675   0.525   2.650   1.339  1.6413  1.8037  2.1592
  419SOL     MW 1676   0.477   2.682   1.401  0.1716 -0.0211  0.3502
  420SOL     OW 1677   0.913   2.220   0.984 -0.3844  0.2897  0.8281
  420SOL    HW1 1678   0.867   2.217   1.071  0.6706 -3.2929  2.9967
  420SOL    HW2 1679   0.883   2.301   0.940  0.6819  0.5410 -1.8648
  420SOL     MW 1680   0.903   2.230   0.990 -0.1045 -0.1498  0.7590
  421SOL     OW 1681   2.938   0.097   0.083  0.2128 -0.2096 -0.4813
  421SOL    HW1 1682   2.920   0.067  -0.004  0.8011  0.9803 -3.2561
  421SOL    HW2 1683   2.967   0.020   0.128 -2.8370  1.3213 -0.6597
  421SOL     MW 1684   2.940   0.083   0.077 -0.1119  0.1493 -0.8709
  422SOL     OW 1685   0.839   2.505   0.895  0.3955 -0.2045 -0.5129
  422SOL    HW1 1686   0.764   2.555   0.924  0.3986  0.4558 -0.1221
  422SOL    HW2 1687   0.828   2.486   0.793 -0.3399 -1.6372 -0.4783
  422SOL     MW 1688   0.828   2.509   0.886  0.2989 -0.3064 -0.4568
  423SOL     OW 1689   1.620   0.092   0.531 -0.2768  0.1754  0.0994
  423SOL    HW1 1690   1.641   0.053   0.446  1.4265 -0.6071 -0.2038
  423SOL    HW2 1691   1.604   0.181   0.504  0.5445 -1.1294 -0.1114
  423SOL     MW 1692   1.621   0.098   0.516  0.0563 -0.1000  0.0316
  424SOL     OW 1693   0.745   2.179   1.193  0.2265  0.3593  0.5222
  424SOL    HW1 1694   0.649   2.184   1.217  2.4205 -0.9422  0.5358
  424SOL    HW2 1695   0.782   2.212   1.273 -0.7684 -2.9810 -0.7705
  424SOL     MW 1696   0.737   2.184   1.207  0.3847 -0.2532  0.3534
  425SOL     OW 1697   1.745   2.794   2.064 -0.1036 -0.2153  0.3160
  425SOL    HW1 1698   1.745   2.788   1.968  0.1765  1.0846  0.3742
  425SOL    HW2 1699   1.752   2.703   2.100 -0.2430 -1.4130 -1.7245
  425SOL     MW 1700   1.746   2.782   2.056 -0.0850 -0.2018  0.0545
  426SOL     OW 1701   0.770   1.638   1.916  0.2397 -0.9389 -0.0610
  426SOL    HW1 1702   0.707   1.630   1.839  2.1062  1.6087 -0.8010
  426SOL    HW2 1703   0.732   1.713   1.969  1.2980  1.9992 -2.2426
  426SOL     MW 1704   0.757   1.647   1.913  0.6256 -0.2151 -0.4465
  427SOL     OW 1705   0.399   1.545   1.857  0.5598 -0.6842 -0.5771
  427SOL    HW1 1706   0.451   1.478   1.828 -0.2621  1.8990  0.3797
  427SOL    HW2 1707   0.320   1.514   1.902 -0.9240 -1.5773 -2.0181
  427SOL     MW 1708   0.395   1.532   1.859  0.2556 -0.4612 -0.6410
  428SOL     OW 1709   0.596   2.602   1.170 -0.0653  0.6609 -0.2074
  428SOL    HW1 1710   0.674   2.568   1.224  0.3927 -1.5991 -1.4661
  428SOL    HW2 1711   0.531   2.527   1.162 -0.8307  2.6981 -1.2982
  428SOL     MW 1712   0.598   2.587   1.176 -0.1059  0.6315 -0.5174
  429SOL     OW 1713   1.371   2.784   1.046 -0.7915 -1.0713 -0.4335
  429SOL    HW1 1714   1.287   2.800   1.099 -0.8332  0.2064  0.8639
  429SOL    HW2 1715   1.363   2.856   0.984  1.5546  1.0621 -0.2987
  429SOL     MW 1716   1.359   2.796   1.045 -0.4874 -0.6213 -0.2446
  430SOL     OW 1717   1.133   2.721   0.689  0.4959  0.2394 -0.1966
  430SOL    HW1 1718   1.184   2.642   0.701 -1.3960 -2.7810  0.7638
  430SOL    HW2 1719   1.096   2.706   0.604 -1.9471  0.8174 -1.0381
  430SOL     MW 1720   1.135   2.709   0.680 -0.0760 -0.0829 -0.1809
  431SOL     OW 1721   0.397   2.022   1.130  0.0414 -0.8094  0.5245
  431SOL    HW1 1722   0.441   1.935   1.130 -1.6334  1.2918 -1.9926
  431SOL    HW2 1723   0.360   2.024   1.044  1.5049  0.4983  3.1943
  431SOL     MW 1724   0.398   2.011   1.119  0.0135 -0.3596  0.5446
  432SOL     OW 1725   0.099   0.034   1.160  0.0667 -0.0003 -0.7249
  432SOL    HW1 1726   0.111   0.071   1.253  1.0099  0.5120  3.2953
  432SOL    HW2 1727   0.023  -0.029   1.174  1.4066 -2.2900 -0.4086
  432SOL     MW 1728   0.091   0.031   1.174  0.3679 -0.2348 -0.1528
  433SOL     OW 1729   0.669   2.891   1.451 -0.2182 -0.4881 -0.2592
  433SOL    HW1 1730   0.725   2.917   1.528  1.5770  0.2124  1.5946
  433SOL    HW2 1731   0.732   2.902   1.377  1.4765 -0.6305  2.8909
  433SOL     MW 1732   0.685   2.896   1.451  0.2422 -0.4144  0.4010
  434SOL     OW 1733   1.614   2.854   1.519 -0.2815 -0.5419 -0.2317
  434SOL    HW1 1734   1.534   2.903   1.537  0.2021  1.0802 -0.6449
  434SOL    HW2 1735   1.603   2.816   1.433 -1.7932  1.5982  1.7069
  434SOL     MW 1736   1.602   2.856   1.510 -0.4171 -0.0455 -0.0305
  435SOL     OW 1737   2.839   1.800   0.258  0.3695 -0.0481 -0.4871
  435SOL    HW1 1738   2.911   1.855   0.223  0.3243  1.1915 -2.1664
  435SOL    HW2 1739   2.823   1.735   0.192 -0.3452  2.8635 -1.3592
  435SOL     MW 1740   2.846   1.799   0.244  0.2692  0.4996 -0.8237
  436SOL     OW 1741   1.476   2.802   0.320  0.4140 -0.0301  0.0416
  436SOL    HW1 1742   1.537   2.789   0.398 -0.5043  1.3494 -0.2053
  436SOL    HW2 1743   1.421   2.881   0.342 -1.2064 -0.5045 -0.4410
  436SOL     MW 1744   1.477   2.811   0.333  0.0790  0.0893 -0.0547
  437SOL     OW 1745   0.840   2.932   1.238 -0.5093  0.1918  0.3456
  437SOL    HW1 1746   0.883   3.018   1.248 -1.1551  0.3868 -1.1707
  437SOL    HW2 1747   0.797   2.920   1.151 -0.3521  1.3212 -3.0929
  437SOL     MW 1748   0.840   2.942   1.227 -0.5738  0.3665 -0.3081
  438SOL     OW 1749   0.809   2.507   2.073 -0.2062  0.1551 -0.0660
  438SOL    HW1 1750   0.792   2.451   2.147 -0.4312  1.6104 -2.7229
  438SOL    HW2 1751   0.739   2.473   2.016  1.2607  0.6520 -0.0558
  438SOL     MW 1752   0.797   2.495   2.075 -0.0424  0.4127 -0.4152
  439SOL     OW 1753   1.137   2.186   0.331 -0.0095 -0.3971  0.1507
  439SOL    HW1 1754   1.091   2.213   0.418  0.4296  1.7513 -0.8052
  439SOL    HW2 1755   1.140   2.272   0.284  2.2709  0.7037 -1.1881
  439SOL     MW 1756   1.131   2.201   0.336  0.3493  0.0316 -0.1521
  440SOL     OW 1757   1.616   3.039   2.993 -0.3772 -0.1862  0.2349
  440SOL    HW1 1758   1.606   2.999   3.078  0.6171  1.2304 -1.8689
  440SOL    HW2 1759   1.645   2.962   2.945  0.4227  0.6725  0.7477
  440SOL     MW 1760   1.619   3.024   2.998 -0.1405  0.1140  0.0250
  441SOL     OW 1761   0.339   2.635   0.524 -0.5812 -0.2581  0.3779
  441SOL    HW1 1762   0.308   2.615   0.435 -1.7336 -1.0382  3.4386
  441SOL    HW2 1763   0.356   2.730   0.519 -1.0139  1.7730  3.2089
  441SOL     MW 1764   0.337   2.645   0.512 -0.7903 -0.0931  1.1552
  442SOL     OW 1765   3.105   2.365   0.618 -0.0788 -0.2641  0.7710
  442SOL    HW1 1766   3.109   2.464   0.630 -0.4824  2.7234  0.6423
  442SOL    HW2 1767   3.010   2.351   0.628 -0.1535 -0.7190  0.3156
  442SOL     MW 1768   3.093   2.376   0.621 -0.1419  0.0701  0.6939
  443SOL     OW 1769   1.418   1.713   1.920 -0.1572  0.8063 -0.3499
  443SOL    HW1 1770   1.366   1.739   1.848 -0.2807 -1.4775  3.9975
  443SOL    HW2 1771   1.391   1.617   1.932 -2.2193 -0.5848 -1.6286
  443SOL     MW 1772   1.407   1.704   1.912 -0.4455  0.3215  0.0550
  444SOL     OW 1773   0.873   2.603   1.567 -0.6399  0.0454  0.0914
  444SOL    HW1 1774   0.944   2.584   1.628  0.7987 -0.5776  2.6511
  444SOL    HW2 1775   0.794   2.615   1.623  2.2590 -0.3380 -3.5876
  444SOL     MW 1776   0.872   2.602   1.583 -0.0676 -0.0874 -0.0563
  445SOL     OW 1777   0.965   0.069   1.257  0.4138  0.7592  0.4264
  445SOL    HW1 1778   0.900   0.136   1.225 -0.3978  3.1088 -0.0106
  445SOL    HW2 1779   1.042   0.073   1.199  3.0173 -0.6360 -0.4152
  445SOL     MW 1780   0.967   0.078   1.245  0.6502  0.8851  0.2577
  446SOL     OW 1781   2.719   2.858   1.046 -0.1253  0.3857 -0.6454
  446SOL    HW1 1782   2.662   2.883   0.972  0.8191 -0.1205  0.6160
  446SOL    HW2 1783   2.775   2.781   1.018 -0.9548  0.7950  1.3778
  446SOL     MW 1784   2.719   2.851   1.032 -0.1102  0.3729 -0.2121
  447SOL     OW 1785   3.022   2.040   1.683  0.0031  0.3212  0.3632
  447SOL    HW1 1786   3.090   1.979   1.723 -0.1196  0.1494  0.6299
  447SOL    HW2 1787   2.982   1.997   1.606  0.1269 -1.3757 -1.1355
  447SOL     MW 1788   3.026   2.027   1.678  0.0032  0.0746  0.2007
  448SOL     OW 1789   1.683   2.397   1.680 -0.0475  0.1979 -0.0814
  448SOL    HW1 1790   1.644   2.310   1.684  0.7699  0.9403  1.3717
  448SOL    HW2 1791   1.609   2.462   1.686  0.3323  0.1121 -0.1420
  448SOL     MW 1792   1.668   2.394   1.681  0.1105  0.2846  0.1023
  449SOL     OW 1793   0.845   2.889   0.394 -0.2190  0.0749  0.3344
  449SOL    HW1 1794   0.791   2.937   0.326  0.2456 -0.2912  1.1694
  449SOL    HW2 1795   0.775   2.864   0.451  1.1194 -1.0609  0.2351
  449SOL     MW 1796   0.829   2.892   0.392  0.0189 -0.1233  0.4315
  450SOL     OW 1797   1.189   2.432   0.629 -0.0803 -0.1853 -0.1907
  450SOL    HW1 1798   1.198   2.402   0.721  1.7544  1.3919  2.7156
  450SOL    HW2 1799   1.286   2.436   0.617  0.3400  1.0719  0.5733
  450SOL     MW 1800   1.203   2.428   0.640  0.2172  0.1887  0.2935
  451SOL     OW 1801   0.631   1.949   1.653 -0.0550  0.5209  0.1087
  451SOL    HW1 1802   0.715   1.990   1.664 -0.2643  1.4291  4.6622
  451SOL    HW2 1803   0.614   1.949   1.555  1.4304 -2.5606 -1.5673
  451SOL     MW 1804   0.640   1.955   1.642  0.1134  0.2341  0.4883
  452SOL     OW 1805   0.311   2.662   0.009 -0.0595  0.6892 -0.1373
  452SOL    HW1 1806   0.386   2.710   0.047  1.3972  0.7695  0.3720
  452SOL    HW2 1807   0.303   2.696  -0.079 -0.8173  0.6988 -0.3045
  452SOL     MW 1808   0.320   2.673   0.002  0.0327  0.7011 -0.0921
  453SOL     OW 1809   0.419   3.002   1.643  0.2080  0.1888 -0.7152
  453SOL    HW1 1810   0.473   3.069   1.598 -1.2772 -2.3445 -0.1220
  453SOL    HW2 1811   0.352   2.985   1.576  0.8784  0.9035 -1.8666
  453SOL     MW 1812   0.417   3.008   1.628  0.1005 -0.0512 -0.7889
  454SOL     OW 1813   1.132   2.751   1.170 -0.5136 -0.2165  0.5670
  454SOL    HW1 1814   1.126   2.662   1.132 -0.5859 -0.8054  0.2278
  454SOL    HW2 1815   1.048   2.789   1.144 -2.8061 -1.1581 -0.7337
  454SOL     MW 1816   1.120   2.744   1.162 -0.8256 -0.4184  0.3506
  455SOL     OW 1817   1.637   2.943   0.143  0.3213 -0.0836  0.5123
  455SOL    HW1 1818   1.697   2.948   0.218 -0.7253 -0.4466  0.0203
  455SOL    HW2 1819   1.562   2.897   0.173  0.5760 -1.2731  0.0658
  455SOL     MW 1820   1.635   2.937   0.156  0.2168 -0.2884  0.3885
  456SOL     OW 1821   2.867   0.305   1.388  0.6669 -0.0342  0.0830
  456SOL    HW1 1822   2.798   0.261   1.338 -1.5470  0.4459 -0.9862
  456SOL    HW2 1823   2.894   0.382   1.334 -3.0997  0.4001  0.0745
  456SOL     MW 1824   2.862   0.309   1.375 -0.1222  0.0864 -0.0592
  457SOL     OW 1825   0.941   1.530   2.971  0.2627  0.2174  0.4790
  457SOL    HW1 1826   0.865   1.528   3.035 -2.6710 -0.7061 -1.1308
  457SOL    HW2 1827   1.012   1.481   3.007 -0.4626  1.6590 -0.9043
  457SOL     MW 1828   0.940   1.523   2.984 -0.2200  0.2858  0.0841
  458SOL     OW 1829   1.445   1.356   0.636  0.2296  0.8976 -0.4726
  458SOL    HW1 1830   1.372   1.403   0.679  2.9698 -0.5896 -0.8038
  458SOL    HW2 1831   1.411   1.313   0.555  1.5035 -1.4220  0.6682
  458SOL     MW 1832   1.431   1.356   0.631  0.7592  0.3953 -0.3658
  459SOL     OW 1833   1.618   0.105   0.212 -0.2714 -0.1356  0.3277
  459SOL    HW1 1834   1.619   0.028   0.157  3.1432  3.2014  0.5124
  459SOL    HW2 1835   1.538   0.152   0.182  0.3960 -0.1686 -1.0596
  459SOL     MW 1836   1.607   0.101   0.201  0.2672  0.3003  0.1690
  460SOL     OW 1837   1.735   2.165   0.612 -0.6309 -0.0588 -0.5160
  460SOL    HW1 1838   1.653   2.147   0.655  2.9663 -1.5381 -1.0316
  460SOL    HW2 1839   1.759   2.070   0.599 -3.6964  0.6389  0.0518
  460SOL     MW 1840   1.728   2.150   0.616 -0.5608 -0.1619 -0.5091
  461SOL     OW 1841   0.369   2.319   0.653  0.1461 -0.1999  0.1863
  461SOL    HW1 1842   0.278   2.359   0.639 -1.8309  1.1908 -1.2182
  461SOL    HW2 1843   0.388   2.366   0.737  1.3612  2.0289 -0.0389
  461SOL     MW 1844   0.359   2.331   0.663  0.0456  0.2776 -0.0287
  462SOL     OW 1845   0.403   0.252   1.360 -0.0537  0.3231 -0.2818
  462SOL    HW1 1846   0.437   0.166   1.328 -1.3210  1.6573 -0.8206
  462SOL    HW2 1847   0.477   0.322   1.339 -0.5985  1.5890  0.0928
  462SOL     MW 1848   0.417   0.250   1.353 -0.2928  0.6661 -0.3035
  463SOL     OW 1849   0.943   3.088   0.675 -0.7854  0.1558  0.1305
  463SOL    HW1 1850   0.997   3.077   0.593 -1.2728  2.2190  0.8409
  463SOL    HW2 1851   0.854   3.112   0.653  2.1004  1.8278  0.4064
  463SOL     MW 1852   0.939   3.089   0.661 -0.4689  0.6486  0.2607
  464SOL     OW 1853   0.867   2.986   2.196 -0.3355  0.1178 -0.6068
  464SOL    HW1 1854   0.841   2.896   2.190 -0.9351 -1.8391 -1.8632
  464SOL    HW2 1855   0.888   3.019   2.283  1.5691  1.1672 -2.3310
  464SOL     MW 1856   0.867   2.978   2.207 -0.1633 -0.0020 -1.0000
  465SOL     OW 1857   0.698   0.277   0.484 -0.1039 -0.4091  0.0882
  465SOL    HW1 1858   0.657   0.225   0.557 -0.0131 -0.4986 -0.2609
  465SOL    HW2 1859   0.710   0.213   0.412 -1.5781 -0.0169  0.0751
  465SOL     MW 1860   0.694   0.262   0.484 -0.2864 -0.3692  0.0404
  466SOL     OW 1861   1.102   1.999   0.729  0.2098 -0.3523 -0.7837
  466SOL    HW1 1862   1.100   1.914   0.684 -0.2292  0.6203  1.8604
  466SOL    HW2 1863   1.089   2.070   0.667 -1.0178 -0.4465  0.1334
  466SOL     MW 1864   1.100   1.997   0.715 -0.0101 -0.2364 -0.3138
  467SOL     OW 1865   1.258   2.365   0.917  0.3508  0.5186  0.5727
  467SOL    HW1 1866   1.330   2.390   0.972 -1.5010  0.4682  1.4898
  467SOL    HW2 1867   1.254   2.266   0.927 -1.3843 -3.8507 -5.4822
  467SOL     MW 1868   1.267   2.355   0.925 -0.1225 -0.0646 -0.1052
  468SOL     OW 1869   0.325   2.622   2.001  0.0287  0.1123 -0.4073
  468SOL    HW1 1870   0.334   2.535   1.963 -1.1183 -0.1237  1.3053
  468SOL    HW2 1871   0.383   2.683   1.949 -1.6931  3.6178  0.3913
  468SOL     MW 1872   0.334   2.618   1.989 -0.3498  0.5437 -0.0760
  469SOL     OW 1873   0.425   2.071   1.763 -0.0043  0.1482  0.1421
  469SOL    HW1 1874   0.340   2.069   1.717 -0.3781 -0.9164 -0.1897
  469SOL    HW2 1875   0.500   2.028   1.710  1.4032 -0.3394  1.7609
  469SOL     MW 1876   0.424   2.065   1.750  0.1321 -0.0566  0.3119
  470SOL     OW 1877   3.082   2.612   0.206 -0.2964 -0.0046 -0.3991
  470SOL    HW1 1878   3.020   2.547   0.238  1.5022 -1.8862  1.3044
  470SOL    HW2 1879   3.074   2.615   0.112 -0.9097 -2.9035 -1.1380
  470SOL     MW 1880   3.073   2.604   0.198 -0.1400 -0.6353 -0.2719
  471SOL     OW 1881   1.232   2.740   1.435  0.2967 -0.3049 -0.2505
  471SOL    HW1 1882   1.166   2.775   1.493  0.5617  0.2018 -0.3168
  471SOL    HW2 1883   1.193   2.743   1.350  0.0618  1.7448 -1.4918
  471SOL     MW 1884   1.218   2.745   1.431  0.3006  0.0324 -0.4230
  472SOL     OW 1885   2.952   2.102   0.403  0.1563 -0.0329 -0.3656
  472SOL    HW1 1886   2.968   2.053   0.326 -2.4975  1.7317  2.9040
  472SOL    HW2 1887   2.940   2.025   0.460  0.4137  0.6362  0.9337
  472SOL     MW 1888   2.952   2.086   0.401 -0.1598  0.2882  0.2372
  473SOL     OW 1889   0.797   2.521   1.317 -0.0544  0.2114  0.4955
  473SOL    HW1 1890   0.867   2.455   1.303 -0.4999 -0.7431  2.1846
  473SOL    HW2 1891   0.822   2.555   1.406 -0.8819 -0.8154  2.5404
  473SOL     MW 1892   0.809   2.517   1.327 -0.2223 -0.0500  0.9882
  474SOL     OW 1893   0.829   2.126   1.723 -0.6357  0.3570 -0.2443
  474SOL    HW1 1894   0.912   2.110   1.764  2.9223  1.3765  0.9192
  474SOL    HW2 1895   0.844   2.203   1.672 -0.5170  0.5891  2.8021
  474SOL     MW 1896   0.842   2.134   1.722 -0.1506  0.5221  0.3112
  475SOL     OW 1897   1.677   3.098   1.365 -0.0232 -0.2130  0.8506
  475SOL    HW1 1898   1.595   3.097   1.312 -0.0842 -1.2115  0.9691
  475SOL    HW2 1899   1.674   3.012   1.410 -0.3254  0.1314  2.8399
  475SOL     MW 1900   1.666   3.087   1.364 -0.0711 -0.2993  1.1287
  476SOL     OW 1901   1.461   2.611   0.812  0.0104  0.0921 -0.4359
  476SOL    HW1 1902   1.422   2.628   0.903  1.1302 -2.7993  0.2092
  476SOL    HW2 1903   1.503   2.699   0.798 -0.4207  0.7312  0.2002
  476SOL     MW 1904   1.462   2.625   0.822  0.1012 -0.2050 -0.2669
  477SOL     OW 1905   0.821   2.511   0.609 -0.0144 -0.2422  0.0789
  477SOL    HW1 1906   0.887   2.544   0.554  2.5911  2.1983  1.3892
  477SOL    HW2 1907   0.790   2.424   0.568 -0.9023 -1.1673  1.8085
  477SOL     MW 1908   0.826   2.504   0.596  0.2122 -0.0423  0.4800
  478SOL     OW 1909   0.172   2.661   0.995  0.4589 -0.7390  0.3745
  478SOL    HW1 1910   0.207   2.745   0.971 -1.6875  0.6289  1.3405
  478SOL    HW2 1911   0.232   2.603   0.951  0.7781  0.9949 -0.3684
  478SOL     MW 1912   0.185   2.664   0.986  0.2178 -0.3297  0.4040
  479SOL     OW 1913   1.452   1.924   1.316 -0.5808 -0.2852  0.2832
  479SOL    HW1 1914   1.414   1.970   1.391  0.2361 -1.6875 -0.2446
  479SOL    HW2 1915   1.520   1.866   1.359 -2.7313 -0.3612 -0.4612
  479SOL     MW 1916   1.456   1.922   1.332 -0.7568 -0.4803  0.1154
  480SOL     OW 1917   1.833   2.425   1.350 -0.2985 -0.1995 -0.1966
  480SOL    HW1 1918   1.861   2.360   1.416 -1.3161  1.5572 -1.3519
  480SOL    HW2 1919   1.845   2.383   1.267  1.6077 -3.4312  2.2815
  480SOL     MW 1920   1.838   2.411   1.348 -0.1813 -0.3941 -0.0221
  481SOL     OW 1921   1.153   0.153   1.084 -0.0955  0.0130  0.0611
  481SOL    HW1 1922   1.223   0.169   1.018  1.4007  0.4623 -0.6088
  481SOL    HW2 1923   1.147   0.235   1.137 -2.8874 -0.8482  0.0693
  481SOL     MW 1924   1.162   0.166   1.082 -0.2665 -0.0414 -0.0262
  482SOL     OW 1925   1.068   3.047   0.431  0.2563  0.1475 -0.3719
  482SOL    HW1 1926   0.986   3.004   0.407  0.0378  0.9374  0.2336
  482SOL    HW2 1927   1.053   3.143   0.423 -1.0709 -1.1559  0.9619
  482SOL     MW 1928   1.055   3.054   0.427  0.0524  0.0798 -0.1161
  483SOL     OW 1929   0.378   2.913   0.494 -0.6230 -0.0040  0.1000
  483SOL    HW1 1930   0.324   2.945   0.413  2.2952 -3.6658 -0.2426
  483SOL    HW2 1931   0.346   2.972   0.564 -0.0729  0.2931 -0.3344
  483SOL     MW 1932   0.367   2.925   0.492 -0.1654 -0.4479 -0.0025
  484SOL     OW 1933   1.678   1.837   1.449 -0.2332  0.4228  0.0847
  484SOL    HW1 1934   1.747   1.902   1.429  0.9269  0.9139  0.6868
  484SOL    HW2 1935   1.683   1.827   1.543  0.4212 -0.2418 -1.5742
  484SOL     MW 1936   1.687   1.844   1.459  0.0062  0.3999 -0.0547
  485SOL     OW 1937   0.460   2.305   0.315  0.7879 -0.2932 -0.1138
  485SOL    HW1 1938   0.436   2.294   0.405  2.9747 -1.3692  0.7296
  485SOL    HW2 1939   0.407   2.379   0.297  2.2590 -0.6486 -1.5742
  485SOL     MW 1940   0.450   2.314   0.324  1.2705 -0.4821 -0.1952
  486SOL     OW 1941   0.105   2.497   1.477 -0.0223  0.6573  0.1420
  486SOL    HW1 1942   0.097   2.591   1.461  1.6504  0.9391  0.4028
  486SOL    HW2 1943   0.109   2.479   1.574 -1.4218 -0.5802  3.5970
  486SOL     MW 1944   0.105   2.507   1.488  0.0138  0.5312  0.6323
  487SOL     OW 1945   1.319   1.565   1.121  0.4459  0.6398 -0.0005
  487SOL    HW1 1946   1.283   1.653   1.129 -1.1517  0.5938  0.1614
  487SOL    HW2 1947   1.398   1.580   1.061  1.3576 -0.1390 -0.0328
  487SOL     MW 1948   1.324   1.579   1.114  0.3554  0.5310  0.0166
  488SOL     OW 1949   1.422   1.799   0.581  0.0956  0.5172 -0.0137
  488SOL    HW1 1950   1.395   1.888   0.559 -1.6339 -0.0233  0.2220
  488SOL    HW2 1951   1.366   1.743   0.528 -1.8656  1.9059 -2.8197
  488SOL     MW 1952   1.411   1.803   0.571 -0.3914  0.6291 -0.3528
  489SOL     OW 1953   0.702   0.672   0.493  0.0969  0.3524  0.8516
  489SOL    HW1 1954   0.629   0.615   0.461 -0.8837  0.9385  0.2441
  489SOL    HW2 1955   0.683   0.681   0.586 -1.9795 -0.5046 -0.6224
  489SOL     MW 1956   0.690   0.666   0.501 -0.3065  0.3166  0.5769
  490SOL     OW 1957   1.345   2.081   0.473 -0.6779 -0.2008  1.1185
  490SOL    HW1 1958   1.405   2.136   0.421 -0.3125 -1.1793 -0.0464
  490SOL    HW2 1959   1.258   2.123   0.457 -0.3860 -1.6894  2.5536
  490SOL     MW 1960   1.342   2.094   0.464 -0.5912 -0.5263  1.1541
  491SOL     OW 1961   1.323   3.000   0.408 -0.0254  0.4147 -0.0538
  491SOL    HW1 1962   1.372   3.040   0.477 -0.4266 -1.8607  2.2247
  491SOL    HW2 1963   1.221   3.004   0.415 -0.5428 -3.4521  0.5654
  491SOL     MW 1964   1.316   3.006   0.418 -0.1466 -0.3957  0.3285
  492SOL     OW 1965   1.484   2.143   0.700  0.2688 -0.5089 -0.0710
  492SOL    HW1 1966   1.431   2.117   0.626 -0.2908 -0.7718  1.6948
  492SOL    HW2 1967   1.425   2.138   0.770  3.4308  1.9487 -1.6202
  492SOL     MW 1968   1.470   2.139   0.699  0.6121 -0.2193 -0.0424
  493SOL     OW 1969   0.202   3.048   0.329  0.0282  0.5638 -0.0089
  493SOL    HW1 1970   0.116   3.060   0.359 -0.5041 -3.1123  0.6507
  493SOL    HW2 1971   0.189   3.006   0.244 -1.6151 -0.1560  0.1776
  493SOL     MW 1972   0.189   3.044   0.321 -0.2588 -0.0162  0.1028
  494SOL     OW 1973   0.379   2.338   1.814  0.0731 -0.2122 -0.5097
  494SOL    HW1 1974   0.397   2.241   1.800 -1.9867 -1.4333 -0.8729
  494SOL    HW2 1975   0.428   2.383   1.750  0.7673  0.2112  2.4303
  494SOL     MW 1976   0.388   2.331   1.804 -0.1071 -0.3174 -0.1697
  495SOL     OW 1977   2.793   1.614   2.661 -0.1005 -0.5581 -0.0903
  495SOL    HW1 1978   2.790   1.679   2.731 -0.7744 -1.3259 -0.2108
  495SOL    HW2 1979   2.789   1.533   2.707 -2.5179 -1.0582 -0.4559
  495SOL     MW 1980   2.792   1.612   2.676 -0.5084 -0.7254 -0.1544
  496SOL     OW 1981   2.829   2.287   2.735  0.4518 -0.3784 -0.5596
  496SOL    HW1 1982   2.831   2.198   2.761 -1.6540  2.4381 -0.6257
  496SOL    HW2 1983   2.911   2.333   2.751 -0.6000 -0.2126 -1.7869
  496SOL     MW 1984   2.840   2.281   2.740  0.0352  0.0151 -0.7302
  497SOL     OW 1985   1.484   2.406   2.559  0.2356 -0.1774 -0.1416
  497SOL    HW1 1986   1.493   2.341   2.486  2.6777  0.8120  0.9945
  497SOL    HW2 1987   1.430   2.357   2.621 -0.1951 -0.8148  0.8846
  497SOL     MW 1988   1.478   2.391   2.558  0.5010 -0.1310  0.1437
  498SOL     OW 1989   1.469   2.743   2.319 -0.6312  0.1068  0.3720
  498SOL    HW1 1990   1.491   2.653   2.300  2.0422  0.0083 -0.1939
  498SOL    HW2 1991   1.522   2.764   2.395  2.0444  0.9550 -0.6375
  498SOL     MW 1992   1.479   2.734   2.327  0.0745  0.2057  0.1641
  499SOL     OW 1993   0.974   0.070   0.106  0.1700 -0.1116 -0.2979
  499SOL    HW1 1994   0.890   0.082   0.146  2.6603 -0.9577  0.1905
  499SOL    HW2 1995   0.973  -0.023   0.082  1.3279  0.3587  0.6259
  499SOL     MW 1996   0.963   0.059   0.108  0.6513 -0.1612 -0.1116
  500SOL     OW 1997   1.034   2.537   2.719 -0.0321  0.0660 -0.2200
  500SOL    HW1 1998   1.088   2.490   2.786  0.5879 -0.7916 -2.6461
  500SOL    HW2 1999   0.982   2.594   2.776 -0.7786 -1.9073 -0.2441
  500SOL     MW 2000   1.034   2.539   2.735 -0.0488 -0.3075 -0.5433
  501SOL     OW 2001   1.813   2.295   2.929  0.4631  0.0532  0.0801
  501SOL    HW1 2002   1.813   2.389   2.925  0.8378 -0.5103  1.6937
  501SOL    HW2 2003   1.896   2.266   2.968 -0.6831 -2.3627 -1.0435
  501SOL     MW 2004   1.824   2.304   2.934  0.3613 -0.3399  0.1448
  502SOL     OW 2005   0.316   2.755   2.865 -0.0036  0.4971 -0.1350
  502SOL    HW1 2006   0.391   2.794   2.822 -1.7118  0.6827  2.0064
  502SOL    HW2 2007   0.261   2.834   2.872  0.9213  0.2015  1.0064
  502SOL     MW 2008   0.319   2.770   2.860 -0.1069  0.4826  0.2981
  503SOL     OW 2009   1.114   2.493   2.072  0.2492  0.5659 -0.0360
  503SOL    HW1 2010   1.167   2.571   2.042  0.6901 -0.3687 -1.7720
  503SOL    HW2 2011   1.018   2.504   2.092 -1.0674 -0.5288  3.1954
  503SOL     MW 2012   1.108   2.505   2.071  0.1336  0.2982  0.1613
  504SOL     OW 2013   0.055   2.642   2.205 -0.2198  0.2018  0.3439
  504SOL    HW1 2014   0.063   2.576   2.136 -2.3592  1.8669 -1.6869
  504SOL    HW2 2015   0.033   2.586   2.285  1.8007  0.0295 -0.7847
  504SOL     MW 2016   0.053   2.626   2.206 -0.2355  0.3988 -0.0730
  505SOL     OW 2017   1.572   2.821   2.733 -0.5201 -0.4807 -0.6132
  505SOL    HW1 2018   1.610   2.840   2.642 -0.7088 -0.6947  0.2185
  505SOL    HW2 2019   1.520   2.902   2.758  2.3354  1.2768 -0.4896
  505SOL     MW 2020   1.570   2.835   2.724 -0.1682 -0.2770 -0.4872
  506SOL     OW 2021   1.588   0.140   2.750  0.5209 -0.2064 -0.5861
  506SOL    HW1 2022   1.593   0.086   2.831  1.4518 -1.7809  1.8222
  506SOL    HW2 2023   1.641   0.094   2.692  1.3485  1.7576  2.5382
  506SOL     MW 2024   1.595   0.126   2.753  0.7529 -0.1550  0.1439
  507SOL     OW 2025   0.818   2.677   2.838  0.4440 -0.3374 -0.1385
  507SOL    HW1 2026   0.820   2.722   2.754  0.4176  0.0618  1.0587
  507SOL    HW2 2027   0.733   2.632   2.836 -1.0723  2.1961  0.3097
  507SOL     MW 2028   0.807   2.677   2.827  0.2405  0.0496  0.0786
  508SOL     OW 2029   1.208   2.145   2.527  0.0209 -0.3226 -0.6389
  508SOL    HW1 2030   1.282   2.193   2.567  2.7481  1.8605  0.2826
  508SOL    HW2 2031   1.148   2.142   2.597  0.6760 -2.0507  0.5647
  508SOL     MW 2032   1.210   2.151   2.541  0.4672 -0.2626 -0.3585
  509SOL     OW 2033   0.577   2.551   2.857  0.4693  0.2552 -0.3071
  509SOL    HW1 2034   0.575   2.487   2.776  1.5791 -1.5538 -0.8153
  509SOL    HW2 2035   0.512   2.616   2.841  0.8289 -2.0562  1.7663
  509SOL     MW 2036   0.568   2.551   2.844  0.6632 -0.2884 -0.1006
  510SOL     OW 2037   1.529   2.632   1.640  0.0330 -0.3814 -0.2454
  510SOL    HW1 2038   1.559   2.713   1.602  1.1195 -1.1790  1.0621
  510SOL    HW2 2039   1.469   2.661   1.707  0.7773 -1.2198  0.0882
  510SOL     MW 2040   1.525   2.646   1.644  0.2746 -0.5972 -0.0289
  511SOL     OW 2041   0.401   2.556   2.513 -0.7493 -0.1155 -0.2965
  511SOL    HW1 2042   0.471   2.509   2.563  0.1937 -3.1963  1.5295
  511SOL    HW2 2043   0.431   2.565   2.421 -0.3881  0.0222 -1.4250
  511SOL     MW 2044   0.414   2.551   2.508 -0.5772 -0.5038 -0.2045
  512SOL     OW 2045   0.952   1.963   2.819  0.5269 -0.1731  0.3525
  512SOL    HW1 2046   0.859   1.981   2.834 -2.6224 -1.7088 -0.0568
  512SOL    HW2 2047   0.988   1.895   2.879  2.3669 -0.7513 -0.7879
  512SOL     MW 2048   0.944   1.957   2.829  0.3542 -0.4520  0.1480
  513SOL     OW 2049   1.509   2.422   2.265 -0.2650  0.6712  0.6701
  513SOL    HW1 2050   1.603   2.443   2.246  0.9268 -2.2333  0.3917
  513SOL    HW2 2051   1.509   2.333   2.299  0.0640 -0.3397 -0.9978
  513SOL     MW 2052   1.522   2.413   2.267 -0.0643  0.1546  0.4133
  514SOL     OW 2053   0.223   2.380   2.689  0.1333  0.0067  0.4893
  514SOL    HW1 2054   0.262   2.463   2.661 -0.0829 -0.4000  1.2267
  514SOL    HW2 2055   0.286   2.329   2.742  0.7977  1.0583 -2.2569
  514SOL     MW 2056   0.236   2.384   2.692  0.1924  0.0918  0.2242
  515SOL     OW 2057   1.070   2.009   1.886  0.2434 -0.1538 -0.4481
  515SOL    HW1 2058   1.107   2.096   1.850 -0.4176  0.9252 -0.0630
  515SOL    HW2 2059   1.131   1.981   1.949 -2.3374  1.2501  1.1516
  515SOL     MW 2060   1.083   2.016   1.889 -0.1843  0.1738 -0.1862
  516SOL     OW 2061   1.333   2.625   2.900 -0.9157 -0.3549 -0.4805
  516SOL    HW1 2062   1.348   2.637   2.806 -1.4309  2.1237 -0.5684
  516SOL    HW2 2063   1.282   2.547   2.906 -0.4677  3.1334 -0.7829
  516SOL     MW 2064   1.328   2.616   2.889 -0.9246  0.4324 -0.5320
  517SOL     OW 2065   0.460   2.270   2.324  0.7043  0.0651 -0.3206
  517SOL    HW1 2066   0.439   2.364   2.320  0.7909 -1.9237 -0.8233
  517SOL    HW2 2067   0.423   2.241   2.236 -1.0510  0.2077  0.0446
  517SOL     MW 2068   0.452   2.279   2.312  0.4841 -0.1785 -0.3388
  518SOL     OW 2069   1.723   0.199   3.047 -0.1441  0.0514  0.0942
  518SOL    HW1 2070   1.747   0.208   3.140 -0.4459 -2.0108 -0.3308
  518SOL    HW2 2071   1.685   0.117   3.057 -1.5288  1.0981  0.8135
  518SOL     MW 2072   1.721   0.189   3.061 -0.3666 -0.0826  0.1331
  519SOL     OW 2073   0.606   2.360   1.983  0.1218  0.1595  0.2139
  519SOL    HW1 2074   0.610   2.268   1.994  2.1573 -0.5414  0.2159
  519SOL    HW2 2075   0.539   2.373   1.912  1.8833  2.8083  0.6415
  519SOL     MW 2076   0.598   2.350   1.975  0.6228  0.4165  0.2706
  520SOL     OW 2077   1.169   2.125   2.887  0.4867 -0.1858 -0.0638
  520SOL    HW1 2078   1.091   2.071   2.891  1.3246  1.4559 -1.2747
  520SOL    HW2 2079   1.218   2.112   2.968 -3.0767  1.8314  0.9017
  520SOL     MW 2080   1.165   2.116   2.898  0.1271  0.2970 -0.0962
  521SOL     OW 2081   1.702   2.060   2.208  0.9430 -0.0485 -0.3026
  521SOL    HW1 2082   1.744   2.065   2.120  2.2937 -0.0560  1.6151
  521SOL    HW2 2083   1.667   1.961   2.210 -1.5591 -1.3533 -3.2930
  521SOL     MW 2084   1.703   2.048   2.197  0.7911 -0.2216 -0.4441
  522SOL     OW 2085   2.836   2.562   2.157 -0.3553 -0.1077 -0.2197
  522SOL    HW1 2086   2.887   2.504   2.208 -0.6768  1.8624  0.9989
  522SOL    HW2 2087   2.864   2.643   2.187 -0.0087 -0.0534  3.7471
  522SOL     MW 2088   2.847   2.565   2.168 -0.3520  0.1594  0.4644
  523SOL     OW 2089   0.818   1.470   2.152 -0.0655 -0.4607  0.4122
  523SOL    HW1 2090   0.817   1.526   2.071 -0.3119 -0.1650 -1.6879
  523SOL    HW2 2091   0.897   1.421   2.140 -2.0238  0.1602  1.8011
  523SOL     MW 2092   0.828   1.471   2.140 -0.3564 -0.3398  0.3183
  524SOL     OW 2093   0.564   2.359   3.050 -0.2075 -0.3957  0.3967
  524SOL    HW1 2094   0.562   2.437   2.984 -0.6686 -1.9193 -0.8105
  524SOL    HW2 2095   0.656   2.327   3.051 -4.7114  0.5184 -1.1145
  524SOL     MW 2096   0.576   2.365   3.042 -0.8625 -0.4761  0.0380
  525SOL     OW 2097   0.302   2.170   2.097 -0.0128 -0.1649  0.3238
  525SOL    HW1 2098   0.268   2.119   2.177 -1.1382  0.6031 -1.9510
  525SOL    HW2 2099   0.357   2.105   2.052 -1.7401 -0.1199 -1.2954
  525SOL     MW 2100   0.305   2.154   2.102 -0.3892 -0.0576 -0.1900
  526SOL     OW 2101   0.684   2.073   1.959  0.5877 -0.0430  0.3197
  526SOL    HW1 2102   0.733   2.074   1.880  2.5012  0.1098 -2.1201
  526SOL    HW2 2103   0.740   2.103   2.030 -1.9258 -3.3141 -1.5338
  526SOL     MW 2104   0.698   2.077   1.958  0.5086 -0.4544 -0.2468
  527SOL     OW 2105   1.283   1.919   2.068  0.0869 -0.2542 -0.2123
  527SOL    HW1 2106   1.229   1.872   2.125  1.4269 -0.6603  0.5481
  527SOL    HW2 2107   1.342   1.866   2.020  0.4684 -0.1967 -1.7692
  527SOL     MW 2108   1.284   1.906   2.069  0.3141 -0.3002 -0.3174
  528SOL     OW 2109   0.599   2.915   2.955 -0.7956 -0.4328  0.0883
  528SOL    HW1 2110   0.666   2.981   2.966 -0.2319 -2.9278  1.7095
  528SOL    HW2 2111   0.577   2.900   2.868 -0.4666 -0.9182  1.5861
  528SOL     MW 2112   0.605   2.922   2.945 -0.6778 -0.8260  0.4998
  529SOL     OW 2113   1.109   2.293   1.801 -0.0139 -0.2472  0.3438
  529SOL    HW1 2114   1.185   2.281   1.860  1.5105 -0.7787 -1.5049
  529SOL    HW2 2115   1.154   2.318   1.719  0.8702 -2.1184 -0.5523
  529SOL     MW 2116   1.125   2.294   1.798  0.3039 -0.5642 -0.0183
  530SOL     OW 2117   1.155   2.421   2.945  0.9457  0.2522  0.0199
  530SOL    HW1 2118   1.079   2.425   3.000  0.1840  0.2578  0.0816
  530SOL    HW2 2119   1.180   2.327   2.949 -0.4934  0.6851  0.2867
  530SOL     MW 2120   1.149   2.409   2.953  0.6553  0.3101  0.0633
  531SOL     OW 2121   0.887   1.818   2.609 -0.0872 -0.2413  0.2557
  531SOL    HW1 2122   0.919   1.874   2.681  2.1959 -0.1541  2.5189
  531SOL    HW2 2123   0.871   1.725   2.634 -1.6483 -1.5195  0.3755
  531SOL     MW 2124   0.889   1.813   2.622  0.0081 -0.3984  0.5701
  532SOL     OW 2125   1.740   0.364   2.808  0.4561  0.0671  0.1564
  532SOL    HW1 2126   1.684   0.301   2.761  0.4754 -2.1320 -0.7591
  532SOL    HW2 2127   1.745   0.325   2.897 -0.3381 -0.2845  2.6670
  532SOL     MW 2128   1.733   0.351   2.813  0.3538 -0.2694  0.3669
  533SOL     OW 2129   1.785   2.838   2.907 -0.1765 -0.4626  0.0321
  533SOL    HW1 2130   1.756   2.765   2.969  0.9603 -0.6272  1.3543
  533SOL    HW2 2131   1.732   2.831   2.826  0.2229 -2.5819  0.9877
  533SOL     MW 2132   1.774   2.828   2.904  0.0262 -0.7640  0.3327
  534SOL     OW 2133   1.769   2.535   2.513 -0.5260 -0.3746  0.0435
  534SOL    HW1 2134   1.694   2.476   2.524  3.2827  1.5860 -0.7601
  534SOL    HW2 2135   1.816   2.540   2.592 -4.5575 -0.9452 -1.6968
  534SOL     MW 2136   1.765   2.528   2.525 -0.5554 -0.1912 -0.2921
  535SOL     OW 2137   1.809   2.389   1.929 -0.1309  0.0068  0.1749
  535SOL    HW1 2138   1.758   2.404   1.852 -1.6422 -2.3842  1.9985
  535SOL    HW2 2139   1.905   2.399   1.908  0.8300  2.5427 -1.3015
  535SOL     MW 2140   1.815   2.392   1.916 -0.2036  0.0259  0.2207
  536SOL     OW 2141   0.397   1.906   1.977  0.3497 -0.7663  0.3465
  536SOL    HW1 2142   0.413   1.969   1.900 -1.5505  1.1035 -0.2161
  536SOL    HW2 2143   0.485   1.878   2.000 -1.1452 -0.5528  1.0280
  536SOL     MW 2144   0.411   1.911   1.970 -0.0982 -0.4914  0.3622
  537SOL     OW 2145   1.016   0.180   2.955  0.1656  0.7010 -0.2819
  537SOL    HW1 2146   0.998   0.164   3.047  3.2176  0.3869 -0.1877
  537SOL    HW2 2147   0.995   0.272   2.942  0.6770 -1.7498  0.5135
  537SOL     MW 2148   1.011   0.190   2.966  0.6358  0.3362 -0.1645
  538SOL     OW 2149   1.283   0.075   2.968 -0.8558  0.1102  0.3821
  538SOL    HW1 2150   1.198   0.121   2.952 -2.5400  0.1496  0.3870
  538SOL    HW2 2151   1.296   0.092   3.056 -1.5058  0.0561  3.0296
  538SOL     MW 2152   1.273   0.083   2.977 -1.1638  0.1082  0.7320
  539SOL     OW 2153   0.670   2.747   2.481  0.3750 -0.2635  0.2149
  539SOL    HW1 2154   0.746   2.807   2.477 -0.9864 -0.2940 -0.4779
  539SOL    HW2 2155   0.715   2.661   2.491  0.8475  0.0238 -0.3494
  539SOL     MW 2156   0.686   2.744   2.482  0.2577 -0.2296  0.0491
  540SOL     OW 2157   0.389   2.243   2.878  0.2939 -0.1145  0.1179
  540SOL    HW1 2158   0.459   2.282   2.940  2.6812 -1.2370  0.3730
  540SOL    HW2 2159   0.347   2.181   2.934  1.7069  0.8985 -0.3729
  540SOL     MW 2160   0.393   2.240   2.894  0.7953 -0.1289  0.0868
  541SOL     OW 2161   0.179   2.895   2.249  0.3277  0.5191  0.0531
  541SOL    HW1 2162   0.140   2.810   2.222  2.7808 -1.5936  1.3790
  541SOL    HW2 2163   0.204   2.882   2.343  0.7466  0.9160  2.4259
  541SOL     MW 2164   0.177   2.882   2.258  0.7067  0.2927  0.5411
  542SOL     OW 2165   0.842   2.349   2.763 -0.0424  0.4276 -0.2840
  542SOL    HW1 2166   0.850   2.267   2.815  1.3752 -4.4777 -0.2758
  542SOL    HW2 2167   0.922   2.396   2.767 -2.1517 -0.0890 -2.4150
  542SOL     MW 2168   0.854   2.345   2.770 -0.1337 -0.2877 -0.5641
  543SOL     OW 2169   1.362   2.685   2.646  0.4621  0.0095  0.6231
  543SOL    HW1 2170   1.401   2.609   2.606  0.7249  0.2842 -0.5530
  543SOL    HW2 2171   1.430   2.726   2.697 -1.6072 -0.6811  1.4692
  543SOL     MW 2172   1.376   2.681   2.648  0.2238 -0.0454  0.5795
  544SOL     OW 2173   0.694   0.117   2.704  0.4164  0.4182 -0.5992
  544SOL    HW1 2174   0.599   0.091   2.697 -0.8478 -1.0175 -1.4710
  544SOL    HW2 2175   0.738   0.064   2.646  0.3209  0.7081 -1.8431
  544SOL     MW 2176   0.687   0.106   2.696  0.2370  0.2671 -0.8783
  545SOL     OW 2177   1.532   2.183   2.403 -0.2237  0.0612  0.0601
  545SOL    HW1 2178   1.493   2.099   2.436 -1.2606 -1.7094  0.8122
  545SOL    HW2 2179   1.595   2.152   2.343  2.9180  2.1839 -0.3172
  545SOL     MW 2180   1.535   2.168   2.400  0.0540  0.1076  0.1096
  546SOL     OW 2181   2.998   1.983   0.146  0.1403 -0.4252  0.2592
  546SOL    HW1 2182   2.950   2.056   0.094  1.8446  3.4439 -0.0498
  546SOL    HW2 2183   3.056   1.943   0.082  2.1633  0.1948 -2.1657
  546SOL     MW 2184   2.999   1.987   0.131  0.6321  0.1671 -0.1015
  547SOL     OW 2185   0.167   2.886   0.094  0.0530  0.5043  0.3671
  547SOL    HW1 2186   0.167   2.939   0.015  1.4886  0.0526  0.4170
  547SOL    HW2 2187   0.216   2.801   0.073 -2.0181 -1.8057 -1.6611
  547SOL     MW 2188   0.174   2.882   0.081 -0.0309  0.1399  0.1061
  548SOL     OW 2189   0.269   2.552   0.270 -0.3868 -0.3473  0.4828
  548SOL    HW1 2190   0.289   2.581   0.181  0.5482 -0.4954 -2.7194
  548SOL    HW2 2191   0.179   2.530   0.264  1.2320 -0.9662  2.0892
  548SOL     MW 2192   0.260   2.553   0.258 -0.0498 -0.4485  0.2722
  549SOL     OW 2193   0.709   1.835   2.081 -0.2605  0.0592 -0.2960
  549SOL    HW1 2194   0.701   1.922   2.039  1.9799 -1.9627  2.7920
  549SOL    HW2 2195   0.751   1.870   2.158  2.0946  4.1839 -3.8786
  549SOL     MW 2196   0.713   1.851   2.085  0.3459  0.3366 -0.3613
  550SOL     OW 2197   1.779   1.789   2.489  0.1695 -0.8106  0.2146
  550SOL    HW1 2198   1.751   1.812   2.396  1.0059 -0.6999 -2.9315
  550SOL    HW2 2199   1.799   1.881   2.530  0.3906  2.7958 -1.3454
  550SOL     MW 2200   1.778   1.804   2.482  0.3090 -0.3201 -0.4063
  551SOL     OW 2201   0.858   2.352   0.209 -0.4072 -0.0702  0.5065
  551SOL    HW1 2202   0.950   2.377   0.209  1.2756 -1.9004 -2.2896
  551SOL    HW2 2203   0.846   2.310   0.124 -1.1351  0.4566 -2.2653
  551SOL     MW 2204   0.869   2.349   0.198 -0.2812 -0.2422 -0.2281
  552SOL     OW 2205   1.678   1.788   2.231 -0.1930 -1.0667  0.4903
  552SOL    HW1 2206   1.600   1.745   2.273 -1.2344 -0.4154  2.5021
  552SOL    HW2 2207   1.714   1.717   2.174  2.9020 -4.0148  0.8845
  552SOL     MW 2208   1.672   1.773   2.229  0.0780 -1.3698  0.8077
  553SOL     OW 2209   1.216   2.305   1.534 -0.8302 -0.1158 -0.1106
  553SOL    HW1 2210   1.250   2.217   1.516 -2.6114 -1.1077  2.2736
  553SOL    HW2 2211   1.277   2.370   1.493 -1.6868 -0.8150 -0.2006
  553SOL     MW 2212   1.229   2.302   1.526 -1.1782 -0.3389  0.1921
  554SOL     OW 2213   0.555   2.850   2.689 -0.2619 -0.3194  0.1220
  554SOL    HW1 2214   0.512   2.926   2.644 -0.8298 -1.4446  1.3584
  554SOL    HW2 2215   0.605   2.809   2.611  0.4386 -2.1608 -0.5692
  554SOL     MW 2216   0.556   2.855   2.673 -0.2444 -0.7108  0.1939
  555SOL     OW 2217   0.581   2.412   2.626 -0.0823 -1.0234 -0.1080
  555SOL    HW1 2218   0.552   2.320   2.634 -0.8924  0.9164 -4.2284
  555SOL    HW2 2219   0.664   2.421   2.579 -2.4970 -2.7082 -2.1125
  555SOL     MW 2220   0.588   2.401   2.621 -0.5078 -0.9897 -0.9161
  556SOL     OW 2221   1.053   1.839   0.129  0.1504 -0.2044 -0.0033
  556SOL    HW1 2222   1.059   1.813   0.036  0.6364  2.1888 -1.3194
  556SOL    HW2 2223   1.142   1.863   0.158 -2.0582  0.9741  1.8545
  556SOL     MW 2224   1.065   1.838   0.121 -0.0769  0.2669  0.0682
  557SOL     OW 2225   1.020   2.648   0.427  0.5745  0.5913 -0.1539
  557SOL    HW1 2226   1.102   2.671   0.392  0.0873  1.9319  3.2950
  557SOL    HW2 2227   0.954   2.703   0.384 -0.3500  1.0103 -1.1985
  557SOL     MW 2228   1.022   2.658   0.417  0.3883  0.8234  0.1633
  558SOL     OW 2229   0.255   2.102   3.064 -0.2475 -1.0314  0.2263
  558SOL    HW1 2230   0.215   2.018   3.079 -2.1728  0.7583 -0.4883
  558SOL    HW2 2231   0.206   2.169   3.106 -1.5310  1.2211  0.3512
  558SOL     MW 2232   0.244   2.100   3.072 -0.6709 -0.4981  0.1485
  559SOL     OW 2233   1.249   2.235   2.029 -0.0143  0.0843 -0.0074
  559SOL    HW1 2234   1.203   2.314   2.068  2.1856  1.3315  2.4273
  559SOL    HW2 2235   1.235   2.166   2.090  1.3696 -0.5700 -0.1826
  559SOL     MW 2236   1.241   2.237   2.042  0.4585  0.1625  0.2907
  560SOL     OW 2237   1.937   2.967   0.032  0.1735  0.3410 -0.1116
  560SOL    HW1 2238   2.002   2.990  -0.029  0.8997  2.0759 -0.4581
  560SOL    HW2 2239   1.862   2.949  -0.025  1.0365 -0.3421  1.5866
  560SOL     MW 2240   1.935   2.968   0.017  0.3832  0.4798  0.0667
  561SOL     OW 2241   0.460   2.072   0.175  0.6545  0.2216 -0.0337
  561SOL    HW1 2242   0.394   2.100   0.117 -0.8061  2.8821 -2.9880
  561SOL    HW2 2243   0.483   2.153   0.224 -1.2619 -1.8079 -1.8979
  561SOL     MW 2244   0.455   2.086   0.174  0.2090  0.3049 -0.6695
  562SOL     OW 2245   0.844   2.125   2.164  0.0757  0.4835  0.9028
  562SOL    HW1 2246   0.819   2.207   2.209 -0.2820  1.9740  0.3716
  562SOL    HW2 2247   0.941   2.125   2.136  0.0648 -2.5893  0.7709
  562SOL     MW 2248   0.853   2.136   2.166  0.0271  0.2747  0.8153
  563SOL     OW 2249   1.281   0.289   0.482 -0.1264 -0.1406 -0.1406
  563SOL    HW1 2250   1.202   0.252   0.436  2.4358 -1.5129  2.0260
  563SOL    HW2 2251   1.319   0.212   0.531 -1.4413 -0.0805 -1.6651
  563SOL     MW 2252   1.276   0.274   0.483  0.0382 -0.3138 -0.0559
  564SOL     OW 2253   1.009   2.552   2.312 -0.0784  0.3069 -0.5357
  564SOL    HW1 2254   1.066   2.529   2.235 -0.6236 -1.4881 -1.2654
  564SOL    HW2 2255   1.060   2.613   2.365 -3.6383  0.5035  2.2280
  564SOL     MW 2256   1.023   2.557   2.309 -0.6200  0.0960 -0.2673
  565SOL     OW 2257   2.925   2.684   2.706 -0.0917  0.0515  0.4926
  565SOL    HW1 2258   2.970   2.761   2.678 -0.1115 -0.9983  0.2958
  565SOL    HW2 2259   2.861   2.677   2.630 -1.0066  0.8659 -0.9829
  565SOL     MW 2260   2.922   2.693   2.692 -0.2150  0.0204  0.2720
  566SOL     OW 2261   2.163   2.052   2.363  0.4719 -0.9208  0.4156
  566SOL    HW1 2262   2.176   2.040   2.270  0.8618 -0.4426  0.7214
  566SOL    HW2 2263   2.215   2.129   2.380 -2.6553  1.1570  1.0139
  566SOL     MW 2264   2.172   2.060   2.353  0.1107 -0.5836  0.5349
  567SOL     OW 2265   1.149   2.877   0.121  0.3715 -0.0434 -0.1470
  567SOL    HW1 2266   1.149   2.968   0.154  1.6311 -1.1812  0.5624
  567SOL    HW2 2267   1.172   2.872   0.029  0.3946 -0.8708 -1.8274
  567SOL     MW 2268   1.152   2.889   0.113  0.5407 -0.3027 -0.2751
  568SOL     OW 2269   1.641   2.134   2.794 -0.0073 -0.5454  0.3129
  568SOL    HW1 2270   1.699   2.195   2.844 -1.1545  0.4073 -3.1537
  568SOL    HW2 2271   1.703   2.087   2.733  0.5240  0.0090 -0.0670
  568SOL     MW 2272   1.657   2.136   2.793 -0.0886 -0.3466 -0.1946
  569SOL     OW 2273   0.026   2.230   2.498  0.1034 -0.4359 -0.1419
  569SOL    HW1 2274  -0.009   2.285   2.431 -1.1066  0.7859 -1.3585
  569SOL    HW2 2275   0.077   2.286   2.552  1.9649  1.3447 -1.2098
  569SOL     MW 2276   0.028   2.245   2.497  0.1894 -0.0398 -0.4433
  570SOL     OW 2277   1.556   0.362   0.457 -0.4835  0.1307 -0.0921
  570SOL    HW1 2278   1.467   0.355   0.491 -0.1608  0.1028  1.0142
  570SOL    HW2 2279   1.605   0.410   0.522  1.8845  0.3961  0.2783
  570SOL     MW 2280   1.551   0.367   0.470 -0.1285  0.1620  0.1028
  571SOL     OW 2281   1.444   2.449   1.989 -0.0696  0.3066  0.6526
  571SOL    HW1 2282   1.441   2.444   2.082  1.0260 -0.1065 -2.7803
  571SOL    HW2 2283   1.424   2.356   1.975  0.7001  0.6002  2.8884
  571SOL     MW 2284   1.441   2.436   2.000  0.1765  0.2908  0.4947
  572SOL     OW 2285   0.907   2.525   3.057 -0.2165 -0.1899  0.1762
  572SOL    HW1 2286   0.884   2.559   2.970  1.5461  1.1541  2.7978
  572SOL    HW2 2287   0.826   2.540   3.102  0.0258 -0.7850  1.4124
  572SOL     MW 2288   0.894   2.531   3.052  0.0480 -0.0911  0.6852
  573SOL     OW 2289   1.140   2.415   0.199 -0.4093  0.1006 -0.4197
  573SOL    HW1 2290   1.222   2.388   0.151 -1.9250  2.6469  0.8010
  573SOL    HW2 2291   1.165   2.498   0.239 -1.0585  0.3099  1.6734
  573SOL     MW 2292   1.154   2.422   0.198 -0.6950  0.4642  0.0175
  574SOL     OW 2293   1.259   2.665   0.260 -0.1035  0.4416 -0.8490
  574SOL    HW1 2294   1.328   2.727   0.280 -0.1695  0.0489  0.9521
  574SOL    HW2 2295   1.202   2.717   0.207 -0.0818 -1.4141 -0.4852
  574SOL     MW 2296   1.261   2.680   0.256 -0.1093  0.1450 -0.5634
  575SOL     OW 2297   3.051   2.262   1.814  0.1382 -0.0215  0.0307
  575SOL    HW1 2298   3.033   2.173   1.782 -0.0536 -2.4694  0.8642
  575SOL    HW2 2299   3.112   2.308   1.753 -0.1153  0.3112 -0.6164
  575SOL     MW 2300   3.056   2.256   1.802  0.0794 -0.3006  0.0553
  576SOL     OW 2301   2.818   1.819   2.067  0.9888 -0.5475  0.2972
  576SOL    HW1 2302   2.826   1.895   2.006 -1.4036 -2.6847 -0.3940
  576SOL    HW2 2303   2.725   1.800   2.069  1.4818  0.6266  0.1036
  576SOL     MW 2304   2.807   1.826   2.059  0.7382 -0.6746  0.1805
  577SOL     OW 2305   2.068   0.329   0.077  0.3440 -0.2542 -0.2024
  577SOL    HW1 2306   2.010   0.383   0.028 -0.2454 -1.0293 -2.0842
  577SOL    HW2 2307   2.002   0.255   0.100 -0.7546 -0.7341  1.5255
  577SOL     MW 2308   2.051   0.327   0.073  0.1213 -0.4198 -0.2227
  578SOL     OW 2309   1.916   2.198   2.346 -0.4453 -0.0028 -0.1740
  578SOL    HW1 2310   1.839   2.156   2.296 -0.6324 -1.3615 -0.8970
  578SOL    HW2 2311   1.993   2.136   2.349  1.4571 -1.4202  1.5652
  578SOL     MW 2312   1.916   2.185   2.340 -0.2190 -0.3691 -0.0399
  579SOL     OW 2313   0.816   2.488   2.503  0.1595  0.0487  0.2239
  579SOL    HW1 2314   0.866   2.459   2.582  2.0428 -2.4342  2.0400
  579SOL    HW2 2315   0.887   2.520   2.445  1.7731 -0.5222 -1.5355
  579SOL     MW 2316   0.832   2.488   2.506  0.6208 -0.3542  0.2314
  580SOL     OW 2317   0.865   2.860   3.068  0.1410 -0.0889  0.2731
  580SOL    HW1 2318   0.905   2.778   3.080  1.1304 -0.2370 -0.5914
  580SOL    HW2 2319   0.805   2.838   2.998  0.1344  1.7688  3.5306
  580SOL     MW 2320   0.862   2.847   3.060  0.2707  0.1367  0.5888
  581SOL     OW 2321   1.079   2.594   1.764  0.7734  0.3575 -0.5475
  581SOL    HW1 2322   1.163   2.636   1.790 -0.6740  0.8451  1.2075
  581SOL    HW2 2323   1.095   2.494   1.780  2.4727 -1.6554 -2.5626
  581SOL     MW 2324   1.092   2.586   1.769  0.8066  0.1563 -0.5818
  582SOL     OW 2325   3.087   2.877   2.628 -0.4745  0.0176 -0.3022
  582SOL    HW1 2326   3.095   2.956   2.683  2.5995 -0.2286  0.4505
  582SOL    HW2 2327   3.170   2.829   2.645 -2.6670  0.5309 -0.7157
  582SOL     MW 2328   3.099   2.881   2.637 -0.3582  0.0529 -0.2574
  583SOL     OW 2329   1.948   2.526   2.716  0.4248  0.0391 -0.3005
  583SOL    HW1 2330   1.984   2.573   2.631  2.2199  0.2993 -0.6212
  583SOL    HW2 2331   1.945   2.432   2.699  0.1397  0.6050 -0.4001
  583SOL     MW 2332   1.952   2.520   2.702  0.6241  0.1481 -0.3560
  584SOL     OW 2333   0.164   1.839   2.107  0.3601  0.3691 -0.1453
  584SOL    HW1 2334   0.233   1.865   2.042 -1.4703  0.0517 -1.4827
  584SOL    HW2 2335   0.179   1.892   2.187  0.4465  0.4129  0.6859
  584SOL     MW 2336   0.175   1.850   2.109  0.1300  0.3330 -0.2121
  585SOL     OW 2337   1.432   2.560   0.043 -0.1355  0.5150  0.1003
  585SOL    HW1 2338   1.407   2.591  -0.048  2.1223 -1.1963  1.7765
  585SOL    HW2 2339   1.401   2.626   0.098  3.9734 -2.2527 -1.2364
  585SOL     MW 2340   1.425   2.573   0.038  0.7045 -0.0760  0.1451
  586SOL     OW 2341   1.277   2.968   2.347  0.0439  0.0398  0.5985
  586SOL    HW1 2342   1.364   2.933   2.361  2.0379  0.2511  0.7177
  586SOL    HW2 2343   1.247   2.999   2.432  2.5698 -2.8729  1.2453
  586SOL     MW 2344   1.285   2.967   2.360  0.6403 -0.3166  0.6995
  587SOL     OW 2345   1.200   1.621   2.164 -0.2224  0.0110  0.3799
  587SOL    HW1 2346   1.201   1.540   2.219 -3.1640  1.0303 -0.6106
  587SOL    HW2 2347   1.207   1.588   2.067  0.0223  1.8237 -2.1388
  587SOL     MW 2348   1.201   1.606   2.158 -0.5782  0.3847 -0.0831
  588SOL     OW 2349   1.371   2.231   2.752  0.0758  0.6863 -0.6035
  588SOL    HW1 2350   1.448   2.176   2.751 -1.9677  0.1655  0.5911
  588SOL    HW2 2351   1.289   2.187   2.805 -1.1538  0.2480  1.2796
  588SOL     MW 2352   1.370   2.218   2.759 -0.3561  0.5597 -0.1975
  589SOL     OW 2353   1.327   2.065  -0.001  0.3553 -0.0932  0.0048
  589SOL    HW1 2354   1.337   2.151   0.040 -0.7629 -0.5014  1.1872
  589SOL    HW2 2355   1.309   2.021   0.079  0.1130  0.3602  1.0426
  589SOL     MW 2356   1.326   2.070   0.015  0.1758 -0.0872  0.2977
  590SOL     OW 2357   0.479   2.543   2.253  0.3317 -0.0571 -0.0687
  590SOL    HW1 2358   0.428   2.582   2.180  2.1917  0.3680 -0.4235
  590SOL    HW2 2359   0.568   2.563   2.224  1.3606  0.3948  1.5564
  590SOL     MW 2360   0.484   2.551   2.239  0.7129  0.0586  0.0989
  591SOL     OW 2361   2.206   0.694   3.024 -0.3554  0.1599  0.5722
  591SOL    HW1 2362   2.113   0.722   2.998 -0.3057 -0.1827  3.0178
  591SOL    HW2 2363   2.221   0.623   2.961  0.5719 -0.3931 -0.0704
  591SOL     MW 2364   2.196   0.688   3.012 -0.2265  0.0417  0.8101
  592SOL     OW 2365   1.811   2.897   0.828 -0.3034  0.0093  0.6574
  592SOL    HW1 2366   1.813   2.959   0.751  1.0440  1.1777  1.0024
  592SOL    HW2 2367   1.881   2.831   0.809  1.9381 -0.4014  1.1116
  592SOL     MW 2368   1.820   2.896   0.816  0.1701  0.1093  0.7628
  593SOL     OW 2369   1.919   0.832   0.920  0.1742 -0.4863 -0.2058
  593SOL    HW1 2370   1.854   0.827   0.851 -3.6906 -2.3966  3.3256
  593SOL    HW2 2371   1.960   0.744   0.932 -0.5238 -1.4964 -0.3254
  593SOL     MW 2372   1.916   0.820   0.913 -0.4278 -0.8716  0.2443
  594SOL     OW 2373   2.765   1.127   1.403 -0.4168  0.0416  0.4084
  594SOL    HW1 2374   2.834   1.192   1.413 -0.4346  2.5602  1.7829
  594SOL    HW2 2375   2.759   1.100   1.311  0.7790  0.3334 -0.9215
  594SOL     MW 2376   2.773   1.132   1.392 -0.2614  0.4124  0.4142
  595SOL     OW 2377   0.426   0.989   0.752  0.0553 -0.4259  0.6128
  595SOL    HW1 2378   0.492   1.048   0.694  3.6224  1.7661 -2.3318
  595SOL    HW2 2379   0.435   1.012   0.845  0.9109 -1.7747 -0.6015
  595SOL     MW 2380   0.436   1.000   0.756  0.6389 -0.3147  0.0640
  596SOL     OW 2381   2.412   1.330   0.606  0.3738 -0.2032 -0.5345
  596SOL    HW1 2382   2.452   1.411   0.572 -0.6838  2.1949 -1.6407
  596SOL    HW2 2383   2.484   1.288   0.657 -0.7181 -1.3978 -0.3717
  596SOL     MW 2384   2.426   1.335   0.608  0.0902 -0.0444 -0.6590
  597SOL     OW 2385   2.264   0.685   1.734 -0.5950  0.0053  0.2646
  597SOL    HW1 2386   2.312   0.616   1.767 -1.0928 -0.9295  0.1493
  597SOL    HW2 2387   2.259   0.661   1.643 -0.5657 -2.3881  2.0583
  597SOL     MW 2388   2.270   0.673   1.726 -0.6568 -0.4338  0.4860
  598SOL     OW 2389   2.631   1.008   2.843  0.0975  0.5239  0.5974
  598SOL    HW1 2390   2.666   0.949   2.774 -1.3463  1.5492  1.4613
  598SOL    HW2 2391   2.695   1.061   2.891  2.1168 -1.9040  2.9161
  598SOL     MW 2392   2.644   1.007   2.841  0.1734  0.3388  1.0173
  599SOL     OW 2393   2.903   0.354   2.061  0.3907 -0.2891 -0.2576
  599SOL    HW1 2394   2.917   0.349   2.156  1.3931 -1.9923 -0.9666
  599SOL    HW2 2395   2.969   0.414   2.027 -0.2653 -1.5684 -1.9216
  599SOL     MW 2396   2.913   0.361   2.069  0.4364 -0.6826 -0.5707
  600SOL     OW 2397   1.848   1.640   0.879 -0.2250  0.3895  0.7820
  600SOL    HW1 2398   1.887   1.655   0.960  1.2171  1.8590 -1.2375
  600SOL    HW2 2399   1.759   1.682   0.889 -1.1296  3.1472  1.6225
  600SOL     MW 2400   1.841   1.647   0.891 -0.1540  0.9472  0.6264
  601SOL     OW 2401   2.466   0.746   0.893  0.5491  0.3130 -0.0435
  601SOL    HW1 2402   2.494   0.789   0.975 -0.4412 -2.0114 -1.0475
  601SOL    HW2 2403   2.375   0.747   0.900 -0.0344 -1.1023  0.3090
  601SOL     MW 2404   2.458   0.752   0.905  0.3414 -0.1804 -0.1294
  602SOL     OW 2405   2.268   1.932   0.698  0.1364  0.1125 -0.1938
  602SOL    HW1 2406   2.213   1.867   0.743  1.4552 -0.1089 -0.0498
  602SOL    HW2 2407   2.203   1.971   0.633 -0.1919 -0.1454 -1.1249
  602SOL     MW 2408   2.252   1.929   0.695  0.2671  0.0493 -0.2976
  603SOL     OW 2409   2.996   1.353   1.844 -0.1876  0.7423  0.0763
  603SOL    HW1 2410   3.085   1.386   1.855  0.0324 -0.5741 -0.7537
  603SOL    HW2 2411   3.008   1.270   1.806  0.0624  0.0020  2.4585
  603SOL     MW 2412   3.009   1.346   1.841 -0.1256  0.4709  0.2811
  604SOL     OW 2413   2.046   1.498   0.496 -0.2153  0.1695 -0.2725
  604SOL    HW1 2414   2.076   1.430   0.554  1.0329  2.2095 -0.4367
  604SOL    HW2 2415   1.998   1.551   0.551 -1.3221  0.1925 -0.1607
  604SOL     MW 2416   2.044   1.496   0.511 -0.1966  0.4417 -0.2794
  605SOL     OW 2417   2.654   1.540   0.796 -0.1927  0.0356  0.0684
  605SOL    HW1 2418   2.599   1.603   0.749  1.7604 -1.1441  0.1212
  605SOL    HW2 2419   2.583   1.522   0.859 -0.1217  0.7001 -0.7322
  605SOL     MW 2420   2.637   1.546   0.798  0.0743 -0.0324 -0.0303
  606SOL     OW 2421   2.534   1.816   1.898  0.3044  0.4767  0.2599
  606SOL    HW1 2422   2.446   1.787   1.933  0.2513 -2.7848 -1.3536
  606SOL    HW2 2423   2.573   1.727   1.877 -0.7905 -1.5970  2.7121
  606SOL     MW 2424   2.528   1.801   1.900  0.1529 -0.2273  0.3706
  607SOL     OW 2425   2.357   1.026   2.965 -0.6270 -0.4385 -0.5129
  607SOL    HW1 2426   2.446   1.006   2.955 -1.3148 -0.3904 -3.0268
  607SOL    HW2 2427   2.341   1.012   3.056  2.0557  1.7556 -0.0334
  607SOL     MW 2428   2.367   1.022   2.976 -0.3638 -0.1427 -0.7813
  608SOL     OW 2429   1.907   0.242   0.645 -0.6019  0.2984 -0.0453
  608SOL    HW1 2430   1.919   0.262   0.553 -0.8280 -1.5126 -2.3007
  608SOL    HW2 2431   1.899   0.144   0.646  0.2524 -0.7191 -3.0097
  608SOL     MW 2432   1.908   0.232   0.633 -0.5190 -0.0748 -0.7340
  609SOL     OW 2433   2.118   1.934   3.008 -0.2521 -0.5860 -0.0759
  609SOL    HW1 2434   2.036   1.891   3.002 -0.5564 -0.3074  3.8747
  609SOL    HW2 2435   2.161   1.911   3.091  0.2327  0.2814  1.1380
  609SOL     MW 2436   2.113   1.925   3.018 -0.2283 -0.4348  0.6055
  610SOL     OW 2437   1.839   1.089   1.355 -0.6087 -0.4359 -0.3186
  610SOL    HW1 2438   1.858   1.015   1.294 -0.4231  1.9516  0.0585
  610SOL    HW2 2439   1.753   1.059   1.399  1.0752 -2.4872  0.6137
  610SOL     MW 2440   1.830   1.075   1.352 -0.3621 -0.3916 -0.1458
  611SOL     OW 2441   2.507   1.766   0.720 -0.1628 -0.4449 -0.1788
  611SOL    HW1 2442   2.425   1.821   0.695 -1.1597 -2.4842  0.1525
  611SOL    HW2 2443   2.501   1.717   0.641  0.7193 -0.1684  1.4338
  611SOL     MW 2444   2.495   1.767   0.706 -0.1780 -0.6775  0.0777
  612SOL     OW 2445   2.783   2.772   0.422 -0.0569 -0.3273  0.2537
  612SOL    HW1 2446   2.816   2.829   0.501  0.5292  0.5724  0.0533
  612SOL    HW2 2447   2.862   2.727   0.391  0.0308 -1.0581  1.5466
  612SOL     MW 2448   2.798   2.773   0.428  0.0320 -0.3050  0.3978
  613SOL     OW 2449   1.617   1.014   1.102 -0.5157  0.0726  0.0982
  613SOL    HW1 2450   1.636   1.080   1.165  1.8534  1.6286  0.1172
  613SOL    HW2 2451   1.677   0.940   1.115  1.0032  0.4392 -2.2886
  613SOL     MW 2452   1.627   1.013   1.112 -0.0027  0.3262 -0.2142
  614SOL     OW 2453   1.980   0.530   1.538 -0.3695  0.5249  0.3066
  614SOL    HW1 2454   2.012   0.447   1.583 -3.9982 -0.5810 -0.0366
  614SOL    HW2 2455   2.050   0.550   1.472 -0.6110  0.6549  0.0400
  614SOL     MW 2456   1.994   0.521   1.535 -0.8802  0.3961  0.2262
  615SOL     OW 2457   2.238   0.805   0.164  0.0719  0.5338 -0.3800
  615SOL    HW1 2458   2.310   0.773   0.226  0.0237  0.0204  1.6336
  615SOL    HW2 2459   2.243   0.756   0.081  1.4819  2.1307  0.1162
  615SOL     MW 2460   2.248   0.794   0.161  0.2515  0.6768 -0.0489
  616SOL     OW 2461   2.625   0.362   1.633 -0.2796  0.5443 -0.1745
  616SOL    HW1 2462   2.556   0.303   1.598 -0.8528 -0.2283 -0.6263
  616SOL    HW2 2463   2.593   0.450   1.614 -0.3685 -0.4853  1.3988
  616SOL     MW 2464   2.612   0.366   1.626 -0.3670  0.3065 -0.0265
  617SOL     OW 2465   2.924   0.560   1.766  0.0512 -0.3164  0.0738
  617SOL    HW1 2466   2.830   0.585   1.795 -0.9895 -1.7325  1.4063
  617SOL    HW2 2467   2.911   0.478   1.720 -3.6852  0.9544  0.0993
  617SOL     MW 2468   2.910   0.553   1.764 -0.5790 -0.3356  0.2530
  618SOL     OW 2469   2.673   0.362   1.935 -0.3622 -0.2112  0.0870
  618SOL    HW1 2470   2.651   0.455   1.912  1.5700  0.7452  0.3178
  618SOL    HW2 2471   2.750   0.363   1.992 -2.5568  0.1980  0.8510
  618SOL     MW 2472   2.680   0.374   1.940 -0.3968 -0.0310  0.2183
  619SOL     OW 2473   2.587   0.851   0.142  0.2366  0.8291 -0.3482
  619SOL    HW1 2474   2.674   0.873   0.177 -0.6959 -0.0352 -1.0435
  619SOL    HW2 2475   2.554   0.782   0.203 -0.2490  0.7216  0.2655
  619SOL     MW 2476   2.594   0.845   0.155  0.0495  0.7009 -0.3590
  620SOL     OW 2477   2.295   1.135   0.929  0.0906 -0.6705 -0.2416
  620SOL    HW1 2478   2.379   1.124   0.884 -1.6693  3.1428 -1.0709
  620SOL    HW2 2479   2.238   1.078   0.875  0.8442  0.7643  0.1587
  620SOL     MW 2480   2.299   1.126   0.916 -0.0422  0.0219 -0.2982
  621SOL     OW 2481   1.521   2.141   1.999 -0.0822 -0.3077 -0.0708
  621SOL    HW1 2482   1.453   2.152   2.063 -0.4239  0.2264  1.2123
  621SOL    HW2 2483   1.582   2.089   2.046 -1.9468 -0.1325  0.5280
  621SOL     MW 2484   1.520   2.135   2.014 -0.3733 -0.2141  0.1775
  622SOL     OW 2485   2.628   0.219   0.123 -0.0589 -0.1837  0.6459
  622SOL    HW1 2486   2.719   0.239   0.156  0.1336 -3.7171  3.3576
  622SOL    HW2 2487   2.634   0.127   0.109  0.3337 -0.2905  0.3883
  622SOL     MW 2488   2.641   0.210   0.125  0.0183 -0.6640  0.9697
  623SOL     OW 2489   2.396   2.766   0.816 -0.5266 -0.0307  0.4271
  623SOL    HW1 2490   2.466   2.833   0.834 -0.3384 -0.0324  1.4087
  623SOL    HW2 2491   2.329   2.773   0.883  1.0019  0.9163 -1.0751
  623SOL     MW 2492   2.396   2.776   0.827 -0.3001  0.0941  0.3584
  624SOL     OW 2493   2.200   1.626   2.925 -0.0657 -0.2354  0.7911
  624SOL    HW1 2494   2.123   1.582   2.962  0.3666  0.4989 -0.4468
  624SOL    HW2 2495   2.187   1.714   2.957 -0.2751  1.2444 -0.5321
  624SOL     MW 2496   2.188   1.632   2.934 -0.0363  0.0567  0.4532
  625SOL     OW 2497   2.192   1.924   1.077  0.1733 -0.2951 -0.5670
  625SOL    HW1 2498   2.261   1.896   1.135  0.1993  0.0651  0.2659
  625SOL    HW2 2499   2.238   1.966   1.003 -1.1250  0.5237  0.7910
  625SOL     MW 2500   2.207   1.926   1.075  0.0054 -0.1395 -0.2779
  626SOL     OW 2501   0.129   1.584   2.400  0.5485  0.0808 -0.1243
  626SOL    HW1 2502   0.058   1.563   2.342  0.3558 -3.6166 -0.1453
  626SOL    HW2 2503   0.093   1.585   2.487  2.1596  1.1945 -2.6790
  626SOL     MW 2504   0.115   1.581   2.404  0.7357 -0.2601 -0.4641
  627SOL     OW 2505   2.454   0.836   2.585 -0.2585 -0.1915 -0.1961
  627SOL    HW1 2506   2.403   0.922   2.581 -1.1679 -0.2174  0.6339
  627SOL    HW2 2507   2.454   0.798   2.495  0.7328  0.0573 -0.0772
  627SOL     MW 2508   2.447   0.842   2.572 -0.2477 -0.1621 -0.0709
  628SOL     OW 2509   2.338   1.363   1.374  0.1370 -0.1883  0.4622
  628SOL    HW1 2510   2.298   1.292   1.314 -0.6688  0.7381  0.1157
  628SOL    HW2 2511   2.423   1.378   1.334  0.4774  0.6819  4.0689
  628SOL     MW 2512   2.344   1.356   1.361  0.0756  0.0487  0.8923
  629SOL     OW 2513   2.044   0.564   1.211 -0.2599  0.4110 -0.3638
  629SOL    HW1 2514   2.106   0.634   1.190 -1.0493 -1.6925  1.6223
  629SOL    HW2 2515   1.960   0.604   1.236 -0.7252 -0.1197  1.3019
  629SOL     MW 2516   2.041   0.579   1.211 -0.4255  0.0635  0.1180
  630SOL     OW 2517   2.482   1.812   3.085  0.1990 -0.3028  0.0261
  630SOL    HW1 2518   2.429   1.840   3.010 -0.7195 -0.7131 -0.8875
  630SOL    HW2 2519   2.429   1.738   3.125 -0.5387  2.5469  0.4111
  630SOL     MW 2520   2.468   1.806   3.080 -0.0195  0.0190 -0.0437
  631SOL     OW 2521   1.975   1.762   1.612  0.0204  0.6542 -0.2594
  631SOL    HW1 2522   2.004   1.680   1.665  1.7033 -0.8250  1.8162
  631SOL    HW2 2523   1.955   1.737   1.525 -0.9658  1.1304 -2.1221
  631SOL     MW 2524   1.976   1.748   1.608  0.1123  0.5218 -0.2313
  632SOL     OW 2525   0.193   2.077   1.579  0.6307  0.2331 -0.5148
  632SOL    HW1 2526   0.120   2.112   1.631  3.8007 -0.9581  0.4265
  632SOL    HW2 2527   0.152   1.997   1.540  0.6927  2.5099  0.2446
  632SOL     MW 2528   0.178   2.071   1.581  1.0571  0.3763 -0.2904
  633SOL     OW 2529   2.421   0.710   0.356  0.2011  0.5959  0.2639
  633SOL    HW1 2530   2.500   0.693   0.412  0.9507 -0.5371  0.5192
  633SOL    HW2 2531   2.380   0.617   0.366 -1.2925 -2.1752 -0.4483
  633SOL     MW 2532   2.426   0.695   0.365  0.1029  0.0808  0.2036
  634SOL     OW 2533   2.639   3.080   0.599 -0.2308 -0.1850 -0.3896
  634SOL    HW1 2534   2.684   3.165   0.614  0.9018 -1.0695  0.7926
  634SOL    HW2 2535   2.627   3.073   0.505 -0.6034 -0.3309  1.8697
  634SOL     MW 2536   2.644   3.090   0.589 -0.1305 -0.3210  0.0645
  635SOL     OW 2537   2.615   0.114   1.841 -0.6480  0.0078  0.1650
  635SOL    HW1 2538   2.681   0.084   1.777 -0.5664  1.2589 -0.2682
  635SOL    HW2 2539   2.630   0.207   1.866  2.4163  2.3222 -0.0630
  635SOL     MW 2540   2.626   0.122   1.836 -0.2329  0.4783  0.0777
  636SOL     OW 2541   2.919   1.662   1.033 -0.0062 -0.2692  0.0676
  636SOL    HW1 2542   2.838   1.701   1.002  1.1709 -0.5710  0.6984
  636SOL    HW2 2543   2.929   1.701   1.122  0.5097 -1.0377 -1.1323
  636SOL     MW 2544   2.910   1.672   1.041  0.2171 -0.4104 -0.0075
  637SOL     OW 2545   2.916   1.490   0.701 -0.2079  0.0918 -0.0552
  637SOL    HW1 2546   2.976   1.550   0.740 -1.5474 -0.9471 -0.0419
  637SOL    HW2 2547   2.829   1.502   0.737 -0.5310  0.7829  0.5441
  637SOL     MW 2548   2.913   1.499   0.711 -0.4273  0.0459  0.0256
  638SOL     OW 2549   2.669   0.673   0.500 -0.4114  0.0511  0.6176
  638SOL    HW1 2550   2.755   0.667   0.459  0.1266 -0.4173 -1.2175
  638SOL    HW2 2551   2.683   0.643   0.591 -1.2105  0.7261  1.2244
  638SOL     MW 2552   2.682   0.668   0.507 -0.4459  0.0784  0.4555
  639SOL     OW 2553   1.878   3.075   0.629 -0.7194 -0.3978 -0.1891
  639SOL    HW1 2554   1.799   3.090   0.574 -2.0646  2.2050 -1.7630
  639SOL    HW2 2555   1.947   3.056   0.566 -0.5894 -1.0576 -4.8571
  639SOL     MW 2556   1.877   3.074   0.613 -0.8798 -0.1414 -1.0126
  640SOL     OW 2557   0.390   1.370   0.103 -0.0803  0.1295 -0.4454
  640SOL    HW1 2558   0.416   1.395   0.013  1.9309 -0.2732  0.3609
  640SOL    HW2 2559   0.345   1.283   0.088 -1.8443  0.0744 -1.5127
  640SOL     MW 2560   0.388   1.362   0.089 -0.0477  0.0691 -0.4798
  641SOL     OW 2561   2.318   0.444   0.375  0.0935 -0.4951  0.0860
  641SOL    HW1 2562   2.356   0.425   0.288 -1.7532 -3.1240 -2.4115
  641SOL    HW2 2563   2.378   0.396   0.442  1.5913  0.8861  2.2531
  641SOL     MW 2564   2.331   0.435   0.373  0.0475 -0.6597  0.0424
  642SOL     OW 2565   3.085   0.017   0.485 -0.0495 -0.1617  0.2614
  642SOL    HW1 2566   3.074   0.111   0.497 -0.2506 -0.8652 -0.4553
  642SOL    HW2 2567   3.007  -0.026   0.515  0.6969 -1.4893 -0.7372
  642SOL     MW 2568   3.073   0.024   0.491  0.0225 -0.4297  0.0351
  643SOL     OW 2569   2.055   0.288   1.626 -0.4012  0.1927 -0.3426
  643SOL    HW1 2570   2.139   0.266   1.666 -0.5696  1.0206  1.2243
  643SOL    HW2 2571   2.047   0.248   1.542 -0.5856 -0.6157  1.4783
  643SOL     MW 2572   2.065   0.280   1.620 -0.4477  0.1953  0.1044
  644SOL     OW 2573   2.715   1.853   0.919 -0.2256  0.4045  0.3055
  644SOL    HW1 2574   2.655   1.842   0.997 -0.7801 -0.7281  0.5069
  644SOL    HW2 2575   2.665   1.806   0.854  0.0061 -0.5408 -0.0006
  644SOL     MW 2576   2.701   1.845   0.921 -0.2682  0.1304  0.2917
  645SOL     OW 2577   2.751   0.920   0.628 -0.2153  0.0958  0.0245
  645SOL    HW1 2578   2.801   0.893   0.704  0.8168 -1.1844  0.8625
  645SOL    HW2 2579   2.723   0.839   0.587  0.8309  0.6493  1.4822
  645SOL     MW 2580   2.754   0.906   0.632  0.0589 -0.0000  0.3274
  646SOL     OW 2581   0.117   2.315   0.884  0.6774 -0.4128 -0.4158
  646SOL    HW1 2582   0.163   2.238   0.847  2.5545 -1.6160 -1.5051
  646SOL    HW2 2583   0.063   2.327   0.803  0.1294  2.3078  2.6045
  646SOL     MW 2584   0.116   2.306   0.868  0.8528 -0.2126 -0.1610
  647SOL     OW 2585   2.745   0.574   3.006 -0.2363 -0.5450 -0.1427
  647SOL    HW1 2586   2.665   0.547   3.039 -1.4593 -1.9811  2.3918
  647SOL    HW2 2587   2.729   0.669   2.981 -1.2139  1.2174  0.0294
  647SOL     MW 2588   2.733   0.583   3.007 -0.5267 -0.5020  0.2144
  648SOL     OW 2589   2.222   0.733   1.102 -0.1935  0.0382 -0.1900
  648SOL    HW1 2590   2.210   0.772   1.019 -1.4756  1.1313 -1.2701
  648SOL    HW2 2591   2.218   0.812   1.162 -0.1789 -1.4708  2.6168
  648SOL     MW 2592   2.220   0.749   1.099 -0.3607 -0.0166  0.0378
  649SOL     OW 2593   2.363   2.681   1.197  0.0715  0.0917  0.0184
  649SOL    HW1 2594   2.436   2.737   1.224  2.2677 -0.9828  0.1052
  649SOL    HW2 2595   2.390   2.588   1.197  0.9476 -0.4984  1.1225
  649SOL     MW 2596   2.376   2.676   1.201  0.4769 -0.1279  0.1755
  650SOL     OW 2597   2.758   0.244   0.632  0.7589  0.4522 -0.4125
  650SOL    HW1 2598   2.756   0.296   0.714 -0.3586 -0.8619 -1.4615
  650SOL    HW2 2599   2.842   0.261   0.594 -0.1915  0.5475  0.8450
  650SOL     MW 2600   2.769   0.253   0.638  0.4860  0.2914 -0.3850
  651SOL     OW 2601   3.028   0.298   0.830 -1.0271  0.1781 -0.0018
  651SOL    HW1 2602   3.080   0.362   0.779 -0.2691  0.4512 -2.4773
  651SOL    HW2 2603   2.941   0.340   0.838  0.0456 -1.2468  2.8601
  651SOL     MW 2604   3.023   0.312   0.824 -0.7856  0.0262  0.0492
  652SOL     OW 2605   2.395   1.427   2.989 -0.0825 -0.1836  0.0017
  652SOL    HW1 2606   2.484   1.435   2.960  0.8077 -0.1891  1.2881
  652SOL    HW2 2607   2.344   1.500   2.951 -1.2736  0.8327  0.2111
  652SOL     MW 2608   2.400   1.438   2.980 -0.1222 -0.0503  0.1990
  653SOL     OW 2609   1.972   0.371   0.413 -0.1052 -0.2290 -0.3838
  653SOL    HW1 2610   1.970   0.298   0.349 -0.8497  0.1739  0.7099
  653SOL    HW2 2611   2.065   0.379   0.435  2.2652  1.7248 -0.8076
  653SOL     MW 2612   1.984   0.363   0.407  0.1093  0.0819 -0.2954
  654SOL     OW 2613   2.460   0.991   0.721  0.1766  0.7075 -0.4341
  654SOL    HW1 2614   2.380   0.989   0.669  0.4607 -1.1701 -0.3704
  654SOL    HW2 2615   2.487   0.902   0.738 -1.3737  1.8200 -0.8229
  654SOL     MW 2616   2.453   0.979   0.716  0.0096  0.6066 -0.4769
  655SOL     OW 2617   3.079   0.914   0.441 -0.1017 -0.3585 -0.1702
  655SOL    HW1 2618   3.111   0.977   0.506  0.3641  1.1135  0.4909
  655SOL    HW2 2619   3.081   0.831   0.480  0.8363  1.7565  1.1931
  655SOL     MW 2620   3.083   0.912   0.454  0.0835  0.1148  0.0969
  656SOL     OW 2621   1.975   2.727   1.217 -0.1389  0.4010 -0.1895
  656SOL    HW1 2622   1.984   2.817   1.244  1.0493  0.4436 -0.1861
  656SOL    HW2 2623   1.982   2.679   1.300  0.8132 -5.1932 -1.7941
  656SOL     MW 2624   1.977   2.733   1.231  0.1435 -0.3314 -0.4008
  657SOL     OW 2625   0.195   1.597   1.267 -0.1369 -0.6555 -0.2547
  657SOL    HW1 2626   0.112   1.558   1.294  1.3017  0.5149  1.3823
  657SOL    HW2 2627   0.199   1.610   1.169 -0.9202  0.5778 -1.7855
  657SOL     MW 2628   0.185   1.594   1.257 -0.0504 -0.3383 -0.2407
  658SOL     OW 2629   2.687   1.354   0.246  0.3906 -0.1556 -0.3376
  658SOL    HW1 2630   2.602   1.337   0.285 -0.4311 -0.7887 -0.5883
  658SOL    HW2 2631   2.733   1.418   0.309 -2.0445  1.6105 -2.1900
  658SOL     MW 2632   2.682   1.360   0.260 -0.0391 -0.0061 -0.6151
  659SOL     OW 2633   2.204   1.571   1.004 -0.2208 -0.1610  0.3077
  659SOL    HW1 2634   2.287   1.526   0.996  2.0522 -0.2562 -1.2337
  659SOL    HW2 2635   2.195   1.609   1.097 -0.1216  0.1528  2.5666
  659SOL     MW 2636   2.214   1.570   1.015  0.0922 -0.1321  0.4024
  660SOL     OW 2637   2.025   1.542   1.786 -0.1717 -0.8674 -0.0546
  660SOL    HW1 2638   2.059   1.576   1.872 -0.4068  0.9374 -0.2555
  660SOL    HW2 2639   2.004   1.457   1.782  1.2249  1.6440 -0.7344
  660SOL     MW 2640   2.027   1.535   1.797 -0.0185 -0.2979 -0.1708
  661SOL     OW 2641   2.335   1.061   0.132  0.0473 -0.0091  0.2001
  661SOL    HW1 2642   2.417   1.081   0.178  3.2081 -2.6905  2.2224
  661SOL    HW2 2643   2.307   0.977   0.165 -0.2984 -0.5576 -0.3197
  661SOL     MW 2644   2.342   1.052   0.142  0.4187 -0.4352  0.3984
  662SOL     OW 2645   2.551   2.989   0.866 -0.5461  0.0807  0.2852
  662SOL    HW1 2646   2.489   3.052   0.903 -1.0733  3.5919 -1.0254
  662SOL    HW2 2647   2.562   3.005   0.771  1.8720 -1.9007  0.7361
  662SOL     MW 2648   2.545   2.999   0.859 -0.2966  0.2826  0.1718
  663SOL     OW 2649   2.813   1.537   0.433 -0.0100  0.2921  0.7792
  663SOL    HW1 2650   2.895   1.562   0.394  2.7042  1.3670 -1.0461
  663SOL    HW2 2651   2.838   1.533   0.525  1.4422 -0.2580  2.4829
  663SOL     MW 2652   2.827   1.540   0.440  0.5397  0.3614  0.7631
  664SOL     OW 2653   2.456   1.592   1.630 -0.1791  0.2581 -0.4359
  664SOL    HW1 2654   2.451   1.690   1.614  1.7331  1.6999 -0.8571
  664SOL    HW2 2655   2.368   1.566   1.640  0.8700 -1.8361  1.6892
  664SOL     MW 2656   2.444   1.602   1.630  0.2116  0.1720 -0.2111
  665SOL     OW 2657   2.859   0.817   2.025 -0.1334 -0.1017 -0.2796
  665SOL    HW1 2658   2.814   0.876   1.963  0.3049 -0.2566 -1.3474
  665SOL    HW2 2659   2.943   0.791   1.989 -0.8524  1.3109  1.1872
  665SOL     MW 2660   2.864   0.822   2.012 -0.1704  0.0642 -0.2270
  666SOL     OW 2661   2.807   3.015   1.691  0.3372 -0.5793  0.2406
  666SOL    HW1 2662   2.802   3.048   1.597  0.9782 -0.8115 -0.8598
  666SOL    HW2 2663   2.747   2.938   1.689  0.1418 -0.6053  1.9474
  666SOL     MW 2664   2.798   3.009   1.678  0.3960 -0.6133  0.3206
  667SOL     OW 2665   1.926   2.669   1.700  0.1408 -0.1390 -1.2507
  667SOL    HW1 2666   1.961   2.587   1.731  0.3019  1.8424 -2.5398
  667SOL    HW2 2667   1.999   2.732   1.702 -1.1073 -0.9212 -1.2058
  667SOL     MW 2668   1.941   2.667   1.704 -0.0026  0.0192 -1.4148
  668SOL     OW 2669   2.698   0.635   0.781  0.0531  0.6016  0.5150
  668SOL    HW1 2670   2.773   0.662   0.832 -1.4574  0.2712 -2.1141
  668SOL    HW2 2671   2.623   0.679   0.818  3.1688  1.0579 -0.7890
  668SOL     MW 2672   2.698   0.644   0.792  0.2649  0.6182 -0.0040
  669SOL     OW 2673   0.145   0.936   0.728  0.0761  0.5651 -0.2719
  669SOL    HW1 2674   0.109   1.004   0.790 -0.2386  2.1095  0.4607
  669SOL    HW2 2675   0.236   0.947   0.733 -0.5252  1.2867  2.2979
  669SOL     MW 2676   0.153   0.946   0.737 -0.0448  0.8641  0.1638
  670SOL     OW 2677   2.870   0.304   0.249 -0.6520 -0.3772 -0.1801
  670SOL    HW1 2678   2.896   0.256   0.169  1.3678  2.2532 -0.0871
  670SOL    HW2 2679   2.865   0.396   0.224 -2.7177 -0.9089  3.4056
  670SOL     MW 2680   2.873   0.310   0.235 -0.6580 -0.1003  0.3052
  671SOL     OW 2681   2.155   3.076   1.601 -0.7036  0.0148  0.4096
  671SOL    HW1 2682   2.135   3.144   1.528  5.9789 -2.9812 -2.6623
  671SOL    HW2 2683   2.069   3.038   1.630  2.1989  0.7958  2.0171
  671SOL     MW 2684   2.141   3.080   1.595  0.5610 -0.2774  0.2164
  672SOL     OW 2685   1.910   1.689   1.354 -0.1721  0.3602  0.1681
  672SOL    HW1 2686   1.828   1.738   1.365  0.2668  0.9785 -1.4446
  672SOL    HW2 2687   1.940   1.717   1.265  0.8696 -0.1193 -2.7284
  672SOL     MW 2688   1.903   1.700   1.343  0.0232  0.3785 -0.4268
  673SOL     OW 2689   2.776   1.147   0.483 -0.2327 -0.5366  0.1062
  673SOL    HW1 2690   2.760   1.056   0.514 -3.5218 -2.2054  0.6628
  673SOL    HW2 2691   2.861   1.179   0.514  0.5398  2.0207  1.3041
  673SOL     MW 2692   2.785   1.139   0.491 -0.5648 -0.4194  0.3377
  674SOL     OW 2693   2.404   0.046   1.289 -0.3096 -0.3240  0.0431
  674SOL    HW1 2694   2.399   0.047   1.193 -0.1355 -1.2058  0.4179
  674SOL    HW2 2695   2.400  -0.049   1.313  0.6575 -2.4600 -1.2383
  674SOL     MW 2696   2.403   0.034   1.279 -0.1590 -0.7222 -0.0765
  675SOL     OW 2697   2.952   0.981   1.096  0.2349  0.7264  0.4175
  675SOL    HW1 2698   3.018   0.972   1.161 -1.0399 -1.9269  0.5142
  675SOL    HW2 2699   2.990   0.995   1.010  1.3578  2.1661 -3.0359
  675SOL     MW 2700   2.965   0.982   1.094  0.2149  0.5663 -0.0254
  676SOL     OW 2701   2.858   1.526   1.663 -0.2042 -0.1975 -0.7555
  676SOL    HW1 2702   2.808   1.455   1.628  0.7162 -1.5472  2.3881
  676SOL    HW2 2703   2.912   1.483   1.725 -0.4974 -2.6176 -0.1720
  676SOL     MW 2704   2.859   1.511   1.667 -0.1214 -0.6949 -0.2638
  677SOL     OW 2705   2.477   0.847   1.827  0.0645  0.3807 -0.1436
  677SOL    HW1 2706   2.434   0.789   1.768 -0.6142  3.0265  1.1539
  677SOL    HW2 2707   2.414   0.901   1.880 -1.0179 -3.5519  2.1558
  677SOL     MW 2708   2.463   0.846   1.826 -0.1679  0.2110  0.3310
  678SOL     OW 2709   2.519   1.574   0.523 -0.2633  0.3374 -0.5004
  678SOL    HW1 2710   2.445   1.623   0.485  2.0074  0.4219 -2.8042
  678SOL    HW2 2711   2.600   1.604   0.479 -1.7937  2.0662 -0.9180
  678SOL     MW 2712   2.520   1.585   0.512 -0.1656  0.5767 -0.8595
  679SOL     OW 2713   2.393   0.527   1.200  0.4722 -0.4049 -0.5139
  679SOL    HW1 2714   2.324   0.462   1.185 -0.7980 -0.0449 -1.2114
  679SOL    HW2 2715   2.364   0.605   1.154  0.8285 -0.4824  0.1656
  679SOL     MW 2716   2.380   0.529   1.192  0.3516 -0.3677 -0.5162
  680SOL     OW 2717   2.431   0.237   1.502 -0.2502  0.4391 -0.4015
  680SOL    HW1 2718   2.375   0.211   1.573  2.0010 -0.8776 -2.1666
  680SOL    HW2 2719   2.416   0.174   1.428  2.2813  3.2769  0.3054
  680SOL     MW 2720   2.422   0.225   1.501  0.3808  0.6398 -0.5411
  681SOL     OW 2721   0.282   0.499   1.540 -0.5566 -0.2407  0.6081
  681SOL    HW1 2722   0.279   0.412   1.592  0.0476 -0.5372 -0.7247
  681SOL    HW2 2723   0.374   0.515   1.521  0.7583  0.2793 -1.0167
  681SOL     MW 2724   0.294   0.489   1.544 -0.3034 -0.2112  0.2178
  682SOL     OW 2725   0.152   2.990   1.491 -1.1579  0.2319 -0.3514
  682SOL    HW1 2726   0.134   3.091   1.472  2.3625  0.7349  1.8459
  682SOL    HW2 2727   0.097   2.961   1.563 -1.8491  1.8784 -1.7102
  682SOL     MW 2728   0.142   3.000   1.498 -0.7846  0.5155 -0.2407
  683SOL     OW 2729   1.947   0.791   2.988  0.5661  0.1624 -0.7033
  683SOL    HW1 2730   1.873   0.762   2.925 -0.4820  0.0258  0.7196
  683SOL    HW2 2731   1.926   0.887   2.997 -2.1992  1.4591  1.6251
  683SOL     MW 2732   1.935   0.800   2.981  0.0629  0.3155 -0.2083
  684SOL     OW 2733   2.108   1.727   0.808 -0.0801  0.2769 -0.5597
  684SOL    HW1 2734   2.017   1.702   0.815  1.5707  0.1507 -0.4516
  684SOL    HW2 2735   2.144   1.673   0.880 -0.9101 -0.4546  0.2249
  684SOL     MW 2736   2.101   1.717   0.819  0.0282  0.1638 -0.4419
  685SOL     OW 2737   2.642   1.730   1.187 -0.1003 -0.4340  0.1283
  685SOL    HW1 2738   2.722   1.757   1.239  0.5004 -0.1040  0.4203
  685SOL    HW2 2739   2.635   1.634   1.208  0.3408 -1.2886 -0.5452
  685SOL     MW 2740   2.652   1.721   1.197  0.0372 -0.5032  0.0779
  686SOL     OW 2741   2.957   0.704   1.509  0.7130  0.2416 -0.0338
  686SOL    HW1 2742   2.981   0.684   1.600  1.6286  0.6205 -2.2453
  686SOL    HW2 2743   3.017   0.661   1.448 -1.3107  0.2849 -0.1052
  686SOL     MW 2744   2.968   0.696   1.513  0.5668  0.2973 -0.3350
  687SOL     OW 2745   2.188   0.327   1.231 -0.3313  0.0811 -0.0538
  687SOL    HW1 2746   2.178   0.271   1.153 -0.5972  0.2917 -2.5498
  687SOL    HW2 2747   2.123   0.396   1.223 -0.7151 -2.5098  0.9957
  687SOL     MW 2748   2.178   0.328   1.220 -0.4170 -0.2329 -0.2447
  688SOL     OW 2749   2.360   0.522   1.489  0.0021 -0.0416 -0.4039
  688SOL    HW1 2750   2.376   0.435   1.526  1.9973  2.4110  1.2282
  688SOL    HW2 2751   2.359   0.498   1.395 -0.6336 -2.9278  2.1552
  688SOL     MW 2752   2.362   0.507   1.481  0.1815 -0.0988  0.1491
  689SOL     OW 2753   2.569   0.782   2.968 -0.1427 -0.6650  0.3213
  689SOL    HW1 2754   2.595   0.870   2.928 -0.0258 -2.6940 -0.2682
  689SOL    HW2 2755   2.554   0.798   3.060  0.4891  3.6546 -0.2659
  689SOL     MW 2756   2.570   0.796   2.975 -0.0439 -0.3628  0.1660
  690SOL     OW 2757   2.060   1.027   1.952  0.0195 -0.0797  0.3583
  690SOL    HW1 2758   2.014   0.948   1.969 -0.8992  1.9884  2.4831
  690SOL    HW2 2759   2.101   1.019   1.867 -0.6905 -0.3756  2.2204
  690SOL     MW 2760   2.059   1.015   1.943 -0.1954  0.1541  0.8843
  691SOL     OW 2761   2.447   0.366   0.859 -0.5507 -0.5716 -0.0307
  691SOL    HW1 2762   2.531   0.411   0.838  0.5568  1.7779 -2.2767
  691SOL    HW2 2763   2.376   0.425   0.849  1.1152  0.2654  0.9815
  691SOL     MW 2764   2.449   0.379   0.855 -0.1848 -0.1512 -0.1935
  692SOL     OW 2765   2.824   1.659   1.406 -0.3363  0.1876  0.2974
  692SOL    HW1 2766   2.833   1.622   1.493 -3.2294 -0.2814  3.9375
  692SOL    HW2 2767   2.846   1.750   1.427 -1.6091 -3.4589 -0.3154
  692SOL     MW 2768   2.828   1.666   1.421 -0.8859 -0.3554  0.6969
  693SOL     OW 2769   2.322   0.455   0.088 -0.0622 -0.4681 -0.0766
  693SOL    HW1 2770   2.239   0.419   0.088  2.3520  0.1633 -0.4977
  693SOL    HW2 2771   2.294   0.543   0.060 -0.4950 -0.2928 -0.6670
  693SOL     MW 2772   2.307   0.462   0.084  0.1992 -0.3617 -0.2101
  694SOL     OW 2773   1.969   1.269   1.210  0.2153  0.5831  0.0552
  694SOL    HW1 2774   2.056   1.241   1.189 -0.7620  1.2311 -2.6601
  694SOL    HW2 2775   1.916   1.194   1.239  0.9904 -1.0382 -0.7336
  694SOL     MW 2776   1.974   1.255   1.211  0.1886  0.4547 -0.4072
  695SOL     OW 2777   3.043   1.530   1.351 -0.0235  0.2481 -0.1643
  695SOL    HW1 2778   3.026   1.495   1.263  2.1172 -0.4805 -2.3675
  695SOL    HW2 2779   2.962   1.579   1.376  0.5017  4.4332 -2.1832
  695SOL     MW 2780   3.030   1.532   1.343  0.3283  0.7042 -0.7214
  696SOL     OW 2781   2.017   1.362   0.947 -0.1615 -0.0584 -0.0961
  696SOL    HW1 2782   2.073   1.441   0.961  0.2723  0.0104  1.2847
  696SOL    HW2 2783   1.977   1.342   1.031  1.7645  3.2803  1.1098
  696SOL     MW 2784   2.019   1.370   0.960  0.1499  0.3912  0.2452
  697SOL     OW 2785   2.866   0.989   2.257 -0.0993 -0.7551 -0.1877
  697SOL    HW1 2786   2.853   1.079   2.236  0.0683 -0.2553 -0.4801
  697SOL    HW2 2787   2.870   0.935   2.174  3.3986 -2.2738 -0.5895
  697SOL     MW 2788   2.865   0.994   2.243  0.3843 -0.8896 -0.2793
  698SOL     OW 2789   2.539   0.409   3.042  0.4681  0.2393  0.5252
  698SOL    HW1 2790   2.466   0.438   3.096  1.6212  0.2780 -1.1596
  698SOL    HW2 2791   2.578   0.349   3.105 -2.1762 -1.6916  2.2822
  698SOL     MW 2792   2.535   0.405   3.057  0.2714 -0.0104  0.5347
  699SOL     OW 2793   1.833   1.624   2.044  0.0611 -0.2811  0.5086
  699SOL    HW1 2794   1.816   1.536   2.080 -0.0334  0.8263 -0.6131
  699SOL    HW2 2795   1.929   1.629   2.054  0.4275 -1.9735 -0.0428
  699SOL     MW 2796   1.844   1.613   2.050  0.0969 -0.3583  0.2879
  700SOL     OW 2797   2.712   0.884   1.552  0.5571  0.0856  0.2526
  700SOL    HW1 2798   2.747   0.956   1.493  0.0734 -0.4319 -2.9536
  700SOL    HW2 2799   2.778   0.818   1.538  1.4104  0.9807  0.2929
  700SOL     MW 2800   2.725   0.885   1.542  0.6059  0.1354 -0.1651
  701SOL     OW 2801   1.675   1.292   2.604 -0.0423 -0.2067  0.8761
  701SOL    HW1 2802   1.764   1.322   2.624  0.0533 -3.1589  1.4761
  701SOL    HW2 2803   1.620   1.341   2.672 -0.7219  1.8882  0.3554
  701SOL     MW 2804   1.679   1.303   2.615 -0.1194 -0.3198  0.8865
  702SOL     OW 2805   2.220   0.496   0.751 -0.2548 -0.5403 -0.4666
  702SOL    HW1 2806   2.207   0.418   0.706  1.4967  3.5070 -0.5335
  702SOL    HW2 2807   2.227   0.566   0.686  0.3685  0.6460 -1.0735
  702SOL     MW 2808   2.219   0.495   0.737  0.0585  0.1502 -0.5555
  703SOL     OW 2809   2.684   1.280   0.999 -0.5192 -0.4586 -0.3282
  703SOL    HW1 2810   2.709   1.269   0.904  0.7402 -0.2767 -1.5925
  703SOL    HW2 2811   2.683   1.191   1.042 -1.1442  1.7435  4.4412
  703SOL     MW 2812   2.687   1.267   0.992 -0.4355 -0.1440  0.1342
  704SOL     OW 2813   0.010   1.303   0.236 -0.0231  0.1664  0.6798
  704SOL    HW1 2814  -0.076   1.281   0.204  0.4707 -1.7666  0.2242
  704SOL    HW2 2815   0.067   1.227   0.231  3.3821 -1.6402 -1.1102
  704SOL     MW 2816   0.006   1.290   0.231  0.4913 -0.3270  0.3835
  705SOL     OW 2817   2.232   1.625   1.325 -0.0722 -0.3510  0.1678
  705SOL    HW1 2818   2.143   1.625   1.358 -1.8549  0.1183  0.8987
  705SOL    HW2 2819   2.260   1.544   1.354 -1.2299  2.1766 -1.2172
  705SOL     MW 2820   2.224   1.614   1.333 -0.4601  0.0444  0.0815
  706SOL     OW 2821   2.990   1.236   0.640  0.3794 -0.3994  0.2755
  706SOL    HW1 2822   3.063   1.257   0.588  0.3815 -1.1122  0.0051
  706SOL    HW2 2823   2.967   1.331   0.656  0.3164  3.2474 -2.0647
  706SOL     MW 2824   2.997   1.251   0.636  0.3714 -0.0123 -0.0689
  707SOL     OW 2825   2.462   0.112   1.015  0.0770  0.0591  0.0525
  707SOL    HW1 2826   2.505   0.197   0.990  0.0296  2.4561  1.4671
  707SOL    HW2 2827   2.373   0.134   0.994  0.0389  1.2101  3.2585
  707SOL     MW 2828   2.456   0.127   1.009  0.0657  0.5272  0.6621
  708SOL     OW 2829   2.550   1.533   0.096  0.3573  0.0680 -0.5931
  708SOL    HW1 2830   2.602   1.473   0.154  1.5251 -0.2977 -0.5053
  708SOL    HW2 2831   2.497   1.469   0.042 -0.4518 -2.2520 -5.4275
  708SOL     MW 2832   2.550   1.517   0.097  0.4046 -0.2864 -1.2193
  709SOL     OW 2833   1.774   1.689   0.134 -0.0849  0.4215  0.0860
  709SOL    HW1 2834   1.798   1.606   0.093  1.8361 -2.5202 -0.9419
  709SOL    HW2 2835   1.693   1.666   0.181  1.4497  2.8532  2.1329
  709SOL     MW 2836   1.767   1.675   0.135  0.3711  0.3542  0.2204
  710SOL     OW 2837   2.234   1.188   1.205  0.1274  0.3838 -0.3204
  710SOL    HW1 2838   2.255   1.175   1.116 -0.6444  1.2041  1.8706
  710SOL    HW2 2839   2.212   1.104   1.246  2.7087 -2.6357  1.4890
  710SOL     MW 2840   2.234   1.175   1.199  0.3662  0.0936  0.2074
  711SOL     OW 2841   2.329   0.143   1.754  0.6151  0.1962 -0.2226
  711SOL    HW1 2842   2.412   0.103   1.770 -0.8212  1.6676 -0.3818
  711SOL    HW2 2843   2.275   0.084   1.710  1.2043  2.7448 -0.6340
  711SOL     MW 2844   2.333   0.130   1.750  0.5033  0.7266 -0.2979
  712SOL     OW 2845   1.600   0.643   3.073 -0.0781 -0.1502 -0.2347
  712SOL    HW1 2846   1.626   0.699   2.999  1.5823 -0.5608 -1.1465
  712SOL    HW2 2847   1.525   0.687   3.115 -2.5333 -1.2005  1.9450
  712SOL     MW 2848   1.593   0.656   3.069 -0.1830 -0.3430 -0.0674
  713SOL     OW 2849   2.591   0.777   1.154  0.1387  0.1939  0.3843
  713SOL    HW1 2850   2.624   0.679   1.149 -1.8962 -1.3818 -2.1720
  713SOL    HW2 2851   2.538   0.778   1.236  2.7522  3.9151 -0.0897
  713SOL     MW 2852   2.589   0.764   1.164  0.2150  0.4770 -0.0155
  714SOL     OW 2853   2.252   0.151   2.017  0.4388  0.6997 -0.1344
  714SOL    HW1 2854   2.334   0.152   2.067  0.6702 -0.4965 -0.1631
  714SOL    HW2 2855   2.267   0.177   1.922 -0.8071 -0.1398  0.0157
  714SOL     MW 2856   2.265   0.154   2.011  0.3050  0.4311 -0.1184
  715SOL     OW 2857   1.756   1.942   1.723  0.3727  0.4652  0.5820
  715SOL    HW1 2858   1.839   1.899   1.688  0.7025  0.9275 -1.3316
  715SOL    HW2 2859   1.726   1.864   1.776 -2.2762 -2.7723 -0.5682
  715SOL     MW 2860   1.763   1.926   1.726  0.0667  0.0991  0.1777
  716SOL     OW 2861   2.221   0.713   0.594  0.9049 -0.2952  0.7125
  716SOL    HW1 2862   2.277   0.726   0.521  1.9820  1.8119  1.3697
  716SOL    HW2 2863   2.125   0.700   0.567  0.0698 -3.6447  0.8166
  716SOL     MW 2864   2.215   0.713   0.581  0.9368 -0.4592  0.8129
  717SOL     OW 2865   2.884   1.430   2.960 -0.5468 -0.1497 -0.8129
  717SOL    HW1 2866   2.977   1.436   2.959 -0.4222  0.3579  2.0908
  717SOL    HW2 2867   2.853   1.486   3.033 -1.1291  1.9818  0.0710
  717SOL     MW 2868   2.892   1.438   2.970 -0.6072  0.1985 -0.3132
  718SOL     OW 2869   2.565   1.488   1.287  0.3668 -0.1006  0.4472
  718SOL    HW1 2870   2.571   1.533   1.370 -1.5419 -0.6123 -2.4904
  718SOL    HW2 2871   2.645   1.430   1.284 -1.7693 -0.6608  0.3849
  718SOL     MW 2872   2.577   1.486   1.297 -0.1669 -0.2420  0.0514
  719SOL     OW 2873   2.146   1.330   0.684 -0.2773 -0.2399  0.3652
  719SOL    HW1 2874   2.236   1.357   0.700  1.4960 -3.6501 -1.5581
  719SOL    HW2 2875   2.098   1.326   0.767 -4.0031  2.4576  0.1110
  719SOL     MW 2876   2.151   1.333   0.697 -0.5349 -0.3339  0.0779
  720SOL     OW 2877   2.854   1.179   0.150 -0.2102  0.0801 -0.1227
  720SOL    HW1 2878   2.845   1.094   0.202  2.8084  4.0697  1.0620
  720SOL    HW2 2879   2.789   1.247   0.177 -0.5315  2.6761 -2.9060
  720SOL     MW 2880   2.844   1.177   0.160  0.1457  0.9490 -0.3336
  721SOL     OW 2881   2.467   0.779   1.401  0.2934 -0.2520 -0.6147
  721SOL    HW1 2882   2.438   0.692   1.434  1.8494  1.3456  1.2177
  721SOL    HW2 2883   2.548   0.811   1.440 -3.8697  1.1340  0.3302
  721SOL     MW 2884   2.474   0.771   1.411 -0.0506  0.1417 -0.2482
  722SOL     OW 2885   2.504   1.168   0.353  0.3113  0.4696  0.1244
  722SOL    HW1 2886   2.468   1.213   0.432  0.0200  0.7137  1.4167
  722SOL    HW2 2887   2.594   1.151   0.384  2.1623 -0.8884  1.3002
  722SOL     MW 2888   2.511   1.172   0.368  0.5171  0.3226  0.4500
  723SOL     OW 2889   2.250   1.385   1.632  0.0896  0.0077 -0.2554
  723SOL    HW1 2890   2.273   1.365   1.538  1.3883  3.2254 -1.8254
  723SOL    HW2 2891   2.160   1.413   1.634  0.0564  1.7626 -0.8343
  723SOL     MW 2892   2.241   1.386   1.620  0.2566  0.6638 -0.5390
  724SOL     OW 2893   2.497   0.366   0.574 -0.1433  0.2743 -0.5791
  724SOL    HW1 2894   2.459   0.324   0.647  2.4991 -1.7090 -0.7371
  724SOL    HW2 2895   2.573   0.315   0.552 -1.0276 -0.1035 -1.7819
  724SOL     MW 2896   2.502   0.353   0.581  0.0887 -0.0372 -0.7587
  725SOL     OW 2897   2.653   0.506   1.131  0.5173  0.3554 -0.1923
  725SOL    HW1 2898   2.689   0.504   1.224  1.8824 -2.9176  0.5904
  725SOL    HW2 2899   2.559   0.510   1.149 -0.3192  1.0321  2.2409
  725SOL     MW 2900   2.645   0.506   1.145  0.5871  0.0128  0.2320
  726SOL     OW 2901   2.568   2.397   0.558 -0.0462  0.0216 -0.2029
  726SOL    HW1 2902   2.543   2.429   0.474 -1.4406 -3.3720  1.0887
  726SOL    HW2 2903   2.524   2.448   0.623  1.6407 -2.9670  1.1559
  726SOL     MW 2904   2.559   2.408   0.555 -0.0076 -0.8205  0.1468
  727SOL     OW 2905   2.893   0.287   1.661  0.0675  0.1445  0.3890
  727SOL    HW1 2906   2.878   0.286   1.561  0.8513 -4.6962 -2.2050
  727SOL    HW2 2907   2.804   0.303   1.691  2.0427  1.5396 -1.7002
  727SOL     MW 2908   2.879   0.289   1.651  0.4315 -0.3101 -0.2289
  728SOL     OW 2909   2.787   1.153   3.003  0.6040  0.0439  0.1154
  728SOL    HW1 2910   2.825   1.232   2.973  3.4595 -0.8519  0.6786
  728SOL    HW2 2911   2.801   1.158   3.097 -1.4524 -1.6941 -2.6252
  728SOL     MW 2912   2.794   1.164   3.011  0.7094 -0.3036 -0.1719
  729SOL     OW 2913   2.468   1.460   1.004  0.0543  0.0819  0.4906
  729SOL    HW1 2914   2.490   1.484   1.096  1.8099 -0.0247  3.4160
  729SOL    HW2 2915   2.512   1.380   0.986 -1.1294  0.7664  0.7127
  729SOL     MW 2916   2.477   1.452   1.013  0.1297  0.1582  0.9059
  730SOL     OW 2917   2.071   1.185   0.179 -0.0712 -0.0931  0.2203
  730SOL    HW1 2918   2.162   1.177   0.147  1.0868  3.4857  0.6160
  730SOL    HW2 2919   2.061   1.272   0.215 -0.2620  0.5371  0.2144
  730SOL     MW 2920   2.082   1.195   0.179  0.0564  0.4623  0.2717
  731SOL     OW 2921   2.794   1.804   2.878  0.0342 -0.0980  0.0012
  731SOL    HW1 2922   2.709   1.837   2.849 -0.6136  0.8760  1.4887
  731SOL    HW2 2923   2.850   1.881   2.888 -0.2761  1.6001  2.2525
  731SOL     MW 2924   2.790   1.818   2.875 -0.0922  0.2546  0.4945
  732SOL     OW 2925   2.227   0.930   1.288 -0.0705 -0.1798  0.3304
  732SOL    HW1 2926   2.162   0.917   1.353 -1.2654 -1.0798 -1.0141
  732SOL    HW2 2927   2.301   0.969   1.345 -0.1958  3.4274  0.1786
  732SOL     MW 2928   2.228   0.933   1.304 -0.2447  0.1773  0.1330
  733SOL     OW 2929   2.377   2.845   3.015  0.0972  0.0709 -0.8674
  733SOL    HW1 2930   2.299   2.905   3.011 -2.0832  0.5041 -1.6480
  733SOL    HW2 2931   2.338   2.759   3.032 -1.2327  0.2782  2.1729
  733SOL     MW 2932   2.362   2.842   3.017 -0.3660  0.1554 -0.5692
  734SOL     OW 2933   1.507   0.386   2.536 -0.0824 -0.0248 -0.0993
  734SOL    HW1 2934   1.452   0.316   2.582  1.2553 -3.3033  1.3005
  734SOL    HW2 2935   1.554   0.337   2.471  0.6123  1.2751  3.9667
  734SOL     MW 2936   1.506   0.370   2.533  0.1857 -0.2858  0.6219
  735SOL     OW 2937   2.976   0.878   2.741 -0.5594 -0.2915 -0.4243
  735SOL    HW1 2938   2.882   0.856   2.723  0.0014 -0.5058 -2.8456
  735SOL    HW2 2939   2.985   0.945   2.809  1.8463 -0.2651 -3.5165
  735SOL     MW 2940   2.965   0.884   2.747 -0.1680 -0.3163 -1.1517
  736SOL     OW 2941   0.041   0.645   2.474  0.2416 -0.2672 -0.3980
  736SOL    HW1 2942   0.099   0.691   2.410 -1.6544  1.6894 -0.6905
  736SOL    HW2 2943   0.043   0.548   2.456  1.2176 -1.0306  1.6710
  736SOL     MW 2944   0.049   0.638   2.463  0.1202 -0.1098 -0.1636
  737SOL     OW 2945   2.883   0.623   2.556  0.2145 -0.2029 -0.0618
  737SOL    HW1 2946   2.829   0.576   2.490  1.4066 -0.3675  2.1078
  737SOL    HW2 2947   2.977   0.631   2.524  0.6072  0.3059  0.3956
  737SOL     MW 2948   2.888   0.618   2.543  0.4236 -0.1575  0.2848
  738SOL     OW 2949   0.168   0.408   1.905  0.2323  0.6668  0.0645
  738SOL    HW1 2950   0.252   0.443   1.898  0.9329 -0.3177  3.1274
  738SOL    HW2 2951   0.164   0.328   1.854 -1.3416  0.7514  1.7674
  738SOL     MW 2952   0.179   0.402   1.898  0.1171  0.5481  0.6933
  739SOL     OW 2953   2.559   1.028   2.204 -0.0275  0.0441  0.3275
  739SOL    HW1 2954   2.472   1.048   2.175 -0.3160  0.7742  0.2610
  739SOL    HW2 2955   2.606   1.057   2.125  0.0546 -0.3607 -1.2227
  739SOL     MW 2956   2.554   1.034   2.190 -0.0548  0.0870  0.1142
  740SOL     OW 2957   0.269   1.704   2.939 -0.5025  0.0090  0.3885
  740SOL    HW1 2958   0.265   1.618   2.902 -0.6262 -0.0126 -0.1989
  740SOL    HW2 2959   0.355   1.706   2.989 -0.9142  0.2675  1.3472
  740SOL     MW 2960   0.280   1.693   2.941 -0.5731  0.0403  0.4375
  741SOL     OW 2961   2.220   1.272   2.671  0.2235  0.3876  0.8906
  741SOL    HW1 2962   2.229   1.348   2.614  0.9634 -1.5469 -0.0206
  741SOL    HW2 2963   2.212   1.292   2.767 -2.7736  0.8257  2.7975
  741SOL     MW 2964   2.221   1.285   2.676 -0.0743  0.1901  1.0219
  742SOL     OW 2965   1.580   1.370   2.335  0.3410 -0.1155 -0.1806
  742SOL    HW1 2966   1.532   1.297   2.298  2.7016  1.3594  0.5777
  742SOL    HW2 2967   1.621   1.344   2.424  1.1845  2.3654  0.3146
  742SOL     MW 2968   1.579   1.357   2.342  0.7638  0.4064 -0.0153
  743SOL     OW 2969   2.489   1.208   2.698 -0.2999 -0.2640  0.1552
  743SOL    HW1 2970   2.396   1.221   2.681  1.8698  1.3725  2.4142
  743SOL    HW2 2971   2.502   1.132   2.747  0.2203 -1.1531 -1.8533
  743SOL     MW 2972   2.478   1.200   2.702  0.0550 -0.1654  0.1882
  744SOL     OW 2973   2.771   0.961   1.805  0.1684 -0.8074  0.0219
  744SOL    HW1 2974   2.702   1.022   1.846 -0.5061 -0.1909  0.6581
  744SOL    HW2 2975   2.740   0.926   1.716 -3.7890  1.0530  0.2830
  744SOL     MW 2976   2.758   0.965   1.799 -0.4427 -0.4806  0.1403
  745SOL     OW 2977   1.770   0.483   2.463 -0.8945  0.2604 -0.5022
  745SOL    HW1 2978   1.750   0.504   2.366  3.5213  0.9695  2.3371
  745SOL    HW2 2979   1.687   0.478   2.517 -1.0847  0.1284  0.2384
  745SOL     MW 2980   1.756   0.485   2.457 -0.3370  0.3366 -0.0299
  746SOL     OW 2981   1.586   1.436   1.724 -0.1761  0.1329 -0.1931
  746SOL    HW1 2982   1.630   1.517   1.739  0.2093  2.1098 -1.9264
  746SOL    HW2 2983   1.562   1.401   1.805 -1.7781 -0.0056  0.2514
  746SOL     MW 2984   1.588   1.442   1.737 -0.3366  0.3754 -0.3631
  747SOL     OW 2985   2.614   1.131   1.916 -0.1519 -0.1495 -0.5830
  747SOL    HW1 2986   2.530   1.128   1.864 -1.5142 -1.5090 -1.1196
  747SOL    HW2 2987   2.619   1.227   1.949  0.9245 -0.1421  2.6735
  747SOL     MW 2988   2.604   1.144   1.913 -0.1896 -0.3279 -0.2241
  748SOL     OW 2989   0.124   3.041   1.968 -0.4573  1.1128  0.0048
  748SOL    HW1 2990   0.213   3.080   1.959  1.4607  3.2437  0.9995
  748SOL    HW2 2991   0.086   3.116   2.009  3.2909  3.3609  0.3730
  748SOL     MW 2992   0.131   3.056   1.972  0.2903  1.6906  0.1847
  749SOL     OW 2993   2.416   0.643   2.784  0.5522  0.5834 -0.7653
  749SOL    HW1 2994   2.412   0.716   2.725 -0.2252 -2.2508  2.3658
  749SOL    HW2 2995   2.462   0.685   2.865 -1.2613  0.1350 -1.7419
  749SOL     MW 2996   2.422   0.658   2.787  0.2104  0.1503 -0.4810
  750SOL     OW 2997   2.092   3.039   1.996  0.7818 -1.2420 -0.9570
  750SOL    HW1 2998   2.154   3.120   1.999  0.9915 -0.2682 -0.3816
  750SOL    HW2 2999   2.151   2.978   1.956 -0.8548 -0.1605 -0.1142
  750SOL     MW 3000   2.108   3.041   1.991  0.5935 -0.9708 -0.7699
  751SOL     OW 3001   0.019   0.367   2.440 -0.1280 -0.3540 -0.3746
  751SOL    HW1 3002  -0.062   0.352   2.383 -3.3697  2.0564  0.8035
  751SOL    HW2 3003   0.092   0.340   2.385 -0.6720  2.4098  0.8313
  751SOL     MW 3004   0.018   0.362   2.425 -0.6275  0.3287 -0.0601
  752SOL     OW 3005   2.151   0.959   2.799 -0.2243 -0.2462  0.3741
  752SOL    HW1 3006   2.239   0.979   2.833  0.2919  2.0338  3.0800
  752SOL    HW2 3007   2.114   0.893   2.856 -0.9863 -0.7013  0.1792
  752SOL     MW 3008   2.158   0.953   2.811 -0.2568 -0.0054  0.7054
  753SOL     OW 3009   2.861   0.300   2.329  0.2232  0.1521 -0.1199
  753SOL    HW1 3010   2.825   0.207   2.338 -0.2097 -0.0248 -0.4481
  753SOL    HW2 3011   2.792   0.363   2.339  3.2878 -0.2587 -0.4125
  753SOL     MW 3012   2.847   0.296   2.331  0.5704  0.0746 -0.2018
  754SOL     OW 3013   2.254   3.012   2.613  0.5795 -0.0901  0.0639
  754SOL    HW1 3014   2.277   2.980   2.524 -3.7051 -1.2058  0.0687
  754SOL    HW2 3015   2.332   2.975   2.661  0.9818 -0.7983 -2.2244
  754SOL     MW 3016   2.267   3.003   2.607  0.0673 -0.3307 -0.2374
  755SOL     OW 3017   2.760   1.612   2.387 -0.0339  0.3539  0.4785
  755SOL    HW1 3018   2.727   1.520   2.385  0.4842 -1.4272 -1.8503
  755SOL    HW2 3019   2.772   1.626   2.482 -1.1170  0.1508 -2.0293
  755SOL     MW 3020   2.757   1.602   2.399 -0.1085  0.0921 -0.1596
  756SOL     OW 3021   2.192   1.243   2.965 -0.6694 -0.0413 -0.1428
  756SOL    HW1 3022   2.254   1.310   2.990  0.1295 -0.8564 -1.6445
  756SOL    HW2 3023   2.252   1.165   2.959 -0.5070  1.0311 -0.6215
  756SOL     MW 3024   2.208   1.242   2.967 -0.5426 -0.0073 -0.4041
  757SOL     OW 3025   2.185   0.960   1.726  0.2734 -0.2863  0.6102
  757SOL    HW1 3026   2.212   0.870   1.748  0.6541 -0.6578  1.0390
  757SOL    HW2 3027   2.116   0.966   1.652 -1.0587  1.7988  1.8736
  757SOL     MW 3028   2.179   0.949   1.719  0.1479 -0.0602  0.8335
  758SOL     OW 3029   2.187   1.837   2.535  0.3871 -0.0827  0.5542
  758SOL    HW1 3030   2.168   1.916   2.474  0.0660 -0.8664  0.2308
  758SOL    HW2 3031   2.275   1.798   2.514  0.6188 -2.1192  3.2114
  758SOL     MW 3032   2.196   1.843   2.524  0.3753 -0.4548  0.8621
  759SOL     OW 3033   1.585   1.461   2.807 -0.3196 -0.2346 -0.3143
  759SOL    HW1 3034   1.597   1.532   2.732  0.9520  1.2579 -1.2313
  759SOL    HW2 3035   1.639   1.484   2.884  1.3046  0.6423  0.4911
  759SOL     MW 3036   1.594   1.474   2.807  0.0625  0.0780 -0.3291
  760SOL     OW 3037   2.577   1.930   2.716  0.3458 -0.1781 -0.2306
  760SOL    HW1 3038   2.538   1.844   2.712  0.9561 -0.7740 -1.2009
  760SOL    HW2 3039   2.648   1.924   2.656 -1.6841  1.6062 -0.3863
  760SOL     MW 3040   2.581   1.918   2.708  0.1585 -0.0213 -0.3792
  761SOL     OW 3041   2.306   0.440   2.399 -0.4819  0.1399  0.7225
  761SOL    HW1 3042   2.214   0.410   2.417 -0.4378  1.8541 -2.3894
  761SOL    HW2 3043   2.356   0.446   2.482 -0.2755 -0.5689 -1.3039
  761SOL     MW 3044   2.300   0.437   2.412 -0.4489  0.2726  0.0445
  762SOL     OW 3045   0.023   0.187   2.126  0.1930 -0.1988 -0.3025
  762SOL    HW1 3046  -0.014   0.133   2.200 -1.0031  1.2343 -0.1001
  762SOL    HW2 3047  -0.048   0.240   2.092  0.6856  0.1156 -2.1839
  762SOL     MW 3048   0.008   0.187   2.131  0.1002  0.0318 -0.5241
  763SOL     OW 3049   2.451   1.217   2.383  0.0183  0.1355 -0.3193
  763SOL    HW1 3050   2.518   1.164   2.337 -0.7056  0.0501 -1.5374
  763SOL    HW2 3051   2.494   1.269   2.443 -0.2336  1.6129 -2.5537
  763SOL     MW 3052   2.465   1.217   2.385 -0.1104  0.3192 -0.7749
  764SOL     OW 3053   0.386   0.040   2.798 -0.1592  0.5494  0.3825
  764SOL    HW1 3054   0.351   0.111   2.754  1.3860 -0.4505  1.4187
  764SOL    HW2 3055   0.409   0.077   2.887 -0.6279  0.6689  0.3700
  764SOL     MW 3056   0.384   0.055   2.804 -0.0172  0.4332  0.5176
  765SOL     OW 3057   2.771   0.011   2.332 -0.3275 -0.1384 -0.4960
  765SOL    HW1 3058   2.740  -0.016   2.249 -0.6895 -1.4430  1.4111
  765SOL    HW2 3059   2.808  -0.067   2.372  3.1986  2.3285 -0.2144
  765SOL     MW 3060   2.772  -0.003   2.326  0.0900  0.0149 -0.2072
  766SOL     OW 3061   1.920   2.983   2.185 -0.3307 -0.6599 -0.8384
  766SOL    HW1 3062   1.976   3.012   2.117 -0.2455  3.6773  2.2415
  766SOL    HW2 3063   1.867   2.914   2.138 -2.7620  0.8874 -0.7021
  766SOL     MW 3064   1.920   2.978   2.170 -0.6403  0.1165 -0.4141
  767SOL     OW 3065   2.654   0.633   1.887  0.3510  0.3039 -0.4677
  767SOL    HW1 3066   2.702   0.660   1.965  0.8833  2.4557  1.2171
  767SOL    HW2 3067   2.596   0.704   1.863 -0.5545 -1.1067  0.6742
  767SOL     MW 3068   2.652   0.646   1.894  0.3018  0.4017 -0.0948
  768SOL     OW 3069   0.070   1.468   2.902 -0.2431 -0.2611  0.4655
  768SOL    HW1 3070   0.134   1.486   2.970  2.1726  1.5581  2.3825
  768SOL    HW2 3071   0.090   1.381   2.870  1.2847  1.7586  1.3250
  768SOL     MW 3072   0.081   1.459   2.907  0.2772  0.2454  0.8318
  769SOL     OW 3073   2.394   0.702   2.334 -0.1528  0.1728 -0.3089
  769SOL    HW1 3074   2.352   0.612   2.340  3.1521  0.8467  1.7095
  769SOL    HW2 3075   2.455   0.699   2.253  0.8574 -1.4958 -1.5947
  769SOL     MW 3076   2.397   0.690   2.324  0.4165  0.0416 -0.2123
  770SOL     OW 3077   3.095   1.579   2.674  0.2643 -0.4348 -0.0202
  770SOL    HW1 3078   3.002   1.582   2.671  0.0501  0.3702 -0.4031
  770SOL    HW2 3079   3.107   1.547   2.766  0.5559  2.0891  0.0344
  770SOL     MW 3080   3.084   1.575   2.686  0.2745  0.0044 -0.0635
  771SOL     OW 3081   3.073   0.585   1.990  0.2358  0.3438 -0.0155
  771SOL    HW1 3082   3.033   0.592   1.900  1.6055  1.8121  0.8113
  771SOL    HW2 3083   3.138   0.512   1.965 -2.7335  1.9248 -0.3753
  771SOL     MW 3084   3.076   0.576   1.975  0.0247  0.7461  0.0461
  772SOL     OW 3085   3.088   0.017   2.343  0.4133  0.1290 -0.0827
  772SOL    HW1 3086   3.023  -0.046   2.365 -0.8738 -0.8992 -0.6096
  772SOL    HW2 3087   3.155  -0.047   2.308  0.2678  2.1395 -0.6396
  772SOL     MW 3088   3.088   0.000   2.341  0.2243  0.2586 -0.2257
  773SOL     OW 3089   2.472   2.921   2.756 -0.4084  0.5356 -0.1553
  773SOL    HW1 3090   2.526   2.852   2.715  1.3351 -0.6739  1.1535
  773SOL    HW2 3091   2.436   2.881   2.840 -1.9346  1.7872  0.4252
  773SOL     MW 3092   2.474   2.906   2.762 -0.3797  0.5411  0.0939
  774SOL     OW 3093   2.380   1.161   1.750 -0.2356 -0.5159 -0.4301
  774SOL    HW1 3094   2.326   1.237   1.725 -2.3286  1.3943  1.0880
  774SOL    HW2 3095   2.329   1.082   1.742  3.4670  0.5017 -0.3130
  774SOL     MW 3096   2.366   1.160   1.745 -0.0232 -0.1296 -0.2143
  775SOL     OW 3097   2.327   2.882   2.384  0.0097 -0.4371  0.1228
  775SOL    HW1 3098   2.359   2.965   2.340 -1.0187  0.2071  0.6251
  775SOL    HW2 3099   2.397   2.818   2.387  2.7836 -1.3995 -1.5016
  775SOL     MW 3100   2.340   2.885   2.379  0.2400 -0.4791 -0.0253
  776SOL     OW 3101   0.139   1.502   0.082  0.0388 -0.4072  0.3862
  776SOL    HW1 3102   0.232   1.493   0.100  0.6599  0.8892 -0.1655
  776SOL    HW2 3103   0.095   1.429   0.131  1.2853  1.2246  2.4769
  776SOL     MW 3104   0.145   1.491   0.091  0.2852 -0.0209  0.5892
  777SOL     OW 3105   2.961   1.116   1.705 -0.0401 -0.2226  0.2466
  777SOL    HW1 3106   2.897   1.175   1.667 -5.7565  2.0342  0.5200
  777SOL    HW2 3107   2.904   1.049   1.737  1.0487 -0.4463 -2.7427
  777SOL     MW 3108   2.945   1.115   1.704 -0.6507  0.0456 -0.1117
  778SOL     OW 3109   2.927   0.502   2.825  0.0477 -0.1045 -0.7624
  778SOL    HW1 3110   2.839   0.513   2.864 -0.7110 -0.6214 -1.7595
  778SOL    HW2 3111   2.927   0.562   2.749 -0.2440  0.0892 -1.8161
  778SOL     MW 3112   2.915   0.512   2.820 -0.0909 -0.1472 -1.0329
  779SOL     OW 3113   2.221   0.525   2.110 -0.0743 -0.5747  0.2561
  779SOL    HW1 3114   2.159   0.579   2.167 -0.8930  1.0030 -1.9902
  779SOL    HW2 3115   2.262   0.467   2.171  0.2752 -2.5118  2.1718
  779SOL     MW 3116   2.218   0.524   2.125 -0.1362 -0.6221  0.2125
  780SOL     OW 3117   0.214   0.260   2.709 -0.1360 -0.1822 -0.5171
  780SOL    HW1 3118   0.117   0.264   2.709 -3.6272  1.9418 -1.0043
  780SOL    HW2 3119   0.236   0.349   2.747  2.9137  0.7402  1.7565
  780SOL     MW 3120   0.204   0.272   2.714 -0.1943  0.2197 -0.2814
  781SOL     OW 3121   0.015   1.215   2.418  0.2497  0.4188  0.3074
  781SOL    HW1 3122   0.066   1.245   2.337 -0.5760  1.4513 -1.0879
  781SOL    HW2 3123  -0.025   1.135   2.395  0.3554  1.2948  0.1102
  781SOL     MW 3124   0.016   1.209   2.404  0.1547  0.6706  0.0973
  782SOL     OW 3125   0.728   1.495   0.048 -0.2460  0.0576  0.0695
  782SOL    HW1 3126   0.649   1.554   0.021 -1.3172  1.9531 -2.8472
  782SOL    HW2 3127   0.761   1.523   0.134 -1.9709 -0.3564  0.4577
  782SOL     MW 3128   0.722   1.507   0.055 -0.6149  0.2531 -0.2641
  783SOL     OW 3129   2.695   0.513   2.365 -0.4228 -0.2145  0.3356
  783SOL    HW1 3130   2.684   0.590   2.312 -0.8778 -2.8775  0.1252
  783SOL    HW2 3131   2.623   0.505   2.427  1.2166 -0.7131 -0.3301
  783SOL     MW 3132   2.684   0.522   2.366 -0.2665 -0.6317  0.2200
  784SOL     OW 3133   0.159   0.802   2.816  0.6755  0.2444 -0.3349
  784SOL    HW1 3134   0.071   0.808   2.788  0.2335 -1.7343 -0.2056
  784SOL    HW2 3135   0.216   0.871   2.781  0.1309  1.9899  2.1687
  784SOL     MW 3136   0.155   0.812   2.807  0.5453  0.2136  0.0125
  785SOL     OW 3137   0.440   0.428   2.162 -0.5092 -0.5714 -0.2288
  785SOL    HW1 3138   0.416   0.467   2.075  0.6368 -0.3718  0.7559
  785SOL    HW2 3139   0.355   0.390   2.197  0.1060 -2.3693  1.0855
  785SOL     MW 3140   0.425   0.428   2.155 -0.2768 -0.7823  0.0745
  786SOL     OW 3141   1.873   0.499   3.041  0.2198 -0.3003  0.3684
  786SOL    HW1 3142   1.922   0.575   3.078 -2.8672 -2.1308  3.3905
  786SOL    HW2 3143   1.781   0.530   3.022  0.0213 -0.0039  0.5283
  786SOL     MW 3144   1.868   0.513   3.043 -0.2137 -0.5027  0.7882
  787SOL     OW 3145   2.391   0.194   2.916 -0.0223 -0.0900  0.1912
  787SOL    HW1 3146   2.471   0.136   2.911  2.6672 -1.4398 -0.4270
  787SOL    HW2 3147   2.435   0.279   2.933  1.7443  0.9546  1.8912
  787SOL     MW 3148   2.407   0.198   2.917  0.5656 -0.1303  0.3339
  788SOL     OW 3149   2.915   2.897   2.393 -0.1445  0.1794  0.4258
  788SOL    HW1 3150   2.988   2.863   2.450  0.3683 -1.3365  1.4830
  788SOL    HW2 3151   2.928   2.854   2.306 -1.4880  1.2232  1.5480
  788SOL     MW 3152   2.927   2.886   2.389 -0.2541  0.1171  0.7134
  789SOL     OW 3153   0.106   0.204   0.053  0.0046  0.1317 -0.4658
  789SOL    HW1 3154   0.017   0.159   0.059 -1.2452  1.9603 -0.7962
  789SOL    HW2 3155   0.077   0.274  -0.007 -0.8320 -1.9302 -0.8811
  789SOL     MW 3156   0.091   0.207   0.046 -0.2707  0.1009 -0.5642
  790SOL     OW 3157   3.037   0.959   2.473 -0.2982  0.3050  0.2482
  790SOL    HW1 3158   3.003   0.912   2.544  0.6158  1.1352 -4.1684
  790SOL    HW2 3159   2.961   0.954   2.408  1.0673  0.9504 -0.6275
  790SOL     MW 3160   3.023   0.952   2.474  0.0026  0.4997 -0.4501
  791SOL     OW 3161   2.531   0.500   2.579  0.3835 -0.3601  0.2139
  791SOL    HW1 3162   2.507   0.556   2.658  0.0805  1.0839 -0.8930
  791SOL    HW2 3163   2.557   0.417   2.615  2.4501 -0.1587 -3.0253
  791SOL     MW 3164   2.531   0.496   2.594  0.6162 -0.1430 -0.3595
  792SOL     OW 3165   2.479   0.219   2.449 -0.4001 -0.3036  0.0848
  792SOL    HW1 3166   2.416   0.291   2.431 -0.3726  0.1521  2.1877
  792SOL    HW2 3167   2.433   0.186   2.526  0.0145 -1.8960  1.3206
  792SOL     MW 3168   2.465   0.224   2.456 -0.3418 -0.4536  0.5253
  793SOL     OW 3169   1.817   1.126   2.046 -0.7567 -0.4161 -0.4080
  793SOL    HW1 3170   1.782   1.122   1.960 -0.9833 -0.7146  0.5688
  793SOL    HW2 3171   1.910   1.103   2.029 -1.4982  1.5552  0.1097
  793SOL     MW 3172   1.825   1.122   2.032 -0.8845 -0.1954 -0.2108
  794SOL     OW 3173   1.370   2.308   0.112  0.0553  0.2541 -0.4027
  794SOL    HW1 3174   1.405   2.393   0.069  1.4871 -0.4421  3.6605
  794SOL    HW2 3175   1.426   2.297   0.186  1.7263  0.4099  0.7163
  794SOL     MW 3176   1.382   2.318   0.116  0.4647  0.1828  0.2810
  795SOL     OW 3177   2.281   1.044   2.511 -0.1561  0.6379  0.0436
  795SOL    HW1 3178   2.248   1.095   2.584  0.5781 -1.4047  1.2293
  795SOL    HW2 3179   2.350   1.102   2.478  3.3806  3.8104  0.1145
  795SOL     MW 3180   2.285   1.059   2.516  0.4074  0.7870  0.2094
  796SOL     OW 3181   0.248   0.597   2.683 -0.1484 -0.0829  0.2658
  796SOL    HW1 3182   0.219   0.674   2.731  0.5825  1.5357 -1.2309
  796SOL    HW2 3183   0.178   0.592   2.616  1.0781  0.4835 -3.3411
  796SOL     MW 3184   0.235   0.606   2.680  0.1098  0.2054 -0.4076
  797SOL     OW 3185   2.752   0.218   2.649 -0.4604 -0.0003 -0.5731
  797SOL    HW1 3186   2.723   0.183   2.568  1.9567  0.7502  2.0285
  797SOL    HW2 3187   2.842   0.193   2.650 -2.2334 -0.8238 -0.6477
  797SOL     MW 3188   2.760   0.210   2.639 -0.3754 -0.0099 -0.2397
  798SOL     OW 3189   2.414   0.004   2.279  0.5553  0.3455  0.0190
  798SOL    HW1 3190   2.441   0.079   2.342 -0.0435 -1.4825  0.7608
  798SOL    HW2 3191   2.486  -0.003   2.216 -0.9316  1.2497 -2.4812
  798SOL     MW 3192   2.427   0.013   2.279  0.2801  0.2236 -0.2130
  799SOL     OW 3193   2.571   3.037   0.081 -0.3421  0.5935  0.2710
  799SOL    HW1 3194   2.494   2.993   0.044 -2.0538  0.6777 -2.4813
  799SOL    HW2 3195   2.559   3.036   0.182  1.6747 -1.1000  1.1051
  799SOL     MW 3196   2.559   3.031   0.089 -0.3018  0.3812  0.0179
  800SOL     OW 3197   1.952   2.994   1.737  0.0128 -0.0561  0.2161
  800SOL    HW1 3198   1.873   2.944   1.761 -0.2189 -2.2650 -2.0430
  800SOL    HW2 3199   1.977   3.028   1.822  1.1430  0.8555  1.7136
  800SOL     MW 3200   1.945   2.992   1.751  0.1314 -0.2273  0.1157
  801SOL     OW 3201   2.895   1.245   2.598 -0.0584 -0.5208  0.3158
  801SOL    HW1 3202   2.917   1.153   2.616  2.7876 -1.9115  1.0955
  801SOL    HW2 3203   2.953   1.272   2.527  0.8496  0.2165  1.0274
  801SOL     MW 3204   2.905   1.236   2.591  0.4369 -0.6070  0.5125
  802SOL     OW 3205   2.640   1.420   2.818 -0.0667  0.2899 -0.1589
  802SOL    HW1 3206   2.590   1.339   2.779 -1.5631  4.0682 -0.0752
  802SOL    HW2 3207   2.732   1.394   2.846  3.3461 -1.8213  0.5863
  802SOL     MW 3208   2.646   1.406   2.816  0.1861  0.5098 -0.0495
  803SOL     OW 3209   2.332   1.418   1.996 -0.4056  0.1094  0.3334
  803SOL    HW1 3210   2.299   1.363   2.062  0.2977  0.1018 -2.2972
  803SOL    HW2 3211   2.315   1.379   1.910 -1.5622  2.5011 -0.2658
  803SOL     MW 3212   2.325   1.406   1.993 -0.4654  0.4239 -0.0928
  804SOL     OW 3213   2.256   0.129   0.045  0.4976  0.6900 -0.0969
  804SOL    HW1 3214   2.177   0.176   0.042 -1.0625 -1.7415 -0.5889
  804SOL    HW2 3215   2.310   0.157  -0.028  0.1102 -1.5052  2.1745
  804SOL     MW 3216   2.252   0.139   0.035  0.2406  0.0796  0.1378
  805SOL     OW 3217   2.710   0.816   2.648 -0.0978  0.2677 -0.0311
  805SOL    HW1 3218   2.616   0.823   2.621 -0.3008  1.0923 -1.1946
  805SOL    HW2 3219   2.762   0.759   2.594  3.0834  3.3323 -1.6261
  805SOL     MW 3220   2.704   0.810   2.637  0.2952  0.7808 -0.3950
  806SOL     OW 3221   2.675   0.735   2.194  0.3214 -0.4048  0.2334
  806SOL    HW1 3222   2.753   0.750   2.141  2.0091  2.6221  1.7112
  806SOL    HW2 3223   2.637   0.820   2.212  0.2174 -1.4490 -0.2629
  806SOL     MW 3224   2.680   0.748   2.189  0.5304 -0.1432  0.3629
  807SOL     OW 3225   3.081   1.084   2.035  0.7795  0.5434  0.7203
  807SOL    HW1 3226   3.126   0.999   2.050  3.4406  1.0010 -0.8456
  807SOL    HW2 3227   2.982   1.070   2.030  1.1819  1.6720 -2.4646
  807SOL     MW 3228   3.074   1.071   2.036  1.1837  0.7527  0.0935
  808SOL     OW 3229   2.617   0.059   2.823 -0.0358 -0.1296 -0.1184
  808SOL    HW1 3230   2.559  -0.009   2.785  1.0672 -1.1053  0.4422
  808SOL    HW2 3231   2.659   0.111   2.760 -3.1479 -4.7852  0.2556
  808SOL     MW 3232   2.615   0.057   2.810 -0.3009 -0.8726  0.0049
  809SOL     OW 3233   2.682   1.356   2.430 -0.2041 -0.2384 -0.2594
  809SOL    HW1 3234   2.739   1.328   2.504 -0.5989  1.3482 -1.9236
  809SOL    HW2 3235   2.733   1.317   2.359 -1.6419 -0.3301 -0.0434
  809SOL     MW 3236   2.696   1.347   2.430 -0.4459 -0.0412 -0.4504
  810SOL     OW 3237   2.242   1.298   2.234  0.0272  0.2591  0.6697
  810SOL    HW1 3238   2.316   1.268   2.288  0.0394 -2.2577 -1.2824
  810SOL    HW2 3239   2.182   1.224   2.230  0.7732 -1.4329  1.7730
  810SOL     MW 3240   2.244   1.284   2.241  0.1272 -0.2962  0.5577
  811SOL     OW 3241   1.629   0.190   2.269  0.0284 -0.4122  0.5115
  811SOL    HW1 3242   1.730   0.191   2.279  0.4692 -1.3255  0.7802
  811SOL    HW2 3243   1.616   0.194   2.169 -1.3332 -0.6590 -1.8887
  811SOL     MW 3244   1.641   0.191   2.257 -0.0931 -0.5653  0.2303
  812SOL     OW 3245   1.485   2.804   2.049  0.3086  0.4186 -0.2489
  812SOL    HW1 3246   1.580   2.813   2.054 -1.0159  2.9139  0.7894
  812SOL    HW2 3247   1.459   2.769   2.137  0.3678 -2.3614 -0.7302
  812SOL     MW 3248   1.494   2.800   2.061  0.1416  0.3810 -0.1754
  813SOL     OW 3249   2.011   0.631   2.250  0.7320 -0.0030  0.2101
  813SOL    HW1 3250   1.940   0.567   2.215 -1.1292 -0.5895 -1.4716
  813SOL    HW2 3251   1.959   0.686   2.306  3.2776 -0.6799 -1.3277
  813SOL     MW 3252   1.995   0.630   2.253  0.8223 -0.1697 -0.2147
  814SOL     OW 3253   2.707   1.289   1.638  0.3471 -0.1008 -0.3540
  814SOL    HW1 3254   2.671   1.285   1.726 -2.7435 -0.2828  0.4371
  814SOL    HW2 3255   2.659   1.221   1.592 -4.2651  2.6647  0.3914
  814SOL     MW 3256   2.696   1.279   1.644 -0.6692  0.2401 -0.1513
  815SOL     OW 3257   2.539   1.761   2.386 -0.1961  0.1571  0.5478
  815SOL    HW1 3258   2.491   1.698   2.325 -2.0374 -0.8445 -1.9972
  815SOL    HW2 3259   2.631   1.728   2.389 -0.2993 -1.4500  2.3082
  815SOL     MW 3260   2.544   1.748   2.378 -0.4526 -0.1871  0.4443
  816SOL     OW 3261   0.717   0.688   2.797  0.3000 -0.1128  0.5267
  816SOL    HW1 3262   0.719   0.598   2.814 -0.1188  2.9521 -2.0855
  816SOL    HW2 3263   0.644   0.689   2.735  3.3680 -3.4499  2.7217
  816SOL     MW 3264   0.708   0.676   2.791  0.6495 -0.1487  0.4716
  817SOL     OW 3265   2.995   1.266   1.444 -0.3278 -0.3548 -0.1119
  817SOL    HW1 3266   3.079   1.218   1.454  0.2818  0.1197  0.5845
  817SOL    HW2 3267   3.014   1.347   1.402  3.2794  1.0487  1.0224
  817SOL     MW 3268   3.009   1.271   1.440  0.2286 -0.1070  0.1296
  818SOL     OW 3269   1.941   1.044   2.644  0.5664 -0.3339  0.1586
  818SOL    HW1 3270   1.928   1.020   2.546 -0.2502  2.2694  0.2791
  818SOL    HW2 3271   2.030   1.013   2.657 -2.4594 -2.1360 -0.7007
  818SOL     MW 3272   1.951   1.036   2.633  0.0594 -0.2282  0.0611
  819SOL     OW 3273   2.030   0.340   2.433 -0.7268  0.6001  0.3122
  819SOL    HW1 3274   1.948   0.386   2.417 -2.0670 -2.0513  1.6836
  819SOL    HW2 3275   2.019   0.316   2.520  0.7115  0.1512 -1.7962
  819SOL     MW 3276   2.018   0.343   2.442 -0.7138  0.1911  0.2149
  820SOL     OW 3277   2.485   1.683   2.649  0.0319  0.2405  0.8603
  820SOL    HW1 3278   2.544   1.619   2.690 -0.2707  0.0008  1.0514
  820SOL    HW2 3279   2.514   1.693   2.560  0.6008  0.1081  1.5939
  820SOL     MW 3280   2.497   1.676   2.643  0.0670  0.1914  0.9823
  821SOL     OW 3281   2.619   1.385   2.019 -0.1825  0.1761 -1.0818
  821SOL    HW1 3282   2.633   1.466   1.972  0.2941  1.3755 -0.3090
  821SOL    HW2 3283   2.521   1.393   2.045 -1.0703 -0.7642  0.9576
  821SOL     MW 3284   2.608   1.396   2.016 -0.2368  0.2103 -0.7108
  822SOL     OW 3285   2.948   2.713   1.512 -0.0456  0.0690  0.3144
  822SOL    HW1 3286   2.934   2.702   1.610 -0.5917  0.3436 -2.6603
  822SOL    HW2 3287   2.914   2.800   1.489 -0.1219  1.4742 -0.3988
  822SOL     MW 3288   2.942   2.723   1.522 -0.1277  0.2906 -0.1722
  823SOL     OW 3289   2.376   0.464   1.870 -0.2375  0.1290 -0.5711
  823SOL    HW1 3290   2.453   0.400   1.877 -1.3778 -0.2791  0.0312
  823SOL    HW2 3291   2.342   0.467   1.959  0.7402 -1.2213  1.6555
  823SOL     MW 3292   2.382   0.456   1.883 -0.2590 -0.1030 -0.1978
  824SOL     OW 3293   2.271   1.516   2.527  0.3478 -0.6316  0.7600
  824SOL    HW1 3294   2.330   1.562   2.585 -0.8977 -1.0974  1.1109
  824SOL    HW2 3295   2.190   1.556   2.547  1.7518 -2.8695  2.3727
  824SOL     MW 3296   2.268   1.527   2.538  0.3687 -0.9883  1.0191
  825SOL     OW 3297   1.901   2.627   0.229 -0.1569  0.0120 -0.2087
  825SOL    HW1 3298   1.837   2.583   0.276  1.1135 -2.6027  1.5180
  825SOL    HW2 3299   1.950   2.562   0.178 -4.9129 -0.1428  2.1011
  825SOL     MW 3300   1.899   2.612   0.228 -0.6168 -0.3534  0.3239
  826SOL     OW 3301   1.840   2.320   0.430 -0.4986 -0.6218  1.0146
  826SOL    HW1 3302   1.786   2.279   0.498 -0.6791  0.4220 -0.7926
  826SOL    HW2 3303   1.903   2.382   0.465  2.0437  0.4268  2.3392
  826SOL     MW 3304   1.841   2.323   0.444 -0.1870 -0.3457  0.9509
  827SOL     OW 3305   1.975   2.183   0.739  0.1680  0.2391  0.0648
  827SOL    HW1 3306   1.881   2.207   0.719 -1.2989  1.0966 -2.2452
  827SOL    HW2 3307   1.978   2.136   0.825 -0.6829 -0.8323 -2.5951
  827SOL     MW 3308   1.963   2.180   0.748 -0.1378  0.2109 -0.5910
  828SOL     OW 3309   0.042   2.626   0.610 -0.0488 -0.3442 -0.0832
  828SOL    HW1 3310   0.134   2.641   0.621  0.1079  0.1737  0.4435
  828SOL    HW2 3311   0.028   2.667   0.523  1.3062 -2.6301 -1.3602
  828SOL     MW 3312   0.052   2.633   0.600  0.1507 -0.5775 -0.1822
  829SOL     OW 3313   2.982   2.978   1.181  0.4623 -0.0187 -0.3983
  829SOL    HW1 3314   2.927   2.984   1.110  1.5425  0.1100 -0.5990
  829SOL    HW2 3315   2.997   2.887   1.188  0.7716 -2.0584  1.9559
  829SOL     MW 3316   2.977   2.967   1.173  0.6456 -0.2708 -0.1142
  830SOL     OW 3317   2.536   2.833   2.005 -0.0357 -0.2604  0.2257
  830SOL    HW1 3318   2.445   2.847   1.984  0.1053  2.6571  1.3740
  830SOL    HW2 3319   2.566   2.804   1.916 -1.3161 -0.0704 -1.1848
  830SOL     MW 3320   2.528   2.831   1.991 -0.1860  0.1496  0.1911
  831SOL     OW 3321   2.415   2.409   1.228 -0.1610  0.1546  0.0469
  831SOL    HW1 3322   2.371   2.350   1.287  0.2019 -2.4769 -0.3319
  831SOL    HW2 3323   2.506   2.390   1.242 -2.3829 -1.3628  1.2475
  831SOL     MW 3324   2.421   2.399   1.238 -0.4063 -0.3928  0.1553
  832SOL     OW 3325   2.303   2.183   1.828  0.3111  0.0136 -0.1928
  832SOL    HW1 3326   2.348   2.269   1.859  2.6742 -0.2117 -0.1866
  832SOL    HW2 3327   2.377   2.131   1.790  2.6623  1.1341 -0.3300
  832SOL     MW 3328   2.319   2.187   1.827  0.9331  0.1317 -0.2101
  833SOL     OW 3329   1.720   2.509   0.891  0.0885  0.1356  0.2428
  833SOL    HW1 3330   1.637   2.545   0.876  0.0497 -0.1217 -0.4804
  833SOL    HW2 3331   1.748   2.563   0.966  0.5291 -3.1637 -3.1696
  833SOL     MW 3332   1.713   2.520   0.899  0.1415 -0.3337 -0.3028
  834SOL     OW 3333   2.122   2.445   0.557 -0.3210  0.1592  0.2089
  834SOL    HW1 3334   2.126   2.375   0.618 -0.1505  0.8581 -0.9837
  834SOL    HW2 3335   2.150   2.405   0.472 -0.4687 -1.6906 -1.0669
  834SOL     MW 3336   2.126   2.430   0.553 -0.3179  0.0074 -0.1168
  835SOL     OW 3337   1.822   2.581   0.620 -0.4886  0.4856 -0.4300
  835SOL    HW1 3338   1.771   2.552   0.689  0.3492 -0.9774 -1.5770
  835SOL    HW2 3339   1.899   2.628   0.660 -0.1714 -2.1643 -0.7793
  835SOL     MW 3340   1.825   2.583   0.634 -0.3362 -0.0570 -0.6274
  836SOL     OW 3341   1.894   2.243   1.559 -0.3813  0.2059  0.3326
  836SOL    HW1 3342   1.982   2.223   1.586  0.8367  1.0202  0.2178
  836SOL    HW2 3343   1.854   2.301   1.622 -1.0642 -1.5044 -1.2837
  836SOL     MW 3344   1.901   2.248   1.571 -0.3107  0.0877  0.1042
  837SOL     OW 3345   2.169   0.233   0.730  0.3024 -0.2407 -0.0922
  837SOL    HW1 3346   2.084   0.229   0.686 -1.4793 -0.7514 -0.3946
  837SOL    HW2 3347   2.223   0.182   0.666  0.3841  1.1395 -0.1883
  837SOL     MW 3348   2.165   0.226   0.715  0.0781 -0.1260 -0.1448
  838SOL     OW 3349   2.935   2.076   0.946 -0.2318 -0.4149 -0.0447
  838SOL    HW1 3350   2.868   2.011   0.930 -1.4362  3.5854  0.6504
  838SOL    HW2 3351   3.019   2.030   0.939 -1.6727  0.0964  1.4557
  838SOL     MW 3352   2.937   2.061   0.943 -0.5808  0.1804  0.2450
  839SOL     OW 3353   1.515   2.361   1.046 -0.2049  0.1709 -0.0713
  839SOL    HW1 3354   1.563   2.413   1.108  1.8417  1.1153 -3.3866
  839SOL    HW2 3355   1.538   2.273   1.079 -0.5639  2.4362  0.5623
  839SOL     MW 3356   1.525   2.357   1.058  0.0178  0.5944 -0.4251
  840SOL     OW 3357   2.387   2.250   2.418 -0.5007  0.3215 -0.2126
  840SOL    HW1 3358   2.343   2.314   2.370  1.5181 -1.2441  0.1918
  840SOL    HW2 3359   2.357   2.257   2.513  1.1377 -1.4527  3.4346
  840SOL     MW 3360   2.377   2.260   2.424 -0.0182 -0.1191  0.3219
  841SOL     OW 3361   2.077   2.483   0.089 -0.3597 -0.7215 -0.3417
  841SOL    HW1 3362   2.143   2.542   0.047  0.7334 -2.6310 -0.2518
  841SOL    HW2 3363   2.072   2.396   0.043 -0.3232  0.2664  0.2666
  841SOL     MW 3364   2.085   2.479   0.078 -0.2106 -0.8431 -0.2496
  842SOL     OW 3365   2.660   2.083   1.546 -0.4429 -0.4868 -0.2179
  842SOL    HW1 3366   2.617   2.073   1.634 -1.1725 -0.9431 -1.5004
  842SOL    HW2 3367   2.601   2.069   1.476  1.3298  1.2951 -0.7282
  842SOL     MW 3368   2.646   2.080   1.548 -0.3053 -0.3119 -0.4545
  843SOL     OW 3369   2.671   2.763   1.770  0.2782  0.2618 -0.1226
  843SOL    HW1 3370   2.756   2.723   1.763 -0.5691 -0.4496 -0.7024
  843SOL    HW2 3371   2.611   2.719   1.706  1.3576 -0.9977  4.4319
  843SOL     MW 3372   2.674   2.752   1.761  0.3088  0.0018  0.4019
  844SOL     OW 3373   2.708   2.332   1.228 -0.3670  0.3434 -0.3276
  844SOL    HW1 3374   2.742   2.349   1.141  1.5154 -0.3580 -0.9951
  844SOL    HW2 3375   2.738   2.423   1.266  1.5976  1.5744  1.8177
  844SOL     MW 3376   2.717   2.346   1.222  0.1406  0.4133 -0.1326
  845SOL     OW 3377   2.860   2.472   0.346 -0.0881  0.4059 -0.1013
  845SOL    HW1 3378   2.816   2.382   0.349 -0.6733  0.0623 -0.4403
  845SOL    HW2 3379   2.831   2.505   0.430 -1.8721 -1.6709 -1.2383
  845SOL     MW 3380   2.851   2.465   0.358 -0.4007  0.0866 -0.2961
  846SOL     OW 3381   1.529   2.881   0.749  0.1393 -0.1395 -0.3907
  846SOL    HW1 3382   1.573   2.912   0.833  2.7417  1.3002 -0.2959
  846SOL    HW2 3383   1.439   2.910   0.748  2.7588  3.4673  0.3042
  846SOL     MW 3384   1.523   2.889   0.760  0.8283  0.5263 -0.2865
  847SOL     OW 3385   2.624   1.997   0.186 -0.1082  0.3518  0.1317
  847SOL    HW1 3386   2.691   1.946   0.233  0.2125 -0.7045 -0.2430
  847SOL    HW2 3387   2.597   1.934   0.124 -2.1645 -2.4391  0.2557
  847SOL     MW 3388   2.629   1.982   0.184 -0.3372 -0.1558  0.0986
  848SOL     OW 3389   2.528   2.104   1.293  0.3223  0.6170  0.5760
  848SOL    HW1 3390   2.596   2.167   1.258 -0.2914  1.6024 -1.9968
  848SOL    HW2 3391   2.542   2.016   1.258  0.4172  3.2662 -0.0889
  848SOL     MW 3392   2.539   2.101   1.284  0.2538  1.0966  0.1488
  849SOL     OW 3393   2.025   2.679   0.780 -0.3046  0.1878  0.6177
  849SOL    HW1 3394   2.028   2.591   0.816 -1.3911  2.8017 -2.9915
  849SOL    HW2 3395   2.095   2.687   0.711 -1.4591 -2.4930  0.1795
  849SOL     MW 3396   2.035   2.668   0.776 -0.6002  0.1790  0.0837
  850SOL     OW 3397   2.206   1.914   1.713 -0.5226  0.1900 -0.3969
  850SOL    HW1 3398   2.132   1.854   1.699  0.4729 -0.5270  0.9695
  850SOL    HW2 3399   2.181   1.998   1.673  0.1627  2.2503  0.2356
  850SOL     MW 3400   2.193   1.917   1.706 -0.3008  0.3672 -0.1331
  851SOL     OW 3401   2.272   2.382   0.320 -0.6331 -0.3371  0.3335
  851SOL    HW1 3402   2.231   2.405   0.238  0.5121  2.6617 -1.0360
  851SOL    HW2 3403   2.332   2.454   0.349 -0.9507 -1.4378 -0.3258
  851SOL     MW 3404   2.274   2.394   0.313 -0.5239 -0.0867  0.0658
  852SOL     OW 3405   2.354   2.100   0.290  0.0189 -0.0775  0.2688
  852SOL    HW1 3406   2.345   2.197   0.303 -0.2922 -1.4924 -0.0473
  852SOL    HW2 3407   2.421   2.091   0.223 -0.1908  0.4808 -0.0890
  852SOL     MW 3408   2.361   2.112   0.283 -0.0498 -0.1905  0.1799
  853SOL     OW 3409   2.436   2.425   1.887  0.2208 -0.4436  0.9120
  853SOL    HW1 3410   2.452   2.472   1.803  0.9876  1.7422  0.6747
  853SOL    HW2 3411   2.525   2.414   1.921 -0.0688 -0.2839 -3.7008
  853SOL     MW 3412   2.450   2.430   1.880  0.2838 -0.1341  0.2721
  854SOL     OW 3413   2.833   2.239   0.739  0.6027 -0.2070 -0.1869
  854SOL    HW1 3414   2.787   2.183   0.675 -0.1429 -0.7060  0.0119
  854SOL    HW2 3415   2.898   2.183   0.785  2.2637  0.4266 -1.4444
  854SOL     MW 3416   2.835   2.224   0.737  0.7235 -0.1892 -0.3266
  855SOL     OW 3417   2.717   2.250   0.358 -0.2640  0.1869 -0.2133
  855SOL    HW1 3418   2.649   2.243   0.421  1.9460 -1.9292 -3.0492
  855SOL    HW2 3419   2.788   2.186   0.383  0.4429 -0.0446 -0.3086
  855SOL     MW 3420   2.718   2.241   0.369  0.1209 -0.1228 -0.6000
  856SOL     OW 3421   2.200   1.883   0.183  0.0952  0.4082 -0.5302
  856SOL    HW1 3422   2.107   1.905   0.208  0.9635  0.2352  0.0908
  856SOL    HW2 3423   2.258   1.951   0.218  3.0035 -1.2306  0.9011
  856SOL     MW 3424   2.195   1.894   0.191  0.5935  0.1691 -0.2594
  857SOL     OW 3425   2.467   1.899   0.442  0.3047  0.0262  0.3521
  857SOL    HW1 3426   2.446   1.978   0.384  0.8521  1.4708 -2.6492
  857SOL    HW2 3427   2.392   1.843   0.436  0.7872  0.8575  1.8860
  857SOL     MW 3428   2.454   1.902   0.434  0.4406  0.3264  0.1585
  858SOL     OW 3429   2.930   2.679   1.780 -0.1073 -0.3817 -0.1267
  858SOL    HW1 3430   3.028   2.681   1.804 -0.2270 -0.2183 -2.3528
  858SOL    HW2 3431   2.899   2.592   1.803 -1.4658 -0.9986 -1.9819
  858SOL     MW 3432   2.939   2.667   1.786 -0.3023 -0.4416 -0.6652
  859SOL     OW 3433   2.072   2.415   0.890  0.5441  0.0202  0.2990
  859SOL    HW1 3434   2.043   2.332   0.853  0.1280 -0.0823 -0.7340
  859SOL    HW2 3435   2.163   2.402   0.915 -1.6067  3.2708 -0.7111
  859SOL     MW 3436   2.080   2.402   0.888  0.2054  0.4356  0.0294
  860SOL     OW 3437   2.673   2.582   0.173  0.0960  0.3958  0.4147
  860SOL    HW1 3438   2.738   2.551   0.229 -0.0380  2.5238 -0.0535
  860SOL    HW2 3439   2.701   2.669   0.141 -0.0901 -0.8584  0.4608
  860SOL     MW 3440   2.685   2.589   0.176  0.0538  0.5111  0.3590
  861SOL     OW 3441   1.634   2.082   1.177 -0.2323 -0.3650 -0.4130
  861SOL    HW1 3442   1.703   2.088   1.250  2.5678  1.1352 -2.2763
  861SOL    HW2 3443   1.556   2.034   1.216 -0.0603 -0.3878  0.6938
  861SOL     MW 3444   1.632   2.077   1.192  0.1599 -0.1701 -0.5128
  862SOL     OW 3445   2.445   1.850   1.571 -0.1389 -0.1268  0.4133
  862SOL    HW1 3446   2.364   1.883   1.616  0.4683 -1.0885 -0.3166
  862SOL    HW2 3447   2.425   1.856   1.475 -1.0593  2.4345 -0.2388
  862SOL     MW 3448   2.432   1.855   1.564 -0.1802  0.0843  0.2309
  863SOL     OW 3449   3.008   1.805   1.239  0.1557 -0.5607 -0.3624
  863SOL    HW1 3450   3.056   1.740   1.290  0.2183 -1.7572 -1.7635
  863SOL    HW2 3451   3.020   1.891   1.269 -0.1601 -2.8894  1.7009
  863SOL     MW 3452   3.016   1.808   1.250  0.1223 -1.0258 -0.2751
  864SOL     OW 3453   0.063   1.875   0.920  0.3598  0.2073 -0.1596
  864SOL    HW1 3454   0.007   1.828   0.984  0.8636 -1.7674  2.3709
  864SOL    HW2 3455   0.083   1.817   0.852 -0.1475  0.2983 -0.4546
  864SOL     MW 3456   0.058   1.861   0.920  0.3593 -0.0412  0.1354
  865SOL     OW 3457   2.473   2.179   0.044  0.2376  0.0924 -0.3712
  865SOL    HW1 3458   2.537   2.127   0.086 -0.9787 -0.8784  0.3024
  865SOL    HW2 3459   2.452   2.121  -0.026  0.8461  0.4774  3.3269
  865SOL     MW 3460   2.479   2.165   0.040  0.1574  0.0151  0.2056
  866SOL     OW 3461   2.728   2.354   1.558  0.1992 -0.1842  0.6979
  866SOL    HW1 3462   2.714   2.257   1.562  2.8420 -0.0330  0.8162
  866SOL    HW2 3463   2.767   2.366   1.476  1.2507  0.1104  2.6819
  866SOL     MW 3464   2.731   2.343   1.548  0.6866 -0.1254  0.9753
  867SOL     OW 3465   0.098   2.711   1.854 -0.0802  0.5924  0.1437
  867SOL    HW1 3466   0.161   2.691   1.923  0.9012 -3.6585 -0.7265
  867SOL    HW2 3467   0.130   2.778   1.798 -0.1972 -1.2832 -1.9967
  867SOL     MW 3468   0.111   2.717   1.856  0.0339 -0.2160 -0.2535
  868SOL     OW 3469   2.776   2.564   0.589  0.4007 -0.3246 -0.5783
  868SOL    HW1 3470   2.709   2.498   0.586 -0.0600  1.4579  1.7522
  868SOL    HW2 3471   2.748   2.636   0.535  3.2526  0.4323  0.3248
  868SOL     MW 3472   2.764   2.565   0.581  0.7162  0.0104 -0.1517
  869SOL     OW 3473   1.897   2.321   1.102 -0.1177  0.4437  0.1029
  869SOL    HW1 3474   1.942   2.393   1.065 -0.1105 -0.2958  0.1450
  869SOL    HW2 3475   1.823   2.315   1.036  0.9123  1.6926  0.5176
  869SOL     MW 3476   1.893   2.330   1.089  0.0191  0.5109  0.1632
  870SOL     OW 3477   2.322   0.116   0.537 -0.3195 -0.2614  0.2493
  870SOL    HW1 3478   2.358   0.143   0.452  1.2093 -0.7277 -0.1512
  870SOL    HW2 3479   2.390   0.055   0.557  0.5166 -1.1123 -1.7039
  870SOL     MW 3480   2.336   0.112   0.529 -0.0074 -0.4352 -0.0613
  871SOL     OW 3481   2.459   2.150   0.794  0.3581 -0.6457  0.3624
  871SOL    HW1 3482   2.390   2.097   0.742 -2.2750  0.2487 -1.9206
  871SOL    HW2 3483   2.409   2.205   0.852 -0.8129 -0.4039  0.3944
  871SOL     MW 3484   2.443   2.151   0.795 -0.1438 -0.4958  0.0654
  872SOL     OW 3485   2.034   2.598   1.454 -0.2133  0.3424 -0.4094
  872SOL    HW1 3486   1.982   2.653   1.515 -1.5593 -2.9267  1.6838
  872SOL    HW2 3487   1.969   2.532   1.424 -0.5192 -0.5705 -1.5736
  872SOL     MW 3488   2.019   2.596   1.458 -0.4312 -0.2094 -0.2868
  873SOL     OW 3489   2.837   2.043   1.893  0.2756  0.4564 -0.1255
  873SOL    HW1 3490   2.844   2.118   1.964 -0.8206  1.5670 -0.7759
  873SOL    HW2 3491   2.899   2.062   1.822  1.3784  0.5495  1.7624
  873SOL     MW 3492   2.846   2.055   1.893  0.2765  0.6152  0.0378
  874SOL     OW 3493   2.444   1.533   2.273  0.1102 -0.4620  0.1807
  874SOL    HW1 3494   2.364   1.492   2.294  0.7303 -2.0733 -0.5111
  874SOL    HW2 3495   2.517   1.478   2.291  0.5226 -1.4848 -0.5270
  874SOL     MW 3496   2.443   1.520   2.278  0.2464 -0.8095 -0.0039
  875SOL     OW 3497   2.340   2.391   0.938 -0.1315 -0.1871 -0.3503
  875SOL    HW1 3498   2.412   2.434   0.882  0.0428  0.9814 -2.2613
  875SOL    HW2 3499   2.378   2.392   1.028  1.2927 -0.9455  0.4303
  875SOL     MW 3500   2.354   2.397   0.943  0.0794 -0.1330 -0.4995
  876SOL     OW 3501   3.056   2.314   1.320 -0.2349  0.0351  0.3529
  876SOL    HW1 3502   3.104   2.348   1.240  2.8815 -0.6290 -2.1102
  876SOL    HW2 3503   3.097   2.368   1.390  0.0278  1.4076 -0.5148
  876SOL     MW 3504   3.067   2.325   1.319  0.2109  0.1286 -0.0865
  877SOL     OW 3505   3.084   2.788   0.395 -0.1008  0.2450 -0.6771
  877SOL    HW1 3506   3.034   2.853   0.345 -0.8274  1.3504 -1.3168
  877SOL    HW2 3507   3.106   2.728   0.320 -3.4763 -2.4902  0.2676
  877SOL     MW 3508   3.080   2.788   0.379 -0.6420  0.0299 -0.6368
  878SOL     OW 3509   2.396   1.825   1.261 -0.6068 -0.0644  0.5687
  878SOL    HW1 3510   2.352   1.739   1.281 -1.6451 -2.2494  2.1409
  878SOL    HW2 3511   2.482   1.793   1.240 -0.0676  4.1588  0.1837
  878SOL     MW 3512   2.401   1.810   1.261 -0.6726  0.2045  0.7253
  879SOL     OW 3513   2.696   2.398   0.962  0.4720 -0.1918 -0.1045
  879SOL    HW1 3514   2.768   2.464   0.970 -0.1723 -2.2323 -1.3361
  879SOL    HW2 3515   2.721   2.348   0.885 -0.9717  0.4193 -0.4600
  879SOL     MW 3516   2.709   2.400   0.953  0.1965 -0.3804 -0.3139
  880SOL     OW 3517   2.678   2.006   0.628 -0.9356 -0.3773  0.5506
  880SOL    HW1 3518   2.640   2.045   0.705 -0.5920  0.4549 -1.1008
  880SOL    HW2 3519   2.607   1.947   0.596 -1.0898 -0.6433  0.4189
  880SOL     MW 3520   2.664   2.004   0.634 -0.9106 -0.3026  0.3153
  881SOL     OW 3521   2.924   2.728   0.741  0.0642 -0.6101 -0.1645
  881SOL    HW1 3522   2.860   2.668   0.690 -0.1006 -3.0112 -3.1581
  881SOL    HW2 3523   3.013   2.699   0.705 -0.3262  0.2469  0.3657
  881SOL     MW 3524   2.928   2.716   0.729 -0.0090 -0.8139 -0.4895
  882SOL     OW 3525   2.279   2.829   1.870 -0.1358 -0.1888 -0.2348
  882SOL    HW1 3526   2.264   2.795   1.783  0.6588  0.5441 -1.0798
  882SOL    HW2 3527   2.232   2.776   1.932  0.2253 -0.5776 -0.4007
  882SOL     MW 3528   2.271   2.817   1.867  0.0167 -0.1434 -0.3682
  883SOL     OW 3529   2.279   2.214   1.370  0.7055  0.2822 -0.2597
  883SOL    HW1 3530   2.347   2.149   1.346  0.7228  1.4488  1.9130
  883SOL    HW2 3531   2.199   2.182   1.335 -0.8123 -0.7132  1.3019
  883SOL     MW 3532   2.277   2.201   1.363  0.5075  0.3048  0.2330
  884SOL     OW 3533   1.957   1.795   1.092 -1.0610  0.4876 -0.3460
  884SOL    HW1 3534   1.899   1.851   1.041  0.9413 -0.8319  2.5351
  884SOL    HW2 3535   2.039   1.845   1.081  0.5802 -0.9823  1.9503
  884SOL     MW 3536   1.960   1.809   1.084 -0.5803  0.1196  0.3371
  885SOL     OW 3537   2.843   2.405   1.798 -0.5793  0.1492  0.5002
  885SOL    HW1 3538   2.916   2.338   1.813 -2.7651  1.9580  0.1343
  885SOL    HW2 3539   2.810   2.397   1.710 -1.2961 -0.2067  3.1605
  885SOL     MW 3540   2.848   2.395   1.789 -0.9622  0.3409  0.8029
  886SOL     OW 3541   2.848   2.548   1.337 -0.1781 -0.1566 -0.2874
  886SOL    HW1 3542   2.911   2.476   1.340  0.8616  1.0440  1.3478
  886SOL    HW2 3543   2.877   2.610   1.403 -0.3837 -1.4895 -1.3515
  886SOL     MW 3544   2.860   2.547   1.346 -0.0680 -0.1740 -0.2120
  887SOL     OW 3545   2.298   2.620   1.451 -0.3026  0.0144 -0.0643
  887SOL    HW1 3546   2.315   2.646   1.362 -2.6145 -2.2703  0.5968
  887SOL    HW2 3547   2.205   2.589   1.456 -0.9854  1.8574 -0.0064
  887SOL     MW 3548   2.288   2.620   1.440 -0.6977 -0.0439  0.0306
  888SOL     OW 3549   1.835   2.045   1.352  0.2472  0.1053 -0.6138
  888SOL    HW1 3550   1.918   2.051   1.302 -0.9682 -0.5680  0.8977
  888SOL    HW2 3551   1.848   2.099   1.434 -1.4539  2.1277  0.0411
  888SOL     MW 3552   1.848   2.053   1.356 -0.1376  0.2833 -0.3280
  889SOL     OW 3553   2.279   2.084   2.099  0.1835  0.0968 -0.0824
  889SOL    HW1 3554   2.371   2.079   2.130 -0.3234 -1.6534  0.1269
  889SOL    HW2 3555   2.295   2.104   2.007  0.1795  0.2466 -0.2336
  889SOL     MW 3556   2.294   2.086   2.091  0.1161 -0.1144 -0.0747
  890SOL     OW 3557   0.100   2.311   0.073  0.0469  0.2056 -0.0939
  890SOL    HW1 3558   0.064   2.395   0.039 -2.8740 -1.4847  0.7254
  890SOL    HW2 3559   0.097   2.314   0.168  0.3659 -2.5708  0.5498
  890SOL     MW 3560   0.095   2.323   0.081 -0.2964 -0.3837  0.0991
  891SOL     OW 3561   3.039   2.055   1.353 -0.1869  0.6630 -0.1918
  891SOL    HW1 3562   3.132   2.029   1.358 -0.5695  1.2714  0.1038
  891SOL    HW2 3563   3.034   2.155   1.325 -0.8614  0.2104 -0.8130
  891SOL     MW 3564   3.051   2.065   1.350 -0.3264  0.6836 -0.2348
  892SOL     OW 3565   2.342   2.364   2.936 -0.0728  0.0683  0.2911
  892SOL    HW1 3566   2.337   2.292   2.997  0.8570 -2.0726 -0.4514
  892SOL    HW2 3567   2.433   2.368   2.908 -0.3527  1.2409  0.8992
  892SOL     MW 3568   2.353   2.355   2.940  0.0129 -0.0594  0.2734
  893SOL     OW 3569   1.607   2.502   1.260  0.4288 -0.1066 -0.3829
  893SOL    HW1 3570   1.528   2.514   1.315 -3.5628 -0.7042  1.0613
  893SOL    HW2 3571   1.675   2.461   1.316  0.8589 -0.5262  2.5209
  893SOL     MW 3572   1.605   2.498   1.275 -0.0411 -0.2408  0.1908
  894SOL     OW 3573   2.899   1.842   0.545  0.3704  0.3187 -0.6835
  894SOL    HW1 3574   2.821   1.897   0.577 -3.4913  4.2122  1.2043
  894SOL    HW2 3575   2.892   1.819   0.453 -0.3942 -0.7649  3.8062
  894SOL     MW 3576   2.887   1.846   0.537 -0.2400  0.6895  0.1579
  895SOL     OW 3577   2.052   2.125   1.221 -0.7598 -0.1420 -0.0744
  895SOL    HW1 3578   1.994   2.177   1.164 -0.4899 -2.6283  0.3070
  895SOL    HW2 3579   2.101   2.068   1.161 -1.4691  0.2346 -0.8839
  895SOL     MW 3580   2.051   2.124   1.206 -0.8178 -0.4203 -0.1309
  896SOL     OW 3581   2.199   2.803   1.013  0.1829  0.1979 -0.0653
  896SOL    HW1 3582   2.253   2.765   1.083  0.1556 -0.2342 -1.5287
  896SOL    HW2 3583   2.141   2.732   0.994 -1.7659 -2.2669  3.0314
  896SOL     MW 3584   2.199   2.789   1.020 -0.0778 -0.1843  0.1502
  897SOL     OW 3585   2.990   2.952   0.188  0.0962  0.5414 -0.1589
  897SOL    HW1 3586   3.075   2.924   0.155 -1.2495 -2.4045 -0.5725
  897SOL    HW2 3587   2.915   2.902   0.142  0.2683 -0.7259 -1.6172
  897SOL     MW 3588   2.991   2.942   0.177 -0.0586 -0.0145 -0.4059
  898SOL     OW 3589   2.088   0.149   1.398 -0.3316  0.3941  0.0078
  898SOL    HW1 3590   2.072   0.067   1.351  0.1680  0.4830 -1.3854
  898SOL    HW2 3591   2.127   0.213   1.334  1.3982  0.9378 -1.0242
  898SOL     MW 3592   2.091   0.146   1.383 -0.0375  0.4776 -0.3122
  899SOL     OW 3593   2.873   2.952   0.587  0.8867  0.2409  0.3046
  899SOL    HW1 3594   2.911   2.900   0.660 -0.2362  0.6753  0.3811
  899SOL    HW2 3595   2.788   2.989   0.614  0.2299 -1.5242  1.0233
  899SOL     MW 3596   2.867   2.950   0.600  0.6519  0.0653  0.4095
  900SOL     OW 3597   0.120   2.409   1.143  0.1140 -0.7595  0.2161
  900SOL    HW1 3598   0.116   2.503   1.125  1.2915 -0.7269 -2.7711
  900SOL    HW2 3599   0.096   2.371   1.057  0.3956 -0.4503  0.7244
  900SOL     MW 3600   0.117   2.417   1.129  0.3065 -0.7144 -0.1110
  901SOL     OW 3601   1.734   2.829   1.788 -0.1385  0.1256  0.4467
  901SOL    HW1 3602   1.790   2.750   1.764  0.1708 -0.7352 -0.6794
  901SOL    HW2 3603   1.678   2.856   1.708 -0.6174  1.8078 -1.4680
  901SOL     MW 3604   1.734   2.822   1.774 -0.1609  0.2340  0.0455
  902SOL     OW 3605   2.575   2.086   1.820 -0.1808 -0.3781  0.0538
  902SOL    HW1 3606   2.556   1.986   1.831  0.6767 -1.4541 -2.1067
  902SOL    HW2 3607   2.668   2.103   1.840  0.0715 -2.5717 -0.0046
  902SOL     MW 3608   2.585   2.075   1.824 -0.0344 -0.8095 -0.2390
  903SOL     OW 3609   1.663   2.784   0.526 -0.0790 -0.0918  0.2617
  903SOL    HW1 3610   1.726   2.719   0.559 -5.6361  0.5481 -0.4540
  903SOL    HW2 3611   1.619   2.817   0.605 -0.4748 -0.2443  0.5749
  903SOL     MW 3612   1.665   2.780   0.541 -0.8644 -0.0275  0.2086
  904SOL     OW 3613   2.511   2.535   1.633 -0.2271 -0.2845 -0.1674
  904SOL    HW1 3614   2.450   2.563   1.563 -2.8006 -0.5895 -1.4676
  904SOL    HW2 3615   2.582   2.476   1.600  2.8405  0.0710  2.6465
  904SOL     MW 3616   2.512   2.531   1.620 -0.1619 -0.2778  0.0323
  905SOL     OW 3617   2.382   2.567   2.118 -0.2863  0.2783 -0.1246
  905SOL    HW1 3618   2.396   2.504   2.048 -0.4378 -0.3666  1.0943
  905SOL    HW2 3619   2.344   2.507   2.188 -3.0214  1.5787  0.6600
  905SOL     MW 3620   2.379   2.551   2.118 -0.6672  0.3648  0.1398
  906SOL     OW 3621   2.523   2.515   0.787 -0.0049  0.2310  0.5163
  906SOL    HW1 3622   2.590   2.473   0.843 -2.4327 -0.4531  1.3302
  906SOL    HW2 3623   2.487   2.595   0.836 -1.9891  1.8616  1.4575
  906SOL     MW 3624   2.527   2.520   0.801 -0.5870  0.3559  0.7479
  907SOL     OW 3625   2.562   2.876   1.273  0.0320 -0.6140  0.2934
  907SOL    HW1 3626   2.635   2.884   1.337  0.2494  0.5875  1.0579
  907SOL    HW2 3627   2.614   2.866   1.195  1.1683 -0.4949  2.3887
  907SOL     MW 3628   2.578   2.876   1.271  0.2106 -0.4398  0.6707
  908SOL     OW 3629   2.671   2.357   0.012  0.0223  0.0404  0.1163
  908SOL    HW1 3630   2.607   2.289   0.026 -2.2188 -1.3464 -0.0386
  908SOL    HW2 3631   2.652   2.428   0.078  0.2314  3.9444  2.3692
  908SOL     MW 3632   2.660   2.357   0.022 -0.2458  0.3725  0.3931
  909SOL     OW 3633   1.726   0.194   1.033 -0.4081  0.6901 -0.1318
  909SOL    HW1 3634   1.701   0.284   1.002 -1.6156  1.0841 -0.4171
  909SOL    HW2 3635   1.753   0.211   1.122 -0.8524  0.4829  0.5977
  909SOL     MW 3636   1.726   0.208   1.041 -0.6261  0.7148 -0.0732
  910SOL     OW 3637   2.281   1.692   0.411 -0.2738  0.0570 -0.0782
  910SOL    HW1 3638   2.212   1.637   0.454 -2.5376  0.0929  0.0590
  910SOL    HW2 3639   2.232   1.747   0.349  0.3727  1.3112 -0.5682
  910SOL     MW 3640   2.265   1.692   0.408 -0.4872  0.2272 -0.1247
  911SOL     OW 3641   2.153   2.176   1.605  0.2461  0.5233 -0.3430
  911SOL    HW1 3642   2.211   2.204   1.675 -0.2057 -0.0440  0.5865
  911SOL    HW2 3643   2.196   2.202   1.527 -2.2449 -0.3481 -0.5312
  911SOL     MW 3644   2.166   2.183   1.604 -0.1422  0.3335 -0.2452
  912SOL     OW 3645   2.870   1.912   1.492  0.1865 -0.2235 -0.5030
  912SOL    HW1 3646   2.926   1.962   1.429  2.2583 -0.8820 -0.0465
  912SOL    HW2 3647   2.784   1.962   1.503 -0.1652 -0.4043  0.5519
  912SOL     MW 3648   2.866   1.925   1.485  0.4135 -0.3343 -0.3036
  913SOL     OW 3649   2.549   2.942   0.358  0.1736  0.2275  0.5624
  913SOL    HW1 3650   2.610   2.871   0.370 -0.5912  1.2332 -0.3091
  913SOL    HW2 3651   2.461   2.902   0.356  1.6301 -1.1694  0.3284
  913SOL     MW 3652   2.546   2.927   0.360  0.2649  0.1759  0.4165
  914SOL     OW 3653   2.782   1.626   0.036 -0.0587 -0.1128  0.0791
  914SOL    HW1 3654   2.786   1.686  -0.034 -0.8071 -1.8823  1.9557
  914SOL    HW2 3655   2.690   1.599   0.041 -2.9839 -0.4484  0.4722
  914SOL     MW 3656   2.771   1.631   0.027 -0.5434 -0.3906  0.3786
  915SOL     OW 3657   1.872   0.172   0.215 -0.3078 -0.2341  0.0506
  915SOL    HW1 3658   1.920   0.105   0.260 -1.2273 -0.3877 -0.5931
  915SOL    HW2 3659   1.780   0.138   0.220 -1.3037  2.1213  0.1583
  915SOL     MW 3660   1.866   0.159   0.222 -0.5605  0.0564 -0.0201
  916SOL     OW 3661   1.836   2.117   1.954 -0.7456  0.5015 -0.3561
  916SOL    HW1 3662   1.824   2.212   1.931 -1.3070  3.6389 -0.1243
  916SOL    HW2 3663   1.826   2.070   1.872  1.7059 -1.2562  0.2641
  916SOL     MW 3664   1.833   2.123   1.940 -0.4963  0.6836 -0.2437
  917SOL     OW 3665   2.242   2.336   2.675  0.4601 -0.0062  0.3021
  917SOL    HW1 3666   2.292   2.332   2.761  3.9982 -0.3358 -1.0645
  917SOL    HW2 3667   2.257   2.425   2.638  2.5596  0.5259  1.2191
  917SOL     MW 3668   2.251   2.347   2.682  1.2039  0.0205  0.2428
  918SOL     OW 3669   1.989   1.655   2.607  0.8524 -0.1850  0.2903
  918SOL    HW1 3670   1.913   1.691   2.556 -0.9075  1.2947  0.8905
  918SOL    HW2 3671   2.060   1.715   2.591 -1.7282  0.5096  0.0076
  918SOL     MW 3672   1.989   1.668   2.598  0.2797  0.1019  0.3322
  919SOL     OW 3673   3.020   2.384   2.276  0.2557  0.1411 -0.3294
  919SOL    HW1 3674   2.958   2.320   2.237  1.7561  3.5725  3.5253
  919SOL    HW2 3675   3.101   2.381   2.215 -1.0081 -0.0453  0.6250
  919SOL     MW 3676   3.023   2.375   2.263  0.2869  0.5693  0.3051
  920SOL     OW 3677   2.768   2.823   0.038  0.1266  0.1692 -0.6191
  920SOL    HW1 3678   2.681   2.862   0.046 -0.1076  1.1598 -0.9419
  920SOL    HW2 3679   2.769   2.760  -0.037 -1.1251 -0.8286 -0.7268
  920SOL     MW 3680   2.757   2.820   0.029 -0.0694  0.1683 -0.6759
  921SOL     OW 3681   2.551   2.671   2.687 -0.6082  0.2922  0.0865
  921SOL    HW1 3682   2.611   2.666   2.615  0.6266 -1.5065  1.1074
  921SOL    HW2 3683   2.570   2.595   2.735  1.5398 -2.2879 -2.2655
  921SOL     MW 3684   2.561   2.660   2.684 -0.1619 -0.2856 -0.0891
  922SOL     OW 3685   2.011   2.863   0.303 -0.4572  0.3915  0.0871
  922SOL    HW1 3686   1.978   2.883   0.218 -3.0031 -0.6461  2.3927
  922SOL    HW2 3687   2.000   2.771   0.304 -1.4551 -0.2337  1.0929
  922SOL     MW 3688   2.005   2.853   0.292 -0.9248  0.1721  0.5240
  923SOL     OW 3689   2.171   2.812   1.600  0.1853  0.5379 -0.3703
  923SOL    HW1 3690   2.244   2.766   1.558 -1.7637  0.3381  1.1527
  923SOL    HW2 3691   2.171   2.906   1.569  0.0672  2.0696  0.8626
  923SOL     MW 3692   2.181   2.818   1.590 -0.0875  0.7137 -0.0067
  924SOL     OW 3693   1.158   2.744   2.460  0.4491  0.0280 -0.2343
  924SOL    HW1 3694   1.205   2.808   2.407  0.6956 -1.5373  0.2341
  924SOL    HW2 3695   1.223   2.711   2.522 -1.1084  0.1849  1.0238
  924SOL     MW 3696   1.173   2.748   2.461  0.2761 -0.1578 -0.0065
  925SOL     OW 3697   3.036   0.272   2.687 -0.5867 -0.0279  0.4724
  925SOL    HW1 3698   3.038   0.304   2.600 -2.2004 -0.2493  3.7306
  925SOL    HW2 3699   2.993   0.349   2.725  0.1399  0.0596  1.4542
  925SOL     MW 3700   3.031   0.286   2.680 -0.7038 -0.0456  1.0319
  926SOL     OW 3701   2.680   2.400   2.016 -0.1812  0.0776  0.2019
  926SOL    HW1 3702   2.716   2.474   2.067 -1.5111  1.5460  2.4558
  926SOL    HW2 3703   2.739   2.411   1.938  0.5708 -0.8564  2.9774
  926SOL     MW 3704   2.692   2.411   2.013 -0.2575  0.1481  0.8655
  927SOL     OW 3705   2.395   0.157   0.280  0.5382 -0.0483 -0.1614
  927SOL    HW1 3706   2.477   0.190   0.240  0.5511  0.6496  0.3930
  927SOL    HW2 3707   2.343   0.141   0.194  1.2242 -1.8644  3.4379
  927SOL     MW 3708   2.399   0.159   0.263  0.6304 -0.1959  0.3866
  928SOL     OW 3709   2.050   2.446   1.842 -0.6567  0.0512 -0.1790
  928SOL    HW1 3710   2.125   2.394   1.851  1.1825  0.0332 -1.4219
  928SOL    HW2 3711   2.072   2.518   1.905 -2.2372  3.1052  0.2396
  928SOL     MW 3712   2.063   2.448   1.851 -0.6226  0.4517 -0.2877
  929SOL     OW 3713   2.726   2.315   2.483  0.1554  0.0877 -0.1497
  929SOL    HW1 3714   2.636   2.291   2.471  1.4067  0.4817 -0.6095
  929SOL    HW2 3715   2.749   2.269   2.560 -0.1610  0.5514 -3.5928
  929SOL     MW 3716   2.717   2.306   2.492  0.2788  0.2008 -0.6647
  930SOL     OW 3717   2.012   2.880   2.691 -0.4093 -0.3185 -0.4763
  930SOL    HW1 3718   2.014   2.849   2.781 -0.2874 -0.1459 -2.2908
  930SOL    HW2 3719   2.102   2.920   2.667  2.7275  0.1335  1.2835
  930SOL     MW 3720   2.024   2.882   2.700  0.0206 -0.2361 -0.4835
  931SOL     OW 3721   2.947   2.820   2.139 -0.4399  0.1463  0.6677
  931SOL    HW1 3722   3.040   2.800   2.120  1.8219  0.7021  0.4518
  931SOL    HW2 3723   2.916   2.858   2.060 -0.5030  1.3623  0.6283
  931SOL     MW 3724   2.955   2.823   2.126 -0.1498  0.3801  0.6340
  932SOL     OW 3725   2.810   1.919   2.552 -0.1184 -0.4057  0.0082
  932SOL    HW1 3726   2.893   1.957   2.583 -0.5490  2.4655 -0.0535
  932SOL    HW2 3727   2.793   1.948   2.459 -2.6233 -1.5918  0.0950
  932SOL     MW 3728   2.819   1.928   2.543 -0.5057 -0.1834  0.0115
  933SOL     OW 3729   2.100   2.802   2.268 -0.5510  0.2372  0.0323
  933SOL    HW1 3730   2.179   2.850   2.298 -1.3584 -2.1060  0.8989
  933SOL    HW2 3731   2.041   2.874   2.249  1.8897  0.4068 -2.2239
  933SOL     MW 3732   2.102   2.818   2.270 -0.3355 -0.0496 -0.1510
  934SOL     OW 3733   2.071   2.671   2.513 -0.9275 -0.7583 -0.4280
  934SOL    HW1 3734   2.035   2.736   2.576  0.3098  2.0049 -1.8137
  934SOL    HW2 3735   2.076   2.719   2.425 -0.7580  0.7059 -3.2312
  934SOL     MW 3736   2.067   2.686   2.509 -0.7418 -0.2006 -0.9807
  935SOL     OW 3737   2.648   1.585   1.820 -0.5208  0.1374  0.1451
  935SOL    HW1 3738   2.729   1.589   1.770  1.1872  0.9874 -0.2057
  935SOL    HW2 3739   2.586   1.564   1.745 -3.5449 -1.3479 -1.4935
  935SOL     MW 3740   2.650   1.583   1.803 -0.6945  0.0536 -0.1174
  936SOL     OW 3741   2.895   2.200   0.009  0.7427  0.3664 -0.4622
  936SOL    HW1 3742   2.971   2.249  -0.015  0.9378  0.2929  1.6595
  936SOL    HW2 3743   2.814   2.252  -0.000  0.8479 -1.2029  0.0918
  936SOL     MW 3744   2.895   2.213   0.004  0.7823  0.1496 -0.1091
  937SOL     OW 3745   1.975   2.254   2.625 -0.0438 -0.0095 -0.2113
  937SOL    HW1 3746   2.068   2.263   2.648  2.0107  0.2949  1.5582
  937SOL    HW2 3747   1.966   2.258   2.529 -1.5411  0.1110  0.6514
  937SOL     MW 3748   1.986   2.256   2.615  0.0297  0.0466  0.1360
  938SOL     OW 3749   2.264   1.839   1.979 -0.3169  0.0495 -0.4517
  938SOL    HW1 3750   2.246   1.875   1.894 -1.3276  0.9396  3.4292
  938SOL    HW2 3751   2.243   1.920   2.032  2.2604  0.3377 -1.0231
  938SOL     MW 3752   2.259   1.854   1.974 -0.1102  0.2050 -0.0150
  939SOL     OW 3753   2.777   2.041   2.256  0.6602 -0.5275 -0.3917
  939SOL    HW1 3754   2.792   1.960   2.211 -1.1890  0.3216  0.9432
  939SOL    HW2 3755   2.680   2.055   2.250 -2.2539  0.5370 -1.1714
  939SOL     MW 3756   2.766   2.032   2.249  0.0317 -0.2750 -0.3184
  940SOL     OW 3757   2.298   0.172   2.656 -0.4116  0.0591 -0.0421
  940SOL    HW1 3758   2.270   0.077   2.650  0.3514  3.4515 -0.5033
  940SOL    HW2 3759   2.331   0.184   2.750  0.3233  0.2994  1.2603
  940SOL     MW 3760   2.299   0.161   2.668 -0.2140  0.5384  0.0689
  941SOL     OW 3761   0.079   2.347   2.059  0.4323 -0.1579 -0.9005
  941SOL    HW1 3762   0.150   2.292   2.067 -2.8450  2.3581 -2.4599
  941SOL    HW2 3763   0.025   2.314   1.985 -1.8736  1.0682  2.2525
  941SOL     MW 3764   0.081   2.336   2.050 -0.3044  0.3358 -0.6902
  942SOL     OW 3765   2.881   2.212   2.089 -0.1583 -0.1015  0.0960
  942SOL    HW1 3766   2.815   2.276   2.072  0.5263  1.2144 -0.1336
  942SOL    HW2 3767   2.846   2.152   2.159 -0.5208  0.8770  0.5874
  942SOL     MW 3768   2.868   2.213   2.096 -0.1158  0.2012  0.1305
  943SOL     OW 3769   0.210   2.021   2.327  0.3297 -0.1698 -0.3709
  943SOL    HW1 3770   0.172   2.075   2.393 -0.2256  0.0974  1.4672
  943SOL    HW2 3771   0.271   1.962   2.374  0.7397  0.9224 -0.1609
  943SOL     MW 3772   0.213   2.020   2.342  0.3105  0.0096 -0.1007
  944SOL     OW 3773   2.148   2.654   2.036 -0.2638  0.0656  0.3707
  944SOL    HW1 3774   2.240   2.631   2.069 -0.6537  1.7677  0.6518
  944SOL    HW2 3775   2.115   2.702   2.112  1.9332 -0.0031 -0.2529
  944SOL     MW 3776   2.156   2.658   2.050 -0.0254  0.2811  0.3255
  945SOL     OW 3777   2.774   2.632   2.932 -0.1489 -0.1731 -0.5229
  945SOL    HW1 3778   2.720   2.554   2.927  0.6725  1.5174 -0.4344
  945SOL    HW2 3779   2.812   2.638   2.846 -0.7089  2.5909  2.6931
  945SOL     MW 3780   2.772   2.622   2.920 -0.1144  0.4146 -0.0869
  946SOL     OW 3781   2.544   2.702   2.289 -0.3349 -0.1573 -0.0779
  946SOL    HW1 3782   2.574   2.751   2.207  0.3492 -0.2976  0.1131
  946SOL    HW2 3783   2.484   2.637   2.247 -0.5284  1.8238  3.0906
  946SOL     MW 3784   2.540   2.700   2.272 -0.2702  0.0856  0.3653
  947SOL     OW 3785   2.066   0.035   0.420  0.1931  0.4810 -0.2128
  947SOL    HW1 3786   2.077  -0.050   0.381 -2.3489  3.1692 -0.5042
  947SOL    HW2 3787   2.145   0.061   0.457 -3.9213 -0.3410 -0.0459
  947SOL     MW 3788   2.078   0.028   0.420 -0.6852  0.7272 -0.2293
  948SOL     OW 3789   1.822   3.098   2.649 -0.1242  0.2882  0.0777
  948SOL    HW1 3790   1.869   3.026   2.682 -0.8427 -1.8757 -0.2913
  948SOL    HW2 3791   1.844   3.118   2.560 -0.9125  0.6247 -0.2560
  948SOL     MW 3792   1.831   3.091   2.642 -0.3230  0.0471 -0.0150
  949SOL     OW 3793   2.502   2.048   2.274  0.7177  0.6406  0.3098
  949SOL    HW1 3794   2.494   1.966   2.317 -0.0871 -0.8851 -0.0165
  949SOL    HW2 3795   2.462   2.117   2.329 -2.6378  0.8588 -2.9952
  949SOL     MW 3796   2.495   2.046   2.287  0.1688  0.4681 -0.1693
  950SOL     OW 3797   2.256   2.601   3.032 -0.4032  0.2389  0.5287
  950SOL    HW1 3798   2.285   2.517   2.991 -0.2821  0.4231  0.8193
  950SOL    HW2 3799   2.165   2.635   2.997  0.0141  1.6366  0.1179
  950SOL     MW 3800   2.248   2.594   3.022 -0.3321  0.4476  0.5129
  951SOL     OW 3801   2.868   2.059   2.885 -0.4486 -0.1533  0.4016
  951SOL    HW1 3802   2.886   2.103   2.967 -0.4300 -2.0745 -2.3447
  951SOL    HW2 3803   2.949   2.041   2.831 -0.4187 -0.3965 -0.5383
  951SOL     MW 3804   2.881   2.062   2.888 -0.4422 -0.4389 -0.0847
  952SOL     OW 3805   3.038   1.668   2.057 -0.3886 -0.3651 -0.1890
  952SOL    HW1 3806   2.961   1.728   2.052  0.5250  1.7880 -0.4743
  952SOL    HW2 3807   3.105   1.729   2.095 -0.7842 -0.0329 -0.7257
  952SOL     MW 3808   3.037   1.684   2.061 -0.3202 -0.0372 -0.2975
  953SOL     OW 3809   1.926   1.844   2.821 -0.1715 -0.0147  0.5547
  953SOL    HW1 3810   1.840   1.818   2.856 -0.2207  2.2533  0.8243
  953SOL    HW2 3811   1.955   1.770   2.775  1.4886  0.9796  1.4991
  953SOL     MW 3812   1.918   1.831   2.819  0.0410  0.4157  0.7149
  954SOL     OW 3813   2.419   2.025   2.906  0.1038 -0.1380  0.2932
  954SOL    HW1 3814   2.342   2.037   2.842  1.2456 -1.8106  1.1139
  954SOL    HW2 3815   2.499   2.008   2.845  1.8978  0.2198  2.0904
  954SOL     MW 3816   2.419   2.025   2.889  0.4912 -0.3115  0.6386
  955SOL     OW 3817   1.578   1.619   2.582 -0.0373  0.3921  0.4629
  955SOL    HW1 3818   1.530   1.581   2.509 -1.5091  2.1632  0.9081
  955SOL    HW2 3819   1.655   1.666   2.550 -2.1912  0.5225  1.6562
  955SOL     MW 3820   1.582   1.620   2.568 -0.5157  0.6430  0.6791
  956SOL     OW 3821   2.598   2.393   2.846 -0.6407 -0.0915 -0.0036
  956SOL    HW1 3822   2.614   2.379   2.943  1.5290 -1.9964  3.6064
  956SOL    HW2 3823   2.675   2.346   2.805 -0.1340  0.3830 -1.4634
  956SOL     MW 3824   2.610   2.385   2.854 -0.2876 -0.2802  0.2801
  957SOL     OW 3825   2.300   2.833   0.382 -0.6689  0.2411  0.3589
  957SOL    HW1 3826   2.205   2.839   0.349  0.1843  0.5790 -2.0636
  957SOL    HW2 3827   2.301   2.803   0.476 -2.4596 -0.0838  0.1153
  957SOL     MW 3828   2.287   2.830   0.390 -0.7926  0.2428  0.0071
  958SOL     OW 3829   2.039   2.689   2.908  0.1869 -0.2625 -0.6347
  958SOL    HW1 3830   2.018   2.630   2.835 -2.7396 -1.0414  0.1313
  958SOL    HW2 3831   1.957   2.725   2.944  0.1907  0.6054  1.8446
  958SOL     MW 3832   2.026   2.686   2.903 -0.1987 -0.2507 -0.2065
  959SOL     OW 3833   2.460   2.585   0.356 -0.3666  0.1559  0.2818
  959SOL    HW1 3834   2.524   2.600   0.287 -0.6649  1.3459 -0.7019
  959SOL    HW2 3835   2.395   2.662   0.358 -0.3762  1.3742 -1.5280
  959SOL     MW 3836   2.460   2.597   0.347 -0.4072  0.4737 -0.0867
  960SOL     OW 3837   1.964   2.467   2.288 -0.0720  0.1698 -0.5414
  960SOL    HW1 3838   1.932   2.378   2.284  2.1118  1.7571 -0.6186
  960SOL    HW2 3839   1.934   2.502   2.370 -1.9356 -1.9518 -2.3763
  960SOL     MW 3840   1.956   2.460   2.298 -0.0298  0.0993 -0.7937
  961SOL     OW 3841   2.250   2.459   2.321  0.2079 -0.2517  0.0949
  961SOL    HW1 3842   2.154   2.461   2.318 -1.8456  0.1754 -2.0613
  961SOL    HW2 3843   2.266   2.509   2.403  0.5779 -1.1259  0.4263
  961SOL     MW 3844   2.239   2.465   2.332 -0.0142 -0.3107 -0.1459
  962SOL     OW 3845   2.203   2.042   2.760  0.3003  0.7485  0.2622
  962SOL    HW1 3846   2.148   2.016   2.836 -1.9224 -1.7059  0.1419
  962SOL    HW2 3847   2.175   1.988   2.690 -0.4836  1.1802 -0.4309
  962SOL     MW 3848   2.192   2.031   2.761 -0.0964  0.4816  0.1549
  963SOL     OW 3849   1.733   2.511   2.163  0.0797  0.3169 -0.3939
  963SOL    HW1 3850   1.822   2.515   2.201  4.4960  3.0396  0.5991
  963SOL    HW2 3851   1.750   2.466   2.075  2.2615 -4.0963 -1.3323
  963SOL     MW 3852   1.747   2.505   2.156  0.9502  0.0939 -0.3867
  964SOL     OW 3853   1.829   2.014   2.622 -0.4348 -0.5796 -0.3399
  964SOL    HW1 3854   1.851   2.107   2.610 -1.8731 -0.4565  0.1483
  964SOL    HW2 3855   1.873   1.981   2.703 -0.9597  3.4592 -3.1259
  964SOL     MW 3856   1.837   2.022   2.631 -0.6938 -0.0305 -0.6431
  965SOL     OW 3857   2.249   2.695   0.609 -0.4707 -0.4392  0.1967
  965SOL    HW1 3858   2.223   2.603   0.597  1.5604 -2.9764  0.3669
  965SOL    HW2 3859   2.288   2.701   0.697  1.4808  0.1906 -2.7079
  965SOL     MW 3860   2.251   2.684   0.619  0.0548 -0.6908 -0.1641
  966SOL     OW 3861   2.725   2.595   2.502  0.0291  0.1686  0.8372
  966SOL    HW1 3862   2.722   2.621   2.409  1.4637 -0.1892  1.8123
  966SOL    HW2 3863   2.723   2.502   2.507 -0.2235  0.4866  2.5435
  966SOL     MW 3864   2.724   2.586   2.490  0.1850  0.1633  1.1910
  967SOL     OW 3865   2.820   3.064   2.960  0.4115 -0.5483 -0.5881
  967SOL    HW1 3866   2.820   2.997   3.027  2.8243  0.1590  0.6567
  967SOL    HW2 3867   2.733   3.069   2.919  0.5062  0.7885  2.4550
  967SOL     MW 3868   2.808   3.056   2.963  0.7424 -0.2786 -0.0223
  968SOL     OW 3869   3.029   2.493   3.041  0.0664  0.6953 -0.3274
  968SOL    HW1 3870   2.968   2.557   3.018 -0.6778  0.7350  0.0898
  968SOL    HW2 3871   3.054   2.454   2.950 -0.5581  0.0513  0.5278
  968SOL     MW 3872   3.025   2.497   3.026 -0.1142  0.6156 -0.1595
  969SOL     OW 3873   1.538   2.130   1.712  0.3095  0.0672  0.4107
  969SOL    HW1 3874   1.605   2.060   1.693  1.5742 -2.1078 -3.2044
  969SOL    HW2 3875   1.530   2.142   1.806  0.2347  1.0841  1.2294
  969SOL     MW 3876   1.546   2.123   1.722  0.4665 -0.0856  0.0417
  970SOL     OW 3877   1.688   1.681   1.821  0.4156  0.1904  0.1584
  970SOL    HW1 3878   1.751   1.660   1.890  1.8545 -0.2547 -1.3349
  970SOL    HW2 3879   1.604   1.689   1.866  1.6013  3.0594 -0.6189
  970SOL     MW 3880   1.685   1.679   1.836  0.7619  0.5102 -0.1412
  971SOL     OW 3881   1.880   0.084   2.368 -0.5816  0.3503  0.4879
  971SOL    HW1 3882   1.889   0.012   2.299  1.8508 -2.3215 -1.2452
  971SOL    HW2 3883   1.957   0.136   2.362  2.0028 -1.0210  0.9129
  971SOL     MW 3884   1.891   0.081   2.358  0.0803 -0.1831  0.3153
  972SOL     OW 3885   0.232   2.782   2.542  0.2669 -0.4678 -0.2971
  972SOL    HW1 3886   0.280   2.700   2.513 -2.1612 -0.4655  2.3277
  972SOL    HW2 3887   0.315   2.828   2.549  1.2476 -1.1152  0.0368
  972SOL     MW 3888   0.250   2.777   2.539  0.0759 -0.5529  0.0933
  973SOL     OW 3889   2.624   3.074   2.077 -0.4131  0.6678 -0.3526
  973SOL    HW1 3890   2.598   2.990   2.043 -0.3712  2.0856 -1.7289
  973SOL    HW2 3891   2.633   3.144   2.007 -2.8522 -0.0981 -2.4920
  973SOL     MW 3892   2.622   3.072   2.064 -0.7294  0.7538 -0.8165
  974SOL     OW 3893   2.032   0.315   2.701  0.4499  0.0902  0.5087
  974SOL    HW1 3894   2.084   0.239   2.726 -0.0907  0.6660  0.0095
  974SOL    HW2 3895   1.950   0.313   2.742  1.7991 -0.4295  1.2757
  974SOL     MW 3896   2.028   0.305   2.710  0.5566  0.0976  0.5440
  975SOL     OW 3897   2.311   2.589   2.571  0.0462  0.1199  0.0959
  975SOL    HW1 3898   2.392   2.635   2.604  0.9775 -1.4370 -3.5695
  975SOL    HW2 3899   2.241   2.656   2.569  0.5301 -0.0548  1.7976
  975SOL     MW 3900   2.313   2.604   2.575  0.2329 -0.1086 -0.1632
  976SOL     OW 3901   0.277   0.258   1.689 -0.3381  0.3022 -0.3681
  976SOL    HW1 3902   0.336   0.194   1.732  0.6148 -1.1760  2.0606
  976SOL    HW2 3903   0.195   0.207   1.682 -0.6741 -0.9038  0.2622
  976SOL     MW 3904   0.274   0.243   1.694 -0.2567 -0.0520  0.0355
  977SOL     OW 3905   1.701   2.792   2.486 -0.7473 -0.4463  0.8268
  977SOL    HW1 3906   1.721   2.703   2.509  0.0351  1.6040 -1.7696
  977SOL    HW2 3907   1.774   2.837   2.444 -0.2745 -0.4882 -0.6675
  977SOL     MW 3908   1.713   2.787   2.483 -0.5817 -0.1813  0.2871
   3.10000   3.10000   3.10000
