977 TIP4P/2005f water molecules t=   1.14000 step= 1140
 3908
    1SOL     OW    1   0.414   0.784   3.089 -0.1684  0.2315 -0.8454
    1SOL    HW1    2   0.378   0.824   3.013  2.2656 -0.5280 -0.8611
    1SOL    HW2    3   0.338   0.726   3.116 -0.7536 -0.9947 -0.5349
    1SOL     MW    4   0.399   0.781   3.083  0.0755 -0.0305 -0.8065
    2SOL     OW    5   0.331   3.044   1.156 -0.2798 -0.1489 -0.7074
    2SOL    HW1    6   0.363   3.136   1.146  1.7054  2.9278  0.2546
    2SOL    HW2    7   0.236   3.047   1.180  0.5509 -1.7404  1.4510
    2SOL     MW    8   0.323   3.056   1.158  0.0917  0.0471 -0.2957
    3SOL     OW    9   2.579   0.406   0.991 -0.6157 -0.5716 -0.0263
    3SOL    HW1   10   2.625   0.457   0.934  0.8731 -1.5290  3.4999
    3SOL    HW2   11   2.537   0.456   1.062  1.4996 -2.4273 -1.8948
    3SOL     MW   12   2.580   0.419   0.993 -0.1401 -0.9428  0.1924
    4SOL     OW   13   2.949   1.712   0.529  1.2652  0.1823  0.0226
    4SOL    HW1   14   2.878   1.772   0.501 -1.6871  0.2771  1.4863
    4SOL    HW2   15   2.988   1.691   0.447 -0.8340  0.4341 -0.3590
    4SOL     MW   16   2.945   1.717   0.515  0.5987  0.2280  0.1654
    5SOL     OW   17   1.712   1.498   0.523 -0.2944  0.3657 -0.1893
    5SOL    HW1   18   1.724   1.443   0.601  0.5443 -1.5371  0.2367
    5SOL    HW2   19   1.623   1.539   0.521  0.8601 -0.2722 -1.3247
    5SOL     MW   20   1.702   1.496   0.533 -0.0314  0.0305 -0.2829
    6SOL     OW   21   0.806   1.342   0.592  0.4786 -0.0090  0.1551
    6SOL    HW1   22   0.717   1.373   0.612 -0.3163  0.4213 -1.2299
    6SOL    HW2   23   0.819   1.268   0.654 -2.0962 -2.6235 -1.9590
    6SOL     MW   24   0.796   1.336   0.603  0.0340 -0.2972 -0.3066
    7SOL     OW   25   2.078   1.029   0.021 -0.1534  0.3341 -0.1916
    7SOL    HW1   26   2.089   1.117  -0.014  0.9894 -1.1534  0.4974
    7SOL    HW2   27   2.135   1.031   0.098 -0.2419 -2.1686  1.7633
    7SOL     MW   28   2.087   1.041   0.026 -0.0143 -0.1924  0.1572
    8SOL     OW   29   0.915   1.461   1.180  0.2772  0.0855  0.4637
    8SOL    HW1   30   1.007   1.442   1.188 -1.2152 -0.0837 -0.7543
    8SOL    HW2   31   0.873   1.384   1.210 -0.9603  0.4199  0.0478
    8SOL     MW   32   0.922   1.448   1.185 -0.0830  0.1073  0.2482
    9SOL     OW   33   1.002   0.521   1.390  0.1409 -0.0766 -0.0226
    9SOL    HW1   34   0.973   0.444   1.337 -1.0240  1.1067  0.8768
    9SOL    HW2   35   1.043   0.494   1.470 -2.7652  0.6902  0.6091
    9SOL     MW   36   1.003   0.508   1.394 -0.3962  0.1807  0.1794
   10SOL     OW   37   0.226   0.778   0.484  0.0922  0.1646  0.0437
   10SOL    HW1   38   0.314   0.805   0.450  2.1654  0.7350  1.4171
   10SOL    HW2   39   0.205   0.824   0.567 -0.3121 -0.4168 -1.3687
   10SOL     MW   40   0.235   0.788   0.490  0.3124  0.1632  0.0386
   11SOL     OW   41   0.796   1.138   1.597 -0.7632 -0.4152  0.3837
   11SOL    HW1   42   0.826   1.156   1.682  0.9091  1.2989 -4.2649
   11SOL    HW2   43   0.808   1.047   1.580  1.0551  0.2566 -0.8675
   11SOL     MW   44   0.802   1.129   1.606 -0.3026 -0.1004 -0.3947
   12SOL     OW   45   0.010   1.055   0.894 -0.2244 -0.1633  0.3034
   12SOL    HW1   46   0.048   1.132   0.934 -0.5521  2.1783 -2.5541
   12SOL    HW2   47  -0.035   1.099   0.823 -1.4207 -1.1599 -3.2469
   12SOL     MW   48   0.009   1.071   0.890 -0.4255  0.0142 -0.5420
   13SOL     OW   49   1.857   1.426   1.355  0.1840 -0.5746  0.7601
   13SOL    HW1   50   1.904   1.367   1.301  2.5051  2.1239  1.5904
   13SOL    HW2   51   1.886   1.514   1.322  1.7798 -2.2800 -0.0805
   13SOL     MW   52   1.867   1.430   1.343  0.7008 -0.4436  0.7588
   14SOL     OW   53   0.557   0.384   1.865 -0.2111 -0.4526  0.1030
   14SOL    HW1   54   0.512   0.302   1.881  1.7589  0.7092  0.0448
   14SOL    HW2   55   0.603   0.366   1.784 -1.0403 -2.3839 -3.0283
   14SOL     MW   56   0.557   0.370   1.856 -0.0606 -0.5541 -0.3179
   15SOL     OW   57   1.970   0.347   1.056 -0.2161 -0.1844  0.0486
   15SOL    HW1   58   1.948   0.413   1.124  0.4059 -0.7831  2.3807
   15SOL    HW2   59   2.012   0.394   0.983 -0.8840 -0.1345  1.7381
   15SOL     MW   60   1.973   0.362   1.055 -0.2222 -0.2568  0.5792
   16SOL     OW   61   0.186   1.800   0.296 -0.2380  0.1114 -0.6964
   16SOL    HW1   62   0.273   1.761   0.324  0.6439  2.3706 -2.4617
   16SOL    HW2   63   0.194   1.898   0.313  1.4804  2.5690 -0.4843
   16SOL     MW   64   0.199   1.808   0.302  0.1051  0.7338 -0.9013
   17SOL     OW   65   1.060   0.931   1.448 -0.6888 -0.0369  0.3862
   17SOL    HW1   66   1.099   0.911   1.531  0.7606  1.7912 -1.4180
   17SOL    HW2   67   0.962   0.917   1.451 -0.9727  2.3376  0.2804
   17SOL     MW   68   1.052   0.926   1.459 -0.5351  0.5176  0.1342
   18SOL     OW   69   0.053   1.573   0.369  0.5965  0.0292 -0.7663
   18SOL    HW1   70   0.077   1.659   0.338 -2.9311 -2.4532 -0.1987
   18SOL    HW2   71   0.031   1.525   0.290  1.3093  4.6162 -0.7181
   18SOL     MW   72   0.053   1.578   0.355  0.2252  0.3069 -0.6851
   19SOL     OW   73   0.073   1.281   1.039  0.1305 -0.0887 -0.1187
   19SOL    HW1   74   0.118   1.346   0.976 -0.4400 -1.9096 -0.8585
   19SOL    HW2   75  -0.018   1.316   1.048 -2.0451 -3.7428  1.7793
   19SOL     MW   76   0.067   1.294   1.032 -0.2318 -0.8111  0.0341
   20SOL     OW   77   0.443   2.166   1.173 -0.4676  0.2331 -0.4528
   20SOL    HW1   78   0.388   2.102   1.129 -1.6686 -2.0140  1.2243
   20SOL    HW2   79   0.401   2.184   1.260  0.0933  0.7062 -0.8692
   20SOL     MW   80   0.431   2.160   1.178 -0.5521 -0.0010 -0.2865
   21SOL     OW   81   0.472   0.879   0.420  0.6389  0.1232 -0.2805
   21SOL    HW1   82   0.530   0.848   0.491 -1.3248  0.7873  1.2071
   21SOL    HW2   83   0.517   0.861   0.339  1.3717  1.2940 -0.6927
   21SOL     MW   84   0.485   0.873   0.419  0.4765  0.3653 -0.1386
   22SOL     OW   85   1.570   0.664   1.032 -0.5446  0.6390 -0.4865
   22SOL    HW1   86   1.509   0.650   0.961  0.3988 -0.2673  2.2239
   22SOL    HW2   87   1.524   0.724   1.088 -2.7109  0.0554  0.3795
   22SOL     MW   88   1.556   0.670   1.030 -0.7060  0.4425 -0.0146
   23SOL     OW   89   3.034   0.687   0.710 -0.1295 -0.0845  0.6928
   23SOL    HW1   90   3.096   0.619   0.749  1.1976 -0.1412 -1.6807
   23SOL    HW2   91   3.095   0.758   0.726  0.5407  0.2413 -1.0802
   23SOL     MW   92   3.050   0.687   0.717  0.1340 -0.0490  0.1457
   24SOL     OW   93   2.031   2.205   0.043  0.5599  0.5624  0.3400
   24SOL    HW1   94   1.999   2.188   0.133 -5.1340  2.2501 -1.8803
   24SOL    HW2   95   2.046   2.120  -0.008  0.1379 -2.3861  0.5325
   24SOL     MW   96   2.029   2.192   0.048 -0.2470  0.3961  0.0725
   25SOL     OW   97   0.215   1.420   0.557 -0.5642 -0.0850 -0.1933
   25SOL    HW1   98   0.188   1.491   0.506 -0.6369 -0.4725 -0.8017
   25SOL    HW2   99   0.313   1.422   0.553  2.6588 -0.8069 -1.8955
   25SOL     MW  100   0.225   1.429   0.550 -0.1486 -0.2314 -0.4982
   26SOL     OW  101   2.073   1.044   0.316 -0.5365 -0.6535 -0.6188
   26SOL    HW1  102   2.024   1.090   0.386  0.5736  0.2341 -0.7668
   26SOL    HW2  103   2.139   1.114   0.294 -1.7205 -2.4353  1.3851
   26SOL     MW  104   2.075   1.059   0.323 -0.5463 -0.7715 -0.3739
   27SOL     OW  105   1.982   1.457   0.221 -0.2122  0.4544 -0.1677
   27SOL    HW1  106   1.889   1.479   0.230  0.9318 -0.6686  3.4816
   27SOL    HW2  107   2.021   1.509   0.290  0.0043 -1.5431  0.6940
   27SOL     MW  108   1.975   1.467   0.231 -0.0327  0.0427  0.4275
   28SOL     OW  109   0.443   0.992   1.956  0.0697 -0.0177  0.0937
   28SOL    HW1  110   0.500   0.994   2.027  2.7953 -1.4080 -0.1323
   28SOL    HW2  111   0.366   0.942   1.978  0.7973  0.8852 -0.8267
   28SOL     MW  112   0.440   0.986   1.969  0.5253 -0.0820 -0.0576
   29SOL     OW  113   0.209   1.447   0.861  0.4044  0.2231 -0.4083
   29SOL    HW1  114   0.211   1.543   0.852 -0.2865 -1.5107  0.1594
   29SOL    HW2  115   0.196   1.411   0.771 -2.3082  0.0901 -0.0762
   29SOL     MW  116   0.208   1.455   0.848 -0.0447 -0.0232 -0.2896
   30SOL     OW  117   0.802   1.201   1.249 -0.1979  0.2055  0.0410
   30SOL    HW1  118   0.716   1.215   1.297 -1.0275  0.3024  1.0276
   30SOL    HW2  119   0.869   1.210   1.324  1.4566  1.8548  2.3656
   30SOL     MW  120   0.800   1.204   1.265 -0.0891  0.4359  0.4779
   31SOL     OW  121   0.436   0.254   0.156 -0.5836 -0.0456  0.0460
   31SOL    HW1  122   0.460   0.181   0.215  1.5695 -1.4531  1.7540
   31SOL    HW2  123   0.451   0.222   0.066 -2.0232 -0.6066  0.4625
   31SOL     MW  124   0.441   0.240   0.152 -0.4895 -0.3053  0.3263
   32SOL     OW  125   2.813   0.966   1.183 -0.5512  0.4695 -0.0718
   32SOL    HW1  126   2.758   0.888   1.160 -0.7507 -1.6738  0.1475
   32SOL    HW2  127   2.899   0.938   1.151 -1.9774 -1.6447  0.2526
   32SOL     MW  128   2.817   0.952   1.176 -0.7657 -0.0922 -0.0001
   33SOL     OW  129   1.692   1.305   0.329 -0.6860  0.1380  0.1325
   33SOL    HW1  130   1.767   1.243   0.335  1.5847  0.0123 -0.7367
   33SOL    HW2  131   1.704   1.363   0.405 -1.2920  0.4023  1.3652
   33SOL     MW  132   1.704   1.304   0.340 -0.4663  0.1563  0.1805
   34SOL     OW  133   1.216   1.924   1.104  0.0954  0.2714 -0.0821
   34SOL    HW1  134   1.133   1.954   1.141  0.5141  1.7734  0.3597
   34SOL    HW2  135   1.279   1.930   1.178  1.8660 -1.0732 -0.2949
   34SOL     MW  136   1.213   1.929   1.119  0.3843  0.2922 -0.0519
   35SOL     OW  137   0.382   0.147   1.845  0.0211 -0.4802 -0.6379
   35SOL    HW1  138   0.411   0.085   1.913  1.1082  0.4758 -1.9836
   35SOL    HW2  139   0.430   0.121   1.763 -0.3348  0.1307  1.5042
   35SOL     MW  140   0.392   0.136   1.843  0.1176 -0.2735 -0.5328
   36SOL     OW  141   1.969   1.958   0.591  0.3844 -0.5581 -0.7363
   36SOL    HW1  142   2.003   1.924   0.506 -0.2496 -0.2803 -0.0337
   36SOL    HW2  143   1.945   1.878   0.635 -2.1406  0.7211  1.9804
   36SOL     MW  144   1.970   1.943   0.586 -0.0324 -0.3526 -0.2851
   37SOL     OW  145   1.787   1.983   0.970 -0.2728  0.5072  0.4133
   37SOL    HW1  146   1.735   1.919   0.913 -1.5340  4.5541  0.2000
   37SOL    HW2  147   1.723   2.042   1.016  0.3410  1.7029 -0.5103
   37SOL     MW  148   1.772   1.982   0.968 -0.3582  1.1989  0.2633
   38SOL     OW  149   2.805   0.936   0.153 -0.1070 -0.1996 -0.2451
   38SOL    HW1  150   2.821   0.908   0.248  4.6805  0.4479  0.0173
   38SOL    HW2  151   2.886   0.917   0.106  1.1114  3.0145 -1.0130
   38SOL     MW  152   2.818   0.930   0.159  0.6854  0.3099 -0.3118
   39SOL     OW  153   1.430   0.609   0.812 -0.1782 -0.2258 -0.0066
   39SOL    HW1  154   1.384   0.531   0.850 -1.4581  1.0322 -0.3031
   39SOL    HW2  155   1.371   0.624   0.744 -0.2483  1.1351  0.2856
   39SOL     MW  156   1.416   0.601   0.808 -0.3563  0.1197 -0.0072
   40SOL     OW  157   1.174   1.916   0.311 -0.1966 -0.4874  0.2890
   40SOL    HW1  158   1.207   1.836   0.358  0.1751 -1.7716 -0.6533
   40SOL    HW2  159   1.201   1.991   0.367 -3.6122  1.6258  1.2230
   40SOL     MW  160   1.182   1.915   0.324 -0.5982 -0.3780  0.2879
   41SOL     OW  161   0.562   0.508   1.566 -0.2570 -0.1180 -0.0569
   41SOL    HW1  162   0.650   0.549   1.576 -0.1582 -0.0516 -0.5905
   41SOL    HW2  163   0.525   0.519   1.649  0.5706  0.0038 -4.9895
   41SOL     MW  164   0.569   0.515   1.578 -0.1348 -0.0932 -0.7781
   42SOL     OW  165   1.263   3.003   2.020 -0.6018  0.0233  0.0198
   42SOL    HW1  166   1.170   2.995   2.050 -2.7122 -0.3276  1.5146
   42SOL    HW2  167   1.310   2.930   2.060 -0.4490 -1.0767 -2.6983
   42SOL     MW  168   1.257   2.992   2.029 -0.8601 -0.1681 -0.1416
   43SOL     OW  169   1.513   0.124   1.711 -0.5878  0.5489  0.6122
   43SOL    HW1  170   1.585   0.087   1.657 -0.6660 -3.3768  0.2660
   43SOL    HW2  171   1.431   0.077   1.682 -0.4892 -2.8820 -1.7819
   43SOL     MW  172   1.512   0.113   1.700 -0.5851 -0.4217  0.2506
   44SOL     OW  173   1.126   0.789   0.995  0.4733 -0.4311 -0.5617
   44SOL    HW1  174   1.121   0.879   0.961 -2.5381  0.5365 -0.4545
   44SOL    HW2  175   1.153   0.799   1.087  2.2282 -1.5770  1.8311
   44SOL     MW  176   1.129   0.802   1.003  0.3075 -0.4546 -0.2319
   45SOL     OW  177   1.230   0.757   0.633 -0.3131 -0.1657  0.3141
   45SOL    HW1  178   1.146   0.780   0.667 -0.5139 -0.6507  2.1124
   45SOL    HW2  179   1.192   0.692   0.568 -0.1851 -1.7584 -1.7842
   45SOL     MW  180   1.214   0.752   0.629 -0.3227 -0.4399  0.2745
   46SOL     OW  181   0.582   1.136   0.591  0.0742 -0.2406 -0.4411
   46SOL    HW1  182   0.528   1.126   0.514 -1.1927 -0.9761  1.9683
   46SOL    HW2  183   0.648   1.070   0.566  1.4915 -1.3555 -0.0739
   46SOL     MW  184   0.583   1.126   0.578  0.0940 -0.4847 -0.0748
   47SOL     OW  185   0.236   2.005   1.967 -0.0543 -0.5981  0.0484
   47SOL    HW1  186   0.304   1.939   1.998  1.1161 -0.2557 -1.0152
   47SOL    HW2  187   0.223   2.053   2.052 -1.0536 -0.5162 -1.6179
   47SOL     MW  188   0.243   2.003   1.982 -0.0318 -0.5422 -0.3118
   48SOL     OW  189   1.087   0.519   1.083  0.6966  0.1455 -0.0438
   48SOL    HW1  190   0.994   0.522   1.071 -2.5142  1.5564  1.2155
   48SOL    HW2  191   1.113   0.606   1.044 -0.3432  0.7750  2.0955
   48SOL     MW  192   1.078   0.531   1.076  0.1357  0.4147  0.4046
   49SOL     OW  193   1.693   0.690   1.569 -0.0209  0.3515 -0.2072
   49SOL    HW1  194   1.695   0.628   1.645  0.6588 -1.9156 -0.4424
   49SOL    HW2  195   1.758   0.645   1.510  1.0490 -0.1657 -0.8960
   49SOL     MW  196   1.702   0.676   1.571  0.2099 -0.0158 -0.3291
   50SOL     OW  197   1.311   1.097   0.508 -0.4992  0.6367  0.0352
   50SOL    HW1  198   1.272   1.137   0.586  0.4417 -0.7295  0.2544
   50SOL    HW2  199   1.367   1.037   0.554  0.8445  1.3183 -1.1666
   50SOL     MW  200   1.313   1.095   0.524 -0.1978  0.5464 -0.0944
   51SOL     OW  201   0.351   2.942   0.913 -0.3546  0.3198  0.2344
   51SOL    HW1  202   0.437   2.890   0.923  0.3669 -0.9969 -0.4064
   51SOL    HW2  203   0.329   2.988   1.001 -0.9530  0.7612  0.5540
   51SOL     MW  204   0.359   2.941   0.926 -0.3384  0.2043  0.1920
   52SOL     OW  205   0.813   1.727   0.415  0.5857  0.4791 -0.1334
   52SOL    HW1  206   0.768   1.798   0.374 -0.3167  0.8316  0.3043
   52SOL    HW2  207   0.840   1.664   0.344  0.6179 -0.1578  1.4386
   52SOL     MW  208   0.810   1.728   0.401  0.4709  0.4416  0.1318
   53SOL     OW  209   0.450   2.128   0.464 -0.2697  0.5192  0.2924
   53SOL    HW1  210   0.396   2.117   0.387 -1.9226 -1.1650 -1.6485
   53SOL    HW2  211   0.417   2.216   0.495  1.3205  0.4389 -3.0540
   53SOL     MW  212   0.439   2.138   0.458 -0.2780  0.2864 -0.4052
   54SOL     OW  213   1.992   0.915   0.801 -0.0340 -0.3691 -0.1907
   54SOL    HW1  214   2.036   0.939   0.719  1.4097 -1.3506  0.0997
   54SOL    HW2  215   1.990   0.817   0.803 -1.9711 -1.8667  0.8589
   54SOL     MW  216   1.997   0.905   0.790 -0.0991 -0.6962 -0.0139
   55SOL     OW  217   0.535   1.561   1.604 -0.1263 -0.0704 -0.3999
   55SOL    HW1  218   0.504   1.607   1.522 -1.4913 -1.7153 -1.3054
   55SOL    HW2  219   0.624   1.533   1.577  1.7706  1.1728  1.1469
   55SOL     MW  220   0.543   1.563   1.589 -0.0561 -0.1234 -0.3153
   56SOL     OW  221   0.618   0.847   0.188  0.1421 -0.0433  0.2743
   56SOL    HW1  222   0.663   0.928   0.201  0.5745 -0.0904 -2.8515
   56SOL    HW2  223   0.562   0.859   0.111  1.4351  0.3270  1.8256
   56SOL     MW  224   0.616   0.859   0.179  0.3697 -0.0007  0.0666
   57SOL     OW  225   1.196   1.276   1.159  0.1154  0.5673 -0.5498
   57SOL    HW1  226   1.291   1.277   1.142 -2.0335  1.8664  1.5767
   57SOL    HW2  227   1.167   1.236   1.242 -1.6012 -0.2746  0.3050
   57SOL     MW  228   1.205   1.271   1.168 -0.3946  0.6276 -0.1564
   58SOL     OW  229   0.527   1.234   1.355  0.4727 -0.3919 -0.1141
   58SOL    HW1  230   0.510   1.327   1.330 -1.0529 -0.7405  2.2774
   58SOL    HW2  231   0.505   1.244   1.450 -0.0009  1.8819 -1.3597
   58SOL     MW  232   0.522   1.248   1.365  0.2089 -0.1379  0.0371
   59SOL     OW  233   1.543   1.694   0.359 -0.4953 -0.0155 -0.3267
   59SOL    HW1  234   1.590   1.765   0.407  0.1512  0.8267 -1.2836
   59SOL    HW2  235   1.452   1.698   0.375  2.7117 -1.5698  0.5512
   59SOL     MW  236   1.537   1.704   0.368  0.0131 -0.1095 -0.3371
   60SOL     OW  237   0.038   0.230   1.673 -0.7715  0.4046  0.0878
   60SOL    HW1  238  -0.039   0.272   1.701  4.6725  0.4266  0.3045
   60SOL    HW2  239   0.054   0.153   1.732 -2.7400 -0.5220  1.0686
   60SOL     MW  240   0.030   0.225   1.685 -0.3129  0.2853  0.2458
   61SOL     OW  241   2.003   1.409   3.053 -0.6727 -0.3300 -0.5608
   61SOL    HW1  242   2.001   1.408   3.152  0.3169  0.6694  0.9203
   61SOL    HW2  243   2.088   1.369   3.028 -0.7774 -0.9011  2.3169
   61SOL     MW  244   2.014   1.404   3.063 -0.5559 -0.2735  0.0143
   62SOL     OW  245   0.593   1.671   0.579 -0.2975 -0.3001 -0.5768
   62SOL    HW1  246   0.680   1.675   0.538 -1.7749 -3.1382 -0.6431
   62SOL    HW2  247   0.586   1.581   0.594  4.9960 -1.4257 -0.8563
   62SOL     MW  248   0.604   1.659   0.576  0.2060 -0.8231 -0.6224
   63SOL     OW  249   1.697   0.689   0.710  0.3919 -0.3142  0.1178
   63SOL    HW1  250   1.708   0.773   0.664  0.3719 -0.9831 -0.0935
   63SOL    HW2  251   1.614   0.699   0.757  0.9070  1.3811 -0.6698
   63SOL     MW  252   1.688   0.701   0.711  0.4572 -0.1788 -0.0140
   64SOL     OW  253   0.219   1.734   0.852 -0.0760 -0.0874  0.3216
   64SOL    HW1  254   0.270   1.765   0.780 -0.6514  0.1681 -1.4108
   64SOL    HW2  255   0.132   1.767   0.847 -0.6886 -1.0609  2.7525
   64SOL     MW  256   0.215   1.742   0.842 -0.2328 -0.1821  0.4137
   65SOL     OW  257   1.589   2.297   0.420  0.1100 -0.4582  0.5044
   65SOL    HW1  258   1.677   2.293   0.451 -1.7509  1.4397 -0.2682
   65SOL    HW2  259   1.551   2.347   0.492  1.0440 -0.3125 -2.1644
   65SOL     MW  260   1.596   2.303   0.433 -0.0123 -0.1886  0.0503
   66SOL     OW  261   0.304   0.517   0.529  0.2230  0.0247 -0.0512
   66SOL    HW1  262   0.368   0.507   0.454  1.9501  2.3923 -3.7645
   66SOL    HW2  263   0.284   0.610   0.529  0.5119  0.3304 -1.4841
   66SOL     MW  264   0.310   0.528   0.519  0.4890  0.3774 -0.7302
   67SOL     OW  265   1.477   0.106   1.974  0.4315  0.7626 -0.2894
   67SOL    HW1  266   1.497   0.110   1.875 -1.3712 -1.1866 -2.4906
   67SOL    HW2  267   1.410   0.036   1.993 -4.1778  1.3391  0.3504
   67SOL     MW  268   1.471   0.097   1.964 -0.4145  0.5815 -0.4954
   68SOL     OW  269   0.706   0.041   2.985  0.6044  0.2752  0.4666
   68SOL    HW1  270   0.706   0.087   2.896 -2.3712  2.7768 -0.9329
   68SOL    HW2  271   0.794   0.053   3.028 -0.8096  1.1470  0.8028
   68SOL     MW  272   0.717   0.048   2.979  0.0252  0.7203  0.3263
   69SOL     OW  273   1.017   0.197   1.975 -0.1577 -0.0041 -0.1418
   69SOL    HW1  274   1.109   0.208   2.005 -0.5542 -2.6379 -1.5586
   69SOL    HW2  275   0.989   0.113   2.012 -1.7861 -1.0090  1.2938
   69SOL     MW  276   1.026   0.187   1.984 -0.4249 -0.4841 -0.1393
   70SOL     OW  277   0.575   1.760   1.174 -0.3829  0.8855  0.0324
   70SOL    HW1  278   0.623   1.708   1.241 -0.3880  1.2275 -3.1270
   70SOL    HW2  279   0.642   1.803   1.117  0.5073 -0.6488 -1.2820
   70SOL     MW  280   0.590   1.759   1.175 -0.2661  0.7282 -0.5579
   71SOL     OW  281   1.592   0.474   1.246  0.0745  0.3216 -0.1125
   71SOL    HW1  282   1.554   0.556   1.286  0.1907  0.1470  0.5487
   71SOL    HW2  283   1.576   0.505   1.154 -4.3294  0.5792  0.4407
   71SOL     MW  284   1.585   0.489   1.239 -0.4912  0.3325  0.0477
   72SOL     OW  285   0.799   1.861   1.034  0.2629  0.2227  0.4256
   72SOL    HW1  286   0.805   1.924   0.958 -0.8628 -0.3206  2.5589
   72SOL    HW2  287   0.806   1.777   0.984  0.7302 -1.3820 -0.6605
   72SOL     MW  288   0.801   1.858   1.017  0.1760 -0.0607  0.5638
   73SOL     OW  289   1.171   0.745   1.299  0.2668 -0.1825  0.0887
   73SOL    HW1  290   1.110   0.670   1.308 -2.3772 -1.0431 -0.3521
   73SOL    HW2  291   1.134   0.823   1.352 -2.7739  0.4742 -1.4421
   73SOL     MW  292   1.158   0.745   1.307 -0.4832 -0.2094 -0.1715
   74SOL     OW  293   2.764   0.198   1.107  0.2652  0.4122  0.8130
   74SOL    HW1  294   2.805   0.141   1.038  0.4748 -1.6122  0.9510
   74SOL    HW2  295   2.706   0.267   1.070 -0.3632 -0.2835  1.2979
   74SOL     MW  296   2.762   0.199   1.093  0.2100  0.0533  0.8952
   75SOL     OW  297   1.560   1.458   0.135  0.8094 -0.2102 -0.2924
   75SOL    HW1  298   1.618   1.526   0.166 -0.5128 -1.1172  0.9574
   75SOL    HW2  299   1.577   1.387   0.195 -2.2606  1.6106 -1.0311
   75SOL     MW  300   1.570   1.458   0.147  0.2299 -0.0896 -0.2249
   76SOL     OW  301   2.945   0.543   0.478  0.3019  0.3624 -0.2152
   76SOL    HW1  302   2.987   0.588   0.554 -0.2617 -1.5256  1.1814
   76SOL    HW2  303   3.016   0.489   0.446 -0.0163 -1.2045  1.5277
   76SOL     MW  304   2.960   0.542   0.484  0.1856 -0.0935  0.1990
   77SOL     OW  305   0.836   0.573   0.479 -0.1860 -0.1507  0.1110
   77SOL    HW1  306   0.816   0.596   0.388  1.2302 -1.3647 -0.3743
   77SOL    HW2  307   0.788   0.489   0.490  1.3119  0.5508 -1.2247
   77SOL     MW  308   0.827   0.565   0.468  0.1985 -0.2184 -0.1292
   78SOL     OW  309   0.759   0.899   1.216  0.3254 -0.1710 -0.3618
   78SOL    HW1  310   0.795   0.955   1.153 -0.9046 -0.1280 -3.8883
   78SOL    HW2  311   0.668   0.882   1.189  0.1192 -1.3563 -1.3353
   78SOL     MW  312   0.752   0.904   1.204  0.1359 -0.3217 -0.9555
   79SOL     OW  313   1.903   1.665   0.609 -0.1531 -0.0915  0.0273
   79SOL    HW1  314   1.829   1.614   0.574 -3.2877 -0.7939  2.7597
   79SOL    HW2  315   1.915   1.635   0.699 -1.8407  0.8713  0.9957
   79SOL     MW  316   1.895   1.654   0.616 -0.7893 -0.0571  0.5156
   80SOL     OW  317   0.057   0.928   0.316 -0.1312 -0.3388  0.0038
   80SOL    HW1  318  -0.037   0.914   0.341 -0.7359 -0.4564 -0.4106
   80SOL    HW2  319   0.093   0.858   0.365 -1.2174  1.6786  1.7637
   80SOL     MW  320   0.050   0.917   0.326 -0.3543 -0.0882  0.1813
   81SOL     OW  321   1.890   1.855   0.311  0.0280  0.4102  0.2544
   81SOL    HW1  322   1.860   1.770   0.268 -1.6958  0.5922  1.8371
   81SOL    HW2  323   1.817   1.914   0.274 -0.4752 -1.3938 -0.3530
   81SOL     MW  324   1.877   1.852   0.301 -0.2659  0.1962  0.3831
   82SOL     OW  325   0.809   1.004   0.544 -0.0463 -0.2252  0.0108
   82SOL    HW1  326   0.822   1.014   0.445  3.6442  0.0321  0.3946
   82SOL    HW2  327   0.773   0.920   0.558 -0.6414 -0.6886 -0.1274
   82SOL     MW  328   0.806   0.995   0.533  0.3621 -0.2524  0.0432
   83SOL     OW  329   0.082   0.682   1.446  0.4797  0.1209  0.2900
   83SOL    HW1  330   0.119   0.754   1.394  3.2222 -0.6616  1.0775
   83SOL    HW2  331   0.150   0.632   1.491  1.0302 -0.7811 -0.7911
   83SOL     MW  332   0.096   0.685   1.445  0.9141 -0.1014  0.2513
   84SOL     OW  333   0.102   0.195   0.982 -0.2257 -0.1615 -0.5699
   84SOL    HW1  334   0.051   0.276   1.003 -1.1835  0.3148 -1.9337
   84SOL    HW2  335   0.088   0.135   1.055  1.9832 -1.4360  0.4895
   84SOL     MW  336   0.093   0.198   0.995 -0.0606 -0.2668 -0.6100
   85SOL     OW  337   0.455   0.468   0.743 -0.0189  0.0760  0.3732
   85SOL    HW1  338   0.403   0.490   0.662  0.0408  1.1591 -1.7497
   85SOL    HW2  339   0.416   0.393   0.773  0.2276  1.5443 -1.4946
   85SOL     MW  340   0.443   0.461   0.736  0.0215  0.4126 -0.1533
   86SOL     OW  341   1.169   0.243   1.111 -0.1750  0.3397  0.3878
   86SOL    HW1  342   1.134   0.329   1.130  1.4059  2.9492  0.6312
   86SOL    HW2  343   1.245   0.246   1.167 -0.0714  1.1223 -1.0120
   86SOL     MW  344   1.174   0.255   1.121  0.0473  0.7872  0.2352
   87SOL     OW  345   1.202   1.539   1.273 -0.8295 -0.6765 -0.4910
   87SOL    HW1  346   1.215   1.594   1.197  2.0779  0.1106  1.1320
   87SOL    HW2  347   1.202   1.454   1.240 -1.5757  0.8586 -3.1806
   87SOL     MW  348   1.204   1.535   1.258 -0.5443 -0.3701 -0.6317
   88SOL     OW  349   1.192   1.056   0.964  0.0451 -0.2045  0.2713
   88SOL    HW1  350   1.280   1.016   0.967  2.8390 -1.2941  3.0193
   88SOL    HW2  351   1.193   1.136   1.023 -2.8714 -0.5038 -0.5315
   88SOL     MW  352   1.204   1.061   0.972  0.0289 -0.3877  0.5279
   89SOL     OW  353   1.749   0.754   0.362  0.0607  0.2845 -0.1492
   89SOL    HW1  354   1.754   0.659   0.377  0.9264  0.9210 -1.6441
   89SOL    HW2  355   1.832   0.779   0.313  1.3176 -0.9678 -1.2609
   89SOL     MW  356   1.761   0.745   0.357  0.3407  0.2032 -0.4931
   90SOL     OW  357   0.813   1.066   2.798 -0.0177 -0.1603 -0.2109
   90SOL    HW1  358   0.872   0.999   2.826 -2.4244  4.9091  2.2117
   90SOL    HW2  359   0.830   1.135   2.862  0.5924  2.6866 -2.5074
   90SOL     MW  360   0.823   1.066   2.810 -0.2547  0.8842 -0.1942
   91SOL     OW  361   2.159   0.663   0.487  0.0985 -0.1200  1.2103
   91SOL    HW1  362   2.207   0.724   0.427 -0.0383  1.1447 -0.1539
   91SOL    HW2  363   2.175   0.572   0.458  4.1214 -0.4328 -1.2826
   91SOL     MW  364   2.167   0.659   0.476  0.6113  0.0056  0.7014
   92SOL     OW  365   1.750   0.915   0.563 -0.4442  0.2402  0.2239
   92SOL    HW1  366   1.661   0.934   0.582  3.0023  0.8493  1.5627
   92SOL    HW2  367   1.745   0.839   0.499 -0.3817  0.0289 -0.4522
   92SOL     MW  368   1.738   0.907   0.557  0.0188  0.2927  0.3114
   93SOL     OW  369   0.986   0.231   0.430  0.8874 -0.4896 -0.3167
   93SOL    HW1  370   0.895   0.251   0.453  1.9630 -0.3084  1.4585
   93SOL    HW2  371   0.995   0.249   0.334  0.6441  0.1398 -1.2008
   93SOL     MW  372   0.975   0.236   0.421  0.9972 -0.3827 -0.1992
   94SOL     OW  373   1.864   1.381   1.669  0.3288  0.3436 -1.1551
   94SOL    HW1  374   1.855   1.394   1.571 -1.0173  0.6617  2.5099
   94SOL    HW2  375   1.827   1.293   1.683 -0.7757  0.7816 -1.7115
   94SOL     MW  376   1.858   1.371   1.658  0.0055  0.4434 -0.7449
   95SOL     OW  377   0.806   1.559   0.952  0.0332 -0.1587 -0.0470
   95SOL    HW1  378   0.846   1.524   1.031  1.6423  0.8652  0.3393
   95SOL    HW2  379   0.710   1.547   0.950  0.1287 -4.2616 -2.0999
   95SOL     MW  380   0.799   1.553   0.963  0.2581 -0.5650 -0.2669
   96SOL     OW  381   1.294   1.881   1.685  0.4185  0.2541  0.1825
   96SOL    HW1  382   1.201   1.875   1.690 -0.2939  0.3963  1.1389
   96SOL    HW2  383   1.320   1.793   1.650 -0.3080  3.5408  4.8387
   96SOL     MW  384   1.286   1.869   1.681  0.2287  0.7065  0.9230
   97SOL     OW  385   1.174   1.444   0.865 -0.7447 -0.1970  0.2304
   97SOL    HW1  386   1.206   1.517   0.915  1.1329 -0.0491 -0.5031
   97SOL    HW2  387   1.098   1.488   0.815 -1.7401 -1.0456  3.0629
   97SOL     MW  388   1.168   1.459   0.865 -0.6283 -0.2894  0.5074
   98SOL     OW  389   1.446   1.285   1.092  0.6448  0.2775  0.3276
   98SOL    HW1  390   1.493   1.319   1.166  1.3303  0.1478  1.0605
   98SOL    HW2  391   1.450   1.358   1.034  0.8261 -3.9688 -0.3333
   98SOL     MW  392   1.452   1.299   1.094  0.7592 -0.2999  0.3371
   99SOL     OW  393   1.382   0.280   1.276 -0.0930 -0.2356 -0.1961
   99SOL    HW1  394   1.453   0.345   1.251  0.9969 -2.1583  0.7934
   99SOL    HW2  395   1.350   0.317   1.361  3.6241 -0.6254  1.7428
   99SOL     MW  396   1.387   0.293   1.284  0.5413 -0.5407  0.1903
  100SOL     OW  397   1.037   1.193   1.384 -0.1884  0.3406 -0.4035
  100SOL    HW1  398   1.064   1.231   1.471 -2.0474 -0.3920  0.2162
  100SOL    HW2  399   1.026   1.095   1.398 -1.6524 -0.2045 -1.9081
  100SOL     MW  400   1.039   1.185   1.398 -0.6269  0.1720 -0.5203
  101SOL     OW  401   0.502   1.177   0.303  0.0570  0.0806 -0.4951
  101SOL    HW1  402   0.436   1.119   0.267 -2.5995  1.6445 -0.8466
  101SOL    HW2  403   0.587   1.146   0.264 -1.9277  1.4437 -1.5586
  101SOL     MW  404   0.505   1.165   0.293 -0.5554  0.4668 -0.6818
  102SOL     OW  405   2.904   0.650   0.978  0.4178 -0.0776 -0.2286
  102SOL    HW1  406   2.962   0.722   0.985  2.5984  0.7211 -2.9142
  102SOL    HW2  407   2.853   0.633   1.060  1.5119  0.4564  1.5159
  102SOL     MW  408   2.905   0.657   0.990  0.8499  0.0983 -0.3528
  103SOL     OW  409   1.679   0.293   1.867  0.0029 -0.3035  0.1508
  103SOL    HW1  410   1.686   0.224   1.805  0.0455 -1.5076 -0.4486
  103SOL    HW2  411   1.612   0.261   1.927  0.9700  1.1104 -3.8161
  103SOL     MW  412   1.671   0.280   1.867  0.1361 -0.2758 -0.4517
  104SOL     OW  413   0.146   1.500   1.616 -0.1044 -0.2854 -0.0871
  104SOL    HW1  414   0.203   1.430   1.620 -0.7385 -0.5923  0.3195
  104SOL    HW2  415   0.068   1.474   1.569  2.4795 -0.3109  0.8491
  104SOL     MW  416   0.143   1.488   1.610  0.1529 -0.3292  0.0901
  105SOL     OW  417   0.054   1.221   0.399 -0.2142 -0.0454  0.2571
  105SOL    HW1  418   0.100   1.134   0.380  0.2605 -4.8774 -1.2767
  105SOL    HW2  419   0.119   1.284   0.428  0.6199  0.7579 -0.6852
  105SOL     MW  420   0.069   1.217   0.400 -0.0415 -0.5770 -0.0696
  106SOL     OW  421   0.822   0.355   1.006 -0.1949  0.5545  0.3824
  106SOL    HW1  422   0.759   0.425   0.980 -0.9505 -1.1110 -1.4362
  106SOL    HW2  423   0.886   0.337   0.932  0.9333  0.6455  2.2954
  106SOL     MW  424   0.822   0.362   0.992 -0.1458  0.3467  0.3949
  107SOL     OW  425   0.799   2.189   2.923 -0.1792 -0.2390  0.0098
  107SOL    HW1  426   0.723   2.181   2.863  1.2149  2.3008 -1.9856
  107SOL    HW2  427   0.775   2.153   3.012 -1.1611 -1.1834 -0.3107
  107SOL     MW  428   0.786   2.183   2.927 -0.1248 -0.0285 -0.2958
  108SOL     OW  429   1.327   1.631   1.631  0.8045 -0.4901 -0.2838
  108SOL    HW1  430   1.250   1.589   1.579 -1.6552 -1.4725 -1.2277
  108SOL    HW2  431   1.404   1.575   1.621 -0.0269  2.7906  2.4278
  108SOL     MW  432   1.327   1.618   1.623  0.3703 -0.1868 -0.0505
  109SOL     OW  433   1.996   0.785   0.254  0.7495  0.3002 -0.1019
  109SOL    HW1  434   2.006   0.881   0.265  1.7605  1.7659 -0.1338
  109SOL    HW2  435   2.044   0.753   0.333  2.0437  3.1838 -1.0681
  109SOL     MW  436   2.003   0.793   0.266  1.0536  0.8740 -0.2336
  110SOL     OW  437   0.379   1.875   0.627  0.6378  0.6008 -0.2294
  110SOL    HW1  438   0.456   1.825   0.644 -0.6910  3.7258 -1.6766
  110SOL    HW2  439   0.410   1.944   0.566 -0.5969  0.1610  0.0684
  110SOL     MW  440   0.393   1.878   0.621  0.2996  0.9551 -0.3811
  111SOL     OW  441   0.798   0.892   1.482 -0.5745 -0.4631 -0.2229
  111SOL    HW1  442   0.767   0.889   1.387 -3.5599  0.0388 -0.3979
  111SOL    HW2  443   0.770   0.808   1.512  0.2158 -0.2144 -1.1087
  111SOL     MW  444   0.790   0.880   1.473 -0.8641 -0.3641 -0.3629
  112SOL     OW  445   1.293   1.116   1.632  0.2981 -0.0977 -0.1145
  112SOL    HW1  446   1.225   1.186   1.634 -1.2830 -2.1540  0.4233
  112SOL    HW2  447   1.254   1.030   1.630  1.2949 -0.4654 -1.3647
  112SOL     MW  448   1.279   1.114   1.632  0.2210 -0.4176 -0.2085
  113SOL     OW  449   1.272   3.071   1.735  0.2055  0.0818 -0.3019
  113SOL    HW1  450   1.236   3.056   1.825 -0.9563  0.7409  0.9172
  113SOL    HW2  451   1.277   2.982   1.700  0.2578 -2.1323 -0.8348
  113SOL     MW  452   1.268   3.057   1.742  0.0591 -0.1233 -0.2113
  114SOL     OW  453   0.269   2.842   1.929 -0.4192 -0.4769 -0.5918
  114SOL    HW1  454   0.324   2.906   1.970  2.4935  0.5583 -0.8885
  114SOL    HW2  455   0.267   2.876   1.843 -2.0453  0.7537  1.1776
  114SOL     MW  456   0.276   2.855   1.923 -0.2494 -0.1780 -0.3975
  115SOL     OW  457   0.506   0.855   1.124 -0.7982  0.5534 -0.0991
  115SOL    HW1  458   0.502   0.759   1.143  1.9290 -0.8834  1.5311
  115SOL    HW2  459   0.461   0.897   1.203 -0.7894  0.4069  1.2076
  115SOL     MW  460   0.499   0.848   1.137 -0.4372  0.3445  0.2884
  116SOL     OW  461   0.790   1.062   0.976 -0.2740 -0.2418  0.3226
  116SOL    HW1  462   0.843   1.096   0.902 -1.0462 -0.2832  2.8608
  116SOL    HW2  463   0.820   1.113   1.060 -2.0084  1.5419  0.3417
  116SOL     MW  464   0.801   1.074   0.978 -0.6047 -0.0119  0.6601
  117SOL     OW  465   1.183   1.203   0.727 -0.4953 -0.0623  0.2669
  117SOL    HW1  466   1.186   1.141   0.807 -0.1633 -1.7294 -1.7724
  117SOL    HW2  467   1.180   1.288   0.771  0.1045  2.1207  0.5933
  117SOL     MW  468   1.183   1.206   0.743 -0.3724  0.0057  0.0409
  118SOL     OW  469   3.036   2.960   1.655  0.1414 -0.2137 -0.7368
  118SOL    HW1  470   3.076   3.014   1.728 -1.1049  0.2673  2.7931
  118SOL    HW2  471   2.964   3.013   1.620  1.6361  1.2638  2.3331
  118SOL     MW  472   3.031   2.974   1.660  0.1742  0.0447  0.1340
  119SOL     OW  473   0.465   1.491   1.204 -0.1074  0.4202 -0.0857
  119SOL    HW1  474   0.498   1.561   1.145 -2.9290  0.4891  0.6355
  119SOL    HW2  475   0.375   1.476   1.172  0.0438  1.2719  0.8040
  119SOL     MW  476   0.457   1.498   1.192 -0.4598  0.5417  0.1268
  120SOL     OW  477   0.307   0.769   0.953 -0.1403  0.1190 -0.1003
  120SOL    HW1  478   0.242   0.763   1.018 -0.3853  1.9166 -1.1301
  120SOL    HW2  479   0.370   0.829   0.988 -0.2307  1.0424 -1.5707
  120SOL     MW  480   0.307   0.776   0.966 -0.1846  0.4780 -0.4302
  121SOL     OW  481   1.762   1.118   1.708  0.2458 -0.2576 -0.3653
  121SOL    HW1  482   1.664   1.118   1.717  3.2712 -3.2236 -0.1877
  121SOL    HW2  483   1.784   1.052   1.642  3.6516 -2.3476  0.0684
  121SOL     MW  484   1.752   1.110   1.701  1.0943 -0.9247 -0.2846
  122SOL     OW  485   0.145   0.522   0.801  0.3915 -0.6333  0.1239
  122SOL    HW1  486   0.175   0.439   0.762  1.7161 -0.6846  0.5390
  122SOL    HW2  487   0.226   0.564   0.841  0.2453 -0.6796  1.1213
  122SOL     MW  488   0.160   0.516   0.801  0.5470 -0.6462  0.3103
  123SOL     OW  489   1.893   1.137   0.503 -0.5973  0.0941  0.1057
  123SOL    HW1  490   1.858   1.060   0.552  1.0330  0.1387  0.8640
  123SOL    HW2  491   1.956   1.173   0.565 -2.4595  0.6461 -0.4003
  123SOL     MW  492   1.897   1.132   0.518 -0.6279  0.1728  0.1390
  124SOL     OW  493   0.628   0.572   0.931 -0.5200  0.1218 -0.4982
  124SOL    HW1  494   0.556   0.537   0.880 -0.1597 -0.3786 -0.6863
  124SOL    HW2  495   0.625   0.667   0.901  0.0363 -1.1529 -1.0267
  124SOL     MW  496   0.618   0.580   0.920 -0.3991 -0.1124 -0.5927
  125SOL     OW  497   0.665   1.779   1.722  0.5372 -0.1457  0.2172
  125SOL    HW1  498   0.614   1.704   1.687  1.6603  0.5889  0.7877
  125SOL    HW2  499   0.615   1.861   1.693 -1.1036  3.6742 -0.4993
  125SOL     MW  500   0.651   1.780   1.714  0.4689  0.4552  0.1979
  126SOL     OW  501   2.109   1.589   1.960  0.2816  0.0297  0.0245
  126SOL    HW1  502   2.179   1.654   1.976 -0.3902  0.7104  0.8160
  126SOL    HW2  503   2.164   1.511   1.973  1.0848  1.4763 -1.6103
  126SOL     MW  504   2.125   1.587   1.964  0.2989  0.3104 -0.0868
  127SOL     OW  505   0.602   0.794   1.832 -0.5455 -0.0080  0.2194
  127SOL    HW1  506   0.684   0.755   1.867  0.7224  1.2711  1.6907
  127SOL    HW2  507   0.594   0.874   1.883 -0.3042  0.8580  0.5096
  127SOL     MW  508   0.612   0.799   1.843 -0.3464  0.2750  0.4518
  128SOL     OW  509   1.727   0.723   2.914 -0.4180 -0.3804 -0.2051
  128SOL    HW1  510   1.765   0.703   2.829 -3.2930  1.3682  0.3150
  128SOL    HW2  511   1.716   0.819   2.925 -1.7322  1.2703 -2.1686
  128SOL     MW  512   1.730   0.733   2.904 -0.9707  0.0681 -0.3956
  129SOL     OW  513   1.607   0.940   0.173  0.7041 -0.3812 -0.4589
  129SOL    HW1  514   1.535   0.881   0.149 -1.4360  0.1121 -0.9588
  129SOL    HW2  515   1.649   0.911   0.256 -0.2527 -1.7255  0.0310
  129SOL     MW  516   1.603   0.928   0.181  0.2955 -0.4935 -0.4602
  130SOL     OW  517   0.744   1.391   0.320  0.0643 -0.2274  0.1203
  130SOL    HW1  518   0.789   1.375   0.405 -0.5269  0.7564 -0.9384
  130SOL    HW2  519   0.798   1.451   0.266  1.2103  0.7218 -2.5520
  130SOL     MW  520   0.757   1.397   0.324  0.1375  0.0277 -0.3720
  131SOL     OW  521   3.049   0.840   0.036  0.2062  0.5362 -0.0564
  131SOL    HW1  522   3.032   0.898  -0.034  1.3431  0.5383  2.4911
  131SOL    HW2  523   3.142   0.814   0.031 -2.2003 -0.4711  1.6113
  131SOL     MW  524   3.059   0.844   0.026  0.0387  0.4036  0.4997
  132SOL     OW  525   2.670   0.139   1.342 -0.1059 -0.0151  0.4610
  132SOL    HW1  526   2.709   0.164   1.250  3.9920  0.1533 -0.3645
  132SOL    HW2  527   2.593   0.088   1.315 -1.8392  1.2879 -1.3111
  132SOL     MW  528   2.665   0.136   1.326  0.2061  0.1790  0.1183
  133SOL     OW  529   1.054   0.156   1.714  0.0520 -0.2052  0.6095
  133SOL    HW1  530   1.127   0.096   1.695  2.6201  0.8964  1.9639
  133SOL    HW2  531   1.056   0.172   1.809  0.4724 -1.0564  0.2797
  133SOL     MW  532   1.064   0.150   1.724  0.4463 -0.1722  0.7447
  134SOL     OW  533   1.422   2.535   1.406  0.0700  0.0431  0.0174
  134SOL    HW1  534   1.361   2.606   1.405 -1.6879  0.3936  0.5727
  134SOL    HW2  535   1.465   2.548   1.491  1.8413  0.8290 -1.5092
  134SOL     MW  536   1.420   2.546   1.417  0.0718  0.1930 -0.1108
  135SOL     OW  537   3.004   0.998   2.893  0.5932  0.2230 -0.3859
  135SOL    HW1  538   3.092   1.052   2.894  2.4060 -0.2813 -0.4685
  135SOL    HW2  539   2.928   1.059   2.909  0.0159 -1.7990 -0.1761
  135SOL     MW  540   3.005   1.013   2.895  0.7562 -0.1103 -0.3691
  136SOL     OW  541   0.178   2.017   0.793  0.2043  0.3875 -0.2569
  136SOL    HW1  542   0.092   1.968   0.789 -0.6678 -1.8671  0.5716
  136SOL    HW2  543   0.232   1.974   0.730 -0.0966  0.7486  0.2614
  136SOL     MW  544   0.174   2.005   0.784  0.0496  0.1377 -0.0792
  137SOL     OW  545   0.692   2.015   0.526 -0.0105 -0.3408 -0.5395
  137SOL    HW1  546   0.694   1.990   0.621 -0.3011 -0.3471  0.7109
  137SOL    HW2  547   0.608   2.055   0.499 -1.6231  0.4528  2.3141
  137SOL     MW  548   0.681   2.017   0.535 -0.2616 -0.2369  0.0020
  138SOL     OW  549   0.501   0.588   1.167  0.1192  0.0579  0.3013
  138SOL    HW1  550   0.408   0.565   1.172 -0.2782 -2.6126  0.3084
  138SOL    HW2  551   0.534   0.571   1.076 -2.4356 -0.6798 -1.5572
  138SOL     MW  552   0.493   0.583   1.156 -0.2703 -0.3918  0.0570
  139SOL     OW  553   2.820   0.596   1.244  0.5342 -0.2718 -0.7576
  139SOL    HW1  554   2.882   0.524   1.267  1.2735 -2.6472 -1.3875
  139SOL    HW2  555   2.865   0.665   1.291 -1.0809 -0.8746 -0.5647
  139SOL     MW  556   2.834   0.596   1.253  0.4187 -0.6648 -0.8153
  140SOL     OW  557   0.942   0.458   2.050  0.3628  0.7671 -0.0076
  140SOL    HW1  558   0.965   0.392   1.991 -1.7662  1.5560 -1.1135
  140SOL    HW2  559   0.955   0.408   2.129 -3.1286  0.8931 -1.8362
  140SOL     MW  560   0.947   0.443   2.053 -0.3788  0.8878 -0.3948
  141SOL     OW  561   1.026   0.622   1.763 -0.3895 -0.1240 -0.0225
  141SOL    HW1  562   1.057   0.547   1.711 -0.7445 -0.4702  1.5370
  141SOL    HW2  563   1.089   0.685   1.722 -2.5930  0.3446 -1.8674
  141SOL     MW  564   1.038   0.620   1.751 -0.7271 -0.1078 -0.0602
  142SOL     OW  565   0.896   1.161   0.748 -0.2601 -0.4476 -0.2683
  142SOL    HW1  566   0.870   1.096   0.673  1.6940  0.1330  0.7721
  142SOL    HW2  567   0.991   1.175   0.735 -1.1339  1.5093  0.3924
  142SOL     MW  568   0.905   1.154   0.736 -0.1176 -0.1128 -0.0438
  143SOL     OW  569   1.825   0.757   1.066 -0.2728  0.2196  0.2020
  143SOL    HW1  570   1.870   0.738   0.986  1.3820  0.6761 -0.1974
  143SOL    HW2  571   1.735   0.729   1.043  0.1500  0.5119  2.3856
  143SOL     MW  572   1.819   0.751   1.052  0.0013  0.3184  0.4374
  144SOL     OW  573   0.294   1.285   1.647  0.3751 -0.0157  0.3204
  144SOL    HW1  574   0.386   1.258   1.626  1.1956  2.6058  1.8564
  144SOL    HW2  575   0.298   1.293   1.743  1.3252 -1.1362 -0.3602
  144SOL     MW  576   0.307   1.283   1.657  0.6087  0.1823  0.4332
  145SOL     OW  577   0.254   0.495   1.181  0.1630  0.2300 -0.0745
  145SOL    HW1  578   0.251   0.406   1.217 -1.1456  1.3023 -0.6053
  145SOL    HW2  579   0.164   0.510   1.138  1.9080 -2.3397  3.2719
  145SOL     MW  580   0.241   0.486   1.180  0.2205  0.0325  0.2970
  146SOL     OW  581   0.854   1.978   1.406 -0.5133 -0.0201  0.1799
  146SOL    HW1  582   0.897   1.994   1.320  2.3642 -0.7067 -0.4904
  146SOL    HW2  583   0.757   1.975   1.384  0.7968  1.4775 -0.6162
  146SOL     MW  584   0.847   1.980   1.392  0.0392  0.0869 -0.0136
  147SOL     OW  585   0.382   0.451   3.012 -0.3077  0.4125  0.3034
  147SOL    HW1  586   0.328   0.467   3.089 -1.1004  0.9711  1.7337
  147SOL    HW2  587   0.347   0.511   2.945 -2.4308 -1.7147  0.0102
  147SOL     MW  588   0.371   0.461   3.013 -0.6924  0.2056  0.4534
  148SOL     OW  589   0.123   0.951   1.315 -0.3837  0.0106 -0.2376
  148SOL    HW1  590   0.210   0.978   1.288 -2.9373  1.4382  2.6752
  148SOL    HW2  591   0.102   1.001   1.393  2.2987  2.1532  0.0073
  148SOL     MW  592   0.132   0.961   1.322 -0.3667  0.4817  0.1790
  149SOL     OW  593   1.413   1.148   1.370  0.4916 -0.5713  0.5540
  149SOL    HW1  594   1.402   1.148   1.465 -1.5654 -1.5472 -1.1291
  149SOL    HW2  595   1.480   1.212   1.350 -1.2848 -1.1869  0.3637
  149SOL     MW  596   1.421   1.157   1.380 -0.0141 -0.7813  0.3068
  150SOL     OW  597   1.748   1.373   0.756 -0.3015  0.4010 -0.0789
  150SOL    HW1  598   1.777   1.292   0.801 -0.2248  2.2469 -1.4951
  150SOL    HW2  599   1.810   1.441   0.779 -3.6526  0.1281 -0.2601
  150SOL     MW  600   1.760   1.371   0.765 -0.7336  0.6086 -0.2897
  151SOL     OW  601   1.666   1.783   0.821  0.0881 -0.2264 -0.4811
  151SOL    HW1  602   1.663   1.778   0.725  0.3108  0.3125 -3.1484
  151SOL    HW2  603   1.589   1.727   0.850 -1.3173  1.2408 -0.8709
  151SOL     MW  604   1.656   1.775   0.812 -0.0679  0.0383 -0.8844
  152SOL     OW  605   0.783   1.413   1.577 -0.0322  0.2871  1.0419
  152SOL    HW1  606   0.789   1.320   1.586  0.4063  1.0726 -1.2580
  152SOL    HW2  607   0.845   1.462   1.634  0.1363  0.4909 -0.8259
  152SOL     MW  608   0.792   1.407   1.586  0.0479  0.4176  0.4920
  153SOL     OW  609   2.622   1.219   0.808 -0.0914 -0.1899 -0.2322
  153SOL    HW1  610   2.691   1.184   0.740  3.1003 -1.5039 -0.3012
  153SOL    HW2  611   2.561   1.150   0.815 -0.4136 -1.6827 -0.2629
  153SOL     MW  612   2.623   1.205   0.800  0.2872 -0.5603 -0.2453
  154SOL     OW  613   0.175   1.763   1.712 -0.1187 -0.4419 -0.0222
  154SOL    HW1  614   0.144   1.679   1.686  0.9884  2.4152 -2.8195
  154SOL    HW2  615   0.266   1.747   1.730 -1.0465  1.7001  4.5657
  154SOL     MW  616   0.183   1.750   1.711 -0.0950  0.2177  0.2140
  155SOL     OW  617   1.179   0.652   0.236 -0.3081  0.4219 -0.0527
  155SOL    HW1  618   1.159   0.612   0.319 -1.7547 -2.2824 -4.2696
  155SOL    HW2  619   1.182   0.749   0.254  0.3347  1.3393  3.5573
  155SOL     MW  620   1.177   0.659   0.249 -0.4141  0.1861 -0.1327
  156SOL     OW  621   1.511   3.009   1.089  0.1814 -0.1577 -0.4478
  156SOL    HW1  622   1.583   3.052   1.135  1.3169 -1.6789  0.5571
  156SOL    HW2  623   1.522   2.918   1.115 -0.8189 -1.2373  1.2455
  156SOL     MW  624   1.522   3.003   1.099  0.1993 -0.5009 -0.0918
  157SOL     OW  625   1.449   1.177   0.106 -0.5757  0.3751 -0.1148
  157SOL    HW1  626   1.470   1.092   0.160 -0.4900 -1.1881  2.6383
  157SOL    HW2  627   1.530   1.221   0.076 -1.0817  0.6662 -2.5283
  157SOL     MW  628   1.462   1.172   0.109 -0.6311  0.2073 -0.0700
  158SOL     OW  629   0.452   1.615   2.226 -0.8770  0.2945  0.2511
  158SOL    HW1  630   0.475   1.682   2.161 -2.9047  0.7173  0.4953
  158SOL    HW2  631   0.398   1.658   2.290  2.7708 -0.0565 -0.3051
  158SOL     MW  632   0.448   1.630   2.226 -0.6632  0.3039  0.2100
  159SOL     OW  633   1.263   1.688   0.463 -0.6827  0.5148 -0.3401
  159SOL    HW1  634   1.224   1.626   0.394  0.0844 -0.7149 -1.4833
  159SOL    HW2  635   1.191   1.709   0.520  1.6687  0.5888 -0.9262
  159SOL     MW  636   1.249   1.683   0.462 -0.2713  0.3623 -0.5683
  160SOL     OW  637   0.518   1.120   1.610  0.0251  0.6881 -0.3854
  160SOL    HW1  638   0.482   1.030   1.596 -1.7662  0.6277  0.4777
  160SOL    HW2  639   0.611   1.111   1.596 -1.5529  0.5033 -3.0640
  160SOL     MW  640   0.526   1.107   1.607 -0.4194  0.6557 -0.6249
  161SOL     OW  641   0.507   2.278   2.546 -0.0244  0.3151  0.2572
  161SOL    HW1  642   0.418   2.299   2.573  2.0566  0.0472 -1.2850
  161SOL    HW2  643   0.502   2.202   2.487  0.5411 -0.8799 -0.5070
  161SOL     MW  644   0.495   2.271   2.542  0.3248  0.1221 -0.0471
  162SOL     OW  645   1.087   1.783   1.906  0.9035 -0.1754 -0.3824
  162SOL    HW1  646   1.090   1.872   1.952 -1.3731  0.3879 -2.2024
  162SOL    HW2  647   0.991   1.784   1.897  2.0324  0.7197  0.5214
  162SOL     MW  648   1.075   1.795   1.911  0.7521  0.0170 -0.5033
  163SOL     OW  649   2.116   3.049   0.854  0.2174 -0.8494 -0.1618
  163SOL    HW1  650   2.096   3.116   0.780 -1.3800  1.7499 -1.2855
  163SOL    HW2  651   2.078   2.966   0.831  0.2340 -0.8924  2.2434
  163SOL     MW  652   2.109   3.047   0.842  0.0088 -0.5121  0.0072
  164SOL     OW  653   0.326   0.212   0.815 -0.2609  0.0387  0.6911
  164SOL    HW1  654   0.244   0.198   0.866  0.4199  0.7108 -0.7384
  164SOL    HW2  655   0.330   0.138   0.762  0.6419  0.6482 -0.0835
  164SOL     MW  656   0.316   0.200   0.815 -0.0520  0.2078  0.4003
  165SOL     OW  657   1.362   1.310   0.357 -0.3484  0.0608  0.0740
  165SOL    HW1  658   1.340   1.234   0.412  0.2200  2.1857 -1.4933
  165SOL    HW2  659   1.391   1.264   0.277 -2.4002 -1.7472  2.0494
  165SOL     MW  660   1.363   1.294   0.354 -0.5441  0.1026  0.1278
  166SOL     OW  661   0.518   1.202   0.989  0.0899 -0.0666 -0.0248
  166SOL    HW1  662   0.506   1.196   1.081  3.1681 -3.5058 -1.9576
  166SOL    HW2  663   0.605   1.165   0.974 -0.9298  0.7771 -0.7320
  166SOL     MW  664   0.528   1.197   0.999  0.3615 -0.4091 -0.3731
  167SOL     OW  665   0.811   1.082   0.281  0.1139 -0.3419  0.1436
  167SOL    HW1  666   0.811   1.178   0.287  0.6198  3.5189 -0.7800
  167SOL    HW2  667   0.870   1.049   0.220 -1.8912  1.0006 -1.4207
  167SOL     MW  668   0.819   1.090   0.274 -0.0839  0.3446 -0.1846
  168SOL     OW  669   1.693   1.656   3.032  0.5552  0.1963  0.5552
  168SOL    HW1  670   1.632   1.730   3.034 -2.6112 -1.8814 -1.3906
  168SOL    HW2  671   1.658   1.573   3.003 -2.1871  1.5135  2.3888
  168SOL     MW  672   1.680   1.655   3.028 -0.2244  0.0960  0.5404
  169SOL     OW  673   0.390   0.993   1.326 -0.2340 -0.0168 -0.5690
  169SOL    HW1  674   0.395   0.939   1.407 -0.7856  0.1135 -0.1813
  169SOL    HW2  675   0.460   1.060   1.341  0.9202 -0.7752 -0.1969
  169SOL     MW  676   0.400   0.995   1.339 -0.1545 -0.0997 -0.4688
  170SOL     OW  677   1.077   1.569   1.520 -0.6102  0.3013  0.2683
  170SOL    HW1  678   1.028   1.647   1.543  0.3002 -0.8196 -1.2316
  170SOL    HW2  679   1.097   1.577   1.429 -2.3696 -1.0131 -1.1489
  170SOL     MW  680   1.073   1.581   1.511 -0.7222 -0.0200 -0.1166
  171SOL     OW  681   0.549   1.410   0.630  0.0436 -0.1619  0.5722
  171SOL    HW1  682   0.536   1.399   0.726  2.1079 -1.7072  1.2180
  171SOL    HW2  683   0.536   1.320   0.593 -0.3964 -0.6132 -1.4557
  171SOL     MW  684   0.546   1.397   0.638  0.2579 -0.4253  0.3898
  172SOL     OW  685   0.890   0.283   1.284  0.1156 -0.1935  0.0432
  172SOL    HW1  686   0.895   0.290   1.184 -3.1129  3.4071 -2.4697
  172SOL    HW2  687   0.799   0.301   1.297  1.1836 -2.3967 -1.0171
  172SOL     MW  688   0.879   0.286   1.272 -0.1694 -0.0092 -0.4282
  173SOL     OW  689   0.452   1.736   0.307  0.2237  0.8321 -0.8749
  173SOL    HW1  690   0.445   1.651   0.259  2.6587 -0.1059  0.8621
  173SOL    HW2  691   0.485   1.709   0.392 -1.0141  0.4887  2.0675
  173SOL     MW  692   0.455   1.721   0.312  0.3817  0.6630 -0.2575
  174SOL     OW  693   1.855   0.915   1.500 -0.2917 -0.4157 -0.3831
  174SOL    HW1  694   1.793   0.844   1.523  0.2178 -2.2378 -1.2283
  174SOL    HW2  695   1.823   0.941   1.413 -1.6373 -0.8979 -2.8785
  174SOL     MW  696   1.842   0.909   1.492 -0.4021 -0.7197 -0.8239
  175SOL     OW  697   0.499   1.464   0.221 -0.1264  0.1788 -0.2327
  175SOL    HW1  698   0.416   1.406   0.211 -1.9235  0.0177 -2.4185
  175SOL    HW2  699   0.565   1.423   0.271  0.5814  2.4139  1.7982
  175SOL     MW  700   0.497   1.451   0.226 -0.2701  0.4524 -0.2531
  176SOL     OW  701   0.200   1.493   1.172 -0.0669 -0.0028  0.1834
  176SOL    HW1  702   0.183   1.404   1.126  1.8979 -2.7346 -0.9928
  176SOL    HW2  703   0.120   1.501   1.233  1.5778  3.2952 -1.0513
  176SOL     MW  704   0.187   1.482   1.174  0.4094  0.0719 -0.1347
  177SOL     OW  705   0.637   0.413   1.335 -0.9477 -0.7595 -0.8191
  177SOL    HW1  706   0.583   0.482   1.283 -0.2118 -2.8125  2.1679
  177SOL    HW2  707   0.605   0.436   1.424  0.6232  0.6565 -1.2147
  177SOL     MW  708   0.625   0.425   1.340 -0.6433 -0.8436 -0.4772
  178SOL     OW  709   3.062   0.581   2.943  0.0343 -0.1957 -0.1593
  178SOL    HW1  710   2.984   0.597   2.994  0.6374  1.0197  0.9681
  178SOL    HW2  711   3.038   0.556   2.851  0.0642  1.3217 -0.3915
  178SOL     MW  712   3.049   0.580   2.938  0.1178  0.1649 -0.0412
  179SOL     OW  713   1.578   1.390   1.308 -0.2495  0.1437  0.9164
  179SOL    HW1  714   1.574   1.425   1.398 -1.9676  1.1315 -2.6980
  179SOL    HW2  715   1.673   1.385   1.302 -1.7495  1.5221  1.6808
  179SOL     MW  716   1.590   1.394   1.319 -0.6741  0.4559  0.5404
  180SOL     OW  717   2.997   0.248   0.458 -0.4878  0.1391  0.2111
  180SOL    HW1  718   2.945   0.250   0.374 -0.3081 -0.9671 -1.4872
  180SOL    HW2  719   3.077   0.310   0.443 -0.6226  3.4984  1.2416
  180SOL     MW  720   3.001   0.256   0.445 -0.4819  0.4363  0.1230
  181SOL     OW  721   1.109   1.338   3.078 -0.2102  0.2345 -0.4998
  181SOL    HW1  722   1.170   1.400   3.112 -2.0630 -1.3562  0.3027
  181SOL    HW2  723   1.157   1.302   3.005 -1.2866  2.3013 -0.6789
  181SOL     MW  724   1.123   1.342   3.073 -0.5967  0.2973 -0.4176
  182SOL     OW  725   0.454   0.840   1.569 -0.0669 -0.0377  0.3628
  182SOL    HW1  726   0.352   0.840   1.591 -2.0055 -1.6562 -3.4827
  182SOL    HW2  727   0.487   0.811   1.654  2.3250 -2.5526 -0.3691
  182SOL     MW  728   0.445   0.836   1.583 -0.0071 -0.5831 -0.2412
  183SOL     OW  729   1.587   1.623   1.168 -0.0467  1.1125  0.7117
  183SOL    HW1  730   1.615   1.698   1.217  2.7193  2.0309  0.4514
  183SOL    HW2  731   1.572   1.547   1.223 -2.6972  0.5343 -0.2149
  183SOL     MW  732   1.588   1.623   1.182 -0.0315  1.1574  0.5551
  184SOL     OW  733   0.840   0.689   1.943  0.0798  0.3624 -0.4524
  184SOL    HW1  734   0.903   0.692   1.875 -1.9182 -1.3939 -0.2515
  184SOL    HW2  735   0.872   0.608   1.990 -0.2323  1.9936 -0.5719
  184SOL     MW  736   0.853   0.679   1.940 -0.2250  0.3459 -0.4417
  185SOL     OW  737   1.149   0.972   1.910 -0.3926  0.0820  0.1614
  185SOL    HW1  738   1.132   0.887   1.963 -2.4358 -0.1018 -0.0855
  185SOL    HW2  739   1.192   1.028   1.969 -0.1918 -0.9290 -1.8430
  185SOL     MW  740   1.153   0.968   1.924 -0.6357 -0.0757 -0.1356
  186SOL     OW  741   0.379   1.647   1.410  0.2208 -0.4658 -0.1273
  186SOL    HW1  742   0.381   1.593   1.332 -0.3836  0.0197  3.0870
  186SOL    HW2  743   0.313   1.605   1.464 -0.7557 -2.2775 -0.4470
  186SOL     MW  744   0.370   1.634   1.407  0.0122 -0.6408  0.2546
  187SOL     OW  745   1.487   0.717   1.328  0.3804  0.0813 -0.2062
  187SOL    HW1  746   1.536   0.701   1.408  0.8096  0.7856 -0.9173
  187SOL    HW2  747   1.393   0.712   1.355  3.1905 -0.9271  4.4546
  187SOL     MW  748   1.481   0.714   1.342  0.8078  0.0412  0.3149
  188SOL     OW  749   1.887   1.159   0.913  0.1221 -0.6913  0.3022
  188SOL    HW1  750   1.889   1.157   1.009  0.2690  3.4005  1.5074
  188SOL    HW2  751   1.911   1.069   0.894 -1.6762 -0.5883  0.4469
  188SOL     MW  752   1.890   1.147   0.923 -0.0958 -0.1378  0.4803
  189SOL     OW  753   0.672   0.837   0.870  0.4382  0.0190  0.5174
  189SOL    HW1  754   0.590   0.896   0.870  2.7134 -0.7363  2.3322
  189SOL    HW2  755   0.735   0.902   0.909 -2.7008 -0.7222  1.6122
  189SOL     MW  756   0.669   0.854   0.875  0.3242 -0.1785  0.9013
  190SOL     OW  757   1.912   0.238   2.175 -0.0341  0.0739 -0.6125
  190SOL    HW1  758   1.937   0.212   2.264 -3.6300 -1.5933  1.4818
  190SOL    HW2  759   1.990   0.290   2.138 -0.6977  1.2621  2.1780
  190SOL     MW  760   1.926   0.241   2.182 -0.5961  0.0107  0.0320
  191SOL     OW  761   1.509   0.946   1.181  0.6835 -0.0907 -0.5725
  191SOL    HW1  762   1.452   1.016   1.210  2.2225 -0.6951 -1.7234
  191SOL    HW2  763   1.481   0.869   1.234 -0.0454  1.1955 -0.0639
  191SOL     MW  764   1.498   0.945   1.192  0.7904 -0.0007 -0.6572
  192SOL     OW  765   0.593   2.094   2.758 -0.3241  0.6602 -0.2592
  192SOL    HW1  766   0.585   2.115   2.668  1.2952 -1.3606  1.0653
  192SOL    HW2  767   0.621   1.998   2.761 -3.0931 -1.6683  0.0957
  192SOL     MW  768   0.595   2.084   2.746 -0.4758  0.0864 -0.0376
  193SOL     OW  769   0.942   1.546   0.724 -0.0966  1.0697  0.1468
  193SOL    HW1  770   0.891   1.565   0.800 -0.7826 -3.3431  0.4378
  193SOL    HW2  771   0.894   1.474   0.670 -2.3184  1.2897 -1.0110
  193SOL     MW  772   0.929   1.539   0.727 -0.4803  0.5165  0.0325
  194SOL     OW  773   0.527   1.489   0.929 -0.2375  0.0771 -0.7756
  194SOL    HW1  774   0.537   1.398   0.967 -0.6079 -2.4690 -1.7075
  194SOL    HW2  775   0.437   1.513   0.933  0.2205  0.2177  0.5351
  194SOL     MW  776   0.517   1.480   0.935 -0.2259 -0.2403 -0.7256
  195SOL     OW  777   1.297   1.173   2.956 -0.0249 -0.0294 -0.0707
  195SOL    HW1  778   1.359   1.172   3.026  1.3546 -0.1921 -2.7094
  195SOL    HW2  779   1.251   1.086   2.959  3.2386 -1.0702 -0.9682
  195SOL     MW  780   1.299   1.161   2.965  0.5877 -0.1882 -0.5373
  196SOL     OW  781   2.184   0.999   0.574  0.1714 -0.0091 -0.5953
  196SOL    HW1  782   2.174   1.004   0.485 -1.1267 -0.0711 -0.8242
  196SOL    HW2  783   2.213   1.089   0.599  0.6577  2.2369  1.0412
  196SOL     MW  784   2.187   1.012   0.566  0.0643  0.2791 -0.4095
  197SOL     OW  785   0.668   1.341   2.103  0.1185  1.3910  0.3514
  197SOL    HW1  786   0.668   1.243   2.072 -0.1077  0.7499 -0.9416
  197SOL    HW2  787   0.615   1.382   2.031  0.0006 -1.6473  0.0911
  197SOL     MW  788   0.661   1.333   2.089  0.0731  0.9055  0.1464
  198SOL     OW  789   2.926   1.386   1.050 -0.3472  0.6398 -0.1457
  198SOL    HW1  790   2.900   1.433   0.971  0.2847  1.1157  0.8454
  198SOL    HW2  791   2.851   1.337   1.075 -0.7114  0.1657 -1.1764
  198SOL     MW  792   2.913   1.386   1.043 -0.3119  0.6400 -0.1509
  199SOL     OW  793   0.518   1.406   1.886  0.8836 -0.2352  0.0973
  199SOL    HW1  794   0.445   1.349   1.901  0.3801  0.0277  0.7630
  199SOL    HW2  795   0.586   1.359   1.837 -0.8560  1.6105 -0.8549
  199SOL     MW  796   0.517   1.392   1.881  0.5876  0.0430  0.0595
  200SOL     OW  797   1.901   2.907   1.388 -0.4705 -0.4061  0.3521
  200SOL    HW1  798   1.929   2.919   1.292  1.0935  0.0208 -2.7039
  200SOL    HW2  799   1.824   2.965   1.394  1.7443 -0.5519  3.0034
  200SOL     MW  800   1.895   2.916   1.376  0.0281 -0.3690  0.2987
  201SOL     OW  801   1.015   0.323   0.799 -0.5694  1.0732 -0.1347
  201SOL    HW1  802   1.010   0.235   0.772  2.0225  0.4776 -1.3464
  201SOL    HW2  803   1.110   0.352   0.793 -1.0351 -0.1660  0.2684
  201SOL     MW  804   1.027   0.316   0.794 -0.2889  0.8311 -0.2414
  202SOL     OW  805   1.519   1.563   0.897 -0.2711  0.2682  0.0005
  202SOL    HW1  806   1.547   1.476   0.864  0.6003  1.5275  0.0261
  202SOL    HW2  807   1.572   1.574   0.977  0.6691 -0.1402 -0.9645
  202SOL     MW  808   1.530   1.553   0.903 -0.0320  0.3805 -0.1234
  203SOL     OW  809   3.002   0.454   1.389  0.6501 -0.1577  0.5909
  203SOL    HW1  810   3.063   0.381   1.374 -0.1419  3.4297  0.5426
  203SOL    HW2  811   3.053   0.517   1.440 -1.6170  2.4193  1.1717
  203SOL     MW  812   3.016   0.453   1.394  0.2465  0.6556  0.6612
  204SOL     OW  813   1.014   1.768   0.582  0.2182  0.0033  0.6616
  204SOL    HW1  814   0.982   1.688   0.628 -3.2173 -1.3316 -0.1809
  204SOL    HW2  815   0.942   1.773   0.518  0.9406 -1.0887  0.6598
  204SOL     MW  816   1.000   1.758   0.580 -0.1398 -0.3169  0.5502
  205SOL     OW  817   1.388   0.019   1.328  0.2191 -0.6502  0.2064
  205SOL    HW1  818   1.366  -0.028   1.251 -1.1188 -2.3545  1.2206
  205SOL    HW2  819   1.363   0.111   1.318 -0.0223 -0.7435  0.3119
  205SOL     MW  820   1.382   0.025   1.316  0.0107 -0.8874  0.3541
  206SOL     OW  821   0.483   3.045   1.397  0.3205  0.5983 -0.2082
  206SOL    HW1  822   0.460   3.047   1.302  0.6391  1.2799  0.8756
  206SOL    HW2  823   0.524   2.957   1.409  1.1089 -0.1566 -2.9325
  206SOL     MW  824   0.485   3.034   1.386  0.4666  0.5887 -0.4247
  207SOL     OW  825   0.922   1.585   0.201  0.2879  0.8518  0.0026
  207SOL    HW1  826   0.936   1.667   0.151  2.2554  1.5271 -0.4642
  207SOL    HW2  827   1.011   1.554   0.232  0.5885  2.6648 -1.3246
  207SOL     MW  828   0.936   1.592   0.199  0.5872  1.1801 -0.2341
  208SOL     OW  829   0.747   1.630   1.329  0.2364  0.0335 -0.5723
  208SOL    HW1  830   0.801   1.650   1.404 -1.9036  3.0728  0.4671
  208SOL    HW2  831   0.812   1.575   1.284 -0.3938  0.9266  2.0937
  208SOL     MW  832   0.763   1.625   1.333 -0.1291  0.5523 -0.0834
  209SOL     OW  833   1.566   0.476   2.927  0.0355  0.9180 -0.2083
  209SOL    HW1  834   1.597   0.567   2.910  2.3115  1.3160 -1.8012
  209SOL    HW2  835   1.628   0.425   2.866  0.0558 -1.9828 -1.6434
  209SOL     MW  836   1.579   0.481   2.916  0.3385  0.5878 -0.6078
  210SOL     OW  837   1.496   1.289   0.761 -0.6928  0.5839 -0.2242
  210SOL    HW1  838   1.591   1.309   0.757  2.0392 -1.3531  0.9718
  210SOL    HW2  839   1.460   1.347   0.695 -1.0235 -0.7276 -0.4430
  210SOL     MW  840   1.504   1.299   0.752 -0.3760  0.1553 -0.0953
  211SOL     OW  841   1.727   0.235   0.962 -0.0703  0.0867 -0.0471
  211SOL    HW1  842   1.689   0.292   0.896 -0.7672  1.3074 -0.2678
  211SOL    HW2  843   1.804   0.283   0.996  0.7883  0.2752  1.0541
  211SOL     MW  844   1.732   0.249   0.958 -0.0490  0.2726  0.0691
  212SOL     OW  845   0.280   1.043   0.166 -0.2896 -0.0062  0.3296
  212SOL    HW1  846   0.203   0.991   0.198 -1.2386  0.3755  1.3902
  212SOL    HW2  847   0.352   0.982   0.148  1.8313  0.5281  0.9277
  212SOL     MW  848   0.279   1.028   0.168 -0.1350  0.1146  0.5484
  213SOL     OW  849   0.517   1.717   3.019 -0.4472  0.0617 -0.4462
  213SOL    HW1  850   0.513   1.796   3.083 -0.5966  0.1238  1.0699
  213SOL    HW2  851   0.540   1.754   2.932 -0.3856 -1.2585  0.0950
  213SOL     MW  852   0.519   1.732   3.016 -0.4588 -0.1043 -0.1748
  214SOL     OW  853   0.666   0.367   2.155  0.2668  0.1365  0.4269
  214SOL    HW1  854   0.582   0.423   2.178 -0.0934  0.9445  0.3474
  214SOL    HW2  855   0.678   0.361   2.059 -0.1755  0.2071 -1.9310
  214SOL     MW  856   0.657   0.374   2.145  0.1609  0.2524  0.1053
  215SOL     OW  857   0.494   0.711   2.656  0.6109 -0.2363  0.0191
  215SOL    HW1  858   0.475   0.677   2.574 -1.3047 -1.4241 -2.7555
  215SOL    HW2  859   0.419   0.681   2.709 -0.2014 -1.1251 -1.5766
  215SOL     MW  860   0.482   0.703   2.652  0.2510 -0.5103 -0.5575
  216SOL     OW  861   2.955   3.009   2.709  0.6227 -0.3704  0.2537
  216SOL    HW1  862   2.893   3.046   2.774 -1.3618 -0.7559  3.5306
  216SOL    HW2  863   3.027   3.069   2.700  0.1008  0.2731  0.7689
  216SOL     MW  864   2.956   3.022   2.716  0.2920 -0.3364  0.7541
  217SOL     OW  865   1.051   1.116   0.133  0.5850  0.4019  0.0604
  217SOL    HW1  866   1.076   1.048   0.071 -0.8465  0.7407 -1.5679
  217SOL    HW2  867   1.079   1.201   0.102 -2.7980 -0.8008 -0.7938
  217SOL     MW  868   1.058   1.118   0.121 -0.0503  0.2879 -0.2672
  218SOL     OW  869   0.924   1.352   2.588  0.0820  0.3716  0.8591
  218SOL    HW1  870   0.949   1.274   2.634  1.5212  2.1119 -0.7896
  218SOL    HW2  871   0.985   1.418   2.625 -1.2295  2.0447 -0.6752
  218SOL     MW  872   0.935   1.351   2.599  0.0989  0.8220  0.4392
  219SOL     OW  873   1.117   0.358   2.630 -0.4205  0.5077 -0.4168
  219SOL    HW1  874   1.197   0.414   2.634  4.4422 -0.7026  0.7176
  219SOL    HW2  875   1.050   0.418   2.596  2.0345 -0.7547 -0.5973
  219SOL     MW  876   1.119   0.373   2.626  0.5450  0.1815 -0.2909
  220SOL     OW  877   1.751   0.458   2.214  0.0430 -0.0869  0.2003
  220SOL    HW1  878   1.666   0.470   2.165 -0.2112  1.0802  0.0849
  220SOL    HW2  879   1.798   0.381   2.187 -0.5418 -0.2164  1.8128
  220SOL     MW  880   1.746   0.450   2.204 -0.0677  0.0500  0.3979
  221SOL     OW  881   0.352   1.308   2.939 -0.3104  0.0814 -0.0729
  221SOL    HW1  882   0.432   1.256   2.923  0.9067  2.5553 -3.0323
  221SOL    HW2  883   0.351   1.376   2.871  1.0909  1.3489  0.6752
  221SOL     MW  884   0.363   1.310   2.928  0.0350  0.5750 -0.3646
  222SOL     OW  885   0.423   0.981   2.672  0.4189 -0.1102 -0.2906
  222SOL    HW1  886   0.347   0.986   2.618 -0.5066  1.8043  2.7895
  222SOL    HW2  887   0.461   0.900   2.642 -0.3432  1.5177 -0.2216
  222SOL     MW  888   0.418   0.971   2.661  0.1963  0.3572  0.1249
  223SOL     OW  889   0.078   2.026   2.504 -0.0556 -0.2642 -0.1384
  223SOL    HW1  890   0.120   1.975   2.575  0.7287  0.4172  0.6089
  223SOL    HW2  891   0.097   2.117   2.521  2.2460 -1.7943 -1.1065
  223SOL     MW  892   0.086   2.031   2.516  0.3516 -0.3762 -0.1675
  224SOL     OW  893   1.576   0.758   2.573  0.1605 -0.2893 -0.7984
  224SOL    HW1  894   1.545   0.794   2.654  0.4733  1.5173 -0.8048
  224SOL    HW2  895   1.556   0.831   2.513 -0.8352  1.8496 -1.1026
  224SOL     MW  896   1.569   0.772   2.576  0.0704  0.2313 -0.8394
  225SOL     OW  897   2.936   1.457   2.274  0.4584  0.2364 -0.1249
  225SOL    HW1  898   2.988   1.525   2.228  2.2296  1.2808 -2.0606
  225SOL    HW2  899   2.884   1.512   2.324  2.5772 -1.4865  0.8922
  225SOL     MW  900   2.936   1.474   2.274  0.9717  0.1468 -0.2461
  226SOL     OW  901   0.423   1.496   2.742 -0.5108  0.1179  0.4291
  226SOL    HW1  902   0.501   1.480   2.686  1.1864 -1.9958  0.4305
  226SOL    HW2  903   0.427   1.582   2.781  0.4509  1.3727  3.6762
  226SOL     MW  904   0.434   1.505   2.740 -0.1600  0.0046  0.8577
  227SOL     OW  905   0.550   1.134   2.875  0.3115  0.2445  0.2286
  227SOL    HW1  906   0.639   1.105   2.854 -0.5466 -0.4188 -0.9666
  227SOL    HW2  907   0.502   1.083   2.813  1.2265  3.6077  0.0305
  227SOL     MW  908   0.556   1.124   2.864  0.3190  0.6007  0.0448
  228SOL     OW  909   0.719   1.088   2.029  0.1901  0.4592 -0.2493
  228SOL    HW1  910   0.796   1.121   1.979  0.2799 -1.2194  0.0256
  228SOL    HW2  911   0.748   1.052   2.114  0.3981 -2.6332 -0.1909
  228SOL     MW  912   0.733   1.088   2.034  0.2294 -0.1703 -0.2053
  229SOL     OW  913   0.160   0.649   0.032 -0.6928  0.0317  0.4062
  229SOL    HW1  914   0.089   0.637  -0.029  1.3107 -1.6328  1.9774
  229SOL    HW2  915   0.154   0.573   0.088  0.3185  0.7671  2.6350
  229SOL     MW  916   0.150   0.637   0.032 -0.2950 -0.0909  0.9076
  230SOL     OW  917   1.693   1.321   2.011  0.6961  0.6292  0.1548
  230SOL    HW1  918   1.637   1.306   2.091 -0.0221  0.3352  1.9814
  230SOL    HW2  919   1.755   1.247   2.011 -0.7036 -0.1255 -3.7455
  230SOL     MW  920   1.694   1.310   2.022  0.4166  0.4908 -0.1188
  231SOL     OW  921   2.752   1.272   2.217  0.7924  0.1965 -0.4627
  231SOL    HW1  922   2.827   1.327   2.226  2.8766  0.7779  2.0264
  231SOL    HW2  923   2.711   1.300   2.137  0.1280  3.6279  3.0439
  231SOL     MW  924   2.756   1.283   2.207  0.9797  0.7259  0.3284
  232SOL     OW  925   2.248   0.863   2.004  0.0633 -0.6243 -0.0243
  232SOL    HW1  926   2.172   0.879   1.945  0.6182 -0.1165 -0.1873
  232SOL    HW2  927   2.211   0.838   2.083 -0.0038 -0.1691 -1.5966
  232SOL     MW  928   2.233   0.862   2.007  0.1277 -0.4972 -0.2532
  233SOL     OW  929   2.096   0.431   2.079 -0.4071  0.0042 -0.0483
  233SOL    HW1  930   2.168   0.375   2.055  0.6717 -0.9926  0.6411
  233SOL    HW2  931   2.123   0.495   2.148  3.5553 -1.7417 -1.9643
  233SOL     MW  932   2.109   0.432   2.085  0.2580 -0.3577 -0.2101
  234SOL     OW  933   0.209   1.061   2.487 -0.0019 -0.3764  0.1390
  234SOL    HW1  934   0.113   1.076   2.482 -1.0538  2.6240  3.1476
  234SOL    HW2  935   0.239   1.136   2.541 -0.6043  1.0457 -0.7630
  234SOL     MW  936   0.201   1.073   2.494 -0.2202  0.2071  0.4169
  235SOL     OW  937   1.126   3.057   2.767 -0.2558 -0.2329 -0.0652
  235SOL    HW1  938   1.161   3.035   2.857 -0.0400  2.1747 -1.0081
  235SOL    HW2  939   1.084   3.142   2.779 -1.1879 -1.1872  0.1118
  235SOL     MW  940   1.125   3.065   2.780 -0.3503 -0.0411 -0.1662
  236SOL     OW  941   2.914   0.615   0.136  0.0157 -0.5350 -0.0686
  236SOL    HW1  942   2.831   0.633   0.092  1.4357 -1.5010  0.5402
  236SOL    HW2  943   2.984   0.681   0.115  1.5732  0.3811 -0.3246
  236SOL     MW  944   2.912   0.626   0.127  0.4086 -0.5416 -0.0221
  237SOL     OW  945   2.018   1.150   2.216  0.1067  0.7077  0.4418
  237SOL    HW1  946   1.953   1.120   2.152 -0.5847 -1.1241 -0.8287
  237SOL    HW2  947   2.061   1.064   2.250  0.1004 -0.2873 -1.2359
  237SOL     MW  948   2.015   1.135   2.212  0.0147  0.3347  0.0528
  238SOL     OW  949   1.081   1.808   2.956 -0.1186 -0.3005  0.2705
  238SOL    HW1  950   1.034   1.732   2.922  0.4607  1.0842 -0.5316
  238SOL    HW2  951   1.172   1.792   2.937 -0.0508  1.5440  2.1229
  238SOL     MW  952   1.087   1.796   2.949 -0.0333  0.1255  0.4091
  239SOL     OW  953   1.291   1.431   2.389 -0.2936  0.3027  0.0679
  239SOL    HW1  954   1.195   1.453   2.399 -0.4480 -1.4128  3.2616
  239SOL    HW2  955   1.306   1.343   2.432 -1.7854  1.7225 -0.3611
  239SOL     MW  956   1.280   1.423   2.396 -0.5108  0.2637  0.4327
  240SOL     OW  957   0.633   0.903   2.323 -0.3115  0.3932  0.0025
  240SOL    HW1  958   0.664   0.939   2.412  0.1757  0.8375 -0.4957
  240SOL    HW2  959   0.714   0.866   2.287 -2.4441 -0.5739 -1.3755
  240SOL     MW  960   0.648   0.903   2.330 -0.5286  0.3242 -0.2450
  241SOL     OW  961   0.678   0.390   0.011  0.2755  0.3911  0.0388
  241SOL    HW1  962   0.699   0.459   0.078  2.4619  0.7687  0.6072
  241SOL    HW2  963   0.597   0.419  -0.034 -4.1072 -2.9008  0.2372
  241SOL     MW  964   0.670   0.403   0.014 -0.0143  0.0066  0.1400
  242SOL     OW  965   1.489   1.738   2.326 -0.3168  0.1859 -0.1311
  242SOL    HW1  966   1.427   1.800   2.364  0.5396  1.2538  0.5050
  242SOL    HW2  967   1.438   1.698   2.253  2.1194 -0.0609 -0.2914
  242SOL     MW  968   1.474   1.741   2.321  0.1176  0.2942 -0.0683
  243SOL     OW  969   1.005   0.173   2.468 -0.9623 -0.0928  0.0037
  243SOL    HW1  970   1.072   0.135   2.410 -0.6059 -0.2119  1.3911
  243SOL    HW2  971   1.064   0.233   2.523  0.1543 -1.6715  0.0384
  243SOL     MW  972   1.022   0.176   2.468 -0.7680 -0.3168  0.1914
  244SOL     OW  973   0.207   0.807   2.359 -0.6312 -0.0738 -0.1259
  244SOL    HW1  974   0.213   0.896   2.388  1.4509 -0.0747  0.8049
  244SOL    HW2  975   0.297   0.775   2.347 -1.3367 -0.2516 -1.8044
  244SOL     MW  976   0.220   0.815   2.362 -0.4495 -0.0974 -0.2246
  245SOL     OW  977   1.216   0.168   2.295  0.2216 -0.0707 -0.2540
  245SOL    HW1  978   1.291   0.112   2.289  0.5156 -1.6935  2.1152
  245SOL    HW2  979   1.236   0.232   2.370 -0.9910 -2.6629  0.9464
  245SOL     MW  980   1.229   0.169   2.304  0.1004 -0.6268  0.2169
  246SOL     OW  981   1.242   1.165   2.084  0.5216  0.1943  0.0528
  246SOL    HW1  982   1.192   1.118   2.152 -0.1718 -0.6431 -0.1899
  246SOL    HW2  983   1.326   1.179   2.132 -1.9187 -1.8658 -0.6444
  246SOL     MW  984   1.247   1.161   2.099  0.1081 -0.1880 -0.0712
  247SOL     OW  985   0.755   0.583   0.205 -0.5922  0.1782  0.0215
  247SOL    HW1  986   0.733   0.667   0.166 -0.9239  1.6570  1.7224
  247SOL    HW2  987   0.848   0.558   0.171  1.4750 -0.0250 -1.3677
  247SOL     MW  988   0.765   0.591   0.195 -0.3632  0.3465  0.0626
  248SOL     OW  989   0.308   1.293   2.607 -0.1820 -0.2502  0.0102
  248SOL    HW1  990   0.384   1.293   2.549  2.0264  1.0900  2.6060
  248SOL    HW2  991   0.327   1.373   2.655 -0.8132 -2.2079 -1.4518
  248SOL     MW  992   0.320   1.304   2.606  0.0261 -0.3317  0.1598
  249SOL     OW  993   0.156   1.870   2.748 -0.6296 -0.5949  0.5612
  249SOL    HW1  994   0.128   1.796   2.688 -0.4468 -0.7052  0.0042
  249SOL    HW2  995   0.165   1.820   2.827 -0.4618  0.6783  1.0196
  249SOL     MW  996   0.154   1.854   2.750 -0.5834 -0.4415  0.5482
  250SOL     OW  997   2.175   0.923   2.298  0.3113 -0.2986  0.2074
  250SOL    HW1  998   2.238   0.859   2.274 -2.6573 -2.2387  1.0214
  250SOL    HW2  999   2.224   0.999   2.327 -2.7170  1.9789 -1.3571
  250SOL     MW 1000   2.190   0.925   2.298 -0.4800 -0.2540  0.1084
  251SOL     OW 1001   0.179   0.924   1.937  0.0999 -0.1818 -0.3215
  251SOL    HW1 1002   0.106   0.864   1.968 -3.6895 -1.9764 -2.8360
  251SOL    HW2 1003   0.200   0.906   1.843  0.7155  1.0195  2.2219
  251SOL     MW 1004   0.172   0.914   1.928 -0.3189 -0.2601 -0.3177
  252SOL     OW 1005   1.739   1.006   2.892  0.3573 -0.5610  0.0559
  252SOL    HW1 1006   1.755   1.075   2.960  0.6763  0.4645  1.5450
  252SOL    HW2 1007   1.809   1.013   2.822  0.8771 -0.9729 -0.9805
  252SOL     MW 1008   1.750   1.016   2.892  0.4680 -0.4801  0.1156
  253SOL     OW 1009   1.151   1.776   2.540 -0.3490 -0.4225 -0.3648
  253SOL    HW1 1010   1.162   1.780   2.440 -3.4662 -3.1357  1.4724
  253SOL    HW2 1011   1.065   1.820   2.550 -0.6679 -0.7237 -0.4966
  253SOL     MW 1012   1.141   1.782   2.528 -0.8024 -0.8202 -0.1398
  254SOL     OW 1013   1.037   1.053   2.242 -0.6099  0.4630  0.2343
  254SOL    HW1 1014   0.997   0.976   2.283 -0.7523 -1.9303 -2.4974
  254SOL    HW2 1015   0.980   1.131   2.274 -1.7017 -0.3225  1.6000
  254SOL     MW 1016   1.024   1.054   2.251 -0.7728  0.0436  0.0541
  255SOL     OW 1017   0.806   2.560   2.122  0.1353 -0.0520 -0.0681
  255SOL    HW1 1018   0.723   2.513   2.106  0.0171  1.2336  1.1106
  255SOL    HW2 1019   0.873   2.491   2.131  0.3527  2.2936 -0.1254
  255SOL     MW 1020   0.804   2.545   2.121  0.1484  0.4271  0.0798
  256SOL     OW 1021   1.333   2.709   2.935 -0.4219 -0.3297 -0.0018
  256SOL    HW1 1022   1.273   2.673   2.863  0.1833  3.1921 -1.6779
  256SOL    HW2 1023   1.394   2.760   2.887  0.8291  0.1544 -0.2293
  256SOL     MW 1024   1.333   2.711   2.919 -0.1770  0.1988 -0.2530
  257SOL     OW 1025   0.186   1.923   0.039 -0.0324  0.2229  0.2562
  257SOL    HW1 1026   0.208   1.877   0.121 -0.0878 -1.5919  3.0168
  257SOL    HW2 1027   0.210   1.865  -0.034 -1.6740 -1.8798  0.8701
  257SOL     MW 1028   0.192   1.909   0.040 -0.2563 -0.2940  0.7015
  258SOL     OW 1029   0.812   1.039   2.508 -0.1698 -0.3493  0.7967
  258SOL    HW1 1030   0.803   1.126   2.480  1.6181 -2.5525  1.7744
  258SOL    HW2 1031   0.791   1.040   2.604  1.1041 -2.8179 -0.9849
  258SOL     MW 1032   0.808   1.050   2.517  0.2342 -0.9657  0.6907
  259SOL     OW 1033   0.902   0.376   2.327  0.7803  0.2896 -0.0682
  259SOL    HW1 1034   0.820   0.384   2.272  0.5748 -1.8494 -2.1187
  259SOL    HW2 1035   0.912   0.283   2.348 -0.6474 -0.4579 -2.3366
  259SOL     MW 1036   0.892   0.365   2.323  0.5648 -0.0913 -0.6381
  260SOL     OW 1037   0.538   0.109   1.635 -0.0692  0.7936  0.6876
  260SOL    HW1 1038   0.513   0.093   1.540  1.0967 -0.6606 -0.1197
  260SOL    HW2 1039   0.637   0.131   1.639  1.3189  0.6001  0.7012
  260SOL     MW 1040   0.548   0.110   1.623  0.2678  0.5762  0.5829
  261SOL     OW 1041   1.175   0.734   2.039  0.0765  0.4195 -0.3499
  261SOL    HW1 1042   1.174   0.720   2.133 -0.3220 -1.4058  1.3137
  261SOL    HW2 1043   1.159   0.650   2.009  1.8420  0.0586  0.9183
  261SOL     MW 1044   1.172   0.721   2.048  0.2569  0.1310  0.0369
  262SOL     OW 1045   1.051   0.295   0.161 -0.0918  0.0790 -0.0708
  262SOL    HW1 1046   1.147   0.317   0.154  2.0591  0.3729  1.8496
  262SOL    HW2 1047   1.045   0.217   0.104  3.4482  1.5689 -0.5037
  262SOL     MW 1048   1.063   0.288   0.153  0.6591  0.3144  0.1254
  263SOL     OW 1049   0.434   0.030   2.465  0.3433 -0.1885  0.4927
  263SOL    HW1 1050   0.348   0.077   2.467  0.5637 -0.7149  1.1483
  263SOL    HW2 1051   0.491   0.066   2.395  0.3301  1.7066  0.5869
  263SOL     MW 1052   0.430   0.041   2.456  0.3706 -0.0079  0.5916
  264SOL     OW 1053   1.498   1.348   1.809  0.3834 -0.2673  0.1462
  264SOL    HW1 1054   1.493   1.252   1.810 -0.5319  1.0282  2.5347
  264SOL    HW2 1055   1.561   1.363   1.878 -2.4452 -2.7986  0.9963
  264SOL     MW 1056   1.506   1.337   1.818 -0.1105 -0.4304  0.5735
  265SOL     OW 1057   0.782   2.810   2.219  0.9382  0.2692 -0.2550
  265SOL    HW1 1058   0.785   2.723   2.174  1.4514  1.7741 -2.5007
  265SOL    HW2 1059   0.759   2.790   2.310 -1.7318  0.0880 -0.7755
  265SOL     MW 1060   0.780   2.796   2.225  0.6536  0.4438 -0.6200
  266SOL     OW 1061   0.844   0.763   2.217 -0.6185  0.1495  0.1893
  266SOL    HW1 1062   0.854   0.750   2.124 -0.0307 -1.2080  0.0966
  266SOL    HW2 1063   0.905   0.701   2.252  2.7474  1.4274 -0.2393
  266SOL     MW 1064   0.853   0.753   2.209 -0.0968  0.1390  0.1205
  267SOL     OW 1065   1.387   1.770   2.683 -0.7395  0.0203 -0.1872
  267SOL    HW1 1066   1.438   1.693   2.650 -0.9277 -1.7862 -5.2714
  267SOL    HW2 1067   1.316   1.791   2.618 -0.5167  2.3124 -3.4257
  267SOL     MW 1068   1.385   1.763   2.670 -0.7349  0.0844 -1.2853
  268SOL     OW 1069   0.205   0.861   1.656 -0.2633  0.6289  0.2510
  268SOL    HW1 1070   0.181   0.952   1.630  1.1391  0.8613  1.0049
  268SOL    HW2 1071   0.146   0.794   1.627  2.3046  1.3372 -0.1086
  268SOL     MW 1072   0.194   0.864   1.649  0.2605  0.7530  0.3030
  269SOL     OW 1073   1.390   2.003   2.337 -0.5010  0.4594  0.3051
  269SOL    HW1 1074   1.463   2.059   2.355 -1.1731 -0.1205  2.1774
  269SOL    HW2 1075   1.316   2.009   2.397  2.7905 -3.9266 -1.8649
  269SOL     MW 1076   1.390   2.011   2.348 -0.1554 -0.1958  0.2658
  270SOL     OW 1077   1.136   0.429   1.620  0.7992 -0.2176 -0.4328
  270SOL    HW1 1078   1.120   0.342   1.665 -1.3636  0.1594  0.2941
  270SOL    HW2 1079   1.228   0.428   1.597  3.2605  0.2411 -0.2179
  270SOL     MW 1080   1.146   0.417   1.623  0.8386 -0.1073 -0.3085
  271SOL     OW 1081   0.827   0.019   2.591 -0.6406 -0.0990 -0.4851
  271SOL    HW1 1082   0.874  -0.052   2.640  0.6604 -0.0963  0.4299
  271SOL    HW2 1083   0.899   0.085   2.564 -0.3620 -1.2653  0.3059
  271SOL     MW 1084   0.843   0.019   2.594 -0.4322 -0.2525 -0.2600
  272SOL     OW 1085   1.517   2.831   2.778  0.2489 -0.1206  0.4007
  272SOL    HW1 1086   1.455   2.851   2.702 -3.5797 -1.5042 -1.0860
  272SOL    HW2 1087   1.534   2.922   2.815 -2.9400 -0.2512 -0.1811
  272SOL     MW 1088   1.511   2.846   2.773 -0.6770 -0.3204  0.1278
  273SOL     OW 1089   1.508   0.916   2.799 -0.0938 -0.2746  0.2443
  273SOL    HW1 1090   1.592   0.961   2.833 -1.7981  1.2787 -0.4187
  273SOL    HW2 1091   1.460   0.980   2.748  0.3479  0.7617 -0.3579
  273SOL     MW 1092   1.513   0.930   2.797 -0.2604  0.0670  0.0773
  274SOL     OW 1093   1.420   0.716   0.124 -0.7878  0.0327  0.2070
  274SOL    HW1 1094   1.486   0.645   0.132  1.1379  1.3833  0.0455
  274SOL    HW2 1095   1.342   0.687   0.177  0.9796 -1.8162 -0.0997
  274SOL     MW 1096   1.419   0.703   0.132 -0.3006 -0.0331  0.1452
  275SOL     OW 1097   1.645   0.542   1.782 -0.1026 -0.5837  0.4298
  275SOL    HW1 1098   1.726   0.568   1.830  0.5947  1.0346 -0.4662
  275SOL    HW2 1099   1.643   0.447   1.801 -0.6597  0.4253  1.8815
  275SOL     MW 1100   1.655   0.533   1.791 -0.0841 -0.2370  0.5031
  276SOL     OW 1101   0.308   1.242   1.932 -0.1008  0.2768  0.1625
  276SOL    HW1 1102   0.340   1.155   1.943 -0.1488  0.2164 -3.9033
  276SOL    HW2 1103   0.285   1.281   2.019  2.0000  1.4802 -0.2666
  276SOL     MW 1104   0.309   1.236   1.945  0.1700  0.4276 -0.4305
  277SOL     OW 1105   1.912   1.149   2.468  0.3687 -0.3608  0.9182
  277SOL    HW1 1106   1.965   1.225   2.503  0.9564  2.1086 -2.8203
  277SOL    HW2 1107   1.910   1.169   2.375  0.9788 -0.6156  0.8995
  277SOL     MW 1108   1.919   1.162   2.460  0.5267 -0.0686  0.4225
  278SOL     OW 1109   1.424   0.688   1.674 -0.0774  0.2153 -0.6422
  278SOL    HW1 1110   1.390   0.641   1.755 -0.6199 -0.0546 -1.6859
  278SOL    HW2 1111   1.515   0.681   1.693 -2.1573 -0.0849  0.2087
  278SOL     MW 1112   1.432   0.681   1.687 -0.4234  0.1401 -0.6677
  279SOL     OW 1113   0.590   0.119   2.243 -0.5877  0.1077 -0.3264
  279SOL    HW1 1114   0.672   0.065   2.239  1.4035 -0.7943 -2.9639
  279SOL    HW2 1115   0.614   0.198   2.195 -1.0787  3.3344  1.5392
  279SOL     MW 1116   0.604   0.123   2.236 -0.3898  0.4144 -0.4283
  280SOL     OW 1117   1.471   0.956   2.160 -0.0284  0.2601  0.1228
  280SOL    HW1 1118   1.525   0.883   2.132 -1.6727  0.6179  2.4254
  280SOL    HW2 1119   1.469   0.948   2.253  0.2107 -1.9747 -2.6076
  280SOL     MW 1120   1.478   0.946   2.169 -0.2138  0.0124  0.0664
  281SOL     OW 1121   1.347   1.319   2.745 -0.3377  0.0436  0.1144
  281SOL    HW1 1122   1.441   1.319   2.739 -1.6492  1.5670 -1.3259
  281SOL    HW2 1123   1.317   1.259   2.817 -2.1477  0.1011  0.2262
  281SOL     MW 1124   1.355   1.311   2.754 -0.7495  0.2521 -0.0609
  282SOL     OW 1125   1.083   1.287   1.634  0.2350  0.3420 -0.0945
  282SOL    HW1 1126   1.080   1.384   1.623 -0.1792  1.3144  1.9054
  282SOL    HW2 1127   1.019   1.250   1.696 -2.3505  2.8716 -3.4388
  282SOL     MW 1128   1.074   1.295   1.641 -0.1608  0.8041 -0.2719
  283SOL     OW 1129   0.815   1.251   3.006  0.6203  0.1751  0.4214
  283SOL    HW1 1130   0.838   1.230   3.099 -1.6452  1.6882  0.5009
  283SOL    HW2 1131   0.789   1.343   3.003 -0.0705 -1.9651  2.2472
  283SOL     MW 1132   0.814   1.260   3.018  0.2303  0.0924  0.6728
  284SOL     OW 1133   0.464   0.696   2.389 -0.4011  0.6909 -0.1220
  284SOL    HW1 1134   0.517   0.761   2.340  0.4879 -1.2054 -0.0410
  284SOL    HW2 1135   0.452   0.612   2.338 -0.6898 -1.9139 -0.5669
  284SOL     MW 1136   0.470   0.693   2.376 -0.3219  0.0970 -0.1700
  285SOL     OW 1137   0.969   0.825   2.817 -0.5147  0.1036  0.1951
  285SOL    HW1 1138   1.018   0.818   2.737 -1.5022 -0.8964  2.0193
  285SOL    HW2 1139   0.889   0.773   2.794  0.6789 -0.2683 -0.0561
  285SOL     MW 1140   0.965   0.817   2.803 -0.4875 -0.0774  0.4026
  286SOL     OW 1141   1.132   1.495   2.677  0.5393 -0.5369  0.0618
  286SOL    HW1 1142   1.214   1.455   2.704 -1.7683  0.5613  0.5079
  286SOL    HW2 1143   1.159   1.577   2.629  0.9518  2.1861 -0.5057
  286SOL     MW 1144   1.146   1.501   2.674  0.2893 -0.0328  0.0458
  287SOL     OW 1145   1.144   0.929   0.365  0.2749 -0.0582  0.0765
  287SOL    HW1 1146   1.202   0.991   0.416  2.0005 -1.6350 -1.2703
  287SOL    HW2 1147   1.128   0.979   0.285 -0.9754  1.3631 -2.3439
  287SOL     MW 1148   1.149   0.944   0.361  0.3376 -0.0787 -0.4205
  288SOL     OW 1149   1.546   0.566   2.056 -0.5345  0.1045 -0.0792
  288SOL    HW1 1150   1.497   0.580   2.139 -3.5463 -1.4988  0.5769
  288SOL    HW2 1151   1.561   0.653   2.023  0.7960  1.2628 -0.6521
  288SOL     MW 1152   1.541   0.579   2.062 -0.7563  0.0458 -0.0682
  289SOL     OW 1153   1.094   0.981   2.599 -0.2685 -0.4198  0.0293
  289SOL    HW1 1154   1.121   0.895   2.573 -2.3800 -0.7722 -0.6674
  289SOL    HW2 1155   1.006   1.000   2.558  1.3917 -0.2318 -0.4959
  289SOL     MW 1156   1.086   0.972   2.590 -0.3281 -0.4415 -0.1319
  290SOL     OW 1157   0.809   0.610   1.583 -0.3394 -0.1514  0.0157
  290SOL    HW1 1158   0.879   0.584   1.519 -0.3347 -2.1237 -3.1006
  290SOL    HW2 1159   0.859   0.633   1.659 -3.5957  0.6022  0.4472
  290SOL     MW 1160   0.825   0.610   1.585 -0.7684 -0.3122 -0.3385
  291SOL     OW 1161   0.185   0.380   0.134 -0.0294  0.2350 -0.2759
  291SOL    HW1 1162   0.265   0.331   0.149 -2.3127 -3.4112  0.4933
  291SOL    HW2 1163   0.137   0.326   0.069 -0.5855  0.8041  1.0392
  291SOL     MW 1164   0.189   0.366   0.128 -0.4040 -0.1710 -0.0009
  292SOL     OW 1165   0.998   0.553   0.070  0.4725 -0.2492  0.6368
  292SOL    HW1 1166   1.061   0.603   0.124  2.1939  1.0145  0.7463
  292SOL    HW2 1167   1.003   0.461   0.101 -0.3929  1.3580 -0.6500
  292SOL     MW 1168   1.007   0.548   0.081  0.5854  0.1296  0.4814
  293SOL     OW 1169   0.161   0.118   2.435  0.1656 -0.2057  0.4538
  293SOL    HW1 1170   0.129   0.075   2.355  1.5741  1.9472  0.5180
  293SOL    HW2 1171   0.080   0.136   2.478  1.1605  1.9339 -1.7405
  293SOL     MW 1172   0.146   0.115   2.430  0.4827  0.3607  0.1728
  294SOL     OW 1173   1.452   0.584   2.334  0.2724 -0.5098  0.0998
  294SOL    HW1 1174   1.515   0.622   2.389 -2.3061  2.2523 -1.4789
  294SOL    HW2 1175   1.418   0.509   2.379 -1.5554 -0.0553 -2.6188
  294SOL     MW 1176   1.456   0.579   2.347 -0.3090 -0.0854 -0.4672
  295SOL     OW 1177   0.931   0.534   2.537 -0.1926  0.0426  0.0290
  295SOL    HW1 1178   0.914   0.487   2.452 -1.4293 -0.8188  0.3299
  295SOL    HW2 1179   0.850   0.548   2.575 -1.3282 -1.8643  2.0006
  295SOL     MW 1180   0.918   0.529   2.530 -0.5056 -0.3226  0.3288
  296SOL     OW 1181   1.275   0.278   2.041 -0.2605  0.1256 -0.3526
  296SOL    HW1 1182   1.356   0.224   2.028 -1.1121  1.1334 -2.9217
  296SOL    HW2 1183   1.253   0.260   2.136  1.0889  0.4695 -0.2235
  296SOL     MW 1184   1.283   0.268   2.052 -0.1949  0.3040 -0.6745
  297SOL     OW 1185   1.407   0.413   1.573  0.1353  0.2319 -0.0950
  297SOL    HW1 1186   1.446   0.494   1.617  0.6728  1.4743 -2.2879
  297SOL    HW2 1187   1.440   0.341   1.627 -0.9652 -0.2317 -2.4218
  297SOL     MW 1188   1.417   0.414   1.586  0.0610  0.3346 -0.6913
  298SOL     OW 1189   1.640   0.822   1.983  0.1534  0.8227  0.7051
  298SOL    HW1 1190   1.661   0.904   1.937 -2.4157  0.3187 -2.1157
  298SOL    HW2 1191   1.697   0.802   2.060 -1.8114 -3.9954 -0.1099
  298SOL     MW 1192   1.650   0.830   1.987 -0.4448  0.1205  0.2254
  299SOL     OW 1193   0.561   1.099   0.044 -0.1205  0.2935  0.0668
  299SOL    HW1 1194   0.546   1.079  -0.049 -1.8577 -5.0872 -0.7855
  299SOL    HW2 1195   0.548   1.190   0.060  3.9368  1.0160  1.9056
  299SOL     MW 1196   0.557   1.109   0.034  0.1856 -0.3211  0.1969
  300SOL     OW 1197   1.304   1.158   2.521  0.1823  0.0046 -0.9359
  300SOL    HW1 1198   1.214   1.127   2.537 -0.4211 -0.5155  0.1279
  300SOL    HW2 1199   1.320   1.201   2.606  2.2477  1.2872 -2.6116
  300SOL     MW 1200   1.294   1.160   2.534  0.3752  0.1052 -1.0166
  301SOL     OW 1201   1.472   0.906   0.655  0.6669  1.0035  0.4819
  301SOL    HW1 1202   1.472   0.956   0.739  0.9740  2.1373 -1.3971
  301SOL    HW2 1203   1.407   0.846   0.677  0.7205 -0.2339  1.2460
  301SOL     MW 1204   1.464   0.905   0.669  0.7145  0.9899  0.3348
  302SOL     OW 1205   0.131   1.585   2.006 -0.3063  0.4411  0.6318
  302SOL    HW1 1206   0.161   1.521   2.072  1.1074 -1.0035  0.2716
  302SOL    HW2 1207   0.070   1.643   2.043 -0.9786  0.5872 -2.5699
  302SOL     MW 1208   0.127   1.584   2.020 -0.2085  0.2698  0.1619
  303SOL     OW 1209   0.430   1.811   2.661  0.0443 -0.2232  0.4478
  303SOL    HW1 1210   0.406   1.775   2.575  2.8475 -0.6062  2.5626
  303SOL    HW2 1211   0.352   1.836   2.705  1.8763  1.3771 -0.7673
  303SOL     MW 1212   0.417   1.810   2.655  0.6559 -0.0626  0.5665
  304SOL     OW 1213   0.534   2.067   2.390 -0.3353 -0.7524 -0.5402
  304SOL    HW1 1214   0.586   2.101   2.315 -2.6379  2.2034  0.3850
  304SOL    HW2 1215   0.567   1.981   2.412 -1.6730  1.9455 -0.8819
  304SOL     MW 1216   0.545   2.060   2.383 -0.8156 -0.0065 -0.4632
  305SOL     OW 1217   1.113   0.556   0.488 -0.2880 -0.1669  0.3526
  305SOL    HW1 1218   1.019   0.547   0.511 -0.1905 -1.3956 -1.8856
  305SOL    HW2 1219   1.150   0.488   0.542 -1.7739 -1.1348 -0.3153
  305SOL     MW 1220   1.106   0.546   0.498 -0.4712 -0.4567 -0.0308
  306SOL     OW 1221   1.171   1.510   0.279  0.2670  0.8486  0.5441
  306SOL    HW1 1222   1.222   1.434   0.320  0.5878  1.1303 -0.1926
  306SOL    HW2 1223   1.224   1.536   0.206  1.7108 -0.6287  1.4779
  306SOL     MW 1224   1.185   1.503   0.275  0.4998  0.6909  0.5701
  307SOL     OW 1225   1.346   0.505   1.879 -0.0498 -0.9789 -0.2668
  307SOL    HW1 1226   1.299   0.436   1.927 -1.4382  0.2009 -3.7141
  307SOL    HW2 1227   1.427   0.521   1.937  0.5513  2.1725  1.0004
  307SOL     MW 1228   1.350   0.498   1.893 -0.1537 -0.4074 -0.5544
  308SOL     OW 1229   2.166   0.566   2.718  0.4654  0.2728 -0.2787
  308SOL    HW1 1230   2.263   0.557   2.740  2.2852 -0.1397  0.9229
  308SOL    HW2 1231   2.142   0.653   2.699 -2.0723 -1.1709 -1.9883
  308SOL     MW 1232   2.176   0.576   2.719  0.3707  0.0279 -0.3457
  309SOL     OW 1233   0.469   0.492   0.328 -0.1185  0.5983 -0.3393
  309SOL    HW1 1234   0.566   0.501   0.322  0.9927 -0.6756  0.8247
  309SOL    HW2 1235   0.451   0.415   0.277 -0.8060  1.8882 -1.3740
  309SOL     MW 1236   0.479   0.483   0.321 -0.0626  0.6004 -0.3222
  310SOL     OW 1237   0.433   0.610   1.940  0.0716 -0.3832 -0.5665
  310SOL    HW1 1238   0.464   0.521   1.895 -0.2597 -1.5824 -5.4425
  310SOL    HW2 1239   0.495   0.676   1.908  0.1628  0.0909  1.3573
  310SOL     MW 1240   0.445   0.607   1.930  0.0399 -0.4789 -0.9560
  311SOL     OW 1241   1.861   0.594   1.947  0.4145 -0.2367 -0.2218
  311SOL    HW1 1242   1.823   0.619   2.029 -3.7196  0.2694 -2.1385
  311SOL    HW2 1243   1.920   0.518   1.959  1.2739 -1.9331 -2.3425
  311SOL     MW 1244   1.864   0.587   1.959 -0.0176 -0.3937 -0.7545
  312SOL     OW 1245   1.813   2.508   0.146 -0.7084 -0.2078  0.1658
  312SOL    HW1 1246   1.895   2.508   0.195 -0.1680  1.0008  1.6231
  312SOL    HW2 1247   1.746   2.555   0.202 -0.1206 -1.6777 -0.0786
  312SOL     MW 1248   1.815   2.514   0.160 -0.5595 -0.2422  0.3258
  313SOL     OW 1249   0.145   1.122   2.957 -0.4250  0.1090 -0.0809
  313SOL    HW1 1250   0.087   1.126   3.040 -2.7160 -1.2764 -2.0367
  313SOL    HW2 1251   0.231   1.162   2.969 -1.1009 -0.3715 -2.5176
  313SOL     MW 1252   0.148   1.128   2.970 -0.8164 -0.1372 -0.6604
  314SOL     OW 1253   2.166   3.001   2.946 -0.3361  0.3164  0.1412
  314SOL    HW1 1254   2.106   3.063   2.904 -0.9842  1.9981  3.4655
  314SOL    HW2 1255   2.219   3.057   3.003  0.3815 -1.3206 -1.7584
  314SOL     MW 1256   2.165   3.017   2.948 -0.3269  0.3223  0.3292
  315SOL     OW 1257   1.540   1.881   3.055 -0.1022 -0.7364 -0.3899
  315SOL    HW1 1258   1.470   1.915   3.106 -0.5862 -0.2345  1.5892
  315SOL    HW2 1259   1.558   1.949   2.988 -0.2506 -0.9562 -2.2673
  315SOL     MW 1260   1.533   1.894   3.053 -0.1856 -0.6992 -0.3765
  316SOL     OW 1261   1.324   0.542   2.710  0.2285 -0.6491 -0.1747
  316SOL    HW1 1262   1.404   0.603   2.701  2.7721 -0.5754 -0.9763
  316SOL    HW2 1263   1.290   0.568   2.800 -1.9391 -1.5995  1.3640
  316SOL     MW 1264   1.330   0.554   2.721  0.2781 -0.7648 -0.0774
  317SOL     OW 1265   0.672   1.454   2.590 -0.1495  0.1269  0.1401
  317SOL    HW1 1266   0.757   1.413   2.592  0.3988  0.1194  1.7938
  317SOL    HW2 1267   0.655   1.476   2.492 -0.2423 -0.0891 -3.1453
  317SOL     MW 1268   0.681   1.451   2.577 -0.0894  0.0974 -0.0752
  318SOL     OW 1269   1.324   0.338   2.966 -0.2430  0.5174  0.1637
  318SOL    HW1 1270   1.235   0.383   2.956 -1.3025 -1.0283 -1.4513
  318SOL    HW2 1271   1.396   0.403   2.955 -1.0535 -1.4071  0.5162
  318SOL     MW 1272   1.322   0.352   2.964 -0.4897  0.0595 -0.0029
  319SOL     OW 1273   0.828   0.440   2.866  0.4926 -0.1121  0.3422
  319SOL    HW1 1274   0.803   0.353   2.830  0.4008 -1.4683  0.9117
  319SOL    HW2 1275   0.796   0.450   2.953  1.0888 -0.0961 -2.1225
  319SOL     MW 1276   0.820   0.430   2.872  0.5592 -0.2890  0.0921
  320SOL     OW 1277   1.075   1.358   2.020 -0.3510 -0.1750 -0.5429
  320SOL    HW1 1278   1.135   1.284   2.039  1.0762 -0.3262  0.8556
  320SOL    HW2 1279   1.133   1.419   1.971 -1.2034 -0.5375 -0.3981
  320SOL     MW 1280   1.090   1.357   2.016 -0.2752 -0.2428 -0.3393
  321SOL     OW 1281   1.140   0.947   3.005 -0.3491 -0.2238 -0.3532
  321SOL    HW1 1282   1.065   0.922   2.956 -0.0033  1.4627 -2.2400
  321SOL    HW2 1283   1.209   0.897   2.969 -1.3879  1.5070  3.2789
  321SOL     MW 1284   1.139   0.937   2.994 -0.4405  0.2271 -0.1229
  322SOL     OW 1285   1.197   0.848   1.670  0.0052 -0.1091  0.1371
  322SOL    HW1 1286   1.278   0.805   1.649 -1.8288  0.2439  0.9631
  322SOL    HW2 1287   1.194   0.885   1.759 -1.1710 -0.7727  1.2861
  322SOL     MW 1288   1.207   0.847   1.679 -0.3920 -0.1501  0.3977
  323SOL     OW 1289   1.218   1.532   1.875  0.2250  0.6131  0.2064
  323SOL    HW1 1290   1.269   1.535   1.795 -1.2636  0.3022 -0.7954
  323SOL    HW2 1291   1.177   1.615   1.894  2.8287 -0.8938  1.6280
  323SOL     MW 1292   1.219   1.544   1.867  0.3721  0.3732  0.2618
  324SOL     OW 1293   1.487   0.970   2.428 -0.3939 -0.0690 -0.0094
  324SOL    HW1 1294   1.407   1.014   2.449 -4.8228 -1.2778 -1.1214
  324SOL    HW2 1295   1.557   1.034   2.455  2.2467 -3.7516  1.3999
  324SOL     MW 1296   1.486   0.984   2.434 -0.6298 -0.7143  0.0298
  325SOL     OW 1297   1.106   0.515   2.912  0.4919  0.2299 -0.1384
  325SOL    HW1 1298   1.093   0.568   2.988 -1.1309 -2.3516  2.0665
  325SOL    HW2 1299   1.010   0.486   2.884  0.7761 -4.3042  0.3169
  325SOL     MW 1300   1.091   0.518   2.918  0.3153 -0.7089  0.2126
  326SOL     OW 1301   0.467   1.362   2.330  0.1336 -0.3473  0.4319
  326SOL    HW1 1302   0.540   1.311   2.284 -1.3596  0.9108 -0.1151
  326SOL    HW2 1303   0.477   1.447   2.281 -2.1113 -2.6999  1.3352
  326SOL     MW 1304   0.478   1.366   2.318 -0.3596 -0.4917  0.4789
  327SOL     OW 1305   1.911   0.794   2.439  0.0038  0.2657 -0.1671
  327SOL    HW1 1306   1.875   0.764   2.528 -1.4152 -0.8477 -0.7559
  327SOL    HW2 1307   1.972   0.868   2.461  0.5467 -0.7903  0.9768
  327SOL     MW 1308   1.914   0.800   2.454 -0.1118 -0.0206 -0.0938
  328SOL     OW 1309   0.196   1.408   2.188 -0.2620  0.1674 -0.5129
  328SOL    HW1 1310   0.145   1.328   2.192  1.3466  0.9266 -1.3492
  328SOL    HW2 1311   0.275   1.399   2.239 -1.7919 -0.7774  1.9097
  328SOL     MW 1312   0.200   1.396   2.195 -0.2516  0.1429 -0.3036
  329SOL     OW 1313   0.118   0.241   1.407 -0.4748  0.2718 -0.1700
  329SOL    HW1 1314   0.091   0.229   1.500  1.8352 -1.0168  0.1529
  329SOL    HW2 1315   0.217   0.240   1.401 -1.0549  2.0091  2.8289
  329SOL     MW 1316   0.128   0.239   1.419 -0.2466  0.3310  0.2683
  330SOL     OW 1317   0.388   3.090   2.080  0.1851 -0.1573  0.1947
  330SOL    HW1 1318   0.463   3.101   2.142 -0.7773 -0.3974 -0.1192
  330SOL    HW2 1319   0.339   3.019   2.123  1.0801 -1.5529 -0.7078
  330SOL     MW 1320   0.391   3.082   2.094  0.1762 -0.3731  0.0342
  331SOL     OW 1321   0.842   1.240   2.316 -0.4441  0.2058  0.5164
  331SOL    HW1 1322   0.812   1.263   2.228  0.2657  0.8219 -0.9452
  331SOL    HW2 1323   0.885   1.318   2.355 -1.1788 -0.9060  1.8272
  331SOL     MW 1324   0.844   1.253   2.309 -0.4474  0.1404  0.4965
  332SOL     OW 1325   1.356   1.705   2.950  0.0595 -0.6746 -0.2556
  332SOL    HW1 1326   1.372   1.707   2.853  1.4888  2.0115 -1.4024
  332SOL    HW2 1327   1.419   1.769   2.987 -1.9889  0.0834  1.5101
  332SOL     MW 1328   1.367   1.714   2.942 -0.0222 -0.2202 -0.1739
  333SOL     OW 1329   1.727   1.388   2.968  0.1037 -0.5677  0.1282
  333SOL    HW1 1330   1.815   1.413   2.982  1.3399  0.4088  0.8527
  333SOL    HW2 1331   1.707   1.335   3.044  3.4997  0.1722  0.1744
  333SOL     MW 1332   1.736   1.384   2.980  0.7149 -0.3413  0.2299
  334SOL     OW 1333   1.310   0.050   2.556 -0.3314  0.6241 -0.0330
  334SOL    HW1 1334   1.228   0.033   2.605  0.8126 -2.7797 -2.6384
  334SOL    HW2 1335   1.361   0.108   2.612 -1.1567  1.6423  0.3894
  334SOL     MW 1336   1.306   0.056   2.570 -0.2894  0.3093 -0.3210
  335SOL     OW 1337   1.328   0.770   2.951  0.0745 -0.2368  0.1891
  335SOL    HW1 1338   1.346   0.760   3.047 -1.8118  0.2286 -1.0929
  335SOL    HW2 1339   1.401   0.818   2.904 -1.4186  0.4097 -2.8320
  335SOL     MW 1340   1.340   0.775   2.958 -0.3713 -0.0901 -0.3786
  336SOL     OW 1341   0.950   1.156   1.874 -0.0363  0.5781 -0.0853
  336SOL    HW1 1342   0.971   1.227   1.927 -0.7849 -2.3103  1.1491
  336SOL    HW2 1343   1.005   1.080   1.897  1.0952  0.3719 -0.0196
  336SOL     MW 1344   0.960   1.155   1.884  0.0142  0.1698  0.0862
  337SOL     OW 1345   0.653   1.822   2.793  0.1442 -0.3657 -0.7126
  337SOL    HW1 1346   0.575   1.813   2.735  0.3614 -1.5842 -2.3571
  337SOL    HW2 1347   0.711   1.760   2.756  1.3485 -1.1328  0.6411
  337SOL     MW 1348   0.651   1.813   2.780  0.3318 -0.6276 -0.7510
  338SOL     OW 1349   1.140   0.722   2.582 -0.1685 -0.6746  0.6435
  338SOL    HW1 1350   1.062   0.659   2.578 -1.1664  0.3960  0.6076
  338SOL    HW2 1351   1.213   0.673   2.628  0.1297  1.3118  2.3574
  338SOL     MW 1352   1.140   0.707   2.587 -0.2608 -0.2713  0.8649
  339SOL     OW 1353   1.487   1.074   1.837  0.0489 -0.0522  0.4440
  339SOL    HW1 1354   1.413   1.072   1.778  1.6709  1.9924 -1.7732
  339SOL    HW2 1355   1.469   1.033   1.922 -0.0450  0.5495  0.4361
  339SOL     MW 1356   1.475   1.068   1.840  0.2505  0.2970  0.1504
  340SOL     OW 1357   1.299   1.535   0.044 -0.3305 -0.0335 -0.3567
  340SOL    HW1 1358   1.313   1.609  -0.018 -0.1964  0.4173  3.5855
  340SOL    HW2 1359   1.386   1.509   0.076  0.7134 -1.5054  1.8011
  340SOL     MW 1360   1.313   1.541   0.040 -0.1751 -0.1683  0.4482
  341SOL     OW 1361   0.049   1.362   2.755 -0.1662 -0.3358 -0.0065
  341SOL    HW1 1362   0.094   1.278   2.770 -1.3940 -2.3365 -0.2235
  341SOL    HW2 1363   0.006   1.360   2.664 -3.1822  2.7976  1.6739
  341SOL     MW 1364   0.049   1.351   2.745 -0.7261 -0.1864  0.1866
  342SOL     OW 1365   1.314   0.330   0.145 -0.0980  0.5116  0.1548
  342SOL    HW1 1366   1.392   0.375   0.176 -1.2471 -2.8637 -1.1541
  342SOL    HW2 1367   1.318   0.348   0.048  1.2938  1.3845 -2.4582
  342SOL     MW 1368   1.325   0.339   0.136 -0.0660  0.1814 -0.3626
  343SOL     OW 1369   0.260   0.274   2.086  0.2762  0.7733  0.2594
  343SOL    HW1 1370   0.250   0.175   2.097 -1.2752  0.7618 -0.3914
  343SOL    HW2 1371   0.180   0.296   2.037 -1.7888 -3.0772  0.3891
  343SOL     MW 1372   0.248   0.264   2.081 -0.2009  0.2637  0.1906
  344SOL     OW 1373   1.694   2.025   0.182 -0.1361  0.7001 -0.1005
  344SOL    HW1 1374   1.714   2.093   0.115 -0.9461  0.2908 -0.3186
  344SOL    HW2 1375   1.616   1.974   0.147 -2.3638 -0.5480 -0.4717
  344SOL     MW 1376   1.686   2.027   0.169 -0.5369  0.4814 -0.1783
  345SOL     OW 1377   0.715   1.557   2.348 -0.6123  0.0920 -0.1003
  345SOL    HW1 1378   0.636   1.563   2.294  0.7457  0.0220  0.5155
  345SOL    HW2 1379   0.789   1.547   2.287  2.4923 -1.4812  1.3624
  345SOL     MW 1380   0.714   1.556   2.333 -0.0235 -0.1248  0.1740
  346SOL     OW 1381   1.764   1.138   0.050 -0.0659  0.6119  0.1721
  346SOL    HW1 1382   1.852   1.139   0.089  0.4468  0.9700  1.5252
  346SOL    HW2 1383   1.722   1.058   0.079  4.4783 -1.0363  1.0635
  346SOL     MW 1384   1.770   1.128   0.059  0.6013  0.4417  0.4682
  347SOL     OW 1385   1.169   0.644   2.301 -0.1276 -0.5636 -0.3672
  347SOL    HW1 1386   1.251   0.599   2.297 -2.1025 -0.2181 -0.6163
  347SOL    HW2 1387   1.170   0.697   2.384  1.0914  1.3341  3.2277
  347SOL     MW 1388   1.180   0.645   2.311 -0.2273 -0.2676  0.0743
  348SOL     OW 1389   1.329   2.645   1.898 -0.5497 -0.1308 -0.1243
  348SOL    HW1 1390   1.384   2.570   1.931 -1.3236 -1.6160 -0.9017
  348SOL    HW2 1391   1.363   2.706   1.961 -0.5874 -3.0611 -2.3335
  348SOL     MW 1392   1.341   2.643   1.910 -0.6567 -0.7134 -0.5184
  349SOL     OW 1393   1.452   0.229   2.736  0.0406 -0.3044 -0.4568
  349SOL    HW1 1394   1.410   0.289   2.800  1.7183  0.9015 -0.0556
  349SOL    HW2 1395   1.532   0.182   2.775  0.5323 -3.1414  0.5664
  349SOL     MW 1396   1.457   0.231   2.750  0.3268 -0.5196 -0.2688
  350SOL     OW 1397   1.842   0.608   2.655  0.2968 -0.3537  0.1951
  350SOL    HW1 1398   1.780   0.553   2.609  1.1908 -0.6995  2.9732
  350SOL    HW2 1399   1.905   0.547   2.697 -2.1723  1.0877  0.1547
  350SOL     MW 1400   1.842   0.593   2.654  0.0889 -0.2091  0.5563
  351SOL     OW 1401   0.116   1.105   1.560  0.1000  0.3907 -0.0903
  351SOL    HW1 1402   0.045   1.121   1.626 -0.4847  3.3436  1.5076
  351SOL    HW2 1403   0.174   1.187   1.576  0.0816  0.1268  2.7389
  351SOL     MW 1404   0.114   1.118   1.571  0.0204  0.7455  0.4938
  352SOL     OW 1405   0.840   1.646   2.710  0.9246  0.6102  0.5615
  352SOL    HW1 1406   0.893   1.610   2.779 -1.9240 -1.0641  0.1358
  352SOL    HW2 1407   0.783   1.577   2.676 -0.4293 -1.4995  0.7830
  352SOL     MW 1408   0.840   1.632   2.715  0.3701  0.1109  0.5346
  353SOL     OW 1409   3.068   2.528   2.689 -0.1083 -0.3243  0.7108
  353SOL    HW1 1410   3.165   2.536   2.712  3.2872  0.1823  0.4593
  353SOL    HW2 1411   3.051   2.612   2.649  1.4423  0.5478 -0.9445
  353SOL     MW 1412   3.079   2.540   2.687  0.5443 -0.1424  0.4593
  354SOL     OW 1413   0.268   2.472   0.822  0.3194 -0.4888 -0.0526
  354SOL    HW1 1414   0.323   2.457   0.897 -0.0150  1.6523  0.3313
  354SOL    HW2 1415   0.201   2.402   0.814  0.0264 -1.2842  0.1638
  354SOL     MW 1416   0.266   2.461   0.831  0.2366 -0.3113  0.0266
  355SOL     OW 1417   0.009   2.251   0.401 -0.0800 -0.2586 -0.1967
  355SOL    HW1 1418  -0.078   2.211   0.406  1.6129  0.0668  1.3843
  355SOL    HW2 1419   0.023   2.302   0.483 -0.0032 -2.0116 -2.3908
  355SOL     MW 1420  -0.001   2.253   0.413  0.1535 -0.4470 -0.2776
  356SOL     OW 1421   0.843   2.789   0.989  0.4946 -0.3925 -0.1722
  356SOL    HW1 1422   0.865   2.865   0.924  0.5907  0.1722  0.2140
  356SOL    HW2 1423   0.748   2.789   0.988 -0.2731  0.1483 -0.7446
  356SOL     MW 1424   0.833   2.799   0.980  0.4060 -0.2466 -0.1968
  357SOL     OW 1425   1.777   2.927   0.382  0.1730 -0.6280 -0.6777
  357SOL    HW1 1426   1.717   2.861   0.417  1.9629 -3.0899 -0.5506
  357SOL    HW2 1427   1.865   2.889   0.361 -0.1914  2.3427  1.7750
  357SOL     MW 1428   1.781   2.913   0.384  0.3611 -0.5609 -0.3373
  358SOL     OW 1429   0.455   0.171   1.047 -0.2575 -0.0816 -0.0383
  358SOL    HW1 1430   0.533   0.124   1.020 -1.4166 -1.1738 -0.1683
  358SOL    HW2 1431   0.420   0.200   0.967 -0.8217 -0.3261 -0.3819
  358SOL     MW 1432   0.461   0.168   1.033 -0.4849 -0.2580 -0.1008
  359SOL     OW 1433   0.867   2.889   1.844 -0.1068  0.0876  0.0930
  359SOL    HW1 1434   0.851   2.796   1.861  0.9086  0.8379  4.2865
  359SOL    HW2 1435   0.894   2.885   1.751  3.1173 -1.4294 -1.7931
  359SOL     MW 1436   0.868   2.876   1.834  0.4526 -0.0136  0.3975
  360SOL     OW 1437   0.573   2.786   0.915 -0.0720  0.1221  0.3842
  360SOL    HW1 1438   0.551   2.734   0.837 -0.7089  2.4105  0.2809
  360SOL    HW2 1439   0.569   2.722   0.989 -1.1515  0.5670 -2.1796
  360SOL     MW 1440   0.570   2.771   0.915 -0.2984  0.4827  0.0323
  361SOL     OW 1441   0.180   2.617   1.364  0.1031  0.4974 -0.2613
  361SOL    HW1 1442   0.153   2.692   1.415 -0.8343  1.4435 -1.9124
  361SOL    HW2 1443   0.276   2.628   1.341  0.4545 -1.0570 -1.9268
  361SOL     MW 1444   0.189   2.628   1.368  0.0258  0.4171 -0.6989
  362SOL     OW 1445   1.466   2.424   0.660 -0.6427  0.8511  0.0414
  362SOL    HW1 1446   1.489   2.380   0.746  0.1901  0.1227 -0.1183
  362SOL    HW2 1447   1.510   2.511   0.667 -0.3937  0.8168 -0.8813
  362SOL     MW 1448   1.475   2.430   0.672 -0.5000  0.7505 -0.1014
  363SOL     OW 1449   0.299   3.057   0.677 -0.2150  0.1657  0.4204
  363SOL    HW1 1450   0.301   3.015   0.761  2.3190  0.3467 -1.3875
  363SOL    HW2 1451   0.205   3.067   0.658  0.5754  1.7178  2.6070
  363SOL     MW 1452   0.287   3.053   0.685  0.2236  0.3944  0.4704
  364SOL     OW 1453   0.744   0.200   0.212 -0.0791 -0.0387  0.5114
  364SOL    HW1 1454   0.680   0.132   0.230  0.3677  2.6848 -0.2705
  364SOL    HW2 1455   0.712   0.259   0.139  0.2783 -0.4402  0.6968
  364SOL     MW 1456   0.731   0.199   0.205  0.0270  0.2676  0.4327
  365SOL     OW 1457   0.960   2.027   1.169 -0.3655 -0.0488  0.0784
  365SOL    HW1 1458   0.943   2.109   1.131  2.4900  0.7071  1.3802
  365SOL    HW2 1459   0.899   1.957   1.129 -1.9568  0.3002  2.6602
  365SOL     MW 1460   0.950   2.029   1.159 -0.1987  0.0970  0.5908
  366SOL     OW 1461   2.866   2.696   1.010  0.2263  0.0038 -0.4062
  366SOL    HW1 1462   2.957   2.696   1.055 -0.7609 -1.1912  0.0431
  366SOL    HW2 1463   2.898   2.690   0.917  0.7716 -0.7268 -2.0364
  366SOL     MW 1464   2.882   2.695   1.004  0.1680 -0.2502 -0.5620
  367SOL     OW 1465   1.223   2.982   0.895  0.1222 -0.2965  0.2533
  367SOL    HW1 1466   1.227   3.052   0.823  0.8431  1.5076 -0.1393
  367SOL    HW2 1467   1.204   2.907   0.841 -0.9676 -0.1309  1.6148
  367SOL     MW 1468   1.221   2.981   0.878  0.0735 -0.0366  0.3812
  368SOL     OW 1469   1.656   0.400   0.732  0.0190 -0.9056  0.3700
  368SOL    HW1 1470   1.715   0.344   0.679 -2.7682 -2.5478  0.1201
  368SOL    HW2 1471   1.678   0.493   0.728 -0.3614 -0.0219 -0.5773
  368SOL     MW 1472   1.666   0.405   0.725 -0.3989 -1.0057  0.2121
  369SOL     OW 1473   0.165   2.447   1.793  0.3282 -0.1477  0.2088
  369SOL    HW1 1474   0.262   2.459   1.787 -1.8661  0.2337 -0.3672
  369SOL    HW2 1475   0.121   2.537   1.785 -1.5957  3.2611 -1.0736
  369SOL     MW 1476   0.172   2.460   1.791 -0.2152  0.3524 -0.0364
  370SOL     OW 1477   0.716   0.095   0.979 -0.1274  0.4381 -0.5636
  370SOL    HW1 1478   0.721   0.188   0.992  2.2186 -3.1349 -1.2313
  370SOL    HW2 1479   0.808   0.082   0.978  0.3251 -0.3049 -0.3989
  370SOL     MW 1480   0.729   0.106   0.981  0.2418 -0.1313 -0.6299
  371SOL     OW 1481   1.337   2.918   1.521  0.0904  0.6676 -0.2494
  371SOL    HW1 1482   1.260   2.858   1.517  0.3854 -0.5657  1.1080
  371SOL    HW2 1483   1.330   2.998   1.467  0.2268 -0.7795 -1.7310
  371SOL     MW 1484   1.326   2.921   1.513  0.1473  0.3139 -0.2658
  372SOL     OW 1485   0.749   2.298   0.461  0.3302 -0.4254  0.1114
  372SOL    HW1 1486   0.730   2.208   0.480 -1.6444 -0.7887 -0.4531
  372SOL    HW2 1487   0.774   2.305   0.361  0.4109  1.8921 -4.5047
  372SOL     MW 1488   0.750   2.287   0.451  0.0803 -0.1675 -0.5721
  373SOL     OW 1489   2.799   3.014   1.448  0.7578  0.2676  0.1372
  373SOL    HW1 1490   2.862   2.990   1.383 -0.6977 -0.9467 -1.3550
  373SOL    HW2 1491   2.758   3.092   1.417  0.5782  0.1174  1.5341
  373SOL     MW 1492   2.802   3.021   1.435  0.5421  0.0875  0.1246
  374SOL     OW 1493   1.540   0.452   0.217 -0.2562  0.7263  0.1789
  374SOL    HW1 1494   1.565   0.359   0.209  0.1230  0.1761 -1.3819
  374SOL    HW2 1495   1.536   0.459   0.309  0.0937  0.6335  0.5752
  374SOL     MW 1496   1.543   0.441   0.228 -0.1600  0.6415  0.0253
  375SOL     OW 1497   0.977   2.112   2.258  0.0986  0.2353  0.0832
  375SOL    HW1 1498   1.017   2.084   2.346 -3.8489  1.8212  2.0530
  375SOL    HW2 1499   1.023   2.054   2.200 -0.4355  0.4696 -0.7305
  375SOL     MW 1500   0.988   2.101   2.262 -0.4927  0.4755  0.2358
  376SOL     OW 1501   0.753   2.546   0.092  0.4287  0.2900  0.4512
  376SOL    HW1 1502   0.736   2.490   0.164  2.5321  1.1762 -1.8822
  376SOL    HW2 1503   0.746   2.494   0.009 -1.4657  0.4131 -4.8650
  376SOL     MW 1504   0.750   2.531   0.091  0.4563  0.4231 -0.5581
  377SOL     OW 1505   1.280   2.017   0.853 -0.7672 -0.0090  0.1178
  377SOL    HW1 1506   1.200   2.017   0.792  1.2059  0.9570  2.4051
  377SOL    HW2 1507   1.257   1.975   0.934 -0.0469 -1.1093 -0.9885
  377SOL     MW 1508   1.266   2.011   0.855 -0.4118 -0.0267  0.2736
  378SOL     OW 1509   0.882   2.842   1.571 -0.3232  0.2385 -0.2022
  378SOL    HW1 1510   0.879   2.748   1.546  1.5977 -1.9400 -0.2193
  378SOL    HW2 1511   0.883   2.891   1.486 -2.2136  0.3227  0.3229
  378SOL     MW 1512   0.882   2.836   1.556 -0.3192 -0.0378 -0.1352
  379SOL     OW 1513   1.160   1.752   2.265  0.3869 -0.2355  0.3400
  379SOL    HW1 1514   1.084   1.695   2.249  1.2844 -1.7271 -1.8992
  379SOL    HW2 1515   1.235   1.723   2.217  0.1135 -1.1018 -0.6596
  379SOL     MW 1516   1.160   1.741   2.256  0.4692 -0.5466 -0.0873
  380SOL     OW 1517   0.816   0.117   1.596  0.4669  0.0445 -0.9562
  380SOL    HW1 1518   0.839   0.045   1.546  0.7740  0.3118  2.2386
  380SOL    HW2 1519   0.899   0.161   1.618  0.9834 -0.6034 -1.1722
  380SOL     MW 1520   0.830   0.113   1.592  0.5756 -0.0057 -0.5632
  381SOL     OW 1521   0.793   2.004   0.796 -0.4034 -0.2897  0.2616
  381SOL    HW1 1522   0.879   1.990   0.759  1.0252  2.0557  0.6359
  381SOL    HW2 1523   0.791   2.095   0.809  2.3012  0.0505 -0.4312
  381SOL     MW 1524   0.804   2.014   0.793  0.1419  0.0646  0.2196
  382SOL     OW 1525   0.727   0.081   0.718 -0.1863 -0.0933 -0.5693
  382SOL    HW1 1526   0.705   0.080   0.814  0.0851  0.7595  1.2241
  382SOL    HW2 1527   0.705  -0.010   0.708  0.2574  2.7778 -0.7794
  382SOL     MW 1528   0.721   0.069   0.729 -0.0919  0.3980 -0.3604
  383SOL     OW 1529   0.547   0.008   0.256  0.3050  0.8073 -0.2267
  383SOL    HW1 1530   0.596  -0.054   0.200 -0.1922  1.1470  1.1872
  383SOL    HW2 1531   0.517  -0.049   0.322 -0.4571 -0.2848 -0.0816
  383SOL     MW 1532   0.550  -0.008   0.258  0.1389  0.7080 -0.0210
  384SOL     OW 1533   0.695   2.911   0.625 -0.2221  0.1099  0.0598
  384SOL    HW1 1534   0.780   2.900   0.671  1.0436 -1.1326 -0.1690
  384SOL    HW2 1535   0.648   2.832   0.648 -0.0472 -0.3284 -1.0890
  384SOL     MW 1536   0.700   2.900   0.634 -0.0320 -0.1119 -0.1220
  385SOL     OW 1537   1.379   2.073   1.526  0.4888  0.3665 -0.0911
  385SOL    HW1 1538   1.442   2.125   1.577 -0.0729  0.8957 -2.6574
  385SOL    HW2 1539   1.357   2.008   1.591 -3.1558  0.6744 -4.0168
  385SOL     MW 1540   1.384   2.071   1.541 -0.0662  0.4770 -0.9477
  386SOL     OW 1541   1.300   0.386   0.888 -0.3515  0.0160 -0.5086
  386SOL    HW1 1542   1.246   0.382   0.968  1.3118 -1.3338  2.9199
  386SOL    HW2 1543   1.336   0.299   0.891 -2.2423  1.4085  0.1035
  386SOL     MW 1544   1.298   0.374   0.899 -0.3815  0.0217  0.0245
  387SOL     OW 1545   0.843   2.211   1.538  0.3094  0.5166 -0.4632
  387SOL    HW1 1546   0.903   2.267   1.483  1.3787 -2.7842 -0.9620
  387SOL    HW2 1547   0.858   2.125   1.497  0.1169  0.9826  1.1816
  387SOL     MW 1548   0.853   2.207   1.526  0.4250  0.1426 -0.3120
  388SOL     OW 1549   1.526   2.763   1.183  0.2210 -0.3632  0.2120
  388SOL    HW1 1550   1.429   2.770   1.195  1.3060  3.4004  0.0647
  388SOL    HW2 1551   1.544   2.696   1.119  0.6093  1.3193  1.3882
  388SOL     MW 1552   1.516   2.755   1.176  0.4154  0.3554  0.3477
  389SOL     OW 1553   0.436   0.132   3.009 -0.2036  0.5188 -0.2079
  389SOL    HW1 1554   0.521   0.089   3.015 -1.2025  1.3369 -2.3923
  389SOL    HW2 1555   0.450   0.167   2.918 -0.1507  0.4080 -0.1249
  389SOL     MW 1556   0.449   0.131   2.998 -0.3284  0.6121 -0.4851
  390SOL     OW 1557   1.299   0.086   0.706  0.5193  0.1407  0.9639
  390SOL    HW1 1558   1.350   0.052   0.626  2.8534  0.3661  1.1333
  390SOL    HW2 1559   1.361   0.113   0.771 -0.8606 -2.3474 -0.7097
  390SOL     MW 1560   1.314   0.085   0.704  0.6452 -0.1578  0.7654
  391SOL     OW 1561   0.338   2.233   1.418 -0.2770 -0.2396  0.0661
  391SOL    HW1 1562   0.295   2.142   1.416 -2.6894  1.8535 -0.3506
  391SOL    HW2 1563   0.281   2.303   1.442  0.7381  0.6950  2.8438
  391SOL     MW 1564   0.324   2.230   1.421 -0.4614  0.1599  0.3776
  392SOL     OW 1565   2.015   2.209   0.311  0.1593 -0.3395  0.3170
  392SOL    HW1 1566   2.087   2.186   0.365  0.5295  0.1553 -3.2247
  392SOL    HW2 1567   1.958   2.266   0.367 -0.6060 -2.7021 -1.2711
  392SOL     MW 1568   2.017   2.214   0.326  0.1071 -0.5859 -0.3598
  393SOL     OW 1569   0.256   2.969   2.796  0.6468 -0.2517 -0.1220
  393SOL    HW1 1570   0.349   2.941   2.770  0.7788  1.1811 -1.1879
  393SOL    HW2 1571   0.251   3.065   2.807  1.0279 -1.9229 -1.2482
  393SOL     MW 1572   0.268   2.978   2.794  0.7145 -0.2832 -0.4112
  394SOL     OW 1573   0.875   1.748   1.539  0.9433 -0.1753 -0.2091
  394SOL    HW1 1574   0.800   1.761   1.603  1.2535 -0.6598  2.3324
  394SOL    HW2 1575   0.871   1.824   1.472 -0.3759 -2.7595 -0.5182
  394SOL     MW 1576   0.864   1.760   1.539  0.8102 -0.5802  0.0854
  395SOL     OW 1577   0.952   2.868   2.664 -0.2443  1.3582  0.2016
  395SOL    HW1 1578   1.013   2.923   2.710 -0.2862  0.8511 -0.0811
  395SOL    HW2 1579   1.005   2.819   2.597 -0.0458  0.7930  0.4797
  395SOL     MW 1580   0.967   2.868   2.661 -0.2236  1.2167  0.2010
  396SOL     OW 1581   0.712   1.848   2.381 -0.2490 -0.4470  0.0249
  396SOL    HW1 1582   0.786   1.851   2.445  1.7039  0.3065  1.7743
  396SOL    HW2 1583   0.686   1.760   2.369  0.0839  3.0493  0.0893
  396SOL     MW 1584   0.718   1.837   2.388  0.0526  0.1137  0.2642
  397SOL     OW 1585   1.017   2.335   1.363  0.4118  0.5172  0.8622
  397SOL    HW1 1586   1.043   2.356   1.276 -3.0506  1.0374 -0.0288
  397SOL    HW2 1587   1.098   2.312   1.407 -3.1238 -1.0462 -0.3647
  397SOL     MW 1588   1.031   2.335   1.358 -0.5115  0.3796  0.5828
  398SOL     OW 1589   0.550   2.666   0.680  0.8505 -0.0967  0.0979
  398SOL    HW1 1590   0.477   2.640   0.624  0.5708 -1.4019 -3.4982
  398SOL    HW2 1591   0.608   2.589   0.685 -0.8901  2.2468 -0.8918
  398SOL     MW 1592   0.548   2.652   0.673  0.5839  0.0403 -0.5071
  399SOL     OW 1593   0.225   2.092   0.286 -0.1372 -0.1602 -0.5940
  399SOL    HW1 1594   0.145   2.133   0.319 -0.8829 -0.1318  0.9712
  399SOL    HW2 1595   0.236   2.129   0.195 -0.7945  0.9553  1.4592
  399SOL     MW 1596   0.216   2.102   0.278 -0.3223 -0.0093 -0.1166
  400SOL     OW 1597   0.517   1.929   0.090  0.0076 -0.4084  0.2189
  400SOL    HW1 1598   0.457   2.000   0.060  0.5628  2.1019 -0.2762
  400SOL    HW2 1599   0.508   1.926   0.186  1.2033  0.6638  0.4820
  400SOL     MW 1600   0.508   1.938   0.098  0.2386  0.0643  0.1883
  401SOL     OW 1601   0.772   2.049   0.055  0.6228 -0.2293 -0.0667
  401SOL    HW1 1602   0.831   1.983   0.101 -0.0934  0.2903 -1.6931
  401SOL    HW2 1603   0.686   2.005   0.072  0.3300 -0.5495  0.7168
  401SOL     MW 1604   0.769   2.034   0.064  0.4897 -0.2030 -0.1779
  402SOL     OW 1605   0.608   2.970   1.744  0.2645 -0.7611 -0.4342
  402SOL    HW1 1606   0.696   2.958   1.769 -0.3936  1.4341 -0.2787
  402SOL    HW2 1607   0.605   3.048   1.688  0.6286  0.5061  0.2688
  402SOL     MW 1608   0.619   2.979   1.740  0.2257 -0.3042 -0.3209
  403SOL     OW 1609   0.099   0.419   0.394 -0.1129 -0.3691  0.0019
  403SOL    HW1 1610   0.184   0.455   0.429 -0.2355 -0.3827  0.0954
  403SOL    HW2 1611   0.118   0.369   0.317  1.5010  0.1702  1.8904
  403SOL     MW 1612   0.113   0.417   0.389  0.0839 -0.2997  0.2634
  404SOL     OW 1613   0.961   2.916   0.758 -0.1536 -0.5376 -0.1631
  404SOL    HW1 1614   1.021   2.853   0.718  1.6662 -0.1181  0.4888
  404SOL    HW2 1615   0.987   2.999   0.714  1.6402  1.0695  1.6880
  404SOL     MW 1616   0.972   2.919   0.747  0.3232 -0.2702  0.1672
  405SOL     OW 1617   0.540   2.431   1.540  0.4665  0.2120  0.2198
  405SOL    HW1 1618   0.517   2.493   1.470 -0.6281  1.4818  0.1247
  405SOL    HW2 1619   0.488   2.356   1.503 -0.0539 -0.4032 -0.7744
  405SOL     MW 1620   0.530   2.429   1.525  0.2534  0.2984  0.0761
  406SOL     OW 1621   0.361   2.402   1.061 -0.0265  0.2140 -0.2506
  406SOL    HW1 1622   0.274   2.420   1.094 -1.0229  0.5209 -0.3723
  406SOL    HW2 1623   0.383   2.316   1.101 -0.8873 -0.8089 -1.0706
  406SOL     MW 1624   0.353   2.393   1.071 -0.2715  0.1195 -0.3749
  407SOL     OW 1625   0.017   2.669   1.150  0.3573  0.9438 -0.0656
  407SOL    HW1 1626   0.069   2.632   1.230 -0.7232 -2.5440  1.0036
  407SOL    HW2 1627   0.085   2.700   1.085  0.4164 -1.4084  0.6374
  407SOL     MW 1628   0.033   2.668   1.152  0.2225  0.1733  0.1682
  408SOL     OW 1629   2.168   2.172   0.630 -0.2860 -0.2931 -0.5095
  408SOL    HW1 1630   2.143   2.217   0.713 -2.3343 -1.1419  0.1278
  408SOL    HW2 1631   2.095   2.113   0.619 -0.4250  2.6406  0.1850
  408SOL     MW 1632   2.155   2.170   0.639 -0.5746 -0.0180 -0.3338
  409SOL     OW 1633   1.431   0.148   0.939  0.3319 -0.4023 -0.1059
  409SOL    HW1 1634   1.529   0.153   0.937 -0.2174  0.3556  0.4768
  409SOL    HW2 1635   1.415   0.067   0.988 -3.2490  0.2987 -0.0988
  409SOL     MW 1636   1.442   0.138   0.945 -0.2131 -0.2098 -0.0281
  410SOL     OW 1637   1.104   2.439   1.109 -0.4443 -0.0910  0.6632
  410SOL    HW1 1638   1.044   2.496   1.063 -2.0366  0.1045 -1.5254
  410SOL    HW2 1639   1.134   2.377   1.035  0.8682 -1.1098 -0.1614
  410SOL     MW 1640   1.100   2.439   1.093 -0.4812 -0.1996  0.2657
  411SOL     OW 1641   1.962   0.064   2.865 -0.3707 -0.4799 -0.1280
  411SOL    HW1 1642   1.896   0.020   2.815 -0.4219 -0.2129 -2.3091
  411SOL    HW2 1643   1.910   0.135   2.905 -1.9160  0.8357  0.9083
  411SOL     MW 1644   1.947   0.067   2.864 -0.5813 -0.2711 -0.2790
  412SOL     OW 1645   1.052   2.265   0.573  0.5111  0.6685 -0.3818
  412SOL    HW1 1646   1.082   2.352   0.608 -1.6162  2.1648 -0.0676
  412SOL    HW2 1647   0.965   2.285   0.549  3.6163 -3.9067  2.5406
  412SOL     MW 1648   1.045   2.279   0.575  0.6402  0.2623  0.0452
  413SOL     OW 1649   0.575   2.720   3.069 -0.7749 -0.1323 -0.3540
  413SOL    HW1 1650   0.636   2.668   3.130  1.8073 -1.9018  3.1553
  413SOL    HW2 1651   0.624   2.753   3.000  0.7098 -0.5330  1.7605
  413SOL     MW 1652   0.590   2.718   3.068 -0.2383 -0.4186  0.3880
  414SOL     OW 1653   1.899   2.977   1.096  0.6850 -0.5512  0.4609
  414SOL    HW1 1654   1.833   3.036   1.131 -0.4337 -1.0828  0.7482
  414SOL    HW2 1655   1.958   3.032   1.047 -1.1731  0.4736 -1.0088
  414SOL     MW 1656   1.898   2.992   1.094  0.2922 -0.4861  0.3049
  415SOL     OW 1657   1.848   2.708   1.070  0.2023  0.7936 -0.1487
  415SOL    HW1 1658   1.830   2.705   1.166  0.2399  0.7930  0.6383
  415SOL    HW2 1659   1.863   2.803   1.061 -0.0323  1.5562 -0.7326
  415SOL     MW 1660   1.848   2.721   1.082  0.1763  0.8941 -0.1219
  416SOL     OW 1661   0.551   1.992   1.358  0.3918 -0.2349 -0.2687
  416SOL    HW1 1662   0.507   2.052   1.298 -1.6984 -1.2381  2.6585
  416SOL    HW2 1663   0.557   1.907   1.310  1.2296 -2.3607 -2.7535
  416SOL     MW 1664   0.546   1.989   1.344  0.2266 -0.6477 -0.2103
  417SOL     OW 1665   0.982   3.027   2.053  0.2753 -0.6647 -0.3559
  417SOL    HW1 1666   0.922   3.023   2.125 -3.0455 -1.0802 -0.6873
  417SOL    HW2 1667   0.945   2.975   1.974 -1.3806 -0.9348  0.9810
  417SOL     MW 1668   0.969   3.020   2.052 -0.3813 -0.7552 -0.2233
  418SOL     OW 1669   0.677   2.933   0.099 -0.5110  0.3269  0.2268
  418SOL    HW1 1670   0.747   2.930   0.032 -1.8552 -2.7804 -1.3193
  418SOL    HW2 1671   0.610   2.866   0.065 -1.9322 -0.0396 -1.4065
  418SOL     MW 1672   0.677   2.924   0.086 -0.8759 -0.1314 -0.1927
  419SOL     OW 1673   0.493   2.605   1.352  0.4793  0.8456  0.0097
  419SOL    HW1 1674   0.525   2.675   1.407 -0.1058 -3.5719  2.5240
  419SOL    HW2 1675   0.545   2.612   1.269  0.2673 -2.3622 -0.4625
  419SOL     MW 1676   0.504   2.615   1.349  0.3741 -0.1605  0.2791
  420SOL     OW 1677   0.864   2.255   1.008 -0.0049 -0.5567  0.7550
  420SOL    HW1 1678   0.793   2.275   1.067 -0.3418  0.4706 -2.2382
  420SOL    HW2 1679   0.887   2.339   0.960  0.4879 -1.0213 -1.9335
  420SOL     MW 1680   0.858   2.269   1.010  0.0157 -0.4824  0.0053
  421SOL     OW 1681   2.943   0.178   3.039 -0.0817  0.4419  0.4013
  421SOL    HW1 1682   2.874   0.131   2.996  2.1919  4.5276 -1.5412
  421SOL    HW2 1683   2.986   0.106   3.079 -0.6557  1.7100 -1.1708
  421SOL     MW 1684   2.939   0.162   3.039  0.1426  1.1483 -0.0624
  422SOL     OW 1685   0.900   2.520   0.941  0.1369  0.3350  0.3081
  422SOL    HW1 1686   0.885   2.616   0.945 -1.0218  1.5366  0.1112
  422SOL    HW2 1687   0.868   2.502   0.849  0.1868 -0.0626 -0.8686
  422SOL     MW 1688   0.893   2.531   0.929 -0.0094  0.4411  0.1269
  423SOL     OW 1689   1.456   0.081   0.469 -0.2993  0.2390 -0.3445
  423SOL    HW1 1690   1.477   0.069   0.378 -1.2333 -1.3140 -0.7803
  423SOL    HW2 1691   1.450   0.173   0.485  3.5047  2.2753 -1.0877
  423SOL     MW 1692   1.458   0.092   0.459  0.0794  0.3028 -0.5001
  424SOL     OW 1693   0.676   2.300   1.213  0.3141  0.3786  0.5167
  424SOL    HW1 1694   0.593   2.243   1.195 -2.1996  1.6186 -1.4165
  424SOL    HW2 1695   0.677   2.332   1.304 -0.8370  2.0310  1.5328
  424SOL     MW 1696   0.665   2.296   1.223 -0.1694  0.7603  0.3957
  425SOL     OW 1697   1.710   2.803   2.040  0.2640 -0.0765 -0.0665
  425SOL    HW1 1698   1.685   2.827   1.949  1.7714 -0.6637 -2.4655
  425SOL    HW2 1699   1.758   2.726   2.012 -2.4917  0.3949 -0.8618
  425SOL     MW 1700   1.713   2.796   2.025  0.0993 -0.0918 -0.4880
  426SOL     OW 1701   0.832   1.690   1.970 -0.4878 -0.4720  0.0290
  426SOL    HW1 1702   0.762   1.711   1.905 -0.7754  0.4115 -0.7182
  426SOL    HW2 1703   0.827   1.757   2.039  3.6375  1.2307 -1.9312
  426SOL     MW 1704   0.822   1.702   1.970  0.0185 -0.1308 -0.3283
  427SOL     OW 1705   0.389   1.658   1.884  0.2636  0.5026 -0.1353
  427SOL    HW1 1706   0.443   1.583   1.886  2.9168  1.9411 -1.0460
  427SOL    HW2 1707   0.305   1.625   1.916  1.3636 -1.8650 -0.5153
  427SOL     MW 1708   0.385   1.644   1.888  0.7588  0.3800 -0.3056
  428SOL     OW 1709   0.607   2.578   1.079 -0.8297 -0.4834 -0.8923
  428SOL    HW1 1710   0.692   2.546   1.061 -1.3134  0.0520 -3.2078
  428SOL    HW2 1711   0.555   2.509   1.032 -0.7634 -1.3033 -3.6711
  428SOL     MW 1712   0.611   2.565   1.070 -0.8848 -0.5209 -1.5644
  429SOL     OW 1713   1.253   2.781   1.142 -0.1300  0.2014 -0.0292
  429SOL    HW1 1714   1.162   2.773   1.177  1.6271  0.2522 -0.2017
  429SOL    HW2 1715   1.253   2.864   1.095 -2.0940  0.4604  2.0727
  429SOL     MW 1716   1.241   2.791   1.140 -0.1573  0.2423  0.2254
  430SOL     OW 1717   1.147   2.729   0.708  0.2743 -0.2647  0.3021
  430SOL    HW1 1718   1.160   2.645   0.747  1.4488 -1.0873  0.0977
  430SOL    HW2 1719   1.106   2.719   0.617  0.8725 -2.2324 -0.7080
  430SOL     MW 1720   1.143   2.716   0.701  0.5082 -0.6328  0.1419
  431SOL     OW 1721   0.360   1.943   1.037  0.1840  0.3906 -0.3614
  431SOL    HW1 1722   0.431   1.877   1.021 -0.1456 -2.7726 -0.7034
  431SOL    HW2 1723   0.301   1.937   0.957 -1.7911  1.0771  0.2695
  431SOL     MW 1724   0.362   1.934   1.025 -0.1201  0.0638 -0.3233
  432SOL     OW 1725   0.079   0.036   1.230  0.2131  0.0430 -0.5226
  432SOL    HW1 1726   0.081   0.083   1.316  1.0523 -1.5722 -2.0525
  432SOL    HW2 1727   0.004  -0.025   1.233  2.7350  1.2034 -2.5708
  432SOL     MW 1728   0.069   0.034   1.242  0.6565 -0.0170 -0.9947
  433SOL     OW 1729   0.599   2.804   1.507 -0.0689  0.1880  0.1647
  433SOL    HW1 1730   0.580   2.807   1.603 -1.0620 -3.0827  2.8956
  433SOL    HW2 1731   0.690   2.819   1.498 -0.5458 -1.4415 -2.9342
  433SOL     MW 1732   0.609   2.807   1.518 -0.2629 -0.4586  0.1162
  434SOL     OW 1733   1.590   2.811   1.522  0.9429 -0.3876  0.0441
  434SOL    HW1 1734   1.498   2.841   1.499  0.6010  2.9629  0.9936
  434SOL    HW2 1735   1.641   2.782   1.445 -1.0098 -1.8208 -0.3203
  434SOL     MW 1736   1.585   2.811   1.509  0.6401 -0.1346  0.1213
  435SOL     OW 1737   2.857   1.785   0.197 -0.2113 -0.1135 -0.4655
  435SOL    HW1 1738   2.929   1.840   0.164 -1.9767  0.5568 -0.4583
  435SOL    HW2 1739   2.809   1.772   0.106  0.1219  1.3115 -2.0504
  435SOL     MW 1740   2.860   1.791   0.181 -0.4003  0.1629 -0.6736
  436SOL     OW 1741   1.379   2.672   0.451  0.5322 -0.2546  0.2310
  436SOL    HW1 1742   1.442   2.685   0.523  2.4123 -0.5153 -0.1047
  436SOL    HW2 1743   1.334   2.751   0.464 -1.3665 -0.7219 -0.8757
  436SOL     MW 1744   1.381   2.684   0.463  0.5297 -0.3507  0.0407
  437SOL     OW 1745   0.870   2.986   1.348  0.3646  0.0388  0.2617
  437SOL    HW1 1746   0.945   3.046   1.364  0.3815  0.2366  1.6620
  437SOL    HW2 1747   0.898   2.926   1.280 -0.2520  1.1160 -2.4895
  437SOL     MW 1748   0.884   2.986   1.341  0.2854  0.2070  0.0835
  438SOL     OW 1749   0.810   2.606   1.865 -0.1577 -0.1829  0.5536
  438SOL    HW1 1750   0.826   2.586   1.957  4.7100 -3.3396 -0.5625
  438SOL    HW2 1751   0.776   2.518   1.837  0.1990  1.1751  0.5292
  438SOL     MW 1752   0.807   2.592   1.874  0.5316 -0.4202  0.4031
  439SOL     OW 1753   1.245   2.158   0.411  0.0354 -0.2577 -0.3110
  439SOL    HW1 1754   1.187   2.189   0.480  1.0147 -3.1363  0.0463
  439SOL    HW2 1755   1.211   2.197   0.330 -0.6515 -0.8861 -0.0715
  439SOL     MW 1756   1.233   2.167   0.409  0.0740 -0.7204 -0.2323
  440SOL     OW 1757   1.767   3.033   3.064 -0.0126 -0.5233 -0.1393
  440SOL    HW1 1758   1.716   2.974   3.125 -3.3181  0.6876  0.8052
  440SOL    HW2 1759   1.850   2.990   3.056 -2.1407  1.0183  0.7714
  440SOL     MW 1760   1.772   3.019   3.071 -0.7295 -0.1601  0.1054
  441SOL     OW 1761   0.318   2.646   0.468  0.5054  0.7193 -0.1556
  441SOL    HW1 1762   0.311   2.601   0.378  0.3095 -4.9651 -0.7344
  441SOL    HW2 1763   0.351   2.736   0.463 -2.0751 -0.7869 -1.1742
  441SOL     MW 1764   0.322   2.652   0.456  0.1391 -0.2294 -0.3663
  442SOL     OW 1765   0.008   2.411   0.613  0.2193 -0.4061  0.2722
  442SOL    HW1 1766   0.006   2.503   0.595 -0.8664  2.0349 -0.1085
  442SOL    HW2 1767  -0.082   2.382   0.633 -0.0532  0.8147  1.0860
  442SOL     MW 1768  -0.004   2.419   0.613  0.0401  0.0771  0.3294
  443SOL     OW 1769   1.417   1.790   1.910  0.5400 -0.4264  0.9413
  443SOL    HW1 1770   1.355   1.823   1.846  2.6104 -0.1035 -0.4271
  443SOL    HW2 1771   1.372   1.739   1.980 -1.3911  1.4142 -0.0380
  443SOL     MW 1772   1.403   1.788   1.911  0.5584 -0.1409  0.6315
  444SOL     OW 1773   0.856   2.565   1.530 -0.3275  0.3183 -0.1180
  444SOL    HW1 1774   0.882   2.495   1.596 -0.3807 -0.1820  2.0997
  444SOL    HW2 1775   0.761   2.564   1.545  0.7519  1.6765  1.8863
  444SOL     MW 1776   0.847   2.556   1.541 -0.1921  0.4315  0.4391
  445SOL     OW 1777   1.051   0.075   1.332  0.6095 -0.2283 -0.2890
  445SOL    HW1 1778   0.980   0.142   1.326 -1.1522 -2.2128  2.0527
  445SOL    HW2 1779   1.125   0.121   1.299  2.3103  0.2818 -0.6309
  445SOL     MW 1780   1.051   0.090   1.327  0.6015 -0.4228 -0.0251
  446SOL     OW 1781   2.739   2.915   1.115 -0.0412 -0.0761 -0.0164
  446SOL    HW1 1782   2.671   2.950   1.054  0.5064  0.3589  0.1350
  446SOL    HW2 1783   2.781   2.839   1.071  1.4963 -1.7808 -0.7476
  446SOL     MW 1784   2.736   2.910   1.101  0.2339 -0.2436 -0.0929
  447SOL     OW 1785   0.058   2.012   1.639 -0.3161 -0.2960 -0.3844
  447SOL    HW1 1786   0.093   1.943   1.695  1.1202 -0.2177 -1.4509
  447SOL    HW2 1787  -0.020   1.965   1.594 -3.4420 -0.2502  1.5509
  447SOL     MW 1788   0.052   1.996   1.640 -0.5391 -0.2796 -0.2698
  448SOL     OW 1789   1.753   2.424   1.629 -0.0677 -0.0641  0.4366
  448SOL    HW1 1790   1.700   2.344   1.608 -1.0932 -0.7666 -0.5586
  448SOL    HW2 1791   1.683   2.489   1.660  0.1253  2.0593 -0.3107
  448SOL     MW 1792   1.737   2.422   1.630 -0.1775  0.1234  0.2067
  449SOL     OW 1793   0.823   2.885   0.349  0.4386  0.4486 -0.4066
  449SOL    HW1 1794   0.764   2.861   0.276  1.8394 -2.1068  0.3910
  449SOL    HW2 1795   0.753   2.894   0.420 -0.6550  2.3573  2.3997
  449SOL     MW 1796   0.806   2.883   0.348  0.4792  0.3632  0.0689
  450SOL     OW 1797   1.201   2.454   0.724 -0.3737 -0.1347 -0.7569
  450SOL    HW1 1798   1.184   2.393   0.802  2.3860 -0.7931  4.6146
  450SOL    HW2 1799   1.292   2.438   0.708  0.1321 -2.1119 -0.8729
  450SOL     MW 1800   1.210   2.444   0.732  0.0571 -0.4825 -0.0635
  451SOL     OW 1801   0.549   2.070   1.617 -0.4068 -0.2456  0.0460
  451SOL    HW1 1802   0.629   2.118   1.620  1.3637 -2.5449 -0.9068
  451SOL    HW2 1803   0.540   2.065   1.518  1.5956 -0.9335 -1.6613
  451SOL     MW 1804   0.558   2.076   1.604  0.0910 -0.6397 -0.3050
  452SOL     OW 1805   0.281   2.696   0.017  0.0062 -0.3932  0.4113
  452SOL    HW1 1806   0.362   2.744  -0.000 -1.2284 -0.3255  1.9511
  452SOL    HW2 1807   0.202   2.728  -0.035  1.5922  0.5818 -0.2403
  452SOL     MW 1808   0.281   2.706   0.008  0.0526 -0.2557  0.5285
  453SOL     OW 1809   0.343   2.989   1.645 -0.0356  0.2770 -0.3624
  453SOL    HW1 1810   0.433   2.973   1.668  0.9325  0.0055  1.6866
  453SOL    HW2 1811   0.342   3.022   1.551 -0.7924 -1.7132 -0.9081
  453SOL     MW 1812   0.355   2.992   1.636 -0.0077 -0.0214 -0.1641
  454SOL     OW 1813   0.989   2.777   1.212 -0.3134  0.4480  0.0819
  454SOL    HW1 1814   0.916   2.713   1.232  1.9453 -2.3059 -0.1343
  454SOL    HW2 1815   0.962   2.797   1.123 -3.2866 -2.3210  0.3978
  454SOL     MW 1816   0.976   2.772   1.203 -0.4077 -0.2807  0.0951
  455SOL     OW 1817   1.612   2.933   0.152 -0.1510 -0.1615 -0.1866
  455SOL    HW1 1818   1.678   2.947   0.225 -1.4461  2.5050  1.8269
  455SOL    HW2 1819   1.603   2.834   0.160 -0.0252 -0.8918 -0.5276
  455SOL     MW 1820   1.619   2.921   0.163 -0.3053  0.0940  0.0341
  456SOL     OW 1821   2.754   0.346   1.480 -0.6308 -0.0505  0.0718
  456SOL    HW1 1822   2.728   0.269   1.422 -1.5334 -2.9225 -1.9772
  456SOL    HW2 1823   2.828   0.394   1.431  1.1769 -0.6436 -2.2190
  456SOL     MW 1824   2.760   0.342   1.466 -0.5114 -0.5077 -0.5008
  457SOL     OW 1825   0.972   1.546   2.940 -0.1916 -0.2032  0.5878
  457SOL    HW1 1826   0.910   1.526   3.011 -3.2503 -1.7294  2.5525
  457SOL    HW2 1827   1.037   1.476   2.951 -0.2523  0.7337  2.4916
  457SOL     MW 1828   0.973   1.534   2.951 -0.6032 -0.2810  1.0982
  458SOL     OW 1829   1.429   1.473   0.565 -0.9693 -0.2509  0.4561
  458SOL    HW1 1830   1.386   1.558   0.561 -2.0527  0.6074  0.0337
  458SOL    HW2 1831   1.396   1.420   0.491 -0.2840  0.3837 -1.6606
  458SOL     MW 1832   1.419   1.477   0.555 -1.0219 -0.0539  0.1211
  459SOL     OW 1833   1.484   0.070   0.190  0.7617 -0.9236  0.0910
  459SOL    HW1 1834   1.499  -0.026   0.177  0.0926 -1.6856  2.9137
  459SOL    HW2 1835   1.426   0.099   0.122  2.5703 -0.5432  0.7957
  459SOL     MW 1836   1.479   0.061   0.179  0.9120 -0.9740  0.5564
  460SOL     OW 1837   1.750   2.154   0.609  0.2922  0.3602 -0.4566
  460SOL    HW1 1838   1.668   2.151   0.661 -0.3526 -3.3598 -0.0496
  460SOL    HW2 1839   1.787   2.067   0.631  3.7568  1.3458 -1.2802
  460SOL     MW 1840   1.744   2.142   0.619  0.6642 -0.0006 -0.5116
  461SOL     OW 1841   0.367   2.375   0.574  0.1597 -0.1304 -0.0291
  461SOL    HW1 1842   0.369   2.449   0.509 -2.0444  0.4675  0.1104
  461SOL    HW2 1843   0.328   2.413   0.648  1.2103 -1.3331  0.1608
  461SOL     MW 1844   0.362   2.390   0.575  0.0075 -0.2102  0.0144
  462SOL     OW 1845   0.398   0.283   1.282 -0.5394 -0.3145 -0.2300
  462SOL    HW1 1846   0.409   0.242   1.192  1.6788 -0.1299 -1.5525
  462SOL    HW2 1847   0.483   0.323   1.295 -1.6853 -1.4587  1.9331
  462SOL     MW 1848   0.411   0.283   1.272 -0.3979 -0.4411 -0.1191
  463SOL     OW 1849   0.994   0.077   0.652  0.1174  0.0966  0.5813
  463SOL    HW1 1850   0.983   0.129   0.567  1.6997 -0.8633 -1.9878
  463SOL    HW2 1851   0.913   0.080   0.703  3.2641  1.9577  0.5765
  463SOL     MW 1852   0.982   0.084   0.647  0.7413  0.2155  0.2417
  464SOL     OW 1853   0.816   3.068   2.298 -0.3374 -0.4842 -0.1379
  464SOL    HW1 1854   0.803   2.976   2.277 -0.6686  1.3188 -0.7689
  464SOL    HW2 1855   0.811   3.078   2.400  2.7760 -1.5251 -0.1087
  464SOL     MW 1856   0.814   3.057   2.309  0.0297 -0.3837 -0.2173
  465SOL     OW 1857   0.729   0.292   0.494  0.3757  0.0135  0.1258
  465SOL    HW1 1858   0.677   0.230   0.545 -0.4980  0.4779  1.1620
  465SOL    HW2 1859   0.703   0.261   0.405  0.5505 -1.5716  1.2072
  465SOL     MW 1860   0.719   0.279   0.489  0.2835 -0.1344  0.4052
  466SOL     OW 1861   1.052   2.008   0.710 -0.2619 -0.2917 -0.2844
  466SOL    HW1 1862   1.049   1.929   0.653 -4.3376 -2.2453  1.5832
  466SOL    HW2 1863   1.021   2.085   0.662 -2.6807  0.6599  0.9603
  466SOL     MW 1864   1.047   2.007   0.696 -1.1188 -0.4239  0.1262
  467SOL     OW 1865   1.222   2.277   0.930 -0.0782 -0.6312 -0.0760
  467SOL    HW1 1866   1.318   2.302   0.921  0.4262  0.0333  0.1117
  467SOL    HW2 1867   1.226   2.185   0.906  0.0921 -1.7940  0.3776
  467SOL     MW 1868   1.235   2.268   0.926  0.0108 -0.6970  0.0086
  468SOL     OW 1869   0.374   2.609   2.030 -0.2608  0.4594 -0.1364
  468SOL    HW1 1870   0.375   2.538   1.960 -0.1354  0.8026  2.3769
  468SOL    HW2 1871   0.319   2.685   1.992  2.3088  1.0369 -0.0303
  468SOL     MW 1872   0.367   2.609   2.015  0.0948  0.5809  0.2092
  469SOL     OW 1873   0.362   2.194   1.808  0.0268 -0.4407  0.2434
  469SOL    HW1 1874   0.307   2.121   1.834  0.5658 -0.2114  0.8184
  469SOL    HW2 1875   0.409   2.155   1.727  2.1045 -0.6321 -0.5308
  469SOL     MW 1876   0.361   2.179   1.801  0.3721 -0.4357  0.2171
  470SOL     OW 1877   3.014   2.602   0.099  0.3949 -0.0928  0.3840
  470SOL    HW1 1878   2.930   2.568   0.134  1.4848  0.5622 -3.3512
  470SOL    HW2 1879   3.008   2.616   0.001  3.1830  2.0828  0.2343
  470SOL     MW 1880   3.002   2.599   0.091  0.9066  0.2807 -0.1285
  471SOL     OW 1881   1.184   2.710   1.464  0.1946 -0.1975 -0.2128
  471SOL    HW1 1882   1.142   2.637   1.517  0.2237  0.0086 -1.6825
  471SOL    HW2 1883   1.133   2.712   1.383  0.2647 -1.1329  1.2073
  471SOL     MW 1884   1.172   2.701   1.460  0.2076 -0.2937 -0.2193
  472SOL     OW 1885   2.863   2.095   0.344 -0.0521 -0.6672 -0.4474
  472SOL    HW1 1886   2.890   2.047   0.267 -3.3599 -0.1957 -4.3570
  472SOL    HW2 1887   2.843   2.031   0.413 -1.4245 -0.2028 -0.9019
  472SOL     MW 1888   2.864   2.080   0.343 -0.6696 -0.5437 -1.0232
  473SOL     OW 1889   0.827   2.541   1.268  0.5133 -0.5715  0.6753
  473SOL    HW1 1890   0.825   2.452   1.232 -1.8502 -1.1506 -3.1078
  473SOL    HW2 1891   0.858   2.528   1.359 -2.7214 -4.2481 -0.0397
  473SOL     MW 1892   0.831   2.528   1.275 -0.2253 -1.1330  0.0818
  474SOL     OW 1893   0.864   2.112   1.797 -0.1578  0.0224  0.2278
  474SOL    HW1 1894   0.947   2.142   1.831 -1.4594 -0.2013 -1.2057
  474SOL    HW2 1895   0.870   2.136   1.702  1.6830  2.2132  1.7618
  474SOL     MW 1896   0.876   2.119   1.789 -0.0867  0.2819  0.2411
  475SOL     OW 1897   1.646   3.082   1.487 -0.1699 -0.7171 -0.2777
  475SOL    HW1 1898   1.558   3.097   1.438 -2.4398 -1.5422 -1.8219
  475SOL    HW2 1899   1.638   2.994   1.526  0.8166 -1.7689 -0.4927
  475SOL     MW 1900   1.633   3.072   1.486 -0.3392 -0.9648 -0.5098
  476SOL     OW 1901   1.419   2.609   0.982  0.3940  0.0483  0.3263
  476SOL    HW1 1902   1.354   2.642   1.039 -0.6733 -0.4234  0.4724
  476SOL    HW2 1903   1.446   2.684   0.935  1.4513  0.1328  4.4009
  476SOL     MW 1904   1.414   2.623   0.983  0.3927 -0.0028  0.8832
  477SOL     OW 1905   0.772   2.501   0.662 -0.0908  0.3513  0.4928
  477SOL    HW1 1906   0.812   2.578   0.622  1.7653  1.6159  3.4569
  477SOL    HW2 1907   0.751   2.444   0.587 -0.4091 -0.9850  1.4220
  477SOL     MW 1908   0.774   2.504   0.647  0.1121  0.3418  1.0065
  478SOL     OW 1909   0.166   2.721   0.924 -0.1183 -0.0302  0.0365
  478SOL    HW1 1910   0.237   2.782   0.917  2.8303 -0.9192 -1.0085
  478SOL    HW2 1911   0.179   2.653   0.853  3.2024  1.5800  1.8163
  478SOL     MW 1912   0.177   2.720   0.914  0.7089  0.0650  0.1334
  479SOL     OW 1913   1.440   1.984   1.261  0.4493  0.2272 -0.1693
  479SOL    HW1 1914   1.415   2.025   1.347 -1.4278 -0.4795  1.8717
  479SOL    HW2 1915   1.520   1.941   1.288 -1.5091 -2.9837 -2.1155
  479SOL     MW 1916   1.447   1.984   1.276 -0.0568 -0.2897 -0.1568
  480SOL     OW 1917   1.885   2.398   1.293 -0.2818  0.6578 -0.8847
  480SOL    HW1 1918   1.849   2.321   1.337  2.5828 -1.4149  0.5006
  480SOL    HW2 1919   1.940   2.365   1.225 -1.2893  1.3563 -0.2490
  480SOL     MW 1920   1.887   2.383   1.290 -0.0368  0.4765 -0.6181
  481SOL     OW 1921   1.000   0.047   0.991  0.1190 -0.6106 -0.9879
  481SOL    HW1 1922   1.060  -0.014   0.946  1.3301 -0.2516  0.3215
  481SOL    HW2 1923   1.049   0.111   1.040 -1.0250  2.3498 -0.7667
  481SOL     MW 1924   1.014   0.047   0.991  0.1279 -0.1726 -0.7859
  482SOL     OW 1925   1.036   3.018   0.263  0.1410  0.2816 -0.0308
  482SOL    HW1 1926   0.949   2.981   0.272  0.8398 -0.3870 -0.7803
  482SOL    HW2 1927   1.031   3.097   0.317  2.9508  0.2637 -0.3866
  482SOL     MW 1928   1.024   3.024   0.271  0.6039  0.1910 -0.1766
  483SOL     OW 1929   0.416   2.905   0.469  0.2127 -0.1940 -0.2988
  483SOL    HW1 1930   0.341   2.925   0.412  0.5600  1.9320  1.2728
  483SOL    HW2 1931   0.394   2.958   0.545 -1.0405 -2.1035 -0.5419
  483SOL     MW 1932   0.403   2.914   0.471  0.0932 -0.1654 -0.1235
  484SOL     OW 1933   1.698   1.871   1.390  0.6504  0.2981  0.3433
  484SOL    HW1 1934   1.746   1.950   1.364 -0.1238 -0.0105 -0.0432
  484SOL    HW2 1935   1.647   1.892   1.467  1.0017 -0.8611  0.5889
  484SOL     MW 1936   1.698   1.884   1.397  0.5946  0.1044  0.3247
  485SOL     OW 1937   0.553   2.369   0.229 -0.2127 -0.7046  0.4555
  485SOL    HW1 1938   0.587   2.350   0.315 -2.3424 -2.2357 -3.1708
  485SOL    HW2 1939   0.471   2.423   0.227  1.0154  1.9726 -2.0189
  485SOL     MW 1940   0.547   2.373   0.240 -0.3316 -0.5534 -0.3494
  486SOL     OW 1941   0.155   2.404   1.517  0.1362 -0.3928  0.7591
  486SOL    HW1 1942   0.163   2.496   1.474  0.5445 -2.1955 -0.2518
  486SOL    HW2 1943   0.146   2.422   1.614 -0.7007 -1.2993  0.8863
  486SOL     MW 1944   0.155   2.419   1.524  0.0797 -0.7503  0.6425
  487SOL     OW 1945   1.291   1.648   1.042 -0.1134  0.2461  0.0330
  487SOL    HW1 1946   1.277   1.741   1.042  1.9613  0.3470 -2.0305
  487SOL    HW2 1947   1.368   1.634   0.984  2.6397  1.6875 -3.7839
  487SOL     MW 1948   1.299   1.658   1.035  0.5236  0.4496 -0.7428
  488SOL     OW 1949   1.666   1.849   0.533  0.5694 -0.2998  0.3070
  488SOL    HW1 1950   1.738   1.877   0.487 -0.8830 -0.7138  0.2481
  488SOL    HW2 1951   1.603   1.920   0.512  1.2981 -0.7868  1.0822
  488SOL     MW 1952   1.667   1.862   0.524  0.4739 -0.4187  0.4015
  489SOL     OW 1953   0.642   0.781   0.612  0.2795  0.3200 -0.0379
  489SOL    HW1 1954   0.698   0.716   0.577 -0.8063 -1.0527  1.2632
  489SOL    HW2 1955   0.663   0.772   0.704  1.4547 -0.3154 -1.7301
  489SOL     MW 1956   0.652   0.771   0.619  0.2913  0.0551 -0.0895
  490SOL     OW 1957   1.489   2.032   0.418  0.4564  0.6295  0.1191
  490SOL    HW1 1958   1.551   2.095   0.396 -1.2528  0.0409  0.4681
  490SOL    HW2 1959   1.407   2.090   0.414  0.1788  1.0323  0.7087
  490SOL     MW 1960   1.486   2.048   0.415  0.1943  0.6050  0.2429
  491SOL     OW 1961   1.227   2.940   0.465  0.6481 -0.1824 -0.4627
  491SOL    HW1 1962   1.278   3.020   0.456 -0.4161  1.7744 -1.6443
  491SOL    HW2 1963   1.154   2.959   0.408  1.3117  1.0576 -0.4013
  491SOL     MW 1964   1.224   2.953   0.456  0.5952  0.2394 -0.6105
  492SOL     OW 1965   1.511   2.091   0.745  0.1227  0.0919 -0.0611
  492SOL    HW1 1966   1.469   2.094   0.660 -0.4804  1.0850  1.3047
  492SOL    HW2 1967   1.441   2.058   0.807 -1.6839  0.2382  2.1488
  492SOL     MW 1968   1.497   2.087   0.742 -0.1953  0.2422  0.4107
  493SOL     OW 1969   0.214   2.983   0.317  0.3382  0.0960 -0.1500
  493SOL    HW1 1970   0.165   3.051   0.364 -1.5957 -1.7105 -1.7035
  493SOL    HW2 1971   0.217   3.003   0.221 -0.7241 -1.0375 -0.6780
  493SOL     MW 1972   0.208   2.995   0.310 -0.0571 -0.2919 -0.4246
  494SOL     OW 1973   0.429   2.454   1.796 -0.2524 -0.1472  0.0179
  494SOL    HW1 1974   0.436   2.357   1.790 -2.9070 -0.1444  0.7239
  494SOL    HW2 1975   0.464   2.480   1.713  0.8448  0.2502 -2.7916
  494SOL     MW 1976   0.435   2.444   1.784 -0.4579 -0.0944 -0.2596
  495SOL     OW 1977   2.901   1.680   2.591  0.0467 -0.1752  0.4385
  495SOL    HW1 1978   2.908   1.774   2.588  0.0902 -1.4045 -1.5636
  495SOL    HW2 1979   2.893   1.664   2.683 -0.2653  0.3265 -3.2908
  495SOL     MW 1980   2.901   1.690   2.603  0.0113 -0.2712 -0.3177
  496SOL     OW 1981   2.912   2.300   2.678  0.2712 -0.5156 -0.1419
  496SOL    HW1 1982   2.961   2.224   2.717  3.3002 -1.6915  0.6032
  496SOL    HW2 1983   2.990   2.360   2.684 -0.4740  0.4022 -2.3513
  496SOL     MW 1984   2.929   2.298   2.684  0.5725 -0.5497 -0.3351
  497SOL     OW 1985   1.571   2.255   2.637 -0.4639  0.5106 -0.3846
  497SOL    HW1 1986   1.484   2.240   2.600  0.4076 -0.9370 -0.6967
  497SOL    HW2 1987   1.576   2.189   2.709 -2.7498  0.8294  1.7648
  497SOL     MW 1988   1.560   2.244   2.642 -0.6505  0.3617 -0.1422
  498SOL     OW 1989   1.545   2.734   2.386  0.3689 -0.0906 -0.0857
  498SOL    HW1 1990   1.551   2.640   2.362  2.3632  2.0132 -1.8507
  498SOL    HW2 1991   1.609   2.733   2.459  0.2230  0.1873  3.6576
  498SOL     MW 1992   1.554   2.721   2.393  0.6128  0.2236  0.1753
  499SOL     OW 1993   0.945   0.090   0.019  0.1946 -0.0084 -0.0751
  499SOL    HW1 1994   0.893   0.096   0.100 -1.4572 -0.2542 -1.8154
  499SOL    HW2 1995   0.965  -0.002   0.007 -2.5516  3.0377  2.7311
  499SOL     MW 1996   0.941   0.079   0.028 -0.3857  0.3611  0.0655
  500SOL     OW 1997   1.149   2.552   2.765  0.2066  0.1043  0.4885
  500SOL    HW1 1998   1.164   2.489   2.837 -1.8535 -0.4178  1.5577
  500SOL    HW2 1999   1.058   2.584   2.776  0.1559  3.1276  1.4858
  500SOL     MW 2000   1.139   2.548   2.776 -0.0719  0.4343  0.7611
  501SOL     OW 2001   1.766   2.225   3.068 -0.2936 -0.1618  0.2532
  501SOL    HW1 2002   1.753   2.324   3.091 -2.0919  1.7930  1.3773
  501SOL    HW2 2003   1.860   2.219   3.088  0.8956 -1.7674 -1.2876
  501SOL     MW 2004   1.777   2.237   3.073 -0.3740 -0.1157  0.1982
  502SOL     OW 2005   0.086   2.804   2.966  0.3275  0.0221 -0.0566
  502SOL    HW1 2006   0.016   2.754   2.937  1.5994 -0.5977  0.6217
  502SOL    HW2 2007   0.142   2.827   2.890 -2.9674 -0.5317  0.4901
  502SOL     MW 2008   0.084   2.801   2.952  0.0606 -0.1327  0.1050
  503SOL     OW 2009   1.110   2.683   2.087  0.4217  0.0249  0.5317
  503SOL    HW1 2010   1.155   2.684   2.005 -0.3159  3.2155 -1.1335
  503SOL    HW2 2011   1.035   2.744   2.075 -0.7763  2.3144  1.9108
  503SOL     MW 2012   1.106   2.691   2.074  0.1663  0.7479  0.4940
  504SOL     OW 2013   3.092   2.703   2.081 -0.1233  0.2656  0.4213
  504SOL    HW1 2014   3.140   2.619   2.074  3.2588  1.2067 -1.9801
  504SOL    HW2 2015   3.009   2.663   2.098  2.5161 -1.2573  0.1606
  504SOL     MW 2016   3.087   2.686   2.082  0.6711  0.1888  0.0701
  505SOL     OW 2017   1.723   2.614   2.856  0.2413  0.1004 -0.4257
  505SOL    HW1 2018   1.748   2.647   2.771  1.5554  0.4609 -0.0810
  505SOL    HW2 2019   1.646   2.667   2.879 -0.8631  0.2742  0.2319
  505SOL     MW 2020   1.716   2.626   2.848  0.2689  0.1709 -0.2935
  506SOL     OW 2021   1.576   3.087   2.872  0.2123  0.0439  0.0060
  506SOL    HW1 2022   1.620   3.079   2.959  0.4407 -3.6052 -0.5784
  506SOL    HW2 2023   1.650   3.092   2.812 -1.3889 -0.9520 -0.2235
  506SOL     MW 2024   1.591   3.086   2.876  0.0312 -0.5690 -0.1014
  507SOL     OW 2025   0.886   2.649   2.844 -0.0594  0.3128 -0.2868
  507SOL    HW1 2026   0.925   2.715   2.790  2.2532 -0.3811 -0.7059
  507SOL    HW2 2027   0.790   2.669   2.838 -2.5414 -1.6432  1.1368
  507SOL     MW 2028   0.878   2.660   2.836 -0.0818 -0.0368 -0.1543
  508SOL     OW 2029   1.135   2.097   2.482 -0.2528 -0.3356 -0.7779
  508SOL    HW1 2030   1.191   2.073   2.551 -1.1694 -0.2111 -2.3180
  508SOL    HW2 2031   1.077   2.162   2.539 -1.9980  0.0658  2.4299
  508SOL     MW 2032   1.135   2.103   2.499 -0.6040 -0.2662 -0.5578
  509SOL     OW 2033   0.634   2.604   2.739  0.3173 -0.1158 -0.3464
  509SOL    HW1 2034   0.629   2.548   2.661  1.1157  0.6026  0.2732
  509SOL    HW2 2035   0.556   2.578   2.797  0.1776  0.8568  0.2291
  509SOL     MW 2036   0.623   2.593   2.736  0.4042  0.1073 -0.1887
  510SOL     OW 2037   1.487   2.608   1.652 -0.2692 -0.4586  0.0993
  510SOL    HW1 2038   1.535   2.673   1.604  2.7945 -1.2061 -2.5752
  510SOL    HW2 2039   1.445   2.649   1.728 -0.3368  1.6208 -1.4264
  510SOL     MW 2040   1.488   2.622   1.656  0.1261 -0.2829 -0.4549
  511SOL     OW 2041   0.422   2.625   2.452  0.4589 -0.0510  0.1009
  511SOL    HW1 2042   0.499   2.567   2.462 -4.8804  3.0437 -1.1530
  511SOL    HW2 2043   0.435   2.674   2.369  1.5179 -0.8244  0.2010
  511SOL     MW 2044   0.434   2.624   2.443 -0.1058  0.2553 -0.0513
  512SOL     OW 2045   0.976   2.027   2.790  0.2426 -1.0000 -0.3254
  512SOL    HW1 2046   0.907   2.082   2.825 -0.5852 -1.9984  0.4856
  512SOL    HW2 2047   1.003   1.963   2.854  2.2501  0.7090 -0.0463
  512SOL     MW 2048   0.971   2.026   2.803  0.3982 -0.9062 -0.1816
  513SOL     OW 2049   1.572   2.471   2.284 -0.1697 -0.3535  0.5715
  513SOL    HW1 2050   1.614   2.516   2.212 -0.2644  0.9333 -0.8142
  513SOL    HW2 2051   1.646   2.462   2.346 -0.3761  1.0822  3.5358
  513SOL     MW 2052   1.588   2.476   2.283 -0.2095  0.0057  0.7798
  514SOL     OW 2053   0.265   2.492   2.630  0.6394 -0.3908 -0.2091
  514SOL    HW1 2054   0.291   2.550   2.557  0.2237 -1.7903  1.2210
  514SOL    HW2 2055   0.327   2.504   2.707  1.0844 -1.9019  2.1699
  514SOL     MW 2056   0.276   2.501   2.631  0.6433 -0.7748  0.2935
  515SOL     OW 2057   1.143   2.017   2.028  0.0366 -0.1250 -0.3041
  515SOL    HW1 2058   1.126   2.096   1.966 -0.8789  0.4805 -1.9701
  515SOL    HW2 2059   1.235   2.019   2.058  2.8184  2.0368 -3.1161
  515SOL     MW 2060   1.153   2.028   2.024  0.2829  0.2401 -0.8949
  516SOL     OW 2061   1.478   2.529   0.020 -0.2325  0.5569 -0.2540
  516SOL    HW1 2062   1.483   2.476  -0.060 -1.3913 -1.3979  2.2943
  516SOL    HW2 2063   1.420   2.603  -0.009 -1.6535 -0.6144 -1.7887
  516SOL     MW 2064   1.471   2.532   0.006 -0.5729  0.1445 -0.1203
  517SOL     OW 2065   0.576   2.441   2.113  0.1614 -0.0698 -0.4376
  517SOL    HW1 2066   0.533   2.528   2.104  0.7552  0.7944 -0.4062
  517SOL    HW2 2067   0.501   2.383   2.096 -3.0339 -2.9165 -0.0958
  517SOL     MW 2068   0.560   2.445   2.109 -0.1818 -0.3314 -0.3883
  518SOL     OW 2069   1.744   0.199   3.067 -0.0066  0.2807 -0.2832
  518SOL    HW1 2070   1.704   0.251   3.139 -2.2475  1.8662  3.3508
  518SOL    HW2 2071   1.724   0.107   3.092 -0.0919 -0.5853 -0.8216
  518SOL     MW 2072   1.736   0.194   3.080 -0.3135  0.3757  0.1252
  519SOL     OW 2073   0.730   2.348   1.782  0.0938 -0.8193  0.1453
  519SOL    HW1 2074   0.783   2.269   1.801  2.8770 -0.7951 -0.9194
  519SOL    HW2 2075   0.704   2.345   1.689  4.7006 -2.3292  0.2332
  519SOL     MW 2076   0.733   2.337   1.773  1.0689 -1.0153  0.0164
  520SOL     OW 2077   1.222   2.117   2.974  0.9071 -0.4826  0.0060
  520SOL    HW1 2078   1.139   2.088   2.936  1.4721  0.5012  0.0855
  520SOL    HW2 2079   1.243   2.045   3.028  2.7708  1.7123 -0.6429
  520SOL     MW 2080   1.214   2.104   2.976  1.2275 -0.0632 -0.0691
  521SOL     OW 2081   1.754   2.038   2.166  0.5955 -0.2697  0.6718
  521SOL    HW1 2082   1.793   2.079   2.080 -2.7559  4.0330  1.8754
  521SOL    HW2 2083   1.706   1.963   2.131  0.7778  0.3312 -1.0994
  521SOL     MW 2084   1.753   2.033   2.150  0.1774  0.3773  0.5969
  522SOL     OW 2085   2.877   2.537   2.231  0.4017  0.1617 -0.0125
  522SOL    HW1 2086   2.946   2.476   2.261  0.9431 -0.8928  0.0486
  522SOL    HW2 2087   2.886   2.611   2.284 -0.6833  1.8157  2.0649
  522SOL     MW 2088   2.887   2.539   2.242  0.3299  0.2408  0.2696
  523SOL     OW 2089   0.964   1.540   2.188 -0.2070 -0.7190  0.0744
  523SOL    HW1 2090   0.937   1.603   2.119 -0.7060  0.4821  1.8107
  523SOL    HW2 2091   1.004   1.466   2.145  1.9047 -1.5972  0.6390
  523SOL     MW 2092   0.966   1.538   2.173  0.0058 -0.6764  0.3780
  524SOL     OW 2093   0.692   2.434   2.940 -0.2222 -0.1718  0.0903
  524SOL    HW1 2094   0.706   2.488   2.868  0.2736 -0.9848 -0.0936
  524SOL    HW2 2095   0.738   2.345   2.920  0.2568 -1.1017  0.9189
  524SOL     MW 2096   0.700   2.429   2.928 -0.0936 -0.4018  0.1754
  525SOL     OW 2097   0.334   2.285   2.084 -0.5993  0.1348  0.1997
  525SOL    HW1 2098   0.321   2.228   2.155 -0.4489 -1.5624  1.1731
  525SOL    HW2 2099   0.335   2.232   2.002 -2.0233  1.6214  2.3187
  525SOL     MW 2100   0.332   2.271   2.082 -0.7673  0.1070  0.6077
  526SOL     OW 2101   0.654   2.024   1.972 -0.5898  0.1689  0.7824
  526SOL    HW1 2102   0.712   2.066   1.910 -2.6046  2.7185  0.5071
  526SOL    HW2 2103   0.671   2.084   2.046  0.5387 -0.4676 -1.6974
  526SOL     MW 2104   0.664   2.037   1.974 -0.7068  0.4213  0.4189
  527SOL     OW 2105   1.441   2.017   2.076 -0.3387 -0.2542 -0.9744
  527SOL    HW1 2106   1.415   2.004   2.168  2.6449  2.2766 -1.6232
  527SOL    HW2 2107   1.420   1.935   2.032 -0.1628  0.9226  0.5072
  527SOL     MW 2108   1.435   2.005   2.083  0.0781  0.2350 -0.8645
  528SOL     OW 2109   0.683   2.920   2.851 -0.5232  0.2685  0.1459
  528SOL    HW1 2110   0.679   3.006   2.897  3.2434  1.3220 -1.9849
  528SOL    HW2 2111   0.626   2.926   2.771 -0.9856  0.8110  0.6598
  528SOL     MW 2112   0.675   2.932   2.847 -0.0872  0.4791 -0.0674
  529SOL     OW 2113   1.098   2.238   1.886 -0.0315 -0.0861 -0.1708
  529SOL    HW1 2114   1.050   2.282   1.968 -0.1920  2.6199  1.3538
  529SOL    HW2 2115   1.119   2.318   1.838 -1.6318 -2.6508  2.1094
  529SOL     MW 2116   1.094   2.255   1.890 -0.2638 -0.0674  0.3312
  530SOL     OW 2117   1.150   2.395   3.013  0.1451  0.5381  0.1510
  530SOL    HW1 2118   1.134   2.431   3.101  0.2177  0.6616  1.7872
  530SOL    HW2 2119   1.193   2.311   3.025  2.6527  1.3546  1.3234
  530SOL     MW 2120   1.154   2.389   3.026  0.4855  0.6622  0.5216
  531SOL     OW 2121   0.890   1.875   2.583  0.4941  0.4600  0.1276
  531SOL    HW1 2122   0.925   1.927   2.657 -1.3888 -2.3881 -0.5411
  531SOL    HW2 2123   0.875   1.790   2.625 -1.3868  0.4303  0.2265
  531SOL     MW 2124   0.893   1.871   2.598 -0.0025  0.0803  0.0524
  532SOL     OW 2125   1.765   0.303   2.820  0.2360 -0.1768 -0.8354
  532SOL    HW1 2126   1.742   0.270   2.908  0.8777  0.1519 -0.9914
  532SOL    HW2 2127   1.842   0.354   2.829 -2.5748 -0.3780 -0.5017
  532SOL     MW 2128   1.772   0.305   2.833 -0.0502 -0.1599 -0.8119
  533SOL     OW 2129   1.917   2.627   3.030  0.3825 -0.1820  0.2264
  533SOL    HW1 2130   1.881   2.584   3.107  1.6308 -0.3407  0.6815
  533SOL    HW2 2131   1.843   2.620   2.961  2.6374  0.8951  3.5512
  533SOL     MW 2132   1.902   2.620   3.031  0.8447 -0.0608  0.7251
  534SOL     OW 2133   1.754   2.420   2.502 -0.1198 -0.0996  0.5070
  534SOL    HW1 2134   1.684   2.356   2.531  0.3698 -0.2797  1.1667
  534SOL    HW2 2135   1.824   2.426   2.570 -2.5682 -0.9334  0.2615
  534SOL     MW 2136   1.754   2.412   2.515 -0.3782 -0.2334  0.5617
  535SOL     OW 2137   1.899   2.366   1.840 -0.1145  0.2299  0.2449
  535SOL    HW1 2138   1.859   2.399   1.759  0.6462 -0.4553  0.0815
  535SOL    HW2 2139   1.998   2.379   1.830 -0.2530  1.3440 -0.5876
  535SOL     MW 2140   1.907   2.372   1.828 -0.0324  0.2865  0.1135
  536SOL     OW 2141   0.440   1.873   2.050  0.4666 -0.0081 -0.2010
  536SOL    HW1 2142   0.434   1.809   1.971  2.1643 -0.0121  1.2810
  536SOL    HW2 2143   0.519   1.921   2.036 -0.2955  1.2574 -0.4262
  536SOL     MW 2144   0.450   1.871   2.038  0.5901  0.1583 -0.0351
  537SOL     OW 2145   1.058   0.225   2.846  0.5357  0.0872  0.1506
  537SOL    HW1 2146   0.971   0.239   2.887  0.8875 -1.3022 -1.7153
  537SOL    HW2 2147   1.065   0.299   2.780  2.1744  0.4921  0.2365
  537SOL     MW 2148   1.048   0.237   2.843  0.7983 -0.0427 -0.0842
  538SOL     OW 2149   1.356   0.068   3.029 -0.6032  0.0848  0.7740
  538SOL    HW1 2150   1.324   0.155   3.002 -0.6535 -0.1818  0.3373
  538SOL    HW2 2151   1.411   0.036   2.953 -1.5283 -1.9276  1.9048
  538SOL     MW 2152   1.359   0.075   3.015 -0.7319 -0.2159  0.8656
  539SOL     OW 2153   0.736   2.787   2.490  0.0791  0.0962 -0.2185
  539SOL    HW1 2154   0.799   2.816   2.554 -2.2577 -1.3696 -0.2552
  539SOL    HW2 2155   0.707   2.700   2.515 -4.2929  2.1132 -1.7437
  539SOL     MW 2156   0.740   2.779   2.502 -0.8061  0.1689 -0.4246
  540SOL     OW 2157   0.429   2.457   2.854  0.0221  0.7884  0.3457
  540SOL    HW1 2158   0.503   2.417   2.905  1.7393  1.5336 -1.8065
  540SOL    HW2 2159   0.345   2.420   2.881 -0.6915 -0.8524 -1.7167
  540SOL     MW 2160   0.428   2.447   2.865  0.1545  0.6702 -0.2104
  541SOL     OW 2161   0.182   2.903   2.193 -0.5684 -0.3055  0.1519
  541SOL    HW1 2162   0.169   2.835   2.134  2.0585  0.6729 -0.1162
  541SOL    HW2 2163   0.223   2.862   2.269  1.6657 -1.0860  1.0619
  541SOL     MW 2164   0.186   2.889   2.195  0.0730 -0.2794  0.2366
  542SOL     OW 2165   1.015   2.278   2.661  0.0700  0.4129 -0.1639
  542SOL    HW1 2166   0.998   2.203   2.718  1.1533 -0.4282 -2.8868
  542SOL    HW2 2167   1.069   2.345   2.713 -0.5914  1.6811 -0.0839
  542SOL     MW 2168   1.020   2.277   2.676  0.1257  0.4692 -0.5126
  543SOL     OW 2169   1.500   2.433   2.851  0.9399 -0.0446 -0.0502
  543SOL    HW1 2170   1.505   2.360   2.784 -1.0928 -1.6831 -0.1910
  543SOL    HW2 2171   1.582   2.487   2.830  1.6128  1.0203  0.7452
  543SOL     MW 2172   1.512   2.430   2.839  0.7605 -0.1203  0.0362
  544SOL     OW 2173   0.719   0.192   2.771 -0.1643  0.2501  0.1547
  544SOL    HW1 2174   0.630   0.211   2.737 -2.3767 -1.0135 -3.0907
  544SOL    HW2 2175   0.750   0.143   2.695 -0.3919  0.7887 -0.0608
  544SOL     MW 2176   0.711   0.188   2.757 -0.4863  0.1545 -0.3019
  545SOL     OW 2177   1.583   2.201   2.331 -0.3073 -0.1249  0.2620
  545SOL    HW1 2178   1.578   2.293   2.308 -1.0415 -1.4763 -1.4369
  545SOL    HW2 2179   1.633   2.165   2.258  1.3327  1.1596  0.9419
  545SOL     MW 2180   1.589   2.208   2.318 -0.1878 -0.1338  0.1276
  546SOL     OW 2181   3.038   1.988   0.134  0.2098  0.1010  0.6777
  546SOL    HW1 2182   3.006   2.044   0.062 -0.7049 -0.9335 -1.8838
  546SOL    HW2 2183   3.126   1.957   0.098 -0.3477 -3.1883 -0.0474
  546SOL     MW 2184   3.046   1.991   0.120  0.0156 -0.4695  0.2440
  547SOL     OW 2185   0.220   3.061   0.034 -0.5340  0.8316 -0.9360
  547SOL    HW1 2186   0.275   3.096  -0.026 -0.4123 -1.9313  1.3703
  547SOL    HW2 2187   0.130   3.063  -0.009 -1.1686 -4.3203 -0.7481
  547SOL     MW 2188   0.216   3.066   0.020 -0.6017 -0.2127 -0.6069
  548SOL     OW 2189   0.301   2.516   0.213 -0.0857 -0.0542  0.7697
  548SOL    HW1 2190   0.304   2.583   0.136  1.1289  1.7238 -0.8112
  548SOL    HW2 2191   0.219   2.473   0.197  2.3114 -0.8068 -0.7371
  548SOL     MW 2192   0.291   2.519   0.201  0.3908  0.0811  0.3623
  549SOL     OW 2193   0.849   1.890   2.138 -0.8288  0.1159 -0.1850
  549SOL    HW1 2194   0.780   1.932   2.092 -0.3250  0.0853 -3.1221
  549SOL    HW2 2195   0.816   1.874   2.232  1.8875 -0.9248  1.8102
  549SOL     MW 2196   0.836   1.894   2.145 -0.4039 -0.0255 -0.3093
  550SOL     OW 2197   1.782   1.729   2.599 -0.0100  0.1693 -0.5941
  550SOL    HW1 2198   1.792   1.723   2.503  1.1142 -2.0735 -1.2935
  550SOL    HW2 2199   1.761   1.819   2.601 -0.3798  2.1650 -1.1040
  550SOL     MW 2200   1.781   1.740   2.587  0.0895  0.1367 -0.7536
  551SOL     OW 2201   0.829   2.287   0.206 -0.0267  0.0784  0.0998
  551SOL    HW1 2202   0.919   2.267   0.174 -0.0876 -0.8037 -1.5885
  551SOL    HW2 2203   0.786   2.219   0.156 -0.2996 -0.0433  0.8247
  551SOL     MW 2204   0.836   2.275   0.195 -0.0708 -0.0541 -0.0273
  552SOL     OW 2205   1.756   1.680   2.311 -0.1035 -0.0095 -0.7125
  552SOL    HW1 2206   1.668   1.710   2.292  3.4732 -2.0186 -1.8729
  552SOL    HW2 2207   1.799   1.621   2.245 -3.0718  1.5050  3.0442
  552SOL     MW 2208   1.750   1.676   2.300 -0.0232 -0.0748 -0.3699
  553SOL     OW 2209   1.250   2.317   1.497 -0.1475 -0.2087  0.3308
  553SOL    HW1 2210   1.302   2.236   1.507 -1.0484  1.6283 -0.6473
  553SOL    HW2 2211   1.314   2.384   1.469  0.7036  0.5723  2.2834
  553SOL     MW 2212   1.265   2.315   1.495 -0.1540  0.1367  0.4594
  554SOL     OW 2213   0.519   2.927   2.633 -0.6934  0.6522 -0.2945
  554SOL    HW1 2214   0.499   3.012   2.591  1.9789 -1.9702 -0.0191
  554SOL    HW2 2215   0.587   2.886   2.571  1.6915 -0.3094  0.8285
  554SOL     MW 2216   0.525   2.933   2.619 -0.0262  0.1794 -0.1100
  555SOL     OW 2217   0.670   2.485   2.500 -1.2067 -0.0338 -0.3243
  555SOL    HW1 2218   0.631   2.392   2.506 -0.3985  0.0854 -0.4917
  555SOL    HW2 2219   0.755   2.456   2.467  1.9877 -1.0775 -1.1007
  555SOL     MW 2220   0.676   2.469   2.496 -0.6786 -0.1558 -0.4488
  556SOL     OW 2221   0.972   1.877   0.121  0.0835 -0.3262 -0.6173
  556SOL    HW1 2222   1.001   1.821   0.050  1.6592 -0.2315 -0.6526
  556SOL    HW2 2223   1.050   1.897   0.181 -0.0922  1.6879  2.0410
  556SOL     MW 2224   0.986   1.872   0.119  0.2682 -0.0480 -0.2712
  557SOL     OW 2225   0.946   2.685   0.504  0.0335 -0.6995 -0.3124
  557SOL    HW1 2226   0.986   2.624   0.448 -0.4181 -0.0084  3.1028
  557SOL    HW2 2227   0.920   2.764   0.450  0.0126  1.4693 -2.7350
  557SOL     MW 2228   0.948   2.687   0.490 -0.0289 -0.3222 -0.1814
  558SOL     OW 2229   0.204   2.337   3.016 -0.4599  0.0978 -0.0589
  558SOL    HW1 2230   0.137   2.281   2.973 -0.0982 -0.7131  0.3419
  558SOL    HW2 2231   0.167   2.377   3.099  1.5403  1.6751  0.1693
  558SOL     MW 2232   0.190   2.335   3.021 -0.1482  0.1989  0.0241
  559SOL     OW 2233   0.993   2.336   2.110  1.0070 -0.2978  0.0724
  559SOL    HW1 2234   1.067   2.374   2.155  0.2134  1.5652 -1.1167
  559SOL    HW2 2235   0.988   2.248   2.163 -1.0379 -0.0808  0.7357
  559SOL     MW 2236   1.002   2.330   2.123  0.6325 -0.0234  0.0030
  560SOL     OW 2237   1.990   2.893   0.021  0.4368  0.2415 -0.6142
  560SOL    HW1 2238   2.047   2.934  -0.046 -0.5803 -1.4114  1.1666
  560SOL    HW2 2239   1.991   2.801  -0.013 -0.2991 -1.4212  1.6240
  560SOL     MW 2240   1.998   2.886   0.008  0.2055 -0.1959 -0.0839
  561SOL     OW 2241   0.407   2.189   0.051 -0.4509 -0.4961 -0.6378
  561SOL    HW1 2242   0.350   2.238  -0.012  0.5003 -1.7898 -0.5666
  561SOL    HW2 2243   0.470   2.248   0.099 -0.2202 -0.9330 -0.0672
  561SOL     MW 2244   0.408   2.203   0.049 -0.2949 -0.7245 -0.5531
  562SOL     OW 2245   0.691   2.192   2.195  0.5030  0.4765  0.5390
  562SOL    HW1 2246   0.682   2.285   2.177  3.2099  2.8074  1.9985
  562SOL    HW2 2247   0.778   2.185   2.246 -0.1535 -2.3092 -1.9921
  562SOL     MW 2248   0.701   2.203   2.200  0.7735  0.4165  0.3976
  563SOL     OW 2249   1.222   0.309   0.572  0.0918  0.2998  0.0349
  563SOL    HW1 2250   1.138   0.293   0.526  1.0702 -0.4778  1.6947
  563SOL    HW2 2251   1.234   0.232   0.623 -1.0449 -0.9438 -1.6003
  563SOL     MW 2252   1.212   0.297   0.572  0.0709  0.0331  0.0381
  564SOL     OW 2253   1.127   2.512   2.295  0.3738 -0.3353  0.0092
  564SOL    HW1 2254   1.136   2.574   2.223  2.4967 -0.6356  0.4730
  564SOL    HW2 2255   1.119   2.575   2.375  1.8067  0.0534 -1.3942
  564SOL     MW 2256   1.127   2.529   2.296  0.8430 -0.3236 -0.1148
  565SOL     OW 2257   2.828   2.742   2.651 -0.3931  0.3564  0.0435
  565SOL    HW1 2258   2.861   2.826   2.618 -0.7711  0.5119  1.5109
  565SOL    HW2 2259   2.770   2.709   2.579  0.9978  1.7591  1.5661
  565SOL     MW 2260   2.825   2.749   2.637 -0.2595  0.5620  0.4380
  566SOL     OW 2261   2.146   1.851   2.354 -0.4185  0.3295  0.6317
  566SOL    HW1 2262   2.162   1.808   2.271  1.0836 -1.5755  1.8981
  566SOL    HW2 2263   2.190   1.937   2.364 -1.5657 -2.9857 -0.8399
  566SOL     MW 2264   2.154   1.857   2.345 -0.3717 -0.3592  0.6046
  567SOL     OW 2265   1.187   2.928   3.012  0.2555  0.3387  0.6365
  567SOL    HW1 2266   1.240   2.989   3.063 -3.4040  1.1231  1.6408
  567SOL    HW2 2267   1.251   2.846   2.997  0.0552 -0.3516  0.6213
  567SOL     MW 2268   1.203   2.925   3.017 -0.2538  0.3511  0.7670
  568SOL     OW 2269   1.587   2.121   2.889  0.2727  0.1747  0.9159
  568SOL    HW1 2270   1.641   2.151   2.960  2.0909  0.3412 -2.0394
  568SOL    HW2 2271   1.656   2.082   2.834  3.1262  0.0530 -1.5780
  568SOL     MW 2272   1.603   2.120   2.891  0.8891  0.1806  0.1970
  569SOL     OW 2273   0.178   2.298   2.462 -0.1581  0.8989  0.4537
  569SOL    HW1 2274   0.116   2.338   2.403  0.1925  0.6216  1.0738
  569SOL    HW2 2275   0.196   2.373   2.521 -0.6609  0.9113 -2.5208
  569SOL     MW 2276   0.172   2.313   2.462 -0.1782  0.8640  0.1431
  570SOL     OW 2277   1.480   0.375   0.498  0.9203 -0.2199  0.4916
  570SOL    HW1 2278   1.381   0.367   0.517 -1.2896 -1.2944 -0.2248
  570SOL    HW2 2279   1.522   0.393   0.581  1.0360  0.5400  0.5448
  570SOL     MW 2280   1.472   0.377   0.511  0.6440 -0.2614  0.4041
  571SOL     OW 2281   1.480   2.449   2.003 -0.8579  0.0786 -0.1148
  571SOL    HW1 2282   1.493   2.451   2.099  2.2705  0.0770 -0.1123
  571SOL    HW2 2283   1.523   2.369   1.971  0.5868 -1.7799  0.4520
  571SOL     MW 2284   1.488   2.438   2.012 -0.2545 -0.1668 -0.0397
  572SOL     OW 2285   1.073   2.593   0.108  0.2530 -0.5592  0.0522
  572SOL    HW1 2286   1.074   2.686   0.083 -1.0307 -0.5723  1.2928
  572SOL    HW2 2287   0.977   2.573   0.076  0.0021  2.0630  1.1456
  572SOL     MW 2288   1.060   2.603   0.101  0.0505 -0.2150  0.3601
  573SOL     OW 2289   1.106   2.277   0.195  0.1804  0.0037 -0.2980
  573SOL    HW1 2290   1.176   2.276   0.134  0.5422 -0.4799  2.3818
  573SOL    HW2 2291   1.100   2.363   0.247  1.3780  0.3304  1.8885
  573SOL     MW 2292   1.114   2.288   0.193  0.3861 -0.0170  0.3440
  574SOL     OW 2293   1.126   2.513   0.364  0.0034 -0.0862  0.0116
  574SOL    HW1 2294   1.206   2.542   0.404  0.7862 -0.7710  0.8966
  574SOL    HW2 2295   1.118   2.551   0.273 -1.1764 -0.1235  1.7418
  574SOL     MW 2296   1.136   2.522   0.357 -0.0490 -0.1814  0.3567
  575SOL     OW 2297   3.067   2.203   1.812 -0.7016 -0.3991  0.3268
  575SOL    HW1 2298   3.110   2.137   1.752  0.5499  1.4874  0.8748
  575SOL    HW2 2299   3.131   2.269   1.826  0.2167 -1.1208 -1.2556
  575SOL     MW 2300   3.081   2.203   1.806 -0.4153 -0.2454  0.1903
  576SOL     OW 2301   2.789   1.766   2.106  0.1145 -0.0541 -0.1521
  576SOL    HW1 2302   2.793   1.849   2.057  0.7187  0.3754  2.1162
  576SOL    HW2 2303   2.705   1.728   2.082  2.0085 -0.1999 -0.6416
  576SOL     MW 2304   2.778   1.772   2.096  0.4441 -0.0167  0.0826
  577SOL     OW 2305   2.058   0.210   0.093 -0.3551  0.1770 -0.1060
  577SOL    HW1 2306   1.981   0.253   0.068  0.1471 -2.2792 -0.0164
  577SOL    HW2 2307   2.027   0.146   0.157 -1.0328 -1.0030 -0.3335
  577SOL     MW 2308   2.044   0.207   0.098 -0.3782 -0.3028 -0.1242
  578SOL     OW 2309   1.940   2.029   2.350 -0.1972  0.4784 -0.4652
  578SOL    HW1 2310   1.852   2.013   2.300 -1.4014  2.5252  0.5007
  578SOL    HW2 2311   1.991   1.954   2.326  0.0102  0.2496 -1.3022
  578SOL     MW 2312   1.935   2.017   2.341 -0.3287  0.7183 -0.4482
  579SOL     OW 2313   0.907   2.380   2.421 -0.1192  0.1762  0.5255
  579SOL    HW1 2314   0.945   2.349   2.501 -0.7640 -1.2246 -2.2077
  579SOL    HW2 2315   0.980   2.410   2.366  1.7826 -2.2194  2.2538
  579SOL     MW 2316   0.922   2.380   2.424  0.0467 -0.3247  0.3929
  580SOL     OW 2317   0.922   2.894   3.069 -0.0225 -0.4696  0.8764
  580SOL    HW1 2318   1.019   2.900   3.055 -0.1880  2.6569  1.2783
  580SOL    HW2 2319   0.889   2.845   2.993  1.2598 -0.6295 -2.4592
  580SOL     MW 2320   0.931   2.888   3.057  0.1249 -0.0782  0.4894
  581SOL     OW 2321   1.127   2.464   1.696 -0.0555  0.6853 -0.4539
  581SOL    HW1 2322   1.187   2.534   1.739  1.7587  1.4033  1.4062
  581SOL    HW2 2323   1.186   2.405   1.638  1.2525 -4.6118  1.4997
  581SOL     MW 2324   1.143   2.465   1.694  0.3564  0.0812  0.0493
  582SOL     OW 2325   0.053   2.782   2.607  0.2110  0.1743  0.0116
  582SOL    HW1 2326   0.051   2.865   2.655 -2.4301 -1.6299  0.6481
  582SOL    HW2 2327   0.134   2.789   2.555  2.0606  1.1515  0.3976
  582SOL     MW 2328   0.064   2.794   2.606  0.1066  0.0652  0.1465
  583SOL     OW 2329   1.990   2.397   2.653 -0.2321 -0.3754 -0.0353
  583SOL    HW1 2330   2.067   2.432   2.595 -0.0590  0.9196 -2.1220
  583SOL    HW2 2331   1.980   2.299   2.633 -0.8377  0.8333 -1.2909
  583SOL     MW 2332   1.999   2.389   2.643 -0.2891 -0.0450 -0.4763
  584SOL     OW 2333   0.108   1.863   2.238 -0.5269  0.4282  0.5294
  584SOL    HW1 2334   0.115   1.874   2.141  0.1063 -1.8128  1.2256
  584SOL    HW2 2335   0.166   1.935   2.261  0.3937 -0.1351 -1.6596
  584SOL     MW 2336   0.116   1.874   2.228 -0.3219  0.0582  0.3324
  585SOL     OW 2337   1.580   2.652   0.223  0.6715 -0.3500 -0.0627
  585SOL    HW1 2338   1.551   2.593   0.150 -0.6016 -2.2413  2.1857
  585SOL    HW2 2339   1.508   2.644   0.296  0.8131 -1.5610  3.7092
  585SOL     MW 2340   1.566   2.643   0.223  0.5222 -0.7593  0.7317
  586SOL     OW 2341   1.359   2.866   2.554  0.3314  0.0123  0.4867
  586SOL    HW1 2342   1.436   2.843   2.493 -1.2381  0.1849 -0.0246
  586SOL    HW2 2343   1.336   2.955   2.536  0.0053 -2.6398  1.0075
  586SOL     MW 2344   1.366   2.874   2.543  0.0813 -0.3148  0.4880
  587SOL     OW 2345   1.342   1.600   2.122 -0.0720  0.1009 -0.6068
  587SOL    HW1 2346   1.344   1.525   2.187 -0.9690 -1.1937 -0.4622
  587SOL    HW2 2347   1.301   1.558   2.047  0.5696  2.2365  0.3738
  587SOL     MW 2348   1.337   1.584   2.121 -0.1057  0.2119 -0.4583
  588SOL     OW 2349   1.310   2.078   2.699 -0.2005 -0.0430 -0.5453
  588SOL    HW1 2350   1.347   1.993   2.726  1.4798 -1.5057 -0.1851
  588SOL    HW2 2351   1.311   2.130   2.780  1.1036  0.5273  2.3601
  588SOL     MW 2352   1.315   2.074   2.713  0.1933 -0.1608 -0.1144
  589SOL     OW 2353   1.361   2.001   0.111  0.5138 -0.3218 -0.5127
  589SOL    HW1 2354   1.387   2.090   0.138  2.1837  0.3207  1.0293
  589SOL    HW2 2355   1.296   1.981   0.176 -0.5458 -1.6490  0.1016
  589SOL     MW 2356   1.356   2.010   0.123  0.5944 -0.4121 -0.2282
  590SOL     OW 2357   0.492   2.769   2.225 -0.2827  0.1025  0.6917
  590SOL    HW1 2358   0.466   2.710   2.152  1.7429 -2.2002  1.4582
  590SOL    HW2 2359   0.584   2.770   2.213 -2.4842 -0.6684  0.4945
  590SOL     MW 2360   0.501   2.761   2.214 -0.3059 -0.3030  0.7668
  591SOL     OW 2361   2.257   0.638   3.101 -0.0345  0.5101 -0.2792
  591SOL    HW1 2362   2.192   0.692   3.067  0.7572 -3.2761  0.8959
  591SOL    HW2 2363   2.334   0.633   3.051  1.7044 -1.3591 -0.9492
  591SOL     MW 2364   2.259   0.645   3.090  0.2994 -0.2361 -0.2126
  592SOL     OW 2365   1.759   2.952   0.778 -0.0653  0.1990 -0.3643
  592SOL    HW1 2366   1.738   3.012   0.710 -0.7653 -2.8471  0.9282
  592SOL    HW2 2367   1.849   2.934   0.758 -0.8874 -0.8292  1.4270
  592SOL     MW 2368   1.768   2.957   0.767 -0.2661 -0.3386  0.0426
  593SOL     OW 2369   1.960   0.646   0.811  0.1798  0.1651  0.5176
  593SOL    HW1 2370   1.876   0.635   0.759  0.5197 -0.9223 -1.6241
  593SOL    HW2 2371   2.021   0.573   0.803  0.1939 -0.8141  0.9558
  593SOL     MW 2372   1.957   0.635   0.803  0.2265 -0.1076  0.2928
  594SOL     OW 2373   2.780   1.172   1.400 -0.3458 -0.3047 -0.2297
  594SOL    HW1 2374   2.870   1.206   1.397  1.6619  3.1422 -1.5190
  594SOL    HW2 2375   2.788   1.112   1.322 -0.8688  0.8167 -2.7331
  594SOL     MW 2376   2.793   1.169   1.389 -0.1499  0.2981 -0.7301
  595SOL     OW 2377   0.441   0.987   0.807  0.0527 -0.1320  0.2408
  595SOL    HW1 2378   0.447   1.037   0.732  0.7663 -1.8742  1.0186
  595SOL    HW2 2379   0.455   1.050   0.884 -1.1888  1.5940  2.0999
  595SOL     MW 2380   0.444   1.002   0.808 -0.0170 -0.1341  0.5887
  596SOL     OW 2381   2.484   1.330   0.572 -0.1874 -0.2950 -0.2816
  596SOL    HW1 2382   2.526   1.409   0.535 -1.4471 -1.9044 -1.2034
  596SOL    HW2 2383   2.546   1.292   0.634  0.8916 -2.9859 -0.0457
  596SOL     MW 2384   2.498   1.336   0.575 -0.2112 -0.8624 -0.3721
  597SOL     OW 2385   2.196   0.674   1.626 -0.1919 -0.5786  0.4081
  597SOL    HW1 2386   2.209   0.611   1.697 -0.2739  1.3494 -0.6573
  597SOL    HW2 2387   2.120   0.643   1.580  2.1640  2.9664  1.2869
  597SOL     MW 2388   2.187   0.662   1.629  0.1081  0.1435  0.3835
  598SOL     OW 2389   2.559   1.041   2.773 -0.1284  0.3551 -0.4503
  598SOL    HW1 2390   2.570   1.014   2.680 -1.0954  1.4700 -1.2483
  598SOL    HW2 2391   2.649   1.078   2.795  0.2831  1.0592  1.4356
  598SOL     MW 2392   2.572   1.042   2.763 -0.2017  0.5951 -0.3068
  599SOL     OW 2393   2.982   0.388   2.046  0.1919  0.3169  0.3576
  599SOL    HW1 2394   3.012   0.424   2.128  1.7216 -0.3486 -0.3945
  599SOL    HW2 2395   2.943   0.467   2.004 -0.2904  0.6507 -2.6216
  599SOL     MW 2396   2.981   0.403   2.051  0.3301  0.2732 -0.1347
  600SOL     OW 2397   1.858   1.595   0.881 -0.0445 -0.0047  0.2883
  600SOL    HW1 2398   1.917   1.653   0.928 -1.1676  0.2781 -0.6251
  600SOL    HW2 2399   1.781   1.648   0.851 -3.3239 -1.7668 -0.1760
  600SOL     MW 2400   1.856   1.610   0.883 -0.6254 -0.1999  0.1065
  601SOL     OW 2401   2.513   0.765   0.815  0.0312  0.3276 -0.5385
  601SOL    HW1 2402   2.522   0.787   0.909 -0.8378 -1.0879 -0.5184
  601SOL    HW2 2403   2.431   0.717   0.800 -2.1073 -1.2261 -0.9560
  601SOL     MW 2404   2.503   0.762   0.825 -0.3656 -0.0641 -0.5909
  602SOL     OW 2405   2.284   1.933   0.770 -0.6916  0.0967 -0.4295
  602SOL    HW1 2406   2.264   1.843   0.740 -0.4718  0.0023 -0.8173
  602SOL    HW2 2407   2.217   1.994   0.734 -3.8438 -0.6306  2.6992
  602SOL     MW 2408   2.273   1.930   0.761 -1.0785 -0.0117 -0.0678
  603SOL     OW 2409   0.009   1.345   1.827  0.0529  0.0093  0.5427
  603SOL    HW1 2410   0.065   1.420   1.843 -2.4679  1.5198  0.0556
  603SOL    HW2 2411   0.045   1.279   1.885 -2.7932 -0.4034 -0.2827
  603SOL     MW 2412   0.021   1.346   1.836 -0.6552  0.1542  0.3695
  604SOL     OW 2413   2.113   1.539   0.468 -0.4365  0.1802 -0.1306
  604SOL    HW1 2414   2.111   1.446   0.478 -1.7672  1.0118 -0.2583
  604SOL    HW2 2415   2.042   1.579   0.511  1.9227  0.6777 -3.6352
  604SOL     MW 2416   2.103   1.532   0.475 -0.3008  0.3556 -0.6099
  605SOL     OW 2417   2.535   1.479   0.864 -0.4623  0.3967  0.5937
  605SOL    HW1 2418   2.542   1.537   0.790 -0.9098 -2.6769  2.8986
  605SOL    HW2 2419   2.574   1.400   0.841 -0.3751  2.5552  0.3381
  605SOL     MW 2420   2.541   1.476   0.851 -0.5099  0.2760  0.8641
  606SOL     OW 2421   2.533   1.683   2.021 -0.1751  0.4859  0.0280
  606SOL    HW1 2422   2.446   1.713   1.990  0.8015  1.2205 -0.0275
  606SOL    HW2 2423   2.582   1.649   1.944 -1.2098 -0.2017  1.0137
  606SOL     MW 2424   2.528   1.683   2.007 -0.1828  0.4921  0.1508
  607SOL     OW 2425   2.437   1.069   3.026  0.0807 -0.7684  0.2095
  607SOL    HW1 2426   2.484   1.046   2.942  1.4940 -1.4001  0.7499
  607SOL    HW2 2427   2.482   1.021   3.095  0.0284  1.7473 -2.4253
  607SOL     MW 2428   2.449   1.059   3.024  0.2602 -0.5198 -0.0668
  608SOL     OW 2429   1.857   0.280   0.576 -0.0075  0.3191 -0.0126
  608SOL    HW1 2430   1.871   0.350   0.515  2.1860  0.8245 -1.1457
  608SOL    HW2 2431   1.835   0.201   0.525 -2.5608 -1.8183  0.8769
  608SOL     MW 2432   1.856   0.279   0.561 -0.0549  0.1038 -0.0448
  609SOL     OW 2433   2.052   1.960   3.039  0.4865 -0.0423  0.9235
  609SOL    HW1 2434   1.974   1.901   3.023  1.5288  0.4517  2.0125
  609SOL    HW2 2435   2.099   1.945   3.123 -0.3939  0.1617  0.5369
  609SOL     MW 2436   2.048   1.951   3.048  0.5079  0.0498  1.0162
  610SOL     OW 2437   1.795   0.977   1.239  0.9510 -0.4844 -0.3052
  610SOL    HW1 2438   1.849   0.901   1.209 -0.2133  0.2438 -0.6629
  610SOL    HW2 2439   1.704   0.968   1.210  0.1968 -2.4377 -0.7404
  610SOL     MW 2440   1.790   0.966   1.232  0.6978 -0.6460 -0.4098
  611SOL     OW 2441   2.525   1.692   0.676  0.4760 -0.0642 -0.4105
  611SOL    HW1 2442   2.542   1.755   0.610 -3.2755 -0.4851 -1.4597
  611SOL    HW2 2443   2.429   1.701   0.701  2.1871 -1.5252  2.8086
  611SOL     MW 2444   2.514   1.702   0.671  0.2068 -0.3125 -0.1242
  612SOL     OW 2445   2.865   2.894   0.366 -0.0686  0.1990 -0.1759
  612SOL    HW1 2446   2.887   2.920   0.458  0.4514  0.2703  0.0889
  612SOL    HW2 2447   2.946   2.856   0.336 -3.2609 -1.3253 -2.0475
  612SOL     MW 2448   2.878   2.892   0.374 -0.4212  0.0073 -0.3879
  613SOL     OW 2449   1.451   1.027   0.900 -0.2107  0.3580 -0.2408
  613SOL    HW1 2450   1.455   1.123   0.877  0.7606  0.8728  0.6333
  613SOL    HW2 2451   1.485   1.026   0.988 -0.2423 -3.5417  2.1383
  613SOL     MW 2452   1.456   1.039   0.908 -0.0867 -0.0886  0.1885
  614SOL     OW 2453   1.985   0.542   1.477 -0.2040 -0.5469  0.3399
  614SOL    HW1 2454   1.992   0.465   1.546 -0.4875 -3.0684  0.5540
  614SOL    HW2 2455   1.939   0.506   1.401  0.4788  0.2181 -1.6778
  614SOL     MW 2456   1.980   0.527   1.476 -0.1513 -0.7786  0.1019
  615SOL     OW 2457   2.321   0.769   0.250 -0.1288  0.0407  0.2153
  615SOL    HW1 2458   2.385   0.700   0.248 -2.1200 -0.1719  0.3369
  615SOL    HW2 2459   2.270   0.766   0.173  2.4403  1.7404  2.4096
  615SOL     MW 2460   2.322   0.759   0.239 -0.0526  0.2369  0.5209
  616SOL     OW 2461   2.500   0.408   1.665 -0.3406 -0.1236  0.3932
  616SOL    HW1 2462   2.495   0.323   1.617  2.5113  0.6834  2.0362
  616SOL    HW2 2463   2.503   0.479   1.599  0.2450  1.6958  0.2641
  616SOL     MW 2464   2.500   0.406   1.650  0.1130  0.2229  0.5929
  617SOL     OW 2465   2.792   0.629   1.702 -0.1173 -0.6973  0.0894
  617SOL    HW1 2466   2.721   0.661   1.766  2.0675  2.8322 -1.5638
  617SOL    HW2 2467   2.752   0.551   1.665 -1.8146 -0.0333 -0.1644
  617SOL     MW 2468   2.777   0.623   1.706 -0.0530 -0.1440 -0.1622
  618SOL     OW 2469   2.711   0.346   1.945 -0.3062  0.4304  0.5312
  618SOL    HW1 2470   2.682   0.442   1.944 -3.5090 -0.2210  3.4582
  618SOL    HW2 2471   2.761   0.335   2.024 -1.7952  0.8153  2.3868
  618SOL     MW 2472   2.713   0.357   1.956 -0.9252  0.3953  1.1622
  619SOL     OW 2473   2.651   0.736   0.051 -0.7455  0.4775 -0.4894
  619SOL    HW1 2474   2.673   0.820   0.091 -1.9960 -0.1624 -1.1625
  619SOL    HW2 2475   2.618   0.689   0.125 -1.4253  1.1147 -1.6610
  619SOL     MW 2476   2.650   0.741   0.066 -1.0002  0.4771 -0.7328
  620SOL     OW 2477   2.207   1.042   0.912  0.0540 -0.0828 -0.0549
  620SOL    HW1 2478   2.291   1.022   0.867  1.2947 -0.7258 -1.1536
  620SOL    HW2 2479   2.159   0.967   0.879  0.5186 -0.5429  0.9316
  620SOL     MW 2480   2.212   1.029   0.902  0.2790 -0.2284 -0.0697
  621SOL     OW 2481   1.561   2.203   1.922 -0.2505 -0.1313  0.2298
  621SOL    HW1 2482   1.502   2.143   1.974  3.4686 -0.9667 -1.4478
  621SOL    HW2 2483   1.648   2.162   1.939 -0.2443 -2.2186  2.7955
  621SOL     MW 2484   1.564   2.190   1.931  0.2410 -0.5170  0.3470
  622SOL     OW 2485   2.622   0.196   0.243  1.0636  0.3396 -0.0355
  622SOL    HW1 2486   2.707   0.235   0.242  1.3054  0.2117  0.8238
  622SOL    HW2 2487   2.641   0.101   0.262  0.4468 -0.4716 -0.3988
  622SOL     MW 2488   2.635   0.189   0.245  1.0141  0.2157  0.0300
  623SOL     OW 2489   2.438   2.763   0.846  0.5758 -0.3262 -0.0566
  623SOL    HW1 2490   2.519   2.816   0.846  2.9526 -1.1262 -1.6894
  623SOL    HW2 2491   2.414   2.781   0.938  0.5757  0.2178 -0.3244
  623SOL     MW 2492   2.446   2.772   0.858  0.8894 -0.3600 -0.3074
  624SOL     OW 2493   2.156   1.647   3.027  0.4388 -1.0109  0.3022
  624SOL    HW1 2494   2.098   1.584   3.062 -2.5406 -1.8777  0.4088
  624SOL    HW2 2495   2.101   1.719   2.997 -2.3005  3.1911  0.2220
  624SOL     MW 2496   2.141   1.648   3.028 -0.3157 -0.5709  0.3057
  625SOL     OW 2497   2.204   1.866   1.056  0.9542  0.4638  0.5879
  625SOL    HW1 2498   2.276   1.853   1.120  1.3308  2.6835 -2.3508
  625SOL    HW2 2499   2.241   1.914   0.984  0.4180 -0.3688  0.4565
  625SOL     MW 2500   2.218   1.870   1.055  0.9332  0.6468  0.1828
  626SOL     OW 2501   0.279   1.726   2.432  0.0813  0.7421 -0.0205
  626SOL    HW1 2502   0.223   1.661   2.470  0.5315  1.5069 -0.6633
  626SOL    HW2 2503   0.231   1.758   2.355  0.0381  2.2721  0.3472
  626SOL     MW 2504   0.266   1.721   2.427  0.1350  1.0449 -0.0568
  627SOL     OW 2505   2.483   0.723   2.541  0.6660  0.1487  0.4091
  627SOL    HW1 2506   2.473   0.816   2.560  1.5693  1.5316 -0.3263
  627SOL    HW2 2507   2.457   0.708   2.452 -0.5662 -0.2297  0.2041
  627SOL     MW 2508   2.478   0.733   2.532  0.6226  0.2812  0.2850
  628SOL     OW 2509   2.274   1.389   1.311 -0.5074 -0.3819 -0.0734
  628SOL    HW1 2510   2.233   1.323   1.252  0.2672  1.0246  0.8950
  628SOL    HW2 2511   2.368   1.387   1.279  1.1282 -0.7635 -3.3441
  628SOL     MW 2512   2.281   1.380   1.299 -0.1894 -0.2467 -0.3772
  629SOL     OW 2513   1.867   0.546   1.230  0.6304 -0.0898 -0.0937
  629SOL    HW1 2514   1.864   0.628   1.183 -3.7231 -0.6159 -1.2030
  629SOL    HW2 2515   1.774   0.521   1.219  0.8927 -1.9051  0.7016
  629SOL     MW 2516   1.854   0.554   1.222  0.0906 -0.3987 -0.1352
  630SOL     OW 2517   2.365   1.879   3.060  0.2470  0.0983 -0.4167
  630SOL    HW1 2518   2.366   1.935   2.976  1.2857  0.5078  0.8054
  630SOL    HW2 2519   2.296   1.819   3.046 -0.9060  0.1674  1.2340
  630SOL     MW 2520   2.356   1.879   3.047  0.2319  0.1614 -0.0376
  631SOL     OW 2521   2.064   1.739   1.548 -0.5753 -0.6221 -0.3761
  631SOL    HW1 2522   2.077   1.658   1.600  1.6208 -3.3396  2.7314
  631SOL    HW2 2523   1.990   1.724   1.486  0.8962 -1.0225 -0.0639
  631SOL     MW 2524   2.056   1.726   1.546 -0.0914 -1.0335  0.0751
  632SOL     OW 2525   0.237   1.986   1.416  0.1923 -0.1512  0.5893
  632SOL    HW1 2526   0.164   1.981   1.482  1.2437 -0.3087 -0.6626
  632SOL    HW2 2527   0.279   1.906   1.405 -0.6380  1.4669 -1.3167
  632SOL     MW 2528   0.233   1.975   1.423  0.2215  0.0415  0.1727
  633SOL     OW 2529   2.551   0.616   0.261 -0.2621  0.0093 -0.4077
  633SOL    HW1 2530   2.590   0.632   0.345 -3.6001  2.9852 -1.0898
  633SOL    HW2 2531   2.553   0.519   0.253 -3.4706  0.4001  0.0385
  633SOL     MW 2532   2.556   0.605   0.271 -1.1258  0.4535 -0.4388
  634SOL     OW 2533   2.677   0.034   0.653  0.1572 -0.3232  0.2203
  634SOL    HW1 2534   2.730   0.119   0.665  0.3494  3.2174 -1.1171
  634SOL    HW2 2535   2.634   0.037   0.568  1.8751  0.5043 -1.9409
  634SOL     MW 2536   2.678   0.046   0.643  0.4092  0.2531 -0.2413
  635SOL     OW 2537   2.584   0.139   1.839  0.1341 -0.3164 -0.6045
  635SOL    HW1 2538   2.657   0.093   1.787 -2.0261 -0.8377 -1.1183
  635SOL    HW2 2539   2.617   0.233   1.852  1.0218  1.9843  2.1240
  635SOL     MW 2540   2.598   0.145   1.834 -0.0338 -0.0816 -0.3123
  636SOL     OW 2541   2.834   1.594   0.898 -0.5659 -0.6827 -0.4851
  636SOL    HW1 2542   2.753   1.640   0.885  0.8060  0.2158  0.6623
  636SOL    HW2 2543   2.891   1.653   0.944  1.7819 -1.0389 -1.8954
  636SOL     MW 2544   2.831   1.608   0.902 -0.0751 -0.6111 -0.5198
  637SOL     OW 2545   2.869   1.474   0.638  0.3178 -0.0026 -0.8322
  637SOL    HW1 2546   2.916   1.536   0.580 -0.4352  3.5584  2.4339
  637SOL    HW2 2547   2.858   1.522   0.723  0.5072 -0.2202  1.2525
  637SOL     MW 2548   2.874   1.489   0.641  0.2434  0.4385 -0.1262
  638SOL     OW 2549   2.659   0.509   0.514 -0.0569 -0.5207 -0.4533
  638SOL    HW1 2550   2.746   0.511   0.477 -0.7050  1.7842 -0.0645
  638SOL    HW2 2551   2.677   0.540   0.607  0.6772  0.1232 -0.5547
  638SOL     MW 2552   2.673   0.514   0.522 -0.0456 -0.1316 -0.4154
  639SOL     OW 2553   1.702   0.023   0.559  0.2536  0.3038 -0.0809
  639SOL    HW1 2554   1.609   0.058   0.545 -3.6150 -0.2613  1.2341
  639SOL    HW2 2555   1.728  -0.034   0.484  0.5804 -0.2046  2.0253
  639SOL     MW 2556   1.693   0.020   0.547 -0.2137  0.1621  0.3705
  640SOL     OW 2557   0.264   1.317   0.103  0.1430  0.2769 -0.6553
  640SOL    HW1 2558   0.292   1.326   0.010  0.9446  0.3282 -0.1219
  640SOL    HW2 2559   0.253   1.225   0.122 -1.7110  1.8443 -0.9523
  640SOL     MW 2560   0.266   1.306   0.093  0.0042  0.4905 -0.6241
  641SOL     OW 2561   2.237   0.424   0.403  0.2605 -0.0022 -0.1478
  641SOL    HW1 2562   2.252   0.408   0.312 -0.8825  1.4986 -1.5264
  641SOL    HW2 2563   2.307   0.390   0.452 -1.2040  1.1537 -3.1668
  641SOL     MW 2564   2.248   0.417   0.398 -0.0836  0.3483 -0.7280
  642SOL     OW 2565   0.037   0.011   0.519  0.6219  0.5508 -0.7022
  642SOL    HW1 2566   0.018   0.102   0.510  0.6595 -1.2898  1.5272
  642SOL    HW2 2567  -0.042  -0.033   0.559 -1.4686 -1.8557 -1.4685
  642SOL     MW 2568   0.024   0.017   0.523  0.3510 -0.0096 -0.5091
  643SOL     OW 2569   2.011   0.355   1.686 -0.0193 -0.3320  0.6116
  643SOL    HW1 2570   1.958   0.301   1.736  1.3324  1.6263 -0.4500
  643SOL    HW2 2571   2.041   0.298   1.610 -3.5689 -0.1998 -2.1494
  643SOL     MW 2572   2.008   0.341   1.682 -0.3093 -0.0562  0.1072
  644SOL     OW 2573   2.688   1.915   1.040 -0.6423 -0.4342 -0.3194
  644SOL    HW1 2574   2.674   1.847   1.107 -0.1313  0.3745 -0.3523
  644SOL    HW2 2575   2.602   1.947   1.013 -2.7948 -2.2053  2.8662
  644SOL     MW 2576   2.675   1.910   1.045 -0.8589 -0.5612  0.0966
  645SOL     OW 2577   2.821   0.840   0.644 -0.3350  0.1705  0.3871
  645SOL    HW1 2578   2.892   0.795   0.685 -0.9868  0.6236  0.5048
  645SOL    HW2 2579   2.752   0.777   0.660  0.5991  1.2233 -1.3681
  645SOL     MW 2580   2.822   0.826   0.651 -0.2978  0.3692  0.1710
  646SOL     OW 2581   0.066   2.265   0.869  0.1222 -0.0913 -0.4915
  646SOL    HW1 2582   0.084   2.175   0.843 -1.4407 -3.0193  1.4809
  646SOL    HW2 2583   0.025   2.293   0.789  1.6094  0.4302 -0.5340
  646SOL     MW 2584   0.063   2.257   0.855  0.1122 -0.4088 -0.2369
  647SOL     OW 2585   2.716   0.501   2.937  0.2379 -0.1359  0.0570
  647SOL    HW1 2586   2.661   0.458   3.003 -2.6603 -1.4417 -0.4191
  647SOL    HW2 2587   2.683   0.586   2.911  0.2063  0.5277  2.3834
  647SOL     MW 2588   2.704   0.506   2.943 -0.1486 -0.2206  0.3011
  648SOL     OW 2589   2.196   0.714   1.157  0.1904  0.5085 -1.0379
  648SOL    HW1 2590   2.226   0.634   1.198  1.4887  0.0417  1.8338
  648SOL    HW2 2591   2.171   0.771   1.227  1.2093  1.5049  0.5407
  648SOL     MW 2592   2.196   0.711   1.171  0.4962  0.5784 -0.4507
  649SOL     OW 2593   2.376   2.684   1.339  0.1365  0.3408  0.3885
  649SOL    HW1 2594   2.460   2.723   1.356  0.0095 -0.4531  3.5364
  649SOL    HW2 2595   2.383   2.616   1.271  1.6479 -0.9564 -1.2243
  649SOL     MW 2596   2.388   2.680   1.332  0.3192  0.0649  0.5910
  650SOL     OW 2597   2.845   0.234   0.679 -0.2180 -0.0313  0.0854
  650SOL    HW1 2598   2.872   0.317   0.717  0.5220  0.2191 -0.8816
  650SOL    HW2 2599   2.893   0.227   0.593 -0.3466 -0.9473  2.6021
  650SOL     MW 2600   2.855   0.244   0.673 -0.1373 -0.1191  0.2899
  651SOL     OW 2601   3.068   0.441   0.995  0.4369 -0.0266  0.1248
  651SOL    HW1 2602   3.128   0.466   0.920  0.5087 -0.5923  1.1260
  651SOL    HW2 2603   3.000   0.511   0.994  0.2416  1.0272 -0.0361
  651SOL     MW 2604   3.067   0.454   0.985  0.4206  0.0378  0.2356
  652SOL     OW 2605   2.407   1.555   3.055 -0.9482  0.1936 -0.2048
  652SOL    HW1 2606   2.453   1.547   2.974  0.2224  0.2803 -0.9216
  652SOL    HW2 2607   2.311   1.581   3.049  1.0395  0.8553 -1.1360
  652SOL     MW 2608   2.401   1.557   3.043 -0.5315  0.2924 -0.4222
  653SOL     OW 2609   1.805   0.464   0.337 -0.3346 -0.1824 -0.6781
  653SOL    HW1 2610   1.733   0.403   0.300 -1.9406 -0.4389  1.9028
  653SOL    HW2 2611   1.857   0.504   0.270 -0.6129 -2.3037 -0.4223
  653SOL     MW 2612   1.803   0.462   0.323 -0.5832 -0.4962 -0.3038
  654SOL     OW 2613   2.430   1.007   0.737  0.4470 -0.5450 -0.3278
  654SOL    HW1 2614   2.364   0.982   0.670  2.2858  0.0178 -1.2967
  654SOL    HW2 2615   2.477   0.925   0.750  0.6415  2.1335 -1.5581
  654SOL     MW 2616   2.428   0.993   0.730  0.7153 -0.1173 -0.6180
  655SOL     OW 2617   2.894   0.857   0.388 -0.0984 -0.0923  0.1630
  655SOL    HW1 2618   2.880   0.853   0.481  2.3777 -0.2825  0.3155
  655SOL    HW2 2619   2.917   0.762   0.369 -1.0279  1.0316 -0.6004
  655SOL     MW 2620   2.895   0.844   0.398  0.1056  0.0309  0.0824
  656SOL     OW 2621   1.767   2.662   1.362 -0.5338  0.2767  0.1930
  656SOL    HW1 2622   1.830   2.737   1.377 -1.8150 -0.6866  0.7682
  656SOL    HW2 2623   1.815   2.580   1.364 -1.9769  0.6396 -0.9878
  656SOL     MW 2624   1.782   2.661   1.364 -0.8932  0.1975  0.1131
  657SOL     OW 2625   0.147   1.758   1.168  0.1475 -0.1114  0.1251
  657SOL    HW1 2626   0.228   1.805   1.135  2.3956 -0.8157  1.6844
  657SOL    HW2 2627   0.162   1.669   1.172 -1.8671  2.0515 -0.6268
  657SOL     MW 2628   0.159   1.753   1.164  0.1783  0.0811  0.2316
  658SOL     OW 2629   2.651   1.301   0.246 -0.1879 -0.1473  0.2415
  658SOL    HW1 2630   2.638   1.219   0.299 -0.4830 -4.4730  0.8040
  658SOL    HW2 2631   2.662   1.376   0.311 -0.8609  0.8502 -0.1933
  658SOL     MW 2632   2.650   1.300   0.261 -0.3156 -0.5864  0.2584
  659SOL     OW 2633   2.257   1.548   0.974  0.0313 -0.1570 -0.0200
  659SOL    HW1 2634   2.348   1.519   0.999 -0.5764 -0.5152 -1.3755
  659SOL    HW2 2635   2.209   1.567   1.063 -1.6376  2.4078  1.3965
  659SOL     MW 2636   2.263   1.547   0.989 -0.2691  0.1342 -0.0119
  660SOL     OW 2637   2.101   1.514   1.702  0.2729 -0.6332  0.8398
  660SOL    HW1 2638   2.109   1.542   1.796  3.2190  0.3082 -1.2668
  660SOL    HW2 2639   2.031   1.446   1.706  0.1903  0.4602  0.4513
  660SOL     MW 2640   2.093   1.508   1.715  0.6507 -0.3647  0.5106
  661SOL     OW 2641   2.492   0.972   0.153  0.1986 -0.9236  0.7200
  661SOL    HW1 2642   2.524   0.999   0.237  1.5871  1.9155 -2.0699
  661SOL    HW2 2643   2.420   0.904   0.175 -2.2030  2.0963 -0.3586
  661SOL     MW 2644   2.486   0.966   0.167  0.0649 -0.1506  0.2096
  662SOL     OW 2645   2.585   3.025   0.903  0.3654 -0.5526  0.1285
  662SOL    HW1 2646   2.510   3.077   0.936 -0.7078 -0.5857  0.9241
  662SOL    HW2 2647   2.617   3.061   0.822 -0.0495 -2.2477 -0.3105
  662SOL     MW 2648   2.580   3.036   0.897  0.1690 -0.7806  0.1755
  663SOL     OW 2649   2.682   1.480   0.446  0.0109 -0.1112 -0.3223
  663SOL    HW1 2650   2.642   1.565   0.430 -3.9443 -0.8269 -0.9842
  663SOL    HW2 2651   2.743   1.496   0.517 -1.0340 -1.8132 -2.1965
  663SOL     MW 2652   2.684   1.493   0.453 -0.6488 -0.4302 -0.6569
  664SOL     OW 2653   2.571   1.542   1.591 -0.3781 -0.2022  0.5038
  664SOL    HW1 2654   2.549   1.634   1.578  1.5296 -0.0489 -0.4134
  664SOL    HW2 2655   2.484   1.498   1.571  1.6726  1.1845  1.6486
  664SOL     MW 2656   2.557   1.548   1.586  0.1442  0.0010  0.5338
  665SOL     OW 2657   2.778   0.828   2.032 -0.2936 -0.5623 -0.1532
  665SOL    HW1 2658   2.774   0.866   1.943 -3.5553 -0.5205 -0.1209
  665SOL    HW2 2659   2.836   0.751   2.030 -2.8873 -2.0829 -0.8162
  665SOL     MW 2660   2.785   0.823   2.020 -1.0662 -0.7574 -0.2364
  666SOL     OW 2661   2.765   3.088   1.712 -0.2297 -0.0497  0.3714
  666SOL    HW1 2662   2.791   3.056   1.625 -0.5364  0.7205 -0.7208
  666SOL    HW2 2663   2.740   3.011   1.764 -1.6931  0.2728  0.3058
  666SOL     MW 2664   2.765   3.074   1.708 -0.4632  0.0945  0.2186
  667SOL     OW 2665   1.953   2.684   1.763 -0.4714  0.7318 -0.4159
  667SOL    HW1 2666   1.982   2.672   1.853 -0.0439  0.1894 -0.8790
  667SOL    HW2 2667   2.022   2.743   1.730  0.1123 -0.4940 -0.5699
  667SOL     MW 2668   1.966   2.690   1.770 -0.3380  0.4985 -0.4973
  668SOL     OW 2669   2.712   0.576   0.792 -0.8900 -0.1819  0.2976
  668SOL    HW1 2670   2.781   0.611   0.847  0.2931  0.7423 -2.4001
  668SOL    HW2 2671   2.630   0.638   0.813  2.8954 -0.2124 -1.6146
  668SOL     MW 2672   2.710   0.589   0.802 -0.2345 -0.0640 -0.3106
  669SOL     OW 2673   0.133   0.872   0.731 -0.1088 -0.2772  0.8421
  669SOL    HW1 2674   0.116   0.944   0.796  1.1115 -0.4177  3.6557
  669SOL    HW2 2675   0.223   0.854   0.769  0.4297 -1.1113  0.7762
  669SOL     MW 2676   0.143   0.879   0.744  0.1233 -0.4058  1.2046
  670SOL     OW 2677   2.872   0.288   0.202  0.1029 -0.2358 -0.1434
  670SOL    HW1 2678   2.886   0.241   0.114  1.7331  0.7573 -1.1975
  670SOL    HW2 2679   2.873   0.383   0.175  0.9909  2.1761 -1.8634
  670SOL     MW 2680   2.874   0.294   0.187  0.4351  0.2135 -0.5094
  671SOL     OW 2681   2.019   3.062   1.569 -0.6883  0.1232 -0.3134
  671SOL    HW1 2682   1.965   3.002   1.515 -1.8421 -1.4031  2.7403
  671SOL    HW2 2683   1.965   3.080   1.647  0.2081  2.1744  0.6680
  671SOL     MW 2684   2.005   3.056   1.572 -0.7223  0.1925  0.2190
  672SOL     OW 2685   1.906   1.696   1.306  0.1229 -0.4004  0.4434
  672SOL    HW1 2686   1.823   1.740   1.333 -0.4494  1.7068 -0.5364
  672SOL    HW2 2687   1.921   1.731   1.212  1.1304  1.2979  0.1597
  672SOL     MW 2688   1.897   1.706   1.297  0.1803  0.1017  0.2767
  673SOL     OW 2689   2.793   1.118   0.627 -0.0089 -0.5526  0.4561
  673SOL    HW1 2690   2.811   1.025   0.620  0.9598  0.4410  0.9926
  673SOL    HW2 2691   2.881   1.159   0.640  1.5950 -1.1910  0.3739
  673SOL     MW 2692   2.807   1.111   0.628  0.3305 -0.5057  0.5161
  674SOL     OW 2693   2.455   3.083   1.259 -0.1199  0.5695 -0.6434
  674SOL    HW1 2694   2.408   3.099   1.171  0.3872  0.5243  0.6745
  674SOL    HW2 2695   2.434   2.998   1.298 -0.2441  0.5622 -1.3082
  674SOL     MW 2696   2.446   3.074   1.252 -0.0694  0.5626 -0.5572
  675SOL     OW 2697   3.052   0.882   1.085 -0.3525 -0.0297  0.0736
  675SOL    HW1 2698   3.103   0.920   1.159 -0.9180 -0.3893  1.8375
  675SOL    HW2 2699   3.066   0.944   1.018  0.0007  0.1217  2.6790
  675SOL     MW 2700   3.061   0.895   1.086 -0.3805 -0.0571  0.6501
  676SOL     OW 2701   2.951   1.476   1.650  0.0205  0.1240 -0.3247
  676SOL    HW1 2702   2.895   1.403   1.627 -3.6627 -1.2523  0.7185
  676SOL    HW2 2703   3.016   1.448   1.712 -0.4919  0.2830 -0.4042
  676SOL     MW 2704   2.952   1.463   1.656 -0.5330 -0.0366 -0.1976
  677SOL     OW 2705   2.363   0.605   2.010  0.0515  0.7384  0.9246
  677SOL    HW1 2706   2.330   0.543   1.949  1.0864  2.4944  0.6217
  677SOL    HW2 2707   2.352   0.693   1.962  0.5291  1.6400  1.8923
  677SOL     MW 2708   2.357   0.608   1.995  0.2510  1.0890  1.0123
  678SOL     OW 2709   2.499   1.676   0.321 -0.6724  0.0508 -0.4164
  678SOL    HW1 2710   2.418   1.704   0.359  2.7250 -1.9483  3.2843
  678SOL    HW2 2711   2.478   1.599   0.272 -1.2277  1.7961  1.1646
  678SOL     MW 2712   2.486   1.670   0.319 -0.2974  0.0173  0.2804
  679SOL     OW 2713   2.230   0.476   1.293 -0.5092 -0.4731  0.2514
  679SOL    HW1 2714   2.214   0.391   1.253 -1.1286 -0.0581 -1.1542
  679SOL    HW2 2715   2.144   0.504   1.321 -1.4867 -1.2170  2.1012
  679SOL     MW 2716   2.217   0.468   1.292 -0.7199 -0.5165  0.3100
  680SOL     OW 2717   2.373   0.180   1.457  0.2833 -0.1577 -0.3305
  680SOL    HW1 2718   2.276   0.183   1.449 -2.0695 -0.1613  1.9105
  680SOL    HW2 2719   2.393   0.119   1.394 -2.0179  2.5395  2.8685
  680SOL     MW 2720   2.363   0.172   1.448 -0.3307  0.1977  0.3873
  681SOL     OW 2721   0.279   0.541   1.560 -0.6862  0.7645  0.5048
  681SOL    HW1 2722   0.280   0.480   1.642 -1.5829 -0.3040  3.1067
  681SOL    HW2 2723   0.366   0.540   1.524  1.4315  0.8340 -0.0855
  681SOL     MW 2724   0.291   0.533   1.566 -0.5251  0.6327  0.7702
  682SOL     OW 2725   0.133   2.835   1.532 -0.4406 -0.5782  0.2514
  682SOL    HW1 2726   0.208   2.875   1.581  1.5430 -1.3754 -0.6495
  682SOL    HW2 2727   0.057   2.890   1.546  1.6283  2.2369  2.1740
  682SOL     MW 2728   0.133   2.848   1.540  0.0941 -0.3119  0.3862
  683SOL     OW 2729   2.062   0.789   2.946 -0.0552  0.0995 -0.1306
  683SOL    HW1 2730   1.977   0.760   2.916  2.7885  1.4398 -0.0980
  683SOL    HW2 2731   2.041   0.866   3.001  0.2992  1.0321 -2.4792
  683SOL     MW 2732   2.048   0.795   2.949  0.3667  0.3994 -0.4362
  684SOL     OW 2733   2.260   1.683   0.743 -0.0620  0.3507 -0.5488
  684SOL    HW1 2734   2.235   1.613   0.682 -1.3306  0.6511  1.7620
  684SOL    HW2 2735   2.256   1.637   0.827 -0.3637  0.0909 -1.1396
  684SOL     MW 2736   2.256   1.668   0.746 -0.2692  0.3561 -0.3219
  685SOL     OW 2737   2.640   1.702   1.227  0.0455 -0.1805  0.6486
  685SOL    HW1 2738   2.701   1.671   1.294  1.3308 -1.3210 -1.1713
  685SOL    HW2 2739   2.586   1.630   1.211  0.8037  0.5339  1.5383
  685SOL     MW 2740   2.641   1.689   1.234  0.3151 -0.2367  0.5259
  686SOL     OW 2741   2.908   0.738   1.482  0.0435  0.1916 -0.1089
  686SOL    HW1 2742   2.873   0.698   1.559 -2.9061 -1.1937 -0.8425
  686SOL    HW2 2743   3.006   0.727   1.471 -0.0045  0.6545 -2.1027
  686SOL     MW 2744   2.917   0.732   1.490 -0.3520  0.0699 -0.4688
  687SOL     OW 2745   2.151   0.209   1.212  0.1468 -0.0454 -0.1202
  687SOL    HW1 2746   2.200   0.155   1.151 -0.8325 -0.0953  0.0081
  687SOL    HW2 2747   2.086   0.243   1.154  0.0494  1.6624  2.4569
  687SOL     MW 2748   2.149   0.206   1.196  0.0047  0.1733  0.2368
  688SOL     OW 2749   2.418   0.598   1.465  1.0652  0.3137 -0.1965
  688SOL    HW1 2750   2.365   0.536   1.413 -2.5301  2.2324 -0.2608
  688SOL    HW2 2751   2.348   0.612   1.526  0.4540  2.3583  0.3978
  688SOL     MW 2752   2.402   0.592   1.466  0.5102  0.8367 -0.1265
  689SOL     OW 2753   2.486   0.698   2.950  0.3256 -0.1443  0.0980
  689SOL    HW1 2754   2.456   0.783   2.911  0.4314  1.9306  2.3602
  689SOL    HW2 2755   2.552   0.717   3.021 -2.5673 -1.7212  1.8126
  689SOL     MW 2756   2.490   0.712   2.954 -0.0421 -0.0786  0.6227
  690SOL     OW 2757   1.985   0.823   1.869  0.0235 -0.1343  0.5109
  690SOL    HW1 2758   1.951   0.737   1.893  1.8345  1.2377  2.0277
  690SOL    HW2 2759   1.974   0.849   1.777  0.2701  0.8256 -1.1916
  690SOL     MW 2760   1.979   0.815   1.860  0.2949  0.1734  0.4864
  691SOL     OW 2761   2.393   0.251   0.852 -0.2530 -0.7452 -0.1031
  691SOL    HW1 2762   2.449   0.291   0.915 -1.9555 -4.1166  1.2268
  691SOL    HW2 2763   2.311   0.301   0.863  2.7525  4.5996 -1.7934
  691SOL     MW 2764   2.390   0.263   0.862 -0.0811 -0.4848 -0.1507
  692SOL     OW 2765   2.865   1.666   1.452  0.7444 -0.5156  0.2965
  692SOL    HW1 2766   2.897   1.604   1.516  1.2880 -1.4682  1.6588
  692SOL    HW2 2767   2.893   1.759   1.486  0.5275  0.3363  0.5370
  692SOL     MW 2768   2.873   1.670   1.465  0.7875 -0.5289  0.5079
  693SOL     OW 2769   2.255   0.386   0.139 -0.3108  0.2941  0.3002
  693SOL    HW1 2770   2.186   0.318   0.134 -1.0471 -2.8056 -0.5803
  693SOL    HW2 2771   2.224   0.457   0.084  1.0957 -0.5680  0.7244
  693SOL     MW 2772   2.242   0.386   0.131 -0.2224 -0.2286  0.2400
  694SOL     OW 2773   1.918   1.213   1.183 -0.0873 -0.1797 -0.6994
  694SOL    HW1 2774   2.011   1.194   1.207 -0.3424 -1.1163  0.9945
  694SOL    HW2 2775   1.865   1.146   1.228 -2.3888  0.8894 -1.1200
  694SOL     MW 2776   1.923   1.202   1.192 -0.4246 -0.1622 -0.5314
  695SOL     OW 2777   3.065   1.515   1.296 -0.9752 -0.2885  0.3192
  695SOL    HW1 2778   3.011   1.496   1.218 -0.0738  0.2027  2.3054
  695SOL    HW2 2779   3.012   1.585   1.347 -0.3981 -0.0817  0.5138
  695SOL     MW 2780   3.051   1.521   1.292 -0.7801 -0.1964  0.6069
  696SOL     OW 2781   2.060   1.355   0.814  0.1841 -0.0950 -0.5162
  696SOL    HW1 2782   2.113   1.396   0.875  0.7555  1.9451 -0.5180
  696SOL    HW2 2783   2.020   1.284   0.857 -0.5755  1.5350 -0.0052
  696SOL     MW 2784   2.062   1.351   0.828  0.1592  0.3892 -0.4490
  697SOL     OW 2785   2.923   1.037   2.166 -0.5854 -0.4328  0.0301
  697SOL    HW1 2786   2.861   1.101   2.181  3.2745  0.3087 -0.3524
  697SOL    HW2 2787   2.873   0.965   2.128 -0.7953  1.3833 -3.1190
  697SOL     MW 2788   2.908   1.036   2.163 -0.1038 -0.0954 -0.4358
  698SOL     OW 2789   2.488   0.343   0.030  0.3562 -0.0651  0.1911
  698SOL    HW1 2790   2.400   0.365   0.063 -1.3146  2.4886 -0.8359
  698SOL    HW2 2791   2.527   0.280   0.097  3.6069 -1.3197  2.0384
  698SOL     MW 2792   2.481   0.337   0.043  0.5647  0.1063  0.2993
  699SOL     OW 2793   1.837   1.553   2.071 -0.0403  0.0920 -0.0498
  699SOL    HW1 2794   1.802   1.466   2.045  2.0349 -2.2990  0.2514
  699SOL    HW2 2795   1.923   1.569   2.042  2.0131  1.2784 -0.4858
  699SOL     MW 2796   1.844   1.543   2.064  0.5044 -0.0669 -0.0676
  700SOL     OW 2797   2.708   0.917   1.516  0.1564 -0.0799  0.6019
  700SOL    HW1 2798   2.720   1.009   1.497  0.9796  0.9523  5.2222
  700SOL    HW2 2799   2.786   0.877   1.474 -2.0721 -1.3454 -0.5395
  700SOL     MW 2800   2.720   0.924   1.508 -0.0290 -0.1107  1.0609
  701SOL     OW 2801   1.653   1.192   2.491  0.7427  0.3183 -0.6281
  701SOL    HW1 2802   1.749   1.177   2.495 -1.3406  0.5332  0.7608
  701SOL    HW2 2803   1.627   1.256   2.559 -1.2538  1.8404  0.3945
  701SOL     MW 2804   1.662   1.199   2.500  0.2044  0.5475 -0.3099
  702SOL     OW 2805   2.150   0.410   0.850  0.1845 -0.2655 -0.3959
  702SOL    HW1 2806   2.122   0.345   0.785  1.1391  2.9202 -0.7662
  702SOL    HW2 2807   2.190   0.484   0.796  0.7078  0.1435 -0.3462
  702SOL     MW 2808   2.152   0.411   0.834  0.3795  0.2088 -0.4382
  703SOL     OW 2809   2.722   1.220   1.064  0.0017  0.0731  0.0918
  703SOL    HW1 2810   2.684   1.218   0.979  1.1678  0.2450  1.8182
  703SOL    HW2 2811   2.762   1.131   1.081  0.0954  2.7187  1.1647
  703SOL     MW 2812   2.722   1.208   1.055  0.1679  0.4449  0.4611
  704SOL     OW 2813   3.070   1.161   0.075  0.4899  0.1796  0.3755
  704SOL    HW1 2814   2.979   1.187   0.041  0.8029 -1.6049  0.9513
  704SOL    HW2 2815   3.042   1.129   0.161  0.0629 -0.8270  3.0171
  704SOL     MW 2816   3.054   1.160   0.082  0.4749 -0.1886  0.8000
  705SOL     OW 2817   2.187   1.618   1.234 -0.1260  0.4720  0.2537
  705SOL    HW1 2818   2.102   1.637   1.281 -0.3673  0.8102  1.9403
  705SOL    HW2 2819   2.227   1.534   1.267  0.7684  1.8296  0.7688
  705SOL     MW 2820   2.181   1.609   1.245 -0.0398  0.6957  0.5442
  706SOL     OW 2821   3.024   1.246   0.656  0.0609  0.6561 -0.0739
  706SOL    HW1 2822   3.088   1.239   0.579 -0.7387  1.1108  0.8196
  706SOL    HW2 2823   2.979   1.324   0.626  3.4581 -1.9395 -2.1695
  706SOL     MW 2824   3.026   1.255   0.642  0.4036  0.3736 -0.2325
  707SOL     OW 2825   2.307   0.059   1.033 -0.2198 -0.3069  0.2042
  707SOL    HW1 2826   2.314   0.121   0.964 -3.4659 -0.2739 -0.5706
  707SOL    HW2 2827   2.264  -0.017   0.996  1.0666  0.3405  1.5789
  707SOL     MW 2828   2.302   0.057   1.019 -0.4783 -0.2171  0.2833
  708SOL     OW 2829   2.423   1.443   0.205  0.3264  0.1452  0.6099
  708SOL    HW1 2830   2.509   1.396   0.214  2.1766  0.9811 -0.6926
  708SOL    HW2 2831   2.418   1.481   0.118 -2.4472  1.9819  4.0315
  708SOL     MW 2832   2.434   1.442   0.195  0.2046  0.4978  0.8895
  709SOL     OW 2833   1.769   1.646   0.207 -0.3400 -0.3944 -0.4627
  709SOL    HW1 2834   1.742   1.649   0.111 -1.7820 -0.8594 -1.6658
  709SOL    HW2 2835   1.687   1.663   0.257  1.5099  0.4507  0.8179
  709SOL     MW 2836   1.755   1.649   0.201 -0.2862 -0.3442 -0.4525
  710SOL     OW 2837   2.185   1.157   1.162 -0.6443  0.1940  0.0207
  710SOL    HW1 2838   2.182   1.138   1.067 -2.1860  2.4366  1.1497
  710SOL    HW2 2839   2.184   1.064   1.195  0.8451 -1.9451 -0.4822
  710SOL     MW 2840   2.185   1.142   1.154 -0.6512  0.2076  0.1033
  711SOL     OW 2841   2.334   0.186   1.720  0.0278 -0.1362 -0.0636
  711SOL    HW1 2842   2.423   0.175   1.762  0.2487  0.9352  0.1489
  711SOL    HW2 2843   2.347   0.155   1.634 -0.3288 -0.8843  0.6616
  711SOL     MW 2844   2.347   0.180   1.714  0.0099 -0.0935  0.0601
  712SOL     OW 2845   1.911   0.559   0.097  0.0137  1.3055  0.0460
  712SOL    HW1 2846   1.833   0.570   0.037  3.1895 -0.1842 -2.2293
  712SOL    HW2 2847   1.927   0.640   0.137 -0.5870 -0.4124  0.8369
  712SOL     MW 2848   1.903   0.571   0.094  0.3534  0.8823 -0.1498
  713SOL     OW 2849   2.558   0.826   1.084  0.2607 -0.0499  0.0617
  713SOL    HW1 2850   2.543   0.751   1.135 -0.9927  1.8062 -2.5599
  713SOL    HW2 2851   2.499   0.889   1.135  0.7675  3.1518  2.2191
  713SOL     MW 2852   2.548   0.824   1.097  0.1622  0.6174  0.0005
  714SOL     OW 2853   2.207   0.202   1.989 -0.4757 -0.1290  0.1923
  714SOL    HW1 2854   2.272   0.148   2.045  1.0080 -3.2155  0.7486
  714SOL    HW2 2855   2.258   0.196   1.904  1.3930  1.8317  2.1137
  714SOL     MW 2856   2.223   0.194   1.985 -0.0334 -0.2775  0.5192
  715SOL     OW 2857   1.749   1.911   1.712 -0.0557  0.6886  0.0935
  715SOL    HW1 2858   1.839   1.874   1.691  0.5635  0.4587  1.1564
  715SOL    HW2 2859   1.725   1.876   1.797 -1.4192  2.0651  1.6970
  715SOL     MW 2860   1.758   1.902   1.720 -0.1539  0.8399  0.4453
  716SOL     OW 2861   2.292   0.595   0.720 -0.1117 -0.3870 -0.3822
  716SOL    HW1 2862   2.348   0.530   0.680  1.1152  1.9987 -1.7237
  716SOL    HW2 2863   2.232   0.623   0.647  0.0783  1.0659 -1.4412
  716SOL     MW 2864   2.292   0.590   0.705  0.0753  0.1195 -0.6989
  717SOL     OW 2865   2.884   1.609   2.865 -0.0700 -0.0351 -0.1603
  717SOL    HW1 2866   2.973   1.610   2.892 -1.2119 -0.8548 -1.8091
  717SOL    HW2 2867   2.835   1.646   2.939 -2.3226 -0.6926 -2.0701
  717SOL     MW 2868   2.889   1.614   2.878 -0.5179 -0.2300 -0.6299
  718SOL     OW 2869   2.699   1.431   1.334  0.2257 -0.4733 -0.3039
  718SOL    HW1 2870   2.679   1.455   1.424 -1.2126  1.9952  0.1369
  718SOL    HW2 2871   2.742   1.344   1.332  1.3701  0.7258  1.2159
  718SOL     MW 2872   2.702   1.422   1.345  0.1869  0.0106 -0.0452
  719SOL     OW 2873   2.215   1.267   0.609  0.3842 -0.3923  0.2584
  719SOL    HW1 2874   2.306   1.292   0.612 -2.0771 -0.1557 -0.0227
  719SOL    HW2 2875   2.180   1.296   0.696 -0.2225 -0.1413  1.8506
  719SOL     MW 2876   2.222   1.274   0.621 -0.0206 -0.3279  0.4314
  720SOL     OW 2877   2.802   1.194   0.063  0.3820  0.7131  0.4193
  720SOL    HW1 2878   2.788   1.106   0.110 -0.4692  0.2327 -1.8852
  720SOL    HW2 2879   2.747   1.266   0.104  0.3690  0.3919 -0.6978
  720SOL     MW 2880   2.793   1.192   0.075  0.2680  0.6073 -0.0322
  721SOL     OW 2881   2.483   0.829   1.376  0.8221  0.0791  1.1105
  721SOL    HW1 2882   2.436   0.751   1.414  1.9788 -0.3421 -1.5660
  721SOL    HW2 2883   2.543   0.860   1.444 -0.6988 -0.3478  1.3013
  721SOL     MW 2884   2.485   0.823   1.390  0.7741 -0.0328  0.7826
  722SOL     OW 2885   2.591   1.109   0.423 -0.7434 -0.1536 -0.5225
  722SOL    HW1 2886   2.544   1.187   0.456  1.9320  1.9327  0.5890
  722SOL    HW2 2887   2.673   1.099   0.467 -2.4809  2.9422  0.3076
  722SOL     MW 2888   2.595   1.118   0.433 -0.6196  0.5301 -0.2663
  723SOL     OW 2889   2.307   1.399   1.570 -0.0696  0.4760 -0.2377
  723SOL    HW1 2890   2.285   1.382   1.478 -0.4876  0.5161  1.1569
  723SOL    HW2 2891   2.236   1.452   1.604 -0.7433  0.9431  1.0439
  723SOL     MW 2892   2.295   1.404   1.563 -0.2136  0.5429  0.1154
  724SOL     OW 2893   2.434   0.375   0.616  0.1431  0.7875 -0.2295
  724SOL    HW1 2894   2.443   0.314   0.689 -0.9422  0.8192  0.0235
  724SOL    HW2 2895   2.520   0.396   0.575  0.6786 -2.1621  1.9979
  724SOL     MW 2896   2.446   0.370   0.620  0.0705  0.4025  0.0978
  725SOL     OW 2897   2.559   0.583   1.213  0.4345 -0.6748  0.0553
  725SOL    HW1 2898   2.647   0.559   1.230 -2.6068 -1.9307 -0.4537
  725SOL    HW2 2899   2.527   0.595   1.299  1.1579  0.3817 -0.8620
  725SOL     MW 2900   2.566   0.582   1.227  0.1287 -0.7011 -0.1329
  726SOL     OW 2901   2.559   2.472   0.568 -0.0308 -0.0041  0.0429
  726SOL    HW1 2902   2.513   2.533   0.514 -2.0507  0.3810  3.3770
  726SOL    HW2 2903   2.498   2.458   0.642  2.1132  0.4537 -0.7812
  726SOL     MW 2904   2.545   2.478   0.571 -0.0144  0.1071  0.3741
  727SOL     OW 2905   2.890   0.331   1.711  0.0852 -0.4668  0.5030
  727SOL    HW1 2906   2.837   0.336   1.627  0.2812  1.0601  2.8742
  727SOL    HW2 2907   2.829   0.343   1.784  3.8410 -0.0308 -2.1268
  727SOL     MW 2908   2.875   0.333   1.710  0.6066 -0.2078  0.4689
  728SOL     OW 2909   2.786   1.157   2.899 -0.8348 -0.4870 -0.1694
  728SOL    HW1 2910   2.814   1.221   2.833  0.9491  1.3023  0.9559
  728SOL    HW2 2911   2.781   1.198   2.984  0.5631 -0.8286 -0.9315
  728SOL     MW 2912   2.789   1.171   2.901 -0.4150 -0.2960 -0.1215
  729SOL     OW 2913   2.492   1.490   1.150  0.2876 -0.6082  0.5449
  729SOL    HW1 2914   2.571   1.455   1.205 -3.1886 -0.6352  2.5113
  729SOL    HW2 2915   2.505   1.452   1.063  2.3142  3.6122 -2.3979
  729SOL     MW 2916   2.504   1.481   1.146  0.0964 -0.0549  0.4161
  730SOL     OW 2917   2.278   1.190   0.173  0.2563  0.1483 -0.4077
  730SOL    HW1 2918   2.356   1.144   0.150 -1.2896  2.2889  1.7637
  730SOL    HW2 2919   2.307   1.257   0.235  4.3336  0.2053  0.3949
  730SOL     MW 2920   2.292   1.193   0.178  0.5903  0.4383 -0.0153
  731SOL     OW 2921   2.773   1.962   2.870  0.1575  0.5733  0.6706
  731SOL    HW1 2922   2.713   1.972   2.791  2.1430 -2.7944 -0.4786
  731SOL    HW2 2923   2.859   1.987   2.844 -0.4598  0.3330  1.7040
  731SOL     MW 2924   2.776   1.967   2.856  0.3380  0.0973  0.6553
  732SOL     OW 2925   2.218   0.925   1.342 -0.1342 -1.2667  0.0490
  732SOL    HW1 2926   2.204   0.932   1.437  1.5802  0.7369  0.5026
  732SOL    HW2 2927   2.307   0.888   1.338 -2.7423  0.6800  1.3710
  732SOL     MW 2928   2.228   0.921   1.354 -0.2521 -0.7455  0.2833
  733SOL     OW 2929   2.352   2.757   2.998  0.1739  0.9745  0.3185
  733SOL    HW1 2930   2.263   2.789   2.995 -0.9438  1.4255  2.2523
  733SOL    HW2 2931   2.359   2.664   2.974 -2.1679  1.5140 -1.5901
  733SOL     MW 2932   2.341   2.749   2.995 -0.2825  1.1052  0.3218
  734SOL     OW 2933   1.422   0.345   2.463  0.5014 -0.1017 -0.5773
  734SOL    HW1 2934   1.420   0.305   2.547 -0.2667  2.0213 -0.9365
  734SOL    HW2 2935   1.474   0.284   2.406 -1.9008 -0.6142 -3.0984
  734SOL     MW 2936   1.429   0.331   2.466  0.0831  0.1108 -0.9573
  735SOL     OW 2937   2.918   0.913   2.652 -0.1046  0.2865 -0.0258
  735SOL    HW1 2938   2.927   0.818   2.642  1.7183 -2.9403 -1.1242
  735SOL    HW2 2939   2.961   0.922   2.736 -0.4145 -0.8194  0.2370
  735SOL     MW 2940   2.925   0.901   2.661  0.0950 -0.2852 -0.1360
  736SOL     OW 2941   0.098   0.588   2.513  0.2560  0.6114 -0.3755
  736SOL    HW1 2942   0.129   0.650   2.450 -0.4234 -1.3320 -1.5731
  736SOL    HW2 2943   0.078   0.508   2.460  0.2774 -0.1451  1.3182
  736SOL     MW 2944   0.099   0.585   2.498  0.1691  0.2552 -0.3101
  737SOL     OW 2945   2.930   0.631   2.591 -0.2433 -0.1522  0.3217
  737SOL    HW1 2946   2.869   0.615   2.523 -0.0364  0.5316 -0.3520
  737SOL    HW2 2947   3.021   0.612   2.557  1.6142 -2.3867  0.7545
  737SOL     MW 2948   2.934   0.626   2.578  0.0291 -0.3568  0.2899
  738SOL     OW 2949   0.122   0.577   1.913 -0.3613 -0.0450  0.4327
  738SOL    HW1 2950   0.174   0.588   1.991  2.2781  1.3527 -0.5468
  738SOL    HW2 2951   0.179   0.520   1.858  2.3974  1.2176  1.2518
  738SOL     MW 2952   0.136   0.571   1.916  0.3509  0.3060  0.4115
  739SOL     OW 2953   2.489   0.996   2.035  0.5241 -0.2010 -0.4600
  739SOL    HW1 2954   2.400   0.958   2.026 -0.7052 -0.3019 -1.7056
  739SOL    HW2 2955   2.535   1.010   1.952 -0.0207  1.1821 -0.9949
  739SOL     MW 2956   2.483   0.993   2.023  0.2900 -0.0318 -0.6949
  740SOL     OW 2957   0.242   1.728   2.959 -0.2560  0.7492 -0.1093
  740SOL    HW1 2958   0.184   1.654   2.988  1.5819  0.3745  1.0384
  740SOL    HW2 2959   0.333   1.704   2.986  1.8589  1.6514  0.6098
  740SOL     MW 2960   0.246   1.715   2.966  0.2655  0.8188  0.1370
  741SOL     OW 2961   2.217   1.103   2.756 -0.1857 -0.5025  0.0987
  741SOL    HW1 2962   2.135   1.050   2.758 -0.9595  0.8801 -0.2402
  741SOL    HW2 2963   2.233   1.134   2.849 -1.2209 -0.8317  0.3360
  741SOL     MW 2964   2.208   1.100   2.768 -0.4244 -0.3635  0.0853
  742SOL     OW 2965   1.538   1.232   2.212  0.3629 -0.5307 -0.1792
  742SOL    HW1 2966   1.542   1.137   2.197 -0.2024 -1.3470  2.4881
  742SOL    HW2 2967   1.564   1.246   2.307 -0.7175 -1.6881  0.3689
  742SOL     MW 2968   1.542   1.221   2.223  0.1458 -0.7911  0.2450
  743SOL     OW 2969   2.458   1.296   2.706  0.3578  0.2204  0.2220
  743SOL    HW1 2970   2.364   1.296   2.721  4.0382 -0.1695 -0.9519
  743SOL    HW2 2971   2.491   1.217   2.746  0.8914 -2.0885  2.1756
  743SOL     MW 2972   2.450   1.286   2.713  0.9138 -0.1357  0.3249
  744SOL     OW 2973   2.740   0.954   1.796  0.0978 -0.9823 -0.0494
  744SOL    HW1 2974   2.722   1.052   1.807  1.5201  2.3909  0.0531
  744SOL    HW2 2975   2.719   0.929   1.705  1.6312 -1.5238  0.6737
  744SOL     MW 2976   2.735   0.964   1.786  0.4878 -0.6087  0.0595
  745SOL     OW 2977   1.698   0.467   2.478 -0.2397 -0.2878  0.4743
  745SOL    HW1 2978   1.720   0.482   2.386  0.8446  0.6797 -1.0413
  745SOL    HW2 2979   1.605   0.454   2.484 -0.9302 -0.2209 -2.0859
  745SOL     MW 2980   1.688   0.468   2.467 -0.1877 -0.1513 -0.0635
  746SOL     OW 2981   1.557   1.442   1.576 -0.0564  0.4299 -0.4740
  746SOL    HW1 2982   1.651   1.441   1.587 -0.9782  1.3215 -1.8041
  746SOL    HW2 2983   1.536   1.396   1.662 -0.8037  1.4820  1.6734
  746SOL     MW 2984   1.567   1.436   1.589 -0.2766  0.6864 -0.3662
  747SOL     OW 2985   2.549   1.141   1.811 -0.0819 -0.4981 -0.0263
  747SOL    HW1 2986   2.450   1.131   1.800 -2.1317 -0.5683 -1.2983
  747SOL    HW2 2987   2.543   1.207   1.886 -0.6260 -1.4258  2.3244
  747SOL     MW 2988   2.535   1.148   1.820 -0.4242 -0.6297  0.1160
  748SOL     OW 2989   0.110   0.013   1.834 -0.4075 -0.5699  0.0460
  748SOL    HW1 2990   0.199   0.048   1.846  1.5361 -0.2694  0.5829
  748SOL    HW2 2991   0.062   0.047   1.917 -1.5621 -0.7029  0.4509
  748SOL     MW 2992   0.116   0.022   1.847 -0.3034 -0.5478  0.1703
  749SOL     OW 2993   2.462   0.515   2.754 -0.3923 -0.0686 -0.4198
  749SOL    HW1 2994   2.493   0.592   2.702  4.5441 -1.3366  0.4036
  749SOL    HW2 2995   2.461   0.551   2.845  1.7323 -1.1136 -1.8804
  749SOL     MW 2996   2.466   0.530   2.759  0.5393 -0.3737 -0.5039
  750SOL     OW 2997   2.022   3.085   2.003  0.1126 -0.3798  0.0156
  750SOL    HW1 2998   2.070   3.165   2.017 -1.7167 -1.2594  1.1528
  750SOL    HW2 2999   2.094   3.024   1.997  0.2634 -1.1209 -1.5539
  750SOL     MW 3000   2.038   3.087   2.004 -0.1088 -0.5937 -0.0415
  751SOL     OW 3001   0.061   0.404   2.304 -0.1835  0.3715  0.2401
  751SOL    HW1 3002  -0.008   0.340   2.324  1.8951  1.6447 -0.7802
  751SOL    HW2 3003   0.141   0.359   2.286  0.0872 -1.1601 -0.7041
  751SOL     MW 3004   0.062   0.390   2.304  0.1265  0.3374 -0.0191
  752SOL     OW 3005   2.130   0.824   2.674  0.2388  0.0856  0.6647
  752SOL    HW1 3006   2.222   0.845   2.657 -0.0237  2.1254  0.7459
  752SOL    HW2 3007   2.118   0.804   2.770 -0.3733 -2.9515 -1.5129
  752SOL     MW 3008   2.141   0.824   2.684  0.1234 -0.0460  0.3881
  753SOL     OW 3009   2.928   0.266   2.410 -0.2276  0.2862  0.0766
  753SOL    HW1 3010   2.879   0.201   2.352  0.3643 -2.5959 -2.8702
  753SOL    HW2 3011   2.871   0.344   2.400 -3.1872  2.0674  0.3848
  753SOL     MW 3012   2.914   0.267   2.401 -0.5400  0.1409 -0.2716
  754SOL     OW 3013   2.263   2.981   2.594  0.5458 -0.2694  0.6749
  754SOL    HW1 3014   2.288   2.951   2.509  0.0320 -0.5208  0.3413
  754SOL    HW2 3015   2.336   2.948   2.648 -0.6097  2.3799  0.7529
  754SOL     MW 3016   2.276   2.973   2.590  0.3255  0.0470  0.6412
  755SOL     OW 3017   2.719   1.521   2.504  0.1282 -0.1179  0.3073
  755SOL    HW1 3018   2.745   1.448   2.553  0.3058  1.6731 -0.2716
  755SOL    HW2 3019   2.787   1.593   2.517 -0.2743  1.1330  0.9686
  755SOL     MW 3020   2.731   1.521   2.512  0.0986  0.2834  0.3182
  756SOL     OW 3021   2.281   1.285   2.979 -0.2546 -0.1430  0.2778
  756SOL    HW1 3022   2.314   1.374   2.971 -0.0560  0.6252 -0.6412
  756SOL    HW2 3023   2.353   1.228   3.010  1.3791 -1.1695  0.9381
  756SOL     MW 3024   2.295   1.289   2.982 -0.0128 -0.1771  0.2436
  757SOL     OW 3025   2.117   0.928   1.609 -0.4520  0.6626  0.1291
  757SOL    HW1 3026   2.147   0.839   1.630 -1.2627  0.2645  0.0268
  757SOL    HW2 3027   2.025   0.920   1.578 -1.5139 -1.2186 -0.3655
  757SOL     MW 3028   2.109   0.915   1.608 -0.6991  0.3619  0.0503
  758SOL     OW 3029   2.189   1.772   2.617 -0.0982 -0.2264  0.3792
  758SOL    HW1 3030   2.190   1.784   2.520  1.2057 -3.2298  0.2242
  758SOL    HW2 3031   2.281   1.756   2.638 -0.7091 -1.4499  0.0135
  758SOL     MW 3032   2.201   1.772   2.607 -0.0067 -0.7841  0.3105
  759SOL     OW 3033   1.611   1.361   2.707  0.2937  0.2788 -0.3048
  759SOL    HW1 3034   1.606   1.441   2.644 -0.6022  0.2884  1.1571
  759SOL    HW2 3035   1.667   1.376   2.786 -0.7420 -0.0940  0.7729
  759SOL     MW 3036   1.618   1.373   2.709  0.0388  0.2309  0.0302
  760SOL     OW 3037   2.578   2.006   2.679 -0.0442  0.1543 -0.4393
  760SOL    HW1 3038   2.519   1.925   2.666  1.3660  0.6565  1.8340
  760SOL    HW2 3039   2.558   2.062   2.607  0.3157  0.5101  1.3891
  760SOL     MW 3040   2.568   2.003   2.668  0.1894  0.2675  0.1019
  761SOL     OW 3041   2.142   0.430   2.485  0.2137 -0.3974  0.2786
  761SOL    HW1 3042   2.078   0.362   2.485  3.1506 -2.1361  0.3823
  761SOL    HW2 3043   2.170   0.445   2.576  0.9654  1.8001  1.9749
  761SOL     MW 3044   2.137   0.423   2.497  0.7003 -0.3369  0.5161
  762SOL     OW 3045   0.021   0.160   2.033  0.5006  0.0661  0.3952
  762SOL    HW1 3046  -0.001   0.123   2.118  1.0827 -0.7237 -0.1285
  762SOL    HW2 3047  -0.038   0.236   2.027  2.1193  0.2973  1.9649
  762SOL     MW 3048   0.011   0.166   2.043  0.7910 -0.0076  0.5332
  763SOL     OW 3049   2.428   1.077   2.300 -0.7372  0.3095  0.0055
  763SOL    HW1 3050   2.456   1.046   2.211 -1.6032 -0.3068 -1.2470
  763SOL    HW2 3051   2.483   1.151   2.325 -0.6019 -3.5773  0.1277
  763SOL     MW 3052   2.439   1.082   2.291 -0.8336 -0.2846 -0.1436
  764SOL     OW 3053   0.444   0.290   2.792  0.3646 -0.0057  0.2329
  764SOL    HW1 3054   0.376   0.252   2.746  1.9332  1.1012  1.4417
  764SOL    HW2 3055   0.414   0.349   2.860  0.4579  0.6065  0.2056
  764SOL     MW 3056   0.431   0.293   2.795  0.5839  0.2212  0.3888
  765SOL     OW 3057   2.763   0.086   2.279  0.1856  0.2689  0.0026
  765SOL    HW1 3058   2.704   0.060   2.205  1.2071 -0.4706  0.7541
  765SOL    HW2 3059   2.811   0.002   2.304  0.3864 -0.6678  1.7388
  765SOL     MW 3060   2.761   0.071   2.273  0.3469  0.0477  0.3308
  766SOL     OW 3061   1.874   3.005   2.224 -0.0317 -0.2872  0.4657
  766SOL    HW1 3062   1.934   3.034   2.150  2.7102 -2.7276 -0.1610
  766SOL    HW2 3063   1.812   2.955   2.178 -0.1087  4.3728 -0.9899
  766SOL     MW 3064   1.874   3.003   2.208  0.3199  0.0056  0.1910
  767SOL     OW 3065   2.635   0.622   1.934  0.1315 -0.0436 -0.3627
  767SOL    HW1 3066   2.676   0.697   1.979  1.6450 -0.0063 -1.1427
  767SOL    HW2 3067   2.541   0.622   1.961  0.2702  1.2591 -0.7272
  767SOL     MW 3068   2.628   0.632   1.944  0.3495  0.1332 -0.5137
  768SOL     OW 3069   0.030   1.541   2.954  0.3684 -0.9821 -0.3396
  768SOL    HW1 3070   0.029   1.504   3.043  1.0787  1.5920 -0.8331
  768SOL    HW2 3071   0.036   1.468   2.885 -2.6309  1.7425 -2.3758
  768SOL     MW 3072   0.031   1.527   2.957  0.0664 -0.2830 -0.6734
  769SOL     OW 3073   2.352   0.693   2.282  0.4686 -0.4503 -0.6574
  769SOL    HW1 3074   2.273   0.648   2.296  1.7990  0.8699 -2.0239
  769SOL    HW2 3075   2.389   0.649   2.207 -0.6290  1.7067 -0.1377
  769SOL     MW 3076   2.347   0.681   2.274  0.4993  0.0085 -0.7691
  770SOL     OW 3077   0.092   1.606   2.594 -0.3608 -0.5503  0.0597
  770SOL    HW1 3078   0.002   1.637   2.576  0.8852  0.0801  0.7221
  770SOL    HW2 3079   0.096   1.518   2.634 -3.0363  1.7777 -0.0003
  770SOL     MW 3080   0.080   1.599   2.597 -0.5494 -0.1600  0.1392
  771SOL     OW 3081   2.954   0.628   1.932 -0.2645  0.0418  0.1327
  771SOL    HW1 3082   2.915   0.613   1.847  1.4555  3.1603  1.4992
  771SOL    HW2 3083   3.048   0.606   1.927  0.0164  1.5773  0.5410
  771SOL     MW 3084   2.961   0.623   1.920 -0.0005  0.6558  0.3669
  772SOL     OW 3085   3.099   0.011   2.259  0.1864 -0.2637 -0.0562
  772SOL    HW1 3086   3.028  -0.038   2.293  2.3996 -0.3216  0.4024
  772SOL    HW2 3087   3.162  -0.062   2.235 -1.2403  3.1326  3.0243
  772SOL     MW 3088   3.098  -0.005   2.260  0.2902  0.1767  0.4108
  773SOL     OW 3089   2.451   2.838   2.734 -0.0589  0.5277 -0.3665
  773SOL    HW1 3090   2.479   2.757   2.698  1.0452  1.4190 -0.8930
  773SOL    HW2 3091   2.429   2.821   2.825  0.3930 -1.4607  0.0423
  773SOL     MW 3092   2.452   2.825   2.741  0.1464  0.3830 -0.3820
  774SOL     OW 3093   2.294   1.158   1.737  0.2361 -0.0515  0.2989
  774SOL    HW1 3094   2.299   1.240   1.683 -3.8967  2.3958  1.1160
  774SOL    HW2 3095   2.237   1.100   1.676  0.3713  1.9256 -1.3536
  774SOL     MW 3096   2.287   1.161   1.722 -0.2914  0.5323  0.1887
  775SOL     OW 3097   2.319   2.917   2.328 -0.2992  0.0924 -0.5476
  775SOL    HW1 3098   2.319   2.996   2.276  2.0233 -3.1781 -1.9251
  775SOL    HW2 3099   2.389   2.871   2.280 -0.5521  0.9842 -0.3913
  775SOL     MW 3100   2.328   2.921   2.315 -0.0262 -0.2215 -0.7087
  776SOL     OW 3101   0.018   1.448   0.128  0.1707  0.0836  0.0703
  776SOL    HW1 3102   0.106   1.425   0.129 -2.7110  0.3213 -2.6172
  776SOL    HW2 3103  -0.031   1.367   0.133  1.0309  3.3113  2.4954
  776SOL     MW 3104   0.023   1.435   0.129 -0.0960  0.5409  0.0357
  777SOL     OW 3105   3.022   1.080   1.755 -0.4996 -0.2738  0.2820
  777SOL    HW1 3106   2.983   1.162   1.785  0.0319  0.8845  2.0727
  777SOL    HW2 3107   2.954   1.017   1.747  0.3390  1.3536 -0.6769
  777SOL     MW 3108   3.008   1.083   1.758 -0.3189  0.0938  0.3917
  778SOL     OW 3109   2.906   0.406   2.754 -0.2967 -0.1819  0.3033
  778SOL    HW1 3110   2.842   0.424   2.824 -0.4993  2.6666 -2.3531
  778SOL    HW2 3111   2.909   0.481   2.699  1.6366  0.5592  1.3439
  778SOL     MW 3112   2.898   0.418   2.756 -0.0684  0.2917  0.0901
  779SOL     OW 3113   2.096   0.609   2.298 -0.1847  0.0349 -0.2035
  779SOL    HW1 3114   2.033   0.674   2.330 -3.7615  0.5317  1.2122
  779SOL    HW2 3115   2.084   0.547   2.365 -0.1444  0.1820 -1.6220
  779SOL     MW 3116   2.086   0.609   2.311 -0.6513  0.1199 -0.2039
  780SOL     OW 3117   0.207   0.133   2.765  0.0571 -0.7043  0.7997
  780SOL    HW1 3118   0.169   0.200   2.817  1.6887  0.7419  0.5753
  780SOL    HW2 3119   0.161   0.150   2.684 -0.1001  0.7523  0.8917
  780SOL     MW 3120   0.196   0.144   2.761  0.2516 -0.3213  0.7822
  781SOL     OW 3121   3.052   1.330   2.513 -0.2827  0.5860 -0.2862
  781SOL    HW1 3122   3.030   1.382   2.437  0.4245  0.1041 -0.0237
  781SOL    HW2 3123   3.066   1.244   2.479  0.4349 -3.0155 -0.4732
  781SOL     MW 3124   3.051   1.326   2.499 -0.0947  0.0473 -0.2762
  782SOL     OW 3125   0.719   1.550   3.080 -0.9509  0.6525  0.6878
  782SOL    HW1 3126   0.651   1.617   3.068 -1.8855 -0.0939 -0.0142
  782SOL    HW2 3127   0.691   1.519   3.161 -0.1442 -0.8896 -0.3726
  782SOL     MW 3128   0.706   1.555   3.090 -0.9678  0.3505  0.4552
  783SOL     OW 3129   2.714   0.474   2.421 -0.1072 -0.0893  0.1045
  783SOL    HW1 3130   2.659   0.452   2.342 -2.8166 -1.8479  3.0981
  783SOL    HW2 3131   2.659   0.433   2.487 -0.8988  2.3399 -0.2840
  783SOL     MW 3132   2.700   0.466   2.420 -0.5691 -0.0009  0.4482
  784SOL     OW 3133   0.265   0.893   2.890  0.8534  0.6171  0.0468
  784SOL    HW1 3134   0.211   0.967   2.915 -2.6760 -1.1306 -2.4779
  784SOL    HW2 3135   0.309   0.925   2.814 -1.5469 -1.9512  3.6111
  784SOL     MW 3136   0.263   0.907   2.883  0.0710  0.0477  0.1840
  785SOL     OW 3137   0.423   0.500   2.191 -0.1091 -0.0269  0.1578
  785SOL    HW1 3138   0.424   0.548   2.109 -1.7695  2.6366  1.0228
  785SOL    HW2 3139   0.360   0.427   2.177 -1.2598  1.5948 -1.0411
  785SOL     MW 3140   0.415   0.497   2.178 -0.4800  0.5385  0.1137
  786SOL     OW 3141   1.950   0.484   2.900 -0.4906  0.3116 -0.5300
  786SOL    HW1 3142   1.946   0.519   2.996 -0.4575  0.9151  0.0211
  786SOL    HW2 3143   2.029   0.517   2.852 -1.1350 -1.3402  2.9081
  786SOL     MW 3144   1.960   0.493   2.906 -0.5712  0.1733 -0.0037
  787SOL     OW 3145   2.427   0.157   2.936  0.1145 -0.4410  0.6596
  787SOL    HW1 3146   2.498   0.112   2.881 -1.7146  0.0891  0.3642
  787SOL    HW2 3147   2.468   0.234   2.983  1.7113 -0.7428  3.3451
  787SOL     MW 3148   2.442   0.162   2.935  0.0839 -0.4109  0.9749
  788SOL     OW 3149   2.874   2.952   2.362 -0.1669 -0.6389  0.1208
  788SOL    HW1 3150   2.815   2.934   2.440 -0.8913  2.2595 -0.0433
  788SOL    HW2 3151   2.919   2.864   2.354 -0.2609 -0.6291 -1.3224
  788SOL     MW 3152   2.872   2.938   2.371 -0.2749 -0.2552 -0.0913
  789SOL     OW 3153   0.079   0.320   2.948  0.6449 -0.0111 -0.0229
  789SOL    HW1 3154   0.005   0.269   2.981 -0.5537 -0.9323 -0.2710
  789SOL    HW2 3155   0.042   0.410   2.960  3.2847 -1.0123  0.2553
  789SOL     MW 3156   0.064   0.325   2.954  0.8350 -0.2647 -0.0189
  790SOL     OW 3157   3.042   1.059   2.436  0.1509 -0.2682 -0.1041
  790SOL    HW1 3158   2.989   0.996   2.481 -1.1861  1.6549 -0.3055
  790SOL    HW2 3159   3.021   1.056   2.341 -2.9465  0.5941 -1.3945
  790SOL     MW 3160   3.032   1.050   2.429 -0.4342  0.0993 -0.3009
  791SOL     OW 3161   2.612   0.325   2.640  0.7155 -0.2486  0.5122
  791SOL    HW1 3162   2.565   0.394   2.688  0.9081 -0.4757  0.4619
  791SOL    HW2 3163   2.696   0.328   2.680  0.8734 -0.7627 -3.8733
  791SOL     MW 3164   2.617   0.335   2.651  0.7618 -0.3464 -0.0731
  792SOL     OW 3165   2.359   0.269   2.372  0.3675 -0.1840 -0.2992
  792SOL    HW1 3166   2.283   0.321   2.411 -1.5605  0.0313 -1.6514
  792SOL    HW2 3167   2.407   0.224   2.448 -0.4186  3.2005  1.6849
  792SOL     MW 3168   2.355   0.270   2.388  0.0094  0.2910 -0.2158
  793SOL     OW 3169   1.846   1.075   1.980  0.0339  0.1722 -0.0793
  793SOL    HW1 3170   1.824   1.094   1.895 -0.4220  0.3698  0.8267
  793SOL    HW2 3171   1.914   1.006   1.967  2.2311  1.2570 -2.4705
  793SOL     MW 3172   1.852   1.069   1.967  0.2636  0.3414 -0.2753
  794SOL     OW 3173   1.442   2.261   0.182  0.3421  0.1038 -0.1511
  794SOL    HW1 3174   1.456   2.338   0.131  0.5263 -2.6851  1.5976
  794SOL    HW2 3175   1.509   2.267   0.249  0.3835  1.7254  0.5352
  794SOL     MW 3176   1.453   2.272   0.184  0.3718 -0.0502  0.1702
  795SOL     OW 3177   2.355   0.966   2.560 -0.1133  0.2984  0.0822
  795SOL    HW1 3178   2.321   1.040   2.616 -2.1595  0.0451 -1.2279
  795SOL    HW2 3179   2.370   1.004   2.477 -0.8781 -2.7797  2.3795
  795SOL     MW 3180   2.352   0.981   2.556 -0.4842 -0.1412  0.2124
  796SOL     OW 3181   0.263   0.596   2.738 -0.6713 -0.0287  0.5606
  796SOL    HW1 3182   0.230   0.678   2.784 -2.2269  1.1681  1.9531
  796SOL    HW2 3183   0.214   0.593   2.653  2.0779 -1.5803 -0.1986
  796SOL     MW 3184   0.252   0.607   2.733 -0.5138 -0.0755  0.6441
  797SOL     OW 3185   2.567   0.099   2.503 -0.2917 -0.8806  0.1144
  797SOL    HW1 3186   2.586   0.182   2.551  0.0046  4.0134  1.9683
  797SOL    HW2 3187   2.616   0.112   2.424 -1.5649  2.2986 -1.5269
  797SOL     MW 3188   2.576   0.112   2.499 -0.4206  0.1846  0.1424
  798SOL     OW 3189   2.335   0.055   2.194  0.1396 -0.3176 -0.8248
  798SOL    HW1 3190   2.347   0.129   2.258 -0.0823  1.0759 -2.3576
  798SOL    HW2 3191   2.425   0.035   2.170  2.9662 -1.6216  0.5028
  798SOL     MW 3192   2.349   0.062   2.199  0.4833 -0.3058 -0.8518
  799SOL     OW 3193   2.456   2.921   0.131 -0.1787 -0.2571 -0.2668
  799SOL    HW1 3194   2.417   2.856   0.071  0.1817 -0.7545  1.6127
  799SOL    HW2 3195   2.392   2.994   0.132 -0.1811 -0.3416  0.9523
  799SOL     MW 3196   2.442   2.922   0.123 -0.1314 -0.3339  0.1420
  800SOL     OW 3197   1.841   3.093   1.784 -0.5401 -0.4967  0.3563
  800SOL    HW1 3198   1.800   3.005   1.781  1.6684 -1.3442 -2.5552
  800SOL    HW2 3199   1.898   3.090   1.858 -1.4772 -1.0951 -0.1135
  800SOL     MW 3200   1.843   3.081   1.793 -0.3723 -0.6874 -0.0898
  801SOL     OW 3201   2.797   1.269   2.645  0.2253 -0.2410  0.4670
  801SOL    HW1 3202   2.785   1.192   2.601 -2.4520  1.9100  0.1206
  801SOL    HW2 3203   2.887   1.288   2.623 -2.6503  1.3925 -0.1443
  801SOL     MW 3204   2.808   1.262   2.637 -0.5074  0.2583  0.3406
  802SOL     OW 3205   2.581   1.542   2.817 -0.0893 -0.2201 -0.5241
  802SOL    HW1 3206   2.545   1.460   2.776  0.1832  1.5228  1.1440
  802SOL    HW2 3207   2.673   1.532   2.808 -1.5187 -0.2973  2.7262
  802SOL     MW 3208   2.588   1.530   2.810 -0.2419 -0.0003  0.1248
  803SOL     OW 3209   2.285   1.398   1.989 -0.6605 -0.3534 -1.1332
  803SOL    HW1 3210   2.270   1.359   2.070  4.1219  1.2325 -2.9218
  803SOL    HW2 3211   2.261   1.336   1.922  0.2669 -0.9560  1.5084
  803SOL     MW 3212   2.280   1.384   1.991  0.0928 -0.2236 -1.0207
  804SOL     OW 3213   2.270   0.050   0.051  0.3340 -0.4183  0.5094
  804SOL    HW1 3214   2.192   0.112   0.043 -0.0903  0.3004  0.2285
  804SOL    HW2 3215   2.335   0.092  -0.011 -0.0950 -1.6259 -3.6997
  804SOL     MW 3216   2.268   0.064   0.042  0.2214 -0.4828 -0.0830
  805SOL     OW 3217   2.699   1.006   2.504  0.1848  0.2883 -0.1524
  805SOL    HW1 3218   2.637   0.953   2.454  1.4024  0.2983 -1.9963
  805SOL    HW2 3219   2.768   0.952   2.538 -0.7101 -0.3240  0.1008
  805SOL     MW 3220   2.700   0.992   2.502  0.2274  0.2088 -0.3623
  806SOL     OW 3221   2.548   0.391   2.214  0.2422  0.0669 -0.2485
  806SOL    HW1 3222   2.480   0.348   2.269  0.0958 -2.0293  1.9790
  806SOL    HW2 3223   2.497   0.428   2.142  1.9247 -0.0162 -0.7704
  806SOL     MW 3224   2.532   0.390   2.212  0.4449 -0.2206 -0.0235
  807SOL     OW 3225   0.044   1.156   2.105 -0.4113 -0.4467 -0.5364
  807SOL    HW1 3226   0.107   1.093   2.064  3.0647 -0.4079 -0.5695
  807SOL    HW2 3227  -0.043   1.106   2.128  1.3037 -1.0622  2.8542
  807SOL     MW 3228   0.041   1.141   2.102  0.2736 -0.5228 -0.0934
  808SOL     OW 3229   2.572   3.087   2.763  0.4178  0.0472  0.5752
  808SOL    HW1 3230   2.539   2.997   2.749 -1.7065 -0.1736  1.4707
  808SOL    HW2 3231   2.572   3.132   2.674 -0.5254  4.5003 -3.6100
  808SOL     MW 3232   2.568   3.081   2.749  0.0131  0.6056  0.1412
  809SOL     OW 3233   2.570   1.276   2.411 -0.0663 -0.1070 -0.0421
  809SOL    HW1 3234   2.602   1.231   2.494  0.3457 -0.5056  0.2598
  809SOL    HW2 3235   2.642   1.278   2.354 -0.7882 -0.4666  2.5920
  809SOL     MW 3236   2.584   1.270   2.415 -0.1072 -0.2070  0.3453
  810SOL     OW 3237   2.263   1.304   2.233  0.1120 -0.0842  0.1161
  810SOL    HW1 3238   2.331   1.233   2.249  1.4902 -2.0907  0.4695
  810SOL    HW2 3239   2.172   1.267   2.224 -2.1533  0.1640  0.3318
  810SOL     MW 3240   2.260   1.289   2.234 -0.0050 -0.3162  0.1912
  811SOL     OW 3241   1.551   0.133   2.269 -0.3915 -0.1461 -0.1898
  811SOL    HW1 3242   1.632   0.101   2.329  0.0149  0.9221  1.6940
  811SOL    HW2 3243   1.596   0.139   2.187  1.0422  0.3402  1.4574
  811SOL     MW 3244   1.568   0.130   2.266 -0.1487  0.0590  0.2761
  812SOL     OW 3245   1.455   2.822   2.122 -0.3862 -0.7070 -0.1476
  812SOL    HW1 3246   1.549   2.811   2.087 -0.6214 -1.9975 -1.1732
  812SOL    HW2 3247   1.470   2.800   2.214 -0.0958  0.5227  1.5544
  812SOL     MW 3248   1.470   2.818   2.129 -0.3789 -0.7151 -0.0583
  813SOL     OW 3249   1.800   0.718   2.188 -0.5232 -0.3371  0.0126
  813SOL    HW1 3250   1.794   0.620   2.202 -2.5482  0.7515 -1.9593
  813SOL    HW2 3251   1.838   0.755   2.269 -1.8496 -1.3632  2.1849
  813SOL     MW 3252   1.804   0.710   2.201 -0.9654 -0.3288  0.0391
  814SOL     OW 3253   2.788   1.276   1.672  0.4529 -0.1247  0.0418
  814SOL    HW1 3254   2.712   1.271   1.731  1.4849  1.4263  0.1499
  814SOL    HW2 3255   2.777   1.235   1.585  2.8458 -0.1319  0.7379
  814SOL     MW 3256   2.776   1.270   1.668  0.9048  0.0790  0.1479
  815SOL     OW 3257   2.479   1.648   2.434 -0.0343  0.2076 -0.4119
  815SOL    HW1 3258   2.421   1.569   2.447 -1.2942 -2.2601  2.1832
  815SOL    HW2 3259   2.566   1.606   2.453  2.6424 -3.8329  3.9658
  815SOL     MW 3260   2.483   1.632   2.438  0.1526 -0.6511  0.5081
  816SOL     OW 3261   0.753   0.697   2.719  0.4794 -0.2775 -0.0194
  816SOL    HW1 3262   0.752   0.631   2.788  1.8931  1.4371 -1.9150
  816SOL    HW2 3263   0.658   0.704   2.690 -0.8316 -1.0549 -1.0199
  816SOL     MW 3264   0.741   0.689   2.724  0.4929 -0.1539 -0.4015
  817SOL     OW 3265   3.030   1.277   1.396  0.0826 -0.6208 -0.1121
  817SOL    HW1 3266   3.115   1.248   1.430 -0.4470  1.1764 -0.8712
  817SOL    HW2 3267   3.051   1.362   1.355 -0.5366 -0.9232 -0.0482
  817SOL     MW 3268   3.044   1.284   1.395 -0.0690 -0.4236 -0.2038
  818SOL     OW 3269   1.957   1.008   2.721 -0.3661 -0.5748  0.4978
  818SOL    HW1 3270   1.941   1.060   2.643 -1.1153  0.1634  1.7563
  818SOL    HW2 3271   2.003   0.927   2.685  1.5181 -0.4030  0.6969
  818SOL     MW 3272   1.961   1.004   2.706 -0.2163 -0.4547  0.6901
  819SOL     OW 3273   1.895   0.279   2.464  0.0393  0.1996  0.5404
  819SOL    HW1 3274   1.834   0.350   2.483  1.9785 -1.3725 -0.5300
  819SOL    HW2 3275   1.931   0.255   2.556  0.4982 -0.2743  1.7993
  819SOL     MW 3276   1.891   0.285   2.479  0.3557 -0.0703  0.5653
  820SOL     OW 3277   2.460   1.753   2.676 -0.0630  0.2322  0.2429
  820SOL    HW1 3278   2.514   1.687   2.726 -0.1592  0.7447  0.0495
  820SOL    HW2 3279   2.470   1.722   2.585 -0.9974  3.1982 -1.7769
  820SOL     MW 3280   2.468   1.740   2.671 -0.1990  0.6911 -0.0491
  821SOL     OW 3281   2.565   1.350   1.994  0.1223  0.1405  0.1392
  821SOL    HW1 3282   2.622   1.409   1.943 -0.7751  0.6456 -0.5086
  821SOL    HW2 3283   2.484   1.402   2.016 -0.4797 -1.3838  1.3380
  821SOL     MW 3284   2.562   1.365   1.990 -0.0755  0.0060  0.2119
  822SOL     OW 3285   2.820   2.601   1.485 -0.0217  0.6650 -0.0605
  822SOL    HW1 3286   2.826   2.632   1.576 -0.6001 -0.5387  1.7473
  822SOL    HW2 3287   2.784   2.670   1.430  0.8450 -0.4848  2.9258
  822SOL     MW 3288   2.816   2.614   1.490  0.0163  0.3545  0.5720
  823SOL     OW 3289   2.249   0.470   1.787 -0.0978 -0.1549 -0.0645
  823SOL    HW1 3290   2.321   0.418   1.747 -0.5292 -2.8304  0.0836
  823SOL    HW2 3291   2.178   0.411   1.800  1.7246  0.3603 -1.3341
  823SOL     MW 3292   2.249   0.455   1.784  0.0857 -0.4400 -0.2124
  824SOL     OW 3293   2.075   1.384   2.559  0.0624 -0.2311 -1.2343
  824SOL    HW1 3294   2.169   1.413   2.552  0.4543  1.6178  0.0185
  824SOL    HW2 3295   2.032   1.461   2.611 -0.5284 -1.2941  2.0364
  824SOL     MW 3296   2.081   1.398   2.565  0.0362 -0.1274 -0.6375
  825SOL     OW 3297   2.093   2.570   0.287  0.4737 -0.5224  0.3242
  825SOL    HW1 3298   2.123   2.505   0.350  0.0826  1.3550  0.1327
  825SOL    HW2 3299   2.122   2.550   0.196  1.7690  0.5226  0.5604
  825SOL     MW 3300   2.101   2.559   0.283  0.5930 -0.1368  0.3301
  826SOL     OW 3301   1.942   2.335   0.544 -0.0945 -0.7811  0.3333
  826SOL    HW1 3302   1.874   2.269   0.573 -1.6818 -0.2772 -1.0613
  826SOL    HW2 3303   1.910   2.427   0.565 -1.3258  1.3591  1.6323
  826SOL     MW 3304   1.929   2.339   0.550 -0.4664 -0.4322  0.3207
  827SOL     OW 3305   1.973   2.185   0.844  0.4515  0.0236 -0.2439
  827SOL    HW1 3306   1.911   2.259   0.844 -1.5011 -0.9798  1.1318
  827SOL    HW2 3307   1.925   2.116   0.881  3.5541  0.5218  1.4383
  827SOL     MW 3308   1.958   2.186   0.849  0.6032 -0.0431  0.1596
  828SOL     OW 3309   0.050   2.678   0.561 -0.3121 -0.1254 -0.5836
  828SOL    HW1 3310   0.141   2.692   0.575  0.5102  1.2384 -0.9507
  828SOL    HW2 3311   0.039   2.699   0.465  2.2110 -2.3556 -3.6352
  828SOL     MW 3312   0.061   2.683   0.550  0.1293 -0.2397 -1.0347
  829SOL     OW 3313   2.991   2.930   1.259 -0.1671 -0.2299 -0.0767
  829SOL    HW1 3314   2.933   2.946   1.187  1.1578  2.4235 -1.3634
  829SOL    HW2 3315   3.051   2.859   1.233  1.9027  3.0065  0.2976
  829SOL     MW 3316   2.992   2.923   1.246  0.2808  0.5472 -0.1971
  830SOL     OW 3317   2.504   2.868   2.036  0.0298  0.2133 -0.2156
  830SOL    HW1 3318   2.420   2.899   1.992 -3.4122 -1.8558 -0.1006
  830SOL    HW2 3319   2.567   2.860   1.966  0.8671  1.9220  0.8129
  830SOL     MW 3320   2.501   2.871   2.021 -0.3138  0.1658 -0.0647
  831SOL     OW 3321   2.389   2.414   1.246 -0.3506  0.2129 -0.4182
  831SOL    HW1 3322   2.362   2.345   1.314 -3.3290 -0.6532  0.4778
  831SOL    HW2 3323   2.482   2.391   1.231 -1.0106  0.9966  0.7265
  831SOL     MW 3324   2.398   2.402   1.253 -0.8307  0.2021 -0.1489
  832SOL     OW 3325   2.433   2.232   1.896  0.4141 -0.5872 -0.0232
  832SOL    HW1 3326   2.421   2.330   1.921 -2.2140  0.1567 -1.3728
  832SOL    HW2 3327   2.527   2.215   1.875  0.3902 -2.1098 -0.6883
  832SOL     MW 3328   2.443   2.242   1.897  0.0642 -0.6899 -0.2890
  833SOL     OW 3329   1.777   2.452   0.925  0.3353  0.4401 -0.8261
  833SOL    HW1 3330   1.702   2.425   0.977 -0.8257 -0.6528  2.7220
  833SOL    HW2 3331   1.812   2.515   0.988  0.9830  4.8363  1.3903
  833SOL     MW 3332   1.772   2.457   0.940  0.2675  0.8759 -0.0655
  834SOL     OW 3333   2.226   2.454   0.520 -0.1138  0.0589 -0.2771
  834SOL    HW1 3334   2.175   2.378   0.545 -0.2963  0.6489 -3.0275
  834SOL    HW2 3335   2.284   2.412   0.448  0.2337 -3.2226 -0.7173
  834SOL     MW 3336   2.227   2.439   0.514 -0.0920 -0.2962 -0.6981
  835SOL     OW 3337   1.854   2.579   0.685  0.3956  0.3277  0.4396
  835SOL    HW1 3338   1.824   2.560   0.781 -1.4412  0.6956  0.8049
  835SOL    HW2 3339   1.910   2.648   0.715  2.8675  0.2637 -0.6360
  835SOL     MW 3340   1.858   2.586   0.702  0.4794  0.3678  0.3459
  836SOL     OW 3341   1.964   2.139   1.669  0.5458  0.2046 -0.1510
  836SOL    HW1 3342   2.057   2.127   1.662  0.9883  1.5201 -1.6694
  836SOL    HW2 3343   1.963   2.223   1.716  0.8206 -0.9235  0.9933
  836SOL     MW 3344   1.976   2.149   1.674  0.6405  0.2293 -0.2003
  837SOL     OW 3345   2.087   0.189   0.709  0.0080  0.0446 -0.0778
  837SOL    HW1 3346   1.989   0.212   0.697 -0.9287  1.5927 -0.4519
  837SOL    HW2 3347   2.125   0.154   0.623  1.3837  0.4745  0.9136
  837SOL     MW 3348   2.079   0.187   0.696  0.0659  0.3056  0.0036
  838SOL     OW 3349   2.914   2.024   0.911  0.1106 -0.3125  0.0534
  838SOL    HW1 3350   2.831   1.980   0.935  0.6119 -0.5081 -1.1703
  838SOL    HW2 3351   2.954   1.971   0.844  1.5372 -0.9480  0.7966
  838SOL     MW 3352   2.908   2.011   0.905  0.3649 -0.4221 -0.0100
  839SOL     OW 3353   1.477   2.343   0.916 -0.2415  0.4068 -0.0886
  839SOL    HW1 3354   1.454   2.430   0.952  2.0568  0.1622  2.3027
  839SOL    HW2 3355   1.515   2.284   0.985  0.5348  1.1241  1.3199
  839SOL     MW 3356   1.479   2.346   0.930  0.1642  0.4692  0.4128
  840SOL     OW 3357   2.297   2.074   2.404 -0.4688 -0.5397  0.1303
  840SOL    HW1 3358   2.242   2.119   2.337  1.3016 -0.9598  1.6386
  840SOL    HW2 3359   2.345   2.133   2.459  1.9666  0.6797 -1.0675
  840SOL     MW 3360   2.296   2.087   2.403  0.0861 -0.4342  0.1713
  841SOL     OW 3361   2.179   2.435   0.065 -0.0397 -0.0330 -0.5837
  841SOL    HW1 3362   2.201   2.462  -0.023 -1.7780  1.0089 -2.8911
  841SOL    HW2 3363   2.138   2.345   0.047  1.2108 -0.0180 -0.8907
  841SOL     MW 3364   2.176   2.426   0.051 -0.1041  0.1065 -0.9286
  842SOL     OW 3365   2.675   2.001   1.568  0.1723 -0.2080 -0.0259
  842SOL    HW1 3366   2.620   1.923   1.560 -1.2734  2.9128 -3.1530
  842SOL    HW2 3367   2.639   2.061   1.492 -4.7559  1.5052 -1.7921
  842SOL     MW 3368   2.663   1.999   1.557 -0.6687  0.4298 -0.6715
  843SOL     OW 3369   2.662   2.860   1.826  0.0844 -0.4180 -0.2247
  843SOL    HW1 3370   2.739   2.808   1.809  1.8275  3.8088  1.2903
  843SOL    HW2 3371   2.599   2.818   1.768 -1.3931 -1.1670 -0.7154
  843SOL     MW 3372   2.664   2.848   1.816  0.1195  0.0408 -0.0896
  844SOL     OW 3373   2.661   2.331   1.212 -0.1905  0.4791 -0.5283
  844SOL    HW1 3374   2.711   2.346   1.132  1.3136  1.2550  4.1045
  844SOL    HW2 3375   2.716   2.365   1.282  0.2188 -0.2802 -0.7517
  844SOL     MW 3376   2.675   2.337   1.210  0.0619  0.4813  0.0535
  845SOL     OW 3377   2.838   2.514   0.324 -0.7244  0.2148  0.5345
  845SOL    HW1 3378   2.771   2.441   0.319  1.0389  0.1964 -1.5300
  845SOL    HW2 3379   2.820   2.565   0.409  1.7985  3.5844  2.5103
  845SOL     MW 3380   2.827   2.511   0.335 -0.1588  0.6570  0.5228
  846SOL     OW 3381   1.525   2.822   0.835 -0.4668 -0.6949  0.0337
  846SOL    HW1 3382   1.607   2.872   0.856 -2.8427  1.4589  0.5538
  846SOL    HW2 3383   1.461   2.891   0.828  0.8023 -1.0979  2.1590
  846SOL     MW 3384   1.527   2.838   0.837 -0.6128 -0.4639  0.3828
  847SOL     OW 3385   2.515   1.951   0.177 -0.1894 -0.2298 -0.1065
  847SOL    HW1 3386   2.566   1.883   0.214  0.9160 -1.8053 -2.1152
  847SOL    HW2 3387   2.465   1.910   0.102  1.4669 -1.9860  2.2808
  847SOL     MW 3388   2.515   1.937   0.172  0.1750 -0.6694 -0.0566
  848SOL     OW 3389   2.568   2.099   1.353  0.5911  0.0179 -0.0566
  848SOL    HW1 3390   2.605   2.171   1.304 -2.0090 -4.1681 -0.7703
  848SOL    HW2 3391   2.554   2.029   1.291  0.3378 -0.0601 -1.4791
  848SOL     MW 3392   2.571   2.099   1.338  0.2146 -0.5447 -0.3384
  849SOL     OW 3393   2.034   2.802   0.780  0.2789 -0.0486  0.0877
  849SOL    HW1 3394   2.032   2.736   0.853  0.5488 -0.5239 -1.4251
  849SOL    HW2 3395   2.106   2.766   0.720  2.9654 -3.5298  2.9845
  849SOL     MW 3396   2.043   2.788   0.781  0.6690 -0.5706  0.2703
  850SOL     OW 3397   2.250   1.863   1.695 -0.0554 -0.5280 -0.0886
  850SOL    HW1 3398   2.163   1.829   1.663  1.8352  0.6629  3.1996
  850SOL    HW2 3399   2.251   1.960   1.701 -1.6055 -0.8792 -0.7151
  850SOL     MW 3400   2.239   1.871   1.692 -0.0104 -0.4172  0.2626
  851SOL     OW 3401   2.358   2.351   0.308 -0.0921  0.0756 -0.4303
  851SOL    HW1 3402   2.335   2.364   0.219  1.2117 -0.5670 -1.5984
  851SOL    HW2 3403   2.457   2.346   0.305  1.5942  4.1720  0.2695
  851SOL     MW 3404   2.368   2.352   0.296  0.3024  0.5313 -0.4921
  852SOL     OW 3405   2.319   2.087   0.331 -0.5591  0.2636 -0.1176
  852SOL    HW1 3406   2.335   2.180   0.324  0.3677 -1.5621 -0.4623
  852SOL    HW2 3407   2.400   2.046   0.289  0.7289  1.4028  3.1195
  852SOL     MW 3408   2.332   2.094   0.325 -0.2669  0.1730  0.2640
  853SOL     OW 3409   2.460   2.500   1.957 -0.3192 -0.1489 -0.5200
  853SOL    HW1 3410   2.492   2.535   1.871 -0.2285  1.3955 -1.0084
  853SOL    HW2 3411   2.534   2.458   2.004 -2.9799 -1.4155  0.5389
  853SOL     MW 3412   2.474   2.499   1.952 -0.6583 -0.1122 -0.4447
  854SOL     OW 3413   2.868   2.268   0.782 -0.2785  0.6477 -0.2212
  854SOL    HW1 3414   2.786   2.246   0.735  0.5213 -0.0212 -1.9808
  854SOL    HW2 3415   2.901   2.184   0.830  1.8770 -0.3343  2.7264
  854SOL     MW 3416   2.862   2.254   0.782  0.1114  0.4299 -0.0644
  855SOL     OW 3417   2.650   2.313   0.352 -0.5225  0.5102 -0.2442
  855SOL    HW1 3418   2.610   2.355   0.433 -2.3518  0.9996  1.2516
  855SOL    HW2 3419   2.705   2.238   0.375  3.6937 -0.1642 -0.1435
  855SOL     MW 3420   2.652   2.309   0.366 -0.2075  0.4858 -0.0336
  856SOL     OW 3421   2.146   1.934   0.198 -0.7267  0.8587 -0.3612
  856SOL    HW1 3422   2.068   1.920   0.253  2.2854  1.2340 -0.6596
  856SOL    HW2 3423   2.194   2.012   0.235  2.0143 -0.2947  2.5694
  856SOL     MW 3424   2.142   1.943   0.210  0.0324  0.7560 -0.0139
  857SOL     OW 3425   2.484   1.980   0.554  0.0655 -0.2189  0.0202
  857SOL    HW1 3426   2.418   2.010   0.485 -5.1195 -0.6912  0.6666
  857SOL    HW2 3427   2.414   1.970   0.616  1.2419  3.0154 -0.6670
  857SOL     MW 3428   2.466   1.983   0.553 -0.4634  0.1455  0.0148
  858SOL     OW 3429   2.869   2.658   1.751 -0.2048  0.8970 -0.5441
  858SOL    HW1 3430   2.961   2.696   1.770 -0.8423  0.8059  3.0416
  858SOL    HW2 3431   2.866   2.573   1.789  2.0462  3.1556 -1.3700
  858SOL     MW 3432   2.881   2.652   1.758  0.0080  1.1830 -0.1799
  859SOL     OW 3433   2.143   2.574   0.915  0.0045  0.4857 -0.4173
  859SOL    HW1 3434   2.098   2.507   0.962 -0.7011  0.5698 -2.3498
  859SOL    HW2 3435   2.201   2.537   0.850  1.8745 -0.3357  1.9079
  859SOL     MW 3436   2.145   2.560   0.913  0.1581  0.3884 -0.3655
  860SOL     OW 3437   2.681   2.595   0.120  0.3960 -0.6631  0.0221
  860SOL    HW1 3438   2.718   2.565   0.207  2.7066  3.9400 -1.7162
  860SOL    HW2 3439   2.716   2.682   0.102 -1.8511 -0.7893  3.0237
  860SOL     MW 3440   2.690   2.603   0.129  0.4044 -0.0724  0.1888
  861SOL     OW 3441   1.611   2.167   1.102  0.4689  0.2611  0.4591
  861SOL    HW1 3442   1.601   2.248   1.158 -1.1181  1.0256  1.7290
  861SOL    HW2 3443   1.550   2.110   1.150 -0.3487 -0.0894 -1.2852
  861SOL     MW 3444   1.601   2.170   1.116  0.1517  0.3157  0.3965
  862SOL     OW 3445   2.481   1.810   1.551 -0.2011  0.2235 -0.4166
  862SOL    HW1 3446   2.401   1.835   1.602 -0.6287 -0.7762  1.9264
  862SOL    HW2 3447   2.446   1.804   1.461  0.8166 -1.9561 -1.2557
  862SOL     MW 3448   2.465   1.812   1.546 -0.1232 -0.1960 -0.2181
  863SOL     OW 3449   3.008   1.754   1.028 -0.2410 -0.0067  0.4024
  863SOL    HW1 3450   3.095   1.739   1.071 -0.9346 -1.7801 -1.2126
  863SOL    HW2 3451   2.964   1.810   1.091 -0.0712 -0.3957 -0.6797
  863SOL     MW 3452   3.013   1.759   1.042 -0.3101 -0.2920  0.0466
  864SOL     OW 3453   3.059   1.846   0.770  0.6292  0.0693  0.3105
  864SOL    HW1 3454   3.019   1.805   0.854  1.2313 -0.2112  2.5098
  864SOL    HW2 3455   3.013   1.796   0.698 -3.8408 -0.7670  0.4663
  864SOL     MW 3456   3.047   1.834   0.772  0.1188 -0.0780  0.6213
  865SOL     OW 3457   2.477   2.201   0.038 -0.1484 -0.4322  0.6279
  865SOL    HW1 3458   2.476   2.108   0.065 -0.8984  0.7403 -0.5410
  865SOL    HW2 3459   2.473   2.208  -0.058 -0.6742  4.8126  2.8849
  865SOL     MW 3460   2.477   2.190   0.029 -0.3167  0.4145  0.7715
  866SOL     OW 3461   2.676   2.340   1.672  0.0358 -0.3207 -0.1334
  866SOL    HW1 3462   2.681   2.255   1.723  0.6286  0.0430 -0.6031
  866SOL    HW2 3463   2.726   2.325   1.584  1.7858 -2.7253 -0.5616
  866SOL     MW 3464   2.683   2.327   1.667  0.3449 -0.5900 -0.2519
  867SOL     OW 3465   0.044   2.701   1.782  0.3988 -0.6830 -0.0957
  867SOL    HW1 3466   0.099   2.731   1.847  1.3828 -0.2851 -1.0316
  867SOL    HW2 3467   0.045   2.765   1.711  1.4941 -0.9053  0.6883
  867SOL     MW 3468   0.051   2.713   1.781  0.6731 -0.6598 -0.1157
  868SOL     OW 3469   2.776   2.651   0.545  0.0391  0.7626  0.4285
  868SOL    HW1 3470   2.696   2.600   0.553 -0.0326  1.8744 -1.5993
  868SOL    HW2 3471   2.760   2.711   0.474  0.7345  0.9068  1.2665
  868SOL     MW 3472   2.763   2.652   0.537  0.1214  0.9283  0.2715
  869SOL     OW 3473   2.058   2.308   1.056 -0.0725 -0.3064 -0.4293
  869SOL    HW1 3474   2.155   2.310   1.047  1.1086  2.5738  0.5185
  869SOL    HW2 3475   2.018   2.261   0.977 -1.1589  1.0583 -0.6077
  869SOL     MW 3476   2.066   2.302   1.045 -0.0600  0.2537 -0.3278
  870SOL     OW 3477   2.125   0.032   0.473 -0.0601 -0.7355  0.8636
  870SOL    HW1 3478   2.188   0.088   0.419 -0.7649  0.0122 -1.7429
  870SOL    HW2 3479   2.166  -0.057   0.467  1.0135  0.3021  1.2912
  870SOL     MW 3480   2.139   0.027   0.465 -0.0114 -0.4999  0.5761
  871SOL     OW 3481   2.454   2.032   0.965 -0.4989 -0.0162 -0.0138
  871SOL    HW1 3482   2.411   1.992   0.889 -0.3546  0.2325  2.2362
  871SOL    HW2 3483   2.428   2.125   0.960  0.5594  1.9638  2.2474
  871SOL     MW 3484   2.445   2.039   0.954 -0.3403  0.2779  0.5814
  872SOL     OW 3485   2.030   2.493   1.552  0.2828 -0.1594 -0.1138
  872SOL    HW1 3486   1.999   2.537   1.629  0.1054  2.3695 -2.4826
  872SOL    HW2 3487   1.946   2.472   1.513  2.7956 -2.1794 -1.2924
  872SOL     MW 3488   2.015   2.496   1.557  0.5910 -0.0922 -0.5819
  873SOL     OW 3489   2.906   2.042   1.961  0.0147 -0.0291 -0.0803
  873SOL    HW1 3490   2.898   2.085   2.047 -1.2869  2.3955 -0.5526
  873SOL    HW2 3491   2.963   2.101   1.901  0.5555  2.6608  0.1042
  873SOL     MW 3492   2.912   2.056   1.964 -0.0857  0.6457 -0.1182
  874SOL     OW 3493   2.331   1.428   2.459  0.0644  0.2895  0.4247
  874SOL    HW1 3494   2.288   1.407   2.377  0.7477 -0.8704  0.0652
  874SOL    HW2 3495   2.411   1.372   2.466  1.1588 -0.5864 -1.6391
  874SOL     MW 3496   2.336   1.418   2.449  0.2990  0.0209  0.1050
  875SOL     OW 3497   2.336   2.294   1.009 -0.0147  0.0853 -0.3213
  875SOL    HW1 3498   2.365   2.333   0.926  0.5836 -0.2166  0.3579
  875SOL    HW2 3499   2.367   2.356   1.078  3.8357 -0.4926 -0.6255
  875SOL     MW 3500   2.344   2.307   1.007  0.5723 -0.0308 -0.2718
  876SOL     OW 3501   3.058   2.294   1.324  0.1027  0.1181  0.9852
  876SOL    HW1 3502   3.086   2.347   1.240 -2.6054  0.6631  0.9487
  876SOL    HW2 3503   3.128   2.315   1.390  1.6144 -2.4170 -0.7285
  876SOL     MW 3504   3.071   2.304   1.322 -0.0552 -0.1445  0.7543
  877SOL     OW 3505   0.014   2.785   0.309 -0.0318  0.1970 -0.2781
  877SOL    HW1 3506   0.097   2.835   0.303 -1.0229  2.8416 -0.0693
  877SOL    HW2 3507   0.009   2.735   0.227  0.9184  0.8921  0.9243
  877SOL     MW 3508   0.024   2.785   0.297 -0.0372  0.6377 -0.0919
  878SOL     OW 3509   2.373   1.817   1.274 -0.0958 -0.5721 -0.6246
  878SOL    HW1 3510   2.310   1.746   1.252  2.4081  0.2831  2.0413
  878SOL    HW2 3511   2.457   1.785   1.234  1.2726  0.8768 -2.4004
  878SOL     MW 3512   2.376   1.804   1.266  0.4151 -0.2681 -0.5071
  879SOL     OW 3513   2.750   2.445   0.974  0.0594 -0.1167  0.0703
  879SOL    HW1 3514   2.804   2.518   1.001 -1.8286 -1.6228 -0.2224
  879SOL    HW2 3515   2.803   2.402   0.906  0.5196 -1.1765 -0.7444
  879SOL     MW 3516   2.764   2.449   0.969 -0.1290 -0.4553 -0.0758
  880SOL     OW 3517   2.616   2.159   0.733 -0.0947 -0.0032 -0.0446
  880SOL    HW1 3518   2.592   2.129   0.826 -1.4471  1.7144 -0.4487
  880SOL    HW2 3519   2.564   2.109   0.666 -0.5704 -3.8888 -1.7007
  880SOL     MW 3520   2.606   2.149   0.737 -0.3359 -0.2893 -0.3164
  881SOL     OW 3521   2.951   2.709   0.745  0.7443 -0.3687 -0.3585
  881SOL    HW1 3522   2.883   2.682   0.684 -2.6774 -1.0556  0.0053
  881SOL    HW2 3523   3.024   2.720   0.686 -0.9871 -1.6198  0.0258
  881SOL     MW 3524   2.952   2.707   0.729  0.0644 -0.6244 -0.2598
  882SOL     OW 3525   2.233   2.900   1.952  0.0707 -0.0625 -0.2521
  882SOL    HW1 3526   2.207   2.888   1.856  0.4340  1.3525  2.3876
  882SOL    HW2 3527   2.198   2.812   1.992 -3.0779 -3.3964  0.9277
  882SOL     MW 3528   2.225   2.887   1.944 -0.2968 -0.3157  0.2518
  883SOL     OW 3529   2.320   2.201   1.396  0.5401  0.1482 -0.3235
  883SOL    HW1 3530   2.413   2.162   1.393  1.6597  0.8773  0.7817
  883SOL    HW2 3531   2.265   2.143   1.340 -1.0828 -0.7842  0.0975
  883SOL     MW 3532   2.325   2.188   1.388  0.4737  0.1214 -0.1221
  884SOL     OW 3533   1.945   1.788   1.067 -0.3460  0.5733  0.1813
  884SOL    HW1 3534   1.897   1.864   1.023  1.1465  2.4275 -3.1031
  884SOL    HW2 3535   2.046   1.805   1.055  2.5879  2.6481  1.7020
  884SOL     MW 3536   1.952   1.801   1.059  0.2380  1.0917 -0.0514
  885SOL     OW 3537   2.884   2.401   1.835 -0.3800 -0.2824 -0.1946
  885SOL    HW1 3538   2.954   2.341   1.807 -0.0619  0.1637  1.0938
  885SOL    HW2 3539   2.811   2.375   1.783 -0.5704  1.1640  0.2746
  885SOL     MW 3540   2.883   2.390   1.825 -0.3631 -0.0327  0.0373
  886SOL     OW 3541   2.822   2.343   1.444  0.4690  0.2003 -0.7135
  886SOL    HW1 3542   2.905   2.324   1.402  1.9832  3.6052 -4.1812
  886SOL    HW2 3543   2.831   2.437   1.476 -0.8776  1.9062 -1.4098
  886SOL     MW 3544   2.834   2.353   1.442  0.4911  0.8746 -1.2629
  887SOL     OW 3545   2.280   2.637   1.579 -0.2866 -0.1799 -0.3197
  887SOL    HW1 3546   2.319   2.646   1.487  2.1942 -1.2222 -0.8815
  887SOL    HW2 3547   2.199   2.588   1.562 -0.1806 -0.2229  1.5668
  887SOL     MW 3548   2.274   2.632   1.565  0.0547 -0.3231 -0.1449
  888SOL     OW 3549   1.871   2.125   1.396 -0.6049  0.2479  0.4548
  888SOL    HW1 3550   1.956   2.115   1.359 -0.1587 -1.0954  2.7371
  888SOL    HW2 3551   1.896   2.119   1.488 -1.8517  3.4027  1.7180
  888SOL     MW 3552   1.885   2.123   1.404 -0.7105  0.4869  0.9226
  889SOL     OW 3553   2.329   2.034   2.071  0.5506  0.0565  0.3590
  889SOL    HW1 3554   2.395   2.003   2.138  1.2041  3.7532  0.9520
  889SOL    HW2 3555   2.380   2.091   2.012 -2.0736  1.8445 -0.5013
  889SOL     MW 3556   2.344   2.037   2.072  0.2906  0.7802  0.3237
  890SOL     OW 3557   0.048   2.372   0.136 -0.0059  0.8557  0.0710
  890SOL    HW1 3558   0.005   2.463   0.131 -0.3764  0.8369  2.1099
  890SOL    HW2 3559   0.018   2.336   0.222 -1.3351  0.3054 -1.2011
  890SOL     MW 3560   0.039   2.379   0.147 -0.2302  0.7806  0.1722
  891SOL     OW 3561   3.054   2.007   1.294  0.2987 -0.0434  0.1398
  891SOL    HW1 3562   3.149   1.983   1.293  0.6934 -0.7830  2.1452
  891SOL    HW2 3563   3.059   2.098   1.306  0.5207 -1.2384 -0.5806
  891SOL     MW 3564   3.067   2.016   1.296  0.3801 -0.2986  0.3093
  892SOL     OW 3565   2.447   2.313   2.753 -0.1098  0.3053  0.2749
  892SOL    HW1 3566   2.436   2.225   2.785  0.1181  0.5928 -1.1900
  892SOL    HW2 3567   2.533   2.345   2.774 -0.9532  0.1958  1.3046
  892SOL     MW 3568   2.457   2.306   2.760 -0.1910  0.3288  0.2175
  893SOL     OW 3569   1.599   2.410   1.220  0.0220 -0.1896 -0.4281
  893SOL    HW1 3570   1.537   2.446   1.282  0.7888  0.6698 -2.7421
  893SOL    HW2 3571   1.683   2.449   1.243 -1.0554  0.3071  1.1003
  893SOL     MW 3572   1.602   2.420   1.231 -0.0190 -0.0107 -0.5317
  894SOL     OW 3573   2.749   1.871   0.456  0.0283  0.1823  0.0164
  894SOL    HW1 3574   2.660   1.908   0.454 -2.3704  2.3314  0.4408
  894SOL    HW2 3575   2.781   1.838   0.368  0.9655  1.8975 -1.5826
  894SOL     MW 3576   2.741   1.871   0.444 -0.1645  0.6921 -0.1386
  895SOL     OW 3577   2.136   2.103   1.237  0.1340  0.0356 -0.3940
  895SOL    HW1 3578   2.101   2.178   1.175 -2.4766  0.3006 -0.8831
  895SOL    HW2 3579   2.140   2.026   1.178  1.6099 -2.0084 -1.6879
  895SOL     MW 3580   2.132   2.103   1.221 -0.0157 -0.1992 -0.6292
  896SOL     OW 3581   2.315   2.816   1.103 -0.0175  0.3387  0.5773
  896SOL    HW1 3582   2.324   2.776   1.185  1.7689 -0.2071  0.3456
  896SOL    HW2 3583   2.253   2.764   1.065 -1.2365 -2.0889  0.6444
  896SOL     MW 3584   2.308   2.804   1.109  0.0574 -0.0536  0.5556
  897SOL     OW 3585   3.061   3.021   3.082  0.3777  0.8526  0.0564
  897SOL    HW1 3586   3.116   2.945   3.044  4.9892 -1.0832 -0.8848
  897SOL    HW2 3587   3.067   3.000   3.173 -1.1262  0.7971 -0.6347
  897SOL     MW 3588   3.069   3.008   3.089  0.7877  0.5899 -0.1590
  898SOL     OW 3589   2.106   0.198   1.493  0.2443  0.0407  0.2698
  898SOL    HW1 3590   2.082   0.107   1.505 -0.3930  0.7400  0.9913
  898SOL    HW2 3591   2.103   0.222   1.401  0.1757 -1.4470  1.7688
  898SOL     MW 3592   2.102   0.189   1.483  0.1512 -0.0633  0.5627
  899SOL     OW 3593   2.917   2.974   0.645 -0.4253  0.0279  0.1471
  899SOL    HW1 3594   2.928   2.894   0.692 -0.0192 -1.8988  1.0129
  899SOL    HW2 3595   2.837   3.025   0.668  0.3913  1.1456 -0.9428
  899SOL     MW 3596   2.908   2.970   0.654 -0.2640 -0.0788  0.1176
  900SOL     OW 3597   0.064   2.396   1.110 -0.5021 -0.2716  1.0146
  900SOL    HW1 3598   0.037   2.485   1.096  2.1631  0.1034  1.0147
  900SOL    HW2 3599   0.055   2.349   1.024  0.8926  0.0306  0.1064
  900SOL     MW 3600   0.059   2.402   1.097  0.0336 -0.1823  0.8948
  901SOL     OW 3601   1.738   2.842   1.760  0.2974  0.0461 -0.2504
  901SOL    HW1 3602   1.807   2.774   1.776 -0.3345  2.3026 -0.1171
  901SOL    HW2 3603   1.709   2.817   1.669  1.9086  0.8858 -0.1227
  901SOL     MW 3604   1.743   2.830   1.750  0.4266  0.4546 -0.2160
  902SOL     OW 3605   2.690   2.124   1.817 -0.8473 -0.2794  0.3017
  902SOL    HW1 3606   2.692   2.070   1.736  2.7099  0.4899  1.4730
  902SOL    HW2 3607   2.751   2.086   1.883  1.0401  2.4885 -0.8496
  902SOL     MW 3608   2.698   2.112   1.815 -0.1289  0.1873  0.3043
  903SOL     OW 3609   1.602   2.700   0.610  0.5785 -0.7273  0.6176
  903SOL    HW1 3610   1.692   2.683   0.624 -1.4832 -0.5428  1.2552
  903SOL    HW2 3611   1.586   2.765   0.678 -0.1866 -0.5977  1.6506
  903SOL     MW 3612   1.612   2.706   0.621  0.2055 -0.6858  0.8380
  904SOL     OW 3613   2.528   2.584   1.712 -0.1080 -0.1627 -0.0359
  904SOL    HW1 3614   2.444   2.595   1.667  0.5566  1.7494 -0.4317
  904SOL    HW2 3615   2.576   2.512   1.678 -0.3031  1.6656 -2.0522
  904SOL     MW 3616   2.523   2.576   1.701 -0.0461  0.3308 -0.3542
  905SOL     OW 3617   2.286   2.514   2.138  0.1448 -0.4394 -0.4227
  905SOL    HW1 3618   2.351   2.511   2.062 -1.3345  0.7124  2.2363
  905SOL    HW2 3619   2.275   2.426   2.166 -0.4737  0.8283 -1.3335
  905SOL     MW 3620   2.293   2.502   2.132 -0.1320 -0.1202 -0.1920
  906SOL     OW 3621   2.454   2.484   0.830  0.7679  0.6482 -0.2834
  906SOL    HW1 3622   2.541   2.460   0.862  1.7848 -3.9026 -2.7615
  906SOL    HW2 3623   2.453   2.573   0.841 -0.8145 -1.3650 -3.4577
  906SOL     MW 3624   2.465   2.492   0.836  0.6933 -0.2178 -1.0292
  907SOL     OW 3625   2.638   2.802   1.346  0.1324  0.0399 -0.1741
  907SOL    HW1 3626   2.661   2.861   1.413 -0.9457  0.8132 -2.1403
  907SOL    HW2 3627   2.679   2.848   1.272 -0.7628  0.2241  0.2792
  907SOL     MW 3628   2.647   2.815   1.345 -0.1280  0.1663 -0.3737
  908SOL     OW 3629   2.707   2.341  -0.001 -0.0606  0.6020  0.3908
  908SOL    HW1 3630   2.628   2.288   0.019  3.1927  0.0528 -1.7687
  908SOL    HW2 3631   2.693   2.429   0.039  1.2256 -0.1564  0.4120
  908SOL     MW 3632   2.695   2.346   0.007  0.5383  0.4295  0.1086
  909SOL     OW 3633   1.735   0.057   1.190 -0.1308  0.0759  0.4365
  909SOL    HW1 3634   1.742   0.123   1.117  2.7926  1.9350  1.5231
  909SOL    HW2 3635   1.757   0.100   1.266 -2.5443  1.0528 -1.2252
  909SOL     MW 3636   1.739   0.071   1.191 -0.0635  0.4501  0.3606
  910SOL     OW 3637   2.253   1.808   0.409 -0.2403 -0.3527  0.0914
  910SOL    HW1 3638   2.208   1.723   0.404 -2.8511 -0.5494 -0.6984
  910SOL    HW2 3639   2.225   1.858   0.330  0.0789  0.1745 -0.1045
  910SOL     MW 3640   2.244   1.804   0.398 -0.5427 -0.3091 -0.0387
  911SOL     OW 3641   2.256   2.143   1.663 -0.2359 -1.0030 -0.6802
  911SOL    HW1 3642   2.330   2.158   1.719  0.7158 -2.2000  0.0374
  911SOL    HW2 3643   2.274   2.170   1.570 -1.7715  0.2389 -0.2702
  911SOL     MW 3644   2.268   2.149   1.658 -0.3130 -0.9971 -0.5314
  912SOL     OW 3645   2.942   1.920   1.528  0.5271 -0.0905 -0.7705
  912SOL    HW1 3646   2.968   1.942   1.432  0.0848  0.9568 -2.2829
  912SOL    HW2 3647   2.845   1.940   1.529 -2.2862 -2.3318  2.3343
  912SOL     MW 3648   2.933   1.925   1.516  0.0975 -0.2480 -0.5604
  913SOL     OW 3649   2.634   3.041   0.360  0.0411  0.2782  0.0845
  913SOL    HW1 3650   2.717   2.989   0.343 -0.9045 -0.4491 -0.4845
  913SOL    HW2 3651   2.571   2.979   0.324  0.3900 -2.8386 -3.0742
  913SOL     MW 3652   2.637   3.026   0.353 -0.0376 -0.2290 -0.4073
  914SOL     OW 3653   2.717   1.747   3.041  0.5280 -0.0716 -0.2402
  914SOL    HW1 3654   2.730   1.830   2.989 -1.2745  3.5277  0.2538
  914SOL    HW2 3655   2.630   1.714   3.015 -3.4233 -0.4521 -0.5455
  914SOL     MW 3656   2.707   1.754   3.031 -0.2311  0.3531 -0.2153
  915SOL     OW 3657   1.688   0.221   0.232 -0.2064 -0.1709  0.2852
  915SOL    HW1 3658   1.767   0.168   0.258 -0.6121 -2.4116  1.7541
  915SOL    HW2 3659   1.617   0.152   0.233  0.1018  1.3013  3.9789
  915SOL     MW 3660   1.689   0.205   0.236 -0.2193 -0.2723  0.9664
  916SOL     OW 3661   1.826   2.120   1.930  0.6738  0.3677  0.2038
  916SOL    HW1 3662   1.838   2.211   1.903 -1.2689 -0.1913  1.5277
  916SOL    HW2 3663   1.856   2.068   1.856 -1.4056 -1.0051  0.5400
  916SOL     MW 3664   1.831   2.125   1.917  0.1431  0.1128  0.4228
  917SOL     OW 3665   2.497   2.216   2.508 -0.5296 -0.2837  0.1625
  917SOL    HW1 3666   2.473   2.253   2.596  0.1792 -1.3953  1.3779
  917SOL    HW2 3667   2.583   2.250   2.476 -0.2750 -1.5321 -0.6622
  917SOL     MW 3668   2.505   2.226   2.515 -0.4025 -0.5951  0.2140
  918SOL     OW 3669   1.984   1.608   2.714  0.0315  0.5610 -0.2548
  918SOL    HW1 3670   1.907   1.643   2.668  0.6639 -0.1687  1.5987
  918SOL    HW2 3671   2.058   1.654   2.679 -1.3170 -1.2028 -1.1030
  918SOL     MW 3672   1.983   1.619   2.704 -0.0630  0.2320 -0.1222
  919SOL     OW 3673   3.077   2.334   2.264  0.2510  0.5403 -0.0691
  919SOL    HW1 3674   3.013   2.275   2.221  2.9025  1.0876  0.3175
  919SOL    HW2 3675   3.126   2.376   2.192 -2.2026 -1.6830  3.0023
  919SOL     MW 3676   3.075   2.332   2.249  0.2771  0.3192  0.3871
  920SOL     OW 3677   2.705   2.874   0.002 -0.1483  0.2077  0.0594
  920SOL    HW1 3678   2.633   2.914   0.051 -0.3501 -0.7300  0.5175
  920SOL    HW2 3679   2.658   2.823  -0.072 -0.4491  0.0100 -1.1465
  920SOL     MW 3680   2.689   2.873  -0.001 -0.2146  0.0579 -0.0392
  921SOL     OW 3681   2.424   2.577   2.646 -0.0547  0.2068  0.0482
  921SOL    HW1 3682   2.496   2.594   2.591 -2.0139  1.6609 -0.4780
  921SOL    HW2 3683   2.452   2.510   2.697  1.3695  3.2572 -1.2744
  921SOL     MW 3684   2.437   2.571   2.645 -0.1253  0.8011 -0.1958
  922SOL     OW 3685   2.017   2.850   0.291 -0.5184 -0.2356  0.0280
  922SOL    HW1 3686   2.017   2.861   0.194 -0.2087 -0.1129  0.3598
  922SOL    HW2 3687   2.032   2.756   0.308  0.8421  1.3375 -1.7356
  922SOL     MW 3688   2.019   2.839   0.280 -0.2980 -0.0119 -0.1609
  923SOL     OW 3689   2.165   2.851   1.700  0.3090  0.1914  0.6463
  923SOL    HW1 3690   2.212   2.789   1.644  1.2275 -0.5413  2.7912
  923SOL    HW2 3691   2.138   2.923   1.644  2.3950  0.2322 -0.7990
  923SOL     MW 3692   2.167   2.852   1.685  0.7054  0.1001  0.7386
  924SOL     OW 3693   1.125   2.689   2.520  0.0984  0.2038 -0.0520
  924SOL    HW1 3694   1.206   2.742   2.525  0.2139  3.0141 -2.5017
  924SOL    HW2 3695   1.124   2.613   2.573 -1.6434  1.2972 -1.1606
  924SOL     MW 3696   1.135   2.686   2.528 -0.1162  0.7189 -0.5215
  925SOL     OW 3697   3.064   0.179   2.622  0.1448 -0.0842 -0.8019
  925SOL    HW1 3698   2.997   0.194   2.553  0.8339 -0.6419  0.7566
  925SOL    HW2 3699   3.041   0.245   2.691  1.6346  0.2498  3.4351
  925SOL     MW 3700   3.052   0.190   2.622  0.4323 -0.1137 -0.0373
  926SOL     OW 3701   2.712   2.411   2.048  0.4820  0.0132  0.1651
  926SOL    HW1 3702   2.744   2.489   2.092 -2.3394 -1.2228  2.0020
  926SOL    HW2 3703   2.766   2.405   1.965  1.9514 -0.2876 -0.5319
  926SOL     MW 3704   2.723   2.421   2.043  0.3036 -0.1895  0.3155
  927SOL     OW 3705   2.336   0.119   0.316 -0.3570 -0.0608  0.0820
  927SOL    HW1 3706   2.425   0.139   0.321 -0.6619  0.4228 -0.5758
  927SOL    HW2 3707   2.324   0.082   0.224 -0.9709  1.2159  1.3439
  927SOL     MW 3708   2.346   0.117   0.304 -0.4782  0.1715  0.1617
  928SOL     OW 3709   2.174   2.389   1.783  0.6049 -0.1255 -0.3554
  928SOL    HW1 3710   2.207   2.455   1.730 -3.4698 -1.5504 -3.4139
  928SOL    HW2 3711   2.196   2.306   1.742 -0.2347  0.3844  0.3994
  928SOL     MW 3712   2.181   2.387   1.771 -0.0435 -0.2462 -0.6594
  929SOL     OW 3713   2.755   2.351   2.450  0.0856 -0.8404  0.0546
  929SOL    HW1 3714   2.821   2.340   2.379 -0.1387 -0.1627 -0.3293
  929SOL    HW2 3715   2.806   2.334   2.529 -0.3144  0.3376  1.2072
  929SOL     MW 3716   2.770   2.347   2.451  0.0032 -0.5956  0.1560
  930SOL     OW 3717   2.010   2.853   2.743 -0.2043  0.0174  0.0606
  930SOL    HW1 3718   2.049   2.766   2.757  0.5272 -2.0594 -0.2140
  930SOL    HW2 3719   2.088   2.911   2.730  2.2211  1.4311 -1.3730
  930SOL     MW 3720   2.026   2.849   2.743  0.2122 -0.0701 -0.1648
  931SOL     OW 3721   3.029   2.727   2.366  0.0249 -0.3358  0.0993
  931SOL    HW1 3722   3.066   2.734   2.455 -1.9626 -0.9222  1.6985
  931SOL    HW2 3723   3.103   2.720   2.302 -2.1015 -0.9411  0.7605
  931SOL     MW 3724   3.044   2.727   2.369 -0.5179 -0.4930  0.3976
  932SOL     OW 3725   2.917   1.947   2.536  0.5341 -0.1898 -0.6180
  932SOL    HW1 3726   3.004   1.983   2.526 -0.8993 -0.8991 -0.7092
  932SOL    HW2 3727   2.864   1.980   2.461  0.6435 -1.3054 -1.2858
  932SOL     MW 3728   2.921   1.956   2.525  0.3594 -0.4306 -0.7181
  933SOL     OW 3729   2.069   2.817   2.252 -0.0689 -0.8434 -0.3435
  933SOL    HW1 3730   2.142   2.872   2.282  0.3035  0.7291  3.4171
  933SOL    HW2 3731   1.988   2.874   2.245 -2.3076  1.5561  1.5978
  933SOL     MW 3732   2.068   2.832   2.255 -0.3151 -0.3193  0.4088
  934SOL     OW 3733   2.026   2.731   2.499 -0.4050  0.4970 -0.9489
  934SOL    HW1 3734   2.022   2.791   2.574  0.5362  2.3591 -1.1465
  934SOL    HW2 3735   2.044   2.783   2.418  1.1604  3.1021  1.6685
  934SOL     MW 3736   2.028   2.746   2.498 -0.0743  1.0864 -0.6296
  935SOL     OW 3737   2.693   1.522   1.834 -0.0621  0.6408  0.6235
  935SOL    HW1 3738   2.775   1.522   1.791  0.8339 -0.8295  1.8688
  935SOL    HW2 3739   2.649   1.522   1.753  3.8031  0.1510 -0.2198
  935SOL     MW 3740   2.698   1.522   1.817  0.5661  0.3822  0.6765
  936SOL     OW 3741   3.002   2.218   3.075 -0.5328  0.1527  0.4090
  936SOL    HW1 3742   3.062   2.258   3.139 -0.2485  1.5994 -2.2576
  936SOL    HW2 3743   2.910   2.247   3.082 -1.1401  0.9399 -0.9809
  936SOL     MW 3744   2.998   2.227   3.084 -0.5754  0.4474 -0.1262
  937SOL     OW 3745   1.959   2.138   2.605  0.2925  0.2136  0.3383
  937SOL    HW1 3746   2.038   2.105   2.657  0.0052 -0.3568 -0.3440
  937SOL    HW2 3747   1.955   2.085   2.524  1.0377 -2.2551 -0.3193
  937SOL     MW 3748   1.969   2.127   2.601  0.3529 -0.1874  0.1615
  938SOL     OW 3749   2.301   1.796   1.956 -0.1846  0.0918 -1.1401
  938SOL    HW1 3750   2.307   1.815   1.862  0.4017 -0.8117 -0.3625
  938SOL    HW2 3751   2.300   1.877   2.006  0.7133  0.6238  0.8046
  938SOL     MW 3752   2.302   1.809   1.950  0.0112  0.0428 -0.7809
  939SOL     OW 3753   2.754   1.991   2.301  0.5226 -0.0553 -0.4863
  939SOL    HW1 3754   2.786   1.916   2.255 -0.1704  1.8490 -0.8203
  939SOL    HW2 3755   2.650   1.988   2.300 -2.2422  0.4043  1.3658
  939SOL     MW 3756   2.745   1.981   2.295  0.0664  0.2566 -0.2860
  940SOL     OW 3757   2.279   0.168   2.694  0.0065 -0.2125 -0.6179
  940SOL    HW1 3758   2.271   0.078   2.667 -0.6510 -0.8948  2.0983
  940SOL    HW2 3759   2.324   0.186   2.782 -0.2255  0.3749  1.2494
  940SOL     MW 3760   2.284   0.158   2.702 -0.1108 -0.2250 -0.0131
  941SOL     OW 3761   0.121   2.459   2.057 -0.4133 -0.1984 -0.1096
  941SOL    HW1 3762   0.197   2.419   2.086 -1.0265  3.1161 -0.1853
  941SOL    HW2 3763   0.130   2.452   1.959 -0.6006  0.8119 -1.8183
  941SOL     MW 3764   0.132   2.453   2.048 -0.5189  0.3722 -0.3450
  942SOL     OW 3765   2.840   2.214   2.170 -0.5332  0.1257  0.0281
  942SOL    HW1 3766   2.772   2.275   2.145 -1.3247 -1.8686 -2.2706
  942SOL    HW2 3767   2.802   2.145   2.220 -1.4202  2.5088 -0.9935
  942SOL     MW 3768   2.826   2.213   2.173 -0.7547  0.1770 -0.4100
  943SOL     OW 3769   0.280   2.095   2.276 -0.0621 -0.5341 -0.2330
  943SOL    HW1 3770   0.238   2.144   2.342  0.6977  1.2337 -0.9000
  943SOL    HW2 3771   0.372   2.085   2.306 -1.5036 -1.2936  0.3327
  943SOL     MW 3772   0.286   2.100   2.289 -0.1520 -0.4011 -0.2464
  944SOL     OW 3773   2.085   2.659   2.017  0.2281  0.3205 -0.4576
  944SOL    HW1 3774   2.145   2.596   2.050 -0.8244  0.9012 -1.6738
  944SOL    HW2 3775   2.075   2.704   2.104  0.5415 -0.2017  0.6286
  944SOL     MW 3776   2.091   2.656   2.032  0.1306  0.3282 -0.4748
  945SOL     OW 3777   2.675   2.695   2.891  0.3402  0.2939 -0.5343
  945SOL    HW1 3778   2.654   2.603   2.873  1.5382 -2.0210  0.3311
  945SOL    HW2 3779   2.728   2.729   2.820  2.1062 -0.4780  1.6644
  945SOL     MW 3780   2.679   2.687   2.880  0.7312 -0.1134 -0.1300
  946SOL     OW 3781   2.476   2.678   2.249  0.1876  0.0467 -0.6592
  946SOL    HW1 3782   2.510   2.732   2.173 -1.8990 -0.3228  2.1377
  946SOL    HW2 3783   2.416   2.615   2.200 -1.8652 -1.8096 -0.9824
  946SOL     MW 3784   2.472   2.677   2.232 -0.3586 -0.2470 -0.3328
  947SOL     OW 3785   1.913   0.078   0.301  0.1533  0.4290 -0.5008
  947SOL    HW1 3786   1.889  -0.016   0.285 -0.8648 -4.1346  0.7023
  947SOL    HW2 3787   1.990   0.068   0.359  1.8887  0.7945 -0.2250
  947SOL     MW 3788   1.920   0.064   0.306  0.2480 -0.1249 -0.3057
  948SOL     OW 3789   1.794   3.028   2.710  0.1437  0.0638  0.0444
  948SOL    HW1 3790   1.854   2.952   2.722 -0.3288 -1.5882  0.0934
  948SOL    HW2 3791   1.800   3.049   2.611 -0.2639  0.2696  0.7552
  948SOL     MW 3792   1.802   3.021   2.699  0.0276 -0.1270  0.1446
  949SOL     OW 3793   2.481   1.918   2.268  0.5576 -0.2320  0.1187
  949SOL    HW1 3794   2.483   1.822   2.274 -1.3950 -3.2077 -1.5200
  949SOL    HW2 3795   2.405   1.941   2.319  0.3470  0.4577 -1.3421
  949SOL     MW 3796   2.471   1.908   2.276  0.2722 -0.5336 -0.2902
  950SOL     OW 3797   2.324   2.503   2.912  0.1878 -0.1146  0.0857
  950SOL    HW1 3798   2.359   2.425   2.868  2.1564  0.6622  1.2912
  950SOL    HW2 3799   2.248   2.536   2.854 -0.4088 -0.0731 -2.9324
  950SOL     MW 3800   2.319   2.497   2.898  0.3688 -0.0067 -0.1535
  951SOL     OW 3801   3.011   2.080   2.828  0.2462  0.3522 -0.0327
  951SOL    HW1 3802   2.994   2.116   2.919  0.3126  0.3050 -0.5913
  951SOL    HW2 3803   3.081   2.017   2.832  1.4258  3.2386  1.4127
  951SOL     MW 3804   3.018   2.076   2.841  0.4106  0.7268  0.0843
  952SOL     OW 3805   3.023   1.688   2.182 -0.0642 -0.2812  0.0418
  952SOL    HW1 3806   2.940   1.708   2.142  1.6804 -0.8417  0.0880
  952SOL    HW2 3807   3.069   1.771   2.203 -0.4866 -0.4830  2.2084
  952SOL     MW 3808   3.018   1.701   2.180  0.1103 -0.3818  0.3337
  953SOL     OW 3809   1.896   1.764   2.907  0.1115 -0.0676  0.0551
  953SOL    HW1 3810   1.824   1.713   2.950 -1.5391  0.4242  1.1856
  953SOL    HW2 3811   1.935   1.701   2.845  4.5356 -0.9925 -1.2274
  953SOL     MW 3812   1.891   1.749   2.904  0.4774 -0.1248  0.0350
  954SOL     OW 3813   2.369   2.084   2.870 -0.2208 -0.3211 -0.4130
  954SOL    HW1 3814   2.294   2.052   2.823  2.2502  4.2372 -1.1160
  954SOL    HW2 3815   2.451   2.043   2.820  0.1531  0.4563 -4.4322
  954SOL     MW 3816   2.370   2.074   2.857  0.1546  0.3829 -1.0361
  955SOL     OW 3817   1.563   1.575   2.564  0.0386  0.1391  0.0682
  955SOL    HW1 3818   1.544   1.593   2.473 -1.6120  0.4427  2.0521
  955SOL    HW2 3819   1.641   1.631   2.592  0.9456 -3.1173  1.1400
  955SOL     MW 3820   1.571   1.585   2.555 -0.0595 -0.2505  0.4714
  956SOL     OW 3821   2.685   2.410   2.835 -0.1504 -0.5372  0.5123
  956SOL    HW1 3822   2.713   2.403   2.929  0.6709  0.1419 -2.2525
  956SOL    HW2 3823   2.768   2.404   2.791  3.4015  1.0972  0.5624
  956SOL     MW 3824   2.700   2.408   2.842  0.4266 -0.2320  0.1541
  957SOL     OW 3825   2.299   2.838   0.394 -0.1979  0.5216  0.2248
  957SOL    HW1 3826   2.224   2.852   0.333 -1.5481 -2.1781  0.8460
  957SOL    HW2 3827   2.269   2.777   0.468 -2.4992 -1.0086  1.8608
  957SOL     MW 3828   2.285   2.832   0.396 -0.6797 -0.0365  0.5227
  958SOL     OW 3829   2.090   2.591   2.796 -0.3861 -0.5456  0.6230
  958SOL    HW1 3830   2.051   2.515   2.751  0.5410 -3.5032 -0.7674
  958SOL    HW2 3831   2.038   2.603   2.881  2.8698  2.0737  0.5803
  958SOL     MW 3832   2.078   2.583   2.801  0.1658 -0.5903  0.4339
  959SOL     OW 3833   2.522   2.646   0.370 -0.1478  0.2553  0.4523
  959SOL    HW1 3834   2.519   2.597   0.289 -2.3507 -0.4397 -2.4754
  959SOL    HW2 3835   2.442   2.698   0.369  1.0418  1.1906  2.5749
  959SOL     MW 3836   2.511   2.646   0.359 -0.2815  0.2870  0.3460
  960SOL     OW 3837   1.920   2.297   2.299 -0.1110  0.0336  0.4363
  960SOL    HW1 3838   1.907   2.208   2.324 -1.9834  0.7489  0.2603
  960SOL    HW2 3839   1.860   2.333   2.360 -0.4151  0.1602 -0.0936
  960SOL     MW 3840   1.910   2.290   2.311 -0.3981  0.1447  0.3432
  961SOL     OW 3841   2.189   2.323   2.298 -0.4977 -0.3343 -0.2200
  961SOL    HW1 3842   2.095   2.321   2.292  0.8015 -0.4016  0.6588
  961SOL    HW2 3843   2.206   2.378   2.374 -1.1100  0.3985  1.5312
  961SOL     MW 3844   2.179   2.330   2.307 -0.4070 -0.2465  0.1270
  962SOL     OW 3845   2.142   1.989   2.766  0.1529 -0.2201  0.1635
  962SOL    HW1 3846   2.113   1.953   2.849 -1.2470  1.1696  1.5168
  962SOL    HW2 3847   2.153   1.911   2.700  0.8009  0.5469  0.2238
  962SOL     MW 3848   2.139   1.974   2.768  0.0537  0.0645  0.3500
  963SOL     OW 3849   1.822   2.513   2.071 -0.3418 -0.7627  0.1590
  963SOL    HW1 3850   1.878   2.493   2.141 -0.9811  1.7909 -0.6448
  963SOL    HW2 3851   1.869   2.481   1.991  0.6747 -2.0285  0.3162
  963SOL     MW 3852   1.836   2.506   2.070 -0.2920 -0.5928  0.0737
  964SOL     OW 3853   1.762   2.007   2.721  0.8004 -0.2413  0.0650
  964SOL    HW1 3854   1.817   2.068   2.670 -2.8818  1.4065  0.1919
  964SOL    HW2 3855   1.817   1.948   2.772 -0.9627 -1.0720 -2.5471
  964SOL     MW 3856   1.776   2.007   2.721  0.0820 -0.1335 -0.2629
  965SOL     OW 3857   2.237   2.702   0.625 -0.2088 -0.5057  0.5879
  965SOL    HW1 3858   2.242   2.609   0.598  2.2947 -1.3103  2.0287
  965SOL    HW2 3859   2.314   2.711   0.685  0.8644  0.5412 -0.6671
  965SOL     MW 3860   2.248   2.691   0.629  0.2631 -0.4738  0.6124
  966SOL     OW 3861   2.645   2.626   2.468 -0.1329 -0.4219  0.3458
  966SOL    HW1 3862   2.590   2.656   2.386  1.4547 -0.4292  0.4201
  966SOL    HW2 3863   2.681   2.541   2.443  2.9685  4.0863  0.6192
  966SOL     MW 3864   2.642   2.619   2.454  0.4857  0.1720  0.3917
  967SOL     OW 3865   2.782   3.091   2.954 -0.2405  0.2286  0.2616
  967SOL    HW1 3866   2.793   3.019   3.017  0.8893  0.9956  0.5944
  967SOL    HW2 3867   2.705   3.081   2.902  1.9275  0.6779  2.5535
  967SOL     MW 3868   2.773   3.080   2.956  0.1946  0.3891  0.6079
  968SOL     OW 3869   2.968   2.615   2.924  0.1861  0.0105  0.5575
  968SOL    HW1 3870   2.870   2.635   2.921 -2.3246  2.4172  0.5351
  968SOL    HW2 3871   2.995   2.592   2.835  1.1487 -3.3564  2.0128
  968SOL     MW 3872   2.958   2.615   2.912 -0.0181 -0.1162  0.7466
  969SOL     OW 3873   1.611   2.148   1.663 -0.2506 -0.3592  0.0146
  969SOL    HW1 3874   1.659   2.061   1.676 -0.1012 -0.2233  0.5565
  969SOL    HW2 3875   1.575   2.172   1.750  0.7559 -0.9039 -0.1522
  969SOL     MW 3876   1.613   2.140   1.676 -0.0981 -0.4131  0.0641
  970SOL     OW 3877   1.693   1.778   1.957 -0.0961 -0.3029 -0.2629
  970SOL    HW1 3878   1.732   1.691   1.977 -2.9236  1.3148  0.5744
  970SOL    HW2 3879   1.600   1.780   1.948  2.4945  0.8070 -0.8157
  970SOL     MW 3880   1.686   1.767   1.958 -0.1273  0.0570 -0.2254
  971SOL     OW 3881   1.753   0.053   2.436  0.6826  0.4865 -0.1572
  971SOL    HW1 3882   1.800   0.001   2.371  0.5547  0.9483  0.5326
  971SOL    HW2 3883   1.784   0.142   2.426  0.4415  0.2225  0.6217
  971SOL     MW 3884   1.763   0.058   2.426  0.6339  0.5126  0.0365
  972SOL     OW 3885   0.271   2.866   2.464  0.1596 -0.3010 -0.3799
  972SOL    HW1 3886   0.329   2.821   2.525  0.1092 -1.0327 -0.3956
  972SOL    HW2 3887   0.308   2.952   2.468  0.2457  0.5651 -1.7437
  972SOL     MW 3888   0.284   2.872   2.472  0.1643 -0.2833 -0.5619
  973SOL     OW 3889   2.586   0.012   2.110  0.7315  0.5038  0.2926
  973SOL    HW1 3890   2.561  -0.082   2.102 -2.0828 -0.4301  0.9203
  973SOL    HW2 3891   2.597   0.050   2.021  0.0653  0.1041 -0.7745
  973SOL     MW 3892   2.584   0.005   2.097  0.2723  0.3278  0.2346
  974SOL     OW 3893   2.028   0.280   2.692 -0.2664  0.3522  0.0850
  974SOL    HW1 3894   2.120   0.255   2.696  0.3395  1.7793  0.2798
  974SOL    HW2 3895   1.992   0.213   2.750  1.9581  1.3916 -0.1919
  974SOL     MW 3896   2.036   0.268   2.700  0.1070  0.6776  0.0742
  975SOL     OW 3897   2.179   2.518   2.509 -0.0007  0.2320  0.2928
  975SOL    HW1 3898   2.253   2.526   2.565  0.2374 -0.8868 -0.1873
  975SOL    HW2 3899   2.136   2.605   2.512 -0.5603  0.9381  2.6097
  975SOL     MW 3900   2.183   2.531   2.517 -0.0431  0.1775  0.5351
  976SOL     OW 3901   0.255   0.380   1.778  0.4050  0.6850 -0.0708
  976SOL    HW1 3902   0.298   0.315   1.825  0.0921  1.7854  0.1198
  976SOL    HW2 3903   0.176   0.332   1.746 -1.2817  2.0870 -3.1691
  976SOL     MW 3904   0.250   0.365   1.780  0.1411  1.0152 -0.4544
  977SOL     OW 3905   1.761   2.684   2.550 -0.0542 -0.1962 -0.0430
  977SOL    HW1 3906   1.738   2.594   2.533 -0.7094  2.9339  0.7701
  977SOL    HW2 3907   1.854   2.689   2.523  1.4547  1.9084 -0.3769
  977SOL     MW 3908   1.770   2.673   2.545  0.0584  0.4945  0.0202
   3.10000   3.10000   3.10000
