977 TIP4P/2005f water molecules t=   1.33000 step= 1330
 3908
    1SOL     OW    1   0.362   0.847   0.036  0.1760  0.0382 -0.1317
    1SOL    HW1    2   0.380   0.875  -0.056 -0.5265  0.6273 -1.7616
    1SOL    HW2    3   0.289   0.781   0.022  0.3972 -0.6488 -0.3185
    1SOL     MW    4   0.355   0.842   0.022  0.1125  0.0253 -0.3714
    2SOL     OW    5   0.346   3.043   1.166  0.0316 -0.3472 -0.4447
    2SOL    HW1    6   0.387   3.109   1.103 -2.8847  0.3244 -1.6757
    2SOL    HW2    7   0.251   3.073   1.169  1.0382 -0.2678  0.2961
    2SOL     MW    8   0.339   3.056   1.158 -0.2204 -0.2481 -0.5094
    3SOL     OW    9   2.608   0.336   0.967  0.1873  0.1404 -0.8717
    3SOL    HW1   10   2.643   0.399   0.913  0.6898 -0.1343  0.2262
    3SOL    HW2   11   2.596   0.379   1.064 -2.1485  1.3999  4.2769
    3SOL     MW   12   2.611   0.350   0.973 -0.0546  0.2703 -0.0476
    4SOL     OW   13   3.062   1.744   0.576 -0.2226 -0.3163  0.1711
    4SOL    HW1   14   2.985   1.791   0.540 -0.0969  3.3971  1.2301
    4SOL    HW2   15   3.129   1.731   0.508  1.3301  0.0832  0.3991
    4SOL     MW   16   3.061   1.749   0.563 -0.0011  0.2263  0.3409
    5SOL     OW   17   1.658   1.528   0.575  0.4331  0.3504  0.5902
    5SOL    HW1   18   1.696   1.475   0.648 -0.7278  1.1067 -0.3014
    5SOL    HW2   19   1.559   1.498   0.582 -2.7713 -1.2265  3.2439
    5SOL     MW   20   1.650   1.517   0.586 -0.1429  0.2422  0.8227
    6SOL     OW   21   0.841   1.383   0.574 -0.2627  0.3530  0.2794
    6SOL    HW1   22   0.746   1.398   0.568 -1.6348  0.4369 -2.2168
    6SOL    HW2   23   0.831   1.304   0.630 -3.7312  1.2480 -1.0734
    6SOL     MW   24   0.827   1.374   0.581 -0.9014  0.4821 -0.2284
    7SOL     OW   25   2.006   1.060   0.006 -0.6581 -0.4081 -0.3834
    7SOL    HW1   26   2.087   1.103  -0.009 -0.1169 -0.3479  0.8735
    7SOL    HW2   27   2.008   1.051   0.103 -1.3005 -0.5671  3.1132
    7SOL     MW   28   2.017   1.065   0.017 -0.6715 -0.4212  0.2437
    8SOL     OW   29   0.822   1.543   1.189 -0.8739 -0.0996 -0.1359
    8SOL    HW1   30   0.912   1.563   1.184 -1.8569 -0.9495 -2.4492
    8SOL    HW2   31   0.829   1.448   1.184  0.2953  1.5317  0.6929
    8SOL     MW   32   0.835   1.533   1.187 -0.8493  0.0035 -0.3317
    9SOL     OW   33   1.022   0.513   1.335 -0.0300 -0.0986 -0.4385
    9SOL    HW1   34   0.968   0.437   1.296  3.2720 -2.5380  1.4587
    9SOL    HW2   35   1.063   0.486   1.420 -0.4178  0.2680  0.8456
    9SOL     MW   36   1.020   0.500   1.341  0.3545 -0.3721 -0.0188
   10SOL     OW   37   0.260   0.785   0.527 -0.0804 -0.0472 -0.0395
   10SOL    HW1   38   0.340   0.828   0.487 -0.2133  0.4252  0.1885
   10SOL    HW2   39   0.254   0.834   0.611 -1.2717 -0.1039  2.0980
   10SOL     MW   40   0.270   0.797   0.533 -0.2551  0.0076  0.2726
   11SOL     OW   41   0.738   1.137   1.590 -0.1229  0.4831 -0.2880
   11SOL    HW1   42   0.800   1.128   1.659 -0.2301 -0.4730 -1.9423
   11SOL    HW2   43   0.730   1.040   1.568  0.4472  0.4039  2.2256
   11SOL     MW   44   0.745   1.123   1.597 -0.0618  0.3465 -0.1746
   12SOL     OW   45   3.053   1.135   0.884 -0.4786  0.5844 -0.3558
   12SOL    HW1   46   3.124   1.191   0.922  1.4070  0.4080 -0.5768
   12SOL    HW2   47   3.025   1.177   0.808 -2.7100 -0.2478 -0.4432
   12SOL     MW   48   3.058   1.148   0.879 -0.5242  0.4514 -0.3965
   13SOL     OW   49   1.858   1.418   1.330 -0.0602  0.0803 -0.5291
   13SOL    HW1   50   1.921   1.367   1.282 -1.6196  1.5996  2.8274
   13SOL    HW2   51   1.878   1.512   1.318 -0.8768  1.4244 -1.7839
   13SOL     MW   52   1.869   1.424   1.322 -0.3737  0.4581 -0.2518
   14SOL     OW   53   0.548   0.315   1.877  0.1521 -0.2534 -0.6873
   14SOL    HW1   54   0.475   0.265   1.851  1.8556  0.5304 -0.6800
   14SOL    HW2   55   0.595   0.304   1.796 -0.9997 -0.2634  0.8808
   14SOL     MW   56   0.544   0.307   1.863  0.2249 -0.1513 -0.4795
   15SOL     OW   57   1.987   0.344   1.046  0.1330 -0.1097 -0.0179
   15SOL    HW1   58   1.971   0.417   1.107 -0.7614 -1.4420  0.3605
   15SOL    HW2   59   2.030   0.385   0.969 -0.3117  0.3572 -1.8207
   15SOL     MW   60   1.991   0.359   1.044 -0.0437 -0.2239 -0.2058
   16SOL     OW   61   0.223   1.829   0.306  0.2581 -0.2515 -0.1200
   16SOL    HW1   62   0.319   1.807   0.303  1.1684 -1.1171 -0.9667
   16SOL    HW2   63   0.217   1.924   0.304 -0.9265 -1.3051  0.8441
   16SOL     MW   64   0.235   1.839   0.306  0.2219 -0.5047 -0.1045
   17SOL     OW   65   1.042   0.893   1.417 -0.1416  0.0766  0.3763
   17SOL    HW1   66   1.075   0.886   1.511  1.1846 -0.3890 -0.0757
   17SOL    HW2   67   0.945   0.888   1.412  0.5189 -0.5847 -0.6614
   17SOL     MW   68   1.034   0.891   1.429  0.1205 -0.0721  0.1798
   18SOL     OW   69   0.105   1.592   0.362  0.6400  0.1271  0.0154
   18SOL    HW1   70   0.143   1.682   0.345 -0.4481  1.4183  1.3504
   18SOL    HW2   71   0.089   1.555   0.278  2.1917 -0.9218  0.8743
   18SOL     MW   72   0.108   1.599   0.348  0.7012  0.1591  0.3049
   19SOL     OW   73   0.104   1.348   0.966  0.4036  0.6150 -0.2549
   19SOL    HW1   74   0.136   1.377   0.882 -1.1459 -1.1547  1.3145
   19SOL    HW2   75   0.011   1.376   0.975  2.5358  0.9060 -0.1533
   19SOL     MW   76   0.096   1.355   0.956  0.4805  0.4199 -0.0344
   20SOL     OW   77   0.412   2.168   1.205 -0.0099 -0.2230 -0.1758
   20SOL    HW1   78   0.392   2.086   1.162 -0.9053 -0.6109 -0.0548
   20SOL    HW2   79   0.397   2.164   1.303  1.6613 -0.1184  1.1501
   20SOL     MW   80   0.407   2.156   1.212  0.0925 -0.2604  0.0151
   21SOL     OW   81   0.485   0.864   0.403 -0.0790  0.4342 -0.3098
   21SOL    HW1   82   0.556   0.834   0.460 -0.2979  0.3187  2.1973
   21SOL    HW2   83   0.533   0.868   0.319 -1.5875  0.5567  0.3824
   21SOL     MW   84   0.500   0.861   0.399 -0.3069  0.4351  0.1123
   22SOL     OW   85   1.533   0.703   0.970 -0.2586 -0.3292 -0.0244
   22SOL    HW1   86   1.497   0.668   0.892  0.6038  0.7977 -2.2125
   22SOL    HW2   87   1.455   0.742   1.011  0.3235  0.0951 -0.3190
   22SOL     MW   88   1.518   0.704   0.965 -0.0680 -0.1245 -0.3519
   23SOL     OW   89   3.075   0.681   0.675 -0.2164  0.2976 -0.5167
   23SOL    HW1   90   3.137   0.626   0.725  0.1477  0.3797  0.6084
   23SOL    HW2   91   3.122   0.763   0.686  0.2021  1.5832  1.2087
   23SOL     MW   92   3.089   0.685   0.683 -0.1132  0.4780 -0.1406
   24SOL     OW   93   2.045   2.225   0.006 -0.0097 -0.0436 -1.1910
   24SOL    HW1   94   2.055   2.233   0.102 -2.0272 -1.8707  0.7713
   24SOL    HW2   95   2.070   2.138  -0.023 -1.4056 -2.7935 -0.2531
   24SOL     MW   96   2.049   2.214   0.015 -0.4600 -0.6475 -0.8083
   25SOL     OW   97   0.244   1.354   0.458  0.6650 -0.4852 -0.9528
   25SOL    HW1   98   0.185   1.426   0.419 -2.4456 -1.4395 -2.5914
   25SOL    HW2   99   0.297   1.326   0.384 -0.3569  1.2848  0.9505
   25SOL     MW  100   0.243   1.360   0.443  0.1197 -0.3776 -0.9178
   26SOL     OW  101   2.058   1.038   0.290 -0.0607  0.2553 -0.0041
   26SOL    HW1  102   1.989   1.094   0.327 -0.1602 -0.4317  0.7473
   26SOL    HW2  103   2.144   1.089   0.298  4.4119 -0.4166 -1.0160
   26SOL     MW  104   2.060   1.052   0.296  0.5163  0.0760 -0.0384
   27SOL     OW  105   1.951   1.439   0.211 -0.5074 -0.5049 -0.6545
   27SOL    HW1  106   1.880   1.506   0.204 -1.7474 -0.7842  1.2908
   27SOL    HW2  107   1.996   1.467   0.293 -0.1592 -2.7642  1.1429
   27SOL     MW  108   1.948   1.452   0.221 -0.6251 -0.8398 -0.1607
   28SOL     OW  109   0.439   1.004   1.995 -0.1782  0.0171  0.1695
   28SOL    HW1  110   0.482   0.989   2.085  1.7813  0.1822  2.1361
   28SOL    HW2  111   0.357   0.949   1.996  0.5563  0.7389 -1.1132
   28SOL     MW  112   0.434   0.994   2.007  0.1772  0.1341  0.2597
   29SOL     OW  113   0.251   1.431   0.744 -0.0235  0.1615 -0.6728
   29SOL    HW1  114   0.256   1.532   0.750 -0.7555  0.4027 -0.3607
   29SOL    HW2  115   0.234   1.411   0.655  1.7081 -1.8568 -0.0313
   29SOL     MW  116   0.249   1.441   0.733  0.1084 -0.0730 -0.5470
   30SOL     OW  117   0.844   1.264   1.242 -0.1778  0.1525 -0.2887
   30SOL    HW1  118   0.755   1.241   1.268  2.4503  1.1973  1.0669
   30SOL    HW2  119   0.914   1.233   1.306  0.1845 -0.4569 -0.6597
   30SOL     MW  120   0.841   1.257   1.254  0.2167  0.2099 -0.1588
   31SOL     OW  121   0.422   0.247   0.189  0.3368 -0.0660 -0.4706
   31SOL    HW1  122   0.427   0.180   0.254  0.2294  2.9071  0.8485
   31SOL    HW2  123   0.424   0.206   0.101 -2.0644  0.7008  0.9856
   31SOL     MW  124   0.423   0.233   0.186  0.0058  0.4275 -0.1044
   32SOL     OW  125   2.686   0.988   1.138 -0.7582  0.1564 -0.4481
   32SOL    HW1  126   2.628   0.918   1.131  1.2466  3.1462 -1.3269
   32SOL    HW2  127   2.775   0.957   1.111 -1.1186  0.7819  1.5837
   32SOL     MW  128   2.690   0.975   1.134 -0.5413  0.6334 -0.2960
   33SOL     OW  129   1.621   1.335   0.385 -0.2800  0.0874  0.0301
   33SOL    HW1  130   1.688   1.263   0.386 -0.6046 -0.6635 -0.7131
   33SOL    HW2  131   1.648   1.402   0.448  1.6263 -0.4674  0.2920
   33SOL     MW  132   1.633   1.334   0.393 -0.0713 -0.0849 -0.0334
   34SOL     OW  133   1.250   1.936   1.101  0.1387  0.2683  0.7670
   34SOL    HW1  134   1.173   1.968   1.143  2.5231 -0.0675 -0.0088
   34SOL    HW2  135   1.323   1.956   1.154  0.9679  1.3018  0.9844
   34SOL     MW  136   1.249   1.943   1.114  0.5627  0.3603  0.6933
   35SOL     OW  137   0.367   0.119   1.803 -0.3378  0.2023  0.0395
   35SOL    HW1  138   0.382   0.058   1.876 -0.4280 -0.7983 -1.4558
   35SOL    HW2  139   0.370   0.064   1.720 -1.2366  0.1484 -0.6083
   35SOL     MW  140   0.370   0.104   1.802 -0.4683  0.0632 -0.2433
   36SOL     OW  141   1.943   1.902   0.572 -0.3060  0.2597 -0.1950
   36SOL    HW1  142   1.927   1.909   0.477 -1.8235  0.8516  0.7574
   36SOL    HW2  143   1.929   1.813   0.600 -1.0280 -1.3220 -0.8165
   36SOL     MW  144   1.939   1.891   0.563 -0.6015  0.1291 -0.1513
   37SOL     OW  145   1.801   2.005   0.971  0.4450 -0.0898 -0.0023
   37SOL    HW1  146   1.740   1.970   0.912 -0.8864  2.3035  2.0434
   37SOL    HW2  147   1.743   2.048   1.029  0.9953  0.2183 -0.3780
   37SOL     MW  148   1.785   2.006   0.970  0.3420  0.2666  0.2180
   38SOL     OW  149   2.819   0.951   0.122 -0.0261 -0.4000 -0.0292
   38SOL    HW1  150   2.845   0.950   0.217 -0.7831 -0.8322 -1.4015
   38SOL    HW2  151   2.896   0.919   0.069 -3.1684  1.2213 -1.9895
   38SOL     MW  152   2.833   0.947   0.128 -0.5405 -0.2431 -0.4689
   39SOL     OW  153   1.448   0.568   0.746  0.5803 -0.3739 -0.1271
   39SOL    HW1  154   1.391   0.497   0.775 -0.2964 -0.8225 -0.0061
   39SOL    HW2  155   1.382   0.637   0.725 -0.3374  0.2318  0.3914
   39SOL     MW  156   1.432   0.568   0.747  0.3435 -0.3531 -0.0427
   40SOL     OW  157   1.220   1.878   0.219  0.7204 -0.3189 -0.5681
   40SOL    HW1  158   1.265   1.805   0.256  2.4565 -0.0610  0.2208
   40SOL    HW2  159   1.215   1.937   0.294 -0.5594  1.3044 -2.7573
   40SOL     MW  160   1.225   1.876   0.234  0.7806 -0.0707 -0.7528
   41SOL     OW  161   0.564   0.475   1.620  0.2405  0.1989  0.9780
   41SOL    HW1  162   0.636   0.518   1.578 -0.1634 -0.2723 -1.3239
   41SOL    HW2  163   0.502   0.541   1.641 -1.7635  3.4073  0.5782
   41SOL     MW  164   0.565   0.489   1.617 -0.0772  0.5600  0.6215
   42SOL     OW  165   1.302   3.006   1.962 -0.4795  0.0918 -0.7752
   42SOL    HW1  166   1.215   2.990   1.993  0.9121  0.3831 -0.4222
   42SOL    HW2  167   1.363   2.939   1.996 -0.4875 -0.4021  0.3860
   42SOL     MW  168   1.299   2.995   1.971 -0.2970  0.0651 -0.5754
   43SOL     OW  169   1.471   0.135   1.629 -0.7938 -0.1668  0.5449
   43SOL    HW1  170   1.552   0.086   1.610  0.4158 -1.1105  0.7565
   43SOL    HW2  171   1.412   0.063   1.652  1.1254  0.3331 -2.3650
   43SOL     MW  172   1.474   0.119   1.630 -0.3810 -0.2254  0.1889
   44SOL     OW  173   1.269   0.757   1.055  0.8121  0.4065  0.3926
   44SOL    HW1  174   1.237   0.851   1.052  0.5790  1.0778 -2.6075
   44SOL    HW2  175   1.270   0.741   1.153  0.6257 -0.6626  1.0757
   44SOL     MW  176   1.265   0.768   1.067  0.7568  0.3540  0.0869
   45SOL     OW  177   1.266   0.754   0.741  0.0094  0.1649  0.2581
   45SOL    HW1  178   1.241   0.766   0.832  1.5417  1.5941  0.0084
   45SOL    HW2  179   1.202   0.707   0.684  2.2731 -0.1135  2.0518
   45SOL     MW  180   1.254   0.749   0.745  0.5102  0.3168  0.4618
   46SOL     OW  181   0.574   1.085   0.590 -0.6334  0.3411  0.2017
   46SOL    HW1  182   0.513   1.082   0.514  0.9386 -0.5056  1.1482
   46SOL    HW2  183   0.659   1.050   0.565  0.3531 -0.3435  2.2109
   46SOL     MW  184   0.577   1.080   0.576 -0.2958  0.1391  0.5917
   47SOL     OW  185   0.211   1.941   1.952 -0.6041  0.4051 -0.2947
   47SOL    HW1  186   0.292   1.903   1.990  0.6357 -1.1562  0.6794
   47SOL    HW2  187   0.141   1.935   2.014 -0.5305  0.0513  1.4194
   47SOL     MW  188   0.213   1.935   1.965 -0.4308  0.1524  0.0600
   48SOL     OW  189   1.103   0.511   1.022  0.7345  0.0448  0.1040
   48SOL    HW1  190   1.019   0.505   1.071 -2.0672 -1.5436 -1.1162
   48SOL    HW2  191   1.150   0.588   1.052  0.7262 -2.7125  0.3131
   48SOL     MW  192   1.098   0.520   1.032  0.3637 -0.5286 -0.0294
   49SOL     OW  193   1.713   0.654   1.520 -0.1644 -0.0881  0.0732
   49SOL    HW1  194   1.705   0.611   1.605  0.4493  0.9069  0.9391
   49SOL    HW2  195   1.776   0.596   1.477 -0.2641 -1.2163 -0.5340
   49SOL     MW  196   1.721   0.641   1.526 -0.0966 -0.1057  0.1073
   50SOL     OW  197   1.244   1.142   0.556  0.1145  0.0334 -0.0698
   50SOL    HW1  198   1.208   1.166   0.641  1.0701 -0.6301  0.5103
   50SOL    HW2  199   1.330   1.097   0.581  0.6465 -0.3872 -0.5194
   50SOL     MW  200   1.251   1.139   0.571  0.3108 -0.1096 -0.0526
   51SOL     OW  201   0.313   2.929   0.910 -0.1440  0.1344 -0.1491
   51SOL    HW1  202   0.401   2.889   0.908 -2.4092 -0.4215 -1.4952
   51SOL    HW2  203   0.322   2.974   0.992 -0.3506 -0.8426  1.1315
   51SOL     MW  204   0.325   2.929   0.921 -0.4702 -0.0679 -0.1577
   52SOL     OW  205   0.800   1.792   0.469  0.0974  0.0968  0.2230
   52SOL    HW1  206   0.766   1.882   0.452 -1.1483  0.3714 -0.7408
   52SOL    HW2  207   0.799   1.742   0.388 -2.0095  0.0578 -0.3372
   52SOL     MW  208   0.795   1.797   0.456 -0.3450  0.1279  0.0219
   53SOL     OW  209   0.420   2.124   0.489 -0.1900 -0.0515  0.3458
   53SOL    HW1  210   0.350   2.120   0.426 -1.0037  0.7687  4.0290
   53SOL    HW2  211   0.432   2.219   0.495  0.2824  0.0444  0.2444
   53SOL     MW  212   0.412   2.136   0.481 -0.2351  0.0694  0.8183
   54SOL     OW  213   2.081   0.936   0.763  0.2144  0.1826 -0.1236
   54SOL    HW1  214   2.111   0.943   0.669  1.8511 -1.2154  1.4253
   54SOL    HW2  215   2.053   0.844   0.769  0.3316 -1.0095 -0.4345
   54SOL     MW  216   2.081   0.925   0.751  0.4458 -0.1592  0.0397
   55SOL     OW  217   0.536   1.598   1.664  0.3851  0.3758  0.4882
   55SOL    HW1  218   0.489   1.622   1.582 -0.7524 -1.8862 -3.9958
   55SOL    HW2  219   0.580   1.512   1.666 -2.0210  0.2754  2.1166
   55SOL     MW  220   0.536   1.590   1.653 -0.0825  0.0641  0.1114
   56SOL     OW  221   0.627   0.869   0.150 -0.5338  0.4341 -0.5081
   56SOL    HW1  222   0.636   0.952   0.104  1.0470 -1.0309  0.8487
   56SOL    HW2  223   0.542   0.836   0.126 -1.7128 -0.1214 -0.5503
   56SOL     MW  224   0.617   0.876   0.141 -0.4808  0.1675 -0.3346
   57SOL     OW  225   1.195   1.210   1.176 -0.3387 -0.0302 -0.0935
   57SOL    HW1  226   1.288   1.214   1.195 -0.2446 -2.5584  1.5995
   57SOL    HW2  227   1.146   1.185   1.261 -1.1630 -0.2594  2.5510
   57SOL     MW  228   1.201   1.207   1.190 -0.4350 -0.3941  0.4788
   58SOL     OW  229   0.518   1.211   1.297  0.0494  0.4792  0.1113
   58SOL    HW1  230   0.484   1.300   1.284 -1.5809  0.8072 -0.3984
   58SOL    HW2  231   0.530   1.215   1.393  1.6025  0.1062 -0.9576
   58SOL     MW  232   0.515   1.223   1.308  0.0392  0.4733 -0.0970
   59SOL     OW  233   1.513   1.688   0.309  0.0708 -0.1256  0.2021
   59SOL    HW1  234   1.547   1.728   0.389  1.5411  1.4166  0.1947
   59SOL    HW2  235   1.433   1.651   0.341 -1.7012 -0.5396 -1.2069
   59SOL     MW  236   1.507   1.689   0.324  0.0310  0.0232  0.0152
   60SOL     OW  237   3.093   0.226   1.678  0.1861  0.0112  0.2767
   60SOL    HW1  238   3.002   0.263   1.710 -3.0078  0.7605  1.6437
   60SOL    HW2  239   3.117   0.148   1.725 -0.9433 -2.3572  1.2145
   60SOL     MW  240   3.084   0.220   1.688 -0.3843 -0.2025  0.5808
   61SOL     OW  241   1.976   1.374   3.066 -0.0843  0.7832 -0.0045
   61SOL    HW1  242   1.980   1.383   3.165  0.0285 -1.3090 -1.6301
   61SOL    HW2  243   2.028   1.288   3.050 -0.3055 -0.9640  1.5828
   61SOL     MW  244   1.983   1.364   3.077 -0.0986  0.2767 -0.0096
   62SOL     OW  245   0.542   1.706   0.521 -0.2037  0.0043 -0.0438
   62SOL    HW1  246   0.638   1.729   0.539  4.8888  2.7671 -1.2587
   62SOL    HW2  247   0.518   1.621   0.548 -1.1361  0.9650  0.1196
   62SOL     MW  248   0.551   1.698   0.527  0.3452  0.4956 -0.1825
   63SOL     OW  249   1.709   0.642   0.694 -0.4493  0.3577 -0.5538
   63SOL    HW1  250   1.720   0.733   0.662  1.3591 -0.0690  0.7056
   63SOL    HW2  251   1.615   0.631   0.711 -0.8112 -0.2451 -1.0123
   63SOL     MW  252   1.698   0.653   0.692 -0.2584  0.2219 -0.4481
   64SOL     OW  253   0.310   1.695   0.768  0.3638 -0.2569 -0.3093
   64SOL    HW1  254   0.339   1.782   0.728 -0.8479 -0.8624 -2.5635
   64SOL    HW2  255   0.250   1.729   0.833 -2.4571  0.9873 -3.3382
   64SOL     MW  256   0.306   1.711   0.771 -0.1683 -0.1726 -1.0063
   65SOL     OW  257   1.579   2.331   0.407  0.0548  0.1766 -0.3173
   65SOL    HW1  258   1.670   2.361   0.402  0.7111  0.9080  0.1986
   65SOL    HW2  259   1.539   2.371   0.488 -3.3521  0.6886 -1.0042
   65SOL     MW  260   1.586   2.340   0.417 -0.3081  0.3407 -0.3399
   66SOL     OW  261   0.333   0.533   0.469  0.3963 -0.2079  0.4928
   66SOL    HW1  262   0.397   0.543   0.398 -1.8957 -1.9205 -2.0722
   66SOL    HW2  263   0.302   0.626   0.496 -1.2298  0.0775  0.2049
   66SOL     MW  264   0.337   0.546   0.463 -0.1206 -0.3962  0.1164
   67SOL     OW  265   1.465   0.140   1.994  0.1235  0.0917 -0.1071
   67SOL    HW1  266   1.490   0.164   1.908  0.0549  2.4207  0.6857
   67SOL    HW2  267   1.416   0.059   1.979 -3.0889  2.1965  0.5235
   67SOL     MW  268   1.462   0.132   1.981 -0.3094  0.6767  0.0807
   68SOL     OW  269   0.777   0.046   2.943  0.5612 -0.3495 -0.0970
   68SOL    HW1  270   0.770   0.116   2.880  0.1923  0.2063 -0.4957
   68SOL    HW2  271   0.854   0.071   2.988  1.9463  1.7677  1.8635
   68SOL     MW  272   0.786   0.059   2.940  0.6953  0.0032  0.1091
   69SOL     OW  273   0.957   0.198   1.955  0.4205  0.3546 -0.0392
   69SOL    HW1  274   1.051   0.182   1.976 -1.5521 -1.1289  2.4365
   69SOL    HW2  275   0.908   0.116   1.971 -0.7938 -1.5483 -1.5030
   69SOL     MW  276   0.963   0.185   1.960  0.0000 -0.0922  0.0943
   70SOL     OW  277   0.522   1.712   1.123 -0.4499 -0.1730 -0.6665
   70SOL    HW1  278   0.594   1.751   1.169 -2.6215 -0.6497  1.5487
   70SOL    HW2  279   0.564   1.675   1.044 -1.1353 -1.6141 -0.6463
   70SOL     MW  280   0.537   1.712   1.119 -0.8269 -0.4261 -0.3716
   71SOL     OW  281   1.552   0.527   1.167  0.0682  0.5058 -0.5729
   71SOL    HW1  282   1.525   0.586   1.238  1.8124  3.0422 -3.4191
   71SOL    HW2  283   1.535   0.573   1.086  0.4022  0.2278 -1.9997
   71SOL     MW  284   1.546   0.541   1.166  0.3424  0.8038 -1.1367
   72SOL     OW  285   0.795   1.850   0.994 -0.3654 -0.0130 -0.0668
   72SOL    HW1  286   0.745   1.896   0.925  1.0512  0.0615 -0.9422
   72SOL    HW2  287   0.772   1.758   0.984 -0.3626 -1.0295 -3.6715
   72SOL     MW  288   0.785   1.844   0.983 -0.1781 -0.1373 -0.6579
   73SOL     OW  289   1.212   0.705   1.310  0.5868 -0.7532 -0.1388
   73SOL    HW1  290   1.149   0.637   1.307  3.9815 -2.9338 -0.9495
   73SOL    HW2  291   1.159   0.774   1.351  0.2875  0.3615  1.2977
   73SOL     MW  292   1.197   0.705   1.315  0.9952 -0.8939 -0.0563
   74SOL     OW  293   2.849   0.272   1.108  0.6899 -0.5188 -0.4284
   74SOL    HW1  294   2.905   0.351   1.104  0.5636  2.2245 -1.4895
   74SOL    HW2  295   2.785   0.277   1.040  0.7607  0.4736  0.0140
   74SOL     MW  296   2.848   0.283   1.099  0.6825 -0.0259 -0.5101
   75SOL     OW  297   1.590   1.358   0.102 -0.2018 -0.4039  0.1220
   75SOL    HW1  298   1.670   1.307   0.076 -0.6397  0.6911  0.0076
   75SOL    HW2  299   1.611   1.377   0.196  0.2963 -1.6032 -1.0572
   75SOL     MW  300   1.603   1.354   0.111 -0.1939 -0.4176 -0.0487
   76SOL     OW  301   2.967   0.607   0.440  0.1941  0.2116  0.0599
   76SOL    HW1  302   3.005   0.630   0.529 -2.5126  1.1682  1.2868
   76SOL    HW2  303   3.036   0.548   0.407  0.5275  0.8972  0.7289
   76SOL     MW  304   2.981   0.602   0.447 -0.1190  0.4283  0.3101
   77SOL     OW  305   0.841   0.552   0.469  0.4586  0.0539 -0.1680
   77SOL    HW1  306   0.801   0.576   0.383  2.9871  0.4805 -1.2245
   77SOL    HW2  307   0.833   0.453   0.478  1.9697 -0.5811 -1.0310
   77SOL     MW  308   0.835   0.542   0.459  0.9916  0.0264 -0.4212
   78SOL     OW  309   0.737   0.832   1.177  0.7985  0.2630 -0.1558
   78SOL    HW1  310   0.773   0.890   1.116 -0.0630 -0.3572  0.5580
   78SOL    HW2  311   0.638   0.821   1.160 -1.0921 -4.1198  0.9738
   78SOL     MW  312   0.729   0.838   1.167  0.4354 -0.3971  0.0874
   79SOL     OW  313   1.894   1.626   0.631 -0.2647 -0.3256 -0.1964
   79SOL    HW1  314   1.801   1.640   0.607  1.5787  0.6552 -0.6023
   79SOL    HW2  315   1.914   1.643   0.726  1.3420 -0.2727  0.5279
   79SOL     MW  316   1.884   1.630   0.641  0.1905 -0.1892 -0.1544
   80SOL     OW  317   0.078   0.943   0.357  0.4828  0.2193 -0.1835
   80SOL    HW1  318  -0.015   0.916   0.363 -1.6555  2.7156  1.0482
   80SOL    HW2  319   0.125   0.886   0.415 -2.3467  2.6509  2.8965
   80SOL     MW  320   0.072   0.932   0.366 -0.1727  0.8695  0.3854
   81SOL     OW  321   1.857   1.912   0.313 -0.1419 -0.4207  0.1714
   81SOL    HW1  322   1.842   1.825   0.262 -1.3632 -0.8674  1.3802
   81SOL    HW2  323   1.784   1.970   0.280  2.3557 -0.7702  2.0947
   81SOL     MW  324   1.845   1.908   0.302  0.0265 -0.5257  0.5847
   82SOL     OW  325   0.823   1.024   0.499  0.6403  0.1515  0.0301
   82SOL    HW1  326   0.826   1.043   0.402  1.4906 -0.5875  0.5632
   82SOL    HW2  327   0.794   0.928   0.494 -1.2666 -1.3743 -1.2805
   82SOL     MW  328   0.819   1.014   0.485  0.5009 -0.1473 -0.0725
   83SOL     OW  329   0.043   0.748   1.492  0.2876  0.1718  0.2738
   83SOL    HW1  330   0.072   0.786   1.406 -2.2911 -1.0394 -0.9179
   83SOL    HW2  331   0.117   0.703   1.535 -0.0969 -0.1852  3.6954
   83SOL     MW  332   0.056   0.747   1.486 -0.1034 -0.0351  0.5680
   84SOL     OW  333   0.034   0.188   0.899  0.1026  0.3024 -0.1494
   84SOL    HW1  334   0.018   0.278   0.918 -1.7330  0.2687  2.3551
   84SOL    HW2  335   0.033   0.143   0.983  0.4865 -1.3670 -0.0928
   84SOL     MW  336   0.032   0.194   0.913 -0.0889  0.0777  0.1885
   85SOL     OW  337   0.419   0.453   0.704 -0.5060 -0.1643 -0.1716
   85SOL    HW1  338   0.392   0.465   0.618  0.2112 -0.3057  0.5868
   85SOL    HW2  339   0.405   0.358   0.728 -0.3855 -0.8084  0.8057
   85SOL     MW  340   0.414   0.442   0.696 -0.3954 -0.2679  0.0574
   86SOL     OW  341   1.214   0.248   1.126 -0.3073  0.2260 -0.3250
   86SOL    HW1  342   1.179   0.332   1.109 -0.3627 -0.3999  3.9245
   86SOL    HW2  343   1.286   0.250   1.190 -2.0500 -1.9037 -1.8934
   86SOL     MW  344   1.219   0.259   1.132 -0.5446 -0.1376  0.0287
   87SOL     OW  345   1.125   1.485   1.213 -0.5413 -0.3534 -0.0955
   87SOL    HW1  346   1.153   1.538   1.135 -2.1257  0.5041 -0.2280
   87SOL    HW2  347   1.129   1.395   1.190  0.0097  2.9041  0.8728
   87SOL     MW  348   1.129   1.480   1.200 -0.6776  0.1896  0.0148
   88SOL     OW  349   1.197   1.019   0.993  0.3408 -0.8244  0.2874
   88SOL    HW1  350   1.291   1.031   0.971  0.6077 -0.7641  1.0733
   88SOL    HW2  351   1.191   1.095   1.063  3.2128  0.8643  0.3714
   88SOL     MW  352   1.209   1.031   0.999  0.7549 -0.5936  0.4022
   89SOL     OW  353   1.737   0.736   0.332  0.3179 -0.3130  0.3063
   89SOL    HW1  354   1.731   0.643   0.348 -0.0438 -0.8234  0.8458
   89SOL    HW2  355   1.832   0.754   0.314  2.2871 -0.0534 -1.8984
   89SOL     MW  356   1.749   0.726   0.332  0.5300 -0.3461  0.0866
   90SOL     OW  357   0.820   1.156   2.874 -0.0651  0.0502  0.6110
   90SOL    HW1  358   0.799   1.063   2.871 -2.1798  0.5674  0.0922
   90SOL    HW2  359   0.831   1.184   2.968  0.7988  0.3023  0.8448
   90SOL     MW  360   0.819   1.147   2.886 -0.2301  0.1517  0.5734
   91SOL     OW  361   2.168   0.681   0.523 -0.0806 -0.3828 -0.3518
   91SOL    HW1  362   2.237   0.732   0.476  1.6466  1.0114 -3.0113
   91SOL    HW2  363   2.172   0.593   0.472 -0.0766 -2.9781 -0.5989
   91SOL     MW  364   2.178   0.676   0.510  0.1478 -0.5412 -0.7353
   92SOL     OW  365   1.719   0.893   0.588 -0.8773  0.1640  0.3134
   92SOL    HW1  366   1.635   0.923   0.624 -2.3675  0.1979 -0.8748
   92SOL    HW2  367   1.701   0.845   0.503  0.8490 -0.6716  0.3579
   92SOL     MW  368   1.706   0.891   0.582 -0.8461  0.0582  0.1625
   93SOL     OW  369   1.136   0.160   0.423 -0.1206 -0.3020  0.3797
   93SOL    HW1  370   1.053   0.205   0.429 -0.4128  1.9941 -1.1421
   93SOL    HW2  371   1.177   0.209   0.352  1.2116 -1.0775  0.9039
   93SOL     MW  372   1.131   0.172   0.414  0.0166 -0.1014  0.2481
   94SOL     OW  373   1.873   1.380   1.588 -0.1609 -0.2960 -0.5211
   94SOL    HW1  374   1.872   1.387   1.489  0.1184  0.9466  1.6901
   94SOL    HW2  375   1.821   1.300   1.610 -0.5152  1.1293  0.0832
   94SOL     MW  376   1.866   1.370   1.578 -0.1708  0.0560 -0.1496
   95SOL     OW  377   0.699   1.595   0.935 -0.0081  0.5072  0.1602
   95SOL    HW1  378   0.742   1.554   1.011 -0.5385  1.0134 -0.1016
   95SOL    HW2  379   0.630   1.530   0.914  0.5441  1.6832 -1.5013
   95SOL     MW  380   0.695   1.581   0.942 -0.0052  0.7292 -0.0936
   96SOL     OW  381   1.332   1.892   1.728 -0.1253 -0.6795  0.1118
   96SOL    HW1  382   1.237   1.872   1.744 -1.8183 -1.7308  0.2762
   96SOL    HW2  383   1.366   1.808   1.705  0.2375  1.9723  1.8318
   96SOL     MW  384   1.324   1.878   1.727 -0.3008 -0.4683  0.3605
   97SOL     OW  385   1.106   1.468   0.851 -0.5510  0.1891 -0.5886
   97SOL    HW1  386   1.135   1.535   0.914 -1.0879 -0.0572 -1.1184
   97SOL    HW2  387   1.024   1.503   0.813  1.1722 -0.3026  1.8909
   97SOL     MW  388   1.099   1.482   0.854 -0.3945  0.0917 -0.3313
   98SOL     OW  389   1.467   1.299   1.158 -0.0608  0.5716  0.0110
   98SOL    HW1  390   1.460   1.366   1.226  0.5917 -0.4109 -1.6409
   98SOL    HW2  391   1.462   1.345   1.071 -0.6244 -0.0601  2.4911
   98SOL     MW  392   1.466   1.314   1.155 -0.0491  0.3586  0.1202
   99SOL     OW  393   1.453   0.287   1.249  0.0998 -0.2980 -0.1573
   99SOL    HW1  394   1.489   0.370   1.214 -1.2225 -0.2139  0.1975
   99SOL    HW2  395   1.481   0.281   1.343  1.7363 -0.0385  2.3918
   99SOL     MW  396   1.462   0.297   1.257  0.1412 -0.2527  0.2258
  100SOL     OW  397   1.059   1.158   1.394 -0.1860 -0.0999  0.2334
  100SOL    HW1  398   1.080   1.201   1.477 -1.0782 -0.9435  2.2477
  100SOL    HW2  399   1.059   1.062   1.400  1.6616 -0.8598 -0.6752
  100SOL     MW  400   1.062   1.151   1.406 -0.0600 -0.3114  0.3793
  101SOL     OW  401   0.470   1.221   0.332  0.3170 -0.3072  0.4821
  101SOL    HW1  402   0.418   1.147   0.295  0.0108 -2.5015  1.9124
  101SOL    HW2  403   0.549   1.233   0.289 -0.7613 -0.9416  0.1912
  101SOL     MW  404   0.474   1.213   0.322  0.1343 -0.6805  0.6325
  102SOL     OW  405   2.895   0.625   0.983  0.2212  0.5549  0.1213
  102SOL    HW1  406   2.932   0.708   1.001 -0.9836  0.0524  1.0609
  102SOL    HW2  407   2.884   0.594   1.079  0.4669  1.6256  0.7708
  102SOL     MW  408   2.899   0.632   0.998  0.0947  0.6299  0.3309
  103SOL     OW  409   1.814   0.277   1.888  0.4976 -0.3162  0.3373
  103SOL    HW1  410   1.782   0.190   1.877  2.7970  1.8395  0.2357
  103SOL    HW2  411   1.809   0.294   1.978 -0.7194 -0.3421 -0.4031
  103SOL     MW  412   1.809   0.268   1.898  0.6404 -0.0352  0.2262
  104SOL     OW  413   0.106   1.509   1.584 -0.1960 -0.1478  0.5420
  104SOL    HW1  414   0.168   1.453   1.622  0.0709  0.7539 -1.5123
  104SOL    HW2  415   0.021   1.480   1.611  0.8141  1.3957 -1.3848
  104SOL     MW  416   0.103   1.498   1.592 -0.0275  0.1748  0.0167
  105SOL     OW  417   0.005   1.208   0.420 -0.1949  0.2365  0.1492
  105SOL    HW1  418   0.017   1.112   0.413  1.1377 -2.9148 -0.9068
  105SOL    HW2  419   0.085   1.238   0.457 -1.3182 -1.1789  0.1515
  105SOL     MW  420   0.017   1.199   0.424 -0.1673 -0.3661  0.0102
  106SOL     OW  421   0.806   0.424   0.941 -0.3534 -0.0590 -1.1216
  106SOL    HW1  422   0.724   0.464   0.911  2.3889  0.9801 -3.1600
  106SOL    HW2  423   0.873   0.421   0.870  1.4627  0.5371  0.6225
  106SOL     MW  424   0.804   0.429   0.928  0.2480  0.1567 -1.1604
  107SOL     OW  425   0.816   2.126   2.907  0.1462 -0.9039 -0.0384
  107SOL    HW1  426   0.730   2.091   2.884 -0.8866  2.4197 -0.6055
  107SOL    HW2  427   0.816   2.139   3.004 -1.9096  2.9336 -2.4258
  107SOL     MW  428   0.804   2.123   2.917 -0.2613  0.0409 -0.4282
  108SOL     OW  429   1.344   1.622   1.640  0.4497  0.5278  0.6826
  108SOL    HW1  430   1.280   1.573   1.587 -2.3898 -2.9433 -3.2085
  108SOL    HW2  431   1.433   1.591   1.610 -1.5199 -0.5126 -1.7450
  108SOL     MW  432   1.347   1.612   1.629 -0.1848 -0.0674 -0.1511
  109SOL     OW  433   1.986   0.775   0.260 -0.5423 -0.3437 -0.1354
  109SOL    HW1  434   2.015   0.866   0.250 -0.9794 -0.3658 -0.6732
  109SOL    HW2  435   2.034   0.746   0.340 -2.3623 -1.8276  1.4686
  109SOL     MW  436   1.996   0.783   0.270 -0.8401 -0.5424  0.0053
  110SOL     OW  437   0.417   1.903   0.651 -0.0129  0.2679  0.2623
  110SOL    HW1  438   0.482   1.835   0.614 -0.9194  0.7822  2.7910
  110SOL    HW2  439   0.412   1.976   0.589 -1.2597  0.9256  0.6140
  110SOL     MW  440   0.425   1.904   0.638 -0.2970  0.4225  0.6424
  111SOL     OW  441   0.772   0.866   1.441  0.2503  0.2686 -0.1361
  111SOL    HW1  442   0.768   0.874   1.344  1.0862 -0.5608  1.8704
  111SOL    HW2  443   0.780   0.773   1.458  0.8767  0.3874  0.4796
  111SOL     MW  444   0.772   0.855   1.430  0.4432  0.1749  0.2099
  112SOL     OW  445   1.342   1.064   1.621 -0.0125 -0.1455 -0.1565
  112SOL    HW1  446   1.290   1.142   1.617 -1.8980  0.2849  1.3194
  112SOL    HW2  447   1.282   0.989   1.631 -2.7473  1.5489 -0.1810
  112SOL     MW  448   1.328   1.065   1.622 -0.6221  0.1348  0.0350
  113SOL     OW  449   1.241   3.064   1.701  0.3119  0.6194 -0.1879
  113SOL    HW1  450   1.261   3.033   1.795  1.5578  0.8214  1.1346
  113SOL    HW2  451   1.276   2.999   1.637 -0.6524 -0.7823  0.4516
  113SOL     MW  452   1.248   3.051   1.705  0.3491  0.4611  0.0709
  114SOL     OW  453   0.262   2.877   1.882 -0.0185 -0.0106 -0.0625
  114SOL    HW1  454   0.335   2.923   1.919  2.1690 -0.3851  1.3909
  114SOL    HW2  455   0.186   2.938   1.895  2.7229 -1.8091  0.2298
  114SOL     MW  456   0.261   2.892   1.889  0.6318 -0.2973  0.1678
  115SOL     OW  457   0.470   0.813   1.151 -0.3579  0.1151 -0.2274
  115SOL    HW1  458   0.508   0.726   1.180 -3.0933  1.0320 -0.2533
  115SOL    HW2  459   0.420   0.852   1.228  0.2303 -2.6405  3.5564
  115SOL     MW  460   0.469   0.807   1.165 -0.6412 -0.1275  0.2684
  116SOL     OW  461   0.809   1.055   0.993  0.4664  0.6066 -0.3450
  116SOL    HW1  462   0.846   1.080   0.908  0.7874  0.5167 -2.4656
  116SOL    HW2  463   0.860   1.109   1.057 -0.0234 -0.8305 -1.1699
  116SOL     MW  464   0.821   1.065   0.990  0.4442  0.4051 -0.7336
  117SOL     OW  465   1.098   1.203   0.798 -0.0873 -0.1902  0.6273
  117SOL    HW1  466   1.146   1.157   0.873  2.0055  1.0825 -2.6610
  117SOL    HW2  467   1.113   1.299   0.811 -1.0411 -2.0866 -0.8383
  117SOL     MW  468   1.106   1.209   0.809  0.0630 -0.2725  0.0001
  118SOL     OW  469   3.059   2.953   1.674 -0.1627  0.2582  0.5133
  118SOL    HW1  470   3.087   2.996   1.752 -2.5390  1.2496  1.8576
  118SOL    HW2  471   2.974   2.989   1.660 -2.0227 -0.1361 -1.5856
  118SOL     MW  472   3.052   2.963   1.682 -0.7216  0.3370  0.4137
  119SOL     OW  473   0.443   1.492   1.261 -0.3096  0.2719  0.3651
  119SOL    HW1  474   0.480   1.571   1.212  0.6712 -0.5838  1.6217
  119SOL    HW2  475   0.354   1.489   1.230 -1.3758  0.3311  2.8150
  119SOL     MW  476   0.437   1.502   1.251 -0.3209  0.1668  0.8541
  120SOL     OW  477   0.223   0.740   1.026 -0.9131 -0.0508 -0.2520
  120SOL    HW1  478   0.207   0.705   1.115 -0.5802  2.9898  2.1731
  120SOL    HW2  479   0.318   0.767   1.022 -1.8747 -1.4157  0.3258
  120SOL     MW  480   0.233   0.739   1.038 -0.9960  0.1703  0.1442
  121SOL     OW  481   1.740   1.089   1.675  0.4554 -0.0592 -0.4644
  121SOL    HW1  482   1.648   1.084   1.708  2.8337  1.6440 -0.7712
  121SOL    HW2  483   1.757   1.001   1.634 -2.6851 -3.4728 -0.0710
  121SOL     MW  484   1.730   1.077   1.674  0.3548 -0.2849 -0.4529
  122SOL     OW  485   0.192   0.537   0.831  0.1469  0.6978  0.7347
  122SOL    HW1  486   0.268   0.502   0.783 -0.7251 -0.4702 -0.9649
  122SOL    HW2  487   0.223   0.604   0.886  0.4753 -1.4605 -0.1116
  122SOL     MW  488   0.206   0.541   0.832  0.0752  0.2589  0.3988
  123SOL     OW  489   1.852   1.118   0.448  0.1698 -0.7230  0.0009
  123SOL    HW1  490   1.820   1.043   0.500 -1.3486  1.3949 -1.8340
  123SOL    HW2  491   1.894   1.178   0.514 -2.6590  0.4619 -0.0001
  123SOL     MW  492   1.853   1.116   0.464 -0.4038 -0.2873 -0.2414
  124SOL     OW  493   0.570   0.550   0.930 -1.0001  0.4073 -0.0775
  124SOL    HW1  494   0.524   0.521   0.850 -1.0862  1.1425 -2.1802
  124SOL    HW2  495   0.614   0.634   0.906 -0.4991 -1.8941 -1.8585
  124SOL     MW  496   0.570   0.557   0.916 -0.9454  0.2006 -0.5899
  125SOL     OW  497   0.718   1.774   1.722  0.2044 -0.4400 -0.6407
  125SOL    HW1  498   0.645   1.710   1.724  0.5275  0.2649 -1.1035
  125SOL    HW2  499   0.664   1.848   1.696 -2.8137  0.2429 -0.7447
  125SOL     MW  500   0.701   1.775   1.719 -0.1512 -0.2569 -0.7155
  126SOL     OW  501   2.147   1.554   1.980 -0.5533  0.4645 -0.2878
  126SOL    HW1  502   2.195   1.638   1.966 -0.6266 -1.3097 -0.6330
  126SOL    HW2  503   2.214   1.485   1.986 -1.4267 -1.2884  2.5496
  126SOL     MW  504   2.162   1.556   1.979 -0.6782 -0.0008  0.0410
  127SOL     OW  505   0.566   0.834   1.814  0.3343  0.7596 -0.3517
  127SOL    HW1  506   0.662   0.826   1.819 -0.4077 -1.1429 -0.9621
  127SOL    HW2  507   0.539   0.888   1.893 -0.5161 -0.8291  2.4704
  127SOL     MW  508   0.575   0.840   1.825  0.1242  0.2989 -0.0599
  128SOL     OW  509   1.690   0.722   2.917 -0.5475  0.2762 -0.2931
  128SOL    HW1  510   1.742   0.703   2.837  0.6694 -0.4555 -0.1081
  128SOL    HW2  511   1.683   0.818   2.929 -2.4802 -0.0425  2.8711
  128SOL     MW  512   1.696   0.733   2.908 -0.6420  0.1376  0.1488
  129SOL     OW  513   1.639   0.917   0.154 -0.2606  0.4126 -0.1266
  129SOL    HW1  514   1.559   0.876   0.127 -2.0439  0.1744  0.7995
  129SOL    HW2  515   1.666   0.850   0.212  0.2749  0.4027 -0.1537
  129SOL     MW  516   1.632   0.902   0.158 -0.4252  0.3799 -0.0080
  130SOL     OW  517   0.812   1.374   0.308 -0.0804 -0.2271  0.7618
  130SOL    HW1  518   0.832   1.365   0.406  1.8600  1.0163  0.3953
  130SOL    HW2  519   0.805   1.468   0.290 -0.2803  1.4123  0.0587
  130SOL     MW  520   0.814   1.385   0.319  0.1492  0.1532  0.6207
  131SOL     OW  521   3.032   0.837   3.096 -0.0874 -0.2854  0.2784
  131SOL    HW1  522   3.045   0.870   3.004  1.1119  2.9999 -1.6783
  131SOL    HW2  523   3.118   0.784   3.104  0.9671 -1.8310 -2.2727
  131SOL     MW  524   3.045   0.834   3.085  0.2099 -0.0558 -0.3164
  132SOL     OW  525   2.716   0.138   1.308  0.2115  0.1488 -0.3771
  132SOL    HW1  526   2.745   0.166   1.222  1.3390  0.3201 -0.1493
  132SOL    HW2  527   2.626   0.103   1.308  2.4632  2.2195 -0.9607
  132SOL     MW  528   2.708   0.137   1.296  0.6573  0.4446 -0.4240
  133SOL     OW  529   1.038   0.140   1.709 -0.1569 -0.0712 -0.6030
  133SOL    HW1  530   1.106   0.069   1.705  1.6277  2.1530  0.1009
  133SOL    HW2  531   1.002   0.153   1.797 -0.2409 -0.5818 -1.3027
  133SOL     MW  532   1.042   0.132   1.720  0.0675  0.1549 -0.6024
  134SOL     OW  533   1.414   2.495   1.423 -0.1705 -0.5156  0.0082
  134SOL    HW1  534   1.358   2.564   1.405  0.9950 -2.8732 -1.6921
  134SOL    HW2  535   1.439   2.500   1.517  0.8907  0.1970  0.8037
  134SOL     MW  536   1.410   2.505   1.433  0.1233 -0.7326 -0.1112
  135SOL     OW  537   3.032   0.969   2.839  0.4028  0.2419  0.1597
  135SOL    HW1  538   3.118   0.998   2.875 -3.2814  1.8874 -0.1395
  135SOL    HW2  539   2.965   1.029   2.867  0.9534 -0.6128  1.1732
  135SOL     MW  540   3.034   0.981   2.848 -0.0106  0.3463  0.2540
  136SOL     OW  541   0.214   2.068   0.821  0.1783  0.0215  0.5697
  136SOL    HW1  542   0.150   1.996   0.801 -1.8223 -0.2494  0.7641
  136SOL    HW2  543   0.287   2.054   0.754  0.0679  2.5028  2.7997
  136SOL     MW  544   0.215   2.056   0.810 -0.1003  0.3131  0.8896
  137SOL     OW  545   0.695   2.045   0.540  0.1023  0.2611  0.8565
  137SOL    HW1  546   0.687   2.058   0.638 -0.2936 -0.4089 -0.6033
  137SOL    HW2  547   0.617   2.087   0.507  0.7676 -0.9413  0.9373
  137SOL     MW  548   0.684   2.052   0.549  0.1378  0.0140  0.6746
  138SOL     OW  549   0.509   0.553   1.197 -0.1957 -0.7594  0.1447
  138SOL    HW1  550   0.415   0.527   1.215  1.7092 -1.5237  1.2450
  138SOL    HW2  551   0.533   0.547   1.101  1.4077 -0.4159 -0.4448
  138SOL     MW  552   0.500   0.549   1.186  0.2672 -0.8149  0.2121
  139SOL     OW  553   2.879   0.529   1.256 -0.2426  0.0202  0.3303
  139SOL    HW1  554   2.928   0.489   1.324 -1.8746  1.3939  0.7389
  139SOL    HW2  555   2.852   0.611   1.301 -0.5581  0.7451 -0.1024
  139SOL     MW  556   2.882   0.535   1.271 -0.4995  0.2971  0.3271
  140SOL     OW  557   0.947   0.489   2.014 -0.4987 -0.3556 -0.1362
  140SOL    HW1  558   0.922   0.398   1.982 -0.9980 -1.9389  0.6072
  140SOL    HW2  559   0.966   0.472   2.110 -1.5951  1.2312  0.3663
  140SOL     MW  560   0.946   0.475   2.023 -0.7093 -0.3551  0.0282
  141SOL     OW  561   1.001   0.638   1.702 -0.2545 -0.3396 -0.2681
  141SOL    HW1  562   1.040   0.554   1.669  0.7856  1.0595  0.5911
  141SOL    HW2  563   1.061   0.704   1.685 -1.2778 -0.3367 -0.1147
  141SOL     MW  564   1.014   0.636   1.695 -0.2523 -0.1546 -0.1345
  142SOL     OW  565   0.846   1.168   0.732 -0.7703  0.4591  0.1540
  142SOL    HW1  566   0.830   1.106   0.654  0.4566  1.1070 -0.2943
  142SOL    HW2  567   0.940   1.174   0.752  0.5685 -1.5474 -1.1928
  142SOL     MW  568   0.856   1.160   0.724 -0.4318  0.2799 -0.0828
  143SOL     OW  569   1.810   0.679   1.093  0.3704 -0.2035 -0.3132
  143SOL    HW1  570   1.860   0.698   1.012 -1.9513  1.3087 -0.9969
  143SOL    HW2  571   1.719   0.681   1.059 -0.2455 -2.6201 -1.7596
  143SOL     MW  572   1.805   0.682   1.078 -0.0172 -0.3229 -0.5942
  144SOL     OW  573   0.288   1.355   1.700 -0.0127  0.2063 -0.0991
  144SOL    HW1  574   0.356   1.312   1.644 -0.6573  0.4854 -2.1679
  144SOL    HW2  575   0.320   1.336   1.794  0.0836  1.9801  1.4114
  144SOL     MW  576   0.301   1.347   1.705 -0.0850  0.4772 -0.1727
  145SOL     OW  577   0.200   0.495   1.219 -0.7723  0.0300  0.4774
  145SOL    HW1  578   0.258   0.414   1.226  1.1501  1.9331  0.7437
  145SOL    HW2  579   0.118   0.477   1.177 -2.0345  0.4700 -1.5014
  145SOL     MW  580   0.196   0.482   1.214 -0.6852  0.3392  0.2514
  146SOL     OW  581   0.842   1.968   1.406  0.5568 -0.2377 -0.2570
  146SOL    HW1  582   0.892   1.988   1.329  2.4075 -0.7633 -1.6340
  146SOL    HW2  583   0.752   1.988   1.377  2.5139  0.8640  0.1952
  146SOL     MW  584   0.837   1.973   1.392  1.0592 -0.1617 -0.3790
  147SOL     OW  585   0.397   0.515   2.965  0.0837  0.1145 -0.3349
  147SOL    HW1  586   0.367   0.561   3.043  3.4909  1.2791 -2.1630
  147SOL    HW2  587   0.348   0.558   2.895  0.7908  0.9573  0.5395
  147SOL     MW  588   0.387   0.527   2.966  0.6265  0.3794 -0.4607
  148SOL     OW  589   0.072   0.894   1.266 -0.6982 -0.8861 -0.7814
  148SOL    HW1  590   0.157   0.933   1.228  5.4081 -1.8009 -0.9606
  148SOL    HW2  591   0.028   0.968   1.304 -0.3408 -1.9223 -1.6270
  148SOL     MW  592   0.078   0.909   1.266  0.1546 -1.1435 -0.9166
  149SOL     OW  593   1.532   1.148   1.400  1.0855  0.2604 -0.0789
  149SOL    HW1  594   1.469   1.112   1.466 -0.9775  2.5687  0.8010
  149SOL    HW2  595   1.524   1.245   1.401 -0.2645  1.0165 -0.7723
  149SOL     MW  596   1.522   1.156   1.409  0.6352  0.6647 -0.0543
  150SOL     OW  597   1.730   1.388   0.830 -0.2040  0.0002  0.7078
  150SOL    HW1  598   1.810   1.338   0.820  0.7421  0.7483 -1.3687
  150SOL    HW2  599   1.759   1.466   0.881  3.1949  0.4722  2.8874
  150SOL     MW  600   1.745   1.392   0.835  0.3693  0.1612  0.7214
  151SOL     OW  601   1.675   1.829   0.796  0.1783  0.0909  0.0203
  151SOL    HW1  602   1.665   1.863   0.705  0.0331  0.1229  0.2514
  151SOL    HW2  603   1.587   1.800   0.825 -2.0695  1.4106  4.9078
  151SOL     MW  604   1.662   1.830   0.788 -0.1375  0.2693  0.6956
  152SOL     OW  605   0.777   1.423   1.655  0.0530 -0.0204 -0.0994
  152SOL    HW1  606   0.811   1.502   1.614 -2.5453 -1.2528 -3.9818
  152SOL    HW2  607   0.808   1.352   1.599  0.9976 -1.0526 -2.0265
  152SOL     MW  608   0.785   1.424   1.642 -0.1652 -0.3192 -0.8659
  153SOL     OW  609   2.569   1.231   0.770  0.1307  0.0794 -0.2548
  153SOL    HW1  610   2.652   1.186   0.749  1.4128  1.6404  1.7389
  153SOL    HW2  611   2.504   1.156   0.772 -2.6681 -0.1361  0.3737
  153SOL     MW  612   2.571   1.215   0.767 -0.0694  0.2569  0.0912
  154SOL     OW  613   0.126   1.745   1.710 -0.2941  0.0766  0.1647
  154SOL    HW1  614   0.117   1.664   1.656  2.0704 -1.7353 -1.9367
  154SOL    HW2  615   0.204   1.725   1.756 -1.0995 -0.6913 -1.6415
  154SOL     MW  616   0.135   1.732   1.709 -0.0884 -0.2638 -0.3508
  155SOL     OW  617   1.173   0.724   0.307  0.0101 -0.4631  0.1490
  155SOL    HW1  618   1.154   0.676   0.393 -2.3449 -1.1849  2.1561
  155SOL    HW2  619   1.181   0.818   0.333  0.7098 -0.4048  0.2983
  155SOL     MW  620   1.172   0.730   0.322 -0.2083 -0.5507  0.4335
  156SOL     OW  621   1.563   3.013   1.067 -0.0070  0.3709  0.4864
  156SOL    HW1  622   1.636   3.072   1.091  0.1167  0.8012  1.7291
  156SOL    HW2  623   1.596   2.923   1.085  1.0998 -0.8965 -0.3393
  156SOL     MW  624   1.577   3.009   1.072  0.1553  0.2604  0.5414
  157SOL     OW  625   1.378   1.134   0.119 -0.5162 -0.2769  0.2693
  157SOL    HW1  626   1.358   1.065   0.196  1.3360 -0.3057  1.0574
  157SOL    HW2  627   1.448   1.198   0.137 -2.2184  0.0818  2.3602
  157SOL     MW  628   1.384   1.133   0.131 -0.4964 -0.2334  0.6491
  158SOL     OW  629   0.386   1.651   2.302  0.2397 -0.1105  0.7559
  158SOL    HW1  630   0.396   1.712   2.227  2.7459 -1.2502  1.3247
  158SOL    HW2  631   0.337   1.692   2.372 -1.8662 -0.5569 -1.0646
  158SOL     MW  632   0.381   1.665   2.301  0.2925 -0.3198  0.5907
  159SOL     OW  633   1.235   1.696   0.469 -0.2099 -0.6385 -0.2803
  159SOL    HW1  634   1.192   1.658   0.394 -1.6016  0.9218 -0.4937
  159SOL    HW2  635   1.168   1.750   0.513  2.6642  0.4192 -1.6860
  159SOL     MW  636   1.220   1.698   0.465 -0.0143 -0.2931 -0.4939
  160SOL     OW  637   0.480   1.237   1.562 -0.6128  0.3163  0.3034
  160SOL    HW1  638   0.443   1.147   1.563  0.4813  1.1612 -1.4227
  160SOL    HW2  639   0.574   1.222   1.579  2.5446  0.8463 -2.2447
  160SOL     MW  640   0.487   1.223   1.565 -0.0519  0.4977 -0.2605
  161SOL     OW  641   0.458   2.209   2.552 -0.0668 -0.4002  0.4656
  161SOL    HW1  642   0.371   2.228   2.551 -0.0408 -1.2604  0.1085
  161SOL    HW2  643   0.469   2.145   2.485 -0.9958 -1.6401  0.3504
  161SOL     MW  644   0.448   2.203   2.543 -0.1860 -0.6773  0.4033
  162SOL     OW  645   1.081   1.814   1.845 -0.1050  1.3670 -0.0465
  162SOL    HW1  646   1.094   1.905   1.888 -0.3210 -0.0571  0.5756
  162SOL    HW2  647   1.004   1.765   1.874  0.4373  1.2788  0.2184
  162SOL     MW  648   1.073   1.820   1.854 -0.0620  1.1675  0.0705
  163SOL     OW  649   2.041   3.060   0.895  0.1316 -0.3903  0.1681
  163SOL    HW1  650   2.030   3.132   0.836 -1.7492 -2.8140  1.2584
  163SOL    HW2  651   2.059   2.981   0.834 -1.2522 -0.3847 -0.6645
  163SOL     MW  652   2.042   3.059   0.879 -0.2992 -0.7094  0.2021
  164SOL     OW  653   0.306   0.217   0.810  0.0694  0.6002  0.1171
  164SOL    HW1  654   0.208   0.207   0.840  0.0414  0.7297 -0.8532
  164SOL    HW2  655   0.322   0.137   0.758 -2.0203 -0.2770  2.7270
  164SOL     MW  656   0.295   0.205   0.807 -0.2100  0.5015  0.3334
  165SOL     OW  657   1.240   1.316   0.331 -0.4927 -0.0161  0.1046
  165SOL    HW1  658   1.228   1.255   0.412 -0.3744  1.9405  1.1843
  165SOL    HW2  659   1.318   1.280   0.286  0.4228  0.0440 -1.1683
  165SOL     MW  660   1.248   1.303   0.336 -0.3563  0.2500  0.0791
  166SOL     OW  661   0.535   1.153   1.013  0.1167 -0.2837 -0.2111
  166SOL    HW1  662   0.541   1.153   1.111 -1.1908 -2.0970  3.3985
  166SOL    HW2  663   0.625   1.146   0.981  1.0059 -0.9268 -0.2340
  166SOL     MW  664   0.548   1.152   1.022  0.0615 -0.6078  0.2621
  167SOL     OW  665   0.817   1.104   0.242  0.1962  0.4442 -0.5145
  167SOL    HW1  666   0.815   1.203   0.256  0.8659 -2.5783  2.6247
  167SOL    HW2  667   0.891   1.104   0.179 -0.8688 -0.0341  0.6653
  167SOL     MW  668   0.826   1.117   0.235  0.1441 -0.0177  0.0553
  168SOL     OW  669   1.744   1.648   3.056  0.4478  0.1358 -0.2308
  168SOL    HW1  670   1.664   1.702   3.051  0.2591 -2.8583 -4.8345
  168SOL    HW2  671   1.718   1.561   3.013 -1.1988  1.0550  0.1714
  168SOL     MW  672   1.730   1.643   3.049  0.2057 -0.1380 -0.7852
  169SOL     OW  673   0.338   0.993   1.315 -0.4269 -0.0976  0.0799
  169SOL    HW1  674   0.352   0.978   1.408  2.4519  0.6978 -0.6662
  169SOL    HW2  675   0.406   1.058   1.297  0.4533 -0.1156 -0.2951
  169SOL     MW  676   0.349   1.000   1.325  0.0691  0.0050 -0.0680
  170SOL     OW  677   1.123   1.534   1.493  0.6393 -0.6195 -0.1505
  170SOL    HW1  678   1.071   1.607   1.513  0.0060  1.5276 -0.1833
  170SOL    HW2  679   1.114   1.512   1.398 -4.3299 -1.1247  0.2059
  170SOL     MW  680   1.115   1.541   1.483 -0.0999 -0.4029 -0.1078
  171SOL     OW  681   0.550   1.426   0.541 -0.1988  0.0461 -0.3867
  171SOL    HW1  682   0.507   1.403   0.622  1.1860 -1.4782 -4.2818
  171SOL    HW2  683   0.521   1.351   0.491 -0.2211  0.2815  1.8147
  171SOL     MW  684   0.540   1.413   0.545 -0.0191 -0.1240 -0.6102
  172SOL     OW  685   0.881   0.303   1.279  0.1534 -0.0822  0.0896
  172SOL    HW1  686   0.793   0.290   1.249  1.1651  2.7323  2.5083
  172SOL    HW2  687   0.881   0.252   1.357  0.6589 -0.6499 -4.2600
  172SOL     MW  688   0.870   0.294   1.285  0.3536  0.2142 -0.1651
  173SOL     OW  689   0.501   1.776   0.259  0.0003 -0.2476  0.4740
  173SOL    HW1  690   0.482   1.690   0.216  1.7711  0.3248 -0.4422
  173SOL    HW2  691   0.514   1.750   0.351  0.0020  1.4115 -0.4560
  173SOL     MW  692   0.500   1.761   0.265  0.2342  0.0469  0.2304
  174SOL     OW  693   1.849   0.890   1.515 -0.8376  0.0706 -0.0780
  174SOL    HW1  694   1.818   0.801   1.521 -0.3368  0.7890 -0.4437
  174SOL    HW2  695   1.840   0.922   1.426  1.4913  0.9906  0.6707
  174SOL     MW  696   1.843   0.883   1.504 -0.4642  0.2868 -0.0274
  175SOL     OW  697   0.493   1.498   0.249  0.1552  0.9227 -0.5791
  175SOL    HW1  698   0.443   1.423   0.222  3.4442  0.3961 -0.8405
  175SOL    HW2  699   0.503   1.492   0.343  0.7794  1.4750  2.6579
  175SOL     MW  700   0.488   1.487   0.258  0.6715  0.9261 -0.1865
  176SOL     OW  701   0.148   1.488   1.194 -0.1088  0.5439  0.0462
  176SOL    HW1  702   0.142   1.435   1.119 -2.8884  2.3113  1.4188
  176SOL    HW2  703   0.064   1.459   1.231  1.3452 -1.2586 -2.7717
  176SOL     MW  704   0.136   1.477   1.189 -0.2837  0.5393 -0.1445
  177SOL     OW  705   0.550   0.351   1.357 -0.1814 -0.4810  0.4517
  177SOL    HW1  706   0.541   0.437   1.314  0.8013 -2.0740  1.7929
  177SOL    HW2  707   0.546   0.373   1.455 -0.7073  0.8735  0.3320
  177SOL     MW  708   0.548   0.365   1.364 -0.1211 -0.5125  0.6129
  178SOL     OW  709   3.094   0.530   2.969  0.4519 -0.0606  0.0754
  178SOL    HW1  710   3.042   0.553   3.041 -1.8961 -0.4263 -0.6583
  178SOL    HW2  711   3.027   0.481   2.912 -1.9528 -0.2443 -0.4132
  178SOL     MW  712   3.078   0.527   2.971 -0.1752 -0.1331 -0.0859
  179SOL     OW  713   1.554   1.442   1.384  0.0865  0.1569  0.5276
  179SOL    HW1  714   1.554   1.455   1.477 -2.2565  2.1912  1.7087
  179SOL    HW2  715   1.643   1.426   1.357  0.9601  1.0310 -0.1006
  179SOL     MW  716   1.566   1.441   1.393 -0.1074  0.5406  0.6006
  180SOL     OW  717   3.014   0.235   0.494  0.5332  0.4669  0.0697
  180SOL    HW1  718   2.975   0.235   0.410 -1.0805  2.1585  1.3051
  180SOL    HW2  719   3.087   0.303   0.485  1.4061 -1.7099  2.5479
  180SOL     MW  720   3.018   0.244   0.482  0.4355  0.4029  0.5597
  181SOL     OW  721   1.143   1.348   3.063  0.2372 -0.1726 -0.0097
  181SOL    HW1  722   1.213   1.407   3.096  1.3373 -0.3315  0.5863
  181SOL    HW2  723   1.191   1.303   2.993  2.6414 -0.6234 -1.4921
  181SOL     MW  724   1.158   1.350   3.058  0.6996 -0.2530 -0.1266
  182SOL     OW  725   0.411   0.957   1.584 -0.2713  1.1400 -0.0150
  182SOL    HW1  726   0.319   0.946   1.609 -0.3196  2.7479  0.9727
  182SOL    HW2  727   0.466   0.908   1.642 -2.3854 -0.7957  1.8768
  182SOL     MW  728   0.406   0.949   1.595 -0.5566  1.0967  0.3650
  183SOL     OW  729   1.557   1.718   1.216 -1.0528 -0.1630 -0.3658
  183SOL    HW1  730   1.651   1.702   1.236  0.7210 -3.9676  1.1702
  183SOL    HW2  731   1.509   1.642   1.252  0.7432 -0.7114 -0.0154
  183SOL     MW  732   1.563   1.706   1.223 -0.5818 -0.7373 -0.1169
  184SOL     OW  733   0.823   0.725   1.892  0.1620 -0.1213 -0.3983
  184SOL    HW1  734   0.886   0.689   1.835  0.7538 -1.9571  0.8003
  184SOL    HW2  735   0.832   0.678   1.975  0.0803  1.4422  1.7415
  184SOL     MW  736   0.832   0.714   1.895  0.2293 -0.1572  0.0422
  185SOL     OW  737   1.111   0.951   1.919 -0.0218  0.4227 -0.4796
  185SOL    HW1  738   1.115   0.869   1.970 -0.3329  0.8071 -0.4119
  185SOL    HW2  739   1.144   1.013   1.978  0.2990  0.0494 -0.0346
  185SOL     MW  740   1.116   0.948   1.934 -0.0205  0.4242 -0.4120
  186SOL     OW  741   0.366   1.694   1.438 -0.3896 -0.2167  0.1340
  186SOL    HW1  742   0.414   1.619   1.393 -0.6998  2.1754 -2.7620
  186SOL    HW2  743   0.288   1.660   1.469  0.4117  1.7995 -3.5167
  186SOL     MW  744   0.362   1.679   1.436 -0.3248  0.3650 -0.7298
  187SOL     OW  745   1.502   0.709   1.357 -0.1664  0.2148  0.5354
  187SOL    HW1  746   1.568   0.705   1.426 -1.5358 -1.3722  0.8942
  187SOL    HW2  747   1.426   0.742   1.397 -1.7665  0.9090 -2.9488
  187SOL     MW  748   1.501   0.713   1.371 -0.5582  0.0970  0.1230
  188SOL     OW  749   1.911   1.155   0.787  0.0873 -0.0171 -0.4894
  188SOL    HW1  750   1.907   1.165   0.882  2.8097 -1.6397 -4.6705
  188SOL    HW2  751   1.964   1.075   0.776  0.4630 -0.3067 -2.7303
  188SOL     MW  752   1.917   1.146   0.798  0.4961 -0.2694 -1.3368
  189SOL     OW  753   0.688   0.785   0.850 -0.2062 -0.2839 -0.0123
  189SOL    HW1  754   0.630   0.855   0.840  0.6645 -0.5758  1.6765
  189SOL    HW2  755   0.757   0.836   0.885 -0.7381 -1.8977  0.2041
  189SOL     MW  756   0.690   0.801   0.853 -0.1615 -0.5353  0.2391
  190SOL     OW  757   1.839   0.289   2.169 -0.2622  0.2697 -0.9156
  190SOL    HW1  758   1.870   0.227   2.231  1.2090  3.2595 -0.0674
  190SOL    HW2  759   1.909   0.348   2.153 -2.9953 -0.4385 -0.5170
  190SOL     MW  760   1.852   0.288   2.175 -0.4287  0.5708 -0.7511
  191SOL     OW  761   1.537   0.958   1.194 -0.2671  0.2187  0.5090
  191SOL    HW1  762   1.538   1.031   1.255  1.5706  0.1392 -1.0635
  191SOL    HW2  763   1.518   0.881   1.244  0.6395  2.4079  3.1585
  191SOL     MW  764   1.535   0.958   1.209  0.0950  0.4971  0.6511
  192SOL     OW  765   0.568   2.101   2.790  0.1264 -0.1411  0.3111
  192SOL    HW1  766   0.526   2.146   2.716 -0.6084 -2.5738  1.1129
  192SOL    HW2  767   0.553   2.006   2.783  1.7259  0.8658  1.4335
  192SOL     MW  768   0.560   2.094   2.779  0.2405 -0.3292  0.5649
  193SOL     OW  769   0.908   1.582   0.738 -0.3595 -0.1397 -0.3685
  193SOL    HW1  770   0.841   1.602   0.805  0.5295 -1.3531 -2.5058
  193SOL    HW2  771   0.880   1.507   0.663  1.3630 -2.7471  1.0860
  193SOL     MW  772   0.895   1.575   0.737 -0.0149 -0.6438 -0.4586
  194SOL     OW  773   0.501   1.405   0.879  0.0407 -1.1898 -0.5976
  194SOL    HW1  774   0.493   1.342   0.956 -0.3965 -4.0615 -0.1982
  194SOL    HW2  775   0.416   1.413   0.837 -2.4780 -0.6072  2.1293
  194SOL     MW  776   0.489   1.398   0.884 -0.3493 -1.4918 -0.1851
  195SOL     OW  777   1.272   1.135   2.960 -0.3727 -0.0892  0.4049
  195SOL    HW1  778   1.322   1.134   3.044 -0.3890 -0.0925  0.1346
  195SOL    HW2  779   1.219   1.061   2.959  0.5601 -0.3031 -1.3652
  195SOL     MW  780   1.272   1.125   2.971 -0.2518 -0.1178  0.1357
  196SOL     OW  781   2.196   0.979   0.523  0.2651 -0.9474  0.2731
  196SOL    HW1  782   2.132   0.970   0.450 -1.9883  0.0563 -2.8997
  196SOL    HW2  783   2.203   1.078   0.523 -0.1874 -0.4653  1.3109
  196SOL     MW  784   2.189   0.991   0.514 -0.0919 -0.7513 -0.0086
  197SOL     OW  785   0.617   1.332   2.180 -0.0619 -0.4403  0.4849
  197SOL    HW1  786   0.664   1.242   2.167  0.6703 -4.3049 -0.3361
  197SOL    HW2  787   0.654   1.372   2.099  0.0061  1.2904  0.5364
  197SOL     MW  788   0.628   1.325   2.168  0.0437 -0.7218  0.3834
  198SOL     OW  789   2.926   1.412   0.998 -0.0044  0.0020  0.1796
  198SOL    HW1  790   2.899   1.498   0.960 -0.6836  0.9410  0.1696
  198SOL    HW2  791   2.848   1.359   0.994 -0.9621 -0.5311 -0.6231
  198SOL     MW  792   2.912   1.416   0.992 -0.2204  0.0555  0.0724
  199SOL     OW  793   0.714   1.362   1.924  1.2583 -0.1701  1.0167
  199SOL    HW1  794   0.616   1.354   1.919  2.0029 -2.4002  1.4731
  199SOL    HW2  795   0.739   1.376   1.830  0.3161  0.3522  2.6022
  199SOL     MW  796   0.704   1.363   1.911  1.2322 -0.3954  1.2861
  200SOL     OW  797   1.859   2.908   1.381 -0.3748 -0.4625 -0.1209
  200SOL    HW1  798   1.916   2.935   1.311 -0.7444  2.7595 -0.5462
  200SOL    HW2  799   1.771   2.955   1.383  0.3032  0.7363 -0.8330
  200SOL     MW  800   1.855   2.918   1.372 -0.3341  0.1208 -0.2709
  201SOL     OW  801   0.984   0.356   0.747  0.0131  0.3728 -0.0246
  201SOL    HW1  802   0.977   0.269   0.712  2.7188  0.6288 -0.2746
  201SOL    HW2  803   1.066   0.358   0.802 -2.5473  0.5829  0.3536
  201SOL     MW  804   0.994   0.345   0.749  0.0323  0.4343 -0.0077
  202SOL     OW  805   1.485   1.723   0.960  0.5088  1.0205  0.4677
  202SOL    HW1  806   1.490   1.628   0.943  2.0532 -0.9967 -1.4074
  202SOL    HW2  807   1.510   1.738   1.049  0.9145 -0.6782  1.2846
  202SOL     MW  808   1.489   1.712   0.969  0.7661  0.5302  0.3281
  203SOL     OW  809   3.007   0.429   1.475 -0.4795 -0.5087  0.5985
  203SOL    HW1  810   3.054   0.348   1.473 -1.6258  0.2339 -0.4421
  203SOL    HW2  811   3.056   0.510   1.486 -2.2016 -0.8748 -1.1156
  203SOL     MW  812   3.019   0.429   1.476 -0.8579 -0.4590  0.2350
  204SOL     OW  813   1.017   1.796   0.621 -0.2210  0.2683  0.2791
  204SOL    HW1  814   0.989   1.718   0.677 -1.5837 -2.1722  1.1082
  204SOL    HW2  815   0.939   1.802   0.561  0.6778 -1.6644 -1.0743
  204SOL     MW  816   1.003   1.786   0.620 -0.2822 -0.3087  0.2100
  205SOL     OW  817   1.392   3.074   1.312 -1.0090 -0.5934  0.1354
  205SOL    HW1  818   1.404   3.061   1.219  0.6667  1.9609  0.6405
  205SOL    HW2  819   1.308   3.119   1.320 -0.5775  0.0983  1.1024
  205SOL     MW  820   1.383   3.078   1.301 -0.7310 -0.1651  0.3296
  206SOL     OW  821   0.497   3.085   1.390 -0.4611 -0.2289 -0.2402
  206SOL    HW1  822   0.444   3.096   1.310 -0.8795  0.9205  0.7589
  206SOL    HW2  823   0.523   2.991   1.392  0.3898 -0.4088  0.7493
  206SOL     MW  824   0.494   3.074   1.380 -0.4040 -0.1010  0.0222
  207SOL     OW  825   0.906   1.639   0.242  0.0538  0.2116  0.0408
  207SOL    HW1  826   0.926   1.720   0.205  0.0757 -1.2281  3.2081
  207SOL    HW2  827   0.986   1.585   0.239  0.1381  2.0119  1.7156
  207SOL     MW  828   0.919   1.643   0.237  0.0678  0.2592  0.6796
  208SOL     OW  829   0.669   1.694   1.385  0.3224 -0.4519  0.7568
  208SOL    HW1  830   0.744   1.728   1.436 -1.0465 -2.7330  0.1665
  208SOL    HW2  831   0.701   1.623   1.336 -0.2034 -0.2472 -0.0085
  208SOL     MW  832   0.683   1.689   1.385  0.0724 -0.7259  0.5779
  209SOL     OW  833   1.521   0.530   2.779 -0.3112 -0.4827 -0.2997
  209SOL    HW1  834   1.562   0.588   2.839 -1.1528 -0.6509 -2.1964
  209SOL    HW2  835   1.584   0.470   2.743 -0.0548  0.5145 -0.5243
  209SOL     MW  836   1.535   0.530   2.782 -0.3884 -0.3733 -0.5796
  210SOL     OW  837   1.462   1.420   0.914  0.1464  0.8723  0.8111
  210SOL    HW1  838   1.556   1.409   0.880 -0.4057  2.9382  0.6243
  210SOL    HW2  839   1.412   1.411   0.831  1.2737  3.8832  2.4206
  210SOL     MW  840   1.468   1.417   0.898  0.2223  1.5421  0.9988
  211SOL     OW  841   1.707   0.282   1.006  0.0018  0.3486  0.0468
  211SOL    HW1  842   1.702   0.300   0.912  0.0530 -2.5986 -1.9827
  211SOL    HW2  843   1.793   0.318   1.020  2.6954 -0.8152 -0.3677
  211SOL     MW  844   1.718   0.289   0.995  0.3640 -0.1938 -0.2756
  212SOL     OW  845   0.311   1.078   0.183 -0.4892  1.3006  0.5684
  212SOL    HW1  846   0.225   1.050   0.222 -0.1457 -4.4519  0.8578
  212SOL    HW2  847   0.343   1.002   0.136  1.6989  0.4132  0.7536
  212SOL     MW  848   0.304   1.064   0.182 -0.1552  0.4246  0.6310
  213SOL     OW  849   0.489   1.754   2.981  0.3683  0.0533  0.4089
  213SOL    HW1  850   0.516   1.822   3.043 -0.5066  0.3018 -1.0754
  213SOL    HW2  851   0.541   1.775   2.906 -1.5401  0.3383  1.9776
  213SOL     MW  852   0.500   1.765   2.979  0.0011  0.1237  0.4200
  214SOL     OW  853   0.633   0.353   2.124 -0.2102 -0.4904 -0.2425
  214SOL    HW1  854   0.574   0.420   2.150  1.7542  1.1891  1.1568
  214SOL    HW2  855   0.616   0.348   2.030 -0.0207  0.7420 -2.4840
  214SOL     MW  856   0.623   0.361   2.115  0.0740 -0.1062 -0.3537
  215SOL     OW  857   0.477   0.646   2.644 -0.0071 -0.2468  0.2475
  215SOL    HW1  858   0.452   0.656   2.552  0.9004  2.6610 -1.4531
  215SOL    HW2  859   0.393   0.640   2.691  2.1237 -3.3290  2.1940
  215SOL     MW  860   0.462   0.646   2.638  0.3937 -0.2698  0.2799
  216SOL     OW  861   2.992   3.048   2.736  0.5571 -0.2490 -0.5978
  216SOL    HW1  862   2.910   3.060   2.784 -0.4710 -0.3362 -0.1547
  216SOL    HW2  863   3.011   3.134   2.713 -0.3313 -1.8387  0.6256
  216SOL     MW  864   2.983   3.061   2.739  0.3042 -0.4703 -0.3779
  217SOL     OW  865   1.050   1.110   0.087 -0.0110 -0.5311  0.1439
  217SOL    HW1  866   1.077   1.049   0.016  1.6287  0.8674 -1.4722
  217SOL    HW2  867   1.087   1.192   0.045  0.2905 -0.6492 -0.2786
  217SOL     MW  868   1.058   1.112   0.072  0.2451 -0.3622 -0.1251
  218SOL     OW  869   0.876   1.353   2.680  0.0469  0.1050  0.6150
  218SOL    HW1  870   0.878   1.292   2.756 -2.2760 -0.8525  1.4164
  218SOL    HW2  871   0.967   1.371   2.658 -0.0581 -3.1902  3.2051
  218SOL     MW  872   0.889   1.347   2.687 -0.2734 -0.4561  1.0625
  219SOL     OW  873   1.133   0.332   2.606 -0.2319 -0.0383  0.1832
  219SOL    HW1  874   1.196   0.411   2.628 -0.3198 -0.7867  0.1343
  219SOL    HW2  875   1.052   0.374   2.611  1.5399  0.5973 -0.6142
  219SOL     MW  876   1.131   0.348   2.609 -0.0097 -0.0532  0.0715
  220SOL     OW  877   1.662   0.461   2.246  0.0414  0.3574  0.5622
  220SOL    HW1  878   1.579   0.458   2.203 -0.8905  1.7340  0.8104
  220SOL    HW2  879   1.717   0.390   2.206 -0.5032  0.2529 -0.0284
  220SOL     MW  880   1.658   0.451   2.235 -0.1534  0.5253  0.5171
  221SOL     OW  881   0.344   1.289   2.898  0.0595 -0.7047 -0.3845
  221SOL    HW1  882   0.415   1.227   2.878  3.9228  1.4625 -0.0103
  221SOL    HW2  883   0.350   1.361   2.832  0.6087  1.7933 -1.4692
  221SOL     MW  884   0.354   1.290   2.886  0.6417 -0.0892 -0.4782
  222SOL     OW  885   0.477   0.948   2.635  0.4099  0.0366  0.3567
  222SOL    HW1  886   0.395   0.983   2.604 -0.0864 -3.5369  1.8257
  222SOL    HW2  887   0.481   0.856   2.627  1.2528 -1.3868  0.9737
  222SOL     MW  888   0.467   0.940   2.630  0.4556 -0.6227  0.6319
  223SOL     OW  889   0.092   2.013   2.532 -0.6702  0.4815  0.9676
  223SOL    HW1  890   0.080   1.982   2.623  0.7004 -0.0536  0.1815
  223SOL    HW2  891   0.127   2.101   2.542 -2.6285 -1.8125 -1.8786
  223SOL     MW  892   0.095   2.020   2.545 -0.7477  0.1082  0.4884
  224SOL     OW  893   1.512   0.767   2.502 -0.7616  0.4489 -0.5334
  224SOL    HW1  894   1.540   0.784   2.588 -2.7206 -0.9353 -1.3824
  224SOL    HW2  895   1.476   0.852   2.479  0.1719 -0.1540 -2.2095
  224SOL     MW  896   1.511   0.781   2.510 -0.8969  0.1868 -0.8666
  225SOL     OW  897   2.925   1.445   2.249  0.5291 -0.1858  0.0328
  225SOL    HW1  898   2.967   1.524   2.216 -0.8491  1.3145 -1.6906
  225SOL    HW2  899   2.865   1.469   2.320  0.9921 -0.4464 -1.9189
  225SOL     MW  900   2.923   1.459   2.254  0.4084 -0.0222 -0.4521
  226SOL     OW  901   0.416   1.514   2.701 -0.6304  0.1148 -0.2970
  226SOL    HW1  902   0.513   1.518   2.701 -0.1288  1.2817  0.7369
  226SOL    HW2  903   0.381   1.602   2.709  2.8220  3.1826  0.8122
  226SOL     MW  904   0.424   1.526   2.702 -0.1087  0.6735 -0.0142
  227SOL     OW  905   0.547   1.126   2.839 -0.0683 -0.2393 -0.0478
  227SOL    HW1  906   0.622   1.184   2.832 -0.7913 -1.6242  3.6667
  227SOL    HW2  907   0.540   1.059   2.771  0.3923  0.4665 -0.8296
  227SOL     MW  908   0.556   1.125   2.829 -0.1029 -0.3289  0.3392
  228SOL     OW  909   0.745   1.125   2.054 -0.2780 -0.4313 -0.1778
  228SOL    HW1  910   0.748   1.201   1.991 -3.5301  1.3627 -1.1146
  228SOL    HW2  911   0.831   1.126   2.101  0.5082  2.3108 -1.4185
  228SOL     MW  912   0.757   1.135   2.052 -0.6034  0.1672 -0.4651
  229SOL     OW  913   0.163   0.663   0.016  0.6243 -0.0659 -0.3341
  229SOL    HW1  914   0.117   0.616  -0.056  0.9705 -0.0449 -0.2578
  229SOL    HW2  915   0.175   0.602   0.084  0.3762 -0.9603  0.6716
  229SOL     MW  916   0.158   0.649   0.015  0.6372 -0.1811 -0.1913
  230SOL     OW  917   1.794   1.345   2.026  0.1537  0.2280  0.3088
  230SOL    HW1  918   1.741   1.312   2.103  0.9334  1.8723 -2.8121
  230SOL    HW2  919   1.824   1.276   1.973 -1.0780  0.4205  1.0003
  230SOL     MW  920   1.791   1.332   2.029  0.0941  0.4704 -0.0117
  231SOL     OW  921   2.747   1.259   2.179 -0.0438 -0.6245 -0.3772
  231SOL    HW1  922   2.815   1.327   2.175 -1.3170  2.1184 -3.7178
  231SOL    HW2  923   2.705   1.284   2.093  2.1140  0.3286  0.1201
  231SOL     MW  924   2.750   1.271   2.167  0.0729 -0.1368 -0.7523
  232SOL     OW  925   2.269   0.839   1.994  0.4942 -0.1526 -0.0437
  232SOL    HW1  926   2.210   0.865   1.927  1.8490  2.4490  1.2802
  232SOL    HW2  927   2.231   0.852   2.083 -0.0154 -3.0733  0.1155
  232SOL     MW  928   2.256   0.844   1.997  0.6057 -0.1947  0.1520
  233SOL     OW  929   2.053   0.421   2.073  0.2534  0.3739  0.3184
  233SOL    HW1  930   2.088   0.356   2.005  0.7982  0.1970 -1.3954
  233SOL    HW2  931   2.128   0.471   2.098 -0.3562  2.3477  0.8273
  233SOL     MW  932   2.068   0.419   2.068  0.2449  0.6110  0.1594
  234SOL     OW  933   0.240   1.055   2.597  0.8040  0.1836  0.9253
  234SOL    HW1  934   0.179   1.057   2.525  1.2078 -1.1746  1.1907
  234SOL    HW2  935   0.288   1.143   2.587  1.1332  0.4884  0.8906
  234SOL     MW  936   0.238   1.067   2.586  0.9008  0.0446  0.9558
  235SOL     OW  937   1.071   3.053   2.779 -0.9670 -0.1121 -0.0906
  235SOL    HW1  938   1.091   3.018   2.867  0.8459 -3.8612  0.7885
  235SOL    HW2  939   1.098   3.149   2.798 -0.5629 -0.6010 -1.1014
  235SOL     MW  940   1.077   3.061   2.793 -0.6745 -0.6713 -0.1080
  236SOL     OW  941   2.960   0.605   0.136  0.0276 -0.2536  0.0969
  236SOL    HW1  942   2.867   0.606   0.117  0.9823  2.2170  2.6701
  236SOL    HW2  943   2.992   0.697   0.117  0.9763  1.0664  0.5574
  236SOL     MW  944   2.952   0.617   0.131  0.2787  0.2465  0.4971
  237SOL     OW  945   1.971   1.127   2.193 -0.1672 -0.5992 -0.2522
  237SOL    HW1  946   1.917   1.119   2.110 -0.6025 -3.4852  1.9711
  237SOL    HW2  947   2.009   1.041   2.204 -0.5060  1.6802  0.6810
  237SOL     MW  948   1.969   1.114   2.183 -0.2693 -0.6792  0.1643
  238SOL     OW  949   1.090   1.772   2.939  0.4972  0.2303  0.3525
  238SOL    HW1  950   1.058   1.684   2.950  0.0602 -0.3337 -1.1313
  238SOL    HW2  951   1.183   1.758   2.924  0.8352 -1.2536  0.4770
  238SOL     MW  952   1.098   1.759   2.939  0.4841 -0.0399  0.1732
  239SOL     OW  953   1.222   1.392   2.336 -0.2441 -0.3582 -0.7861
  239SOL    HW1  954   1.166   1.444   2.391 -1.9709 -0.7652 -3.2160
  239SOL    HW2  955   1.219   1.308   2.388 -0.6039 -3.9139  0.3786
  239SOL     MW  956   1.214   1.388   2.350 -0.5194 -0.8810 -0.9530
  240SOL     OW  957   0.626   0.923   2.288 -0.4720 -0.1665 -0.6903
  240SOL    HW1  958   0.696   0.930   2.358  3.9641  0.1959 -0.1655
  240SOL    HW2  959   0.681   0.884   2.222 -1.4844 -1.9624 -1.4045
  240SOL     MW  960   0.642   0.919   2.289 -0.0203 -0.3557 -0.7153
  241SOL     OW  961   0.659   0.429   0.021 -0.1085  0.5788 -0.1646
  241SOL    HW1  962   0.677   0.514   0.065 -1.4529  0.0454  1.0237
  241SOL    HW2  963   0.559   0.417   0.003 -0.3374  0.3476 -2.0686
  241SOL     MW  964   0.648   0.439   0.024 -0.3160  0.4779 -0.2590
  242SOL     OW  965   1.492   1.717   2.292  0.2224  0.2074 -0.5539
  242SOL    HW1  966   1.421   1.763   2.336 -0.9299  0.2231 -1.7636
  242SOL    HW2  967   1.440   1.646   2.253 -1.8416 -1.3796 -0.1507
  242SOL     MW  968   1.476   1.714   2.292 -0.2020  0.0001 -0.6603
  243SOL     OW  969   0.994   0.230   2.390 -0.0799  1.1242 -0.1247
  243SOL    HW1  970   1.060   0.199   2.330 -1.0809 -3.6001 -1.7904
  243SOL    HW2  971   1.051   0.275   2.451 -1.3547  0.2954  0.6676
  243SOL     MW  972   1.011   0.232   2.390 -0.3802  0.3915 -0.2399
  244SOL     OW  973   0.146   0.799   2.349 -0.0219 -0.1536 -0.1607
  244SOL    HW1  974   0.094   0.878   2.354 -0.9100  0.9870  2.1588
  244SOL    HW2  975   0.240   0.829   2.344 -0.2636  1.2967 -0.9424
  244SOL     MW  976   0.152   0.814   2.349 -0.1709  0.1883  0.0422
  245SOL     OW  977   1.254   0.198   2.302  1.0030 -0.2579 -0.2634
  245SOL    HW1  978   1.271   0.102   2.305  0.4476  0.1461 -0.1062
  245SOL    HW2  979   1.326   0.225   2.365  2.1074 -2.0084  0.7179
  245SOL     MW  980   1.266   0.189   2.311  1.0754 -0.4356 -0.1132
  246SOL     OW  981   1.182   1.139   2.108 -0.6327 -0.2398 -0.3883
  246SOL    HW1  982   1.100   1.107   2.157  0.4386  0.4436  0.7066
  246SOL    HW2  983   1.267   1.097   2.141  1.8411  0.0695 -1.5956
  246SOL     MW  984   1.182   1.129   2.119 -0.1650 -0.1088 -0.4032
  247SOL     OW  985   0.757   0.620   0.201  0.2222  0.1110 -0.3419
  247SOL    HW1  986   0.730   0.709   0.206  1.5433 -1.5479 -1.7267
  247SOL    HW2  987   0.847   0.632   0.164  0.0058  0.7944 -2.4930
  247SOL     MW  988   0.765   0.634   0.197  0.3679 -0.0177 -0.8084
  248SOL     OW  989   0.337   1.304   2.563  0.4323 -0.1360  0.1795
  248SOL    HW1  990   0.354   1.341   2.470 -2.3371  0.9277  0.7320
  248SOL    HW2  991   0.361   1.380   2.616 -3.7777 -1.3336  1.3583
  248SOL     MW  992   0.342   1.319   2.558 -0.4886 -0.1537  0.4079
  249SOL     OW  993   0.011   1.889   2.782 -0.7345  0.6948  0.4292
  249SOL    HW1  994  -0.086   1.881   2.786 -0.8644 -0.3639  1.1773
  249SOL    HW2  995   0.049   1.814   2.834 -1.3322 -0.7739  0.6334
  249SOL     MW  996   0.003   1.878   2.790 -0.8305  0.3614  0.5548
  250SOL     OW  997   2.144   0.916   2.266  0.3825  0.4385 -0.2219
  250SOL    HW1  998   2.162   0.832   2.306  0.2703 -1.0611  0.1936
  250SOL    HW2  999   2.218   0.973   2.254 -0.1096  0.5649 -1.5304
  250SOL     MW 1000   2.156   0.913   2.270  0.3028  0.2573 -0.3397
  251SOL     OW 1001   0.192   0.909   1.967  0.3104  0.5359  0.7367
  251SOL    HW1 1002   0.187   0.811   1.984  0.9533 -1.1956  0.8989
  251SOL    HW2 1003   0.182   0.911   1.870  2.4389 -0.8347  2.6459
  251SOL     MW 1004   0.190   0.896   1.957  0.6760  0.1266  1.0100
  252SOL     OW 1005   1.676   1.003   2.911 -0.3054  0.5956 -0.4650
  252SOL    HW1 1006   1.687   1.080   2.964 -1.1495  1.4986  0.0990
  252SOL    HW2 1007   1.745   1.013   2.848 -0.1584 -1.3086  1.4165
  252SOL     MW 1008   1.687   1.014   2.910 -0.3974  0.4635 -0.1423
  253SOL     OW 1009   1.128   1.714   2.468  0.0890 -0.5268 -0.3603
  253SOL    HW1 1010   1.109   1.703   2.365 -1.9754 -3.0487 -1.5838
  253SOL    HW2 1011   1.045   1.766   2.500  1.1061  2.6879 -1.3709
  253SOL     MW 1012   1.114   1.720   2.459 -0.0492 -0.4354 -0.6551
  254SOL     OW 1013   0.954   1.096   2.242  0.2508  0.2081  0.1553
  254SOL    HW1 1014   0.949   0.999   2.264 -1.1185 -0.3155  0.6935
  254SOL    HW2 1015   0.914   1.145   2.313  3.3263  0.5714 -1.6695
  254SOL     MW 1016   0.948   1.089   2.255  0.4760  0.1869 -0.0145
  255SOL     OW 1017   0.849   2.504   2.179  0.0603  0.2688 -0.6490
  255SOL    HW1 1018   0.758   2.458   2.184 -1.4960 -1.7185  1.6279
  255SOL    HW2 1019   0.912   2.439   2.216  0.0746 -0.4973 -0.3533
  255SOL     MW 1020   0.845   2.490   2.185 -0.1431 -0.0945 -0.3096
  256SOL     OW 1021   1.235   2.748   2.973 -0.6210  0.6455  0.2739
  256SOL    HW1 1022   1.202   2.687   2.908 -0.4464 -1.0110 -1.8905
  256SOL    HW2 1023   1.329   2.756   2.948  1.1184  2.7492 -0.6002
  256SOL     MW 1024   1.243   2.741   2.961 -0.3685  0.7045 -0.1270
  257SOL     OW 1025   0.065   1.908   3.099 -0.6062  0.0301 -0.3217
  257SOL    HW1 1026   0.128   1.970   3.120 -0.4366 -3.4479 -0.1165
  257SOL    HW2 1027   0.114   1.840   3.045  0.3958 -2.5019 -0.2445
  257SOL     MW 1028   0.080   1.907   3.095 -0.4516 -0.7629 -0.2845
  258SOL     OW 1029   0.767   0.985   2.524 -1.0371 -0.3197  0.5455
  258SOL    HW1 1030   0.749   1.072   2.492 -1.3840 -0.2310  0.9852
  258SOL    HW2 1031   0.693   0.941   2.575 -2.8407  1.7632 -0.8697
  258SOL     MW 1032   0.755   0.991   2.526 -1.3209 -0.0332  0.4168
  259SOL     OW 1033   0.865   0.427   2.273 -0.3843  0.7383 -0.0385
  259SOL    HW1 1034   0.782   0.400   2.229  1.6895  0.1290 -2.7414
  259SOL    HW2 1035   0.910   0.345   2.307 -2.0317  0.2519 -0.0045
  259SOL     MW 1036   0.860   0.412   2.271 -0.3281  0.5937 -0.3906
  260SOL     OW 1037   0.655   0.113   1.631  0.3998 -0.1321  0.1652
  260SOL    HW1 1038   0.606   0.103   1.553 -0.9695 -0.0114 -0.6073
  260SOL    HW2 1039   0.735   0.143   1.588  1.5444 -2.3653 -0.3869
  260SOL     MW 1040   0.659   0.116   1.615  0.3701 -0.4108 -0.0096
  261SOL     OW 1041   1.120   0.709   2.028 -0.1917 -0.6761 -0.5359
  261SOL    HW1 1042   1.139   0.711   2.128 -3.0579 -0.4973 -0.3592
  261SOL    HW2 1043   1.063   0.634   2.007 -1.8899 -1.6069 -3.3930
  261SOL     MW 1044   1.115   0.700   2.038 -0.7939 -0.7753 -0.8895
  262SOL     OW 1045   1.089   0.342   0.186  0.8160  0.1365 -0.3512
  262SOL    HW1 1046   1.179   0.361   0.161 -1.8542 -0.0211  0.2033
  262SOL    HW2 1047   1.050   0.273   0.133 -0.8578  2.7382 -2.1072
  262SOL     MW 1048   1.096   0.335   0.176  0.2428  0.4590 -0.5097
  263SOL     OW 1049   0.393   0.042   2.481 -1.1019 -0.0351 -0.1391
  263SOL    HW1 1050   0.338   0.117   2.506 -2.4275  1.2440 -0.0582
  263SOL    HW2 1051   0.451   0.068   2.408  1.3404 -0.5283  2.1324
  263SOL     MW 1052   0.394   0.055   2.475 -0.9545  0.0686  0.1713
  264SOL     OW 1053   1.559   1.349   1.884  0.0601  0.4375 -0.1721
  264SOL    HW1 1054   1.534   1.257   1.890 -1.7124  0.7352  0.4140
  264SOL    HW2 1055   1.629   1.361   1.950  1.2920  1.0431  0.3284
  264SOL     MW 1056   1.565   1.338   1.894 -0.0112  0.5567 -0.0287
  265SOL     OW 1057   0.775   2.740   2.259 -0.2308 -0.1229  0.7804
  265SOL    HW1 1058   0.819   2.656   2.238  1.7198 -0.2359  3.4010
  265SOL    HW2 1059   0.809   2.756   2.349  1.8547  1.0867  1.9436
  265SOL     MW 1060   0.785   2.731   2.268  0.3018  0.0218  1.2797
  266SOL     OW 1061   0.906   0.849   2.183  0.2400 -0.1577 -0.6125
  266SOL    HW1 1062   0.885   0.829   2.094  1.9079  1.0396  0.6348
  266SOL    HW2 1063   0.951   0.774   2.221  1.4478  2.7425 -0.1924
  266SOL     MW 1064   0.909   0.837   2.177  0.6194  0.3829 -0.3925
  267SOL     OW 1065   1.334   1.759   2.647  0.2115 -0.0505 -0.5401
  267SOL    HW1 1066   1.400   1.709   2.594 -2.0787  0.6077 -2.6865
  267SOL    HW2 1067   1.263   1.772   2.583 -1.0098 -1.9214  4.4978
  267SOL     MW 1068   1.334   1.754   2.632 -0.2518 -0.2105 -0.1586
  268SOL     OW 1069   0.151   0.930   1.690 -0.7516 -0.2040 -0.4005
  268SOL    HW1 1070   0.102   1.020   1.681  0.1496  1.0033 -0.2976
  268SOL    HW2 1071   0.099   0.882   1.631  0.2291 -1.0005  2.5297
  268SOL     MW 1072   0.138   0.936   1.681 -0.5033 -0.1498 -0.0003
  269SOL     OW 1073   1.345   1.968   2.318  0.4160 -0.5001 -0.3224
  269SOL    HW1 1074   1.402   2.036   2.348  1.9145 -1.4589  0.9572
  269SOL    HW2 1075   1.256   1.986   2.356 -2.1529  0.4120 -1.0740
  269SOL     MW 1076   1.341   1.979   2.327  0.2748 -0.5063 -0.2527
  270SOL     OW 1077   1.152   0.432   1.603 -0.4046  0.4387  0.0446
  270SOL    HW1 1078   1.126   0.345   1.636 -0.3683 -1.5817  0.7651
  270SOL    HW2 1079   1.248   0.418   1.585 -0.8574 -0.3445  0.9770
  270SOL     MW 1080   1.161   0.418   1.605 -0.4595  0.0688  0.2627
  271SOL     OW 1081   0.775   0.057   2.491  0.1559 -0.1576 -0.4613
  271SOL    HW1 1082   0.818  -0.020   2.520 -3.5163  0.7448  0.1794
  271SOL    HW2 1083   0.839   0.119   2.453  0.6383  3.0403 -2.1082
  271SOL     MW 1084   0.789   0.055   2.490 -0.2649  0.3834 -0.5940
  272SOL     OW 1085   1.483   2.826   2.852 -0.5061 -0.0127  0.3276
  272SOL    HW1 1086   1.476   2.802   2.754  1.2405 -3.2963  2.8995
  272SOL    HW2 1087   1.512   2.917   2.862 -0.0656  2.0738 -0.5764
  272SOL     MW 1088   1.486   2.835   2.840 -0.2175 -0.1707  0.5476
  273SOL     OW 1089   1.447   0.905   2.790 -0.2673  0.1219 -0.4603
  273SOL    HW1 1090   1.522   0.954   2.818 -2.6445 -0.1857 -3.1161
  273SOL    HW2 1091   1.412   0.968   2.729 -0.5731  0.1882  0.4689
  273SOL     MW 1092   1.452   0.920   2.786 -0.6213  0.0900 -0.6881
  274SOL     OW 1093   1.397   0.768   0.136  0.0765  0.2499  0.3566
  274SOL    HW1 1094   1.426   0.699   0.194  0.0390 -1.7489 -2.5467
  274SOL    HW2 1095   1.310   0.788   0.177 -1.4086  1.6492  1.4721
  274SOL     MW 1096   1.389   0.762   0.149 -0.1244  0.1708  0.1207
  275SOL     OW 1097   1.701   0.516   1.753  0.1652 -0.0742 -0.0339
  275SOL    HW1 1098   1.754   0.571   1.813 -0.6948  0.4280  1.0730
  275SOL    HW2 1099   1.738   0.429   1.774  0.4139  0.8871 -1.0321
  275SOL     MW 1100   1.713   0.512   1.764  0.0845  0.1189 -0.0195
  276SOL     OW 1101   0.417   1.287   1.943  0.3786 -0.5022 -0.1553
  276SOL    HW1 1102   0.433   1.190   1.945 -1.9883  0.0205 -0.8300
  276SOL    HW2 1103   0.343   1.274   2.005  1.8741 -3.4956  0.5854
  276SOL     MW 1104   0.409   1.272   1.951  0.2636 -0.8282 -0.1466
  277SOL     OW 1105   1.981   1.150   2.489  0.1864 -0.9598 -0.3191
  277SOL    HW1 1106   2.015   1.241   2.488  0.7251 -1.1128 -0.0467
  277SOL    HW2 1107   1.960   1.131   2.399  0.2955 -1.9343  1.1376
  277SOL     MW 1108   1.983   1.159   2.477  0.2719 -1.1086 -0.0910
  278SOL     OW 1109   1.362   0.678   1.703  0.3173 -0.0638  0.9204
  278SOL    HW1 1110   1.328   0.595   1.743 -1.4099 -2.2577  2.4947
  278SOL    HW2 1111   1.438   0.702   1.761 -0.7184  2.1269  0.2003
  278SOL     MW 1112   1.368   0.670   1.716 -0.0472 -0.0642  1.0331
  279SOL     OW 1113   0.533   0.086   2.217  0.5208 -0.1271  0.8955
  279SOL    HW1 1114   0.619   0.047   2.227 -0.1054  0.1117  0.8961
  279SOL    HW2 1115   0.551   0.169   2.173  1.6225 -0.9021  1.4810
  279SOL     MW 1116   0.547   0.092   2.213  0.5835 -0.1979  0.9728
  280SOL     OW 1117   1.428   1.023   2.154  0.4062  0.7884  0.0612
  280SOL    HW1 1118   1.469   0.944   2.113 -1.6605  2.7001 -1.3751
  280SOL    HW2 1119   1.452   1.027   2.253 -0.7558  2.0891  1.3908
  280SOL     MW 1120   1.437   1.013   2.162 -0.0198  1.2123  0.0471
  281SOL     OW 1121   1.391   1.197   2.692  0.6414 -0.7517 -0.0926
  281SOL    HW1 1122   1.480   1.232   2.696 -0.9404 -2.3008  1.2677
  281SOL    HW2 1123   1.362   1.169   2.782  1.0041  1.1464 -0.2336
  281SOL     MW 1124   1.399   1.198   2.705  0.4806 -0.7057  0.0683
  282SOL     OW 1125   1.127   1.262   1.638  0.2103  0.1353  0.1138
  282SOL    HW1 1126   1.106   1.358   1.629  0.1215  0.6581 -2.9555
  282SOL    HW2 1127   1.067   1.230   1.705  3.0555  0.4833  0.8668
  282SOL     MW 1128   1.116   1.271   1.646  0.5740  0.2502 -0.1918
  283SOL     OW 1129   0.831   1.317   3.094  0.4179 -0.2425  0.5464
  283SOL    HW1 1130   0.904   1.286   3.142 -0.9323  1.3348 -2.1255
  283SOL    HW2 1131   0.868   1.404   3.076 -0.9820 -0.4108  1.4056
  283SOL     MW 1132   0.846   1.324   3.098  0.0550 -0.0566  0.3072
  284SOL     OW 1133   0.419   0.761   2.382 -0.0167 -0.4300 -0.4254
  284SOL    HW1 1134   0.488   0.827   2.351 -2.4732  2.4610 -0.0420
  284SOL    HW2 1135   0.431   0.694   2.313 -0.1675  1.6415  0.0901
  284SOL     MW 1136   0.430   0.761   2.369 -0.3607  0.2248 -0.3068
  285SOL     OW 1137   0.892   0.894   2.800  0.1006 -0.1669 -0.1935
  285SOL    HW1 1138   0.944   0.923   2.727  2.0106  1.2374  1.1962
  285SOL    HW2 1139   0.851   0.813   2.782  0.6970  1.8508  0.3066
  285SOL     MW 1140   0.894   0.887   2.788  0.4313  0.2846  0.0558
  286SOL     OW 1141   1.118   1.472   2.612  0.3250  0.5278 -0.1464
  286SOL    HW1 1142   1.197   1.468   2.661 -1.6060 -0.2477 -1.2732
  286SOL    HW2 1143   1.111   1.559   2.578  1.1932  1.8713  1.7083
  286SOL     MW 1144   1.128   1.483   2.614  0.1848  0.6027 -0.0504
  287SOL     OW 1145   1.217   1.006   0.326  0.4423  1.3446 -0.6351
  287SOL    HW1 1146   1.194   1.051   0.411  2.2154 -1.0703 -1.0333
  287SOL    HW2 1147   1.167   1.040   0.257 -1.1848  1.8155  1.8612
  287SOL     MW 1148   1.207   1.017   0.329  0.4616  1.0881 -0.3583
  288SOL     OW 1149   1.489   0.606   2.058 -0.2806  0.4524  0.3660
  288SOL    HW1 1150   1.433   0.592   2.137 -2.0030  0.8585 -2.7030
  288SOL    HW2 1151   1.526   0.688   2.044 -1.2748 -3.1288 -3.0169
  288SOL     MW 1152   1.487   0.615   2.067 -0.6390  0.0335 -0.4853
  289SOL     OW 1153   1.025   0.976   2.567 -0.7715 -0.0294  0.6061
  289SOL    HW1 1154   1.061   0.885   2.543 -0.4227 -0.4932 -0.0180
  289SOL    HW2 1155   0.936   0.986   2.542 -0.7535 -0.5400  1.5601
  289SOL     MW 1156   1.018   0.965   2.561 -0.7231 -0.1580  0.6496
  290SOL     OW 1157   0.802   0.607   1.497  0.3014 -0.0336 -0.2764
  290SOL    HW1 1158   0.864   0.560   1.440  0.1696  0.1489 -1.6614
  290SOL    HW2 1159   0.855   0.627   1.573 -1.3713 -0.2694  0.5182
  290SOL     MW 1160   0.817   0.603   1.499  0.0633 -0.0406 -0.3543
  291SOL     OW 1161   0.188   0.395   0.131  0.6026 -0.4456 -0.4429
  291SOL    HW1 1162   0.264   0.349   0.176  0.5075  0.6271  3.7326
  291SOL    HW2 1163   0.167   0.330   0.062  0.3972 -1.3108 -1.7438
  291SOL     MW 1164   0.195   0.381   0.128  0.5630 -0.4182 -0.0636
  292SOL     OW 1165   1.035   0.598   0.097  0.1143 -0.1657  0.5872
  292SOL    HW1 1166   1.077   0.657   0.162  0.2724  2.6261  2.2679
  292SOL    HW2 1167   1.037   0.511   0.130  1.6453  2.6567  2.9421
  292SOL     MW 1168   1.041   0.594   0.110  0.3372  0.5750  1.1196
  293SOL     OW 1169   0.134   0.190   2.483 -0.0251  0.4910  0.0405
  293SOL    HW1 1170   0.073   0.130   2.434 -0.7493 -1.5289  1.3839
  293SOL    HW2 1171   0.099   0.200   2.569  0.8577  1.7867 -0.0818
  293SOL     MW 1172   0.121   0.183   2.488 -0.0042  0.3954  0.2016
  294SOL     OW 1173   1.382   0.563   2.313 -0.5870  0.5979 -0.0747
  294SOL    HW1 1174   1.425   0.625   2.373  0.8079 -0.3390 -0.7932
  294SOL    HW2 1175   1.399   0.481   2.363 -0.4897 -3.1732 -1.5320
  294SOL     MW 1176   1.390   0.560   2.327 -0.3901 -0.0233 -0.3618
  295SOL     OW 1177   0.937   0.538   2.548 -0.8529  0.1633  0.2248
  295SOL    HW1 1178   0.906   0.493   2.466 -2.2930 -1.3768  1.2373
  295SOL    HW2 1179   0.859   0.556   2.599  2.2574  0.4729 -0.1493
  295SOL     MW 1180   0.923   0.535   2.544 -0.6325  0.0009  0.3090
  296SOL     OW 1181   1.213   0.251   2.041 -0.1659 -0.4511 -0.5041
  296SOL    HW1 1182   1.292   0.210   2.002 -0.0841 -0.7093  0.9412
  296SOL    HW2 1183   1.233   0.245   2.133  0.1063  0.7907 -2.8439
  296SOL     MW 1184   1.226   0.245   2.048 -0.1192 -0.3214 -0.6221
  297SOL     OW 1185   1.426   0.402   1.548 -0.0904 -0.2819 -0.2424
  297SOL    HW1 1186   1.463   0.463   1.607 -3.0786 -2.1212 -0.7181
  297SOL    HW2 1187   1.442   0.313   1.570  1.7032 -0.5028  0.4984
  297SOL     MW 1188   1.433   0.398   1.559 -0.2480 -0.5537 -0.2074
  298SOL     OW 1189   1.604   0.850   2.050 -0.2804 -0.1448  0.4643
  298SOL    HW1 1190   1.659   0.900   1.993 -1.2733 -0.0292  1.1982
  298SOL    HW2 1191   1.665   0.831   2.117 -0.2977  0.8949  0.8184
  298SOL     MW 1192   1.620   0.854   2.051 -0.4137  0.0076  0.6079
  299SOL     OW 1193   0.619   1.113   0.010 -0.1656 -0.0361 -0.2369
  299SOL    HW1 1194   0.582   1.123  -0.083  1.5778  1.4594 -3.6974
  299SOL    HW2 1195   0.655   1.201   0.033 -1.8173  2.9998 -1.1637
  299SOL     MW 1196   0.619   1.126   0.001 -0.1535  0.5618 -0.8157
  300SOL     OW 1197   1.241   1.134   2.457 -0.1656 -0.4193 -0.0148
  300SOL    HW1 1198   1.186   1.061   2.485  0.8807  0.2880 -1.1054
  300SOL    HW2 1199   1.279   1.159   2.542 -3.1643 -0.4730  0.5887
  300SOL     MW 1200   1.239   1.128   2.472 -0.4232 -0.3330 -0.0790
  301SOL     OW 1201   1.431   0.950   0.667 -0.3563 -0.1531  0.2747
  301SOL    HW1 1202   1.458   0.985   0.749  0.8477 -1.3669  0.3372
  301SOL    HW2 1203   1.381   0.875   0.682  1.5601  0.1795 -0.1044
  301SOL     MW 1204   1.428   0.944   0.680  0.0554 -0.2694  0.2330
  302SOL     OW 1205   0.211   1.549   2.035  0.0883  0.3361  0.1017
  302SOL    HW1 1206   0.220   1.458   2.063  0.2737  0.1346  0.4079
  302SOL    HW2 1207   0.144   1.582   2.091 -0.0426 -0.5612  0.2904
  302SOL     MW 1208   0.203   1.541   2.046  0.0955  0.1911  0.1670
  303SOL     OW 1209   0.357   1.794   2.700  0.0476 -0.3938  0.1612
  303SOL    HW1 1210   0.323   1.806   2.610 -3.4921 -0.9979 -0.4886
  303SOL    HW2 1211   0.282   1.787   2.764 -3.4661 -0.5553 -0.2878
  303SOL     MW 1212   0.343   1.795   2.697 -0.8830 -0.4948  0.0162
  304SOL     OW 1213   0.492   2.044   2.319 -0.1547  0.1773 -0.1120
  304SOL    HW1 1214   0.568   2.111   2.306 -0.4698  0.0034 -0.4076
  304SOL    HW2 1215   0.549   1.971   2.325  2.0949  2.0439 -2.0383
  304SOL     MW 1216   0.509   2.043   2.318  0.1005  0.4007 -0.4052
  305SOL     OW 1217   1.102   0.622   0.559  0.4219  0.7491  0.1858
  305SOL    HW1 1218   1.011   0.598   0.549  0.5048  2.2801  0.3757
  305SOL    HW2 1219   1.155   0.539   0.555  0.9775  2.5905  2.6590
  305SOL     MW 1220   1.097   0.608   0.557  0.5062  1.1940  0.5372
  306SOL     OW 1221   1.169   1.565   0.241 -0.6508  0.1858 -0.1757
  306SOL    HW1 1222   1.177   1.475   0.288 -1.3538 -0.2126  0.8091
  306SOL    HW2 1223   1.245   1.571   0.181 -0.2648 -1.7030 -2.6656
  306SOL     MW 1224   1.180   1.554   0.240 -0.6926 -0.1160 -0.3743
  307SOL     OW 1225   1.328   0.443   1.874 -0.2144 -0.1472 -0.0080
  307SOL    HW1 1226   1.256   0.398   1.914  1.2765  0.5018  1.1332
  307SOL    HW2 1227   1.388   0.480   1.941  0.1184  2.0930  1.7279
  307SOL     MW 1228   1.326   0.442   1.888  0.0262  0.2340  0.3716
  308SOL     OW 1229   2.229   0.513   2.677  0.7015 -0.3502 -0.2857
  308SOL    HW1 1230   2.323   0.508   2.703 -1.7301  0.5539 -0.0415
  308SOL    HW2 1231   2.196   0.609   2.681 -1.1400 -0.9107  0.3871
  308SOL     MW 1232   2.237   0.525   2.681  0.1377 -0.3048 -0.1647
  309SOL     OW 1233   0.473   0.552   0.225  0.0185  0.1960 -0.3493
  309SOL    HW1 1234   0.562   0.572   0.200  1.2465  0.8763  3.4496
  309SOL    HW2 1235   0.477   0.458   0.240 -0.1671  1.5302  0.8086
  309SOL     MW 1236   0.485   0.543   0.223  0.1560  0.4618  0.3047
  310SOL     OW 1237   0.468   0.580   1.888  0.4999 -0.0145  0.1101
  310SOL    HW1 1238   0.516   0.507   1.865 -2.4226  1.9368  1.0165
  310SOL    HW2 1239   0.519   0.651   1.848  0.2159  1.5925 -0.7772
  310SOL     MW 1240   0.481   0.580   1.880  0.0768  0.4550  0.1126
  311SOL     OW 1241   1.896   0.652   1.950  0.6566  0.2034 -0.4673
  311SOL    HW1 1242   1.855   0.652   2.039  0.3017 -2.6950 -0.4941
  311SOL    HW2 1243   1.952   0.577   1.970 -2.2378  0.8719  1.1793
  311SOL     MW 1244   1.898   0.642   1.964  0.2278 -0.0908 -0.2536
  312SOL     OW 1245   1.820   2.462   0.190 -0.2306  0.1652 -0.3547
  312SOL    HW1 1246   1.859   2.440   0.276  0.4541 -1.4668 -2.3513
  312SOL    HW2 1247   1.731   2.497   0.198 -1.0736 -0.7118 -0.4355
  312SOL     MW 1248   1.813   2.464   0.203 -0.2515 -0.1658 -0.6288
  313SOL     OW 1249   0.106   1.102   3.012 -0.4882  0.3423  0.9256
  313SOL    HW1 1250   0.065   1.131   3.093  0.3877 -0.5142 -1.2226
  313SOL    HW2 1251   0.126   1.188   2.965  1.2411 -0.6874 -0.8863
  313SOL     MW 1252   0.103   1.117   3.017 -0.1444  0.0934  0.4031
  314SOL     OW 1253   2.158   2.984   2.979  0.4575 -0.4958  0.8767
  314SOL    HW1 1254   2.073   3.035   2.953  2.0868 -1.3570 -0.9064
  314SOL    HW2 1255   2.224   3.041   3.026 -1.0118 -0.8195 -2.8585
  314SOL     MW 1256   2.156   2.998   2.982  0.4786 -0.6521  0.1487
  315SOL     OW 1257   1.537   1.832   3.009  0.1483 -0.3132 -0.6940
  315SOL    HW1 1258   1.487   1.887   3.081 -0.6197 -2.7509  2.1808
  315SOL    HW2 1259   1.562   1.900   2.943  0.7660 -0.7845  2.8256
  315SOL     MW 1260   1.534   1.848   3.010  0.1284 -0.6970  0.1496
  316SOL     OW 1261   1.265   0.549   2.720 -0.4306  0.0785 -0.0253
  316SOL    HW1 1262   1.361   0.557   2.739  2.1529 -0.7666  1.4377
  316SOL    HW2 1263   1.215   0.554   2.803 -0.1742 -1.4242 -1.9202
  316SOL     MW 1264   1.271   0.551   2.733 -0.0559 -0.2312 -0.0823
  317SOL     OW 1265   0.663   1.540   2.656 -0.1784  0.8645 -0.0895
  317SOL    HW1 1266   0.716   1.460   2.664 -0.4281 -2.4798  1.2799
  317SOL    HW2 1267   0.659   1.540   2.560  0.8241  0.7038  0.8454
  317SOL     MW 1268   0.669   1.529   2.644 -0.0791  0.4020  0.2145
  318SOL     OW 1269   1.355   0.334   2.943 -0.0654  0.2955  0.1145
  318SOL    HW1 1270   1.263   0.354   2.927  0.9189  0.9235 -2.0322
  318SOL    HW2 1271   1.412   0.406   2.899 -2.2282  0.5926 -3.0046
  318SOL     MW 1272   1.350   0.346   2.935 -0.2209  0.4176 -0.5803
  319SOL     OW 1273   0.857   0.341   2.912 -0.1659 -0.5128 -0.2956
  319SOL    HW1 1274   0.787   0.304   2.860  3.7666 -3.1931 -0.0057
  319SOL    HW2 1275   0.819   0.367   2.997  0.6146 -0.0204  2.0207
  319SOL     MW 1276   0.843   0.340   2.916  0.4560 -0.8014  0.0483
  320SOL     OW 1277   1.064   1.380   1.998  0.0974 -0.0145  0.3169
  320SOL    HW1 1278   1.130   1.321   2.043  1.5012 -0.3494 -2.4847
  320SOL    HW2 1279   1.124   1.455   1.981  1.2085  1.4332 -0.0401
  320SOL     MW 1280   1.081   1.382   2.002  0.4292  0.1324 -0.0998
  321SOL     OW 1281   1.107   0.915   3.008 -0.9300  0.0995 -0.5523
  321SOL    HW1 1282   1.039   0.894   2.948  2.2711  0.2953 -0.9354
  321SOL    HW2 1283   1.170   0.851   2.973 -1.3482 -0.8685 -1.6209
  321SOL     MW 1284   1.107   0.904   2.995 -0.5628 -0.0024 -0.7439
  322SOL     OW 1285   1.162   0.850   1.657  0.1680  0.1013 -0.2581
  322SOL    HW1 1286   1.231   0.792   1.683 -0.9615 -0.1397  1.1556
  322SOL    HW2 1287   1.147   0.893   1.743 -0.1353 -1.3048  0.2593
  322SOL     MW 1288   1.169   0.848   1.672 -0.0210 -0.1160 -0.0033
  323SOL     OW 1289   1.234   1.585   1.883  0.1875  0.3630  0.1263
  323SOL    HW1 1290   1.287   1.584   1.802 -0.5836 -0.6756 -0.5465
  323SOL    HW2 1291   1.197   1.678   1.892  2.6435  0.9990 -1.4371
  323SOL     MW 1292   1.236   1.597   1.874  0.4098  0.3099 -0.1687
  324SOL     OW 1293   1.467   1.024   2.426  0.1156 -1.1349  0.0872
  324SOL    HW1 1294   1.388   1.077   2.432  0.4344  2.5464 -2.8413
  324SOL    HW2 1295   1.536   1.077   2.461 -1.5538  1.0890  0.8877
  324SOL     MW 1296   1.466   1.038   2.431 -0.0626 -0.3558 -0.1935
  325SOL     OW 1297   1.109   0.500   2.949 -0.1226 -0.3810  0.1619
  325SOL    HW1 1298   1.103   0.563   3.017  1.0678 -1.4903  0.4727
  325SOL    HW2 1299   1.018   0.464   2.932 -1.3842 -1.0837  2.2509
  325SOL     MW 1300   1.096   0.503   2.956 -0.1320 -0.6201  0.4786
  326SOL     OW 1301   0.380   1.370   2.326 -0.6441  0.7466 -0.0239
  326SOL    HW1 1302   0.460   1.343   2.274  3.1826 -0.1193  1.1430
  326SOL    HW2 1303   0.372   1.466   2.306  1.4278 -2.6211 -1.6721
  326SOL     MW 1304   0.389   1.379   2.316  0.1342  0.1880 -0.0874
  327SOL     OW 1305   1.921   0.779   2.443 -0.2850 -0.2147 -0.0546
  327SOL    HW1 1306   1.888   0.740   2.526 -1.0096 -1.2686 -2.5891
  327SOL    HW2 1307   1.937   0.874   2.451 -0.9254  2.0496  1.8073
  327SOL     MW 1308   1.919   0.786   2.455 -0.4651 -0.0550 -0.1434
  328SOL     OW 1309   0.205   1.284   2.122 -0.1679 -1.0092 -0.8378
  328SOL    HW1 1310   0.131   1.223   2.130 -2.8044  0.9614 -2.1402
  328SOL    HW2 1311   0.245   1.300   2.207  1.8702 -2.4401 -0.8376
  328SOL     MW 1312   0.200   1.278   2.134 -0.2468 -0.9380 -1.0096
  329SOL     OW 1313   0.018   0.181   1.390  0.2328 -0.3381 -0.5916
  329SOL    HW1 1314   0.028   0.137   1.474  1.3896 -4.2268 -0.5836
  329SOL    HW2 1315   0.106   0.220   1.397  0.1613  1.1491  0.4393
  329SOL     MW 1316   0.031   0.180   1.402  0.3760 -0.6549 -0.4545
  330SOL     OW 1317   0.393   3.046   2.046 -0.4317  0.0442 -0.0352
  330SOL    HW1 1318   0.452   3.102   2.102  1.9831 -0.0685 -1.3063
  330SOL    HW2 1319   0.353   2.982   2.108  2.5844 -1.3267 -2.9918
  330SOL     MW 1320   0.396   3.045   2.062  0.2848 -0.1516 -0.5930
  331SOL     OW 1321   0.802   1.259   2.428 -0.8165  0.0553 -0.3148
  331SOL    HW1 1322   0.761   1.327   2.373 -0.8924  0.9460 -0.9606
  331SOL    HW2 1323   0.822   1.300   2.512  0.3526 -2.0040  1.5569
  331SOL     MW 1324   0.799   1.274   2.432 -0.6722 -0.0989 -0.1531
  332SOL     OW 1325   1.346   1.645   2.888 -0.0885  0.2789  0.2996
  332SOL    HW1 1326   1.332   1.691   2.803  0.2962 -0.1775  0.7986
  332SOL    HW2 1327   1.397   1.709   2.936 -0.9640 -1.2525  0.9335
  332SOL     MW 1328   1.351   1.659   2.884 -0.1533  0.0166  0.4491
  333SOL     OW 1329   1.749   1.389   2.909 -0.5002  0.6669 -0.5155
  333SOL    HW1 1330   1.831   1.386   2.969  2.2466 -2.7445  0.9217
  333SOL    HW2 1331   1.684   1.350   2.962  0.6000 -0.2305 -2.4563
  333SOL     MW 1332   1.751   1.384   2.924  0.0074  0.0984 -0.5820
  334SOL     OW 1333   1.258   3.063   2.561 -0.1357 -0.2902  0.1652
  334SOL    HW1 1334   1.205   3.033   2.636 -1.4535  0.0175  1.2081
  334SOL    HW2 1335   1.285   3.153   2.590  3.0504  1.2616  2.9493
  334SOL     MW 1336   1.254   3.071   2.574  0.1108 -0.0449  0.6701
  335SOL     OW 1337   1.325   0.734   2.973 -0.1378 -0.6270  0.5846
  335SOL    HW1 1338   1.364   0.749   3.061  3.0496  1.0179  0.8473
  335SOL    HW2 1339   1.370   0.798   2.907  2.8079  3.3035 -0.2563
  335SOL     MW 1340   1.336   0.745   2.976  0.6714  0.1086  0.5083
  336SOL     OW 1341   0.959   1.159   1.826 -0.0233 -0.2038 -0.3510
  336SOL    HW1 1342   0.981   1.246   1.877  1.1261  2.0538 -0.5901
  336SOL    HW2 1343   0.997   1.085   1.875 -0.5509  0.3303 -0.1052
  336SOL     MW 1344   0.967   1.161   1.839  0.0588  0.1646 -0.3501
  337SOL     OW 1345   0.622   1.846   2.773 -0.4274  0.0802 -0.0453
  337SOL    HW1 1346   0.547   1.835   2.710 -1.7775  1.3033  0.6488
  337SOL    HW2 1347   0.698   1.790   2.745 -0.5659 -0.3140 -0.2786
  337SOL     MW 1348   0.622   1.837   2.761 -0.6238  0.1895  0.0155
  338SOL     OW 1349   1.135   0.737   2.559 -0.3325  0.5265 -0.0034
  338SOL    HW1 1350   1.062   0.669   2.555  0.9599 -1.0522 -3.3721
  338SOL    HW2 1351   1.195   0.693   2.616 -3.1094  1.8188 -1.0439
  338SOL     MW 1352   1.133   0.722   2.566 -0.5284  0.4887 -0.5852
  339SOL     OW 1353   1.515   1.065   1.833 -0.3597 -0.0204  0.5691
  339SOL    HW1 1354   1.447   1.059   1.765 -2.5378 -1.7043  2.0835
  339SOL    HW2 1355   1.480   1.022   1.910  0.6457  0.3164  1.1123
  339SOL     MW 1356   1.501   1.059   1.834 -0.5144 -0.1981  0.8406
  340SOL     OW 1357   1.351   1.502   0.030  1.0601 -0.2300 -0.1895
  340SOL    HW1 1358   1.350   1.539  -0.058 -0.0598 -0.8150 -0.9589
  340SOL    HW2 1359   1.428   1.453   0.036 -3.1333 -1.9228  0.4938
  340SOL     MW 1360   1.361   1.501   0.019  0.3591 -0.5306 -0.2009
  341SOL     OW 1361   0.105   1.342   2.745 -0.2786 -0.1278  0.0807
  341SOL    HW1 1362   0.194   1.319   2.718 -2.7217 -1.4000 -1.4093
  341SOL    HW2 1363   0.050   1.337   2.667  0.4415 -0.0801  2.3797
  341SOL     MW 1364   0.110   1.338   2.731 -0.5059 -0.2894  0.1875
  342SOL     OW 1365   1.360   0.362   0.156 -0.0705 -0.0584 -0.2235
  342SOL    HW1 1366   1.404   0.427   0.216 -0.0189  1.8756  3.6035
  342SOL    HW2 1367   1.378   0.382   0.063 -0.9104 -0.2299  0.4101
  342SOL     MW 1368   1.368   0.373   0.152 -0.1745  0.1742  0.3650
  343SOL     OW 1369   0.296   0.308   2.214  0.4329  0.1009  0.4643
  343SOL    HW1 1370   0.311   0.231   2.270  2.8015 -2.8625  0.8159
  343SOL    HW2 1371   0.233   0.272   2.152 -0.4992  1.8817 -0.2422
  343SOL     MW 1372   0.290   0.293   2.213  0.6224 -0.0552  0.4175
  344SOL     OW 1373   1.669   2.041   0.201 -0.1164 -0.1296 -0.0578
  344SOL    HW1 1374   1.695   2.126   0.163  2.7864  0.4745  1.2170
  344SOL    HW2 1375   1.595   2.025   0.156  3.5134  0.3379 -0.1133
  344SOL     MW 1376   1.663   2.050   0.190  0.7455  0.0118  0.1031
  345SOL     OW 1377   0.702   1.553   2.370 -0.1107  0.0486 -0.5460
  345SOL    HW1 1378   0.624   1.527   2.327  0.3481 -1.5955 -0.8677
  345SOL    HW2 1379   0.777   1.552   2.306 -2.8274  2.1869 -1.8521
  345SOL     MW 1380   0.702   1.550   2.356 -0.4086  0.1138 -0.7608
  346SOL     OW 1381   1.754   1.161   0.021 -0.0249 -0.5963 -0.3747
  346SOL    HW1 1382   1.845   1.122   0.016 -0.6448  1.2903 -0.2176
  346SOL    HW2 1383   1.711   1.092   0.077  0.6718  0.2041 -0.0918
  346SOL     MW 1384   1.761   1.146   0.028 -0.0148 -0.2418 -0.3166
  347SOL     OW 1385   1.140   0.718   2.295  0.1043  0.5208  0.2162
  347SOL    HW1 1386   1.218   0.662   2.295  2.4166 -1.0226 -2.0909
  347SOL    HW2 1387   1.141   0.744   2.382 -0.2992  0.1154  1.2102
  347SOL     MW 1388   1.150   0.714   2.307  0.3561  0.2637  0.0429
  348SOL     OW 1389   1.314   2.593   1.880  0.3501 -0.7306  0.2580
  348SOL    HW1 1390   1.306   2.520   1.943  0.4795 -3.2141 -0.7497
  348SOL    HW2 1391   1.353   2.669   1.936  0.2596  0.2621  0.6056
  348SOL     MW 1392   1.318   2.594   1.895  0.3552 -0.9273  0.1709
  349SOL     OW 1393   1.408   0.184   2.715 -0.1698 -0.8931  0.0648
  349SOL    HW1 1394   1.371   0.240   2.788  0.1962  1.8974  0.8234
  349SOL    HW2 1395   1.451   0.106   2.758 -1.2779  0.7524  2.0542
  349SOL     MW 1396   1.409   0.181   2.730 -0.2677 -0.3078  0.4273
  350SOL     OW 1397   1.808   0.640   2.666  0.0664  0.7808  0.0785
  350SOL    HW1 1398   1.759   0.572   2.607 -1.1366 -0.6494 -0.9531
  350SOL    HW2 1399   1.893   0.591   2.685 -4.1390 -0.3845  0.5789
  350SOL     MW 1400   1.813   0.625   2.661 -0.6472  0.4384  0.0084
  351SOL     OW 1401   0.082   1.177   1.620 -0.0218  0.6464  0.6626
  351SOL    HW1 1402   0.002   1.188   1.669  2.5087  0.4762 -1.2043
  351SOL    HW2 1403   0.142   1.243   1.669  0.2612  1.5621 -0.7724
  351SOL     MW 1404   0.079   1.187   1.633  0.3494  0.7447  0.2270
  352SOL     OW 1405   0.859   1.688   2.769 -0.5584  0.8418  0.6872
  352SOL    HW1 1406   0.851   1.665   2.865  0.6524 -0.5396 -2.2528
  352SOL    HW2 1407   0.811   1.618   2.727  0.4734  0.4966 -0.6119
  352SOL     MW 1408   0.851   1.676   2.776 -0.2625  0.6140  0.1279
  353SOL     OW 1409   0.040   2.514   2.750 -0.2759 -0.0804  0.2268
  353SOL    HW1 1410   0.135   2.524   2.728  2.3622  1.2740  2.7497
  353SOL    HW2 1411   0.022   2.606   2.737  0.0630 -1.1961  2.1452
  353SOL     MW 1412   0.050   2.528   2.745  0.1168 -0.0489  0.8128
  354SOL     OW 1413   0.305   2.444   0.814 -0.0563 -0.2152  0.2571
  354SOL    HW1 1414   0.333   2.450   0.908 -1.7497 -2.8293  0.6047
  354SOL    HW2 1415   0.221   2.407   0.815  2.6118  1.5840 -3.6073
  354SOL     MW 1416   0.298   2.440   0.826  0.0723 -0.3227 -0.2069
  355SOL     OW 1417   3.066   2.221   0.334 -0.3464 -0.0083  0.3092
  355SOL    HW1 1418   2.978   2.170   0.340 -0.7379 -3.6011 -1.1683
  355SOL    HW2 1419   3.083   2.254   0.425  2.2172  0.1279 -0.3576
  355SOL     MW 1420   3.057   2.219   0.347 -0.0598 -0.4644  0.0263
  356SOL     OW 1421   0.840   2.774   0.935 -0.1027 -0.7364 -0.1514
  356SOL    HW1 1422   0.883   2.828   0.867 -0.0016  0.8461 -0.6214
  356SOL    HW2 1423   0.746   2.809   0.926 -1.5396 -0.2273 -1.7733
  356SOL     MW 1424   0.833   2.786   0.925 -0.2789 -0.4604 -0.4274
  357SOL     OW 1425   1.783   2.860   0.420  0.2383 -0.4191  0.4538
  357SOL    HW1 1426   1.767   2.791   0.486 -1.7176  1.6709  1.5345
  357SOL    HW2 1427   1.873   2.843   0.393  1.5498 -2.2805  0.5798
  357SOL     MW 1428   1.793   2.848   0.425  0.1533 -0.3890  0.6130
  358SOL     OW 1429   0.463   0.136   1.022  0.1823  0.3464 -0.2300
  358SOL    HW1 1430   0.555   0.151   0.997  0.9382  2.1257 -2.2381
  358SOL    HW2 1431   0.418   0.165   0.939  2.8128 -2.1040 -1.4198
  358SOL     MW 1432   0.469   0.142   1.008  0.6291  0.2578 -0.6519
  359SOL     OW 1433   0.802   2.890   1.868 -0.0121  0.3575 -0.3415
  359SOL    HW1 1434   0.784   2.801   1.893 -1.4233  0.0723  1.1692
  359SOL    HW2 1435   0.837   2.884   1.778  0.9190  1.8091 -1.6164
  359SOL     MW 1436   0.804   2.878   1.860 -0.0755  0.5114 -0.3104
  360SOL     OW 1437   0.570   2.808   0.888  0.0388 -0.2060 -0.3327
  360SOL    HW1 1438   0.582   2.792   0.793  0.9130  1.3438  0.1918
  360SOL    HW2 1439   0.565   2.719   0.931 -0.5909 -0.7703 -1.2039
  360SOL     MW 1440   0.571   2.794   0.881  0.0710 -0.0759 -0.3784
  361SOL     OW 1441   0.239   2.626   1.345  0.8044  0.0002  0.0268
  361SOL    HW1 1442   0.209   2.697   1.401 -0.0977 -0.5953 -1.5036
  361SOL    HW2 1443   0.335   2.635   1.348 -2.3534  1.2742  1.1731
  361SOL     MW 1444   0.248   2.636   1.353  0.2687  0.0897 -0.0238
  362SOL     OW 1445   1.446   2.392   0.643  0.0869 -0.3563 -0.2837
  362SOL    HW1 1446   1.488   2.341   0.714 -1.6057  0.2582 -2.1981
  362SOL    HW2 1447   1.484   2.485   0.658  0.0224 -1.2956  0.2392
  362SOL     MW 1448   1.457   2.398   0.655 -0.1449 -0.3992 -0.4673
  363SOL     OW 1449   0.296   3.086   0.658  0.2812 -0.7182  0.1812
  363SOL    HW1 1450   0.257   3.034   0.728 -0.6949 -2.1409  2.0058
  363SOL    HW2 1451   0.220   3.118   0.602 -0.9891 -0.5997  1.7033
  363SOL     MW 1452   0.281   3.084   0.660 -0.0152 -0.8903  0.6228
  364SOL     OW 1453   0.725   0.240   0.215 -0.0135  0.1102 -0.4678
  364SOL    HW1 1454   0.644   0.188   0.227 -2.3411  0.5634  1.6184
  364SOL    HW2 1455   0.706   0.296   0.138 -0.1566  0.8123 -1.2833
  364SOL     MW 1456   0.712   0.240   0.206 -0.3395  0.2626 -0.3002
  365SOL     OW 1457   0.989   1.990   1.161 -0.4053  0.5509 -0.1152
  365SOL    HW1 1458   0.986   2.084   1.146 -0.7880 -1.4477  0.5382
  365SOL    HW2 1459   0.928   1.946   1.098  1.0417  2.0017 -1.5413
  365SOL     MW 1460   0.980   1.996   1.151 -0.2649  0.4786 -0.2172
  366SOL     OW 1461   2.959   2.670   0.946 -0.3865 -0.2073 -0.8924
  366SOL    HW1 1462   3.035   2.678   0.999 -0.4108 -0.1626 -1.8688
  366SOL    HW2 1463   2.987   2.696   0.857 -0.2151 -0.3770  1.4488
  366SOL     MW 1464   2.973   2.675   0.941 -0.3671 -0.2238 -0.7123
  367SOL     OW 1465   1.243   2.905   0.867 -0.3227 -0.2237  0.1420
  367SOL    HW1 1466   1.272   2.980   0.818 -1.9446 -0.6335  0.7539
  367SOL    HW2 1467   1.243   2.835   0.804  0.1638  0.7489 -2.2302
  367SOL     MW 1468   1.247   2.906   0.852 -0.4725 -0.1495 -0.0903
  368SOL     OW 1469   1.677   0.337   0.747  0.3247 -0.1626  0.0701
  368SOL    HW1 1470   1.742   0.312   0.681 -0.9043  3.3127 -2.0669
  368SOL    HW2 1471   1.677   0.433   0.745 -1.5402  0.3338 -1.1060
  368SOL     MW 1472   1.686   0.346   0.738 -0.0835  0.3614 -0.3671
  369SOL     OW 1473   0.135   2.409   1.773 -0.0503  0.3605 -0.3520
  369SOL    HW1 1474   0.235   2.414   1.777  2.2479  1.4118 -1.2417
  369SOL    HW2 1475   0.122   2.505   1.779 -1.5977  1.1554  1.3414
  369SOL     MW 1476   0.146   2.422   1.774  0.0487  0.6041 -0.2459
  370SOL     OW 1477   0.753   0.153   0.910 -0.0542 -0.1471  0.5338
  370SOL    HW1 1478   0.767   0.247   0.930 -3.0399  0.2858  0.4868
  370SOL    HW2 1479   0.807   0.100   0.961  1.1036 -2.0030  1.7937
  370SOL     MW 1480   0.762   0.158   0.919 -0.2954 -0.3348  0.6938
  371SOL     OW 1481   1.291   2.879   1.499 -0.0219  0.1415 -0.2630
  371SOL    HW1 1482   1.246   2.797   1.480  0.6775  1.7478 -2.3265
  371SOL    HW2 1483   1.303   2.922   1.411  0.5990  0.5894  0.1242
  371SOL     MW 1484   1.287   2.874   1.485  0.1523  0.4126 -0.4842
  372SOL     OW 1485   0.808   2.308   0.470  0.1593  0.3115  0.6511
  372SOL    HW1 1486   0.769   2.225   0.496 -0.3361  1.9024  0.9471
  372SOL    HW2 1487   0.834   2.281   0.375  1.2328 -3.9748 -0.8715
  372SOL     MW 1488   0.806   2.293   0.461  0.2356 -0.0441  0.4893
  373SOL     OW 1489   2.818   3.022   1.457  0.0706 -0.2470 -0.3517
  373SOL    HW1 1490   2.895   3.000   1.406  0.2784  1.6740  1.9030
  373SOL    HW2 1491   2.784   3.111   1.420  0.8668 -0.3692 -3.1309
  373SOL     MW 1492   2.824   3.031   1.446  0.2030 -0.0097 -0.4209
  374SOL     OW 1493   1.509   0.550   0.302  0.2595 -0.3555 -0.0010
  374SOL    HW1 1494   1.592   0.523   0.268  1.0332  1.3587 -2.4324
  374SOL    HW2 1495   1.499   0.510   0.386  0.8434  0.1932  1.7162
  374SOL     MW 1496   1.518   0.541   0.308  0.4386 -0.0569 -0.0952
  375SOL     OW 1497   0.992   2.103   2.265 -0.2269 -0.1783  0.8111
  375SOL    HW1 1498   1.029   2.101   2.351 -0.2161  1.6210 -2.4911
  375SOL    HW2 1499   0.941   2.030   2.241  2.1486  1.3245  1.4498
  375SOL     MW 1500   0.990   2.093   2.273  0.0879  0.2574  0.4597
  376SOL     OW 1501   0.728   2.516   0.052 -0.4933 -0.5653  0.0859
  376SOL    HW1 1502   0.704   2.441   0.102 -0.0948 -3.4194 -0.9149
  376SOL    HW2 1503   0.734   2.461  -0.032 -1.5759 -2.0736  1.4277
  376SOL     MW 1504   0.725   2.499   0.047 -0.5836 -1.1409  0.1309
  377SOL     OW 1505   1.244   2.054   0.862  0.3575  0.5173 -0.4108
  377SOL    HW1 1506   1.148   2.046   0.828  0.6155  0.8707  1.1451
  377SOL    HW2 1507   1.245   1.988   0.936  0.1176 -0.4326  2.1554
  377SOL     MW 1508   1.231   2.044   0.868  0.3599  0.4386  0.1331
  378SOL     OW 1509   0.910   2.851   1.611 -0.1375  0.4992  0.5215
  378SOL    HW1 1510   0.926   2.759   1.595  0.2800 -0.9053  0.0957
  378SOL    HW2 1511   0.958   2.901   1.544  1.2361 -0.8056  3.2104
  378SOL     MW 1512   0.918   2.846   1.600  0.0988  0.1417  0.8201
  379SOL     OW 1513   1.129   1.691   2.179  0.2955 -0.4174 -0.4676
  379SOL    HW1 1514   1.045   1.660   2.141 -1.0965  0.6749 -1.9946
  379SOL    HW2 1515   1.191   1.629   2.142  2.3401 -0.8233 -2.0714
  379SOL     MW 1516   1.126   1.679   2.169  0.3816 -0.3268 -0.8807
  380SOL     OW 1517   0.890   0.136   1.492  0.1796  0.1196  0.1500
  380SOL    HW1 1518   0.884   0.047   1.448 -0.3853  1.2185  1.5503
  380SOL    HW2 1519   0.946   0.125   1.567  3.4751  1.4766 -0.2375
  380SOL     MW 1520   0.896   0.123   1.496  0.5399  0.4436  0.2836
  381SOL     OW 1521   0.721   2.068   0.836 -0.1053  0.5607 -0.2441
  381SOL    HW1 1522   0.815   2.042   0.830 -0.2924 -2.2656 -0.6755
  381SOL    HW2 1523   0.714   2.108   0.918 -0.4977 -1.1825 -3.3437
  381SOL     MW 1524   0.733   2.069   0.846 -0.1818 -0.0422 -0.7100
  382SOL     OW 1525   0.703   0.139   0.640 -0.0481  0.1900 -0.5476
  382SOL    HW1 1526   0.711   0.154   0.737  0.4866 -0.5367  0.2991
  382SOL    HW2 1527   0.677   0.048   0.622 -1.1730  2.2984  0.4997
  382SOL     MW 1528   0.701   0.129   0.650 -0.1260  0.3723 -0.2977
  383SOL     OW 1529   0.561   0.019   0.281  0.0974  0.3084 -0.4239
  383SOL    HW1 1530   0.621  -0.052   0.248  2.1656 -0.9011  3.1599
  383SOL    HW2 1531   0.508  -0.039   0.341 -2.4178  1.9230 -1.7176
  383SOL     MW 1532   0.562   0.002   0.284  0.0384  0.3618 -0.1217
  384SOL     OW 1533   0.747   2.959   0.560  0.1950  0.1693 -0.1553
  384SOL    HW1 1534   0.809   2.941   0.632  1.4599 -1.4488  2.4976
  384SOL    HW2 1535   0.683   2.883   0.553  1.1735  1.6565 -0.8575
  384SOL     MW 1536   0.747   2.947   0.569  0.4910  0.1520  0.1021
  385SOL     OW 1537   1.410   2.061   1.521  0.5383  0.1011 -0.0816
  385SOL    HW1 1538   1.485   2.089   1.573  0.6376 -1.7821  0.3397
  385SOL    HW2 1539   1.381   1.994   1.590 -1.8977  0.1252  0.4746
  385SOL     MW 1540   1.416   2.056   1.537  0.2300 -0.1442  0.0474
  386SOL     OW 1541   1.260   0.380   0.861  0.6216 -0.7165  0.1075
  386SOL    HW1 1542   1.198   0.416   0.930 -1.0507 -0.3212 -0.1527
  386SOL    HW2 1543   1.310   0.309   0.900  2.2026  1.0136  0.4328
  386SOL     MW 1544   1.259   0.375   0.875  0.6095 -0.4361  0.1161
  387SOL     OW 1545   0.821   2.211   1.512  0.0373 -0.7663 -0.0912
  387SOL    HW1 1546   0.904   2.272   1.493 -2.2782  1.1638 -0.2318
  387SOL    HW2 1547   0.841   2.118   1.485  1.5359 -1.7337  1.5900
  387SOL     MW 1548   0.835   2.207   1.506 -0.0704 -0.6393  0.1121
  388SOL     OW 1549   1.489   2.792   1.255  0.1612 -0.7107 -0.4049
  388SOL    HW1 1550   1.405   2.804   1.215 -1.3836  1.6451 -0.9651
  388SOL    HW2 1551   1.509   2.702   1.254  2.6645 -0.6499  1.2060
  388SOL     MW 1552   1.480   2.782   1.250  0.2877 -0.3919 -0.2663
  389SOL     OW 1553   0.496   0.181   3.037  0.4157 -0.0186  0.8385
  389SOL    HW1 1554   0.574   0.125   3.021  2.1226  1.5583 -1.6844
  389SOL    HW2 1555   0.481   0.201   2.946  4.3032  0.1279 -2.4821
  389SOL     MW 1556   0.504   0.176   3.023  1.1539  0.2088  0.0675
  390SOL     OW 1557   1.330   0.039   0.723 -0.1914 -0.1658 -0.2366
  390SOL    HW1 1558   1.378   0.054   0.642  0.6755  1.0508 -2.3209
  390SOL    HW2 1559   1.389   0.072   0.789 -3.0444  0.1322  1.6385
  390SOL     MW 1560   1.344   0.045   0.721 -0.4534  0.0340 -0.2642
  391SOL     OW 1561   0.380   2.179   1.463  0.3112 -0.4231  0.8727
  391SOL    HW1 1562   0.344   2.089   1.466  1.4997 -0.2237 -2.3380
  391SOL    HW2 1563   0.300   2.231   1.454  0.4228  1.6222 -0.0896
  391SOL     MW 1564   0.365   2.174   1.462  0.4827 -0.1269  0.3221
  392SOL     OW 1565   2.078   2.220   0.310  0.0625  0.2841  0.4226
  392SOL    HW1 1566   2.154   2.175   0.354  1.8531 -1.9744  0.0885
  392SOL    HW2 1567   2.019   2.251   0.383  1.5735  0.6084  0.5744
  392SOL     MW 1568   2.080   2.218   0.325  0.4981  0.0289  0.3985
  393SOL     OW 1569   0.278   2.911   2.781  0.1043 -0.2524  0.6619
  393SOL    HW1 1570   0.358   2.911   2.730 -0.4355  0.7710 -2.4132
  393SOL    HW2 1571   0.270   3.002   2.807 -2.7258 -2.0573  1.8314
  393SOL     MW 1572   0.287   2.923   2.778 -0.3403 -0.3555  0.4105
  394SOL     OW 1573   0.929   1.739   1.538  0.2568  0.0175  0.0466
  394SOL    HW1 1574   0.897   1.783   1.615  0.9540 -4.0251 -0.4379
  394SOL    HW2 1575   0.936   1.809   1.473 -1.0660 -0.3078  1.4173
  394SOL     MW 1576   0.926   1.754   1.540  0.1742 -0.5588  0.1635
  395SOL     OW 1577   0.946   2.959   2.564  0.0978  0.2313 -0.1841
  395SOL    HW1 1578   0.966   2.995   2.651  0.5254 -0.6884  0.1701
  395SOL    HW2 1579   1.022   2.899   2.553  2.2994  0.7072 -0.5258
  395SOL     MW 1580   0.959   2.956   2.574  0.4447  0.1727 -0.1824
  396SOL     OW 1581   0.695   1.838   2.415  0.2449 -0.1872  0.2602
  396SOL    HW1 1582   0.757   1.870   2.481 -1.0765 -1.1955 -0.9191
  396SOL    HW2 1583   0.710   1.741   2.406  4.0152 -2.0125 -0.3457
  396SOL     MW 1584   0.705   1.829   2.423  0.5680 -0.5611  0.0246
  397SOL     OW 1585   1.036   2.351   1.442 -0.1236 -0.4458  0.3622
  397SOL    HW1 1586   1.047   2.357   1.344  0.9456  0.8568 -0.8886
  397SOL    HW2 1587   1.124   2.316   1.470  1.0634 -0.7682 -0.5776
  397SOL     MW 1588   1.049   2.347   1.433  0.1741 -0.3164  0.0732
  398SOL     OW 1589   0.624   2.693   0.628 -0.2301  0.3637 -0.5024
  398SOL    HW1 1590   0.541   2.679   0.590  0.6824  0.9852  0.5622
  398SOL    HW2 1591   0.669   2.609   0.640  2.9923  1.3486  1.5230
  398SOL     MW 1592   0.619   2.680   0.625  0.3155  0.5756 -0.0947
  399SOL     OW 1593   0.223   2.113   0.322 -0.0999 -0.1769  0.4926
  399SOL    HW1 1594   0.130   2.136   0.326  2.3100 -1.5397 -0.6378
  399SOL    HW2 1595   0.235   2.111   0.230 -2.3847 -0.6783 -0.3451
  399SOL     MW 1596   0.212   2.115   0.310 -0.0834 -0.4229  0.2330
  400SOL     OW 1597   0.563   1.964   0.028  0.0580  0.1708 -0.3122
  400SOL    HW1 1598   0.502   2.026   0.003  0.6977 -1.2205  0.9067
  400SOL    HW2 1599   0.531   1.923   0.105 -0.9935 -1.3997 -2.9012
  400SOL     MW 1600   0.551   1.967   0.035  0.0037 -0.2200 -0.4930
  401SOL     OW 1601   0.811   2.094   0.091  0.6045  0.3621 -0.0184
  401SOL    HW1 1602   0.876   2.026   0.076 -2.9933 -1.8088 -0.0044
  401SOL    HW2 1603   0.725   2.055   0.070  0.1944 -0.7147 -0.3963
  401SOL     MW 1604   0.808   2.080   0.086  0.0757 -0.0664 -0.0664
  402SOL     OW 1605   0.576   2.989   1.744  0.2908 -0.1543 -0.2359
  402SOL    HW1 1606   0.648   2.965   1.811  2.4145 -0.2610 -1.9658
  402SOL    HW2 1607   0.607   3.070   1.706 -2.3243 -1.1003 -0.6860
  402SOL     MW 1608   0.590   2.996   1.748  0.2260 -0.2932 -0.5235
  403SOL     OW 1609   0.095   0.398   0.414 -0.0494 -0.1093  0.2855
  403SOL    HW1 1610   0.173   0.441   0.448 -0.4153  0.7421  1.2993
  403SOL    HW2 1611   0.119   0.398   0.318 -2.1292  0.8197 -1.5633
  403SOL     MW 1612   0.109   0.404   0.406 -0.3721  0.1256  0.1753
  404SOL     OW 1613   0.938   2.932   0.749  0.2589 -0.6755  0.4477
  404SOL    HW1 1614   1.022   2.889   0.734 -0.9959  0.6484  0.0176
  404SOL    HW2 1615   0.951   3.029   0.733 -0.6302  1.8453  1.9350
  404SOL     MW 1616   0.951   2.939   0.745 -0.0240 -0.1683  0.5872
  405SOL     OW 1617   0.517   2.417   1.531 -0.2917  0.6887 -0.3158
  405SOL    HW1 1618   0.501   2.491   1.474 -0.0971  1.0037 -0.3372
  405SOL    HW2 1619   0.473   2.332   1.502 -1.1600 -0.8633  2.2736
  405SOL     MW 1620   0.509   2.415   1.520 -0.3806  0.5255  0.0230
  406SOL     OW 1621   0.332   2.413   1.084 -0.2673  0.1660  0.2594
  406SOL    HW1 1622   0.242   2.409   1.112  0.4212 -0.7735 -2.2280
  406SOL    HW2 1623   0.363   2.323   1.101 -0.0480 -1.2937  0.4506
  406SOL     MW 1624   0.324   2.401   1.090 -0.1475 -0.1505 -0.0436
  407SOL     OW 1625   0.033   2.695   1.159  0.5155 -0.1580 -0.1189
  407SOL    HW1 1626   0.104   2.676   1.227  1.5219 -0.7985  2.8591
  407SOL    HW2 1627   0.084   2.714   1.080 -1.7240  1.9127  1.7491
  407SOL     MW 1628   0.049   2.695   1.157  0.3528  0.0307  0.5205
  408SOL     OW 1629   2.138   2.108   0.624 -0.2957 -0.4749  0.6476
  408SOL    HW1 1630   2.070   2.135   0.690  2.5100 -2.0341  2.3683
  408SOL    HW2 1631   2.103   2.035   0.570  1.6688 -1.6569  2.1146
  408SOL     MW 1632   2.124   2.102   0.626  0.3337 -0.8366  1.0682
  409SOL     OW 1633   1.448   0.150   0.972 -0.0632  0.1106 -0.0857
  409SOL    HW1 1634   1.507   0.217   1.011 -0.9552 -1.4461 -0.4151
  409SOL    HW2 1635   1.491   0.067   0.995  1.9413  1.6496 -1.5621
  409SOL     MW 1636   1.462   0.148   0.980  0.0836  0.1083 -0.3239
  410SOL     OW 1637   1.090   2.413   1.164 -0.2426 -0.3178  0.3018
  410SOL    HW1 1638   1.004   2.441   1.129 -3.2572  0.7100  1.9873
  410SOL    HW2 1639   1.145   2.372   1.098  0.2217  0.4373 -0.8678
  410SOL     MW 1640   1.086   2.412   1.151 -0.5791 -0.0826  0.3698
  411SOL     OW 1641   1.921   0.014   2.899 -0.0655 -0.1306  0.2488
  411SOL    HW1 1642   1.872  -0.020   2.823 -0.7127 -0.0609  1.1889
  411SOL    HW2 1643   1.877   0.088   2.943  0.2071 -0.4236  0.1198
  411SOL     MW 1644   1.909   0.019   2.895 -0.1149 -0.1600  0.3558
  412SOL     OW 1645   1.042   2.225   0.616 -0.7330 -0.2563  0.2792
  412SOL    HW1 1646   1.093   2.302   0.650  0.1292 -2.7655  1.9542
  412SOL    HW2 1647   0.970   2.270   0.579 -0.6500  0.8328  0.6599
  412SOL     MW 1648   1.039   2.241   0.616 -0.6083 -0.4437  0.5504
  413SOL     OW 1649   0.552   2.722   0.039  0.2853 -0.0034  0.3158
  413SOL    HW1 1650   0.613   2.634   0.058 -2.4486 -0.6256 -2.1523
  413SOL    HW2 1651   0.582   2.769  -0.037 -1.0220  1.0176  0.5080
  413SOL     MW 1652   0.564   2.717   0.032 -0.2479  0.0492  0.0155
  414SOL     OW 1653   2.024   3.011   1.164  0.5256 -0.4997  0.0039
  414SOL    HW1 1654   1.969   3.089   1.188 -0.0518  2.5932  1.8751
  414SOL    HW2 1655   2.035   3.016   1.068  1.1481  0.6331 -0.1754
  414SOL     MW 1656   2.018   3.022   1.154  0.5316  0.0579  0.2272
  415SOL     OW 1657   1.773   2.786   1.083 -0.6269  0.5347 -0.2071
  415SOL    HW1 1658   1.773   2.760   1.176 -0.4553 -1.4631 -0.7558
  415SOL    HW2 1659   1.854   2.833   1.065  2.1436 -1.4921 -0.1772
  415SOL     MW 1660   1.784   2.789   1.093 -0.2387  0.0037 -0.2755
  416SOL     OW 1661   0.587   1.949   1.355 -0.2059 -0.5789  0.3694
  416SOL    HW1 1662   0.501   1.957   1.321  0.6279 -2.1560  4.1550
  416SOL    HW2 1663   0.603   1.850   1.356 -0.4861  2.1355 -2.5183
  416SOL     MW 1664   0.578   1.937   1.351 -0.1329 -0.4289  0.4879
  417SOL     OW 1665   1.000   2.986   2.051 -0.4110 -0.2222 -0.0916
  417SOL    HW1 1666   0.948   3.019   2.117  0.9249 -1.4939  1.2906
  417SOL    HW2 1667   0.931   2.945   1.998 -0.6726  2.4475 -1.2732
  417SOL     MW 1668   0.984   2.985   2.053 -0.2692 -0.0377 -0.0652
  418SOL     OW 1669   0.691   2.912   0.163 -0.1721 -0.0131  0.1413
  418SOL    HW1 1670   0.770   2.876   0.120  1.0132 -0.8741  1.5150
  418SOL    HW2 1671   0.630   2.842   0.129  2.5078 -0.5265 -1.2389
  418SOL     MW 1672   0.693   2.898   0.153  0.3379 -0.1944  0.1404
  419SOL     OW 1673   0.509   2.633   1.322 -0.1354 -0.3407  0.5717
  419SOL    HW1 1674   0.566   2.699   1.370  1.2116  2.0177 -1.2777
  419SOL    HW2 1675   0.508   2.641   1.227 -1.6335  3.0474  0.4572
  419SOL     MW 1676   0.516   2.642   1.316 -0.1554  0.4175  0.3126
  420SOL     OW 1677   0.793   2.211   1.063 -0.0827 -0.1348  0.4492
  420SOL    HW1 1678   0.741   2.223   1.143 -0.8995 -3.4416  0.2911
  420SOL    HW2 1679   0.823   2.300   1.030  0.0986  2.1516  0.4847
  420SOL     MW 1680   0.790   2.224   1.069 -0.1665 -0.2694  0.4330
  421SOL     OW 1681   2.971   0.204   3.085  0.2356 -0.3105 -0.2922
  421SOL    HW1 1682   2.908   0.213   3.016 -2.5926 -1.1579 -0.3787
  421SOL    HW2 1683   2.982   0.110   3.095 -0.1957  0.9795  0.7095
  421SOL     MW 1684   2.964   0.193   3.077 -0.1945 -0.2521 -0.1714
  422SOL     OW 1685   0.842   2.476   0.958 -0.4695  0.4919 -0.3656
  422SOL    HW1 1686   0.828   2.566   0.971  0.9487 -0.1918 -1.1646
  422SOL    HW2 1687   0.821   2.460   0.865 -2.2816  0.9250 -1.4276
  422SOL     MW 1688   0.837   2.486   0.947 -0.5215  0.4589 -0.6111
  423SOL     OW 1689   1.482   0.079   0.492  0.2013 -0.1014 -0.1761
  423SOL    HW1 1690   1.493   0.049   0.401 -1.5816  0.5676  0.2889
  423SOL    HW2 1691   1.479   0.179   0.481  1.3835 -2.5966 -1.2045
  423SOL     MW 1692   1.483   0.088   0.479  0.1221 -0.3423 -0.2505
  424SOL     OW 1693   0.673   2.278   1.304  0.1581  0.2689  0.0895
  424SOL    HW1 1694   0.607   2.214   1.292 -0.4118 -1.2076  1.6779
  424SOL    HW2 1695   0.714   2.257   1.390  1.2640  0.5242 -1.1816
  424SOL     MW 1696   0.670   2.266   1.314  0.2288  0.1078  0.1313
  425SOL     OW 1697   1.728   2.744   2.062  0.1487  0.2037 -0.8132
  425SOL    HW1 1698   1.754   2.764   1.968  0.9752  0.3645  0.4213
  425SOL    HW2 1699   1.768   2.654   2.089  0.8255 -2.8864  1.5603
  425SOL     MW 1700   1.737   2.735   2.053  0.3471 -0.1828 -0.3372
  426SOL     OW 1701   0.841   1.689   1.957 -0.1476  0.0288  0.4891
  426SOL    HW1 1702   0.783   1.718   1.879  0.3091 -0.4521  1.6865
  426SOL    HW2 1703   0.824   1.766   2.022 -2.9176  1.6588 -1.1039
  426SOL     MW 1704   0.831   1.703   1.956 -0.4528  0.1804  0.4369
  427SOL     OW 1705   0.376   1.702   1.855  0.1219 -0.7281 -0.3778
  427SOL    HW1 1706   0.424   1.645   1.801 -1.5388 -2.0890 -1.3820
  427SOL    HW2 1707   0.325   1.646   1.914 -0.0522 -0.8453  1.5810
  427SOL     MW 1708   0.376   1.687   1.855 -0.1202 -0.9231 -0.2519
  428SOL     OW 1709   0.568   2.575   1.034  0.9334  0.1971  0.4772
  428SOL    HW1 1710   0.639   2.510   1.040 -1.2918  0.7088  1.7387
  428SOL    HW2 1711   0.478   2.528   1.043 -1.7882  0.7650  0.6597
  428SOL     MW 1712   0.565   2.560   1.036  0.2807  0.3396  0.6677
  429SOL     OW 1713   1.237   2.831   1.124  0.0636  0.0094 -0.2832
  429SOL    HW1 1714   1.156   2.787   1.154 -0.2499  0.8911  0.8411
  429SOL    HW2 1715   1.215   2.857   1.035 -0.5549  0.4840  0.4584
  429SOL     MW 1716   1.223   2.829   1.116 -0.0594  0.1884 -0.0370
  430SOL     OW 1717   1.155   2.723   0.684  0.3891  0.5658  0.5719
  430SOL    HW1 1718   1.167   2.631   0.712  2.2591  1.3891  1.5858
  430SOL    HW2 1719   1.098   2.696   0.607  0.0866 -4.2978 -0.7290
  430SOL     MW 1720   1.149   2.707   0.677  0.5959  0.0327  0.5340
  431SOL     OW 1721   0.319   1.959   1.052  0.5723 -0.2561 -0.1803
  431SOL    HW1 1722   0.388   1.904   1.017 -1.3122 -0.9572  2.9713
  431SOL    HW2 1723   0.276   2.003   0.978  0.5537  0.6865  1.7439
  431SOL     MW 1724   0.323   1.957   1.038  0.3212 -0.2243  0.4894
  432SOL     OW 1725   0.086   0.040   1.150 -0.4746 -0.2251 -0.8430
  432SOL    HW1 1726   0.056   0.085   1.230 -2.1236  1.0435 -0.9147
  432SOL    HW2 1727   0.026  -0.032   1.145 -0.5869  0.9830  1.8645
  432SOL     MW 1728   0.074   0.036   1.160 -0.7070  0.1017 -0.4952
  433SOL     OW 1729   0.619   2.854   1.477  0.0807  0.1630  0.3228
  433SOL    HW1 1730   0.612   2.874   1.574  1.5916 -2.6752  2.1684
  433SOL    HW2 1731   0.712   2.876   1.460  2.8232  3.7195 -1.2580
  433SOL     MW 1732   0.631   2.859   1.488  0.6419  0.2577  0.3577
  434SOL     OW 1733   1.571   2.783   1.585 -0.3838  0.5955  0.7541
  434SOL    HW1 1734   1.484   2.808   1.555  1.3608  0.9775 -0.6746
  434SOL    HW2 1735   1.611   2.737   1.512  1.9094  1.9037  1.7064
  434SOL     MW 1736   1.565   2.780   1.571  0.1489  0.8185  0.6912
  435SOL     OW 1737   2.769   1.775   0.178 -0.8275 -0.2627 -0.0083
  435SOL    HW1 1738   2.849   1.824   0.164 -2.1493 -2.0825 -0.1806
  435SOL    HW2 1739   2.726   1.784   0.099  1.7268 -1.8609 -1.6161
  435SOL     MW 1740   2.774   1.783   0.166 -0.6649 -0.7137 -0.2432
  436SOL     OW 1741   1.400   2.680   0.400 -0.8379  0.6515 -1.1602
  436SOL    HW1 1742   1.451   2.676   0.485 -0.3626  1.5915 -1.0346
  436SOL    HW2 1743   1.389   2.775   0.378 -0.6825 -1.2054  2.2985
  436SOL     MW 1744   1.405   2.692   0.408 -0.7547  0.5306 -0.6873
  437SOL     OW 1745   0.914   2.979   1.359  0.4497 -0.5228  0.1756
  437SOL    HW1 1746   0.981   3.009   1.299  1.9847 -1.6871  1.4831
  437SOL    HW2 1747   0.888   2.911   1.301 -0.0281  0.3496 -0.4862
  437SOL     MW 1748   0.920   2.974   1.343  0.5892 -0.5613  0.2608
  438SOL     OW 1749   0.802   2.608   1.909  0.0491  0.0744  0.1969
  438SOL    HW1 1750   0.847   2.563   1.981 -1.3206  1.3612 -0.7819
  438SOL    HW2 1751   0.765   2.544   1.852 -0.0966  2.3326 -0.9004
  438SOL     MW 1752   0.803   2.594   1.911 -0.1509  0.5421 -0.0770
  439SOL     OW 1753   1.207   2.089   0.392 -0.5696 -0.1243  0.6678
  439SOL    HW1 1754   1.163   2.120   0.471  1.0982 -3.1103  0.2014
  439SOL    HW2 1755   1.204   2.162   0.328 -0.2566  0.4332 -0.8482
  439SOL     MW 1756   1.201   2.103   0.394 -0.3082 -0.4447  0.4062
  440SOL     OW 1757   1.694   2.969   3.073 -0.9855 -0.4405  0.4551
  440SOL    HW1 1758   1.653   2.916   3.144  2.3488 -1.0520  0.4246
  440SOL    HW2 1759   1.787   2.966   3.099  0.5140  2.7516  1.6735
  440SOL     MW 1760   1.701   2.962   3.086 -0.3477 -0.1000  0.6119
  441SOL     OW 1761   0.378   2.691   0.497  0.1337 -0.2867  0.4937
  441SOL    HW1 1762   0.350   2.633   0.418 -0.5284 -2.4794  0.4689
  441SOL    HW2 1763   0.399   2.774   0.457 -2.1291 -2.8804 -0.1224
  441SOL     MW 1764   0.377   2.694   0.482 -0.2522 -0.9182  0.4091
  442SOL     OW 1765   3.061   2.353   0.595  0.5866  0.1898 -0.1146
  442SOL    HW1 1766   3.060   2.443   0.582  1.0977 -3.2940  3.5501
  442SOL    HW2 1767   2.981   2.336   0.652  0.1591 -1.6982  0.1727
  442SOL     MW 1768   3.051   2.363   0.601  0.5976 -0.5190  0.4068
  443SOL     OW 1769   1.490   1.760   1.970  0.2777 -0.3623  0.7503
  443SOL    HW1 1770   1.420   1.697   1.953  0.7326 -0.7554  0.0217
  443SOL    HW2 1771   1.477   1.752   2.060 -2.0169 -1.1070 -2.2563
  443SOL     MW 1772   1.479   1.751   1.979  0.0350 -0.5124  0.2575
  444SOL     OW 1773   0.874   2.574   1.570 -0.3382  0.0155  0.4304
  444SOL    HW1 1774   0.942   2.507   1.591  3.7206  0.2515 -0.6611
  444SOL    HW2 1775   0.797   2.538   1.614 -1.2397 -1.0024 -0.8251
  444SOL     MW 1776   0.873   2.561   1.578  0.0784 -0.0876  0.1207
  445SOL     OW 1777   1.134   0.113   1.354  0.5522  0.2900  0.5291
  445SOL    HW1 1778   1.049   0.138   1.382 -0.0094  3.8209  0.2242
  445SOL    HW2 1779   1.166   0.175   1.288  0.2825  1.6716  1.0532
  445SOL     MW 1780   1.127   0.124   1.349  0.4425  0.9382  0.5580
  446SOL     OW 1781   2.785   2.854   1.046  0.3572 -0.2181 -0.4750
  446SOL    HW1 1782   2.719   2.879   0.981 -1.6134  0.7788 -0.6581
  446SOL    HW2 1783   2.842   2.784   1.008  1.2832 -0.0108 -0.1307
  446SOL     MW 1784   2.783   2.848   1.032  0.2193 -0.0592 -0.4537
  447SOL     OW 1785   0.050   1.999   1.644 -0.2603  0.2648 -0.1023
  447SOL    HW1 1786   0.079   1.906   1.665 -2.0604 -1.5449  0.6331
  447SOL    HW2 1787  -0.041   1.982   1.605  0.7750  0.1968 -0.1920
  447SOL     MW 1788   0.042   1.984   1.641 -0.3612  0.0171 -0.0171
  448SOL     OW 1789   1.742   2.416   1.665  0.3395 -0.1753 -0.0511
  448SOL    HW1 1790   1.707   2.336   1.629 -2.5255  1.1817  1.0789
  448SOL    HW2 1791   1.660   2.468   1.684 -3.2942 -0.8262  1.6188
  448SOL     MW 1792   1.727   2.413   1.663 -0.5179 -0.0821  0.3183
  449SOL     OW 1793   0.875   2.858   0.353 -0.5277  0.3292  0.0349
  449SOL    HW1 1794   0.815   2.853   0.276  0.1085  0.2911  0.9061
  449SOL    HW2 1795   0.827   2.893   0.431  1.3140  0.7399 -3.1509
  449SOL     MW 1796   0.861   2.862   0.353 -0.2008  0.3783 -0.2705
  450SOL     OW 1797   1.192   2.452   0.731  0.4476  0.0504  0.7534
  450SOL    HW1 1798   1.189   2.396   0.809  1.3916 -0.0956  0.2635
  450SOL    HW2 1799   1.278   2.428   0.692  3.2462  0.3320 -1.9690
  450SOL     MW 1800   1.203   2.442   0.736  0.9414  0.0683  0.3296
  451SOL     OW 1801   0.568   1.997   1.668 -0.1372  0.4269  0.1346
  451SOL    HW1 1802   0.615   2.079   1.680 -0.1427  0.2659  2.4544
  451SOL    HW2 1803   0.543   1.995   1.572 -0.5175  1.0234 -1.8290
  451SOL     MW 1804   0.571   2.008   1.657 -0.1881  0.4843  0.1816
  452SOL     OW 1805   0.291   2.654   0.066  0.6640 -0.5283  0.2683
  452SOL    HW1 1806   0.379   2.695   0.065  1.4793  1.0345  3.2799
  452SOL    HW2 1807   0.237   2.706   0.001  1.1134  0.4432 -1.8259
  452SOL     MW 1808   0.296   2.666   0.057  0.8309 -0.1939  0.3893
  453SOL     OW 1809   0.321   3.033   1.611 -0.1867  0.5620 -0.5800
  453SOL    HW1 1810   0.383   2.972   1.647  0.1821  3.1213 -0.0592
  453SOL    HW2 1811   0.374   3.060   1.528 -0.3083 -0.8836 -0.4118
  453SOL     MW 1812   0.337   3.029   1.605 -0.1541  0.7089 -0.4891
  454SOL     OW 1813   0.961   2.726   1.190 -0.4392 -0.5277 -0.3346
  454SOL    HW1 1814   0.903   2.699   1.258  1.0844  0.5039 -1.7040
  454SOL    HW2 1815   0.905   2.721   1.114  0.3708 -1.9139 -3.8199
  454SOL     MW 1816   0.946   2.721   1.189 -0.1313 -0.5745 -0.9751
  455SOL     OW 1817   1.606   2.838   0.217  0.2985 -0.0532  0.4196
  455SOL    HW1 1818   1.682   2.851   0.275 -1.2152 -0.9333 -0.6050
  455SOL    HW2 1819   1.579   2.744   0.215  1.1810 -0.3232  0.2973
  455SOL     MW 1820   1.612   2.827   0.225  0.2152 -0.2050  0.2682
  456SOL     OW 1821   2.738   0.303   1.540  0.2471 -0.0079  0.0257
  456SOL    HW1 1822   2.713   0.250   1.463 -1.3855  0.9889 -2.7842
  456SOL    HW2 1823   2.827   0.348   1.518 -0.0044  0.8537  0.4606
  456SOL     MW 1824   2.747   0.302   1.527 -0.0015  0.2373 -0.2877
  457SOL     OW 1825   0.861   1.581   3.047 -0.9912 -0.2323 -0.3477
  457SOL    HW1 1826   0.773   1.552   3.020 -0.2558 -0.5478 -0.3330
  457SOL    HW2 1827   0.853   1.606   3.140 -2.1028  1.7475 -2.0711
  457SOL     MW 1828   0.848   1.580   3.055 -1.0408 -0.0127 -0.5731
  458SOL     OW 1829   1.389   1.439   0.599 -0.0199 -0.2056  0.4162
  458SOL    HW1 1830   1.330   1.510   0.574 -1.4847  0.6890  0.1171
  458SOL    HW2 1831   1.368   1.366   0.543 -3.1414 -0.3019  0.9099
  458SOL     MW 1832   1.379   1.438   0.588 -0.6250 -0.1002  0.4419
  459SOL     OW 1833   1.523   0.031   0.209  0.4271  0.0839 -0.1121
  459SOL    HW1 1834   1.539  -0.062   0.213  0.6709  0.4415 -0.6713
  459SOL    HW2 1835   1.480   0.043   0.121 -1.5663 -1.9239 -1.1178
  459SOL     MW 1836   1.519   0.020   0.198  0.1962 -0.1338 -0.3186
  460SOL     OW 1837   1.763   2.147   0.638 -0.7841 -0.2517  0.1607
  460SOL    HW1 1838   1.686   2.148   0.696  0.2958  2.5502 -0.6033
  460SOL    HW2 1839   1.786   2.054   0.626 -0.4312 -1.1026 -0.5539
  460SOL     MW 1840   1.756   2.135   0.644 -0.5951  0.0057 -0.0344
  461SOL     OW 1841   0.440   2.396   0.565  0.3746  0.0297  0.1816
  461SOL    HW1 1842   0.425   2.481   0.534  0.6133 -2.2319  0.2423
  461SOL    HW2 1843   0.397   2.385   0.654 -0.9498  1.2387  0.1728
  461SOL     MW 1844   0.433   2.405   0.573  0.2314 -0.1092  0.1885
  462SOL     OW 1845   0.334   0.257   1.239  0.0453 -0.1115 -0.2726
  462SOL    HW1 1846   0.358   0.208   1.155  0.0044 -3.5675 -0.9007
  462SOL    HW2 1847   0.423   0.278   1.282  1.7364  0.0962  0.2985
  462SOL     MW 1848   0.349   0.253   1.233  0.2631 -0.5401 -0.2801
  463SOL     OW 1849   0.984   0.088   0.678  0.2843 -0.2879 -0.3745
  463SOL    HW1 1850   1.055   0.089   0.614 -0.1134 -2.4134  1.8986
  463SOL    HW2 1851   0.897   0.092   0.625 -0.3597  1.9923 -1.8819
  463SOL     MW 1852   0.982   0.089   0.662  0.1468 -0.2675 -0.2735
  464SOL     OW 1853   0.767   3.032   2.210 -0.0994  0.0177 -0.7768
  464SOL    HW1 1854   0.768   2.936   2.207  1.4385 -0.4037  3.0007
  464SOL    HW2 1855   0.770   3.050   2.302 -0.3703 -0.5843 -0.4971
  464SOL     MW 1856   0.768   3.022   2.221  0.0677 -0.1173 -0.2415
  465SOL     OW 1857   0.846   0.262   0.446  0.5441 -0.1143 -0.1786
  465SOL    HW1 1858   0.781   0.221   0.509  0.2028 -0.2459 -2.0445
  465SOL    HW2 1859   0.814   0.243   0.356  0.2028 -3.2500 -0.4097
  465SOL     MW 1860   0.833   0.254   0.442  0.4540 -0.5454 -0.4553
  466SOL     OW 1861   0.991   2.025   0.788 -0.5327  0.3397  0.4804
  466SOL    HW1 1862   0.997   1.950   0.730  1.8884 -0.5458  1.3477
  466SOL    HW2 1863   0.993   2.105   0.726 -2.4818 -0.4102 -0.6281
  466SOL     MW 1864   0.992   2.026   0.772 -0.4704  0.1239  0.4486
  467SOL     OW 1865   1.252   2.306   0.957  0.1252  1.0838  0.2510
  467SOL    HW1 1866   1.345   2.331   0.961  1.0942  0.0193  0.2496
  467SOL    HW2 1867   1.251   2.216   0.911  0.4538 -0.2227 -1.0970
  467SOL     MW 1868   1.264   2.298   0.952  0.2964  0.7710  0.0729
  468SOL     OW 1869   0.458   2.655   1.939  0.6526  0.2983 -0.4860
  468SOL    HW1 1870   0.485   2.611   1.857 -1.3770  0.1569 -2.1722
  468SOL    HW2 1871   0.367   2.677   1.927  2.2147 -0.9938  0.6355
  468SOL     MW 1872   0.449   2.652   1.927  0.5909  0.1091 -0.5605
  469SOL     OW 1873   0.386   2.126   1.839  0.3914  0.3040 -0.2377
  469SOL    HW1 1874   0.313   2.068   1.865 -0.0243  0.4878 -0.8893
  469SOL    HW2 1875   0.429   2.081   1.763  1.1189  1.0197 -3.9779
  469SOL     MW 1876   0.382   2.113   1.833  0.4325  0.4226 -0.8171
  470SOL     OW 1877   3.038   2.593   0.168  0.1755 -0.5867 -0.2942
  470SOL    HW1 1878   2.960   2.573   0.235  0.6423 -1.8526  0.8864
  470SOL    HW2 1879   3.003   2.608   0.079  0.1151  0.1908 -0.7645
  470SOL     MW 1880   3.023   2.592   0.165  0.2291 -0.6511 -0.2005
  471SOL     OW 1881   1.160   2.646   1.415 -0.3267 -0.2837 -0.4039
  471SOL    HW1 1882   1.124   2.580   1.478  2.5491 -0.7983  2.1333
  471SOL    HW2 1883   1.141   2.611   1.327  2.2506  0.3721 -2.4189
  471SOL     MW 1884   1.153   2.632   1.412  0.3928 -0.2651 -0.3350
  472SOL     OW 1885   2.838   2.103   0.342 -0.1388  0.5237  0.0695
  472SOL    HW1 1886   2.879   2.056   0.271 -1.5949  0.2338  1.2459
  472SOL    HW2 1887   2.794   2.033   0.396 -0.8121 -3.6298  0.3421
  472SOL     MW 1888   2.838   2.088   0.340 -0.4198 -0.0626  0.2606
  473SOL     OW 1889   0.796   2.566   1.317 -0.7235  0.2988  0.1812
  473SOL    HW1 1890   0.725   2.504   1.294 -0.4328 -0.7787  1.6158
  473SOL    HW2 1891   0.819   2.557   1.410  1.1230 -1.4466 -1.5081
  473SOL     MW 1892   0.790   2.557   1.326 -0.4415 -0.0736  0.1476
  474SOL     OW 1893   0.832   2.150   1.789 -0.3419  1.6696 -0.7908
  474SOL    HW1 1894   0.911   2.208   1.810 -1.5455  0.7611  1.0639
  474SOL    HW2 1895   0.835   2.144   1.693 -1.0761 -0.0568 -0.4325
  474SOL     MW 1896   0.843   2.157   1.779 -0.5976  1.3220 -0.4988
  475SOL     OW 1897   1.626   3.052   1.476  0.4269 -0.8369 -0.0958
  475SOL    HW1 1898   1.554   3.086   1.424  2.7848 -1.0152  2.7583
  475SOL    HW2 1899   1.597   2.964   1.496 -1.3382 -0.6480  0.6294
  475SOL     MW 1900   1.613   3.045   1.472  0.5051 -0.8355  0.3764
  476SOL     OW 1901   1.393   2.620   1.038 -0.3567  0.0635  0.4830
  476SOL    HW1 1902   1.318   2.674   1.060 -3.0986 -1.3195  2.0338
  476SOL    HW2 1903   1.441   2.666   0.973 -0.1951 -0.8812  0.7284
  476SOL     MW 1904   1.390   2.633   1.032 -0.6972 -0.2436  0.7200
  477SOL     OW 1905   0.801   2.493   0.662  0.3895  0.4006  0.2099
  477SOL    HW1 1906   0.877   2.547   0.633  0.7276 -1.6198 -0.5261
  477SOL    HW2 1907   0.788   2.424   0.599  0.9587 -0.4879 -0.1649
  477SOL     MW 1908   0.809   2.491   0.650  0.5092  0.0168  0.0633
  478SOL     OW 1909   0.175   2.700   0.911  0.2085  0.2466 -0.2135
  478SOL    HW1 1910   0.202   2.797   0.908 -0.5703  2.7339  0.9098
  478SOL    HW2 1911   0.205   2.640   0.847  0.1841 -0.4859 -0.2271
  478SOL     MW 1912   0.183   2.705   0.902  0.1025  0.4781 -0.0671
  479SOL     OW 1913   1.478   2.004   1.257 -0.2376  0.6009 -0.0491
  479SOL    HW1 1914   1.461   2.001   1.354  1.0317 -0.4151  1.8244
  479SOL    HW2 1915   1.498   1.912   1.239  0.2130  2.4443  2.6892
  479SOL     MW 1916   1.479   1.991   1.267 -0.0107  0.7100  0.5594
  480SOL     OW 1917   1.947   2.428   1.278 -0.0707  0.4390 -0.3552
  480SOL    HW1 1918   1.874   2.378   1.238 -0.2520  1.9317 -0.2366
  480SOL    HW2 1919   1.984   2.469   1.200  0.0121  1.7278  0.0710
  480SOL     MW 1920   1.943   2.427   1.262 -0.0837  0.8060 -0.2833
  481SOL     OW 1921   1.046   3.097   1.059  0.2788  0.1899  0.5529
  481SOL    HW1 1922   1.085   3.026   1.009  0.4055 -1.0632  0.5592
  481SOL    HW2 1923   1.107   3.167   1.047 -1.1710 -1.8416 -0.6734
  481SOL     MW 1924   1.059   3.097   1.051  0.1043 -0.2434  0.3919
  482SOL     OW 1925   1.090   3.036   0.265  0.0344  0.4621 -0.1927
  482SOL    HW1 1926   1.026   2.976   0.295  0.1948 -0.0734  0.9582
  482SOL    HW2 1927   1.086   3.115   0.323  2.9477  1.3327 -1.4163
  482SOL     MW 1928   1.081   3.039   0.276  0.4399  0.5063 -0.2023
  483SOL     OW 1929   0.429   2.952   0.435 -0.2110  0.3239 -0.0467
  483SOL    HW1 1930   0.356   2.949   0.372 -1.2983 -0.0075  0.7522
  483SOL    HW2 1931   0.403   2.997   0.518 -1.5338 -1.1231  1.1535
  483SOL     MW 1932   0.416   2.958   0.438 -0.5290  0.0892  0.2171
  484SOL     OW 1933   1.824   1.909   1.464  0.3393  0.0128  0.4134
  484SOL    HW1 1934   1.829   2.005   1.435 -0.5572  2.2081  2.6920
  484SOL    HW2 1935   1.813   1.922   1.560  1.5285  0.4858  0.9220
  484SOL     MW 1936   1.823   1.924   1.473  0.3779  0.3649  0.7812
  485SOL     OW 1937   0.471   2.316   0.207  0.2163  0.6122 -0.4285
  485SOL    HW1 1938   0.525   2.278   0.274  0.1566  3.0462 -3.0440
  485SOL    HW2 1939   0.423   2.395   0.246 -1.3325  0.7560  1.0589
  485SOL     MW 1940   0.472   2.322   0.221  0.0041  0.9523 -0.5773
  486SOL     OW 1941   0.191   2.376   1.482 -0.5126 -0.5572  0.1672
  486SOL    HW1 1942   0.201   2.456   1.430 -1.0899 -0.3915  2.5989
  486SOL    HW2 1943   0.201   2.406   1.569 -0.6702 -0.5638 -1.0728
  486SOL     MW 1944   0.194   2.390   1.487 -0.6096 -0.5362  0.3245
  487SOL     OW 1945   1.220   1.661   1.008 -0.4895 -0.1926  0.2023
  487SOL    HW1 1946   1.189   1.745   1.041 -1.0313  2.1839  1.4983
  487SOL    HW2 1947   1.313   1.675   0.982  1.4277  1.2895  2.0513
  487SOL     MW 1948   1.228   1.674   1.009 -0.3080  0.3165  0.6172
  488SOL     OW 1949   1.663   1.872   0.528  0.1748 -0.3821 -0.2896
  488SOL    HW1 1950   1.736   1.893   0.464 -2.1899  0.5510  0.3266
  488SOL    HW2 1951   1.598   1.945   0.518 -1.0573  1.2773  0.7639
  488SOL     MW 1952   1.664   1.884   0.518 -0.2998 -0.0400 -0.0693
  489SOL     OW 1953   0.740   0.774   0.561  1.0708  0.1362 -0.0518
  489SOL    HW1 1954   0.784   0.687   0.534 -0.6938 -1.6177 -0.4373
  489SOL    HW2 1955   0.718   0.763   0.652 -4.3403 -1.8590 -0.5753
  489SOL     MW 1956   0.743   0.761   0.569  0.1241 -0.3584 -0.1717
  490SOL     OW 1957   1.464   2.060   0.471 -0.8303  0.2080  0.1951
  490SOL    HW1 1958   1.505   2.147   0.455  1.8805  3.4754  0.4211
  490SOL    HW2 1959   1.371   2.073   0.444  0.6939 -1.4763  0.0471
  490SOL     MW 1960   1.457   2.073   0.465 -0.2715  0.4169  0.2054
  491SOL     OW 1961   1.349   2.933   0.351  0.2318 -0.0843 -0.0468
  491SOL    HW1 1962   1.347   2.971   0.436  2.9357 -2.2804  0.5316
  491SOL    HW2 1963   1.281   2.982   0.296  0.2142 -1.5234 -1.0716
  491SOL     MW 1964   1.340   2.944   0.355  0.5862 -0.5640 -0.1057
  492SOL     OW 1965   1.505   2.095   0.740 -0.0771  0.4595 -0.5568
  492SOL    HW1 1966   1.468   2.074   0.654  0.5622  1.2760  1.7410
  492SOL    HW2 1967   1.431   2.079   0.799 -0.4528  1.0549  2.1735
  492SOL     MW 1968   1.490   2.090   0.736 -0.0423  0.6458  0.1066
  493SOL     OW 1969   0.198   2.999   0.269 -0.1955 -0.1178  0.0528
  493SOL    HW1 1970   0.146   3.041   0.338 -0.3573 -1.1307  0.1965
  493SOL    HW2 1971   0.215   3.062   0.198  1.3196 -0.9221 -2.0275
  493SOL     MW 1972   0.193   3.013   0.269 -0.0169 -0.3576 -0.2027
  494SOL     OW 1973   0.397   2.408   1.766 -0.2628 -1.0437 -0.0909
  494SOL    HW1 1974   0.406   2.320   1.800 -1.1699  0.5720 -0.3515
  494SOL    HW2 1975   0.444   2.415   1.680  0.4442  1.9418  3.7845
  494SOL     MW 1976   0.405   2.397   1.759 -0.2892 -0.4366  0.3860
  495SOL     OW 1977   2.927   1.644   2.635 -0.8620 -0.4219  0.4345
  495SOL    HW1 1978   2.913   1.726   2.590 -0.2746 -0.3052 -0.6923
  495SOL    HW2 1979   2.884   1.647   2.717  1.8492 -0.8532  0.0407
  495SOL     MW 1980   2.920   1.655   2.640 -0.4268 -0.4634  0.2339
  496SOL     OW 1981   2.946   2.330   2.688 -0.2221  0.4809  0.0017
  496SOL    HW1 1982   2.986   2.257   2.727  2.6234  0.0445  1.1023
  496SOL    HW2 1983   3.019   2.395   2.683  2.4033  1.0015 -4.3319
  496SOL     MW 1984   2.961   2.329   2.692  0.4998  0.4920 -0.4248
  497SOL     OW 1985   1.525   2.292   2.651  0.2631 -0.1083  0.0774
  497SOL    HW1 1986   1.477   2.256   2.577 -1.6662 -1.1448  0.7847
  497SOL    HW2 1987   1.513   2.216   2.708  1.2847 -0.4112  1.5134
  497SOL     MW 1988   1.517   2.277   2.649  0.1433 -0.2850  0.3602
  498SOL     OW 1989   1.501   2.745   2.338 -0.4292 -0.2841 -0.4911
  498SOL    HW1 1990   1.458   2.654   2.335  0.8282  0.0485 -0.3871
  498SOL    HW2 1991   1.589   2.740   2.372 -0.1295  1.8548  0.9388
  498SOL     MW 1992   1.507   2.732   2.342 -0.2238  0.0420 -0.2887
  499SOL     OW 1993   0.926   0.104   0.087  0.0813  0.4183  0.2127
  499SOL    HW1 1994   0.852   0.125   0.141  4.2422  3.1848 -1.7820
  499SOL    HW2 1995   0.969   0.040   0.143  0.1111 -0.1589 -3.3981
  499SOL     MW 1996   0.922   0.098   0.101  0.6342  0.7072 -0.5269
  500SOL     OW 1997   1.084   2.556   2.816 -0.4055  0.3141  0.0003
  500SOL    HW1 1998   1.122   2.502   2.888  1.1629  1.9020 -1.9813
  500SOL    HW2 1999   1.030   2.619   2.861 -2.0041  1.4380 -1.2696
  500SOL     MW 2000   1.082   2.557   2.831 -0.4094  0.6719 -0.4287
  501SOL     OW 2001   1.773   2.234   3.090  0.2281 -1.0539 -0.4618
  501SOL    HW1 2002   1.776   2.323   3.041 -0.1451 -2.1864 -2.0501
  501SOL    HW2 2003   1.868   2.210   3.100  0.2297 -0.2083 -0.9188
  501SOL     MW 2004   1.786   2.243   3.085  0.1790 -1.0918 -0.7316
  502SOL     OW 2005   0.143   2.826   3.011  0.4469  0.4216  0.2010
  502SOL    HW1 2006   0.063   2.769   2.996  0.6981  0.4980  0.3045
  502SOL    HW2 2007   0.185   2.833   2.924 -0.7505 -0.1606 -1.0327
  502SOL     MW 2008   0.138   2.819   2.997  0.3221  0.3548  0.0519
  503SOL     OW 2009   1.134   2.755   2.135 -0.1473  0.1870  0.0756
  503SOL    HW1 2010   1.106   2.695   2.066  0.6578  3.6937 -0.4723
  503SOL    HW2 2011   1.071   2.825   2.130  3.2616  2.6719  0.3541
  503SOL     MW 2012   1.122   2.756   2.125  0.4087  0.9775  0.0401
  504SOL     OW 2013   0.089   2.708   2.122  0.3737 -0.1212  0.1718
  504SOL    HW1 2014   0.111   2.615   2.122  2.4288  0.4982 -0.6687
  504SOL    HW2 2015  -0.007   2.717   2.112  1.3923  0.6351  2.6445
  504SOL     MW 2016   0.079   2.697   2.121  0.7793  0.0603  0.3872
  505SOL     OW 2017   1.722   2.724   2.817 -0.5332 -0.3289 -0.3869
  505SOL    HW1 2018   1.741   2.734   2.725 -0.0394  0.7485 -0.3049
  505SOL    HW2 2019   1.639   2.775   2.843 -1.9629  1.6349 -1.9139
  505SOL     MW 2020   1.714   2.732   2.808 -0.6567  0.0723 -0.5776
  506SOL     OW 2021   1.566   3.087   2.848 -0.0612  0.3461 -0.1792
  506SOL    HW1 2022   1.612   3.063   2.929 -1.4668 -0.9322 -0.7356
  506SOL    HW2 2023   1.630   3.065   2.778  1.4387 -0.9095  2.6623
  506SOL     MW 2024   1.580   3.081   2.849 -0.0488  0.0118  0.1223
  507SOL     OW 2025   0.914   2.762   2.867 -0.0132 -0.4352 -0.2803
  507SOL    HW1 2026   0.932   2.847   2.851 -0.5077 -2.1914  0.8298
  507SOL    HW2 2027   0.818   2.770   2.881 -1.9052  3.6625  1.1404
  507SOL     MW 2028   0.904   2.774   2.867 -0.3281 -0.1263  0.0536
  508SOL     OW 2029   1.152   2.099   2.508  0.0242 -0.2135  0.3869
  508SOL    HW1 2030   1.235   2.081   2.552  0.4804  1.7915  0.3017
  508SOL    HW2 2031   1.134   2.181   2.540 -0.6507 -0.0671  1.1975
  508SOL     MW 2032   1.160   2.108   2.518 -0.0046  0.0704  0.4826
  509SOL     OW 2033   0.695   2.570   2.725 -0.0135  0.2318  0.2968
  509SOL    HW1 2034   0.683   2.519   2.647 -0.8027  0.4604  3.4141
  509SOL    HW2 2035   0.611   2.603   2.737  1.2649 -0.6753  2.7543
  509SOL     MW 2036   0.682   2.568   2.716  0.0510  0.1423  1.0324
  510SOL     OW 2037   1.491   2.539   1.680  0.7755  0.1812  0.1040
  510SOL    HW1 2038   1.512   2.627   1.674 -0.9315 -0.0927  0.1154
  510SOL    HW2 2039   1.440   2.546   1.764 -0.4665  2.4825  1.8235
  510SOL     MW 2040   1.487   2.551   1.690  0.3864  0.4487  0.3324
  511SOL     OW 2041   0.406   2.658   2.432 -0.2043 -0.5024  0.5539
  511SOL    HW1 2042   0.487   2.618   2.452 -3.0477  1.6119 -1.1817
  511SOL    HW2 2043   0.431   2.698   2.345  1.2826  4.3477 -1.9126
  511SOL     MW 2044   0.420   2.658   2.423 -0.3832  0.4165 -0.0005
  512SOL     OW 2045   1.039   2.033   2.824 -0.1762 -0.0222 -0.2078
  512SOL    HW1 2046   0.955   2.070   2.854  0.9907  0.3757  0.2890
  512SOL    HW2 2047   1.030   1.940   2.846 -0.4069 -0.0298  1.2784
  512SOL     MW 2048   1.027   2.025   2.831 -0.0527  0.0293  0.0538
  513SOL     OW 2049   1.529   2.437   2.294 -0.2721 -0.6744 -0.3540
  513SOL    HW1 2050   1.601   2.474   2.244 -0.2511 -3.2987 -0.1182
  513SOL    HW2 2051   1.567   2.460   2.379 -0.7224  1.4082  0.1648
  513SOL     MW 2052   1.543   2.445   2.299 -0.3287 -0.7459 -0.2544
  514SOL     OW 2053   0.292   2.485   2.633 -0.1943  0.4987 -0.9469
  514SOL    HW1 2054   0.346   2.543   2.577  1.6220  1.2480 -2.4146
  514SOL    HW2 2055   0.331   2.491   2.722 -2.5817  0.0208  1.1597
  514SOL     MW 2056   0.304   2.493   2.637 -0.2696  0.5345 -0.8626
  515SOL     OW 2057   1.142   2.065   1.914  0.5007  0.0118 -1.0593
  515SOL    HW1 2058   1.148   2.152   1.875  1.6501 -0.1127 -1.1919
  515SOL    HW2 2059   1.229   2.042   1.947  0.1443  0.6611  1.0062
  515SOL     MW 2060   1.155   2.073   1.913  0.6053  0.0811 -0.8043
  516SOL     OW 2061   1.450   2.496   3.076  0.4555 -0.2021  0.1640
  516SOL    HW1 2062   1.503   2.495   2.999 -3.3212  0.5585  1.2742
  516SOL    HW2 2063   1.368   2.455   3.037 -0.7140 -1.1667  0.0575
  516SOL     MW 2064   1.446   2.490   3.061 -0.1971 -0.2290  0.2964
  517SOL     OW 2065   0.583   2.466   2.132  0.5895  0.4836  0.3295
  517SOL    HW1 2066   0.568   2.543   2.073  1.0976  0.4533 -0.5156
  517SOL    HW2 2067   0.502   2.403   2.106 -0.9024  0.6930  0.0233
  517SOL     MW 2068   0.570   2.468   2.121  0.4597  0.5073  0.1776
  518SOL     OW 2069   1.822   0.230   3.068  0.5313 -0.1984 -0.2049
  518SOL    HW1 2070   1.774   0.257   2.989  0.0214  0.6330 -2.1991
  518SOL    HW2 2071   1.775   0.250   3.146  0.9932  0.3472 -0.9704
  518SOL     MW 2072   1.809   0.236   3.068  0.5250 -0.0167 -0.5690
  519SOL     OW 2073   0.703   2.417   1.736  0.1901  0.6909 -0.3211
  519SOL    HW1 2074   0.741   2.327   1.743 -1.1052  0.5407 -0.8129
  519SOL    HW2 2075   0.649   2.393   1.662  2.8155  1.5413  0.0132
  519SOL     MW 2076   0.701   2.402   1.727  0.3656  0.7833 -0.3419
  520SOL     OW 2077   1.273   2.148   2.950 -0.0682  0.4141 -0.0287
  520SOL    HW1 2078   1.189   2.091   2.937  1.1955 -2.8886 -0.3699
  520SOL    HW2 2079   1.332   2.106   3.013 -0.8257  2.4392 -2.4391
  520SOL     MW 2080   1.269   2.135   2.957 -0.0014  0.2456 -0.3917
  521SOL     OW 2081   1.707   2.055   2.208 -0.2086  0.7518  0.2549
  521SOL    HW1 2082   1.744   2.089   2.125  2.0846  0.9219  1.0459
  521SOL    HW2 2083   1.686   1.960   2.194  0.0045  0.5754  2.8241
  521SOL     MW 2084   1.709   2.047   2.195  0.1221  0.7510  0.6982
  522SOL     OW 2085   2.847   2.572   2.220 -0.7766 -0.2646 -0.3678
  522SOL    HW1 2086   2.921   2.529   2.261 -0.6869  0.3483 -2.6236
  522SOL    HW2 2087   2.780   2.588   2.284  1.1159  0.1116 -0.0020
  522SOL     MW 2088   2.848   2.569   2.234 -0.5150 -0.1341 -0.6172
  523SOL     OW 2089   0.872   1.490   2.155 -0.6820 -0.0568  0.0691
  523SOL    HW1 2090   0.832   1.528   2.076  1.6873  0.2646  0.2052
  523SOL    HW2 2091   0.939   1.438   2.116 -0.3425  0.6121 -0.9198
  523SOL     MW 2092   0.876   1.488   2.139 -0.3246  0.0739 -0.0435
  524SOL     OW 2093   0.703   2.377   2.919  0.4075  0.5748  0.1971
  524SOL    HW1 2094   0.701   2.432   2.840  1.5221 -1.7517 -3.8914
  524SOL    HW2 2095   0.757   2.304   2.900 -0.0016  0.8031  0.9333
  524SOL     MW 2096   0.710   2.375   2.906  0.5006  0.2979 -0.2452
  525SOL     OW 2097   0.382   2.296   2.079  0.9419 -0.3988 -0.3822
  525SOL    HW1 2098   0.320   2.252   2.144 -0.7915  0.4840 -0.3592
  525SOL    HW2 2099   0.394   2.234   2.009  0.8558  2.6657  0.4010
  525SOL     MW 2100   0.376   2.282   2.079  0.7018  0.1220 -0.2759
  526SOL     OW 2101   0.658   2.098   2.030 -0.3299  0.4268  0.1845
  526SOL    HW1 2102   0.708   2.097   1.950 -0.0495 -1.0809 -0.9057
  526SOL    HW2 2103   0.702   2.157   2.091 -2.5135 -1.0816  0.8328
  526SOL     MW 2104   0.671   2.106   2.027 -0.5810  0.0289  0.1262
  527SOL     OW 2105   1.399   2.015   2.025 -1.3022  0.0002 -0.7588
  527SOL    HW1 2106   1.379   1.993   2.115  0.2465 -1.1609  0.7726
  527SOL    HW2 2107   1.408   1.929   1.982  2.1960  0.2375  1.4890
  527SOL     MW 2108   1.397   2.001   2.031 -0.6363 -0.1217 -0.2601
  528SOL     OW 2109   0.623   2.910   2.914 -0.0518 -0.5165  0.6962
  528SOL    HW1 2110   0.692   2.972   2.925 -3.8617 -1.1184  0.1113
  528SOL    HW2 2111   0.596   2.934   2.824 -0.6468  0.0799 -0.0512
  528SOL     MW 2112   0.629   2.922   2.903 -0.6330 -0.5172  0.5204
  529SOL     OW 2113   1.028   2.327   1.862 -0.4512  0.3363  0.1586
  529SOL    HW1 2114   1.028   2.365   1.954  0.2040 -0.1447  2.7359
  529SOL    HW2 2115   1.079   2.377   1.801 -3.5571 -2.5398  1.3550
  529SOL     MW 2116   1.035   2.339   1.866 -0.7745 -0.1066  0.6565
  530SOL     OW 2117   1.204   2.383   3.001  0.2705 -0.1670  0.2789
  530SOL    HW1 2118   1.166   2.375   3.089 -0.5397 -3.2063  2.9786
  530SOL    HW2 2119   1.221   2.291   2.968  2.0681 -0.1547  0.7814
  530SOL     MW 2120   1.201   2.370   3.008  0.4008 -0.5664  0.7014
  531SOL     OW 2121   0.928   1.889   2.577  0.3903  0.3017 -0.0543
  531SOL    HW1 2122   0.992   1.966   2.598  0.7522 -2.0043 -0.0824
  531SOL    HW2 2123   0.912   1.837   2.662 -1.0997  0.0312  1.1491
  531SOL     MW 2124   0.934   1.892   2.591  0.2415 -0.0383  0.1008
  532SOL     OW 2125   1.748   0.294   2.805 -0.1804  0.3887 -0.5079
  532SOL    HW1 2126   1.783   0.243   2.732 -1.1108 -3.5150  0.1566
  532SOL    HW2 2127   1.818   0.355   2.821 -1.7332  0.8776  0.0253
  532SOL     MW 2128   1.762   0.295   2.798 -0.5081 -0.0619 -0.3499
  533SOL     OW 2129   1.886   2.637   3.072 -0.1870 -0.4660 -0.0219
  533SOL    HW1 2130   1.884   2.568   3.145  0.6097  2.6290 -0.2673
  533SOL    HW2 2131   1.803   2.631   3.026 -1.1440 -2.1407 -0.8450
  533SOL     MW 2132   1.875   2.627   3.076 -0.2082 -0.2786 -0.1629
  534SOL     OW 2133   1.758   2.421   2.531  0.7309  0.5907 -0.8146
  534SOL    HW1 2134   1.694   2.371   2.583  1.1895 -0.7701 -0.7234
  534SOL    HW2 2135   1.843   2.415   2.581 -0.3241  2.9099 -0.3243
  534SOL     MW 2136   1.761   2.413   2.545  0.6522  0.7172 -0.7379
  535SOL     OW 2137   1.933   2.354   1.893  0.1831 -0.2767  0.0636
  535SOL    HW1 2138   1.869   2.387   1.830 -2.1788  0.4716  0.1071
  535SOL    HW2 2139   2.021   2.373   1.857  0.2104  2.2924 -1.0856
  535SOL     MW 2140   1.937   2.361   1.880 -0.1249  0.1610 -0.0823
  536SOL     OW 2141   0.447   1.828   2.083  0.2240  0.1534 -0.3003
  536SOL    HW1 2142   0.458   1.792   1.994  2.0920 -2.1380 -0.4181
  536SOL    HW2 2143   0.512   1.894   2.103  1.4024  1.0977  0.8812
  536SOL     MW 2144   0.457   1.832   2.074  0.6259 -0.0243 -0.1600
  537SOL     OW 2145   1.100   0.208   2.852 -0.1014  0.2139  0.2618
  537SOL    HW1 2146   1.034   0.259   2.890  0.4555 -0.8094 -0.2668
  537SOL    HW2 2147   1.116   0.239   2.763 -0.2271 -1.5155  0.2637
  537SOL     MW 2148   1.093   0.219   2.845 -0.0445 -0.1493  0.1923
  538SOL     OW 2149   1.364   0.047   3.082  0.6029 -0.1457 -0.3065
  538SOL    HW1 2150   1.359   0.135   3.037 -0.6983 -0.4816  0.8961
  538SOL    HW2 2151   1.384  -0.012   3.011 -2.1309 -0.6499 -1.9656
  538SOL     MW 2152   1.366   0.051   3.067  0.0705 -0.2566 -0.3667
  539SOL     OW 2153   0.762   2.768   2.547  0.7952  0.1461  0.4732
  539SOL    HW1 2154   0.829   2.828   2.577  0.0602 -2.5612  1.1763
  539SOL    HW2 2155   0.766   2.692   2.607 -0.3793  1.5139  1.0469
  539SOL     MW 2156   0.771   2.766   2.559  0.5433 -0.0306  0.6417
  540SOL     OW 2157   0.394   2.503   2.900 -0.0592  0.2512  0.5354
  540SOL    HW1 2158   0.389   2.566   2.970 -1.2517  0.3183  0.3942
  540SOL    HW2 2159   0.346   2.432   2.937  0.9101  1.8018 -1.4523
  540SOL     MW 2160   0.387   2.502   2.914 -0.0887  0.4646  0.2546
  541SOL     OW 2161   0.198   2.937   2.219  0.0830 -0.0438 -0.1860
  541SOL    HW1 2162   0.165   2.859   2.178  0.9765  2.8332  0.7104
  541SOL    HW2 2163   0.212   2.918   2.313  1.3358  2.4528 -3.3999
  541SOL     MW 2164   0.195   2.924   2.226  0.3662  0.6652 -0.4918
  542SOL     OW 2165   1.069   2.318   2.668  0.3376  0.2347  0.2388
  542SOL    HW1 2166   1.035   2.256   2.732  0.2976  0.1980  1.1910
  542SOL    HW2 2167   1.068   2.405   2.712  0.0381 -1.4887 -0.4630
  542SOL     MW 2168   1.064   2.322   2.682  0.2928  0.0024  0.2719
  543SOL     OW 2169   1.654   2.448   2.865  0.7542  0.0904 -0.8110
  543SOL    HW1 2170   1.604   2.386   2.812 -0.3892  2.7011 -0.5939
  543SOL    HW2 2171   1.658   2.539   2.829 -1.7380  2.3228 -0.4470
  543SOL     MW 2172   1.648   2.452   2.853  0.2745  0.7294 -0.7343
  544SOL     OW 2173   0.703   0.235   2.723  0.0114 -0.0740  0.2110
  544SOL    HW1 2174   0.610   0.260   2.737 -1.0067 -0.2877 -1.9149
  544SOL    HW2 2175   0.722   0.186   2.643  0.0766 -0.1192 -0.8158
  544SOL     MW 2176   0.693   0.232   2.714 -0.1143 -0.1081 -0.2049
  545SOL     OW 2177   1.518   2.171   2.367 -0.2775  0.5624  0.2776
  545SOL    HW1 2178   1.511   2.258   2.329 -3.1901  1.1194 -0.1592
  545SOL    HW2 2179   1.603   2.128   2.325 -1.9984 -1.8108 -0.0938
  545SOL     MW 2180   1.529   2.177   2.357 -0.8889  0.3228  0.1709
  546SOL     OW 2181   2.931   2.013   0.111 -0.8166  0.3958 -0.3497
  546SOL    HW1 2182   2.937   2.104   0.073 -0.5438 -1.6528 -2.1717
  546SOL    HW2 2183   3.015   1.974   0.080 -0.2108 -0.4301  0.4598
  546SOL     MW 2184   2.943   2.020   0.102 -0.7007  0.0165 -0.4833
  547SOL     OW 2185   0.177   0.089   0.050 -0.3240  0.6154  0.1712
  547SOL    HW1 2186   0.219   0.087  -0.036 -3.1619  0.9249  2.7515
  547SOL    HW2 2187   0.096   0.035   0.044 -0.2070  1.4144  1.5819
  547SOL     MW 2188   0.172   0.081   0.038 -0.6830  0.7616  0.6978
  548SOL     OW 2189   0.311   2.531   0.293 -0.0619 -0.2059 -0.2819
  548SOL    HW1 2190   0.303   2.598   0.212  1.0821  0.7906  3.4503
  548SOL    HW2 2191   0.226   2.488   0.293  1.4927  0.2400  0.5026
  548SOL     MW 2192   0.298   2.534   0.282  0.2942 -0.0156  0.3140
  549SOL     OW 2193   0.795   1.889   2.148  0.5963 -0.3991  1.2797
  549SOL    HW1 2194   0.740   1.966   2.114 -0.3577  0.8606 -2.0304
  549SOL    HW2 2195   0.754   1.866   2.233 -3.4557 -1.5542 -0.1250
  549SOL     MW 2196   0.782   1.896   2.155 -0.0642 -0.3853  0.6576
  550SOL     OW 2197   1.799   1.741   2.530  0.2000 -0.7212 -0.1418
  550SOL    HW1 2198   1.817   1.749   2.437  0.3751  0.7235 -0.3548
  550SOL    HW2 2199   1.802   1.828   2.572  0.3858  1.0241 -2.0565
  550SOL     MW 2200   1.802   1.753   2.523  0.2476 -0.3003 -0.4225
  551SOL     OW 2201   0.923   2.306   0.222 -0.1227  0.3912 -0.4615
  551SOL    HW1 2202   1.020   2.294   0.224 -0.3795  0.2923  0.4000
  551SOL    HW2 2203   0.874   2.228   0.195  0.6124  3.4048 -2.0883
  551SOL     MW 2204   0.929   2.294   0.219 -0.0596  0.7758 -0.5624
  552SOL     OW 2205   1.767   1.756   2.260  0.0898 -0.0962  0.1029
  552SOL    HW1 2206   1.670   1.748   2.285 -3.2178 -1.0031  1.5865
  552SOL    HW2 2207   1.799   1.683   2.212  1.2909  4.3916 -2.0709
  552SOL     MW 2208   1.758   1.745   2.257 -0.1882  0.3763  0.0118
  553SOL     OW 2209   1.278   2.284   1.569  0.0808 -0.5843 -0.4665
  553SOL    HW1 2210   1.308   2.197   1.588 -0.1193 -1.7690 -1.3544
  553SOL    HW2 2211   1.339   2.328   1.516 -1.2647  0.0933  0.7815
  553SOL     MW 2212   1.290   2.278   1.564 -0.1231 -0.6512 -0.4190
  554SOL     OW 2213   0.538   2.952   2.646 -0.0186  0.1644 -0.0267
  554SOL    HW1 2214   0.502   3.034   2.603  0.8351 -1.6354 -1.6205
  554SOL    HW2 2215   0.579   2.896   2.582 -1.3191  0.3234 -1.3181
  554SOL     MW 2216   0.539   2.955   2.632 -0.0776 -0.0521 -0.4074
  555SOL     OW 2217   0.623   2.440   2.503 -0.0895  0.0290  0.1071
  555SOL    HW1 2218   0.581   2.354   2.507 -0.0205 -0.4412 -0.8369
  555SOL    HW2 2219   0.711   2.425   2.467  4.0255 -2.9528  0.0692
  555SOL     MW 2220   0.629   2.427   2.499  0.4625 -0.4264 -0.0224
  556SOL     OW 2221   0.980   1.869   0.094  0.3869  0.8846  0.1878
  556SOL    HW1 2222   1.010   1.828   0.012  2.2087  0.8689 -1.1829
  556SOL    HW2 2223   1.060   1.889   0.135 -1.1825 -1.4900 -1.2804
  556SOL     MW 2224   0.994   1.866   0.088  0.4202  0.5692 -0.1867
  557SOL     OW 2225   0.981   2.651   0.485 -0.4345 -0.8173  0.0556
  557SOL    HW1 2226   1.058   2.625   0.428 -1.8232  2.9083  1.7928
  557SOL    HW2 2227   0.939   2.726   0.440 -0.7844 -5.1648 -0.4521
  557SOL     MW 2228   0.985   2.658   0.471 -0.6639 -0.8994  0.2178
  558SOL     OW 2229   0.212   2.315   3.007  0.1172 -0.2669 -0.2853
  558SOL    HW1 2230   0.140   2.279   2.955 -2.6422  1.6918 -0.1220
  558SOL    HW2 2231   0.182   2.359   3.084 -1.8581 -1.3447  1.0811
  558SOL     MW 2232   0.199   2.316   3.010 -0.5075 -0.1507 -0.0835
  559SOL     OW 2233   1.073   2.329   2.128  0.1697 -0.0285 -0.0367
  559SOL    HW1 2234   1.166   2.328   2.105 -1.3410  4.1258 -1.8973
  559SOL    HW2 2235   1.053   2.251   2.181  3.5101 -0.9997 -0.0402
  559SOL     MW 2236   1.083   2.318   2.132  0.4111  0.3915 -0.2827
  560SOL     OW 2237   1.963   2.886   0.037 -0.2191  0.4176  0.5605
  560SOL    HW1 2238   2.029   2.902  -0.028 -1.4903 -0.2747  1.0125
  560SOL    HW2 2239   1.918   2.806   0.006 -0.3357 -0.9418  0.7184
  560SOL     MW 2240   1.966   2.878   0.025 -0.4022  0.1469  0.6410
  561SOL     OW 2241   0.332   2.131   0.067 -0.2534  0.2882  0.3522
  561SOL    HW1 2242   0.297   2.168  -0.015 -1.9623 -1.8262 -0.2996
  561SOL    HW2 2243   0.385   2.203   0.110  0.2231 -0.0310  2.0607
  561SOL     MW 2244   0.334   2.145   0.062 -0.4160 -0.0329  0.4916
  562SOL     OW 2245   0.700   2.235   2.306 -0.2297 -0.0690 -0.0593
  562SOL    HW1 2246   0.673   2.322   2.275 -0.5944 -0.8076  2.5427
  562SOL    HW2 2247   0.794   2.237   2.293  2.5469 -0.8168 -0.9819
  562SOL     MW 2248   0.709   2.247   2.300  0.0885 -0.2651  0.1623
  563SOL     OW 2249   1.239   0.390   0.583  0.2426  0.8325 -0.3326
  563SOL    HW1 2250   1.193   0.312   0.555 -0.6994  2.5512 -1.7448
  563SOL    HW2 2251   1.249   0.385   0.676  0.7985  1.1492 -2.5990
  563SOL     MW 2252   1.234   0.379   0.592  0.1917  1.1010 -0.8180
  564SOL     OW 2253   1.159   2.608   2.363 -0.0288  0.6519 -0.0726
  564SOL    HW1 2254   1.147   2.668   2.293  0.1819 -1.5095  2.2712
  564SOL    HW2 2255   1.139   2.659   2.436  0.9658  0.6014 -1.3732
  564SOL     MW 2256   1.155   2.622   2.364  0.1302  0.3600  0.0650
  565SOL     OW 2257   2.749   2.747   2.630 -0.5828 -0.1645 -0.5855
  565SOL    HW1 2258   2.789   2.829   2.604  0.1727 -1.6388 -1.5168
  565SOL    HW2 2259   2.769   2.689   2.555 -1.9000  0.2682  0.7650
  565SOL     MW 2260   2.757   2.750   2.616 -0.6569 -0.3020 -0.5302
  566SOL     OW 2261   2.130   1.844   2.432 -0.2121  0.1909  0.2516
  566SOL    HW1 2262   2.140   1.788   2.357  0.7858  1.9876 -1.4286
  566SOL    HW2 2263   2.187   1.925   2.411  0.1350  1.1523 -1.2186
  566SOL     MW 2264   2.139   1.848   2.419 -0.0346  0.5548 -0.1640
  567SOL     OW 2265   1.124   2.982   3.065  0.2270  0.3556 -0.5301
  567SOL    HW1 2266   1.191   3.033   3.108  1.3099 -4.4795  0.7011
  567SOL    HW2 2267   1.164   2.895   3.050 -0.7177 -2.9568 -0.3072
  567SOL     MW 2268   1.138   2.977   3.069  0.2452 -0.7194 -0.3382
  568SOL     OW 2269   1.615   2.075   2.886  0.1150  0.1657  0.2852
  568SOL    HW1 2270   1.664   2.113   2.954 -2.7574 -1.9570  2.6957
  568SOL    HW2 2271   1.680   2.040   2.824  2.5610 -0.8988 -0.5730
  568SOL     MW 2272   1.630   2.076   2.887  0.0587 -0.2548  0.4900
  569SOL     OW 2273   0.163   2.258   2.506  0.0645 -0.0296  0.2559
  569SOL    HW1 2274   0.079   2.296   2.479  1.2935  1.3292  0.0889
  569SOL    HW2 2275   0.214   2.332   2.542  2.4930 -0.5636  0.2924
  569SOL     MW 2276   0.159   2.273   2.507  0.5471  0.0792  0.2387
  570SOL     OW 2277   1.500   0.332   0.529  0.0853 -0.0027  0.5201
  570SOL    HW1 2278   1.407   0.365   0.543 -1.9774  0.7727  2.7790
  570SOL    HW2 2279   1.548   0.325   0.615 -0.3801  2.9034  0.5027
  570SOL     MW 2280   1.494   0.336   0.542 -0.2483  0.4830  0.8158
  571SOL     OW 2281   1.346   2.392   2.076 -0.6588 -0.4752  0.9076
  571SOL    HW1 2282   1.387   2.423   2.157  0.2904 -1.3802  1.9260
  571SOL    HW2 2283   1.427   2.360   2.033  2.1025  0.5917 -0.9670
  571SOL     MW 2284   1.362   2.392   2.081 -0.1693 -0.4538  0.7946
  572SOL     OW 2285   1.050   2.603   0.091 -0.5644 -0.6848 -0.2948
  572SOL    HW1 2286   0.996   2.683   0.075 -0.0335  1.1540 -0.8690
  572SOL    HW2 2287   0.988   2.527   0.104  0.5067  1.4977  1.1050
  572SOL     MW 2288   1.035   2.604   0.091 -0.3530 -0.1542 -0.1858
  573SOL     OW 2289   1.200   2.307   0.209  0.7277  0.2683 -0.4782
  573SOL    HW1 2290   1.296   2.306   0.193  0.9764 -0.7014 -3.0370
  573SOL    HW2 2291   1.177   2.370   0.277  2.5154 -1.9112 -1.5003
  573SOL     MW 2292   1.210   2.315   0.216  0.9964 -0.1472 -0.9507
  574SOL     OW 2293   1.163   2.542   0.335  0.2672  0.6709 -0.2557
  574SOL    HW1 2294   1.246   2.593   0.349 -1.7824 -0.4039  1.0400
  574SOL    HW2 2295   1.128   2.568   0.250 -1.0684 -0.4086  1.0207
  574SOL     MW 2296   1.169   2.552   0.325 -0.1794  0.3867  0.0837
  575SOL     OW 2297   3.041   2.228   1.768  0.0912 -0.0029 -0.5185
  575SOL    HW1 2298   3.063   2.152   1.709  0.1376  1.5943 -5.0341
  575SOL    HW2 2299   3.118   2.285   1.776 -1.9810 -1.5911 -1.4762
  575SOL     MW 2300   3.054   2.226   1.761 -0.1761 -0.0017 -1.2406
  576SOL     OW 2301   2.820   1.827   2.023  0.2420 -0.2400 -0.2281
  576SOL    HW1 2302   2.828   1.921   2.003 -2.2033  1.2584 -1.0114
  576SOL    HW2 2303   2.726   1.799   2.022  2.3380  0.4581  0.6716
  576SOL     MW 2304   2.809   1.836   2.020  0.1959  0.0498 -0.2128
  577SOL     OW 2305   2.060   0.224   0.100  0.6948  0.5512  0.1447
  577SOL    HW1 2306   1.985   0.215   0.036  0.7441 -0.0174  0.7394
  577SOL    HW2 2307   2.012   0.183   0.176 -0.1116  4.2154  4.2048
  577SOL     MW 2308   2.044   0.217   0.101  0.5949  0.9596  0.7589
  578SOL     OW 2309   1.926   2.058   2.397 -0.0501 -0.4677  0.5333
  578SOL    HW1 2310   1.856   2.013   2.342  1.7757 -0.6656  1.1139
  578SOL    HW2 2311   1.997   1.993   2.393 -0.3205  2.5141  2.0976
  578SOL     MW 2312   1.926   2.044   2.389  0.1551 -0.1004  0.8163
  579SOL     OW 2313   0.946   2.437   2.451 -0.0657 -0.0674 -0.0549
  579SOL    HW1 2314   0.978   2.376   2.521  0.7658 -1.6350  3.0432
  579SOL    HW2 2315   1.021   2.484   2.420 -4.1613  0.6453  2.2842
  579SOL     MW 2316   0.960   2.435   2.456 -0.4964 -0.1802  0.6625
  580SOL     OW 2317   0.905   2.825   0.031  0.3730  0.4716 -0.0132
  580SOL    HW1 2318   0.973   2.892   0.031  0.9161 -0.5374  1.5626
  580SOL    HW2 2319   0.913   2.788  -0.057  2.6195  0.1289 -0.8681
  580SOL     MW 2320   0.915   2.829   0.019  0.7411  0.2933  0.0819
  581SOL     OW 2321   1.148   2.507   1.677  0.0346 -0.2042  0.3740
  581SOL    HW1 2322   1.192   2.549   1.749 -1.3733  0.5260 -3.2029
  581SOL    HW2 2323   1.199   2.426   1.655  1.5825 -3.2041 -0.9127
  581SOL     MW 2324   1.161   2.502   1.684  0.0531 -0.5036 -0.2677
  582SOL     OW 2325   0.039   2.789   2.704 -0.1610  0.7397  0.4152
  582SOL    HW1 2326  -0.016   2.869   2.725 -2.2978  0.0602 -1.3845
  582SOL    HW2 2327   0.122   2.830   2.680 -2.1699  2.3332 -0.4990
  582SOL     MW 2328   0.043   2.805   2.704 -0.7080  0.8603  0.0571
  583SOL     OW 2329   1.991   2.435   2.672  0.1560 -0.0650  0.2283
  583SOL    HW1 2330   2.047   2.466   2.602  0.2403 -0.8564  1.4315
  583SOL    HW2 2331   2.009   2.345   2.674 -0.0725  3.7586  1.9228
  583SOL     MW 2332   2.000   2.427   2.663  0.1370  0.3350  0.6106
  584SOL     OW 2333   0.075   1.902   2.213 -0.7813 -0.1634  0.0099
  584SOL    HW1 2334   0.143   1.865   2.261 -1.4893  1.8642  1.2534
  584SOL    HW2 2335   0.082   1.997   2.236 -0.9007 -0.2775  1.3264
  584SOL     MW 2336   0.085   1.910   2.222 -0.8904  0.0891  0.3477
  585SOL     OW 2337   1.562   2.571   0.225  0.1075  0.3967 -0.7679
  585SOL    HW1 2338   1.504   2.558   0.144 -0.7416  0.7565 -4.4208
  585SOL    HW2 2339   1.505   2.613   0.296 -0.4984  1.6584  1.2834
  585SOL     MW 2340   1.547   2.575   0.224 -0.0845  0.6106 -0.9792
  586SOL     OW 2341   1.419   2.824   2.591  0.4101 -0.3550  0.1174
  586SOL    HW1 2342   1.433   2.797   2.502 -3.9872 -0.7600 -1.1887
  586SOL    HW2 2343   1.385   2.909   2.583  0.0483  1.0699  1.9741
  586SOL     MW 2344   1.416   2.831   2.578 -0.2178 -0.2204  0.1901
  587SOL     OW 2345   1.376   1.515   2.156  0.0902  0.0899  0.0059
  587SOL    HW1 2346   1.341   1.454   2.225 -0.6097 -0.4640  0.8802
  587SOL    HW2 2347   1.388   1.466   2.077  0.8856  0.5726  0.4853
  587SOL     MW 2348   1.373   1.500   2.154  0.1028  0.0805  0.1845
  588SOL     OW 2349   1.355   2.045   2.692  0.1010 -0.2548 -0.0203
  588SOL    HW1 2350   1.350   1.952   2.683 -0.3335  1.8606  0.9106
  588SOL    HW2 2351   1.343   2.065   2.784 -0.5270 -2.2682  0.4355
  588SOL     MW 2352   1.353   2.035   2.703 -0.0392 -0.2414  0.1627
  589SOL     OW 2353   1.397   2.013   0.055 -0.3797 -0.0653 -0.2888
  589SOL    HW1 2354   1.417   2.090   0.105  0.1170 -0.1857 -0.0104
  589SOL    HW2 2355   1.329   1.967   0.103  1.1010  1.0447 -0.4359
  589SOL     MW 2356   1.390   2.017   0.068 -0.1188  0.0652 -0.2715
  590SOL     OW 2357   0.500   2.777   2.212 -0.2591 -0.3177 -0.4878
  590SOL    HW1 2358   0.483   2.745   2.125 -1.3819  2.0275 -1.9481
  590SOL    HW2 2359   0.594   2.766   2.234 -1.2371  2.0110  2.1036
  590SOL     MW 2360   0.510   2.771   2.204 -0.5362  0.2990 -0.3386
  591SOL     OW 2361   2.278   0.684   0.029  0.2278 -0.3843 -0.1238
  591SOL    HW1 2362   2.205   0.740   0.001  5.2204  0.1207 -2.5192
  591SOL    HW2 2363   2.324   0.679  -0.056 -1.9977  1.6958 -0.4747
  591SOL     MW 2364   2.274   0.691   0.014  0.5929 -0.0432 -0.4861
  592SOL     OW 2365   1.745   2.943   0.758  0.3131  0.3892 -0.4862
  592SOL    HW1 2366   1.742   3.003   0.687 -0.9235 -0.4704 -1.0548
  592SOL    HW2 2367   1.827   2.955   0.801 -1.7477 -0.9059  0.7566
  592SOL     MW 2368   1.756   2.952   0.754 -0.1220  0.1049 -0.3972
  593SOL     OW 2369   1.954   0.658   0.859  0.0456  0.5756 -0.0739
  593SOL    HW1 2370   1.870   0.654   0.814 -1.2940 -1.5402  1.8673
  593SOL    HW2 2371   2.001   0.594   0.809  1.2090  1.2312  0.5895
  593SOL     MW 2372   1.949   0.649   0.846  0.0223  0.3829  0.2698
  594SOL     OW 2373   2.787   1.122   1.393  0.0333 -0.3654  0.7237
  594SOL    HW1 2374   2.882   1.120   1.382  3.2167 -0.3416 -0.5052
  594SOL    HW2 2375   2.750   1.097   1.309 -2.3832  0.3965 -0.3239
  594SOL     MW 2376   2.795   1.119   1.381  0.1345 -0.2617  0.4234
  595SOL     OW 2377   0.481   0.956   0.828 -0.0216 -0.3950  0.0140
  595SOL    HW1 2378   0.504   1.035   0.776 -1.3569 -0.2563 -0.5869
  595SOL    HW2 2379   0.448   0.988   0.916 -1.6237 -2.1409  2.2991
  595SOL     MW 2380   0.479   0.970   0.833 -0.4091 -0.6070  0.2362
  596SOL     OW 2381   2.452   1.333   0.549  0.7162  0.1451 -0.4329
  596SOL    HW1 2382   2.511   1.402   0.520  1.2007 -1.5626 -0.4929
  596SOL    HW2 2383   2.484   1.318   0.637 -2.0491 -0.7145 -3.2528
  596SOL     MW 2384   2.464   1.340   0.557  0.4153 -0.1936 -0.8129
  597SOL     OW 2385   2.170   0.678   1.614 -0.4811 -0.0947 -0.3551
  597SOL    HW1 2386   2.194   0.620   1.686 -1.0285 -0.2040 -2.3336
  597SOL    HW2 2387   2.096   0.622   1.570 -0.7918 -3.2424  0.2675
  597SOL     MW 2388   2.163   0.663   1.618 -0.5943 -0.5244 -0.5339
  598SOL     OW 2389   2.563   1.034   2.839  0.1232  0.1909  0.3741
  598SOL    HW1 2390   2.584   0.984   2.760  1.7758  0.0476  1.9498
  598SOL    HW2 2391   2.647   1.073   2.863  0.4498  2.4866  0.7309
  598SOL     MW 2392   2.577   1.032   2.832  0.3843  0.4749  0.6291
  599SOL     OW 2393   2.983   0.399   2.100 -0.1065  0.0155  0.6874
  599SOL    HW1 2394   3.013   0.416   2.188  0.7253  1.0329 -1.5848
  599SOL    HW2 2395   2.999   0.479   2.047  0.0559  0.6597  1.9833
  599SOL     MW 2396   2.989   0.412   2.105  0.0247  0.2347  0.5586
  600SOL     OW 2397   1.820   1.636   0.892  0.1584 -0.4321  0.0441
  600SOL    HW1 2398   1.861   1.683   0.966 -0.7785 -0.4634  0.8370
  600SOL    HW2 2399   1.764   1.706   0.853  1.9884  0.6758 -2.3419
  600SOL     MW 2400   1.818   1.652   0.897  0.2762 -0.2900 -0.1661
  601SOL     OW 2401   2.542   0.740   0.814 -0.1471 -0.5691 -0.3294
  601SOL    HW1 2402   2.533   0.741   0.913 -1.7020  0.5026 -0.8983
  601SOL    HW2 2403   2.465   0.683   0.786 -2.3991 -2.6513  2.2817
  601SOL     MW 2404   2.531   0.733   0.823 -0.6494 -0.7025 -0.0600
  602SOL     OW 2405   2.302   1.928   0.756  0.5186  0.2207  0.4218
  602SOL    HW1 2406   2.245   1.850   0.732 -1.2692  0.0482  0.9318
  602SOL    HW2 2407   2.243   2.003   0.748 -0.1187  1.7379  2.8015
  602SOL     MW 2408   2.287   1.928   0.752  0.1987  0.3981  0.8031
  603SOL     OW 2409   3.023   1.394   1.957 -0.9114 -0.1566 -0.1568
  603SOL    HW1 2410   3.093   1.450   1.995 -1.7322 -2.6101 -0.5056
  603SOL    HW2 2411   3.030   1.306   2.000 -2.0545  1.7865  2.9348
  603SOL     MW 2412   3.034   1.390   1.967 -1.1705 -0.2240  0.2051
  604SOL     OW 2413   2.059   1.493   0.460 -0.5589  0.0688  0.1987
  604SOL    HW1 2414   2.084   1.397   0.491 -3.9990 -2.4043  1.0668
  604SOL    HW2 2415   2.007   1.528   0.530  1.1849 -2.6409  0.4890
  604SOL     MW 2416   2.055   1.485   0.474 -0.7827 -0.6150  0.3516
  605SOL     OW 2417   2.532   1.468   0.888 -0.2143  0.0402 -0.0281
  605SOL    HW1 2418   2.526   1.540   0.826  0.2685 -3.3229  0.2785
  605SOL    HW2 2419   2.550   1.392   0.836  0.7628  2.1891 -0.8151
  605SOL     MW 2420   2.533   1.467   0.873 -0.0217 -0.1200 -0.0915
  606SOL     OW 2421   2.536   1.786   2.006  0.2169  0.5020 -0.4619
  606SOL    HW1 2422   2.445   1.781   1.977  1.2772  1.0040 -1.9200
  606SOL    HW2 2423   2.572   1.727   1.942  1.1083  2.2768 -2.3418
  606SOL     MW 2424   2.529   1.777   1.994  0.4744  0.8024 -0.9023
  607SOL     OW 2425   2.389   0.965   3.037 -0.3045 -0.7247 -0.2035
  607SOL    HW1 2426   2.458   0.988   2.976 -1.0295 -0.7296 -2.5746
  607SOL    HW2 2427   2.430   0.966   3.126 -1.9772 -0.5770  1.4634
  607SOL     MW 2428   2.404   0.968   3.041 -0.6208 -0.7059 -0.2964
  608SOL     OW 2429   1.853   0.261   0.551 -0.0985  0.0737 -0.3447
  608SOL    HW1 2430   1.837   0.317   0.480 -0.8047 -2.0800 -0.9208
  608SOL    HW2 2431   1.815   0.173   0.530  0.9761 -5.5032  0.6952
  608SOL     MW 2432   1.846   0.257   0.539 -0.0499 -0.9463 -0.2835
  609SOL     OW 2433   2.130   1.926   3.024  0.0662 -0.3671 -0.4472
  609SOL    HW1 2434   2.062   1.861   2.986  1.1337 -1.8926 -2.3177
  609SOL    HW2 2435   2.142   1.910   3.118  1.1301 -1.0385  0.9269
  609SOL     MW 2436   2.122   1.916   3.032  0.3474 -0.6570 -0.5127
  610SOL     OW 2437   1.813   0.942   1.233 -0.7839  0.2512  0.1746
  610SOL    HW1 2438   1.844   0.869   1.183  1.4584  0.4160  0.2017
  610SOL    HW2 2439   1.718   0.932   1.230  2.0077 -1.1806  1.3558
  610SOL     MW 2440   1.804   0.931   1.226 -0.1197  0.0841  0.3340
  611SOL     OW 2441   2.496   1.654   0.686 -0.4418  0.1265  0.0835
  611SOL    HW1 2442   2.538   1.694   0.613  0.4322 -1.1968  2.8373
  611SOL    HW2 2443   2.403   1.663   0.669 -0.1936  0.4695 -2.7322
  611SOL     MW 2444   2.489   1.661   0.674 -0.2937 -0.0028  0.0753
  612SOL     OW 2445   2.834   2.930   0.383  0.1754  0.7511  0.0773
  612SOL    HW1 2446   2.893   2.963   0.458  2.0742 -0.1499  1.8069
  612SOL    HW2 2447   2.909   2.885   0.339  0.4515 -0.9433  1.5166
  612SOL     MW 2448   2.852   2.929   0.387  0.4623  0.4087  0.4954
  613SOL     OW 2449   1.466   1.043   0.933  0.5651 -0.1737  0.3240
  613SOL    HW1 2450   1.479   1.137   0.948 -2.2678 -0.5932 -2.2971
  613SOL    HW2 2451   1.507   1.007   1.009 -0.7318  1.5695 -0.6932
  613SOL     MW 2452   1.473   1.051   0.945  0.0202  0.0010 -0.1561
  614SOL     OW 2453   2.000   0.489   1.500  0.0998  0.5858 -0.5145
  614SOL    HW1 2454   1.991   0.414   1.572  0.8955  1.4948  0.5073
  614SOL    HW2 2455   1.956   0.462   1.415  0.8648  0.6870 -0.9450
  614SOL     MW 2456   1.993   0.476   1.498  0.3057  0.7191 -0.4365
  615SOL     OW 2457   2.361   0.725   0.288  0.7813 -0.1724  0.3399
  615SOL    HW1 2458   2.419   0.651   0.275  2.1318 -0.5685  0.2252
  615SOL    HW2 2459   2.315   0.733   0.198 -0.2776  0.5718 -2.6490
  615SOL     MW 2460   2.362   0.716   0.274  0.8198 -0.1265 -0.0696
  616SOL     OW 2461   2.498   0.451   1.658 -0.2689  0.0672 -0.3994
  616SOL    HW1 2462   2.584   0.426   1.633  0.5245 -0.3204  1.0141
  616SOL    HW2 2463   2.469   0.511   1.588  2.7780 -0.7496  0.3335
  616SOL     MW 2464   2.506   0.456   1.646  0.2378 -0.0917 -0.1162
  617SOL     OW 2465   2.848   0.606   1.701  0.0277  0.0464  0.3520
  617SOL    HW1 2466   2.775   0.643   1.749 -2.7050 -2.1617  1.6024
  617SOL    HW2 2467   2.841   0.517   1.728  0.7885  2.1254 -0.5066
  617SOL     MW 2468   2.838   0.599   1.711 -0.2325  0.0294  0.4037
  618SOL     OW 2469   2.727   0.389   2.003  0.1810  0.0471  0.5598
  618SOL    HW1 2470   2.710   0.478   1.986  0.5253 -2.4354 -0.8077
  618SOL    HW2 2471   2.801   0.394   2.062 -0.5470 -0.5764  2.0799
  618SOL     MW 2472   2.734   0.401   2.008  0.1304 -0.3627  0.5799
  619SOL     OW 2473   2.656   0.707   0.063 -0.5723 -0.2665  0.3241
  619SOL    HW1 2474   2.691   0.796   0.072  0.9880  0.9946  2.0693
  619SOL    HW2 2475   2.630   0.670   0.148  0.3186  0.1441 -1.2726
  619SOL     MW 2476   2.658   0.714   0.075 -0.2489 -0.0460  0.3437
  620SOL     OW 2477   2.246   1.087   0.944 -0.0900 -0.0704 -0.2010
  620SOL    HW1 2478   2.339   1.073   0.926  0.5000 -0.6486  0.8223
  620SOL    HW2 2479   2.190   1.031   0.891 -1.2582  3.3960  0.9564
  620SOL     MW 2480   2.251   1.078   0.935 -0.1662  0.3107  0.0867
  621SOL     OW 2481   1.547   2.236   1.940 -0.5663 -0.0545  0.2081
  621SOL    HW1 2482   1.482   2.172   1.958 -1.1578 -0.9500  0.2214
  621SOL    HW2 2483   1.633   2.191   1.947  0.7956  1.4002 -0.3408
  621SOL     MW 2484   1.550   2.222   1.943 -0.4646  0.0193  0.1375
  622SOL     OW 2485   2.644   0.240   0.258 -0.4773  0.2287  0.5838
  622SOL    HW1 2486   2.742   0.236   0.238  0.4990 -1.8628 -1.8797
  622SOL    HW2 2487   2.623   0.153   0.291 -1.3838 -0.4513 -0.7855
  622SOL     MW 2488   2.654   0.228   0.260 -0.4681 -0.1370  0.0781
  623SOL     OW 2489   2.436   2.751   0.867  0.2367  0.0903  0.4023
  623SOL    HW1 2490   2.499   2.817   0.855 -1.6973  0.5680  0.5939
  623SOL    HW2 2491   2.394   2.758   0.952  2.7001 -0.1339 -2.3311
  623SOL     MW 2492   2.439   2.761   0.877  0.3065  0.1238  0.0669
  624SOL     OW 2493   2.142   1.612   3.031 -0.4622 -0.0331  0.0685
  624SOL    HW1 2494   2.093   1.527   3.029 -1.8775  3.9152  1.0585
  624SOL    HW2 2495   2.088   1.667   2.983 -1.8151  1.7011 -0.7691
  624SOL     MW 2496   2.129   1.608   3.025 -0.8274  0.7166  0.0886
  625SOL     OW 2497   2.211   1.943   1.111  0.5745 -0.5884 -0.0549
  625SOL    HW1 2498   2.272   1.888   1.163  1.6805 -0.4814  0.2566
  625SOL    HW2 2499   2.278   1.978   1.050  1.1477 -1.0335 -1.5939
  625SOL     MW 2500   2.228   1.941   1.109  0.7961 -0.6330 -0.2169
  626SOL     OW 2501   0.226   1.786   2.474  0.0885  0.0018 -0.1234
  626SOL    HW1 2502   0.177   1.720   2.528 -1.6269 -1.1911 -1.4256
  626SOL    HW2 2503   0.174   1.871   2.485 -0.7229 -1.0919 -1.8134
  626SOL     MW 2504   0.213   1.788   2.483 -0.2449 -0.2999 -0.5182
  627SOL     OW 2505   2.540   0.781   2.572 -0.0480  0.3828 -0.0079
  627SOL    HW1 2506   2.461   0.834   2.581 -1.7567 -3.3641  0.9075
  627SOL    HW2 2507   2.520   0.737   2.489 -0.0975 -0.8257  2.0692
  627SOL     MW 2508   2.527   0.782   2.562 -0.2800 -0.2710  0.3869
  628SOL     OW 2509   2.244   1.337   1.305  0.3505  0.4815  0.4459
  628SOL    HW1 2510   2.217   1.254   1.263  0.2896 -0.6137  1.0396
  628SOL    HW2 2511   2.320   1.369   1.244  0.6266  2.5815 -2.6596
  628SOL     MW 2512   2.251   1.330   1.291  0.3789  0.6141  0.1145
  629SOL     OW 2513   1.832   0.465   1.271 -1.1114 -0.1849  0.7168
  629SOL    HW1 2514   1.838   0.552   1.223  0.5054  1.4059 -2.1653
  629SOL    HW2 2515   1.751   0.428   1.241  0.0188 -2.8472 -1.3707
  629SOL     MW 2516   1.823   0.471   1.261 -0.7489 -0.3262  0.0611
  630SOL     OW 2517   2.410   1.860   2.999  0.5789 -0.3713 -0.3009
  630SOL    HW1 2518   2.415   1.938   2.941  0.1702  2.8557 -0.5726
  630SOL    HW2 2519   2.318   1.829   3.005 -2.1198 -0.1334 -1.3123
  630SOL     MW 2520   2.399   1.867   2.992  0.1689  0.0859 -0.4702
  631SOL     OW 2521   2.033   1.677   1.551  1.0759  0.0004 -0.1766
  631SOL    HW1 2522   2.042   1.599   1.615  2.1685 -1.0262 -0.4868
  631SOL    HW2 2523   1.949   1.716   1.558 -0.8218  2.4289  2.3120
  631SOL     MW 2524   2.023   1.672   1.560  0.9697  0.1854  0.1108
  632SOL     OW 2525   0.257   1.948   1.474 -0.2979 -0.1954  0.5616
  632SOL    HW1 2526   0.183   1.970   1.540  1.3151  0.2839 -2.8620
  632SOL    HW2 2527   0.298   1.869   1.511 -0.5922 -0.4020  4.0833
  632SOL     MW 2528   0.252   1.940   1.488 -0.1239 -0.1594  0.5746
  633SOL     OW 2529   2.573   0.530   0.288  1.0000  0.1162 -0.0998
  633SOL    HW1 2530   2.589   0.563   0.378  0.0958 -1.4648 -0.5752
  633SOL    HW2 2531   2.590   0.438   0.294  0.1040 -1.1796  2.4556
  633SOL     MW 2532   2.577   0.522   0.301  0.7625 -0.2633  0.1746
  634SOL     OW 2533   2.714   3.051   0.630 -0.0407 -0.4033 -0.2077
  634SOL    HW1 2534   2.734   3.142   0.636 -1.7285 -3.3885  1.3971
  634SOL    HW2 2535   2.656   3.047   0.554 -1.4333 -0.5060 -0.5618
  634SOL     MW 2536   2.709   3.063   0.621 -0.4471 -0.8107 -0.0427
  635SOL     OW 2537   2.583   0.125   1.851 -0.0666 -0.0123  0.4418
  635SOL    HW1 2538   2.643   0.075   1.794  0.0524 -0.9617 -0.9564
  635SOL    HW2 2539   2.597   0.214   1.852 -0.7027 -3.3125  1.1125
  635SOL     MW 2540   2.593   0.130   1.844 -0.1349 -0.5730  0.3458
  636SOL     OW 2541   2.784   1.597   0.864 -0.3429  0.5997  0.3981
  636SOL    HW1 2542   2.694   1.560   0.875 -0.0481  2.2198 -4.6171
  636SOL    HW2 2543   2.786   1.687   0.891  1.2458  0.3848  1.5606
  636SOL     MW 2544   2.773   1.604   0.869 -0.0944  0.7851 -0.1103
  637SOL     OW 2545   2.885   1.527   0.629 -0.0645  0.3084  0.2959
  637SOL    HW1 2546   2.956   1.590   0.602  2.6909 -1.6121 -1.1580
  637SOL    HW2 2547   2.867   1.556   0.719 -1.1665 -0.2165 -1.2926
  637SOL     MW 2548   2.892   1.539   0.637  0.1536 -0.0142 -0.1055
  638SOL     OW 2549   2.707   0.514   0.532  0.0569 -0.3071  0.1624
  638SOL    HW1 2550   2.793   0.543   0.498  0.5272  0.6486  1.8088
  638SOL    HW2 2551   2.715   0.499   0.632 -1.9447 -0.2710  1.8741
  638SOL     MW 2552   2.719   0.516   0.541 -0.1451 -0.1762  0.6055
  639SOL     OW 2553   1.757   0.010   0.516  0.3524 -0.3520  0.4359
  639SOL    HW1 2554   1.657   0.014   0.521  1.4826 -3.7884 -0.6897
  639SOL    HW2 2555   1.771  -0.080   0.472 -0.3887 -1.4576 -0.2270
  639SOL     MW 2556   1.746  -0.001   0.511  0.4038 -0.9513  0.1999
  640SOL     OW 2557   0.319   1.328   0.086  0.1950 -0.2532  0.0456
  640SOL    HW1 2558   0.324   1.309  -0.010  1.1095  2.7954 -2.0340
  640SOL    HW2 2559   0.304   1.239   0.123  1.0925  0.0102  2.4374
  640SOL     MW 2560   0.317   1.314   0.078  0.4341  0.1838  0.0868
  641SOL     OW 2561   2.220   0.422   0.394  0.0096 -0.0319 -0.5175
  641SOL    HW1 2562   2.250   0.399   0.311  0.7687  0.5832  1.6228
  641SOL    HW2 2563   2.302   0.403   0.442 -2.0049  0.3988 -0.5151
  641SOL     MW 2564   2.235   0.416   0.390 -0.1560  0.1061 -0.2348
  642SOL     OW 2565   0.082   0.025   0.491  0.2096  0.5965 -0.0812
  642SOL    HW1 2566   0.037   0.117   0.483 -0.8037 -1.0548 -0.3474
  642SOL    HW2 2567   0.016  -0.005   0.550 -0.7698  4.3460  1.1398
  642SOL     MW 2568   0.067   0.033   0.497 -0.0533  0.8734  0.0448
  643SOL     OW 2569   2.018   0.327   1.705  0.3517 -0.4289  0.1692
  643SOL    HW1 2570   1.948   0.293   1.765  1.1185 -0.4684 -2.3256
  643SOL    HW2 2571   2.018   0.261   1.628  2.0179  1.1360 -2.1850
  643SOL     MW 2572   2.008   0.314   1.703  0.6727 -0.2276 -0.4706
  644SOL     OW 2573   2.681   1.845   0.990 -0.1509 -0.4956 -0.0974
  644SOL    HW1 2574   2.701   1.790   1.066 -0.5040  1.6966 -0.5434
  644SOL    HW2 2575   2.584   1.838   0.987  0.7480  1.1291 -1.0566
  644SOL     MW 2576   2.671   1.837   1.000 -0.0789  0.0080 -0.2828
  645SOL     OW 2577   2.838   0.825   0.747  0.4553 -0.6571  0.3470
  645SOL    HW1 2578   2.895   0.757   0.716  1.5784  4.0286  1.0919
  645SOL    HW2 2579   2.754   0.784   0.766 -0.0196 -3.1046  1.0946
  645SOL     MW 2580   2.834   0.811   0.746  0.5409 -0.3618  0.5439
  646SOL     OW 2581   0.074   2.307   0.863 -0.1112  0.3408 -0.5920
  646SOL    HW1 2582   0.137   2.235   0.853 -1.1786 -0.1221 -0.2618
  646SOL    HW2 2583   0.011   2.305   0.786 -1.5841  0.7707 -1.0156
  646SOL     MW 2584   0.074   2.298   0.851 -0.4463  0.3365 -0.6043
  647SOL     OW 2585   2.709   0.493   2.989 -0.1520  0.1408  0.2306
  647SOL    HW1 2586   2.652   0.448   3.049 -0.3738  1.6092  1.1244
  647SOL    HW2 2587   2.695   0.585   3.008 -1.1562  0.3154 -0.4473
  647SOL     MW 2588   2.700   0.499   3.000 -0.3137  0.3576  0.2591
  648SOL     OW 2589   2.269   0.739   1.122 -0.3230  0.1175  0.5184
  648SOL    HW1 2590   2.201   0.718   1.066 -0.5257  0.6592  0.8019
  648SOL    HW2 2591   2.234   0.779   1.200 -0.7892  0.0702 -0.1948
  648SOL     MW 2592   2.255   0.742   1.125 -0.4113  0.1827  0.4617
  649SOL     OW 2593   2.405   2.702   1.311  0.3317  0.2847 -0.3582
  649SOL    HW1 2594   2.490   2.746   1.298  0.1139 -0.4559  0.2826
  649SOL    HW2 2595   2.414   2.605   1.279 -1.9919 -1.5943  0.2959
  649SOL     MW 2596   2.417   2.695   1.305 -0.0036 -0.0609 -0.1873
  650SOL     OW 2597   2.776   0.222   0.647 -0.3647  0.0214 -0.4786
  650SOL    HW1 2598   2.844   0.246   0.710  0.0966 -1.7158  0.1502
  650SOL    HW2 2599   2.813   0.259   0.565  2.5584 -0.6257 -1.2959
  650SOL     MW 2600   2.790   0.230   0.644  0.0818 -0.2932 -0.5035
  651SOL     OW 2601   0.004   0.453   1.012  0.3229  0.2589 -0.7775
  651SOL    HW1 2602   0.080   0.497   0.971 -1.5077 -0.7401 -2.3710
  651SOL    HW2 2603  -0.061   0.520   1.003 -0.6590 -2.4937  1.4540
  651SOL     MW 2604   0.006   0.468   1.005 -0.0482 -0.2361 -0.6933
  652SOL     OW 2605   2.382   1.479   3.024  0.4409 -0.5396  0.3295
  652SOL    HW1 2606   2.456   1.514   2.976 -1.5065 -1.8570  0.6767
  652SOL    HW2 2607   2.321   1.552   3.019  1.4768 -3.8289 -0.4887
  652SOL     MW 2608   2.383   1.494   3.017  0.3206 -1.1474  0.2674
  653SOL     OW 2609   1.824   0.444   0.322 -0.4800 -0.5793  0.2056
  653SOL    HW1 2610   1.793   0.373   0.264  1.3372 -1.7483 -2.4218
  653SOL    HW2 2611   1.917   0.431   0.313  0.3125  1.9127 -3.5218
  653SOL     MW 2612   1.832   0.433   0.313 -0.1356 -0.4047 -0.6328
  654SOL     OW 2613   2.439   0.994   0.739  0.0556 -0.2423  0.2453
  654SOL    HW1 2614   2.376   0.977   0.670 -0.5828 -3.3340  0.0610
  654SOL    HW2 2615   2.493   0.904   0.754  0.7677  0.6024 -0.7740
  654SOL     MW 2616   2.437   0.980   0.732  0.0653 -0.5388  0.0865
  655SOL     OW 2617   2.884   0.852   0.389 -0.1394  0.0217  0.1968
  655SOL    HW1 2618   2.807   0.854   0.448  0.1461  0.4002  1.1728
  655SOL    HW2 2619   2.908   0.760   0.386  2.2361  2.0510  2.9474
  655SOL     MW 2620   2.877   0.840   0.397  0.2117  0.3394  0.6885
  656SOL     OW 2621   1.789   2.648   1.373 -0.0763 -0.1508  0.0016
  656SOL    HW1 2622   1.830   2.734   1.364  1.2384  0.2768  2.4601
  656SOL    HW2 2623   1.861   2.588   1.369 -0.6814  1.3019  0.3380
  656SOL     MW 2624   1.804   2.652   1.371  0.0173  0.0973  0.3704
  657SOL     OW 2625   0.124   1.753   1.136 -0.6804 -0.5125  0.2706
  657SOL    HW1 2626   0.212   1.799   1.124 -0.7771  0.1598 -0.7207
  657SOL    HW2 2627   0.146   1.663   1.156  0.9503 -2.1756 -0.1824
  657SOL     MW 2628   0.139   1.748   1.137 -0.4780 -0.6432  0.0800
  658SOL     OW 2629   2.649   1.298   0.242  0.2832 -0.0841 -0.1225
  658SOL    HW1 2630   2.638   1.223   0.301 -1.2307  2.9614 -2.3473
  658SOL    HW2 2631   2.667   1.364   0.312  2.9008  0.5524 -0.5652
  658SOL     MW 2632   2.650   1.297   0.259  0.4288  0.4017 -0.4745
  659SOL     OW 2633   2.206   1.562   0.990 -0.2054 -0.3338  0.4751
  659SOL    HW1 2634   2.299   1.545   0.999  1.0996  1.7880 -1.0550
  659SOL    HW2 2635   2.180   1.599   1.082  2.7193  4.0152 -0.6537
  659SOL     MW 2636   2.215   1.565   1.004  0.3527  0.5199  0.1243
  660SOL     OW 2637   2.099   1.455   1.721  0.1151 -0.1852 -0.1969
  660SOL    HW1 2638   2.082   1.503   1.803 -0.0644  4.0935 -0.3663
  660SOL    HW2 2639   2.012   1.423   1.686 -1.7211  1.7218 -0.7338
  660SOL     MW 2640   2.085   1.457   1.727 -0.1509  0.6309 -0.2901
  661SOL     OW 2641   2.490   0.982   0.192 -0.0339  0.1285  0.0777
  661SOL    HW1 2642   2.526   1.024   0.274  1.1595 -1.9483  3.4587
  661SOL    HW2 2643   2.451   0.900   0.223 -4.6456 -0.1520  2.8267
  661SOL     MW 2644   2.490   0.977   0.207 -0.4849 -0.1825  0.8865
  662SOL     OW 2645   2.594   2.966   0.876  0.1012 -0.3164 -0.6861
  662SOL    HW1 2646   2.546   3.036   0.915 -0.2466  1.4068 -1.8107
  662SOL    HW2 2647   2.624   2.998   0.788 -0.1087  1.5903  0.5876
  662SOL     MW 2648   2.592   2.980   0.870  0.0276  0.1625 -0.6664
  663SOL     OW 2649   2.672   1.478   0.455  0.1210 -0.1245  0.1192
  663SOL    HW1 2650   2.643   1.556   0.415  3.8216  1.0851 -1.2084
  663SOL    HW2 2651   2.728   1.504   0.533 -0.1463  3.9794  1.7112
  663SOL     MW 2652   2.676   1.492   0.460  0.5740  0.5765  0.1541
  664SOL     OW 2653   2.579   1.495   1.616 -0.8366 -0.3458  0.1061
  664SOL    HW1 2654   2.558   1.590   1.611  3.1629  0.0957  0.7539
  664SOL    HW2 2655   2.497   1.454   1.616 -2.3647 -0.5089  0.9762
  664SOL     MW 2656   2.566   1.502   1.615 -0.5105 -0.3091  0.3064
  665SOL     OW 2657   2.775   0.768   2.107  0.0476  0.1048 -0.1470
  665SOL    HW1 2658   2.736   0.838   2.050 -2.0306  0.2284  1.8530
  665SOL    HW2 2659   2.858   0.740   2.064  0.4166  2.6004  0.4349
  665SOL     MW 2660   2.781   0.773   2.094 -0.1779  0.4504  0.1936
  666SOL     OW 2661   2.763   3.056   1.721  0.3351  0.1175 -0.2819
  666SOL    HW1 2662   2.761   3.034   1.625  1.4886 -0.5420  0.8541
  666SOL    HW2 2663   2.735   2.974   1.767  1.2575 -1.4572 -1.4825
  666SOL     MW 2664   2.759   3.042   1.715  0.6090 -0.1773 -0.2904
  667SOL     OW 2665   1.996   2.712   1.708  0.1789 -0.1526  0.4334
  667SOL    HW1 2666   2.033   2.645   1.762  0.7302 -0.1199  1.1889
  667SOL    HW2 2667   2.066   2.782   1.707  1.8849  2.3434 -2.6856
  667SOL     MW 2668   2.010   2.713   1.715  0.4767  0.1810  0.1215
  668SOL     OW 2669   2.710   0.537   0.803  0.1491 -0.0267 -0.1393
  668SOL    HW1 2670   2.792   0.555   0.858  2.9294 -3.4361 -0.9227
  668SOL    HW2 2671   2.646   0.603   0.826  3.5054  0.6063 -0.5342
  668SOL     MW 2672   2.713   0.548   0.813  0.9588 -0.3930 -0.2948
  669SOL     OW 2673   0.137   0.894   0.775  0.3893 -0.1411  0.1744
  669SOL    HW1 2674   0.077   0.959   0.799  1.1349 -0.4084  3.1361
  669SOL    HW2 2675   0.189   0.858   0.847  0.1489 -3.1086 -0.5087
  669SOL     MW 2676   0.136   0.898   0.787  0.4560 -0.5679  0.4751
  670SOL     OW 2677   2.896   0.313   0.217 -0.2980  0.1494  0.6949
  670SOL    HW1 2678   2.925   0.271   0.129  1.2040 -0.2086 -0.1414
  670SOL    HW2 2679   2.937   0.398   0.209  1.9503 -0.7461  2.4527
  670SOL     MW 2680   2.905   0.319   0.205  0.1968 -0.0160  0.8165
  671SOL     OW 2681   2.005   3.038   1.566  0.2880  0.1324 -0.1557
  671SOL    HW1 2682   1.961   2.976   1.508  0.1730 -0.8282 -1.1683
  671SOL    HW2 2683   1.939   3.070   1.633 -0.7726 -2.2740  0.1570
  671SOL     MW 2684   1.991   3.034   1.567  0.1329 -0.3119 -0.2480
  672SOL     OW 2685   1.841   1.700   1.279 -0.1765 -0.1083 -0.1217
  672SOL    HW1 2686   1.836   1.767   1.350  2.0357 -1.7804 -1.3705
  672SOL    HW2 2687   1.869   1.751   1.204 -0.4317 -0.8108 -1.2912
  672SOL     MW 2688   1.844   1.715   1.278  0.0817 -0.4216 -0.4408
  673SOL     OW 2689   2.764   1.069   0.655 -0.3802  0.2462 -0.1801
  673SOL    HW1 2690   2.805   1.004   0.704 -0.8738  2.4056  0.9470
  673SOL    HW2 2691   2.825   1.134   0.630 -2.0420 -2.3199 -3.7153
  673SOL     MW 2692   2.777   1.069   0.658 -0.6646  0.1925 -0.4978
  674SOL     OW 2693   2.468   3.097   1.298 -0.1273 -0.3072  0.1296
  674SOL    HW1 2694   2.442   3.115   1.209 -1.7271 -0.5965 -1.1597
  674SOL    HW2 2695   2.526   3.021   1.290 -0.3969 -0.2242 -0.8019
  674SOL     MW 2696   2.473   3.089   1.285 -0.3739 -0.3344 -0.1634
  675SOL     OW 2697   2.958   0.907   1.029 -0.9027 -0.2606 -0.5177
  675SOL    HW1 2698   3.029   0.914   1.095  0.9629 -0.7486  2.0144
  675SOL    HW2 2699   2.978   0.984   0.968  2.9768  0.5632 -1.6236
  675SOL     MW 2700   2.970   0.918   1.030 -0.1447 -0.2163 -0.3295
  676SOL     OW 2701   2.960   1.429   1.691 -0.2894 -0.3067  0.6571
  676SOL    HW1 2702   2.872   1.382   1.664 -1.5538 -2.9670 -0.4946
  676SOL    HW2 2703   2.983   1.404   1.780  4.7625 -0.7137 -1.2426
  676SOL     MW 2704   2.952   1.419   1.699  0.2103 -0.7114  0.2545
  677SOL     OW 2705   2.357   0.568   2.048 -0.1951 -0.7248 -0.2755
  677SOL    HW1 2706   2.359   0.492   1.982  0.0030 -0.2181  1.1336
  677SOL    HW2 2707   2.341   0.647   2.002  2.9181  0.1161  0.1122
  677SOL     MW 2708   2.355   0.568   2.033  0.2418 -0.5470 -0.0384
  678SOL     OW 2709   2.467   1.664   0.332 -0.0273  0.0403 -0.2154
  678SOL    HW1 2710   2.380   1.671   0.367 -1.1060 -0.2874 -1.9314
  678SOL    HW2 2711   2.450   1.592   0.272 -2.9936 -2.2541  1.7359
  678SOL     MW 2712   2.454   1.655   0.328 -0.5610 -0.3057 -0.1844
  679SOL     OW 2713   2.207   0.470   1.291  0.7654  0.6006 -0.1168
  679SOL    HW1 2714   2.233   0.377   1.288  0.4248  0.9667 -0.8070
  679SOL    HW2 2715   2.168   0.477   1.378 -0.2399 -2.6677 -0.7451
  679SOL     MW 2716   2.205   0.459   1.302  0.5878  0.2177 -0.2908
  680SOL     OW 2717   2.325   0.172   1.494 -0.0697 -0.1620 -0.2761
  680SOL    HW1 2718   2.229   0.158   1.488 -2.3570  0.8807  0.4337
  680SOL    HW2 2719   2.376   0.122   1.434 -3.2204 -0.2262  3.9093
  680SOL     MW 2720   2.319   0.164   1.485 -0.7872 -0.0329  0.3698
  681SOL     OW 2721   0.261   0.587   1.577 -0.6492 -0.9582 -0.1021
  681SOL    HW1 2722   0.224   0.520   1.640  0.4483  0.4736 -2.5181
  681SOL    HW2 2723   0.272   0.546   1.493  1.7465  0.1679  1.2442
  681SOL     MW 2724   0.257   0.573   1.574 -0.1883 -0.6207 -0.2432
  682SOL     OW 2725   0.156   2.810   1.523  0.6931  0.2983  0.1096
  682SOL    HW1 2726   0.222   2.875   1.545  0.0799  0.1282  1.8812
  682SOL    HW2 2727   0.077   2.850   1.567 -2.3746 -3.1198  2.1211
  682SOL     MW 2728   0.154   2.824   1.531  0.2075 -0.1751  0.6087
  683SOL     OW 2729   2.071   0.827   2.973  0.4321  0.2302  0.0922
  683SOL    HW1 2730   2.010   0.764   3.017  0.0028  1.0081 -0.1625
  683SOL    HW2 2731   2.062   0.918   3.018 -0.2591  3.7871  0.8370
  683SOL     MW 2732   2.062   0.830   2.985  0.2843  0.8021  0.1569
  684SOL     OW 2733   2.208   1.691   0.684 -0.4701  0.2196  0.1260
  684SOL    HW1 2734   2.192   1.703   0.583 -0.0224 -0.0980  0.5460
  684SOL    HW2 2735   2.179   1.600   0.704 -1.3358  0.3902  0.9457
  684SOL     MW 2736   2.202   1.681   0.673 -0.5252  0.2002  0.2896
  685SOL     OW 2737   2.698   1.672   1.219  0.4518 -0.2046 -0.5559
  685SOL    HW1 2738   2.744   1.691   1.304 -0.5505  0.1438 -1.6690
  685SOL    HW2 2739   2.704   1.582   1.204  0.3015  0.2890 -0.3369
  685SOL     MW 2740   2.705   1.663   1.228  0.2998 -0.0935 -0.6738
  686SOL     OW 2741   2.858   0.720   1.455  0.0044  0.3209  0.8489
  686SOL    HW1 2742   2.821   0.650   1.519 -0.8965 -0.9979 -1.4600
  686SOL    HW2 2743   2.945   0.741   1.478 -0.0938  0.5949  0.0820
  686SOL     MW 2744   2.864   0.713   1.467 -0.1274  0.1831  0.4431
  687SOL     OW 2745   2.143   0.174   1.229 -0.1871 -0.6179 -0.0673
  687SOL    HW1 2746   2.206   0.116   1.181 -0.7544 -1.1178  0.0850
  687SOL    HW2 2747   2.112   0.244   1.164  0.5769 -0.7152  0.3784
  687SOL     MW 2748   2.147   0.176   1.214 -0.1611 -0.6967  0.0116
  688SOL     OW 2749   2.395   0.622   1.451 -0.1331 -0.0588 -0.8048
  688SOL    HW1 2750   2.334   0.573   1.395  0.8022  3.0022  0.0531
  688SOL    HW2 2751   2.331   0.673   1.502  0.8177  0.4825 -2.0155
  688SOL     MW 2752   2.379   0.622   1.450  0.1157  0.4165 -0.8514
  689SOL     OW 2753   2.433   0.722   2.913  0.3201  0.1565  0.6769
  689SOL    HW1 2754   2.374   0.797   2.896  0.4255  2.2780  0.1195
  689SOL    HW2 2755   2.480   0.747   2.996 -2.0738 -1.1422  0.5807
  689SOL     MW 2756   2.432   0.735   2.922  0.0181  0.2650  0.5907
  690SOL     OW 2757   2.047   0.911   1.847  0.1038  0.0636 -0.2718
  690SOL    HW1 2758   1.987   0.835   1.843  1.8227  0.9236 -1.2200
  690SOL    HW2 2759   2.057   0.941   1.754 -0.7377  0.3101 -1.7949
  690SOL     MW 2760   2.040   0.905   1.834  0.2196  0.2096 -0.5979
  691SOL     OW 2761   2.383   0.227   0.838  0.6406 -0.2231 -0.0004
  691SOL    HW1 2762   2.452   0.272   0.885 -0.3194  0.4305 -0.4768
  691SOL    HW2 2763   2.303   0.285   0.835  1.8629  2.3094  1.1898
  691SOL     MW 2764   2.381   0.241   0.844  0.6752  0.1973  0.0938
  692SOL     OW 2765   2.922   1.618   1.509  0.3520 -0.6290 -0.2172
  692SOL    HW1 2766   2.932   1.571   1.591  1.8396 -0.5187 -2.4996
  692SOL    HW2 2767   2.919   1.716   1.526  0.0136  1.8359 -0.2562
  692SOL     MW 2768   2.923   1.625   1.522  0.5036 -0.2892 -0.5235
  693SOL     OW 2769   2.252   0.401   0.076 -0.2621  0.3055  0.2381
  693SOL    HW1 2770   2.173   0.354   0.100  0.8297 -0.1580  2.5833
  693SOL    HW2 2771   2.229   0.490   0.051 -0.9872  0.3294  1.3072
  693SOL     MW 2772   2.239   0.407   0.076 -0.2137  0.2475  0.6886
  694SOL     OW 2773   1.933   1.168   1.071 -0.4596 -0.2741 -0.1747
  694SOL    HW1 2774   2.020   1.152   1.121  0.2764 -1.4868  2.7175
  694SOL    HW2 2775   1.868   1.109   1.112  1.5365 -0.8714 -1.9425
  694SOL     MW 2776   1.936   1.158   1.083 -0.0991 -0.5129 -0.0263
  695SOL     OW 2777   2.996   1.435   1.316 -0.6479  0.0557 -0.3273
  695SOL    HW1 2778   2.948   1.451   1.235  0.4886  1.8631 -0.7733
  695SOL    HW2 2779   2.964   1.508   1.381  0.5551 -0.9099  0.3643
  695SOL     MW 2780   2.985   1.447   1.314 -0.3392  0.1668 -0.2949
  696SOL     OW 2781   2.092   1.375   0.767  0.2230  0.7850 -0.2428
  696SOL    HW1 2782   2.136   1.399   0.845  1.5451 -0.2218 -0.8208
  696SOL    HW2 2783   2.032   1.302   0.788 -1.0663 -2.7873  1.3305
  696SOL     MW 2784   2.090   1.369   0.780  0.2274  0.1808 -0.1115
  697SOL     OW 2785   2.874   1.017   2.214  0.4131  0.3120  0.0759
  697SOL    HW1 2786   2.797   1.052   2.175 -1.8727 -1.4345 -0.2814
  697SOL    HW2 2787   2.850   0.927   2.225 -0.6422  1.6933  2.1365
  697SOL     MW 2788   2.861   1.010   2.210 -0.0277  0.2638  0.3006
  698SOL     OW 2789   2.533   0.328   0.028  0.2899  0.0749 -0.0105
  698SOL    HW1 2790   2.451   0.374   0.056 -1.1472 -0.8335 -3.8850
  698SOL    HW2 2791   2.578   0.309   0.105 -0.8697 -0.4911 -2.2550
  698SOL     MW 2792   2.528   0.331   0.042 -0.0527 -0.1197 -0.8179
  699SOL     OW 2793   1.889   1.625   2.042  0.8370 -0.1517 -0.0634
  699SOL    HW1 2794   1.855   1.534   2.033 -0.4531  3.6844 -1.0258
  699SOL    HW2 2795   1.983   1.599   2.021 -0.1754  0.3825  2.5251
  699SOL     MW 2796   1.897   1.610   2.038  0.5332  0.4249  0.1511
  700SOL     OW 2797   2.724   0.919   1.599 -0.3730  0.0421  0.2728
  700SOL    HW1 2798   2.742   0.996   1.547 -0.5825 -2.9928  1.0108
  700SOL    HW2 2799   2.780   0.856   1.552 -0.3073  0.4909 -1.5888
  700SOL     MW 2800   2.734   0.921   1.586 -0.3920 -0.2991  0.1245
  701SOL     OW 2801   1.698   1.173   2.482 -0.1000  0.3769 -0.0775
  701SOL    HW1 2802   1.789   1.167   2.507  1.0308 -0.6156  1.8760
  701SOL    HW2 2803   1.677   1.252   2.543 -1.4164 -1.1611  0.1682
  701SOL     MW 2804   1.707   1.183   2.494 -0.1245  0.0430  0.2126
  702SOL     OW 2805   2.145   0.397   0.831 -0.0214  0.3770  0.2275
  702SOL    HW1 2806   2.105   0.326   0.786  0.5378  1.7130  0.1828
  702SOL    HW2 2807   2.207   0.441   0.772  0.9014  0.3071 -0.0299
  702SOL     MW 2808   2.148   0.393   0.817  0.1742  0.5441  0.1876
  703SOL     OW 2809   2.691   1.246   1.045  0.2681 -0.1533 -0.1476
  703SOL    HW1 2810   2.638   1.232   0.970 -1.6834 -0.4535  1.9740
  703SOL    HW2 2811   2.686   1.160   1.092  1.6880 -3.1866 -0.1134
  703SOL     MW 2812   2.683   1.233   1.042  0.1980 -0.5931  0.1369
  704SOL     OW 2813   3.083   1.225   0.145 -0.6239  0.2478 -0.4872
  704SOL    HW1 2814   2.997   1.229   0.104  1.2053  1.5205 -0.9465
  704SOL    HW2 2815   3.078   1.233   0.238 -0.6432  3.2293 -0.2256
  704SOL     MW 2816   3.071   1.227   0.152 -0.3851  0.8091 -0.5133
  705SOL     OW 2817   2.195   1.641   1.296 -0.0489 -0.2977  0.6476
  705SOL    HW1 2818   2.123   1.691   1.330 -1.3485 -1.1247  0.9943
  705SOL    HW2 2819   2.186   1.550   1.323 -1.8542 -0.0191 -1.3906
  705SOL     MW 2820   2.185   1.636   1.304 -0.4586 -0.3701  0.4244
  706SOL     OW 2821   2.948   1.262   0.638 -0.5424  0.3245  0.2823
  706SOL    HW1 2822   3.000   1.252   0.563 -0.3859 -1.7776 -1.1875
  706SOL    HW2 2823   2.925   1.357   0.652 -1.6046  0.2966 -0.4374
  706SOL     MW 2824   2.952   1.273   0.630 -0.6619  0.0435 -0.0066
  707SOL     OW 2825   2.317   0.041   1.023  0.1265  0.2907  0.0648
  707SOL    HW1 2826   2.335   0.115   0.961  1.8303 -4.7315 -2.0877
  707SOL    HW2 2827   2.250  -0.006   0.979  2.4142 -1.3499 -0.1598
  707SOL     MW 2828   2.310   0.044   1.009  0.6531 -0.5884 -0.2488
  708SOL     OW 2829   2.417   1.442   0.186  0.4616 -0.6929 -0.2861
  708SOL    HW1 2830   2.497   1.390   0.204  2.0002  0.8387 -2.2130
  708SOL    HW2 2831   2.417   1.453   0.088  0.7344 -1.3445 -0.9445
  708SOL     MW 2832   2.427   1.437   0.175  0.7006 -0.5768 -0.6272
  709SOL     OW 2833   1.766   1.652   0.205  0.1881  0.3268  0.1011
  709SOL    HW1 2834   1.760   1.643   0.106 -0.7781  0.8882 -0.5577
  709SOL    HW2 2835   1.679   1.656   0.245 -1.2835 -1.7678 -0.4194
  709SOL     MW 2836   1.754   1.651   0.197 -0.1335  0.1245 -0.0545
  710SOL     OW 2837   2.174   1.119   1.194 -0.0474 -0.1037  0.3217
  710SOL    HW1 2838   2.218   1.093   1.105  3.8764  1.5159  1.2928
  710SOL    HW2 2839   2.171   1.042   1.250  1.9899 -1.2706  1.1066
  710SOL     MW 2840   2.179   1.105   1.190  0.7391 -0.0439  0.5534
  711SOL     OW 2841   2.326   0.094   1.767  0.4991 -0.3401 -0.2193
  711SOL    HW1 2842   2.422   0.106   1.798  1.3731  0.8084  1.3458
  711SOL    HW2 2843   2.326   0.126   1.674 -1.9290  0.2690  1.7276
  711SOL     MW 2844   2.338   0.100   1.759  0.2941 -0.1082  0.2441
  712SOL     OW 2845   1.924   0.633   3.090  0.6808 -0.4323 -0.0265
  712SOL    HW1 2846   1.834   0.657   3.055  0.0009  1.5567 -2.0843
  712SOL    HW2 2847   1.929   0.668   3.176  0.3139  0.5384 -1.6678
  712SOL     MW 2848   1.913   0.641   3.097  0.5427 -0.0418 -0.5145
  713SOL     OW 2849   2.534   0.745   1.088  0.5340 -0.4066 -0.4236
  713SOL    HW1 2850   2.542   0.675   1.151  3.2883  1.1590  3.0601
  713SOL    HW2 2851   2.448   0.779   1.107  0.4525  2.7789  1.5930
  713SOL     MW 2852   2.524   0.740   1.099  0.8866  0.2202  0.3021
  714SOL     OW 2853   2.197   0.148   1.990 -0.3140 -0.2791  0.3754
  714SOL    HW1 2854   2.271   0.103   2.041  1.9888  1.6720 -0.3072
  714SOL    HW2 2855   2.229   0.152   1.895  2.0485 -0.5932  0.7226
  714SOL     MW 2856   2.211   0.143   1.984  0.3015 -0.0631  0.3312
  715SOL     OW 2857   1.838   2.021   1.742 -0.0098  0.1896  0.2452
  715SOL    HW1 2858   1.928   2.062   1.723  1.2559  0.1297  0.7121
  715SOL    HW2 2859   1.850   1.941   1.799  0.0396 -0.6163  0.0317
  715SOL     MW 2860   1.851   2.016   1.747  0.1637  0.0754  0.2786
  716SOL     OW 2861   2.338   0.561   0.695  0.9358  0.0681  0.2528
  716SOL    HW1 2862   2.390   0.493   0.655  1.6387 -0.4891  0.4738
  716SOL    HW2 2863   2.283   0.606   0.632 -1.0155  1.1008  1.0966
  716SOL     MW 2864   2.338   0.558   0.681  0.7711  0.1308  0.3933
  717SOL     OW 2865   2.839   1.615   2.881 -0.4305  0.8621 -0.0971
  717SOL    HW1 2866   2.930   1.610   2.921 -2.9127  0.8241  3.0062
  717SOL    HW2 2867   2.800   1.690   2.931  0.1379  2.5724 -0.1922
  717SOL     MW 2868   2.846   1.624   2.893 -0.6830  1.0828  0.2998
  718SOL     OW 2869   2.680   1.424   1.351  0.3150 -0.2606 -0.4061
  718SOL    HW1 2870   2.665   1.448   1.443  2.4343  1.5196  0.4336
  718SOL    HW2 2871   2.731   1.344   1.360 -1.3566  0.1880 -0.6250
  718SOL     MW 2872   2.684   1.417   1.364  0.3741  0.0335 -0.3242
  719SOL     OW 2873   2.184   1.262   0.546 -0.7075  0.3099 -0.0551
  719SOL    HW1 2874   2.281   1.286   0.525  0.9219  0.5233 -1.1224
  719SOL    HW2 2875   2.162   1.299   0.635  0.1475 -0.8083  1.0077
  719SOL     MW 2876   2.194   1.270   0.555 -0.3797  0.1906 -0.0557
  720SOL     OW 2877   2.807   1.210   0.046 -0.4908 -0.3394  0.1740
  720SOL    HW1 2878   2.787   1.123   0.077 -2.6716 -0.6653 -0.7031
  720SOL    HW2 2879   2.762   1.268   0.111 -0.4509  0.7787  0.7984
  720SOL     MW 2880   2.798   1.206   0.059 -0.7733 -0.2349  0.1407
  721SOL     OW 2881   2.477   0.892   1.401 -0.1271 -0.1833  0.0464
  721SOL    HW1 2882   2.467   0.796   1.401  0.8481  0.7241  4.3843
  721SOL    HW2 2883   2.549   0.915   1.463 -0.7832  1.2659  0.1068
  721SOL     MW 2884   2.485   0.882   1.409 -0.0850  0.1276  0.6267
  722SOL     OW 2885   2.594   1.106   0.403  0.4190  0.3780 -0.3684
  722SOL    HW1 2886   2.512   1.162   0.431 -3.1374  2.9325  0.1993
  722SOL    HW2 2887   2.638   1.090   0.487  0.2240 -1.3999  1.3212
  722SOL     MW 2888   2.589   1.111   0.418 -0.0759  0.4805 -0.0706
  723SOL     OW 2889   2.320   1.390   1.575  0.3059 -0.5460  0.3054
  723SOL    HW1 2890   2.297   1.391   1.479  1.1997  2.4256 -1.4948
  723SOL    HW2 2891   2.241   1.412   1.633 -0.5224  0.3538 -0.0412
  723SOL     MW 2892   2.307   1.393   1.570  0.3145 -0.0352  0.0222
  724SOL     OW 2893   2.455   0.368   0.563 -0.3627 -0.5598 -0.0538
  724SOL    HW1 2894   2.470   0.292   0.619  2.3901 -1.2223  0.5233
  724SOL    HW2 2895   2.543   0.412   0.569 -0.6252  3.3190  0.6886
  724SOL     MW 2896   2.468   0.364   0.571 -0.0341 -0.1354  0.1203
  725SOL     OW 2897   2.582   0.471   1.197 -0.2272 -0.7806  0.3243
  725SOL    HW1 2898   2.669   0.502   1.223  0.2876 -1.4074  2.3679
  725SOL    HW2 2899   2.550   0.414   1.269  0.7167 -2.8109  1.0811
  725SOL     MW 2900   2.590   0.468   1.210 -0.0347 -1.1312  0.6938
  726SOL     OW 2901   2.553   2.514   0.529 -0.9149  0.2586 -0.3383
  726SOL    HW1 2902   2.510   2.590   0.483 -2.9093 -2.8303 -0.6120
  726SOL    HW2 2903   2.523   2.501   0.617 -1.5868 -2.0804 -1.8226
  726SOL     MW 2904   2.544   2.522   0.534 -1.2667 -0.4576 -0.5702
  727SOL     OW 2905   2.860   0.349   1.784 -0.1761  0.3556  0.0900
  727SOL    HW1 2906   2.808   0.293   1.722  3.1750 -0.5498  0.4861
  727SOL    HW2 2907   2.803   0.353   1.868 -2.2859  0.6607 -0.8350
  727SOL     MW 2908   2.846   0.342   1.787 -0.0124  0.2764  0.0202
  728SOL     OW 2909   2.816   1.132   2.877  0.6332  0.3748  0.1272
  728SOL    HW1 2910   2.818   1.202   2.808 -0.1761 -1.0083 -0.6434
  728SOL    HW2 2911   2.809   1.171   2.961  1.0906 -2.1114 -0.1323
  728SOL     MW 2912   2.815   1.147   2.879  0.5868 -0.1357 -0.0087
  729SOL     OW 2913   2.449   1.447   1.190 -1.3072 -0.0328 -0.1718
  729SOL    HW1 2914   2.535   1.446   1.236 -0.3992  1.6154 -2.4398
  729SOL    HW2 2915   2.468   1.442   1.097 -1.4018 -1.0134  0.1278
  729SOL     MW 2916   2.463   1.446   1.184 -1.1999  0.0553 -0.4315
  730SOL     OW 2917   2.291   1.177   0.268 -0.1433  0.2911  0.6443
  730SOL    HW1 2918   2.362   1.142   0.225  0.2324  1.5020  0.6246
  730SOL    HW2 2919   2.286   1.266   0.235 -5.0721 -0.5594 -0.7170
  730SOL     MW 2920   2.300   1.184   0.258 -0.7440  0.3386  0.4621
  731SOL     OW 2921   2.805   2.057   2.918  0.0615  0.3564 -0.2636
  731SOL    HW1 2922   2.752   2.037   2.843 -0.4832 -1.5172 -0.6367
  731SOL    HW2 2923   2.886   2.082   2.882 -0.3177  1.4338  1.7503
  731SOL     MW 2924   2.809   2.058   2.903 -0.0604  0.2514 -0.0471
  732SOL     OW 2925   2.213   0.878   1.348 -0.2162  0.1878  0.1960
  732SOL    HW1 2926   2.163   0.890   1.429  0.5550  0.9181 -0.9443
  732SOL    HW2 2927   2.315   0.886   1.369  0.1938 -1.8419 -1.8150
  732SOL     MW 2928   2.220   0.881   1.361 -0.0604  0.0163 -0.2198
  733SOL     OW 2929   2.391   2.825   3.004  0.4140 -0.0966 -0.7525
  733SOL    HW1 2930   2.300   2.858   2.995  0.2094  0.7652  1.4601
  733SOL    HW2 2931   2.370   2.734   2.977 -0.5798  1.6516 -0.2258
  733SOL     MW 2932   2.376   2.818   2.999  0.2559  0.2478 -0.3911
  734SOL     OW 2933   1.459   0.294   2.451  0.3658  0.1481  0.5814
  734SOL    HW1 2934   1.437   0.255   2.533  2.2037 -1.1415  0.9333
  734SOL    HW2 2935   1.503   0.225   2.396  1.2212  0.5302  1.6678
  734SOL     MW 2936   1.462   0.280   2.454  0.7211  0.0284  0.7711
  735SOL     OW 2937   2.915   0.880   2.618 -0.1241  0.2765 -0.1058
  735SOL    HW1 2938   2.897   0.786   2.628 -0.7752  1.5314  3.0686
  735SOL    HW2 2939   2.944   0.893   2.706 -0.0340 -1.9588 -1.1970
  735SOL     MW 2940   2.916   0.869   2.631 -0.1981  0.1471  0.1690
  736SOL     OW 2941   0.088   0.634   2.550 -0.3512 -0.4765 -0.0681
  736SOL    HW1 2942   0.110   0.700   2.484 -1.4565  1.0053  2.1315
  736SOL    HW2 2943   0.095   0.554   2.501 -1.6631  1.2308  1.4167
  736SOL     MW 2944   0.092   0.632   2.535 -0.6702 -0.0558  0.4180
  737SOL     OW 2945   2.935   0.597   2.635  0.5344  0.2094  0.5874
  737SOL    HW1 2946   2.862   0.588   2.574  1.0932 -0.7457 -1.1913
  737SOL    HW2 2947   3.016   0.611   2.583  0.1078 -2.6329 -0.6616
  737SOL     MW 2948   2.936   0.598   2.620  0.5518 -0.2917  0.1880
  738SOL     OW 2949   0.202   0.595   1.958  0.0993 -0.7538 -0.4388
  738SOL    HW1 2950   0.292   0.598   1.929 -0.4730  2.1245 -1.6922
  738SOL    HW2 2951   0.170   0.525   1.900  0.2793  0.5345 -2.4942
  738SOL     MW 2952   0.210   0.586   1.946  0.0475 -0.2041 -0.8753
  739SOL     OW 2953   2.493   0.989   2.053 -0.3079  0.2928  0.4989
  739SOL    HW1 2954   2.445   0.905   2.044 -2.1735 -2.4571  0.9312
  739SOL    HW2 2955   2.510   1.018   1.967 -0.5919  1.9395  2.9538
  739SOL     MW 2956   2.489   0.981   2.041 -0.5916  0.1472  0.8799
  740SOL     OW 2957   0.211   1.743   2.937 -0.5206  0.1023 -0.4393
  740SOL    HW1 2958   0.179   1.656   2.958  0.0503 -2.8529 -1.1858
  740SOL    HW2 2959   0.307   1.745   2.955 -0.2398  0.7639 -0.0471
  740SOL     MW 2960   0.219   1.732   2.942 -0.4082 -0.2003 -0.4860
  741SOL     OW 2961   2.208   1.189   2.697 -0.4568  1.1158 -0.5719
  741SOL    HW1 2962   2.158   1.239   2.633  2.7921  3.8667 -0.4914
  741SOL    HW2 2963   2.187   1.207   2.790 -1.6179 -2.6956 -0.1879
  741SOL     MW 2964   2.199   1.198   2.701 -0.1813  0.9759 -0.5106
  742SOL     OW 2965   1.629   1.248   2.207  0.7675 -0.0036  0.3789
  742SOL    HW1 2966   1.549   1.200   2.190 -0.1670 -0.9712 -0.2977
  742SOL    HW2 2967   1.647   1.225   2.300  1.5147  0.1619  0.5184
  742SOL     MW 2968   1.621   1.238   2.217  0.7428 -0.1094  0.3080
  743SOL     OW 2969   2.447   1.320   2.724 -0.0271 -0.6642  0.0636
  743SOL    HW1 2970   2.369   1.275   2.685 -2.1911 -2.7412  0.0673
  743SOL    HW2 2971   2.493   1.244   2.747 -2.4282  3.3064 -0.6486
  743SOL     MW 2972   2.443   1.304   2.722 -0.6294 -0.4143 -0.0299
  744SOL     OW 2973   2.744   0.923   1.887 -0.0493 -0.0357  0.1672
  744SOL    HW1 2974   2.702   1.010   1.861 -1.1289  1.3556  2.0795
  744SOL    HW2 2975   2.731   0.879   1.801 -1.8765 -1.0039  0.0180
  744SOL     MW 2976   2.736   0.928   1.872 -0.4328  0.0202  0.3998
  745SOL     OW 2977   1.741   0.427   2.497  0.2163 -0.4172 -0.0226
  745SOL    HW1 2978   1.726   0.442   2.400  0.3420  2.9333  1.0678
  745SOL    HW2 2979   1.666   0.372   2.517 -0.0675 -0.6054 -0.4034
  745SOL     MW 2980   1.729   0.422   2.487  0.1954  0.0000  0.0710
  746SOL     OW 2981   1.584   1.494   1.643  0.2955 -0.6202  0.1146
  746SOL    HW1 2982   1.676   1.515   1.642 -2.4842  1.2238  4.2355
  746SOL    HW2 2983   1.572   1.436   1.720  2.0049  0.2565  1.6955
  746SOL     MW 2984   1.595   1.489   1.653  0.1543 -0.2612  0.8669
  747SOL     OW 2985   2.554   1.149   1.801  0.1902 -0.3594 -0.8573
  747SOL    HW1 2986   2.461   1.123   1.792 -1.2102 -1.0001  2.0317
  747SOL    HW2 2987   2.565   1.227   1.863  0.3052  1.5189 -1.0658
  747SOL     MW 2988   2.543   1.156   1.808  0.0206 -0.1961 -0.5037
  748SOL     OW 2989   0.101   0.039   1.862  0.1727 -0.0501  0.5810
  748SOL    HW1 2990   0.191   0.069   1.844  2.4540 -2.1383 -0.0462
  748SOL    HW2 2991   0.079   0.075   1.947 -0.0663  1.5766  1.3470
  748SOL     MW 2992   0.110   0.048   1.871  0.4422 -0.1110  0.5993
  749SOL     OW 2993   2.498   0.545   2.718 -0.1995  0.4231  0.0559
  749SOL    HW1 2994   2.518   0.626   2.669  1.3236  1.5226  1.5226
  749SOL    HW2 2995   2.470   0.593   2.801 -1.2569  0.5615  0.8877
  749SOL     MW 2996   2.497   0.562   2.722 -0.1380  0.5864  0.3591
  750SOL     OW 2997   2.033   3.022   1.989  0.2983 -0.0066 -0.3094
  750SOL    HW1 2998   2.085   3.108   1.981 -0.1557 -0.2038 -0.1485
  750SOL    HW2 2999   2.108   2.959   1.990  1.9404 -1.1998  0.7716
  750SOL     MW 3000   2.050   3.025   1.988  0.4551 -0.1901 -0.1455
  751SOL     OW 3001   0.079   0.416   2.340 -0.3374  0.1432  0.6722
  751SOL    HW1 3002   0.060   0.343   2.393 -1.8537  1.1495 -0.1332
  751SOL    HW2 3003   0.148   0.382   2.278 -2.3908 -0.1512 -1.3930
  751SOL     MW 3004   0.085   0.402   2.339 -0.8084  0.2372  0.2934
  752SOL     OW 3005   2.141   0.770   2.706 -0.0975  0.0379  0.2977
  752SOL    HW1 3006   2.193   0.839   2.666  0.1161 -0.1513  1.6659
  752SOL    HW2 3007   2.107   0.795   2.793 -0.1288 -2.0241  0.8048
  752SOL     MW 3008   2.143   0.782   2.712 -0.0734 -0.2591  0.5452
  753SOL     OW 3009   2.926   0.272   2.444 -0.0422 -0.0311  0.4327
  753SOL    HW1 3010   2.888   0.199   2.407 -0.5364  2.3843  0.2735
  753SOL    HW2 3011   2.870   0.348   2.453  0.8336 -0.2852 -0.5632
  753SOL     MW 3012   2.913   0.272   2.441  0.0081  0.2540  0.2803
  754SOL     OW 3013   2.257   2.952   2.592 -0.5562  0.4393 -0.2768
  754SOL    HW1 3014   2.264   2.929   2.503  2.4790 -0.3643  2.3171
  754SOL    HW2 3015   2.333   2.911   2.634  0.9994 -3.2456 -0.8206
  754SOL     MW 3016   2.268   2.943   2.586  0.0495 -0.1529 -0.0063
  755SOL     OW 3017   2.729   1.516   2.503  0.1870  0.4883  0.3662
  755SOL    HW1 3018   2.721   1.430   2.547  0.9048  1.5622 -2.7726
  755SOL    HW2 3019   2.803   1.565   2.546 -1.1519  2.2862  0.0504
  755SOL     MW 3020   2.738   1.511   2.514  0.1051  0.8672 -0.0896
  756SOL     OW 3021   2.224   1.223   3.014 -0.4078 -0.3234 -0.0392
  756SOL    HW1 3022   2.265   1.308   2.991  1.5567 -0.6935 -1.8246
  756SOL    HW2 3023   2.287   1.152   3.001  1.0752 -2.0236  0.2683
  756SOL     MW 3024   2.238   1.225   3.009  0.0470 -0.5966 -0.2342
  757SOL     OW 3025   2.112   0.934   1.588  0.8486  0.1416 -0.7121
  757SOL    HW1 3026   2.125   0.839   1.606 -0.8425  0.6369  0.7076
  757SOL    HW2 3027   2.016   0.935   1.563  0.9817  0.1596 -1.4050
  757SOL     MW 3028   2.101   0.921   1.587  0.6431  0.2094 -0.6162
  758SOL     OW 3029   2.209   1.713   2.658  0.5201  0.2813 -0.0807
  758SOL    HW1 3030   2.176   1.755   2.581 -3.0931  0.6640  0.1789
  758SOL    HW2 3031   2.304   1.708   2.667 -0.1084  1.5425  0.4514
  758SOL     MW 3032   2.217   1.718   2.649 -0.0395  0.4982  0.0237
  759SOL     OW 3033   1.627   1.375   2.649 -0.1567 -0.4832  0.2100
  759SOL    HW1 3034   1.590   1.460   2.632  1.8922  0.2729 -0.0422
  759SOL    HW2 3035   1.687   1.383   2.724  0.1805 -2.3976  0.5866
  759SOL     MW 3036   1.630   1.387   2.657  0.1581 -0.6360  0.2264
  760SOL     OW 3037   2.622   1.992   2.714  0.0219 -0.2289  0.5802
  760SOL    HW1 3038   2.593   1.904   2.693 -0.6405  0.0155 -2.6406
  760SOL    HW2 3039   2.592   2.043   2.635  0.3166 -0.2237 -2.7718
  760SOL     MW 3040   2.614   1.987   2.701 -0.0266 -0.1959 -0.2870
  761SOL     OW 3041   2.195   0.384   2.444 -0.3558 -0.5369 -0.1504
  761SOL    HW1 3042   2.121   0.335   2.477  0.5923 -1.4742  1.1535
  761SOL    HW2 3043   2.208   0.437   2.522  1.9820 -1.2605  0.7356
  761SOL     MW 3044   2.187   0.385   2.459  0.0778 -0.7560  0.1385
  762SOL     OW 3045   0.029   0.176   2.098  0.4348 -0.0087 -0.2958
  762SOL    HW1 3046  -0.000   0.117   2.163 -0.4616  1.5336  1.7985
  762SOL    HW2 3047  -0.021   0.258   2.100  1.0158  2.0771  4.6992
  762SOL     MW 3048   0.018   0.179   2.107  0.3932  0.4700  0.6396
  763SOL     OW 3049   2.373   1.063   2.302 -0.1555 -0.2322 -0.0702
  763SOL    HW1 3050   2.410   1.046   2.211  1.7807 -3.5012 -1.0582
  763SOL    HW2 3051   2.428   1.140   2.337  0.8151 -0.8196 -0.9570
  763SOL     MW 3052   2.385   1.071   2.295  0.2280 -0.7410 -0.3175
  764SOL     OW 3053   0.443   0.288   2.784  0.0394 -0.4040 -0.3801
  764SOL    HW1 3054   0.367   0.240   2.783  1.9224  0.0346  1.5358
  764SOL    HW2 3055   0.424   0.369   2.836 -0.3694 -1.7267  0.0608
  764SOL     MW 3056   0.430   0.292   2.791  0.2339 -0.5206 -0.0692
  765SOL     OW 3057   2.767   0.072   2.316 -0.0581 -0.9683  0.0276
  765SOL    HW1 3058   2.718   0.061   2.230 -0.8630  1.1666 -0.0796
  765SOL    HW2 3059   2.808  -0.009   2.343 -0.2168  1.4627  0.3526
  765SOL     MW 3060   2.766   0.060   2.308 -0.1852 -0.3659  0.0563
  766SOL     OW 3061   1.813   2.977   2.174  0.3149  0.1894 -0.0289
  766SOL    HW1 3062   1.858   3.002   2.095  0.1673 -0.7341  0.7236
  766SOL    HW2 3063   1.761   2.891   2.148 -0.1208 -2.2184 -0.4865
  766SOL     MW 3064   1.812   2.969   2.160  0.2380 -0.2501  0.0100
  767SOL     OW 3065   2.649   0.627   1.899 -0.1532 -0.5275  0.0594
  767SOL    HW1 3066   2.662   0.674   1.979  2.4141  0.5138 -1.4636
  767SOL    HW2 3067   2.555   0.624   1.887 -0.1603 -0.5840  0.3058
  767SOL     MW 3068   2.638   0.632   1.908  0.1846 -0.3976 -0.1091
  768SOL     OW 3069  -0.003   1.550   2.949  0.1511  0.1306  0.1264
  768SOL    HW1 3070   0.038   1.535   3.040  0.4162  1.8220  4.0758
  768SOL    HW2 3071   0.026   1.467   2.904 -0.4636  1.0025  0.5839
  768SOL     MW 3072   0.006   1.537   2.955  0.1049  0.4688  0.7078
  769SOL     OW 3073   2.430   0.658   2.330  0.4349 -0.3593 -0.3635
  769SOL    HW1 3074   2.339   0.660   2.300  3.7987  0.7392  0.1509
  769SOL    HW2 3075   2.473   0.584   2.291 -0.6192  1.0763  2.2996
  769SOL     MW 3076   2.424   0.649   2.321  0.7396 -0.0250  0.0557
  770SOL     OW 3077   0.109   1.599   2.603  0.2644  0.0016 -0.0344
  770SOL    HW1 3078   0.012   1.613   2.626  0.6351  1.4920  1.6827
  770SOL    HW2 3079   0.125   1.516   2.648  0.7000  1.6028 -0.3699
  770SOL     MW 3080   0.098   1.590   2.612  0.3708  0.4095  0.1479
  771SOL     OW 3081   2.999   0.632   1.952  1.2255  0.2131  0.6263
  771SOL    HW1 3082   2.965   0.641   1.860  0.7109  0.9664  2.2602
  771SOL    HW2 3083   3.085   0.678   1.947  0.2304  1.0418  1.0828
  771SOL     MW 3084   3.006   0.639   1.939  1.0263  0.4218  0.9021
  772SOL     OW 3085   3.089   3.099   2.311 -0.3801  0.2437  0.6021
  772SOL    HW1 3086   3.039   3.026   2.347 -2.3908  0.0853 -1.0131
  772SOL    HW2 3087   3.164   3.050   2.275 -0.5920  0.7199  3.3116
  772SOL     MW 3088   3.092   3.083   2.311 -0.6733  0.2856  0.7465
  773SOL     OW 3089   2.467   2.847   2.736  0.1701 -0.2596  0.6013
  773SOL    HW1 3090   2.479   2.756   2.701  0.3071  1.1712 -1.0067
  773SOL    HW2 3091   2.440   2.845   2.827 -0.6291  0.0252  0.5552
  773SOL     MW 3092   2.465   2.835   2.743  0.0828 -0.0332  0.3830
  774SOL     OW 3093   2.302   1.118   1.709  0.7287  0.0909  0.0940
  774SOL    HW1 3094   2.300   1.179   1.633  0.8905  0.6000 -0.9360
  774SOL    HW2 3095   2.262   1.031   1.676  2.1994 -0.9472  1.9529
  774SOL     MW 3096   2.296   1.115   1.695  0.9441  0.0211  0.2034
  775SOL     OW 3097   2.274   2.914   2.326 -0.2102 -0.1361 -0.2403
  775SOL    HW1 3098   2.305   2.999   2.291 -1.5999  1.0787 -2.7382
  775SOL    HW2 3099   2.349   2.851   2.316  0.3412 -3.4888  0.7952
  775SOL     MW 3100   2.288   2.917   2.320 -0.3208 -0.4182 -0.4333
  776SOL     OW 3101   0.091   1.489   0.093  0.5048 -0.0812 -0.7261
  776SOL    HW1 3102   0.169   1.444   0.079 -0.3171  1.6381  2.4907
  776SOL    HW2 3103   0.034   1.411   0.100 -0.5023 -1.4890  4.2989
  776SOL     MW 3104   0.094   1.473   0.092  0.2635 -0.0401  0.3613
  777SOL     OW 3105   2.960   1.075   1.772 -0.1901  0.1980  0.0515
  777SOL    HW1 3106   2.900   1.146   1.790  0.4826 -0.2490  0.4281
  777SOL    HW2 3107   2.917   1.001   1.802  1.5044  1.4742  0.6889
  777SOL     MW 3108   2.946   1.074   1.779  0.1223  0.3074  0.1853
  778SOL     OW 3109   2.907   0.400   2.818 -0.0604 -0.1229  0.5050
  778SOL    HW1 3110   2.837   0.425   2.877  0.5535  0.1377  2.2547
  778SOL    HW2 3111   2.908   0.475   2.755  1.8836 -1.2048  1.3580
  778SOL     MW 3112   2.898   0.414   2.818  0.2771 -0.2313  0.8484
  779SOL     OW 3113   2.138   0.614   2.336  0.1519 -0.2859  0.2113
  779SOL    HW1 3114   2.053   0.638   2.392  2.3865  0.7746  2.4115
  779SOL    HW2 3115   2.157   0.531   2.376  0.6837 -2.5164 -0.6627
  779SOL     MW 3116   2.129   0.606   2.349  0.5169 -0.4403  0.3863
  780SOL     OW 3117   0.232   0.088   2.796 -0.1999 -0.0233 -0.4905
  780SOL    HW1 3118   0.183   0.154   2.848 -0.7672  0.4623  0.3085
  780SOL    HW2 3119   0.166   0.054   2.734  2.9893 -0.8715 -1.5121
  780SOL     MW 3120   0.217   0.092   2.794  0.1460 -0.0712 -0.5199
  781SOL     OW 3121   3.009   1.301   2.492  0.3464 -0.1883 -0.1474
  781SOL    HW1 3122   3.001   1.351   2.414  0.9033 -0.7452 -0.5827
  781SOL    HW2 3123   3.033   1.214   2.469  2.3756  0.7574 -0.7688
  781SOL     MW 3124   3.011   1.296   2.478  0.6876 -0.1370 -0.2868
  782SOL     OW 3125   0.597   1.510   3.064 -0.2736 -0.0207 -0.2171
  782SOL    HW1 3126   0.536   1.579   3.042 -2.2885  2.1654 -0.6486
  782SOL    HW2 3127   0.585   1.498   3.160 -1.8401  1.0205 -2.6259
  782SOL     MW 3128   0.587   1.517   3.074 -0.7461  0.4051 -0.5919
  783SOL     OW 3129   2.728   0.506   2.460  0.7832 -0.0132 -0.0788
  783SOL    HW1 3130   2.683   0.471   2.380  0.7447 -0.9403 -0.1614
  783SOL    HW2 3131   2.713   0.447   2.535 -0.4859  0.4991 -0.7236
  783SOL     MW 3132   2.720   0.493   2.459  0.6106 -0.0679 -0.1747
  784SOL     OW 3133   0.285   0.919   2.887  0.3207  0.4896  0.3369
  784SOL    HW1 3134   0.245   0.994   2.937  2.7550 -1.1665 -0.5514
  784SOL    HW2 3135   0.330   0.956   2.809  1.7377 -0.2292 -4.5149
  784SOL     MW 3136   0.285   0.934   2.883  0.8289  0.1762 -0.4204
  785SOL     OW 3137   0.440   0.559   2.174 -0.0488 -0.4761  0.0879
  785SOL    HW1 3138   0.441   0.572   2.073  0.6593  3.5298 -0.2145
  785SOL    HW2 3139   0.378   0.483   2.193 -4.5290  2.2560  1.3791
  785SOL     MW 3140   0.432   0.551   2.163 -0.5465  0.4129  0.2184
  786SOL     OW 3141   1.968   0.469   2.829  0.8174 -0.1752 -0.3800
  786SOL    HW1 3142   1.975   0.524   2.913 -0.1090 -0.4341 -0.0524
  786SOL    HW2 3143   2.050   0.434   2.826  1.8808  0.1272  1.4341
  786SOL     MW 3144   1.979   0.472   2.840  0.8355 -0.1695 -0.0974
  787SOL     OW 3145   2.432   0.150   2.958 -0.1193 -0.1110 -0.9101
  787SOL    HW1 3146   2.503   0.108   2.907  2.7270  1.2090  0.8999
  787SOL    HW2 3147   2.474   0.210   3.018  2.0930 -1.1533 -2.3851
  787SOL     MW 3148   2.447   0.152   2.959  0.5481 -0.0744 -0.8659
  788SOL     OW 3149   2.855   2.922   2.382  0.2284 -0.3333 -0.1468
  788SOL    HW1 3150   2.799   2.889   2.309 -1.5915 -2.0067 -2.3020
  788SOL    HW2 3151   2.924   2.863   2.400  1.0063  0.0201 -0.2549
  788SOL     MW 3152   2.857   2.910   2.375  0.0909 -0.5075 -0.4454
  789SOL     OW 3153   0.123   0.271   2.943 -0.2974 -0.3756  0.1394
  789SOL    HW1 3154   0.063   0.245   3.011  1.6284  0.8121 -0.2773
  789SOL    HW2 3155   0.112   0.369   2.952  1.8875  1.7073 -0.1613
  789SOL     MW 3156   0.113   0.280   2.953  0.2449  0.0559  0.0447
  790SOL     OW 3157   3.065   1.021   2.416 -0.4366  0.2439 -0.4115
  790SOL    HW1 3158   3.020   0.978   2.493 -0.4511  1.0877  2.0627
  790SOL    HW2 3159   2.996   1.043   2.352  4.2575  1.3881 -0.0117
  790SOL     MW 3160   3.050   1.018   2.418  0.1808  0.5062 -0.0323
  791SOL     OW 3161   2.695   0.328   2.661 -0.5560  0.4391  0.3185
  791SOL    HW1 3162   2.621   0.383   2.698 -2.6492  0.1254  1.3252
  791SOL    HW2 3163   2.775   0.341   2.714  0.7383  1.6010  0.4055
  791SOL     MW 3164   2.696   0.337   2.673 -0.6614  0.5510  0.4628
  792SOL     OW 3165   2.395   0.226   2.343  0.0410  0.1561 -0.4744
  792SOL    HW1 3166   2.330   0.266   2.399 -1.3104 -1.9111 -1.2034
  792SOL    HW2 3167   2.452   0.184   2.403  1.0985 -1.0974  1.6335
  792SOL     MW 3168   2.394   0.226   2.359  0.0022 -0.2820 -0.2925
  793SOL     OW 3169   1.846   1.062   1.949 -0.5046 -0.1649 -0.2094
  793SOL    HW1 3170   1.826   1.085   1.856  3.3194 -0.4375 -3.8667
  793SOL    HW2 3171   1.925   1.007   1.939 -3.1892  1.3118  4.2781
  793SOL     MW 3172   1.854   1.058   1.935 -0.3543 -0.0060 -0.0999
  794SOL     OW 3173   1.454   2.260   0.175  0.0038 -0.4345 -0.0924
  794SOL    HW1 3174   1.489   2.336   0.120 -1.3039 -1.1141 -2.8510
  794SOL    HW2 3175   1.487   2.272   0.266 -0.6129 -0.6320  0.6059
  794SOL     MW 3176   1.463   2.272   0.180 -0.2501 -0.5502 -0.3643
  795SOL     OW 3177   2.325   0.958   2.593 -0.1830 -0.6427  0.4406
  795SOL    HW1 3178   2.276   1.025   2.638 -0.0513 -2.0642  1.0892
  795SOL    HW2 3179   2.322   0.970   2.501 -0.3214  3.1725  0.7859
  795SOL     MW 3180   2.318   0.969   2.587 -0.1839 -0.3269  0.5718
  796SOL     OW 3181   0.246   0.650   2.768  0.4395 -0.2320 -0.1779
  796SOL    HW1 3182   0.246   0.743   2.779  0.9642 -0.5200 -2.8284
  796SOL    HW2 3183   0.184   0.646   2.693  0.4837  0.7561 -0.8736
  796SOL     MW 3184   0.238   0.662   2.759  0.5145 -0.1396 -0.6194
  797SOL     OW 3185   2.592   0.116   2.538  0.4635  0.0215 -0.1930
  797SOL    HW1 3186   2.609   0.198   2.582  0.6173  3.6006  2.3438
  797SOL    HW2 3187   2.654   0.105   2.463  1.0924  1.1268  0.1741
  797SOL     MW 3188   2.602   0.125   2.534  0.5668  0.6395  0.1902
  798SOL     OW 3189   2.364   0.028   2.177  0.1820 -0.0132  0.6874
  798SOL    HW1 3190   2.375   0.117   2.221 -2.1045  1.4209 -1.4065
  798SOL    HW2 3191   2.446   0.027   2.126  1.9059 -0.4243 -0.1880
  798SOL     MW 3192   2.376   0.040   2.176  0.1077  0.1218  0.2957
  799SOL     OW 3193   2.454   2.933   0.164 -0.1682  0.4923  0.1547
  799SOL    HW1 3194   2.427   2.867   0.101  0.9939  0.9965  1.1738
  799SOL    HW2 3195   2.392   3.003   0.154  0.5341 -0.5187  0.4115
  799SOL     MW 3196   2.442   2.934   0.154  0.0778  0.4254  0.3230
  800SOL     OW 3197   1.835   3.080   1.783 -0.1838 -0.0934  0.1880
  800SOL    HW1 3198   1.789   2.999   1.772 -0.5484  0.6168  0.4016
  800SOL    HW2 3199   1.900   3.062   1.855  2.7488 -0.3714 -2.5996
  800SOL     MW 3200   1.838   3.067   1.791  0.1550 -0.0364 -0.1516
  801SOL     OW 3201   2.791   1.290   2.648  0.0893 -0.5631 -0.2765
  801SOL    HW1 3202   2.762   1.199   2.625  1.3931  1.6057 -0.7666
  801SOL    HW2 3203   2.878   1.302   2.601 -1.0562 -3.1208  3.1010
  801SOL     MW 3204   2.798   1.280   2.638  0.1102 -0.6144  0.1045
  802SOL     OW 3205   2.554   1.550   2.810 -0.0163  0.1187 -0.2134
  802SOL    HW1 3206   2.525   1.458   2.784 -1.8767 -1.0081 -2.7720
  802SOL    HW2 3207   2.651   1.536   2.840  2.3070 -2.5196  1.1616
  802SOL     MW 3208   2.563   1.536   2.810  0.0448 -0.3781 -0.3696
  803SOL     OW 3209   2.318   1.333   1.968  0.3055 -0.8702  0.2601
  803SOL    HW1 3210   2.278   1.280   2.030  1.3959 -2.2962 -1.0626
  803SOL    HW2 3211   2.295   1.290   1.884 -0.9539 -0.3944 -0.1726
  803SOL     MW 3212   2.310   1.321   1.965  0.2832 -0.9956  0.0285
  804SOL     OW 3213   2.301   0.042   0.078  0.3483 -0.1114  0.1211
  804SOL    HW1 3214   2.218   0.092   0.093  0.4455  0.7002 -1.7455
  804SOL    HW2 3215   2.352   0.077   0.001  1.1175  0.4964  2.4761
  804SOL     MW 3216   2.297   0.053   0.070  0.4626  0.0759  0.1855
  805SOL     OW 3217   2.708   1.033   2.528 -0.3596  0.4398  0.1633
  805SOL    HW1 3218   2.656   0.970   2.479 -1.6464  0.4113  2.5458
  805SOL    HW2 3219   2.775   0.985   2.578  2.2943  1.3791  0.3890
  805SOL     MW 3220   2.710   1.018   2.528 -0.1792  0.5600  0.5074
  806SOL     OW 3221   2.574   0.406   2.242 -0.3008  0.0777 -0.2399
  806SOL    HW1 3222   2.495   0.349   2.272  0.5991  0.1002  0.2726
  806SOL    HW2 3223   2.622   0.356   2.176 -1.2544 -0.0205 -2.0157
  806SOL     MW 3224   2.570   0.392   2.237 -0.3079  0.0677 -0.4065
  807SOL     OW 3225   3.086   1.112   2.072 -0.2376 -0.3266  0.8209
  807SOL    HW1 3226   3.149   1.043   2.047 -1.8026  1.8990  3.8596
  807SOL    HW2 3227   3.018   1.070   2.139  0.8031 -0.4127  1.5634
  807SOL     MW 3228   3.085   1.097   2.078 -0.3068 -0.0443  1.3198
  808SOL     OW 3229   2.585   0.003   2.780 -0.2798 -0.4345  0.5237
  808SOL    HW1 3230   2.542  -0.081   2.770  2.0738 -0.8245  1.3294
  808SOL    HW2 3231   2.575   0.038   2.693 -0.4491  0.6880 -1.4607
  808SOL     MW 3232   2.578  -0.003   2.767  0.0084 -0.3379  0.3682
  809SOL     OW 3233   2.550   1.239   2.384 -0.4332 -0.7448  0.7269
  809SOL    HW1 3234   2.606   1.177   2.423 -1.7041  2.4427 -0.6061
  809SOL    HW2 3235   2.606   1.262   2.307 -3.0473  0.2826 -2.2533
  809SOL     MW 3236   2.565   1.234   2.379 -0.9458 -0.1887  0.1578
  810SOL     OW 3237   2.210   1.258   2.224 -0.3566 -0.5655 -0.4218
  810SOL    HW1 3238   2.272   1.187   2.244 -1.7660 -0.5782 -0.2838
  810SOL    HW2 3239   2.121   1.219   2.204  0.1279  1.9114  1.3198
  810SOL     MW 3240   2.207   1.244   2.224 -0.4786 -0.2403 -0.1738
  811SOL     OW 3241   1.522   0.095   2.301 -0.3513 -0.1667  0.0392
  811SOL    HW1 3242   1.580   0.027   2.287  0.6969 -0.7707  1.5481
  811SOL    HW2 3243   1.491   0.133   2.219 -3.0194  4.2351  0.3069
  811SOL     MW 3244   1.525   0.091   2.288 -0.5650  0.3344  0.2736
  812SOL     OW 3245   1.449   2.772   2.042  0.0908  0.0371  0.2514
  812SOL    HW1 3246   1.538   2.754   2.011 -0.4441 -0.2018 -2.3541
  812SOL    HW2 3247   1.453   2.755   2.138  0.3712  1.2941  0.6112
  812SOL     MW 3248   1.461   2.767   2.050  0.0572  0.1714 -0.0449
  813SOL     OW 3249   1.801   0.707   2.198 -0.1190  0.1457  0.9071
  813SOL    HW1 3250   1.738   0.634   2.215  2.2945 -0.8894 -2.4601
  813SOL    HW2 3251   1.831   0.743   2.280  1.6950 -1.4700 -1.0755
  813SOL     MW 3252   1.797   0.702   2.211  0.4388 -0.2041  0.2013
  814SOL     OW 3253   2.763   1.244   1.635 -0.4521  0.2034 -0.3431
  814SOL    HW1 3254   2.679   1.229   1.685 -3.2521  2.2998 -0.8302
  814SOL    HW2 3255   2.753   1.211   1.546 -0.6335 -1.9104 -0.2094
  814SOL     MW 3256   2.751   1.238   1.630 -0.8454  0.2011 -0.3898
  815SOL     OW 3257   2.507   1.661   2.392 -0.3202  0.4373  0.2249
  815SOL    HW1 3258   2.451   1.585   2.371  3.4799  0.9224 -1.3285
  815SOL    HW2 3259   2.596   1.628   2.407  2.8341  1.2419 -3.2609
  815SOL     MW 3260   2.511   1.647   2.391  0.5974  0.6075 -0.4399
  816SOL     OW 3261   0.756   0.641   2.763  0.2111  0.4288 -0.4519
  816SOL    HW1 3262   0.742   0.586   2.841 -1.7268  2.3138 -1.1535
  816SOL    HW2 3263   0.670   0.642   2.726 -0.9047 -1.2219  1.2197
  816SOL     MW 3264   0.743   0.634   2.769 -0.1918  0.4597 -0.3239
  817SOL     OW 3265   3.053   1.170   1.372 -0.1943 -0.2557  0.1588
  817SOL    HW1 3266   3.124   1.179   1.437  0.5482  1.8889 -1.3891
  817SOL    HW2 3267   3.051   1.264   1.345  0.9736 -1.2688 -0.5551
  817SOL     MW 3268   3.062   1.184   1.377  0.0578 -0.1064 -0.1397
  818SOL     OW 3269   1.910   1.014   2.743 -0.2309  0.5017 -0.7728
  818SOL    HW1 3270   1.941   1.023   2.655  0.1730  1.7107  0.4798
  818SOL    HW2 3271   1.984   0.975   2.790  1.9453  0.0513 -0.3472
  818SOL     MW 3272   1.924   1.010   2.737  0.1095  0.6018 -0.5514
  819SOL     OW 3273   1.953   0.238   2.482  0.6744  0.1127  0.1800
  819SOL    HW1 3274   1.886   0.305   2.490  3.6337 -0.7169 -2.8963
  819SOL    HW2 3275   1.982   0.213   2.570 -0.1003 -1.1238 -0.4271
  819SOL     MW 3276   1.948   0.244   2.495  0.9626 -0.1599 -0.3060
  820SOL     OW 3277   2.480   1.748   2.650 -0.0948 -0.0922 -0.0421
  820SOL    HW1 3278   2.505   1.673   2.709  1.1825 -3.1098 -1.6876
  820SOL    HW2 3279   2.489   1.721   2.563  0.0048 -1.2618  2.8673
  820SOL     MW 3280   2.484   1.735   2.647  0.0868 -0.6447  0.1247
  821SOL     OW 3281   2.592   1.349   1.978  0.1390 -0.2688 -0.1262
  821SOL    HW1 3282   2.627   1.436   1.948  1.2887  0.5878  2.2781
  821SOL    HW2 3283   2.497   1.365   1.983  2.0564  1.6492 -1.3502
  821SOL     MW 3284   2.584   1.363   1.975  0.5437  0.0973  0.0295
  822SOL     OW 3285   2.836   2.684   1.470  0.0843  0.2011 -0.2904
  822SOL    HW1 3286   2.919   2.724   1.502  1.1345 -1.5675 -0.3715
  822SOL    HW2 3287   2.787   2.756   1.433  1.6660 -1.0516  0.3795
  822SOL     MW 3288   2.841   2.699   1.469  0.4315 -0.1976 -0.2127
  823SOL     OW 3289   2.254   0.453   1.779  0.5218 -0.2520  0.7765
  823SOL    HW1 3290   2.332   0.404   1.750  2.0425  0.6228  1.1481
  823SOL    HW2 3291   2.170   0.401   1.754 -0.8054  2.2018 -2.0336
  823SOL     MW 3292   2.253   0.440   1.772  0.5474  0.1872  0.4548
  824SOL     OW 3293   2.081   1.400   2.494  0.3778  0.0881 -0.2233
  824SOL    HW1 3294   2.158   1.444   2.474  1.4582  0.8958  2.3994
  824SOL    HW2 3295   2.048   1.448   2.566  0.8400 -0.3850  1.4300
  824SOL     MW 3296   2.087   1.412   2.501  0.5814  0.1323  0.3409
  825SOL     OW 3297   2.071   2.549   0.348  0.3495  0.1135  0.7272
  825SOL    HW1 3298   2.031   2.491   0.417 -0.6271 -0.1419 -1.9823
  825SOL    HW2 3299   2.075   2.493   0.277  0.5892 -0.9377  2.5148
  825SOL     MW 3300   2.066   2.534   0.348  0.2523 -0.0589  0.6055
  826SOL     OW 3301   1.890   2.378   0.483 -1.0635  0.6250 -0.5640
  826SOL    HW1 3302   1.842   2.306   0.529  3.0866 -0.8954  3.0249
  826SOL    HW2 3303   1.893   2.450   0.551  2.2794 -1.5040 -2.8541
  826SOL     MW 3304   1.884   2.378   0.498 -0.0749  0.1435 -0.3927
  827SOL     OW 3305   1.954   2.177   0.835 -0.0102 -0.3212  0.4716
  827SOL    HW1 3306   1.880   2.174   0.768  0.9299 -2.5570 -0.7707
  827SOL    HW2 3307   1.922   2.119   0.905 -1.6659  0.0651 -2.2717
  827SOL     MW 3308   1.940   2.169   0.835 -0.1046 -0.5652 -0.0543
  828SOL     OW 3309   0.048   2.621   0.505 -0.0665  0.1087 -0.1180
  828SOL    HW1 3310   0.144   2.629   0.503 -1.9999 -1.4795  0.5356
  828SOL    HW2 3311   0.024   2.677   0.430 -0.9747  0.5601  0.1707
  828SOL     MW 3312   0.058   2.629   0.495 -0.4414 -0.0413  0.0063
  829SOL     OW 3313   3.006   2.939   1.209 -0.1357 -0.2710 -0.1466
  829SOL    HW1 3314   2.929   2.922   1.160  0.0016 -1.1761  1.2834
  829SOL    HW2 3315   3.053   2.852   1.209  3.0591 -2.0767 -0.2454
  829SOL     MW 3316   3.002   2.925   1.203  0.3039 -0.6287  0.0291
  830SOL     OW 3317   2.516   2.853   2.036 -0.1508 -0.2831 -0.1789
  830SOL    HW1 3318   2.423   2.867   1.998 -1.3180  0.2754  0.1698
  830SOL    HW2 3319   2.565   2.827   1.958 -3.5592  1.3412 -0.0730
  830SOL     MW 3320   2.510   2.852   2.021 -0.7545  0.0049 -0.1190
  831SOL     OW 3321   2.409   2.445   1.237  0.2562  0.0565  0.0541
  831SOL    HW1 3322   2.380   2.399   1.316 -0.2539  0.5369 -2.4895
  831SOL    HW2 3323   2.506   2.425   1.233  2.0131 -1.3250  0.1637
  831SOL     MW 3324   2.418   2.437   1.247  0.4207 -0.0624 -0.2671
  832SOL     OW 3325   2.379   2.126   1.815 -0.0289 -0.2296 -0.8272
  832SOL    HW1 3326   2.381   2.221   1.834  1.0874  1.4227 -0.0579
  832SOL    HW2 3327   2.466   2.095   1.800 -0.5338 -1.0294  0.4489
  832SOL     MW 3328   2.390   2.135   1.815  0.0517 -0.1171 -0.5573
  833SOL     OW 3329   1.785   2.492   0.923 -0.7757  0.7005  0.4633
  833SOL    HW1 3330   1.694   2.444   0.944  0.1596 -3.0392 -3.8562
  833SOL    HW2 3331   1.778   2.579   0.962  4.0199 -0.7648 -1.2412
  833SOL     MW 3332   1.772   2.497   0.931 -0.0196  0.0137 -0.3315
  834SOL     OW 3333   2.241   2.423   0.565  0.3547 -0.7770  0.3076
  834SOL    HW1 3334   2.245   2.331   0.595 -3.7916 -2.0068  1.5696
  834SOL    HW2 3335   2.259   2.412   0.466  1.2847 -1.1874 -0.1540
  834SOL     MW 3336   2.244   2.409   0.556 -0.0697 -0.9934  0.4132
  835SOL     OW 3337   1.850   2.593   0.676 -0.5395 -0.3028 -0.1648
  835SOL    HW1 3338   1.843   2.545   0.763 -0.8439 -0.0242 -0.4961
  835SOL    HW2 3339   1.934   2.646   0.680 -2.0967  1.1197  1.2037
  835SOL     MW 3340   1.860   2.593   0.688 -0.7851 -0.0783 -0.0280
  836SOL     OW 3341   2.029   2.197   1.634  0.7388  0.4945 -0.6741
  836SOL    HW1 3342   2.109   2.149   1.608  0.2311 -0.6048  0.2338
  836SOL    HW2 3343   2.052   2.288   1.641  0.2019  0.6887  3.2701
  836SOL     MW 3344   2.042   2.202   1.631  0.6010  0.3751 -0.0339
  837SOL     OW 3345   2.038   0.159   0.717  0.1262 -0.2152 -0.4180
  837SOL    HW1 3346   1.950   0.193   0.682 -1.7100 -2.4992 -0.6385
  837SOL    HW2 3347   2.087   0.132   0.640  0.0912  2.5699  1.7536
  837SOL     MW 3348   2.033   0.159   0.703 -0.1207 -0.1491 -0.1606
  838SOL     OW 3349   2.864   2.055   0.937 -0.1479 -0.0152  0.7532
  838SOL    HW1 3350   2.796   1.986   0.936  3.1139 -0.7660 -1.7003
  838SOL    HW2 3351   2.923   2.030   1.009  1.1837  0.0093 -0.9842
  838SOL     MW 3352   2.863   2.042   0.946  0.4581 -0.1110  0.2002
  839SOL     OW 3353   1.525   2.396   0.947  0.5207  0.3414  0.1139
  839SOL    HW1 3354   1.509   2.478   0.995 -3.0248  0.3162  0.7115
  839SOL    HW2 3355   1.542   2.329   1.015  0.8066  0.3449 -0.1399
  839SOL     MW 3356   1.525   2.398   0.963  0.0906  0.3385  0.1592
  840SOL     OW 3357   2.255   2.075   2.419 -0.0339  0.3063  0.5675
  840SOL    HW1 3358   2.208   2.155   2.385 -3.0972  4.5491 -1.4009
  840SOL    HW2 3359   2.338   2.108   2.452  1.1290  1.1430 -1.9542
  840SOL     MW 3360   2.260   2.090   2.419 -0.2846  0.9765 -0.0249
  841SOL     OW 3361   2.250   2.435   0.049  0.8743  0.0356 -0.0977
  841SOL    HW1 3362   2.262   2.469  -0.037 -0.8670  1.7484  3.8207
  841SOL    HW2 3363   2.201   2.354   0.036 -0.1082  0.7604 -0.7355
  841SOL     MW 3364   2.245   2.429   0.036  0.5149  0.3572  0.3352
  842SOL     OW 3365   2.666   2.013   1.489 -0.0360  0.1153 -0.6467
  842SOL    HW1 3366   2.598   1.950   1.489 -0.1305 -2.4915  0.5545
  842SOL    HW2 3367   2.651   2.061   1.405  1.0354 -0.2008  2.7749
  842SOL     MW 3368   2.655   2.011   1.478  0.0929 -0.2703 -0.0367
  843SOL     OW 3369   2.629   2.798   1.786 -0.4540 -0.1236  0.0902
  843SOL    HW1 3370   2.715   2.754   1.787  0.1451  0.8891  1.7441
  843SOL    HW2 3371   2.570   2.734   1.751  1.4872 -3.0579 -1.3967
  843SOL     MW 3372   2.633   2.784   1.782 -0.1189 -0.3771  0.1122
  844SOL     OW 3373   2.652   2.350   1.196  1.0270 -0.2593 -0.4134
  844SOL    HW1 3374   2.680   2.372   1.108 -0.5882  0.6896 -0.0440
  844SOL    HW2 3375   2.723   2.384   1.258 -0.4962  2.3111 -2.5616
  844SOL     MW 3376   2.665   2.357   1.192  0.6130  0.2050 -0.6481
  845SOL     OW 3377   2.852   2.566   0.356  0.5886  0.7969  0.0605
  845SOL    HW1 3378   2.809   2.485   0.358  0.9185  0.9372 -0.5047
  845SOL    HW2 3379   2.851   2.593   0.445 -0.2648 -0.1880 -0.3336
  845SOL     MW 3380   2.846   2.559   0.368  0.5195  0.6854 -0.0661
  846SOL     OW 3381   1.494   2.798   0.832  0.2478  0.0506 -0.2630
  846SOL    HW1 3382   1.575   2.854   0.826  3.0304 -0.0755 -2.1539
  846SOL    HW2 3383   1.429   2.857   0.866 -1.1741 -0.2235  1.1264
  846SOL     MW 3384   1.496   2.813   0.836  0.4273 -0.0022 -0.3292
  847SOL     OW 3385   2.465   1.906   0.182  0.0669  0.0809  0.2729
  847SOL    HW1 3386   2.480   1.830   0.245 -1.7602  0.8073  1.7124
  847SOL    HW2 3387   2.442   1.874   0.094 -3.1035 -1.1547 -0.2657
  847SOL     MW 3388   2.464   1.892   0.179 -0.5925  0.0137  0.3917
  848SOL     OW 3389   2.568   2.094   1.219 -0.5394  0.1069 -1.2946
  848SOL    HW1 3390   2.602   2.183   1.215  0.0137  0.7263 -0.4735
  848SOL    HW2 3391   2.547   2.080   1.128 -0.1669  0.2507 -0.4936
  848SOL     MW 3392   2.570   2.104   1.207 -0.4173  0.2076 -1.0806
  849SOL     OW 3393   2.061   2.797   0.793 -0.2865  0.5286  0.5000
  849SOL    HW1 3394   2.050   2.737   0.867 -1.8765  0.8104 -1.8216
  849SOL    HW2 3395   2.146   2.772   0.749  1.0711  1.5932 -1.1951
  849SOL     MW 3396   2.071   2.786   0.797 -0.3171  0.7062 -0.0300
  850SOL     OW 3397   2.259   1.798   1.642 -0.1033 -0.0527 -0.5385
  850SOL    HW1 3398   2.177   1.757   1.623  0.3932 -3.5636 -0.0982
  850SOL    HW2 3399   2.253   1.889   1.599  0.2215  1.3292  0.5443
  850SOL     MW 3400   2.247   1.805   1.634  0.0051 -0.3336 -0.3376
  851SOL     OW 3401   2.394   2.351   0.298 -0.6366 -0.2559 -0.4950
  851SOL    HW1 3402   2.371   2.397   0.218  0.7769  2.0449  0.5766
  851SOL    HW2 3403   2.488   2.371   0.315  0.5035  0.6529  2.4017
  851SOL     MW 3404   2.404   2.359   0.289 -0.2997  0.1676  0.0286
  852SOL     OW 3405   2.330   2.101   0.343  0.3085 -0.8309 -0.2617
  852SOL    HW1 3406   2.365   2.191   0.321  1.3384  0.7790  0.5431
  852SOL    HW2 3407   2.391   2.054   0.285  1.7601  1.0334 -0.8904
  852SOL     MW 3408   2.343   2.107   0.332  0.6359 -0.3725 -0.2385
  853SOL     OW 3409   2.457   2.406   1.886  0.2981 -0.7182 -0.0094
  853SOL    HW1 3410   2.482   2.459   1.810 -2.1275 -0.5153  1.0623
  853SOL    HW2 3411   2.546   2.375   1.912  0.1257 -1.2915 -3.2196
  853SOL     MW 3412   2.472   2.409   1.880 -0.0447 -0.7670 -0.2915
  854SOL     OW 3413   2.853   2.255   0.741 -0.3025 -0.7096 -0.5861
  854SOL    HW1 3414   2.775   2.222   0.688  0.0235 -0.2838 -0.2081
  854SOL    HW2 3415   2.867   2.184   0.809  1.2401  1.0293 -0.3279
  854SOL     MW 3416   2.845   2.241   0.743 -0.0560 -0.4240 -0.5022
  855SOL     OW 3417   2.684   2.359   0.339  0.7167 -0.3483  0.0394
  855SOL    HW1 3418   2.641   2.407   0.416 -1.2735  1.7607  0.0313
  855SOL    HW2 3419   2.714   2.272   0.372 -0.2857  0.8872  3.1168
  855SOL     MW 3420   2.683   2.354   0.353  0.3218  0.0930  0.4444
  856SOL     OW 3421   2.148   1.921   0.244  0.1858  0.1279  0.3269
  856SOL    HW1 3422   2.051   1.929   0.246  0.3478 -3.0367 -0.4803
  856SOL    HW2 3423   2.198   2.000   0.254  0.5505 -1.5804 -0.4650
  856SOL     MW 3424   2.142   1.932   0.245  0.2553 -0.5150  0.1159
  857SOL     OW 3425   2.473   1.967   0.537 -0.3253 -0.0781 -0.4437
  857SOL    HW1 3426   2.418   2.015   0.468  0.2929  0.9462 -1.2501
  857SOL    HW2 3427   2.405   1.938   0.608 -0.7923 -4.0459 -0.1001
  857SOL     MW 3428   2.457   1.970   0.537 -0.3053 -0.4665 -0.5047
  858SOL     OW 3429   2.895   2.688   1.780  0.5039 -0.5000  0.2650
  858SOL    HW1 3430   2.995   2.696   1.786  1.5569  0.6716 -3.2092
  858SOL    HW2 3431   2.875   2.595   1.774  0.6793 -0.7357  0.5703
  858SOL     MW 3432   2.906   2.677   1.780  0.6660 -0.3765 -0.1531
  859SOL     OW 3433   2.089   2.632   1.032 -0.9153  0.3318  1.2160
  859SOL    HW1 3434   2.131   2.551   1.010  1.6413  1.8467  0.1442
  859SOL    HW2 3435   2.164   2.693   1.053  0.2821  0.9025 -1.9171
  859SOL     MW 3436   2.105   2.629   1.032 -0.4200  0.6070  0.6612
  860SOL     OW 3437   2.689   2.635   0.126 -0.4369  0.4652 -0.2635
  860SOL    HW1 3438   2.737   2.606   0.211  1.2328 -1.3684  2.5963
  860SOL    HW2 3439   2.723   2.730   0.109 -0.2765  1.0080  0.1276
  860SOL     MW 3440   2.700   2.644   0.135 -0.1955  0.2949  0.1654
  861SOL     OW 3441   1.631   2.174   1.099  0.0577 -0.1025  0.2860
  861SOL    HW1 3442   1.655   2.242   1.159  2.2994 -1.9687 -0.0135
  861SOL    HW2 3443   1.576   2.115   1.155 -2.4310  0.4455  0.8760
  861SOL     MW 3444   1.627   2.175   1.115  0.0251 -0.2764  0.3243
  862SOL     OW 3445   2.513   1.768   1.494  0.2091 -0.0599 -0.4547
  862SOL    HW1 3446   2.431   1.775   1.537 -1.3332  1.2012 -1.7948
  862SOL    HW2 3447   2.484   1.764   1.403 -1.3755  0.7213  0.5321
  862SOL     MW 3448   2.498   1.769   1.487 -0.2035  0.2096 -0.5013
  863SOL     OW 3449   2.975   1.777   1.041  0.4613 -0.0277 -0.2033
  863SOL    HW1 3450   3.060   1.746   1.071 -2.0995 -1.5561  0.2431
  863SOL    HW2 3451   2.953   1.851   1.099  0.8219  2.2300 -1.1036
  863SOL     MW 3452   2.984   1.782   1.052  0.1710  0.0685 -0.2632
  864SOL     OW 3453   0.061   1.829   0.834 -0.1135 -0.0640 -0.0282
  864SOL    HW1 3454  -0.019   1.822   0.884  2.9673  0.0063  0.0400
  864SOL    HW2 3455   0.051   1.815   0.740 -0.6665  2.3750  2.4317
  864SOL     MW 3456   0.049   1.827   0.828  0.2200  0.2671  0.3054
  865SOL     OW 3457   2.555   2.155   0.031  0.6818  0.0919 -0.1607
  865SOL    HW1 3458   2.544   2.076   0.081  2.3882 -1.3892 -1.5119
  865SOL    HW2 3459   2.548   2.142  -0.065  1.5601 -2.1531 -1.9760
  865SOL     MW 3460   2.553   2.143   0.025  1.0228 -0.3997 -0.5785
  866SOL     OW 3461   2.669   2.341   1.595 -0.3821 -0.5712 -0.1053
  866SOL    HW1 3462   2.647   2.250   1.584  0.2984  0.1793  0.5460
  866SOL    HW2 3463   2.720   2.363   1.513  0.8392  0.0481  1.2703
  866SOL     MW 3464   2.673   2.332   1.583 -0.1311 -0.3904  0.1621
  867SOL     OW 3465   0.088   2.691   1.773 -0.1864 -0.1134 -0.3877
  867SOL    HW1 3466   0.151   2.738   1.831 -1.1242  1.0813 -1.1415
  867SOL    HW2 3467   0.119   2.718   1.684 -3.0438  0.6331 -2.9484
  867SOL     MW 3468   0.100   2.701   1.769 -0.6871  0.1427 -0.8250
  868SOL     OW 3469   2.749   2.696   0.588  0.6982  0.1860  0.1113
  868SOL    HW1 3470   2.685   2.626   0.564 -0.9326 -2.5251 -0.2161
  868SOL    HW2 3471   2.739   2.760   0.516 -0.4997 -0.0334  2.5729
  868SOL     MW 3472   2.739   2.696   0.575  0.3250 -0.2006  0.3929
  869SOL     OW 3473   2.080   2.350   1.035 -0.0449  0.8571  0.3319
  869SOL    HW1 3474   2.174   2.334   1.014  1.8685  0.9534  2.0900
  869SOL    HW2 3475   2.039   2.278   0.982  1.4481 -0.5674  0.8992
  869SOL     MW 3476   2.087   2.338   1.025  0.4045  0.6819  0.6387
  870SOL     OW 3477   2.159   0.056   0.477  0.3134  0.3958  0.1152
  870SOL    HW1 3478   2.213   0.109   0.413  0.8195 -0.3468 -2.8636
  870SOL    HW2 3479   2.198  -0.029   0.472  0.1874  2.2585 -0.2064
  870SOL     MW 3480   2.171   0.051   0.468  0.3635  0.5436 -0.3203
  871SOL     OW 3481   2.456   2.080   0.927 -0.4699 -0.1413 -0.0885
  871SOL    HW1 3482   2.421   2.022   0.854  3.0288 -2.2263 -2.7087
  871SOL    HW2 3483   2.425   2.172   0.917  2.1225 -0.4078  0.3027
  871SOL     MW 3484   2.448   2.085   0.916  0.3337 -0.4516 -0.3826
  872SOL     OW 3485   2.057   2.512   1.500 -0.2326  0.3885  0.1249
  872SOL    HW1 3486   1.986   2.547   1.555  2.2013  0.3497 -0.8232
  872SOL    HW2 3487   2.020   2.465   1.420  0.4681  1.2792  0.1795
  872SOL     MW 3488   2.043   2.510   1.497  0.1810  0.5009  0.0070
  873SOL     OW 3489   2.853   2.091   1.971 -0.5209  0.6758 -0.3544
  873SOL    HW1 3490   2.866   2.141   2.052 -0.5615 -1.4696 -1.7704
  873SOL    HW2 3491   2.930   2.120   1.922 -0.5980 -0.1677 -1.8232
  873SOL     MW 3492   2.865   2.102   1.975 -0.5364  0.2815 -0.7350
  874SOL     OW 3493   2.339   1.430   2.406 -0.1957 -0.0077 -0.4571
  874SOL    HW1 3494   2.298   1.368   2.346 -1.2931  0.1799 -0.1101
  874SOL    HW2 3495   2.418   1.385   2.427  0.4303 -2.7037 -2.3464
  874SOL     MW 3496   2.344   1.416   2.401 -0.2579 -0.3386 -0.6606
  875SOL     OW 3497   2.353   2.343   0.978  0.4511  0.0421 -0.3993
  875SOL    HW1 3498   2.406   2.380   0.909 -0.0635  0.2671 -1.3075
  875SOL    HW2 3499   2.387   2.372   1.063  0.7390 -0.3937  1.0712
  875SOL     MW 3500   2.365   2.352   0.980  0.4212  0.0143 -0.3251
  876SOL     OW 3501   3.076   2.272   1.362  0.0885 -0.2136 -0.2388
  876SOL    HW1 3502   3.107   2.295   1.277  1.3212 -0.4846  2.1085
  876SOL    HW2 3503   3.145   2.288   1.426  2.9206 -0.4790 -3.4834
  876SOL     MW 3504   3.089   2.277   1.359  0.6248 -0.2844 -0.3572
  877SOL     OW 3505   3.096   2.798   0.309  0.4915 -0.0458  0.2457
  877SOL    HW1 3506   3.170   2.845   0.280 -0.7085  1.4273  1.4463
  877SOL    HW2 3507   3.082   2.725   0.250  2.7933 -1.7523  2.2237
  877SOL     MW 3508   3.104   2.795   0.297  0.6369 -0.0766  0.6651
  878SOL     OW 3509   2.427   1.769   1.223 -0.0216  0.0105 -0.1587
  878SOL    HW1 3510   2.376   1.689   1.238  1.8682 -0.9591 -0.3430
  878SOL    HW2 3511   2.518   1.732   1.205 -0.9885 -2.0454  1.2779
  878SOL     MW 3512   2.432   1.754   1.223  0.1002 -0.3887  0.0065
  879SOL     OW 3513   2.773   2.425   0.956 -0.4669  0.3726  0.2834
  879SOL    HW1 3514   2.837   2.495   0.942  2.0878 -0.2601 -0.9549
  879SOL    HW2 3515   2.794   2.361   0.886 -1.9893 -0.4742 -4.1257
  879SOL     MW 3516   2.785   2.426   0.945 -0.3307  0.1774 -0.4617
  880SOL     OW 3517   2.595   2.172   0.673  0.0460  0.9077 -0.0746
  880SOL    HW1 3518   2.561   2.148   0.755 -0.6092  0.6071 -1.8253
  880SOL    HW2 3519   2.571   2.097   0.622  1.0503 -3.2154 -2.3830
  880SOL     MW 3520   2.587   2.159   0.677  0.0920  0.3240 -0.6101
  881SOL     OW 3521   2.993   2.729   0.692 -0.0251  0.2360  0.0215
  881SOL    HW1 3522   2.919   2.702   0.639  1.2482  1.4680  0.0611
  881SOL    HW2 3523   3.073   2.700   0.634  1.0894 -0.4226 -0.8248
  881SOL     MW 3524   2.994   2.721   0.677  0.2900  0.3116 -0.0849
  882SOL     OW 3525   2.253   2.852   1.957  0.0932 -0.6565  0.1214
  882SOL    HW1 3526   2.253   2.868   1.857  1.6903 -0.0487  0.7172
  882SOL    HW2 3527   2.199   2.768   1.973  0.3446 -0.3966 -0.4589
  882SOL     MW 3528   2.246   2.843   1.946  0.3371 -0.5420  0.1235
  883SOL     OW 3529   2.348   2.201   1.356  0.1785 -0.0366 -0.1287
  883SOL    HW1 3530   2.425   2.166   1.309 -5.1045  0.1414 -0.1711
  883SOL    HW2 3531   2.274   2.189   1.298  1.3128  0.3356  1.6602
  883SOL     MW 3532   2.348   2.194   1.343 -0.3689  0.0360  0.1018
  884SOL     OW 3533   1.963   1.807   1.070  0.2418 -0.3859 -0.3330
  884SOL    HW1 3534   1.902   1.877   1.041 -1.2244  1.6984  1.0724
  884SOL    HW2 3535   2.049   1.847   1.058 -1.5425 -0.1378 -0.3086
  884SOL     MW 3536   1.966   1.821   1.065 -0.1871 -0.0781 -0.1443
  885SOL     OW 3537   2.842   2.401   1.791 -0.3625 -0.5607 -0.3194
  885SOL    HW1 3538   2.917   2.335   1.774  0.5308 -0.6393  1.1641
  885SOL    HW2 3539   2.769   2.385   1.733  2.0030  1.6092  0.4020
  885SOL     MW 3540   2.842   2.390   1.781  0.0675 -0.2848 -0.0285
  886SOL     OW 3541   2.826   2.409   1.392  0.4211  0.5702 -0.1420
  886SOL    HW1 3542   2.909   2.376   1.403 -2.8051  0.6256  2.4678
  886SOL    HW2 3543   2.818   2.493   1.435 -1.1428  1.6504 -0.2860
  886SOL     MW 3544   2.836   2.416   1.399 -0.2109  0.7200  0.1833
  887SOL     OW 3545   2.271   2.670   1.539  0.5424  0.5468  0.4594
  887SOL    HW1 3546   2.312   2.703   1.454  0.1261 -3.3955 -3.1388
  887SOL    HW2 3547   2.191   2.632   1.504  0.3554 -0.4824 -0.3142
  887SOL     MW 3548   2.266   2.669   1.523  0.4628 -0.1091 -0.1174
  888SOL     OW 3549   1.880   2.156   1.402  0.5772  0.1903  0.0494
  888SOL    HW1 3550   1.959   2.158   1.345  0.6214  2.6173 -1.0644
  888SOL    HW2 3551   1.916   2.174   1.494 -1.2921  1.6231  0.4775
  888SOL     MW 3552   1.895   2.159   1.407  0.3364  0.6996 -0.0410
  889SOL     OW 3553   2.352   2.007   2.068 -0.1128 -0.4773 -0.2210
  889SOL    HW1 3554   2.433   1.978   2.102 -0.9176 -1.2547 -1.3324
  889SOL    HW2 3555   2.370   2.071   2.000  1.1323 -0.0733 -0.3068
  889SOL     MW 3556   2.365   2.012   2.064 -0.0547 -0.5266 -0.3790
  890SOL     OW 3557   0.102   2.386   0.150  0.6141  0.3268  0.0896
  890SOL    HW1 3558   0.050   2.469   0.155  2.9549 -0.7800 -2.4109
  890SOL    HW2 3559   0.065   2.329   0.224  0.1508  2.0621  0.4555
  890SOL     MW 3560   0.090   2.390   0.160  0.8618  0.4098 -0.1920
  891SOL     OW 3561   3.054   1.975   1.248 -0.3535 -0.0845 -0.4911
  891SOL    HW1 3562   3.141   1.928   1.224 -0.1580 -1.3857 -0.5938
  891SOL    HW2 3563   3.079   2.062   1.284 -3.8634 -0.0014  1.9294
  891SOL     MW 3564   3.069   1.980   1.250 -0.7908 -0.2452 -0.1853
  892SOL     OW 3565   2.459   2.387   2.753 -0.1416 -0.3771 -0.1225
  892SOL    HW1 3566   2.430   2.311   2.808 -0.6750  1.9333 -1.2975
  892SOL    HW2 3567   2.553   2.385   2.777  2.9114 -1.1342 -1.3480
  892SOL     MW 3568   2.468   2.376   2.763  0.1909 -0.1722 -0.4392
  893SOL     OW 3569   1.632   2.437   1.228  0.4370 -0.2577  0.5932
  893SOL    HW1 3570   1.553   2.434   1.285 -0.3842 -0.5850  2.5429
  893SOL    HW2 3571   1.678   2.506   1.273  0.7594 -0.6801  1.5021
  893SOL     MW 3572   1.627   2.446   1.241  0.3712 -0.3567  0.9704
  894SOL     OW 3573   2.720   1.882   0.469  0.2390 -0.6781  0.2719
  894SOL    HW1 3574   2.628   1.897   0.487 -2.8468  0.0875  1.9922
  894SOL    HW2 3575   2.717   1.849   0.382  1.4826  1.0466  1.4372
  894SOL     MW 3576   2.707   1.880   0.460 -0.0041 -0.3495  0.6526
  895SOL     OW 3577   2.124   2.160   1.218  0.2119  0.8494 -0.2402
  895SOL    HW1 3578   2.094   2.230   1.159 -0.9847 -0.8574 -0.5765
  895SOL    HW2 3579   2.139   2.084   1.155  0.4011 -1.0705  0.5275
  895SOL     MW 3580   2.122   2.159   1.202  0.0790  0.3709 -0.1833
  896SOL     OW 3581   2.273   2.827   1.100 -1.4123  0.3991  0.1769
  896SOL    HW1 3582   2.306   2.815   1.190  0.8347  1.7706 -0.2713
  896SOL    HW2 3583   2.191   2.880   1.115  1.9571  0.2911 -2.7839
  896SOL     MW 3584   2.267   2.833   1.114 -0.6713  0.5658 -0.2729
  897SOL     OW 3585   3.075   3.030   3.049  0.2012 -0.3860 -0.0353
  897SOL    HW1 3586   3.146   2.956   3.037 -2.7052  0.2920 -0.4049
  897SOL    HW2 3587   2.995   3.022   2.990 -0.5631 -1.5627 -2.2155
  897SOL     MW 3588   3.073   3.019   3.040 -0.2831 -0.4518 -0.3718
  898SOL     OW 3589   2.053   0.183   1.486 -0.3899 -0.2127 -0.5450
  898SOL    HW1 3590   2.038   0.088   1.515  0.5792  0.3648 -0.5670
  898SOL    HW2 3591   2.045   0.181   1.393 -0.9934 -0.8439  0.3942
  898SOL     MW 3592   2.050   0.170   1.478 -0.3417 -0.2198 -0.4240
  899SOL     OW 3593   2.974   2.985   0.614 -0.2471 -0.3321 -0.0444
  899SOL    HW1 3594   2.998   2.892   0.651 -0.5899  0.0679 -0.0143
  899SOL    HW2 3595   2.884   2.998   0.647 -0.9330 -1.1986 -1.0814
  899SOL     MW 3596   2.965   2.974   0.624 -0.3828 -0.3937 -0.1773
  900SOL     OW 3597   0.023   2.406   1.108  0.1170  0.2006 -0.6485
  900SOL    HW1 3598  -0.002   2.496   1.119 -0.7624  1.6485 -0.4958
  900SOL    HW2 3599   0.018   2.391   1.011  1.3081  1.9789 -1.2092
  900SOL     MW 3600   0.019   2.416   1.097  0.1581  0.6263 -0.7024
  901SOL     OW 3601   1.753   2.799   1.800 -0.2099 -0.7398  0.2936
  901SOL    HW1 3602   1.830   2.753   1.771  1.1013 -1.9517 -2.5966
  901SOL    HW2 3603   1.691   2.808   1.725 -2.3171  0.9299  1.1938
  901SOL     MW 3604   1.755   2.794   1.786 -0.3149 -0.6794  0.0311
  902SOL     OW 3605   2.656   2.079   1.765 -0.1382  0.2864 -0.3788
  902SOL    HW1 3606   2.705   2.036   1.693  2.9701  1.2920 -4.2746
  902SOL    HW2 3607   2.728   2.094   1.827  0.4065  0.7906 -1.7932
  902SOL     MW 3608   2.672   2.075   1.764  0.3438  0.4856 -1.0794
  903SOL     OW 3609   1.549   2.632   0.627  0.3234 -0.3931  0.3698
  903SOL    HW1 3610   1.631   2.605   0.663  0.6688 -0.0602  0.6886
  903SOL    HW2 3611   1.537   2.697   0.700  1.3239  0.8883  1.4280
  903SOL     MW 3612   1.558   2.637   0.641  0.5010 -0.1801  0.5515
  904SOL     OW 3613   2.488   2.568   1.681 -0.7546  0.1090  0.1463
  904SOL    HW1 3614   2.406   2.584   1.631 -2.0946 -1.7282 -1.1988
  904SOL    HW2 3615   2.546   2.529   1.612 -1.3709  1.1747  1.1447
  904SOL     MW 3616   2.485   2.565   1.666 -1.0127  0.0072  0.1005
  905SOL     OW 3617   2.327   2.494   2.116  0.2873 -0.1251 -0.2024
  905SOL    HW1 3618   2.363   2.476   2.035 -1.5694 -0.5451 -1.5809
  905SOL    HW2 3619   2.272   2.418   2.146 -0.7557 -0.3596 -1.7548
  905SOL     MW 3620   2.324   2.481   2.109 -0.0953 -0.2114 -0.5891
  906SOL     OW 3621   2.530   2.471   0.805  0.4699  0.0250  0.6214
  906SOL    HW1 3622   2.617   2.459   0.846  0.2061 -2.4959 -1.6395
  906SOL    HW2 3623   2.513   2.564   0.822 -1.5009 -2.7806 -1.4485
  906SOL     MW 3624   2.540   2.482   0.813  0.1751 -0.6778  0.0500
  907SOL     OW 3625   2.660   2.878   1.304  0.1919  0.5478 -0.1161
  907SOL    HW1 3626   2.734   2.930   1.349  1.1788 -0.1196  1.4852
  907SOL    HW2 3627   2.702   2.844   1.219  0.3955 -0.6397  0.3866
  907SOL     MW 3628   2.676   2.880   1.299  0.3490  0.3030  0.1615
  908SOL     OW 3629   2.741   2.389   0.011 -0.2334  0.5320 -0.1076
  908SOL    HW1 3630   2.689   2.310   0.029 -0.8149 -1.1943  0.7411
  908SOL    HW2 3631   2.699   2.470   0.047  0.0056 -0.1125  2.5633
  908SOL     MW 3632   2.728   2.389   0.018 -0.2786  0.2192  0.3568
  909SOL     OW 3633   1.784   0.088   1.169 -0.1192  0.4648 -0.2273
  909SOL    HW1 3634   1.759   0.153   1.105  0.0917 -0.3745 -1.1410
  909SOL    HW2 3635   1.732   0.124   1.242 -2.3403  1.3686  1.6910
  909SOL     MW 3636   1.774   0.101   1.171 -0.3844  0.4733 -0.0947
  910SOL     OW 3637   2.204   1.697   0.420  0.2982  0.0050 -0.2806
  910SOL    HW1 3638   2.155   1.609   0.414  1.3284  0.4677 -0.2815
  910SOL    HW2 3639   2.164   1.757   0.355 -0.0335 -1.0600  0.2158
  910SOL     MW 3640   2.193   1.693   0.411  0.3904 -0.0745 -0.2152
  911SOL     OW 3641   2.257   2.064   1.567  0.2862 -0.2983 -0.3214
  911SOL    HW1 3642   2.304   2.092   1.644  0.4504  0.7904  1.7549
  911SOL    HW2 3643   2.300   2.108   1.492 -0.5478 -2.3346  1.8185
  911SOL     MW 3644   2.269   2.074   1.567  0.1978 -0.4233  0.2349
  912SOL     OW 3645   2.920   1.900   1.479  0.0753  0.0650  0.0362
  912SOL    HW1 3646   2.973   1.910   1.392 -1.5806  2.3551  1.2629
  912SOL    HW2 3647   2.832   1.944   1.461  0.1714 -0.3554  4.0124
  912SOL     MW 3648   2.915   1.907   1.465 -0.1305  0.3117  0.7227
  913SOL     OW 3649   2.596   3.083   0.359  0.2764  0.5597  0.0640
  913SOL    HW1 3650   2.681   3.033   0.356  0.9642 -2.4894  1.9696
  913SOL    HW2 3651   2.530   3.030   0.315 -3.6061 -0.4084 -0.0439
  913SOL     MW 3652   2.599   3.070   0.353 -0.1451  0.0297  0.3012
  914SOL     OW 3653   2.692   1.823   3.015 -0.4354  0.3206  0.1831
  914SOL    HW1 3654   2.734   1.907   3.004  2.2246 -1.4789 -1.6487
  914SOL    HW2 3655   2.594   1.832   3.005  0.7676  2.3269  1.2961
  914SOL     MW 3656   2.684   1.835   3.012  0.0743  0.3479  0.0883
  915SOL     OW 3657   1.742   0.195   0.233  0.5332 -0.2231  0.2121
  915SOL    HW1 3658   1.807   0.120   0.244  0.6054  2.9685 -1.7968
  915SOL    HW2 3659   1.656   0.149   0.219 -0.1326 -1.9800 -0.3370
  915SOL     MW 3660   1.739   0.179   0.233  0.4549 -0.0338 -0.1254
  916SOL     OW 3661   1.800   2.146   1.984 -0.7480  0.2638  0.2304
  916SOL    HW1 3662   1.864   2.219   1.964  0.8552 -0.1551  2.5875
  916SOL    HW2 3663   1.827   2.076   1.919 -0.5831  0.2271 -1.1563
  916SOL     MW 3664   1.812   2.146   1.972 -0.5147  0.2037  0.3584
  917SOL     OW 3665   2.496   2.190   2.564  0.1986  0.4333 -0.2225
  917SOL    HW1 3666   2.464   2.255   2.625  0.0188 -0.1400  2.0793
  917SOL    HW2 3667   2.575   2.229   2.530  0.4386  1.1215 -0.9888
  917SOL     MW 3668   2.503   2.204   2.568  0.2065  0.4485 -0.0199
  918SOL     OW 3669   1.959   1.575   2.694 -0.0000 -0.0454  0.2489
  918SOL    HW1 3670   1.912   1.642   2.639  2.2028  1.1851 -1.5122
  918SOL    HW2 3671   2.051   1.586   2.672  2.3168  2.1380 -1.8125
  918SOL     MW 3672   1.965   1.585   2.684  0.5963  0.4051 -0.2554
  919SOL     OW 3673   3.070   2.392   2.324 -0.4499  0.5106  0.1995
  919SOL    HW1 3674   3.016   2.313   2.299 -0.9348 -0.7361 -0.7405
  919SOL    HW2 3675   3.147   2.400   2.265  2.9178  1.8145 -2.0038
  919SOL     MW 3676   3.073   2.382   2.313 -0.0696  0.5182 -0.2152
  920SOL     OW 3677   2.705   2.867   3.083 -0.2139 -0.1213 -0.0395
  920SOL    HW1 3678   2.614   2.880   3.108  1.1778  0.0941 -0.1687
  920SOL    HW2 3679   2.703   2.799   3.014 -0.7534 -1.1688 -2.4789
  920SOL     MW 3680   2.693   2.860   3.078 -0.1015 -0.2311 -0.3784
  921SOL     OW 3681   2.460   2.597   2.581  0.4751 -0.2376  0.2868
  921SOL    HW1 3682   2.547   2.614   2.542  0.3130 -0.3400 -1.2086
  921SOL    HW2 3683   2.465   2.526   2.639 -1.4479  2.4309 -0.1703
  921SOL     MW 3684   2.472   2.590   2.584  0.2000  0.1010  0.0291
  922SOL     OW 3685   2.017   2.806   0.289 -0.4383  0.1093  0.5836
  922SOL    HW1 3686   2.002   2.822   0.192  0.4124 -0.0222 -0.0709
  922SOL    HW2 3687   2.019   2.705   0.290  3.0085 -0.4116 -1.2297
  922SOL     MW 3688   2.015   2.795   0.276  0.1287  0.0232  0.2580
  923SOL     OW 3689   2.199   2.884   1.676  0.2208 -0.4532  0.0150
  923SOL    HW1 3690   2.242   2.826   1.611  0.8311 -0.8756  1.3728
  923SOL    HW2 3691   2.150   2.959   1.640  0.2453 -1.5409  0.4652
  923SOL     MW 3692   2.198   2.886   1.663  0.3045 -0.6525  0.2535
  924SOL     OW 3693   1.152   2.752   2.607 -0.1988  0.1970  0.9141
  924SOL    HW1 3694   1.243   2.777   2.630  2.0517 -0.0441  0.0108
  924SOL    HW2 3695   1.129   2.694   2.679 -1.7875  2.1551 -0.1790
  924SOL     MW 3696   1.161   2.748   2.619 -0.1115  0.4236  0.6507
  925SOL     OW 3697   3.031   0.203   2.682  0.0129  0.4018  0.1116
  925SOL    HW1 3698   2.992   0.225   2.594  0.4938  2.6435  1.7810
  925SOL    HW2 3699   2.982   0.268   2.739 -0.0690  0.2976 -0.0851
  925SOL     MW 3700   3.019   0.214   2.678  0.0655  0.6838  0.3059
  926SOL     OW 3701   2.709   2.392   2.024 -0.1352 -0.2460 -0.1841
  926SOL    HW1 3702   2.754   2.465   2.078  0.4796  2.4627  1.2545
  926SOL    HW2 3703   2.766   2.387   1.941  1.0777  0.4167  0.2212
  926SOL     MW 3704   2.723   2.401   2.020  0.1059  0.1989  0.0592
  927SOL     OW 3705   2.355   0.170   0.324  0.4371  0.4550 -0.1671
  927SOL    HW1 3706   2.442   0.209   0.345 -0.8089  1.1208 -1.2237
  927SOL    HW2 3707   2.365   0.115   0.241 -0.6843 -2.3647 -1.6050
  927SOL     MW 3708   2.368   0.168   0.316  0.1247  0.1708 -0.4962
  928SOL     OW 3709   2.143   2.437   1.743 -0.2497  0.4141 -0.0133
  928SOL    HW1 3710   2.119   2.453   1.650  2.2945 -0.5366  1.5377
  928SOL    HW2 3711   2.238   2.450   1.741 -1.0434  0.9090  0.3902
  928SOL     MW 3712   2.153   2.441   1.730 -0.0188  0.3539  0.2446
  929SOL     OW 3713   2.717   2.335   2.470 -0.3435  0.3508  0.0110
  929SOL    HW1 3714   2.774   2.296   2.396  2.4598  1.3524  1.4735
  929SOL    HW2 3715   2.781   2.352   2.541  1.6554  0.3501  1.2773
  929SOL     MW 3716   2.733   2.332   2.470  0.2901  0.4828  0.3710
  930SOL     OW 3717   2.023   2.836   2.656  0.5254 -0.0685 -0.4618
  930SOL    HW1 3718   2.041   2.788   2.742  0.0589  1.3614 -0.6187
  930SOL    HW2 3719   2.108   2.878   2.635  0.9171  0.0821 -0.5107
  930SOL     MW 3720   2.037   2.835   2.664  0.5155  0.1401 -0.4889
  931SOL     OW 3721   3.038   2.738   2.455  0.1623  0.5218  0.8193
  931SOL    HW1 3722   3.078   2.758   2.541  3.3518  0.8200  0.4421
  931SOL    HW2 3723   3.082   2.666   2.427 -0.0932  0.5735 -0.4155
  931SOL     MW 3724   3.049   2.731   2.463  0.5494  0.5680  0.6066
  932SOL     OW 3725   2.927   1.877   2.485 -0.4199 -0.4567  0.1543
  932SOL    HW1 3726   3.015   1.907   2.463 -0.5053 -2.5191 -1.9720
  932SOL    HW2 3727   2.880   1.911   2.412  0.5991 -0.4696 -0.0625
  932SOL     MW 3728   2.932   1.885   2.472 -0.2967 -0.7305 -0.1549
  933SOL     OW 3729   2.052   2.808   2.211 -0.2353  0.6831 -0.0622
  933SOL    HW1 3730   2.137   2.841   2.232 -0.6735 -1.2101  1.1381
  933SOL    HW2 3731   1.998   2.879   2.189 -1.4415  0.0444 -1.1969
  933SOL     MW 3732   2.056   2.822   2.211 -0.4523  0.3490 -0.0535
  934SOL     OW 3733   1.997   2.675   2.440 -0.0003 -0.9223 -0.4186
  934SOL    HW1 3734   2.009   2.732   2.523 -0.5199 -0.0122  1.8878
  934SOL    HW2 3735   1.999   2.735   2.363  0.8862 -2.8138 -0.6436
  934SOL     MW 3736   1.999   2.691   2.440  0.0481 -1.0518 -0.1440
  935SOL     OW 3737   2.673   1.591   1.866  0.1851  0.5500  0.1689
  935SOL    HW1 3738   2.756   1.628   1.838 -1.4766  1.6274 -0.8073
  935SOL    HW2 3739   2.646   1.548   1.787 -3.4273 -3.1780 -0.3811
  935SOL     MW 3740   2.680   1.590   1.852 -0.5108  0.2002 -0.0325
  936SOL     OW 3741   2.968   2.274   3.087  0.2464 -0.1324  0.0452
  936SOL    HW1 3742   3.049   2.317   3.128  0.0878  0.7861 -0.1759
  936SOL    HW2 3743   2.893   2.332   3.101  0.1449 -0.4258 -0.8420
  936SOL     MW 3744   2.969   2.287   3.094  0.2121 -0.0500 -0.1010
  937SOL     OW 3745   2.000   2.152   2.632  0.6756  0.3351  0.2808
  937SOL    HW1 3746   2.063   2.104   2.677 -0.3278 -0.1028 -1.3962
  937SOL    HW2 3747   1.989   2.108   2.540 -1.1149  1.4754 -3.6447
  937SOL     MW 3748   2.007   2.139   2.626  0.3069  0.4278 -0.4584
  938SOL     OW 3749   2.286   1.780   1.919 -0.1918 -0.2877  0.1332
  938SOL    HW1 3750   2.265   1.786   1.827 -1.9192 -0.6910  2.0944
  938SOL    HW2 3751   2.282   1.871   1.948  0.1998 -0.9847  0.9463
  938SOL     MW 3752   2.283   1.793   1.910 -0.3681 -0.4329  0.4993
  939SOL     OW 3753   2.792   1.959   2.259 -0.0663  0.0314 -0.0616
  939SOL    HW1 3754   2.799   1.891   2.194  1.4617  1.1657 -1.3429
  939SOL    HW2 3755   2.709   1.942   2.291  2.7650 -2.7985 -0.2325
  939SOL     MW 3756   2.782   1.948   2.254  0.5088 -0.1923 -0.2532
  940SOL     OW 3757   2.306   0.148   2.715 -0.3802 -0.0261  0.5886
  940SOL    HW1 3758   2.328   0.053   2.697  0.7881 -1.5107  1.2129
  940SOL    HW2 3759   2.351   0.168   2.797 -1.8982 -2.1957 -0.1008
  940SOL     MW 3760   2.315   0.138   2.723 -0.4263 -0.5082  0.5800
  941SOL     OW 3761   0.141   2.423   2.083  0.4471 -0.4696 -0.2483
  941SOL    HW1 3762   0.235   2.397   2.066 -2.7018  2.1420  1.1055
  941SOL    HW2 3763   0.097   2.406   2.001 -2.0566  2.8260 -0.6251
  941SOL     MW 3764   0.148   2.417   2.070 -0.2987  0.3098 -0.1194
  942SOL     OW 3765   2.828   2.237   2.208 -0.1158  0.1484  0.6321
  942SOL    HW1 3766   2.768   2.269   2.145  0.9164 -2.2097  1.9774
  942SOL    HW2 3767   2.793   2.148   2.224  1.0714  0.2043 -1.4063
  942SOL     MW 3768   2.816   2.229   2.202  0.1770 -0.1554  0.5406
  943SOL     OW 3769   0.229   2.143   2.255 -0.4423 -0.0945  0.5711
  943SOL    HW1 3770   0.212   2.177   2.346  1.6482 -0.2333  0.2487
  943SOL    HW2 3771   0.309   2.084   2.254  0.9321 -1.7027  0.6775
  943SOL     MW 3772   0.237   2.140   2.267  0.0148 -0.3250  0.5426
  944SOL     OW 3773   2.098   2.639   1.976  0.4225  0.0305 -0.0562
  944SOL    HW1 3774   2.147   2.568   2.023  1.7564  0.6029 -1.0032
  944SOL    HW2 3775   2.069   2.697   2.043  2.0013  2.0730  0.4077
  944SOL     MW 3776   2.101   2.638   1.991  0.8068  0.3755 -0.1199
  945SOL     OW 3777   2.770   2.672   2.904  0.8320 -0.0029  0.3660
  945SOL    HW1 3778   2.739   2.584   2.888  1.9899  2.4873  0.2300
  945SOL    HW2 3779   2.753   2.716   2.822 -0.0951  0.8941 -1.6107
  945SOL     MW 3780   2.763   2.666   2.891  0.8625  0.4440  0.0872
  946SOL     OW 3781   2.449   2.698   2.246  0.0833  0.3390  0.2876
  946SOL    HW1 3782   2.478   2.730   2.164  1.9773 -0.8525 -1.2655
  946SOL    HW2 3783   2.387   2.631   2.211 -4.4867 -1.5281  0.2820
  946SOL     MW 3784   2.444   2.694   2.230 -0.2698 -0.0646  0.0819
  947SOL     OW 3785   1.970   0.036   0.274  0.0870 -0.8785 -0.4732
  947SOL    HW1 3786   2.002  -0.033   0.214  0.4308  2.2943  1.6680
  947SOL    HW2 3787   2.022   0.023   0.357  1.5280 -1.5217 -0.6207
  947SOL     MW 3788   1.981   0.025   0.277  0.3225 -0.5447 -0.2101
  948SOL     OW 3789   1.794   3.001   2.655 -0.3115  0.3305 -0.1036
  948SOL    HW1 3790   1.851   2.932   2.669 -1.8638  0.6012 -0.9752
  948SOL    HW2 3791   1.787   3.025   2.560  1.4941 -2.5330  0.3931
  948SOL     MW 3792   1.801   2.995   2.644 -0.2781 -0.0116 -0.1530
  949SOL     OW 3793   2.515   1.921   2.345  0.2798  0.0284  0.1048
  949SOL    HW1 3794   2.497   1.827   2.340 -1.4232 -0.5841 -0.2228
  949SOL    HW2 3795   2.440   1.969   2.319 -0.8188  0.4073  1.4388
  949SOL     MW 3796   2.503   1.915   2.341 -0.0899 -0.0025  0.2376
  950SOL     OW 3797   2.313   2.575   2.922 -0.8207  0.2096  0.6033
  950SOL    HW1 3798   2.349   2.533   2.844 -0.1644  0.3026  0.2818
  950SOL    HW2 3799   2.222   2.584   2.896  1.5404  2.6463 -0.7208
  950SOL     MW 3800   2.305   2.571   2.908 -0.4226  0.5434  0.3862
  951SOL     OW 3801   3.055   2.156   2.864  0.2568  0.3173 -0.1094
  951SOL    HW1 3802   3.025   2.190   2.952 -1.4529  0.4233 -3.0522
  951SOL    HW2 3803   3.091   2.069   2.878 -0.6193 -0.8455 -0.0177
  951SOL     MW 3804   3.056   2.149   2.877 -0.0844  0.1779 -0.4856
  952SOL     OW 3805   3.065   1.664   2.119  0.6241 -0.6734 -0.2665
  952SOL    HW1 3806   2.994   1.685   2.059 -0.5866  3.4208 -0.0719
  952SOL    HW2 3807   3.101   1.744   2.155  1.4153 -0.6286  0.2271
  952SOL     MW 3808   3.060   1.677   2.116  0.5688 -0.1273 -0.1757
  953SOL     OW 3809   1.945   1.753   2.915  0.0807  0.3324  0.4371
  953SOL    HW1 3810   1.872   1.731   2.981 -2.5457 -0.5941  1.4943
  953SOL    HW2 3811   1.952   1.686   2.849  0.4803 -0.2661 -0.8782
  953SOL     MW 3812   1.936   1.741   2.915 -0.2131  0.1312  0.4031
  954SOL     OW 3813   2.457   2.127   2.877 -0.1124  0.0427  0.6460
  954SOL    HW1 3814   2.381   2.082   2.837  3.3988  2.8091  0.3760
  954SOL    HW2 3815   2.523   2.096   2.813 -1.8691 -0.8406 -2.1334
  954SOL     MW 3816   2.456   2.117   2.864  0.1191  0.2911  0.2436
  955SOL     OW 3817   1.543   1.613   2.537 -0.3845  0.3869 -0.3523
  955SOL    HW1 3818   1.536   1.587   2.444 -1.4944 -0.0409  1.2536
  955SOL    HW2 3819   1.606   1.691   2.524  2.2585  3.2209 -2.6594
  955SOL     MW 3820   1.551   1.619   2.523 -0.1822  0.7044 -0.4448
  956SOL     OW 3821   2.717   2.393   2.839  0.1366  0.5955 -0.1902
  956SOL    HW1 3822   2.723   2.381   2.931 -0.1885 -2.5615 -3.7491
  956SOL    HW2 3823   2.795   2.369   2.788  2.2536  0.3019  2.2690
  956SOL     MW 3824   2.728   2.388   2.845  0.3730  0.1403 -0.3353
  957SOL     OW 3825   2.221   2.890   0.465 -0.1913  0.2612 -0.0961
  957SOL    HW1 3826   2.179   2.864   0.389  0.5478  3.7365  0.8174
  957SOL    HW2 3827   2.248   2.814   0.514 -0.0627  3.5713  2.2840
  957SOL     MW 3828   2.219   2.876   0.462 -0.0768  1.1565  0.3385
  958SOL     OW 3829   2.058   2.635   2.857 -0.4825  0.3929 -0.3129
  958SOL    HW1 3830   2.019   2.564   2.816  0.7408  1.8673  1.6904
  958SOL    HW2 3831   1.997   2.644   2.933  3.3283 -1.1183 -0.0218
  958SOL     MW 3832   2.044   2.626   2.862  0.1817  0.3881 -0.0102
  959SOL     OW 3833   2.493   2.753   0.399  0.3087  0.3487  0.0663
  959SOL    HW1 3834   2.512   2.785   0.313  2.8888  0.2959  4.2627
  959SOL    HW2 3835   2.424   2.810   0.434  1.7213 -1.2905  1.2505
  959SOL     MW 3836   2.487   2.765   0.392  0.8355  0.1255  0.7762
  960SOL     OW 3837   1.882   2.314   2.308  0.0985  0.1365  0.0010
  960SOL    HW1 3838   1.900   2.221   2.336  2.3312  1.2690  0.5639
  960SOL    HW2 3839   1.847   2.362   2.381  1.3684  0.1250  1.1431
  960SOL     MW 3840   1.880   2.308   2.321  0.5606  0.2844  0.2260
  961SOL     OW 3841   2.167   2.332   2.268  0.2326  0.1817 -0.1507
  961SOL    HW1 3842   2.069   2.320   2.265 -0.1121 -0.5458 -2.9220
  961SOL    HW2 3843   2.187   2.366   2.353 -2.1258  0.7685 -1.4601
  961SOL     MW 3844   2.157   2.335   2.279 -0.1241  0.1631 -0.6891
  962SOL     OW 3845   2.201   2.015   2.780  0.6936  0.0472  0.2176
  962SOL    HW1 3846   2.185   1.968   2.865  0.9844  0.8355  0.1478
  962SOL    HW2 3847   2.210   1.939   2.714  2.7456  1.2966 -1.5604
  962SOL     MW 3848   2.200   1.999   2.783  1.0027  0.3160 -0.0262
  963SOL     OW 3849   1.797   2.497   2.124  0.1247 -0.4359  0.9951
  963SOL    HW1 3850   1.840   2.458   2.199 -1.2997 -0.4508  0.7603
  963SOL    HW2 3851   1.847   2.453   2.053  1.8961  0.2840  0.7076
  963SOL     MW 3852   1.809   2.486   2.125  0.1705 -0.3429  0.9262
  964SOL     OW 3853   1.806   1.942   2.716 -0.0947  0.4318  0.1429
  964SOL    HW1 3854   1.862   2.016   2.685 -0.7980 -0.7465  2.6293
  964SOL    HW2 3855   1.870   1.900   2.780  0.4906 -0.6108 -0.8373
  964SOL     MW 3856   1.822   1.946   2.721 -0.1103  0.1388  0.3416
  965SOL     OW 3857   2.283   2.695   0.642 -0.0718  0.7472 -0.5502
  965SOL    HW1 3858   2.264   2.602   0.620 -0.5363  0.4177  1.8832
  965SOL    HW2 3859   2.349   2.710   0.710 -2.0581  1.9862  0.9009
  965SOL     MW 3860   2.289   2.684   0.648 -0.3952  0.8672 -0.0377
  966SOL     OW 3861   2.658   2.592   2.407  0.4857  0.0987 -0.8128
  966SOL    HW1 3862   2.573   2.621   2.353 -1.0730 -0.4732 -1.3442
  966SOL    HW2 3863   2.666   2.492   2.418 -1.5808 -0.8013  1.8083
  966SOL     MW 3864   2.648   2.583   2.401  0.0074 -0.0955 -0.5371
  967SOL     OW 3865   2.811   3.076   2.922  0.5427 -0.0787  0.2388
  967SOL    HW1 3866   2.764   3.007   2.976 -0.7078 -0.6416 -1.9238
  967SOL    HW2 3867   2.736   3.113   2.882 -2.2841 -2.3599  3.9824
  967SOL     MW 3868   2.795   3.072   2.924  0.0047 -0.4540  0.4474
  968SOL     OW 3869   3.030   2.629   2.983 -0.4216 -0.2828  0.5942
  968SOL    HW1 3870   2.939   2.640   2.948 -0.0846 -0.3312 -1.2204
  968SOL    HW2 3871   3.085   2.566   2.924 -0.1335 -0.5686 -1.2338
  968SOL     MW 3872   3.025   2.622   2.971 -0.3391 -0.3269  0.1136
  969SOL     OW 3873   1.615   2.166   1.679 -0.0195  0.3641 -0.0274
  969SOL    HW1 3874   1.689   2.111   1.701  0.5176  1.5355 -0.7601
  969SOL    HW2 3875   1.587   2.214   1.761 -0.4603  1.5850  1.4899
  969SOL     MW 3876   1.621   2.165   1.692 -0.0068  0.6797  0.0761
  970SOL     OW 3877   1.772   1.826   1.914  0.3825  0.1481  0.1285
  970SOL    HW1 3878   1.825   1.770   1.969  1.9949  2.5169 -4.0739
  970SOL    HW2 3879   1.682   1.813   1.930  1.2851 -0.7990 -0.9427
  970SOL     MW 3880   1.767   1.817   1.924  0.7143  0.3357 -0.5673
  971SOL     OW 3881   1.792   0.011   2.414 -0.4090 -1.0912  0.1897
  971SOL    HW1 3882   1.808  -0.050   2.336 -0.0514 -0.2525 -3.5970
  971SOL    HW2 3883   1.865   0.078   2.416 -1.7000  0.2791  0.5574
  971SOL     MW 3884   1.803   0.012   2.404 -0.5321 -0.7997 -0.2614
  972SOL     OW 3885   0.254   2.896   2.479  0.0245 -0.4434 -0.0357
  972SOL    HW1 3886   0.308   2.813   2.475  1.0305  0.2729  2.6424
  972SOL    HW2 3887   0.316   2.973   2.470  2.9357  0.7965  1.5584
  972SOL     MW 3888   0.269   2.895   2.477  0.5413 -0.1853  0.5280
  973SOL     OW 3889   2.620   0.011   2.076 -0.3650 -0.5126 -0.0197
  973SOL    HW1 3890   2.582  -0.080   2.067  0.3241  1.8505 -0.1660
  973SOL    HW2 3891   2.606   0.050   1.988  0.5129 -1.2897  1.4397
  973SOL     MW 3892   2.613   0.004   2.063 -0.1583 -0.3033  0.1535
  974SOL     OW 3893   2.041   0.182   2.727  0.1678 -0.4843 -0.7545
  974SOL    HW1 3894   2.135   0.162   2.722 -1.5239 -0.7090 -1.3327
  974SOL    HW2 3895   2.009   0.136   2.802  0.9023 -0.3972  0.1294
  974SOL     MW 3896   2.049   0.173   2.736  0.0416 -0.5024 -0.7141
  975SOL     OW 3897   2.199   2.501   2.508 -0.1728 -0.2967 -0.1154
  975SOL    HW1 3898   2.289   2.534   2.522  0.0091 -1.1094  0.6398
  975SOL    HW2 3899   2.140   2.572   2.472 -1.2223 -2.1369 -0.9838
  975SOL     MW 3900   2.203   2.515   2.505 -0.2873 -0.6468 -0.1304
  976SOL     OW 3901   0.175   0.387   1.763 -1.0091  0.4987 -0.4936
  976SOL    HW1 3902   0.234   0.327   1.815  2.1355 -0.9212  0.5044
  976SOL    HW2 3903   0.112   0.327   1.711 -1.3013 -0.5745 -0.9457
  976SOL     MW 3904   0.175   0.371   1.763 -0.6328  0.1698 -0.4216
  977SOL     OW 3905   1.721   2.695   2.520 -0.8209  0.0704 -0.2923
  977SOL    HW1 3906   1.709   2.595   2.518  0.4399 -2.1395  2.6247
  977SOL    HW2 3907   1.815   2.701   2.497  1.0803 -0.2322  0.1673
  977SOL     MW 3908   1.732   2.682   2.517 -0.4037 -0.2611  0.1532
   3.10000   3.10000   3.10000
