977 TIP4P/2005f water molecules t=   0.05000 step= 50
 3908
    1SOL     OW    1   0.192   0.773   3.087 -0.3317  0.4694  0.1627
    1SOL    HW1    2   0.163   0.778   2.993 -1.0838 -2.6774  0.2155
    1SOL    HW2    3   0.229   0.683   3.088  1.1453 -0.1504 -2.8158
    1SOL     MW    4   0.193   0.762   3.075 -0.2361 -0.0276 -0.2233
    2SOL     OW    5   0.339   3.041   1.095  0.1007  0.2806  0.2488
    2SOL    HW1    6   0.402   3.114   1.076  1.4267 -1.8006 -2.8874
    2SOL    HW2    7   0.258   3.086   1.129 -0.6143  0.6063  1.3107
    2SOL     MW    8   0.337   3.057   1.097  0.1813  0.0490 -0.0249
    3SOL     OW    9   2.764   0.368   0.884 -0.2333  0.0730 -0.5054
    3SOL    HW1   10   2.740   0.444   0.832  0.0701  0.4844  1.4894
    3SOL    HW2   11   2.735   0.398   0.977 -1.6941  2.3965  1.3385
    3SOL     MW   12   2.757   0.382   0.889 -0.3860  0.4338  0.0011
    4SOL     OW   13   3.092   1.680   0.729 -0.1259  0.5045 -0.2948
    4SOL    HW1   14   3.023   1.717   0.668  1.0316 -3.3842 -2.4634
    4SOL    HW2   15   3.152   1.627   0.675  1.2446 -0.8097  1.4275
    4SOL     MW   16   3.091   1.678   0.713  0.2077 -0.1819 -0.3537
    5SOL     OW   17   1.673   1.438   0.545  0.0353  0.1027 -0.3881
    5SOL    HW1   18   1.745   1.397   0.604  0.0367 -0.9709  2.1324
    5SOL    HW2   19   1.593   1.412   0.581  1.2047  3.0035 -2.5226
    5SOL     MW   20   1.672   1.429   0.558  0.1898  0.3438 -0.3372
    6SOL     OW   21   0.832   1.351   0.570  0.2479 -0.6695 -0.0632
    6SOL    HW1   22   0.742   1.356   0.608  2.0847  0.2195 -0.9318
    6SOL    HW2   23   0.868   1.274   0.623 -0.9866 -0.8134  0.7636
    6SOL     MW   24   0.825   1.341   0.582  0.3274 -0.5712 -0.0687
    7SOL     OW   25   1.984   1.061   3.028 -0.2131 -0.0782  0.7478
    7SOL    HW1   26   2.026   1.109   2.955  0.6320 -1.7762  0.6248
    7SOL    HW2   27   2.015   1.116   3.096  0.3304  3.4258 -1.6747
    7SOL     MW   28   1.994   1.075   3.028 -0.0299  0.1601  0.4119
    8SOL     OW   29   1.014   1.319   1.058  0.3488 -0.0564  0.0312
    8SOL    HW1   30   1.103   1.301   1.066  1.6317  2.9527  0.0275
    8SOL    HW2   31   0.973   1.238   1.069  0.1958  1.5375 -0.2647
    8SOL     MW   32   1.020   1.306   1.061  0.4979  0.5509 -0.0084
    9SOL     OW   33   0.996   0.483   1.457  0.1267  0.1297 -0.3854
    9SOL    HW1   34   0.965   0.393   1.443 -0.0757  0.3863 -0.2103
    9SOL    HW2   35   1.062   0.480   1.525 -1.6813 -0.3049 -1.0710
    9SOL     MW   36   1.001   0.471   1.464 -0.1385  0.1062 -0.4528
   10SOL     OW   37   0.303   0.857   0.428  0.1228  0.0157 -0.2907
   10SOL    HW1   38   0.403   0.871   0.416 -0.7699 -1.8154 -0.7320
   10SOL    HW2   39   0.265   0.926   0.486 -0.5527 -0.1958  0.8154
   10SOL     MW   40   0.311   0.868   0.434 -0.0841 -0.2538 -0.2030
   11SOL     OW   41   0.925   1.074   1.577  0.2797  0.2194 -0.6096
   11SOL    HW1   42   0.940   1.095   1.673 -1.7138  0.2014  0.8693
   11SOL    HW2   43   0.829   1.045   1.562 -2.6531  1.0530 -1.0882
   11SOL     MW   44   0.915   1.073   1.588 -0.3703  0.3270 -0.4776
   12SOL     OW   45   3.046   1.035   0.870  0.0904  0.2856  0.2894
   12SOL    HW1   46   3.093   1.114   0.901  3.3986  0.8760 -1.1785
   12SOL    HW2   47   2.987   1.060   0.802 -5.2529  1.0015  0.1971
   12SOL     MW   48   3.044   1.049   0.865 -0.1781  0.4580  0.0836
   13SOL     OW   49   1.925   1.384   1.441 -0.1181  0.2821  0.2122
   13SOL    HW1   50   1.964   1.345   1.364 -1.0434  0.0036 -1.9130
   13SOL    HW2   51   1.900   1.476   1.420  0.6196 -0.4915 -1.1110
   13SOL     MW   52   1.927   1.391   1.428 -0.1429  0.1433 -0.2428
   14SOL     OW   53   0.617   0.376   1.775 -0.2686  0.3977 -0.0463
   14SOL    HW1   54   0.643   0.303   1.721  1.0825  0.6998 -2.2605
   14SOL    HW2   55   0.692   0.393   1.837  0.2265  0.5547  1.0452
   14SOL     MW   56   0.630   0.369   1.776 -0.0250  0.4583 -0.1944
   15SOL     OW   57   1.998   0.576   0.948  0.5915 -0.4358 -0.5723
   15SOL    HW1   58   2.012   0.580   1.044 -0.5466  0.0862  0.4443
   15SOL    HW2   59   2.072   0.534   0.908 -0.5267 -2.1923 -0.4675
   15SOL     MW   60   2.009   0.571   0.956  0.2938 -0.5987 -0.4243
   16SOL     OW   61   0.136   1.760   0.285 -0.0787  0.4242 -0.8011
   16SOL    HW1   62   0.210   1.707   0.306 -0.2009 -0.9123  0.8171
   16SOL    HW2   63   0.151   1.845   0.325  0.1431 -1.2349 -0.7382
   16SOL     MW   64   0.148   1.764   0.293 -0.0656  0.0289 -0.5793
   17SOL     OW   65   1.162   0.787   1.454  0.3999 -0.7708  0.2956
   17SOL    HW1   66   1.160   0.830   1.541 -0.1918  2.7647  0.7393
   17SOL    HW2   67   1.073   0.786   1.421 -0.1443  3.3304 -1.8958
   17SOL     MW   68   1.150   0.792   1.461  0.2500  0.2368  0.0650
   18SOL     OW   69   3.094   1.544   0.382  0.3051  0.2832  0.0630
   18SOL    HW1   70   3.124   1.622   0.332  0.7154  2.6566  1.2125
   18SOL    HW2   71   3.092   1.468   0.325  0.1489  1.3747  1.5839
   18SOL     MW   72   3.098   1.544   0.368  0.3386  0.7404  0.4154
   19SOL     OW   73   0.046   1.269   1.032  0.3785 -0.6796 -0.1793
   19SOL    HW1   74   0.104   1.330   0.986 -0.1101 -0.8221  0.2329
   19SOL    HW2   75  -0.047   1.303   1.040  0.4456 -4.1784  1.6881
   19SOL     MW   76   0.041   1.281   1.027  0.3229 -1.1600  0.1215
   20SOL     OW   77   0.478   2.172   1.283  0.4493  0.2052  0.2628
   20SOL    HW1   78   0.443   2.121   1.205  0.2166 -1.7799 -0.5342
   20SOL    HW2   79   0.408   2.203   1.342  0.0295  0.0976  1.1208
   20SOL     MW   80   0.464   2.169   1.281  0.3632 -0.0709  0.2708
   21SOL     OW   81   0.576   0.881   0.365  0.0017  0.1047  0.2005
   21SOL    HW1   82   0.624   0.810   0.400 -0.1497  0.9981  1.1244
   21SOL    HW2   83   0.549   0.857   0.271 -0.6032 -0.2383 -0.6419
   21SOL     MW   84   0.579   0.868   0.357 -0.0981  0.1773  0.2112
   22SOL     OW   85   1.601   0.627   1.147  0.1421 -0.2033  0.3555
   22SOL    HW1   86   1.639   0.584   1.068  0.1927  0.5100  2.6079
   22SOL    HW2   87   1.529   0.686   1.115 -2.0872  1.6092 -1.2659
   22SOL     MW   88   1.596   0.629   1.132 -0.1454  0.1299  0.4387
   23SOL     OW   89   3.085   0.698   0.658  0.1813  0.6670  0.4646
   23SOL    HW1   90   3.127   0.618   0.671 -1.1484  0.2623  1.1693
   23SOL    HW2   91   3.134   0.768   0.700 -2.9005 -2.0523  0.5727
   23SOL     MW   92   3.097   0.697   0.665 -0.4007  0.2548  0.5718
   24SOL     OW   93   2.056   2.224   3.075  0.6304  0.0996  0.4497
   24SOL    HW1   94   2.070   2.205   3.168  2.4831 -0.5025 -0.5122
   24SOL    HW2   95   2.099   2.155   3.027  1.6187 -0.5782 -2.3118
   24SOL     MW   96   2.064   2.212   3.081  1.0053 -0.0693 -0.0416
   25SOL     OW   97   0.168   1.492   0.574 -0.0086 -0.4330 -0.3916
   25SOL    HW1   98   0.106   1.511   0.505 -0.1383 -1.3230  0.0929
   25SOL    HW2   99   0.239   1.457   0.516  0.1942 -1.4343  3.1763
   25SOL     MW  100   0.169   1.490   0.557  0.0011 -0.6825  0.1430
   26SOL     OW  101   1.982   1.029   0.390 -0.2921 -0.3296  0.2017
   26SOL    HW1  102   1.886   1.038   0.409  1.5984  0.4656  0.9744
   26SOL    HW2  103   1.996   1.060   0.296 -1.2282  1.5376 -0.5452
   26SOL     MW  104   1.972   1.035   0.380 -0.1661  0.0217  0.2051
   27SOL     OW  105   2.014   1.402   0.240 -0.3320  0.7507 -0.4276
   27SOL    HW1  106   1.932   1.374   0.277  0.6174  2.1997  1.0393
   27SOL    HW2  107   2.055   1.458   0.309  1.1102  1.7248  0.6416
   27SOL     MW  108   2.008   1.406   0.254 -0.0165  1.0704 -0.0930
   28SOL     OW  109   0.291   0.964   1.920  0.6263 -0.1447  0.1737
   28SOL    HW1  110   0.233   0.898   1.937  2.6756  2.5266 -1.9021
   28SOL    HW2  111   0.367   0.926   1.871  0.6049 -0.0154 -0.9595
   28SOL     MW  112   0.294   0.950   1.916  0.8939  0.2248 -0.2497
   29SOL     OW  113   0.255   1.422   0.894  0.4216  0.3880  0.5486
   29SOL    HW1  114   0.236   1.506   0.938  2.3419 -1.1881 -0.7780
   29SOL    HW2  115   0.250   1.439   0.796 -0.2188 -0.0340  1.7163
   29SOL     MW  116   0.251   1.435   0.887  0.5905  0.1244  0.5276
   30SOL     OW  117   0.894   1.031   1.150  0.1725 -0.4081 -0.0685
   30SOL    HW1  118   0.812   1.066   1.180  1.8848  1.1750 -1.0077
   30SOL    HW2  119   0.964   1.035   1.217  2.7057 -3.8083 -3.5108
   30SOL     MW  120   0.892   1.036   1.162  0.7327 -0.6479 -0.6466
   31SOL     OW  121   0.504   0.245   0.149 -0.1443  0.4816  0.4150
   31SOL    HW1  122   0.503   0.185   0.228 -1.5064 -2.1821 -2.1296
   31SOL    HW2  123   0.497   0.193   0.063  0.4020 -0.1919 -1.0579
   31SOL     MW  124   0.503   0.230   0.148 -0.2519  0.0413 -0.1150
   32SOL     OW  125   2.697   1.032   1.161 -0.0460 -0.1129  0.4534
   32SOL    HW1  126   2.637   0.957   1.149  1.3019  1.3352 -2.6275
   32SOL    HW2  127   2.782   0.995   1.122  0.3781  0.2163 -0.6515
   32SOL     MW  128   2.700   1.017   1.154  0.1878  0.1216 -0.0988
   33SOL     OW  129   1.784   1.280   0.331  0.1232  0.0769 -0.1139
   33SOL    HW1  130   1.771   1.192   0.363  1.1115 -1.8840 -1.2601
   33SOL    HW2  131   1.754   1.341   0.403  2.0844 -1.7237 -0.6002
   33SOL     MW  132   1.778   1.276   0.345  0.5123 -0.4194 -0.3293
   34SOL     OW  133   1.277   1.853   1.100  0.0104  0.1552  0.1109
   34SOL    HW1  134   1.200   1.894   1.131 -1.2447  0.3958  0.4557
   34SOL    HW2  135   1.345   1.875   1.161  1.4242 -2.9845 -1.7942
   34SOL     MW  136   1.276   1.861   1.112  0.0313 -0.2273 -0.0950
   35SOL     OW  137   0.355   0.075   1.882  0.1521 -0.0425 -0.5382
   35SOL    HW1  138   0.409   0.033   1.949  2.4963 -1.5944  0.9713
   35SOL    HW2  139   0.380   0.019   1.808 -0.0160  1.2056  0.8584
   35SOL     MW  140   0.366   0.062   1.881  0.4392 -0.0826 -0.1548
   36SOL     OW  141   1.819   1.921   0.470  0.4477 -0.4274  0.0592
   36SOL    HW1  142   1.827   1.928   0.371 -1.4200  0.1015 -0.3353
   36SOL    HW2  143   1.847   1.835   0.504 -1.8206  2.1743  1.2883
   36SOL     MW  144   1.824   1.911   0.461 -0.0980 -0.0144  0.1693
   37SOL     OW  145   1.826   1.976   0.949 -0.3182  0.0983 -0.4453
   37SOL    HW1  146   1.766   1.961   0.882  3.0408  1.3807  2.5109
   37SOL    HW2  147   1.779   2.026   1.021 -0.5589  2.6082  3.1583
   37SOL     MW  148   1.812   1.980   0.950  0.0932  0.5987  0.4202
   38SOL     OW  149   2.818   0.914   0.278  0.3016  0.3469 -0.9138
   38SOL    HW1  150   2.849   0.919   0.370 -0.7606 -0.0493 -3.9075
   38SOL    HW2  151   2.899   0.892   0.230  0.7562  0.6496  0.2843
   38SOL     MW  152   2.832   0.912   0.284  0.2215  0.3346 -1.1507
   39SOL     OW  153   1.442   0.643   0.792  0.4039  0.3356 -0.2836
   39SOL    HW1  154   1.415   0.559   0.820  1.1663  2.3446 -0.1653
   39SOL    HW2  155   1.439   0.703   0.864 -1.6755  2.3256 -3.1826
   39SOL     MW  156   1.438   0.640   0.805  0.2301  0.8633 -0.6505
   40SOL     OW  157   1.296   1.905   0.230 -0.3624 -0.1276  0.5602
   40SOL    HW1  158   1.280   1.819   0.273  2.7449  0.3931 -0.1283
   40SOL    HW2  159   1.331   1.965   0.294 -1.0033  1.4330 -0.4199
   40SOL     MW  160   1.299   1.901   0.244 -0.0370  0.1470  0.3400
   41SOL     OW  161   0.586   0.563   1.556 -0.1935 -0.7564 -0.0323
   41SOL    HW1  162   0.670   0.614   1.568  4.4252  0.9946 -1.7041
   41SOL    HW2  163   0.580   0.510   1.631  1.7114  0.8573 -0.5513
   41SOL     MW  164   0.597   0.563   1.567  0.6672 -0.3125 -0.3214
   42SOL     OW  165   1.393   3.053   1.998  0.2942 -0.4409 -0.2424
   42SOL    HW1  166   1.298   3.050   2.005  3.7739 -0.9410  1.4343
   42SOL    HW2  167   1.429   2.972   2.038  0.7233  0.8272 -0.9462
   42SOL     MW  168   1.385   3.042   2.004  0.8100 -0.3396 -0.1141
   43SOL     OW  169   1.579   0.163   1.580 -0.0615 -0.4653 -0.1271
   43SOL    HW1  170   1.602   0.095   1.515 -1.1007  0.5316  0.8993
   43SOL    HW2  171   1.503   0.130   1.635 -4.5838  1.4215  1.8512
   43SOL     MW  172   1.572   0.150   1.579 -0.7953 -0.0849  0.2693
   44SOL     OW  173   1.339   0.742   1.078 -0.2894 -0.1873  0.4118
   44SOL    HW1  174   1.330   0.837   1.073  0.6236  0.5569  2.3459
   44SOL    HW2  175   1.318   0.718   1.169 -2.3753 -3.0204 -0.6978
   44SOL     MW  176   1.335   0.751   1.089 -0.4442 -0.4629  0.5206
   45SOL     OW  177   1.004   0.835   0.799  0.2274 -0.4946 -0.0197
   45SOL    HW1  178   0.982   0.747   0.832  0.8057  0.4154  1.5551
   45SOL    HW2  179   0.976   0.837   0.698 -1.9415  0.5799  1.9855
   45SOL     MW  180   0.997   0.824   0.790  0.0175 -0.2328  0.4527
   46SOL     OW  181   0.638   1.119   0.603 -0.1759  0.5064 -0.8846
   46SOL    HW1  182   0.658   1.147   0.512 -1.2738  0.6444  2.3805
   46SOL    HW2  183   0.701   1.046   0.620 -0.0896  0.7430  0.4210
   46SOL     MW  184   0.649   1.113   0.593 -0.3094  0.5558 -0.2815
   47SOL     OW  185   0.063   1.829   1.808  0.5422  0.8828 -0.2020
   47SOL    HW1  186   0.155   1.817   1.781  1.4356 -0.8220 -1.7791
   47SOL    HW2  187   0.052   1.822   1.905  0.6533  2.2029  1.4128
   47SOL     MW  188   0.074   1.826   1.817  0.6747  0.8321 -0.1970
   48SOL     OW  189   1.048   0.623   1.006 -0.2018 -0.2018  1.1074
   48SOL    HW1  190   1.012   0.687   1.071 -1.6789 -1.0773 -1.5545
   48SOL    HW2  191   1.142   0.656   0.982  1.0871  2.7362  0.4316
   48SOL     MW  192   1.055   0.636   1.011 -0.2266  0.0703  0.6670
   49SOL     OW  193   1.881   0.733   1.586 -0.3194  0.8449  0.1751
   49SOL    HW1  194   1.802   0.709   1.630 -2.0983 -0.5156 -1.4806
   49SOL    HW2  195   1.923   0.648   1.578  0.5721  1.0908 -0.8579
   49SOL     MW  196   1.876   0.718   1.591 -0.4365  0.6978 -0.1797
   50SOL     OW  197   1.280   1.028   0.576 -0.6527 -0.3409  0.3648
   50SOL    HW1  198   1.254   1.084   0.650  2.6587 -1.8677 -0.5702
   50SOL    HW2  199   1.322   0.953   0.602  0.4827  3.1033  0.7891
   50SOL     MW  200   1.282   1.026   0.589 -0.0660 -0.0879  0.2975
   51SOL     OW  201   0.289   2.905   0.873 -0.1426 -0.2212 -0.0009
   51SOL    HW1  202   0.358   2.837   0.889 -2.4101 -0.1897 -0.5147
   51SOL    HW2  203   0.292   2.952   0.962  0.6752 -1.2818  0.1830
   51SOL     MW  204   0.298   2.902   0.887 -0.3339 -0.3570 -0.0444
   52SOL     OW  205   0.823   1.884   0.477  0.4135  0.0896 -0.3535
   52SOL    HW1  206   0.771   1.961   0.509  2.0682  0.9987  0.6540
   52SOL    HW2  207   0.814   1.894   0.386  0.1743 -0.0855  0.3685
   52SOL     MW  208   0.815   1.895   0.469  0.6003  0.1865 -0.1253
   53SOL     OW  209   0.398   2.049   0.630 -0.3891 -0.3721 -0.5766
   53SOL    HW1  210   0.352   2.008   0.557 -0.0425  0.6721  2.1388
   53SOL    HW2  211   0.370   2.144   0.634  2.1992 -4.2012 -0.2985
   53SOL     MW  212   0.388   2.056   0.621 -0.0019 -0.7396 -0.1816
   54SOL     OW  213   2.179   0.849   0.853 -0.2603  0.0399 -0.0896
   54SOL    HW1  214   2.188   0.810   0.769 -0.0224  0.6979  0.1164
   54SOL    HW2  215   2.086   0.871   0.855 -1.6020  0.6898 -1.1370
   54SOL     MW  216   2.168   0.847   0.842 -0.4059  0.2124 -0.2006
   55SOL     OW  217   0.523   1.451   1.532  0.2087 -0.2986  0.2691
   55SOL    HW1  218   0.523   1.516   1.459 -0.2432  0.8019 -0.2165
   55SOL    HW2  219   0.601   1.391   1.505  0.3181 -0.4950 -0.9184
   55SOL     MW  220   0.533   1.451   1.519  0.1635 -0.1793  0.0483
   56SOL     OW  221   0.477   0.811   0.111  0.0582 -0.1482  0.4183
   56SOL    HW1  222   0.517   0.867   0.050 -2.0395  0.5636  0.2908
   56SOL    HW2  223   0.392   0.788   0.075 -0.1721 -0.4838 -0.2656
   56SOL     MW  224   0.471   0.815   0.098 -0.2489 -0.0986  0.3113
   57SOL     OW  225   1.256   1.217   1.173  0.3003  0.0092 -0.2721
   57SOL    HW1  226   1.345   1.247   1.190 -1.5108  0.8629 -0.1044
   57SOL    HW2  227   1.237   1.149   1.242 -0.7480  0.4816  0.0738
   57SOL     MW  228   1.265   1.212   1.184 -0.0770  0.1842 -0.2043
   58SOL     OW  229   0.657   1.085   1.276 -0.1654 -0.4919 -0.1195
   58SOL    HW1  230   0.570   1.137   1.286 -0.5391  0.9887  1.5350
   58SOL    HW2  231   0.665   1.018   1.345  0.5963 -0.8010 -0.8721
   58SOL     MW  232   0.646   1.083   1.287 -0.1142 -0.3374 -0.0005
   59SOL     OW  233   1.574   1.597   0.320  0.0098 -0.4074 -0.4880
   59SOL    HW1  234   1.589   1.529   0.381 -0.9057  1.6683 -2.0009
   59SOL    HW2  235   1.515   1.663   0.357  1.0761 -1.7642  0.9042
   59SOL     MW  236   1.568   1.597   0.333  0.0297 -0.3126 -0.5039
   60SOL     OW  237   0.043   0.142   1.700 -0.1295  0.1643  0.5530
   60SOL    HW1  238  -0.028   0.197   1.733  1.3000  1.9708  1.6815
   60SOL    HW2  239   0.026   0.054   1.729 -0.5102  0.1014  1.8545
   60SOL     MW  240   0.032   0.138   1.708  0.0089  0.3944  0.8736
   61SOL     OW  241   2.016   1.479   3.046 -0.2559 -0.3122  0.7820
   61SOL    HW1  242   2.047   1.512   3.131 -2.2812  0.7105 -1.0165
   61SOL    HW2  243   2.055   1.396   3.037  0.0273  2.9275 -1.4687
   61SOL     MW  244   2.025   1.472   3.056 -0.4858  0.2502  0.2478
   62SOL     OW  245   0.588   1.620   0.546 -0.0369 -0.0213  0.4376
   62SOL    HW1  246   0.651   1.596   0.469  0.3066  1.6521  0.0113
   62SOL    HW2  247   0.568   1.529   0.582  0.2593 -1.0173  0.8297
   62SOL     MW  248   0.594   1.605   0.541  0.0475  0.0681  0.4331
   63SOL     OW  249   1.706   0.786   0.746  0.3070 -0.1320  0.0055
   63SOL    HW1  250   1.716   0.770   0.653  3.4254  0.1211  0.6499
   63SOL    HW2  251   1.627   0.732   0.756  0.5503 -0.1673 -0.1206
   63SOL     MW  252   1.697   0.777   0.735  0.7505 -0.1033  0.0739
   64SOL     OW  253   0.255   1.683   0.955  0.5848 -0.2759  0.2179
   64SOL    HW1  254   0.329   1.703   0.896  1.4241  1.4146 -1.5638
   64SOL    HW2  255   0.194   1.748   0.924  0.6364  0.4195 -2.0165
   64SOL     MW  256   0.256   1.694   0.943  0.7024  0.0389 -0.3120
   65SOL     OW  257   1.578   2.253   0.322 -1.1573 -0.9454  0.5632
   65SOL    HW1  258   1.634   2.238   0.245  0.9411 -1.6885 -1.6062
   65SOL    HW2  259   1.608   2.339   0.368 -1.0264 -0.5998  2.1639
   65SOL     MW  260   1.589   2.263   0.318 -0.8632 -0.9979  0.4881
   66SOL     OW  261   0.297   0.610   0.547 -0.4512  0.2859  0.0487
   66SOL    HW1  262   0.351   0.565   0.481 -2.9169 -0.2052  2.3047
   66SOL    HW2  263   0.309   0.699   0.512 -1.4499 -1.7300  1.3801
   66SOL     MW  264   0.306   0.616   0.534 -0.9083 -0.0448  0.5220
   67SOL     OW  265   1.527   0.212   2.008  0.7352  0.1556 -0.0359
   67SOL    HW1  266   1.568   0.248   1.934  0.7891  0.5709  0.8745
   67SOL    HW2  267   1.493   0.124   1.996 -1.2942  1.9316  0.4708
   67SOL     MW  268   1.528   0.205   1.997  0.4746  0.4447  0.1511
   68SOL     OW  269   0.754   0.062   2.990 -0.4473 -0.6724 -0.2667
   68SOL    HW1  270   0.729   0.086   2.896 -0.5966  2.0068 -0.8872
   68SOL    HW2  271   0.754   0.147   3.033  0.4238  0.2583 -4.0190
   68SOL     MW  272   0.750   0.076   2.983 -0.3521 -0.1961 -0.8437
   69SOL     OW  273   1.030   0.171   1.960  0.3326 -0.0820 -0.6033
   69SOL    HW1  274   1.107   0.209   2.007 -0.5498 -3.1536 -0.9355
   69SOL    HW2  275   1.030   0.077   1.986 -1.2511  0.5028  3.2416
   69SOL     MW  276   1.040   0.164   1.970  0.0072 -0.4101 -0.1398
   70SOL     OW  277   0.587   1.826   1.152  0.3779 -0.1012  0.3487
   70SOL    HW1  278   0.605   1.750   1.208  1.1404  1.3544  0.5423
   70SOL    HW2  279   0.671   1.830   1.096 -1.8652 -1.7978  0.1335
   70SOL     MW  280   0.601   1.816   1.152  0.1826 -0.1330  0.3458
   71SOL     OW  281   1.826   0.647   1.325 -0.2731  0.6779  0.0227
   71SOL    HW1  282   1.800   0.672   1.411 -1.4413  1.1722  1.0586
   71SOL    HW2  283   1.748   0.641   1.272  0.1877  1.5934  0.7145
   71SOL     MW  284   1.812   0.649   1.329 -0.3664  0.8639  0.2507
   72SOL     OW  285   0.827   1.828   1.018 -0.2401 -0.1340  0.0188
   72SOL    HW1  286   0.825   1.883   0.940  0.3568 -1.2228 -2.3391
   72SOL    HW2  287   0.846   1.739   0.982 -0.6073  0.7709  2.0527
   72SOL     MW  288   0.829   1.823   1.003 -0.2098 -0.1582 -0.0239
   73SOL     OW  289   1.329   0.609   1.320  0.6684  0.3330  0.1289
   73SOL    HW1  290   1.276   0.541   1.275  1.2180  0.5422 -0.9840
   73SOL    HW2  291   1.266   0.643   1.385 -0.7932 -1.7480 -0.6257
   73SOL     MW  292   1.314   0.604   1.322  0.5481  0.0860 -0.1175
   74SOL     OW  293   2.793   0.093   1.029 -0.0755  0.3299 -0.3503
   74SOL    HW1  294   2.751   0.074   0.950  0.3410  0.4235  0.9612
   74SOL    HW2  295   2.885   0.105   1.005 -0.6831  1.3553  0.3375
   74SOL     MW  296   2.799   0.092   1.015 -0.1007  0.4775 -0.0865
   75SOL     OW  297   1.653   1.286   0.088  0.4116  0.1445  0.4703
   75SOL    HW1  298   1.690   1.294   0.182  0.9820  0.5378 -1.1861
   75SOL    HW2  299   1.664   1.190   0.063  0.3410  1.0160  0.1593
   75SOL     MW  300   1.659   1.275   0.097  0.4775  0.3114  0.2107
   76SOL     OW  301   2.939   0.627   0.456 -0.1246  0.0151  0.8180
   76SOL    HW1  302   2.984   0.672   0.534  1.1038  0.0733 -1.5457
   76SOL    HW2  303   3.009   0.620   0.388  0.2926  0.7546  0.7725
   76SOL     MW  304   2.954   0.632   0.457  0.0925  0.1203  0.5002
   77SOL     OW  305   0.922   0.488   0.519  0.3303 -0.1791  0.0652
   77SOL    HW1  306   0.891   0.569   0.476 -0.2051  1.1817  0.5594
   77SOL    HW2  307   0.855   0.418   0.508  1.0235 -1.6293 -0.2704
   77SOL     MW  308   0.909   0.489   0.512  0.3511 -0.1909  0.0861
   78SOL     OW  309   0.902   0.746   1.209 -0.3948 -0.1718 -0.0360
   78SOL    HW1  310   0.849   0.685   1.262 -1.0359  2.0578 -0.5689
   78SOL    HW2  311   0.853   0.827   1.211 -1.4583 -0.5323 -3.0686
   78SOL     MW  312   0.889   0.749   1.216 -0.6197  0.0748 -0.5064
   79SOL     OW  313   1.857   1.650   0.575 -0.2349 -0.0764  0.5842
   79SOL    HW1  314   1.797   1.573   0.566 -0.7660 -1.5099  2.1890
   79SOL    HW2  315   1.884   1.643   0.667  3.7705  1.5491  2.4242
   79SOL     MW  316   1.853   1.639   0.586  0.2235 -0.0511  1.0387
   80SOL     OW  317   0.161   1.080   0.285  0.1672 -0.3153 -0.4360
   80SOL    HW1  318   0.088   1.034   0.328 -0.0181 -2.0588  2.8941
   80SOL    HW2  319   0.232   1.030   0.317  0.5460 -0.5108 -2.7978
   80SOL     MW  320   0.161   1.067   0.295  0.1927 -0.5711 -0.3083
   81SOL     OW  321   1.901   1.898   0.212  0.4202 -0.0041  0.0864
   81SOL    HW1  322   1.855   1.824   0.168  0.7099  0.9115 -0.8275
   81SOL    HW2  323   1.878   1.972   0.164 -0.3237 -0.9875  3.6771
   81SOL     MW  324   1.892   1.898   0.200  0.3603 -0.0130  0.4396
   82SOL     OW  325   0.882   0.860   0.544 -0.7858  0.4582 -0.0201
   82SOL    HW1  326   0.948   0.878   0.476 -1.3745 -0.5777 -1.8238
   82SOL    HW2  327   0.811   0.802   0.511 -0.5611 -2.4300  0.7055
   82SOL     MW  328   0.881   0.855   0.531 -0.8338 -0.0596 -0.1623
   83SOL     OW  329   0.068   0.580   1.362 -0.0711  0.0606 -0.0389
   83SOL    HW1  330   0.096   0.669   1.333  0.2407 -0.6588  0.4137
   83SOL    HW2  331   0.136   0.522   1.386  1.1592  1.5192  0.7214
   83SOL     MW  332   0.080   0.584   1.361  0.1324  0.1582  0.1212
   84SOL     OW  333   0.061   0.285   1.068 -0.6493 -0.5318  0.0226
   84SOL    HW1  334   0.017   0.270   0.983 -1.0242  1.1202  1.4060
   84SOL    HW2  335   0.075   0.200   1.113 -0.3606  0.2361  1.0409
   84SOL     MW  336   0.057   0.272   1.063 -0.6607 -0.2125  0.3394
   85SOL     OW  337   0.478   0.403   0.712  0.0184 -0.1208  0.4167
   85SOL    HW1  338   0.403   0.447   0.664 -3.7460  0.4443  0.2153
   85SOL    HW2  339   0.426   0.345   0.771 -2.6445 -1.8686  0.2888
   85SOL     MW  340   0.461   0.401   0.714 -0.8296 -0.2768  0.3732
   86SOL     OW  341   1.133   0.452   1.208  0.1296 -0.4992 -0.0170
   86SOL    HW1  342   1.098   0.509   1.133  0.2818  2.1796  1.1962
   86SOL    HW2  343   1.055   0.441   1.265  0.0630 -0.8844  1.1083
   86SOL     MW  344   1.118   0.458   1.206  0.1409 -0.1966  0.2915
   87SOL     OW  345   1.256   1.439   1.365  0.3695 -0.9714 -0.2020
   87SOL    HW1  346   1.261   1.495   1.285  0.1926 -0.3996  0.7870
   87SOL    HW2  347   1.242   1.349   1.329 -1.9003 -1.6018  0.0467
   87SOL     MW  348   1.255   1.434   1.350  0.0467 -0.9791 -0.0387
   88SOL     OW  349   1.348   1.015   1.002  0.1811  0.1080  0.5817
   88SOL    HW1  350   1.438   1.004   1.011 -0.6849  2.2617 -1.8185
   88SOL    HW2  351   1.317   1.079   1.063  3.4593  1.5560 -2.3763
   88SOL     MW  352   1.355   1.022   1.011  0.4993  0.5832 -0.1252
   89SOL     OW  353   1.822   0.567   0.312  0.0293 -0.8805 -0.4121
   89SOL    HW1  354   1.874   0.492   0.343  1.0357  0.4416 -1.1745
   89SOL    HW2  355   1.876   0.608   0.239  0.9152  1.7421  0.2724
   89SOL     MW  356   1.836   0.563   0.306  0.2789 -0.3600 -0.4224
   90SOL     OW  357   0.780   1.239   2.840 -0.3387  0.2354 -0.1088
   90SOL    HW1  358   0.794   1.145   2.828 -1.5163 -1.8921  1.0764
   90SOL    HW2  359   0.847   1.268   2.892 -1.2616  2.3139 -0.5005
   90SOL     MW  360   0.791   1.230   2.845 -0.6159  0.2289 -0.0041
   91SOL     OW  361   1.942   0.778   0.471  0.7737 -0.3095 -0.2097
   91SOL    HW1  362   1.954   0.866   0.422  2.8330 -1.7442  0.8940
   91SOL    HW2  363   1.909   0.709   0.411  0.1028 -2.5256 -0.7593
   91SOL     MW  364   1.939   0.780   0.457  0.9569 -0.7912 -0.1366
   92SOL     OW  365   1.646   0.765   0.457  0.3544 -0.3276  0.1126
   92SOL    HW1  366   1.555   0.749   0.486 -0.1397 -0.6939  1.4976
   92SOL    HW2  367   1.674   0.691   0.402  2.7021 -1.6901 -1.4709
   92SOL     MW  368   1.638   0.753   0.453  0.5989 -0.5557  0.0864
   93SOL     OW  369   0.993   0.230   0.393 -0.1498 -0.2945  0.1551
   93SOL    HW1  370   0.975   0.320   0.411 -1.4513 -1.0517 -0.1457
   93SOL    HW2  371   0.912   0.211   0.343  1.2421 -1.7337 -1.1673
   93SOL     MW  372   0.980   0.239   0.389 -0.1379 -0.5843 -0.0591
   94SOL     OW  373   1.971   1.297   1.694 -0.4396 -0.4402  0.2703
   94SOL    HW1  374   1.952   1.314   1.603  1.9354  1.3884 -1.6553
   94SOL    HW2  375   1.917   1.235   1.733  0.8742  0.1492 -1.6736
   94SOL     MW  376   1.961   1.291   1.687  0.0471 -0.1212 -0.2402
   95SOL     OW  377   0.924   1.569   1.010 -0.1621  0.1221 -0.0851
   95SOL    HW1  378   0.939   1.478   1.035 -2.6022  1.0525  0.4998
   95SOL    HW2  379   1.002   1.608   1.033 -0.8166 -0.5458  0.3120
   95SOL     MW  380   0.937   1.562   1.016 -0.5704  0.1568  0.0445
   96SOL     OW  381   1.298   1.801   1.711 -0.9881 -0.5264 -0.2223
   96SOL    HW1  382   1.202   1.781   1.716 -3.2793 -0.1423  0.2219
   96SOL    HW2  383   1.337   1.730   1.657 -1.9175 -0.6836  0.8641
   96SOL     MW  384   1.291   1.789   1.705 -1.4130 -0.4965 -0.0203
   97SOL     OW  385   1.210   1.448   0.868 -0.1245  0.3401  0.0210
   97SOL    HW1  386   1.233   1.483   0.954 -0.9577 -0.7821 -1.4905
   97SOL    HW2  387   1.132   1.505   0.832 -1.5340  0.6609 -1.0917
   97SOL     MW  388   1.203   1.460   0.874 -0.4204  0.2343 -0.3252
   98SOL     OW  389   1.546   1.273   1.156 -0.0752  0.3083  0.4514
   98SOL    HW1  390   1.540   1.363   1.194 -1.7998 -0.5755  2.1212
   98SOL    HW2  391   1.548   1.286   1.063 -1.0500  1.6181  0.7524
   98SOL     MW  392   1.545   1.287   1.149 -0.4314  0.3645  0.7114
   99SOL     OW  393   1.439   0.378   1.202  0.3415  0.3294 -0.0733
   99SOL    HW1  394   1.486   0.456   1.185  0.7040  1.4407  0.3415
   99SOL    HW2  395   1.391   0.389   1.287  0.9072  0.9311  2.5646
   99SOL     MW  396   1.439   0.389   1.211  0.4639  0.5554  0.3295
  100SOL     OW  397   1.086   1.056   1.355  0.3550  0.0902 -0.3824
  100SOL    HW1  398   1.044   1.074   1.447  2.5243  2.4831 -0.1235
  100SOL    HW2  399   1.131   0.975   1.367  1.2955  2.9973  2.1423
  100SOL     MW  400   1.087   1.048   1.369  0.7653  0.7894 -0.0151
  101SOL     OW  401   0.652   1.153   0.353  0.3440  0.5278 -0.6316
  101SOL    HW1  402   0.615   1.057   0.350 -0.6488  0.0571  1.5274
  101SOL    HW2  403   0.683   1.162   0.264 -1.1156 -1.0612  0.2879
  101SOL     MW  404   0.651   1.141   0.341  0.0204  0.2560 -0.2254
  102SOL     OW  405   2.911   0.651   0.930  0.2904 -0.7930 -0.3143
  102SOL    HW1  406   2.985   0.692   0.889  2.0091  1.6632 -0.2446
  102SOL    HW2  407   2.939   0.635   1.022  0.9174  0.0445 -0.1176
  102SOL     MW  408   2.924   0.654   0.937  0.5999 -0.3584 -0.2791
  103SOL     OW  409   1.693   0.349   1.766 -1.1917 -0.1556 -0.1040
  103SOL    HW1  410   1.708   0.285   1.697  0.6146  2.6039 -0.2733
  103SOL    HW2  411   1.782   0.344   1.823  1.4744 -0.2180 -1.1101
  103SOL     MW  412   1.707   0.340   1.765 -0.6016  0.2003 -0.2591
  104SOL     OW  413   0.093   1.814   1.484  0.1356  0.3779  0.4293
  104SOL    HW1  414   0.180   1.792   1.456 -2.6875  0.1712  0.3975
  104SOL    HW2  415   0.076   1.749   1.544  2.1170 -0.5716  1.0246
  104SOL     MW  416   0.102   1.802   1.488  0.0245  0.2254  0.5037
  105SOL     OW  417   0.132   1.201   0.544  0.3409 -0.6518  0.1485
  105SOL    HW1  418   0.124   1.176   0.456 -1.4186  1.3832  0.9978
  105SOL    HW2  419   0.182   1.283   0.533  1.7676 -2.3093 -0.5954
  105SOL     MW  420   0.137   1.209   0.531  0.2970 -0.6020  0.1624
  106SOL     OW  421   0.836   0.317   0.917  0.5720 -0.2767 -0.0082
  106SOL    HW1  422   0.769   0.385   0.894 -1.7118  2.1263 -3.0089
  106SOL    HW2  423   0.913   0.334   0.868 -0.3457  1.0813  1.5120
  106SOL     MW  424   0.838   0.328   0.908  0.1496  0.2195 -0.2036
  107SOL     OW  425   0.792   2.199   3.072 -0.3018 -0.1947  0.1693
  107SOL    HW1  426   0.760   2.139   3.005  1.1697  2.6147  0.5541
  107SOL    HW2  427   0.872   2.156   3.101  1.9132 -1.0666 -0.3524
  107SOL     MW  428   0.798   2.185   3.067  0.1846  0.0609  0.1512
  108SOL     OW  429   1.386   1.577   1.576  0.2512  0.4747 -0.2577
  108SOL    HW1  430   1.347   1.546   1.501  0.6608  1.2257 -1.3604
  108SOL    HW2  431   1.437   1.505   1.604  1.6578  2.6578 -0.8670
  108SOL     MW  432   1.387   1.563   1.570  0.4909  0.8618 -0.4836
  109SOL     OW  433   1.966   0.763   0.174  0.2956  0.5464  0.1315
  109SOL    HW1  434   1.930   0.776   0.081  1.0555 -3.8180 -0.5911
  109SOL    HW2  435   2.055   0.796   0.177 -0.7487  0.5186  0.2620
  109SOL     MW  436   1.973   0.769   0.162  0.2581 -0.0331  0.0534
  110SOL     OW  437   0.450   1.795   0.744 -0.5129 -0.1922 -0.0777
  110SOL    HW1  438   0.494   1.747   0.666  1.6491 -2.0866 -0.6522
  110SOL    HW2  439   0.432   1.878   0.705  2.2138 -0.4286 -1.4426
  110SOL     MW  440   0.454   1.800   0.729  0.1321 -0.4734 -0.3336
  111SOL     OW  441   0.695   0.914   1.493 -0.0689  0.2918 -0.1633
  111SOL    HW1  442   0.746   0.830   1.519 -2.0067 -0.5782  2.1054
  111SOL    HW2  443   0.613   0.906   1.542  0.5269 -0.2644 -1.2698
  111SOL     MW  444   0.691   0.902   1.503 -0.2460  0.1036 -0.0100
  112SOL     OW  445   1.300   1.146   1.600 -0.0058 -0.2004 -0.2883
  112SOL    HW1  446   1.250   1.223   1.644 -1.1002 -0.2140 -0.1685
  112SOL    HW2  447   1.271   1.068   1.643 -1.1315  1.2892 -1.2855
  112SOL     MW  448   1.290   1.146   1.611 -0.2987 -0.0056 -0.4041
  113SOL     OW  449   1.354   0.039   1.697  0.5379  0.1725  0.3184
  113SOL    HW1  450   1.383  -0.009   1.773 -0.0682  1.7754  1.6437
  113SOL    HW2  451   1.362  -0.025   1.632  1.0732  2.1471 -0.0797
  113SOL     MW  452   1.359   0.024   1.699  0.5286  0.6445  0.4407
  114SOL     OW  453   0.447   2.799   1.845  0.1688  0.5933 -0.4305
  114SOL    HW1  454   0.466   2.859   1.917  0.1373  0.2599  2.0003
  114SOL    HW2  455   0.438   2.861   1.773 -3.6597  1.8717 -0.3928
  114SOL     MW  456   0.448   2.815   1.845 -0.3405  0.7180 -0.1048
  115SOL     OW  457   0.371   0.843   1.051  0.0459  0.4158  0.1487
  115SOL    HW1  458   0.412   0.768   1.090 -0.4183  0.1215  0.4239
  115SOL    HW2  459   0.358   0.905   1.128 -0.7043 -1.3822  0.4153
  115SOL     MW  460   0.375   0.841   1.066 -0.1144  0.1397  0.2202
  116SOL     OW  461   0.776   0.962   0.914 -0.2325 -0.2917  0.0458
  116SOL    HW1  462   0.849   0.972   0.848 -1.4114  0.7240 -3.0275
  116SOL    HW2  463   0.814   0.953   1.002  0.6644 -2.5355  1.8648
  116SOL     MW  464   0.790   0.962   0.917 -0.2697 -0.4537 -0.1197
  117SOL     OW  465   1.219   1.183   0.798  0.0567  0.1933 -0.3839
  117SOL    HW1  466   1.255   1.124   0.864 -0.0580 -0.6048  2.6080
  117SOL    HW2  467   1.210   1.274   0.827  0.6156  2.1490 -1.9609
  117SOL     MW  468   1.223   1.187   0.810  0.1153  0.3460 -0.1972
  118SOL     OW  469   3.101   2.976   1.727  0.2505 -0.2687  0.0913
  118SOL    HW1  470   3.146   2.979   1.817  1.0587 -1.6634  2.8214
  118SOL    HW2  471   3.005   2.950   1.731  0.2145  0.5184  2.7163
  118SOL     MW  472   3.094   2.973   1.739  0.3524 -0.3489  0.7979
  119SOL     OW  473   0.485   1.292   1.231 -0.4211 -0.1586  0.4641
  119SOL    HW1  474   0.507   1.296   1.135 -0.4277 -0.3256 -0.0355
  119SOL    HW2  475   0.384   1.289   1.231 -1.8956  1.0442 -1.1586
  119SOL     MW  476   0.475   1.292   1.219 -0.6165 -0.0219  0.1841
  120SOL     OW  477   0.181   0.598   0.962 -0.1802  0.0018 -0.0345
  120SOL    HW1  478   0.239   0.550   1.022 -1.9634 -0.5649 -2.3834
  120SOL    HW2  479   0.213   0.689   0.970  2.1842 -2.7496  0.2044
  120SOL     MW  480   0.193   0.604   0.971 -0.1035 -0.4360 -0.3129
  121SOL     OW  481   1.800   1.040   1.783  0.5004  0.4139 -0.2789
  121SOL    HW1  482   1.735   1.022   1.717 -1.8202 -1.9027 -0.1631
  121SOL    HW2  483   1.832   0.950   1.804 -0.7228 -3.8225 -2.4205
  121SOL     MW  484   1.795   1.026   1.777  0.0328 -0.4507 -0.5462
  122SOL     OW  485   0.126   0.479   0.718 -0.5459 -0.2010 -0.2121
  122SOL    HW1  486   0.189   0.540   0.669  0.7776  0.7517  1.0031
  122SOL    HW2  487   0.120   0.509   0.812 -3.7403  0.1206 -0.7768
  122SOL     MW  488   0.134   0.491   0.724 -0.7928 -0.0328 -0.1263
  123SOL     OW  489   1.725   1.042   0.469  0.2016 -0.2894  0.1006
  123SOL    HW1  490   1.712   0.949   0.482  0.9185  0.6932 -0.6777
  123SOL    HW2  491   1.759   1.056   0.559 -1.3328  0.6750  0.0942
  123SOL     MW  492   1.727   1.031   0.482  0.0937 -0.0326 -0.0030
  124SOL     OW  493   0.633   0.535   0.895  0.2816  0.0323 -0.6441
  124SOL    HW1  494   0.589   0.476   0.835  1.3241 -0.9142 -1.2160
  124SOL    HW2  495   0.633   0.621   0.849  1.1376 -0.2407 -0.8902
  124SOL     MW  496   0.627   0.538   0.881  0.5321 -0.1286 -0.7520
  125SOL     OW  497   0.632   1.640   1.695 -0.4858  0.0313 -0.0312
  125SOL    HW1  498   0.589   1.581   1.636  2.6388 -0.2348 -0.3982
  125SOL    HW2  499   0.606   1.735   1.682 -1.9868  1.2376 -2.8050
  125SOL     MW  500   0.623   1.645   1.685 -0.2716  0.1554 -0.4456
  126SOL     OW  501   2.129   1.608   2.048  0.1637  0.3551 -0.3508
  126SOL    HW1  502   2.177   1.684   2.026 -2.1125  1.7804  1.0473
  126SOL    HW2  503   2.187   1.539   2.075  1.1673 -0.9230 -0.6067
  126SOL     MW  504   2.143   1.609   2.049 -0.0042  0.3745 -0.2001
  127SOL     OW  505   0.637   0.680   1.860 -0.5397  0.0724  0.0892
  127SOL    HW1  506   0.683   0.603   1.900  1.2182 -1.5263  2.5489
  127SOL    HW2  507   0.651   0.754   1.926  0.0055  2.1747 -0.2424
  127SOL     MW  508   0.645   0.679   1.874 -0.2358  0.1388  0.3700
  128SOL     OW  509   1.730   0.731   2.810 -0.2152 -0.1342 -0.0365
  128SOL    HW1  510   1.792   0.699   2.743 -0.7330  2.8214  2.5049
  128SOL    HW2  511   1.713   0.827   2.800 -2.1401 -0.3871  0.5119
  128SOL     MW  512   1.736   0.739   2.800 -0.5375  0.2224  0.3712
  129SOL     OW  513   1.616   0.847   0.201 -0.5911  0.1611  0.3588
  129SOL    HW1  514   1.541   0.795   0.196  1.6550  1.7122  0.2491
  129SOL    HW2  515   1.618   0.858   0.296 -1.5147  2.2986  1.1872
  129SOL     MW  516   1.607   0.841   0.212 -0.4166  0.6478  0.4536
  130SOL     OW  517   0.748   1.523   0.348  0.3275  0.2308 -0.3199
  130SOL    HW1  518   0.767   1.449   0.413 -0.8860  1.6502  0.3212
  130SOL    HW2  519   0.833   1.567   0.326 -2.3613 -0.1409 -0.3018
  130SOL     MW  520   0.762   1.519   0.354 -0.1873  0.3690 -0.2329
  131SOL     OW  521   3.022   0.821   0.083 -0.0654 -1.0507  0.1859
  131SOL    HW1  522   2.990   0.877   0.004 -2.1424  1.0063 -2.7068
  131SOL    HW2  523   3.118   0.822   0.073 -0.5920 -2.1695  0.0440
  131SOL     MW  524   3.030   0.828   0.071 -0.4089 -0.9269 -0.2145
  132SOL     OW  525   2.697   0.111   1.290 -0.4675 -0.1793 -0.2636
  132SOL    HW1  526   2.729   0.090   1.200 -0.8852  0.2943 -0.6043
  132SOL    HW2  527   2.598   0.106   1.280 -0.3288  0.5239 -0.8538
  132SOL     MW  528   2.688   0.108   1.277 -0.5043 -0.0241 -0.3864
  133SOL     OW  529   1.087   0.225   1.694  0.3229 -0.0393  0.3984
  133SOL    HW1  530   1.164   0.172   1.688 -2.0935 -0.1572 -0.7544
  133SOL    HW2  531   1.056   0.213   1.782 -2.4953 -0.0068  0.1421
  133SOL     MW  532   1.093   0.216   1.705 -0.3678 -0.0505  0.2125
  134SOL     OW  533   1.391   2.520   1.479  0.1711 -0.4654 -0.3933
  134SOL    HW1  534   1.328   2.586   1.460  1.5449 -2.2652  0.8191
  134SOL    HW2  535   1.450   2.555   1.551  1.7157 -0.0975 -0.9591
  134SOL     MW  536   1.390   2.533   1.486  0.5562 -0.6543 -0.3080
  135SOL     OW  537   3.000   1.029   2.995  0.2387  0.0551 -0.4868
  135SOL    HW1  538   3.081   1.072   2.993  0.2840 -0.8453 -0.7027
  135SOL    HW2  539   2.925   1.084   3.018  0.4612 -2.2301  0.3840
  135SOL     MW  540   3.001   1.042   2.998  0.2741 -0.3652 -0.4004
  136SOL     OW  541   0.228   2.083   0.881  0.9739 -0.3462  0.3659
  136SOL    HW1  542   0.155   2.021   0.872  2.0011 -2.0349  2.3297
  136SOL    HW2  543   0.299   2.051   0.819 -1.0568  2.5080  1.8865
  136SOL     MW  544   0.228   2.071   0.872  0.8415 -0.1924  0.8256
  137SOL     OW  545   0.663   2.073   0.605 -0.0720  0.4072  0.2453
  137SOL    HW1  546   0.708   2.055   0.686 -1.5735 -0.8011 -0.7349
  137SOL    HW2  547   0.566   2.087   0.618 -2.9212 -2.4169 -0.9222
  137SOL     MW  548   0.656   2.073   0.617 -0.6460 -0.1248 -0.0381
  138SOL     OW  549   0.474   0.588   1.122  0.3462 -0.0248 -0.5579
  138SOL    HW1  550   0.407   0.523   1.140 -0.4034  3.1220 -0.5522
  138SOL    HW2  551   0.519   0.569   1.039 -1.0561  1.5910  0.2217
  138SOL     MW  552   0.471   0.577   1.113  0.0623  0.6036 -0.4543
  139SOL     OW  553   2.705   0.545   1.389  0.1857  0.2189  0.0056
  139SOL    HW1  554   2.746   0.453   1.408 -0.4278 -0.0036  3.3208
  139SOL    HW2  555   2.770   0.601   1.426 -1.7444  1.7438  1.1346
  139SOL     MW  556   2.719   0.540   1.396 -0.1499  0.3907  0.5920
  140SOL     OW  557   0.886   0.284   2.175 -0.5330  0.7863  0.8384
  140SOL    HW1  558   0.933   0.226   2.110  4.0274 -2.2553 -1.1125
  140SOL    HW2  559   0.934   0.277   2.254  2.0221 -0.2469 -1.3712
  140SOL     MW  560   0.899   0.276   2.177  0.4058  0.2487  0.2895
  141SOL     OW  561   1.051   0.679   1.762 -0.3538 -0.3362  0.0524
  141SOL    HW1  562   1.108   0.619   1.712  1.0507 -1.6481 -0.0052
  141SOL    HW2  563   1.097   0.760   1.783  0.3525  1.3631 -0.2649
  141SOL     MW  564   1.064   0.682   1.758 -0.0753 -0.2850  0.0029
  142SOL     OW  565   0.949   1.139   0.718  0.4059  0.0585 -0.5328
  142SOL    HW1  566   0.948   1.058   0.659 -0.5444 -2.2999 -1.1026
  142SOL    HW2  567   1.030   1.156   0.768  1.0787  1.2029 -0.1357
  142SOL     MW  568   0.959   1.131   0.717  0.3693 -0.1017 -0.5555
  143SOL     OW  569   1.899   0.890   1.195  0.2726 -0.3797  0.0531
  143SOL    HW1  570   1.903   0.876   1.096  2.3416  2.5574 -1.9169
  143SOL    HW2  571   1.894   0.801   1.236 -2.5885 -2.7805 -0.3032
  143SOL     MW  572   1.899   0.876   1.187  0.1681 -0.3089 -0.2539
  144SOL     OW  573   0.164   1.256   1.543 -0.4324 -0.5081 -0.2439
  144SOL    HW1  574   0.250   1.212   1.555  1.1436 -0.9972 -0.8420
  144SOL    HW2  575   0.151   1.287   1.631  0.5284  2.0888 -0.1282
  144SOL     MW  576   0.174   1.255   1.556 -0.0977 -0.2300 -0.3076
  145SOL     OW  577   0.297   0.402   1.151 -0.0069  0.5359  0.0500
  145SOL    HW1  578   0.321   0.347   1.223 -1.2486  1.2846  0.4685
  145SOL    HW2  579   0.212   0.371   1.119  0.4054  1.2718  0.9589
  145SOL     MW  580   0.289   0.390   1.156 -0.1163  0.7318  0.2251
  146SOL     OW  581   0.870   1.939   1.365 -0.3516 -0.0960  0.2800
  146SOL    HW1  582   0.924   1.966   1.293  1.1889  0.1957 -3.1779
  146SOL    HW2  583   0.787   1.970   1.338 -0.4267 -2.1006  0.6851
  146SOL     MW  584   0.866   1.947   1.352 -0.1583 -0.3220 -0.1228
  147SOL     OW  585   0.477   0.436   2.852 -0.5081  0.1327 -0.1796
  147SOL    HW1  586   0.402   0.453   2.910  0.8051 -2.7891  4.5831
  147SOL    HW2  587   0.502   0.521   2.820 -0.9243 -1.9520 -2.0107
  147SOL     MW  588   0.471   0.450   2.856 -0.3897 -0.5279  0.2072
  148SOL     OW  589   0.080   0.877   1.290 -0.1723  0.4752  0.2096
  148SOL    HW1  590   0.175   0.900   1.293  0.2036  3.4315 -0.6433
  148SOL    HW2  591   0.048   0.907   1.376 -0.2251 -2.0915 -0.8100
  148SOL     MW  592   0.088   0.884   1.302 -0.1297  0.5266 -0.0375
  149SOL     OW  593   1.432   1.122   1.378 -0.0269 -0.7781  0.0203
  149SOL    HW1  594   1.378   1.147   1.454  1.4203 -1.4862 -1.1249
  149SOL    HW2  595   1.498   1.190   1.362 -0.9034  0.6943  0.3996
  149SOL     MW  596   1.434   1.134   1.386  0.0484 -0.6773 -0.0807
  150SOL     OW  597   1.851   1.339   0.711  0.0802  0.5673 -0.2985
  150SOL    HW1  598   1.881   1.251   0.696  1.4010  0.1411 -2.5079
  150SOL    HW2  599   1.906   1.366   0.787 -1.6081  1.0019 -0.2628
  150SOL     MW  600   1.863   1.331   0.719  0.0317  0.5684 -0.5853
  151SOL     OW  601   1.607   1.801   0.832  0.0780  0.0637 -0.3045
  151SOL    HW1  602   1.534   1.791   0.763 -1.5602 -0.3835 -0.0345
  151SOL    HW2  603   1.586   1.752   0.910 -0.4189  0.2801 -1.1380
  151SOL     MW  604   1.595   1.793   0.833 -0.2037  0.0332 -0.3789
  152SOL     OW  605   0.746   1.327   1.450  0.3312  0.2893  0.7756
  152SOL    HW1  606   0.744   1.259   1.378 -0.3908  0.1246  1.7457
  152SOL    HW2  607   0.837   1.330   1.479  3.7877 -1.2964  0.0451
  152SOL     MW  608   0.758   1.318   1.444  0.6920  0.0584  0.8073
  153SOL     OW  609   2.621   1.212   0.736 -0.2191  0.8677 -0.1580
  153SOL    HW1  610   2.681   1.215   0.662  2.1403 -0.5724 -2.9323
  153SOL    HW2  611   2.574   1.127   0.745  2.9888  1.7013 -3.5472
  153SOL     MW  612   2.622   1.201   0.727  0.5155  0.7877 -0.9712
  154SOL     OW  613   0.320   1.750   1.722 -0.4357 -0.1463 -0.0886
  154SOL    HW1  614   0.373   1.741   1.647  0.9065 -1.8331 -1.7630
  154SOL    HW2  615   0.357   1.681   1.787  0.7382 -0.1179  1.4576
  154SOL     MW  616   0.332   1.739   1.721 -0.1037 -0.3651 -0.1055
  155SOL     OW  617   1.095   0.715   0.245 -0.1868  0.2922  0.4951
  155SOL    HW1  618   1.128   0.659   0.313 -2.5253  1.7601  1.8983
  155SOL    HW2  619   1.106   0.802   0.287  0.3627  0.9115  0.2850
  155SOL     MW  620   1.101   0.719   0.260 -0.4228  0.5676  0.6525
  156SOL     OW  621   1.601   3.034   0.995 -0.0658  0.0099 -0.0427
  156SOL    HW1  622   1.663   3.105   1.016  1.6649  0.3846 -0.9873
  156SOL    HW2  623   1.597   2.966   1.067 -2.1619 -0.9149 -0.4416
  156SOL     MW  624   1.609   3.035   1.007 -0.1140 -0.0627 -0.2200
  157SOL     OW  625   1.367   1.212   0.096  0.9350  0.0554 -0.2263
  157SOL    HW1  626   1.386   1.180   0.185 -0.9569 -0.5666  1.6028
  157SOL    HW2  627   1.448   1.249   0.055 -0.4849 -0.8934 -1.3041
  157SOL     MW  628   1.380   1.213   0.102  0.4981 -0.1519 -0.1272
  158SOL     OW  629   0.384   1.588   2.236  0.4887  0.5802  0.1168
  158SOL    HW1  630   0.368   1.655   2.170 -2.1289  4.4617  2.5848
  158SOL    HW2  631   0.297   1.594   2.277 -0.2412 -0.1659  3.0290
  158SOL     MW  632   0.370   1.598   2.233  0.0470  0.9939  0.8267
  159SOL     OW  633   1.254   1.702   0.402 -0.1254 -0.4070 -0.3818
  159SOL    HW1  634   1.228   1.611   0.371 -0.3512 -1.0717  3.2764
  159SOL    HW2  635   1.176   1.743   0.448 -2.2876  1.6477 -0.6843
  159SOL     MW  636   1.240   1.696   0.404 -0.4404 -0.2236  0.0609
  160SOL     OW  637   0.406   1.082   1.537  0.3777 -0.3776  0.5481
  160SOL    HW1  638   0.415   1.022   1.612  2.7295 -0.5224  0.3117
  160SOL    HW2  639   0.453   1.160   1.572  0.0019 -2.0692  3.0693
  160SOL     MW  640   0.413   1.084   1.551  0.6384 -0.6199  0.8496
  161SOL     OW  641   0.526   2.147   2.657  0.3640 -0.2163 -0.1713
  161SOL    HW1  642   0.443   2.148   2.715 -1.2707 -0.7885  0.8433
  161SOL    HW2  643   0.512   2.082   2.594  1.4726  2.4629  1.0383
  161SOL     MW  644   0.513   2.138   2.656  0.2946  0.0617  0.1222
  162SOL     OW  645   1.021   1.744   1.837  0.0169 -0.6022 -0.1016
  162SOL    HW1  646   1.039   1.832   1.845 -0.4727 -0.8044  0.0342
  162SOL    HW2  647   0.935   1.747   1.866  0.6968 -1.8288  1.4402
  162SOL     MW  648   1.012   1.756   1.842  0.0420 -0.7907  0.1197
  163SOL     OW  649   2.158   0.162   0.997 -0.0765 -0.1440 -0.2156
  163SOL    HW1  650   2.166   0.214   0.909 -0.4709  0.0656 -1.7097
  163SOL    HW2  651   2.089   0.104   0.987  0.0914  2.7138  1.3422
  163SOL     MW  652   2.150   0.161   0.984 -0.1064  0.2607 -0.2072
  164SOL     OW  653   0.308   0.238   0.848 -0.0142 -0.7192 -0.4335
  164SOL    HW1  654   0.242   0.238   0.913 -0.3286  3.1225  2.8609
  164SOL    HW2  655   0.290   0.172   0.780 -2.9985 -1.5492 -0.4467
  164SOL     MW  656   0.297   0.230   0.848 -0.4494 -0.3218 -0.0006
  165SOL     OW  657   1.395   1.189   0.381 -0.2626  0.1260  0.0551
  165SOL    HW1  658   1.342   1.123   0.426  2.5146  0.1009 -1.0569
  165SOL    HW2  659   1.483   1.183   0.415  1.6511  0.3409  0.7530
  165SOL     MW  660   1.400   1.180   0.391  0.3563  0.1510  0.0005
  166SOL     OW  661   0.520   1.063   0.967  0.3412  1.1178  0.3548
  166SOL    HW1  662   0.493   0.975   1.000  0.8790  0.6124  0.2073
  166SOL    HW2  663   0.615   1.057   0.953  3.1128  1.1064  1.8359
  166SOL     MW  664   0.529   1.050   0.969  0.7778  1.0496  0.5308
  167SOL     OW  665   0.957   1.166   0.355  0.3543 -0.9867  0.0547
  167SOL    HW1  666   0.909   1.229   0.403 -1.1788  0.6940  1.7396
  167SOL    HW2  667   0.984   1.214   0.272 -1.2585  2.5558 -2.8497
  167SOL     MW  668   0.954   1.180   0.350 -0.0608 -0.2976 -0.1062
  168SOL     OW  669   1.683   1.746   2.922  0.0967  0.2234  0.1187
  168SOL    HW1  670   1.642   1.815   2.980 -0.6141 -0.9498  2.5026
  168SOL    HW2  671   1.673   1.661   2.961 -2.6316  0.3458 -3.1094
  168SOL     MW  672   1.676   1.744   2.935 -0.3570  0.0847  0.0073
  169SOL     OW  673   0.334   1.002   1.280 -0.1768 -0.6649 -0.0073
  169SOL    HW1  674   0.353   1.013   1.371 -2.8974  0.9945 -2.2379
  169SOL    HW2  675   0.299   1.093   1.251  2.3205  3.3406  1.2769
  169SOL     MW  676   0.332   1.016   1.288 -0.2063  0.0825 -0.1322
  170SOL     OW  677   1.021   1.461   1.540  0.2790 -0.5681  0.0740
  170SOL    HW1  678   0.969   1.536   1.508  0.9335 -2.1713 -1.4358
  170SOL    HW2  679   1.102   1.478   1.498 -1.7594 -0.2482  3.5697
  170SOL     MW  680   1.025   1.473   1.530  0.0964 -0.7374  0.3360
  171SOL     OW  681   0.564   1.370   0.694 -0.2924  0.4987  0.2485
  171SOL    HW1  682   0.557   1.376   0.792 -1.0223  0.4656 -1.5751
  171SOL    HW2  683   0.576   1.274   0.681 -0.2733 -0.8780 -2.6303
  171SOL     MW  684   0.565   1.358   0.705 -0.3862  0.3127 -0.3719
  172SOL     OW  685   0.839   0.284   1.191  0.1295  0.0187  0.6141
  172SOL    HW1  686   0.831   0.315   1.104 -0.7392  0.4580  2.3003
  172SOL    HW2  687   0.764   0.323   1.235  0.0982 -0.5834  1.3085
  172SOL     MW  688   0.828   0.293   1.185  0.0107 -0.0028  0.9282
  173SOL     OW  689   0.397   1.630   0.360  0.6652 -0.0625  0.0072
  173SOL    HW1  690   0.381   1.537   0.366 -1.8791  1.4580 -1.0666
  173SOL    HW2  691   0.455   1.638   0.438  1.3676  0.2329  0.4871
  173SOL     MW  692   0.403   1.619   0.371  0.4222  0.1771 -0.0712
  174SOL     OW  693   2.040   0.936   1.472 -0.2330  0.6115  0.2365
  174SOL    HW1  694   1.989   0.863   1.519 -1.8902 -0.1296  0.5876
  174SOL    HW2  695   1.984   1.011   1.466 -2.9783  0.8735  2.1648
  174SOL     MW  696   2.026   0.936   1.478 -0.8138  0.5483  0.5372
  175SOL     OW  697   0.372   1.367   0.390 -0.0978 -0.2298 -0.3618
  175SOL    HW1  698   0.391   1.368   0.295 -0.8063  1.5019  1.0631
  175SOL    HW2  699   0.440   1.325   0.433 -0.3182  1.9498  0.5706
  175SOL     MW  700   0.383   1.361   0.383 -0.2204  0.2862 -0.0508
  176SOL     OW  701   0.219   1.242   1.246  0.5242 -0.5419  0.2857
  176SOL    HW1  702   0.155   1.243   1.173  1.2217  0.7680  2.4856
  176SOL    HW2  703   0.178   1.272   1.321 -0.3038 -1.5338 -2.3413
  176SOL     MW  704   0.205   1.246   1.246  0.5070 -0.4999  0.2293
  177SOL     OW  705   0.621   0.430   1.283  0.4760 -0.0238  0.1734
  177SOL    HW1  706   0.578   0.499   1.228  2.7150 -0.5363  1.4069
  177SOL    HW2  707   0.642   0.477   1.363  2.0658 -1.1080  0.1873
  177SOL     MW  708   0.618   0.445   1.286  0.9812 -0.2345  0.3380
  178SOL     OW  709   3.100   0.437   3.041 -0.5875  0.0154 -0.3549
  178SOL    HW1  710   3.051   0.475   3.119  1.4083 -0.7568 -1.0211
  178SOL    HW2  711   3.050   0.457   2.967 -0.3148 -0.3232  1.3066
  178SOL     MW  712   3.087   0.445   3.042 -0.2882 -0.1311 -0.2236
  179SOL     OW  713   1.632   1.327   1.486  0.0898 -0.1745 -0.0050
  179SOL    HW1  714   1.638   1.359   1.581 -0.9568  3.3573  0.4377
  179SOL    HW2  715   1.725   1.304   1.456  0.3715 -0.8969  2.1544
  179SOL     MW  716   1.645   1.328   1.495 -0.0111  0.1962  0.3383
  180SOL     OW  717   2.971   0.295   0.499  0.5746  0.3901 -0.4764
  180SOL    HW1  718   2.935   0.291   0.412  1.1263  0.6136  1.0457
  180SOL    HW2  719   3.040   0.356   0.489 -1.8205 -1.4036  1.0234
  180SOL     MW  720   2.975   0.303   0.486  0.3313  0.1829 -0.0777
  181SOL     OW  721   1.136   1.358   3.041  0.1181  0.3389 -0.2411
  181SOL    HW1  722   1.186   1.363   3.118 -1.1193  0.6184 -1.1198
  181SOL    HW2  723   1.204   1.329   2.980  0.0202 -0.2520  0.5323
  181SOL     MW  724   1.151   1.355   3.043 -0.0581  0.2978 -0.2550
  182SOL     OW  725   0.450   0.868   1.723  0.2737 -0.9304 -0.1042
  182SOL    HW1  726   0.374   0.823   1.689  1.2548  2.4109 -2.4615
  182SOL    HW2  727   0.505   0.802   1.753  1.2079  1.1238 -0.3538
  182SOL     MW  728   0.447   0.853   1.722  0.5264 -0.2185 -0.4481
  183SOL     OW  729   1.576   1.518   1.299 -0.1633 -0.1238 -0.6227
  183SOL    HW1  730   1.602   1.593   1.347 -1.0994  0.0305 -2.8198
  183SOL    HW2  731   1.591   1.447   1.371 -0.1514 -0.3401 -0.4110
  183SOL     MW  732   1.581   1.519   1.315 -0.2852 -0.1319 -0.8846
  184SOL     OW  733   0.817   0.472   1.940 -0.2790  0.6289  0.7625
  184SOL    HW1  734   0.895   0.517   1.921 -1.0926 -1.4610 -2.1841
  184SOL    HW2  735   0.834   0.428   2.019 -2.9166 -2.2546 -2.1367
  184SOL     MW  736   0.830   0.472   1.948 -0.7344 -0.0273 -0.0088
  185SOL     OW  737   1.113   0.929   1.965  0.5498 -0.7368 -0.3212
  185SOL    HW1  738   1.097   0.845   2.005  1.4135  0.3233 -1.1996
  185SOL    HW2  739   1.141   0.981   2.043  0.5306  0.0144  2.5580
  185SOL     MW  740   1.114   0.925   1.980  0.6612 -0.4978 -0.0572
  186SOL     OW  741   0.365   1.781   1.453 -0.0252 -0.1998 -0.2359
  186SOL    HW1  742   0.443   1.818   1.419 -0.1200  1.7648  2.2507
  186SOL    HW2  743   0.330   1.731   1.381 -3.2107 -1.4404 -0.0285
  186SOL     MW  744   0.371   1.780   1.439 -0.4580 -0.1043  0.1195
  187SOL     OW  745   1.513   0.737   1.493 -0.0598 -0.3160 -0.0246
  187SOL    HW1  746   1.470   0.735   1.580  0.9703 -1.3842  1.5031
  187SOL    HW2  747   1.463   0.699   1.426  1.6833  0.2704  0.3297
  187SOL     MW  748   1.501   0.732   1.496  0.3061 -0.3795  0.2237
  188SOL     OW  749   1.916   1.074   0.700  0.3580  0.2522  0.1552
  188SOL    HW1  750   1.900   1.014   0.774 -1.4757  1.4405 -0.1914
  188SOL    HW2  751   2.003   1.056   0.666 -2.6524 -0.8492 -1.7108
  188SOL     MW  752   1.926   1.064   0.706 -0.2811  0.2636 -0.1367
  189SOL     OW  753   0.631   0.783   0.734  0.0991 -0.0394  0.7260
  189SOL    HW1  754   0.560   0.844   0.742 -1.7539 -2.7546  0.4173
  189SOL    HW2  755   0.700   0.844   0.766  1.7663  3.4905  0.5626
  189SOL     MW  756   0.631   0.799   0.740  0.0746  0.0681  0.6637
  190SOL     OW  757   1.891   0.344   1.941 -0.3311  0.0793  0.2848
  190SOL    HW1  758   1.960   0.284   1.962 -2.9649  1.2124  2.5088
  190SOL    HW2  759   1.929   0.437   1.950  0.8929  0.9407  0.8529
  190SOL     MW  760   1.905   0.349   1.945 -0.5171  0.3424  0.6532
  191SOL     OW  761   1.629   0.985   1.498 -0.5188 -0.0468 -0.2465
  191SOL    HW1  762   1.556   1.029   1.465  2.0877 -1.5005  0.5566
  191SOL    HW2  763   1.604   0.894   1.481 -0.1049  0.8253  2.4347
  191SOL     MW  764   1.616   0.979   1.491 -0.1203 -0.1236  0.2133
  192SOL     OW  765   0.680   2.044   2.867  0.5575 -0.1399  0.3279
  192SOL    HW1  766   0.622   2.082   2.796 -1.3490  0.4921  0.2530
  192SOL    HW2  767   0.652   1.951   2.869 -2.7146 -1.1055 -1.9686
  192SOL     MW  768   0.669   2.037   2.858 -0.1258 -0.1839  0.0150
  193SOL     OW  769   0.993   1.543   0.755  0.3242 -0.4094  0.2600
  193SOL    HW1  770   0.949   1.538   0.838  0.0084  0.0035 -1.7513
  193SOL    HW2  771   0.950   1.481   0.689 -1.3416  0.7671 -0.9760
  193SOL     MW  772   0.981   1.534   0.757  0.0628 -0.1997 -0.1685
  194SOL     OW  773   0.509   1.356   0.956 -0.3653  0.6310 -0.1398
  194SOL    HW1  774   0.527   1.262   0.952 -0.2212 -3.0728 -1.8562
  194SOL    HW2  775   0.420   1.373   0.920 -3.1981 -1.0279  1.4144
  194SOL     MW  776   0.499   1.346   0.951 -0.7200 -0.0765 -0.1612
  195SOL     OW  777   1.290   1.144   2.909  0.6062  0.2612 -0.0142
  195SOL    HW1  778   1.325   1.141   2.999  0.2269 -0.6067 -0.7937
  195SOL    HW2  779   1.207   1.093   2.912  0.2178  0.5573 -3.6625
  195SOL     MW  780   1.284   1.137   2.921  0.5049  0.1857 -0.5984
  196SOL     OW  781   2.194   1.086   0.592  0.6745  0.3420  0.5302
  196SOL    HW1  782   2.151   1.078   0.502 -0.2390 -1.4340 -1.6775
  196SOL    HW2  783   2.211   1.181   0.609 -3.2594  0.7251  1.1528
  196SOL     MW  784   2.190   1.098   0.582  0.0349  0.1582  0.3211
  197SOL     OW  785   0.535   1.166   1.965 -0.0488  0.0759 -0.8076
  197SOL    HW1  786   0.574   1.074   1.974 -0.5264  1.6035 -1.1148
  197SOL    HW2  787   0.505   1.173   1.880 -1.5390  2.2198  2.8717
  197SOL     MW  788   0.536   1.155   1.955 -0.3084  0.5603 -0.3627
  198SOL     OW  789   2.914   1.425   1.103 -0.3495 -0.5197 -0.4619
  198SOL    HW1  790   2.927   1.519   1.071  4.6059 -0.2879  2.2956
  198SOL    HW2  791   2.842   1.394   1.054 -0.1824 -0.7538 -1.3525
  198SOL     MW  792   2.906   1.433   1.092  0.3263 -0.5200 -0.2156
  199SOL     OW  793   0.420   1.290   1.738  0.1362  0.3309 -0.3298
  199SOL    HW1  794   0.327   1.271   1.753  0.0455 -3.9551  0.3281
  199SOL    HW2  795   0.434   1.362   1.670  0.9236 -3.7576  0.5135
  199SOL     MW  796   0.410   1.297   1.731  0.2281 -0.7740 -0.1317
  200SOL     OW  797   1.938   2.998   1.257 -0.1639  0.0981  0.4152
  200SOL    HW1  798   1.988   3.020   1.180  1.8812  0.8189  0.9218
  200SOL    HW2  799   1.852   3.037   1.249 -0.2563 -2.2105 -1.3536
  200SOL     MW  800   1.933   3.006   1.246  0.0937 -0.1114  0.2487
  201SOL     OW  801   1.044   0.300   0.751  0.3502 -0.3356  0.3274
  201SOL    HW1  802   1.036   0.213   0.727 -3.0595  1.8614  1.2411
  201SOL    HW2  803   1.007   0.354   0.683 -1.9223  2.7293  0.3718
  201SOL     MW  804   1.038   0.296   0.739 -0.3995  0.3587  0.4538
  202SOL     OW  805   1.545   1.597   1.011  0.5455 -0.1346  0.3563
  202SOL    HW1  806   1.561   1.540   0.934  0.2293  0.1538  0.7813
  202SOL    HW2  807   1.583   1.558   1.091  2.5040  1.4412  0.0414
  202SOL     MW  808   1.552   1.585   1.011  0.7622  0.1114  0.3708
  203SOL     OW  809   2.974   0.457   1.196  0.2782  0.7166  0.5900
  203SOL    HW1  810   3.003   0.374   1.144  2.6589 -1.8158  1.5762
  203SOL    HW2  811   3.058   0.484   1.230  3.6280 -0.4496  2.8449
  203SOL     MW  812   2.989   0.450   1.194  1.0343  0.2286  1.0176
  204SOL     OW  813   1.051   1.784   0.564 -0.3930  0.0522 -0.0579
  204SOL    HW1  814   1.027   1.709   0.621 -0.2636 -2.5302 -0.5823
  204SOL    HW2  815   0.965   1.815   0.531  0.0458 -1.0891  0.3119
  204SOL     MW  816   1.036   1.778   0.567 -0.3180 -0.4391 -0.0783
  205SOL     OW  817   1.464   0.090   1.213 -0.4049 -0.5930 -0.1392
  205SOL    HW1  818   1.474   0.076   1.117  2.7441 -1.7389  1.0902
  205SOL    HW2  819   1.422   0.175   1.213 -1.1931 -1.3558  1.4055
  205SOL     MW  820   1.460   0.099   1.201 -0.0934 -0.8448  0.2269
  206SOL     OW  821   0.465   3.068   1.361  0.8976  0.5492  0.3315
  206SOL    HW1  822   0.432   3.033   1.278  2.2906  1.0482  1.8644
  206SOL    HW2  823   0.551   3.018   1.382  1.1123 -0.1253  0.0441
  206SOL     MW  824   0.472   3.057   1.353  1.1097  0.5260  0.4958
  207SOL     OW  825   0.995   1.592   0.244  0.3337  0.3979 -0.1236
  207SOL    HW1  826   1.019   1.680   0.215  0.9563 -4.4434 -1.8410
  207SOL    HW2  827   1.074   1.539   0.244  1.7511  0.3591 -1.3611
  207SOL     MW  828   1.009   1.596   0.240  0.6029 -0.2460 -0.5135
  208SOL     OW  829   0.597   1.581   1.317  0.0484 -0.5478 -0.1735
  208SOL    HW1  830   0.685   1.591   1.341 -0.2086 -1.2538  0.9722
  208SOL    HW2  831   0.589   1.493   1.273  1.5274  1.7666 -1.3702
  208SOL     MW  832   0.607   1.570   1.314  0.2096 -0.3356 -0.1803
  209SOL     OW  833   1.504   0.558   2.795  0.0783 -0.2355  0.2760
  209SOL    HW1  834   1.577   0.620   2.801 -0.7825 -0.9246 -0.1116
  209SOL    HW2  835   1.544   0.473   2.765  0.9650  1.3218 -0.3232
  209SOL     MW  836   1.519   0.555   2.792  0.0817 -0.1210  0.1458
  210SOL     OW  837   1.617   1.353   0.866  0.5238 -0.8959  0.1840
  210SOL    HW1  838   1.704   1.358   0.823  1.1794  1.3996  2.8876
  210SOL    HW2  839   1.565   1.331   0.790  1.6737 -0.0678  0.0796
  210SOL     MW  840   1.622   1.351   0.850  0.7620 -0.4837  0.5270
  211SOL     OW  841   1.742   0.490   0.958 -0.6636  0.2333 -0.0872
  211SOL    HW1  842   1.730   0.453   0.862 -1.7471  1.5900 -0.2011
  211SOL    HW2  843   1.833   0.522   0.956 -0.7954  0.6744 -0.6914
  211SOL     MW  844   1.752   0.489   0.945 -0.8239  0.4705 -0.1819
  212SOL     OW  845   0.323   1.132   0.046  0.2929 -0.0020  0.1144
  212SOL    HW1  846   0.255   1.087   0.104 -3.4538  0.5300 -0.3467
  212SOL    HW2  847   0.386   1.066   0.007 -0.9994  0.0546 -1.6854
  212SOL     MW  848   0.323   1.117   0.048 -0.3720  0.0756 -0.1839
  213SOL     OW  849   0.525   1.699   3.069 -0.3006  0.4455  0.2098
  213SOL    HW1  850   0.527   1.766   3.144 -2.3476  0.1400 -1.7287
  213SOL    HW2  851   0.579   1.737   2.994 -1.3462  1.2110 -1.7600
  213SOL     MW  852   0.533   1.713   3.069 -0.7086  0.5062 -0.3059
  214SOL     OW  853   0.622   0.233   2.284 -0.7125 -0.1696  0.0178
  214SOL    HW1  854   0.576   0.296   2.220  0.2599  2.1425 -0.8374
  214SOL    HW2  855   0.715   0.249   2.257  1.2347 -0.7207 -2.3937
  214SOL     MW  856   0.628   0.244   2.272 -0.3273  0.0628 -0.4132
  215SOL     OW  857   0.478   0.687   2.623  0.5353  0.3650 -0.0619
  215SOL    HW1  858   0.478   0.674   2.529 -0.6296 -0.8201  1.0457
  215SOL    HW2  859   0.384   0.671   2.640  1.1262  3.0091  0.2663
  215SOL     MW  860   0.465   0.684   2.613  0.4596  0.5575  0.1276
  216SOL     OW  861   3.054  -0.001   2.841  0.7574 -0.0893  0.0632
  216SOL    HW1  862   2.961  -0.018   2.859  2.5196  0.7254 -0.1096
  216SOL    HW2  863   3.042   0.078   2.781 -1.7220  0.0211  0.8409
  216SOL     MW  864   3.040   0.007   2.836  0.6628  0.0327  0.1430
  217SOL     OW  865   0.982   1.170   0.074 -0.3350 -0.4310  0.0196
  217SOL    HW1  866   0.990   1.079   0.048  0.1675 -1.2585  1.7976
  217SOL    HW2  867   1.038   1.215   0.014  2.8109  0.5994 -1.1953
  217SOL     MW  868   0.990   1.164   0.062  0.1464 -0.4043  0.0939
  218SOL     OW  869   0.924   1.317   2.495 -0.0775  0.3427 -0.5881
  218SOL    HW1  870   0.962   1.231   2.485  0.1491 -2.6156  2.3476
  218SOL    HW2  871   1.005   1.368   2.527  2.3405 -0.5728  1.9426
  218SOL     MW  872   0.940   1.312   2.498  0.2714 -0.1684  0.1331
  219SOL     OW  873   1.029   0.372   2.588  0.2637 -0.2593 -1.1501
  219SOL    HW1  874   1.099   0.408   2.643 -0.7514 -0.4685  1.4584
  219SOL    HW2  875   0.944   0.409   2.624  0.1676  1.0962 -1.0985
  219SOL     MW  876   1.027   0.382   2.600  0.1171 -0.1081 -0.7991
  220SOL     OW  877   1.732   0.556   2.179  0.9035  0.2230 -0.0656
  220SOL    HW1  878   1.644   0.576   2.142  4.6007 -1.2194  0.6446
  220SOL    HW2  879   1.750   0.465   2.170 -2.5022  0.8215 -2.4822
  220SOL     MW  880   1.723   0.546   2.173  0.9420  0.1117 -0.2907
  221SOL     OW  881   0.385   1.402   2.916 -0.1823  0.5748  0.4854
  221SOL    HW1  882   0.444   1.330   2.905 -0.9737  1.9441 -2.8721
  221SOL    HW2  883   0.405   1.469   2.851  3.4700  0.0464 -0.7348
  221SOL     MW  884   0.395   1.401   2.906  0.1952  0.6858 -0.1185
  222SOL     OW  885   0.389   0.938   2.686  0.6492 -1.0923 -1.1559
  222SOL    HW1  886   0.315   0.957   2.626  2.3619  0.4124  0.1434
  222SOL    HW2  887   0.428   0.857   2.659 -0.0411  1.6370  1.9495
  222SOL     MW  888   0.384   0.930   2.675  0.7841 -0.5337 -0.5747
  223SOL     OW  889   3.042   2.016   2.667 -0.3620 -0.2634  0.1182
  223SOL    HW1  890   3.114   1.960   2.691 -1.0501 -1.6403  3.5336
  223SOL    HW2  891   3.085   2.091   2.620  2.1187 -1.0952 -0.0603
  223SOL     MW  892   3.057   2.019   2.664 -0.1255 -0.5548  0.5452
  224SOL     OW  893   1.547   0.800   2.551 -0.1161 -0.1886  0.9856
  224SOL    HW1  894   1.510   0.775   2.630  1.7574  1.4187  3.0793
  224SOL    HW2  895   1.532   0.894   2.540 -1.5883 -1.7531 -0.6230
  224SOL     MW  896   1.540   0.809   2.560 -0.0632 -0.1830  1.0496
  225SOL     OW  897   2.986   1.519   2.261 -0.2484 -0.4287  0.0212
  225SOL    HW1  898   2.995   1.573   2.178 -0.2228  1.5748 -1.3725
  225SOL    HW2  899   2.908   1.549   2.306 -1.1115  1.6836  2.0633
  225SOL     MW  900   2.977   1.530   2.256 -0.3589  0.1144  0.1068
  226SOL     OW  901   0.421   1.536   2.673  0.3220  0.1575 -0.0309
  226SOL    HW1  902   0.491   1.498   2.626 -2.5031 -0.6356  1.4976
  226SOL    HW2  903   0.426   1.623   2.645  0.1589  0.2267  0.9548
  226SOL     MW  904   0.431   1.542   2.663 -0.0722  0.0620  0.3008
  227SOL     OW  905   0.478   1.171   2.804 -1.1194 -0.0634 -0.0262
  227SOL    HW1  906   0.570   1.171   2.779 -0.3759  1.5045  1.9186
  227SOL    HW2  907   0.448   1.091   2.760 -0.8154  2.9137  3.8505
  227SOL     MW  908   0.486   1.161   2.795 -0.9812  0.5363  0.7419
  228SOL     OW  909   0.671   0.927   1.987  0.0319  0.0132  0.1907
  228SOL    HW1  910   0.754   0.966   1.983 -0.5127 -0.0444 -0.4044
  228SOL    HW2  911   0.645   0.915   2.083  0.5541  1.1335  0.7880
  228SOL     MW  912   0.679   0.930   1.999  0.0289  0.1534  0.1910
  229SOL     OW  913   0.263   0.491   3.065  0.3890 -0.5371  0.0129
  229SOL    HW1  914   0.162   0.467   3.039 -2.9070  0.7148  0.2960
  229SOL    HW2  915   0.265   0.460   3.159  0.4512 -2.2744  0.8314
  229SOL     MW  916   0.250   0.484   3.074 -0.0376 -0.6011  0.1583
  230SOL     OW  917   1.694   1.391   2.103 -0.2404 -0.4032 -0.2861
  230SOL    HW1  918   1.673   1.381   2.192  0.0493 -0.3628  1.3621
  230SOL    HW2  919   1.763   1.324   2.076  0.9985  0.4472  0.6096
  230SOL     MW  920   1.701   1.381   2.111 -0.0387 -0.2857  0.0496
  231SOL     OW  921   2.834   1.312   2.195 -0.2779 -0.4125 -0.0334
  231SOL    HW1  922   2.881   1.390   2.191 -0.2800 -2.9169 -1.7028
  231SOL    HW2  923   2.761   1.337   2.134 -1.7718 -2.0029 -3.6291
  231SOL     MW  924   2.830   1.325   2.186 -0.4753 -0.9528 -0.7281
  232SOL     OW  925   2.281   1.032   2.114  0.2305 -0.3889 -0.7358
  232SOL    HW1  926   2.219   1.012   2.053  2.3680 -2.2462  1.6211
  232SOL    HW2  927   2.250   0.978   2.192 -1.5121  3.3525  1.5748
  232SOL     MW  928   2.269   1.022   2.116  0.2826 -0.1403 -0.1200
  233SOL     OW  929   2.027   0.596   1.885 -0.1035  0.0566  0.3329
  233SOL    HW1  930   2.042   0.634   1.796 -0.2427 -2.1144 -1.6852
  233SOL    HW2  931   2.117   0.576   1.907  0.0561  0.0454 -1.6697
  233SOL     MW  932   2.041   0.598   1.876 -0.1008 -0.2313 -0.1976
  234SOL     OW  933   0.213   0.955   2.494 -0.0500  0.7158 -0.0908
  234SOL    HW1  934   0.117   0.952   2.512  0.0702 -0.5729  2.2544
  234SOL    HW2  935   0.245   1.040   2.448  1.4426  0.3728 -2.2855
  234SOL     MW  936   0.204   0.966   2.490  0.1628  0.5005 -0.0710
  235SOL     OW  937   0.985   3.050   2.788  0.0950  0.0549  0.1621
  235SOL    HW1  938   0.988   2.971   2.842 -0.2364 -0.1332 -0.1395
  235SOL    HW2  939   0.985   3.129   2.848 -0.7998 -0.0245  0.5484
  235SOL     MW  940   0.985   3.050   2.803 -0.0668  0.0196  0.1733
  236SOL     OW  941   2.944   0.561   0.121  0.1800 -0.4557 -0.1844
  236SOL    HW1  942   2.882   0.574   0.045 -1.5307 -1.3155 -1.2584
  236SOL    HW2  943   2.990   0.637   0.139  3.1620  0.7067 -4.0034
  236SOL     MW  944   2.942   0.573   0.113  0.3477 -0.4158 -0.8299
  237SOL     OW  945   1.762   0.917   2.186 -0.3722 -0.6715 -0.2234
  237SOL    HW1  946   1.793   1.007   2.161 -0.8703 -1.5985  1.5796
  237SOL    HW2  947   1.781   0.898   2.277 -1.5291  0.1883  0.7234
  237SOL     MW  948   1.769   0.926   2.195 -0.5905 -0.6804  0.1394
  238SOL     OW  949   1.034   1.771   2.960  0.2440 -0.1986  0.0416
  238SOL    HW1  950   0.990   1.685   2.966 -1.1400 -0.9831  1.3601
  238SOL    HW2  951   1.124   1.754   2.943 -0.8283  0.4972 -0.2442
  238SOL     MW  952   1.040   1.757   2.958 -0.0801 -0.2103  0.1779
  239SOL     OW  953   1.281   1.442   2.356 -0.1640 -0.1943 -0.3318
  239SOL    HW1  954   1.234   1.434   2.439 -5.0562 -0.4388 -0.3744
  239SOL    HW2  955   1.374   1.421   2.373 -0.7000  0.5178 -0.6011
  239SOL     MW  956   1.287   1.438   2.369 -0.8802 -0.1326 -0.3729
  240SOL     OW  957   0.588   0.831   2.230  0.1405  0.3131 -0.1025
  240SOL    HW1  958   0.553   0.902   2.285  0.3257 -0.7052  0.2603
  240SOL    HW2  959   0.685   0.832   2.241  1.6309  0.9065  1.2078
  240SOL     MW  960   0.596   0.840   2.239  0.3615  0.2570  0.1183
  241SOL     OW  961   0.652   0.332   3.019 -0.0795  0.2387  0.0429
  241SOL    HW1  962   0.620   0.362   3.107  1.7860  1.2639  1.6100
  241SOL    HW2  963   0.580   0.346   2.956 -1.2523 -1.1630 -1.0294
  241SOL     MW  964   0.638   0.338   3.022  0.0119  0.1890  0.1082
  242SOL     OW  965   1.440   1.711   2.278 -0.8012 -0.9849  0.5818
  242SOL    HW1  966   1.400   1.778   2.337  0.6970 -2.6609  0.7491
  242SOL    HW2  967   1.366   1.692   2.223 -2.0512 -0.1930  0.7138
  242SOL     MW  968   1.425   1.718   2.278 -0.7684 -1.1016  0.6213
  243SOL     OW  969   1.066   0.214   2.376  0.0255 -0.4176  0.2513
  243SOL    HW1  970   1.158   0.203   2.385 -0.7885 -0.0186  1.0509
  243SOL    HW2  971   1.038   0.281   2.442 -3.0126  2.4936 -1.7346
  243SOL     MW  972   1.074   0.222   2.386 -0.4828  0.0192  0.0948
  244SOL     OW  973   0.227   0.754   2.313  0.7396  0.1123  0.2914
  244SOL    HW1  974   0.235   0.818   2.383 -0.3607  0.1966  2.2956
  244SOL    HW2  975   0.314   0.707   2.319 -2.7374 -0.9130  1.2392
  244SOL     MW  976   0.240   0.756   2.323  0.1357 -0.0119  0.6809
  245SOL     OW  977   1.341   0.136   2.317 -0.3376  0.0083  0.2741
  245SOL    HW1  978   1.332   0.043   2.320  1.9011  0.3617 -1.2565
  245SOL    HW2  979   1.432   0.157   2.293 -0.3037  0.3398 -3.9127
  245SOL     MW  980   1.352   0.126   2.314 -0.0378  0.0987 -0.4802
  246SOL     OW  981   1.153   1.143   2.174  0.2095 -0.1176  0.2084
  246SOL    HW1  982   1.094   1.117   2.245  2.4173  2.9796 -1.9299
  246SOL    HW2  983   1.242   1.160   2.210  0.3459  1.0033  0.0627
  246SOL     MW  984   1.157   1.142   2.188  0.5188  0.4389 -0.0929
  247SOL     OW  985   0.626   0.576   0.124  0.4548  0.2023 -0.0239
  247SOL    HW1  986   0.599   0.665   0.132 -1.6030 -0.7646 -0.6645
  247SOL    HW2  987   0.696   0.580   0.062  0.8641  0.0214 -0.8723
  247SOL     MW  988   0.632   0.588   0.117  0.2373  0.0509 -0.2204
  248SOL     OW  989   0.341   1.208   2.406  0.2661 -0.2976  0.3862
  248SOL    HW1  990   0.395   1.270   2.360 -0.3181 -1.0368  1.9832
  248SOL    HW2  991   0.313   1.245   2.488  0.0816  0.9065  0.8149
  248SOL     MW  992   0.344   1.221   2.411  0.1647 -0.2363  0.6534
  249SOL     OW  993   0.140   1.838   2.705 -0.2257  0.0652  0.1246
  249SOL    HW1  994   0.082   1.759   2.683 -1.6455 -0.8770 -2.3808
  249SOL    HW2  995   0.179   1.801   2.787  2.8018 -0.0731  0.1147
  249SOL     MW  996   0.138   1.822   2.713 -0.0136 -0.0774 -0.2073
  250SOL     OW  997   2.183   0.858   2.305  0.0008  0.4691 -0.1700
  250SOL    HW1  998   2.256   0.795   2.311  0.3812  2.0683 -0.4012
  250SOL    HW2  999   2.216   0.921   2.376 -2.5404  1.8528  1.1309
  250SOL     MW 1000   2.197   0.858   2.315 -0.2843  0.8627 -0.0288
  251SOL     OW 1001   0.076   0.813   2.088  0.1920  0.3243 -0.4226
  251SOL    HW1 1002   0.111   0.810   2.178  1.7497 -1.2383 -2.4662
  251SOL    HW2 1003   0.114   0.736   2.049 -1.0765  2.8206  0.7270
  251SOL     MW 1004   0.086   0.802   2.094  0.2301  0.4475 -0.5406
  252SOL     OW 1005   1.700   1.002   2.791 -0.2061 -0.0521 -0.1006
  252SOL    HW1 1006   1.725   1.039   2.874  3.2844 -0.0550 -2.0147
  252SOL    HW2 1007   1.772   1.018   2.731 -3.3756  0.1155 -1.0995
  252SOL     MW 1008   1.713   1.009   2.794 -0.1638 -0.0304 -0.4849
  253SOL     OW 1009   1.147   1.741   2.553 -0.1262  0.3020  0.6673
  253SOL    HW1 1010   1.160   1.769   2.463 -2.0798  1.2956  1.5786
  253SOL    HW2 1011   1.057   1.785   2.574 -1.7202 -0.1851  0.0879
  253SOL     MW 1012   1.137   1.750   2.544 -0.5943  0.3688  0.7111
  254SOL     OW 1013   0.962   1.051   2.340 -0.3859  0.7407 -0.0595
  254SOL    HW1 1014   0.930   0.963   2.310 -1.6776 -1.2011 -0.3206
  254SOL    HW2 1015   0.905   1.123   2.314  0.4659 -1.3760 -2.1830
  254SOL     MW 1016   0.950   1.049   2.333 -0.4439  0.2052 -0.3741
  255SOL     OW 1017   0.712   2.287   2.310  0.0158  0.8163 -0.5036
  255SOL    HW1 1018   0.622   2.273   2.327  1.9152 -1.3152 -0.9947
  255SOL    HW2 1019   0.736   2.344   2.381  0.2907  2.1876 -0.3189
  255SOL     MW 1020   0.703   2.293   2.322  0.3027  0.7160 -0.5440
  256SOL     OW 1021   1.208   2.862   2.976 -0.1479  0.2407 -0.1802
  256SOL    HW1 1022   1.240   2.774   2.952 -0.7094 -1.2710  1.0516
  256SOL    HW2 1023   1.237   2.928   2.911 -0.4169 -0.2674  0.3159
  256SOL     MW 1024   1.216   2.859   2.965 -0.2575 -0.0258  0.0478
  257SOL     OW 1025   0.136   1.855   0.015 -0.1763 -0.2134 -0.1900
  257SOL    HW1 1026   0.146   1.801   0.093 -0.9299 -2.6353  2.5694
  257SOL    HW2 1027   0.181   1.812  -0.055  0.0437  1.4387  0.4818
  257SOL     MW 1028   0.143   1.842   0.016 -0.2467 -0.3149  0.2627
  258SOL     OW 1029   0.543   1.046   2.377 -0.1112 -0.3016  0.4616
  258SOL    HW1 1030   0.581   1.110   2.320  1.6870 -0.1352  1.9287
  258SOL    HW2 1031   0.453   1.088   2.391  1.2181  0.8314  2.5440
  258SOL     MW 1032   0.536   1.060   2.372  0.3014 -0.1301  0.9299
  259SOL     OW 1033   0.607   0.372   2.537  0.0626 -0.3113  0.2000
  259SOL    HW1 1034   0.507   0.387   2.556 -0.4318  1.2743 -1.1533
  259SOL    HW2 1035   0.602   0.317   2.457  0.1667 -1.6354 -0.9835
  259SOL     MW 1036   0.593   0.367   2.529  0.0111 -0.2768 -0.1347
  260SOL     OW 1037   0.595   0.158   1.603 -0.2525 -0.0183 -0.4871
  260SOL    HW1 1038   0.516   0.199   1.564 -0.6200 -2.5277  1.9641
  260SOL    HW2 1039   0.653   0.149   1.525  2.1715 -1.4735 -0.5278
  260SOL     MW 1040   0.592   0.162   1.587  0.0189 -0.5414 -0.1690
  261SOL     OW 1041   1.039   0.663   2.088 -0.1832  0.3989 -0.4342
  261SOL    HW1 1042   1.082   0.663   2.178  2.0614 -0.8717  0.5160
  261SOL    HW2 1043   1.100   0.614   2.029 -0.0276 -0.3115  0.9514
  261SOL     MW 1044   1.053   0.657   2.092  0.1335  0.1375 -0.1260
  262SOL     OW 1045   1.153   0.401   0.137 -0.0440 -0.0153  0.2247
  262SOL    HW1 1046   1.175   0.309   0.133 -1.9481 -1.2876  0.4531
  262SOL    HW2 1047   1.202   0.441   0.060 -1.8587  0.1984 -1.0964
  262SOL     MW 1048   1.162   0.394   0.126 -0.5347 -0.1550  0.0805
  263SOL     OW 1049   0.408   2.998   2.466  0.1554 -0.4628  0.2724
  263SOL    HW1 1050   0.346   3.069   2.461 -1.3632 -1.2452  1.3380
  263SOL    HW2 1051   0.472   3.025   2.404 -2.1991 -1.5647  0.7374
  263SOL     MW 1052   0.408   3.011   2.457 -0.3556 -0.7114  0.4743
  264SOL     OW 1053   1.456   1.334   1.985  0.7748 -0.3258  0.1533
  264SOL    HW1 1054   1.400   1.388   2.033  0.1185 -1.8358 -1.0328
  264SOL    HW2 1055   1.547   1.336   2.020  2.2920 -1.4128 -1.0455
  264SOL     MW 1056   1.461   1.341   1.996  0.8884 -0.6684 -0.1613
  265SOL     OW 1057   0.753   2.759   2.205 -0.0419  0.1134 -0.1840
  265SOL    HW1 1058   0.773   2.665   2.186  0.8442  1.0277  1.1341
  265SOL    HW2 1059   0.699   2.746   2.286  0.1430 -1.2910  1.6693
  265SOL     MW 1060   0.749   2.745   2.213  0.0994  0.0487  0.2344
  266SOL     OW 1061   0.876   0.786   2.282  0.6289  0.1989  0.0536
  266SOL    HW1 1062   0.902   0.735   2.210 -2.3905  2.6245 -0.1456
  266SOL    HW2 1063   0.865   0.720   2.352  0.3587  0.4620  1.3305
  266SOL     MW 1064   0.878   0.770   2.282  0.1949  0.5536  0.1958
  267SOL     OW 1065   1.380   1.804   2.691  0.0366  0.4038 -0.2037
  267SOL    HW1 1066   1.430   1.720   2.687  2.9914 -1.4246  0.2171
  267SOL    HW2 1067   1.298   1.782   2.659  0.2807  3.5129 -0.7888
  267SOL     MW 1068   1.376   1.790   2.686  0.4587  0.5728 -0.2254
  268SOL     OW 1069   0.196   0.771   1.671 -0.0764 -0.1303 -0.1553
  268SOL    HW1 1070   0.143   0.832   1.610  0.1348  0.7222 -2.5493
  268SOL    HW2 1071   0.187   0.682   1.624 -2.8153 -1.4144 -1.8278
  268SOL     MW 1072   0.188   0.768   1.657 -0.4099 -0.1872 -0.6918
  269SOL     OW 1073   1.362   1.951   2.450  0.7171  0.0354 -0.2613
  269SOL    HW1 1074   1.382   1.898   2.527 -0.1824 -0.4003 -1.4807
  269SOL    HW2 1075   1.298   2.011   2.488  0.4195 -1.8738  0.3139
  269SOL     MW 1076   1.356   1.952   2.465  0.5591 -0.2740 -0.3463
  270SOL     OW 1077   1.199   0.486   1.651  0.1452  0.3801 -0.1195
  270SOL    HW1 1078   1.171   0.401   1.680 -1.6628 -0.1630 -1.2722
  270SOL    HW2 1079   1.293   0.477   1.608  0.2346 -0.3643  0.4330
  270SOL     MW 1080   1.208   0.473   1.649 -0.0815  0.2102 -0.1987
  271SOL     OW 1081   0.911   0.015   2.477 -0.1974  0.1010 -0.4525
  271SOL    HW1 1082   0.989  -0.034   2.492  1.5506 -0.0712 -4.2459
  271SOL    HW2 1083   0.952   0.090   2.429 -0.6319 -2.4011 -1.7120
  271SOL     MW 1084   0.927   0.018   2.473 -0.0241 -0.2519 -1.1192
  272SOL     OW 1085   1.355   2.992   2.771 -0.0205  0.5043 -0.1583
  272SOL    HW1 1086   1.307   3.036   2.695  4.0116 -1.6291  0.6605
  272SOL    HW2 1087   1.362   3.059   2.848 -1.3068  0.5500 -1.2760
  272SOL     MW 1088   1.350   3.007   2.771  0.3418  0.2288 -0.1978
  273SOL     OW 1089   1.428   0.927   2.795  0.2765  0.3955 -0.5413
  273SOL    HW1 1090   1.519   0.954   2.773  0.7076 -1.3572 -2.4881
  273SOL    HW2 1091   1.396   1.010   2.841  1.2898 -2.1844  1.0666
  273SOL     MW 1092   1.436   0.942   2.798  0.4671 -0.1761 -0.5861
  274SOL     OW 1093   1.356   0.720   0.122  0.1672  0.0024 -0.0021
  274SOL    HW1 1094   1.370   0.632   0.145 -0.2456  0.7994  0.2053
  274SOL    HW2 1095   1.266   0.748   0.150  1.0645 -0.1765 -0.5662
  274SOL     MW 1096   1.346   0.712   0.128  0.2311  0.0840 -0.0491
  275SOL     OW 1097   1.677   0.620   1.770  0.0448  1.0590 -0.0017
  275SOL    HW1 1098   1.730   0.666   1.841 -0.1246 -1.6573  1.5203
  275SOL    HW2 1099   1.687   0.520   1.775  2.7826 -0.4550 -1.1348
  275SOL     MW 1100   1.685   0.613   1.780  0.3837  0.5009  0.0496
  276SOL     OW 1101   0.155   1.180   1.829  0.6010  0.0367 -0.1195
  276SOL    HW1 1102   0.208   1.095   1.848  0.5401 -1.2169 -1.6466
  276SOL    HW2 1103   0.065   1.143   1.812  1.7301 -0.4788  1.7241
  276SOL     MW 1104   0.150   1.164   1.829  0.7419 -0.1967 -0.0778
  277SOL     OW 1105   1.901   1.366   2.724 -0.0304  0.2870  0.4081
  277SOL    HW1 1106   1.925   1.449   2.696 -0.3935 -0.2188 -0.4449
  277SOL    HW2 1107   1.958   1.312   2.680 -0.9949  0.8625  2.0472
  277SOL     MW 1108   1.912   1.370   2.714 -0.2056  0.2962  0.5118
  278SOL     OW 1109   1.410   0.727   1.760  0.5705  0.5280 -0.1979
  278SOL    HW1 1110   1.383   0.646   1.810  3.0865 -0.8231  1.1370
  278SOL    HW2 1111   1.506   0.727   1.777 -1.3996 -1.3151  1.5575
  278SOL     MW 1112   1.419   0.717   1.769  0.6425  0.1066  0.2098
  279SOL     OW 1113   0.594   3.029   2.262 -0.5748  0.2183  0.2368
  279SOL    HW1 1114   0.671   2.975   2.276 -0.5268 -0.7621 -0.6355
  279SOL    HW2 1115   0.631   3.121   2.257 -0.7677  0.1694  0.3580
  279SOL     MW 1116   0.609   3.034   2.263 -0.5939  0.0825  0.1377
  280SOL     OW 1117   1.426   1.161   2.268  0.0887  0.2101 -0.9541
  280SOL    HW1 1118   1.455   1.098   2.204  1.1732  3.4894  0.0918
  280SOL    HW2 1119   1.429   1.106   2.347  0.4082 -0.9313 -1.6546
  280SOL     MW 1120   1.430   1.145   2.270  0.2739  0.4922 -0.9085
  281SOL     OW 1121   1.325   1.358   2.745  0.0935  0.1658  0.9716
  281SOL    HW1 1122   1.417   1.384   2.753  0.8315  1.9799  1.0673
  281SOL    HW2 1123   1.307   1.271   2.790 -1.1786 -0.2834  3.2092
  281SOL     MW 1124   1.335   1.350   2.752  0.0231  0.3458  1.2794
  282SOL     OW 1125   1.157   1.332   1.728 -0.6424  0.3504 -0.1792
  282SOL    HW1 1126   1.115   1.371   1.653  2.6456 -1.5186  0.3252
  282SOL    HW2 1127   1.090   1.274   1.771  1.1149 -0.7900 -0.0353
  282SOL     MW 1128   1.142   1.329   1.724  0.0233 -0.0467 -0.0936
  283SOL     OW 1129   0.710   1.202   0.083 -0.3567 -0.2493  0.1769
  283SOL    HW1 1130   0.803   1.166   0.096  2.3386 -0.3756 -0.5537
  283SOL    HW2 1131   0.716   1.297   0.078  1.1631 -1.4728 -0.5678
  283SOL     MW 1132   0.723   1.210   0.084  0.1994 -0.4274 -0.0178
  284SOL     OW 1133   0.460   0.623   2.363 -0.3181 -0.6377  0.1816
  284SOL    HW1 1134   0.503   0.690   2.302 -1.3977  0.1153  0.0041
  284SOL    HW2 1135   0.482   0.547   2.312 -1.1503 -0.2174  1.1015
  284SOL     MW 1136   0.469   0.621   2.348 -0.5703 -0.4829  0.2795
  285SOL     OW 1137   0.847   0.920   2.787  0.0294 -0.9456 -0.3519
  285SOL    HW1 1138   0.826   0.952   2.697  1.8180  2.5163  0.7598
  285SOL    HW2 1139   0.791   0.844   2.798  2.1991  3.4777  0.7145
  285SOL     MW 1140   0.836   0.914   2.776  0.5517  0.0948 -0.0645
  286SOL     OW 1141   1.131   1.467   2.577  0.0602 -0.1709 -0.0216
  286SOL    HW1 1142   1.195   1.442   2.650  2.1018  1.2181  1.2701
  286SOL    HW2 1143   1.144   1.566   2.551  2.5027 -1.1874 -0.3593
  286SOL     MW 1144   1.141   1.477   2.583  0.6519 -0.1217  0.1042
  287SOL     OW 1145   1.102   0.948   0.384  0.2402  0.3638  0.0639
  287SOL    HW1 1146   1.151   0.972   0.464 -1.8958  0.3072 -0.2079
  287SOL    HW2 1147   1.040   1.023   0.359 -0.7955 -1.7843  0.5407
  287SOL     MW 1148   1.100   0.961   0.392 -0.1783  0.0729  0.0910
  288SOL     OW 1149   1.471   0.648   2.135 -0.2269  0.6440  0.3429
  288SOL    HW1 1150   1.460   0.624   2.232  2.1205  1.2215  2.1595
  288SOL    HW2 1151   1.471   0.746   2.133  1.2021  0.9933  2.6174
  288SOL     MW 1152   1.470   0.658   2.147  0.2714  0.7663  0.8827
  289SOL     OW 1153   0.780   0.972   2.531  0.8255  0.9325 -0.2444
  289SOL    HW1 1154   0.853   0.968   2.466  3.8969  0.9984 -1.7283
  289SOL    HW2 1155   0.703   0.985   2.471 -4.9302 -0.3119 -1.8013
  289SOL     MW 1156   0.779   0.973   2.515  0.4713  0.7770 -0.6456
  290SOL     OW 1157   0.849   0.698   1.564 -0.2288  0.6324 -0.1023
  290SOL    HW1 1158   0.893   0.624   1.518 -0.4953  0.1976 -1.7378
  290SOL    HW2 1159   0.903   0.724   1.639 -1.4918  2.2442  0.4104
  290SOL     MW 1160   0.862   0.691   1.568 -0.4306  0.7877 -0.2505
  291SOL     OW 1161   0.263   0.370   0.223  0.0710  0.2218 -0.2676
  291SOL    HW1 1162   0.356   0.347   0.215 -2.6531 -0.1591 -0.3602
  291SOL    HW2 1163   0.219   0.293   0.191 -1.1774  1.1169  0.9602
  291SOL     MW 1164   0.269   0.357   0.217 -0.4531  0.2896 -0.1178
  292SOL     OW 1165   0.914   0.541   0.090  0.3013  0.2855  0.4565
  292SOL    HW1 1166   0.947   0.621   0.134 -1.2234  0.2147 -0.7625
  292SOL    HW2 1167   0.987   0.482   0.104 -0.2280  1.5390  0.1251
  292SOL     MW 1168   0.928   0.544   0.098  0.0303  0.4416  0.2519
  293SOL     OW 1169   0.232   0.114   2.424  0.3489  0.0005  0.0183
  293SOL    HW1 1170   0.142   0.076   2.407  0.2393 -1.6718  1.5512
  293SOL    HW2 1171   0.236   0.128   2.517  1.9721 -3.4137  2.2327
  293SOL     MW 1172   0.220   0.110   2.434  0.5486 -0.6706  0.5127
  294SOL     OW 1173   1.437   0.600   2.408  0.3741 -0.1614  0.4216
  294SOL    HW1 1174   1.499   0.665   2.443 -0.9395  1.2001 -0.7832
  294SOL    HW2 1175   1.472   0.520   2.451 -2.1671  0.9285 -0.5476
  294SOL     MW 1176   1.450   0.598   2.418 -0.1345  0.1620  0.1348
  295SOL     OW 1177   0.804   0.585   2.449 -0.5215  0.0932  0.7084
  295SOL    HW1 1178   0.747   0.511   2.461  1.2954 -0.4361  3.9950
  295SOL    HW2 1179   0.796   0.626   2.530 -1.1862 -6.3238 -1.0369
  295SOL     MW 1180   0.795   0.580   2.461 -0.3695 -0.8233  0.9118
  296SOL     OW 1181   1.261   0.280   2.045 -0.1525  0.0467  0.3403
  296SOL    HW1 1182   1.348   0.266   2.007 -3.3556 -0.5206 -3.5808
  296SOL    HW2 1183   1.266   0.238   2.129 -3.7107  0.6131  1.9678
  296SOL     MW 1184   1.273   0.272   2.051 -1.0446  0.0466  0.0376
  297SOL     OW 1185   1.441   0.442   1.538  0.1150 -0.0872 -0.1775
  297SOL    HW1 1186   1.491   0.523   1.538 -3.6411  0.5931 -0.1048
  297SOL    HW2 1187   1.512   0.378   1.561 -1.1112  2.2281 -0.6526
  297SOL     MW 1188   1.457   0.445   1.541 -0.5424  0.3080 -0.2306
  298SOL     OW 1189   1.506   0.960   2.107  0.1120  0.0605 -0.1051
  298SOL    HW1 1190   1.490   0.997   2.021  0.1694  0.4696  0.8108
  298SOL    HW2 1191   1.601   0.959   2.119  0.8221  1.7775  0.5307
  298SOL     MW 1192   1.517   0.964   2.097  0.2133  0.3410  0.0996
  299SOL     OW 1193   0.566   0.997   3.024 -1.1065 -0.3695 -0.9878
  299SOL    HW1 1194   0.617   1.078   3.049 -0.5311  2.7650  2.1530
  299SOL    HW2 1195   0.528   1.022   2.942  4.0078 -0.2927  1.7879
  299SOL     MW 1196   0.568   1.011   3.017 -0.3558  0.0542 -0.2072
  300SOL     OW 1197   1.184   1.039   2.552 -0.6115  0.1249  0.0974
  300SOL    HW1 1198   1.106   1.036   2.495  0.7060 -0.8368  1.9006
  300SOL    HW2 1199   1.162   0.959   2.593  0.8820 -0.5773 -0.5623
  300SOL     MW 1200   1.171   1.028   2.550 -0.2406 -0.0947  0.2483
  301SOL     OW 1201   1.376   0.721   0.529  0.1149  0.0297  0.3331
  301SOL    HW1 1202   1.392   0.694   0.622  1.3876  0.2728  1.9093
  301SOL    HW2 1203   1.301   0.656   0.509  1.6637  0.9624 -1.7903
  301SOL     MW 1204   1.368   0.709   0.538  0.4872  0.1848  0.2609
  302SOL     OW 1205   0.133   1.481   1.986  0.3113  0.9566 -0.9302
  302SOL    HW1 1206   0.120   1.408   2.048  2.8775  0.1045 -0.2836
  302SOL    HW2 1207   0.058   1.544   1.998 -0.3071 -0.3270  1.3408
  302SOL     MW 1208   0.122   1.480   1.996  0.5683  0.6748 -0.5452
  303SOL     OW 1209   0.453   1.812   2.669 -0.5621  0.5127  0.3661
  303SOL    HW1 1210   0.471   1.847   2.577 -1.3636 -2.9912 -2.4085
  303SOL    HW2 1211   0.360   1.811   2.694 -1.5919  0.0079 -1.8723
  303SOL     MW 1212   0.443   1.817   2.660 -0.8038 -0.0162 -0.2953
  304SOL     OW 1213   0.505   1.955   2.424  0.3495  0.4022 -0.1434
  304SOL    HW1 1214   0.510   2.032   2.366  2.7650 -2.1483 -1.9688
  304SOL    HW2 1215   0.580   1.907   2.397  0.9515  1.9537  0.3697
  304SOL     MW 1216   0.515   1.959   2.413  0.7476  0.2704 -0.3166
  305SOL     OW 1217   1.181   0.546   0.459  0.4365 -0.5247 -0.1546
  305SOL    HW1 1218   1.101   0.539   0.503 -1.1998 -0.5680  0.6881
  305SOL    HW2 1219   1.231   0.461   0.459 -2.2882 -0.6283 -1.4965
  305SOL     MW 1220   1.177   0.533   0.465 -0.1389 -0.5441 -0.2205
  306SOL     OW 1221   1.219   1.441   0.270 -0.0478 -0.3188  0.0257
  306SOL    HW1 1222   1.227   1.349   0.294 -2.3467 -2.7158 -0.1972
  306SOL    HW2 1223   1.289   1.457   0.199  0.5376  0.7932  1.3694
  306SOL     MW 1224   1.229   1.431   0.264 -0.2738 -0.4883  0.1736
  307SOL     OW 1225   1.312   0.536   1.950  0.2786  0.0882  0.3340
  307SOL    HW1 1226   1.294   0.442   1.965  1.4084 -1.2536 -0.6389
  307SOL    HW2 1227   1.368   0.563   2.023 -0.3513  3.4647  1.3284
  307SOL     MW 1228   1.317   0.527   1.962  0.3446  0.3567  0.3369
  308SOL     OW 1229   2.126   0.563   2.760  0.6425  0.0994  0.4020
  308SOL    HW1 1230   2.100   0.462   2.740  0.8716 -0.3163 -2.8000
  308SOL    HW2 1231   2.224   0.558   2.771  0.1994  0.0716  1.7769
  308SOL     MW 1232   2.136   0.549   2.759  0.6143  0.0409  0.1609
  309SOL     OW 1233   0.533   0.498   0.368 -0.2609  0.3249 -0.2534
  309SOL    HW1 1234   0.583   0.426   0.412 -2.2747  0.5510  1.6391
  309SOL    HW2 1235   0.570   0.515   0.282  0.2316  0.2815  2.0461
  309SOL     MW 1236   0.545   0.491   0.363 -0.4616  0.3490  0.2997
  310SOL     OW 1237   0.401   0.518   1.900  0.1024  0.1425 -0.0949
  310SOL    HW1 1238   0.430   0.440   1.851 -0.9100 -3.3059 -0.5195
  310SOL    HW2 1239   0.465   0.586   1.890  1.1657  0.7045  2.8434
  310SOL     MW 1240   0.413   0.516   1.892  0.1091 -0.2383  0.2368
  311SOL     OW 1241   1.825   0.784   1.930 -0.2526 -0.7770  0.2996
  311SOL    HW1 1242   1.792   0.801   2.019  0.6871 -0.6554 -0.0369
  311SOL    HW2 1243   1.893   0.726   1.932 -1.9032  0.5030 -0.3415
  311SOL     MW 1244   1.829   0.778   1.942 -0.3464 -0.5921  0.1706
  312SOL     OW 1245   1.756   2.654   0.002 -0.1597 -0.3677 -0.2367
  312SOL    HW1 1246   1.787   2.647   0.092  0.7248 -2.7583  0.0199
  312SOL    HW2 1247   1.662   2.630   0.002  2.0841  2.6421 -3.2495
  312SOL     MW 1248   1.747   2.650   0.014  0.2531 -0.2860 -0.6003
  313SOL     OW 1249   0.145   1.170   2.897 -0.3182  0.3354  0.6265
  313SOL    HW1 1250   0.228   1.202   2.940 -0.2554 -1.0168  0.3084
  313SOL    HW2 1251   0.182   1.182   2.806  0.1982  0.7753 -0.7203
  313SOL     MW 1252   0.161   1.176   2.890 -0.2418  0.2150  0.4068
  314SOL     OW 1253   2.133   3.025   2.982 -0.1868  0.4938 -0.2678
  314SOL    HW1 1254   2.066   3.080   2.933  1.4715  1.7342  0.0595
  314SOL    HW2 1255   2.185   3.091   3.043  4.3666  1.3608  2.4448
  314SOL     MW 1256   2.131   3.041   2.984  0.6328  0.7719  0.1333
  315SOL     OW 1257   1.574   1.991   3.011 -0.0662  0.1349 -0.2532
  315SOL    HW1 1258   1.484   2.022   3.037 -0.3329 -0.9261  0.0494
  315SOL    HW2 1259   1.574   2.031   2.924  0.5155 -1.2478  2.2570
  315SOL     MW 1260   1.562   2.000   3.003 -0.0246 -0.1875  0.1179
  316SOL     OW 1261   1.208   0.611   2.717  0.1865  0.2860 -0.6401
  316SOL    HW1 1262   1.287   0.584   2.669  0.7012  2.1792 -1.3201
  316SOL    HW2 1263   1.240   0.658   2.797 -0.3750  2.3846  1.0303
  316SOL     MW 1264   1.223   0.614   2.721  0.1803  0.8127 -0.5094
  317SOL     OW 1265   0.681   1.351   2.611 -0.1230 -0.2547 -0.6168
  317SOL    HW1 1266   0.709   1.345   2.701 -1.3853 -0.1955 -2.6325
  317SOL    HW2 1267   0.760   1.321   2.555  1.7240 -0.8271 -1.0259
  317SOL     MW 1268   0.695   1.346   2.615 -0.0458 -0.3224 -0.9367
  318SOL     OW 1269   1.306   0.447   2.961 -0.4015 -0.1323 -0.7974
  318SOL    HW1 1270   1.229   0.478   2.917 -0.2145 -1.6591  1.6591
  318SOL    HW2 1271   1.386   0.491   2.921 -0.2369  1.4400  0.2049
  318SOL     MW 1272   1.307   0.457   2.950 -0.3551 -0.1263 -0.3411
  319SOL     OW 1273   0.782   0.416   2.747 -0.1889 -0.0235 -0.2721
  319SOL    HW1 1274   0.727   0.380   2.678 -3.7580  3.9620 -0.5737
  319SOL    HW2 1275   0.737   0.395   2.829  0.9202 -0.1834 -0.0887
  319SOL     MW 1276   0.769   0.408   2.749 -0.5134  0.4812 -0.2877
  320SOL     OW 1277   1.004   1.320   2.048 -0.3159 -0.4384 -0.5501
  320SOL    HW1 1278   1.065   1.259   2.086 -0.3186 -1.2958  0.2720
  320SOL    HW2 1279   1.051   1.394   2.011  0.8832 -0.6283  1.2528
  320SOL     MW 1280   1.018   1.322   2.048 -0.1580 -0.5766 -0.2037
  321SOL     OW 1281   1.060   0.991   2.970  0.6688  0.2900  0.4605
  321SOL    HW1 1282   0.976   0.983   2.905  1.2250  0.9598  0.1185
  321SOL    HW2 1283   1.101   0.902   2.969  2.4986 -0.5500  1.7613
  321SOL     MW 1284   1.054   0.978   2.961  0.9836  0.2675  0.5870
  322SOL     OW 1285   1.208   0.916   1.706  0.6858  0.2154 -0.0784
  322SOL    HW1 1286   1.285   0.857   1.731  1.1389 -0.1453 -0.4245
  322SOL    HW2 1287   1.182   0.940   1.794 -0.9326  0.0820  0.1267
  322SOL     MW 1288   1.215   0.911   1.721  0.5320  0.1502 -0.0970
  323SOL     OW 1289   1.172   1.516   1.921  0.4346  0.2327 -0.1768
  323SOL    HW1 1290   1.187   1.453   1.843  1.6936 -1.6619  3.4999
  323SOL    HW2 1291   1.109   1.570   1.875 -0.4382 -1.8744 -1.2348
  323SOL     MW 1292   1.166   1.515   1.905  0.4856 -0.2953  0.1687
  324SOL     OW 1293   1.477   1.062   2.557  0.3710 -0.1439  0.3156
  324SOL    HW1 1294   1.395   1.049   2.594  2.3487  1.1010 -4.5717
  324SOL    HW2 1295   1.512   1.150   2.572 -0.6481  0.9915 -3.1997
  324SOL     MW 1296   1.470   1.072   2.564  0.4975  0.1702 -0.7931
  325SOL     OW 1297   0.992   0.438   2.926 -0.3728  0.1740 -0.6475
  325SOL    HW1 1298   0.963   0.480   3.017  0.7172 -0.1027  1.6992
  325SOL    HW2 1299   0.917   0.456   2.864 -0.6017 -0.2330 -1.9220
  325SOL     MW 1300   0.978   0.446   2.929 -0.2592  0.0838 -0.5060
  326SOL     OW 1301   0.423   1.327   2.164 -0.4293  0.6516  0.0461
  326SOL    HW1 1302   0.462   1.274   2.092 -0.5052 -1.8842  2.5527
  326SOL    HW2 1303   0.410   1.418   2.145 -0.3756  0.6115  1.2017
  326SOL     MW 1304   0.426   1.332   2.152 -0.4322  0.3117  0.5293
  327SOL     OW 1305   1.902   0.874   2.422 -0.3622 -0.8375 -0.0825
  327SOL    HW1 1306   1.915   0.833   2.507  0.6647 -1.8854 -1.8354
  327SOL    HW2 1307   1.994   0.891   2.387 -0.6128 -0.2460  2.0628
  327SOL     MW 1308   1.916   0.871   2.429 -0.2598 -0.8977 -0.0308
  328SOL     OW 1309   0.120   1.235   2.154  0.2352  0.1578  0.5979
  328SOL    HW1 1310   0.141   1.193   2.069  0.1268 -0.7514  1.9356
  328SOL    HW2 1311   0.209   1.233   2.193 -1.0576  1.6219 -0.6976
  328SOL     MW 1312   0.135   1.229   2.148  0.0503  0.2310  0.6035
  329SOL     OW 1313   0.118   0.155   1.437 -0.0585  0.2938 -0.9927
  329SOL    HW1 1314   0.059   0.160   1.517 -0.6866 -1.2905  0.9815
  329SOL    HW2 1315   0.181   0.229   1.445 -1.4362 -0.9908 -2.4158
  329SOL     MW 1316   0.119   0.166   1.449 -0.3232 -0.0847 -0.9200
  330SOL     OW 1317   0.410   2.973   2.053  0.0893 -0.3876  0.3982
  330SOL    HW1 1318   0.485   2.986   2.118 -0.9369  3.4944 -0.7364
  330SOL    HW2 1319   0.331   2.975   2.108 -0.0623  0.7398 -1.8474
  330SOL     MW 1320   0.409   2.975   2.069 -0.0661  0.2734 -0.0478
  331SOL     OW 1321   0.731   1.185   2.199  0.5429 -0.4047  0.7096
  331SOL    HW1 1322   0.674   1.198   2.118 -1.1774  0.3033  1.6489
  331SOL    HW2 1323   0.738   1.276   2.228 -2.5706  0.9706 -3.1672
  331SOL     MW 1324   0.724   1.199   2.192 -0.0949 -0.1299  0.3221
  332SOL     OW 1325   1.351   1.760   2.966  0.1845  0.0797 -0.3822
  332SOL    HW1 1326   1.359   1.768   2.868 -2.3503  1.8703 -3.7068
  332SOL    HW2 1327   1.412   1.820   3.009  2.7311 -3.3688  1.5683
  332SOL     MW 1328   1.360   1.769   2.959  0.1860 -0.1390 -0.5635
  333SOL     OW 1329   1.740   1.480   3.045 -0.5885  0.2074 -0.0943
  333SOL    HW1 1330   1.832   1.446   3.035  2.8423  2.1790  2.4424
  333SOL    HW2 1331   1.703   1.413   3.106  2.6722 -1.8327  0.9524
  333SOL     MW 1332   1.747   1.467   3.052  0.2944  0.1983  0.3785
  334SOL     OW 1333   1.196   0.019   2.601 -0.4804 -0.2332 -0.1118
  334SOL    HW1 1334   1.118   0.002   2.657 -1.2600  0.0970  1.2709
  334SOL    HW2 1335   1.211   0.114   2.604  0.0943 -1.2872 -0.2717
  334SOL     MW 1336   1.188   0.029   2.609 -0.5074 -0.3287  0.0496
  335SOL     OW 1337   1.254   0.784   2.940  0.0363 -0.2283 -0.2623
  335SOL    HW1 1338   1.297   0.737   3.016  0.2159  2.0424  0.3689
  335SOL    HW2 1339   1.327   0.840   2.905  1.4751  1.2449  0.6461
  335SOL     MW 1340   1.269   0.785   2.945  0.2498  0.2657 -0.0592
  336SOL     OW 1341   0.965   1.138   1.845 -0.4195 -0.7939  0.6311
  336SOL    HW1 1342   0.943   1.202   1.915 -2.6258  2.8226 -0.1187
  336SOL    HW2 1343   1.007   1.066   1.891 -1.2496  0.6028 -2.2796
  336SOL     MW 1344   0.968   1.137   1.861 -0.8202 -0.1325  0.1481
  337SOL     OW 1345   0.653   1.766   2.852  0.0586 -0.4472 -0.2640
  337SOL    HW1 1346   0.582   1.774   2.785 -0.4756 -2.6578 -1.8010
  337SOL    HW2 1347   0.720   1.729   2.806  0.2406  2.2016  2.5548
  337SOL     MW 1348   0.653   1.762   2.837  0.0121 -0.3894 -0.0949
  338SOL     OW 1349   1.051   0.808   2.606  0.0933  0.6078 -0.6810
  338SOL    HW1 1350   0.973   0.846   2.657 -2.0190  0.6441  1.1200
  338SOL    HW2 1351   1.087   0.734   2.656 -4.6462  0.0058 -0.7701
  338SOL     MW 1352   1.046   0.804   2.619 -0.8107  0.5332 -0.4551
  339SOL     OW 1353   1.404   1.085   1.876 -0.2176  0.3597 -0.4984
  339SOL    HW1 1354   1.404   1.080   1.783  1.1444 -0.6944  0.9990
  339SOL    HW2 1355   1.403   1.174   1.905  0.4245  2.9630 -0.0792
  339SOL     MW 1356   1.404   1.096   1.868  0.0469  0.5641 -0.2455
  340SOL     OW 1357   1.390   1.509   0.064 -0.4574  0.1567  0.2275
  340SOL    HW1 1358   1.370   1.569  -0.003  1.1795 -0.3638  2.6847
  340SOL    HW2 1359   1.480   1.524   0.092 -0.7209  0.4154  1.4847
  340SOL     MW 1360   1.399   1.519   0.059 -0.2762  0.1221  0.7176
  341SOL     OW 1361   0.227   1.298   2.653  0.1431 -0.9336 -0.4009
  341SOL    HW1 1362   0.281   1.371   2.670  0.0850 -0.4387 -2.1547
  341SOL    HW2 1363   0.140   1.329   2.634  0.0938 -4.0260  1.0122
  341SOL     MW 1364   0.223   1.312   2.653  0.1289 -1.2763 -0.4459
  342SOL     OW 1365   1.407   0.256   0.066 -0.0782 -0.1711  0.4336
  342SOL    HW1 1366   1.462   0.315   0.117 -0.5525 -2.8507  1.3681
  342SOL    HW2 1367   1.379   0.303  -0.010  0.4575  1.4279  2.2970
  342SOL     MW 1368   1.410   0.270   0.062 -0.0701 -0.3137  0.8027
  343SOL     OW 1369   0.246   0.299   2.248 -0.0623 -0.0339  0.4424
  343SOL    HW1 1370   0.261   0.230   2.309 -3.3084  1.4558  2.1934
  343SOL    HW2 1371   0.173   0.272   2.193  0.1597 -1.1057 -1.2707
  343SOL     MW 1372   0.239   0.286   2.249 -0.4613  0.0213  0.4474
  344SOL     OW 1373   1.700   2.178   0.070 -0.2498  0.3101  0.2844
  344SOL    HW1 1374   1.749   2.231  -0.003  0.3114 -2.9844 -1.2518
  344SOL    HW2 1375   1.650   2.119   0.014  0.2070  0.4016 -1.6535
  344SOL     MW 1376   1.700   2.177   0.053 -0.1155 -0.1125 -0.1739
  345SOL     OW 1377   0.643   1.559   2.349  0.3559  0.0153  0.6316
  345SOL    HW1 1378   0.549   1.578   2.325 -0.6423 -0.2896 -1.7153
  345SOL    HW2 1379   0.684   1.537   2.260  0.4303  0.0012 -0.7146
  345SOL     MW 1380   0.636   1.559   2.334  0.2340 -0.0268  0.1443
  346SOL     OW 1381   1.684   1.012   3.088 -0.5528  0.0427  0.2369
  346SOL    HW1 1382   1.778   1.016   3.110 -0.3224 -2.5436  2.1001
  346SOL    HW2 1383   1.643   0.965   3.158  0.4692  1.4547 -0.6228
  346SOL     MW 1384   1.691   1.006   3.100 -0.3875 -0.1123  0.3693
  347SOL     OW 1385   1.142   0.668   2.335  0.4317 -0.3701  0.0068
  347SOL    HW1 1386   1.210   0.614   2.367  2.3586  0.7177  0.9207
  347SOL    HW2 1387   1.124   0.728   2.411 -0.5561  2.1862  3.6698
  347SOL     MW 1388   1.148   0.669   2.349  0.5556  0.1107  0.6107
  348SOL     OW 1389   1.307   2.648   1.880 -0.0541  0.7053  0.2285
  348SOL    HW1 1390   1.342   2.568   1.916  0.2570 -0.3116  2.5841
  348SOL    HW2 1391   1.353   2.709   1.934 -0.2859 -0.1204  1.2101
  348SOL     MW 1392   1.318   2.645   1.892 -0.0436  0.4622  0.6688
  349SOL     OW 1393   1.315   0.255   2.683 -0.1743 -0.4692 -0.2558
  349SOL    HW1 1394   1.278   0.273   2.770  0.0089 -1.0457  1.1006
  349SOL    HW2 1395   1.395   0.205   2.708  0.4050 -2.1832 -0.4545
  349SOL     MW 1396   1.321   0.251   2.698 -0.0737 -0.7714 -0.1031
  350SOL     OW 1397   1.916   0.700   2.625 -0.4719  0.0912  0.5864
  350SOL    HW1 1398   1.863   0.640   2.571 -0.5873  2.8329 -1.3104
  350SOL    HW2 1399   1.993   0.653   2.665  0.8079 -2.2601 -1.8951
  350SOL     MW 1400   1.919   0.686   2.623 -0.3183  0.1427  0.0087
  351SOL     OW 1401   0.085   0.983   1.540 -0.2847  0.3704  0.4616
  351SOL    HW1 1402   0.016   1.023   1.600  0.2409 -1.3146  0.9707
  351SOL    HW2 1403   0.152   1.056   1.528 -1.3026  1.1520 -1.6747
  351SOL     MW 1404   0.085   0.998   1.546 -0.3497  0.2512  0.2469
  352SOL     OW 1405   0.824   1.594   2.713 -0.0727 -0.0530  0.5109
  352SOL    HW1 1406   0.855   1.550   2.793  2.3199  1.1938 -1.4956
  352SOL    HW2 1407   0.781   1.529   2.661  2.5742 -1.4600  0.7524
  352SOL     MW 1408   0.823   1.580   2.717  0.5922 -0.0741  0.2780
  353SOL     OW 1409   3.044   2.451   2.786  0.2445  0.0006 -0.1717
  353SOL    HW1 1410   3.125   2.435   2.747 -3.0378 -0.0765  3.7639
  353SOL    HW2 1411   3.007   2.522   2.732  1.4144 -0.7577 -0.3212
  353SOL     MW 1412   3.050   2.458   2.773 -0.0342 -0.1096  0.3279
  354SOL     OW 1413   0.313   2.474   0.878  0.5842 -0.1500  0.0812
  354SOL    HW1 1414   0.372   2.440   0.952  2.0794  0.4436  3.2751
  354SOL    HW2 1415   0.238   2.411   0.886 -0.3268  1.7980  0.7635
  354SOL     MW 1416   0.311   2.461   0.889  0.6613  0.1853  0.5926
  355SOL     OW 1417   0.061   2.246   0.353  0.6218  0.6369  0.3461
  355SOL    HW1 1418  -0.015   2.191   0.365 -2.1276  1.1873  1.8758
  355SOL    HW2 1419   0.055   2.298   0.431 -1.5472 -0.8237  1.0488
  355SOL     MW 1420   0.050   2.246   0.365 -0.0271  0.5168  0.6406
  356SOL     OW 1421   0.735   2.929   0.992  0.2113  0.0940 -0.7576
  356SOL    HW1 1422   0.807   2.898   0.939 -0.0588  0.7011 -0.8866
  356SOL    HW2 1423   0.656   2.876   0.976 -1.5834 -1.4664 -0.2375
  356SOL     MW 1424   0.734   2.918   0.983 -0.0611 -0.0318 -0.7060
  357SOL     OW 1425   1.771   3.002   0.386 -0.3433  0.1265 -0.2386
  357SOL    HW1 1426   1.743   2.921   0.435 -0.8800 -2.0657  0.5613
  357SOL    HW2 1427   1.857   2.988   0.357  1.7680 -0.3472  0.0977
  357SOL     MW 1428   1.779   2.989   0.388 -0.1356 -0.2252 -0.0887
  358SOL     OW 1429   0.493   0.143   1.016  0.1814 -0.2620  0.4956
  358SOL    HW1 1430   0.572   0.118   0.973  0.8977  0.1303 -0.1143
  358SOL    HW2 1431   0.437   0.181   0.945  1.0617  0.4023 -0.2850
  358SOL     MW 1432   0.496   0.145   1.001  0.3920 -0.1226  0.3121
  359SOL     OW 1433   0.895   2.738   1.928  0.5506 -0.6432 -0.2614
  359SOL    HW1 1434   0.880   2.712   2.024 -2.0594 -0.7373  1.8385
  359SOL    HW2 1435   0.938   2.664   1.884 -2.0107  2.3332 -1.3110
  359SOL     MW 1436   0.899   2.724   1.935 -0.1317 -0.2629 -0.1229
  360SOL     OW 1437   0.518   2.747   0.944 -0.4743 -0.8100 -0.2475
  360SOL    HW1 1438   0.516   2.696   0.863  1.1972 -0.3693  2.2579
  360SOL    HW2 1439   0.543   2.690   1.020  0.6352  2.8265  0.3802
  360SOL     MW 1440   0.521   2.733   0.943 -0.1074 -0.2720  0.1659
  361SOL     OW 1441   0.178   2.727   1.372 -0.0174  0.5545  0.1455
  361SOL    HW1 1442   0.174   2.803   1.416 -1.4642 -1.9229 -0.3051
  361SOL    HW2 1443   0.266   2.723   1.339  0.8928  2.8837  0.8780
  361SOL     MW 1444   0.189   2.737   1.374 -0.0882  0.5350  0.1827
  362SOL     OW 1445   1.449   2.426   0.623 -0.3796 -0.3918  0.2909
  362SOL    HW1 1446   1.453   2.342   0.665  0.4618 -0.3421  0.4546
  362SOL    HW2 1447   1.466   2.481   0.698  1.2452 -3.1106 -0.5612
  362SOL     MW 1448   1.452   2.422   0.638 -0.0542 -0.7440  0.2001
  363SOL     OW 1449   0.288   3.100   0.697  0.2741 -0.1236  0.1580
  363SOL    HW1 1450   0.310   3.029   0.770 -0.3171 -3.1468  1.4984
  363SOL    HW2 1451   0.192   3.085   0.683  0.4963 -2.6834  1.8097
  363SOL     MW 1452   0.278   3.088   0.704  0.2254 -0.8602  0.5528
  364SOL     OW 1453   0.756   0.161   0.246  0.0929 -0.6385 -0.1687
  364SOL    HW1 1454   0.715   0.072   0.257  1.6027 -0.7300  3.1124
  364SOL    HW2 1455   0.687   0.208   0.201  1.7244 -1.2150 -2.7949
  364SOL     MW 1456   0.742   0.156   0.241  0.5073 -0.7266 -0.0823
  365SOL     OW 1457   1.036   2.005   1.141  0.5056  0.1893  0.3675
  365SOL    HW1 1458   1.034   2.095   1.115 -3.3111 -0.4985 -4.1094
  365SOL    HW2 1459   0.973   1.949   1.091 -0.4736 -0.0935 -1.9806
  365SOL     MW 1460   1.027   2.009   1.131 -0.1272  0.0612 -0.5330
  366SOL     OW 1461   2.858   2.619   0.991  0.0083 -0.3407  0.0402
  366SOL    HW1 1462   2.928   2.625   1.053 -2.5772 -1.0198 -3.3942
  366SOL    HW2 1463   2.887   2.670   0.912 -2.6575  1.7705 -0.6569
  366SOL     MW 1464   2.871   2.626   0.989 -0.6845 -0.1518 -0.5049
  367SOL     OW 1465   1.246   2.935   0.819 -0.2946  0.1931  0.8271
  367SOL    HW1 1466   1.164   2.975   0.806  0.0791 -0.0820 -0.0072
  367SOL    HW2 1467   1.233   2.858   0.761  0.5174  3.4147  0.8361
  367SOL     MW 1468   1.233   2.930   0.809 -0.1382  0.5819  0.7182
  368SOL     OW 1469   1.727   0.468   0.668 -0.2891 -0.0876 -0.4559
  368SOL    HW1 1470   1.806   0.414   0.659 -0.7988 -2.1204 -1.0365
  368SOL    HW2 1471   1.750   0.554   0.679 -0.1137  0.2300 -0.6484
  368SOL     MW 1472   1.740   0.473   0.668 -0.3332 -0.3139 -0.5579
  369SOL     OW 1473   0.128   2.457   1.733 -0.1117 -0.2337  0.3021
  369SOL    HW1 1474   0.217   2.434   1.768  0.4461  0.2574  1.0679
  369SOL    HW2 1475   0.118   2.546   1.777  0.3045 -2.8287  2.0481
  369SOL     MW 1476   0.139   2.465   1.744  0.0168 -0.5112  0.6335
  370SOL     OW 1477   0.737   0.081   0.872  0.2017  0.4847 -0.4608
  370SOL    HW1 1478   0.776   0.163   0.910  0.6059  0.8987 -0.5109
  370SOL    HW2 1479   0.764   0.002   0.929 -0.7054  0.0450 -0.9550
  370SOL     MW 1480   0.746   0.082   0.885  0.1354  0.4813 -0.5326
  371SOL     OW 1481   1.386   2.978   1.441  0.0484  0.1762  0.1814
  371SOL    HW1 1482   1.302   2.930   1.426 -3.9590 -2.1601  1.1017
  371SOL    HW2 1483   1.401   3.032   1.360  3.4318 -0.9178  0.1159
  371SOL     MW 1484   1.377   2.979   1.429 -0.0340 -0.2764  0.2942
  372SOL     OW 1485   0.771   2.299   0.469 -0.1405 -0.2770 -0.5009
  372SOL    HW1 1486   0.721   2.223   0.491  3.6311 -0.6395  3.2613
  372SOL    HW2 1487   0.793   2.293   0.374 -1.2514  2.5197 -0.5505
  372SOL     MW 1488   0.767   2.288   0.459  0.2105  0.0441 -0.0110
  373SOL     OW 1489   2.827   2.967   1.433 -0.3597  0.2545 -0.3454
  373SOL    HW1 1490   2.889   2.965   1.354  2.2698  0.1838 -2.2410
  373SOL    HW2 1491   2.777   3.050   1.424  2.0455  0.4623 -1.1879
  373SOL     MW 1492   2.829   2.977   1.421  0.3046  0.2726 -0.7067
  374SOL     OW 1493   1.521   0.468   0.204 -0.7077  0.6505  0.5863
  374SOL    HW1 1494   1.588   0.512   0.161  0.4534 -0.5958  1.2417
  374SOL    HW2 1495   1.560   0.425   0.280  2.7267 -3.3305  0.9052
  374SOL     MW 1496   1.535   0.468   0.208 -0.1014 -0.0392  0.7148
  375SOL     OW 1497   1.105   2.108   2.253  0.1576 -0.0532 -0.2226
  375SOL    HW1 1498   1.126   2.149   2.336  1.4406  1.4687 -0.5621
  375SOL    HW2 1499   1.097   2.019   2.282  1.7445 -0.6331  0.2991
  375SOL     MW 1500   1.107   2.101   2.268  0.5362  0.0711 -0.1985
  376SOL     OW 1501   0.661   2.539   0.126 -0.0861 -0.1409  0.4461
  376SOL    HW1 1502   0.719   2.497   0.187 -1.6650  0.6656  0.6281
  376SOL    HW2 1503   0.606   2.466   0.089  0.1124 -1.7302 -2.2054
  376SOL     MW 1504   0.661   2.524   0.129 -0.2682 -0.2442  0.1203
  377SOL     OW 1505   1.297   2.041   0.907 -0.1016  0.2481  0.0281
  377SOL    HW1 1506   1.214   2.020   0.863 -0.7454  1.6864 -0.8312
  377SOL    HW2 1507   1.322   1.966   0.955  0.4051  2.6690 -1.6868
  377SOL     MW 1508   1.289   2.028   0.907 -0.1197  0.7573 -0.3116
  378SOL     OW 1509   0.981   2.864   1.490  0.4589 -0.1368  0.3132
  378SOL    HW1 1510   0.937   2.782   1.520 -0.7594  0.5932  0.5728
  378SOL    HW2 1511   0.956   2.879   1.398 -2.1051 -0.4607 -1.0454
  378SOL     MW 1512   0.971   2.856   1.482 -0.0402 -0.0832  0.1682
  379SOL     OW 1513   1.067   1.839   2.259 -0.4062 -0.1058  0.0249
  379SOL    HW1 1514   0.975   1.810   2.275 -1.4768 -0.4692 -1.6431
  379SOL    HW2 1515   1.110   1.768   2.203 -0.9700  0.5842 -0.1494
  379SOL     MW 1516   1.060   1.826   2.253 -0.6218 -0.0627 -0.2182
  380SOL     OW 1517   0.929   0.216   1.470 -0.2044  0.2501 -0.3606
  380SOL    HW1 1518   0.942   0.149   1.408 -0.2736  2.4663  0.1793
  380SOL    HW2 1519   0.978   0.190   1.546  1.4252  1.1720  0.2747
  380SOL     MW 1520   0.937   0.204   1.472  0.0015  0.6642 -0.2056
  381SOL     OW 1521   0.834   1.993   0.819  0.7245  0.0356  0.1261
  381SOL    HW1 1522   0.926   1.986   0.784 -1.0214 -0.1061  0.5512
  381SOL    HW2 1523   0.831   2.076   0.875  0.7766  1.5093  0.9174
  381SOL     MW 1524   0.846   2.003   0.821  0.5011  0.2113  0.2866
  382SOL     OW 1525   0.646   0.038   0.614  0.0522  0.1624 -0.1467
  382SOL    HW1 1526   0.672   0.056   0.701 -2.1061  2.5730  2.1464
  382SOL    HW2 1527   0.658  -0.057   0.606  0.7841 -0.6159  2.0881
  382SOL     MW 1528   0.651   0.028   0.624 -0.1360  0.3778  0.4507
  383SOL     OW 1529   0.518   0.049   0.382  0.2285 -0.2914 -0.2669
  383SOL    HW1 1530   0.562   0.052   0.467 -0.6153 -2.8088  0.4951
  383SOL    HW2 1531   0.446  -0.020   0.403 -2.6527 -1.2832  1.1792
  383SOL     MW 1532   0.514   0.040   0.396 -0.2630 -0.7544  0.0245
  384SOL     OW 1533   0.647   2.838   0.544 -0.4189 -0.2239  0.0278
  384SOL    HW1 1534   0.639   2.773   0.615  0.8554 -1.6337 -0.4685
  384SOL    HW2 1535   0.556   2.872   0.516 -1.5942  1.8642  1.5100
  384SOL     MW 1536   0.634   2.834   0.550 -0.4058 -0.1344  0.1579
  385SOL     OW 1537   1.342   2.039   1.559  0.0360  0.6263 -0.0634
  385SOL    HW1 1538   1.387   2.091   1.626 -2.9645 -1.5992  1.1901
  385SOL    HW2 1539   1.289   1.970   1.610  1.0016 -0.1525  0.2158
  385SOL     MW 1540   1.341   2.037   1.575 -0.2325  0.2299  0.1388
  386SOL     OW 1541   1.266   0.413   0.932 -0.2257  0.3458  0.5541
  386SOL    HW1 1542   1.198   0.358   0.879 -2.1689  0.4689 -0.1896
  386SOL    HW2 1543   1.241   0.418   1.024  0.9895 -0.4984  0.3191
  386SOL     MW 1544   1.254   0.406   0.937 -0.3218  0.2507  0.4250
  387SOL     OW 1545   0.858   2.221   1.474 -0.2378  0.1081 -0.4822
  387SOL    HW1 1546   0.915   2.284   1.435  0.3343  2.4036 -1.0615
  387SOL    HW2 1547   0.887   2.134   1.443  1.8101  1.4965  1.3326
  387SOL     MW 1548   0.869   2.218   1.465  0.1079  0.5941 -0.3192
  388SOL     OW 1549   1.586   2.844   1.237 -0.5978 -0.0160 -0.2375
  388SOL    HW1 1550   1.495   2.831   1.205  0.3507 -1.7629 -1.6659
  388SOL    HW2 1551   1.638   2.787   1.172  0.0495  1.1367  2.2593
  388SOL     MW 1552   1.581   2.835   1.224 -0.3873 -0.0944 -0.0965
  389SOL     OW 1553   0.488   0.052   3.046 -0.7206  0.2062  0.6941
  389SOL    HW1 1554   0.587   0.040   3.035  0.4619 -0.4653 -2.0204
  389SOL    HW2 1555   0.445  -0.034   3.069  0.4102  1.3988  2.2915
  389SOL     MW 1556   0.495   0.039   3.048 -0.4154  0.2749  0.5467
  390SOL     OW 1557   1.373   0.117   0.654 -0.3703 -0.1585 -0.1746
  390SOL    HW1 1558   1.464   0.122   0.634 -0.3448  0.6553 -1.1681
  390SOL    HW2 1559   1.376   0.104   0.749 -2.5896  1.9888  0.2331
  390SOL     MW 1560   1.385   0.116   0.664 -0.6597  0.2322 -0.2519
  391SOL     OW 1561   0.294   2.272   1.464 -0.4165  0.6384 -0.2102
  391SOL    HW1 1562   0.259   2.204   1.522  0.1822  3.7434 -0.5176
  391SOL    HW2 1563   0.228   2.335   1.444  1.2050 -3.3188  0.0692
  391SOL     MW 1564   0.281   2.271   1.469 -0.1236  0.5260 -0.2139
  392SOL     OW 1565   2.056   2.196   0.248 -0.4396 -0.4181  0.7623
  392SOL    HW1 1566   1.992   2.257   0.283  0.0988 -2.1464 -1.4877
  392SOL    HW2 1567   2.077   2.139   0.319 -0.4320 -2.0425 -4.0732
  392SOL     MW 1568   2.050   2.197   0.262 -0.3675 -0.8605 -0.1725
  393SOL     OW 1569   0.191   2.988   2.929 -0.2649  0.6954  0.1243
  393SOL    HW1 1570   0.254   3.045   2.890 -2.2761 -2.2727 -0.3441
  393SOL    HW2 1571   0.107   3.027   2.916  2.1312  0.2783  2.0342
  393SOL     MW 1572   0.188   3.001   2.922 -0.2141  0.2487  0.3145
  394SOL     OW 1573   0.849   1.667   1.494 -0.2631  0.3643 -0.5356
  394SOL    HW1 1574   0.783   1.672   1.567 -3.4963  2.4351  2.8276
  394SOL    HW2 1575   0.870   1.756   1.462 -0.4985 -2.5816  2.9701
  394SOL     MW 1576   0.843   1.680   1.499 -0.7207  0.2488  0.3707
  395SOL     OW 1577   0.907   2.824   2.624  0.3173  0.0628 -0.0823
  395SOL    HW1 1578   0.909   2.917   2.651  0.8812  1.1960  0.6771
  395SOL    HW2 1579   1.004   2.799   2.594  3.4604  1.3423  2.1567
  395SOL     MW 1580   0.920   2.833   2.623  0.8064  0.3811  0.3133
  396SOL     OW 1581   0.750   1.810   2.366 -0.0702  0.3974  0.1643
  396SOL    HW1 1582   0.810   1.822   2.448  3.2339  0.3711  0.8469
  396SOL    HW2 1583   0.715   1.721   2.367 -0.1553  1.7128  0.2217
  396SOL     MW 1584   0.753   1.800   2.377  0.3545  0.5674  0.2620
  397SOL     OW 1585   1.040   2.348   1.272 -0.2116  0.0280  0.0202
  397SOL    HW1 1586   1.060   2.404   1.198 -2.3564 -0.8950  0.5883
  397SOL    HW2 1587   1.119   2.340   1.322  1.2704 -0.3969  0.4369
  397SOL     MW 1588   1.053   2.354   1.269 -0.2990 -0.1498  0.1502
  398SOL     OW 1589   0.568   2.606   0.697 -0.0385 -0.2901 -0.1783
  398SOL    HW1 1590   0.502   2.590   0.632  1.4486  3.6149  1.4784
  398SOL    HW2 1591   0.655   2.586   0.651  3.0159  0.1769  0.2503
  398SOL     MW 1592   0.571   2.601   0.683  0.5607  0.2867  0.0968
  399SOL     OW 1593   0.219   2.014   0.362  0.2459  0.1992 -0.3231
  399SOL    HW1 1594   0.164   2.091   0.356  3.6333 -0.1785 -2.1698
  399SOL    HW2 1595   0.304   2.039   0.304  2.3367  2.7588 -2.0781
  399SOL     MW 1596   0.223   2.027   0.354  0.9687  0.4870 -0.7983
  400SOL     OW 1597   0.562   1.816   0.222  0.2311  0.0947 -0.5339
  400SOL    HW1 1598   0.510   1.898   0.227 -1.8245 -1.4616  2.0872
  400SOL    HW2 1599   0.507   1.753   0.270  2.0429 -0.0409 -1.3606
  400SOL     MW 1600   0.547   1.818   0.229  0.1989 -0.1285 -0.2971
  401SOL     OW 1601   1.003   2.115   0.118  0.2638 -0.1327 -0.2797
  401SOL    HW1 1602   0.985   2.021   0.109 -2.6471  1.3973  0.4781
  401SOL    HW2 1603   1.046   2.119   0.201  1.0224  0.5267 -3.6798
  401SOL     MW 1604   1.006   2.103   0.128 -0.0202  0.1562 -0.6283
  402SOL     OW 1605   0.694   2.668   1.748 -0.3939  0.1834 -0.2296
  402SOL    HW1 1606   0.615   2.711   1.784  1.0301  0.1665 -1.0857
  402SOL    HW2 1607   0.761   2.690   1.815 -2.3173 -0.7569 -2.3221
  402SOL     MW 1608   0.693   2.677   1.762 -0.4598  0.0571 -0.6186
  403SOL     OW 1609   0.082   0.553   0.328 -0.1207  0.4787  0.1913
  403SOL    HW1 1610   0.146   0.580   0.394 -1.5077 -2.1864  0.9927
  403SOL    HW2 1611   0.133   0.483   0.273 -1.0561  1.5498 -2.2260
  403SOL     MW 1612   0.097   0.547   0.329 -0.4271  0.2684 -0.0219
  404SOL     OW 1613   0.960   2.887   0.869  0.1511  0.7428  0.2730
  404SOL    HW1 1614   1.013   2.814   0.831  1.7823  1.6484  2.9484
  404SOL    HW2 1615   0.959   2.952   0.801 -0.9216  0.0195  0.0931
  404SOL     MW 1616   0.967   2.886   0.855  0.2248  0.7668  0.6022
  405SOL     OW 1617   0.450   2.477   1.589 -0.0490 -0.6788 -0.1433
  405SOL    HW1 1618   0.455   2.556   1.526  0.3554  0.5289  0.3598
  405SOL    HW2 1619   0.409   2.412   1.543 -1.3472  1.8167  1.2656
  405SOL     MW 1620   0.445   2.479   1.574 -0.1669 -0.1902  0.1090
  406SOL     OW 1621   0.389   2.396   1.137  0.3279  0.1784  0.5531
  406SOL    HW1 1622   0.298   2.403   1.167  1.6677  1.0012  0.6626
  406SOL    HW2 1623   0.420   2.327   1.189  0.6288  3.7179 -0.7354
  406SOL     MW 1624   0.381   2.388   1.148  0.5444  0.7539  0.3975
  407SOL     OW 1625   3.066   2.742   1.162 -0.2955  0.0080 -0.0266
  407SOL    HW1 1626   3.121   2.727   1.242  1.8946 -1.3045  1.6957
  407SOL    HW2 1627   3.125   2.739   1.086  0.9326  0.8264  0.6896
  407SOL     MW 1628   3.081   2.740   1.162  0.1555 -0.0572  0.2952
  408SOL     OW 1629   2.103   2.020   0.490  0.1950  0.6200  0.7755
  408SOL    HW1 1630   2.111   2.066   0.573 -2.2316  0.3532  1.2244
  408SOL    HW2 1631   2.014   1.994   0.496 -0.8010 -0.1428  2.5089
  408SOL     MW 1632   2.092   2.022   0.502 -0.2566  0.4841  1.0635
  409SOL     OW 1633   1.421   0.158   0.951  0.0500 -0.0812 -0.4593
  409SOL    HW1 1634   1.425   0.250   0.932 -1.0025  0.7978  3.8040
  409SOL    HW2 1635   1.515   0.135   0.945  2.7235 -0.6042 -0.8362
  409SOL     MW 1636   1.434   0.167   0.948  0.2639 -0.0342  0.0535
  410SOL     OW 1637   1.070   2.520   1.052 -0.2399  0.2318 -0.0716
  410SOL    HW1 1638   0.980   2.519   1.010  2.2464 -1.6215 -1.6901
  410SOL    HW2 1639   1.121   2.465   0.996  1.4274  0.0136 -0.0430
  410SOL     MW 1640   1.065   2.513   1.039  0.3082 -0.0415 -0.2814
  411SOL     OW 1641   1.934   0.086   2.875 -0.3971  0.0175  0.3142
  411SOL    HW1 1642   1.886   0.051   2.802  3.1739 -2.7571  0.2566
  411SOL    HW2 1643   1.882   0.140   2.932  0.9634 -0.4840  0.1630
  411SOL     MW 1644   1.921   0.089   2.873  0.2536 -0.4148  0.2866
  412SOL     OW 1645   1.009   2.230   0.598  0.2865  0.1947 -0.1859
  412SOL    HW1 1646   1.058   2.312   0.613 -1.0386 -3.2739 -0.6176
  412SOL    HW2 1647   0.923   2.247   0.553 -0.3307 -0.7372 -2.5970
  412SOL     MW 1648   1.004   2.243   0.594  0.0302 -0.3859 -0.5610
  413SOL     OW 1649   0.518   2.804   0.047  0.3184  0.0025  0.0842
  413SOL    HW1 1650   0.552   2.712   0.058 -0.6600 -2.8828 -1.4570
  413SOL    HW2 1651   0.555   2.844  -0.038  2.1674 -1.6051  1.9721
  413SOL     MW 1652   0.527   2.797   0.038  0.4332 -0.5903  0.1300
  414SOL     OW 1653   2.020   3.008   0.997 -0.3127  0.1873  0.2066
  414SOL    HW1 1654   1.962   2.982   0.924 -0.3920 -0.5742  2.9431
  414SOL    HW2 1655   2.092   2.942   0.998  0.0677 -1.2664  0.4827
  414SOL     MW 1656   2.022   2.996   0.988 -0.2730 -0.1049  0.6041
  415SOL     OW 1657   1.732   2.661   1.112 -0.1125  0.2407 -0.1417
  415SOL    HW1 1658   1.707   2.606   1.189 -0.9137 -0.1913  0.5748
  415SOL    HW2 1659   1.820   2.699   1.136 -2.0327  0.6049 -0.0577
  415SOL     MW 1660   1.740   2.659   1.125 -0.4716  0.2317 -0.0361
  416SOL     OW 1661   0.574   1.944   1.381 -0.3284 -0.4940  0.2898
  416SOL    HW1 1662   0.544   2.037   1.370  0.0576 -1.0668  0.8485
  416SOL    HW2 1663   0.583   1.913   1.291 -1.7557  0.1015  0.5194
  416SOL     MW 1664   0.572   1.952   1.368 -0.4658 -0.4910  0.3938
  417SOL     OW 1665   1.045   2.975   2.038  0.3265  0.0764 -0.3167
  417SOL    HW1 1666   0.991   2.989   2.121  0.8419  1.5245 -0.8173
  417SOL    HW2 1667   1.004   2.908   1.985 -0.3547 -0.2414  1.5754
  417SOL     MW 1668   1.032   2.968   2.042  0.3046  0.2256 -0.1331
  418SOL     OW 1669   0.718   2.982   0.162 -0.1749 -0.0403  0.3056
  418SOL    HW1 1670   0.776   2.930   0.103 -1.5469 -2.6814 -0.8540
  418SOL    HW2 1671   0.634   2.941   0.139  0.6895 -0.3273  0.5794
  418SOL     MW 1672   0.714   2.970   0.151 -0.2419 -0.4266  0.1887
  419SOL     OW 1673   0.463   2.698   1.404 -0.0253 -0.2479 -0.0731
  419SOL    HW1 1674   0.502   2.779   1.429 -0.6043 -3.9969 -0.0381
  419SOL    HW2 1675   0.528   2.667   1.342  0.4119  0.3768  2.7580
  419SOL     MW 1676   0.477   2.705   1.399 -0.0440 -0.6601  0.3051
  420SOL     OW 1677   0.908   2.216   0.948  0.0862 -0.0517 -0.1046
  420SOL    HW1 1678   0.833   2.212   1.010  2.9413 -2.0893  1.8594
  420SOL    HW2 1679   0.901   2.303   0.908  4.3593  0.4286 -0.6836
  420SOL     MW 1680   0.897   2.227   0.951  1.0267 -0.2572  0.0781
  421SOL     OW 1681   2.946   0.078   0.116 -0.2150  0.3007 -0.5909
  421SOL    HW1 1682   2.894   0.045   0.050 -0.9421 -0.7026  0.7328
  421SOL    HW2 1683   2.954   0.002   0.171 -1.4344  1.9768 -0.7655
  421SOL     MW 1684   2.940   0.064   0.115 -0.4718  0.3895 -0.4393
  422SOL     OW 1685   0.826   2.503   0.914  0.0115  0.2597 -0.0109
  422SOL    HW1 1686   0.748   2.503   0.972 -0.4331  0.8947 -0.1695
  422SOL    HW2 1687   0.799   2.495   0.817 -1.0845 -1.4144 -3.5681
  422SOL     MW 1688   0.812   2.502   0.909 -0.1918  0.1226 -0.5012
  423SOL     OW 1689   1.623   0.087   0.521 -0.1523  0.3941 -0.2555
  423SOL    HW1 1690   1.647   0.036   0.445  2.0951 -0.4435  1.2726
  423SOL    HW2 1691   1.601   0.176   0.485  0.7314  0.1985  0.5474
  423SOL     MW 1692   1.623   0.092   0.506  0.2608  0.2577  0.0520
  424SOL     OW 1693   0.747   2.177   1.176 -0.3254 -0.2698  0.1283
  424SOL    HW1 1694   0.654   2.160   1.210 -1.6208  0.2095  1.9538
  424SOL    HW2 1695   0.781   2.227   1.257  0.0802  0.9044 -0.4345
  424SOL     MW 1696   0.739   2.182   1.191 -0.4428 -0.0516  0.2949
  425SOL     OW 1697   1.762   2.798   2.060 -0.1881  0.1064 -0.1059
  425SOL    HW1 1698   1.756   2.809   1.965  1.4874 -0.0647  1.0883
  425SOL    HW2 1699   1.756   2.701   2.081  2.1276 -1.7815 -0.9005
  425SOL     MW 1700   1.761   2.786   2.051  0.3385 -0.1653 -0.0532
  426SOL     OW 1701   0.772   1.646   1.918 -0.4295  0.0283 -0.3692
  426SOL    HW1 1702   0.721   1.624   1.833 -0.8866  0.0977  0.2684
  426SOL    HW2 1703   0.705   1.688   1.975  0.0298 -0.8593  1.0660
  426SOL     MW 1704   0.757   1.648   1.914 -0.4292 -0.0797 -0.0957
  427SOL     OW 1705   0.392   1.541   1.921 -0.0747  0.3893 -1.0671
  427SOL    HW1 1706   0.430   1.458   1.873 -0.9935 -0.5344 -0.5813
  427SOL    HW2 1707   0.299   1.524   1.926  0.0499 -0.2758 -0.3147
  427SOL     MW 1708   0.385   1.528   1.915 -0.1795  0.1797 -0.9037
  428SOL     OW 1709   0.587   2.599   1.157 -0.1102 -0.1831  0.2539
  428SOL    HW1 1710   0.672   2.571   1.195 -0.5009  0.6016 -0.6447
  428SOL    HW2 1711   0.528   2.524   1.164  1.0114 -0.2806 -1.6144
  428SOL     MW 1712   0.591   2.585   1.163 -0.0138 -0.0924 -0.1112
  429SOL     OW 1713   1.386   2.835   1.042  0.0292 -0.5065  0.2178
  429SOL    HW1 1714   1.295   2.819   1.084 -0.5586 -0.2421 -0.7513
  429SOL    HW2 1715   1.364   2.868   0.956  1.0093 -1.7565  1.4196
  429SOL     MW 1716   1.371   2.838   1.036  0.0810 -0.6366  0.2485
  430SOL     OW 1717   1.110   2.721   0.701  0.1892 -0.0832 -0.2794
  430SOL    HW1 1718   1.150   2.635   0.700  1.2684  2.4473  1.8460
  430SOL    HW2 1719   1.061   2.725   0.623  2.9657 -0.4279  1.6838
  430SOL     MW 1720   1.109   2.710   0.691  0.6979  0.2052  0.2600
  431SOL     OW 1721   0.391   2.031   1.072 -0.3268  0.4423  0.5383
  431SOL    HW1 1722   0.431   1.941   1.057  0.4360 -0.5140 -1.5167
  431SOL    HW2 1723   0.327   2.033   1.002  0.2248 -0.6245  3.0654
  431SOL     MW 1724   0.388   2.020   1.061 -0.1534  0.1753  0.6006
  432SOL     OW 1725   0.064   0.053   1.192  0.4004  0.2596 -0.3641
  432SOL    HW1 1726   0.094   0.073   1.288  0.9383 -0.3113 -1.1810
  432SOL    HW2 1727  -0.008  -0.018   1.199  1.2530  1.1496 -0.2817
  432SOL     MW 1728   0.058   0.046   1.205  0.5839  0.3017 -0.4610
  433SOL     OW 1729   0.672   2.912   1.442 -0.0678  0.1274  0.2890
  433SOL    HW1 1730   0.730   2.882   1.508 -2.5381 -1.1286 -3.4705
  433SOL    HW2 1731   0.734   2.911   1.368  0.2822 -0.0329  2.1860
  433SOL     MW 1732   0.688   2.908   1.441 -0.3476 -0.0595  0.0432
  434SOL     OW 1733   1.628   2.873   1.518  0.0402  0.0021  0.0816
  434SOL    HW1 1734   1.553   2.931   1.497 -1.2580 -1.9911 -1.1893
  434SOL    HW2 1735   1.629   2.821   1.432  0.4174 -1.2513 -0.6080
  434SOL     MW 1736   1.618   2.874   1.504 -0.0813 -0.4263 -0.1771
  435SOL     OW 1737   2.821   1.796   0.294  0.1045 -0.0125 -0.3405
  435SOL    HW1 1738   2.875   1.862   0.250  0.4303  0.8425 -0.1491
  435SOL    HW2 1739   2.788   1.742   0.219  0.0943  0.4758 -0.2054
  435SOL     MW 1740   2.824   1.798   0.278  0.1461  0.1648 -0.2974
  436SOL     OW 1741   1.491   2.793   0.322 -0.0192  0.1374 -0.3646
  436SOL    HW1 1742   1.558   2.756   0.385 -0.4822  1.6986  2.3619
  436SOL    HW2 1743   1.443   2.864   0.371 -0.3980  0.7557 -1.3786
  436SOL     MW 1744   1.493   2.797   0.336 -0.1303  0.4250 -0.1387
  437SOL     OW 1745   0.862   2.884   1.235 -0.2043  0.7083  0.0877
  437SOL    HW1 1746   0.908   2.975   1.227 -2.5275  1.6476 -0.6587
  437SOL    HW2 1747   0.806   2.870   1.160 -0.9505  0.5672 -1.9938
  437SOL     MW 1748   0.861   2.894   1.224 -0.6093  0.8136 -0.2854
  438SOL     OW 1749   0.814   2.489   2.084 -0.0681  0.3698 -0.3274
  438SOL    HW1 1750   0.822   2.427   2.161  2.1264  0.6300 -1.3639
  438SOL    HW2 1751   0.754   2.446   2.025  2.2411 -0.1675  0.5749
  438SOL     MW 1752   0.807   2.475   2.087  0.5261  0.3333 -0.3451
  439SOL     OW 1753   1.123   2.182   0.358 -0.0262 -0.0503 -0.4203
  439SOL    HW1 1754   1.091   2.210   0.449 -1.0208 -0.1013 -2.2213
  439SOL    HW2 1755   1.137   2.268   0.318  1.6330  0.8906 -1.5706
  439SOL     MW 1756   1.120   2.197   0.364  0.0615  0.0671 -0.8097
  440SOL     OW 1757   1.627   3.070   2.972 -0.0101 -0.4032  0.4454
  440SOL    HW1 1758   1.596   3.034   3.055 -0.0494 -1.0638 -1.4741
  440SOL    HW2 1759   1.694   3.005   2.952  0.6551 -0.0090  0.9088
  440SOL     MW 1760   1.631   3.056   2.980  0.0725 -0.4384  0.2533
  441SOL     OW 1761   0.362   2.649   0.498 -0.3572 -0.3528 -0.4376
  441SOL    HW1 1762   0.324   2.620   0.414 -0.0134  0.3569  1.6670
  441SOL    HW2 1763   0.368   2.741   0.494 -0.3857  0.2256  4.3981
  441SOL     MW 1764   0.358   2.657   0.487 -0.3156 -0.1828  0.4781
  442SOL     OW 1765   3.101   2.373   0.627  0.3104 -0.3124 -0.5517
  442SOL    HW1 1766   3.106   2.471   0.605 -1.7003  2.3609  0.7390
  442SOL    HW2 1767   3.006   2.358   0.632  0.4381 -1.5509  0.5095
  442SOL     MW 1768   3.089   2.384   0.625  0.0620 -0.1231 -0.2414
  443SOL     OW 1769   1.410   1.688   1.924  0.3664  0.3087 -0.1953
  443SOL    HW1 1770   1.373   1.742   1.857  3.3538 -3.2502 -0.5501
  443SOL    HW2 1771   1.358   1.616   1.916  2.6521 -0.4232  1.0106
  443SOL     MW 1772   1.398   1.686   1.914  1.0621 -0.2574 -0.0830
  444SOL     OW 1773   0.891   2.613   1.556 -0.3694 -0.4243  0.3564
  444SOL    HW1 1774   0.965   2.584   1.604  1.8314  1.3083  0.8607
  444SOL    HW2 1775   0.822   2.620   1.618  2.1411  1.6125 -2.6788
  444SOL     MW 1776   0.892   2.610   1.570  0.2522  0.0730  0.0225
  445SOL     OW 1777   0.952   0.059   1.236 -0.3570  0.4787  0.2850
  445SOL    HW1 1778   0.893   0.145   1.219  0.0579  1.7939  3.2106
  445SOL    HW2 1779   1.019   0.068   1.171  0.8664  0.1385 -0.1721
  445SOL     MW 1780   0.953   0.071   1.226 -0.1408  0.6073  0.6107
  446SOL     OW 1781   2.729   2.848   1.062 -0.1375 -0.2580 -0.1352
  446SOL    HW1 1782   2.681   2.891   0.988 -1.2998 -0.0523  0.8421
  446SOL    HW2 1783   2.780   2.769   1.028  1.4467  0.5319 -0.1006
  446SOL     MW 1784   2.730   2.843   1.047 -0.0818 -0.1266 -0.0017
  447SOL     OW 1785   3.021   2.011   1.696  0.3129  0.0740 -0.6424
  447SOL    HW1 1786   3.059   1.927   1.734 -2.2614 -0.0715 -1.9067
  447SOL    HW2 1787   2.965   1.982   1.622 -1.1299  0.4066 -0.2324
  447SOL     MW 1788   3.019   1.996   1.691 -0.2171  0.0987 -0.7551
  448SOL     OW 1789   1.683   2.380   1.682  0.1586  0.0876  0.0339
  448SOL    HW1 1790   1.628   2.297   1.690 -1.7778  2.0220 -0.4485
  448SOL    HW2 1791   1.623   2.455   1.687  0.8782  2.3679 -0.1498
  448SOL     MW 1792   1.668   2.379   1.683 -0.0019  0.6437 -0.0540
  449SOL     OW 1793   0.859   2.861   0.388  0.0016  0.3606  0.3797
  449SOL    HW1 1794   0.801   2.904   0.319  0.6288  5.0661  1.7312
  449SOL    HW2 1795   0.791   2.848   0.454  0.0290 -0.6819 -1.1301
  449SOL     MW 1796   0.842   2.865   0.388  0.0880  0.8439  0.3588
  450SOL     OW 1797   1.176   2.437   0.654  0.7465 -0.0260 -0.4912
  450SOL    HW1 1798   1.196   2.397   0.735 -0.8587 -2.3716 -1.7942
  450SOL    HW2 1799   1.266   2.449   0.618  2.4444 -2.9536 -1.9717
  450SOL     MW 1800   1.191   2.434   0.660  0.7587 -0.7218 -0.8584
  451SOL     OW 1801   0.634   1.915   1.661  0.3168  0.5784 -0.3639
  451SOL    HW1 1802   0.724   1.947   1.666 -1.8852 -1.3599 -1.6715
  451SOL    HW2 1803   0.612   1.935   1.569 -2.2547  0.8009  0.2053
  451SOL     MW 1804   0.643   1.922   1.650 -0.3130  0.3520 -0.4614
  452SOL     OW 1805   0.316   2.637   0.014  0.2458  0.0906  0.5254
  452SOL    HW1 1806   0.376   2.716   0.032  1.4756 -1.6222  2.3588
  452SOL    HW2 1807   0.317   2.624  -0.081  0.1722  0.7482  1.3792
  452SOL     MW 1808   0.324   2.646   0.004  0.3984 -0.0486  0.8799
  453SOL     OW 1809   0.409   3.034   1.672 -0.4520 -0.6342 -0.2062
  453SOL    HW1 1810   0.473   3.079   1.611  0.7973 -0.9803 -1.8854
  453SOL    HW2 1811   0.341   3.002   1.612  1.3311  0.0640 -0.5005
  453SOL     MW 1812   0.408   3.035   1.656 -0.0519 -0.5878 -0.4666
  454SOL     OW 1813   1.156   2.762   1.161 -0.0111  0.0266 -0.1492
  454SOL    HW1 1814   1.152   2.676   1.115 -1.2947 -1.5408  1.1055
  454SOL    HW2 1815   1.069   2.798   1.145  1.6461 -0.9159 -1.1715
  454SOL     MW 1816   1.144   2.756   1.153  0.0382 -0.3045 -0.1185
  455SOL     OW 1817   1.610   2.936   0.129  0.3976  0.0542  0.4567
  455SOL    HW1 1818   1.699   2.909   0.146  0.4369  0.4998  0.5614
  455SOL    HW2 1819   1.555   2.885   0.183  0.0139  0.1575  0.5868
  455SOL     MW 1820   1.614   2.925   0.138  0.3521  0.1266  0.4876
  456SOL     OW 1821   2.839   0.315   1.382  0.3408 -0.1244  0.0199
  456SOL    HW1 1822   2.783   0.251   1.339 -0.8469  2.8414 -0.1479
  456SOL    HW2 1823   2.877   0.379   1.313  0.1066 -2.0563 -0.1637
  456SOL     MW 1824   2.836   0.315   1.367  0.1532  0.0120 -0.0265
  457SOL     OW 1825   0.920   1.500   2.955  0.3591  0.6481 -0.0107
  457SOL    HW1 1826   0.860   1.485   3.034 -1.3966  2.5853  1.0806
  457SOL    HW2 1827   0.994   1.448   2.973 -0.2993 -0.1508 -0.6958
  457SOL     MW 1828   0.922   1.491   2.968  0.0406  0.7983  0.0429
  458SOL     OW 1829   1.432   1.325   0.664 -0.0971  0.1047 -0.4927
  458SOL    HW1 1830   1.363   1.335   0.737 -1.0263  1.5540  2.0944
  458SOL    HW2 1831   1.394   1.268   0.600 -0.8537 -0.5617 -0.2509
  458SOL     MW 1832   1.418   1.319   0.665 -0.3195  0.2080 -0.1194
  459SOL     OW 1833   1.613   0.119   0.197 -0.2313 -0.4275  0.5352
  459SOL    HW1 1834   1.606   0.022   0.186 -0.0057  1.9965 -2.3214
  459SOL    HW2 1835   1.525   0.143   0.171 -0.3621 -0.3706 -2.3078
  459SOL     MW 1836   1.601   0.109   0.192 -0.2188 -0.1002 -0.2168
  460SOL     OW 1837   1.757   2.152   0.620 -0.1797  0.2304  0.2787
  460SOL    HW1 1838   1.665   2.137   0.634  2.3584  1.2495  2.0858
  460SOL    HW2 1839   1.763   2.065   0.581 -2.4043 -0.5500 -0.0201
  460SOL     MW 1840   1.746   2.139   0.617 -0.1383  0.2619  0.4777
  461SOL     OW 1841   0.356   2.310   0.633 -0.0343  0.2484  0.3133
  461SOL    HW1 1842   0.293   2.339   0.574  1.1024 -2.5346  2.3305
  461SOL    HW2 1843   0.364   2.382   0.695  3.3492  0.2555  0.5710
  461SOL     MW 1844   0.349   2.323   0.633  0.5621 -0.1178  0.6134
  462SOL     OW 1845   0.418   0.248   1.364 -0.3394 -0.3126  0.1285
  462SOL    HW1 1846   0.440   0.156   1.354 -2.1665  2.0063  0.6503
  462SOL    HW2 1847   0.491   0.299   1.314  1.7889  0.8073 -0.8441
  462SOL     MW 1848   0.431   0.242   1.356 -0.2997  0.1411  0.0690
  463SOL     OW 1849   0.973   3.085   0.689 -0.1340 -0.4223 -0.5615
  463SOL    HW1 1850   0.997   3.044   0.602 -0.7426 -1.3541 -0.4228
  463SOL    HW2 1851   0.892   3.141   0.687 -2.0645  0.3827 -1.6891
  463SOL     MW 1852   0.965   3.087   0.677 -0.4690 -0.4390 -0.6920
  464SOL     OW 1853   0.867   2.997   2.248  0.1082 -0.2222 -0.5005
  464SOL    HW1 1854   0.861   2.900   2.240 -0.0304 -4.5936 -0.6795
  464SOL    HW2 1855   0.891   3.027   2.337 -2.3597  1.1441 -1.0982
  464SOL     MW 1856   0.869   2.988   2.259 -0.2357 -0.6187 -0.6030
  465SOL     OW 1857   0.711   0.316   0.474  0.0092 -0.6298  0.3470
  465SOL    HW1 1858   0.652   0.263   0.528 -0.7149 -3.0364 -0.2502
  465SOL    HW2 1859   0.722   0.251   0.400 -1.7270  0.3492 -1.2824
  465SOL     MW 1860   0.705   0.300   0.471 -0.3154 -0.8182  0.0532
  466SOL     OW 1861   1.084   2.006   0.728  0.2554  0.1510  0.6240
  466SOL    HW1 1862   1.078   1.933   0.669 -0.6005  1.1994  2.8638
  466SOL    HW2 1863   1.075   2.086   0.680  0.2383 -0.0028  0.5018
  466SOL     MW 1864   1.082   2.007   0.714  0.1402  0.2690  0.9034
  467SOL     OW 1865   1.249   2.348   0.892  0.1593  0.1505  0.1511
  467SOL    HW1 1866   1.308   2.348   0.971  0.0118  3.4691  1.1487
  467SOL    HW2 1867   1.236   2.258   0.877  0.7188  2.7788 -2.8504
  467SOL     MW 1868   1.255   2.336   0.901  0.2136  0.9351 -0.1133
  468SOL     OW 1869   0.331   2.602   2.009  0.1030  0.2205  0.1944
  468SOL    HW1 1870   0.336   2.510   1.977 -0.0189 -0.6223  2.6630
  468SOL    HW2 1871   0.392   2.662   1.960  0.5736  2.4417  3.6731
  468SOL     MW 1872   0.340   2.598   1.998  0.1490  0.4024  0.9791
  469SOL     OW 1873   0.400   2.087   1.743  0.5495 -0.4273  0.3314
  469SOL    HW1 1874   0.309   2.064   1.718  0.8446  0.9784  0.6317
  469SOL    HW2 1875   0.466   2.029   1.704  1.2750  0.2124 -0.7283
  469SOL     MW 1876   0.396   2.077   1.734  0.6841 -0.1574  0.2312
  470SOL     OW 1877   0.006   2.588   0.213 -0.4595  0.6761 -0.4030
  470SOL    HW1 1878  -0.046   2.538   0.275  3.0952 -1.3913 -0.4525
  470SOL    HW2 1879  -0.020   2.556   0.128  1.0430 -0.2884  1.4312
  470SOL     MW 1880  -0.005   2.577   0.210  0.2078  0.2760 -0.1676
  471SOL     OW 1881   1.236   2.751   1.420  0.0989 -0.2137  0.5186
  471SOL    HW1 1882   1.165   2.777   1.482 -1.1809  1.8564  0.7497
  471SOL    HW2 1883   1.202   2.743   1.334 -1.6989 -1.9355  0.6581
  471SOL     MW 1884   1.222   2.754   1.417 -0.3072 -0.1677  0.5675
  472SOL     OW 1885   2.955   2.074   0.404 -0.1772  0.6034 -0.3558
  472SOL    HW1 1886   2.962   2.031   0.317 -0.6851  1.3664  0.9223
  472SOL    HW2 1887   2.953   1.992   0.453 -1.2772 -0.0753  1.1782
  472SOL     MW 1888   2.955   2.058   0.399 -0.3894  0.6145  0.0152
  473SOL     OW 1889   0.832   2.504   1.296 -0.4333  0.0383  0.2124
  473SOL    HW1 1890   0.901   2.437   1.297  2.6212  0.5196 -0.9610
  473SOL    HW2 1891   0.856   2.555   1.372 -0.7581  0.0606  1.4097
  473SOL     MW 1892   0.844   2.502   1.306 -0.0731  0.1048  0.2156
  474SOL     OW 1893   0.842   2.090   1.727  0.2953  0.8849  0.1089
  474SOL    HW1 1894   0.931   2.074   1.741 -3.9543 -0.2508 -0.7173
  474SOL    HW2 1895   0.840   2.153   1.654  0.8089  0.2351 -1.4437
  474SOL     MW 1896   0.853   2.096   1.719 -0.1976  0.6493 -0.2049
  475SOL     OW 1897   1.691   0.022   1.317 -0.5032 -0.4707  0.6484
  475SOL    HW1 1898   1.602   0.044   1.275 -0.4522  1.3618  1.1292
  475SOL    HW2 1899   1.687  -0.068   1.346 -0.9202  0.3125 -0.0791
  475SOL     MW 1900   1.679   0.013   1.316 -0.5515 -0.1256  0.6158
  476SOL     OW 1901   1.445   2.618   0.845  0.7672 -0.0992 -0.5619
  476SOL    HW1 1902   1.450   2.640   0.934  0.6350 -0.7439  1.4389
  476SOL    HW2 1903   1.431   2.704   0.802 -0.8379  1.6253 -0.6263
  476SOL     MW 1904   1.444   2.632   0.851  0.5380  0.0433 -0.3064
  477SOL     OW 1905   0.820   2.540   0.618  0.7354 -0.0134 -0.7604
  477SOL    HW1 1906   0.888   2.568   0.564 -0.2407  1.6106  0.0232
  477SOL    HW2 1907   0.805   2.449   0.582 -1.1350 -0.3459  1.5550
  477SOL     MW 1908   0.827   2.532   0.606  0.3598  0.1570 -0.3515
  478SOL     OW 1909   0.146   2.699   0.967  0.3407 -0.4760  0.5092
  478SOL    HW1 1910   0.197   2.773   0.944 -0.0593  0.9007  1.3011
  478SOL    HW2 1911   0.195   2.630   0.921  0.9011 -0.5547  2.7579
  478SOL     MW 1912   0.159   2.700   0.958  0.3619 -0.3047  0.9104
  479SOL     OW 1913   1.469   1.939   1.318 -0.0935 -0.2330 -0.0748
  479SOL    HW1 1914   1.422   1.991   1.385  1.1764  0.0146 -1.7030
  479SOL    HW2 1915   1.546   1.895   1.362 -0.2017  1.3596 -0.3279
  479SOL     MW 1916   1.473   1.940   1.333  0.0598  0.0098 -0.3230
  480SOL     OW 1917   1.857   2.424   1.354 -0.0389  0.2833  0.3954
  480SOL    HW1 1918   1.867   2.362   1.428  1.1054  1.6022 -1.5671
  480SOL    HW2 1919   1.883   2.378   1.273 -0.5366 -1.0240  3.0627
  480SOL     MW 1920   1.861   2.410   1.353  0.0464  0.2848  0.4884
  481SOL     OW 1921   1.171   0.164   1.085  0.1291 -0.3260 -0.3277
  481SOL    HW1 1922   1.255   0.165   1.042 -0.8836  1.1033 -0.7875
  481SOL    HW2 1923   1.156   0.251   1.126 -2.6729  0.7759  1.5410
  481SOL     MW 1924   1.180   0.176   1.085 -0.3742  0.0080 -0.1418
  482SOL     OW 1925   1.060   3.038   0.425 -0.1543 -0.1167  0.2600
  482SOL    HW1 1926   0.984   2.985   0.402 -2.4841  1.6424  3.9878
  482SOL    HW2 1927   1.040   3.133   0.414  1.4316  0.0710  1.4381
  482SOL     MW 1928   1.048   3.043   0.421 -0.2524  0.1402  0.9073
  483SOL     OW 1929   0.387   2.926   0.483 -0.0889  0.0701 -0.5449
  483SOL    HW1 1930   0.314   2.925   0.428  0.6372 -1.9233  1.9365
  483SOL    HW2 1931   0.363   2.980   0.558  1.3711  0.9510 -3.2930
  483SOL     MW 1932   0.374   2.933   0.486  0.1995 -0.0767 -0.5801
  484SOL     OW 1933   1.699   1.809   1.439 -0.2724  0.3006  0.3876
  484SOL    HW1 1934   1.732   1.899   1.419 -1.8868  1.2039  0.1914
  484SOL    HW2 1935   1.702   1.813   1.538 -0.3438  1.7620  0.5800
  484SOL     MW 1936   1.704   1.822   1.449 -0.4948  0.6126  0.3871
  485SOL     OW 1937   0.393   2.325   0.331  0.9054  0.3936 -0.3413
  485SOL    HW1 1938   0.460   2.359   0.391  0.4606 -1.6266  1.8102
  485SOL    HW2 1939   0.350   2.410   0.303  0.8727 -2.9242 -2.3770
  485SOL     MW 1940   0.396   2.341   0.335  0.8424 -0.3107 -0.3260
  486SOL     OW 1941   0.109   2.468   1.473 -0.0321 -0.0907 -0.1549
  486SOL    HW1 1942   0.114   2.559   1.444  2.1430  1.0457  2.3680
  486SOL    HW2 1943   0.104   2.465   1.573 -3.9049 -0.0699  2.8616
  486SOL     MW 1944   0.109   2.479   1.483 -0.2561  0.0620  0.5760
  487SOL     OW 1945   1.289   1.554   1.107  0.5450 -0.3522  0.2144
  487SOL    HW1 1946   1.259   1.644   1.115  0.9276 -0.4149  0.2931
  487SOL    HW2 1947   1.385   1.564   1.084  3.0032 -1.5617  0.9496
  487SOL     MW 1948   1.298   1.567   1.105  0.9198 -0.5201  0.3218
  488SOL     OW 1949   1.444   1.781   0.595 -0.5583  0.0410 -0.1804
  488SOL    HW1 1950   1.453   1.873   0.580 -2.1679 -0.0756 -0.9107
  488SOL    HW2 1951   1.376   1.758   0.535  0.8216  1.6410  0.2762
  488SOL     MW 1952   1.436   1.790   0.585 -0.5886  0.2368 -0.2166
  489SOL     OW 1953   0.710   0.673   0.470 -0.3377  0.0168 -0.1002
  489SOL    HW1 1954   0.646   0.607   0.434  1.6816 -1.8656 -1.0964
  489SOL    HW2 1955   0.694   0.674   0.568  1.2962 -0.5768  0.1296
  489SOL     MW 1956   0.699   0.664   0.478  0.1443 -0.3099 -0.2013
  490SOL     OW 1957   1.366   2.067   0.425 -0.1981  0.2514  0.1394
  490SOL    HW1 1958   1.433   2.119   0.382 -2.0247  2.9258 -0.9900
  490SOL    HW2 1959   1.279   2.101   0.393  0.8634 -0.3439  0.8687
  490SOL     MW 1960   1.363   2.078   0.415 -0.2991  0.5257  0.0866
  491SOL     OW 1961   1.334   3.016   0.421 -0.0604 -0.1355 -0.4104
  491SOL    HW1 1962   1.375   3.054   0.500 -1.6754 -1.5248  1.2260
  491SOL    HW2 1963   1.239   3.027   0.409 -3.7758 -3.5325 -1.2445
  491SOL     MW 1964   1.327   3.022   0.430 -0.7637 -0.7670 -0.3045
  492SOL     OW 1965   1.454   2.153   0.701  0.3408  0.0946  0.0977
  492SOL    HW1 1966   1.423   2.117   0.621  0.3640  0.2486  1.2839
  492SOL    HW2 1967   1.412   2.110   0.767  0.7713 -0.0396  0.7256
  492SOL     MW 1968   1.444   2.143   0.699  0.4006  0.0972  0.3371
  493SOL     OW 1969   0.201   3.018   0.318  0.5549  0.5300  0.6075
  493SOL    HW1 1970   0.135   3.073   0.338  0.8445 -2.3148  0.1910
  493SOL    HW2 1971   0.180   2.987   0.233 -0.2375 -0.0209  0.8508
  493SOL     MW 1972   0.190   3.021   0.310  0.4886  0.0820  0.5847
  494SOL     OW 1973   0.376   2.367   1.822  0.4614 -0.7801  0.4170
  494SOL    HW1 1974   0.408   2.273   1.822  1.2467 -1.5597 -0.2183
  494SOL    HW2 1975   0.412   2.399   1.734  1.0507  1.2561 -2.5087
  494SOL     MW 1976   0.385   2.359   1.810  0.6427 -0.6143 -0.0529
  495SOL     OW 1977   2.817   1.631   2.674 -0.3329  0.1494 -0.2442
  495SOL    HW1 1978   2.811   1.694   2.747  0.1688  0.2012  0.8205
  495SOL    HW2 1979   2.816   1.545   2.716 -2.2708  1.8359 -0.2831
  495SOL     MW 1980   2.816   1.628   2.689 -0.5224  0.3787 -0.1088
  496SOL     OW 1981   2.833   2.298   2.751 -0.0383 -0.0083  0.1620
  496SOL    HW1 1982   2.852   2.218   2.796  0.3425 -3.0001 -0.3673
  496SOL    HW2 1983   2.905   2.360   2.757 -0.1701  1.3871  0.9603
  496SOL     MW 1984   2.845   2.296   2.758 -0.0055 -0.2190  0.1975
  497SOL     OW 1985   1.473   2.432   2.585 -0.1283 -0.1818 -0.1877
  497SOL    HW1 1986   1.484   2.377   2.506  0.2695 -0.5868 -3.5523
  497SOL    HW2 1987   1.427   2.373   2.646 -0.7614  2.3120 -0.3602
  497SOL     MW 1988   1.468   2.417   2.583 -0.1594  0.0938 -0.6544
  498SOL     OW 1989   1.485   2.728   2.318 -0.3480  0.2975 -0.2486
  498SOL    HW1 1990   1.461   2.651   2.366  2.4134  0.1967  0.1671
  498SOL    HW2 1991   1.554   2.774   2.366  2.8607 -2.2415 -2.3315
  498SOL     MW 1992   1.491   2.724   2.331  0.4397 -0.0508 -0.4686
  499SOL     OW 1993   0.967   0.052   0.100 -0.2474  0.7425  0.5011
  499SOL    HW1 1994   0.887   0.092   0.129  0.8515  0.2761 -1.0301
  499SOL    HW2 1995   0.936  -0.030   0.067 -0.7944  0.4903  0.2968
  499SOL     MW 1996   0.953   0.046   0.099 -0.1746  0.6477  0.2721
  500SOL     OW 1997   1.030   2.538   2.728  0.6363 -0.0375  0.1471
  500SOL    HW1 1998   1.093   2.496   2.792 -0.6195 -0.4499  0.2362
  500SOL    HW2 1999   0.989   2.598   2.791 -1.4023  0.0786 -0.2729
  500SOL     MW 2000   1.033   2.540   2.745  0.2016 -0.0766  0.1034
  501SOL     OW 2001   1.802   2.312   2.953 -0.0788 -0.3131 -0.5196
  501SOL    HW1 2002   1.822   2.406   2.959 -0.5497  0.1687 -1.8492
  501SOL    HW2 2003   1.886   2.265   2.965 -0.2776 -0.2383 -1.2508
  501SOL     MW 2004   1.816   2.318   2.955 -0.1671 -0.2397 -0.7915
  502SOL     OW 2005   0.329   2.738   2.842  0.1907  0.2155  0.5560
  502SOL    HW1 2006   0.320   2.755   2.746 -1.3250  2.7491 -1.1604
  502SOL    HW2 2007   0.293   2.820   2.876  0.5368 -0.1846  1.9702
  502SOL     MW 2008   0.323   2.751   2.834  0.0364  0.4970  0.5162
  503SOL     OW 2009   1.108   2.475   2.073 -0.0080 -0.2044  0.0664
  503SOL    HW1 2010   1.129   2.515   1.992  0.5358  0.6875 -0.6541
  503SOL    HW2 2011   1.020   2.443   2.074  0.7556 -0.6105 -2.2953
  503SOL     MW 2012   1.099   2.476   2.062  0.1645 -0.1403 -0.3403
  504SOL     OW 2013   0.069   2.621   2.184 -0.2620  0.5737  0.1944
  504SOL    HW1 2014   0.086   2.571   2.103  1.1652 -0.2272  0.3036
  504SOL    HW2 2015   0.047   2.553   2.244 -2.4040 -1.3487  1.9442
  504SOL     MW 2016   0.068   2.605   2.181 -0.3563  0.2144  0.4397
  505SOL     OW 2017   1.595   2.852   2.726 -0.3953 -0.2550  0.8526
  505SOL    HW1 2018   1.635   2.870   2.637 -1.1923 -1.0125 -1.6020
  505SOL    HW2 2019   1.506   2.889   2.740  0.6683 -0.8261  0.6483
  505SOL     MW 2020   1.589   2.860   2.716 -0.3601 -0.4303  0.5018
  506SOL     OW 2021   1.554   0.132   2.767  0.4470  0.3280  0.2194
  506SOL    HW1 2022   1.553   0.067   2.832 -2.5242 -0.4294 -2.1717
  506SOL    HW2 2023   1.631   0.099   2.712  1.4755 -0.1276  0.1618
  506SOL     MW 2024   1.564   0.119   2.768  0.1907  0.1680 -0.1037
  507SOL     OW 2025   0.797   2.700   2.837 -0.2031 -0.4035 -0.2683
  507SOL    HW1 2026   0.820   2.732   2.746  0.3926  0.7009  0.7169
  507SOL    HW2 2027   0.706   2.684   2.841  1.1981  0.7451 -0.6021
  507SOL     MW 2028   0.788   2.702   2.825  0.0603 -0.1062 -0.1824
  508SOL     OW 2029   1.196   2.154   2.549  0.2123  0.0260 -0.2435
  508SOL    HW1 2030   1.262   2.167   2.615  0.9781 -0.6694  1.8354
  508SOL    HW2 2031   1.115   2.177   2.597 -1.1028  0.5912 -1.2649
  508SOL     MW 2032   1.194   2.158   2.564  0.1399  0.0088 -0.1040
  509SOL     OW 2033   0.547   2.589   2.873  0.5444 -0.8128 -0.4979
  509SOL    HW1 2034   0.567   2.527   2.801  1.3819 -0.0417  2.2018
  509SOL    HW2 2035   0.484   2.660   2.839 -2.3257 -3.3890  0.7800
  509SOL     MW 2036   0.542   2.590   2.859  0.2762 -1.0510  0.0269
  510SOL     OW 2037   1.520   2.641   1.670 -0.2640 -0.0622 -1.2686
  510SOL    HW1 2038   1.534   2.727   1.631 -1.3457 -2.4458 -2.4180
  510SOL    HW2 2039   1.453   2.661   1.737  0.3070  0.3321  0.0938
  510SOL     MW 2040   1.513   2.655   1.674 -0.3314 -0.3247 -1.2405
  511SOL     OW 2041   0.393   2.591   2.515  0.2131 -0.3953  0.0269
  511SOL    HW1 2042   0.470   2.566   2.564  2.4151  0.8986  1.7761
  511SOL    HW2 2043   0.416   2.570   2.423  1.3680  1.1124 -0.9541
  511SOL     MW 2044   0.406   2.585   2.509  0.6560 -0.0257  0.1282
  512SOL     OW 2045   0.932   1.992   2.808 -0.0160 -0.4370  0.2462
  512SOL    HW1 2046   0.839   2.022   2.814 -0.3960  1.3938 -1.9970
  512SOL    HW2 2047   0.950   1.923   2.875  1.0975  0.1923  0.6396
  512SOL     MW 2048   0.922   1.987   2.817  0.0808 -0.1124  0.0021
  513SOL     OW 2049   1.483   2.406   2.224  0.5421  0.0438  0.6231
  513SOL    HW1 2050   1.579   2.422   2.202  2.0042 -2.1237  2.3878
  513SOL    HW2 2051   1.473   2.323   2.268  0.9117 -0.3828 -1.3595
  513SOL     MW 2052   1.494   2.397   2.227  0.7838 -0.2985  0.5944
  514SOL     OW 2053   0.212   2.380   2.658  0.2161 -0.1983  0.8049
  514SOL    HW1 2054   0.261   2.457   2.627  2.6968 -1.6505 -1.7125
  514SOL    HW2 2055   0.262   2.337   2.731  1.4350  1.0566  0.5454
  514SOL     MW 2056   0.225   2.385   2.664  0.7042 -0.2244  0.4385
  515SOL     OW 2057   1.073   2.015   1.900  0.0956 -0.0003 -0.2001
  515SOL    HW1 2058   1.049   2.094   1.937  0.3921  1.2503  0.8639
  515SOL    HW2 2059   1.152   1.988   1.943 -1.2135 -0.0673  0.3979
  515SOL     MW 2060   1.080   2.022   1.911 -0.0380  0.1559  0.0192
  516SOL     OW 2061   1.343   2.625   2.906  0.2902  0.0304  0.1248
  516SOL    HW1 2062   1.354   2.645   2.816  0.3503  2.3273  2.1381
  516SOL    HW2 2063   1.276   2.555   2.907  3.1593  0.8242 -0.8112
  516SOL     MW 2064   1.335   2.618   2.894  0.6767  0.4382  0.2669
  517SOL     OW 2065   0.440   2.267   2.323  0.2171 -0.1182  0.2475
  517SOL    HW1 2066   0.411   2.359   2.307 -1.1983  1.2048 -1.3386
  517SOL    HW2 2067   0.398   2.222   2.245 -0.6171 -0.0704  0.3367
  517SOL     MW 2068   0.430   2.274   2.311 -0.0797  0.0626  0.0500
  518SOL     OW 2069   1.751   0.199   3.026 -0.4929 -0.0422  0.2269
  518SOL    HW1 2070   1.764   0.185   3.117 -0.8327 -0.9280 -0.4360
  518SOL    HW2 2071   1.717   0.116   3.008  0.0308 -1.8026 -0.3446
  518SOL     MW 2072   1.749   0.186   3.036 -0.4686 -0.3913  0.0640
  519SOL     OW 2073   0.603   2.348   1.985 -0.2792 -0.3526 -0.6720
  519SOL    HW1 2074   0.630   2.260   1.958  0.6595 -1.2657  2.2367
  519SOL    HW2 2075   0.542   2.372   1.912 -1.8009 -0.7151  1.6749
  519SOL     MW 2076   0.598   2.340   1.972 -0.3561 -0.5209  0.0214
  520SOL     OW 2077   1.132   2.142   2.894  0.6690 -0.9458 -0.3031
  520SOL    HW1 2078   1.047   2.099   2.865  0.2377  0.9533  1.7018
  520SOL    HW2 2079   1.173   2.095   2.968 -2.0364  2.8308  0.8238
  520SOL     MW 2080   1.126   2.130   2.900  0.2552 -0.1970  0.1101
  521SOL     OW 2081   1.694   2.101   2.191 -0.4471 -0.7197  0.9072
  521SOL    HW1 2082   1.759   2.099   2.117 -2.2594 -3.9482  2.3900
  521SOL    HW2 2083   1.703   2.002   2.206 -0.0381  0.3517 -1.0691
  521SOL     MW 2084   1.703   2.087   2.183 -0.6323 -1.0043  0.8421
  522SOL     OW 2085   2.842   2.555   2.157  0.3069  0.1434  0.0540
  522SOL    HW1 2086   2.887   2.492   2.211  1.5499  3.2530 -2.2810
  522SOL    HW2 2087   2.892   2.635   2.143 -1.5913 -1.2168  4.7179
  522SOL     MW 2088   2.855   2.558   2.162  0.2205  0.3742  0.3613
  523SOL     OW 2089   0.807   1.496   2.136  0.5932 -0.3615  0.0539
  523SOL    HW1 2090   0.807   1.540   2.050  0.9640  0.9742 -0.9279
  523SOL    HW2 2091   0.877   1.432   2.128 -1.3334  0.1070 -0.1652
  523SOL     MW 2092   0.816   1.493   2.123  0.3880 -0.1235 -0.1045
  524SOL     OW 2093   0.566   2.369   3.053  0.8660  0.3291  0.3778
  524SOL    HW1 2094   0.574   2.450   3.002 -0.7194 -0.7762  2.4642
  524SOL    HW2 2095   0.649   2.326   3.047 -5.0005  2.6429 -2.5864
  524SOL     MW 2096   0.578   2.374   3.045 -0.1172  0.4886  0.2620
  525SOL     OW 2097   0.303   2.168   2.121  0.0354  0.0043 -0.6453
  525SOL    HW1 2098   0.237   2.119   2.180  1.0105  1.7261 -0.6406
  525SOL    HW2 2099   0.347   2.094   2.076  2.2314  2.0325 -0.6679
  525SOL     MW 2100   0.300   2.152   2.123  0.4538  0.4990 -0.6477
  526SOL     OW 2101   0.657   2.100   1.940 -0.2999  0.0277  0.2621
  526SOL    HW1 2102   0.694   2.087   1.859  1.6920 -2.3232 -2.0930
  526SOL    HW2 2103   0.727   2.104   2.003 -0.9594 -0.4919  4.7773
  526SOL     MW 2104   0.671   2.099   1.938 -0.1241 -0.3510  0.5471
  527SOL     OW 2105   1.267   1.915   2.063  0.0861  0.2692  0.2703
  527SOL    HW1 2106   1.244   1.895   2.156 -0.1377 -1.1430 -1.5311
  527SOL    HW2 2107   1.335   1.863   2.030 -0.7393  2.5751  3.1435
  527SOL     MW 2108   1.273   1.906   2.071 -0.0524  0.3871  0.4117
  528SOL     OW 2109   0.618   2.906   2.938  0.0237  0.4950  0.3557
  528SOL    HW1 2110   0.678   2.976   2.938 -1.6418  1.1155  3.0151
  528SOL    HW2 2111   0.598   2.884   2.851 -1.9353  0.9137  0.5056
  528SOL     MW 2112   0.623   2.912   2.927 -0.4545  0.6321  0.7263
  529SOL     OW 2113   1.108   2.294   1.776 -0.2990  0.7269  0.1850
  529SOL    HW1 2114   1.158   2.265   1.853  1.3579  3.8913  1.7835
  529SOL    HW2 2115   1.176   2.281   1.710  0.3109 -2.6164  1.4626
  529SOL     MW 2116   1.123   2.289   1.778  0.0001  0.7033  0.5645
  530SOL     OW 2117   1.125   2.405   2.948  0.1029  0.2504 -0.0133
  530SOL    HW1 2118   1.062   2.426   3.013 -0.5581 -0.0993 -1.9846
  530SOL    HW2 2119   1.124   2.307   2.939 -1.0349 -0.9563 -0.5988
  530SOL     MW 2120   1.117   2.395   2.956 -0.1345  0.0451 -0.3507
  531SOL     OW 2121   0.890   1.828   2.605 -0.2280 -0.1676 -0.0654
  531SOL    HW1 2122   0.911   1.903   2.675  1.4520  0.6944 -1.0044
  531SOL    HW2 2123   0.866   1.741   2.650  0.0860 -0.2094 -0.6049
  531SOL     MW 2124   0.889   1.827   2.620  0.0351 -0.0594 -0.2605
  532SOL     OW 2125   1.718   0.364   2.781  0.3164  0.0138  0.5373
  532SOL    HW1 2126   1.655   0.294   2.767 -1.8002 -1.6904  1.0246
  532SOL    HW2 2127   1.736   0.355   2.872  1.0476  1.3670 -0.5524
  532SOL     MW 2128   1.712   0.354   2.791  0.1336 -0.0325  0.4578
  533SOL     OW 2129   1.793   2.847   2.928  0.0362 -0.2452 -0.8121
  533SOL    HW1 2130   1.767   2.771   2.987  1.6721 -0.3508 -1.1482
  533SOL    HW2 2131   1.739   2.850   2.849  1.1135  0.7045  0.7035
  533SOL     MW 2132   1.783   2.837   2.925  0.3942 -0.1338 -0.6564
  534SOL     OW 2133   1.773   2.541   2.509  0.4657  0.1456 -0.1249
  534SOL    HW1 2134   1.678   2.504   2.518 -1.2113 -1.2741  1.9253
  534SOL    HW2 2135   1.825   2.527   2.583 -1.7968 -1.4465 -1.3274
  534SOL     MW 2136   1.767   2.534   2.520 -0.0541 -0.2518 -0.0130
  535SOL     OW 2137   1.807   2.377   1.930 -0.3418  0.2929 -0.2245
  535SOL    HW1 2138   1.759   2.404   1.852 -0.1656 -0.0026  1.4072
  535SOL    HW2 2139   1.899   2.394   1.912  0.7769  1.6077 -1.8774
  535SOL     MW 2140   1.813   2.383   1.917 -0.1709  0.4274 -0.2273
  536SOL     OW 2141   0.384   1.942   1.992  0.0893 -0.5022 -0.4165
  536SOL    HW1 2142   0.390   1.959   1.894 -0.8729  0.0920 -0.7547
  536SOL    HW2 2143   0.473   1.916   2.015  0.9276 -0.9848  0.0485
  536SOL     MW 2144   0.396   1.941   1.982  0.0729 -0.4875 -0.3998
  537SOL     OW 2145   1.028   0.159   2.960 -0.9215  0.1822  0.1082
  537SOL    HW1 2146   0.996   0.140   3.046 -0.4763  0.2297  0.3594
  537SOL    HW2 2147   1.024   0.256   2.957 -0.9928 -2.9379 -0.8285
  537SOL     MW 2148   1.023   0.169   2.971 -0.8721 -0.2232  0.0177
  538SOL     OW 2149   1.326   0.095   2.967 -0.3260 -0.4319 -0.0158
  538SOL    HW1 2150   1.234   0.104   2.970  0.5007 -1.9622  0.7539
  538SOL    HW2 2151   1.353   0.139   3.045 -1.2637 -1.4681 -3.3549
  538SOL     MW 2152   1.317   0.102   2.978 -0.3407 -0.7705 -0.3548
  539SOL     OW 2153   0.694   2.740   2.468 -0.7941  0.2172 -0.2240
  539SOL    HW1 2154   0.775   2.793   2.497 -1.2647  0.3411  0.8375
  539SOL    HW2 2155   0.727   2.649   2.490 -0.2259 -0.8657 -0.3237
  539SOL     MW 2156   0.709   2.735   2.475 -0.7812  0.0906 -0.0971
  540SOL     OW 2157   0.376   2.260   2.847  0.2144 -0.4876  0.1135
  540SOL    HW1 2158   0.438   2.303   2.904  1.4560 -0.1969  0.5161
  540SOL    HW2 2159   0.322   2.210   2.907  1.1818  1.3277  0.3681
  540SOL     MW 2160   0.377   2.259   2.863  0.5058 -0.2097  0.2003
  541SOL     OW 2161   0.155   2.874   2.261  0.4847  0.2668 -0.5402
  541SOL    HW1 2162   0.139   2.781   2.240 -1.9680  0.0471  1.0444
  541SOL    HW2 2163   0.178   2.879   2.352 -0.1426 -0.3566 -1.7016
  541SOL     MW 2164   0.156   2.863   2.271  0.0783  0.1556 -0.4844
  542SOL     OW 2165   0.854   2.335   2.791 -0.1884 -0.0734 -0.3782
  542SOL    HW1 2166   0.840   2.317   2.883 -1.2919  3.7688 -4.4552
  542SOL    HW2 2167   0.925   2.402   2.786 -4.2881  2.3227 -1.4880
  542SOL     MW 2168   0.861   2.342   2.802 -0.8749  0.7496 -1.0625
  543SOL     OW 2169   1.361   2.665   2.604 -0.0228  0.2452  0.4578
  543SOL    HW1 2170   1.406   2.580   2.595 -1.1523 -0.9194 -0.9195
  543SOL    HW2 2171   1.429   2.730   2.625 -0.1258 -1.3270  1.0164
  543SOL     MW 2172   1.376   2.662   2.606 -0.1854 -0.1159  0.3498
  544SOL     OW 2173   0.671   0.094   2.703  0.2264  0.3964  0.0626
  544SOL    HW1 2174   0.583   0.072   2.700  0.4076  0.5780 -0.1220
  544SOL    HW2 2175   0.707   0.075   2.612  0.3242  0.5923  0.4782
  544SOL     MW 2176   0.664   0.089   2.690  0.2632  0.4462  0.0931
  545SOL     OW 2177   1.537   2.187   2.403  0.3236 -0.2724 -0.2078
  545SOL    HW1 2178   1.483   2.110   2.413  0.7778 -2.4977  1.0638
  545SOL    HW2 2179   1.577   2.165   2.322  0.8431  1.7869 -2.0759
  545SOL     MW 2180   1.535   2.174   2.393  0.4521 -0.2943 -0.2865
  546SOL     OW 2181   2.993   1.982   0.157  0.1680  0.4229 -0.3891
  546SOL    HW1 2182   2.924   2.038   0.108 -2.1545  0.8575 -2.4433
  546SOL    HW2 2183   3.054   1.947   0.097  0.3816  1.5350  1.3905
  546SOL     MW 2184   2.992   1.985   0.143 -0.1103  0.6270 -0.4253
  547SOL     OW 2185   0.146   2.882   0.079  0.5284  0.1208  0.2194
  547SOL    HW1 2186   0.151   2.926  -0.007  0.0575 -0.0159 -0.1574
  547SOL    HW2 2187   0.179   2.794   0.072  0.7610 -1.5398 -1.6393
  547SOL     MW 2188   0.151   2.876   0.067  0.4969 -0.1163 -0.0756
  548SOL     OW 2189   0.270   2.546   0.267  0.2838  0.1867 -0.2374
  548SOL    HW1 2190   0.304   2.574   0.179  2.3105  1.6426 -2.3830
  548SOL    HW2 2191   0.174   2.544   0.248  1.2684  0.9460  0.5413
  548SOL     MW 2192   0.261   2.550   0.253  0.6811  0.4790 -0.4178
  549SOL     OW 2193   0.686   1.843   2.117  0.7738 -0.3333 -0.0547
  549SOL    HW1 2194   0.713   1.932   2.080 -0.1428 -0.1688  2.4397
  549SOL    HW2 2195   0.740   1.838   2.195  1.3178  1.9965 -4.1082
  549SOL     MW 2196   0.697   1.854   2.122  0.7247 -0.0042 -0.2604
  550SOL     OW 2197   1.754   1.808   2.479  0.3405 -0.5838  0.3111
  550SOL    HW1 2198   1.750   1.842   2.389  0.7015  1.0948 -1.8429
  550SOL    HW2 2199   1.784   1.885   2.532  2.7189  2.7941 -0.8635
  550SOL     MW 2200   1.757   1.822   2.474  0.7019  0.0833 -0.1281
  551SOL     OW 2201   0.867   2.372   0.204  0.2472 -0.2227 -0.0871
  551SOL    HW1 2202   0.961   2.378   0.207 -0.5193 -4.4064 -0.0902
  551SOL    HW2 2203   0.846   2.310   0.140  0.5068 -0.0114  1.9687
  551SOL     MW 2204   0.877   2.365   0.196  0.1803 -0.7468  0.1837
  552SOL     OW 2205   1.680   1.813   2.205 -0.0940  0.0675  0.2112
  552SOL    HW1 2206   1.591   1.776   2.225 -1.7859  0.7362  1.1661
  552SOL    HW2 2207   1.711   1.748   2.142  2.7529 -1.0687  0.8728
  552SOL     MW 2208   1.673   1.800   2.200  0.0584  0.0058  0.4245
  553SOL     OW 2209   1.243   2.292   1.540  0.4446  0.7161 -0.1870
  553SOL    HW1 2210   1.276   2.203   1.517 -2.2163  0.3307  0.4492
  553SOL    HW2 2211   1.318   2.351   1.534 -0.5147 -0.2407 -1.1260
  553SOL     MW 2212   1.257   2.288   1.536 -0.0330  0.5390 -0.2270
  554SOL     OW 2213   0.544   2.882   2.684  0.3169 -0.5191  0.7000
  554SOL    HW1 2214   0.501   2.966   2.660  0.4829  1.1137  1.1760
  554SOL    HW2 2215   0.567   2.838   2.602  0.4436 -1.3871 -0.0856
  554SOL     MW 2216   0.541   2.887   2.670  0.3555 -0.4182  0.6591
  555SOL     OW 2217   0.599   2.424   2.646  0.0082  0.1525 -0.3421
  555SOL    HW1 2218   0.562   2.332   2.659  2.6842 -0.9565  2.2945
  555SOL    HW2 2219   0.686   2.433   2.602  2.5543  1.1474  0.7694
  555SOL     MW 2220   0.606   2.413   2.642  0.6972  0.1374  0.1524
  556SOL     OW 2221   1.049   1.842   0.123  0.4828  0.3376  0.1036
  556SOL    HW1 2222   1.047   1.821   0.031 -0.9787 -0.0777 -1.1452
  556SOL    HW2 2223   1.125   1.897   0.138 -1.0069 -0.5925  0.6551
  556SOL     MW 2224   1.059   1.846   0.113  0.0934  0.1601  0.0116
  557SOL     OW 2225   0.990   2.637   0.443 -0.0049 -0.3110 -0.1838
  557SOL    HW1 2226   1.083   2.646   0.418 -0.0372 -1.2975  0.5680
  557SOL    HW2 2227   0.941   2.706   0.402 -0.5798 -0.2277 -1.9793
  557SOL     MW 2228   0.996   2.647   0.435 -0.0850 -0.4301 -0.3215
  558SOL     OW 2229   0.266   2.118   3.077  0.2888  0.0380 -0.1340
  558SOL    HW1 2230   0.225   2.030   3.091 -2.8922  0.8947 -0.4665
  558SOL    HW2 2231   0.193   2.187   3.105 -2.3907  2.4255 -0.5072
  558SOL     MW 2232   0.251   2.115   3.083 -0.4845  0.4660 -0.2271
  559SOL     OW 2233   1.237   2.226   2.028  0.1304  0.2216  0.0034
  559SOL    HW1 2234   1.222   2.321   2.029  2.3740  2.7553  0.1003
  559SOL    HW2 2235   1.191   2.189   2.103 -0.6280  1.9456  0.0838
  559SOL     MW 2236   1.229   2.234   2.038  0.3264  0.7833  0.0268
  560SOL     OW 2237   1.930   2.940   0.051  0.0924  0.3261 -0.4085
  560SOL    HW1 2238   1.997   2.966  -0.009  1.5428  3.4679  0.5071
  560SOL    HW2 2239   1.861   2.917  -0.012 -1.5037 -0.9795 -1.5076
  560SOL     MW 2240   1.930   2.940   0.035  0.0732  0.5683 -0.4327
  561SOL     OW 2241   0.421   2.070   0.188  0.9709 -0.2732 -0.3972
  561SOL    HW1 2242   0.367   2.097   0.114 -2.3934  2.2029 -0.6108
  561SOL    HW2 2243   0.443   2.157   0.233 -0.3405 -1.7948 -0.4518
  561SOL     MW 2244   0.417   2.085   0.184  0.3540 -0.1473 -0.4326
  562SOL     OW 2245   0.859   2.117   2.133 -0.2076 -0.1775  0.2331
  562SOL    HW1 2246   0.832   2.168   2.210 -1.1055  3.7189 -1.4691
  562SOL    HW2 2247   0.950   2.085   2.150  3.5239 -1.7712 -0.7372
  562SOL     MW 2248   0.867   2.119   2.146  0.1663  0.1263 -0.1195
  563SOL     OW 2249   1.281   0.295   0.471  0.2222  0.2866  0.5638
  563SOL    HW1 2250   1.195   0.276   0.428 -2.2009 -0.0959 -1.6508
  563SOL    HW2 2251   1.301   0.235   0.544 -3.0403  2.2319 -0.1354
  563SOL     MW 2252   1.272   0.285   0.475 -0.5279  0.4928  0.1794
  564SOL     OW 2253   1.022   2.538   2.342 -0.2308  0.5001  0.0765
  564SOL    HW1 2254   1.065   2.528   2.255 -2.3175 -1.7039 -1.0259
  564SOL    HW2 2255   1.052   2.618   2.381 -2.2880 -2.9936  2.3451
  564SOL     MW 2256   1.032   2.547   2.336 -0.7775 -0.2517  0.2303
  565SOL     OW 2257   2.919   2.654   2.680  0.2948  0.0941  0.7677
  565SOL    HW1 2258   2.957   2.734   2.656  0.9458 -0.4616  2.0644
  565SOL    HW2 2259   2.873   2.636   2.601 -1.3690  1.4322 -0.6742
  565SOL     MW 2260   2.918   2.662   2.666  0.1612  0.1973  0.7485
  566SOL     OW 2261   2.158   2.097   2.340 -0.1688 -0.5949 -0.2126
  566SOL    HW1 2262   2.192   2.081   2.251  1.0100  1.1803  0.5861
  566SOL    HW2 2263   2.217   2.166   2.372 -1.8895  0.4271 -0.5859
  566SOL     MW 2264   2.171   2.104   2.333 -0.2403 -0.2258 -0.1565
  567SOL     OW 2265   1.122   2.878   0.154  0.4453  0.2193 -0.5605
  567SOL    HW1 2266   1.105   2.956   0.201 -0.1076  0.1555  0.4682
  567SOL    HW2 2267   1.165   2.898   0.072  0.8843 -0.6545 -3.7334
  567SOL     MW 2268   1.125   2.891   0.150  0.4303  0.0956 -0.8434
  568SOL     OW 2269   1.639   2.147   2.788 -0.2648  0.3969 -0.2913
  568SOL    HW1 2270   1.678   2.221   2.835  0.1655 -2.5033  0.2778
  568SOL    HW2 2271   1.714   2.103   2.747 -1.0139 -4.3194  0.8754
  568SOL     MW 2272   1.654   2.151   2.789 -0.3069 -0.6080 -0.0623
  569SOL     OW 2273   0.032   2.228   2.509 -0.3684  0.3784  0.1253
  569SOL    HW1 2274  -0.015   2.281   2.454  1.8404  1.1598 -1.3706
  569SOL    HW2 2275   0.093   2.283   2.554 -0.9846 -0.3539 -2.3633
  569SOL     MW 2276   0.034   2.242   2.508 -0.1583  0.3848 -0.4004
  570SOL     OW 2277   1.560   0.340   0.458 -0.0518 -0.1097  0.1383
  570SOL    HW1 2278   1.467   0.361   0.478 -1.5056  1.6340 -1.6344
  570SOL    HW2 2279   1.607   0.382   0.528 -0.0319  1.2576  0.9635
  570SOL     MW 2280   1.554   0.348   0.470 -0.2410  0.3007  0.0133
  571SOL     OW 2281   1.443   2.433   1.956 -0.2032  0.5277  0.5083
  571SOL    HW1 2282   1.450   2.438   2.052 -0.6266  0.5426 -1.9666
  571SOL    HW2 2283   1.471   2.343   1.958  0.8470  0.1247  0.9739
  571SOL     MW 2284   1.447   2.422   1.969 -0.1205  0.4765  0.2432
  572SOL     OW 2285   0.907   2.543   3.044  0.1776 -0.3177  0.3649
  572SOL    HW1 2286   0.848   2.585   2.976  1.4785  1.7037 -2.3989
  572SOL    HW2 2287   0.854   2.536   3.124  0.1970 -2.3563 -0.3626
  572SOL     MW 2288   0.892   2.548   3.046  0.3518 -0.3200 -0.0958
  573SOL     OW 2289   1.145   2.417   0.208  0.2708  0.5051 -0.1353
  573SOL    HW1 2290   1.211   2.374   0.156 -0.1904  2.7378  2.3974
  573SOL    HW2 2291   1.179   2.506   0.229  0.0428  2.2864  0.4947
  573SOL     MW 2292   1.158   2.423   0.204  0.1798  1.0347  0.2820
  574SOL     OW 2293   1.237   2.656   0.283  0.4651 -0.5917 -0.3785
  574SOL    HW1 2294   1.308   2.714   0.303  0.3004 -1.8121 -0.8004
  574SOL    HW2 2295   1.182   2.719   0.238 -1.4037 -1.3825  0.7301
  574SOL     MW 2296   1.239   2.672   0.280  0.1968 -0.8571 -0.2879
  575SOL     OW 2297   3.083   2.259   1.842  0.2079  0.2630 -1.0759
  575SOL    HW1 2298   3.087   2.178   1.800 -1.2433  1.2427 -0.7913
  575SOL    HW2 2299   3.149   2.321   1.805 -0.0865  2.2501  1.1431
  575SOL     MW 2300   3.093   2.257   1.831 -0.0224  0.6544 -0.7456
  576SOL     OW 2301   2.759   1.846   2.072  0.8977 -0.0136 -0.5918
  576SOL    HW1 2302   2.791   1.882   1.994 -1.0354  1.6618  2.0121
  576SOL    HW2 2303   2.670   1.829   2.040  0.9164 -2.6683 -0.7058
  576SOL     MW 2304   2.751   1.848   2.058  0.6451 -0.1428 -0.2633
  577SOL     OW 2305   2.054   0.350   0.077  0.2491 -0.1337 -0.0223
  577SOL    HW1 2306   2.001   0.413   0.034 -1.2870 -3.5678  0.8748
  577SOL    HW2 2307   1.992   0.307   0.144 -2.0981 -1.0125  1.9749
  577SOL     MW 2308   2.039   0.353   0.080 -0.2633 -0.7028  0.3596
  578SOL     OW 2309   1.920   2.201   2.370  0.4610  0.3703 -0.4503
  578SOL    HW1 2310   1.844   2.160   2.335  0.0369 -3.0504  2.1486
  578SOL    HW2 2311   2.008   2.156   2.339  1.4988 -0.1297  0.2445
  578SOL     MW 2312   1.922   2.189   2.361  0.5420 -0.1470 -0.0157
  579SOL     OW 2313   0.819   2.502   2.498 -0.0740 -0.0296 -0.1130
  579SOL    HW1 2314   0.871   2.497   2.574 -2.0212 -1.7166 -1.0178
  579SOL    HW2 2315   0.892   2.502   2.427  0.2437  0.6783 -0.8241
  579SOL     MW 2316   0.835   2.501   2.498 -0.2890 -0.1588 -0.3262
  580SOL     OW 2317   0.886   2.866   3.057 -0.7290 -0.4177 -0.2529
  580SOL    HW1 2318   0.965   2.810   3.079 -1.4296  0.9125  0.7525
  580SOL    HW2 2319   0.839   2.809   2.990 -1.8404 -1.2040  1.2686
  580SOL     MW 2320   0.890   2.851   3.051 -0.9681 -0.3459  0.0805
  581SOL     OW 2321   1.062   2.551   1.763 -0.0879  0.0275 -0.0616
  581SOL    HW1 2322   1.153   2.584   1.769 -0.0180  0.5240  2.1740
  581SOL    HW2 2323   1.073   2.458   1.800  3.7983  0.4069  0.2636
  581SOL     MW 2324   1.075   2.543   1.769  0.4341  0.1431  0.2763
  582SOL     OW 2325   3.093   2.888   2.635  0.3917 -0.0427  0.0031
  582SOL    HW1 2326   3.083   2.951   2.704  2.0776  0.3029 -1.7198
  582SOL    HW2 2327   3.188   2.861   2.636 -1.0387 -0.6445  1.9002
  582SOL     MW 2328   3.104   2.892   2.644  0.4254 -0.0765  0.0261
  583SOL     OW 2329   1.941   2.509   2.729 -0.2402 -0.1195 -0.0598
  583SOL    HW1 2330   2.021   2.548   2.683  1.9754  1.8024 -2.1665
  583SOL    HW2 2331   1.946   2.415   2.706  2.1457  0.4146 -1.8054
  583SOL     MW 2332   1.952   2.502   2.720  0.3669  0.2045 -0.5680
  584SOL     OW 2333   0.168   1.836   2.112 -0.3209  0.0189 -0.1678
  584SOL    HW1 2334   0.239   1.870   2.055 -0.5213 -2.8792 -0.0810
  584SOL    HW2 2335   0.176   1.885   2.193  0.4238 -1.7811  0.9742
  584SOL     MW 2336   0.178   1.847   2.115 -0.2491 -0.6009 -0.0057
  585SOL     OW 2337   1.454   2.550   0.071 -0.7037  0.2526 -0.7942
  585SOL    HW1 2338   1.404   2.566  -0.006  1.6016 -4.1127  1.6845
  585SOL    HW2 2339   1.426   2.616   0.142 -3.1278  0.5576 -1.7893
  585SOL     MW 2340   1.443   2.561   0.070 -0.7194 -0.2831 -0.5984
  586SOL     OW 2341   1.258   2.968   2.328  0.2292  0.1475 -0.0868
  586SOL    HW1 2342   1.337   2.938   2.290 -1.7707  1.8965  1.1776
  586SOL    HW2 2343   1.286   2.982   2.418  0.5660  1.2162 -0.5002
  586SOL     MW 2344   1.272   2.966   2.335  0.0098  0.5193  0.0255
  587SOL     OW 2345   1.201   1.614   2.173  0.4070 -0.1967 -0.2616
  587SOL    HW1 2346   1.205   1.534   2.223  0.5279  2.1453  0.0627
  587SOL    HW2 2347   1.180   1.587   2.078  0.1458  0.7167 -2.3531
  587SOL     MW 2348   1.199   1.600   2.167  0.3885  0.2328 -0.4948
  588SOL     OW 2349   1.380   2.214   2.745  0.6210 -0.0759  0.3650
  588SOL    HW1 2350   1.475   2.197   2.741 -1.5793 -1.6262 -0.1862
  588SOL    HW2 2351   1.323   2.172   2.821 -2.5078  1.1203  4.3837
  588SOL     MW 2352   1.385   2.206   2.755 -0.0821 -0.1226  0.8225
  589SOL     OW 2353   1.317   2.049   0.004 -0.2090  0.3738 -0.1004
  589SOL    HW1 2354   1.355   2.128   0.046  0.9806  2.5865  0.6109
  589SOL    HW2 2355   1.310   1.993   0.081  3.0587  0.7462 -1.3672
  589SOL     MW 2356   1.321   2.052   0.020  0.3791  0.7149 -0.1737
  590SOL     OW 2357   0.451   2.549   2.241  0.2600  0.1809 -0.0661
  590SOL    HW1 2358   0.409   2.563   2.152  0.7394  0.8777 -0.6564
  590SOL    HW2 2359   0.532   2.507   2.213  0.0484  0.1644  1.1480
  590SOL     MW 2360   0.456   2.546   2.226  0.2953  0.2706  0.0162
  591SOL     OW 2361   2.220   0.677   3.013 -0.0597  0.1464 -0.5048
  591SOL    HW1 2362   2.137   0.654   2.962 -4.4050 -1.2221  0.3790
  591SOL    HW2 2363   2.290   0.684   2.947 -2.2504  1.2927 -1.4392
  591SOL     MW 2364   2.218   0.675   2.998 -0.9221  0.1171 -0.5115
  592SOL     OW 2365   1.850   2.881   0.815 -0.8454  0.2792 -0.0009
  592SOL    HW1 2366   1.858   2.958   0.753  0.2299  2.2887 -2.0516
  592SOL    HW2 2367   1.926   2.830   0.798 -3.8244 -2.0243 -0.9982
  592SOL     MW 2368   1.861   2.885   0.805 -1.0966  0.2404 -0.4030
  593SOL     OW 2369   1.914   0.839   0.907  0.1487  0.1084  0.1867
  593SOL    HW1 2370   1.833   0.819   0.860  0.8009  3.5388 -2.6285
  593SOL    HW2 2371   1.952   0.750   0.926  3.1930 -0.1751 -0.4249
  593SOL     MW 2372   1.908   0.825   0.903  0.6364  0.5236 -0.2654
  594SOL     OW 2373   2.771   1.104   1.405 -0.1054  0.1794 -0.9511
  594SOL    HW1 2374   2.847   1.158   1.400 -0.5911  0.1496  1.1319
  594SOL    HW2 2375   2.735   1.095   1.315  0.0748  0.2769 -2.2631
  594SOL     MW 2376   2.776   1.110   1.392 -0.1457  0.1884 -0.8494
  595SOL     OW 2377   0.417   0.997   0.722 -0.3037 -0.0270  0.8557
  595SOL    HW1 2378   0.483   1.047   0.659  2.1914  3.1231 -2.8582
  595SOL    HW2 2379   0.439   1.022   0.818  1.9426 -1.1927 -0.2203
  595SOL     MW 2380   0.429   1.007   0.726  0.3219  0.2348  0.2237
  596SOL     OW 2381   2.419   1.341   0.613 -0.0356 -0.2885  0.4317
  596SOL    HW1 2382   2.457   1.424   0.578 -2.8641  0.9203 -1.5935
  596SOL    HW2 2383   2.494   1.303   0.667 -0.8890  0.3994  1.6654
  596SOL     MW 2384   2.434   1.347   0.616 -0.5214 -0.0382  0.3273
  597SOL     OW 2385   2.297   0.671   1.711 -0.3683  0.6908  0.1627
  597SOL    HW1 2386   2.328   0.597   1.760  0.6878 -2.4257  1.0650
  597SOL    HW2 2387   2.288   0.632   1.624 -2.2153 -0.9418  1.4499
  597SOL     MW 2388   2.300   0.656   1.706 -0.4727  0.0642  0.4516
  598SOL     OW 2389   2.618   1.013   2.804  0.2378 -0.5968  0.0583
  598SOL    HW1 2390   2.674   0.948   2.759  0.5473 -0.0455  0.5388
  598SOL    HW2 2391   2.670   1.081   2.837 -0.7444  0.2038  0.4655
  598SOL     MW 2392   2.633   1.013   2.803  0.1491 -0.4184  0.1754
  599SOL     OW 2393   2.906   0.369   2.089  0.0487  0.1543 -0.3510
  599SOL    HW1 2394   2.925   0.376   2.181  1.7358 -0.6070 -1.5008
  599SOL    HW2 2395   2.967   0.433   2.052 -0.1487 -0.3132 -1.0320
  599SOL     MW 2396   2.916   0.378   2.096  0.2453 -0.0078 -0.5925
  600SOL     OW 2397   1.850   1.622   0.864  0.0719 -0.2481  0.0981
  600SOL    HW1 2398   1.877   1.632   0.959  1.4186 -0.2585 -1.8344
  600SOL    HW2 2399   1.777   1.679   0.851  0.4644  1.4047 -0.9566
  600SOL     MW 2400   1.844   1.631   0.875  0.3014 -0.0314 -0.2961
  601SOL     OW 2401   2.455   0.730   0.888 -0.1047  0.3456  0.2154
  601SOL    HW1 2402   2.481   0.768   0.975 -1.7250 -2.8552  1.8472
  601SOL    HW2 2403   2.357   0.745   0.897  2.2962  2.6556 -0.4545
  601SOL     MW 2404   2.446   0.737   0.901 -0.0017  0.2281  0.3423
  602SOL     OW 2405   2.273   1.932   0.733 -0.5144 -0.2901 -0.4397
  602SOL    HW1 2406   2.207   1.864   0.759 -1.4933  2.6770 -0.2914
  602SOL    HW2 2407   2.268   1.931   0.634  0.0338 -1.2582 -2.7973
  602SOL     MW 2408   2.264   1.923   0.723 -0.5712 -0.0264 -0.7312
  603SOL     OW 2409   3.013   1.357   1.844 -0.1461 -0.4684 -0.0612
  603SOL    HW1 2410   3.075   1.339   1.910 -0.6675 -1.3117 -0.0711
  603SOL    HW2 2411   3.010   1.275   1.802 -1.6042 -0.8306  0.3191
  603SOL     MW 2412   3.021   1.344   1.847 -0.4072 -0.6275 -0.0123
  604SOL     OW 2413   2.073   1.517   0.489 -0.8080 -0.3720  0.5350
  604SOL    HW1 2414   2.094   1.449   0.552 -0.7598 -0.3132  0.5026
  604SOL    HW2 2415   1.998   1.561   0.522 -3.5091 -2.3008  0.8270
  604SOL     MW 2416   2.066   1.513   0.502 -1.1581 -0.6187  0.5693
  605SOL     OW 2417   2.668   1.546   0.814  0.1009 -0.2391 -0.3204
  605SOL    HW1 2418   2.624   1.613   0.760 -1.3195  1.4554 -1.1942
  605SOL    HW2 2419   2.586   1.518   0.853 -2.7342 -2.1446 -1.5346
  605SOL     MW 2420   2.652   1.551   0.812 -0.4606 -0.2670 -0.5959
  606SOL     OW 2421   2.538   1.829   1.892 -0.2234 -0.0055  0.1341
  606SOL    HW1 2422   2.457   1.810   1.939 -2.1170 -1.2765 -1.7329
  606SOL    HW2 2423   2.548   1.740   1.858 -1.0846 -0.7518  1.7991
  606SOL     MW 2424   2.528   1.815   1.893 -0.5868 -0.2717  0.1074
  607SOL     OW 2425   2.391   1.040   2.971 -0.2284 -0.3863  0.5284
  607SOL    HW1 2426   2.468   1.065   2.914 -1.2930  0.9777 -1.4769
  607SOL    HW2 2427   2.419   1.035   3.058  0.3939  1.4293 -1.2548
  607SOL     MW 2428   2.405   1.043   2.975 -0.2868  0.0332  0.0285
  608SOL     OW 2429   1.907   0.271   0.672  0.2514 -0.7366 -0.2411
  608SOL    HW1 2430   1.913   0.295   0.580 -0.3922 -4.5024 -0.2390
  608SOL    HW2 2431   1.907   0.172   0.662  1.2467  0.4534 -2.4942
  608SOL     MW 2432   1.908   0.261   0.658  0.2978 -1.0764 -0.5381
  609SOL     OW 2433   2.119   1.957   3.002  0.2883 -0.0119 -0.2448
  609SOL    HW1 2434   2.035   1.918   3.021  0.8095  0.5196 -0.4144
  609SOL    HW2 2435   2.177   1.925   3.070 -2.1859 -0.4439  1.4111
  609SOL     MW 2436   2.116   1.948   3.014  0.0306  0.0012 -0.0487
  610SOL     OW 2437   1.839   1.078   1.378  0.5307  0.1968 -0.0393
  610SOL    HW1 2438   1.855   1.002   1.320 -0.1005  1.0310  0.9012
  610SOL    HW2 2439   1.754   1.051   1.428 -0.7717  0.1555 -0.2232
  610SOL     MW 2440   1.830   1.064   1.377  0.2756  0.3014  0.0605
  611SOL     OW 2441   2.521   1.802   0.731 -0.4124 -0.7485 -0.1739
  611SOL    HW1 2442   2.436   1.852   0.737 -3.0762  0.9547 -2.1056
  611SOL    HW2 2443   2.509   1.788   0.636  1.3142 -1.1930  0.0768
  611SOL     MW 2444   2.508   1.806   0.720 -0.5360 -0.5825 -0.3957
  612SOL     OW 2445   2.766   2.781   0.382  0.1604 -0.4078  0.3631
  612SOL    HW1 2446   2.821   2.834   0.444 -2.8627 -0.3090 -0.2330
  612SOL    HW2 2447   2.805   2.794   0.297  2.9179  0.6942  2.1850
  612SOL     MW 2448   2.779   2.790   0.379  0.1253 -0.2493  0.5248
  613SOL     OW 2449   1.640   1.000   1.103 -0.0675 -0.0177  0.1540
  613SOL    HW1 2450   1.624   1.091   1.128  0.5465 -0.8894 -2.6230
  613SOL    HW2 2451   1.720   0.974   1.145 -1.8407  0.9166  1.8133
  613SOL     MW 2452   1.649   1.009   1.112 -0.2205 -0.0095  0.0065
  614SOL     OW 2453   2.027   0.510   1.517 -0.7457  0.1317 -0.0090
  614SOL    HW1 2454   2.072   0.432   1.558 -2.3338  0.2453  2.1622
  614SOL    HW2 2455   2.062   0.522   1.432 -1.2447  0.4511  0.5708
  614SOL     MW 2456   2.037   0.501   1.511 -1.0211  0.1888  0.3540
  615SOL     OW 2457   2.238   0.793   0.182 -0.4172 -0.3787 -0.3808
  615SOL    HW1 2458   2.318   0.761   0.227 -0.3362  0.3485  3.3179
  615SOL    HW2 2459   2.234   0.745   0.095  2.0357 -1.0117 -0.1556
  615SOL     MW 2460   2.248   0.783   0.176 -0.0829 -0.3663  0.1369
  616SOL     OW 2461   2.629   0.361   1.630  0.3850 -0.3703  0.4502
  616SOL    HW1 2462   2.561   0.299   1.608 -0.1983  0.9788 -0.3486
  616SOL    HW2 2463   2.622   0.423   1.560 -0.7761  1.6347  0.6336
  616SOL     MW 2464   2.619   0.361   1.618  0.1549  0.0722  0.3690
  617SOL     OW 2465   2.913   0.567   1.749  0.6092  0.1248 -0.4289
  617SOL    HW1 2466   2.838   0.593   1.801 -0.2386 -0.6444  1.9239
  617SOL    HW2 2467   2.891   0.475   1.726 -1.5346  1.6294  1.1864
  617SOL     MW 2468   2.900   0.558   1.753  0.2145  0.2218  0.0946
  618SOL     OW 2469   2.670   0.356   1.931  0.2695  0.1833 -0.1927
  618SOL    HW1 2470   2.661   0.451   1.910 -0.4646  1.2698  0.1663
  618SOL    HW2 2471   2.736   0.342   2.001 -1.0877  2.2107  0.0024
  618SOL     MW 2472   2.677   0.367   1.937 -0.0064  0.5941 -0.1196
  619SOL     OW 2473   2.569   0.797   0.156  0.2568  0.6675 -0.0430
  619SOL    HW1 2474   2.658   0.816   0.190 -0.5051  0.5547  0.3452
  619SOL    HW2 2475   2.526   0.745   0.221 -1.1868  0.5572 -0.4364
  619SOL     MW 2476   2.575   0.793   0.169 -0.0342  0.6381 -0.0437
  620SOL     OW 2477   2.295   1.142   0.937 -0.0789  0.3162  0.3875
  620SOL    HW1 2478   2.365   1.137   0.872  1.4030  0.1557 -0.5894
  620SOL    HW2 2479   2.227   1.086   0.904 -1.3322 -0.9380  0.4060
  620SOL     MW 2480   2.295   1.134   0.924 -0.0488  0.1295  0.2611
  621SOL     OW 2481   1.507   2.159   1.975  0.5484 -0.3115  0.3926
  621SOL    HW1 2482   1.426   2.149   2.020  1.3953 -2.8998 -0.6086
  621SOL    HW2 2483   1.571   2.130   2.042 -0.5314  1.0586  1.1111
  621SOL     MW 2484   1.504   2.154   1.990  0.5177 -0.4722  0.3553
  622SOL     OW 2485   2.630   0.229   0.094 -0.0276  0.0954 -0.0859
  622SOL    HW1 2486   2.709   0.249   0.144  0.9710 -1.5010  1.7210
  622SOL    HW2 2487   2.637   0.133   0.083  0.0978  1.1698  2.1853
  622SOL     MW 2488   2.641   0.219   0.099  0.1207  0.0266  0.4522
  623SOL     OW 2489   2.423   2.766   0.831 -0.3352 -0.1257 -0.3440
  623SOL    HW1 2490   2.495   2.831   0.842  1.1185  0.9164  1.1429
  623SOL    HW2 2491   2.345   2.789   0.883  0.9552 -0.5187 -1.0304
  623SOL     MW 2492   2.422   2.777   0.839  0.0268 -0.0400 -0.2384
  624SOL     OW 2493   2.207   1.626   2.899 -0.2473  0.0102  0.2968
  624SOL    HW1 2494   2.130   1.595   2.951 -0.3163  0.0436  1.2544
  624SOL    HW2 2495   2.191   1.722   2.893  2.6480  0.5737  0.5999
  624SOL     MW 2496   2.195   1.634   2.905  0.1256  0.0889  0.4632
  625SOL     OW 2497   2.218   1.943   1.087 -0.2077 -0.0781  0.5091
  625SOL    HW1 2498   2.288   1.890   1.124 -0.5148  0.7852  0.3944
  625SOL    HW2 2499   2.232   1.940   0.994 -2.7330 -1.9485 -1.7349
  625SOL     MW 2500   2.229   1.935   1.080 -0.5814 -0.2110  0.1979
  626SOL     OW 2501   0.106   1.578   2.420 -0.2274  0.1868  0.1909
  626SOL    HW1 2502   0.035   1.552   2.361  1.4438 -1.0044  1.7560
  626SOL    HW2 2503   0.065   1.610   2.506  1.6199  4.3784 -0.6307
  626SOL     MW 2504   0.091   1.579   2.424  0.2368  0.5827  0.2890
  627SOL     OW 2505   2.444   0.817   2.589  0.1224  0.7395 -0.3068
  627SOL    HW1 2506   2.398   0.904   2.575 -1.2041  1.5112 -0.8568
  627SOL    HW2 2507   2.433   0.770   2.505  0.2956  0.8488  0.8831
  627SOL     MW 2508   2.437   0.822   2.576 -0.0298  0.8557 -0.2224
  628SOL     OW 2509   2.317   1.382   1.351  0.6136 -0.2772  0.0026
  628SOL    HW1 2510   2.286   1.308   1.290 -0.5172 -0.1596  1.3936
  628SOL    HW2 2511   2.406   1.404   1.319 -1.7973 -0.0545  0.4933
  628SOL     MW 2512   2.324   1.375   1.339  0.1463 -0.2323  0.2509
  629SOL     OW 2513   2.046   0.545   1.225  0.1010  0.4170 -0.1084
  629SOL    HW1 2514   2.111   0.614   1.213 -0.8665 -1.8103 -0.8912
  629SOL    HW2 2515   1.968   0.583   1.270 -1.6514  1.9255 -1.8481
  629SOL     MW 2516   2.044   0.559   1.230 -0.2579  0.3222 -0.4412
  630SOL     OW 2517   2.492   1.834   3.092  0.0299  0.1184  0.4087
  630SOL    HW1 2518   2.443   1.875   3.022 -0.0802  2.2044  0.9004
  630SOL    HW2 2519   2.445   1.760   3.119  1.2687 -3.7140 -1.7539
  630SOL     MW 2520   2.480   1.829   3.086  0.1788 -0.1120  0.1883
  631SOL     OW 2521   1.980   1.778   1.623 -0.1125 -1.0986 -0.1273
  631SOL    HW1 2522   1.967   1.695   1.681  0.0069  0.0899  0.3564
  631SOL    HW2 2523   1.966   1.749   1.533 -0.2654  0.9273  2.7319
  631SOL     MW 2524   1.977   1.763   1.619 -0.1170 -0.6745  0.3137
  632SOL     OW 2525   0.168   2.069   1.594  0.0043  0.2113  0.3184
  632SOL    HW1 2526   0.087   2.077   1.652  1.2066 -0.1200 -1.5147
  632SOL    HW2 2527   0.159   1.974   1.561 -1.7178  1.8664 -2.2033
  632SOL     MW 2528   0.156   2.058   1.598 -0.0643  0.3859 -0.2562
  633SOL     OW 2529   2.428   0.694   0.354 -0.2673 -0.2704 -0.1653
  633SOL    HW1 2530   2.514   0.694   0.404  1.5776 -3.2740 -0.9247
  633SOL    HW2 2531   2.395   0.605   0.374 -0.4278  3.9513 -1.4624
  633SOL     MW 2532   2.435   0.682   0.363 -0.0450 -0.1097 -0.4367
  634SOL     OW 2533   2.605   3.088   0.608  0.8527  0.2924  0.3384
  634SOL    HW1 2534   2.653   3.168   0.629  1.6316 -0.1150  0.9365
  634SOL    HW2 2535   2.583   3.094   0.513  0.6509  0.4410  0.3110
  634SOL     MW 2536   2.609   3.100   0.598  0.9288  0.2582  0.4137
  635SOL     OW 2537   2.628   0.088   1.839  0.1352  0.1306 -0.1489
  635SOL    HW1 2538   2.692   0.060   1.766  0.2451  3.3251 -1.8769
  635SOL    HW2 2539   2.639   0.182   1.860  0.9524  2.0457 -1.5300
  635SOL     MW 2540   2.638   0.097   1.832  0.2575  0.8048 -0.5591
  636SOL     OW 2541   2.922   1.682   1.017 -0.6488 -0.0393  0.3960
  636SOL    HW1 2542   2.858   1.729   0.956  1.9274  1.6895 -0.0115
  636SOL    HW2 2543   2.944   1.753   1.080 -1.1754 -1.6826  0.2948
  636SOL     MW 2544   2.917   1.698   1.017 -0.3784 -0.0280  0.3289
  637SOL     OW 2545   2.901   1.483   0.699  0.7515  0.4897  0.2525
  637SOL    HW1 2546   2.956   1.552   0.732 -1.3764  0.0384  0.1221
  637SOL    HW2 2547   2.811   1.496   0.734 -0.4412 -0.6312  0.5712
  637SOL     MW 2548   2.896   1.494   0.708  0.3134  0.2823  0.2773
  638SOL     OW 2549   2.663   0.690   0.481  0.2434 -0.3282 -0.0606
  638SOL    HW1 2550   2.746   0.660   0.441  1.1103  0.2843 -0.2392
  638SOL    HW2 2551   2.662   0.639   0.562 -0.4643  0.6445  0.6720
  638SOL     MW 2552   2.674   0.679   0.487  0.2644 -0.1190  0.0125
  639SOL     OW 2553   1.918   3.088   0.634 -0.2720 -0.1561  0.2637
  639SOL    HW1 2554   1.827   3.099   0.611  0.1790 -1.9390 -2.0295
  639SOL    HW2 2555   1.965   3.087   0.554 -2.3666 -1.9047 -1.7501
  639SOL     MW 2556   1.912   3.090   0.620 -0.4889 -0.6220 -0.3045
  640SOL     OW 2557   0.385   1.393   0.115  0.0399 -0.7045 -0.0497
  640SOL    HW1 2558   0.428   1.409   0.031  2.4108 -1.7432 -0.4214
  640SOL    HW2 2559   0.379   1.295   0.113 -0.2035 -0.5774  1.3835
  640SOL     MW 2560   0.390   1.382   0.104  0.3206 -0.8248  0.0903
  641SOL     OW 2561   2.301   0.455   0.388  0.5500  0.6256 -0.6190
  641SOL    HW1 2562   2.345   0.436   0.307 -0.9708 -0.9129 -0.8724
  641SOL    HW2 2563   2.355   0.412   0.458  1.8268 -1.4146  1.3764
  641SOL     MW 2564   2.314   0.447   0.386  0.5178  0.1534 -0.3891
  642SOL     OW 2565   3.087   0.035   0.480 -0.1258 -0.1050  0.1041
  642SOL    HW1 2566   3.069   0.129   0.481 -0.3120 -0.2356  0.1915
  642SOL    HW2 2567   3.002  -0.006   0.492  1.1733 -0.0342  0.3340
  642SOL     MW 2568   3.073   0.042   0.482  0.0210 -0.1129  0.1460
  643SOL     OW 2569   2.094   0.270   1.654 -0.7687  0.2236 -0.6101
  643SOL    HW1 2570   2.166   0.242   1.709 -1.0328  1.7186 -0.4620
  643SOL    HW2 2571   2.081   0.213   1.581  0.9408  0.7385  1.4994
  643SOL     MW 2572   2.102   0.259   1.652 -0.5780  0.4888 -0.3122
  644SOL     OW 2573   2.738   1.838   0.911 -0.1454 -0.1336 -0.0120
  644SOL    HW1 2574   2.694   1.807   0.990 -2.7166 -1.9748  0.4668
  644SOL    HW2 2575   2.669   1.821   0.847  1.3111  0.4936 -0.0439
  644SOL     MW 2576   2.723   1.831   0.913 -0.2924 -0.2938  0.0470
  645SOL     OW 2577   2.764   0.911   0.601 -0.2036  0.1626  0.7121
  645SOL    HW1 2578   2.813   0.878   0.677 -1.5861 -0.1651  0.4280
  645SOL    HW2 2579   2.723   0.829   0.570  1.1379 -0.1856  1.2600
  645SOL     MW 2580   2.765   0.896   0.607 -0.2090  0.0735  0.7469
  646SOL     OW 2581   0.079   2.333   0.882  0.2843 -0.1352  0.1090
  646SOL    HW1 2582   0.108   2.241   0.875  1.9396 -1.4479  0.2637
  646SOL    HW2 2583   0.034   2.342   0.786 -1.1573  1.9920  0.8900
  646SOL     MW 2584   0.077   2.322   0.868  0.3125 -0.0277  0.2324
  647SOL     OW 2585   2.749   0.591   3.015 -0.1802  0.2649 -0.0808
  647SOL    HW1 2586   2.672   0.545   3.008  1.4915  1.1192  0.0735
  647SOL    HW2 2587   2.720   0.684   2.987 -2.8277  3.1068 -1.0847
  647SOL     MW 2588   2.735   0.598   3.010 -0.3089  0.7526 -0.1929
  648SOL     OW 2589   2.220   0.739   1.098  0.2213  0.2293 -0.2123
  648SOL    HW1 2590   2.198   0.787   1.021  0.6681 -3.4888  0.5440
  648SOL    HW2 2591   2.248   0.808   1.160  1.2081 -1.4053  0.3129
  648SOL     MW 2592   2.221   0.754   1.096  0.4104 -0.4770 -0.0432
  649SOL     OW 2593   2.365   2.689   1.203 -0.3928 -0.3198 -0.0353
  649SOL    HW1 2594   2.435   2.751   1.212  0.7785 -1.2047 -0.9595
  649SOL    HW2 2595   2.402   2.601   1.199  3.3336  0.5109  0.3960
  649SOL     MW 2596   2.379   2.685   1.204  0.2534 -0.3269 -0.1003
  650SOL     OW 2597   2.735   0.230   0.639 -0.0762 -0.0295 -0.0590
  650SOL    HW1 2598   2.744   0.276   0.725 -1.4147  0.1959 -0.8727
  650SOL    HW2 2599   2.820   0.248   0.601 -1.8262 -0.7390  1.2486
  650SOL     MW 2600   2.747   0.238   0.645 -0.4837 -0.0934  0.0062
  651SOL     OW 2601   3.044   0.284   0.820  0.3217  0.3581  0.0086
  651SOL    HW1 2602   3.095   0.343   0.766  0.4868  0.0814 -0.0934
  651SOL    HW2 2603   2.953   0.323   0.824 -0.6755  0.5997  2.4702
  651SOL     MW 2604   3.039   0.297   0.813  0.2119  0.3535  0.3199
  652SOL     OW 2605   2.402   1.455   2.977 -0.1600 -0.7428  0.2302
  652SOL    HW1 2606   2.489   1.467   2.939 -0.3480 -2.0516 -0.4779
  652SOL    HW2 2607   2.341   1.521   2.939 -2.6314 -0.5906 -1.1054
  652SOL     MW 2608   2.405   1.465   2.967 -0.5109 -0.8954 -0.0395
  653SOL     OW 2609   1.986   0.367   0.420 -0.2461  0.3286 -0.0113
  653SOL    HW1 2610   1.963   0.296   0.352 -2.5577 -3.0501  2.8265
  653SOL    HW2 2611   2.073   0.398   0.399 -2.7211  1.5811 -1.1616
  653SOL     MW 2612   1.995   0.362   0.409 -0.8776  0.0481  0.2113
  654SOL     OW 2613   2.455   0.987   0.751  0.0210 -0.5244 -0.2581
  654SOL    HW1 2614   2.382   0.972   0.690  1.2553 -0.5061  0.3661
  654SOL    HW2 2615   2.472   0.902   0.792  1.0250 -2.5739 -3.4998
  654SOL     MW 2616   2.448   0.974   0.749  0.3163 -0.7924 -0.6034
  655SOL     OW 2617   3.067   0.935   0.439  0.3421 -0.1097  0.1306
  655SOL    HW1 2618   3.098   0.954   0.526  0.2568 -2.4919 -1.1176
  655SOL    HW2 2619   3.074   0.838   0.437 -2.7541 -1.1051  1.7042
  655SOL     MW 2620   3.072   0.925   0.451 -0.0777 -0.5554  0.1736
  656SOL     OW 2621   1.970   2.727   1.236  0.2180  0.2258 -0.1337
  656SOL    HW1 2622   1.970   2.823   1.244  0.5152 -1.4109 -1.6136
  656SOL    HW2 2623   1.996   2.696   1.322 -0.2124 -3.4753 -2.8155
  656SOL     MW 2624   1.973   2.736   1.248  0.2004 -0.4785 -0.6828
  657SOL     OW 2625   0.217   1.639   1.281 -0.3664 -0.5007 -0.0551
  657SOL    HW1 2626   0.149   1.570   1.295 -0.7007 -1.3216  1.6349
  657SOL    HW2 2627   0.229   1.654   1.190 -0.2343 -1.1024  1.6065
  657SOL     MW 2628   0.209   1.632   1.271 -0.3931 -0.6884  0.3871
  658SOL     OW 2629   2.662   1.351   0.268  0.2843  0.3562  0.1256
  658SOL    HW1 2630   2.617   1.277   0.310  0.4498  3.0648  3.2435
  658SOL    HW2 2631   2.717   1.392   0.339  0.7269 -0.0471 -1.8865
  658SOL     MW 2632   2.663   1.346   0.283  0.3646  0.6604  0.2715
  659SOL     OW 2633   2.220   1.549   1.012 -0.2348  0.6864 -0.4871
  659SOL    HW1 2634   2.302   1.500   0.992  1.5074 -0.7946 -1.7688
  659SOL    HW2 2635   2.215   1.559   1.102  0.5132 -0.8245  2.0392
  659SOL     MW 2636   2.230   1.544   1.021  0.0938  0.2917 -0.3229
  660SOL     OW 2637   2.020   1.553   1.782  0.0547 -0.0766 -0.5379
  660SOL    HW1 2638   2.070   1.554   1.860 -0.1999  0.7870  1.5631
  660SOL    HW2 2639   1.991   1.471   1.751  1.7140  2.6586  1.8981
  660SOL     MW 2640   2.023   1.542   1.788  0.2401  0.3982  0.0607
  661SOL     OW 2641   2.318   1.072   0.155 -0.4823  0.0215 -0.9094
  661SOL    HW1 2642   2.377   1.098   0.224  1.6975 -2.6191  0.9065
  661SOL    HW2 2643   2.279   0.988   0.181 -0.8666  2.0036  1.0690
  661SOL     MW 2644   2.320   1.064   0.167 -0.2454 -0.0654 -0.4088
  662SOL     OW 2645   2.591   2.994   0.855 -0.6997 -0.0051 -0.3221
  662SOL    HW1 2646   2.531   3.056   0.891 -0.8246  0.0309 -1.6982
  662SOL    HW2 2647   2.577   2.998   0.758  0.5991 -4.0226 -0.5121
  662SOL     MW 2648   2.581   3.003   0.847 -0.5448 -0.5304 -0.5288
  663SOL     OW 2649   2.813   1.515   0.427 -0.1025  0.4857 -0.6938
  663SOL    HW1 2650   2.878   1.558   0.382 -1.3985 -2.4909  0.8956
  663SOL    HW2 2651   2.844   1.515   0.513  0.9373 -1.0865 -2.5376
  663SOL     MW 2652   2.826   1.520   0.433 -0.1363 -0.1144 -0.7274
  664SOL     OW 2653   2.469   1.566   1.643 -0.6468  0.3837 -0.1449
  664SOL    HW1 2654   2.462   1.658   1.611  1.1165  1.7999  0.3361
  664SOL    HW2 2655   2.377   1.535   1.659  2.0992 -0.7039  1.5347
  664SOL     MW 2656   2.456   1.574   1.641 -0.0518  0.4271  0.1402
  665SOL     OW 2657   2.866   0.823   2.037 -0.0670  0.1609 -0.5615
  665SOL    HW1 2658   2.851   0.877   1.956  1.0616 -1.4030 -1.6942
  665SOL    HW2 2659   2.955   0.785   2.030  1.0147 -2.1335 -1.0736
  665SOL     MW 2660   2.875   0.825   2.026  0.2246 -0.3482 -0.7785
  666SOL     OW 2661   2.789   3.037   1.683  0.0822  0.1657 -0.2563
  666SOL    HW1 2662   2.813   3.015   1.590 -1.6929 -0.0410 -2.3188
  666SOL    HW2 2663   2.747   2.955   1.711  0.3644 -0.6796  2.0853
  666SOL     MW 2664   2.787   3.023   1.674 -0.1148  0.0269 -0.2195
  667SOL     OW 2665   1.965   2.661   1.764 -0.7683  0.0708 -0.5784
  667SOL    HW1 2666   2.016   2.580   1.790  1.3710  3.9114  0.8005
  667SOL    HW2 2667   2.031   2.712   1.711 -2.3414 -1.6247 -1.5984
  667SOL     MW 2668   1.981   2.657   1.760 -0.6936  0.3538 -0.5310
  668SOL     OW 2669   2.675   0.608   0.757  0.3077  0.2354  0.2357
  668SOL    HW1 2670   2.743   0.621   0.820 -1.2552 -1.0660 -1.3790
  668SOL    HW2 2671   2.588   0.634   0.792  3.2280  2.9891  1.2127
  668SOL     MW 2672   2.673   0.613   0.770  0.4868  0.4270  0.1516
  669SOL     OW 2673   0.159   0.880   0.730 -0.4407  0.1701 -0.1840
  669SOL    HW1 2674   0.117   0.950   0.776  0.7176  1.9976  0.6543
  669SOL    HW2 2675   0.251   0.906   0.723 -4.0362  0.4493  0.1431
  669SOL     MW 2676   0.165   0.893   0.735 -0.7623  0.4480 -0.0302
  670SOL     OW 2677   2.886   0.328   0.236  0.3115 -0.2952  0.1168
  670SOL    HW1 2678   2.924   0.275   0.165 -2.3912  1.0781 -2.2757
  670SOL    HW2 2679   2.902   0.418   0.202 -0.8656 -0.3116  1.7207
  670SOL     MW 2680   2.893   0.333   0.222 -0.2004 -0.1161  0.0127
  671SOL     OW 2681   2.189   3.051   1.595 -0.7213  1.3172  0.3099
  671SOL    HW1 2682   2.193   3.084   1.501  1.4479 -1.8706 -2.7696
  671SOL    HW2 2683   2.098   3.061   1.625  2.2655  0.3955 -2.5041
  671SOL     MW 2684   2.177   3.057   1.587 -0.0410  0.7750 -0.4677
  672SOL     OW 2685   1.917   1.656   1.363 -0.1917  0.6220 -0.1150
  672SOL    HW1 2686   1.840   1.711   1.386 -0.8051  1.1247 -1.1331
  672SOL    HW2 2687   1.932   1.672   1.272  0.4852 -0.7149 -2.7643
  672SOL     MW 2688   1.909   1.665   1.354 -0.1833  0.5120 -0.5989
  673SOL     OW 2689   2.776   1.159   0.477  0.4847  0.0746 -0.2975
  673SOL    HW1 2690   2.752   1.082   0.527 -2.3868  0.2441  0.6149
  673SOL    HW2 2691   2.849   1.200   0.522  0.7120  2.2474 -0.3198
  673SOL     MW 2692   2.782   1.154   0.489  0.1358  0.3836 -0.1801
  674SOL     OW 2693   2.435   0.069   1.283 -0.6269 -0.2151  0.4093
  674SOL    HW1 2694   2.408   0.114   1.201  1.2310  0.8918  0.3735
  674SOL    HW2 2695   2.456  -0.019   1.255 -0.7814  0.4847 -2.0045
  674SOL     MW 2696   2.434   0.063   1.268 -0.4022  0.0232  0.0861
  675SOL     OW 2697   2.941   0.927   1.107 -0.1751  1.2232 -0.2623
  675SOL    HW1 2698   3.017   0.905   1.166 -0.8421 -2.8403 -0.2288
  675SOL    HW2 2699   2.980   0.966   1.025  1.8646  0.7707 -4.6984
  675SOL     MW 2700   2.956   0.929   1.104  0.0060  0.6274 -0.8432
  676SOL     OW 2701   2.879   1.518   1.670 -0.2581  0.5737  0.0440
  676SOL    HW1 2702   2.813   1.447   1.668  1.9748 -0.8929  2.8452
  676SOL    HW2 2703   2.943   1.489   1.730 -1.8564  0.8040 -0.7286
  676SOL     MW 2704   2.879   1.505   1.677 -0.1744  0.4106  0.3117
  677SOL     OW 2705   2.480   0.832   1.831 -0.1497  0.0084  0.3622
  677SOL    HW1 2706   2.424   0.765   1.780  0.7590  2.3761 -1.4093
  677SOL    HW2 2707   2.506   0.904   1.781 -0.8612 -2.0506 -0.1544
  677SOL     MW 2708   2.476   0.833   1.817 -0.1237  0.0491  0.0603
  678SOL     OW 2709   2.526   1.570   0.529 -0.3687 -0.3600  0.5683
  678SOL    HW1 2710   2.454   1.614   0.476  2.7178 -0.7946 -2.2737
  678SOL    HW2 2711   2.605   1.582   0.477 -0.2206 -0.7229 -1.2769
  678SOL     MW 2712   2.527   1.578   0.515  0.0581 -0.4652 -0.0501
  679SOL     OW 2713   2.369   0.538   1.229 -0.2020 -0.1655 -0.0837
  679SOL    HW1 2714   2.314   0.468   1.190 -2.1947  0.3208 -1.6872
  679SOL    HW2 2715   2.331   0.618   1.193  1.0720  1.0510  3.3823
  679SOL     MW 2716   2.357   0.539   1.219 -0.2969  0.0591  0.1620
  680SOL     OW 2717   2.413   0.214   1.528  0.1510 -0.2772 -0.2325
  680SOL    HW1 2718   2.344   0.191   1.592  0.8876  1.4347 -1.7243
  680SOL    HW2 2719   2.408   0.154   1.449  0.7577  0.4951  0.6930
  680SOL     MW 2720   2.403   0.203   1.526  0.3282  0.0505 -0.3072
  681SOL     OW 2721   0.320   0.514   1.517 -0.2548 -0.0472  0.2170
  681SOL    HW1 2722   0.335   0.427   1.559  0.7217 -3.6129  1.5437
  681SOL    HW2 2723   0.398   0.564   1.534 -2.1697 -0.3608  1.7898
  681SOL     MW 2724   0.332   0.509   1.525 -0.3786 -0.5591  0.5995
  682SOL     OW 2725   0.204   2.974   1.528 -0.3051  0.0351 -0.3029
  682SOL    HW1 2726   0.228   3.062   1.490  1.3077  4.3426 -1.6304
  682SOL    HW2 2727   0.118   2.986   1.575 -0.3597  2.1065 -0.2833
  682SOL     MW 2728   0.196   2.987   1.529 -0.0995  0.8767 -0.4754
  683SOL     OW 2729   1.938   0.791   2.992 -0.0237 -0.6894  0.3686
  683SOL    HW1 2730   1.875   0.776   2.917 -2.2154  1.2247 -0.6589
  683SOL    HW2 2731   1.962   0.885   2.986 -0.2767  0.8466  0.8851
  683SOL     MW 2732   1.933   0.801   2.981 -0.3463 -0.2342  0.3012
  684SOL     OW 2733   2.108   1.737   0.813  0.1207 -0.2605 -0.2614
  684SOL    HW1 2734   2.018   1.733   0.845 -0.5315  0.8971 -0.1326
  684SOL    HW2 2735   2.148   1.680   0.879 -0.8255 -0.5233  1.8882
  684SOL     MW 2736   2.101   1.729   0.826 -0.0902 -0.1424  0.0392
  685SOL     OW 2737   2.668   1.746   1.175 -0.4576 -0.1780  0.1614
  685SOL    HW1 2738   2.735   1.771   1.233  0.5129  0.0040  0.1606
  685SOL    HW2 2739   2.646   1.655   1.199 -2.3582  0.5700  1.1246
  685SOL     MW 2740   2.674   1.738   1.186 -0.5803 -0.0553  0.2884
  686SOL     OW 2741   2.893   0.692   1.516  1.0417 -0.2031  0.2743
  686SOL    HW1 2742   2.901   0.660   1.610  2.2467  1.4783 -0.4128
  686SOL    HW2 2743   2.950   0.638   1.458  2.9202  1.9705 -0.4547
  686SOL     MW 2744   2.902   0.680   1.520  1.4486  0.3055  0.0875
  687SOL     OW 2745   2.212   0.320   1.210  0.0253  0.6346  0.7511
  687SOL    HW1 2746   2.197   0.259   1.135 -1.8439  0.0326 -0.9279
  687SOL    HW2 2747   2.135   0.379   1.209  1.5329  0.7871  0.7024
  687SOL     MW 2748   2.200   0.319   1.200 -0.0224  0.5753  0.5231
  688SOL     OW 2749   2.360   0.523   1.496 -0.1551  0.2717 -0.5148
  688SOL    HW1 2750   2.372   0.427   1.500  0.7118 -0.1844  0.6323
  688SOL    HW2 2751   2.355   0.525   1.399  0.9362 -0.0214  1.1030
  688SOL     MW 2752   2.361   0.511   1.484  0.1033  0.1728 -0.1500
  689SOL     OW 2753   2.563   0.783   2.978  0.4854 -0.0374 -0.0239
  689SOL    HW1 2754   2.567   0.879   2.950  1.8456 -1.2263 -2.3342
  689SOL    HW2 2755   2.551   0.777   3.073 -0.6782  4.2943 -2.5527
  689SOL     MW 2756   2.562   0.795   2.987  0.5114  0.3772 -0.6624
  690SOL     OW 2757   2.076   1.012   1.944 -0.6293  0.7250 -0.0964
  690SOL    HW1 2758   2.003   0.951   1.959  0.6645 -1.3431  2.1058
  690SOL    HW2 2759   2.109   1.000   1.856  0.0507 -0.2565  1.9787
  690SOL     MW 2760   2.070   1.003   1.935 -0.3689  0.3226  0.4679
  691SOL     OW 2761   2.465   0.380   0.871 -0.1250 -0.1131 -0.3713
  691SOL    HW1 2762   2.533   0.415   0.924 -1.4879  0.7937 -3.3991
  691SOL    HW2 2763   2.401   0.448   0.850  1.2130  1.4027  1.0217
  691SOL     MW 2764   2.465   0.394   0.875 -0.1283  0.2065 -0.5870
  692SOL     OW 2765   2.814   1.662   1.436  0.3126  0.6126 -0.7587
  692SOL    HW1 2766   2.856   1.620   1.503  0.7963 -2.3064 -2.9932
  692SOL    HW2 2767   2.820   1.754   1.456  1.9040 -2.4355  0.1427
  692SOL     MW 2768   2.820   1.668   1.448  0.5864 -0.1747 -0.9346
  693SOL     OW 2769   2.292   0.490   0.089  0.6896 -0.6024  0.2756
  693SOL    HW1 2770   2.211   0.442   0.101  2.7718  0.3020 -0.3121
  693SOL    HW2 2771   2.247   0.561   0.047 -0.6855  0.3069  0.9533
  693SOL     MW 2772   2.276   0.493   0.085  0.7829 -0.3631  0.2875
  694SOL     OW 2773   1.968   1.269   1.194  0.2952 -0.1790  0.0055
  694SOL    HW1 2774   2.059   1.232   1.180  2.3219 -2.0489  2.3353
  694SOL    HW2 2775   1.916   1.206   1.244 -0.9092  0.3234  1.2501
  694SOL     MW 2776   1.973   1.256   1.199  0.4037 -0.3595  0.4771
  695SOL     OW 2777   3.052   1.497   1.313 -0.1457  0.2802  1.0768
  695SOL    HW1 2778   3.012   1.475   1.228  2.2803 -1.3304 -0.8769
  695SOL    HW2 2779   2.981   1.551   1.347 -2.0015 -0.4720  2.5526
  695SOL     MW 2780   3.037   1.501   1.306 -0.0705 -0.0316  1.0137
  696SOL     OW 2781   2.028   1.364   0.945 -0.2693 -0.5606  0.0921
  696SOL    HW1 2782   2.094   1.428   0.979 -1.1618  0.8962  2.0220
  696SOL    HW2 2783   1.991   1.325   1.028 -1.6824  3.9647  0.2227
  696SOL     MW 2784   2.032   1.367   0.961 -0.5735  0.2287  0.3640
  697SOL     OW 2785   2.878   1.026   2.268 -0.4516 -0.5538 -0.0369
  697SOL    HW1 2786   2.847   1.105   2.234 -0.1323 -0.5710  1.4571
  697SOL    HW2 2787   2.877   0.966   2.196  0.5802 -1.4151 -1.0545
  697SOL     MW 2788   2.874   1.028   2.254 -0.2734 -0.6697  0.0259
  698SOL     OW 2789   2.521   0.404   3.006 -0.1432 -0.5596  0.0052
  698SOL    HW1 2790   2.449   0.437   3.063  2.4512  3.3692  0.6786
  698SOL    HW2 2791   2.558   0.343   3.071 -2.0695 -1.0520  4.4504
  698SOL     MW 2792   2.516   0.400   3.022 -0.0551 -0.1062  0.6805
  699SOL     OW 2793   1.825   1.643   2.037  0.2444 -0.0867 -0.1739
  699SOL    HW1 2794   1.797   1.550   2.056 -1.3663  0.1378 -1.1353
  699SOL    HW2 2795   1.917   1.638   2.061  0.7297 -0.6823 -0.7406
  699SOL     MW 2796   1.834   1.630   2.043  0.0959 -0.1357 -0.3755
  700SOL     OW 2797   2.694   0.878   1.533  0.1294 -0.2230  0.0379
  700SOL    HW1 2798   2.748   0.949   1.495  1.5758  1.0568 -0.2047
  700SOL    HW2 2799   2.759   0.808   1.525  0.0519  2.0740  2.7025
  700SOL     MW 2800   2.710   0.878   1.527  0.3100  0.2489  0.3575
  701SOL     OW 2801   1.668   1.302   2.571  0.0662  0.0076 -0.2798
  701SOL    HW1 2802   1.754   1.283   2.615  2.2309  0.7772 -0.7299
  701SOL    HW2 2803   1.624   1.356   2.638  1.1114  1.3900  0.7368
  701SOL     MW 2804   1.674   1.307   2.586  0.4897  0.2916 -0.2051
  702SOL     OW 2805   2.228   0.517   0.797 -0.0219 -0.5032 -0.8302
  702SOL    HW1 2806   2.215   0.436   0.756  1.1363  0.3595 -1.7552
  702SOL    HW2 2807   2.251   0.575   0.730 -0.2737 -0.3665  1.0011
  702SOL     MW 2808   2.229   0.514   0.783  0.0977 -0.3714 -0.7106
  703SOL     OW 2809   2.684   1.272   0.993  0.1429  0.4969  0.0647
  703SOL    HW1 2810   2.654   1.257   0.900  1.6410  1.0905 -2.9301
  703SOL    HW2 2811   2.674   1.188   1.041  1.9482  1.1196  0.9544
  703SOL     MW 2812   2.679   1.259   0.987  0.5787  0.6574 -0.2131
  704SOL     OW 2813   3.097   1.312   0.202 -0.0371 -0.3319  0.5367
  704SOL    HW1 2814   3.008   1.275   0.194 -0.5416 -2.3694 -1.4734
  704SOL    HW2 2815   3.152   1.241   0.210 -0.0569  0.6961 -0.9144
  704SOL     MW 2816   3.092   1.298   0.202 -0.1063 -0.4651  0.0800
  705SOL     OW 2817   2.233   1.626   1.298  0.2535 -0.3759  0.9287
  705SOL    HW1 2818   2.160   1.627   1.358 -0.3483  1.2622 -0.7469
  705SOL    HW2 2819   2.271   1.550   1.332  0.0251  0.8761  1.0822
  705SOL     MW 2820   2.228   1.616   1.311  0.1439  0.0054  0.7279
  706SOL     OW 2821   2.986   1.223   0.638 -0.0900  0.1169 -0.5705
  706SOL    HW1 2822   3.078   1.242   0.619 -1.2088  0.2350  0.7120
  706SOL    HW2 2823   2.961   1.316   0.673  1.9492  3.9722  1.6116
  706SOL     MW 2824   2.995   1.238   0.640  0.0314  0.6412 -0.1134
  707SOL     OW 2825   2.431   0.104   0.991  0.7499  0.0999  0.6575
  707SOL    HW1 2826   2.441   0.186   0.950 -0.1005  0.2201 -0.5162
  707SOL    HW2 2827   2.335   0.089   0.987  1.8315 -2.9540  1.5933
  707SOL     MW 2828   2.420   0.113   0.985  0.7804 -0.2872  0.6261
  708SOL     OW 2829   2.520   1.547   0.126  0.4544 -0.3102  0.1455
  708SOL    HW1 2830   2.555   1.478   0.192 -0.4499 -0.7832  1.6148
  708SOL    HW2 2831   2.468   1.495   0.070  1.1689 -0.6014 -3.8824
  708SOL     MW 2832   2.518   1.531   0.127  0.4294 -0.4110 -0.1921
  709SOL     OW 2833   1.766   1.682   0.137  0.4487 -0.0013 -0.0794
  709SOL    HW1 2834   1.772   1.614   0.076  1.5687  1.0230  1.1312
  709SOL    HW2 2835   1.692   1.662   0.199 -1.6732  2.3922  0.0724
  709SOL     MW 2836   1.757   1.671   0.137  0.3166  0.4497  0.1003
  710SOL     OW 2837   2.223   1.178   1.188  0.0703  0.4313 -0.2148
  710SOL    HW1 2838   2.267   1.173   1.104 -0.2955 -1.2734  1.3245
  710SOL    HW2 2839   2.213   1.086   1.216 -2.0910 -2.7883  1.3168
  710SOL     MW 2840   2.227   1.165   1.180 -0.2631 -0.2184  0.1903
  711SOL     OW 2841   2.317   0.123   1.766  0.1500  0.5206 -0.6331
  711SOL    HW1 2842   2.403   0.082   1.760 -1.6927 -0.0704 -0.7725
  711SOL    HW2 2843   2.251   0.055   1.750 -3.3705 -4.2520 -1.4801
  711SOL     MW 2844   2.319   0.109   1.763 -0.5576 -0.1871 -0.7632
  712SOL     OW 2845   1.620   0.645   3.099 -0.8840  0.4335 -0.5694
  712SOL    HW1 2846   1.609   0.666   3.008  2.8715  0.5068 -0.8088
  712SOL    HW2 2847   1.609   0.727   3.147 -4.6072 -3.5359  2.8161
  712SOL     MW 2848   1.617   0.659   3.093 -0.8797 -0.0806 -0.1543
  713SOL     OW 2849   2.570   0.771   1.142  0.3084  0.1725  0.1138
  713SOL    HW1 2850   2.608   0.684   1.156  2.9601 -2.2739 -1.6241
  713SOL    HW2 2851   2.527   0.800   1.227  1.0137  0.3764 -0.4003
  713SOL     MW 2852   2.569   0.763   1.155  0.7513 -0.1233 -0.1833
  714SOL     OW 2853   2.253   0.160   2.041 -0.0228 -0.2341 -0.4900
  714SOL    HW1 2854   2.315   0.126   2.106 -1.2972 -3.4801 -1.5758
  714SOL    HW2 2855   2.298   0.175   1.954 -0.5260 -0.1334 -1.4140
  714SOL     MW 2856   2.267   0.157   2.038 -0.2574 -0.6491 -0.7552
  715SOL     OW 2857   1.740   1.905   1.700  0.1238  0.6102  0.3674
  715SOL    HW1 2858   1.829   1.866   1.677  3.1167  2.3749 -1.8137
  715SOL    HW2 2859   1.699   1.843   1.762 -0.7664  1.2483  2.7606
  715SOL     MW 2860   1.747   1.892   1.705  0.4013  0.9272  0.3954
  716SOL     OW 2861   2.198   0.727   0.567 -0.5166 -0.2137 -0.5701
  716SOL    HW1 2862   2.255   0.733   0.488 -0.1131  0.7161  1.1584
  716SOL    HW2 2863   2.106   0.740   0.538 -0.2305  1.4952  2.2649
  716SOL     MW 2864   2.194   0.730   0.553 -0.4256  0.1345  0.0320
  717SOL     OW 2865   2.899   1.417   2.986 -0.0475  0.2869 -0.3075
  717SOL    HW1 2866   2.993   1.429   2.971 -1.3766  0.0750 -0.4868
  717SOL    HW2 2867   2.872   1.498   3.038  2.4974  3.3956  1.5200
  717SOL     MW 2868   2.908   1.429   2.991  0.1130  0.6691 -0.0900
  718SOL     OW 2869   2.573   1.496   1.264 -0.5406 -0.1474  0.5950
  718SOL    HW1 2870   2.605   1.548   1.346 -0.4640  0.9582 -0.1611
  718SOL    HW2 2871   2.643   1.432   1.249  0.8659 -1.1630 -1.8121
  718SOL     MW 2872   2.587   1.495   1.273 -0.3449 -0.1355  0.1776
  719SOL     OW 2873   2.168   1.326   0.693  0.0450 -0.5254 -0.1627
  719SOL    HW1 2874   2.261   1.352   0.690  0.3621 -1.2884 -4.5071
  719SOL    HW2 2875   2.141   1.329   0.785 -1.1161  1.9037 -1.9224
  719SOL     MW 2876   2.177   1.330   0.705 -0.0663 -0.3056 -0.9681
  720SOL     OW 2877   2.873   1.177   0.164  0.1509 -0.5699 -0.0809
  720SOL    HW1 2878   2.838   1.089   0.192 -0.2771  0.9093  1.1928
  720SOL    HW2 2879   2.811   1.242   0.186  0.5613  1.7067 -1.3750
  720SOL     MW 2880   2.860   1.174   0.171  0.1486 -0.0743 -0.0836
  721SOL     OW 2881   2.454   0.793   1.432  0.0912 -0.2496 -0.3336
  721SOL    HW1 2882   2.432   0.697   1.428  2.7538 -2.2635  0.2521
  721SOL    HW2 2883   2.546   0.817   1.469 -1.5709  0.0153  0.6162
  721SOL     MW 2884   2.463   0.783   1.436  0.2232 -0.4804 -0.1310
  722SOL     OW 2885   2.482   1.150   0.355  0.8306  0.3688 -0.3727
  722SOL    HW1 2886   2.457   1.206   0.427 -1.7611  0.9780  0.6717
  722SOL    HW2 2887   2.521   1.078   0.396 -0.9952  0.3765 -1.6956
  722SOL     MW 2888   2.484   1.148   0.370  0.2478  0.4502 -0.4095
  723SOL     OW 2889   2.254   1.374   1.647 -0.0547  0.3299 -0.0783
  723SOL    HW1 2890   2.282   1.369   1.555 -2.8322  2.9698 -1.1721
  723SOL    HW2 2891   2.158   1.363   1.649 -0.1453 -2.1963  0.9003
  723SOL     MW 2892   2.245   1.372   1.635 -0.4331  0.3449 -0.0935
  724SOL     OW 2893   2.499   0.360   0.594  0.3894  0.0313  0.0205
  724SOL    HW1 2894   2.497   0.377   0.687  1.6806 -1.1210 -1.7019
  724SOL    HW2 2895   2.583   0.317   0.589 -2.3575 -1.2630  0.1726
  724SOL     MW 2896   2.510   0.357   0.606  0.1973 -0.2915 -0.1867
  725SOL     OW 2897   2.633   0.481   1.123  0.3557  0.2003  0.1492
  725SOL    HW1 2898   2.683   0.499   1.207  1.8840  0.4416  2.4284
  725SOL    HW2 2899   2.554   0.461   1.171  0.4457  2.7288  1.5324
  725SOL     MW 2900   2.629   0.481   1.141  0.5692  0.5657  0.6324
  726SOL     OW 2901   2.570   2.386   0.525 -0.2189  0.5892  0.4952
  726SOL    HW1 2902   2.539   2.458   0.466 -2.1839 -1.4124  0.1552
  726SOL    HW2 2903   2.511   2.375   0.596  4.1162 -1.6284  0.0167
  726SOL     MW 2904   2.558   2.394   0.527  0.0938  0.0325  0.3872
  727SOL     OW 2905   2.900   0.299   1.664 -0.5455 -0.3355 -0.0673
  727SOL    HW1 2906   2.895   0.284   1.572  1.7574 -3.5715 -1.2005
  727SOL    HW2 2907   2.811   0.268   1.686 -0.2770  1.5516 -2.3875
  727SOL     MW 2908   2.888   0.293   1.655 -0.2062 -0.5135 -0.5230
  728SOL     OW 2909   2.772   1.174   2.997 -0.0513 -0.4343 -0.0135
  728SOL    HW1 2910   2.812   1.258   3.002  0.7659 -3.1259  1.4422
  728SOL    HW2 2911   2.732   1.179   3.075  3.3937  0.1376  0.2369
  728SOL     MW 2912   2.772   1.186   3.008  0.5111 -0.7140  0.2116
  729SOL     OW 2913   2.469   1.453   0.983 -0.2444  0.2321  0.3120
  729SOL    HW1 2914   2.499   1.484   1.065  0.4718 -1.7904 -2.4504
  729SOL    HW2 2915   2.512   1.367   0.969  0.8185  1.9634 -0.5756
  729SOL     MW 2916   2.479   1.446   0.992 -0.0096  0.1937 -0.1696
  730SOL     OW 2917   2.069   1.151   0.169  0.5376  0.3390  0.1241
  730SOL    HW1 2918   2.167   1.131   0.171  1.0536  2.8342 -0.4940
  730SOL    HW2 2919   2.057   1.246   0.194  1.5265  0.6482 -1.3703
  730SOL     MW 2920   2.080   1.161   0.173  0.7362  0.7090 -0.1546
  731SOL     OW 2921   2.775   1.803   2.884  0.4160 -0.5033 -0.4716
  731SOL    HW1 2922   2.701   1.834   2.833 -0.6966  0.2536  0.7544
  731SOL    HW2 2923   2.833   1.877   2.898  1.0858  0.8994 -1.7471
  731SOL     MW 2924   2.773   1.817   2.879  0.3576 -0.2184 -0.4781
  732SOL     OW 2925   2.240   0.912   1.309 -0.7189  0.4554 -0.3665
  732SOL    HW1 2926   2.167   0.891   1.370 -0.8812  0.0691 -2.6052
  732SOL    HW2 2927   2.322   0.885   1.367  1.9006  0.4778  0.9745
  732SOL     MW 2928   2.241   0.906   1.324 -0.3947  0.4074 -0.4850
  733SOL     OW 2929   2.384   2.872   3.053  0.3770 -0.5684 -0.0197
  733SOL    HW1 2930   2.299   2.913   3.041 -1.1966 -1.9603 -2.9957
  733SOL    HW2 2931   2.371   2.780   3.032 -0.1916 -0.4227 -0.8204
  733SOL     MW 2932   2.371   2.866   3.048  0.0944 -0.7328 -0.5180
  734SOL     OW 2933   1.519   0.354   2.517 -0.2933  1.2564  0.4255
  734SOL    HW1 2934   1.436   0.324   2.549 -0.3333 -1.4801  1.9039
  734SOL    HW2 2935   1.542   0.286   2.442 -1.7740 -0.9441  0.7032
  734SOL     MW 2936   1.511   0.341   2.511 -0.4939  0.6050  0.6572
  735SOL     OW 2937   2.997   0.890   2.748 -0.2062 -0.2594  0.0452
  735SOL    HW1 2938   2.912   0.851   2.753  0.1199 -1.3484  0.6517
  735SOL    HW2 2939   3.002   0.955   2.815  3.7763  0.5693  0.5023
  735SOL     MW 2940   2.986   0.894   2.758  0.3623 -0.2938  0.1856
  736SOL     OW 2941   0.046   0.637   2.500 -0.2135  0.5255 -0.5431
  736SOL    HW1 2942   0.065   0.687   2.420 -0.0261 -0.0636 -0.9374
  736SOL    HW2 2943   0.036   0.544   2.474  0.0404 -0.4401  3.9048
  736SOL     MW 2944   0.047   0.632   2.486 -0.1553  0.3204 -0.0083
  737SOL     OW 2945   2.871   0.609   2.563 -0.3992  0.5168 -0.3545
  737SOL    HW1 2946   2.808   0.585   2.491  0.0366  1.2895 -0.0929
  737SOL    HW2 2947   2.960   0.629   2.525  1.4285 -2.5882  0.3321
  737SOL     MW 2948   2.875   0.608   2.548 -0.1006  0.2090 -0.2294
  738SOL     OW 2949   0.154   0.385   1.905  0.2064  0.0276 -0.1094
  738SOL    HW1 2950   0.221   0.446   1.910 -2.6080 -0.5209  1.0542
  738SOL    HW2 2951   0.169   0.333   1.828 -0.9929  0.5334 -1.5325
  738SOL     MW 2952   0.165   0.386   1.896 -0.3231  0.0220 -0.1437
  739SOL     OW 2953   2.549   1.022   2.179  0.7092  0.0033  0.4998
  739SOL    HW1 2954   2.460   1.016   2.147 -0.4726  2.3167  0.8065
  739SOL    HW2 2955   2.590   1.063   2.104  0.3733 -0.9915 -0.0438
  739SOL     MW 2956   2.543   1.027   2.165  0.5089  0.1772  0.4685
  740SOL     OW 2957   0.291   1.704   2.924  0.0317 -0.1502  0.1736
  740SOL    HW1 2958   0.261   1.613   2.914  0.5932  0.2026  0.5075
  740SOL    HW2 2959   0.373   1.700   2.979  0.4415  1.7293 -1.4178
  740SOL     MW 2960   0.298   1.691   2.930  0.1599  0.1443  0.0077
  741SOL     OW 2961   2.215   1.266   2.629  0.1037 -0.1003  0.4792
  741SOL    HW1 2962   2.216   1.331   2.559  0.2606 -1.2239  0.7639
  741SOL    HW2 2963   2.179   1.296   2.708 -2.5295 -2.3836 -2.3954
  741SOL     MW 2964   2.211   1.279   2.630 -0.2230 -0.5498  0.1375
  742SOL     OW 2965   1.551   1.385   2.349  0.3551 -0.9581  0.1966
  742SOL    HW1 2966   1.493   1.320   2.317 -0.9971  1.7505  1.4200
  742SOL    HW2 2967   1.597   1.353   2.434  1.6984 -0.8364 -0.3905
  742SOL     MW 2968   1.549   1.372   2.356  0.3540 -0.5846  0.2806
  743SOL     OW 2969   2.507   1.225   2.682 -0.1027 -0.7012  0.3069
  743SOL    HW1 2970   2.410   1.215   2.677 -0.1388 -1.7031  0.7924
  743SOL    HW2 2971   2.545   1.143   2.707 -2.1273  1.9608 -1.2779
  743SOL     MW 2972   2.499   1.213   2.684 -0.3746 -0.4822  0.1619
  744SOL     OW 2973   2.787   0.967   1.801  0.0022 -0.1391  0.2883
  744SOL    HW1 2974   2.732   1.039   1.839 -1.4469  0.1356  0.3087
  744SOL    HW2 2975   2.740   0.923   1.725 -3.7085  0.4233 -0.1113
  744SOL     MW 2976   2.774   0.971   1.796 -0.6786 -0.0286  0.2382
  745SOL     OW 2977   1.821   0.474   2.473 -0.9398  0.0633  0.2038
  745SOL    HW1 2978   1.824   0.537   2.392 -0.1045  0.3478 -3.5919
  745SOL    HW2 2979   1.735   0.437   2.493  0.1833 -2.5593 -0.3285
  745SOL     MW 2980   1.810   0.478   2.465 -0.6814 -0.2452 -0.3673
  746SOL     OW 2981   1.580   1.433   1.736  0.3338 -0.3275 -0.2373
  746SOL    HW1 2982   1.641   1.501   1.762  3.0327  2.6634 -0.7797
  746SOL    HW2 2983   1.547   1.396   1.818  0.2128  3.8513 -1.1958
  746SOL     MW 2984   1.584   1.437   1.750  0.6739  0.6185 -0.4353
  747SOL     OW 2985   2.595   1.156   1.947 -0.1571  0.1985 -0.3074
  747SOL    HW1 2986   2.512   1.155   1.893 -0.1645 -2.2105 -1.0787
  747SOL    HW2 2987   2.601   1.253   1.973  0.8841 -0.7138 -1.1954
  747SOL     MW 2988   2.585   1.169   1.943 -0.0207 -0.2397 -0.5263
  748SOL     OW 2989   0.133   2.992   1.961 -0.5533  0.3606 -0.0636
  748SOL    HW1 2990   0.200   3.052   1.968  0.8796 -0.9426 -0.8239
  748SOL    HW2 2991   0.104   2.983   2.053  1.5280  3.5529 -0.1282
  748SOL     MW 2992   0.138   2.999   1.974 -0.0896  0.6099 -0.1724
  749SOL     OW 2993   2.396   0.644   2.803 -0.0347 -0.1369 -0.0532
  749SOL    HW1 2994   2.397   0.704   2.730  3.9582 -5.4816  2.1944
  749SOL    HW2 2995   2.468   0.682   2.860 -0.6101 -2.1407  0.2776
  749SOL     MW 2996   2.406   0.657   2.801  0.4162 -1.1065  0.2870
  750SOL     OW 2997   2.052   3.060   1.992  0.4655  0.1296  0.5029
  750SOL    HW1 2998   2.114   3.133   2.017 -0.7463 -0.3869 -1.5862
  750SOL    HW2 2999   2.119   2.998   1.954 -0.2160 -0.5788  0.1613
  750SOL     MW 3000   2.069   3.061   1.990  0.2157 -0.0320  0.1822
  751SOL     OW 3001   0.028   0.376   2.420  0.2101 -0.2400  0.4217
  751SOL    HW1 3002  -0.056   0.364   2.376 -1.6802  2.5004  0.9122
  751SOL    HW2 3003   0.096   0.329   2.366 -0.0374 -0.5559  3.4617
  751SOL     MW 3004   0.026   0.368   2.407 -0.0720  0.0799  0.8875
  752SOL     OW 3005   2.158   0.963   2.777  0.2543 -0.0737  0.1352
  752SOL    HW1 3006   2.219   0.985   2.844 -2.8458  1.2940  0.5183
  752SOL    HW2 3007   2.131   0.875   2.799 -1.1343  1.3643 -0.0125
  752SOL     MW 3008   2.163   0.954   2.789 -0.3379  0.2965  0.1663
  753SOL     OW 3009   2.860   0.289   2.353 -0.4871 -0.1794 -0.6642
  753SOL    HW1 3010   2.836   0.194   2.333 -2.0682 -1.7214 -1.5524
  753SOL    HW2 3011   2.787   0.348   2.336  2.5334 -0.7743  0.7058
  753SOL     MW 3012   2.847   0.284   2.348 -0.2972 -0.4614 -0.6006
  754SOL     OW 3013   2.253   3.003   2.633 -0.8519  0.0825 -0.2952
  754SOL    HW1 3014   2.273   2.986   2.540 -4.3028 -0.5174 -0.4038
  754SOL    HW2 3015   2.335   2.974   2.674 -0.1286  1.3696 -1.9701
  754SOL     MW 3016   2.266   2.997   2.626 -1.2117  0.1732 -0.5305
  755SOL     OW 3017   2.775   1.625   2.398  0.1963 -0.6665 -0.7509
  755SOL    HW1 3018   2.741   1.533   2.402 -2.7203 -1.5683  1.3752
  755SOL    HW2 3019   2.797   1.643   2.494  2.0643 -0.6276 -2.2184
  755SOL     MW 3020   2.773   1.615   2.411  0.0579 -0.7803 -0.6640
  756SOL     OW 3021   2.215   1.253   2.961 -0.2169 -0.3043  0.1483
  756SOL    HW1 3022   2.276   1.325   2.968 -1.4077 -0.5942  3.0092
  756SOL    HW2 3023   2.272   1.177   2.986  1.4381 -0.5058  0.1584
  756SOL     MW 3024   2.231   1.252   2.965 -0.1556 -0.3691  0.5271
  757SOL     OW 3025   2.201   0.972   1.691 -0.5432 -0.0992  0.2715
  757SOL    HW1 3026   2.234   0.885   1.706 -0.7313  0.6917  1.3770
  757SOL    HW2 3027   2.148   0.974   1.609 -1.6890  0.0325  1.4331
  757SOL     MW 3028   2.199   0.961   1.682 -0.7192  0.0225  0.5706
  758SOL     OW 3029   2.165   1.850   2.496  0.6587 -0.4079  0.7524
  758SOL    HW1 3030   2.153   1.932   2.443 -3.2566  0.5113  0.1268
  758SOL    HW2 3031   2.251   1.817   2.487 -0.3643  1.5600 -1.0181
  758SOL     MW 3032   2.175   1.856   2.488  0.0072 -0.0270  0.4362
  759SOL     OW 3033   1.582   1.458   2.800  0.0161 -0.0270  0.4978
  759SOL    HW1 3034   1.607   1.548   2.761  2.4696  3.8384 -0.4331
  759SOL    HW2 3035   1.649   1.434   2.866  0.9234  0.1390  0.0277
  759SOL     MW 3036   1.595   1.467   2.803  0.4596  0.5049  0.3130
  760SOL     OW 3037   2.590   1.912   2.713 -0.3259  0.5448  0.0300
  760SOL    HW1 3038   2.537   1.846   2.673  1.7454  0.7270  0.5718
  760SOL    HW2 3039   2.661   1.917   2.649 -0.4762  0.6410  1.3841
  760SOL     MW 3040   2.592   1.904   2.699 -0.0724  0.5815  0.2801
  761SOL     OW 3041   2.328   0.432   2.361  0.0067  0.0606  0.8622
  761SOL    HW1 3042   2.244   0.383   2.363  0.3852  2.1284 -2.5372
  761SOL    HW2 3043   2.359   0.444   2.454 -2.5021  0.2293 -0.9850
  761SOL     MW 3044   2.321   0.427   2.373 -0.2744  0.3557  0.1700
  762SOL     OW 3045   0.012   0.185   2.141  0.0175 -0.0141  0.0231
  762SOL    HW1 3046  -0.010   0.113   2.203 -1.5070 -0.2923  0.2660
  762SOL    HW2 3047  -0.065   0.204   2.092  0.5524  0.8566  1.7227
  762SOL     MW 3048  -0.001   0.178   2.143 -0.1130  0.0641  0.2794
  763SOL     OW 3049   2.453   1.192   2.388 -0.2347  0.3971  0.8080
  763SOL    HW1 3050   2.509   1.129   2.342 -0.7438 -1.2260 -0.6416
  763SOL    HW2 3051   2.508   1.248   2.441 -1.3164 -1.2905 -3.0965
  763SOL     MW 3052   2.467   1.191   2.389 -0.4446 -0.0397  0.1015
  764SOL     OW 3053   0.401   0.040   2.783 -0.2871 -0.0023 -0.1775
  764SOL    HW1 3054   0.338   0.107   2.763  1.9811 -0.4664  1.4613
  764SOL    HW2 3055   0.425   0.056   2.876  0.3510 -0.1310  1.4772
  764SOL     MW 3056   0.396   0.051   2.793  0.0963 -0.0805  0.2570
  765SOL     OW 3057   2.776   0.036   2.347 -0.2706 -0.0424 -0.4539
  765SOL    HW1 3058   2.733   0.016   2.264  0.8748 -0.5194  1.9750
  765SOL    HW2 3059   2.770  -0.050   2.388  2.4654  1.2800  0.0641
  765SOL     MW 3060   2.769   0.022   2.341  0.2415  0.0692 -0.0651
  766SOL     OW 3061   1.919   2.968   2.224  0.0931  0.6678 -0.7158
  766SOL    HW1 3062   1.978   2.993   2.150  1.0799  2.6103  0.7072
  766SOL    HW2 3063   1.868   2.889   2.179 -0.0789 -1.4010  2.0783
  766SOL     MW 3064   1.920   2.961   2.209  0.2006  0.6512 -0.1594
  767SOL     OW 3065   2.653   0.631   1.895 -0.3041 -0.1870  0.0217
  767SOL    HW1 3066   2.630   0.648   1.987 -0.3674  1.7908 -1.9107
  767SOL    HW2 3067   2.606   0.701   1.848 -0.3966 -0.8019 -0.2561
  767SOL     MW 3068   2.644   0.643   1.901 -0.3247 -0.0072 -0.2699
  768SOL     OW 3069   0.062   1.456   2.897  0.2594  0.2240 -0.2669
  768SOL    HW1 3070   0.098   1.468   2.983  0.5914  0.2219  1.3323
  768SOL    HW2 3071   0.091   1.365   2.871  2.4287  0.3453  3.7081
  768SOL     MW 3072   0.071   1.446   2.905  0.5894  0.2397  0.4686
  769SOL     OW 3073   2.393   0.701   2.352 -0.2649  0.1234 -0.0401
  769SOL    HW1 3074   2.353   0.608   2.357 -0.0803  1.0023  1.0038
  769SOL    HW2 3075   2.460   0.698   2.289  0.2797 -2.6015  0.1716
  769SOL     MW 3076   2.397   0.688   2.345 -0.1687 -0.1201  0.1255
  770SOL     OW 3077   3.085   1.624   2.654  0.0399 -0.9705 -0.0597
  770SOL    HW1 3078   2.989   1.623   2.656  0.9004 -1.1686 -0.9478
  770SOL    HW2 3079   3.100   1.551   2.717  0.7914 -1.3183  0.5316
  770SOL     MW 3080   3.074   1.614   2.662  0.2526 -1.0425 -0.0989
  771SOL     OW 3081   3.066   0.562   1.992  0.1713 -0.1482  0.2615
  771SOL    HW1 3082   3.037   0.549   1.901 -1.0688  1.8055 -0.2359
  771SOL    HW2 3083   3.144   0.510   1.973 -0.8947  1.0568 -0.9685
  771SOL     MW 3084   3.073   0.554   1.977 -0.1330  0.2686  0.0335
  772SOL     OW 3085   0.005   3.103   2.343 -0.6327  0.3484 -0.0541
  772SOL    HW1 3086  -0.081   3.061   2.359  0.5687  3.9599  0.2792
  772SOL    HW2 3087   0.050   3.026   2.297  0.7643 -1.6406 -0.1956
  772SOL     MW 3088  -0.001   3.087   2.339 -0.2899  0.5625 -0.0288
  773SOL     OW 3089   2.477   2.913   2.777  0.1555 -0.0284 -0.3813
  773SOL    HW1 3090   2.515   2.840   2.729  0.5957 -0.6466 -1.4620
  773SOL    HW2 3091   2.429   2.883   2.854 -2.4258  0.0157 -0.1448
  773SOL     MW 3092   2.476   2.899   2.781 -0.1270 -0.1041 -0.4927
  774SOL     OW 3093   2.385   1.175   1.787  0.3123 -0.1958 -0.4421
  774SOL    HW1 3094   2.344   1.238   1.732  0.1722  0.6848 -0.2272
  774SOL    HW2 3095   2.335   1.089   1.784  0.6947  0.2320 -1.6180
  774SOL     MW 3096   2.373   1.172   1.779  0.3443 -0.0232 -0.5689
  775SOL     OW 3097   2.339   2.881   2.388 -0.4538 -0.0300  0.2066
  775SOL    HW1 3098   2.370   2.957   2.336  0.4160  0.5825  0.3371
  775SOL    HW2 3099   2.405   2.818   2.387 -1.2111  0.7615 -0.2628
  775SOL     MW 3100   2.352   2.883   2.381 -0.4389  0.1552  0.1619
  776SOL     OW 3101   0.135   1.504   0.047  0.1000  0.2978  0.5338
  776SOL    HW1 3102   0.229   1.489   0.067 -0.5282 -1.0791  0.9377
  776SOL    HW2 3103   0.088   1.424   0.083 -2.0883 -0.6859  2.0470
  776SOL     MW 3104   0.141   1.491   0.055 -0.2716 -0.0137  0.7867
  777SOL     OW 3105   3.004   1.120   1.674 -0.4173  0.1110  0.6070
  777SOL    HW1 3106   2.979   1.184   1.604 -3.4515  2.3416 -4.0422
  777SOL    HW2 3107   2.923   1.077   1.704 -1.1228 -0.9645 -4.0005
  777SOL     MW 3108   2.990   1.122   1.669 -0.9107  0.2634 -0.6143
  778SOL     OW 3109   2.943   0.498   2.816  0.1200 -0.0451  0.8380
  778SOL    HW1 3110   2.866   0.523   2.873 -1.8112  2.5437  1.5793
  778SOL    HW2 3111   2.911   0.513   2.727 -0.2935 -2.4334  1.0562
  778SOL     MW 3112   2.928   0.504   2.812 -0.1894 -0.0187  0.9646
  779SOL     OW 3113   2.211   0.556   2.103  0.4886 -0.3682  0.1812
  779SOL    HW1 3114   2.141   0.609   2.151 -0.3773  0.3572 -0.5914
  779SOL    HW2 3115   2.239   0.490   2.167 -0.9711 -0.5780 -3.6092
  779SOL     MW 3116   2.205   0.554   2.117  0.1817 -0.3002 -0.4208
  780SOL     OW 3117   0.233   0.240   2.721 -0.4438  0.4060  0.2286
  780SOL    HW1 3118   0.138   0.251   2.707 -4.2592  2.8628 -3.7007
  780SOL    HW2 3119   0.254   0.326   2.748  1.9809 -0.1471 -1.0210
  780SOL     MW 3120   0.223   0.253   2.723 -0.6273  0.6572 -0.4547
  781SOL     OW 3121   0.006   1.206   2.436 -0.1263 -0.2861 -0.3234
  781SOL    HW1 3122   0.033   1.231   2.347  0.6792  0.4326 -1.7262
  781SOL    HW2 3123  -0.006   1.112   2.436 -0.1229  2.2488 -0.5749
  781SOL     MW 3124   0.008   1.197   2.424 -0.0195  0.1431 -0.5416
  782SOL     OW 3125   0.730   1.483   0.059  0.5969  0.0395 -0.2462
  782SOL    HW1 3126   0.672   1.546   0.021  0.1479  1.5002 -2.3146
  782SOL    HW2 3127   0.727   1.499   0.156 -1.6470  0.4985  0.6924
  782SOL     MW 3128   0.722   1.494   0.067  0.2416  0.2928 -0.3953
  783SOL     OW 3129   2.709   0.543   2.358 -0.0768 -0.3462 -0.0544
  783SOL    HW1 3130   2.703   0.623   2.311  0.6502 -3.2841 -0.4710
  783SOL    HW2 3131   2.627   0.531   2.404  2.2100  1.0129  0.4192
  783SOL     MW 3132   2.697   0.552   2.358  0.3209 -0.5545 -0.0469
  784SOL     OW 3133   0.133   0.805   2.833  0.0258  0.1506  0.2057
  784SOL    HW1 3134   0.046   0.812   2.797 -1.4925 -0.8040  0.3196
  784SOL    HW2 3135   0.181   0.885   2.827  1.2748 -0.3432 -1.0300
  784SOL     MW 3136   0.128   0.816   2.828 -0.0097 -0.0405  0.0577
  785SOL     OW 3137   0.471   0.430   2.153 -0.4656  0.4380 -0.1076
  785SOL    HW1 3138   0.453   0.463   2.060 -1.2300 -0.1524  1.5082
  785SOL    HW2 3139   0.392   0.375   2.172 -0.1477  0.8351  2.0648
  785SOL     MW 3140   0.458   0.427   2.143 -0.5245  0.4125  0.3922
  786SOL     OW 3141   1.873   0.511   3.034  0.3173  0.1893  0.1001
  786SOL    HW1 3142   1.872   0.563   2.955 -2.3444  2.2938 -2.7709
  786SOL    HW2 3143   1.820   0.555   3.097 -0.1426  1.3685  0.9955
  786SOL     MW 3144   1.866   0.524   3.032 -0.0946  0.6226 -0.1606
  787SOL     OW 3145   2.382   0.197   2.916  0.2528  0.1711 -0.0917
  787SOL    HW1 3146   2.463   0.135   2.901  2.0026 -0.2967  0.1503
  787SOL    HW2 3147   2.430   0.282   2.938  1.9533  0.4729 -0.0040
  787SOL     MW 3148   2.399   0.200   2.917  0.7080  0.1492 -0.0482
  788SOL     OW 3149   2.918   2.880   2.388  0.1942 -0.0187 -0.0949
  788SOL    HW1 3150   2.979   2.852   2.453 -0.5992  1.7901  0.4612
  788SOL    HW2 3151   2.944   2.840   2.301  0.0486 -0.8013 -1.6126
  788SOL     MW 3152   2.930   2.871   2.385  0.0703  0.1167 -0.2218
  789SOL     OW 3153   0.096   0.192   0.082  0.5857 -0.0519 -0.6110
  789SOL    HW1 3154   0.010   0.162   0.100 -1.3965  0.5172  0.9429
  789SOL    HW2 3155   0.073   0.261   0.019 -2.5405 -0.8728  1.3535
  789SOL     MW 3156   0.082   0.197   0.076 -0.0883 -0.0851 -0.1468
  790SOL     OW 3157   3.046   0.939   2.479  0.1350  0.0692  0.1574
  790SOL    HW1 3158   3.017   0.907   2.564  1.1825  1.9979 -3.0741
  790SOL    HW2 3159   2.963   0.931   2.431 -1.5016  0.2141 -0.2551
  790SOL     MW 3160   3.032   0.934   2.484  0.0573  0.3428 -0.3234
  791SOL     OW 3161   2.498   0.502   2.576  0.4148  0.2335  0.3375
  791SOL    HW1 3162   2.473   0.533   2.663  0.1936  1.9282 -1.5502
  791SOL    HW2 3163   2.541   0.414   2.587  0.7513  0.4511 -0.8423
  791SOL     MW 3164   2.500   0.494   2.589  0.4300  0.4858 -0.0672
  792SOL     OW 3165   2.497   0.224   2.443 -0.2436  0.1729  0.1590
  792SOL    HW1 3166   2.428   0.284   2.410 -2.3277 -1.4941 -2.0552
  792SOL    HW2 3167   2.448   0.186   2.516  0.4302 -1.5975  0.9626
  792SOL     MW 3168   2.482   0.227   2.448 -0.4297 -0.2806 -0.0271
  793SOL     OW 3169   1.850   1.147   2.053 -0.1419 -0.6077 -0.1524
  793SOL    HW1 3170   1.817   1.125   1.963  0.4636  2.5295  2.1288
  793SOL    HW2 3171   1.944   1.130   2.040 -1.7553 -0.2878 -0.4130
  793SOL     MW 3172   1.858   1.142   2.040 -0.2749 -0.1516  0.1142
  794SOL     OW 3173   1.382   2.289   0.118 -0.3346  0.0894 -0.2278
  794SOL    HW1 3174   1.413   2.377   0.090 -0.2335 -1.6447  2.8085
  794SOL    HW2 3175   1.407   2.281   0.204 -1.8733  1.7181 -3.3642
  794SOL     MW 3176   1.390   2.300   0.125 -0.5243  0.0755 -0.2410
  795SOL     OW 3177   2.277   1.015   2.503  0.3102  0.4126  0.2284
  795SOL    HW1 3178   2.251   1.059   2.587 -1.1918  0.4207 -0.3810
  795SOL    HW2 3179   2.324   1.092   2.451 -0.0131  4.0936 -0.7012
  795SOL     MW 3180   2.280   1.031   2.507  0.0694  0.8994  0.0253
  796SOL     OW 3181   0.247   0.577   2.677  0.3922  0.2873 -0.0544
  796SOL    HW1 3182   0.213   0.633   2.743 -0.2947  0.0597 -0.2982
  796SOL    HW2 3183   0.184   0.587   2.606  2.8083  1.6323 -2.3776
  796SOL     MW 3184   0.234   0.585   2.676  0.6203  0.4347 -0.3931
  797SOL     OW 3185   2.774   0.218   2.657 -0.3411  0.1820  0.4576
  797SOL    HW1 3186   2.774   0.203   2.560 -1.2230 -2.3970 -1.1083
  797SOL    HW2 3187   2.870   0.221   2.666 -0.7086 -2.4732 -0.4859
  797SOL     MW 3188   2.786   0.216   2.645 -0.5059 -0.5086  0.1265
  798SOL     OW 3189   2.419   0.034   2.251 -0.0070 -0.6830  0.7216
  798SOL    HW1 3190   2.456   0.115   2.300 -2.6695  0.9284  0.6908
  798SOL    HW2 3191   2.497  -0.007   2.212 -2.1925  0.2469 -0.1457
  798SOL     MW 3192   2.434   0.039   2.253 -0.6466 -0.3477  0.6031
  799SOL     OW 3193   2.586   2.990   0.070 -0.3479  0.5520  0.3210
  799SOL    HW1 3194   2.512   2.941   0.034  0.4979 -1.1070 -0.1750
  799SOL    HW2 3195   2.575   2.988   0.171  0.9753  2.5533  0.0580
  799SOL     MW 3196   2.575   2.984   0.078 -0.0617  0.5972  0.2209
  800SOL     OW 3197   1.945   3.006   1.752  0.0296 -0.2361 -0.0081
  800SOL    HW1 3198   1.871   2.949   1.786 -1.6167 -3.4458 -2.5378
  800SOL    HW2 3199   1.976   3.037   1.836  1.4503 -1.2442 -2.2137
  800SOL     MW 3200   1.939   3.002   1.767 -0.0002 -0.7926 -0.6329
  801SOL     OW 3201   2.898   1.276   2.586 -0.3427 -0.2717 -0.2908
  801SOL    HW1 3202   2.865   1.189   2.608 -1.1649  1.4054 -1.7900
  801SOL    HW2 3203   2.963   1.267   2.515  0.0225 -1.5846 -0.9543
  801SOL     MW 3204   2.902   1.263   2.580 -0.4030 -0.2236 -0.5762
  802SOL     OW 3205   2.634   1.432   2.828  0.3397 -0.7968 -0.0783
  802SOL    HW1 3206   2.573   1.363   2.782 -1.6152  0.4310  1.9710
  802SOL    HW2 3207   2.710   1.393   2.861 -1.1818  0.6386 -0.4183
  802SOL     MW 3208   2.636   1.418   2.826 -0.1189 -0.4454  0.1472
  803SOL     OW 3209   2.355   1.400   1.987 -0.4674  0.2837  0.2303
  803SOL    HW1 3210   2.320   1.355   2.061  1.0949 -0.5032  1.0745
  803SOL    HW2 3211   2.344   1.343   1.912 -1.2898 -0.6034  0.2345
  803SOL     MW 3212   2.349   1.387   1.987 -0.3697  0.0629  0.3422
  804SOL     OW 3213   2.234   0.131   0.039  0.4151 -0.1017  0.2613
  804SOL    HW1 3214   2.164   0.193   0.050  1.8504 -3.2127  1.9215
  804SOL    HW2 3215   2.282   0.156  -0.040  1.3980 -0.1786  3.4019
  804SOL     MW 3216   2.231   0.143   0.030  0.7341 -0.5223  0.8947
  805SOL     OW 3217   2.729   0.811   2.671 -0.5040 -0.0745 -0.2672
  805SOL    HW1 3218   2.638   0.805   2.641 -1.3697  1.1663 -0.3832
  805SOL    HW2 3219   2.777   0.740   2.638  3.4753  2.3211 -1.7973
  805SOL     MW 3220   2.723   0.801   2.663 -0.0932  0.4053 -0.4844
  806SOL     OW 3221   2.632   0.766   2.192  0.6772 -0.5496  0.3438
  806SOL    HW1 3222   2.716   0.767   2.150 -0.5026 -0.7982 -1.9377
  806SOL    HW2 3223   2.599   0.859   2.187  1.0430  0.2420 -0.4183
  806SOL     MW 3224   2.639   0.778   2.186  0.5698 -0.4779 -0.0578
  807SOL     OW 3225   3.048   1.056   1.999  0.3431  0.3701  0.5644
  807SOL    HW1 3226   3.109   0.988   2.030 -0.6541 -2.2897 -2.4053
  807SOL    HW2 3227   3.032   1.112   2.068 -2.7681 -1.1643  2.2389
  807SOL     MW 3228   3.054   1.054   2.012 -0.1990 -0.1833  0.3935
  808SOL     OW 3229   2.604   0.075   2.823 -0.0003  0.2602  0.1060
  808SOL    HW1 3230   2.552   0.009   2.772  0.5120 -2.3342 -0.3251
  808SOL    HW2 3231   2.658   0.126   2.765  1.2816 -0.3331 -4.0278
  808SOL     MW 3232   2.604   0.073   2.808  0.2365 -0.1604 -0.4963
  809SOL     OW 3233   2.694   1.356   2.432  0.6188 -0.0913  0.8541
  809SOL    HW1 3234   2.759   1.330   2.500 -1.8108 -2.0530 -0.1268
  809SOL    HW2 3235   2.747   1.340   2.355 -2.0239 -1.1212  0.1809
  809SOL     MW 3236   2.709   1.351   2.431 -0.0505 -0.4860  0.6359
  810SOL     OW 3237   2.239   1.294   2.199 -0.1677  0.6030  0.3430
  810SOL    HW1 3238   2.276   1.305   2.286  0.7013 -2.3122 -0.3074
  810SOL    HW2 3239   2.275   1.210   2.170  2.1144  2.0523  0.6880
  810SOL     MW 3240   2.249   1.284   2.206  0.2481  0.4096  0.3027
  811SOL     OW 3241   1.614   0.223   2.283  0.3271 -0.4177 -0.3971
  811SOL    HW1 3242   1.704   0.201   2.310  2.9481 -4.0868 -0.7653
  811SOL    HW2 3243   1.610   0.227   2.181 -1.1952  0.3188 -2.3590
  811SOL     MW 3244   1.625   0.221   2.273  0.4721 -0.8046 -0.7045
  812SOL     OW 3245   1.466   2.800   2.057  0.0793  0.2675 -0.1097
  812SOL    HW1 3246   1.561   2.790   2.061 -1.5551  0.1793  0.8418
  812SOL    HW2 3247   1.439   2.773   2.146 -1.1193 -1.0918  0.5960
  812SOL     MW 3248   1.475   2.795   2.069 -0.2945  0.0765  0.1090
  813SOL     OW 3249   1.994   0.635   2.250 -0.5691 -0.1728  0.0227
  813SOL    HW1 3250   1.906   0.636   2.201 -3.2071 -0.0495  0.0967
  813SOL    HW2 3251   1.997   0.723   2.298  2.0150  1.6909  1.5816
  813SOL     MW 3252   1.983   0.647   2.250 -0.5762  0.0894  0.2381
  814SOL     OW 3253   2.714   1.297   1.645 -0.4483 -0.0983  0.3148
  814SOL    HW1 3254   2.719   1.213   1.692 -0.2371 -0.0576 -1.9591
  814SOL    HW2 3255   2.674   1.274   1.562  3.0674 -0.3989 -0.8821
  814SOL     MW 3256   2.709   1.283   1.640  0.0434 -0.1326 -0.1432
  815SOL     OW 3257   2.544   1.783   2.354 -0.3405 -0.1277  0.7385
  815SOL    HW1 3258   2.497   1.703   2.306 -0.5892  0.3652 -1.6728
  815SOL    HW2 3259   2.639   1.759   2.358  0.5263  1.1549  1.2952
  815SOL     MW 3260   2.550   1.769   2.348 -0.2589  0.1066  0.4938
  816SOL     OW 3261   0.699   0.677   2.770 -0.3451  0.2100 -0.1106
  816SOL    HW1 3262   0.723   0.581   2.779 -2.7710  1.7528  1.7949
  816SOL    HW2 3263   0.625   0.688   2.720  1.7660 -0.4707  2.9646
  816SOL     MW 3264   0.693   0.666   2.765 -0.3866  0.3237  0.5465
  817SOL     OW 3265   3.004   1.263   1.455 -0.2244  0.3164  0.0049
  817SOL    HW1 3266   3.093   1.241   1.495  2.7389 -0.1797  0.6194
  817SOL    HW2 3267   3.015   1.345   1.408  0.4538 -0.1589 -2.3798
  817SOL     MW 3268   3.017   1.271   1.454  0.2561  0.1882 -0.2287
  818SOL     OW 3269   1.918   1.068   2.640  0.2966 -0.3172  0.4054
  818SOL    HW1 3270   1.911   1.024   2.554 -1.0335 -2.8288 -2.2859
  818SOL    HW2 3271   1.998   1.019   2.674 -0.3273 -2.2747  0.3372
  818SOL     MW 3272   1.928   1.056   2.633  0.0388 -0.9068  0.0413
  819SOL     OW 3273   2.077   0.312   2.406 -0.6500  0.2895  0.3734
  819SOL    HW1 3274   2.002   0.371   2.392 -0.8341  0.5622  0.2369
  819SOL    HW2 3275   2.076   0.306   2.496 -1.6492  1.0442  0.8113
  819SOL     MW 3276   2.067   0.319   2.416 -0.8061  0.4250  0.4132
  820SOL     OW 3277   2.478   1.667   2.587  0.2740  0.2538  0.7458
  820SOL    HW1 3278   2.534   1.594   2.605 -0.6519 -0.3161  2.3205
  820SOL    HW2 3279   2.516   1.710   2.510 -1.1698 -1.8571 -1.9411
  820SOL     MW 3280   2.490   1.663   2.579 -0.0387 -0.0999  0.5990
  821SOL     OW 3281   2.621   1.409   2.063  0.5340 -1.0030 -0.2254
  821SOL    HW1 3282   2.635   1.482   1.999  2.2310 -2.6281  0.1288
  821SOL    HW2 3283   2.523   1.392   2.056 -1.5385 -2.2753  0.4495
  821SOL     MW 3284   2.610   1.416   2.054  0.4844 -1.3853 -0.0897
  822SOL     OW 3285   2.957   2.736   1.516  0.0427 -0.3927 -0.1305
  822SOL    HW1 3286   2.968   2.737   1.617  0.0840  0.9549  0.5229
  822SOL    HW2 3287   2.915   2.817   1.490 -0.5493 -3.0482  1.2133
  822SOL     MW 3288   2.953   2.747   1.526 -0.0299 -0.5653  0.1330
  823SOL     OW 3289   2.374   0.477   1.886 -0.0116 -0.2596 -0.0774
  823SOL    HW1 3290   2.448   0.422   1.887  3.5716 -0.1025  0.5392
  823SOL    HW2 3291   2.346   0.487   1.975  0.6955 -2.6755 -0.3353
  823SOL     MW 3292   2.380   0.471   1.898  0.5544 -0.5577 -0.0301
  824SOL     OW 3293   2.252   1.546   2.488  0.5203 -0.0738  0.5078
  824SOL    HW1 3294   2.316   1.591   2.542 -1.9365 -1.2426  1.7709
  824SOL    HW2 3295   2.168   1.570   2.532 -0.8838  1.3174 -0.1042
  824SOL     MW 3296   2.249   1.555   2.501  0.0109 -0.0445  0.5937
  825SOL     OW 3297   1.892   2.626   0.231  0.0080  0.3501 -0.2196
  825SOL    HW1 3298   1.876   2.570   0.313  1.7845 -0.5172 -1.9934
  825SOL    HW2 3299   1.954   2.581   0.183 -0.0998  2.2644  2.4560
  825SOL     MW 3300   1.898   2.612   0.236  0.2282  0.4883 -0.1006
  826SOL     OW 3301   1.862   2.366   0.380 -0.1965 -0.7952  0.4450
  826SOL    HW1 3302   1.807   2.288   0.386  0.6338 -1.4712  2.3711
  826SOL    HW2 3303   1.876   2.402   0.462 -0.6179 -1.5470 -2.4595
  826SOL     MW 3304   1.856   2.360   0.392 -0.1426 -0.9836  0.3159
  827SOL     OW 3305   1.986   2.175   0.786 -0.0766  0.5690 -0.8181
  827SOL    HW1 3306   1.906   2.174   0.729 -1.5377  2.7405 -1.4872
  827SOL    HW2 3307   1.957   2.122   0.864 -1.8781 -2.3794  1.0058
  827SOL     MW 3308   1.972   2.168   0.789 -0.5070  0.4665 -0.6658
  828SOL     OW 3309   0.071   2.646   0.640 -0.7341 -0.1361 -0.9000
  828SOL    HW1 3310   0.166   2.651   0.630 -1.3172  0.1539 -0.7455
  828SOL    HW2 3311   0.047   2.705   0.566 -0.2482 -0.1018 -0.1560
  828SOL     MW 3312   0.080   2.654   0.629 -0.7469 -0.0933 -0.7815
  829SOL     OW 3313   2.947   2.987   1.180  0.1773 -0.1098  0.0428
  829SOL    HW1 3314   2.878   2.987   1.109  1.4851  1.8232  1.9852
  829SOL    HW2 3315   3.000   2.902   1.163  3.2162 -0.8347 -1.0108
  829SOL     MW 3316   2.945   2.976   1.169  0.7508  0.0496  0.1601
  830SOL     OW 3317   2.536   2.830   1.989 -0.0289 -0.0406  0.2756
  830SOL    HW1 3318   2.442   2.836   1.974 -0.4728  1.3960  1.8267
  830SOL    HW2 3319   2.562   2.800   1.900 -2.0305 -0.4129 -2.0511
  830SOL     MW 3320   2.527   2.827   1.975 -0.3516  0.0998  0.1732
  831SOL     OW 3321   2.435   2.412   1.209 -0.4982  0.0432  0.2566
  831SOL    HW1 3322   2.400   2.349   1.269  0.2889  0.7256 -3.4744
  831SOL    HW2 3323   2.532   2.392   1.215 -0.9289 -0.7606  3.2849
  831SOL     MW 3324   2.443   2.401   1.218 -0.4512  0.0272  0.1638
  832SOL     OW 3325   2.307   2.210   1.860 -0.3946 -0.3099 -0.6073
  832SOL    HW1 3326   2.349   2.302   1.861  0.2483 -3.6845  0.3679
  832SOL    HW2 3327   2.387   2.160   1.838  0.4626  0.6125  1.0858
  832SOL     MW 3328   2.323   2.216   1.857 -0.1967 -0.6334 -0.2552
  833SOL     OW 3329   1.731   2.507   0.879 -0.4944  0.6060  0.0123
  833SOL    HW1 3330   1.649   2.461   0.898  2.1589 -0.1327  1.7810
  833SOL    HW2 3331   1.724   2.572   0.950  1.3161 -1.0033 -2.9719
  833SOL     MW 3332   1.719   2.509   0.891  0.0945  0.2962 -0.1481
  834SOL     OW 3333   2.166   2.445   0.543 -0.8224  0.0846  0.3355
  834SOL    HW1 3334   2.102   2.388   0.582 -1.3742 -2.4467  0.1297
  834SOL    HW2 3335   2.183   2.408   0.456 -3.0164 -0.2186 -1.5166
  834SOL     MW 3336   2.160   2.432   0.536 -1.1847 -0.2894  0.0640
  835SOL     OW 3337   1.828   2.562   0.636 -0.0569  0.2022  0.2080
  835SOL    HW1 3338   1.785   2.533   0.711  0.1992  0.5834  1.9662
  835SOL    HW2 3339   1.905   2.596   0.682  1.3953  1.2371 -0.2640
  835SOL     MW 3340   1.833   2.563   0.652  0.1685  0.3891  0.3777
  836SOL     OW 3341   1.895   2.239   1.543  0.1956 -0.0752 -0.3058
  836SOL    HW1 3342   1.969   2.202   1.589  1.5665 -2.1211 -0.3369
  836SOL    HW2 3343   1.825   2.263   1.611 -1.2179 -1.4324 -0.7059
  836SOL     MW 3344   1.896   2.238   1.558  0.1900 -0.5242 -0.3627
  837SOL     OW 3345   2.176   0.252   0.740 -0.3894 -0.3294  0.2566
  837SOL    HW1 3346   2.075   0.257   0.737 -1.5142 -2.6227 -1.6821
  837SOL    HW2 3347   2.197   0.185   0.669  0.8580  0.2110 -2.0293
  837SOL     MW 3348   2.166   0.244   0.730 -0.3732 -0.5607 -0.3008
  838SOL     OW 3349   2.937   2.068   0.926  0.1836  0.4300  0.6061
  838SOL    HW1 3350   2.843   2.033   0.922 -0.1688  0.6487 -0.8116
  838SOL    HW2 3351   2.992   1.991   0.943  2.2353  0.4725 -0.7572
  838SOL     MW 3352   2.932   2.053   0.928  0.4078  0.4645  0.2392
  839SOL     OW 3353   1.524   2.328   1.054 -0.0823  0.3904 -0.0767
  839SOL    HW1 3354   1.514   2.379   1.135 -1.1213  1.9185 -1.7553
  839SOL    HW2 3355   1.550   2.239   1.086 -2.9910 -2.1262  1.3080
  839SOL     MW 3356   1.526   2.323   1.069 -0.6032  0.2600 -0.1155
  840SOL     OW 3357   2.391   2.233   2.452  0.1251  0.6204 -0.8817
  840SOL    HW1 3358   2.377   2.309   2.401 -0.3657 -2.8058  0.5296
  840SOL    HW2 3359   2.352   2.253   2.535  1.0976 -1.3480  1.1677
  840SOL     MW 3360   2.384   2.246   2.456  0.1887 -0.0913 -0.4251
  841SOL     OW 3361   2.129   2.497   0.114 -1.1819  0.1719 -0.4525
  841SOL    HW1 3362   2.189   2.546   0.056  0.5913 -0.9924  0.2687
  841SOL    HW2 3363   2.098   2.415   0.071 -1.8811 -1.6018  0.0689
  841SOL     MW 3364   2.133   2.492   0.101 -1.0402 -0.2157 -0.2885
  842SOL     OW 3365   2.659   2.104   1.568  0.3495 -0.4503 -0.1421
  842SOL    HW1 3366   2.629   2.096   1.660  0.5957  2.7113 -1.4636
  842SOL    HW2 3367   2.589   2.065   1.511  0.0288  0.7569  1.3415
  842SOL     MW 3368   2.646   2.098   1.573  0.3397  0.1261 -0.1207
  843SOL     OW 3369   2.665   2.762   1.757 -0.0061 -0.1299  0.3192
  843SOL    HW1 3370   2.752   2.727   1.773 -1.8226 -0.3410 -0.3964
  843SOL    HW2 3371   2.621   2.701   1.686 -1.3207 -1.8575  2.9105
  843SOL     MW 3372   2.671   2.749   1.749 -0.4192 -0.3857  0.5667
  844SOL     OW 3373   2.691   2.309   1.227  0.3405  0.3052  0.6021
  844SOL    HW1 3374   2.696   2.338   1.136  2.1300  1.0898  0.7834
  844SOL    HW2 3375   2.749   2.377   1.266  3.9082  2.0870  4.0938
  844SOL     MW 3376   2.699   2.322   1.220  1.0474  0.6438  1.0868
  845SOL     OW 3377   2.873   2.473   0.342 -0.0627  0.1548  0.0664
  845SOL    HW1 3378   2.830   2.386   0.345 -0.4167  0.2473 -1.2887
  845SOL    HW2 3379   2.840   2.512   0.423 -0.4359 -3.1727  1.0770
  845SOL     MW 3380   2.863   2.467   0.353 -0.1586 -0.2720  0.0210
  846SOL     OW 3381   1.508   2.874   0.750  0.0082  0.0087  0.1556
  846SOL    HW1 3382   1.563   2.921   0.811  0.9093 -0.3018  1.4973
  846SOL    HW2 3383   1.427   2.930   0.746 -0.1947 -0.9257  3.2745
  846SOL     MW 3384   1.505   2.888   0.757  0.1003 -0.1555  0.7441
  847SOL     OW 3385   2.631   1.974   0.150 -0.4556  0.1704  0.3585
  847SOL    HW1 3386   2.627   1.931   0.232  0.0069  1.8337  0.4354
  847SOL    HW2 3387   2.602   1.907   0.087 -0.2436 -3.0987  0.4762
  847SOL     MW 3388   2.627   1.960   0.152 -0.3666 -0.0415  0.3841
  848SOL     OW 3389   2.500   2.073   1.287  0.5683  0.2030 -0.2805
  848SOL    HW1 3390   2.558   2.110   1.222  2.5779 -3.1134 -0.2840
  848SOL    HW2 3391   2.465   1.983   1.256 -0.2557 -0.3591 -0.3820
  848SOL     MW 3392   2.503   2.066   1.274  0.7248 -0.3087 -0.2944
  849SOL     OW 3393   2.056   2.671   0.782 -0.1530  0.0847 -0.3275
  849SOL    HW1 3394   2.047   2.580   0.799 -0.3793  3.5398 -2.1058
  849SOL    HW2 3395   2.119   2.692   0.709  0.3925 -1.9086 -0.8722
  849SOL     MW 3396   2.063   2.662   0.774 -0.1109  0.2776 -0.6340
  850SOL     OW 3397   2.217   1.885   1.709 -0.1460  0.5878  0.1579
  850SOL    HW1 3398   2.146   1.830   1.677  0.5036 -0.6782  1.2537
  850SOL    HW2 3399   2.205   1.971   1.672  1.3309  1.0595  1.3016
  850SOL     MW 3400   2.206   1.889   1.700  0.1346  0.4830  0.4534
  851SOL     OW 3401   2.286   2.386   0.313 -0.0644 -0.2400  0.1093
  851SOL    HW1 3402   2.238   2.404   0.231  2.1511  2.2451  1.9192
  851SOL    HW2 3403   2.362   2.454   0.318 -0.1390 -0.1821  0.3951
  851SOL     MW 3404   2.290   2.397   0.303  0.2181  0.0955  0.3858
  852SOL     OW 3405   2.331   2.104   0.284  0.5147  0.0902  0.2371
  852SOL    HW1 3406   2.302   2.192   0.322 -0.4904  1.1174  1.7506
  852SOL    HW2 3407   2.385   2.133   0.210 -0.8748  1.1947 -1.0666
  852SOL     MW 3408   2.334   2.120   0.279  0.1988  0.3714  0.2648
  853SOL     OW 3409   2.433   2.430   1.861 -0.2507 -0.0362  0.3428
  853SOL    HW1 3410   2.445   2.468   1.773  0.0834 -0.4270 -0.7214
  853SOL    HW2 3411   2.523   2.416   1.891 -2.2625 -0.6131 -3.5392
  853SOL     MW 3412   2.446   2.433   1.853 -0.4721 -0.1639 -0.3098
  854SOL     OW 3413   2.811   2.253   0.761  0.0938 -0.2432 -0.5821
  854SOL    HW1 3414   2.756   2.185   0.723 -0.0739 -0.8075  1.2099
  854SOL    HW2 3415   2.860   2.209   0.833  0.6187  0.0896 -0.2464
  854SOL     MW 3416   2.810   2.238   0.766  0.1409 -0.2738 -0.3014
  855SOL     OW 3417   2.725   2.241   0.372 -0.5207  0.1131  0.1352
  855SOL    HW1 3418   2.662   2.291   0.425  1.8637 -0.7315 -2.0678
  855SOL    HW2 3419   2.796   2.206   0.426 -0.5109  1.4970  1.2572
  855SOL     MW 3420   2.726   2.243   0.386 -0.2048  0.1843 -0.0075
  856SOL     OW 3421   2.175   1.865   0.208  0.1344  0.3432 -0.1492
  856SOL    HW1 3422   2.076   1.861   0.211 -0.7472  0.9006 -0.8047
  856SOL    HW2 3423   2.203   1.943   0.253  2.8284 -1.5875 -0.8403
  856SOL     MW 3424   2.165   1.875   0.215  0.3736  0.1620 -0.3269
  857SOL     OW 3425   2.466   1.903   0.442 -0.0645 -0.3259 -0.0788
  857SOL    HW1 3426   2.434   1.982   0.400 -0.2044  0.8409 -2.3808
  857SOL    HW2 3427   2.395   1.836   0.426  0.3261 -1.4618  3.0026
  857SOL     MW 3428   2.452   1.905   0.435 -0.0314 -0.3218  0.0240
  858SOL     OW 3429   2.932   2.683   1.804  0.1861 -0.4337 -0.4712
  858SOL    HW1 3430   3.027   2.693   1.830  0.0466  2.3096  0.0881
  858SOL    HW2 3431   2.903   2.597   1.819 -1.6347  1.0195  1.4864
  858SOL     MW 3432   2.941   2.673   1.809 -0.0725  0.1200 -0.1391
  859SOL     OW 3433   2.055   2.418   0.879  0.1275 -0.2153 -0.1145
  859SOL    HW1 3434   2.040   2.335   0.835 -0.0907 -0.2724 -1.5673
  859SOL    HW2 3435   2.144   2.406   0.912 -2.7955  1.9976  1.9287
  859SOL     MW 3436   2.065   2.406   0.878 -0.2870  0.0691 -0.0366
  860SOL     OW 3437   2.680   2.564   0.166 -0.5061 -0.2232 -0.1759
  860SOL    HW1 3438   2.752   2.533   0.216  0.4648  2.4133 -1.6290
  860SOL    HW2 3439   2.701   2.660   0.146 -0.6382  1.2114 -0.1248
  860SOL     MW 3440   2.692   2.573   0.170 -0.3954  0.3139 -0.3609
  861SOL     OW 3441   1.648   2.119   1.173 -0.5158 -0.5931  0.1523
  861SOL    HW1 3442   1.717   2.108   1.240  0.7029  0.7248  0.9913
  861SOL    HW2 3443   1.585   2.045   1.182 -1.0704  0.6952  1.1768
  861SOL     MW 3444   1.649   2.108   1.183 -0.4282 -0.2493  0.3981
  862SOL     OW 3445   2.438   1.861   1.539  0.3395 -0.2228  0.4305
  862SOL    HW1 3446   2.355   1.874   1.594  0.8894  1.7852  0.5960
  862SOL    HW2 3447   2.408   1.886   1.454 -0.5168  0.7473  2.0423
  862SOL     MW 3448   2.423   1.866   1.535  0.2991  0.1701  0.6650
  863SOL     OW 3449   3.009   1.819   1.228 -0.3483  0.0696  0.8046
  863SOL    HW1 3450   3.071   1.753   1.255  1.2843  1.0634 -1.2014
  863SOL    HW2 3451   3.031   1.897   1.276  0.0392  0.1274 -4.4998
  863SOL     MW 3452   3.020   1.820   1.238 -0.0818  0.2083 -0.1600
  864SOL     OW 3453   0.032   1.858   0.919  0.2113 -0.1046 -0.0975
  864SOL    HW1 3454   0.044   1.825   1.005  1.6040  2.4840 -1.2799
  864SOL    HW2 3455   0.000   1.790   0.863 -0.3109 -0.4577  0.6272
  864SOL     MW 3456   0.030   1.845   0.923  0.3262  0.1904 -0.1579
  865SOL     OW 3457   2.479   2.161   0.036 -0.1574  0.1627 -0.3530
  865SOL    HW1 3458   2.524   2.089   0.097  2.0336 -0.9662  1.8228
  865SOL    HW2 3459   2.477   2.117  -0.046 -1.3272  1.7374  1.4774
  865SOL     MW 3460   2.484   2.145   0.033 -0.0227  0.2215  0.1756
  866SOL     OW 3461   2.703   2.380   1.524  0.3905 -0.9681 -0.1410
  866SOL    HW1 3462   2.674   2.293   1.498  0.9343 -0.6840  1.4923
  866SOL    HW2 3463   2.751   2.423   1.451 -0.8129 -1.6046 -0.1776
  866SOL     MW 3464   2.706   2.374   1.511  0.3035 -1.0146  0.0697
  867SOL     OW 3465   0.106   2.692   1.858 -0.1499  0.2559 -0.3844
  867SOL    HW1 3466   0.162   2.663   1.925 -1.9838  0.9245 -1.4451
  867SOL    HW2 3467   0.130   2.783   1.828 -1.4164 -0.4580  0.9402
  867SOL     MW 3468   0.116   2.700   1.863 -0.5589  0.2499 -0.3496
  868SOL     OW 3469   2.772   2.591   0.606 -0.4475 -0.7431  0.1435
  868SOL    HW1 3470   2.707   2.529   0.625 -1.4846 -0.2173 -1.3412
  868SOL    HW2 3471   2.730   2.653   0.548  2.9517 -0.0046  2.0304
  868SOL     MW 3472   2.758   2.591   0.601 -0.1359 -0.5763  0.1966
  869SOL     OW 3473   1.903   2.308   1.085  0.0273 -0.0600  0.1583
  869SOL    HW1 3474   1.955   2.364   1.029 -0.4223 -1.3873  0.2500
  869SOL    HW2 3475   1.823   2.350   1.072 -0.9642  1.3541  3.4840
  869SOL     MW 3476   1.899   2.321   1.076 -0.1628 -0.0486  0.6092
  870SOL     OW 3477   2.315   0.110   0.530  0.1101 -0.0133  0.1710
  870SOL    HW1 3478   2.338   0.121   0.438  2.5549  3.1779 -1.4014
  870SOL    HW2 3479   2.384   0.169   0.560  0.5241 -2.1995 -0.0423
  870SOL     MW 3480   2.327   0.120   0.522  0.4873  0.1193 -0.0646
  871SOL     OW 3481   2.446   2.172   0.778  0.3286 -0.3487  0.1003
  871SOL    HW1 3482   2.384   2.108   0.766 -0.8935  1.0874  2.2708
  871SOL    HW2 3483   2.417   2.214   0.860  0.7756  0.4594  0.5852
  871SOL     MW 3484   2.434   2.169   0.787  0.2263 -0.0526  0.4506
  872SOL     OW 3485   2.040   2.574   1.466 -0.1525  0.6197 -0.2196
  872SOL    HW1 3486   2.007   2.597   1.551 -1.0314 -1.2722  0.2340
  872SOL    HW2 3487   1.968   2.515   1.435 -1.4479 -0.7349 -0.5878
  872SOL     MW 3488   2.026   2.569   1.473 -0.4394  0.1914 -0.2084
  873SOL     OW 3489   2.837   2.037   1.881 -0.0590 -0.8150  0.1125
  873SOL    HW1 3490   2.866   2.107   1.948 -0.1788 -0.5396 -0.8097
  873SOL    HW2 3491   2.910   2.038   1.816 -0.1043  2.0191  1.9510
  873SOL     MW 3492   2.850   2.046   1.882 -0.0808 -0.4047  0.2334
  874SOL     OW 3493   2.422   1.551   2.275  0.4207 -0.1210 -0.1552
  874SOL    HW1 3494   2.361   1.533   2.347  2.5326 -0.4602 -2.0489
  874SOL    HW2 3495   2.494   1.484   2.272 -0.5581 -0.7895  2.2282
  874SOL     MW 3496   2.423   1.540   2.284  0.5702 -0.2540 -0.0906
  875SOL     OW 3497   2.330   2.380   0.960  0.2956  0.3690  0.1033
  875SOL    HW1 3498   2.392   2.406   0.884  0.4366  2.4991 -2.0371
  875SOL    HW2 3499   2.383   2.383   1.040  1.6899 -2.5153 -0.0410
  875SOL     MW 3500   2.345   2.384   0.961  0.4982  0.2695 -0.1981
  876SOL     OW 3501   3.040   2.327   1.320  0.1457 -0.5687  0.2818
  876SOL    HW1 3502   3.071   2.361   1.238  2.3875 -0.2913 -0.0085
  876SOL    HW2 3503   3.111   2.366   1.380  0.9659 -1.3059  0.3155
  876SOL     MW 3504   3.053   2.337   1.317  0.5497 -0.6294  0.2480
  877SOL     OW 3505   3.084   2.808   0.431 -0.0797 -0.1547 -0.2388
  877SOL    HW1 3506   3.096   2.897   0.403  1.5938 -1.5784 -0.2388
  877SOL    HW2 3507   3.093   2.762   0.347 -1.6168 -1.9825 -0.5295
  877SOL     MW 3508   3.087   2.813   0.416 -0.0617 -0.5837 -0.2771
  878SOL     OW 3509   2.411   1.836   1.237  0.1302  0.0250  0.1427
  878SOL    HW1 3510   2.345   1.762   1.262 -3.1910 -0.6826 -0.6966
  878SOL    HW2 3511   2.487   1.783   1.212  0.6006  3.2386  1.7169
  878SOL     MW 3512   2.412   1.819   1.237 -0.2459  0.3556  0.2397
  879SOL     OW 3513   2.697   2.410   0.962  0.2178  0.3453  0.2336
  879SOL    HW1 3514   2.761   2.482   0.969 -0.3084 -0.3387 -1.0260
  879SOL    HW2 3515   2.741   2.347   0.905 -3.2943  0.6519 -1.7667
  879SOL     MW 3516   2.711   2.411   0.955 -0.3150  0.2955 -0.1965
  880SOL     OW 3517   2.714   2.036   0.601 -0.1918 -0.3686  0.5302
  880SOL    HW1 3518   2.637   1.985   0.639 -1.1055 -0.9116  1.9568
  880SOL    HW2 3519   2.693   2.051   0.510 -0.5731 -1.8925 -1.4099
  880SOL     MW 3520   2.701   2.031   0.594 -0.3627 -0.6413  0.4624
  881SOL     OW 3521   2.922   2.759   0.765  0.0383 -0.1707 -0.3617
  881SOL    HW1 3522   2.857   2.699   0.714  0.7861 -3.0800 -0.5938
  881SOL    HW2 3523   3.011   2.722   0.734  0.1507  1.0206 -1.1262
  881SOL     MW 3524   2.925   2.746   0.754  0.1518 -0.3974 -0.4932
  882SOL     OW 3525   2.268   2.858   1.892  0.5917 -0.8059 -0.5444
  882SOL    HW1 3526   2.252   2.826   1.804  0.9211 -0.1029 -0.7385
  882SOL    HW2 3527   2.237   2.791   1.948 -0.9222 -1.8219 -0.3145
  882SOL     MW 3528   2.261   2.845   1.888  0.4354 -0.8472 -0.5397
  883SOL     OW 3529   2.284   2.207   1.384 -0.6149 -0.2095 -0.2950
  883SOL    HW1 3530   2.366   2.165   1.343  0.0894  0.6183 -0.0952
  883SOL    HW2 3531   2.215   2.207   1.314 -2.2629 -0.1181 -3.8591
  883SOL     MW 3532   2.285   2.202   1.369 -0.7394 -0.0882 -0.7389
  884SOL     OW 3533   1.975   1.767   1.107  0.0259  0.5457 -0.3262
  884SOL    HW1 3534   1.914   1.829   1.058  1.8345 -1.0379 -0.9469
  884SOL    HW2 3535   2.051   1.824   1.122  0.7255 -0.9215  2.0474
  884SOL     MW 3536   1.977   1.783   1.103  0.3568  0.1431 -0.0949
  885SOL     OW 3537   2.843   2.436   1.753  0.0626 -0.5493  0.5590
  885SOL    HW1 3538   2.913   2.381   1.775 -1.6986  1.4033  1.1438
  885SOL    HW2 3539   2.808   2.410   1.671 -0.3696 -0.4874  2.7839
  885SOL     MW 3540   2.847   2.425   1.745 -0.2268 -0.2835  0.9297
  886SOL     OW 3541   2.855   2.515   1.332 -0.2867  0.8314 -0.1084
  886SOL    HW1 3542   2.925   2.443   1.328  1.7792  2.2936 -0.5752
  886SOL    HW2 3543   2.894   2.590   1.376 -2.2426 -1.7395  1.0083
  886SOL     MW 3544   2.869   2.516   1.337 -0.2722  0.6851 -0.0226
  887SOL     OW 3545   2.332   2.617   1.466 -0.1975 -0.0040 -0.3272
  887SOL    HW1 3546   2.344   2.630   1.372 -0.3882  0.4569  0.5388
  887SOL    HW2 3547   2.241   2.588   1.480 -0.3959 -0.9583 -1.8529
  887SOL     MW 3548   2.322   2.615   1.456 -0.2488 -0.0691 -0.4142
  888SOL     OW 3549   1.841   2.036   1.385 -0.1133  0.2895 -0.0689
  888SOL    HW1 3550   1.921   2.026   1.326  0.3316 -0.8573  2.1460
  888SOL    HW2 3551   1.859   2.118   1.441 -1.8148  1.1597  1.1035
  888SOL     MW 3552   1.854   2.046   1.384 -0.2791  0.2530  0.3781
  889SOL     OW 3553   2.268   2.084   2.103 -0.0594  0.0859  0.2182
  889SOL    HW1 3554   2.358   2.058   2.132  0.2221 -0.1537 -0.0419
  889SOL    HW2 3555   2.281   2.109   2.011 -0.5437 -0.1327  0.8113
  889SOL     MW 3556   2.282   2.084   2.095 -0.0862  0.0255  0.2622
  890SOL     OW 3557   0.102   2.298   0.092 -0.0284  0.2238 -0.2983
  890SOL    HW1 3558   0.025   2.340   0.054 -1.1972  0.3641 -0.9425
  890SOL    HW2 3559   0.092   2.292   0.190  3.2707  1.1277 -0.3293
  890SOL     MW 3560   0.091   2.303   0.100  0.2527  0.3615 -0.3874
  891SOL     OW 3561   3.068   2.067   1.366 -0.2658 -0.4315 -0.3983
  891SOL    HW1 3562   3.126   2.061   1.440 -0.4442 -2.7237 -1.1322
  891SOL    HW2 3563   3.045   2.162   1.343  0.3564 -2.5354  0.6214
  891SOL     MW 3564   3.072   2.079   1.373 -0.2073 -1.0116 -0.3606
  892SOL     OW 3565   2.344   2.349   2.906 -0.1136  0.0911  0.5992
  892SOL    HW1 3566   2.338   2.268   2.956  0.7831  2.8854  1.5667
  892SOL    HW2 3567   2.437   2.372   2.905 -1.1605  1.3009  2.4504
  892SOL     MW 3568   2.355   2.341   2.912 -0.1334  0.6194  0.9711
  893SOL     OW 3569   1.573   2.491   1.285  0.0776  0.2648 -0.4271
  893SOL    HW1 3570   1.498   2.513   1.350 -1.7133  3.1164  2.9273
  893SOL    HW2 3571   1.643   2.453   1.339  1.5532 -0.0866  2.7829
  893SOL     MW 3572   1.573   2.489   1.301  0.0360  0.5947  0.4390
  894SOL     OW 3573   2.899   1.822   0.556  0.0336 -0.0854 -0.4197
  894SOL    HW1 3574   2.825   1.874   0.594 -4.5773  2.6530  1.4130
  894SOL    HW2 3575   2.879   1.806   0.460  0.8849  0.7227  2.2204
  894SOL     MW 3576   2.887   1.827   0.549 -0.4624  0.3825  0.1704
  895SOL     OW 3577   2.067   2.133   1.219  0.2862  0.1367  0.1590
  895SOL    HW1 3578   2.012   2.191   1.164  0.0874 -2.0736  0.0380
  895SOL    HW2 3579   2.109   2.074   1.156  0.9460  1.4967 -1.1563
  895SOL     MW 3580   2.066   2.133   1.203  0.3470  0.0245 -0.0305
  896SOL     OW 3581   2.195   2.806   0.983 -0.3607 -0.1065  0.4864
  896SOL    HW1 3582   2.230   2.769   1.064  0.5188 -0.2326  0.3728
  896SOL    HW2 3583   2.150   2.735   0.945  0.5677  2.2933  5.0924
  896SOL     MW 3584   2.194   2.792   0.988 -0.1222  0.1935  1.0791
  897SOL     OW 3585   2.994   2.924   0.185  0.1104  0.9138  0.4673
  897SOL    HW1 3586   3.078   2.892   0.144 -2.4973 -1.2728  0.2398
  897SOL    HW2 3587   2.918   2.881   0.135 -1.0282 -1.7850 -0.2255
  897SOL     MW 3588   2.995   2.914   0.173 -0.3839  0.2693  0.3458
  898SOL     OW 3589   2.077   0.132   1.384  0.1496  0.0808  0.6335
  898SOL    HW1 3590   2.010   0.080   1.338  1.7955  0.2943 -1.8353
  898SOL    HW2 3591   2.116   0.198   1.327  1.8766  1.8581 -0.1329
  898SOL     MW 3592   2.073   0.134   1.370  0.5947  0.3435  0.2067
  899SOL     OW 3593   2.867   2.969   0.579 -0.0015 -0.6013  0.1890
  899SOL    HW1 3594   2.881   2.914   0.658 -0.5142  2.1963  0.6078
  899SOL    HW2 3595   2.783   3.011   0.590  0.5972 -0.9776  1.2380
  899SOL     MW 3596   2.857   2.968   0.591  0.0098 -0.2818  0.3827
  900SOL     OW 3597   0.122   2.458   1.131  0.1378 -0.6198  0.1015
  900SOL    HW1 3598   0.136   2.543   1.090 -1.3347 -1.4191  0.0965
  900SOL    HW2 3599   0.107   2.405   1.050  0.8675  0.7711  0.4214
  900SOL     MW 3600   0.122   2.462   1.115  0.0398 -0.5418  0.1430
  901SOL     OW 3601   1.725   2.839   1.777  0.1503 -0.2547  0.1332
  901SOL    HW1 3602   1.786   2.763   1.759 -0.8441 -1.6037  1.5413
  901SOL    HW2 3603   1.690   2.874   1.695 -2.0909  0.9862 -1.7194
  901SOL     MW 3604   1.729   2.834   1.764 -0.2766 -0.2690  0.0745
  902SOL     OW 3605   2.561   2.088   1.814  0.4803  0.4234  0.0363
  902SOL    HW1 3606   2.534   1.989   1.833  0.8357 -1.4322 -2.9394
  902SOL    HW2 3607   2.656   2.098   1.841  1.0185 -1.7078  0.5601
  902SOL     MW 3608   2.570   2.076   1.820  0.5982 -0.1026 -0.2872
  903SOL     OW 3609   1.678   2.788   0.524  0.0825 -0.0732 -0.2936
  903SOL    HW1 3610   1.734   2.719   0.564 -2.0078  3.0452 -2.0809
  903SOL    HW2 3611   1.622   2.811   0.596  0.1243 -0.8225 -1.1785
  903SOL     MW 3612   1.678   2.782   0.539 -0.1878  0.2394 -0.6462
  904SOL     OW 3613   2.530   2.555   1.638 -0.5323 -0.4306 -0.1000
  904SOL    HW1 3614   2.462   2.578   1.574  0.6559  2.5228 -2.0561
  904SOL    HW2 3615   2.573   2.477   1.601  1.5923 -0.6037  1.7741
  904SOL     MW 3616   2.527   2.548   1.625 -0.0952 -0.0637 -0.1108
  905SOL     OW 3617   2.405   2.553   2.109 -0.0579  0.0622 -0.3679
  905SOL    HW1 3618   2.413   2.496   2.033 -0.9960 -1.3128  0.7917
  905SOL    HW2 3619   2.355   2.493   2.170 -0.5147  1.4697  2.6164
  905SOL     MW 3620   2.399   2.537   2.107 -0.2420  0.0664  0.1789
  906SOL     OW 3621   2.509   2.511   0.793  0.6035 -0.0345 -0.5592
  906SOL    HW1 3622   2.584   2.489   0.850 -0.2565 -0.2371 -1.3777
  906SOL    HW2 3623   2.480   2.603   0.809  0.4777  2.7804  0.7225
  906SOL     MW 3624   2.515   2.521   0.803  0.4734  0.3102 -0.4981
  907SOL     OW 3625   2.544   2.904   1.254  0.4362 -0.5093  0.1816
  907SOL    HW1 3626   2.591   2.884   1.331  1.7506  0.4964 -1.0040
  907SOL    HW2 3627   2.610   2.891   1.189  1.3164  0.2296  0.6842
  907SOL     MW 3628   2.559   2.900   1.256  0.7257 -0.2791  0.0915
  908SOL     OW 3629   2.654   2.359  -0.003  0.5185  0.1453  0.0126
  908SOL    HW1 3630   2.593   2.282   0.019 -0.4556 -1.6478 -1.7796
  908SOL    HW2 3631   2.657   2.419   0.081  0.9859  2.0957  1.5323
  908SOL     MW 3632   2.646   2.357   0.011  0.4516  0.1660 -0.0234
  909SOL     OW 3633   1.757   0.166   1.037 -0.6118  0.3210 -0.2636
  909SOL    HW1 3634   1.769   0.256   1.019  0.0964 -0.4613  0.1388
  909SOL    HW2 3635   1.740   0.162   1.131 -0.4540 -1.3006  0.0061
  909SOL     MW 3636   1.757   0.177   1.047 -0.4976  0.0038 -0.1749
  910SOL     OW 3637   2.289   1.673   0.408 -0.0719  0.3478  0.2822
  910SOL    HW1 3638   2.222   1.620   0.445 -1.9662  0.0351  0.1462
  910SOL    HW2 3639   2.252   1.707   0.327  2.5159  0.0736 -1.3323
  910SOL     MW 3640   2.275   1.671   0.403  0.0196  0.2704  0.0512
  911SOL     OW 3641   2.150   2.136   1.631  0.0155  0.6842 -0.3646
  911SOL    HW1 3642   2.191   2.178   1.707 -0.2439 -0.2988  0.7679
  911SOL    HW2 3643   2.201   2.170   1.557 -1.0523 -0.4184 -2.3140
  911SOL     MW 3644   2.162   2.146   1.631 -0.1596  0.4090 -0.4724
  912SOL     OW 3645   2.849   1.920   1.509  0.0694 -0.0305  0.0231
  912SOL    HW1 3646   2.887   1.962   1.432 -0.1328 -1.0347  0.5531
  912SOL    HW2 3647   2.776   1.981   1.535  2.2599  0.2183  1.8315
  912SOL     MW 3648   2.844   1.934   1.502  0.3317 -0.1301  0.3316
  913SOL     OW 3649   2.569   2.952   0.332 -0.4872 -0.6739  0.0512
  913SOL    HW1 3650   2.639   2.890   0.354 -1.5235  2.2666  0.5548
  913SOL    HW2 3651   2.487   2.906   0.346  1.4099 -0.2312  2.3087
  913SOL     MW 3652   2.567   2.938   0.337 -0.3736 -0.2276  0.4155
  914SOL     OW 3653   2.805   1.649   0.019  0.0130 -0.3623  0.0539
  914SOL    HW1 3654   2.801   1.710  -0.060 -0.4799  0.0950  1.8424
  914SOL    HW2 3655   2.717   1.625   0.032 -1.0737 -1.3188 -0.1855
  914SOL     MW 3656   2.793   1.654   0.010 -0.1954 -0.4282  0.2583
  915SOL     OW 3657   1.912   0.177   0.242 -0.5067  0.0696 -1.0154
  915SOL    HW1 3658   1.966   0.100   0.267 -0.3855  1.1164 -0.3083
  915SOL    HW2 3659   1.819   0.152   0.258 -0.1609  1.2124 -0.7245
  915SOL     MW 3660   1.907   0.163   0.248 -0.4451  0.3585 -0.8837
  916SOL     OW 3661   1.857   2.085   1.984 -0.2563  0.4456 -0.6948
  916SOL    HW1 3662   1.858   2.163   1.934  1.8773  2.1042  0.6591
  916SOL    HW2 3663   1.837   2.015   1.922 -0.5108 -1.6511  0.2120
  916SOL     MW 3664   1.855   2.086   1.969 -0.0084  0.3878 -0.3965
  917SOL     OW 3665   2.229   2.335   2.648 -0.2839  0.3865 -0.0012
  917SOL    HW1 3666   2.267   2.326   2.739  0.6366 -0.6530  2.3609
  917SOL    HW2 3667   2.248   2.428   2.613 -0.5729  1.6047  1.9292
  917SOL     MW 3668   2.237   2.346   2.655 -0.2006  0.4100  0.5652
  918SOL     OW 3669   1.977   1.668   2.590  0.0916 -0.3056  0.6242
  918SOL    HW1 3670   1.898   1.691   2.532 -2.5325  3.1567  0.7145
  918SOL    HW2 3671   2.046   1.727   2.557 -1.4028 -0.0368  1.7475
  918SOL     MW 3672   1.975   1.679   2.578 -0.4518  0.1867  0.7843
  919SOL     OW 3673   3.004   2.369   2.300 -0.1084 -0.0478 -0.7316
  919SOL    HW1 3674   2.941   2.298   2.265 -0.3778  0.9682 -0.1033
  919SOL    HW2 3675   3.081   2.374   2.244 -1.1344 -0.4861 -0.6240
  919SOL     MW 3676   3.006   2.360   2.288 -0.2793  0.0284 -0.6345
  920SOL     OW 3677   2.773   2.805   0.083 -0.3277  0.7267 -0.6604
  920SOL    HW1 3678   2.688   2.852   0.074 -0.3055 -1.0132 -1.0985
  920SOL    HW2 3679   2.786   2.755   0.000 -0.3502  0.1017  0.0365
  920SOL     MW 3680   2.764   2.805   0.071 -0.3277  0.4147 -0.6263
  921SOL     OW 3681   2.574   2.648   2.688 -0.3776  0.4304  0.4536
  921SOL    HW1 3682   2.631   2.654   2.614 -0.2705 -1.9006  1.9038
  921SOL    HW2 3683   2.579   2.559   2.729 -0.2393  1.9159 -4.4523
  921SOL     MW 3684   2.582   2.637   2.683 -0.3452  0.3188 -0.0024
  922SOL     OW 3685   2.058   2.873   0.277 -0.8152 -0.2898  0.3190
  922SOL    HW1 3686   2.010   2.873   0.194 -1.7091 -0.2819  2.3910
  922SOL    HW2 3687   2.057   2.786   0.304  1.1766  0.1894 -0.2753
  922SOL     MW 3688   2.052   2.861   0.270 -0.6703 -0.2256  0.5139
  923SOL     OW 3689   2.176   2.780   1.649 -0.2055  0.2093 -1.3830
  923SOL    HW1 3690   2.228   2.740   1.578  0.1691 -0.2672  1.0349
  923SOL    HW2 3691   2.171   2.873   1.631 -2.8376 -0.4306  0.2621
  923SOL     MW 3692   2.182   2.787   1.637 -0.5034  0.0620 -0.8469
  924SOL     OW 3693   1.124   2.763   2.471  0.3974 -0.4992 -0.2200
  924SOL    HW1 3694   1.164   2.827   2.410  1.3478 -0.6737  0.6553
  924SOL    HW2 3695   1.198   2.717   2.509 -0.9062 -0.6438 -0.3248
  924SOL     MW 3696   1.139   2.765   2.468  0.3508 -0.5413 -0.1183
  925SOL     OW 3697   3.055   0.276   2.678 -0.1409 -0.1097 -0.2179
  925SOL    HW1 3698   3.063   0.312   2.591  0.0996  0.0371 -2.3129
  925SOL    HW2 3699   3.031   0.357   2.724  0.8436  0.6833  0.6844
  925SOL     MW 3700   3.053   0.292   2.673  0.0207  0.0143 -0.3752
  926SOL     OW 3701   2.690   2.385   1.978  0.1527 -0.0085  0.5553
  926SOL    HW1 3702   2.714   2.460   2.032 -2.7915  2.9750  4.3935
  926SOL    HW2 3703   2.749   2.404   1.901  0.7608  1.1842  1.5066
  926SOL     MW 3704   2.701   2.397   1.975 -0.1556  0.5425  1.1872
  927SOL     OW 3705   2.389   0.172   0.267 -0.3454 -0.5594  0.0776
  927SOL    HW1 3706   2.462   0.204   0.216 -0.7616 -0.8456 -0.5084
  927SOL    HW2 3707   2.321   0.174   0.193  0.4833 -0.0411  2.8348
  927SOL     MW 3708   2.389   0.177   0.251 -0.2910 -0.5288  0.3641
  928SOL     OW 3709   2.091   2.443   1.859 -0.3529  0.3730 -0.4767
  928SOL    HW1 3710   2.154   2.368   1.886 -2.5130 -1.9154 -0.6168
  928SOL    HW2 3711   2.116   2.513   1.923 -0.7184  1.4969  0.2571
  928SOL     MW 3712   2.103   2.442   1.871 -0.6861  0.2194 -0.3984
  929SOL     OW 3713   2.706   2.312   2.494  0.5071 -0.1207 -0.0349
  929SOL    HW1 3714   2.624   2.267   2.493 -1.1588  1.4587  0.2460
  929SOL    HW2 3715   2.746   2.278   2.577  1.2044  0.3928 -1.4923
  929SOL     MW 3716   2.701   2.302   2.505  0.3793  0.1554 -0.1901
  930SOL     OW 3717   2.016   2.907   2.711  0.5151 -0.3549 -0.6021
  930SOL    HW1 3718   2.029   2.849   2.791  1.6418 -2.0247 -2.1371
  930SOL    HW2 3719   2.106   2.949   2.694 -0.1089 -2.9687 -0.1929
  930SOL     MW 3720   2.029   2.905   2.719  0.5814 -0.9201 -0.7507
  931SOL     OW 3721   2.973   2.801   2.085 -0.4553  0.2509  0.8155
  931SOL    HW1 3722   3.059   2.771   2.093 -0.0144  2.7254  1.4013
  931SOL    HW2 3723   2.952   2.789   1.992 -0.0098  2.8862 -0.0629
  931SOL     MW 3724   2.982   2.795   2.074 -0.3383  0.9251  0.7769
  932SOL     OW 3725   2.803   1.948   2.542  0.6958 -0.5860  0.4143
  932SOL    HW1 3726   2.893   1.976   2.551  1.0881  1.1646  1.1283
  932SOL    HW2 3727   2.774   1.953   2.452 -1.9461 -0.9583 -0.4431
  932SOL     MW 3728   2.811   1.953   2.532  0.3990 -0.4041  0.3954
  933SOL     OW 3729   2.106   2.773   2.269  0.1266  0.7077 -0.0651
  933SOL    HW1 3730   2.194   2.810   2.287 -1.0428  1.2191  0.0936
  933SOL    HW2 3731   2.052   2.849   2.259  0.3126 -0.2833  0.5396
  933SOL     MW 3732   2.110   2.788   2.270 -0.0032  0.6444  0.0357
  934SOL     OW 3733   2.078   2.714   2.546 -0.0302 -0.0828 -0.0495
  934SOL    HW1 3734   2.053   2.795   2.595  1.4042 -1.8070 -2.8604
  934SOL    HW2 3735   2.090   2.732   2.451 -0.5067  0.8820 -2.7728
  934SOL     MW 3736   2.076   2.727   2.540  0.0962 -0.1830 -0.7797
  935SOL     OW 3737   2.656   1.570   1.849  0.0840  0.1739 -0.7434
  935SOL    HW1 3738   2.741   1.559   1.801  2.6903 -0.3379 -0.6555
  935SOL    HW2 3739   2.594   1.553   1.766 -1.0046  0.8048 -0.9379
  935SOL     MW 3740   2.659   1.566   1.832  0.2843  0.1896 -0.7575
  936SOL     OW 3741   2.888   2.195   0.026 -0.4025 -0.1299 -0.2603
  936SOL    HW1 3742   2.899   2.276   0.079  1.6781 -0.4252 -0.3587
  936SOL    HW2 3743   2.810   2.209  -0.027  0.3065 -0.1138 -1.2047
  936SOL     MW 3744   2.879   2.207   0.026 -0.0345 -0.1667 -0.3979
  937SOL     OW 3745   1.968   2.272   2.622 -0.0477 -0.6502 -0.0351
  937SOL    HW1 3746   2.064   2.268   2.641  2.0857  1.7070  1.9043
  937SOL    HW2 3747   1.962   2.256   2.523 -0.0725  0.2651  0.1891
  937SOL     MW 3748   1.980   2.269   2.611  0.2305 -0.2184  0.2504
  938SOL     OW 3749   2.278   1.838   1.978  0.1333 -0.1598  0.0951
  938SOL    HW1 3750   2.255   1.865   1.893  0.1876  1.7981  2.7539
  938SOL    HW2 3751   2.246   1.917   2.022 -0.6415  0.8861 -0.0144
  938SOL     MW 3752   2.271   1.852   1.973  0.0382  0.2365  0.4314
  939SOL     OW 3753   2.755   2.034   2.274  0.6132  0.4006 -0.2630
  939SOL    HW1 3754   2.769   1.962   2.209 -0.8650 -0.4848  3.3694
  939SOL    HW2 3755   2.659   2.038   2.279 -2.8386 -0.0412  0.7952
  939SOL     MW 3756   2.744   2.025   2.266 -0.0373  0.2255  0.3559
  940SOL     OW 3757   2.321   0.177   2.642 -0.4825 -0.5249  0.2542
  940SOL    HW1 3758   2.279   0.091   2.646  1.9766  2.9000  0.0453
  940SOL    HW2 3759   2.342   0.201   2.735 -0.0361  1.5529  1.3659
  940SOL     MW 3760   2.318   0.168   2.655 -0.0992  0.2011  0.3733
  941SOL     OW 3761   0.102   2.344   2.093 -0.0717 -0.1227 -0.2300
  941SOL    HW1 3762   0.174   2.294   2.102 -4.0987  2.2482 -2.2867
  941SOL    HW2 3763   0.065   2.319   2.006 -3.2811  0.4821 -0.4264
  941SOL     MW 3764   0.107   2.334   2.083 -1.0265  0.2699 -0.5273
  942SOL     OW 3765   2.868   2.222   2.096  0.7013  0.2925 -0.2175
  942SOL    HW1 3766   2.799   2.273   2.058 -1.2422  1.7680  0.6584
  942SOL    HW2 3767   2.828   2.161   2.160  1.0216 -0.0752  0.3194
  942SOL     MW 3768   2.854   2.220   2.099  0.4871  0.4387 -0.0311
  943SOL     OW 3769   0.189   2.035   2.327  0.4386 -0.2215  0.0957
  943SOL    HW1 3770   0.125   2.080   2.378  1.7848 -1.0757 -0.9741
  943SOL    HW2 3771   0.259   2.023   2.388 -0.9173 -1.3626  0.5847
  943SOL     MW 3772   0.190   2.039   2.342  0.4374 -0.4848  0.0191
  944SOL     OW 3773   2.163   2.640   2.025 -0.4999  0.3056 -0.2357
  944SOL    HW1 3774   2.251   2.597   2.039 -1.6029  0.5797  0.6254
  944SOL    HW2 3775   2.128   2.668   2.112 -0.6573 -0.9424 -1.0330
  944SOL     MW 3776   2.170   2.638   2.038 -0.6662  0.1771 -0.2272
  945SOL     OW 3777   2.791   2.631   2.955 -0.4391 -0.1347 -0.5297
  945SOL    HW1 3778   2.715   2.579   2.920  0.4817 -1.8625 -0.3471
  945SOL    HW2 3779   2.857   2.627   2.882  0.1290  2.2999  2.7333
  945SOL     MW 3780   2.790   2.624   2.941 -0.2426 -0.0415 -0.0751
  946SOL     OW 3781   2.553   2.724   2.283  0.0253 -0.4546  0.1365
  946SOL    HW1 3782   2.619   2.757   2.229  0.7931 -2.0607  1.0451
  946SOL    HW2 3783   2.492   2.675   2.221  0.9210 -0.0993  2.1677
  946SOL     MW 3784   2.554   2.722   2.268  0.2448 -0.6196  0.5244
  947SOL     OW 3785   2.085   3.096   0.428 -0.1059  0.8038  0.1623
  947SOL    HW1 3786   2.104   3.026   0.364 -1.1693 -1.5730  1.6836
  947SOL    HW2 3787   2.166   3.127   0.465 -3.9543 -1.0172 -0.2342
  947SOL     MW 3788   2.099   3.091   0.424 -0.7540  0.2499  0.3107
  948SOL     OW 3789   1.825   3.081   2.629 -0.0488  0.0734  0.2600
  948SOL    HW1 3790   1.895   3.030   2.664  1.4361  1.0743  1.7536
  948SOL    HW2 3791   1.844   3.128   2.548  1.9396 -0.9869 -0.6885
  948SOL     MW 3792   1.837   3.080   2.623  0.4095  0.0656  0.3319
  949SOL     OW 3793   2.476   2.011   2.261  0.4693 -0.0128  0.2576
  949SOL    HW1 3794   2.500   1.922   2.288  1.1065 -0.8114  0.3330
  949SOL    HW2 3795   2.451   2.061   2.340 -1.6831  0.7921  0.2476
  949SOL     MW 3796   2.476   2.006   2.275  0.2694 -0.0119  0.2662
  950SOL     OW 3797   2.282   2.607   3.009 -0.2943 -0.3920  0.1159
  950SOL    HW1 3798   2.304   2.521   2.977  0.6896 -0.6114  1.9568
  950SOL    HW2 3799   2.200   2.645   2.969  0.1645  1.1578  1.2220
  950SOL     MW 3800   2.274   2.600   2.999 -0.1040 -0.2164  0.5047
  951SOL     OW 3801   2.882   2.062   2.879  0.0762  0.4172  0.2471
  951SOL    HW1 3802   2.928   2.096   2.953 -0.7205 -0.3399 -1.9079
  951SOL    HW2 3803   2.943   2.054   2.796  0.7667  0.7510 -1.7133
  951SOL     MW 3804   2.896   2.065   2.878  0.0622  0.3613 -0.2959
  952SOL     OW 3805   3.046   1.679   2.077 -0.1841 -0.7170  0.2959
  952SOL    HW1 3806   2.976   1.741   2.063  2.6569  1.9954 -0.0388
  952SOL    HW2 3807   3.121   1.737   2.106  0.7015 -1.5826 -0.8342
  952SOL     MW 3808   3.047   1.695   2.079  0.3076 -0.4733  0.1026
  953SOL     OW 3809   1.930   1.817   2.808 -0.0765  0.6388 -0.5250
  953SOL    HW1 3810   1.841   1.796   2.829 -0.2267 -0.1621  0.1270
  953SOL    HW2 3811   1.945   1.756   2.738  2.0693  0.4633 -0.6819
  953SOL     MW 3812   1.920   1.806   2.801  0.1868  0.5099 -0.4597
  954SOL     OW 3813   2.415   2.052   2.906  0.0203 -0.1652  0.3332
  954SOL    HW1 3814   2.328   2.043   2.858  0.6100  1.4814 -0.0921
  954SOL    HW2 3815   2.486   2.021   2.844  1.2390 -0.3670  1.1809
  954SOL     MW 3816   2.413   2.047   2.891  0.2589  0.0254  0.3889
  955SOL     OW 3817   1.581   1.610   2.558  0.1457 -0.1362  0.1345
  955SOL    HW1 3818   1.539   1.578   2.476  1.2563 -1.2439  0.2202
  955SOL    HW2 3819   1.660   1.664   2.532 -2.1144  0.5733  2.9104
  955SOL     MW 3820   1.586   1.613   2.543 -0.0060 -0.1887  0.5121
  956SOL     OW 3821   2.614   2.441   2.850  0.0825 -1.3118  0.1573
  956SOL    HW1 3822   2.627   2.420   2.949 -0.2333  1.3917 -2.9114
  956SOL    HW2 3823   2.679   2.376   2.812  0.2698 -1.4828  2.0168
  956SOL     MW 3824   2.624   2.429   2.858  0.0655 -0.9777 -0.0023
  957SOL     OW 3825   2.323   2.804   0.353 -0.3577  0.3884  0.9261
  957SOL    HW1 3826   2.243   2.847   0.326 -2.8452  0.8303 -2.2067
  957SOL    HW2 3827   2.311   2.770   0.444  0.5311  0.3600 -0.0833
  957SOL     MW 3828   2.311   2.805   0.362 -0.5687  0.4430  0.3796
  958SOL     OW 3829   2.027   2.710   2.917 -0.2385 -0.2693  0.1391
  958SOL    HW1 3830   1.975   2.638   2.878 -2.1872  0.9749  2.3811
  958SOL    HW2 3831   1.963   2.771   2.948  0.4221 -0.1520 -0.2130
  958SOL     MW 3832   2.012   2.708   2.916 -0.4085 -0.0897  0.3885
  959SOL     OW 3833   2.478   2.583   0.343  0.0489 -0.2715  0.1080
  959SOL    HW1 3834   2.549   2.588   0.278 -0.0785  2.5544  0.4198
  959SOL    HW2 3835   2.435   2.670   0.350  0.4713  2.1875  1.0324
  959SOL     MW 3836   2.482   2.595   0.336  0.0879  0.4258  0.2711
  960SOL     OW 3837   1.968   2.472   2.335  0.2649 -0.5125 -0.4984
  960SOL    HW1 3838   1.941   2.383   2.305 -1.9449  2.4124 -2.2922
  960SOL    HW2 3839   1.907   2.491   2.414  0.2317 -4.4008 -0.2135
  960SOL     MW 3840   1.956   2.463   2.342 -0.0310 -0.6396 -0.6975
  961SOL     OW 3841   2.246   2.456   2.327 -0.3133  0.2166 -0.0459
  961SOL    HW1 3842   2.150   2.464   2.329 -2.1502 -0.0428 -1.0852
  961SOL    HW2 3843   2.265   2.509   2.408  1.7197  0.8593  0.6590
  961SOL     MW 3844   2.236   2.464   2.338 -0.2875  0.2672 -0.0900
  962SOL     OW 3845   2.180   2.004   2.733  0.1155  0.5118  0.4065
  962SOL    HW1 3846   2.139   1.969   2.807  0.6577 -0.1926  0.5417
  962SOL    HW2 3847   2.141   1.961   2.654  0.2129 -0.8305  2.6357
  962SOL     MW 3848   2.170   1.994   2.732  0.1999  0.2418  0.7185
  963SOL     OW 3849   1.749   2.529   2.155 -1.0909 -0.2958  0.5665
  963SOL    HW1 3850   1.829   2.523   2.204  2.4762 -0.7455 -0.2107
  963SOL    HW2 3851   1.770   2.474   2.071  0.8635 -2.0670 -0.9050
  963SOL     MW 3852   1.762   2.521   2.150 -0.3624 -0.5888  0.2698
  964SOL     OW 3853   1.847   2.033   2.657  0.0393  0.1566 -0.1073
  964SOL    HW1 3854   1.895   2.117   2.635  1.8529 -0.8488  0.6877
  964SOL    HW2 3855   1.887   1.971   2.715 -0.5874  1.0140 -4.0108
  964SOL     MW 3856   1.859   2.036   2.662  0.1959  0.1371 -0.5175
  965SOL     OW 3857   2.243   2.706   0.598  0.0400 -0.0156  0.1922
  965SOL    HW1 3858   2.238   2.610   0.583  1.5148 -0.9464 -1.1072
  965SOL    HW2 3859   2.310   2.718   0.666 -2.5536  1.5935  0.0415
  965SOL     MW 3860   2.251   2.695   0.605 -0.1076  0.0739  0.0009
  966SOL     OW 3861   2.732   2.589   2.452 -0.1933  0.0515  0.1247
  966SOL    HW1 3862   2.691   2.597   2.365  0.3719  0.9837 -1.1858
  966SOL    HW2 3863   2.729   2.499   2.474 -1.8251  0.6893  0.7630
  966SOL     MW 3864   2.726   2.578   2.443 -0.3341  0.2586  0.0360
  967SOL     OW 3865   2.817   3.091   2.997  0.1015 -0.5260 -0.2693
  967SOL    HW1 3866   2.784   3.030   3.063 -0.5397 -1.6866 -2.1571
  967SOL    HW2 3867   2.737   3.120   2.953  1.6601  0.1529 -2.0322
  967SOL     MW 3868   2.802   3.087   3.000  0.2225 -0.5896 -0.7510
  968SOL     OW 3869   3.013   2.474   3.070  0.4343  0.2760 -1.1098
  968SOL    HW1 3870   2.931   2.528   3.062  1.7082 -3.1819  0.8039
  968SOL    HW2 3871   3.050   2.470   2.980 -0.1871  0.8491 -0.3367
  968SOL     MW 3872   3.007   2.481   3.057  0.5204 -0.1047 -0.7553
  969SOL     OW 3873   1.558   2.140   1.718 -0.9579 -0.2210 -0.1202
  969SOL    HW1 3874   1.597   2.059   1.697  0.8424  0.2825 -4.0277
  969SOL    HW2 3875   1.529   2.140   1.808 -0.0368 -0.5299  1.0627
  969SOL     MW 3876   1.560   2.129   1.727 -0.5989 -0.1954 -0.4797
  970SOL     OW 3877   1.659   1.680   1.817 -0.0956 -0.2701  0.2485
  970SOL    HW1 3878   1.722   1.660   1.888  2.6811  0.0157 -1.0380
  970SOL    HW2 3879   1.573   1.687   1.861 -0.1440 -0.8408 -0.7034
  970SOL     MW 3880   1.656   1.679   1.833  0.2644 -0.3077 -0.0468
  971SOL     OW 3881   1.884   0.108   2.389  0.2147 -0.5067 -0.5700
  971SOL    HW1 3882   1.890   0.037   2.316  2.0792 -2.1482 -2.5039
  971SOL    HW2 3883   1.961   0.166   2.386 -1.0452 -1.7547 -1.5722
  971SOL     MW 3884   1.895   0.106   2.379  0.2944 -0.8880 -0.9574
  972SOL     OW 3885   0.246   2.817   2.538 -0.1948 -0.2606  0.0485
  972SOL    HW1 3886   0.301   2.743   2.494  0.1951  0.3451 -2.3413
  972SOL    HW2 3887   0.320   2.877   2.515  4.0842 -1.6881  1.7171
  972SOL     MW 3888   0.263   2.815   2.529  0.4212 -0.3691 -0.0467
  973SOL     OW 3889   2.650   3.056   2.119 -0.4343 -0.0214 -0.1800
  973SOL    HW1 3890   2.614   2.976   2.076  3.4502 -1.1787 -2.2494
  973SOL    HW2 3891   2.685   3.116   2.049  0.8918  2.2402 -1.9148
  973SOL     MW 3892   2.650   3.053   2.104  0.2532  0.1243 -0.6819
  974SOL     OW 3893   1.987   0.314   2.691  0.8192  0.0101 -0.1617
  974SOL    HW1 3894   1.973   0.243   2.754  1.0117 -0.2148  0.0115
  974SOL    HW2 3895   1.899   0.353   2.681  1.9028 -1.4835  2.3186
  974SOL     MW 3896   1.974   0.310   2.698  0.9876 -0.2167  0.1884
  975SOL     OW 3897   2.329   2.564   2.566 -0.5668  0.2258  0.4973
  975SOL    HW1 3898   2.422   2.588   2.587  1.7572 -0.4829 -2.8790
  975SOL    HW2 3899   2.288   2.652   2.554 -0.8741 -0.7092  0.0167
  975SOL     MW 3900   2.336   2.579   2.567 -0.3008  0.0089 -0.0116
  976SOL     OW 3901   0.284   0.261   1.688 -0.1375 -0.2343  0.2170
  976SOL    HW1 3902   0.332   0.215   1.755  0.8631 -2.2872 -0.4225
  976SOL    HW2 3903   0.200   0.209   1.700 -1.6144 -1.3542  1.0088
  976SOL     MW 3904   0.279   0.248   1.698 -0.2004 -0.6529  0.2371
  977SOL     OW 3905   1.726   2.821   2.461 -0.3177 -0.5227  0.3696
  977SOL    HW1 3906   1.745   2.729   2.469  2.0680  1.7596  1.0081
  977SOL    HW2 3907   1.801   2.872   2.429 -0.4229 -2.1364 -0.5112
  977SOL     MW 3908   1.738   2.816   2.457 -0.0168 -0.4345  0.3376
   3.10000   3.10000   3.10000
