977 TIP4P/2005f water molecules t=   1.73000 step= 1730
 3908
    1SOL     OW    1   0.399   0.781   0.109  0.4031 -0.0559 -0.2175
    1SOL    HW1    2   0.330   0.794   0.049  1.1558  2.1012 -0.0712
    1SOL    HW2    3   0.418   0.689   0.138  0.5886  1.7993  1.6161
    1SOL     MW    4   0.393   0.771   0.105  0.5269  0.4735  0.0437
    2SOL     OW    5   0.312   3.017   1.080 -0.0391  0.2915  0.1222
    2SOL    HW1    6   0.367   3.099   1.084 -0.9231  1.0427  0.7412
    2SOL    HW2    7   0.220   3.042   1.105  1.0625 -0.3051  2.2632
    2SOL     MW    8   0.307   3.031   1.084 -0.0104  0.3119  0.4863
    3SOL     OW    9   2.678   0.334   0.984  0.1912  0.7385 -0.0047
    3SOL    HW1   10   2.709   0.407   0.927 -0.8134 -1.4621  3.1556
    3SOL    HW2   11   2.647   0.377   1.071 -0.0226 -0.9954 -1.1261
    3SOL     MW   12   2.678   0.349   0.988  0.0305  0.2194  0.2643
    4SOL     OW   13   2.946   1.705   0.507 -0.2262 -0.5681  0.1301
    4SOL    HW1   14   2.871   1.771   0.512 -1.1474 -1.0046  0.3933
    4SOL    HW2   15   2.999   1.720   0.428  0.0106  3.3894  0.2020
    4SOL     MW   16   2.943   1.716   0.497 -0.3165 -0.1035  0.1743
    5SOL     OW   17   1.596   1.406   0.619  0.3173 -0.1252 -0.2983
    5SOL    HW1   18   1.637   1.397   0.708  0.8512  1.0316  1.9249
    5SOL    HW2   19   1.509   1.434   0.638  1.2249 -0.6413  3.5652
    5SOL     MW   20   1.590   1.409   0.633  0.5075 -0.0407  0.5048
    6SOL     OW   21   0.780   1.434   0.603  0.6350 -0.3251 -0.0479
    6SOL    HW1   22   0.679   1.439   0.610  0.3159 -2.6965 -3.5501
    6SOL    HW2   23   0.801   1.352   0.652  1.8696  1.7294  0.6513
    6SOL     MW   24   0.769   1.424   0.610  0.7558 -0.3669 -0.4177
    7SOL     OW   25   1.951   1.059   0.010  0.1308 -1.0628  0.0790
    7SOL    HW1   26   1.997   1.128  -0.025  0.4777  0.2011  2.5749
    7SOL    HW2   27   1.975   1.049   0.110  1.3740  0.9727  1.4334
    7SOL     MW   28   1.960   1.067   0.019  0.3406 -0.6275  0.5870
    8SOL     OW   29   0.798   1.460   1.057  0.3592 -0.4020 -0.2825
    8SOL    HW1   30   0.884   1.487   1.066 -0.6418 -1.8137 -1.7007
    8SOL    HW2   31   0.773   1.391   1.123  2.1437  1.5681 -0.3830
    8SOL     MW   32   0.806   1.454   1.067  0.4626 -0.3283 -0.4829
    9SOL     OW   33   0.922   0.519   1.311 -0.0940  0.0996 -0.1069
    9SOL    HW1   34   0.858   0.443   1.285 -0.1258 -1.2269 -3.0329
    9SOL    HW2   35   0.974   0.471   1.374 -0.6619 -0.5711  0.4527
    9SOL     MW   36   0.920   0.502   1.316 -0.1731 -0.1639 -0.4191
   10SOL     OW   37   0.291   0.825   0.485  0.3939 -0.7917 -0.1113
   10SOL    HW1   38   0.377   0.862   0.451 -0.3125  0.3022  0.9283
   10SOL    HW2   39   0.258   0.894   0.549 -3.2982  0.9773 -0.9224
   10SOL     MW   40   0.298   0.839   0.489 -0.1864 -0.4139 -0.0812
   11SOL     OW   41   0.773   1.132   1.487  0.2075  0.1616 -0.5272
   11SOL    HW1   42   0.840   1.150   1.558 -3.8006 -0.0031  2.8982
   11SOL    HW2   43   0.800   1.049   1.437 -0.2358 -1.8682 -1.6037
   11SOL     MW   44   0.786   1.123   1.490 -0.3798 -0.1279 -0.2173
   12SOL     OW   45   0.045   1.079   0.910  0.6071 -0.1659  0.3390
   12SOL    HW1   46   0.083   1.160   0.950  0.1942 -1.2459 -0.0241
   12SOL    HW2   47  -0.021   1.110   0.848 -1.6258  1.0815 -1.2546
   12SOL     MW   48   0.041   1.094   0.907  0.2580 -0.1438  0.0809
   13SOL     OW   49   1.815   1.403   1.306  0.3234 -0.1694 -0.5258
   13SOL    HW1   50   1.833   1.320   1.263 -3.7440  0.2958 -0.6911
   13SOL    HW2   51   1.892   1.459   1.298  1.9727 -1.9064  1.7612
   13SOL     MW   52   1.828   1.400   1.299  0.0044 -0.3372 -0.2459
   14SOL     OW   53   0.558   0.325   1.797  0.9354 -0.1544  0.7987
   14SOL    HW1   54   0.497   0.254   1.778 -0.7535 -1.5595  0.6190
   14SOL    HW2   55   0.635   0.310   1.744 -1.0764 -0.8861  1.2107
   14SOL     MW   56   0.560   0.314   1.788  0.4471 -0.4363  0.8293
   15SOL     OW   57   2.005   0.424   0.985  0.2796  0.3889 -0.2633
   15SOL    HW1   58   2.021   0.508   1.031  0.2621  0.9141 -2.0273
   15SOL    HW2   59   2.040   0.449   0.901 -0.2652  0.4463  1.9410
   15SOL     MW   60   2.012   0.438   0.980  0.2054  0.4658 -0.2052
   16SOL     OW   61   0.264   1.815   0.281  0.1052 -0.1534 -0.2360
   16SOL    HW1   62   0.348   1.774   0.299 -1.7726  2.8010  0.1471
   16SOL    HW2   63   0.286   1.903   0.309  0.5395 -0.1675 -0.5352
   16SOL     MW   64   0.278   1.821   0.287 -0.0853  0.2346 -0.2249
   17SOL     OW   65   1.123   0.855   1.414 -0.2430 -0.2458 -0.2062
   17SOL    HW1   66   1.133   0.865   1.512 -0.3627 -1.0752 -0.7242
   17SOL    HW2   67   1.026   0.869   1.390  0.4062 -1.1218  0.9120
   17SOL     MW   68   1.112   0.858   1.423 -0.1731 -0.4708 -0.1270
   18SOL     OW   69   0.050   1.646   0.338 -0.5737  0.0608  0.5559
   18SOL    HW1   70   0.116   1.714   0.312 -1.0047 -0.1720 -0.5401
   18SOL    HW2   71   0.011   1.598   0.267 -2.1222 -0.5993  1.0362
   18SOL     MW   72   0.054   1.648   0.325 -0.8349 -0.0570  0.4747
   19SOL     OW   73   0.109   1.332   0.979  0.2405  0.7236 -0.0228
   19SOL    HW1   74   0.134   1.396   0.915 -0.6196  1.4395  0.9726
   19SOL    HW2   75   0.013   1.324   0.968 -1.4412 -1.2143  3.8836
   19SOL     MW   76   0.099   1.339   0.969 -0.0949  0.5624  0.6239
   20SOL     OW   77   0.439   2.114   1.259  0.4647  0.2698 -0.0086
   20SOL    HW1   78   0.397   2.031   1.233  0.4172  1.1865 -2.0834
   20SOL    HW2   79   0.384   2.148   1.335 -0.8943 -1.8813  1.9313
   20SOL     MW   80   0.426   2.108   1.266  0.2791  0.1070 -0.0264
   21SOL     OW   81   0.558   0.889   0.412 -0.1683  0.4413  0.2178
   21SOL    HW1   82   0.628   0.877   0.470  2.6754 -3.5105  0.8002
   21SOL    HW2   83   0.592   0.903   0.321 -0.3850  2.7436  0.8694
   21SOL     MW   84   0.571   0.889   0.408  0.1783  0.2237  0.3806
   22SOL     OW   85   1.550   0.709   1.025 -0.2654 -0.0448  0.0751
   22SOL    HW1   86   1.550   0.678   0.937  2.5392  2.8508  0.0788
   22SOL    HW2   87   1.467   0.760   1.022  2.3122  1.2506 -0.5905
   22SOL     MW   88   1.539   0.712   1.013  0.4447  0.5082 -0.0123
   23SOL     OW   89   3.047   0.813   0.743  0.4202 -0.2219  0.0711
   23SOL    HW1   90   3.103   0.743   0.786 -1.9345 -1.1786  1.9192
   23SOL    HW2   91   3.114   0.880   0.734 -0.4134  1.7933 -2.2545
   23SOL     MW   92   3.064   0.813   0.748 -0.0004 -0.0822  0.0081
   24SOL     OW   93   2.077   2.163   0.076  0.1235 -0.9138  0.2854
   24SOL    HW1   94   2.011   2.157   0.147 -2.0324 -0.6720  0.5396
   24SOL    HW2   95   2.083   2.068   0.052 -3.2601 -0.7724 -1.3966
   24SOL     MW   96   2.069   2.149   0.082 -0.6074 -0.8633  0.0970
   25SOL     OW   97   0.213   1.439   0.418  0.3385  0.0352 -0.0186
   25SOL    HW1   98   0.162   1.526   0.424  1.7792 -2.9024  0.1781
   25SOL    HW2   99   0.246   1.436   0.330  0.6594 -0.4396 -1.6444
   25SOL     MW  100   0.211   1.450   0.407  0.5709 -0.4150 -0.2072
   26SOL     OW  101   2.003   1.065   0.274  0.4712  0.1908 -0.3875
   26SOL    HW1  102   1.978   1.107   0.358 -0.9721 -2.7661  0.6501
   26SOL    HW2  103   2.095   1.093   0.250 -0.1262  1.6044 -1.4957
   26SOL     MW  104   2.012   1.074   0.282  0.2019 -0.0128 -0.3968
   27SOL     OW  105   1.854   1.366   0.115 -0.0481 -0.1274  0.0691
   27SOL    HW1  106   1.824   1.455   0.138 -0.2458  0.5351 -0.5186
   27SOL    HW2  107   1.908   1.353   0.191 -0.7633  0.3379 -0.9454
   27SOL     MW  108   1.857   1.376   0.128 -0.1686  0.0214 -0.1423
   28SOL     OW  109   0.417   0.932   2.045  0.4055  0.1288  0.5566
   28SOL    HW1  110   0.460   0.927   2.132  1.6748 -0.5383  2.8730
   28SOL    HW2  111   0.328   0.899   2.071 -1.4103  0.6228  1.1205
   28SOL     MW  112   0.411   0.927   2.060  0.3334  0.1059  0.9366
   29SOL     OW  113   0.178   1.435   0.734 -0.5390 -0.3331 -0.3942
   29SOL    HW1  114   0.217   1.528   0.732 -1.0895 -0.2578 -1.0128
   29SOL    HW2  115   0.148   1.419   0.646 -3.2820  2.3397 -0.0801
   29SOL     MW  116   0.179   1.445   0.722 -0.9736  0.0294 -0.4344
   30SOL     OW  117   0.716   1.276   1.233  0.6188  0.2713  0.3989
   30SOL    HW1  118   0.631   1.244   1.267  2.2385 -1.3396  0.5443
   30SOL    HW2  119   0.778   1.257   1.305 -1.0445  1.5524 -1.8580
   30SOL     MW  120   0.713   1.270   1.247  0.6131  0.2278  0.1204
   31SOL     OW  121   0.509   0.265   0.224 -0.1834 -0.9592  0.0701
   31SOL    HW1  122   0.530   0.189   0.284  0.7978 -0.7601 -1.5970
   31SOL    HW2  123   0.521   0.223   0.137  1.5570  1.9626  1.5244
   31SOL     MW  124   0.513   0.250   0.220  0.1757 -0.5474  0.0420
   32SOL     OW  125   2.708   0.960   1.070 -0.0158  0.5813 -0.1248
   32SOL    HW1  126   2.644   0.885   1.091 -1.5008 -3.3669  1.6671
   32SOL    HW2  127   2.799   0.929   1.080  2.1159  0.4917 -0.6774
   32SOL     MW  128   2.711   0.946   1.074  0.0696  0.0486  0.0387
   33SOL     OW  129   1.611   1.240   0.407 -0.5519  0.1361  0.0447
   33SOL    HW1  130   1.671   1.188   0.456  1.3503 -0.8911 -0.9239
   33SOL    HW2  131   1.592   1.314   0.463 -1.0765  0.3546  0.2382
   33SOL     MW  132   1.616   1.243   0.421 -0.3701  0.0294 -0.0576
   34SOL     OW  133   1.158   1.982   1.149 -0.5370 -0.2592  0.0960
   34SOL    HW1  134   1.074   1.986   1.191  2.3910 -0.3101  1.5940
   34SOL    HW2  135   1.229   1.991   1.214 -2.0756 -1.2362 -2.8270
   34SOL     MW  136   1.156   1.984   1.163 -0.3537 -0.3948 -0.0920
   35SOL     OW  137   0.353   0.142   1.741 -0.5693 -0.2998 -1.0818
   35SOL    HW1  138   0.366   0.088   1.820  2.0018 -0.9114 -0.6893
   35SOL    HW2  139   0.330   0.083   1.666  0.4237 -0.7658 -4.1033
   35SOL     MW  140   0.352   0.127   1.742 -0.0991 -0.4420 -1.4287
   36SOL     OW  141   1.922   1.983   0.603 -0.4360  0.3975  0.0750
   36SOL    HW1  142   1.891   1.988   0.513  4.3657  0.5642  0.2107
   36SOL    HW2  143   1.958   1.896   0.628  1.8550  0.0354  0.1445
   36SOL     MW  144   1.922   1.972   0.594  0.4998  0.3717  0.1021
   37SOL     OW  145   1.800   2.089   0.998 -0.3401  0.0587 -0.1775
   37SOL    HW1  146   1.724   2.058   0.949 -0.6264 -1.6135 -1.3448
   37SOL    HW2  147   1.760   2.119   1.076 -0.5456 -0.6262 -2.7662
   37SOL     MW  148   1.785   2.089   1.002 -0.4050 -0.2523 -0.6731
   38SOL     OW  149   2.798   0.962   0.041 -0.1840  0.0464 -0.5013
   38SOL    HW1  150   2.843   0.977   0.125 -1.7278 -0.0927 -1.1546
   38SOL    HW2  151   2.872   0.942  -0.025  2.8827 -0.7295 -0.5559
   38SOL     MW  152   2.814   0.961   0.043  0.0169 -0.0743 -0.5947
   39SOL     OW  153   1.525   0.666   0.744 -0.4914  0.0764 -0.6400
   39SOL    HW1  154   1.496   0.574   0.770  1.3170  0.1973  3.1822
   39SOL    HW2  155   1.448   0.718   0.739  1.4958  0.0618 -0.2507
   39SOL     MW  156   1.511   0.661   0.747  0.0094  0.0905 -0.0844
   40SOL     OW  157   1.253   1.884   0.238  0.0343 -0.1587  0.0240
   40SOL    HW1  158   1.330   1.847   0.286 -0.5790 -0.1621  1.9330
   40SOL    HW2  159   1.219   1.944   0.309 -0.6912 -1.7227  1.4154
   40SOL     MW  160   1.259   1.887   0.254 -0.1423 -0.3655  0.4595
   41SOL     OW  161   0.500   0.544   1.529  0.2583 -1.2907  0.5186
   41SOL    HW1  162   0.588   0.591   1.521  3.3172  1.8620 -1.8779
   41SOL    HW2  163   0.421   0.601   1.505  1.7621  1.9545  1.6933
   41SOL     MW  164   0.501   0.558   1.525  0.8603 -0.4466  0.3574
   42SOL     OW  165   1.220   2.924   1.992  0.2589 -0.5499  0.4637
   42SOL    HW1  166   1.131   2.914   2.029 -3.0470 -2.8866 -1.5716
   42SOL    HW2  167   1.283   2.869   2.038  1.5460 -2.2390 -2.4770
   42SOL     MW  168   1.217   2.916   2.003 -0.0074 -1.0811 -0.1928
   43SOL     OW  169   1.409   0.098   1.693 -0.1293  0.0593  0.4713
   43SOL    HW1  170   1.485   0.061   1.638 -0.9949 -3.1046 -1.4762
   43SOL    HW2  171   1.346   0.021   1.715 -0.5828 -0.1743 -1.5446
   43SOL     MW  172   1.411   0.083   1.689 -0.3033 -0.3889 -0.0517
   44SOL     OW  173   1.233   0.815   1.011 -0.1356  0.4702 -0.7129
   44SOL    HW1  174   1.195   0.901   0.996 -1.3444 -0.1058 -2.0368
   44SOL    HW2  175   1.174   0.782   1.082 -0.9598  1.8214 -1.6379
   44SOL     MW  176   1.221   0.822   1.018 -0.4038  0.5725 -1.0097
   45SOL     OW  177   1.304   0.837   0.723  0.0841 -0.6221  0.0207
   45SOL    HW1  178   1.265   0.850   0.808  2.3242  2.0502  0.3780
   45SOL    HW2  179   1.246   0.787   0.662  0.3751 -2.1372 -1.9778
   45SOL     MW  180   1.291   0.832   0.726  0.4180 -0.4694 -0.1959
   46SOL     OW  181   0.437   1.130   0.661 -0.1389 -0.1374  0.4690
   46SOL    HW1  182   0.476   1.154   0.574  0.1002 -1.9889 -0.3241
   46SOL    HW2  183   0.428   1.215   0.702 -3.0675  0.2932 -2.1894
   46SOL     MW  184   0.441   1.144   0.655 -0.4938 -0.3248  0.0136
   47SOL     OW  185   0.095   2.011   1.906 -0.0597 -0.6640  0.7704
   47SOL    HW1  186   0.085   1.933   1.848  0.6709  0.8940  1.1057
   47SOL    HW2  187   0.117   1.974   1.988  1.4453  0.6798 -3.3918
   47SOL     MW  188   0.097   1.996   1.909  0.2353 -0.2812  0.2655
   48SOL     OW  189   1.216   0.502   1.004  0.0691 -0.1156  0.0862
   48SOL    HW1  190   1.197   0.453   0.926 -0.2359  2.4177 -1.4716
   48SOL    HW2  191   1.164   0.581   1.013 -0.3633 -0.0469 -1.9561
   48SOL     MW  192   1.207   0.506   0.995 -0.0282  0.2277 -0.3888
   49SOL     OW  193   1.684   0.694   1.568 -0.0848  0.3685 -0.3962
   49SOL    HW1  194   1.738   0.650   1.632 -0.3736  1.8889  0.5984
   49SOL    HW2  195   1.737   0.676   1.492 -0.1282  0.2599  0.8181
   49SOL     MW  196   1.698   0.686   1.566 -0.1286  0.5548 -0.1047
   50SOL     OW  197   1.308   1.213   0.621  0.2103  0.0703  0.2920
   50SOL    HW1  198   1.230   1.226   0.690  1.0153  0.2975  2.0825
   50SOL    HW2  199   1.375   1.148   0.665  1.5525 -1.3792  0.7141
   50SOL     MW  200   1.307   1.206   0.636  0.4936 -0.0910  0.5839
   51SOL     OW  201   0.336   2.898   0.853  0.4424 -0.0433  0.1260
   51SOL    HW1  202   0.424   2.862   0.860  0.0140  2.2102  3.9193
   51SOL    HW2  203   0.323   2.943   0.940  2.8554 -2.0791 -1.4475
   51SOL     MW  204   0.346   2.899   0.866  0.7042 -0.0146  0.4189
   52SOL     OW  205   0.788   1.823   0.483  0.1123  0.3076  0.0934
   52SOL    HW1  206   0.761   1.916   0.497  0.3012  1.8964 -1.2501
   52SOL    HW2  207   0.824   1.811   0.395 -1.2698 -2.6396  0.9033
   52SOL     MW  208   0.789   1.834   0.473 -0.0451  0.1284  0.0230
   53SOL     OW  209   0.488   2.136   0.592 -0.5933 -0.3718 -0.0076
   53SOL    HW1  210   0.430   2.108   0.514  1.1501  1.1021 -1.7580
   53SOL    HW2  211   0.449   2.218   0.608  0.3402 -0.5305 -1.2334
   53SOL     MW  212   0.475   2.143   0.584 -0.2401 -0.1983 -0.4003
   54SOL     OW  213   2.033   0.972   0.743 -0.4566 -0.2711 -0.2443
   54SOL    HW1  214   2.083   0.957   0.664  1.2746 -1.4757  1.6804
   54SOL    HW2  215   2.029   0.886   0.783 -0.7692  2.2896  2.0110
   54SOL     MW  216   2.039   0.959   0.738 -0.2694 -0.0922  0.3072
   55SOL     OW  217   0.435   1.529   1.721 -0.1069  0.3960  0.0445
   55SOL    HW1  218   0.376   1.562   1.653  0.0408  0.5732 -0.3578
   55SOL    HW2  219   0.515   1.504   1.667  0.4377  0.7250  1.7616
   55SOL     MW  220   0.438   1.530   1.705 -0.0156  0.4628  0.2179
   56SOL     OW  221   0.636   0.916   0.135 -0.7366 -0.5373 -0.1560
   56SOL    HW1  222   0.651   1.009   0.120 -0.2717 -1.5987 -3.9101
   56SOL    HW2  223   0.549   0.876   0.113 -0.3010 -0.8452  2.1536
   56SOL     MW  224   0.627   0.923   0.130 -0.6178 -0.7180 -0.3466
   57SOL     OW  225   1.095   1.283   1.146  0.0243 -0.0113 -0.2130
   57SOL    HW1  226   1.178   1.328   1.176 -0.4977 -0.1130 -1.3147
   57SOL    HW2  227   1.069   1.236   1.233  0.8155  0.4372  0.5409
   57SOL     MW  228   1.103   1.283   1.162  0.0598  0.0344 -0.2589
   58SOL     OW  229   0.449   1.275   1.299 -0.6174  0.4882 -0.0387
   58SOL    HW1  230   0.422   1.369   1.298 -3.0646 -0.2997 -0.3486
   58SOL    HW2  231   0.449   1.254   1.395 -0.4600 -0.0258 -1.9765
   58SOL     MW  232   0.445   1.285   1.311 -0.9195  0.3165 -0.3353
   59SOL     OW  233   1.437   1.682   0.384 -0.0644  0.1102 -0.4057
   59SOL    HW1  234   1.504   1.710   0.439 -0.2206 -1.7683 -2.0797
   59SOL    HW2  235   1.354   1.674   0.441 -2.2577  1.0904  2.9746
   59SOL     MW  236   1.435   1.685   0.399 -0.3744 -0.0083 -0.1806
   60SOL     OW  237   3.097   0.188   1.636 -0.1620  0.2251  0.2226
   60SOL    HW1  238   3.018   0.231   1.660  0.5984 -1.0495  0.5317
   60SOL    HW2  239   3.123   0.146   1.724 -0.5812 -0.3151  2.7413
   60SOL     MW  240   3.090   0.188   1.651 -0.1170 -0.0143  0.5957
   61SOL     OW  241   1.963   1.341   2.979  0.6577  0.0565 -0.2250
   61SOL    HW1  242   1.932   1.331   3.072  0.6609 -1.1991 -1.8131
   61SOL    HW2  243   2.040   1.279   2.970 -1.4640 -1.2138 -2.3139
   61SOL     MW  244   1.969   1.332   2.990  0.3782 -0.2767 -0.7101
   62SOL     OW  245   0.580   1.709   0.664 -0.4322  0.0453  0.3179
   62SOL    HW1  246   0.674   1.719   0.660 -0.7930  1.8936 -0.5476
   62SOL    HW2  247   0.559   1.617   0.666 -0.5252 -0.0785 -1.5647
   62SOL     MW  248   0.589   1.698   0.664 -0.4921  0.2728 -0.0447
   63SOL     OW  249   1.730   0.715   0.606  0.3187  0.2496 -0.6754
   63SOL    HW1  250   1.699   0.794   0.554  1.0458 -0.1010 -3.2495
   63SOL    HW2  251   1.650   0.698   0.665  0.7436 -0.4844 -0.3132
   63SOL     MW  252   1.716   0.723   0.607  0.4707  0.1065 -0.9672
   64SOL     OW  253   0.278   1.685   0.697  0.1626  0.5475 -0.3979
   64SOL    HW1  254   0.327   1.766   0.683 -0.5914  0.8767 -1.3415
   64SOL    HW2  255   0.198   1.731   0.720 -2.9775  1.4524 -0.3481
   64SOL     MW  256   0.274   1.702   0.698 -0.3512  0.7103 -0.5158
   65SOL     OW  257   1.488   2.292   0.390  0.0776  0.2478  0.3544
   65SOL    HW1  258   1.579   2.314   0.399 -0.9463 -0.6049 -1.3632
   65SOL    HW2  259   1.432   2.356   0.446 -2.8513 -1.5471 -0.2828
   65SOL     MW  260   1.492   2.304   0.399 -0.4439 -0.1015  0.0437
   66SOL     OW  261   0.385   0.589   0.516 -0.3721 -0.2293  0.4739
   66SOL    HW1  262   0.446   0.591   0.440  2.4778  0.1218  0.7868
   66SOL    HW2  263   0.348   0.674   0.506  0.9500 -1.5260  1.8185
   66SOL     MW  264   0.388   0.600   0.505  0.1783 -0.3541  0.6926
   67SOL     OW  265   1.416   0.059   1.968 -0.5073  0.2613 -0.3126
   67SOL    HW1  266   1.450   0.068   1.879 -2.6641  1.4547 -2.1621
   67SOL    HW2  267   1.348  -0.013   1.967 -2.4125 -0.5745  1.0825
   67SOL     MW  268   1.411   0.051   1.956 -1.0432  0.3085 -0.3726
   68SOL     OW  269   0.760   0.079   2.935  0.1850  0.5113 -0.5940
   68SOL    HW1  270   0.754   0.123   2.850 -2.7009 -4.2336 -0.5392
   68SOL    HW2  271   0.837   0.118   2.981  1.7232  2.8482  0.3515
   68SOL     MW  272   0.770   0.090   2.930  0.0072  0.1935 -0.4620
   69SOL     OW  273   1.090   0.279   1.955 -0.2293  0.4976  0.4361
   69SOL    HW1  274   1.183   0.298   1.984  2.0115  3.7012  0.1528
   69SOL    HW2  275   1.053   0.249   2.036  0.3336  1.2710  0.3212
   69SOL     MW  276   1.098   0.278   1.969  0.1406  1.0223  0.3836
   70SOL     OW  277   0.513   1.734   1.106  0.4057 -0.1345  0.0326
   70SOL    HW1  278   0.581   1.800   1.118  0.4005  2.1539  2.7141
   70SOL    HW2  279   0.550   1.693   1.025  2.6086  1.5813  0.2059
   70SOL     MW  280   0.527   1.737   1.097  0.6957  0.3938  0.4092
   71SOL     OW  281   1.543   0.558   1.277  0.1152  0.3035  0.1893
   71SOL    HW1  282   1.483   0.624   1.331  0.5374  1.0412  1.8131
   71SOL    HW2  283   1.536   0.583   1.186  1.1907  1.6124  0.0652
   71SOL     MW  284   1.534   0.570   1.272  0.3128  0.5735  0.3872
   72SOL     OW  285   0.798   1.821   1.004 -0.4732 -0.3979  0.3621
   72SOL    HW1  286   0.782   1.911   0.967  2.1743  0.4511 -0.3663
   72SOL    HW2  287   0.841   1.762   0.939 -0.9013 -1.2226 -0.1435
   72SOL     MW  288   0.801   1.825   0.991 -0.1803 -0.3947  0.1993
   73SOL     OW  289   1.119   0.697   1.211 -0.1738  0.2311 -0.8307
   73SOL    HW1  290   1.047   0.632   1.232 -1.0281  4.8056  1.2991
   73SOL    HW2  291   1.118   0.763   1.288 -1.9013 -0.3066  2.2350
   73SOL     MW  292   1.109   0.697   1.224 -0.5144  0.7637 -0.1452
   74SOL     OW  293   2.772   0.083   0.976  0.2476 -0.4575 -0.1406
   74SOL    HW1  294   2.860   0.059   0.952 -1.0653 -1.6826 -0.3403
   74SOL    HW2  295   2.773   0.176   0.965  1.7444 -2.2136  1.5455
   74SOL     MW  296   2.783   0.092   0.971  0.2719 -0.8508  0.0555
   75SOL     OW  297   1.515   1.338   0.171 -0.1337 -0.7642  0.7255
   75SOL    HW1  298   1.581   1.288   0.121  0.0119  0.5830 -1.3505
   75SOL    HW2  299   1.547   1.331   0.265  1.4044 -2.1347 -0.6498
   75SOL     MW  300   1.528   1.330   0.177  0.0884 -0.7673  0.2701
   76SOL     OW  301   3.031   0.690   0.466  0.0319 -0.0330 -1.2002
   76SOL    HW1  302   3.052   0.731   0.556  1.2011  1.4556  0.7301
   76SOL    HW2  303   3.108   0.636   0.453 -1.8152  0.9097 -1.3172
   76SOL     MW  304   3.044   0.688   0.477 -0.0576  0.2878 -0.9610
   77SOL     OW  305   0.832   0.620   0.445  0.1859  0.1126 -0.5704
   77SOL    HW1  306   0.837   0.637   0.349  2.5353  0.9383 -0.3903
   77SOL    HW2  307   0.803   0.525   0.451 -0.5163 -0.5071  1.7349
   77SOL     MW  308   0.829   0.610   0.433  0.4032  0.1398 -0.2425
   78SOL     OW  309   0.778   0.868   1.086  0.2768 -0.2488 -0.0844
   78SOL    HW1  310   0.786   0.947   1.040 -0.4610  0.6731  1.1968
   78SOL    HW2  311   0.684   0.857   1.107  1.2050 -1.5303 -1.7553
   78SOL     MW  312   0.767   0.877   1.083  0.3019 -0.2962 -0.1358
   79SOL     OW  313   1.851   1.501   0.538  0.3098  0.1169  0.0380
   79SOL    HW1  314   1.762   1.478   0.566 -0.7546 -0.8806  0.5906
   79SOL    HW2  315   1.893   1.509   0.625 -2.2894  1.0250 -1.5136
   79SOL     MW  316   1.845   1.499   0.554 -0.1736  0.1051 -0.0938
   80SOL     OW  317   0.171   0.976   0.293  0.6595 -0.3007 -0.1974
   80SOL    HW1  318   0.138   0.922   0.221  1.4890 -2.3933 -1.7764
   80SOL    HW2  319   0.198   0.908   0.356  0.0382  0.7610 -0.0921
   80SOL     MW  320   0.170   0.960   0.292  0.6870 -0.4367 -0.3918
   81SOL     OW  321   1.837   1.881   0.363  0.5245  0.0844  0.2797
   81SOL    HW1  322   1.821   1.797   0.324  0.9448  3.5565 -1.8847
   81SOL    HW2  323   1.797   1.942   0.290  0.3320  0.2370 -2.6965
   81SOL     MW  324   1.830   1.878   0.348  0.5546  0.5626 -0.3985
   82SOL     OW  325   0.966   1.039   0.557 -0.0213 -0.1793 -0.1112
   82SOL    HW1  326   0.915   1.083   0.488  0.4635  0.8218 -0.6240
   82SOL    HW2  327   0.919   0.958   0.563 -1.7218  2.7003  1.1604
   82SOL     MW  328   0.953   1.034   0.549 -0.1817  0.3327 -0.0111
   83SOL     OW  329   0.030   0.746   1.574 -0.1870  0.0985 -0.0857
   83SOL    HW1  330   0.025   0.809   1.487 -0.8801 -1.2213 -0.3471
   83SOL    HW2  331   0.105   0.682   1.554  1.5335 -0.6964  2.9660
   83SOL     MW  332   0.040   0.746   1.560 -0.0515 -0.1805  0.2824
   84SOL     OW  333   0.025   0.176   0.931 -0.4786  0.2785 -0.2533
   84SOL    HW1  334   0.002   0.263   0.964 -1.6318 -0.5168 -0.7797
   84SOL    HW2  335   0.033   0.099   0.993  0.3624  2.1703 -1.7134
   84SOL     MW  336   0.023   0.177   0.944 -0.5198  0.4231 -0.5154
   85SOL     OW  337   0.332   0.497   0.776  0.2517  0.0518  0.1038
   85SOL    HW1  338   0.347   0.505   0.683  0.9225 -0.3577  1.1982
   85SOL    HW2  339   0.335   0.401   0.789  0.0362  2.3279  0.1461
   85SOL     MW  340   0.334   0.485   0.765  0.3117  0.2981  0.2538
   86SOL     OW  341   1.251   0.276   1.161  1.0779  0.5773  0.3427
   86SOL    HW1  342   1.238   0.365   1.127  1.0632 -1.3410 -0.4107
   86SOL    HW2  343   1.344   0.266   1.183 -0.2150 -0.6659  1.6896
   86SOL     MW  344   1.262   0.286   1.160  0.9054  0.1602  0.4210
   87SOL     OW  345   1.032   1.545   1.169 -0.4705  0.2638  0.0509
   87SOL    HW1  346   1.107   1.579   1.119  1.5170  1.0894  0.4331
   87SOL    HW2  347   1.046   1.451   1.177  1.7507 -1.1691 -3.7429
   87SOL     MW  348   1.044   1.537   1.164  0.0848  0.1837 -0.3992
   88SOL     OW  349   1.177   1.080   0.984 -0.7403  0.0776 -0.3082
   88SOL    HW1  350   1.274   1.095   0.979 -1.0089  0.9382  0.8379
   88SOL    HW2  351   1.150   1.150   1.048 -1.0848  2.4071 -0.5509
   88SOL     MW  352   1.186   1.091   0.992 -0.8212  0.4985 -0.1890
   89SOL     OW  353   1.774   0.689   0.213 -0.1843  0.1163 -0.0440
   89SOL    HW1  354   1.709   0.632   0.255  0.4146 -1.9872 -0.1179
   89SOL    HW2  355   1.843   0.712   0.273  0.5158 -4.6147  0.0929
   89SOL     MW  356   1.774   0.685   0.226 -0.0129 -0.7854 -0.0357
   90SOL     OW  357   0.784   1.224   2.853  0.3193 -0.4052  0.0001
   90SOL    HW1  358   0.841   1.152   2.871 -0.6804  1.6082  0.6977
   90SOL    HW2  359   0.798   1.288   2.923 -2.9672  0.1285 -2.5191
   90SOL     MW  360   0.794   1.223   2.865 -0.2462 -0.0692 -0.2403
   91SOL     OW  361   2.225   0.620   0.490  0.7904  0.1261  0.7821
   91SOL    HW1  362   2.300   0.676   0.454 -1.3094  1.9937  1.0693
   91SOL    HW2  363   2.228   0.536   0.436 -1.0847  0.1890  0.0665
   91SOL     MW  364   2.236   0.616   0.478  0.2659  0.3808  0.7256
   92SOL     OW  365   1.636   0.958   0.511  0.1931 -0.1941 -0.3153
   92SOL    HW1  366   1.589   0.988   0.589 -0.3297 -1.0090 -3.9073
   92SOL    HW2  367   1.590   1.009   0.450 -0.9888 -1.0599  1.1370
   92SOL     MW  368   1.624   0.969   0.514 -0.0318 -0.4159 -0.5976
   93SOL     OW  369   1.074   0.283   0.376  0.4049 -0.6054  0.0903
   93SOL    HW1  370   0.984   0.308   0.377  0.5476  2.1743  1.6205
   93SOL    HW2  371   1.098   0.297   0.282  1.3385 -1.4071 -0.1560
   93SOL     MW  372   1.066   0.288   0.364  0.5469 -0.3444  0.2597
   94SOL     OW  373   1.893   1.380   1.597 -0.6806 -0.5201  0.3785
   94SOL    HW1  374   1.859   1.408   1.511  2.6276 -1.7283  1.6873
   94SOL    HW2  375   1.865   1.286   1.612 -0.5255 -0.6959  2.0152
   94SOL     MW  376   1.885   1.371   1.588 -0.2237 -0.7027  0.7671
   95SOL     OW  377   0.592   1.553   0.921 -0.3325  0.0597 -0.1575
   95SOL    HW1  378   0.667   1.510   0.976 -1.6571 -0.1075 -2.1185
   95SOL    HW2  379   0.534   1.481   0.898  0.3675 -1.5200  2.4535
   95SOL     MW  380   0.594   1.538   0.926 -0.4149 -0.1708 -0.0717
   96SOL     OW  381   1.325   1.860   1.684 -0.4195 -0.3185 -0.0133
   96SOL    HW1  382   1.239   1.851   1.738 -0.9892  1.9353  1.5284
   96SOL    HW2  383   1.315   1.784   1.626  1.4516 -0.0417 -1.0197
   96SOL     MW  384   1.312   1.849   1.683 -0.2478  0.0154  0.0573
   97SOL     OW  385   1.098   1.568   0.834  0.4982  0.2289 -0.1046
   97SOL    HW1  386   1.152   1.635   0.884  1.7943  0.5364 -0.6786
   97SOL    HW2  387   1.004   1.588   0.853 -1.4471 -1.9407  2.8268
   97SOL     MW  388   1.093   1.580   0.843  0.4125 -0.0168  0.2065
   98SOL     OW  389   1.334   1.407   1.204  0.3886  0.1155  0.8412
   98SOL    HW1  390   1.400   1.443   1.262 -1.1999 -2.5360  0.2183
   98SOL    HW2  391   1.379   1.402   1.118  0.2265 -0.2724 -1.6789
   98SOL     MW  392   1.349   1.411   1.201  0.1576 -0.2855  0.4265
   99SOL     OW  393   1.509   0.302   1.341  0.3365  0.1264  0.0003
   99SOL    HW1  394   1.522   0.394   1.310 -1.5655 -2.1197  0.6845
   99SOL    HW2  395   1.467   0.315   1.435 -0.1961  2.1264  0.2658
   99SOL     MW  396   1.506   0.316   1.349  0.0153  0.0939  0.1256
  100SOL     OW  397   1.052   1.151   1.377 -0.1812  0.3822  0.4297
  100SOL    HW1  398   1.106   1.194   1.447  0.0109  1.8134  1.1817
  100SOL    HW2  399   1.077   1.054   1.384  1.9342  0.6978 -2.4271
  100SOL     MW  400   1.062   1.144   1.388  0.1233  0.6126  0.1520
  101SOL     OW  401   0.545   1.224   0.417  0.3150  0.5343  0.3691
  101SOL    HW1  402   0.481   1.205   0.346 -2.3987 -1.9059 -2.2641
  101SOL    HW2  403   0.626   1.176   0.404  1.0383 -0.7236  1.3777
  101SOL     MW  404   0.547   1.215   0.406  0.0524  0.0463  0.1547
  102SOL     OW  405   2.956   0.612   1.106 -0.2402 -0.4404 -0.0775
  102SOL    HW1  406   2.987   0.695   1.085 -0.3254 -2.2707  1.1779
  102SOL    HW2  407   2.906   0.614   1.191  2.5843 -0.5667 -0.0014
  102SOL     MW  408   2.953   0.624   1.115  0.1212 -0.6986  0.0981
  103SOL     OW  409   1.856   0.253   1.779 -0.0081 -0.3542 -0.4189
  103SOL    HW1  410   1.852   0.161   1.760 -1.9957  1.4620  1.2597
  103SOL    HW2  411   1.862   0.254   1.878  0.0692 -0.9410 -0.5283
  103SOL     MW  412   1.856   0.241   1.790 -0.2602 -0.1920 -0.2118
  104SOL     OW  413   0.046   1.539   1.675  0.1350 -0.0483  0.6811
  104SOL    HW1  414   0.100   1.458   1.706 -2.6546  0.3420 -1.8718
  104SOL    HW2  415  -0.045   1.517   1.680  2.2832  0.9162 -0.7944
  104SOL     MW  416   0.041   1.526   1.680  0.0504  0.1304  0.1496
  105SOL     OW  417   0.028   1.228   0.411  0.8486 -0.0315  0.2024
  105SOL    HW1  418   0.083   1.156   0.383  1.3300  1.8264 -0.0885
  105SOL    HW2  419   0.085   1.302   0.391 -2.0349 -0.9084 -0.4099
  105SOL     MW  420   0.043   1.228   0.405  0.5317  0.0979  0.0832
  106SOL     OW  421   0.785   0.281   0.832  0.0713 -0.5814 -0.0215
  106SOL    HW1  422   0.711   0.324   0.880 -1.2486 -0.5599  0.5515
  106SOL    HW2  423   0.847   0.351   0.814  3.0876  0.0181  0.1119
  106SOL     MW  424   0.784   0.296   0.836  0.2951 -0.4994  0.0717
  107SOL     OW  425   0.803   2.211   2.894 -0.5186  0.0652  0.0635
  107SOL    HW1  426   0.708   2.212   2.886 -3.2234 -0.4104 -0.7353
  107SOL    HW2  427   0.821   2.170   2.983 -1.6449  0.2842  0.1948
  107SOL     MW  428   0.793   2.206   2.905 -1.0241  0.0313 -0.0246
  108SOL     OW  429   1.343   1.570   1.630 -0.7329  0.0767  0.0979
  108SOL    HW1  430   1.334   1.550   1.539 -1.7780 -0.0346 -2.2261
  108SOL    HW2  431   1.425   1.516   1.649  1.5402  0.7334 -0.3868
  108SOL     MW  432   1.352   1.560   1.621 -0.5709  0.1486 -0.2727
  109SOL     OW  433   2.035   0.762   0.348  0.0900  0.2729  0.1761
  109SOL    HW1  434   2.038   0.855   0.373 -1.7698 -1.9136 -0.8005
  109SOL    HW2  435   2.083   0.712   0.415  0.7901  1.2416  1.6112
  109SOL     MW  436   2.041   0.768   0.360 -0.0630  0.1123  0.2366
  110SOL     OW  437   0.417   1.940   0.737  0.5057  0.1158 -0.2405
  110SOL    HW1  438   0.484   1.875   0.753  1.4436 -0.5182  0.6015
  110SOL    HW2  439   0.462   2.022   0.706 -2.2041 -1.1624 -0.1596
  110SOL     MW  440   0.432   1.943   0.735  0.2719 -0.1365 -0.1187
  111SOL     OW  441   0.864   0.874   1.349 -0.1579  0.2681 -0.1103
  111SOL    HW1  442   0.830   0.863   1.261  1.2466  0.5555 -0.6134
  111SOL    HW2  443   0.827   0.799   1.390  0.9886  1.6061 -1.0509
  111SOL     MW  444   0.855   0.863   1.343  0.1787  0.4826 -0.3008
  112SOL     OW  445   1.402   1.107   1.602 -0.1184  0.3547  0.3535
  112SOL    HW1  446   1.341   1.178   1.616  0.6968 -0.1982 -0.2237
  112SOL    HW2  447   1.355   1.032   1.641 -0.3326  0.8123  0.0321
  112SOL     MW  448   1.388   1.107   1.609 -0.0391  0.3421  0.2350
  113SOL     OW  449   1.233   3.006   1.727  0.0207 -0.1926 -0.0833
  113SOL    HW1  450   1.185   2.970   1.804  0.6671 -0.4840 -0.2357
  113SOL    HW2  451   1.208   2.950   1.657 -0.5966  0.4878 -0.5977
  113SOL     MW  452   1.223   2.994   1.728  0.0245 -0.1413 -0.1713
  114SOL     OW  453   0.347   2.871   1.766  1.2889 -0.0984  0.0921
  114SOL    HW1  454   0.435   2.927   1.757  1.9118  0.1658 -0.5002
  114SOL    HW2  455   0.302   2.903   1.848  0.3956 -1.4914  1.5564
  114SOL     MW  456   0.352   2.883   1.776  1.2532 -0.2473  0.2072
  115SOL     OW  457   0.547   0.844   1.182  0.9376 -0.2860 -0.2945
  115SOL    HW1  458   0.511   0.758   1.170 -1.1509  0.2740 -0.5634
  115SOL    HW2  459   0.472   0.891   1.231 -2.2821  0.9940 -2.3134
  115SOL     MW  460   0.532   0.839   1.187  0.2373 -0.0432 -0.5963
  116SOL     OW  461   0.701   1.126   0.954 -0.3420 -0.0163  0.4762
  116SOL    HW1  462   0.759   1.131   0.870 -1.7206 -0.7168 -2.5679
  116SOL    HW2  463   0.743   1.187   1.015  0.3377  1.1656  2.1506
  116SOL     MW  464   0.714   1.134   0.951 -0.4342  0.0473  0.2955
  117SOL     OW  465   1.126   1.299   0.803 -0.1659  0.2728 -0.0679
  117SOL    HW1  466   1.126   1.252   0.888 -1.4972 -0.1642  2.7783
  117SOL    HW2  467   1.135   1.402   0.815 -2.2772  0.9981 -1.6179
  117SOL     MW  468   1.127   1.307   0.816 -0.6201  0.3109  0.1031
  118SOL     OW  469   3.062   2.933   1.806  0.7321 -0.3133 -0.1632
  118SOL    HW1  470   3.081   3.011   1.855 -1.4366 -1.3475  2.0494
  118SOL    HW2  471   2.968   2.952   1.786  0.2725  0.6094 -0.5681
  118SOL     MW  472   3.052   2.946   1.810  0.3853 -0.3280  0.0753
  119SOL     OW  473   0.370   1.545   1.256 -0.0456  0.0886  0.6462
  119SOL    HW1  474   0.416   1.626   1.222  1.0449 -1.2573  2.6483
  119SOL    HW2  475   0.283   1.536   1.216  0.0186 -0.9921  2.6028
  119SOL     MW  476   0.365   1.555   1.246  0.1067 -0.2316  1.1685
  120SOL     OW  477   0.272   0.830   0.993  0.0110  0.1955 -0.0650
  120SOL    HW1  478   0.248   0.917   1.023 -1.3211  0.2172 -2.2811
  120SOL    HW2  479   0.347   0.839   0.934 -0.5987  0.1316 -1.2137
  120SOL     MW  480   0.279   0.843   0.989 -0.2452  0.1899 -0.5089
  121SOL     OW  481   1.780   1.121   1.610  0.3209 -0.2441 -0.1794
  121SOL    HW1  482   1.720   1.128   1.535 -1.4031 -0.4450  0.8726
  121SOL    HW2  483   1.842   1.058   1.579  2.7643  1.9901  0.8588
  121SOL     MW  484   1.781   1.113   1.596  0.4158  0.0242  0.0964
  122SOL     OW  485   0.105   0.652   0.857  0.4470  0.6724  0.8012
  122SOL    HW1  486   0.176   0.600   0.822  0.4372  1.4865 -0.2577
  122SOL    HW2  487   0.138   0.721   0.911 -1.9153  0.7942 -2.5812
  122SOL     MW  488   0.119   0.655   0.860  0.1340  0.7959  0.2152
  123SOL     OW  489   1.869   1.099   0.531 -0.1001  0.1388  0.4360
  123SOL    HW1  490   1.794   1.036   0.529  0.9404 -1.7202 -1.0364
  123SOL    HW2  491   1.919   1.081   0.610  1.3413  0.8001 -2.0540
  123SOL     MW  492   1.865   1.089   0.541  0.2273 -0.0192 -0.0868
  124SOL     OW  493   0.609   0.461   0.947 -0.0262  0.6121 -0.3269
  124SOL    HW1  494   0.529   0.495   0.906 -0.7985  0.1692 -1.7484
  124SOL    HW2  495   0.671   0.529   0.915  0.8049 -0.9383 -2.0988
  124SOL     MW  496   0.607   0.474   0.937 -0.0184  0.3491 -0.7483
  125SOL     OW  497   0.679   1.701   1.755 -0.2386 -0.3121 -0.5276
  125SOL    HW1  498   0.694   1.663   1.668 -1.3834 -1.3297 -1.1956
  125SOL    HW2  499   0.623   1.779   1.738  1.2334 -3.3100 -2.9289
  125SOL     MW  500   0.673   1.706   1.741 -0.1954 -0.8419 -0.9326
  126SOL     OW  501   2.119   1.543   1.913 -0.3078  0.0357  0.3758
  126SOL    HW1  502   2.179   1.615   1.923 -1.4168 -0.5109 -1.1406
  126SOL    HW2  503   2.178   1.471   1.928 -1.3250 -0.4690 -1.2501
  126SOL     MW  504   2.135   1.543   1.916 -0.5883 -0.1030 -0.0388
  127SOL     OW  505   0.519   0.782   1.810 -0.5280 -0.3090 -0.0327
  127SOL    HW1  506   0.612   0.754   1.838 -1.5341 -1.7719  1.2836
  127SOL    HW2  507   0.485   0.830   1.883 -1.1563 -0.1035  3.5684
  127SOL     MW  508   0.527   0.784   1.823 -0.7437 -0.4749  0.6161
  128SOL     OW  509   1.736   0.731   2.888 -0.6095  0.7716 -0.0151
  128SOL    HW1  510   1.762   0.729   2.798  1.3523 -0.1116 -1.3859
  128SOL    HW2  511   1.737   0.822   2.913  1.7872  1.7228 -1.0450
  128SOL     MW  512   1.740   0.743   2.879 -0.0344  0.7806 -0.3319
  129SOL     OW  513   1.567   0.859   0.185 -0.1987 -0.0737 -0.0369
  129SOL    HW1  514   1.507   0.796   0.148  0.7466  0.2397 -3.5318
  129SOL    HW2  515   1.645   0.809   0.203  1.2977 -0.5853  0.0496
  129SOL     MW  516   1.569   0.844   0.182  0.1234 -0.0998 -0.4866
  130SOL     OW  517   0.830   1.467   0.342 -0.2652 -0.2135  0.7960
  130SOL    HW1  518   0.811   1.468   0.434 -2.4226  2.6580 -1.7701
  130SOL    HW2  519   0.927   1.476   0.343  3.6123 -0.5383 -0.3163
  130SOL     MW  520   0.840   1.468   0.354 -0.0382  0.1225  0.3107
  131SOL     OW  521   0.070   0.802   0.120  0.0806 -0.1138  0.6316
  131SOL    HW1  522   0.021   0.835   0.048 -0.0858  0.7951 -1.6573
  131SOL    HW2  523   0.125   0.732   0.085 -0.2233 -0.7043 -0.5631
  131SOL     MW  524   0.071   0.797   0.106  0.0185 -0.0718  0.1720
  132SOL     OW  525   2.744   0.085   1.244 -0.5319 -0.0913 -0.0288
  132SOL    HW1  526   2.766   0.093   1.153  1.9132  2.0425  0.3903
  132SOL    HW2  527   2.651   0.061   1.261 -2.2110 -0.8591 -1.1207
  132SOL     MW  528   2.735   0.083   1.234 -0.4308  0.0889 -0.1176
  133SOL     OW  529   1.028   0.118   1.683  0.2373 -0.4219  0.7594
  133SOL    HW1  530   1.095   0.047   1.687 -0.5436 -0.4173  1.2524
  133SOL    HW2  531   1.025   0.158   1.767 -1.1935  0.0223  1.7716
  133SOL     MW  532   1.036   0.114   1.694 -0.0545 -0.3627  0.9580
  134SOL     OW  533   1.400   2.479   1.450 -0.1037 -0.0009 -0.1160
  134SOL    HW1  534   1.359   2.566   1.434 -2.1461  2.0991  1.2427
  134SOL    HW2  535   1.456   2.488   1.523 -0.8805  0.6896 -4.2470
  134SOL     MW  536   1.402   2.491   1.458 -0.4757  0.3673 -0.4818
  135SOL     OW  537   3.023   0.981   2.962  0.0002  0.0384  0.2021
  135SOL    HW1  538   3.117   1.014   2.954 -0.6064  1.5958  0.1674
  135SOL    HW2  539   2.974   1.062   2.928 -0.4332 -1.2481 -2.2446
  135SOL     MW  540   3.029   0.996   2.956 -0.1370  0.0741 -0.1253
  136SOL     OW  541   0.178   1.977   0.878 -0.9467  0.1300  0.2225
  136SOL    HW1  542   0.113   1.916   0.849  0.5443  0.4302 -0.0143
  136SOL    HW2  543   0.260   1.969   0.821  1.0885  3.6071  1.7667
  136SOL     MW  544   0.181   1.968   0.866 -0.4814  0.6284  0.3950
  137SOL     OW  545   0.745   2.072   0.594 -0.1965 -0.1811  0.1981
  137SOL    HW1  546   0.774   2.081   0.687 -0.4648 -1.7231  2.3653
  137SOL    HW2  547   0.647   2.078   0.593  0.8428  2.4450 -0.4883
  137SOL     MW  548   0.736   2.074   0.606 -0.0947 -0.0380  0.3935
  138SOL     OW  549   0.465   0.581   1.155  0.0187  0.2256 -1.0478
  138SOL    HW1  550   0.377   0.558   1.156  0.8274 -0.3416 -0.0370
  138SOL    HW2  551   0.520   0.519   1.105 -1.4715  0.5971  1.2854
  138SOL     MW  552   0.461   0.570   1.149 -0.0712  0.1998 -0.6066
  139SOL     OW  553   2.844   0.534   1.365  0.0141  0.0894  0.2393
  139SOL    HW1  554   2.925   0.488   1.332  0.2720  0.7736 -0.3385
  139SOL    HW2  555   2.869   0.591   1.438 -0.7941 -1.2733  0.3988
  139SOL     MW  556   2.858   0.536   1.370 -0.0585 -0.0001  0.1841
  140SOL     OW  557   0.877   0.461   1.948  0.3796  0.1797 -0.2010
  140SOL    HW1  558   0.968   0.425   1.950  0.0949  0.4717  0.2256
  140SOL    HW2  559   0.840   0.458   2.034 -2.5722 -1.6164 -0.5881
  140SOL     MW  560   0.884   0.456   1.960 -0.0474 -0.0188 -0.1958
  141SOL     OW  561   1.067   0.620   1.662  0.6052  0.0530  0.3097
  141SOL    HW1  562   1.095   0.529   1.646 -0.1391 -0.3721  0.9184
  141SOL    HW2  563   1.144   0.666   1.641  2.9719  1.0738  2.4454
  141SOL     MW  564   1.081   0.614   1.657  0.8193  0.1316  0.6718
  142SOL     OW  565   0.864   1.214   0.741 -0.1518  0.3533 -0.2184
  142SOL    HW1  566   0.897   1.139   0.685  2.0313  0.7738  2.2893
  142SOL    HW2  567   0.954   1.243   0.762  1.2599 -2.0842 -1.1313
  142SOL     MW  568   0.880   1.208   0.736  0.3225  0.0872 -0.0080
  143SOL     OW  569   1.830   0.728   1.029  0.0129 -0.5153 -0.1784
  143SOL    HW1  570   1.862   0.725   0.942  1.6545  0.8851 -0.3926
  143SOL    HW2  571   1.735   0.727   1.020  0.0361  2.1251  0.9829
  143SOL     MW  572   1.822   0.728   1.016  0.2326  0.0179 -0.0534
  144SOL     OW  573   0.246   1.318   1.727 -0.3342  0.0559  0.0194
  144SOL    HW1  574   0.319   1.381   1.701  0.1989 -1.6939 -0.7852
  144SOL    HW2  575   0.280   1.252   1.786 -4.1156  0.1998 -1.0323
  144SOL     MW  576   0.260   1.317   1.732 -0.7627 -0.1560 -0.2255
  145SOL     OW  577   0.213   0.490   1.213  0.7805  0.0997 -0.7684
  145SOL    HW1  578   0.244   0.405   1.249  2.7405  1.9271  1.4448
  145SOL    HW2  579   0.170   0.460   1.135 -0.1673 -2.3566 -1.9150
  145SOL     MW  580   0.212   0.475   1.208  0.9140  0.0167 -0.6277
  146SOL     OW  581   0.776   1.939   1.501 -0.0943  0.4786  0.5950
  146SOL    HW1  582   0.787   1.971   1.406 -0.5686  0.1406 -0.1724
  146SOL    HW2  583   0.720   1.856   1.494 -2.1929  1.5463  2.3580
  146SOL     MW  584   0.770   1.932   1.488 -0.4338  0.5749  0.7264
  147SOL     OW  585   0.474   0.499   2.931 -0.0948  0.0473  0.5702
  147SOL    HW1  586   0.395   0.469   2.978 -0.7876  1.5645  0.8931
  147SOL    HW2  587   0.445   0.573   2.878  3.3426  0.3124  0.1964
  147SOL     MW  588   0.460   0.505   2.930  0.2673  0.2825  0.5635
  148SOL     OW  589   0.054   0.920   1.372 -0.5228 -0.1064  0.2368
  148SOL    HW1  590   0.148   0.945   1.355  1.4833 -1.0031 -0.5029
  148SOL    HW2  591   0.003   0.998   1.365  1.5784  0.7849 -0.1162
  148SOL     MW  592   0.060   0.934   1.369  0.0191 -0.1071  0.0927
  149SOL     OW  593   1.599   1.185   1.384 -0.8035  0.1079  0.6854
  149SOL    HW1  594   1.529   1.173   1.451  1.0979  0.6280 -3.3496
  149SOL    HW2  595   1.587   1.272   1.347  1.1666 -0.5630 -1.9556
  149SOL     MW  596   1.588   1.195   1.388 -0.2927  0.0880 -0.1954
  150SOL     OW  597   1.730   1.467   0.861 -0.4497 -0.0945 -0.8048
  150SOL    HW1  598   1.799   1.405   0.877  1.9913  2.1394  1.1467
  150SOL    HW2  599   1.772   1.553   0.861  1.9718 -0.6266  0.7228
  150SOL     MW  600   1.745   1.470   0.863  0.1919  0.1300 -0.3458
  151SOL     OW  601   1.632   1.885   0.828 -0.6605  0.0816 -0.0755
  151SOL    HW1  602   1.595   1.863   0.741  0.4750 -0.4464  1.3136
  151SOL    HW2  603   1.575   1.834   0.887 -1.2013 -0.4208 -0.5255
  151SOL     MW  604   1.620   1.875   0.824 -0.5820 -0.0544  0.0484
  152SOL     OW  605   0.647   1.422   1.561 -0.1060 -0.1532  0.3458
  152SOL    HW1  606   0.712   1.434   1.492  1.7515 -0.5297 -2.0709
  152SOL    HW2  607   0.623   1.329   1.537  0.9746  0.6905 -2.3543
  152SOL     MW  608   0.653   1.411   1.549  0.2816 -0.0915 -0.3293
  153SOL     OW  609   2.580   1.219   0.717  0.0294  0.8148  0.1792
  153SOL    HW1  610   2.662   1.185   0.689 -1.4576 -0.7591  0.7278
  153SOL    HW2  611   2.523   1.140   0.743 -1.1579 -3.3445 -2.8182
  153SOL     MW  612   2.583   1.204   0.717 -0.3235  0.0584 -0.1439
  154SOL     OW  613   0.117   1.781   1.778  0.0415 -0.4863 -0.4578
  154SOL    HW1  614   0.100   1.685   1.755 -0.6706  2.9001 -0.8490
  154SOL    HW2  615   0.200   1.788   1.827 -0.1366  0.7093  2.6588
  154SOL     MW  616   0.126   1.770   1.782 -0.0760  0.1182 -0.0982
  155SOL     OW  617   1.222   0.702   0.292 -0.2245 -0.3220  0.5838
  155SOL    HW1  618   1.200   0.671   0.377  2.1903  0.7921 -2.4686
  155SOL    HW2  619   1.209   0.798   0.312 -0.2111  2.0863  0.3121
  155SOL     MW  620   1.218   0.710   0.306  0.0959  0.1428  0.1452
  156SOL     OW  621   1.559   0.007   1.077  0.3722 -0.2339 -0.1481
  156SOL    HW1  622   1.621   0.034   1.138 -0.7926  1.0450 -2.4537
  156SOL    HW2  623   1.580  -0.084   1.052 -0.3434 -0.0402 -0.8722
  156SOL     MW  624   1.570  -0.002   1.082  0.1241 -0.0396 -0.5479
  157SOL     OW  625   1.321   1.131   0.196 -0.2482 -0.4087  0.2737
  157SOL    HW1  626   1.354   1.051   0.233 -0.5128  2.0433 -0.5061
  157SOL    HW2  627   1.400   1.183   0.184  1.7617  0.3940 -0.8030
  157SOL     MW  628   1.336   1.128   0.199 -0.0179  0.0207  0.0287
  158SOL     OW  629   0.387   1.658   2.234 -0.5167 -0.6784  0.2965
  158SOL    HW1  630   0.432   1.724   2.183  0.6547  0.7079  1.4288
  158SOL    HW2  631   0.324   1.620   2.169 -2.3706  0.7379  0.5535
  158SOL     MW  632   0.385   1.661   2.219 -0.6067 -0.3086  0.4798
  159SOL     OW  633   1.196   1.664   0.540 -0.1887  0.7993 -0.1615
  159SOL    HW1  634   1.147   1.622   0.467  1.4827  1.6041 -1.0340
  159SOL    HW2  635   1.124   1.700   0.597 -0.2409  1.7519 -1.8397
  159SOL     MW  636   1.180   1.663   0.538  0.0250  1.0312 -0.4981
  160SOL     OW  637   0.507   1.141   1.527 -0.4543 -0.6890  0.5796
  160SOL    HW1  638   0.469   1.066   1.575  4.3857 -2.3620 -2.5620
  160SOL    HW2  639   0.599   1.123   1.502  0.1371 -0.3045  1.1131
  160SOL     MW  640   0.514   1.129   1.530  0.2623 -0.8590  0.2355
  161SOL     OW  641   0.456   2.264   2.685  0.2939  0.8087 -0.2785
  161SOL    HW1  642   0.371   2.283   2.637  1.0711 -1.0267  2.2090
  161SOL    HW2  643   0.485   2.178   2.659  0.6257  0.1516  1.4653
  161SOL     MW  644   0.448   2.255   2.675  0.4402  0.4799  0.2798
  162SOL     OW  645   1.091   1.817   1.789  0.3182  0.3063  0.2280
  162SOL    HW1  646   1.087   1.896   1.850 -1.3592 -1.3316 -0.5577
  162SOL    HW2  647   1.058   1.745   1.838  2.2658 -0.0163  3.1671
  162SOL     MW  648   1.086   1.818   1.804  0.3539  0.0476  0.5121
  163SOL     OW  649   2.126   3.087   0.835  0.3165 -0.4762 -0.3804
  163SOL    HW1  650   2.121   3.149   0.763 -1.0903  1.1006 -1.3205
  163SOL    HW2  651   2.089   3.006   0.793 -1.3182  2.7303 -1.4164
  163SOL     MW  652   2.120   3.085   0.820 -0.0848  0.1549 -0.6411
  164SOL     OW  653   0.284   0.230   0.855  0.1750 -0.5118  0.8165
  164SOL    HW1  654   0.194   0.217   0.892  0.7987 -0.0535  0.5761
  164SOL    HW2  655   0.296   0.154   0.798  0.4425  0.6044 -0.8389
  164SOL     MW  656   0.274   0.218   0.852  0.2926 -0.3040  0.5664
  165SOL     OW  657   1.187   1.318   0.401 -0.5986 -0.0297 -0.1658
  165SOL    HW1  658   1.250   1.304   0.481  1.7770 -1.0438  1.6095
  165SOL    HW2  659   1.196   1.240   0.353  0.6369  1.8621 -0.8562
  165SOL     MW  660   1.196   1.306   0.405 -0.1222  0.0861 -0.0226
  166SOL     OW  661   0.426   1.164   1.046 -1.0694 -0.1124 -0.4546
  166SOL    HW1  662   0.435   1.200   1.134  0.9563 -1.8745 -1.3285
  166SOL    HW2  663   0.520   1.147   1.011  2.3886  1.4405  1.7089
  166SOL     MW  664   0.440   1.167   1.053 -0.3459 -0.1400 -0.2845
  167SOL     OW  665   0.827   1.166   0.352  0.3450 -0.2527  0.6532
  167SOL    HW1  666   0.840   1.251   0.311  4.1206  1.7523  0.8730
  167SOL    HW2  667   0.860   1.114   0.276  1.2417 -0.5389  0.4963
  167SOL     MW  668   0.833   1.170   0.336  0.9615 -0.0259  0.6615
  168SOL     OW  669   1.707   1.646   3.041  0.3832  0.1737 -0.0860
  168SOL    HW1  670   1.623   1.693   3.023  1.0196  0.9670 -0.0748
  168SOL    HW2  671   1.700   1.559   2.997 -1.3369 -0.1683  0.5598
  168SOL     MW  672   1.695   1.641   3.033  0.2402  0.2333  0.0007
  169SOL     OW  673   0.332   0.975   1.321 -0.4283 -0.3434  0.4720
  169SOL    HW1  674   0.346   0.934   1.403  2.2528 -0.6880  0.0447
  169SOL    HW2  675   0.354   1.065   1.330 -0.7984  0.5992  1.5698
  169SOL     MW  676   0.337   0.981   1.333 -0.1234 -0.2645  0.5605
  170SOL     OW  677   1.133   1.507   1.471 -0.1723  0.2835  0.0355
  170SOL    HW1  678   1.106   1.583   1.522  0.5322 -1.0809 -0.9342
  170SOL    HW2  679   1.088   1.514   1.387  0.1262 -2.0065 -1.6035
  170SOL     MW  680   1.124   1.518   1.466 -0.0400 -0.1987 -0.3087
  171SOL     OW  681   0.511   1.448   0.567 -0.3688  0.4552 -0.3860
  171SOL    HW1  682   0.413   1.476   0.551 -3.8304 -1.5023  0.6732
  171SOL    HW2  683   0.539   1.367   0.508 -0.9158 -2.2955 -0.6194
  171SOL     MW  684   0.502   1.441   0.557 -0.8977 -0.1660 -0.2771
  172SOL     OW  685   0.750   0.303   1.298 -0.1786  0.1577  0.5239
  172SOL    HW1  686   0.752   0.246   1.224  0.0673  0.3716  1.1757
  172SOL    HW2  687   0.771   0.232   1.368  0.6831 -1.7316  1.6031
  172SOL     MW  688   0.753   0.286   1.298 -0.0324 -0.0634  0.7523
  173SOL     OW  689   0.536   1.727   0.342 -0.9736  0.6574 -0.0322
  173SOL    HW1  690   0.547   1.642   0.310  0.4492  3.7615  3.7477
  173SOL    HW2  691   0.600   1.740   0.409 -1.7422  1.6056 -0.1547
  173SOL     MW  692   0.546   1.718   0.346 -0.8873  1.1921  0.4504
  174SOL     OW  693   1.899   0.932   1.472 -0.4707  0.2803 -0.4659
  174SOL    HW1  694   1.817   0.891   1.486  0.0854  1.8809 -0.6852
  174SOL    HW2  695   1.903   0.924   1.377 -0.4978  1.3561  0.9660
  174SOL     MW  696   1.889   0.926   1.461 -0.4009  0.6334 -0.3059
  175SOL     OW  697   0.571   1.469   0.191  0.0922 -0.2183  0.3898
  175SOL    HW1  698   0.551   1.378   0.192  0.5447 -0.3915 -0.2095
  175SOL    HW2  699   0.650   1.483   0.238  1.0493 -1.6026  2.2664
  175SOL     MW  700   0.579   1.459   0.197  0.2782 -0.4238  0.5583
  176SOL     OW  701   0.085   1.517   1.179 -0.0071 -0.1164 -0.0485
  176SOL    HW1  702   0.102   1.435   1.126 -0.9787 -0.8425 -1.4598
  176SOL    HW2  703   0.004   1.493   1.225 -3.0908  0.4192 -1.0968
  176SOL     MW  704   0.077   1.503   1.178 -0.5421 -0.1415 -0.3730
  177SOL     OW  705   0.506   0.276   1.416  0.1109 -0.0559 -0.3868
  177SOL    HW1  706   0.584   0.308   1.365  1.2044 -2.3367  1.1365
  177SOL    HW2  707   0.486   0.362   1.467 -2.6736 -1.3983  0.8323
  177SOL     MW  708   0.514   0.291   1.416 -0.1122 -0.5339 -0.0250
  178SOL     OW  709   3.065   0.538   3.008 -0.0221  0.3613 -0.8129
  178SOL    HW1  710   2.962   0.532   3.024 -0.9250 -1.7724  3.2012
  178SOL    HW2  711   3.073   0.495   2.927  0.2021  1.8479  1.2632
  178SOL     MW  712   3.053   0.531   3.000 -0.1117  0.2759 -0.0094
  179SOL     OW  713   1.554   1.482   1.388  0.0663  0.3337 -1.0569
  179SOL    HW1  714   1.581   1.459   1.481 -2.3778 -0.1358  1.5318
  179SOL    HW2  715   1.642   1.465   1.345 -0.6244  0.2286  1.6476
  179SOL     MW  716   1.569   1.477   1.394 -0.3473  0.2579 -0.3585
  180SOL     OW  717   0.017   0.242   0.420  0.4245 -0.5649  0.0528
  180SOL    HW1  718  -0.065   0.266   0.379 -3.4270  0.7419 -0.2393
  180SOL    HW2  719   0.057   0.333   0.426 -0.8678  0.9634  1.1114
  180SOL     MW  720   0.012   0.257   0.415 -0.2542 -0.1908  0.1539
  181SOL     OW  721   1.085   1.337   0.008  0.7122 -0.1404  0.0884
  181SOL    HW1  722   1.160   1.400   0.027 -0.9599  2.3183  1.4344
  181SOL    HW2  723   1.124   1.273  -0.052 -3.5780  2.2983 -1.0921
  181SOL     MW  724   1.100   1.337   0.002 -0.0745  0.5058  0.1102
  182SOL     OW  725   0.371   0.913   1.586 -0.3737 -0.5162 -0.6555
  182SOL    HW1  726   0.309   0.924   1.654  0.7124 -1.2620  1.3363
  182SOL    HW2  727   0.430   0.857   1.634 -0.1990  4.2814  1.4203
  182SOL     MW  728   0.370   0.907   1.601 -0.2073  0.0184 -0.1189
  183SOL     OW  729   1.578   1.757   1.271  0.1118 -0.0553 -0.1169
  183SOL    HW1  730   1.668   1.775   1.287 -1.0852 -2.7984 -1.7383
  183SOL    HW2  731   1.555   1.677   1.324  1.2705 -2.1515  0.1763
  183SOL     MW  732   1.587   1.749   1.280  0.1067 -0.6938 -0.2921
  184SOL     OW  733   0.823   0.639   1.772 -0.1050 -0.9870 -0.2460
  184SOL    HW1  734   0.911   0.653   1.727  1.1534  0.2709  0.5294
  184SOL    HW2  735   0.841   0.562   1.830  2.3699  1.6414  1.7655
  184SOL     MW  736   0.837   0.631   1.773  0.3876 -0.4742  0.1217
  185SOL     OW  737   1.136   0.960   1.870 -0.1835  0.1071 -0.5135
  185SOL    HW1  738   1.105   0.881   1.921 -2.1780 -0.9358  1.1908
  185SOL    HW2  739   1.154   1.027   1.942  0.4117 -0.8310  1.7726
  185SOL     MW  740   1.134   0.959   1.887 -0.3681 -0.1543  0.0130
  186SOL     OW  741   0.264   1.606   1.519  0.1050 -0.3459 -0.0601
  186SOL    HW1  742   0.262   1.601   1.421  0.1286  0.2630 -0.7628
  186SOL    HW2  743   0.174   1.572   1.542 -0.2270 -1.6923 -0.5834
  186SOL     MW  744   0.252   1.601   1.509  0.0643 -0.4432 -0.2218
  187SOL     OW  745   1.388   0.788   1.361  0.2622  0.2480 -0.7352
  187SOL    HW1  746   1.376   0.825   1.447  3.2377 -0.4570 -1.1854
  187SOL    HW2  747   1.301   0.774   1.325  1.3083 -0.7833 -0.8369
  187SOL     MW  748   1.375   0.791   1.368  0.7928  0.0189 -0.8080
  188SOL     OW  749   1.877   1.231   0.922 -0.6026 -0.1124  0.4975
  188SOL    HW1  750   1.891   1.203   1.015  0.0324 -0.1484  2.0281
  188SOL    HW2  751   1.899   1.152   0.874 -0.9564 -1.5419 -0.6559
  188SOL     MW  752   1.882   1.217   0.928 -0.5655 -0.3057  0.5473
  189SOL     OW  753   0.702   0.706   0.888  0.1731  0.0455 -0.1908
  189SOL    HW1  754   0.630   0.761   0.873  1.6175  2.0191  1.6211
  189SOL    HW2  755   0.749   0.744   0.961 -2.0116  0.0726  0.7077
  189SOL     MW  756   0.699   0.718   0.896  0.0755  0.3095  0.1668
  190SOL     OW  757   1.874   0.280   2.052  0.4591 -0.5092  0.0671
  190SOL    HW1  758   1.865   0.237   2.136  1.2677  0.4768 -3.4257
  190SOL    HW2  759   1.966   0.317   2.063  1.5673  3.0577  1.0788
  190SOL     MW  760   1.885   0.280   2.064  0.7120  0.0915 -0.2602
  191SOL     OW  761   1.562   0.965   1.218 -0.1206  0.4754  0.3306
  191SOL    HW1  762   1.581   1.032   1.284 -0.5372  0.4677 -0.9081
  191SOL    HW2  763   1.495   0.912   1.261  2.1239  0.7097  1.8966
  191SOL     MW  764   1.556   0.967   1.232  0.1206  0.5053  0.3738
  192SOL     OW  765   0.508   2.173   2.955  0.4554 -0.1706  0.0229
  192SOL    HW1  766   0.490   2.250   2.899 -0.1717 -0.9162 -1.2553
  192SOL    HW2  767   0.520   2.105   2.891 -1.7697 -2.2125 -0.4060
  192SOL     MW  768   0.507   2.174   2.939  0.0791 -0.5384 -0.2023
  193SOL     OW  769   0.838   1.628   0.804  0.2578 -0.4915 -0.1336
  193SOL    HW1  770   0.746   1.618   0.850 -5.3361  0.3087  0.7472
  193SOL    HW2  771   0.812   1.562   0.736  2.0799  1.7511 -0.9892
  193SOL     MW  772   0.822   1.618   0.801 -0.2398 -0.0901 -0.1303
  194SOL     OW  773   0.421   1.350   0.844 -0.2016  0.0473  0.6214
  194SOL    HW1  774   0.406   1.281   0.916 -1.1825 -3.0144  2.9898
  194SOL    HW2  775   0.333   1.379   0.814 -0.1910  3.3951 -0.5601
  194SOL     MW  776   0.408   1.345   0.849 -0.3296  0.0851  0.7780
  195SOL     OW  777   1.210   1.107   3.013 -0.5908  0.2847  0.1703
  195SOL    HW1  778   1.238   1.113   3.107 -0.8807  5.0318  2.0926
  195SOL    HW2  779   1.151   1.031   3.009 -0.4907 -2.3716 -0.6585
  195SOL     MW  780   1.206   1.098   3.025 -0.6158  0.5606  0.3146
  196SOL     OW  781   2.239   1.019   0.512  0.0267  0.3257 -0.1216
  196SOL    HW1  782   2.261   1.028   0.414 -0.2544  1.5539 -1.9876
  196SOL    HW2  783   2.212   1.104   0.538 -0.6464 -1.3982 -3.5901
  196SOL     MW  784   2.239   1.031   0.502 -0.0992  0.2603 -0.8254
  197SOL     OW  785   0.612   1.340   2.157 -0.0514  0.2281 -0.0750
  197SOL    HW1  786   0.631   1.247   2.134  0.9061  0.5583 -0.6440
  197SOL    HW2  787   0.695   1.378   2.132  1.3236  0.2103  0.5065
  197SOL     MW  788   0.626   1.333   2.150  0.2563  0.2693 -0.0733
  198SOL     OW  789   2.940   1.388   1.017 -0.1407 -0.4281  0.2181
  198SOL    HW1  790   2.928   1.479   0.982  0.8651  0.1038 -2.9326
  198SOL    HW2  791   2.865   1.336   0.991  1.9529  2.6053  0.7032
  198SOL     MW  792   2.928   1.393   1.009  0.2682  0.0423 -0.1336
  199SOL     OW  793   0.659   1.264   1.826  0.3193 -0.3892  0.0386
  199SOL    HW1  794   0.569   1.256   1.855 -1.7261  0.4368  0.1167
  199SOL    HW2  795   0.662   1.346   1.782  0.7242  1.4256 -0.9639
  199SOL     MW  796   0.648   1.273   1.824  0.1028 -0.0408 -0.0834
  200SOL     OW  797   1.850   2.965   1.293 -0.1332  0.7028  0.0985
  200SOL    HW1  798   1.896   2.978   1.204  1.1611 -0.8353 -2.6343
  200SOL    HW2  799   1.796   3.037   1.300  2.2836 -2.9356 -0.3123
  200SOL     MW  800   1.849   2.976   1.282  0.3565  0.0198 -0.3163
  201SOL     OW  801   1.199   0.291   0.817 -0.1700  0.0289 -0.1189
  201SOL    HW1  802   1.134   0.223   0.828  2.5139 -2.2662  2.1083
  201SOL    HW2  803   1.275   0.260   0.866 -0.0214 -1.2969 -2.4849
  201SOL     MW  804   1.200   0.278   0.825  0.2037 -0.4488 -0.1372
  202SOL     OW  805   1.488   1.733   1.019 -0.5133  0.0483  0.4759
  202SOL    HW1  806   1.494   1.645   0.998 -0.1179  2.6885  1.2550
  202SOL    HW2  807   1.514   1.734   1.116  1.7960  2.0426  1.7624
  202SOL     MW  808   1.492   1.721   1.029 -0.1564  0.6598  0.7484
  203SOL     OW  809   3.043   0.351   1.308  0.8313  0.4110  0.1021
  203SOL    HW1  810   3.053   0.255   1.337 -0.0884 -0.6544  3.5910
  203SOL    HW2  811   3.133   0.373   1.277  1.0189 -1.2068 -1.7408
  203SOL     MW  812   3.056   0.342   1.307  0.7347  0.0570  0.3193
  204SOL     OW  813   0.985   1.818   0.664  0.1672  0.3721  0.0746
  204SOL    HW1  814   0.956   1.746   0.723  1.7392 -2.2076 -4.3962
  204SOL    HW2  815   0.910   1.830   0.607 -0.4324  0.2626 -2.0536
  204SOL     MW  816   0.972   1.810   0.665  0.2955  0.0173 -0.7961
  205SOL     OW  817   1.418   3.036   1.324 -0.3655 -0.2055 -0.3697
  205SOL    HW1  818   1.442   3.078   1.241 -2.2677  1.0254  0.4711
  205SOL    HW2  819   1.349   3.094   1.357 -0.0006 -0.5158  0.4295
  205SOL     MW  820   1.412   3.049   1.317 -0.5683 -0.0840 -0.1533
  206SOL     OW  821   0.375   2.925   1.333 -0.3009  0.1866 -0.0480
  206SOL    HW1  822   0.351   2.943   1.242 -0.5814 -0.4590 -1.3395
  206SOL    HW2  823   0.458   2.974   1.345  0.7174 -0.3191 -0.0292
  206SOL     MW  824   0.383   2.934   1.323 -0.2035  0.0347 -0.2159
  207SOL     OW  825   0.893   1.741   0.229  0.1758  0.0424 -0.3254
  207SOL    HW1  826   0.947   1.791   0.171 -1.1763  3.5995  0.1596
  207SOL    HW2  827   0.938   1.655   0.246  0.7782 -0.5035  2.3578
  207SOL     MW  828   0.906   1.736   0.224  0.0769  0.4397  0.0926
  208SOL     OW  829   0.782   1.551   1.328 -0.1708 -0.4241  0.0004
  208SOL    HW1  830   0.856   1.590   1.286 -0.2375  1.8390 -3.0430
  208SOL    HW2  831   0.731   1.524   1.248  3.4410 -1.5599 -2.0710
  208SOL     MW  832   0.785   1.553   1.312  0.2970 -0.2753 -0.6744
  209SOL     OW  833   1.607   0.485   2.834  0.2902 -0.3651 -0.1946
  209SOL    HW1  834   1.657   0.566   2.850  2.8202 -0.0268 -2.7684
  209SOL    HW2  835   1.669   0.416   2.808 -1.1412  0.0933  1.1781
  209SOL     MW  836   1.622   0.486   2.833  0.4352 -0.2600 -0.3531
  210SOL     OW  837   1.476   1.431   0.961  0.4602 -0.3931  0.7887
  210SOL    HW1  838   1.565   1.453   0.937  1.6009 -2.8631  0.7431
  210SOL    HW2  839   1.428   1.435   0.877 -0.3331 -0.7498  0.4331
  210SOL     MW  840   1.481   1.434   0.947  0.5060 -0.7660  0.7358
  211SOL     OW  841   1.742   0.445   0.901  0.0033  0.9563  0.1983
  211SOL    HW1  842   1.727   0.469   0.802  0.7142 -1.5069 -1.2995
  211SOL    HW2  843   1.839   0.447   0.924  2.4203 -3.9665  0.4923
  211SOL     MW  844   1.752   0.449   0.891  0.4160 -0.0182  0.0394
  212SOL     OW  845   0.367   1.164   0.220 -0.3296  0.4823 -0.4117
  212SOL    HW1  846   0.309   1.093   0.241 -0.1757  1.8942 -1.0924
  212SOL    HW2  847   0.416   1.120   0.154  0.6554  1.3425 -1.0767
  212SOL     MW  848   0.366   1.149   0.214 -0.1794  0.7820 -0.5892
  213SOL     OW  849   0.371   1.843   3.010  0.1153 -0.3905  0.1812
  213SOL    HW1  850   0.415   1.900   3.080  0.4967  0.1130  1.6610
  213SOL    HW2  851   0.421   1.866   2.927  1.8218 -0.0437 -1.9934
  213SOL     MW  852   0.383   1.853   3.008  0.3908 -0.2784  0.0896
  214SOL     OW  853   0.608   0.350   2.110 -0.3706 -0.1745 -0.5792
  214SOL    HW1  854   0.521   0.397   2.128  3.5619 -0.8837  3.9927
  214SOL    HW2  855   0.641   0.376   2.026 -1.3708 -1.9304 -1.1903
  214SOL     MW  856   0.601   0.360   2.101  0.0163 -0.4997 -0.0566
  215SOL     OW  857   0.513   0.528   2.516  0.6804 -0.4439  0.2466
  215SOL    HW1  858   0.463   0.579   2.453 -1.4883  1.3963 -0.1205
  215SOL    HW2  859   0.437   0.479   2.545  0.8724  1.1767  2.6953
  215SOL     MW  860   0.497   0.528   2.511  0.4196  0.0127  0.5212
  216SOL     OW  861   2.885   3.088   2.767  0.2845  0.3546  0.4291
  216SOL    HW1  862   2.819   3.113   2.832 -1.4516 -0.8104 -0.6758
  216SOL    HW2  863   2.922   3.162   2.715 -3.8001  0.0578  3.1188
  216SOL     MW  864   2.881   3.101   2.769 -0.4835  0.1617  0.6382
  217SOL     OW  865   0.992   1.083   0.125 -0.5515  0.3966 -0.0386
  217SOL    HW1  866   1.011   1.018   0.058 -2.3843 -2.3714  0.2238
  217SOL    HW2  867   1.027   1.162   0.085 -2.3948 -3.6474 -1.4518
  217SOL     MW  868   0.999   1.085   0.111 -1.0365 -0.5022 -0.1905
  218SOL     OW  869   0.853   1.353   2.610 -0.2854  0.4921 -0.6565
  218SOL    HW1  870   0.829   1.296   2.686  1.5171  3.1223  0.1343
  218SOL    HW2  871   0.935   1.395   2.635 -1.6119 -0.1135  0.7440
  218SOL     MW  872   0.860   1.351   2.623 -0.2226  0.7592 -0.3674
  219SOL     OW  873   1.055   0.454   2.602 -0.0755 -0.1254 -0.2193
  219SOL    HW1  874   1.118   0.521   2.630  1.2610  0.9394  0.9454
  219SOL    HW2  875   0.972   0.502   2.577  0.8687 -1.0000  1.3674
  219SOL     MW  876   1.053   0.469   2.602  0.2254 -0.1003  0.1437
  220SOL     OW  877   1.719   0.499   2.202 -0.1353  0.5582  0.0527
  220SOL    HW1  878   1.630   0.524   2.170 -0.4392 -0.6719  2.2574
  220SOL    HW2  879   1.742   0.421   2.149 -1.2971 -0.2231 -0.9873
  220SOL     MW  880   1.710   0.492   2.191 -0.3287  0.2928  0.2064
  221SOL     OW  881   0.392   1.380   2.931  0.1244  0.1470 -0.5052
  221SOL    HW1  882   0.440   1.299   2.916 -2.6646 -1.8670 -0.3535
  221SOL    HW2  883   0.452   1.460   2.942  1.4846  2.2684  2.9818
  221SOL     MW  884   0.406   1.380   2.930 -0.0642  0.1612 -0.0251
  222SOL     OW  885   0.519   0.935   2.718  0.1312 -0.2514  0.0756
  222SOL    HW1  886   0.440   0.899   2.679  0.3355  1.4260 -0.0962
  222SOL    HW2  887   0.576   0.858   2.739  3.1529 -1.2409  0.0784
  222SOL     MW  888   0.516   0.920   2.716  0.5568 -0.1606  0.0533
  223SOL     OW  889   3.092   2.040   2.543  0.0034  0.1299  0.0245
  223SOL    HW1  890   3.088   2.037   2.639 -0.6830  2.4380  1.4330
  223SOL    HW2  891   3.146   2.114   2.512 -0.2091 -1.6407  1.1509
  223SOL     MW  892   3.098   2.050   2.552 -0.1152  0.2008  0.3589
  224SOL     OW  893   1.458   0.699   2.443  0.0721 -0.1582  0.1047
  224SOL    HW1  894   1.545   0.671   2.455  1.1233  2.5397  0.3705
  224SOL    HW2  895   1.465   0.784   2.490 -0.2618 -0.9008  0.0767
  224SOL     MW  896   1.471   0.706   2.451  0.1667  0.0998  0.1360
  225SOL     OW  897   2.957   1.487   2.257 -0.1819  0.3378 -0.5480
  225SOL    HW1  898   2.985   1.564   2.203  3.3702  1.5519 -0.6420
  225SOL    HW2  899   2.879   1.517   2.300  0.1761 -0.6224  1.4349
  225SOL     MW  900   2.951   1.501   2.255  0.3340  0.3713 -0.2988
  226SOL     OW  901   0.427   1.543   2.678  0.0397  0.4728  0.2473
  226SOL    HW1  902   0.522   1.548   2.692  0.4738 -2.2872 -0.2129
  226SOL    HW2  903   0.394   1.633   2.704  0.6126  1.8216  0.4517
  226SOL     MW  904   0.435   1.556   2.683  0.1725  0.2866  0.2136
  227SOL     OW  905   0.532   1.130   2.924 -0.8143  0.3857  0.3414
  227SOL    HW1  906   0.619   1.159   2.886 -1.2323 -1.7215  1.9768
  227SOL    HW2  907   0.505   1.046   2.878 -0.5778  1.7553  1.6160
  227SOL     MW  908   0.540   1.123   2.913 -0.8383  0.2884  0.7253
  228SOL     OW  909   0.742   1.113   2.055 -0.0401 -0.3189 -0.4651
  228SOL    HW1  910   0.741   1.158   1.970  2.4025 -0.2553  2.3909
  228SOL    HW2  911   0.831   1.121   2.092 -1.0880 -0.6938 -0.2442
  228SOL     MW  912   0.754   1.120   2.048  0.1439 -0.3599 -0.0591
  229SOL     OW  913   0.207   0.565   0.002 -0.3876 -0.0368  0.4744
  229SOL    HW1  914   0.115   0.552  -0.028  2.3180  2.6871  1.3668
  229SOL    HW2  915   0.224   0.490   0.064 -0.6857  0.7587  1.0981
  229SOL     MW  916   0.197   0.553   0.006 -0.0699  0.4276  0.6744
  230SOL     OW  917   1.741   1.371   2.044 -1.0104  0.0317  0.2289
  230SOL    HW1  918   1.704   1.344   2.126 -2.1344  2.9754  0.0966
  230SOL    HW2  919   1.793   1.300   2.005  2.0264  2.3310  2.8455
  230SOL     MW  920   1.743   1.358   2.049 -0.7580  0.7234  0.5567
  231SOL     OW  921   2.730   1.251   2.241  0.1127  0.2637  0.0340
  231SOL    HW1  922   2.776   1.336   2.247  0.9639  2.5112 -2.7100
  231SOL    HW2  923   2.693   1.264   2.155  1.7419  1.8416 -3.0158
  231SOL     MW  924   2.731   1.264   2.230  0.4399  0.7684 -0.7304
  232SOL     OW  925   2.293   0.890   1.932  0.0589  0.3521  0.1819
  232SOL    HW1  926   2.220   0.896   1.880 -0.7554  1.1210  1.1946
  232SOL    HW2  927   2.266   0.833   2.005 -2.0462 -0.7022  0.4709
  232SOL     MW  928   2.280   0.884   1.935 -0.3263  0.3144  0.3536
  233SOL     OW  929   2.102   0.422   2.054 -0.5900 -0.1570 -0.6186
  233SOL    HW1  930   2.168   0.350   2.035  3.9700 -2.8785 -1.7820
  233SOL    HW2  931   2.117   0.452   2.148 -0.8327 -0.5496 -0.8771
  233SOL     MW  932   2.112   0.417   2.064 -0.0204 -0.5679 -0.8062
  234SOL     OW  933   0.239   1.065   2.665  0.2452 -0.0596  0.3834
  234SOL    HW1  934   0.163   1.050   2.607  1.6522  0.2726  1.0766
  234SOL    HW2  935   0.280   1.151   2.639 -2.1942 -1.1294 -2.4162
  234SOL     MW  936   0.234   1.074   2.654  0.1089 -0.1569  0.1055
  235SOL     OW  937   1.143   3.061   2.825 -0.2955  0.8616  0.6976
  235SOL    HW1  938   1.211   3.047   2.893  1.4892  0.3525 -1.7888
  235SOL    HW2  939   1.153   3.157   2.801 -0.2752  1.6356  0.5408
  235SOL     MW  940   1.154   3.072   2.831 -0.0573  0.8965  0.3489
  236SOL     OW  941   2.978   0.605   0.221  0.4927 -0.2363  0.1716
  236SOL    HW1  942   2.976   0.625   0.317 -0.3153 -3.2533  1.3564
  236SOL    HW2  943   3.047   0.652   0.177  1.1906  1.0374 -1.4528
  236SOL     MW  944   2.987   0.614   0.228  0.4782 -0.4663  0.1136
  237SOL     OW  945   1.900   1.071   2.141 -0.2049 -0.5815 -0.5808
  237SOL    HW1  946   1.807   1.090   2.171  0.9080 -1.9448 -0.2483
  237SOL    HW2  947   1.888   1.034   2.059 -3.7773 -1.7664  0.9428
  237SOL     MW  948   1.886   1.069   2.134 -0.5294 -0.9177 -0.3359
  238SOL     OW  949   1.077   1.725   2.939 -0.0869 -0.0270  0.0480
  238SOL    HW1  950   0.989   1.697   2.931  2.7090 -2.3831  0.1514
  238SOL    HW2  951   1.125   1.645   2.923 -0.2316  0.3577 -0.4269
  238SOL     MW  952   1.072   1.711   2.936  0.2629 -0.2871 -0.0010
  239SOL     OW  953   1.197   1.318   2.355 -0.1777  0.1780  0.0638
  239SOL    HW1  954   1.130   1.286   2.299 -0.2015 -1.3195  1.2177
  239SOL    HW2  955   1.189   1.260   2.428 -1.2672  0.6363 -2.1364
  239SOL     MW  956   1.187   1.306   2.357 -0.3246  0.0409 -0.0743
  240SOL     OW  957   0.573   0.880   2.280 -0.1429 -0.1004 -0.1945
  240SOL    HW1  958   0.608   0.922   2.361  0.6632  2.8024  1.6059
  240SOL    HW2  959   0.651   0.869   2.227  2.7873 -0.7088 -0.7715
  240SOL     MW  960   0.588   0.884   2.284  0.3501  0.2023 -0.0331
  241SOL     OW  961   0.691   0.434   3.097  0.3546  0.0962 -0.1170
  241SOL    HW1  962   0.704   0.507   3.157 -1.3075  0.2645  0.2363
  241SOL    HW2  963   0.611   0.468   3.046  0.4615 -1.8066  2.6341
  241SOL     MW  964   0.682   0.448   3.098  0.1494 -0.1326  0.2926
  242SOL     OW  965   1.503   1.652   2.303  0.3792 -0.7011 -0.0754
  242SOL    HW1  966   1.441   1.720   2.312 -0.5777  0.3602  0.1118
  242SOL    HW2  967   1.449   1.580   2.278  1.6853 -1.2966  1.8591
  242SOL     MW  968   1.487   1.652   2.301  0.4253 -0.6396  0.2045
  243SOL     OW  969   1.021   0.324   2.367  0.1704 -1.0358  0.2726
  243SOL    HW1  970   1.102   0.269   2.359 -0.9131  0.1247 -1.2238
  243SOL    HW2  971   1.043   0.390   2.435 -1.7344  1.6454  0.8323
  243SOL     MW  972   1.035   0.326   2.375 -0.2239 -0.5289  0.1490
  244SOL     OW  973   0.110   0.760   2.372 -0.3241  0.4386 -0.2977
  244SOL    HW1  974   0.086   0.850   2.362  0.0281  2.1982  1.3332
  244SOL    HW2  975   0.203   0.760   2.355 -3.8931  1.6559 -0.3201
  244SOL     MW  976   0.119   0.772   2.369 -0.7485  0.8314 -0.0855
  245SOL     OW  977   1.266   0.170   2.416 -0.5094 -0.5261  1.2651
  245SOL    HW1  978   1.334   0.138   2.345 -3.5434 -2.6020 -3.1765
  245SOL    HW2  979   1.281   0.101   2.481 -1.0647 -0.1957 -1.8095
  245SOL     MW  980   1.277   0.157   2.415 -0.9830 -0.7564  0.2734
  246SOL     OW  981   1.216   1.143   2.092  0.0796  0.5081  0.5330
  246SOL    HW1  982   1.134   1.112   2.141 -0.3016 -1.7275  2.9290
  246SOL    HW2  983   1.291   1.095   2.137  2.3308 -2.9447 -1.7857
  246SOL     MW  984   1.215   1.133   2.105  0.3263 -0.2424  0.5432
  247SOL     OW  985   0.763   0.673   0.178  0.0721  0.0913  0.6680
  247SOL    HW1  986   0.730   0.763   0.151 -0.1562  0.8692  1.5883
  247SOL    HW2  987   0.854   0.665   0.140  2.0787  2.6165 -0.8347
  247SOL     MW  988   0.771   0.684   0.170  0.3067  0.5271  0.5912
  248SOL     OW  989   0.304   1.342   2.573  0.0068  0.1585  0.5963
  248SOL    HW1  990   0.334   1.350   2.481 -0.1183 -1.3317  2.7070
  248SOL    HW2  991   0.352   1.414   2.612  1.0639 -1.8562  1.2598
  248SOL     MW  992   0.315   1.352   2.566  0.1298 -0.3040  0.9623
  249SOL     OW  993   3.018   1.935   2.787  0.5763 -0.5308 -0.2033
  249SOL    HW1  994   2.997   1.853   2.744  0.7841 -1.8049  0.8775
  249SOL    HW2  995   3.098   1.909   2.833  1.1390  0.4239 -1.8335
  249SOL     MW  996   3.025   1.921   2.788  0.6780 -0.5729 -0.2758
  250SOL     OW  997   2.236   0.778   2.174  0.6060 -0.2678 -0.3319
  250SOL    HW1  998   2.203   0.690   2.212 -2.2993 -2.4970  0.7757
  250SOL    HW2  999   2.264   0.834   2.243 -1.8035  1.0057 -1.4424
  250SOL     MW 1000   2.235   0.773   2.189 -0.0952 -0.3939 -0.3323
  251SOL     OW 1001   0.150   0.885   2.038  0.2400 -0.4312 -0.1019
  251SOL    HW1 1002   0.104   0.808   2.055  0.8734  2.2943 -1.0029
  251SOL    HW2 1003   0.150   0.896   1.941  0.0434  1.0360  1.6565
  251SOL     MW 1004   0.144   0.876   2.028  0.2976  0.1220  0.0112
  252SOL     OW 1005   1.712   0.990   2.876  0.4571  0.1451  0.1027
  252SOL    HW1 1006   1.762   1.038   2.940 -2.6844  2.4337  0.8026
  252SOL    HW2 1007   1.784   0.983   2.806 -0.0587 -2.1394  1.1258
  252SOL     MW 1008   1.728   0.995   2.875 -0.0254  0.1457  0.3300
  253SOL     OW 1009   1.151   1.704   2.502 -0.4459 -0.2367  0.4821
  253SOL    HW1 1010   1.136   1.671   2.408  2.5128 -0.3999 -0.8178
  253SOL    HW2 1011   1.071   1.759   2.527  0.8725 -2.1629  0.1268
  253SOL     MW 1012   1.138   1.706   2.493  0.1184 -0.5124  0.2637
  254SOL     OW 1013   0.974   1.131   2.215  0.2006 -0.2859  0.3245
  254SOL    HW1 1014   0.930   1.045   2.217 -1.2840  1.1107  0.1250
  254SOL    HW2 1015   0.915   1.181   2.280 -0.7916 -0.8113  4.0592
  254SOL     MW 1016   0.961   1.126   2.224 -0.1262 -0.1710  0.7909
  255SOL     OW 1017   0.844   2.549   2.151  0.3652 -0.8692  0.1786
  255SOL    HW1 1018   0.765   2.492   2.146 -2.3493  3.4395 -0.8117
  255SOL    HW2 1019   0.920   2.501   2.178 -0.0119  3.4684 -0.5005
  255SOL     MW 1020   0.844   2.535   2.154 -0.0427  0.2716 -0.0416
  256SOL     OW 1021   1.297   2.790   3.034  0.1485  0.2692  0.8694
  256SOL    HW1 1022   1.305   2.703   3.074  2.6653  0.2555  1.4088
  256SOL    HW2 1023   1.350   2.772   2.955 -0.9627  0.2783 -1.5389
  256SOL     MW 1024   1.305   2.777   3.029  0.3340  0.2686  0.6228
  257SOL     OW 1025   0.039   1.899   0.095 -0.0982  0.6246 -0.3381
  257SOL    HW1 1026   0.126   1.891   0.142 -0.7817  3.5797  0.7223
  257SOL    HW2 1027   0.051   1.893   0.002 -2.6094 -2.6269  0.4688
  257SOL     MW 1028   0.052   1.897   0.089 -0.5197  0.5855 -0.0917
  258SOL     OW 1029   0.674   1.013   2.503  0.4672  0.1892  0.5784
  258SOL    HW1 1030   0.656   1.105   2.487  0.1094  2.6720  0.2762
  258SOL    HW2 1031   0.623   0.978   2.574 -2.5904 -0.4211 -2.0588
  258SOL     MW 1032   0.665   1.021   2.510  0.0166  0.4362  0.1906
  259SOL     OW 1033   0.806   0.451   2.240 -0.0553  0.5426  0.6837
  259SOL    HW1 1034   0.730   0.395   2.200  0.7935  1.5377 -1.1668
  259SOL    HW2 1035   0.862   0.380   2.270  0.4685 -0.3826 -1.9549
  259SOL     MW 1036   0.804   0.434   2.239  0.1258  0.5519  0.0914
  260SOL     OW 1037   0.646   0.117   1.594  0.0157 -1.0198  0.2304
  260SOL    HW1 1038   0.610   0.182   1.540  2.8218 -2.5627  1.5282
  260SOL    HW2 1039   0.719   0.079   1.543  0.3541 -0.0070  0.2153
  260SOL     MW 1040   0.651   0.120   1.580  0.4306 -1.0897  0.3996
  261SOL     OW 1041   1.038   0.734   2.012 -0.4742 -0.2129  0.7235
  261SOL    HW1 1042   1.080   0.697   2.086 -1.1800  3.1046 -0.5808
  261SOL    HW2 1043   0.999   0.661   1.967  0.3099  1.2770  0.2782
  261SOL     MW 1044   1.038   0.720   2.016 -0.4639  0.4214  0.4926
  262SOL     OW 1045   1.145   0.339   0.112 -0.6625 -0.0024  0.3237
  262SOL    HW1 1046   1.246   0.328   0.105  0.6439  1.3721 -0.3410
  262SOL    HW2 1047   1.112   0.280   0.042  0.6890 -1.5842  1.5208
  262SOL     MW 1048   1.154   0.330   0.102 -0.3118 -0.0297  0.3939
  263SOL     OW 1049   0.410   0.015   2.519  0.2651 -0.4995 -0.7707
  263SOL    HW1 1050   0.333   0.067   2.523 -0.3839  0.1152  0.9192
  263SOL    HW2 1051   0.466   0.048   2.452  2.3084 -1.2616  0.3958
  263SOL     MW 1052   0.408   0.027   2.510  0.4491 -0.5190 -0.3938
  264SOL     OW 1053   1.537   1.497   1.892  0.2968 -0.5667  0.2428
  264SOL    HW1 1054   1.489   1.414   1.890 -0.7370  0.6894 -0.7640
  264SOL    HW2 1055   1.606   1.475   1.964  0.2736 -2.1427  1.0604
  264SOL     MW 1056   1.540   1.483   1.902  0.1574 -0.6089  0.2178
  265SOL     OW 1057   0.729   2.817   2.297  0.0908 -0.4833  0.0296
  265SOL    HW1 1058   0.817   2.795   2.274  0.0137  3.5925 -1.2102
  265SOL    HW2 1059   0.708   2.786   2.388  0.8676 -2.6469 -0.4849
  265SOL     MW 1060   0.738   2.810   2.306  0.1831 -0.2310 -0.2019
  266SOL     OW 1061   0.832   0.878   2.137 -0.0652 -0.3395  0.0507
  266SOL    HW1 1062   0.795   0.948   2.081  3.0144  0.8453 -2.1206
  266SOL    HW2 1063   0.896   0.827   2.072  1.1937 -1.6883 -0.5682
  266SOL     MW 1064   0.835   0.881   2.121  0.5073 -0.3611 -0.3174
  267SOL     OW 1065   1.399   1.695   2.646  0.0177  0.5902 -0.1480
  267SOL    HW1 1066   1.461   1.631   2.596  2.3801 -0.6251  1.0867
  267SOL    HW2 1067   1.320   1.697   2.596 -0.7047 -2.3537  0.0733
  267SOL     MW 1068   1.397   1.687   2.633  0.2340  0.0415  0.0441
  268SOL     OW 1069   0.123   0.893   1.767  0.1425 -0.1384 -0.4679
  268SOL    HW1 1070   0.038   0.939   1.765  1.4858  0.7587  3.6240
  268SOL    HW2 1071   0.093   0.821   1.707 -0.9195 -1.2831 -2.0415
  268SOL     MW 1072   0.108   0.890   1.759  0.1796 -0.1711 -0.1356
  269SOL     OW 1073   1.355   1.878   2.325  0.4976  0.1393  0.4564
  269SOL    HW1 1074   1.392   1.958   2.353 -1.8042  0.7459  0.2321
  269SOL    HW2 1075   1.276   1.878   2.375 -0.3099  0.6051  1.0509
  269SOL     MW 1076   1.350   1.889   2.335  0.0874  0.2808  0.5053
  270SOL     OW 1077   1.100   0.372   1.521 -0.0861  1.0547 -0.2958
  270SOL    HW1 1078   1.072   0.287   1.554  0.0971  1.0387 -0.1219
  270SOL    HW2 1079   1.197   0.366   1.517 -2.4218 -0.1111 -0.0210
  270SOL     MW 1080   1.109   0.360   1.525 -0.3701  0.8988 -0.2366
  271SOL     OW 1081   0.892   0.086   2.491 -0.3908 -0.1363  0.1897
  271SOL    HW1 1082   0.943   0.027   2.547  0.1711  1.0278 -1.1156
  271SOL    HW2 1083   0.942   0.165   2.462  1.0462 -1.4158  3.2648
  271SOL     MW 1084   0.906   0.089   2.495 -0.1271 -0.1515  0.4232
  272SOL     OW 1085   1.462   2.769   2.793 -0.0028 -0.3122 -0.5768
  272SOL    HW1 1086   1.419   2.776   2.712  1.3799 -2.3574  0.4174
  272SOL    HW2 1087   1.522   2.848   2.803 -0.5933  0.4649 -0.1926
  272SOL     MW 1088   1.464   2.780   2.784  0.1018 -0.4795 -0.3949
  273SOL     OW 1089   1.471   0.824   2.811  0.5114 -0.0924  0.1890
  273SOL    HW1 1090   1.522   0.747   2.827  0.6534 -1.9424  1.2657
  273SOL    HW2 1091   1.534   0.897   2.824  0.0038 -1.2694  1.6326
  273SOL     MW 1092   1.486   0.823   2.815  0.4632 -0.4918  0.5215
  274SOL     OW 1093   1.437   0.631   0.123 -0.6711 -0.0859 -0.1465
  274SOL    HW1 1094   1.489   0.565   0.168  1.0776  1.6281  1.2084
  274SOL    HW2 1095   1.355   0.639   0.178 -0.3984  1.2384  0.3504
  274SOL     MW 1096   1.433   0.623   0.136 -0.4044  0.3150  0.0978
  275SOL     OW 1097   1.834   0.551   1.735  0.2404  0.3493 -0.1421
  275SOL    HW1 1098   1.870   0.597   1.816  0.7394  0.5659  0.0515
  275SOL    HW2 1099   1.844   0.456   1.760  0.4791 -0.3710  0.5614
  275SOL     MW 1100   1.840   0.545   1.749  0.3377  0.2829 -0.0238
  276SOL     OW 1101   0.388   1.197   1.933 -0.4103 -0.4640 -0.0638
  276SOL    HW1 1102   0.381   1.111   1.978 -0.5906 -2.1335  0.7570
  276SOL    HW2 1103   0.331   1.254   1.986 -1.8533  1.4601  0.7472
  276SOL     MW 1104   0.379   1.193   1.946 -0.6245 -0.4304  0.1515
  277SOL     OW 1105   2.006   1.129   2.478  0.1585 -0.2392  0.5636
  277SOL    HW1 1106   2.018   1.213   2.525  0.9735  1.5621  1.5834
  277SOL    HW2 1107   1.928   1.142   2.424 -0.0979 -0.4816  2.5111
  277SOL     MW 1108   1.997   1.142   2.477  0.2322 -0.0335  0.9551
  278SOL     OW 1109   1.430   0.609   1.661  0.7073  0.0936 -0.5574
  278SOL    HW1 1110   1.451   0.582   1.759 -0.1495 -0.8050 -1.7057
  278SOL    HW2 1111   1.514   0.616   1.614  1.5238 -0.6639 -2.1431
  278SOL     MW 1112   1.444   0.606   1.668  0.7020 -0.1249 -0.9181
  279SOL     OW 1113   0.515   0.115   2.250 -0.0107  0.3824 -0.1758
  279SOL    HW1 1114   0.602   0.063   2.235  2.3638  2.1827  1.5322
  279SOL    HW2 1115   0.542   0.204   2.232 -0.2468  0.7466  0.4118
  279SOL     MW 1116   0.530   0.120   2.246  0.2714  0.6680  0.1271
  280SOL     OW 1117   1.428   1.028   2.220 -0.3374 -0.3522  0.0131
  280SOL    HW1 1118   1.489   0.966   2.182  0.7535 -1.6824 -0.0572
  280SOL    HW2 1119   1.402   1.000   2.308 -3.1496 -2.2294 -1.6423
  280SOL     MW 1120   1.433   1.016   2.227 -0.5645 -0.7753 -0.2146
  281SOL     OW 1121   1.310   1.107   2.754  0.5760 -0.5826  0.3556
  281SOL    HW1 1122   1.378   1.174   2.738  0.7040 -1.1205  0.2393
  281SOL    HW2 1123   1.280   1.121   2.846 -0.9025  2.1920  0.8094
  281SOL     MW 1124   1.315   1.117   2.764  0.3978 -0.2875  0.4002
  282SOL     OW 1125   1.171   1.292   1.633 -0.4120 -0.0977  0.2412
  282SOL    HW1 1126   1.149   1.372   1.594  0.1289  3.2061 -1.1886
  282SOL    HW2 1127   1.087   1.267   1.679  0.2720  1.9563  1.3907
  282SOL     MW 1128   1.157   1.299   1.634 -0.2504  0.6092  0.2042
  283SOL     OW 1129   0.803   1.389   3.087 -0.1834 -0.0035 -0.5484
  283SOL    HW1 1130   0.897   1.374   3.106  0.0211 -1.9229 -0.3703
  283SOL    HW2 1131   0.805   1.484   3.066 -1.6096  2.6021  2.5429
  283SOL     MW 1132   0.816   1.399   3.087 -0.3446  0.0871 -0.1170
  284SOL     OW 1133   0.368   0.680   2.339 -0.3766  0.4904  0.2676
  284SOL    HW1 1134   0.434   0.741   2.306 -0.0417  1.0210 -1.1647
  284SOL    HW2 1135   0.373   0.621   2.261  2.8020 -2.6000  1.8834
  284SOL     MW 1136   0.377   0.680   2.324  0.0870  0.1527  0.2918
  285SOL     OW 1137   0.874   0.830   2.851 -0.0037  0.0926  0.0120
  285SOL    HW1 1138   0.909   0.865   2.769 -0.0874 -1.0392 -0.5795
  285SOL    HW2 1139   0.805   0.765   2.834  0.1451  1.6470  0.7755
  285SOL     MW 1140   0.870   0.826   2.838  0.0049  0.1484  0.0347
  286SOL     OW 1141   1.086   1.480   2.691 -0.0540  0.1881  0.4730
  286SOL    HW1 1142   1.169   1.445   2.677  0.4747  0.9045  0.8910
  286SOL    HW2 1143   1.084   1.551   2.619 -2.8272 -1.3695 -3.3129
  286SOL     MW 1144   1.097   1.485   2.680 -0.3502  0.0771  0.0287
  287SOL     OW 1145   1.144   0.960   0.341 -0.1238 -0.4913 -0.1960
  287SOL    HW1 1146   1.099   0.999   0.421  0.3055  3.2195  2.0956
  287SOL    HW2 1147   1.107   1.000   0.257 -0.5877 -2.8250 -0.8020
  287SOL     MW 1148   1.133   0.971   0.341 -0.1283 -0.3096  0.0264
  288SOL     OW 1149   1.495   0.659   2.131 -0.1994  0.5293 -0.5338
  288SOL    HW1 1150   1.434   0.676   2.196  0.3499 -1.9275  1.5499
  288SOL    HW2 1151   1.547   0.741   2.104  3.0539  0.8522 -0.4993
  288SOL     MW 1152   1.494   0.672   2.136  0.3023  0.2477 -0.2543
  289SOL     OW 1153   0.933   0.955   2.611 -0.0388  0.4000 -0.3079
  289SOL    HW1 1154   0.980   0.899   2.553  0.2948  0.8114 -1.2056
  289SOL    HW2 1155   0.844   0.975   2.568  3.3495 -1.9418  1.6408
  289SOL     MW 1156   0.928   0.950   2.598  0.4523  0.1453 -0.1692
  290SOL     OW 1157   0.754   0.642   1.505 -0.3535  0.0615  0.3464
  290SOL    HW1 1158   0.804   0.572   1.466  0.3727  1.0392  0.8743
  290SOL    HW2 1159   0.763   0.639   1.598 -2.3498  1.0624 -0.3958
  290SOL     MW 1160   0.762   0.632   1.512 -0.5211  0.3226  0.3181
  291SOL     OW 1161   0.239   0.316   0.180 -0.0236  0.3204  0.4147
  291SOL    HW1 1162   0.328   0.292   0.215  0.3308  1.2315  0.3532
  291SOL    HW2 1163   0.216   0.224   0.157 -0.5776 -1.3370  0.9224
  291SOL     MW 1164   0.248   0.300   0.182 -0.0499  0.2219  0.4736
  292SOL     OW 1165   1.015   0.595   0.098  0.0471 -1.1719 -0.1542
  292SOL    HW1 1166   1.086   0.633   0.156  2.1163 -1.7811 -0.8785
  292SOL    HW2 1167   1.028   0.502   0.100  0.4340 -0.6094  2.5865
  292SOL     MW 1168   1.026   0.588   0.106  0.3711 -1.1781  0.1118
  293SOL     OW 1169   0.117   0.080   2.567  0.3327  0.2109 -0.7312
  293SOL    HW1 1170   0.101   0.041   2.484  1.9365  1.5963 -0.5832
  293SOL    HW2 1171   0.039   0.140   2.573 -0.5379 -0.6388 -0.1882
  293SOL     MW 1172   0.105   0.083   2.557  0.4295  0.2816 -0.6401
  294SOL     OW 1173   1.339   0.452   2.357 -0.3270  0.0962 -0.0903
  294SOL    HW1 1174   1.385   0.515   2.415 -0.2438  1.4319  1.8006
  294SOL    HW2 1175   1.356   0.364   2.398  1.0469 -0.4493 -0.7443
  294SOL     MW 1176   1.347   0.449   2.370 -0.1347  0.2005  0.0729
  295SOL     OW 1177   0.855   0.600   2.477 -0.1783  0.1036 -1.1417
  295SOL    HW1 1178   0.839   0.564   2.388  0.2175  1.9517 -0.0014
  295SOL    HW2 1179   0.772   0.622   2.518  0.7121 -0.1356 -3.0004
  295SOL     MW 1180   0.842   0.598   2.470 -0.0086  0.3159 -1.2365
  296SOL     OW 1181   1.340   0.302   2.076  0.5219  0.1429 -0.3311
  296SOL    HW1 1182   1.378   0.220   2.040 -0.5735 -0.3257  2.2155
  296SOL    HW2 1183   1.336   0.288   2.170  1.0706  1.2127  1.1940
  296SOL     MW 1184   1.345   0.289   2.084  0.4498  0.2222  0.2061
  297SOL     OW 1185   1.360   0.335   1.565 -0.2389  0.2287 -0.9516
  297SOL    HW1 1186   1.401   0.412   1.606  1.1946  1.7562 -1.1799
  297SOL    HW2 1187   1.360   0.269   1.636  4.2320 -1.8999 -2.9291
  297SOL     MW 1188   1.365   0.337   1.580  0.5402  0.1494 -1.2427
  298SOL     OW 1189   1.628   0.875   2.059  0.9261  0.7077  0.4609
  298SOL    HW1 1190   1.654   0.944   1.995 -0.2341 -3.1190  1.4320
  298SOL    HW2 1191   1.708   0.837   2.091 -1.3627  1.0873 -0.3894
  298SOL     MW 1192   1.642   0.879   2.055  0.4711  0.2529  0.4769
  299SOL     OW 1193   0.630   1.182   0.058  0.1636 -0.1514 -0.6536
  299SOL    HW1 1194   0.593   1.161  -0.037  1.8351  2.6520 -2.1709
  299SOL    HW2 1195   0.683   1.263   0.038  3.2430 -1.1277 -2.4997
  299SOL     MW 1196   0.632   1.190   0.043  0.7905  0.0897 -1.0974
  300SOL     OW 1197   1.106   1.141   2.552  0.3927  0.5025 -0.0945
  300SOL    HW1 1198   1.046   1.064   2.572  0.9769 -0.6250 -0.5615
  300SOL    HW2 1199   1.187   1.131   2.606  0.5726  1.9200 -1.3446
  300SOL     MW 1200   1.109   1.130   2.561  0.4935  0.5408 -0.3211
  301SOL     OW 1201   1.507   1.021   0.763  0.3031 -0.6889  0.1926
  301SOL    HW1 1202   1.501   1.049   0.856  2.1639 -0.1460  0.8784
  301SOL    HW2 1203   1.434   0.957   0.743 -1.5915 -1.0446  1.1993
  301SOL     MW 1204   1.496   1.016   0.773  0.2986 -0.6642  0.4159
  302SOL     OW 1205   0.218   1.590   2.046  0.7240  0.4894  0.0387
  302SOL    HW1 1206   0.221   1.495   2.041 -1.8776  3.0055 -0.6053
  302SOL    HW2 1207   0.126   1.601   2.047  1.8776 -0.2739 -0.6342
  302SOL     MW 1208   0.206   1.579   2.046  0.5329  0.7207 -0.1350
  303SOL     OW 1209   0.279   1.767   2.712 -0.9201  0.2293  0.2128
  303SOL    HW1 1210   0.241   1.799   2.634 -3.0007 -0.9490  0.0572
  303SOL    HW2 1211   0.211   1.768   2.784 -4.1578 -0.3710 -0.0201
  303SOL     MW 1212   0.265   1.771   2.711 -1.6218 -0.0054  0.1615
  304SOL     OW 1213   0.531   2.059   2.466  0.1247  0.0861 -0.1029
  304SOL    HW1 1214   0.588   2.127   2.421 -0.4738  2.5820 -2.7437
  304SOL    HW2 1215   0.521   1.986   2.404 -0.6748 -1.2324  0.5039
  304SOL     MW 1216   0.537   2.058   2.452 -0.0598  0.2414 -0.3713
  305SOL     OW 1217   1.159   0.645   0.547 -0.0861 -0.0615  0.0391
  305SOL    HW1 1218   1.063   0.637   0.544  1.2903 -0.0797 -1.1832
  305SOL    HW2 1219   1.190   0.558   0.567  2.1894 -3.3043 -0.0293
  305SOL     MW 1220   1.151   0.633   0.549  0.3957 -0.4917 -0.1312
  306SOL     OW 1221   1.099   1.549   0.307  0.6357  0.3576 -0.0404
  306SOL    HW1 1222   1.130   1.465   0.344 -1.6089 -2.2872 -0.3295
  306SOL    HW2 1223   1.156   1.566   0.233  0.0302  0.1104 -1.4124
  306SOL     MW 1224   1.110   1.540   0.302  0.2597 -0.0240 -0.2596
  307SOL     OW 1225   1.454   0.506   1.915  0.0511  0.1178  0.0900
  307SOL    HW1 1226   1.413   0.430   1.957  2.8257 -0.5727  0.8106
  307SOL    HW2 1227   1.456   0.571   1.990  1.1053  0.9041 -0.2322
  307SOL     MW 1228   1.449   0.505   1.931  0.5562  0.1305  0.1426
  308SOL     OW 1229   2.258   0.549   2.749  0.1715  0.6746  0.3411
  308SOL    HW1 1230   2.355   0.546   2.759  0.9652 -0.5576 -1.2335
  308SOL    HW2 1231   2.235   0.638   2.724 -2.1936 -0.0872  1.3679
  308SOL     MW 1232   2.268   0.561   2.747 -0.0359  0.4115  0.2688
  309SOL     OW 1233   0.511   0.548   0.252 -0.2267 -0.3282  0.3495
  309SOL    HW1 1234   0.602   0.573   0.234 -1.1713  2.7325 -1.1318
  309SOL    HW2 1235   0.491   0.457   0.264 -1.4686  0.4526  1.9379
  309SOL     MW 1236   0.520   0.539   0.251 -0.5152  0.1787  0.3637
  310SOL     OW 1237   0.398   0.534   1.860 -0.5308  0.1345 -0.2888
  310SOL    HW1 1238   0.460   0.465   1.829  0.8061  0.4518  1.3441
  310SOL    HW2 1239   0.446   0.617   1.833  2.0245  1.7648 -0.4417
  310SOL     MW 1240   0.413   0.536   1.852 -0.0172  0.3915 -0.0935
  311SOL     OW 1241   1.977   0.641   1.948  0.4466  0.0881 -0.3660
  311SOL    HW1 1242   1.926   0.670   2.021 -0.8140 -1.5139 -2.9152
  311SOL    HW2 1243   2.016   0.552   1.975  1.0388  1.0232 -0.0666
  311SOL     MW 1244   1.975   0.633   1.961  0.3584  0.0001 -0.6628
  312SOL     OW 1245   1.708   2.464   0.153  0.0693  0.3791  0.1605
  312SOL    HW1 1246   1.719   2.438   0.244  0.8959 -2.4316  0.7552
  312SOL    HW2 1247   1.645   2.533   0.158  1.5663  0.3208 -1.2344
  312SOL     MW 1248   1.701   2.470   0.165  0.3759  0.0006  0.0549
  313SOL     OW 1249   0.151   1.151   3.035  0.6469  0.2910 -0.3848
  313SOL    HW1 1250   0.089   1.193   3.100 -0.0356 -0.4109 -0.3622
  313SOL    HW2 1251   0.140   1.223   2.968 -1.0675  1.2863 -1.5135
  313SOL     MW 1252   0.141   1.166   3.035  0.3307  0.3297 -0.5307
  314SOL     OW 1253   2.179   2.908   0.024 -0.0035 -0.5255 -0.3096
  314SOL    HW1 1254   2.120   2.927  -0.056 -0.5102 -0.2177  0.2928
  314SOL    HW2 1255   2.243   2.970   0.030 -3.8168 -4.0677 -1.9485
  314SOL     MW 1256   2.180   2.918   0.014 -0.5735 -0.9523 -0.4464
  315SOL     OW 1257   1.540   1.847   3.010  0.3540 -0.4965  0.2511
  315SOL    HW1 1258   1.490   1.909   3.065 -0.7376  0.9717 -1.5500
  315SOL    HW2 1259   1.595   1.912   2.956 -1.6264  0.4666 -0.5729
  315SOL     MW 1260   1.541   1.864   3.010 -0.0513 -0.1757 -0.0953
  316SOL     OW 1261   1.205   0.661   2.685  0.1293  0.7962 -0.0143
  316SOL    HW1 1262   1.277   0.721   2.712  1.8366  2.4053 -0.1784
  316SOL    HW2 1263   1.160   0.644   2.773  1.2666 -1.2225 -2.2809
  316SOL     MW 1264   1.209   0.667   2.700  0.5046  0.7421 -0.3350
  317SOL     OW 1265   0.697   1.583   2.633  0.6144  0.0671 -0.5773
  317SOL    HW1 1266   0.762   1.512   2.647  3.5405 -2.1102 -0.1734
  317SOL    HW2 1267   0.715   1.608   2.542 -2.9886 -0.4269  2.2053
  317SOL     MW 1268   0.708   1.577   2.623  0.5251 -0.2854 -0.1569
  318SOL     OW 1269   1.371   0.384   2.889 -0.2316  0.2310 -0.5448
  318SOL    HW1 1270   1.304   0.438   2.850  1.9876 -0.0784  0.1573
  318SOL    HW2 1271   1.449   0.443   2.878  2.8955  0.1836  0.6977
  318SOL     MW 1272   1.373   0.399   2.882  0.4738  0.1839 -0.2883
  319SOL     OW 1273   0.784   0.495   2.829 -0.0293  1.1220  0.2557
  319SOL    HW1 1274   0.770   0.406   2.790  0.7400 -1.0365  0.0645
  319SOL    HW2 1275   0.769   0.490   2.920 -0.7350 -2.1554 -3.2380
  319SOL     MW 1276   0.780   0.483   2.836 -0.0209  0.4048 -0.2305
  320SOL     OW 1277   1.031   1.331   1.993 -0.7081  0.3184 -0.0244
  320SOL    HW1 1278   1.087   1.265   2.030  3.3298  0.1588 -2.5776
  320SOL    HW2 1279   1.089   1.385   1.936 -1.5907  1.5238  0.3478
  320SOL     MW 1280   1.046   1.329   1.990 -0.2918  0.4564 -0.3122
  321SOL     OW 1281   1.048   0.883   3.049 -0.2533  0.7313 -0.2738
  321SOL    HW1 1282   0.985   0.864   2.975 -4.0899  0.9022  0.9651
  321SOL    HW2 1283   1.124   0.819   3.037 -2.1837 -1.2123  2.0722
  321SOL     MW 1284   1.050   0.872   3.038 -1.0142  0.4974  0.1992
  322SOL     OW 1285   1.262   0.863   1.658  0.4905  0.0496 -0.0187
  322SOL    HW1 1286   1.311   0.793   1.696  0.0044  0.3281 -0.3844
  322SOL    HW2 1287   1.209   0.899   1.731  1.6654  1.7748 -1.3386
  322SOL     MW 1288   1.262   0.859   1.672  0.5814  0.3139 -0.2411
  323SOL     OW 1289   1.204   1.523   1.900 -0.2555 -0.2574 -0.0949
  323SOL    HW1 1290   1.244   1.556   1.821 -0.7751  0.8301  0.6399
  323SOL    HW2 1291   1.214   1.595   1.963 -1.0615 -0.4600 -0.3248
  323SOL     MW 1292   1.210   1.537   1.898 -0.4304 -0.1407 -0.0283
  324SOL     OW 1293   1.435   0.963   2.522  0.1992 -0.9619 -0.0530
  324SOL    HW1 1294   1.383   0.966   2.594  4.0531  0.4926 -0.7062
  324SOL    HW2 1295   1.515   1.015   2.532 -2.0501 -0.2172 -1.5918
  324SOL     MW 1296   1.438   0.970   2.533  0.4109 -0.6717 -0.3422
  325SOL     OW 1297   1.059   0.533   2.915  0.7992  0.1425  0.0909
  325SOL    HW1 1298   1.050   0.550   3.007 -0.7902 -1.8275  1.5201
  325SOL    HW2 1299   0.966   0.535   2.879 -0.7147 -0.5264 -0.4353
  325SOL     MW 1300   1.045   0.536   2.923  0.3898 -0.2057  0.2100
  326SOL     OW 1301   0.391   1.387   2.326  0.4912  0.1270  0.2593
  326SOL    HW1 1302   0.455   1.353   2.261  1.7238 -1.7676  1.0188
  326SOL    HW2 1303   0.378   1.483   2.301  0.3419  3.2731 -0.4057
  326SOL     MW 1304   0.398   1.395   2.314  0.6342  0.2921  0.2718
  327SOL     OW 1305   1.988   0.778   2.431 -0.5119 -0.3662  0.5438
  327SOL    HW1 1306   1.948   0.736   2.506  2.7652  1.0982  2.2629
  327SOL    HW2 1307   2.022   0.860   2.456  1.3295 -0.8049 -3.2103
  327SOL     MW 1308   1.987   0.783   2.444  0.1634 -0.2309  0.2753
  328SOL     OW 1309   0.214   1.334   2.115  0.0215 -0.2031  0.1323
  328SOL    HW1 1310   0.145   1.265   2.090 -3.3228  1.9591  1.5939
  328SOL    HW2 1311   0.262   1.317   2.193  1.5405  2.4139  1.5486
  328SOL     MW 1312   0.211   1.323   2.122 -0.2193  0.4275  0.5120
  329SOL     OW 1313   0.059   0.099   1.360  0.0929  0.0444 -0.3774
  329SOL    HW1 1314   0.051   0.082   1.457  1.0508 -3.0296  2.9861
  329SOL    HW2 1315   0.152   0.129   1.349 -0.9516 -1.1156  2.7781
  329SOL     MW 1316   0.071   0.100   1.372  0.0815 -0.5142  0.4827
  330SOL     OW 1317   0.379   0.055   2.009 -0.1680  0.0206 -0.5412
  330SOL    HW1 1318   0.463   0.071   2.053 -0.3509 -2.7002  1.1270
  330SOL    HW2 1319   0.342  -0.020   2.059 -0.7101  2.1249  0.3275
  330SOL     MW 1320   0.386   0.047   2.021 -0.2637 -0.0607 -0.2065
  331SOL     OW 1321   0.769   1.251   2.368  0.1398 -0.8300 -0.2547
  331SOL    HW1 1322   0.739   1.329   2.328  0.3580  2.6740 -0.0939
  331SOL    HW2 1323   0.806   1.271   2.455 -0.8872  0.3651 -1.6976
  331SOL     MW 1324   0.770   1.264   2.374  0.0331 -0.2100 -0.4239
  332SOL     OW 1325   1.352   1.652   2.927 -0.1479  0.0097 -0.0075
  332SOL    HW1 1326   1.362   1.636   2.829 -0.1336  0.7437 -1.6368
  332SOL    HW2 1327   1.400   1.733   2.945 -3.7703  0.7433 -1.4067
  332SOL     MW 1328   1.360   1.661   2.917 -0.6239  0.2034 -0.4071
  333SOL     OW 1329   1.689   1.364   2.925  0.6692  0.5671  0.2777
  333SOL    HW1 1330   1.779   1.334   2.925 -1.3688 -1.6944  1.3446
  333SOL    HW2 1331   1.633   1.299   2.978 -1.2832 -1.1376  0.2304
  333SOL     MW 1332   1.694   1.352   2.932  0.1427  0.0438  0.4122
  334SOL     OW 1333   1.347   3.096   2.611  0.1295  0.2185 -0.4417
  334SOL    HW1 1334   1.270   3.072   2.670 -0.0218 -0.4071 -0.3553
  334SOL    HW2 1335   1.409   3.142   2.665  0.1154 -1.5704 -1.5621
  334SOL     MW 1336   1.345   3.099   2.626  0.1077 -0.1000 -0.5781
  335SOL     OW 1337   1.275   0.727   3.002  0.4421  0.0458 -0.2307
  335SOL    HW1 1338   1.314   0.703   3.094 -1.9052  2.5673  1.3669
  335SOL    HW2 1339   1.334   0.778   2.950 -4.4160 -0.0146  1.5082
  335SOL     MW 1340   1.288   0.730   3.007 -0.5086  0.3705  0.2095
  336SOL     OW 1341   0.918   1.165   1.719  0.0931 -0.2447  0.1077
  336SOL    HW1 1342   0.833   1.193   1.765 -4.5231 -0.2237 -0.5585
  336SOL    HW2 1343   0.961   1.101   1.769  1.6511  2.0732 -0.9057
  336SOL     MW 1344   0.912   1.160   1.732 -0.3104  0.0639 -0.1139
  337SOL     OW 1345   0.493   1.958   2.785  0.1893  0.4027  0.1691
  337SOL    HW1 1346   0.434   1.904   2.733 -0.2730 -1.2669  1.2058
  337SOL    HW2 1347   0.580   1.938   2.746 -0.8342 -0.6611  0.7426
  337SOL     MW 1348   0.497   1.949   2.773 -0.0067  0.0421  0.3816
  338SOL     OW 1349   1.051   0.778   2.456  0.0051 -0.5685  0.0383
  338SOL    HW1 1350   0.975   0.713   2.458  1.2042 -0.0978 -1.5475
  338SOL    HW2 1351   1.108   0.737   2.517 -0.5671 -0.7032  0.3920
  338SOL     MW 1352   1.048   0.764   2.464  0.0878 -0.5242 -0.1243
  339SOL     OW 1353   1.407   1.258   1.917  0.0766  1.0307  0.2444
  339SOL    HW1 1354   1.381   1.234   1.827 -2.8728 -1.0581  0.1291
  339SOL    HW2 1355   1.350   1.208   1.978  1.8849 -1.7225  0.8736
  339SOL     MW 1356   1.396   1.248   1.913 -0.0740  0.3919  0.3122
  340SOL     OW 1357   1.289   1.483   0.067 -0.0551  0.2720  0.0643
  340SOL    HW1 1358   1.344   1.521  -0.004 -1.0819 -1.9428  0.7581
  340SOL    HW2 1359   1.352   1.456   0.130  3.1562 -0.3180 -0.6803
  340SOL     MW 1360   1.304   1.484   0.066  0.2331 -0.0980  0.0576
  341SOL     OW 1361   0.138   1.365   2.806  0.5065  0.2447  0.9418
  341SOL    HW1 1362   0.226   1.379   2.830 -1.5404 -0.3794 -1.8863
  341SOL    HW2 1363   0.154   1.332   2.715 -1.2121 -1.0661  0.7874
  341SOL     MW 1364   0.152   1.362   2.797  0.0097 -0.0105  0.5483
  342SOL     OW 1365   1.406   0.335   0.070  0.0907 -0.3153 -0.2078
  342SOL    HW1 1366   1.488   0.367   0.098 -2.3262 -1.7492 -0.2404
  342SOL    HW2 1367   1.390   0.366  -0.020 -3.7567  0.2241 -0.9404
  342SOL     MW 1368   1.414   0.343   0.062 -0.7358 -0.4333 -0.3087
  343SOL     OW 1369   0.229   0.228   2.150 -0.5506  0.0990  0.3235
  343SOL    HW1 1370   0.288   0.169   2.104  1.7993 -0.6569  0.4455
  343SOL    HW2 1371   0.143   0.199   2.127  0.4368  1.0949  0.1957
  343SOL     MW 1372   0.226   0.217   2.141 -0.1103  0.1307  0.3227
  344SOL     OW 1373   1.709   1.990   0.158  0.4003  0.5732  0.4784
  344SOL    HW1 1374   1.744   2.044   0.086 -0.8715 -2.7514  1.8213
  344SOL    HW2 1375   1.644   1.914   0.123 -0.2486 -2.8436  2.7827
  344SOL     MW 1376   1.705   1.987   0.144  0.1469 -0.3162  0.9596
  345SOL     OW 1377   0.679   1.635   2.358 -0.6256 -0.6362 -0.4509
  345SOL    HW1 1378   0.590   1.618   2.333  0.4523  0.6138 -2.4771
  345SOL    HW2 1379   0.730   1.599   2.282  0.2854  1.9092 -1.2815
  345SOL     MW 1380   0.674   1.628   2.344 -0.3632 -0.1354 -0.8279
  346SOL     OW 1381   1.663   1.130   0.037  0.5649  0.4421  0.3896
  346SOL    HW1 1382   1.746   1.143   0.079  0.8415  2.5030  0.7404
  346SOL    HW2 1383   1.616   1.048   0.061 -3.4022  2.5708 -1.8820
  346SOL     MW 1384   1.667   1.121   0.046  0.0779  0.9949  0.1361
  347SOL     OW 1385   1.170   0.611   2.213  0.2055  0.1622 -0.2288
  347SOL    HW1 1386   1.230   0.544   2.252  1.0060 -2.5391  0.5640
  347SOL    HW2 1387   1.126   0.662   2.281  0.1667 -1.1667 -0.2674
  347SOL     MW 1388   1.172   0.609   2.227  0.3060 -0.3696 -0.1293
  348SOL     OW 1389   1.337   2.545   1.918 -0.2749  0.5354  0.3733
  348SOL    HW1 1390   1.347   2.481   1.998 -0.4226  1.5931 -0.3093
  348SOL    HW2 1391   1.315   2.627   1.955  1.0424 -2.4907 -2.2408
  348SOL     MW 1392   1.335   2.548   1.933 -0.1206  0.2757 -0.0617
  349SOL     OW 1393   1.476   0.158   2.790  0.0624 -0.0584  0.0475
  349SOL    HW1 1394   1.426   0.224   2.841 -2.5828  2.4223 -1.4876
  349SOL    HW2 1395   1.512   0.075   2.830  1.0312  1.6961  1.0943
  349SOL     MW 1396   1.474   0.156   2.802 -0.1588  0.5004 -0.0169
  350SOL     OW 1397   1.829   0.643   2.645  0.3779 -0.5693  0.0763
  350SOL    HW1 1398   1.763   0.608   2.585  0.8150 -2.7324  2.8012
  350SOL    HW2 1399   1.866   0.575   2.707  2.9357  1.2436 -1.5449
  350SOL     MW 1400   1.825   0.629   2.645  0.7731 -0.6155  0.2220
  351SOL     OW 1401   0.081   1.167   1.571  0.0165  0.6065 -0.6032
  351SOL    HW1 1402   0.057   1.107   1.641  2.0387  0.8469 -0.0311
  351SOL    HW2 1403   0.144   1.224   1.614 -1.6067  0.5378  2.6961
  351SOL     MW 1404   0.086   1.167   1.586  0.0692  0.6292 -0.0924
  352SOL     OW 1405   0.744   1.841   2.784 -0.7116  0.8415  0.0418
  352SOL    HW1 1406   0.728   1.800   2.867  1.0417  0.8019 -1.1801
  352SOL    HW2 1407   0.748   1.764   2.728  4.0011 -0.5648 -0.7816
  352SOL     MW 1408   0.743   1.825   2.787  0.1415  0.6507 -0.2280
  353SOL     OW 1409  -0.001   2.593   2.630 -0.3763  0.4497 -0.2618
  353SOL    HW1 1410   0.077   2.538   2.622 -1.8606  0.5453 -0.4657
  353SOL    HW2 1411  -0.001   2.651   2.554 -2.3716 -0.2419 -0.4778
  353SOL     MW 1412   0.009   2.594   2.619 -0.8354  0.3710 -0.3172
  354SOL     OW 1413   0.373   2.416   0.836 -0.4407 -0.1674 -0.5609
  354SOL    HW1 1414   0.415   2.399   0.917 -1.0534 -0.9482  0.1728
  354SOL    HW2 1415   0.302   2.358   0.841  4.1373  0.0988 -1.7358
  354SOL     MW 1416   0.369   2.406   0.847  0.0825 -0.2353 -0.6191
  355SOL     OW 1417   0.073   2.223   0.402  0.4098  0.6396  0.4106
  355SOL    HW1 1418  -0.013   2.176   0.384  1.3455 -1.4628  1.3796
  355SOL    HW2 1419   0.049   2.244   0.491  0.3321 -0.9544 -0.5069
  355SOL     MW 1420   0.058   2.220   0.412  0.5230  0.1519  0.4174
  356SOL     OW 1421   0.749   2.961   1.055  0.2628 -0.4766 -0.1919
  356SOL    HW1 1422   0.822   2.953   0.991 -0.6958  1.1921 -0.6262
  356SOL    HW2 1423   0.682   2.910   1.006 -0.0174 -3.9640  0.4819
  356SOL     MW 1424   0.749   2.953   1.040  0.0994 -0.7165 -0.1603
  357SOL     OW 1425   1.849   2.798   0.443  0.4486 -0.3408 -0.2513
  357SOL    HW1 1426   1.819   2.810   0.531  1.6977 -1.3332 -0.1730
  357SOL    HW2 1427   1.932   2.747   0.451 -2.3615 -0.9131 -0.1201
  357SOL     MW 1428   1.856   2.793   0.455  0.2426 -0.5473 -0.2236
  358SOL     OW 1429   0.438   0.146   1.063 -0.2051 -0.1642 -0.6120
  358SOL    HW1 1430   0.538   0.135   1.061  0.5252 -1.7121 -0.1342
  358SOL    HW2 1431   0.412   0.180   0.975  0.4029  0.7483 -1.0216
  358SOL     MW 1432   0.448   0.149   1.051 -0.0285 -0.2480 -0.6030
  359SOL     OW 1433   0.892   2.988   1.850 -0.2858  0.0310 -0.1542
  359SOL    HW1 1434   0.896   2.897   1.883 -2.2712 -4.3898  0.1402
  359SOL    HW2 1435   0.873   2.986   1.760 -0.2427  2.6093  2.4982
  359SOL     MW 1436   0.890   2.975   1.843 -0.5421 -0.2121  0.2346
  360SOL     OW 1437   0.588   2.795   0.913  0.4851  0.0911 -0.0048
  360SOL    HW1 1438   0.612   2.786   0.821 -2.5044  1.5010 -0.3444
  360SOL    HW2 1439   0.581   2.702   0.948 -0.8100 -1.6627 -1.9039
  360SOL     MW 1440   0.590   2.781   0.906 -0.0802  0.0457 -0.3002
  361SOL     OW 1441   0.216   2.697   1.362 -0.4241 -0.5207  0.4467
  361SOL    HW1 1442   0.167   2.749   1.418  0.4800 -0.0785 -0.4842
  361SOL    HW2 1443   0.280   2.768   1.329 -0.3002  1.2072  3.3035
  361SOL     MW 1444   0.218   2.713   1.365 -0.2885 -0.2344  0.7008
  362SOL     OW 1445   1.374   2.417   0.610  0.0055 -0.1948  0.0353
  362SOL    HW1 1446   1.415   2.359   0.675  2.3659 -1.1523  0.7912
  362SOL    HW2 1447   1.432   2.491   0.604 -0.6337  0.9020  2.0083
  362SOL     MW 1448   1.387   2.419   0.618  0.2326 -0.1764  0.3954
  363SOL     OW 1449   0.298   0.008   0.692 -0.2847  0.4949  0.5434
  363SOL    HW1 1450   0.306  -0.078   0.741  1.9381 -0.8724  1.3589
  363SOL    HW2 1451   0.220   0.005   0.633  1.2315 -0.1486 -2.4532
  363SOL     MW 1452   0.289  -0.004   0.690  0.2086  0.2296  0.2556
  364SOL     OW 1453   0.802   0.193   0.129 -0.0489 -0.1943 -0.0949
  364SOL    HW1 1454   0.739   0.124   0.159  1.4225 -0.2231  1.9484
  364SOL    HW2 1455   0.753   0.268   0.107  2.0119  1.4343  3.4737
  364SOL     MW 1456   0.787   0.194   0.130  0.4172  0.0168  0.6455
  365SOL     OW 1457   0.877   2.013   1.241  0.0968  0.2947  0.7087
  365SOL    HW1 1458   0.916   2.096   1.228  0.2862  0.4671  0.5460
  365SOL    HW2 1459   0.829   1.996   1.161  0.3648  1.0939  3.9156
  365SOL     MW 1460   0.876   2.022   1.229  0.1571  0.4229  1.1103
  366SOL     OW 1461   2.930   2.653   0.935  0.0548  0.4193 -0.2856
  366SOL    HW1 1462   3.011   2.637   0.984 -2.3971 -1.1197 -3.2022
  366SOL    HW2 1463   2.956   2.707   0.858 -3.8558  0.4228  0.2610
  366SOL     MW 1464   2.944   2.658   0.931 -0.7847  0.2167 -0.5983
  367SOL     OW 1465   1.231   2.999   1.002  0.5483  0.4154  0.1990
  367SOL    HW1 1466   1.316   3.030   0.994  1.5874 -1.2081  1.1389
  367SOL    HW2 1467   1.229   2.932   0.927  3.0646 -0.3391 -1.6496
  367SOL     MW 1468   1.242   2.995   0.991  1.0174  0.1016  0.0791
  368SOL     OW 1469   1.713   0.448   0.628 -0.3928  0.2429 -0.5423
  368SOL    HW1 1470   1.771   0.383   0.593  0.1950  1.7169 -0.5272
  368SOL    HW2 1471   1.736   0.537   0.593 -1.2382  1.0281  1.3199
  368SOL     MW 1472   1.723   0.451   0.619 -0.4268  0.5409 -0.2946
  369SOL     OW 1473   0.144   2.380   1.740 -0.4072 -0.8328 -0.1328
  369SOL    HW1 1474   0.233   2.395   1.754  0.3318 -0.2620 -0.0333
  369SOL    HW2 1475   0.109   2.471   1.732 -2.6207 -0.5883  0.0532
  369SOL     MW 1476   0.151   2.394   1.741 -0.6018 -0.7252 -0.0951
  370SOL     OW 1477   0.687   0.118   1.045 -0.8106  0.0717 -0.0795
  370SOL    HW1 1478   0.731   0.153   0.964  0.0688  1.5720  1.9611
  370SOL    HW2 1479   0.695   0.013   1.044  3.1204 -1.7436  0.0279
  370SOL     MW 1480   0.694   0.109   1.034 -0.1759  0.0301  0.2039
  371SOL     OW 1481   1.156   2.893   1.470 -0.5223  0.4269 -0.0073
  371SOL    HW1 1482   1.164   2.830   1.398  1.4517 -0.6659 -1.0386
  371SOL    HW2 1483   1.136   2.973   1.423 -1.2287 -0.0321  0.5266
  371SOL     MW 1484   1.154   2.895   1.454 -0.3551  0.2222 -0.0729
  372SOL     OW 1485   0.811   2.341   0.472 -0.0302 -0.0417 -0.7876
  372SOL    HW1 1486   0.777   2.264   0.521  2.7220 -1.1638 -0.6204
  372SOL    HW2 1487   0.842   2.298   0.391 -0.3939 -1.4924  0.2719
  372SOL     MW 1488   0.811   2.325   0.468  0.2849 -0.3812 -0.6257
  373SOL     OW 1489   2.860   3.007   1.417 -0.1556  0.1508  0.1101
  373SOL    HW1 1490   2.930   2.964   1.368  1.4108 -0.5582  0.4143
  373SOL    HW2 1491   2.823   3.057   1.353 -1.1372 -2.0191  2.9151
  373SOL     MW 1492   2.864   3.008   1.402 -0.0785 -0.2290  0.5203
  374SOL     OW 1493   1.600   0.479   0.278 -0.2358  0.4882 -0.2448
  374SOL    HW1 1494   1.683   0.433   0.276  2.8312  0.6787 -1.2392
  374SOL    HW2 1495   1.548   0.441   0.346  0.0923  1.6220  1.1701
  374SOL     MW 1496   1.604   0.468   0.287  0.2121  0.6629 -0.1894
  375SOL     OW 1497   1.053   2.098   2.263  0.5408 -0.6939 -0.3897
  375SOL    HW1 1498   1.071   2.064   2.347  0.7842 -0.9938 -1.8124
  375SOL    HW2 1499   1.003   2.030   2.221  0.6455 -0.4129  0.2196
  375SOL     MW 1500   1.049   2.085   2.269  0.5868 -0.6964 -0.4970
  376SOL     OW 1501   0.805   2.516   0.124  0.7846  0.4004  0.0638
  376SOL    HW1 1502   0.744   2.455   0.159  0.7158 -1.2356 -0.7207
  376SOL    HW2 1503   0.806   2.492   0.028 -1.7068  2.5601 -1.6090
  376SOL     MW 1504   0.797   2.505   0.116  0.4468  0.4695 -0.2605
  377SOL     OW 1505   1.365   2.061   0.922  0.5139  0.0826 -0.2081
  377SOL    HW1 1506   1.279   2.035   0.893 -0.9244  0.1630 -0.4511
  377SOL    HW2 1507   1.357   2.049   1.013 -0.2835  2.9999 -2.7585
  377SOL     MW 1508   1.353   2.056   0.930  0.2189  0.4781 -0.5767
  378SOL     OW 1509   0.883   2.855   1.544 -0.7502  0.5686  0.5504
  378SOL    HW1 1510   0.898   2.768   1.576  5.8311 -1.5628  0.1476
  378SOL    HW2 1511   0.961   2.873   1.484  3.9773 -2.5347  1.2615
  378SOL     MW 1512   0.895   2.846   1.540  0.7419 -0.1221  0.5911
  379SOL     OW 1513   1.081   1.591   2.265 -0.5677 -0.6887  0.9124
  379SOL    HW1 1514   1.015   1.595   2.198  2.1617 -0.0873 -3.0469
  379SOL    HW2 1515   1.142   1.521   2.243  1.9995  1.7653  0.4771
  379SOL     MW 1516   1.080   1.583   2.253  0.1311 -0.2856  0.3326
  380SOL     OW 1517   0.883   0.112   1.459 -0.4937  0.4177  0.3723
  380SOL    HW1 1518   0.914   0.052   1.392 -4.7861  1.6290  1.0651
  380SOL    HW2 1519   0.938   0.094   1.541  1.3827  0.0920 -1.1070
  380SOL     MW 1520   0.894   0.101   1.461 -0.8124  0.5345  0.2685
  381SOL     OW 1521   0.825   2.060   0.854  0.3691  0.1729 -0.0827
  381SOL    HW1 1522   0.922   2.056   0.858  2.8589 -0.1451  0.5060
  381SOL    HW2 1523   0.798   2.129   0.920  1.5261  0.1876 -1.7295
  381SOL     MW 1524   0.834   2.069   0.863  0.8503  0.1329 -0.2223
  382SOL     OW 1525   0.843   0.149   0.585  0.1170 -0.1772 -0.8162
  382SOL    HW1 1526   0.802   0.182   0.667  0.8500  0.8475  1.8692
  382SOL    HW2 1527   0.783   0.086   0.541  0.4790  2.1979 -0.5744
  382SOL     MW 1528   0.830   0.145   0.590  0.2615  0.2714 -0.4300
  383SOL     OW 1529   0.641   0.015   0.318  0.3973 -0.6214 -0.4466
  383SOL    HW1 1530   0.687  -0.051   0.267  0.7560 -0.1913  0.9469
  383SOL    HW2 1531   0.569  -0.023   0.368  1.7854  0.9881 -1.3450
  383SOL     MW 1532   0.637   0.001   0.318  0.6277 -0.3523 -0.3813
  384SOL     OW 1533   0.757   2.984   0.628  0.4854 -0.4780  0.0221
  384SOL    HW1 1534   0.804   2.979   0.714 -1.3108  4.6941 -2.9881
  384SOL    HW2 1535   0.700   2.903   0.633 -1.8439  1.1617  1.3805
  384SOL     MW 1536   0.756   2.973   0.640 -0.0589  0.4207 -0.1958
  385SOL     OW 1537   1.338   2.083   1.523 -0.1558 -0.3610 -0.3108
  385SOL    HW1 1538   1.409   2.128   1.566 -0.1141 -2.2657  0.6440
  385SOL    HW2 1539   1.328   2.006   1.581  1.6533  1.3574  0.7136
  385SOL     MW 1540   1.346   2.079   1.537  0.0884 -0.3856 -0.0497
  386SOL     OW 1541   1.470   0.446   0.895  0.5187  0.0740 -0.4889
  386SOL    HW1 1542   1.415   0.459   0.972 -0.5458  0.6466 -0.7797
  386SOL    HW2 1543   1.557   0.451   0.935 -1.3807 -0.0303  0.3918
  386SOL     MW 1544   1.474   0.449   0.910  0.1277  0.1358 -0.4111
  387SOL     OW 1545   0.790   2.216   1.597  0.0248 -0.0964 -0.1606
  387SOL    HW1 1546   0.848   2.266   1.548 -1.3639 -1.3199  2.3563
  387SOL    HW2 1547   0.828   2.126   1.596 -0.2164  2.3360 -1.0170
  387SOL     MW 1548   0.802   2.210   1.590 -0.1903  0.0631  0.0585
  388SOL     OW 1549   1.473   2.750   1.413 -0.2630  0.4520  0.4513
  388SOL    HW1 1550   1.431   2.828   1.370  1.1732 -1.5962 -1.1200
  388SOL    HW2 1551   1.478   2.688   1.338 -0.7925  0.2328  0.4407
  388SOL     MW 1552   1.468   2.752   1.398 -0.1434  0.1528  0.2426
  389SOL     OW 1553   0.490   0.138   3.062 -0.5828 -0.0199 -0.0586
  389SOL    HW1 1554   0.575   0.102   3.030 -0.0996 -0.0381  1.3034
  389SOL    HW2 1555   0.460   0.180   2.976 -0.4713 -0.1520 -3.5358
  389SOL     MW 1556   0.497   0.139   3.047 -0.5044 -0.0397 -0.3377
  390SOL     OW 1557   1.364   0.029   0.751 -0.2565 -0.2514 -0.2549
  390SOL    HW1 1558   1.404   0.019   0.663  0.6104  1.0974  1.2230
  390SOL    HW2 1559   1.435   0.083   0.784  1.5048  1.4742 -0.5282
  390SOL     MW 1560   1.378   0.035   0.744  0.0902  0.1542 -0.0959
  391SOL     OW 1561   0.329   2.188   1.508 -0.4433  0.0543  0.2286
  391SOL    HW1 1562   0.345   2.192   1.600 -2.7250  0.2811 -2.0007
  391SOL    HW2 1563   0.299   2.280   1.491  1.1608  1.6530 -0.1424
  391SOL     MW 1564   0.327   2.201   1.518 -0.5327  0.2951 -0.1145
  392SOL     OW 1565   1.955   2.205   0.312 -0.1754 -0.7762 -0.2495
  392SOL    HW1 1566   2.011   2.277   0.341 -1.7946 -1.0323 -0.1997
  392SOL    HW2 1567   1.870   2.241   0.303 -0.7729 -0.5979 -0.8285
  392SOL     MW 1568   1.952   2.219   0.314 -0.4679 -0.7865 -0.3193
  393SOL     OW 1569   0.244   2.957   2.862 -0.3753 -0.4735 -0.1718
  393SOL    HW1 1570   0.335   2.931   2.844  2.3254  0.8571  0.8726
  393SOL    HW2 1571   0.237   3.053   2.864  0.0114 -0.8530  0.1673
  393SOL     MW 1572   0.255   2.966   2.860  0.0321 -0.3480  0.0107
  394SOL     OW 1573   1.043   1.786   1.515 -0.0665  0.3280  0.4199
  394SOL    HW1 1574   1.066   1.815   1.607 -0.6095 -1.6057  1.0326
  394SOL    HW2 1575   0.970   1.844   1.488 -2.6945  0.5748  1.1756
  394SOL     MW 1576   1.036   1.798   1.524 -0.4849  0.1054  0.6004
  395SOL     OW 1577   0.927   2.942   2.712  0.7925 -0.4848  0.0417
  395SOL    HW1 1578   1.002   2.985   2.774  0.4620  1.9022 -0.7874
  395SOL    HW2 1579   0.977   2.869   2.665  0.2226 -1.1827 -0.7691
  395SOL     MW 1580   0.944   2.938   2.714  0.6737 -0.2619 -0.1747
  396SOL     OW 1581   0.765   1.912   2.367 -0.0764  0.1671  0.2590
  396SOL    HW1 1582   0.829   1.911   2.439  2.3145  2.3161  1.6629
  396SOL    HW2 1583   0.728   1.826   2.351 -0.8654  0.2963  0.1979
  396SOL     MW 1584   0.768   1.901   2.374  0.1349  0.4677  0.4362
  397SOL     OW 1585   0.990   2.312   1.390  0.5926  0.0704  0.0947
  397SOL    HW1 1586   1.036   2.333   1.311 -0.9570 -1.0271 -1.3917
  397SOL    HW2 1587   1.054   2.307   1.461  1.3877 -1.3619  3.5049
  397SOL     MW 1588   1.004   2.314   1.389  0.4930 -0.2633  0.3486
  398SOL     OW 1589   0.631   2.724   0.658 -0.0081  0.5537  0.3864
  398SOL    HW1 1590   0.583   2.695   0.583  1.1454 -1.9076  2.6652
  398SOL    HW2 1591   0.690   2.648   0.679 -0.2969 -1.1200 -0.8401
  398SOL     MW 1592   0.632   2.710   0.651  0.1060  0.0081  0.5252
  399SOL     OW 1593   0.340   2.094   0.363  0.4808 -0.1924  0.8387
  399SOL    HW1 1594   0.255   2.139   0.375  1.0033 -0.3869 -0.8699
  399SOL    HW2 1595   0.378   2.127   0.278  1.8961 -0.2679 -1.3508
  399SOL     MW 1596   0.334   2.104   0.353  0.7365 -0.2280  0.3244
  400SOL     OW 1597   0.597   1.918   0.074 -0.4904  0.6486  0.2393
  400SOL    HW1 1598   0.566   2.011   0.106  0.4006  0.9904 -0.3574
  400SOL    HW2 1599   0.582   1.857   0.146  1.6105 -0.3645 -1.2102
  400SOL     MW 1600   0.591   1.922   0.088 -0.0957  0.5600 -0.0307
  401SOL     OW 1601   0.841   2.076   0.017  0.7262 -0.3337 -0.2365
  401SOL    HW1 1602   0.916   2.011   0.026  0.0791 -0.4557 -1.9014
  401SOL    HW2 1603   0.761   2.017   0.018 -0.7500 -0.6753 -2.5585
  401SOL     MW 1604   0.841   2.059   0.019  0.4461 -0.3948 -0.7625
  402SOL     OW 1605   0.569   3.018   1.764  0.6356  0.0709  0.2700
  402SOL    HW1 1606   0.640   3.017   1.824 -0.2362  0.9327 -0.3416
  402SOL    HW2 1607   0.587   3.088   1.701  0.9659  2.0484  0.2032
  402SOL     MW 1608   0.581   3.027   1.764  0.5641  0.4455  0.1805
  403SOL     OW 1609   0.156   0.524   0.393  0.1845 -0.3215 -0.2275
  403SOL    HW1 1610   0.232   0.565   0.440  2.5601  0.9448 -0.0110
  403SOL    HW2 1611   0.189   0.466   0.331  0.6801 -0.1196  1.6141
  403SOL     MW 1612   0.170   0.522   0.391  0.5633 -0.1278  0.0441
  404SOL     OW 1613   0.926   2.953   0.847 -0.5415  0.3701 -0.0120
  404SOL    HW1 1614   0.990   2.886   0.832  0.5403 -0.2590  0.0997
  404SOL    HW2 1615   0.978   3.025   0.816 -1.4768 -1.7032 -2.3375
  404SOL     MW 1616   0.941   2.954   0.841 -0.5221  0.0136 -0.3041
  405SOL     OW 1617   0.515   2.465   1.508  0.2332  0.3054 -0.2096
  405SOL    HW1 1618   0.542   2.549   1.478  1.3885  1.6612 -0.2220
  405SOL    HW2 1619   0.542   2.413   1.430  0.9156 -3.0612 -1.3930
  405SOL     MW 1620   0.522   2.469   1.494  0.4757  0.0401 -0.3674
  406SOL     OW 1621   0.417   2.358   1.116  0.6124 -0.0402 -0.2533
  406SOL    HW1 1622   0.324   2.382   1.134 -0.0966 -0.5377  1.1817
  406SOL    HW2 1623   0.441   2.285   1.172  0.8829  0.0127 -2.8074
  406SOL     MW 1624   0.408   2.352   1.126  0.5545 -0.0989 -0.4009
  407SOL     OW 1625   0.050   2.645   1.158  0.1057 -0.4685 -0.7906
  407SOL    HW1 1626   0.098   2.631   1.236 -3.8066 -0.7381 -0.8042
  407SOL    HW2 1627   0.119   2.661   1.094 -0.9253  1.6328 -0.4597
  407SOL     MW 1628   0.066   2.645   1.160 -0.5465 -0.2269 -0.7488
  408SOL     OW 1629   2.126   2.131   0.749  0.2169  0.2862 -0.4582
  408SOL    HW1 1630   2.062   2.205   0.785 -2.6765  0.2122 -0.4752
  408SOL    HW2 1631   2.067   2.096   0.673 -0.0417  0.9079 -3.6791
  408SOL     MW 1632   2.110   2.136   0.744 -0.1990  0.3585 -0.8854
  409SOL     OW 1633   1.626   0.112   0.830 -0.0312 -0.8517  0.0268
  409SOL    HW1 1634   1.684   0.190   0.829 -0.5179  0.6053  1.1557
  409SOL    HW2 1635   1.611   0.098   0.922  1.2435  1.3778 -0.0127
  409SOL     MW 1636   1.632   0.121   0.842  0.0728 -0.3653  0.1706
  410SOL     OW 1637   1.086   2.417   1.145  0.3448  0.0187  0.0998
  410SOL    HW1 1638   1.021   2.432   1.076 -0.2998  1.8592  0.4263
  410SOL    HW2 1639   1.159   2.384   1.102 -2.2574 -0.4911 -0.8283
  410SOL     MW 1640   1.087   2.415   1.131 -0.0836  0.1943  0.0205
  411SOL     OW 1641   2.006   2.951   2.913 -0.2606 -0.0834  0.2123
  411SOL    HW1 1642   1.996   2.913   2.826  2.7148  0.2543 -0.4385
  411SOL    HW2 1643   1.982   3.043   2.903 -0.7311 -0.6021  2.6361
  411SOL     MW 1644   2.001   2.958   2.900  0.0699 -0.1073  0.4462
  412SOL     OW 1645   1.057   2.233   0.605  0.2190  0.4122  0.8199
  412SOL    HW1 1646   1.063   2.317   0.654 -0.9931  1.2066 -0.8096
  412SOL    HW2 1647   1.006   2.260   0.524  2.3050  2.8236 -1.9168
  412SOL     MW 1648   1.051   2.248   0.601  0.3343  0.8352  0.2438
  413SOL     OW 1649   0.611   2.710   0.062  0.5103  0.1760 -0.3669
  413SOL    HW1 1650   0.676   2.639   0.094  0.5536  0.9446 -2.9603
  413SOL    HW2 1651   0.620   2.696  -0.032 -1.6081 -3.6563 -1.7586
  413SOL     MW 1652   0.621   2.699   0.054  0.2365 -0.2282 -0.8927
  414SOL     OW 1653   1.998   3.030   1.075  0.2318 -0.0636  0.3023
  414SOL    HW1 1654   2.031   3.111   1.110 -0.3112  0.2187 -0.1862
  414SOL    HW2 1655   2.035   3.010   0.985  0.8279 -1.7157  0.5803
  414SOL     MW 1656   2.007   3.038   1.068  0.2388 -0.2443  0.2745
  415SOL     OW 1657   1.610   2.829   1.114  0.1628  0.5187 -0.0168
  415SOL    HW1 1658   1.662   2.872   1.183  0.3021 -0.0360  0.9947
  415SOL    HW2 1659   1.678   2.780   1.069 -0.7286  2.6644 -1.3546
  415SOL     MW 1660   1.626   2.828   1.117  0.0636  0.7286 -0.0599
  416SOL     OW 1661   0.631   1.718   1.475  0.2474  1.2145 -0.2613
  416SOL    HW1 1662   0.532   1.701   1.472 -0.1708 -2.3897 -3.1875
  416SOL    HW2 1663   0.673   1.654   1.419  2.1217  0.2886  1.0821
  416SOL     MW 1664   0.624   1.707   1.467  0.4395  0.6168 -0.4701
  417SOL     OW 1665   0.962   0.025   2.097 -0.6119  0.6657 -0.4656
  417SOL    HW1 1666   0.882   0.020   2.158  1.2377 -0.3830  2.1117
  417SOL    HW2 1667   0.929   0.022   2.010 -0.6032 -0.2031  2.1150
  417SOL     MW 1668   0.947   0.024   2.094 -0.3668  0.4127  0.2149
  418SOL     OW 1669   0.731   2.925   0.157 -0.2020 -0.7144  0.6851
  418SOL    HW1 1670   0.802   2.924   0.093 -0.6486  0.3682  0.8399
  418SOL    HW2 1671   0.670   2.850   0.130  0.0270 -0.6616 -1.2873
  418SOL     MW 1672   0.732   2.915   0.145 -0.2307 -0.5646  0.4453
  419SOL     OW 1673   0.602   2.672   1.350  0.2161  0.0843 -0.1334
  419SOL    HW1 1674   0.619   2.765   1.381 -0.2717  1.0265  0.0088
  419SOL    HW2 1675   0.687   2.628   1.349  1.1658 -2.7276  2.7021
  419SOL     MW 1676   0.616   2.678   1.354  0.2771 -0.1624  0.2595
  420SOL     OW 1677   0.792   2.237   1.051 -0.1299  0.1578  1.0399
  420SOL    HW1 1678   0.741   2.248   1.133 -1.8566  0.5195  0.5750
  420SOL    HW2 1679   0.814   2.327   1.019 -0.3690 -2.1634  0.6786
  420SOL     MW 1680   0.788   2.251   1.057 -0.3893 -0.1007  0.9309
  421SOL     OW 1681   2.897   0.184   0.061  0.0336  0.0308  0.5197
  421SOL    HW1 1682   2.847   0.112   0.022 -1.9556  1.0098  1.7467
  421SOL    HW2 1683   2.985   0.163   0.035 -0.7336  1.0543 -2.8861
  421SOL     MW 1684   2.902   0.172   0.052 -0.3300  0.2950  0.2322
  422SOL     OW 1685   0.886   2.499   0.973  0.3137  0.0659 -0.3979
  422SOL    HW1 1686   0.805   2.542   0.986  1.8595 -2.7119  0.1861
  422SOL    HW2 1687   0.917   2.515   0.886 -1.8490 -2.7878  0.2827
  422SOL     MW 1688   0.879   2.507   0.963  0.2323 -0.6771 -0.2311
  423SOL     OW 1689   1.479   0.055   0.477  0.5368 -0.2410  0.3377
  423SOL    HW1 1690   1.530   0.039   0.396 -0.4734 -1.8246 -3.1922
  423SOL    HW2 1691   1.486   0.149   0.480 -1.5766 -2.0453 -0.1967
  423SOL     MW 1692   1.486   0.065   0.467  0.1247 -0.6880 -0.1986
  424SOL     OW 1693   0.648   2.270   1.348  0.2317  0.0088 -0.8716
  424SOL    HW1 1694   0.585   2.203   1.331 -0.0845  1.3531  3.2066
  424SOL    HW2 1695   0.691   2.239   1.427 -0.8231 -0.1639 -2.1934
  424SOL     MW 1696   0.645   2.257   1.356  0.0508  0.1634 -0.5079
  425SOL     OW 1697   1.690   2.793   2.030  0.0569  0.1980  0.1349
  425SOL    HW1 1698   1.714   2.812   1.938  0.7430 -0.1363 -1.1500
  425SOL    HW2 1699   1.754   2.729   2.059 -1.4869 -1.0903  0.0426
  425SOL     MW 1700   1.702   2.787   2.022 -0.0563 -0.0161 -0.0468
  426SOL     OW 1701   0.881   1.708   1.964  0.2892 -0.1120  0.0553
  426SOL    HW1 1702   0.814   1.729   1.899 -0.5749 -0.7480 -1.7631
  426SOL    HW2 1703   0.883   1.786   2.019 -0.8066 -2.2226 -1.6078
  426SOL     MW 1704   0.872   1.721   1.962  0.0306 -0.4744 -0.4041
  427SOL     OW 1705   0.392   1.730   1.901 -0.0004  0.1441 -0.0662
  427SOL    HW1 1706   0.423   1.673   1.835 -2.4292  2.4784  2.5604
  427SOL    HW2 1707   0.346   1.673   1.963 -2.3734  0.5721  1.4902
  427SOL     MW 1708   0.390   1.715   1.901 -0.6340  0.5085  0.4857
  428SOL     OW 1709   0.595   2.571   1.099  0.7224 -0.0502  0.1926
  428SOL    HW1 1710   0.549   2.485   1.116 -2.9721 -1.2386  0.5534
  428SOL    HW2 1711   0.591   2.620   1.183 -0.3690 -2.9556 -0.8927
  428SOL     MW 1712   0.588   2.566   1.112  0.0910 -0.5903  0.0970
  429SOL     OW 1713   1.159   2.725   1.086  0.4725  0.2001 -0.4423
  429SOL    HW1 1714   1.077   2.728   1.134 -0.2360  3.9249 -0.9062
  429SOL    HW2 1715   1.190   2.813   1.070  1.3490 -0.0633  0.1180
  429SOL     MW 1716   1.152   2.737   1.090  0.4947  0.6568 -0.4296
  430SOL     OW 1717   1.162   2.779   0.787  0.1075  0.6234  0.7068
  430SOL    HW1 1718   1.141   2.697   0.835 -1.1044 -1.1841  2.3404
  430SOL    HW2 1719   1.142   2.771   0.695 -1.0042 -2.2661  3.1843
  430SOL     MW 1720   1.157   2.767   0.781 -0.1991  0.0037  1.2492
  431SOL     OW 1721   0.315   1.920   1.107  0.4976  0.0628 -0.2834
  431SOL    HW1 1722   0.389   1.867   1.077  3.3390 -4.0594 -0.2443
  431SOL    HW2 1723   0.259   1.943   1.030 -0.2969  0.1743  0.2708
  431SOL     MW 1724   0.318   1.916   1.093  0.7677 -0.4664 -0.2051
  432SOL     OW 1725   0.055   3.074   1.120 -0.2285 -0.7137 -0.0449
  432SOL    HW1 1726   0.028   3.141   1.185 -0.6611  3.3356 -0.2617
  432SOL    HW2 1727  -0.009   3.007   1.132  0.1762  2.3977 -2.2801
  432SOL     MW 1728   0.043   3.074   1.130 -0.2322  0.2311 -0.3684
  433SOL     OW 1729   0.628   2.934   1.470 -0.1428  0.2636  0.3033
  433SOL    HW1 1730   0.595   2.946   1.560 -0.2052 -0.4521  0.2208
  433SOL    HW2 1731   0.730   2.931   1.495  3.7319  0.7691  1.6077
  433SOL     MW 1732   0.637   2.935   1.485  0.3602  0.2359  0.4645
  434SOL     OW 1733   1.521   2.824   1.659 -0.1480 -0.3710  1.3994
  434SOL    HW1 1734   1.436   2.845   1.698  1.9057  1.7923  2.1335
  434SOL    HW2 1735   1.513   2.798   1.564 -1.0670  0.7029  1.9833
  434SOL     MW 1736   1.509   2.824   1.651  0.0017  0.0561  1.5733
  435SOL     OW 1737   2.733   1.734   0.212 -0.5578 -0.2297  0.3959
  435SOL    HW1 1738   2.790   1.791   0.156  2.1360 -0.1061 -1.4859
  435SOL    HW2 1739   2.645   1.757   0.196 -1.9017  1.3536 -0.2608
  435SOL     MW 1740   2.729   1.745   0.202 -0.3797 -0.0045  0.0610
  436SOL     OW 1741   1.321   2.717   0.320 -0.0052 -0.1262  0.2392
  436SOL    HW1 1742   1.371   2.674   0.387  1.4861 -0.0068  1.4278
  436SOL    HW2 1743   1.327   2.807   0.347 -0.5143 -0.5913  1.2940
  436SOL     MW 1744   1.329   2.723   0.332  0.1244 -0.1718  0.5352
  437SOL     OW 1745   0.991   3.046   1.286 -0.6148  0.2569  0.1050
  437SOL    HW1 1746   1.021   3.106   1.217 -1.4867 -0.7741  1.3269
  437SOL    HW2 1747   0.941   2.977   1.238 -1.4584 -2.3561  0.7739
  437SOL     MW 1748   0.988   3.045   1.271 -0.8411 -0.2239  0.3545
  438SOL     OW 1749   0.902   2.710   1.931 -0.0511 -0.1069  0.9441
  438SOL    HW1 1750   0.898   2.649   2.010  0.1163  1.7083  1.8010
  438SOL    HW2 1751   0.841   2.665   1.869 -2.4813  0.7685 -2.0188
  438SOL     MW 1752   0.893   2.696   1.933 -0.3497  0.2481  0.6662
  439SOL     OW 1753   1.193   2.080   0.437 -0.2654 -0.0479 -0.3225
  439SOL    HW1 1754   1.121   2.119   0.491 -0.6398 -0.4955 -1.2230
  439SOL    HW2 1755   1.206   2.147   0.365  0.5335 -1.1483 -0.1345
  439SOL     MW 1756   1.186   2.094   0.435 -0.2094 -0.2521 -0.4165
  440SOL     OW 1757   1.744   2.898   3.013  0.0222 -1.1506 -0.2491
  440SOL    HW1 1758   1.761   2.922   3.104 -1.0485  1.0120 -1.1894
  440SOL    HW2 1759   1.830   2.912   2.974  2.2313 -0.5642 -0.3576
  440SOL     MW 1760   1.758   2.903   3.020  0.1724 -0.7879 -0.3875
  441SOL     OW 1761   0.483   2.652   0.427  0.8002  0.2799 -0.1612
  441SOL    HW1 1762   0.452   2.584   0.361  1.0141  1.3678 -1.9505
  441SOL    HW2 1763   0.447   2.739   0.402  1.2691  3.4571 -0.5896
  441SOL     MW 1764   0.474   2.655   0.415  0.8903  0.8426 -0.4538
  442SOL     OW 1765   0.025   2.340   0.636 -0.0679 -0.2636 -0.2730
  442SOL    HW1 1766   0.013   2.433   0.607 -0.1383  1.1955 -1.7760
  442SOL    HW2 1767  -0.062   2.317   0.664  0.9737  1.5161 -1.3083
  442SOL     MW 1768   0.012   2.349   0.635  0.0603  0.1637 -0.6079
  443SOL     OW 1769   1.476   1.754   1.920 -0.2809  0.1043  0.4859
  443SOL    HW1 1770   1.446   1.781   1.835 -0.9427 -3.3583  2.5497
  443SOL    HW2 1771   1.483   1.659   1.924  1.2735  2.4576  3.1065
  443SOL     MW 1772   1.473   1.745   1.909 -0.1631 -0.0421  1.1039
  444SOL     OW 1773   0.970   2.583   1.610 -0.4004  0.0070  0.1396
  444SOL    HW1 1774   1.030   2.535   1.669 -1.6409 -2.3762 -0.5608
  444SOL    HW2 1775   0.878   2.568   1.642 -1.6058 -0.7595 -1.3591
  444SOL     MW 1776   0.966   2.575   1.622 -0.7231 -0.4085 -0.1506
  445SOL     OW 1777   1.238   0.109   1.407 -0.3862 -1.2319 -0.0791
  445SOL    HW1 1778   1.305   0.156   1.459  0.3690 -2.9100  1.2220
  445SOL    HW2 1779   1.189   0.171   1.352  1.7801 -0.1030 -0.0305
  445SOL     MW 1780   1.241   0.123   1.407 -0.0008 -1.3043  0.0990
  446SOL     OW 1781   2.785   2.871   1.041  0.2441  0.1379  0.1938
  446SOL    HW1 1782   2.730   2.918   0.973 -0.6595  0.0490  1.7229
  446SOL    HW2 1783   2.823   2.793   1.006 -2.6983 -0.8471  3.4206
  446SOL     MW 1784   2.783   2.867   1.027 -0.2633 -0.0038  0.8213
  447SOL     OW 1785   0.023   1.932   1.557 -0.3208 -0.3197 -0.1739
  447SOL    HW1 1786   0.059   1.867   1.622 -1.7977  2.2152  1.1295
  447SOL    HW2 1787  -0.053   1.891   1.503 -1.8205 -0.9742  1.8624
  447SOL     MW 1788   0.018   1.918   1.558 -0.7135 -0.0716  0.2667
  448SOL     OW 1789   1.720   2.377   1.665 -0.1437 -0.9164 -0.1139
  448SOL    HW1 1790   1.660   2.306   1.673  0.3811 -3.0465  1.1744
  448SOL    HW2 1791   1.676   2.454   1.697  1.9237  0.8896  1.3940
  448SOL     MW 1792   1.707   2.378   1.670  0.1983 -0.9591  0.2550
  449SOL     OW 1793   0.903   2.958   0.398  0.6630 -0.0344 -0.2564
  449SOL    HW1 1794   0.851   2.908   0.336 -0.3772 -0.3752  0.4376
  449SOL    HW2 1795   0.839   2.978   0.467  0.3198  0.4377 -1.5248
  449SOL     MW 1796   0.888   2.954   0.399  0.4805 -0.0171 -0.3322
  450SOL     OW 1797   1.142   2.485   0.785 -0.0116 -0.4959  0.1451
  450SOL    HW1 1798   1.189   2.450   0.868 -1.1068 -0.3916  0.1060
  450SOL    HW2 1799   1.206   2.485   0.713 -1.2435  0.2842 -1.9883
  450SOL     MW 1800   1.156   2.480   0.786 -0.3187 -0.3792 -0.1415
  451SOL     OW 1801   0.529   1.951   1.685  0.5868  1.0039  0.3009
  451SOL    HW1 1802   0.603   1.970   1.625  3.1807  0.8421 -0.1823
  451SOL    HW2 1803   0.465   1.903   1.627 -1.5239  0.2429 -1.3835
  451SOL     MW 1804   0.530   1.947   1.669  0.6506  0.8821  0.0149
  452SOL     OW 1805   0.353   2.640   0.017  0.3768  0.1453 -0.1038
  452SOL    HW1 1806   0.435   2.688   0.021  2.4562 -1.7224  0.8668
  452SOL    HW2 1807   0.295   2.718   0.017  1.7260  2.7086  0.3136
  452SOL     MW 1808   0.356   2.657   0.017  0.8291  0.2371  0.0793
  453SOL     OW 1809   0.262   3.025   1.570 -0.5287 -0.4260 -0.0956
  453SOL    HW1 1810   0.288   2.957   1.634  1.2655  1.9432  1.5818
  453SOL    HW2 1811   0.313   2.997   1.492 -1.6571  0.7858 -2.8629
  453SOL     MW 1812   0.272   3.012   1.568 -0.4408  0.0465 -0.2394
  454SOL     OW 1813   0.921   2.771   1.219 -0.8323  0.1549 -0.4629
  454SOL    HW1 1814   0.916   2.684   1.268  0.2943  1.9327 -2.0568
  454SOL    HW2 1815   0.831   2.783   1.194 -1.3699 -0.4501  1.3307
  454SOL     MW 1816   0.909   2.761   1.222 -0.7546  0.3096 -0.4366
  455SOL     OW 1817   1.787   2.866   0.191  0.5719  0.2097  0.0172
  455SOL    HW1 1818   1.827   2.844   0.275 -2.4126 -2.9550  0.3602
  455SOL    HW2 1819   1.717   2.796   0.180  1.8443 -3.0273 -1.3268
  455SOL     MW 1820   1.783   2.853   0.201  0.3460 -0.6350 -0.1149
  456SOL     OW 1821   2.766   0.268   1.460 -0.0231 -0.1744 -0.0394
  456SOL    HW1 1822   2.780   0.196   1.397 -1.3615  1.1348  0.0045
  456SOL    HW2 1823   2.807   0.347   1.419 -0.1948  2.1737 -1.0259
  456SOL     MW 1824   2.773   0.269   1.446 -0.2223  0.3081 -0.1638
  457SOL     OW 1825   0.798   1.667   3.024  0.0764 -0.7595 -0.2437
  457SOL    HW1 1826   0.704   1.658   3.039  2.4944 -1.2679  2.7454
  457SOL    HW2 1827   0.822   1.708   3.109  0.1561 -0.7689  0.2579
  457SOL     MW 1828   0.789   1.671   3.037  0.4060 -0.8278  0.2169
  458SOL     OW 1829   1.359   1.484   0.707 -0.7941 -0.3079 -0.5075
  458SOL    HW1 1830   1.299   1.540   0.659  2.5552 -1.9317  0.6238
  458SOL    HW2 1831   1.329   1.394   0.694 -1.5397 -0.5188  1.3858
  458SOL     MW 1832   1.347   1.479   0.699 -0.4506 -0.5500 -0.1085
  459SOL     OW 1833   1.633   3.084   0.248  0.4518 -0.0307 -0.2940
  459SOL    HW1 1834   1.684   3.007   0.216  0.3045 -1.2570  0.5107
  459SOL    HW2 1835   1.572   3.109   0.180  0.6098 -0.4598 -1.4761
  459SOL     MW 1836   1.632   3.077   0.235  0.4532 -0.2491 -0.3438
  460SOL     OW 1837   1.782   2.229   0.640  0.4531 -0.2123 -0.8002
  460SOL    HW1 1838   1.692   2.227   0.678  2.5144  0.5291 -0.2697
  460SOL    HW2 1839   1.809   2.133   0.645  0.0509 -0.0198  1.0282
  460SOL     MW 1840   1.774   2.216   0.646  0.6720 -0.0891 -0.4889
  461SOL     OW 1841   0.407   2.424   0.581 -0.2660 -0.4669 -0.1257
  461SOL    HW1 1842   0.453   2.509   0.564 -1.1736  1.7214 -0.7285
  461SOL    HW2 1843   0.404   2.422   0.680 -2.7664  0.8825 -1.8832
  461SOL     MW 1844   0.413   2.435   0.592 -0.7157 -0.0002 -0.4371
  462SOL     OW 1845   0.294   0.235   1.267  0.1893  0.2467 -0.1179
  462SOL    HW1 1846   0.332   0.194   1.189  0.7840  0.4641 -0.7258
  462SOL    HW2 1847   0.362   0.249   1.333  0.0718  0.3965 -1.2670
  462SOL     MW 1848   0.308   0.231   1.265  0.2522  0.2951 -0.3497
  463SOL     OW 1849   1.077   0.054   0.766  0.2509 -0.2204  0.0390
  463SOL    HW1 1850   1.160   0.019   0.727  0.7037 -1.8780  0.3916
  463SOL    HW2 1851   1.032   0.088   0.690  0.0911  2.0948 -0.2889
  463SOL     MW 1852   1.082   0.054   0.751  0.2895 -0.1336  0.0423
  464SOL     OW 1853   0.761   3.098   2.255 -0.0711 -0.5104 -0.2849
  464SOL    HW1 1854   0.737   3.007   2.279 -1.1179  0.6075 -0.0255
  464SOL    HW2 1855   0.787   3.138   2.343 -5.1548 -0.5337 -0.2793
  464SOL     MW 1856   0.761   3.091   2.270 -0.8800 -0.3660 -0.2499
  465SOL     OW 1857   0.804   0.360   0.410  0.4396 -0.3564 -0.0857
  465SOL    HW1 1858   0.802   0.290   0.476  0.1439 -2.2052 -1.2920
  465SOL    HW2 1859   0.748   0.341   0.331 -0.1182 -2.5962 -0.5164
  465SOL     MW 1860   0.797   0.348   0.408  0.3270 -0.8958 -0.3017
  466SOL     OW 1861   1.093   2.034   0.809 -0.0955  0.0046 -0.1527
  466SOL    HW1 1862   1.066   1.966   0.754 -0.7186  1.7422  3.0257
  466SOL    HW2 1863   1.105   2.112   0.752  0.5270  1.0819  3.1658
  466SOL     MW 1864   1.091   2.035   0.794 -0.0956  0.3760  0.7045
  467SOL     OW 1865   1.307   2.338   0.946 -0.1106  0.7735 -0.5911
  467SOL    HW1 1866   1.396   2.350   0.981 -0.8627  2.0892  1.5580
  467SOL    HW2 1867   1.316   2.247   0.923 -0.8528  0.1404  2.1081
  467SOL     MW 1868   1.320   2.327   0.947 -0.3078  0.8636  0.0486
  468SOL     OW 1869   0.506   2.694   1.885  0.1008  0.7027  0.5576
  468SOL    HW1 1870   0.467   2.605   1.880 -0.3621 -1.7545 -4.4079
  468SOL    HW2 1871   0.432   2.765   1.874  1.8418  2.5416  1.9612
  468SOL     MW 1872   0.491   2.692   1.883  0.2694  0.6211  0.0876
  469SOL     OW 1873   0.336   2.098   1.837 -0.6011  0.1898 -0.2673
  469SOL    HW1 1874   0.252   2.051   1.859  1.3631 -2.1213 -2.3390
  469SOL    HW2 1875   0.406   2.032   1.813 -0.6306  0.6466 -0.3632
  469SOL     MW 1876   0.334   2.083   1.837 -0.3458 -0.0548 -0.5533
  470SOL     OW 1877   3.058   2.587   0.095 -0.0487 -0.4337  0.1024
  470SOL    HW1 1878   2.968   2.594   0.134 -0.2542  0.1997 -2.2992
  470SOL    HW2 1879   3.045   2.610   0.003  2.0282 -1.6293  0.9265
  470SOL     MW 1880   3.044   2.591   0.088  0.1982 -0.5079 -0.1058
  471SOL     OW 1881   1.175   2.615   1.376 -0.0867  0.3392 -0.2559
  471SOL    HW1 1882   1.101   2.563   1.401  0.6859 -1.2416 -0.2696
  471SOL    HW2 1883   1.201   2.593   1.284  0.8675 -0.6837 -0.8597
  471SOL     MW 1884   1.169   2.606   1.367  0.1411 -0.0043 -0.3374
  472SOL     OW 1885   2.907   2.109   0.339  1.2301  0.2871 -0.1955
  472SOL    HW1 1886   2.891   2.080   0.249  2.4214 -1.6377 -0.7838
  472SOL    HW2 1887   2.860   2.044   0.391 -3.3852  0.0848  1.0457
  472SOL     MW 1888   2.899   2.097   0.334  0.7783  0.0065 -0.1094
  473SOL     OW 1889   0.839   2.537   1.393  0.2961 -0.3655 -1.0338
  473SOL    HW1 1890   0.855   2.443   1.374  3.2839 -0.8029 -1.0829
  473SOL    HW2 1891   0.902   2.563   1.465 -0.2844 -1.1792 -1.0489
  473SOL     MW 1892   0.849   2.528   1.400  0.6137 -0.5306 -1.0423
  474SOL     OW 1893   0.658   2.310   1.819 -0.2823 -0.4338  0.5394
  474SOL    HW1 1894   0.731   2.286   1.875 -0.4547 -0.2492 -0.3747
  474SOL    HW2 1895   0.674   2.271   1.736  0.5340  2.8373  2.7549
  474SOL     MW 1896   0.670   2.302   1.816 -0.1974  0.0222  0.7111
  475SOL     OW 1897   1.583   3.074   1.524 -0.0628 -0.0561  0.4252
  475SOL    HW1 1898   1.515   3.041   1.467  0.1614  0.2821  0.8617
  475SOL    HW2 1899   1.595   2.993   1.573 -1.5114  1.9798  2.5414
  475SOL     MW 1900   1.576   3.059   1.523 -0.2243  0.2572  0.7620
  476SOL     OW 1901   1.448   2.628   1.176 -0.2948 -0.3694  0.0559
  476SOL    HW1 1902   1.366   2.639   1.129  1.5640 -2.2641  0.9435
  476SOL    HW2 1903   1.495   2.710   1.147  2.2404  1.3562  0.9061
  476SOL     MW 1904   1.443   2.640   1.166  0.2849 -0.3917  0.2852
  477SOL     OW 1905   0.830   2.542   0.653  0.1001 -0.1350  0.7837
  477SOL    HW1 1906   0.880   2.611   0.617 -1.1350 -0.9138  1.4344
  477SOL    HW2 1907   0.823   2.481   0.584 -2.7942  1.3055  0.2428
  477SOL     MW 1908   0.835   2.543   0.639 -0.4447 -0.0477  0.7982
  478SOL     OW 1909   0.216   2.622   0.947  0.2601 -0.4666 -0.2626
  478SOL    HW1 1910   0.259   2.710   0.927  1.3319 -1.4444 -0.4989
  478SOL    HW2 1911   0.271   2.561   0.899 -0.7802  0.2639  0.5155
  478SOL     MW 1912   0.229   2.626   0.938  0.2643 -0.4992 -0.1911
  479SOL     OW 1913   1.397   2.002   1.267  0.4323 -0.0307  0.0253
  479SOL    HW1 1914   1.400   2.023   1.361  1.2666 -0.6791 -1.2135
  479SOL    HW2 1915   1.440   1.917   1.255 -2.5055  0.1610  2.5180
  479SOL     MW 1916   1.403   1.993   1.278  0.1547 -0.0910  0.1907
  480SOL     OW 1917   2.016   2.437   1.336  0.1152 -0.3248  0.3288
  480SOL    HW1 1918   1.997   2.348   1.360  0.8475  0.9247  1.2848
  480SOL    HW2 1919   1.980   2.444   1.243 -3.2201 -3.4418 -2.3938
  480SOL     MW 1920   2.009   2.426   1.327 -0.2282 -0.5712  0.0957
  481SOL     OW 1921   1.043   0.110   1.079 -0.1761  0.1682 -0.3500
  481SOL    HW1 1922   1.104   0.039   1.056 -0.6399 -0.2921  0.6993
  481SOL    HW2 1923   1.101   0.175   1.115  1.4822 -1.1302 -0.9938
  481SOL     MW 1924   1.059   0.109   1.081 -0.0185 -0.0638 -0.2965
  482SOL     OW 1925   1.072   0.019   0.276 -0.5104  0.6033  0.0201
  482SOL    HW1 1926   0.992  -0.028   0.319 -0.9135 -0.3493  0.7987
  482SOL    HW2 1927   1.066   0.116   0.294 -0.1259  2.8901  0.6498
  482SOL     MW 1928   1.061   0.026   0.284 -0.5129  0.7793  0.2059
  483SOL     OW 1929   0.420   3.004   0.445  0.0681  0.0965  0.2658
  483SOL    HW1 1930   0.336   2.988   0.401 -1.4367 -1.2318 -0.6566
  483SOL    HW2 1931   0.397   3.043   0.526  1.0828  0.2237  2.9776
  483SOL     MW 1932   0.406   3.007   0.450  0.0034 -0.0620  0.5019
  484SOL     OW 1933   1.848   1.984   1.475 -0.1126  0.9773 -0.8899
  484SOL    HW1 1934   1.906   2.059   1.464 -3.8665  0.6213 -2.0780
  484SOL    HW2 1935   1.823   1.984   1.569 -1.4586 -2.2151  0.3850
  484SOL     MW 1936   1.852   1.994   1.486 -0.7855  0.5091 -0.8785
  485SOL     OW 1937   0.578   2.391   0.248  0.3434  0.2913  0.4109
  485SOL    HW1 1938   0.616   2.389   0.333  0.8610 -2.5107  0.3696
  485SOL    HW2 1939   0.489   2.436   0.248  0.2920  1.3794  0.3976
  485SOL     MW 1940   0.571   2.397   0.259  0.4049  0.0651  0.4037
  486SOL     OW 1941   0.193   2.416   1.480  0.2883 -0.1655 -0.8797
  486SOL    HW1 1942   0.230   2.502   1.449 -0.8849 -0.1493 -2.2255
  486SOL    HW2 1943   0.184   2.428   1.574 -1.5251 -1.0238 -2.2035
  486SOL     MW 1944   0.197   2.429   1.488 -0.1057 -0.2766 -1.2319
  487SOL     OW 1945   1.209   1.731   1.020 -0.0771  0.2855 -0.1190
  487SOL    HW1 1946   1.175   1.816   1.063  1.5541  3.8203  1.9572
  487SOL    HW2 1947   1.305   1.737   1.022  0.7424  2.6897 -2.4537
  487SOL     MW 1948   1.217   1.743   1.026  0.2463  1.0691 -0.1531
  488SOL     OW 1949   1.595   1.811   0.554 -0.0526 -0.0178  0.3982
  488SOL    HW1 1950   1.687   1.822   0.525  0.0377 -1.5135 -1.3137
  488SOL    HW2 1951   1.554   1.900   0.536 -1.8291  0.1977  1.1883
  488SOL     MW 1952   1.602   1.824   0.548 -0.2751 -0.1867  0.2765
  489SOL     OW 1953   0.796   0.831   0.612  0.0801  0.1395  0.2985
  489SOL    HW1 1954   0.820   0.753   0.554  0.7034 -0.7577  2.0053
  489SOL    HW2 1955   0.755   0.796   0.690 -2.8630  0.6531 -0.1663
  489SOL     MW 1956   0.794   0.816   0.615 -0.2260  0.0889  0.4623
  490SOL     OW 1957   1.472   2.043   0.518 -0.6288 -0.0311  0.3589
  490SOL    HW1 1958   1.504   2.110   0.453  0.4795  1.2814 -1.2602
  490SOL    HW2 1959   1.378   2.050   0.507  2.0232  0.9223 -0.5682
  490SOL     MW 1960   1.464   2.053   0.508 -0.1327  0.2678  0.0230
  491SOL     OW 1961   1.264   2.965   0.427 -0.4239  0.3586 -0.2387
  491SOL    HW1 1962   1.332   3.042   0.444 -0.3766  1.7734  3.1863
  491SOL    HW2 1963   1.192   3.007   0.384 -1.2510 -0.8094 -1.2731
  491SOL     MW 1964   1.264   2.981   0.424 -0.5268  0.3912  0.0767
  492SOL     OW 1965   1.530   2.227   0.754 -0.3251  0.3560  0.4530
  492SOL    HW1 1966   1.506   2.168   0.686 -0.5460  0.6451  0.8958
  492SOL    HW2 1967   1.498   2.183   0.829 -2.3132 -0.0904 -0.7885
  492SOL     MW 1968   1.523   2.214   0.755 -0.6166  0.3352  0.3476
  493SOL     OW 1969   0.183   2.991   0.305  0.4206 -0.6855 -0.4075
  493SOL    HW1 1970   0.147   3.049   0.375  2.0058  0.7540 -1.3723
  493SOL    HW2 1971   0.194   3.050   0.235  2.1677  2.6909  0.6756
  493SOL     MW 1972   0.179   3.006   0.305  0.8603 -0.0501 -0.3919
  494SOL     OW 1973   0.409   2.460   1.759  0.1977 -0.2296  0.2468
  494SOL    HW1 1974   0.451   2.386   1.800 -0.4407  1.6865  0.5101
  494SOL    HW2 1975   0.447   2.461   1.671 -0.1988 -0.6999  2.1217
  494SOL     MW 1976   0.419   2.451   1.753  0.0612 -0.0389  0.5289
  495SOL     OW 1977   2.842   1.738   2.577  0.1397  0.4312 -0.3104
  495SOL    HW1 1978   2.819   1.834   2.568  1.2954  3.9568 -0.4267
  495SOL    HW2 1979   2.835   1.725   2.677 -0.2963  1.3667  0.4018
  495SOL     MW 1980   2.838   1.749   2.589  0.2346  1.0198 -0.2318
  496SOL     OW 1981   2.935   2.369   2.670 -0.1746 -0.0822 -0.1158
  496SOL    HW1 1982   2.985   2.306   2.719 -2.4989  1.7030 -0.0958
  496SOL    HW2 1983   2.977   2.453   2.689  2.0377 -0.8561 -0.0837
  496SOL     MW 1984   2.947   2.372   2.679 -0.1894  0.0513 -0.1090
  497SOL     OW 1985   1.575   2.195   2.631 -0.2542 -0.0079  0.4264
  497SOL    HW1 1986   1.489   2.146   2.629 -2.5223  0.7509  2.3666
  497SOL    HW2 1987   1.627   2.149   2.699 -1.8363 -0.8672  1.1488
  497SOL     MW 1988   1.570   2.182   2.640 -0.7622 -0.0212  0.7777
  498SOL     OW 1989   1.481   2.692   2.384  0.3412  0.1927  0.0240
  498SOL    HW1 1990   1.451   2.604   2.406  1.3134 -0.0175  0.9790
  498SOL    HW2 1991   1.574   2.690   2.377  2.3991  1.6826  0.4335
  498SOL     MW 1992   1.489   2.680   2.386  0.7410  0.3616  0.2041
  499SOL     OW 1993   1.009   0.166   3.044 -0.1602 -0.0729  0.0571
  499SOL    HW1 1994   0.964   0.178   3.123  0.8767 -0.2696 -3.3524
  499SOL    HW2 1995   1.047   0.080   3.046 -2.7921  2.0541 -1.0295
  499SOL     MW 1996   1.008   0.156   3.055 -0.3707  0.1818 -0.5361
  500SOL     OW 1997   1.060   2.493   2.745 -0.8736  0.3468  0.3488
  500SOL    HW1 1998   1.128   2.447   2.801 -0.9148 -2.7823 -0.4798
  500SOL    HW2 1999   0.998   2.526   2.805  0.6063  1.8006 -0.0716
  500SOL     MW 2000   1.061   2.491   2.761 -0.6838  0.1258  0.1840
  501SOL     OW 2001   1.785   2.198   3.082 -0.1682  0.2114  0.3592
  501SOL    HW1 2002   1.732   2.275   3.101 -1.6350 -0.5437  0.3012
  501SOL    HW2 2003   1.874   2.219   3.110 -0.5171  0.7101 -3.8490
  501SOL     MW 2004   1.790   2.211   3.088 -0.4078  0.1775 -0.2037
  502SOL     OW 2005   0.151   2.807   3.061 -0.1655  0.1106 -0.1938
  502SOL    HW1 2006   0.083   2.761   3.014  1.8936  1.1406  0.5003
  502SOL    HW2 2007   0.197   2.855   2.983 -1.2915 -2.2420 -2.7788
  502SOL     MW 2008   0.148   2.807   3.045 -0.0424 -0.0639 -0.4433
  503SOL     OW 2009   0.982   2.857   2.165 -0.5073  0.1071  0.0024
  503SOL    HW1 2010   0.926   2.829   2.097  3.3730  0.8356  0.6925
  503SOL    HW2 2011   0.962   2.951   2.160  1.1178 -4.1406  0.1361
  503SOL     MW 2012   0.972   2.866   2.155  0.2191 -0.3573  0.1111
  504SOL     OW 2013   0.040   2.740   2.150 -0.2295  0.6961  0.1017
  504SOL    HW1 2014   0.077   2.664   2.103  2.9514 -1.9635  2.1247
  504SOL    HW2 2015   0.047   2.731   2.249  0.1580 -1.3269  2.9979
  504SOL     MW 2016   0.046   2.728   2.157  0.2413  0.0783  0.7507
  505SOL     OW 2017   1.706   2.718   2.668  0.3073  0.3506 -0.1320
  505SOL    HW1 2018   1.720   2.711   2.575  0.3445  4.6930  1.1219
  505SOL    HW2 2019   1.610   2.725   2.690 -0.2868  2.0792 -1.6412
  505SOL     MW 2020   1.695   2.718   2.659  0.2339  1.1516 -0.1657
  506SOL     OW 2021   1.608   3.019   2.810  0.0437 -0.0095 -0.1201
  506SOL    HW1 2022   1.642   2.978   2.892 -1.1000  0.0129  0.6107
  506SOL    HW2 2023   1.680   3.018   2.743  0.8726 -0.3729  1.0538
  506SOL     MW 2024   1.622   3.014   2.812  0.0021 -0.0545  0.1312
  507SOL     OW 2025   0.845   2.738   2.860 -0.0715  0.3080  0.5206
  507SOL    HW1 2026   0.889   2.810   2.816 -2.2393 -3.9141  1.6447
  507SOL    HW2 2027   0.774   2.796   2.889  0.2843 -2.0360 -1.4113
  507SOL     MW 2028   0.841   2.755   2.858 -0.3106 -0.5584  0.4140
  508SOL     OW 2029   1.127   2.044   2.534 -0.0479 -0.3556  0.4162
  508SOL    HW1 2030   1.203   2.022   2.588 -0.0595  1.1394 -1.2012
  508SOL    HW2 2031   1.088   2.114   2.588 -1.7128 -0.1783 -2.4514
  508SOL     MW 2032   1.132   2.051   2.548 -0.2691 -0.1350 -0.1756
  509SOL     OW 2033   0.611   2.554   2.942 -0.3224 -0.0935 -0.1932
  509SOL    HW1 2034   0.628   2.586   2.858  1.0884 -1.0992  2.3534
  509SOL    HW2 2035   0.521   2.529   2.937 -1.0082 -0.8007  0.5490
  509SOL     MW 2036   0.602   2.555   2.930 -0.2267 -0.3195  0.2407
  510SOL     OW 2037   1.515   2.565   1.725 -0.4953  0.0792  0.3294
  510SOL    HW1 2038   1.511   2.658   1.719 -0.1995  1.2310 -0.0497
  510SOL    HW2 2039   1.446   2.542   1.786  0.2272 -0.2397 -2.0962
  510SOL     MW 2040   1.506   2.574   1.732 -0.3609  0.1891 -0.0406
  511SOL     OW 2041   0.389   2.612   2.428 -0.4408  0.0754  0.4400
  511SOL    HW1 2042   0.464   2.612   2.491 -0.2297  2.1466 -2.6926
  511SOL    HW2 2043   0.412   2.583   2.335 -1.7582  0.8472 -0.8337
  511SOL     MW 2044   0.402   2.608   2.424 -0.5868  0.4505 -0.1414
  512SOL     OW 2045   1.015   1.978   2.822  0.3569  0.2801  0.2600
  512SOL    HW1 2046   0.923   2.004   2.833 -0.6081 -0.3044 -0.5948
  512SOL    HW2 2047   1.028   1.888   2.851  0.4418  0.0247 -1.6214
  512SOL     MW 2048   1.005   1.970   2.828  0.2407  0.1693 -0.1010
  513SOL     OW 2049   1.441   2.398   2.393 -0.1302 -0.1806  0.0081
  513SOL    HW1 2050   1.533   2.416   2.380  1.9205 -0.7036 -0.8859
  513SOL    HW2 2051   1.443   2.315   2.438 -0.2884  0.6114  1.3448
  513SOL     MW 2052   1.454   2.390   2.397  0.1195 -0.1451  0.0665
  514SOL     OW 2053   0.244   2.441   2.618 -0.0947 -0.3379 -0.2172
  514SOL    HW1 2054   0.278   2.507   2.561  0.9171  1.1353  0.4122
  514SOL    HW2 2055   0.252   2.468   2.714 -0.2887 -1.6607 -0.2233
  514SOL     MW 2056   0.250   2.454   2.623  0.0132 -0.3180 -0.1350
  515SOL     OW 2057   1.093   2.034   1.963  0.1998 -0.2739 -0.0889
  515SOL    HW1 2058   1.037   2.113   1.949  3.9353 -1.5418  0.3698
  515SOL    HW2 2059   1.134   2.038   2.049  3.1919 -0.0961  1.0889
  515SOL     MW 2060   1.091   2.045   1.973  1.0875 -0.4177  0.1270
  516SOL     OW 2061   1.467   2.523   3.075 -0.0623  0.4615 -0.2644
  516SOL    HW1 2062   1.543   2.521   3.010  0.3376 -2.1945  1.4330
  516SOL    HW2 2063   1.392   2.485   3.023  0.0347 -2.7708 -4.1857
  516SOL     MW 2064   1.467   2.517   3.060  0.0032 -0.3154 -0.5578
  517SOL     OW 2065   0.601   2.405   2.137 -0.1657  0.4128 -0.3306
  517SOL    HW1 2066   0.594   2.497   2.158  0.3687 -3.3104  0.5326
  517SOL    HW2 2067   0.520   2.368   2.114 -0.5072  0.4211 -0.4165
  517SOL     MW 2068   0.589   2.412   2.136 -0.1402 -0.0774 -0.2280
  518SOL     OW 2069   1.897   0.092   2.946 -0.1314 -0.2712  0.3195
  518SOL    HW1 2070   1.850   0.161   2.897 -1.0220 -0.3172  2.5631
  518SOL    HW2 2071   1.845   0.088   3.028 -0.5188  1.4385  0.5231
  518SOL     MW 2072   1.884   0.101   2.950 -0.3000 -0.0517  0.6424
  519SOL     OW 2073   0.746   2.576   1.757  0.1410  0.0263  0.2443
  519SOL    HW1 2074   0.710   2.493   1.736 -0.6304 -1.7207 -2.1425
  519SOL    HW2 2075   0.671   2.627   1.787  1.1020  2.0350 -0.4025
  519SOL     MW 2076   0.731   2.572   1.758  0.1660  0.0608 -0.1560
  520SOL     OW 2077   1.248   2.114   2.934 -0.6667  0.1788 -0.7069
  520SOL    HW1 2078   1.171   2.062   2.907 -1.4718  1.1097 -0.1654
  520SOL    HW2 2079   1.285   2.067   3.007 -1.7905  0.4914 -2.4606
  520SOL     MW 2080   1.243   2.101   2.940 -0.9212  0.3429 -0.8668
  521SOL     OW 2081   1.732   2.037   2.237 -0.1498 -0.1450 -0.4564
  521SOL    HW1 2082   1.735   2.066   2.146  2.3239  0.3543 -0.4105
  521SOL    HW2 2083   1.725   1.943   2.243  1.8039 -0.2065 -0.6338
  521SOL     MW 2084   1.731   2.028   2.226  0.4343 -0.0872 -0.4738
  522SOL     OW 2085   2.829   2.545   2.176 -0.2459  0.1106 -0.2061
  522SOL    HW1 2086   2.909   2.532   2.221 -3.8127  2.3611 -0.1020
  522SOL    HW2 2087   2.760   2.558   2.238  0.9871 -1.2274 -0.7533
  522SOL     MW 2088   2.830   2.545   2.190 -0.5538  0.2310 -0.2645
  523SOL     OW 2089   0.860   1.487   2.117 -0.3319 -0.2324  0.1009
  523SOL    HW1 2090   0.854   1.566   2.059  1.2309  0.6109  2.7881
  523SOL    HW2 2091   0.911   1.423   2.059  0.3773 -0.3368  0.0569
  523SOL     MW 2092   0.866   1.489   2.102 -0.0321 -0.1349  0.4496
  524SOL     OW 2093   0.885   2.470   2.954 -0.2735 -0.0027  0.3025
  524SOL    HW1 2094   0.830   2.542   2.914 -1.0888  1.7733  0.7437
  524SOL    HW2 2095   0.863   2.382   2.926  0.9056  0.1096  0.4679
  524SOL     MW 2096   0.875   2.468   2.945 -0.2255  0.2464  0.3825
  525SOL     OW 2097   0.350   2.261   2.075  0.1259  0.3895 -0.1288
  525SOL    HW1 2098   0.339   2.193   2.152  1.5930  0.0682  0.9711
  525SOL    HW2 2099   0.343   2.209   1.988 -0.4642 -1.7410  0.8399
  525SOL     MW 2100   0.347   2.245   2.074  0.2416  0.0660  0.1441
  526SOL     OW 2101   0.644   2.082   2.030 -0.0872  0.2637  0.6354
  526SOL    HW1 2102   0.613   2.134   1.957 -1.0730 -0.9467  3.0719
  526SOL    HW2 2103   0.590   2.109   2.099  0.3505 -0.3571 -0.7634
  526SOL     MW 2104   0.633   2.093   2.029 -0.1595  0.0221  0.7723
  527SOL     OW 2105   1.364   1.963   2.043  0.7434 -0.3900  0.1757
  527SOL    HW1 2106   1.348   1.943   2.133  1.4548  2.9107  1.6476
  527SOL    HW2 2107   1.388   1.873   2.016  0.7324 -1.3909  3.0373
  527SOL     MW 2108   1.365   1.949   2.051  0.8358 -0.0866  0.7474
  528SOL     OW 2109   0.653   2.924   2.933 -0.1409  0.4160  0.7992
  528SOL    HW1 2110   0.692   3.007   2.955 -0.0638 -0.2193 -1.3467
  528SOL    HW2 2111   0.589   2.936   2.864  0.5870 -0.7711 -1.1452
  528SOL     MW 2112   0.650   2.937   2.927 -0.0347  0.1756  0.2595
  529SOL     OW 2113   0.938   2.266   1.928  0.4267  0.0283  0.5623
  529SOL    HW1 2114   0.979   2.286   2.012  1.7322 -3.7777  1.4842
  529SOL    HW2 2115   0.987   2.313   1.860 -1.1274 -1.1596  2.2627
  529SOL     MW 2116   0.950   2.275   1.930  0.3939 -0.6306  0.9083
  530SOL     OW 2117   1.219   2.416   2.988  0.2915 -0.2389  0.0624
  530SOL    HW1 2118   1.146   2.456   3.047  1.9705  0.4637 -0.6485
  530SOL    HW2 2119   1.210   2.322   2.975  2.3220  0.9258 -0.2845
  530SOL     MW 2120   1.208   2.409   2.994  0.7810  0.0074 -0.0772
  531SOL     OW 2121   0.927   1.853   2.565 -0.6069  0.0099 -0.1828
  531SOL    HW1 2122   0.984   1.926   2.578  2.7324  0.6169 -1.1014
  531SOL    HW2 2123   0.857   1.865   2.637  0.8741 -3.0164 -1.7400
  531SOL     MW 2124   0.925   1.864   2.576  0.0291 -0.3093 -0.5095
  532SOL     OW 2125   1.785   0.279   2.767  0.0528 -0.3403  0.1759
  532SOL    HW1 2126   1.713   0.242   2.716 -2.0407 -2.3696 -0.0011
  532SOL    HW2 2127   1.864   0.268   2.706 -1.0439 -1.9872 -1.8550
  532SOL     MW 2128   1.786   0.273   2.753 -0.3681 -0.8253 -0.1154
  533SOL     OW 2129   1.889   2.631   3.077  0.9901 -0.8413  0.3971
  533SOL    HW1 2130   1.842   2.559   3.122 -1.4422 -0.0579  1.2788
  533SOL    HW2 2131   1.826   2.699   3.076 -1.3472  0.8846 -0.0841
  533SOL     MW 2132   1.874   2.630   3.083  0.3608 -0.5102  0.4499
  534SOL     OW 2133   1.735   2.384   2.479 -0.5096 -0.1627 -0.1578
  534SOL    HW1 2134   1.663   2.329   2.517 -0.7592 -0.4929 -1.5524
  534SOL    HW2 2135   1.810   2.387   2.543  0.2171  0.8028  2.4397
  534SOL     MW 2136   1.735   2.377   2.492 -0.4467 -0.0788  0.0009
  535SOL     OW 2137   1.886   2.412   1.889  0.1871  0.3540 -0.7217
  535SOL    HW1 2138   1.849   2.412   1.801  1.9116 -1.2883 -2.0091
  535SOL    HW2 2139   1.973   2.383   1.860 -0.1237 -0.3217  0.1444
  535SOL     MW 2140   1.892   2.408   1.873  0.3737  0.0481 -0.7773
  536SOL     OW 2141   0.534   1.859   2.094 -0.4723  0.2922  0.1262
  536SOL    HW1 2142   0.483   1.833   2.015 -0.9646 -1.1260  2.6564
  536SOL    HW2 2143   0.594   1.930   2.067 -4.0466 -0.3671  1.5461
  536SOL     MW 2144   0.535   1.865   2.080 -1.0088  0.0181  0.6474
  537SOL     OW 2145   1.080   0.231   2.781 -0.1791  0.5230  0.3487
  537SOL    HW1 2146   1.076   0.267   2.871  1.0394 -0.0654 -1.2291
  537SOL    HW2 2147   1.086   0.309   2.719  0.6009  1.1191 -1.3020
  537SOL     MW 2148   1.080   0.246   2.785  0.0845  0.5240 -0.0773
  538SOL     OW 2149   1.443   0.063   0.046 -0.4657 -0.2019  0.4579
  538SOL    HW1 2150   1.418   0.155   0.060  0.2969  1.5465 -2.3476
  538SOL    HW2 2151   1.361   0.028   0.023 -1.9947  2.0038 -0.4843
  538SOL     MW 2152   1.429   0.071   0.045 -0.5668  0.3198 -0.0365
  539SOL     OW 2153   0.684   2.797   2.566 -0.0889 -0.1662  0.2636
  539SOL    HW1 2154   0.753   2.854   2.597 -2.4672  2.8596  0.9957
  539SOL    HW2 2155   0.693   2.705   2.596 -1.2590 -2.2846  1.3737
  539SOL     MW 2156   0.694   2.792   2.574 -0.5571 -0.0465  0.5066
  540SOL     OW 2157   0.246   2.475   2.904 -0.2004 -0.1154 -0.0645
  540SOL    HW1 2158   0.258   2.556   2.960  3.0887  0.8411 -0.6887
  540SOL    HW2 2159   0.244   2.404   2.975  1.5697  0.4232 -0.0467
  540SOL     MW 2160   0.248   2.476   2.920  0.4671  0.0818 -0.1445
  541SOL     OW 2161   0.225   2.934   2.123  0.2575  0.1685  0.2830
  541SOL    HW1 2162   0.152   2.871   2.119  2.5872 -0.1575 -0.7509
  541SOL    HW2 2163   0.273   2.912   2.205  2.4829 -1.2613  1.9716
  541SOL     MW 2164   0.221   2.923   2.133  0.8585 -0.0631  0.3693
  542SOL     OW 2165   0.994   2.260   2.620 -0.1386 -0.1622 -0.8323
  542SOL    HW1 2166   0.926   2.222   2.676  0.1573 -0.0345 -1.8438
  542SOL    HW2 2167   1.024   2.345   2.668  1.3562  0.8023 -0.6988
  542SOL     MW 2168   0.989   2.266   2.634  0.0977 -0.0181 -0.9482
  543SOL     OW 2169   1.625   2.448   2.800 -0.5095 -0.1254  0.0393
  543SOL    HW1 2170   1.597   2.370   2.743  0.8784 -2.3795  0.8415
  543SOL    HW2 2171   1.679   2.490   2.735 -1.2745 -1.0670  0.3946
  543SOL     MW 2172   1.629   2.443   2.784 -0.4273 -0.5471  0.1920
  544SOL     OW 2173   0.716   0.257   2.695 -0.5511  0.6022 -0.0302
  544SOL    HW1 2174   0.618   0.262   2.699  0.0174  1.8795  1.3962
  544SOL    HW2 2175   0.748   0.194   2.630  0.8110  0.7994  2.4922
  544SOL     MW 2176   0.707   0.250   2.687 -0.2964  0.7968  0.4908
  545SOL     OW 2177   1.488   2.125   2.321 -0.0965  0.0703  0.2176
  545SOL    HW1 2178   1.468   2.158   2.232 -1.3369 -1.1873 -1.2795
  545SOL    HW2 2179   1.583   2.089   2.321  1.8447  1.7968  0.2299
  545SOL     MW 2180   1.498   2.125   2.310 -0.0040  0.1322  0.0217
  546SOL     OW 2181   2.868   1.968   0.097  0.6340 -0.3054  0.2889
  546SOL    HW1 2182   2.865   2.049   0.048 -2.5365 -1.0915  0.2634
  546SOL    HW2 2183   2.966   1.954   0.096 -1.9032 -2.5203  0.1171
  546SOL     MW 2184   2.881   1.977   0.090 -0.1190 -0.7014  0.2628
  547SOL     OW 2185   0.223   0.057   0.081 -0.0527  0.2189 -0.2105
  547SOL    HW1 2186   0.294   0.036   0.027 -0.5255 -0.0580  0.6650
  547SOL    HW2 2187   0.138   0.034   0.039 -1.5410 -0.8530  0.2039
  547SOL     MW 2188   0.221   0.051   0.069 -0.3115  0.0410 -0.0403
  548SOL     OW 2189   0.313   2.466   0.208 -0.2479  0.7070  0.0608
  548SOL    HW1 2190   0.338   2.520   0.132  1.1637  2.6126  1.2442
  548SOL    HW2 2191   0.225   2.432   0.188  3.0597  1.6656  1.0583
  548SOL     MW 2192   0.304   2.469   0.195  0.3748  1.0849  0.3486
  549SOL     OW 2193   0.867   1.918   2.123 -0.1705  0.1640 -0.9682
  549SOL    HW1 2194   0.827   1.992   2.078  1.0083 -2.2888 -0.0296
  549SOL    HW2 2195   0.823   1.910   2.209 -0.8806 -1.5086  2.3339
  549SOL     MW 2196   0.856   1.927   2.129 -0.1087 -0.3803 -0.4087
  550SOL     OW 2197   1.911   1.735   2.513  0.0403 -0.5725 -0.2264
  550SOL    HW1 2198   1.883   1.758   2.422  1.5951 -0.7371  0.0391
  550SOL    HW2 2199   1.863   1.787   2.581  0.2093 -2.3175 -1.1254
  550SOL     MW 2200   1.901   1.745   2.510  0.2677 -0.8245 -0.3100
  551SOL     OW 2201   0.896   2.216   0.252  0.3626  0.2034 -0.2664
  551SOL    HW1 2202   0.985   2.224   0.216 -3.0876 -2.9379 -0.3459
  551SOL    HW2 2203   0.859   2.164   0.185  2.4691 -0.5896  0.1757
  551SOL     MW 2204   0.903   2.210   0.238  0.1853 -0.3157 -0.2186
  552SOL     OW 2205   1.739   1.763   2.270 -0.2371 -0.8356 -0.6656
  552SOL    HW1 2206   1.656   1.729   2.292 -2.8048 -3.2207 -1.0698
  552SOL    HW2 2207   1.778   1.706   2.201 -0.8558 -1.6505  1.3108
  552SOL     MW 2208   1.733   1.751   2.264 -0.6575 -1.2578 -0.4582
  553SOL     OW 2209   1.208   2.309   1.541  0.1500  0.4596 -0.3122
  553SOL    HW1 2210   1.248   2.217   1.538 -0.0946 -0.1625  1.0623
  553SOL    HW2 2211   1.273   2.368   1.505  0.4757  1.1009 -0.4243
  553SOL     MW 2212   1.222   2.305   1.536  0.1607  0.4621 -0.1457
  554SOL     OW 2213   0.489   2.910   2.719 -0.0971  0.5340 -0.5312
  554SOL    HW1 2214   0.477   2.995   2.678  3.2254 -0.8114  1.5933
  554SOL    HW2 2215   0.531   2.856   2.652 -0.7015 -1.4266  0.3928
  554SOL     MW 2216   0.493   2.914   2.705  0.2615  0.0978 -0.1290
  555SOL     OW 2217   0.578   2.489   2.605  0.4063  0.3964  0.4134
  555SOL    HW1 2218   0.523   2.410   2.631  0.7654 -0.6970  1.0798
  555SOL    HW2 2219   0.667   2.458   2.579 -0.4428  2.3553  2.6169
  555SOL     MW 2220   0.583   2.475   2.605  0.3416  0.5106  0.7920
  556SOL     OW 2221   1.065   1.887   0.049  0.3766 -0.6864  0.1638
  556SOL    HW1 2222   1.090   1.820  -0.015  1.0307 -0.5121 -0.1557
  556SOL    HW2 2223   1.129   1.889   0.117 -1.2557  0.0383  1.5252
  556SOL     MW 2224   1.076   1.878   0.050  0.2476 -0.5678  0.3012
  557SOL     OW 2225   1.034   2.724   0.537  0.3105  0.3286  0.3782
  557SOL    HW1 2226   1.098   2.662   0.492 -1.1263  1.3643  0.7338
  557SOL    HW2 2227   1.021   2.801   0.478  1.3192 -0.7099 -1.6263
  557SOL     MW 2228   1.041   2.726   0.523  0.2540  0.3282  0.1606
  558SOL     OW 2229   0.190   2.222   3.048  0.3813 -0.1163  0.2322
  558SOL    HW1 2230   0.118   2.227   2.986 -1.2229  0.8935 -0.0148
  558SOL    HW2 2231   0.153   2.227   3.132  1.5379 -0.1521  2.0345
  558SOL     MW 2232   0.175   2.223   3.051  0.3223  0.0122  0.4374
  559SOL     OW 2233   1.064   2.357   2.143  0.3705  0.1990  0.5081
  559SOL    HW1 2234   1.156   2.363   2.129 -0.3962  0.5619  1.3638
  559SOL    HW2 2235   1.051   2.292   2.216 -0.9150  0.6403  0.4083
  559SOL     MW 2236   1.075   2.350   2.151  0.0997  0.3051  0.6078
  560SOL     OW 2237   2.102   2.672   0.153  0.8148 -0.1813  0.3400
  560SOL    HW1 2238   2.163   2.748   0.138  1.1175  0.4891  1.1787
  560SOL    HW2 2239   2.028   2.677   0.091  0.5978 -0.5865  1.1390
  560SOL     MW 2240   2.100   2.683   0.143  0.8261 -0.1463  0.5561
  561SOL     OW 2241   0.501   2.168   0.121  0.0461  0.2490  1.2732
  561SOL    HW1 2242   0.496   2.199   0.030  2.5016 -0.3119  1.9765
  561SOL    HW2 2243   0.541   2.245   0.170 -1.0097 -1.1421  0.0443
  561SOL     MW 2244   0.506   2.182   0.115  0.2307 -0.0085  1.2039
  562SOL     OW 2245   0.688   2.243   2.352  0.3381  0.7552  0.5968
  562SOL    HW1 2246   0.655   2.286   2.273  0.5228 -2.0162 -0.0840
  562SOL    HW2 2247   0.757   2.285   2.402  0.2818  2.2911  4.0104
  562SOL     MW 2248   0.693   2.255   2.348  0.3551  0.5922  0.9574
  563SOL     OW 2249   1.238   0.379   0.558 -0.1763  0.2020  0.0929
  563SOL    HW1 2250   1.177   0.338   0.495 -2.2850  1.6055 -0.2776
  563SOL    HW2 2251   1.217   0.346   0.653 -0.8353  1.1902  6.4946
  563SOL     MW 2252   1.227   0.369   0.562 -0.5415  0.5175  0.8887
  564SOL     OW 2253   1.026   2.643   2.357 -0.0001  0.5755  0.1510
  564SOL    HW1 2254   1.029   2.709   2.285 -0.7612  3.0762 -1.4991
  564SOL    HW2 2255   1.057   2.675   2.442 -1.6441 -1.1794  0.2379
  564SOL     MW 2256   1.030   2.656   2.359 -0.3175  0.6739 -0.0553
  565SOL     OW 2257   2.763   2.844   2.545 -0.1828 -0.1440  0.3337
  565SOL    HW1 2258   2.769   2.923   2.490  2.7519 -0.8228 -0.5188
  565SOL    HW2 2259   2.723   2.765   2.497 -1.0641 -0.4108  0.3495
  565SOL     MW 2260   2.759   2.844   2.531  0.0881 -0.2687  0.2233
  566SOL     OW 2261   2.189   1.960   2.354  0.2355 -0.0959 -0.1089
  566SOL    HW1 2262   2.176   1.900   2.285 -0.3847  2.6801  1.1642
  566SOL    HW2 2263   2.277   1.991   2.335 -0.8490 -1.2474  3.1910
  566SOL     MW 2264   2.199   1.956   2.343  0.0106  0.1184  0.4945
  567SOL     OW 2265   1.202   3.012   0.047 -0.4945  0.2729 -0.0892
  567SOL    HW1 2266   1.162   3.006   0.134 -0.0720  0.6226 -0.9266
  567SOL    HW2 2267   1.247   2.925   0.036  2.4135 -1.2449  1.8979
  567SOL     MW 2268   1.203   3.000   0.057 -0.0551  0.1188  0.0625
  568SOL     OW 2269   1.660   2.054   2.866 -0.3763 -0.2512 -0.7217
  568SOL    HW1 2270   1.715   2.110   2.931  1.8344  1.0464 -2.2149
  568SOL    HW2 2271   1.734   1.999   2.825 -0.3139 -1.6186 -0.4083
  568SOL     MW 2272   1.677   2.054   2.869 -0.0764 -0.2605 -0.8774
  569SOL     OW 2273   0.120   2.266   2.439 -0.3354 -0.3398 -0.1290
  569SOL    HW1 2274   0.048   2.326   2.412 -1.0008 -2.6453  0.9047
  569SOL    HW2 2275   0.165   2.295   2.517 -1.6167  0.5738 -2.9529
  569SOL     MW 2276   0.117   2.278   2.445 -0.5923 -0.5235 -0.3652
  570SOL     OW 2277   1.485   0.343   0.493  0.0087 -0.0043 -0.4285
  570SOL    HW1 2278   1.391   0.355   0.521 -3.1474 -2.6150 -0.1325
  570SOL    HW2 2279   1.540   0.369   0.563  0.8006 -0.1962 -3.4424
  570SOL     MW 2280   1.480   0.348   0.506 -0.3032 -0.3741 -0.7871
  571SOL     OW 2281   1.342   2.383   2.140 -0.0401 -0.0719  0.1107
  571SOL    HW1 2282   1.355   2.378   2.239 -2.2499 -1.1588  0.2741
  571SOL    HW2 2283   1.398   2.316   2.098 -0.4324  0.9437  0.2510
  571SOL     MW 2284   1.351   2.373   2.148 -0.3834 -0.0813  0.1508
  572SOL     OW 2285   1.067   2.564   0.077 -0.3022 -0.1813  0.2873
  572SOL    HW1 2286   1.061   2.666   0.068  1.0746  4.4061  0.5575
  572SOL    HW2 2287   0.974   2.531   0.082  0.9056  0.9610 -2.4309
  572SOL     MW 2288   1.054   2.573   0.077  0.0388  0.5747 -0.0357
  573SOL     OW 2289   1.163   2.250   0.219  0.8829  0.5167  0.2982
  573SOL    HW1 2290   1.236   2.264   0.159 -0.3627  0.8594 -0.3829
  573SOL    HW2 2291   1.166   2.337   0.266  0.3523 -0.4544  3.1659
  573SOL     MW 2292   1.173   2.263   0.217  0.6486  0.4338  0.5867
  574SOL     OW 2293   1.141   2.501   0.324  0.1461 -0.0198  0.1395
  574SOL    HW1 2294   1.206   2.570   0.321  3.4657  1.8380  0.2418
  574SOL    HW2 2295   1.092   2.528   0.243  2.5797 -2.7650  2.2323
  574SOL     MW 2296   1.143   2.514   0.313  0.9051 -0.1369  0.4291
  575SOL     OW 2297   3.066   2.183   1.642  0.1629  0.6605  0.1525
  575SOL    HW1 2298   3.098   2.093   1.642 -1.3640 -0.4099 -2.2475
  575SOL    HW2 2299   3.144   2.232   1.665  1.2759  1.1976 -1.0143
  575SOL     MW 2300   3.080   2.178   1.645  0.1083  0.5901 -0.3181
  576SOL     OW 2301   2.867   1.881   1.970  0.2166  0.0858 -0.2637
  576SOL    HW1 2302   2.879   1.961   1.919 -1.1604 -1.1295 -1.0824
  576SOL    HW2 2303   2.807   1.828   1.908 -1.2928 -3.6061 -1.3208
  576SOL     MW 2304   2.861   1.885   1.955 -0.1642 -0.5616 -0.5112
  577SOL     OW 2305   2.116   0.179   0.001 -0.4397 -1.1013  0.1486
  577SOL    HW1 2306   2.058   0.155  -0.072 -0.1455 -1.2061 -2.6784
  577SOL    HW2 2307   2.073   0.150   0.082  2.0414  2.3479 -0.7909
  577SOL     MW 2308   2.103   0.172   0.002 -0.0735 -0.6600 -0.3484
  578SOL     OW 2309   1.969   2.134   2.378  0.3045  0.3135  0.0183
  578SOL    HW1 2310   1.882   2.093   2.363 -0.0649  1.6571  3.8166
  578SOL    HW2 2311   2.049   2.078   2.368  1.2089  1.6558 -1.7930
  578SOL     MW 2312   1.968   2.121   2.375  0.3751  0.6678  0.2805
  579SOL     OW 2313   0.853   2.449   2.468 -0.6101 -0.0804 -0.3656
  579SOL    HW1 2314   0.898   2.377   2.507  0.9225  0.6593 -1.1583
  579SOL    HW2 2315   0.912   2.514   2.428  0.6336 -0.6466  1.6603
  579SOL     MW 2316   0.867   2.448   2.468 -0.2438 -0.0575 -0.2029
  580SOL     OW 2317   0.965   2.850   3.083  0.2686  0.4027 -0.4539
  580SOL    HW1 2318   1.038   2.907   3.054  1.4408  0.7383 -0.2578
  580SOL    HW2 2319   0.926   2.800   3.011 -1.8332 -0.9541  2.0427
  580SOL     MW 2320   0.970   2.851   3.069  0.1459  0.2679 -0.0986
  581SOL     OW 2321   1.121   2.430   1.768 -0.0897  0.5741  0.0016
  581SOL    HW1 2322   1.192   2.474   1.811  1.3394 -0.5312  0.9847
  581SOL    HW2 2323   1.164   2.380   1.700  2.1598 -1.7181 -0.4062
  581SOL     MW 2324   1.136   2.429   1.765  0.3956  0.1259  0.0775
  582SOL     OW 2325   3.098   2.911   2.663 -0.1246  0.5978 -0.3838
  582SOL    HW1 2326   3.020   2.968   2.675  0.2470 -1.2267 -0.2103
  582SOL    HW2 2327   3.172   2.968   2.679 -1.2014  0.8257 -0.9392
  582SOL     MW 2328   3.098   2.926   2.667 -0.2176  0.3871 -0.4342
  583SOL     OW 2329   1.971   2.392   2.617  0.0508  0.5562 -0.0086
  583SOL    HW1 2330   2.058   2.413   2.579 -2.2206  1.3335 -2.4610
  583SOL    HW2 2331   1.966   2.298   2.614  1.4876  0.1276 -1.2464
  583SOL     MW 2332   1.982   2.382   2.612 -0.0593  0.6022 -0.4955
  584SOL     OW 2333   0.144   1.890   2.198  0.0903 -0.3857 -0.1090
  584SOL    HW1 2334   0.176   1.839   2.274  0.9652  2.0608 -1.8591
  584SOL    HW2 2335   0.198   1.969   2.200  1.4492  0.2229  3.0481
  584SOL     MW 2336   0.156   1.894   2.208  0.3851  0.0174  0.0766
  585SOL     OW 2337   1.560   2.708   0.163 -0.4754  0.0522  0.2188
  585SOL    HW1 2338   1.505   2.675   0.094  0.3200  2.2521  0.7278
  585SOL    HW2 2339   1.497   2.716   0.238 -0.7818  1.0921  0.2789
  585SOL     MW 2340   1.544   2.705   0.164 -0.4109  0.4797  0.2939
  586SOL     OW 2341   1.336   2.816   2.570 -0.0406 -0.5505 -0.1251
  586SOL    HW1 2342   1.401   2.782   2.501  1.7625 -1.1804  0.1485
  586SOL    HW2 2343   1.350   2.908   2.563  1.0116  2.4421 -1.1023
  586SOL     MW 2344   1.346   2.824   2.560  0.3361 -0.2388 -0.2179
  587SOL     OW 2345   1.348   1.453   2.168 -0.2178 -0.2798 -0.0653
  587SOL    HW1 2346   1.296   1.389   2.214  0.7683  0.6669  2.2790
  587SOL    HW2 2347   1.341   1.430   2.080  0.1460 -2.6991  0.3560
  587SOL     MW 2348   1.341   1.441   2.163 -0.0397 -0.4741  0.2996
  588SOL     OW 2349   1.360   2.003   2.690 -0.2837  0.2220  0.8160
  588SOL    HW1 2350   1.391   1.910   2.686  1.7559 -0.6466 -1.5276
  588SOL    HW2 2351   1.364   2.031   2.779  0.5266  0.6899  1.0225
  588SOL     MW 2352   1.365   1.994   2.701  0.0923  0.1691  0.5340
  589SOL     OW 2353   1.416   2.027   0.053 -0.6319  0.3234  0.1471
  589SOL    HW1 2354   1.438   2.123   0.082  0.2786  1.8069 -0.2734
  589SOL    HW2 2355   1.347   2.000   0.112  0.9530  0.0951  0.1988
  589SOL     MW 2356   1.410   2.036   0.064 -0.3026  0.4890  0.0984
  590SOL     OW 2357   0.535   2.660   2.184  0.0459 -0.0481 -0.2330
  590SOL    HW1 2358   0.534   2.676   2.091 -1.5014  1.7193 -1.5765
  590SOL    HW2 2359   0.612   2.704   2.223 -0.1295  1.3617 -0.0731
  590SOL     MW 2360   0.545   2.668   2.177 -0.1814  0.3711 -0.3892
  591SOL     OW 2361   2.233   0.687   0.130 -0.1423 -0.2098  0.3215
  591SOL    HW1 2362   2.157   0.712   0.191 -3.6020  1.7015  3.8774
  591SOL    HW2 2363   2.194   0.722   0.051  0.7614 -1.7725  1.0257
  591SOL     MW 2364   2.218   0.695   0.127 -0.4795 -0.1638  0.8836
  592SOL     OW 2365   1.669   2.938   0.825 -0.6242 -0.2052 -0.1988
  592SOL    HW1 2366   1.648   3.023   0.792  2.2685 -1.8270 -1.2748
  592SOL    HW2 2367   1.758   2.920   0.798  2.0517  1.1583  2.5439
  592SOL     MW 2368   1.678   2.947   0.817  0.1105 -0.2393  0.0211
  593SOL     OW 2369   1.944   0.707   0.787 -0.5297  0.4432 -0.3637
  593SOL    HW1 2370   1.881   0.716   0.709  0.3236  0.3311 -3.2759
  593SOL    HW2 2371   2.012   0.642   0.759 -0.7223 -0.1231 -3.0929
  593SOL     MW 2372   1.944   0.700   0.773 -0.4425  0.3537 -1.1080
  594SOL     OW 2373   2.790   1.033   1.416  0.8311 -0.2398  0.4009
  594SOL    HW1 2374   2.877   1.073   1.400 -0.5110  1.3399 -2.1113
  594SOL    HW2 2375   2.753   0.990   1.334  2.8632  0.0177 -1.9399
  594SOL     MW 2376   2.796   1.033   1.403  0.9221  0.0026 -0.2394
  595SOL     OW 2377   0.512   0.922   0.837  0.2194 -0.1026 -0.2057
  595SOL    HW1 2378   0.500   0.969   0.756  0.6581 -1.7836 -0.8744
  595SOL    HW2 2379   0.543   0.983   0.906  2.7768  1.6208  1.5675
  595SOL     MW 2380   0.514   0.936   0.835  0.6147 -0.0970 -0.0600
  596SOL     OW 2381   2.463   1.363   0.494  0.1902  0.6201  0.0534
  596SOL    HW1 2382   2.471   1.446   0.448 -1.2637 -0.3599  0.3313
  596SOL    HW2 2383   2.537   1.360   0.555  0.3538 -1.1094  1.0026
  596SOL     MW 2384   2.474   1.374   0.496  0.0199  0.2626  0.2153
  597SOL     OW 2385   2.254   0.619   1.568  0.6007  0.0498  0.6168
  597SOL    HW1 2386   2.274   0.584   1.651 -1.6657 -0.9256 -0.4810
  597SOL    HW2 2387   2.177   0.566   1.529 -3.9128  0.3515 -0.3065
  597SOL     MW 2388   2.247   0.607   1.574 -0.2938 -0.0391  0.3501
  598SOL     OW 2389   2.598   1.040   2.900 -0.2369 -0.1312  0.0588
  598SOL    HW1 2390   2.583   0.947   2.880  3.5829 -0.5757  0.5554
  598SOL    HW2 2391   2.687   1.068   2.884 -2.6930  0.5786 -0.5307
  598SOL     MW 2392   2.608   1.031   2.895 -0.0570 -0.0962  0.0465
  599SOL     OW 2393   3.084   0.426   2.266  0.0550  0.6673  0.5205
  599SOL    HW1 2394   3.126   0.484   2.316  0.3614 -0.7639 -2.7239
  599SOL    HW2 2395   3.076   0.480   2.187  1.3990  1.2033 -1.5036
  599SOL     MW 2396   3.088   0.441   2.262  0.2728  0.5492 -0.1746
  600SOL     OW 2397   1.846   1.720   0.826 -0.1100  0.0370  0.2253
  600SOL    HW1 2398   1.874   1.742   0.913  0.2009  0.6339 -1.7459
  600SOL    HW2 2399   1.767   1.776   0.818 -0.6977 -0.8485  0.5359
  600SOL     MW 2400   1.839   1.730   0.836 -0.1466 -0.0011  0.0062
  601SOL     OW 2401   2.556   0.739   0.827 -0.1429  0.5590  0.4337
  601SOL    HW1 2402   2.516   0.727   0.911  0.6943  2.8502 -0.8436
  601SOL    HW2 2403   2.512   0.673   0.771  1.2084 -2.2177 -2.2099
  601SOL     MW 2404   2.545   0.729   0.831  0.1458  0.4949 -0.0836
  602SOL     OW 2405   2.258   1.894   0.751 -0.0528 -0.2750  0.2782
  602SOL    HW1 2406   2.188   1.835   0.705 -1.9906 -1.2823 -1.6883
  602SOL    HW2 2407   2.213   1.977   0.748  0.5886  2.5868  0.9241
  602SOL     MW 2408   2.243   1.897   0.745 -0.2239 -0.0303  0.1040
  603SOL     OW 2409   2.967   1.385   1.954  0.5744 -0.6716  0.4152
  603SOL    HW1 2410   2.953   1.405   2.049 -0.0468  1.5445  0.2608
  603SOL    HW2 2411   3.024   1.311   1.959 -1.4854  1.8521 -2.1828
  603SOL     MW 2412   2.973   1.378   1.967  0.2207 -0.0462  0.0520
  604SOL     OW 2413   2.024   1.370   0.386  0.2655 -0.3896 -0.4934
  604SOL    HW1 2414   2.095   1.339   0.448 -2.0665 -0.3830  0.7476
  604SOL    HW2 2415   1.958   1.397   0.448  0.7825 -0.9451  0.1890
  604SOL     MW 2416   2.025   1.369   0.402  0.0261 -0.4620 -0.2396
  605SOL     OW 2417   2.416   1.447   0.802  0.3909 -0.1646 -0.2212
  605SOL    HW1 2418   2.430   1.509   0.732 -2.6187 -0.4992  0.1525
  605SOL    HW2 2419   2.471   1.373   0.774  1.2893 -0.1183 -2.3973
  605SOL     MW 2420   2.425   1.445   0.789  0.1123 -0.2026 -0.4590
  606SOL     OW 2421   2.670   1.735   1.805  0.6128  0.0030  0.0751
  606SOL    HW1 2422   2.593   1.781   1.771  1.3524  2.3671 -0.9390
  606SOL    HW2 2423   2.642   1.636   1.795 -1.8205 -1.0491  0.2609
  606SOL     MW 2424   2.656   1.728   1.799  0.3893  0.1761 -0.0342
  607SOL     OW 2425   2.380   0.980   3.063  0.1057 -0.5030  0.1403
  607SOL    HW1 2426   2.468   1.008   3.039  0.4503 -1.5601  0.6102
  607SOL    HW2 2427   2.397   0.968   3.161  0.2791  0.3344  0.0108
  607SOL     MW 2428   2.394   0.982   3.073  0.1740 -0.5320  0.1852
  608SOL     OW 2429   1.869   0.240   0.531  0.1034  0.6323 -0.1291
  608SOL    HW1 2430   1.866   0.264   0.443  1.7998 -3.4022 -0.1852
  608SOL    HW2 2431   1.839   0.144   0.535 -2.3144 -0.6230 -1.6662
  608SOL     MW 2432   1.865   0.230   0.520  0.0082 -0.0657 -0.3393
  609SOL     OW 2433   2.121   1.880   3.081  0.0357 -0.0191 -0.4603
  609SOL    HW1 2434   2.064   1.816   3.034  1.0788 -0.2144  0.0725
  609SOL    HW2 2435   2.093   1.863   3.170 -0.2282 -1.8052 -0.7860
  609SOL     MW 2436   2.110   1.869   3.086  0.1385 -0.2805 -0.4330
  610SOL     OW 2437   1.842   0.918   1.214 -0.1545  0.4144  0.8115
  610SOL    HW1 2438   1.853   0.861   1.139  0.9315  2.0683  2.0514
  610SOL    HW2 2439   1.743   0.942   1.214 -0.5535 -1.2912  2.3256
  610SOL     MW 2440   1.830   0.914   1.204 -0.0639  0.4076  1.1749
  611SOL     OW 2441   2.480   1.646   0.612 -0.0927  0.3307  0.1587
  611SOL    HW1 2442   2.534   1.634   0.530 -1.3771 -2.6983 -0.1069
  611SOL    HW2 2443   2.444   1.730   0.611  0.0998 -0.4200  3.6079
  611SOL     MW 2444   2.482   1.656   0.601 -0.2368 -0.1680  0.5787
  612SOL     OW 2445   2.921   2.935   0.344 -0.9568 -0.2915 -0.1561
  612SOL    HW1 2446   2.934   2.958   0.434  0.3518 -1.7640  2.0087
  612SOL    HW2 2447   3.002   2.881   0.327  1.6606 -0.6507 -0.7844
  612SOL     MW 2448   2.933   2.931   0.354 -0.4388 -0.5332  0.0466
  613SOL     OW 2449   1.448   1.122   1.008 -0.5244 -0.5045 -0.4409
  613SOL    HW1 2450   1.498   1.202   1.009  2.3711 -1.5250  0.8161
  613SOL    HW2 2451   1.488   1.076   1.081 -1.8968  1.5911  1.5684
  613SOL     MW 2452   1.460   1.127   1.018 -0.3234 -0.3627 -0.0100
  614SOL     OW 2453   2.032   0.463   1.388 -0.0905  0.1650 -0.2706
  614SOL    HW1 2454   2.012   0.409   1.461 -0.8316 -0.7066  1.4752
  614SOL    HW2 2455   1.963   0.524   1.367  0.2004  0.6339  1.1907
  614SOL     MW 2456   2.021   0.464   1.395 -0.1499  0.1119  0.1525
  615SOL     OW 2457   2.414   0.737   0.327  0.3113  0.1975  0.4020
  615SOL    HW1 2458   2.488   0.676   0.319  0.8848  0.0090  0.8638
  615SOL    HW2 2459   2.355   0.718   0.247  0.0793 -0.2893 -3.6750
  615SOL     MW 2460   2.416   0.726   0.315  0.3563  0.1084 -0.0750
  616SOL     OW 2461   2.566   0.422   1.608  0.3261 -0.3308  0.2153
  616SOL    HW1 2462   2.615   0.360   1.560  0.1499  2.5135 -2.6937
  616SOL    HW2 2463   2.553   0.489   1.541  2.6516  1.7321  1.9973
  616SOL     MW 2464   2.571   0.423   1.593  0.6097  0.3166  0.0666
  617SOL     OW 2465   2.842   0.545   1.877 -0.6197 -0.0690 -0.0243
  617SOL    HW1 2466   2.780   0.540   1.950  0.0841  0.8142 -1.1705
  617SOL    HW2 2467   2.831   0.468   1.827 -1.5025 -0.6723  2.0489
  617SOL     MW 2468   2.833   0.534   1.880 -0.6434 -0.0321  0.0980
  618SOL     OW 2469   2.794   0.230   2.003 -0.0895  0.3070 -0.3103
  618SOL    HW1 2470   2.733   0.263   2.075  0.0367  4.0004  1.9516
  618SOL    HW2 2471   2.878   0.205   2.051  1.5417  1.0076  2.2067
  618SOL     MW 2472   2.797   0.231   2.019  0.1424  0.8867  0.3202
  619SOL     OW 2473   2.708   0.698   0.091 -0.4361  0.0022 -0.3113
  619SOL    HW1 2474   2.715   0.790   0.089  2.6548  0.0401 -0.9466
  619SOL    HW2 2475   2.759   0.677   0.172 -0.9479  0.6958  0.6156
  619SOL     MW 2476   2.716   0.707   0.101 -0.0958  0.0987 -0.2728
  620SOL     OW 2477   2.221   1.041   0.950  0.4586 -0.1559 -0.1312
  620SOL    HW1 2478   2.292   1.017   0.890 -0.6397 -1.4778 -0.2613
  620SOL    HW2 2479   2.149   1.031   0.891 -0.4397 -1.1056  0.9918
  620SOL     MW 2480   2.221   1.036   0.935  0.1952 -0.4556 -0.0002
  621SOL     OW 2481   1.508   2.216   2.012 -0.0022  0.0179  0.1041
  621SOL    HW1 2482   1.476   2.127   1.990  0.0215  2.8481  0.4584
  621SOL    HW2 2483   1.602   2.209   1.987 -0.2339 -2.1259  2.0795
  621SOL     MW 2484   1.517   2.203   2.006 -0.0296  0.1084  0.4115
  622SOL     OW 2485   2.632   0.279   0.214  0.4825  0.1993 -0.1526
  622SOL    HW1 2486   2.709   0.342   0.223  0.3070  0.8189  0.5765
  622SOL    HW2 2487   2.669   0.189   0.214  1.5167  2.6828 -0.0335
  622SOL     MW 2488   2.647   0.276   0.215  0.5958  0.6087 -0.0407
  623SOL     OW 2489   2.361   2.760   0.829  0.2656 -0.1782 -0.2684
  623SOL    HW1 2490   2.426   2.825   0.822 -0.1560  1.1711 -3.1436
  623SOL    HW2 2491   2.322   2.773   0.921 -0.8337  1.7905 -0.0618
  623SOL     MW 2492   2.364   2.770   0.840  0.0649  0.2596 -0.6205
  624SOL     OW 2493   2.148   1.533   3.068 -0.6096  0.2337  0.0410
  624SOL    HW1 2494   2.086   1.466   3.058  0.1118  3.2291 -0.1748
  624SOL    HW2 2495   2.100   1.609   3.035 -1.7843  2.9527 -1.1788
  624SOL     MW 2496   2.133   1.534   3.062 -0.6694  0.9877 -0.1484
  625SOL     OW 2497   2.182   1.885   1.017 -0.4946 -1.0079  0.0821
  625SOL    HW1 2498   2.217   1.816   1.073  1.3502 -0.0546 -1.5003
  625SOL    HW2 2499   2.232   1.875   0.934  1.2978  2.0257 -0.7038
  625SOL     MW 2500   2.193   1.874   1.014 -0.0147 -0.4818 -0.2304
  626SOL     OW 2501   0.199   1.834   2.465 -0.0198  0.2247  0.0838
  626SOL    HW1 2502   0.153   1.756   2.486  3.0853  1.4519 -0.1434
  626SOL    HW2 2503   0.145   1.904   2.502  1.9984  3.6122  0.6474
  626SOL     MW 2504   0.186   1.833   2.472  0.6561  0.8336  0.1282
  627SOL     OW 2505   2.593   0.805   2.579  0.5068 -0.7968 -0.0943
  627SOL    HW1 2506   2.512   0.859   2.601 -0.8287  1.7738 -2.4194
  627SOL    HW2 2507   2.564   0.757   2.501  1.9530 -2.7596  0.4779
  627SOL     MW 2508   2.579   0.806   2.572  0.5214 -0.7166 -0.3256
  628SOL     OW 2509   2.329   1.392   1.302  0.3456  1.1197  0.4772
  628SOL    HW1 2510   2.306   1.315   1.250  2.8743  1.9140  1.0332
  628SOL    HW2 2511   2.366   1.459   1.245 -1.6939  3.1778  1.1404
  628SOL     MW 2512   2.331   1.390   1.287  0.4101  1.4960  0.6380
  629SOL     OW 2513   1.817   0.620   1.316  0.1802  0.0913  0.0896
  629SOL    HW1 2514   1.833   0.654   1.230 -2.0254  2.1324  1.3388
  629SOL    HW2 2515   1.725   0.593   1.308  1.0524  0.3381  1.2619
  629SOL     MW 2516   1.807   0.621   1.304  0.0043  0.3932  0.4091
  630SOL     OW 2517   2.413   1.892   3.053 -0.3768  0.0017  0.4741
  630SOL    HW1 2518   2.414   1.961   2.992  1.8837  1.7574  2.4405
  630SOL    HW2 2519   2.332   1.841   3.043 -0.5862 -0.4748  1.2051
  630SOL     MW 2520   2.403   1.895   3.044 -0.1061  0.1705  0.8300
  631SOL     OW 2521   2.088   1.830   1.500 -0.2836  0.3396 -0.3353
  631SOL    HW1 2522   2.066   1.751   1.546  1.8599 -1.5767 -1.2738
  631SOL    HW2 2523   2.022   1.897   1.518  0.5340  0.4989  1.3434
  631SOL     MW 2524   2.076   1.828   1.508  0.1071  0.1078 -0.2377
  632SOL     OW 2525   0.320   1.875   1.532  0.2687 -0.1968 -0.7638
  632SOL    HW1 2526   0.251   1.930   1.514  1.7750 -3.3786 -0.3590
  632SOL    HW2 2527   0.280   1.793   1.547 -0.9238  1.8737 -1.5375
  632SOL     MW 2528   0.306   1.872   1.531  0.3101 -0.3434 -0.8125
  633SOL     OW 2529   2.579   0.515   0.387 -0.2923 -0.2104 -0.5608
  633SOL    HW1 2530   2.658   0.515   0.442 -1.1247  2.9266 -1.4373
  633SOL    HW2 2531   2.568   0.433   0.341  2.8280  2.0036 -0.0893
  633SOL     MW 2532   2.588   0.504   0.388  0.0096  0.4956 -0.6142
  634SOL     OW 2533   2.644   3.082   0.602  0.4220 -0.3443 -0.3955
  634SOL    HW1 2534   2.677   3.170   0.586  3.7416 -0.6536 -0.3388
  634SOL    HW2 2535   2.658   3.040   0.519  1.5223 -0.4172  0.3677
  634SOL     MW 2536   2.650   3.088   0.589  1.0051 -0.3948 -0.2873
  635SOL     OW 2537   2.641   0.060   1.889 -0.1001 -0.2867 -0.6677
  635SOL    HW1 2538   2.673   0.001   1.812  1.3333  0.7716  1.2444
  635SOL    HW2 2539   2.716   0.108   1.921 -1.6387  2.1204  1.4814
  635SOL     MW 2540   2.655   0.058   1.883 -0.1140  0.1705 -0.1319
  636SOL     OW 2541   2.693   1.707   0.742  0.0740 -0.4715 -0.1514
  636SOL    HW1 2542   2.604   1.686   0.711 -0.9870  2.0241 -0.8836
  636SOL    HW2 2543   2.674   1.768   0.813  0.6811 -0.8026 -0.4653
  636SOL     MW 2544   2.679   1.712   0.747  0.0141 -0.1859 -0.2894
  637SOL     OW 2545   2.857   1.487   0.687  0.3038  0.1269  0.0524
  637SOL    HW1 2546   2.913   1.539   0.628  0.1899  0.6853  0.0575
  637SOL    HW2 2547   2.799   1.557   0.731  0.3331  0.2978 -0.1527
  637SOL     MW 2548   2.856   1.503   0.685  0.2926  0.2231  0.0260
  638SOL     OW 2549   2.819   0.524   0.550  0.6104  0.2553 -0.6036
  638SOL    HW1 2550   2.890   0.579   0.531 -0.1789 -2.1367  0.6173
  638SOL    HW2 2551   2.796   0.562   0.635  1.9714  2.1330 -3.3128
  638SOL     MW 2552   2.825   0.536   0.558  0.6858  0.1874 -0.8000
  639SOL     OW 2553   1.771   3.064   0.544  0.9616 -0.1469  0.2453
  639SOL    HW1 2554   1.684   3.108   0.548  2.4119 -2.0032 -1.2785
  639SOL    HW2 2555   1.770   2.990   0.485 -2.1852  2.5967  0.5589
  639SOL     MW 2556   1.760   3.060   0.537  0.7377 -0.0298  0.0856
  640SOL     OW 2557   0.285   1.429   0.094  0.1076  0.2477 -0.0857
  640SOL    HW1 2558   0.323   1.405   0.005 -4.9711 -0.2667  0.6191
  640SOL    HW2 2559   0.293   1.346   0.141  0.0617  0.1556  0.6246
  640SOL     MW 2560   0.291   1.415   0.088 -0.5685  0.1677  0.1010
  641SOL     OW 2561   2.229   0.334   0.413  0.1943 -0.3733  0.3360
  641SOL    HW1 2562   2.281   0.305   0.339  0.1640 -1.8121 -1.3969
  641SOL    HW2 2563   2.278   0.310   0.489  0.4750  0.9304 -2.7096
  641SOL     MW 2564   2.242   0.327   0.413  0.2273 -0.3911 -0.2945
  642SOL     OW 2565   0.091   0.012   0.536 -0.4392 -0.4882 -0.7796
  642SOL    HW1 2566   0.053   0.093   0.497  0.7173  1.1895 -0.1667
  642SOL    HW2 2567   0.008  -0.034   0.552  0.5116  0.0292  1.6270
  642SOL     MW 2568   0.075   0.016   0.533 -0.1611 -0.1986 -0.3812
  643SOL     OW 2569   2.099   0.312   1.662  0.3422 -0.2441  0.2925
  643SOL    HW1 2570   2.015   0.291   1.706  0.0114 -0.8392 -0.5877
  643SOL    HW2 2571   2.119   0.239   1.601  0.4782 -0.9191 -2.3246
  643SOL     MW 2572   2.090   0.300   1.660  0.3165 -0.4117 -0.1689
  644SOL     OW 2573   2.642   1.892   0.963  0.6626 -0.1386 -0.1841
  644SOL    HW1 2574   2.599   1.851   1.039 -0.1200  0.5665  0.0829
  644SOL    HW2 2575   2.580   1.967   0.948 -0.4491  0.9456 -1.1605
  644SOL     MW 2576   2.628   1.897   0.971  0.4127  0.0975 -0.2777
  645SOL     OW 2577   2.789   0.895   0.760 -0.2435  1.0703  0.0207
  645SOL    HW1 2578   2.881   0.861   0.756 -0.3624  0.9384  0.7023
  645SOL    HW2 2579   2.737   0.840   0.821  1.0333 -0.3648  2.9474
  645SOL     MW 2580   2.794   0.883   0.768 -0.0907  0.8636  0.4967
  646SOL     OW 2581   0.165   2.255   0.862 -0.1178  0.3318  0.2665
  646SOL    HW1 2582   0.178   2.152   0.861 -0.7032  0.3439  0.3403
  646SOL    HW2 2583   0.111   2.271   0.786  3.0301  0.7915 -0.4365
  646SOL     MW 2584   0.159   2.243   0.852  0.2203  0.3941  0.1835
  647SOL     OW 2585   2.781   0.535   2.995  0.2887 -0.0924 -0.4090
  647SOL    HW1 2586   2.713   0.468   3.012 -2.3891 -0.7422  1.9212
  647SOL    HW2 2587   2.770   0.608   3.056  2.0973 -1.1450 -1.2368
  647SOL     MW 2588   2.771   0.535   3.005  0.1740 -0.3170 -0.2108
  648SOL     OW 2589   2.216   0.641   1.134 -0.5259 -0.4279  0.2162
  648SOL    HW1 2590   2.257   0.563   1.172 -0.4865  2.8606 -1.1243
  648SOL    HW2 2591   2.210   0.707   1.200 -2.2166  0.6672 -1.2719
  648SOL     MW 2592   2.221   0.640   1.148 -0.7438  0.1505 -0.1570
  649SOL     OW 2593   2.394   2.705   1.282 -0.0389  0.1487  0.8729
  649SOL    HW1 2594   2.477   2.749   1.290 -1.3869 -1.0942  1.5175
  649SOL    HW2 2595   2.420   2.611   1.266  0.3396 -0.4519 -2.4408
  649SOL     MW 2596   2.408   2.698   1.281 -0.1669 -0.0945  0.5207
  650SOL     OW 2597   2.752   0.261   0.553 -0.6258  0.2006 -0.4583
  650SOL    HW1 2598   2.803   0.341   0.570  0.7326 -1.7891 -0.4410
  650SOL    HW2 2599   2.741   0.258   0.458 -1.0807 -0.4006  0.0135
  650SOL     MW 2600   2.757   0.271   0.543 -0.5066 -0.1412 -0.3938
  651SOL     OW 2601   0.049   0.437   1.018  0.0937  0.0932 -0.6085
  651SOL    HW1 2602   0.080   0.507   0.954  0.3740 -0.9831 -0.0352
  651SOL    HW2 2603  -0.036   0.475   1.049 -1.6482  0.8103  1.2050
  651SOL     MW 2604   0.042   0.451   1.013 -0.0992  0.0458 -0.2936
  652SOL     OW 2605   2.392   1.442   3.007  0.3522  0.2363 -0.3175
  652SOL    HW1 2606   2.426   1.450   2.919  1.4054 -1.0341 -0.0227
  652SOL    HW2 2607   2.320   1.507   3.010 -0.7451  1.2558 -1.2783
  652SOL     MW 2608   2.387   1.452   2.996  0.3464  0.2032 -0.4054
  653SOL     OW 2609   1.829   0.340   0.252  0.2669  0.1703 -0.5423
  653SOL    HW1 2610   1.805   0.258   0.208  0.1617  1.6158 -0.0034
  653SOL    HW2 2611   1.911   0.373   0.214  1.6370 -1.5729 -0.7196
  653SOL     MW 2612   1.837   0.334   0.241  0.4338  0.1310 -0.4946
  654SOL     OW 2613   2.439   1.001   0.771 -0.1267  0.1045 -0.2344
  654SOL    HW1 2614   2.374   0.971   0.705 -2.2068 -1.4302 -1.9636
  654SOL    HW2 2615   2.502   0.927   0.799  2.7678 -1.2033 -0.0089
  654SOL     MW 2616   2.439   0.987   0.766 -0.0192 -0.2705 -0.4328
  655SOL     OW 2617   2.884   0.912   0.301 -0.1469  0.1783 -0.5725
  655SOL    HW1 2618   2.851   0.966   0.369  0.3798  0.2135 -0.2226
  655SOL    HW2 2619   2.957   0.866   0.343  0.4531 -0.6641 -1.7252
  655SOL     MW 2620   2.889   0.913   0.315  0.0018  0.0718 -0.6784
  656SOL     OW 2621   1.806   2.644   1.414 -0.3651  0.0357  0.1048
  656SOL    HW1 2622   1.851   2.726   1.407 -1.1429  0.3189 -1.4720
  656SOL    HW2 2623   1.872   2.576   1.396 -0.4876  0.1973  1.5663
  656SOL     MW 2624   1.821   2.646   1.411 -0.4839  0.0944  0.0896
  657SOL     OW 2625   0.087   1.784   1.145 -0.5366 -0.4818 -0.5652
  657SOL    HW1 2626   0.167   1.831   1.125 -2.8091  0.3691  0.1560
  657SOL    HW2 2627   0.099   1.693   1.128  1.7751 -0.4110  1.6975
  657SOL     MW 2628   0.099   1.778   1.140 -0.5314 -0.3602 -0.1715
  658SOL     OW 2629   2.661   1.375   0.228 -0.1026  0.0068  0.0431
  658SOL    HW1 2630   2.634   1.295   0.273 -0.6438 -1.9766  0.3616
  658SOL    HW2 2631   2.682   1.446   0.291 -1.0449  0.7049  1.7295
  658SOL     MW 2632   2.660   1.374   0.243 -0.2983 -0.1628  0.3077
  659SOL     OW 2633   2.139   1.448   1.029 -0.2856 -0.6188 -0.1178
  659SOL    HW1 2634   2.154   1.359   1.049 -2.2010  1.1231 -0.5463
  659SOL    HW2 2635   2.114   1.491   1.109 -0.8227  1.9800  1.2182
  659SOL     MW 2636   2.138   1.442   1.042 -0.6092 -0.0461  0.0020
  660SOL     OW 2637   2.089   1.544   1.617  0.4552 -0.3127 -0.4764
  660SOL    HW1 2638   2.114   1.536   1.710 -0.6660  1.6923 -0.3380
  660SOL    HW2 2639   2.004   1.494   1.600  0.1658  0.2695 -3.9870
  660SOL     MW 2640   2.081   1.536   1.627  0.2691  0.0286 -0.9213
  661SOL     OW 2641   2.398   0.984   0.254  0.2521  0.0509  0.0998
  661SOL    HW1 2642   2.466   1.031   0.306  0.5594  0.9828 -1.3972
  661SOL    HW2 2643   2.422   0.892   0.281  0.5238 -2.8344 -1.6986
  661SOL     MW 2644   2.410   0.978   0.264  0.3285 -0.2068 -0.3350
  662SOL     OW 2645   2.582   2.961   0.845 -0.4709  0.1952 -0.5043
  662SOL    HW1 2646   2.523   3.023   0.883  1.4312  1.3281 -1.8797
  662SOL    HW2 2647   2.596   2.991   0.752 -1.7289  0.0324  2.4569
  662SOL     MW 2648   2.576   2.973   0.838 -0.3860  0.3232 -0.2950
  663SOL     OW 2649   2.708   1.560   0.412  0.0724 -0.4855 -0.5799
  663SOL    HW1 2650   2.716   1.630   0.345 -0.0517  1.8000 -0.1073
  663SOL    HW2 2651   2.778   1.572   0.467  1.9138 -0.1104 -1.9217
  663SOL     MW 2652   2.718   1.571   0.411  0.2990 -0.1345 -0.6946
  664SOL     OW 2653   2.547   1.473   1.523  0.3191 -0.5732  0.2622
  664SOL    HW1 2654   2.493   1.546   1.484 -2.1380 -0.8858  1.6469
  664SOL    HW2 2655   2.483   1.404   1.534  1.2905  1.2219 -0.2938
  664SOL     MW 2656   2.532   1.473   1.519  0.1231 -0.3776  0.3715
  665SOL     OW 2657   2.842   0.825   2.093 -0.1034 -0.3688 -0.1075
  665SOL    HW1 2658   2.795   0.838   2.006  1.9579 -2.2978 -0.8288
  665SOL    HW2 2659   2.927   0.782   2.076  0.4152 -0.2899  0.4693
  665SOL     MW 2660   2.847   0.821   2.079  0.2370 -0.6129 -0.1266
  666SOL     OW 2661   2.775   3.016   1.698  0.1656 -0.2860 -0.0022
  666SOL    HW1 2662   2.812   3.008   1.610  1.3133  0.3512 -1.3715
  666SOL    HW2 2663   2.733   2.931   1.710 -0.1183 -1.7318  0.7242
  666SOL     MW 2664   2.775   3.003   1.688  0.2796 -0.3927 -0.0870
  667SOL     OW 2665   1.998   2.746   1.733 -0.2638  0.1270 -0.2067
  667SOL    HW1 2666   2.011   2.719   1.823  0.4456  2.2228 -3.1821
  667SOL    HW2 2667   2.076   2.798   1.712 -0.9089 -0.1884  0.0294
  667SOL     MW 2668   2.010   2.749   1.742 -0.2553  0.3619 -0.5681
  668SOL     OW 2669   2.771   0.569   0.842  0.1861 -0.2595 -0.1358
  668SOL    HW1 2670   2.845   0.602   0.895 -1.9142 -2.6042 -1.7428
  668SOL    HW2 2671   2.711   0.641   0.845 -0.1589  0.8118 -0.5980
  668SOL     MW 2672   2.773   0.583   0.850 -0.1365 -0.4275 -0.4088
  669SOL     OW 2673   0.199   0.980   0.688 -0.1928  0.1794  0.0945
  669SOL    HW1 2674   0.179   0.991   0.781 -1.1180 -1.5131 -1.5395
  669SOL    HW2 2675   0.266   1.054   0.667 -0.7820  0.4672 -1.8003
  669SOL     MW 2676   0.205   0.991   0.698 -0.3926 -0.0060 -0.3711
  670SOL     OW 2677   2.884   0.347   0.271 -0.0690  0.2247  0.1649
  670SOL    HW1 2678   2.888   0.281   0.198 -0.3478 -0.8676 -0.0393
  670SOL    HW2 2679   2.906   0.437   0.240 -3.4039  3.5916  0.3597
  670SOL     MW 2680   2.887   0.350   0.257 -0.5458  0.5248  0.1637
  671SOL     OW 2681   2.016   3.035   1.495  0.2272  0.0941 -0.1917
  671SOL    HW1 2682   1.948   3.006   1.429 -0.7905 -1.3784 -1.6853
  671SOL    HW2 2683   1.968   3.085   1.561  3.0002  2.3029  1.1368
  671SOL     MW 2684   2.000   3.038   1.495  0.4588  0.1912 -0.2135
  672SOL     OW 2685   1.870   1.763   1.292 -0.8068  0.2441  0.3386
  672SOL    HW1 2686   1.861   1.836   1.352 -1.3939 -1.4136 -2.6142
  672SOL    HW2 2687   1.889   1.804   1.200 -0.6492  0.9500 -4.0753
  672SOL     MW 2688   1.872   1.778   1.288 -0.8635  0.1185 -0.6333
  673SOL     OW 2689   2.794   1.064   0.573  0.2794 -0.3439 -0.0647
  673SOL    HW1 2690   2.781   0.995   0.640  0.4627 -2.4095  2.2779
  673SOL    HW2 2691   2.858   1.118   0.609 -0.6517  1.4226 -2.5086
  673SOL     MW 2692   2.801   1.062   0.586  0.1808 -0.3833 -0.0781
  674SOL     OW 2693   2.460   3.103   1.236  0.1314 -0.0293 -0.8498
  674SOL    HW1 2694   2.451   3.118   1.139  2.4122 -1.3162 -0.4272
  674SOL    HW2 2695   2.433   3.011   1.258 -0.9703 -1.1901  1.5408
  674SOL     MW 2696   2.455   3.093   1.226  0.2870 -0.3523 -0.4786
  675SOL     OW 2697   3.022   0.896   1.091 -0.2989 -0.2033 -0.2387
  675SOL    HW1 2698   3.064   0.905   1.178  1.8294  0.3067 -1.5721
  675SOL    HW2 2699   3.069   0.966   1.031 -1.5179  2.2864  2.9381
  675SOL     MW 2700   3.034   0.907   1.095 -0.1789  0.1925  0.0045
  676SOL     OW 2701   2.889   1.451   1.696 -0.3476  0.2793  0.0736
  676SOL    HW1 2702   2.854   1.363   1.668 -0.8301  2.3411  0.7821
  676SOL    HW2 2703   2.909   1.439   1.787  1.3086  3.6067 -3.7134
  676SOL     MW 2704   2.887   1.438   1.705 -0.1928  0.9904 -0.3326
  677SOL     OW 2705   2.465   0.630   1.944  0.5336  0.6571 -0.5441
  677SOL    HW1 2706   2.403   0.562   1.902  0.8609  1.0230 -0.4652
  677SOL    HW2 2707   2.445   0.720   1.905 -3.1323  1.8803  1.1578
  677SOL     MW 2708   2.454   0.633   1.933  0.0932  0.8668 -0.3091
  678SOL     OW 2709   2.398   1.591   0.323 -0.2102 -0.5768  0.0349
  678SOL    HW1 2710   2.302   1.608   0.337 -1.1389  1.7109 -5.0106
  678SOL    HW2 2711   2.401   1.508   0.267  1.0810  1.1952 -0.1747
  678SOL     MW 2712   2.386   1.582   0.318 -0.1623 -0.0412 -0.6585
  679SOL     OW 2713   2.265   0.415   1.265  0.4041  0.2592  0.4779
  679SOL    HW1 2714   2.246   0.338   1.212 -0.5961  1.9889  1.4323
  679SOL    HW2 2715   2.173   0.433   1.298  0.8911 -1.4724 -3.1976
  679SOL     MW 2716   2.250   0.407   1.263  0.3364  0.2589  0.1189
  680SOL     OW 2717   2.479   0.108   1.506  0.0791  0.2486 -0.1257
  680SOL    HW1 2718   2.382   0.129   1.516  0.7985  0.3729 -0.9338
  680SOL    HW2 2719   2.497   0.100   1.411  1.6930  0.7347 -3.3991
  680SOL     MW 2720   2.469   0.110   1.494  0.3870  0.3291 -0.6642
  681SOL     OW 2721   0.241   0.603   1.473 -0.8562  0.4267 -0.0539
  681SOL    HW1 2722   0.209   0.515   1.491 -2.3580  0.5289  1.2262
  681SOL    HW2 2723   0.248   0.612   1.374  3.0028  2.8002 -0.2125
  681SOL     MW 2724   0.238   0.593   1.462 -0.5452  0.7533  0.0941
  682SOL     OW 2725   0.052   2.850   1.540 -1.1717  0.5184 -0.2849
  682SOL    HW1 2726   0.106   2.932   1.540  0.3812 -0.3608  1.0382
  682SOL    HW2 2727  -0.002   2.844   1.618  0.0294 -0.9591  3.8911
  682SOL     MW 2728   0.052   2.860   1.551 -0.8083  0.2074  0.4407
  683SOL     OW 2729   2.075   0.811   3.005  0.1452  0.5971  0.1221
  683SOL    HW1 2730   2.023   0.735   2.987 -0.5983  1.0281  0.3561
  683SOL    HW2 2731   2.014   0.875   3.051 -2.8186 -0.1982  0.1819
  683SOL     MW 2732   2.060   0.810   3.009 -0.3439  0.5491  0.1608
  684SOL     OW 2733   2.051   1.754   0.659  0.0631  0.0721  0.1214
  684SOL    HW1 2734   2.037   1.702   0.577 -0.6935  1.0052  0.8916
  684SOL    HW2 2735   1.973   1.730   0.715 -0.7015  2.5809 -1.8462
  684SOL     MW 2736   2.039   1.744   0.655 -0.1376  0.5262 -0.0366
  685SOL     OW 2737   2.682   1.715   1.186 -0.0830  0.3044  0.0620
  685SOL    HW1 2738   2.732   1.681   1.256 -1.7845  2.1879  1.2037
  685SOL    HW2 2739   2.637   1.637   1.162  1.8392  0.4779 -0.9810
  685SOL     MW 2740   2.682   1.700   1.192 -0.0539  0.5758  0.0750
  686SOL     OW 2741   2.873   0.667   1.615 -0.4866 -0.1178 -0.1046
  686SOL    HW1 2742   2.871   0.627   1.698 -0.2204  2.6983  0.0784
  686SOL    HW2 2743   2.971   0.687   1.600  0.0446 -1.1761  0.3161
  686SOL     MW 2744   2.886   0.664   1.624 -0.3814  0.1141 -0.0250
  687SOL     OW 2745   2.105   0.193   1.148 -0.5030 -0.8045 -0.0958
  687SOL    HW1 2746   2.191   0.188   1.107  0.5235  1.2878 -2.1464
  687SOL    HW2 2747   2.045   0.237   1.086  1.2946 -1.6025 -0.7724
  687SOL     MW 2748   2.109   0.198   1.135 -0.1304 -0.6337 -0.4556
  688SOL     OW 2749   2.464   0.592   1.420  0.4249  0.1853 -0.3529
  688SOL    HW1 2750   2.463   0.520   1.359  0.5311 -0.0356  0.5731
  688SOL    HW2 2751   2.374   0.585   1.463 -0.0527  1.1391  0.4016
  688SOL     MW 2752   2.452   0.581   1.418  0.3759  0.2820 -0.1312
  689SOL     OW 2753   2.512   0.736   2.984  0.0070  0.1320  0.3927
  689SOL    HW1 2754   2.445   0.797   3.016  0.3450  1.5707 -1.3522
  689SOL    HW2 2755   2.571   0.728   3.064  0.7263 -1.0539  2.5470
  689SOL     MW 2756   2.511   0.743   2.999  0.1465  0.1654  0.4467
  690SOL     OW 2757   2.033   0.890   1.836  0.5345  0.1676  0.2111
  690SOL    HW1 2758   2.028   0.796   1.859  0.3809  0.5088  2.8315
  690SOL    HW2 2759   2.086   0.893   1.754 -0.5689 -2.0151  1.2391
  690SOL     MW 2760   2.039   0.878   1.828  0.3687 -0.0754  0.6924
  691SOL     OW 2761   2.425   0.302   0.881  0.3735 -0.0505 -0.0113
  691SOL    HW1 2762   2.505   0.327   0.925 -1.0062 -0.1927 -1.6922
  691SOL    HW2 2763   2.391   0.383   0.846 -1.8753  0.8691 -0.5604
  691SOL     MW 2764   2.431   0.316   0.882 -0.1053  0.0521 -0.3055
  692SOL     OW 2765   2.836   1.609   1.426 -0.5063  0.3745 -0.5874
  692SOL    HW1 2766   2.836   1.574   1.512  0.1517  0.6288 -2.5947
  692SOL    HW2 2767   2.879   1.697   1.425 -0.9491 -1.0774  2.2827
  692SOL     MW 2768   2.841   1.616   1.437 -0.4779  0.2165 -0.4736
  693SOL     OW 2769   2.329   0.397   0.012 -0.4852  0.1205 -0.4843
  693SOL    HW1 2770   2.260   0.337   0.022  3.2447  1.6416 -0.1653
  693SOL    HW2 2771   2.295   0.481   0.047 -0.1311  1.5452  3.1166
  693SOL     MW 2772   2.316   0.400   0.018  0.0537  0.5092  0.0329
  694SOL     OW 2773   1.904   1.188   1.187  0.4086  0.1295  0.7893
  694SOL    HW1 2774   1.995   1.196   1.209  1.3471  2.7890 -2.3506
  694SOL    HW2 2775   1.889   1.092   1.191  0.3603  3.7604 -0.5011
  694SOL     MW 2776   1.914   1.176   1.191  0.5261  0.9594  0.2048
  695SOL     OW 2777   2.938   1.393   1.289 -0.3896 -0.4299  0.5488
  695SOL    HW1 2778   2.938   1.398   1.197 -0.9292  2.0385  1.2007
  695SOL    HW2 2779   2.895   1.471   1.326  0.1371 -1.6657 -0.1859
  695SOL     MW 2780   2.932   1.404   1.282 -0.3913 -0.2673  0.5379
  696SOL     OW 2781   2.014   1.423   0.771 -0.0142  0.1436 -0.6590
  696SOL    HW1 2782   2.072   1.474   0.829  4.0306 -0.2936 -1.1354
  696SOL    HW2 2783   1.970   1.361   0.831 -1.4165  0.8323 -1.4255
  696SOL     MW 2784   2.016   1.422   0.787  0.3345  0.1768 -0.8230
  697SOL     OW 2785   2.940   1.063   2.226  0.0654 -0.1316 -0.7120
  697SOL    HW1 2786   2.861   1.120   2.239 -2.2829  1.5696 -0.5597
  697SOL    HW2 2787   2.904   0.993   2.180 -1.1631  1.1747 -0.3999
  697SOL     MW 2788   2.925   1.062   2.222 -0.4065  0.2652 -0.6507
  698SOL     OW 2789   2.598   0.344   3.060 -0.2194  0.4778  0.3100
  698SOL    HW1 2790   2.513   0.382   3.077  1.4571  2.7460 -1.8467
  698SOL    HW2 2791   2.624   0.304   3.146 -2.2235  2.4854 -0.4602
  698SOL     MW 2792   2.590   0.344   3.074 -0.2626  1.0420 -0.0762
  699SOL     OW 2793   1.892   1.611   2.066 -0.1674 -0.0753 -0.2929
  699SOL    HW1 2794   1.878   1.518   2.060 -2.2070 -0.6196 -3.7025
  699SOL    HW2 2795   1.973   1.606   2.011 -0.2847  2.1129 -1.2131
  699SOL     MW 2796   1.901   1.598   2.058 -0.4520  0.1416 -0.8642
  700SOL     OW 2797   2.668   0.854   1.602  0.0907  0.4559 -0.4216
  700SOL    HW1 2798   2.700   0.931   1.551  1.4500  3.2664  1.6095
  700SOL    HW2 2799   2.725   0.783   1.580 -0.0423 -0.7325  2.1687
  700SOL     MW 2800   2.680   0.855   1.592  0.2525  0.6699  0.1881
  701SOL     OW 2801   1.693   1.099   2.510 -0.1868 -0.4630 -0.1032
  701SOL    HW1 2802   1.737   1.042   2.572 -2.5921 -3.4729  1.8706
  701SOL    HW2 2803   1.649   1.155   2.570  1.1631 -1.3701  1.0200
  701SOL     MW 2804   1.693   1.099   2.526 -0.3261 -0.9798  0.3054
  702SOL     OW 2805   2.086   0.471   0.700 -0.4108  0.0786 -0.6697
  702SOL    HW1 2806   2.096   0.379   0.664  0.5218  0.7383 -1.8808
  702SOL    HW2 2807   2.095   0.522   0.620 -1.1147 -1.4942 -0.2725
  702SOL     MW 2808   2.088   0.466   0.685 -0.3806 -0.0419 -0.7771
  703SOL     OW 2809   2.713   1.261   0.959 -0.4439  0.0170  0.2724
  703SOL    HW1 2810   2.676   1.256   0.871  1.2046  1.1651 -0.1080
  703SOL    HW2 2811   2.688   1.188   1.010  2.4780  0.9425  0.0429
  703SOL     MW 2812   2.705   1.250   0.954  0.1591  0.2906  0.1919
  704SOL     OW 2813   3.080   1.256   0.121 -0.0381  0.3299  0.6350
  704SOL    HW1 2814   2.986   1.259   0.104 -1.7815  0.5990  0.5511
  704SOL    HW2 2815   3.096   1.225   0.211  1.8817 -2.0655 -1.6559
  704SOL     MW 2816   3.070   1.252   0.131 -0.0148  0.0494  0.3216
  705SOL     OW 2817   2.050   1.547   1.300 -0.2085  0.1919 -0.0417
  705SOL    HW1 2818   1.986   1.618   1.313  0.7055 -0.2728 -0.7121
  705SOL    HW2 2819   2.080   1.525   1.386 -1.6707 -1.0823  0.3027
  705SOL     MW 2820   2.046   1.553   1.313 -0.2809 -0.0375 -0.0847
  706SOL     OW 2821   3.006   1.226   0.695 -0.0291 -0.1997  0.5925
  706SOL    HW1 2822   3.025   1.228   0.599  0.3566 -0.0834  1.0905
  706SOL    HW2 2823   2.979   1.317   0.712 -1.1485  0.8460 -1.2598
  706SOL     MW 2824   3.005   1.238   0.685 -0.1259 -0.0464  0.4138
  707SOL     OW 2825   2.362   0.035   0.970 -0.3851 -0.0688  0.4774
  707SOL    HW1 2826   2.387   0.114   0.917  1.6151  2.5519  0.0169
  707SOL    HW2 2827   2.279   0.002   0.925  1.6788 -0.1785 -2.1663
  707SOL     MW 2828   2.354   0.041   0.957  0.1511  0.2625  0.0678
  708SOL     OW 2829   2.399   1.377   0.168 -0.6866 -0.3333 -0.8585
  708SOL    HW1 2830   2.491   1.356   0.167 -1.8116  0.7534 -0.5687
  708SOL    HW2 2831   2.390   1.412   0.077 -0.4171  1.4349  1.8858
  708SOL     MW 2832   2.410   1.379   0.156 -0.7995  0.0433 -0.4582
  709SOL     OW 2833   1.738   1.649   0.208 -0.7753 -0.3296 -0.4961
  709SOL    HW1 2834   1.722   1.664   0.113 -0.5244  0.7001 -1.5183
  709SOL    HW2 2835   1.660   1.607   0.243  2.2358  0.5200  0.1269
  709SOL     MW 2836   1.726   1.645   0.200 -0.3449 -0.0817 -0.5488
  710SOL     OW 2837   2.183   1.172   1.191 -0.4599  0.1183 -0.3494
  710SOL    HW1 2838   2.207   1.135   1.100  1.3995 -1.5228  1.3246
  710SOL    HW2 2839   2.207   1.100   1.257 -0.0934 -2.2084  1.2850
  710SOL     MW 2840   2.189   1.158   1.188 -0.1662 -0.4052  0.0871
  711SOL     OW 2841   2.397   0.133   1.772 -0.2220 -0.6504  0.5339
  711SOL    HW1 2842   2.470   0.096   1.828  0.7398 -2.8643 -3.8089
  711SOL    HW2 2843   2.443   0.149   1.686  1.6481  0.9875  0.9024
  711SOL     MW 2844   2.413   0.130   1.768  0.1516 -0.7264  0.0095
  712SOL     OW 2845   1.890   0.603   3.093 -0.2153 -0.0946 -0.2716
  712SOL    HW1 2846   1.825   0.635   3.029  2.7144 -1.1418  0.9461
  712SOL    HW2 2847   1.852   0.637   3.176  0.8772  0.1331  2.1590
  712SOL     MW 2848   1.877   0.612   3.096  0.3154 -0.2027  0.2098
  713SOL     OW 2849   2.521   0.685   1.090  0.2345 -0.1481  0.5433
  713SOL    HW1 2850   2.519   0.598   1.130  1.2185  1.6541 -2.1409
  713SOL    HW2 2851   2.502   0.738   1.163  0.4212 -2.3333  0.1213
  713SOL     MW 2852   2.518   0.680   1.105  0.3889 -0.1986  0.1335
  714SOL     OW 2853   2.221   0.164   1.993 -0.0815  0.5286  0.4520
  714SOL    HW1 2854   2.261   0.117   2.065  1.3140  0.4247  0.7242
  714SOL    HW2 2855   2.283   0.171   1.922 -0.5796  3.9605 -0.0150
  714SOL     MW 2856   2.235   0.159   1.993  0.0369  0.9677  0.4263
  715SOL     OW 2857   1.815   2.017   1.744  0.5586 -0.5396 -0.6196
  715SOL    HW1 2858   1.909   2.029   1.742 -2.1077  1.2372  1.3789
  715SOL    HW2 2859   1.781   1.948   1.810 -0.9123  0.3060  1.2502
  715SOL     MW 2860   1.823   2.009   1.752  0.0127 -0.1936 -0.1092
  716SOL     OW 2861   2.420   0.564   0.670  0.1758  0.2212  0.3011
  716SOL    HW1 2862   2.460   0.481   0.630  1.0016 -1.9813 -1.5315
  716SOL    HW2 2863   2.356   0.587   0.607  3.4292 -0.4069  1.3993
  716SOL     MW 2864   2.417   0.556   0.656  0.7140 -0.1522  0.2042
  717SOL     OW 2865   2.834   1.613   2.825 -0.0443  0.3401  0.3378
  717SOL    HW1 2866   2.914   1.588   2.871  2.4485 -0.2764 -1.1720
  717SOL    HW2 2867   2.785   1.674   2.887 -2.3090 -0.9368 -1.1029
  717SOL     MW 2868   2.838   1.618   2.839 -0.0142  0.0903 -0.0515
  718SOL     OW 2869   2.645   1.343   1.267  0.0658  0.2572 -0.2016
  718SOL    HW1 2870   2.627   1.367   1.357 -0.4947 -0.6196  2.4602
  718SOL    HW2 2871   2.739   1.351   1.259  1.7026 -0.7113 -1.5306
  718SOL     MW 2872   2.655   1.347   1.278  0.2078  0.0137 -0.0258
  719SOL     OW 2873   2.203   1.300   0.571 -0.2361 -0.4476 -0.3981
  719SOL    HW1 2874   2.293   1.326   0.552 -0.4326  0.4142  3.5211
  719SOL    HW2 2875   2.195   1.350   0.650  1.3847  1.0231 -3.1341
  719SOL     MW 2876   2.214   1.310   0.579 -0.0481 -0.1399 -0.2420
  720SOL     OW 2877   2.822   1.268   0.026 -0.5838  0.4587 -0.0170
  720SOL    HW1 2878   2.775   1.186   0.021 -1.6380  0.0102 -0.4841
  720SOL    HW2 2879   2.777   1.325   0.087  0.1216  3.8287 -1.0121
  720SOL     MW 2880   2.810   1.265   0.033 -0.6298  0.8442 -0.2099
  721SOL     OW 2881   2.529   0.845   1.368  0.6134 -0.3979  0.1722
  721SOL    HW1 2882   2.515   0.746   1.368 -0.8798 -1.3588 -2.4142
  721SOL    HW2 2883   2.560   0.861   1.463  2.5199 -1.2815 -0.3264
  721SOL     MW 2884   2.531   0.834   1.381  0.6679 -0.6412 -0.2349
  722SOL     OW 2885   2.587   1.137   0.379 -0.4573 -0.0978 -0.1026
  722SOL    HW1 2886   2.541   1.196   0.439  1.4623  1.3078 -0.9356
  722SOL    HW2 2887   2.623   1.068   0.429  1.0275  0.0976 -0.0344
  722SOL     MW 2888   2.586   1.136   0.394 -0.0081  0.1134 -0.2035
  723SOL     OW 2889   2.271   1.351   1.548 -0.1276  0.5479 -0.7694
  723SOL    HW1 2890   2.285   1.361   1.453 -1.2942 -0.6888  0.3100
  723SOL    HW2 2891   2.196   1.404   1.586 -3.3944  0.9619 -0.1570
  723SOL     MW 2892   2.263   1.359   1.540 -0.7125  0.4393 -0.5462
  724SOL     OW 2893   2.494   0.316   0.610 -0.0029 -0.5147  0.1195
  724SOL    HW1 2894   2.495   0.272   0.695  1.8290  1.4679  0.1424
  724SOL    HW2 2895   2.582   0.302   0.579  0.0026  0.0180 -0.4258
  724SOL     MW 2896   2.506   0.308   0.617  0.2396 -0.1829  0.0506
  725SOL     OW 2897   2.616   0.420   1.244 -0.1819  0.1085 -0.3046
  725SOL    HW1 2898   2.690   0.465   1.291 -0.3126 -2.3159 -1.1036
  725SOL    HW2 2899   2.605   0.338   1.288 -0.8453 -0.4123 -1.0052
  725SOL     MW 2900   2.624   0.415   1.256 -0.2867 -0.2801 -0.5025
  726SOL     OW 2901   2.495   2.507   0.458 -0.0630  0.1508 -0.1230
  726SOL    HW1 2902   2.496   2.599   0.426 -0.9460  0.9561 -0.1769
  726SOL    HW2 2903   2.492   2.520   0.556  0.0383  1.6373  0.6773
  726SOL     MW 2904   2.495   2.521   0.466 -0.1661  0.4532 -0.0245
  727SOL     OW 2905   2.868   0.290   1.727  0.2552 -0.0153  0.2140
  727SOL    HW1 2906   2.802   0.274   1.660 -0.4182 -1.8167  1.1325
  727SOL    HW2 2907   2.838   0.260   1.807  1.2263  1.9784 -2.1616
  727SOL     MW 2908   2.855   0.284   1.728  0.2944  0.0101  0.0218
  728SOL     OW 2909   2.844   1.176   2.851 -0.2064 -0.1156  0.0346
  728SOL    HW1 2910   2.824   1.218   2.767  3.1024 -1.1986  2.1261
  728SOL    HW2 2911   2.835   1.240   2.922  0.0342  0.5787  0.4167
  728SOL     MW 2912   2.840   1.190   2.849  0.2619 -0.1669  0.3610
  729SOL     OW 2913   2.512   1.511   1.113  0.2766 -0.0275 -0.2311
  729SOL    HW1 2914   2.581   1.451   1.150  1.2974 -0.2147 -1.2720
  729SOL    HW2 2915   2.522   1.521   1.019 -2.0582  1.6772  1.2782
  729SOL     MW 2916   2.522   1.504   1.105  0.1032  0.1727 -0.1693
  730SOL     OW 2917   2.224   1.162   0.188  0.0686  0.4004  0.1440
  730SOL    HW1 2918   2.298   1.107   0.202 -1.1163 -0.7333  0.2245
  730SOL    HW2 2919   2.258   1.251   0.205  0.1191  0.9972  0.1710
  730SOL     MW 2920   2.238   1.166   0.192 -0.0811  0.3295  0.1582
  731SOL     OW 2921   2.752   2.062   2.874  0.2599  0.0831  0.4758
  731SOL    HW1 2922   2.669   2.067   2.823  2.3804 -3.9064 -0.3075
  731SOL    HW2 2923   2.815   2.007   2.826 -1.3679 -0.9134 -1.1342
  731SOL     MW 2924   2.749   2.055   2.861  0.3249 -0.5748  0.1601
  732SOL     OW 2925   2.265   0.983   1.366  0.6855 -0.4415  0.2976
  732SOL    HW1 2926   2.237   0.968   1.461 -0.4865  1.5212  0.0946
  732SOL    HW2 2927   2.355   0.964   1.356 -0.7300 -3.3101  1.2018
  732SOL     MW 2928   2.273   0.979   1.377  0.3441 -0.5610  0.3901
  733SOL     OW 2929   2.389   2.769   3.010  0.1321 -0.5934 -0.2663
  733SOL    HW1 2930   2.313   2.818   3.044 -0.5604 -2.6972 -2.2777
  733SOL    HW2 2931   2.370   2.671   3.022  0.5342 -0.6218  1.9069
  733SOL     MW 2932   2.376   2.763   3.016  0.0938 -0.8747 -0.2449
  734SOL     OW 2933   1.537   0.271   2.540 -0.4882  0.2314 -0.5108
  734SOL    HW1 2934   1.526   0.244   2.631  0.1075  0.6093 -0.5968
  734SOL    HW2 2935   1.564   0.202   2.484 -1.0535  1.5795 -0.4890
  734SOL     MW 2936   1.539   0.259   2.545 -0.4842  0.4591 -0.5193
  735SOL     OW 2937   2.983   0.923   2.700  0.1946 -0.8022 -0.4178
  735SOL    HW1 2938   2.986   0.825   2.684  0.0288 -3.2866  1.1104
  735SOL    HW2 2939   3.014   0.931   2.791  1.7564 -0.8525 -1.7090
  735SOL     MW 2940   2.987   0.911   2.710  0.3788 -1.1367 -0.3865
  736SOL     OW 2941   0.136   0.580   2.577  0.1799 -0.4983 -0.2768
  736SOL    HW1 2942   0.127   0.647   2.500 -1.4491 -0.7903 -1.0150
  736SOL    HW2 2943   0.185   0.511   2.534 -1.2463  2.1025 -0.8218
  736SOL     MW 2944   0.141   0.580   2.561 -0.2232 -0.1936 -0.4461
  737SOL     OW 2945   2.979   0.650   2.654 -0.2498 -0.4478  0.7111
  737SOL    HW1 2946   2.915   0.627   2.581 -0.0532 -1.0865 -1.5393
  737SOL    HW2 2947   3.063   0.625   2.626 -1.5531  0.1807  2.6612
  737SOL     MW 2948   2.982   0.644   2.641 -0.3958 -0.4492  0.6715
  738SOL     OW 2949   0.118   0.469   1.874 -0.2036 -0.5437 -0.0704
  738SOL    HW1 2950   0.213   0.490   1.875 -0.7789  1.3019  0.8182
  738SOL    HW2 2951   0.093   0.478   1.779 -0.1912  1.7768 -0.5794
  738SOL     MW 2952   0.127   0.473   1.862 -0.2779  0.0060 -0.0203
  739SOL     OW 2953   2.470   0.997   2.117 -0.2351 -0.4911  0.3440
  739SOL    HW1 2954   2.420   0.958   2.048  2.7985  1.0944  1.8523
  739SOL    HW2 2955   2.546   1.027   2.072 -1.6442  1.9432  1.9016
  739SOL     MW 2956   2.473   0.996   2.102 -0.0208  0.0393  0.7485
  740SOL     OW 2957   0.115   1.816   2.924  0.6522 -0.2666 -0.1251
  740SOL    HW1 2958   0.079   1.727   2.948 -0.4078 -1.7845 -0.3065
  740SOL    HW2 2959   0.205   1.818   2.955 -0.4720 -0.5115 -0.4145
  740SOL     MW 2960   0.122   1.805   2.932  0.3640 -0.4992 -0.1872
  741SOL     OW 2961   2.195   1.136   2.711 -0.7630  0.3974 -0.1819
  741SOL    HW1 2962   2.175   1.218   2.672  1.4469 -2.6478  2.3893
  741SOL    HW2 2963   2.185   1.143   2.809 -0.3496 -0.1930 -0.7408
  741SOL     MW 2964   2.191   1.148   2.719 -0.4169 -0.0823  0.0836
  742SOL     OW 2965   1.636   1.226   2.262 -0.7556  0.0772  0.0782
  742SOL    HW1 2966   1.550   1.190   2.238 -0.6581  3.3174 -0.4882
  742SOL    HW2 2967   1.676   1.168   2.326 -3.5525  0.6038  0.3171
  742SOL     MW 2968   1.630   1.214   2.268 -1.1118  0.5742  0.0350
  743SOL     OW 2969   2.492   1.240   2.711  0.2003  0.0790  0.3824
  743SOL    HW1 2970   2.406   1.218   2.692  1.7122  1.1968 -0.2321
  743SOL    HW2 2971   2.521   1.171   2.773 -1.2790 -1.3106  2.8396
  743SOL     MW 2972   2.485   1.228   2.716  0.2046  0.0432  0.6255
  744SOL     OW 2973   2.691   0.864   1.892 -0.6754 -0.3251  0.7412
  744SOL    HW1 2974   2.647   0.947   1.867  0.8846  0.1361  0.9377
  744SOL    HW2 2975   2.672   0.809   1.819 -0.6620  1.3509  1.5535
  744SOL     MW 2976   2.683   0.868   1.879 -0.4678 -0.0431  0.8743
  745SOL     OW 2977   1.683   0.495   2.468 -0.3884 -0.2207  0.5416
  745SOL    HW1 2978   1.672   0.486   2.370 -3.6078 -0.2440 -0.8754
  745SOL    HW2 2979   1.627   0.426   2.505  0.1271  0.5229  3.2904
  745SOL     MW 2980   1.674   0.484   2.460 -0.7451 -0.1257  0.7173
  746SOL     OW 2981   1.619   1.436   1.651  0.8809  0.0036  0.8463
  746SOL    HW1 2982   1.713   1.425   1.657  0.7936 -1.3221 -0.4930
  746SOL    HW2 2983   1.582   1.459   1.739 -0.7602  1.5718 -3.2146
  746SOL     MW 2984   1.626   1.438   1.663  0.6529  0.0356  0.1338
  747SOL     OW 2985   2.632   1.136   1.821 -0.2419 -0.2386 -0.0601
  747SOL    HW1 2986   2.544   1.141   1.773 -0.1992  0.2063 -1.5520
  747SOL    HW2 2987   2.634   1.218   1.876 -0.6020 -1.5053  2.8282
  747SOL     MW 2988   2.621   1.148   1.822 -0.2837 -0.3470  0.1241
  748SOL     OW 2989   0.052   0.075   1.900  0.0387  0.3623  0.0199
  748SOL    HW1 2990   0.113   0.149   1.900  0.4043  3.6992  0.8325
  748SOL    HW2 2991  -0.021   0.105   1.962  0.2533 -1.7077  0.8897
  748SOL     MW 2992   0.051   0.088   1.908  0.1152  0.5295  0.2418
  749SOL     OW 2993   2.524   0.629   2.741  0.7965  0.2881  0.1657
  749SOL    HW1 2994   2.565   0.703   2.695 -1.7083  0.9543  2.1235
  749SOL    HW2 2995   2.520   0.661   2.836 -0.5805 -2.8199  0.1691
  749SOL     MW 2996   2.529   0.643   2.747  0.2843 -0.0341  0.4245
  750SOL     OW 2997   2.037   3.077   1.994 -0.3747  0.0127 -0.1993
  750SOL    HW1 2998   2.092   3.156   1.992 -0.7820 -0.4880  1.4539
  750SOL    HW2 2999   2.112   3.018   1.971 -1.0176  1.8597  0.1279
  750SOL     MW 3000   2.054   3.080   1.991 -0.5133  0.1903  0.0620
  751SOL     OW 3001   0.220   0.300   2.449  1.2453 -0.0938 -0.2900
  751SOL    HW1 3002   0.171   0.230   2.494  2.1923  1.9095 -0.0841
  751SOL    HW2 3003   0.225   0.283   2.355 -0.5941 -1.7058 -1.3174
  751SOL     MW 3004   0.214   0.289   2.442  1.1275 -0.0421 -0.3984
  752SOL     OW 3005   2.126   0.804   2.730  0.0482  0.1736 -0.2980
  752SOL    HW1 3006   2.191   0.855   2.681 -0.4448  0.0637 -1.8525
  752SOL    HW2 3007   2.147   0.799   2.824  1.7923  0.6480 -0.0645
  752SOL     MW 3008   2.137   0.810   2.736  0.2133  0.2217 -0.4723
  753SOL     OW 3009   2.844   0.191   2.385 -0.8289  0.2862  0.3364
  753SOL    HW1 3010   2.801   0.107   2.356  0.9279 -2.7315 -1.2569
  753SOL    HW2 3011   2.791   0.257   2.342 -0.5265  0.0487 -0.3948
  753SOL     MW 3012   2.831   0.189   2.375 -0.5572 -0.1433  0.0297
  754SOL     OW 3013   2.228   2.967   2.587 -0.0943 -0.5100 -0.1654
  754SOL    HW1 3014   2.260   2.930   2.504 -0.1126 -0.7202 -0.3702
  754SOL    HW2 3015   2.312   2.957   2.635 -0.7719 -0.4157  3.2206
  754SOL     MW 3016   2.243   2.961   2.582 -0.1862 -0.5253  0.2544
  755SOL     OW 3017   2.718   1.535   2.439  0.1811  0.0524 -0.9065
  755SOL    HW1 3018   2.743   1.455   2.491 -0.2759 -2.4449 -2.7614
  755SOL    HW2 3019   2.733   1.613   2.500 -0.1074  1.0020  0.7453
  755SOL     MW 3020   2.723   1.534   2.454  0.0827 -0.1518 -0.9333
  756SOL     OW 3021   2.208   1.214   2.973 -0.1435 -0.3177 -0.3252
  756SOL    HW1 3022   2.272   1.286   2.971 -0.5616 -2.1670 -2.1529
  756SOL    HW2 3023   2.243   1.149   3.038 -1.1277  2.2045 -0.6083
  756SOL     MW 3024   2.221   1.215   2.981 -0.3285 -0.2289 -0.6037
  757SOL     OW 3025   2.163   0.891   1.606  0.5542  0.1988 -0.1498
  757SOL    HW1 3026   2.215   0.813   1.598  0.0767  1.4899  0.1847
  757SOL    HW2 3027   2.078   0.886   1.556 -3.3453 -1.1375 -0.1562
  757SOL     MW 3028   2.159   0.880   1.598 -0.0233  0.1929 -0.1065
  758SOL     OW 3029   2.204   1.865   2.610 -0.3639  0.0786  0.0438
  758SOL    HW1 3030   2.189   1.877   2.520  0.5163  0.8670  2.3541
  758SOL    HW2 3031   2.293   1.833   2.619 -1.4125 -0.1995  1.9952
  758SOL     MW 3032   2.214   1.862   2.599 -0.3861  0.1460  0.6061
  759SOL     OW 3033   1.540   1.270   2.692 -0.5070  0.4000  0.2623
  759SOL    HW1 3034   1.545   1.351   2.632 -0.7436 -2.3946 -1.2139
  759SOL    HW2 3035   1.600   1.290   2.766  1.2664  1.3368 -0.4741
  759SOL     MW 3036   1.549   1.283   2.694 -0.3042  0.1549 -0.0296
  760SOL     OW 3037   2.504   1.978   2.734 -0.1710  0.5559  0.2793
  760SOL    HW1 3038   2.505   1.886   2.701 -0.0032  0.5447 -3.4157
  760SOL    HW2 3039   2.529   2.033   2.661 -0.3372 -1.9431 -2.0370
  760SOL     MW 3040   2.508   1.973   2.720 -0.1708  0.2247 -0.5138
  761SOL     OW 3041   2.153   0.400   2.531  0.2296  0.5363  0.2780
  761SOL    HW1 3042   2.128   0.323   2.585 -0.8466 -0.3608  3.6549
  761SOL    HW2 3043   2.195   0.464   2.597 -3.2357  0.8051  2.9101
  761SOL     MW 3044   2.155   0.398   2.547 -0.3696  0.4534  1.0708
  762SOL     OW 3045   3.027   0.196   2.148  0.6544 -0.0363  0.5806
  762SOL    HW1 3046   3.049   0.141   2.220 -1.4420 -1.3131 -2.2290
  762SOL    HW2 3047   3.055   0.290   2.175  3.4627 -0.3887  1.2040
  762SOL     MW 3048   3.034   0.201   2.161  0.7483 -0.2512  0.2922
  763SOL     OW 3049   2.324   1.031   2.343  0.2471 -0.3337 -0.1144
  763SOL    HW1 3050   2.383   0.995   2.273 -3.2477  0.6694 -4.5799
  763SOL    HW2 3051   2.374   1.119   2.361  4.5997  1.8670  0.6324
  763SOL     MW 3052   2.339   1.038   2.336  0.3602  0.0890 -0.6051
  764SOL     OW 3053   0.460   0.256   2.811 -0.0344  0.6644  0.2293
  764SOL    HW1 3054   0.366   0.235   2.794 -0.2312 -0.8132  2.7936
  764SOL    HW2 3055   0.455   0.347   2.837 -1.7123  0.4534  1.1107
  764SOL     MW 3056   0.447   0.265   2.812 -0.2817  0.4416  0.6839
  765SOL     OW 3057   2.745   3.048   2.360 -0.1890 -0.8907 -0.0576
  765SOL    HW1 3058   2.676   3.010   2.309  0.3753 -0.8796  2.5568
  765SOL    HW2 3059   2.827   3.011   2.319  0.9683 -0.0580 -0.0132
  765SOL     MW 3060   2.747   3.038   2.348  0.0381 -0.7793  0.2932
  766SOL     OW 3061   1.872   2.961   2.178 -0.2136 -0.2387  0.3662
  766SOL    HW1 3062   1.930   2.993   2.107  0.6216 -0.9850 -1.3118
  766SOL    HW2 3063   1.813   2.909   2.123  1.0025 -1.4901  1.0353
  766SOL     MW 3064   1.872   2.958   2.161  0.0570 -0.5022  0.2331
  767SOL     OW 3065   2.695   0.572   2.096 -0.1955 -0.6660  0.1862
  767SOL    HW1 3066   2.761   0.637   2.128  0.5348  0.2431 -2.1272
  767SOL    HW2 3067   2.618   0.613   2.051  1.3010  2.5478 -1.7134
  767SOL     MW 3068   2.694   0.586   2.094  0.0983 -0.1220 -0.3696
  768SOL     OW 3069   3.086   1.557   2.922 -0.3597 -0.6809 -1.4699
  768SOL    HW1 3070   3.106   1.543   3.019  1.8340 -1.2117  3.4554
  768SOL    HW2 3071   3.144   1.488   2.878 -2.8081  1.4353  1.9256
  768SOL     MW 3072   3.096   1.546   2.929 -0.3933 -0.4717 -0.3720
  769SOL     OW 3073   2.466   0.694   2.368  0.2182  0.3534  0.1714
  769SOL    HW1 3074   2.390   0.635   2.350  1.8564 -1.2125 -0.1694
  769SOL    HW2 3075   2.520   0.673   2.294  0.7219 -2.7329  1.5400
  769SOL     MW 3076   2.463   0.683   2.356  0.5008 -0.2604  0.3070
  770SOL     OW 3077   3.100   1.637   2.569 -0.1596 -0.1004 -0.1521
  770SOL    HW1 3078   3.019   1.592   2.556 -5.2305 -0.6304 -1.4860
  770SOL    HW2 3079   3.155   1.567   2.602 -0.1849  1.4634 -1.7614
  770SOL     MW 3080   3.097   1.622   2.571 -0.8320  0.0360 -0.5404
  771SOL     OW 3081   3.058   0.600   2.059 -0.0213 -0.0531 -0.7012
  771SOL    HW1 3082   2.982   0.562   2.010 -2.4773  1.3768 -1.8064
  771SOL    HW2 3083   3.139   0.570   2.005  1.9034 -0.7897 -0.8427
  771SOL     MW 3084   3.059   0.591   2.046 -0.0914  0.0383 -0.8657
  772SOL     OW 3085   0.063   0.017   2.299 -0.2614  0.1369 -0.1549
  772SOL    HW1 3086  -0.008  -0.041   2.296  0.2423 -0.8867 -0.6055
  772SOL    HW2 3087   0.127  -0.012   2.231  1.7149  0.6050  1.6534
  772SOL     MW 3088   0.062   0.006   2.289  0.0658  0.0636  0.0242
  773SOL     OW 3089   2.422   2.861   2.748  0.4438 -0.1778 -0.3915
  773SOL    HW1 3090   2.434   2.779   2.702  1.3761 -1.6194  0.9749
  773SOL    HW2 3091   2.403   2.829   2.836  1.1075  0.5488  2.2561
  773SOL     MW 3092   2.421   2.846   2.754  0.6544 -0.2721  0.1381
  774SOL     OW 3093   2.352   1.158   1.729  0.5178 -0.1225  0.3567
  774SOL    HW1 3094   2.319   1.232   1.678  0.5522 -0.4736 -0.3461
  774SOL    HW2 3095   2.301   1.081   1.715 -0.4387 -1.6825 -0.3399
  774SOL     MW 3096   2.341   1.158   1.721  0.3961 -0.3747  0.1721
  775SOL     OW 3097   2.333   2.896   2.326 -0.0926  0.6187  0.0762
  775SOL    HW1 3098   2.355   2.977   2.274  0.6598  2.0181 -1.4416
  775SOL    HW2 3099   2.368   2.818   2.287 -2.2356  0.8400  1.7963
  775SOL     MW 3100   2.340   2.897   2.314 -0.2761  0.8326  0.1029
  776SOL     OW 3101   0.029   1.515   0.101  0.2475  0.3004  0.1499
  776SOL    HW1 3102   0.121   1.507   0.094  0.1162  0.1137  1.2237
  776SOL    HW2 3103   0.001   1.424   0.109  3.6840  1.1476  1.7302
  776SOL     MW 3104   0.037   1.502   0.101  0.6836  0.3875  0.5001
  777SOL     OW 3105   2.977   1.022   1.751 -0.1730 -0.7820 -0.0032
  777SOL    HW1 3106   2.950   1.073   1.669  0.2306  2.3189 -0.9388
  777SOL    HW2 3107   2.900   0.975   1.782 -0.4918 -1.0725  1.5889
  777SOL     MW 3108   2.963   1.022   1.744 -0.1618 -0.4112  0.0835
  778SOL     OW 3109   2.887   0.419   2.765  0.1457 -0.2597  0.0975
  778SOL    HW1 3110   2.841   0.453   2.846 -1.1629 -0.7196 -0.4733
  778SOL    HW2 3111   2.925   0.497   2.726 -1.0128 -1.4044 -0.3773
  778SOL     MW 3112   2.886   0.434   2.771 -0.1798 -0.4714 -0.0404
  779SOL     OW 3113   2.118   0.569   2.314 -0.3801 -0.3233  0.1612
  779SOL    HW1 3114   2.064   0.633   2.347  0.7284 -1.5770  2.2625
  779SOL    HW2 3115   2.129   0.512   2.385  2.9097  1.7159 -3.3573
  779SOL     MW 3116   2.112   0.570   2.328  0.2002 -0.2197 -0.0257
  780SOL     OW 3117   0.214   0.132   2.830 -0.7703 -0.2699  0.2844
  780SOL    HW1 3118   0.148   0.168   2.890 -2.8837 -1.2423  0.1039
  780SOL    HW2 3119   0.186   0.123   2.735  1.5466  0.7415 -1.6773
  780SOL     MW 3120   0.201   0.135   2.825 -0.7434 -0.2648  0.0017
  781SOL     OW 3121   3.068   1.345   2.498 -0.2745  0.5187 -0.4628
  781SOL    HW1 3122   3.039   1.391   2.420 -0.3801 -1.4518 -2.5965
  781SOL    HW2 3123   3.102   1.263   2.476  0.8288  1.8328  0.1247
  781SOL     MW 3124   3.069   1.340   2.485 -0.1429  0.4321 -0.6668
  782SOL     OW 3125   0.513   1.617   3.050 -0.1241 -0.5065 -0.2268
  782SOL    HW1 3126   0.444   1.683   3.056 -1.2904 -1.1336  0.5244
  782SOL    HW2 3127   0.494   1.568   3.138  0.5145 -2.9932 -0.2492
  782SOL     MW 3128   0.502   1.619   3.063 -0.1937 -0.9173 -0.1307
  783SOL     OW 3129   2.784   0.554   2.476 -0.1309  0.2315 -0.1752
  783SOL    HW1 3130   2.773   0.527   2.384  0.6334 -1.2192  0.4098
  783SOL    HW2 3131   2.719   0.507   2.526 -0.0546 -0.5677 -3.1498
  783SOL     MW 3132   2.774   0.544   2.471 -0.0200 -0.0654 -0.4905
  784SOL     OW 3133   0.242   0.914   2.919 -0.5866  0.0348 -0.3483
  784SOL    HW1 3134   0.219   1.002   2.958 -1.5386  3.9219 -0.6834
  784SOL    HW2 3135   0.245   0.954   2.834 -0.7909  0.2063  3.0622
  784SOL     MW 3136   0.240   0.931   2.913 -0.7392  0.5703  0.0575
  785SOL     OW 3137   0.361   0.477   2.119 -0.4083 -0.1968 -0.7279
  785SOL    HW1 3138   0.374   0.495   2.023 -2.6242 -2.6271  0.7605
  785SOL    HW2 3139   0.301   0.403   2.131  0.7350  2.7963 -1.7214
  785SOL     MW 3140   0.355   0.469   2.108 -0.5498 -0.1226 -0.6626
  786SOL     OW 3141   1.974   0.488   2.859  0.3316  0.6079 -0.6235
  786SOL    HW1 3142   1.956   0.482   2.952  0.4376 -2.6633  0.1535
  786SOL    HW2 3143   2.068   0.482   2.850 -2.3554  1.0027  3.3770
  786SOL     MW 3144   1.984   0.486   2.870 -0.0090  0.2284  0.0069
  787SOL     OW 3145   2.429   0.188   2.901  0.6951  0.3925  0.4076
  787SOL    HW1 3146   2.481   0.124   2.859  1.6332  0.9614  0.1445
  787SOL    HW2 3147   2.482   0.246   2.951 -1.0073  1.0667 -1.2797
  787SOL     MW 3148   2.443   0.188   2.902  0.5943  0.5565  0.1503
  788SOL     OW 3149   2.966   2.916   2.282 -0.2389 -0.0821  0.1017
  788SOL    HW1 3150   2.996   2.871   2.199  1.7071  2.4219  0.8596
  788SOL    HW2 3151   3.004   2.866   2.355  0.0555 -2.3715 -0.2348
  788SOL     MW 3152   2.975   2.904   2.281  0.0567 -0.0538  0.1573
  789SOL     OW 3153   0.024   0.235   3.020 -0.4874  0.4156  0.5171
  789SOL    HW1 3154  -0.068   0.266   3.005 -0.2612 -2.4178  1.3783
  789SOL    HW2 3155   0.065   0.298   3.077  0.8363  0.3948  1.5868
  789SOL     MW 3156   0.018   0.247   3.025 -0.2829  0.0391  0.7719
  790SOL     OW 3157   0.013   1.053   2.471  0.3230  0.3568  0.8262
  790SOL    HW1 3158  -0.044   1.020   2.536 -1.1571  1.0117 -1.1816
  790SOL    HW2 3159  -0.046   1.073   2.399  0.7608 -0.0327  1.8398
  790SOL     MW 3160  -0.002   1.051   2.470  0.1855  0.3918  0.6950
  791SOL     OW 3161   2.645   0.395   2.636  0.4450  0.0948 -0.3116
  791SOL    HW1 3162   2.592   0.462   2.670  1.3589 -1.0716  1.0730
  791SOL    HW2 3163   2.726   0.389   2.685 -1.6160 -3.2879  0.4149
  791SOL     MW 3164   2.649   0.403   2.647  0.2936 -0.5054 -0.0331
  792SOL     OW 3165   2.389   0.237   2.392  0.6031 -0.1180  0.0016
  792SOL    HW1 3166   2.310   0.262   2.442  3.7247 -0.5303 -0.1347
  792SOL    HW2 3167   2.456   0.221   2.455  0.1475 -0.5226 -1.9071
  792SOL     MW 3168   2.387   0.238   2.407  0.9548 -0.2258 -0.2682
  793SOL     OW 3169   1.751   1.018   1.866 -0.2710  0.6354 -0.3197
  793SOL    HW1 3170   1.744   1.055   1.781 -2.8900  1.8967 -0.7123
  793SOL    HW2 3171   1.809   0.946   1.848 -1.4303  2.0445 -2.5288
  793SOL     MW 3172   1.758   1.013   1.852 -0.7695  0.9878 -0.6630
  794SOL     OW 3173   1.419   2.286   0.127 -0.5243 -0.1417 -0.1460
  794SOL    HW1 3174   1.452   2.361   0.077  1.3045  1.3411  0.4929
  794SOL    HW2 3175   1.446   2.305   0.217 -0.6936 -1.9378 -0.0510
  794SOL     MW 3176   1.427   2.298   0.133 -0.3054 -0.1830 -0.0491
  795SOL     OW 3177   2.342   0.930   2.591  0.5030  0.0840 -0.0973
  795SOL    HW1 3178   2.292   1.002   2.627  3.1287 -1.1043  0.1636
  795SOL    HW2 3179   2.339   0.953   2.497  0.8687 -1.4606 -1.0453
  795SOL     MW 3180   2.335   0.942   2.583  0.8977 -0.2766 -0.1880
  796SOL     OW 3181   0.316   0.679   2.766 -0.1815  0.1974  0.1464
  796SOL    HW1 3182   0.283   0.746   2.828  2.1918  0.0151  1.2409
  796SOL    HW2 3183   0.240   0.656   2.715  0.8432 -0.2595  0.3629
  796SOL     MW 3184   0.302   0.685   2.767  0.2669  0.1131  0.3194
  797SOL     OW 3185   2.593   0.122   2.566 -0.1530  0.0460 -0.1954
  797SOL    HW1 3186   2.624   0.209   2.603 -0.3200  3.2259  1.1755
  797SOL    HW2 3187   2.663   0.086   2.511 -1.0327  1.3490 -1.0390
  797SOL     MW 3188   2.606   0.129   2.563 -0.2911  0.6375 -0.1259
  798SOL     OW 3189   2.376   0.050   2.180  0.7770 -0.6631 -0.0193
  798SOL    HW1 3190   2.385   0.113   2.254 -1.2562  1.1940 -0.3038
  798SOL    HW2 3191   2.468   0.017   2.168  0.8015  0.4486 -0.0598
  798SOL     MW 3192   2.390   0.054   2.188  0.5119 -0.2714 -0.0622
  799SOL     OW 3193   2.485   2.929   0.197  0.2215  0.2808 -0.1882
  799SOL    HW1 3194   2.542   2.903   0.123  1.1955 -0.9097  1.5919
  799SOL    HW2 3195   2.428   2.996   0.168 -0.1595 -1.1616 -0.0870
  799SOL     MW 3196   2.485   2.934   0.183  0.2997 -0.0666  0.0600
  800SOL     OW 3197   1.904   3.100   1.759  0.1706  0.0481 -0.4848
  800SOL    HW1 3198   1.835   3.031   1.766  1.1200 -0.6359 -3.6067
  800SOL    HW2 3199   1.955   3.088   1.842 -0.4180 -0.1760  0.3931
  800SOL     MW 3200   1.902   3.089   1.771  0.2182 -0.0717 -0.7809
  801SOL     OW 3201   2.807   1.285   2.573  0.3840 -0.0654  0.6594
  801SOL    HW1 3202   2.786   1.192   2.542 -1.0653  0.2633 -2.1184
  801SOL    HW2 3203   2.903   1.284   2.574  0.7312 -1.6004 -0.4369
  801SOL     MW 3204   2.817   1.273   2.569  0.2386 -0.2246  0.1482
  802SOL     OW 3205   2.556   1.508   2.773  0.0264 -0.4623  0.2509
  802SOL    HW1 3206   2.550   1.419   2.738  0.3165 -1.9801  1.5022
  802SOL    HW2 3207   2.651   1.523   2.772 -2.3498  1.2540 -0.1570
  802SOL     MW 3208   2.568   1.498   2.768 -0.2489 -0.4361  0.3622
  803SOL     OW 3209   2.302   1.301   1.967 -0.3552  0.2636  0.0080
  803SOL    HW1 3210   2.247   1.255   2.029  0.1184  0.1559  2.9548
  803SOL    HW2 3211   2.316   1.234   1.896 -2.3689  0.2017  0.7491
  803SOL     MW 3212   2.296   1.286   1.966 -0.5584  0.2412  0.4946
  804SOL     OW 3213   2.351   0.050   0.039 -0.2243 -0.0347  0.2512
  804SOL    HW1 3214   2.266   0.097   0.027  1.1146  0.4747  0.8327
  804SOL    HW2 3215   2.395   0.093  -0.037  1.1217  0.2277 -0.0260
  804SOL     MW 3216   2.346   0.062   0.027  0.1300  0.0671  0.2914
  805SOL     OW 3217   2.768   1.022   2.532 -0.0350 -0.0135 -0.3022
  805SOL    HW1 3218   2.692   0.962   2.526 -0.0940  0.6127  3.1655
  805SOL    HW2 3219   2.820   0.980   2.605 -0.0849 -1.7779  0.1103
  805SOL     MW 3220   2.765   1.009   2.541 -0.0494 -0.1637  0.2097
  806SOL     OW 3221   2.683   0.351   2.237  0.0798 -0.0806 -0.4325
  806SOL    HW1 3222   2.593   0.371   2.263 -0.0768 -1.2598 -1.1045
  806SOL    HW2 3223   2.685   0.424   2.174  1.9254 -1.0954 -1.2442
  806SOL     MW 3224   2.671   0.363   2.232  0.3027 -0.3701 -0.6282
  807SOL     OW 3225   0.025   1.150   2.051 -0.0192  0.2253  0.6137
  807SOL    HW1 3226   0.051   1.056   2.053  0.8361  0.3715  1.3886
  807SOL    HW2 3227  -0.047   1.143   2.117 -2.0756  1.6423  1.0283
  807SOL     MW 3228   0.019   1.136   2.060 -0.1777  0.4315  0.7706
  808SOL     OW 3229   2.575   3.086   2.799  0.2310 -0.0913 -0.0562
  808SOL    HW1 3230   2.505   3.018   2.782 -2.6183  1.5469  1.9041
  808SOL    HW2 3231   2.597   3.125   2.713 -0.7674  0.1224  3.1872
  808SOL     MW 3232   2.569   3.082   2.785 -0.2767  0.1530  0.6304
  809SOL     OW 3233   2.492   1.245   2.415 -0.0026 -0.2950 -0.0092
  809SOL    HW1 3234   2.518   1.239   2.505  0.0651  2.2206 -2.3752
  809SOL    HW2 3235   2.559   1.223   2.353  1.3983 -1.1417 -0.1697
  809SOL     MW 3236   2.504   1.242   2.418  0.1912 -0.0748 -0.3425
  810SOL     OW 3237   2.167   1.188   2.171  0.0887 -0.0191 -0.1373
  810SOL    HW1 3238   2.202   1.116   2.222  0.2334 -1.1703 -3.1880
  810SOL    HW2 3239   2.074   1.163   2.154 -1.4075 -0.6315  0.5797
  810SOL     MW 3240   2.159   1.175   2.176 -0.0896 -0.2518 -0.4452
  811SOL     OW 3241   1.480   0.107   2.251  0.8416 -0.1298 -0.2368
  811SOL    HW1 3242   1.542   0.049   2.298  0.8485 -2.0738  2.5338
  811SOL    HW2 3243   1.436   0.063   2.169 -2.1803  1.1639 -0.1995
  811SOL     MW 3244   1.482   0.093   2.246  0.4438 -0.2156  0.1337
  812SOL     OW 3245   1.411   2.772   2.109  0.8957  0.1621  0.3119
  812SOL    HW1 3246   1.503   2.764   2.073  0.4275 -0.9228  1.6145
  812SOL    HW2 3247   1.422   2.755   2.204 -2.7544 -2.8524  0.2955
  812SOL     MW 3248   1.425   2.768   2.117  0.3524 -0.3788  0.4816
  813SOL     OW 3249   1.853   0.761   2.166 -0.1287 -0.0770  0.0246
  813SOL    HW1 3250   1.838   0.677   2.207 -2.4326 -0.1511 -0.6426
  813SOL    HW2 3251   1.924   0.807   2.213  2.2824  0.9624  0.1693
  813SOL     MW 3252   1.860   0.756   2.178 -0.1146  0.0504 -0.0443
  814SOL     OW 3253   2.794   1.206   1.617  0.0678 -0.3743 -0.2561
  814SOL    HW1 3254   2.733   1.162   1.684  0.5721  0.2533  1.1342
  814SOL    HW2 3255   2.767   1.181   1.529 -2.1908 -3.4045  1.3758
  814SOL     MW 3256   2.783   1.197   1.614 -0.1637 -0.6913  0.1427
  815SOL     OW 3257   2.469   1.643   2.340  0.1894 -0.3810  0.0179
  815SOL    HW1 3258   2.404   1.571   2.346 -1.7692 -3.3726 -1.7987
  815SOL    HW2 3259   2.548   1.594   2.338 -0.0990  3.9364 -0.3186
  815SOL     MW 3260   2.471   1.627   2.341 -0.1070 -0.2061 -0.2662
  816SOL     OW 3261   0.666   0.686   2.690 -0.3293 -0.9430 -0.6295
  816SOL    HW1 3262   0.710   0.617   2.738 -0.2375  1.4648 -0.7289
  816SOL    HW2 3263   0.585   0.643   2.650  2.5091 -2.5675 -0.4049
  816SOL     MW 3264   0.661   0.671   2.691  0.0573 -0.8396 -0.6130
  817SOL     OW 3265   3.009   1.149   1.357 -0.1504  0.0787 -0.4895
  817SOL    HW1 3266   3.067   1.163   1.432 -0.7197 -2.8262  0.1938
  817SOL    HW2 3267   2.976   1.243   1.338 -6.2183  1.4170 -0.9873
  817SOL     MW 3268   3.012   1.163   1.365 -1.0261 -0.1280 -0.4650
  818SOL     OW 3269   1.915   0.966   2.684 -0.1234  0.0458  0.0400
  818SOL    HW1 3270   1.976   1.016   2.632  3.5792 -2.4457 -0.5608
  818SOL    HW2 3271   1.968   0.890   2.709 -1.3224 -0.0665  0.0219
  818SOL     MW 3272   1.930   0.963   2.680  0.2069 -0.2977 -0.0416
  819SOL     OW 3273   1.856   0.264   2.337  0.8455 -0.5518 -0.2476
  819SOL    HW1 3274   1.827   0.350   2.372  1.1225  2.6959 -0.5303
  819SOL    HW2 3275   1.906   0.224   2.409 -0.5216 -0.3277 -1.6212
  819SOL     MW 3276   1.859   0.270   2.351  0.7017 -0.0937 -0.4661
  820SOL     OW 3277   2.483   1.740   2.616  0.2066  0.3224 -0.3988
  820SOL    HW1 3278   2.538   1.669   2.640  0.5153 -1.1609  1.6309
  820SOL    HW2 3279   2.506   1.748   2.520  1.1590  2.9983 -1.3551
  820SOL     MW 3280   2.493   1.732   2.606  0.3730  0.4797 -0.2572
  821SOL     OW 3281   2.576   1.330   1.995  0.0439  0.0629 -0.5094
  821SOL    HW1 3282   2.603   1.391   1.921  1.6211  0.0420  0.1963
  821SOL    HW2 3283   2.484   1.330   1.990  0.7836  0.9178 -1.7029
  821SOL     MW 3284   2.568   1.338   1.985  0.3496  0.1729 -0.5737
  822SOL     OW 3285   2.920   2.667   1.407  0.2328 -0.5616  0.7268
  822SOL    HW1 3286   2.847   2.725   1.389 -0.3937 -1.8727  1.8394
  822SOL    HW2 3287   2.989   2.719   1.436 -0.9229  0.5685  0.2326
  822SOL     MW 3288   2.920   2.681   1.408 -0.0023 -0.5855  0.8084
  823SOL     OW 3289   2.332   0.454   1.750  0.4300  1.0467  0.3568
  823SOL    HW1 3290   2.400   0.432   1.683 -1.1516 -0.2463 -0.5809
  823SOL    HW2 3291   2.256   0.391   1.734  0.9388 -1.8863 -0.9352
  823SOL     MW 3292   2.331   0.443   1.739  0.2885  0.4891  0.0626
  824SOL     OW 3293   2.117   1.375   2.585 -0.1805  0.0664  0.7694
  824SOL    HW1 3294   2.160   1.395   2.499  0.0996  1.2146 -0.8568
  824SOL    HW2 3295   2.092   1.465   2.625 -1.2921  1.2253 -0.7826
  824SOL     MW 3296   2.119   1.390   2.579 -0.2902  0.3708  0.3501
  825SOL     OW 3297   2.134   2.398   0.364 -0.4930  0.1352 -0.5076
  825SOL    HW1 3298   2.199   2.377   0.291  2.8763 -3.3145 -0.5282
  825SOL    HW2 3299   2.185   2.399   0.443 -0.5561 -0.4526 -2.8294
  825SOL     MW 3300   2.149   2.395   0.364 -0.0568 -0.3975 -0.8167
  826SOL     OW 3301   1.740   2.387   0.417 -0.1377  0.2322 -0.0151
  826SOL    HW1 3302   1.762   2.312   0.480  1.4474  0.4113  2.5557
  826SOL    HW2 3303   1.774   2.462   0.472 -0.3335  1.5684  2.2665
  826SOL     MW 3304   1.748   2.387   0.433  0.0456  0.4321  0.6251
  827SOL     OW 3305   1.938   2.283   0.861 -0.0087  0.0271  0.0652
  827SOL    HW1 3306   1.885   2.272   0.777 -0.7961  0.0203 -0.0556
  827SOL    HW2 3307   1.888   2.213   0.910 -0.6770 -4.9872 -0.9694
  827SOL     MW 3308   1.924   2.272   0.856 -0.2007 -0.6354 -0.0872
  828SOL     OW 3309   0.068   2.603   0.554  0.6876  0.1948 -0.2588
  828SOL    HW1 3310   0.159   2.573   0.543  2.8212  1.3548  0.2201
  828SOL    HW2 3311   0.050   2.676   0.490 -0.2247  0.2881  1.2029
  828SOL     MW 3312   0.078   2.609   0.544  0.8488  0.3602 -0.0027
  829SOL     OW 3313   2.989   2.882   1.203 -0.4873 -0.4649 -0.5350
  829SOL    HW1 3314   2.914   2.894   1.150  2.2206  0.4041  0.4759
  829SOL    HW2 3315   3.011   2.791   1.206 -1.2898  1.1488 -2.8537
  829SOL     MW 3316   2.982   2.872   1.197 -0.2359 -0.1373 -0.7076
  830SOL     OW 3317   2.509   2.779   1.994  0.5681 -0.0852  0.5867
  830SOL    HW1 3318   2.427   2.804   1.953 -2.1452  0.6420 -3.1065
  830SOL    HW2 3319   2.574   2.782   1.925  0.2991  4.0140  2.1795
  830SOL     MW 3320   2.507   2.782   1.980  0.1746  0.5516  0.3096
  831SOL     OW 3321   2.459   2.428   1.229  0.1555 -0.2421  0.5494
  831SOL    HW1 3322   2.431   2.332   1.244 -1.7023 -1.1473  0.1514
  831SOL    HW2 3323   2.546   2.430   1.189  1.0044 -1.5366  1.2545
  831SOL     MW 3324   2.467   2.416   1.226  0.0224 -0.5324  0.5899
  832SOL     OW 3325   2.429   2.122   1.914  0.1334 -0.3090 -0.1005
  832SOL    HW1 3326   2.478   2.202   1.931  2.1596  2.0918  0.4665
  832SOL    HW2 3327   2.461   2.092   1.829  0.3956  2.7244  0.5335
  832SOL     MW 3328   2.440   2.129   1.905  0.4353  0.4080  0.0579
  833SOL     OW 3329   1.628   2.528   0.834 -0.0460 -0.6947 -0.6281
  833SOL    HW1 3330   1.605   2.436   0.862  2.3918  0.7338  0.7241
  833SOL    HW2 3331   1.549   2.590   0.846 -0.3204  1.9357 -0.0100
  833SOL     MW 3332   1.614   2.524   0.839  0.2395 -0.1592 -0.3681
  834SOL     OW 3333   2.251   2.371   0.652 -0.4239  0.2746  0.2348
  834SOL    HW1 3334   2.244   2.275   0.679 -0.7602 -1.6496 -0.4538
  834SOL    HW2 3335   2.337   2.399   0.673  0.9795  1.4316  0.2450
  834SOL     MW 3336   2.261   2.362   0.658 -0.2831  0.1734  0.1453
  835SOL     OW 3337   1.808   2.534   0.623  1.1076  0.5616  0.5852
  835SOL    HW1 3338   1.743   2.513   0.684  3.4948 -3.6131  1.9896
  835SOL    HW2 3339   1.897   2.506   0.647  0.8711  2.4706  2.0961
  835SOL     MW 3340   1.811   2.528   0.634  1.3913  0.2627  0.9698
  836SOL     OW 3341   2.096   2.080   1.725 -0.0910 -0.4177  0.6381
  836SOL    HW1 3342   2.175   2.031   1.732 -0.7562 -0.4559  0.2938
  836SOL    HW2 3343   2.122   2.173   1.733 -0.4712 -0.5966  1.2207
  836SOL     MW 3344   2.110   2.085   1.727 -0.2289 -0.4464  0.6695
  837SOL     OW 3345   2.106   0.173   0.619  0.4127  0.0777 -0.1096
  837SOL    HW1 3346   2.023   0.187   0.580  3.6578 -2.1188  2.9244
  837SOL    HW2 3347   2.150   0.124   0.551 -1.0582  1.2514 -0.5893
  837SOL     MW 3348   2.101   0.169   0.605  0.6468 -0.0573  0.2274
  838SOL     OW 3349   2.918   2.059   0.899  0.2879  0.3512  0.2064
  838SOL    HW1 3350   2.848   1.992   0.894 -0.1502 -2.4967 -0.8971
  838SOL    HW2 3351   2.944   2.048   0.992  2.3075 -1.9997 -2.0524
  838SOL     MW 3352   2.912   2.048   0.910  0.4966 -0.3347 -0.2372
  839SOL     OW 3353   1.533   2.393   1.055 -0.7081 -0.1554  0.7065
  839SOL    HW1 3354   1.517   2.459   1.118  0.9466 -0.3002  0.2340
  839SOL    HW2 3355   1.578   2.324   1.119  0.7754  2.3454 -1.6365
  839SOL     MW 3356   1.537   2.392   1.072 -0.2940  0.1555  0.3351
  840SOL     OW 3357   2.433   2.109   2.324 -0.1537  0.1779 -0.1913
  840SOL    HW1 3358   2.364   2.180   2.314  0.0363  1.4869 -1.1976
  840SOL    HW2 3359   2.487   2.129   2.405  0.5171 -0.7237  1.1673
  840SOL     MW 3360   2.431   2.121   2.334 -0.0401  0.2317 -0.1448
  841SOL     OW 3361   2.328   2.294   0.119 -0.2400  0.2554  0.0039
  841SOL    HW1 3362   2.322   2.350   0.040  0.2504  0.7675 -0.7270
  841SOL    HW2 3363   2.248   2.243   0.112  0.6877 -0.1093 -0.0345
  841SOL     MW 3364   2.316   2.295   0.108 -0.0529  0.2749 -0.0976
  842SOL     OW 3365   2.639   1.924   1.467  0.4124  0.4129  0.5543
  842SOL    HW1 3366   2.594   1.842   1.476  1.1768 -0.6898  0.5777
  842SOL    HW2 3367   2.625   1.947   1.373 -0.8531 -0.4522  1.0581
  842SOL     MW 3368   2.632   1.916   1.456  0.3463  0.1533  0.6238
  843SOL     OW 3369   2.651   2.778   1.761  0.3143  0.2881  0.2003
  843SOL    HW1 3370   2.739   2.739   1.774  0.8105 -3.7642 -0.0874
  843SOL    HW2 3371   2.593   2.706   1.723  0.9338 -1.6304 -0.6289
  843SOL     MW 3372   2.655   2.763   1.758  0.4615 -0.4997  0.0529
  844SOL     OW 3373   2.696   2.331   1.090 -0.4370  0.1941 -0.6057
  844SOL    HW1 3374   2.699   2.365   1.002  1.0203 -1.3954 -0.4808
  844SOL    HW2 3375   2.771   2.365   1.144 -2.0370  0.1888  2.1976
  844SOL     MW 3376   2.706   2.340   1.086 -0.4558 -0.0164 -0.2193
  845SOL     OW 3377   2.858   2.600   0.290 -0.1506  0.0967 -0.1164
  845SOL    HW1 3378   2.854   2.516   0.339 -0.6776  1.6549 -2.6474
  845SOL    HW2 3379   2.849   2.677   0.344 -1.2123  1.5914 -0.4226
  845SOL     MW 3380   2.857   2.599   0.304 -0.3602  0.4995 -0.4907
  846SOL     OW 3381   1.467   2.755   0.790 -0.3442 -0.4040 -0.4042
  846SOL    HW1 3382   1.534   2.822   0.815  1.2040 -1.6041 -1.1095
  846SOL    HW2 3383   1.382   2.794   0.788  0.8095  1.5300  1.0930
  846SOL     MW 3384   1.465   2.769   0.793  0.0123 -0.3072 -0.2997
  847SOL     OW 3385   2.462   1.845   0.223 -0.4651 -0.2216 -0.3121
  847SOL    HW1 3386   2.441   1.747   0.241 -0.6188 -1.7393  1.3204
  847SOL    HW2 3387   2.451   1.858   0.118 -1.4946  1.2235 -0.6105
  847SOL     MW 3388   2.458   1.834   0.211 -0.6212 -0.2312 -0.1361
  848SOL     OW 3389   2.680   2.051   1.200  0.0815 -0.1184 -0.2138
  848SOL    HW1 3390   2.690   2.128   1.142 -4.2614  1.0838  2.5176
  848SOL    HW2 3391   2.725   1.982   1.156  0.3108 -1.1941  2.6880
  848SOL     MW 3392   2.687   2.052   1.186 -0.4612 -0.1017  0.5295
  849SOL     OW 3393   1.949   2.844   0.821 -0.0333  0.0752  0.2385
  849SOL    HW1 3394   1.891   2.827   0.896 -1.9738 -1.5449 -0.4138
  849SOL    HW2 3395   1.978   2.753   0.798 -2.2532 -2.9376  0.9970
  849SOL     MW 3396   1.945   2.830   0.828 -0.5822 -0.5360  0.2525
  850SOL     OW 3397   2.319   1.913   1.622  0.3090  0.7620 -0.1457
  850SOL    HW1 3398   2.228   1.882   1.593  1.2174  0.2142  2.5439
  850SOL    HW2 3399   2.331   2.003   1.577  1.4099  3.1974 -1.7245
  850SOL     MW 3400   2.309   1.921   1.612  0.5741  1.0111  0.0009
  851SOL     OW 3401   2.506   2.211   0.385  0.9330 -0.3790  0.1459
  851SOL    HW1 3402   2.545   2.185   0.298  1.4527 -0.6253 -2.0376
  851SOL    HW2 3403   2.515   2.306   0.375  1.4113 -1.5285  2.2497
  851SOL     MW 3404   2.512   2.220   0.372  1.0647 -0.5631  0.1354
  852SOL     OW 3405   2.280   1.998   0.355 -0.4837 -0.3893 -0.5488
  852SOL    HW1 3406   2.322   2.083   0.369  2.4420 -0.7481  0.1514
  852SOL    HW2 3407   2.357   1.948   0.323 -1.5448 -0.0939  1.9696
  852SOL     MW 3408   2.296   2.003   0.353 -0.2377 -0.3976 -0.1241
  853SOL     OW 3409   2.533   2.371   1.916  0.2651  0.0971 -0.3946
  853SOL    HW1 3410   2.529   2.415   1.831 -0.6783 -0.1371 -1.1999
  853SOL    HW2 3411   2.627   2.369   1.947 -2.3446 -0.4220  0.2594
  853SOL     MW 3412   2.544   2.377   1.909 -0.2037 -0.0023 -0.4145
  854SOL     OW 3413   2.893   2.275   0.730 -0.4622 -0.6390  0.0514
  854SOL    HW1 3414   2.804   2.250   0.716  1.7040 -1.6652 -0.3980
  854SOL    HW2 3415   2.924   2.212   0.801  1.3906 -3.1188 -0.8176
  854SOL     MW 3416   2.886   2.263   0.738  0.0681 -1.1016 -0.1226
  855SOL     OW 3417   2.788   2.387   0.425  0.2976 -0.1910  0.1565
  855SOL    HW1 3418   2.702   2.377   0.461  0.8163  1.4878 -2.7943
  855SOL    HW2 3419   2.811   2.300   0.395 -1.5276  1.5640 -0.5128
  855SOL     MW 3420   2.780   2.374   0.426  0.1252  0.2620 -0.3211
  856SOL     OW 3421   2.063   1.863   0.237  0.5770  0.2940  0.4800
  856SOL    HW1 3422   1.978   1.873   0.285 -0.6072 -1.3018 -1.4824
  856SOL    HW2 3423   2.122   1.923   0.283  0.7111  1.7186  0.0107
  856SOL     MW 3424   2.060   1.872   0.249  0.4384  0.2714  0.1592
  857SOL     OW 3425   2.468   1.942   0.583 -0.0092 -0.4646 -0.0369
  857SOL    HW1 3426   2.412   1.952   0.503  0.0503  0.2690  0.3313
  857SOL    HW2 3427   2.390   1.926   0.648 -1.9965 -2.1106  0.7928
  857SOL     MW 3428   2.450   1.941   0.581 -0.2635 -0.5850  0.1211
  858SOL     OW 3429   2.893   2.698   1.793 -0.0421  0.2527  0.4048
  858SOL    HW1 3430   2.973   2.719   1.837 -0.4892  0.0921 -0.8317
  858SOL    HW2 3431   2.904   2.617   1.745  0.6146  2.1615  0.7648
  858SOL     MW 3432   2.905   2.690   1.792 -0.0145  0.4833  0.2891
  859SOL     OW 3433   1.800   2.683   0.974 -0.8586 -0.2919 -0.4329
  859SOL    HW1 3434   1.735   2.643   0.914 -1.8995 -1.9750 -1.6471
  859SOL    HW2 3435   1.865   2.617   0.995  1.4663 -3.8324  0.9661
  859SOL     MW 3436   1.800   2.669   0.969 -0.6892 -0.9811 -0.4085
  860SOL     OW 3437   2.617   2.580   0.147  0.3886  0.0269 -0.2722
  860SOL    HW1 3438   2.688   2.590   0.214 -1.2052 -0.4195 -1.0407
  860SOL    HW2 3439   2.625   2.657   0.088 -0.9009  2.3532 -1.8907
  860SOL     MW 3440   2.627   2.591   0.148  0.0082  0.2750 -0.5872
  861SOL     OW 3441   1.622   2.144   1.195 -0.5034  0.3261 -0.2521
  861SOL    HW1 3442   1.653   2.167   1.279  2.8138 -3.1681 -0.2089
  861SOL    HW2 3443   1.538   2.095   1.205 -1.4713 -0.3787  0.0221
  861SOL     MW 3444   1.615   2.140   1.207 -0.1934 -0.2280 -0.2102
  862SOL     OW 3445   2.423   1.716   1.426 -0.7960 -0.1036 -0.0902
  862SOL    HW1 3446   2.390   1.771   1.493  2.7336 -0.9060 -1.0718
  862SOL    HW2 3447   2.386   1.753   1.348  1.6243  1.3416 -0.1657
  862SOL     MW 3448   2.414   1.728   1.425 -0.0110 -0.0188 -0.2297
  863SOL     OW 3449   2.953   1.715   0.974 -0.5654  0.1512  0.1765
  863SOL    HW1 3450   3.024   1.745   1.030 -2.5919  1.0307  1.1899
  863SOL    HW2 3451   2.873   1.762   0.998 -3.8487 -0.9219 -4.7231
  863SOL     MW 3452   2.952   1.726   0.984 -1.2659  0.1257 -0.3362
  864SOL     OW 3453   0.023   1.765   0.761  0.1925 -0.2110  0.3722
  864SOL    HW1 3454  -0.053   1.748   0.818 -0.3469 -1.1604 -0.7124
  864SOL    HW2 3455  -0.023   1.769   0.679 -2.0939 -3.0013  0.1225
  864SOL     MW 3456   0.007   1.763   0.758 -0.1804 -0.7044  0.1961
  865SOL     OW 3457   2.564   2.154   0.115 -0.3983 -0.5771  0.6234
  865SOL    HW1 3458   2.547   2.077   0.064  0.8368  2.8451 -0.4523
  865SOL    HW2 3459   2.471   2.186   0.113  1.1290 -3.2715  0.8742
  865SOL     MW 3460   2.549   2.148   0.108 -0.0338 -0.4811  0.5146
  866SOL     OW 3461   2.709   2.350   1.529  0.4518 -0.2683 -0.2404
  866SOL    HW1 3462   2.676   2.266   1.549  0.1895 -1.7161  0.7052
  866SOL    HW2 3463   2.768   2.344   1.449  1.8093  1.2917 -0.0071
  866SOL     MW 3464   2.713   2.338   1.521  0.5963 -0.2535 -0.0849
  867SOL     OW 3465   0.099   2.653   1.733  0.1500  0.5431  0.0925
  867SOL    HW1 3466   0.187   2.677   1.767 -0.3944  0.5900 -0.1202
  867SOL    HW2 3467   0.075   2.721   1.667 -0.8632  2.1744 -0.1308
  867SOL     MW 3468   0.107   2.665   1.729 -0.0555  0.7645  0.0350
  868SOL     OW 3469   2.739   2.695   0.572 -0.2155 -0.2100  0.6556
  868SOL    HW1 3470   2.733   2.596   0.548  0.8007 -1.9508  0.5248
  868SOL    HW2 3471   2.654   2.731   0.544 -0.7041  0.0855 -1.9679
  868SOL     MW 3472   2.727   2.687   0.566 -0.1459 -0.4007  0.2922
  869SOL     OW 3473   1.994   2.469   1.050 -0.8061 -0.1413  0.2488
  869SOL    HW1 3474   2.072   2.509   1.014  0.2374  2.3865  0.7091
  869SOL    HW2 3475   1.977   2.408   0.977 -2.0633 -1.1935 -0.8230
  869SOL     MW 3476   2.002   2.467   1.036 -0.8343  0.0534  0.1681
  870SOL     OW 3477   2.230   3.076   0.471 -0.5070  0.0621 -0.3150
  870SOL    HW1 3478   2.294   3.106   0.411  1.0243  1.1631  1.0561
  870SOL    HW2 3479   2.268   3.002   0.517  1.2696 -2.4565 -1.4755
  870SOL     MW 3480   2.243   3.070   0.469 -0.0706 -0.1250 -0.2872
  871SOL     OW 3481   2.481   2.102   0.904 -0.3581 -0.4585  0.3572
  871SOL    HW1 3482   2.400   2.061   0.882  0.2207  2.1161  0.8583
  871SOL    HW2 3483   2.447   2.186   0.931  2.4032  1.2145  1.7636
  871SOL     MW 3484   2.466   2.108   0.904  0.0826  0.1019  0.6088
  872SOL     OW 3485   2.123   2.531   1.608 -0.1097 -0.1868  1.3296
  872SOL    HW1 3486   2.056   2.590   1.645 -0.8395  1.0491 -2.5678
  872SOL    HW2 3487   2.079   2.503   1.523  0.7758 -2.5691 -1.2425
  872SOL     MW 3488   2.109   2.535   1.602 -0.0892 -0.3381  0.4760
  873SOL     OW 3489   2.866   2.158   1.815 -0.0836  0.5300  0.2215
  873SOL    HW1 3490   2.872   2.235   1.872  1.4221  0.6633 -3.0835
  873SOL    HW2 3491   2.935   2.172   1.746 -0.4344  0.8106  0.3369
  873SOL     MW 3492   2.876   2.170   1.813  0.0688  0.5846 -0.1993
  874SOL     OW 3493   2.251   1.402   2.329  0.2834  0.5016 -0.1820
  874SOL    HW1 3494   2.195   1.361   2.258 -0.8944  1.6536 -1.6755
  874SOL    HW2 3495   2.319   1.344   2.345  1.3815 -0.3935  0.6160
  874SOL     MW 3496   2.253   1.389   2.322  0.2729  0.5355 -0.2738
  875SOL     OW 3497   2.387   2.364   0.951 -0.0650 -0.3395  0.1064
  875SOL    HW1 3498   2.422   2.410   0.874  0.0386 -2.2278 -0.1694
  875SOL    HW2 3499   2.425   2.416   1.026 -0.0710  2.2411  2.4080
  875SOL     MW 3500   2.397   2.377   0.951 -0.0521 -0.2482  0.3737
  876SOL     OW 3501   3.072   2.244   1.305  0.0207  0.0230  0.4805
  876SOL    HW1 3502   3.157   2.289   1.298  1.2700 -2.4151 -0.3189
  876SOL    HW2 3503   3.067   2.207   1.390 -0.8591 -0.9123  0.6555
  876SOL     MW 3504   3.083   2.245   1.315  0.0695 -0.4221  0.3981
  877SOL     OW 3505   0.016   2.737   0.321 -0.1640  0.2722 -0.3571
  877SOL    HW1 3506   0.089   2.790   0.301 -0.3441 -0.4304  0.7441
  877SOL    HW2 3507  -0.007   2.673   0.248 -1.7680 -1.8465 -1.4058
  877SOL     MW 3508   0.023   2.736   0.309 -0.3994 -0.1000 -0.3502
  878SOL     OW 3509   2.260   1.668   1.161 -0.0999 -0.2265 -0.2968
  878SOL    HW1 3510   2.190   1.628   1.234  0.5612 -0.1247  2.1097
  878SOL    HW2 3511   2.285   1.598   1.101  0.1751 -2.0716 -0.7828
  878SOL     MW 3512   2.254   1.654   1.163  0.0236 -0.4565 -0.0434
  879SOL     OW 3513   2.728   2.478   0.843  0.2667  0.2294  0.2066
  879SOL    HW1 3514   2.784   2.536   0.895 -1.4704 -0.6912  0.0679
  879SOL    HW2 3515   2.800   2.416   0.810 -0.5275  0.2345  2.2417
  879SOL     MW 3516   2.745   2.477   0.846 -0.0673  0.1086  0.4568
  880SOL     OW 3517   2.590   2.215   0.674  0.6733  0.0293  0.7065
  880SOL    HW1 3518   2.552   2.183   0.756  1.0609  0.9803 -2.1175
  880SOL    HW2 3519   2.560   2.157   0.600 -3.8654  0.4220 -3.0808
  880SOL     MW 3520   2.581   2.203   0.675  0.1256  0.2066 -0.1658
  881SOL     OW 3521   2.986   2.775   0.703  0.1823 -0.5710  0.5242
  881SOL    HW1 3522   2.903   2.741   0.659  0.7882  2.0181  1.2326
  881SOL    HW2 3523   3.065   2.724   0.676 -2.9281 -0.3723  0.9887
  881SOL     MW 3524   2.986   2.764   0.693 -0.1482 -0.2031  0.6790
  882SOL     OW 3525   2.239   2.902   1.938 -0.6234  0.2612  0.0898
  882SOL    HW1 3526   2.229   2.915   1.841  1.5334 -0.8266 -0.4770
  882SOL    HW2 3527   2.202   2.820   1.962  0.3132  0.6443 -1.0806
  882SOL     MW 3528   2.233   2.893   1.928 -0.2152  0.1682 -0.1394
  883SOL     OW 3529   2.448   2.148   1.303  0.8638 -0.0113  0.1396
  883SOL    HW1 3530   2.535   2.122   1.270  0.7751 -3.6710 -3.0336
  883SOL    HW2 3531   2.382   2.124   1.232 -0.2784 -1.0419 -0.2849
  883SOL     MW 3532   2.451   2.141   1.289  0.7014 -0.6302 -0.3351
  884SOL     OW 3533   1.919   1.842   1.051 -0.1716  0.6623 -0.1824
  884SOL    HW1 3534   1.888   1.933   1.032  0.4866 -0.5172 -1.5042
  884SOL    HW2 3535   2.015   1.842   1.052 -0.0362 -2.5627  0.7721
  884SOL     MW 3536   1.927   1.854   1.048 -0.0669  0.0812 -0.2309
  885SOL     OW 3537   2.927   2.430   1.683  0.6680 -0.0590  0.0251
  885SOL    HW1 3538   2.980   2.355   1.665 -0.5571 -0.9597 -1.3634
  885SOL    HW2 3539   2.849   2.413   1.629 -0.3031 -1.3204 -3.3310
  885SOL     MW 3540   2.924   2.418   1.673  0.3782 -0.3443 -0.6009
  886SOL     OW 3541   2.890   2.428   1.269 -0.1091 -0.2593 -0.2906
  886SOL    HW1 3542   2.957   2.368   1.292 -1.1227 -1.2115 -1.3206
  886SOL    HW2 3543   2.916   2.512   1.317 -0.4531  2.5521  1.6073
  886SOL     MW 3544   2.902   2.431   1.278 -0.2882 -0.0140 -0.1761
  887SOL     OW 3545   2.326   2.703   1.563 -0.3518 -0.1851  0.4286
  887SOL    HW1 3546   2.312   2.715   1.466  0.2344 -2.9842 -1.3185
  887SOL    HW2 3547   2.261   2.632   1.583  0.5669 -2.1040  0.0700
  887SOL     MW 3548   2.316   2.695   1.553 -0.1532 -0.8076  0.1508
  888SOL     OW 3549   2.048   2.163   1.412 -0.2605  0.0721  0.2997
  888SOL    HW1 3550   2.084   2.137   1.328 -0.1930  0.8235  0.2101
  888SOL    HW2 3551   2.127   2.177   1.466  1.5234 -0.4865  1.2813
  888SOL     MW 3552   2.063   2.161   1.408 -0.0162  0.0975  0.4174
  889SOL     OW 3553   2.289   1.899   2.062  0.2803 -0.3488  0.7157
  889SOL    HW1 3554   2.376   1.892   2.112  1.6533 -1.7843 -0.4673
  889SOL    HW2 3555   2.285   1.988   2.019 -2.1882  0.4355  2.3178
  889SOL     MW 3556   2.300   1.910   2.063  0.1357 -0.4347  0.7710
  890SOL     OW 3557   0.051   2.348   0.169 -0.0199 -0.1162 -0.1732
  890SOL    HW1 3558   0.026   2.441   0.144  0.9172  0.5132 -0.8122
  890SOL    HW2 3559   0.047   2.330   0.259  1.5376  2.3476 -3.0072
  890SOL     MW 3560   0.047   2.358   0.178  0.3092  0.2919 -0.6314
  891SOL     OW 3561   3.006   2.003   1.170 -0.0396 -0.6368 -0.1472
  891SOL    HW1 3562   3.069   1.933   1.166 -2.1634 -4.4716 -0.5619
  891SOL    HW2 3563   3.044   2.088   1.205 -1.2511  1.3156  1.3652
  891SOL     MW 3564   3.019   2.005   1.174 -0.4797 -0.8852 -0.0024
  892SOL     OW 3565   2.480   2.372   2.792 -0.1783 -0.4727 -0.0554
  892SOL    HW1 3566   2.466   2.298   2.844  0.5560  1.4263 -1.8891
  892SOL    HW2 3567   2.573   2.401   2.809  1.5038 -0.4797 -0.4283
  892SOL     MW 3568   2.490   2.366   2.801  0.1405 -0.2231 -0.3465
  893SOL     OW 3569   1.639   2.332   1.386 -0.2971  0.0377  0.4519
  893SOL    HW1 3570   1.557   2.390   1.380 -0.2428  1.0777  0.8111
  893SOL    HW2 3571   1.686   2.368   1.460 -0.8287  0.6025 -0.0891
  893SOL     MW 3572   1.634   2.344   1.395 -0.3601  0.2494  0.4279
  894SOL     OW 3573   2.763   1.920   0.474 -0.1421  1.2061  0.1906
  894SOL    HW1 3574   2.681   1.929   0.522  2.6313 -0.0382 -1.2019
  894SOL    HW2 3575   2.736   1.887   0.390 -1.8667  0.1750 -0.3769
  894SOL     MW 3576   2.749   1.916   0.469 -0.0037  0.9059 -0.0680
  895SOL     OW 3577   2.251   2.107   1.118 -0.3714  0.3277  0.3194
  895SOL    HW1 3578   2.232   2.174   1.051  2.1157 -0.4449  0.8602
  895SOL    HW2 3579   2.229   2.023   1.079  0.5831 -0.7546 -1.9701
  895SOL     MW 3580   2.245   2.105   1.104  0.0827  0.0829  0.0886
  896SOL     OW 3581   2.226   2.798   1.065 -0.1422  0.5605  0.1571
  896SOL    HW1 3582   2.287   2.770   1.135  0.2274  2.5873 -1.0712
  896SOL    HW2 3583   2.161   2.858   1.103  1.3631  0.4874  0.9331
  896SOL     MW 3584   2.225   2.802   1.079  0.1052  0.8182  0.0975
  897SOL     OW 3585   3.090   3.028   0.006  0.3064  0.5212 -0.0129
  897SOL    HW1 3586   3.122   2.935   0.011  1.5143 -2.8800 -0.9093
  897SOL    HW2 3587   3.066   3.044  -0.088 -0.0796  2.5055 -1.9041
  897SOL     MW 3588   3.091   3.018  -0.005  0.4148  0.3342 -0.3807
  898SOL     OW 3589   2.192   0.147   1.455  0.2589  0.5215  0.0691
  898SOL    HW1 3590   2.127   0.079   1.441 -0.2907  0.0260 -1.2093
  898SOL    HW2 3591   2.179   0.214   1.389  1.0401 -2.1225  1.2405
  898SOL     MW 3592   2.182   0.147   1.445  0.2895  0.1073  0.0550
  899SOL     OW 3593   2.932   3.029   0.626  0.6807  0.4093  0.2770
  899SOL    HW1 3594   2.946   2.940   0.659  4.5178  1.0112 -1.6156
  899SOL    HW2 3595   2.846   3.049   0.668  0.0980 -0.0204 -1.1445
  899SOL     MW 3596   2.922   3.020   0.635  1.1101  0.4320 -0.1603
  900SOL     OW 3597   0.155   2.383   1.102  0.3908  0.5180  0.3413
  900SOL    HW1 3598   0.116   2.471   1.109  2.3585  2.5637 -0.1501
  900SOL    HW2 3599   0.141   2.364   1.008  2.1283  2.3221 -1.4200
  900SOL     MW 3600   0.148   2.392   1.091  0.8797  1.0259  0.0441
  901SOL     OW 3601   1.768   2.877   1.783  0.8787 -0.3106 -0.1019
  901SOL    HW1 3602   1.838   2.820   1.763 -3.1636  2.1708  1.0613
  901SOL    HW2 3603   1.694   2.850   1.731  0.1733 -3.3159  2.9586
  901SOL     MW 3604   1.767   2.866   1.773  0.2523 -0.3797  0.4554
  902SOL     OW 3605   2.643   2.107   1.681 -0.4282 -0.1089  0.4899
  902SOL    HW1 3606   2.661   2.054   1.601  0.6305  0.1911  0.7685
  902SOL    HW2 3607   2.725   2.108   1.732  0.4080  0.7816  1.4226
  902SOL     MW 3608   2.656   2.100   1.677 -0.1782  0.0482  0.6497
  903SOL     OW 3609   1.513   2.645   0.539  0.0778 -0.1213 -0.1188
  903SOL    HW1 3610   1.604   2.649   0.512 -0.3614  1.0077 -0.3091
  903SOL    HW2 3611   1.487   2.701   0.617 -1.1196  3.1095  1.7775
  903SOL     MW 3612   1.522   2.653   0.546 -0.1381  0.4540  0.1063
  904SOL     OW 3613   2.516   2.542   1.686 -0.0101  0.0623 -0.2764
  904SOL    HW1 3614   2.443   2.588   1.636 -0.4741 -1.5525 -2.2093
  904SOL    HW2 3615   2.574   2.506   1.619  1.2952 -0.2870 -2.3200
  904SOL     MW 3616   2.514   2.543   1.670  0.1009 -0.1969 -0.8011
  905SOL     OW 3617   2.334   2.481   2.090 -0.2043  0.1211  0.0833
  905SOL    HW1 3618   2.404   2.434   2.039  2.1026 -1.2698  0.2992
  905SOL    HW2 3619   2.318   2.415   2.168 -2.0876  1.4232 -0.1669
  905SOL     MW 3620   2.341   2.466   2.093 -0.1484  0.1094  0.0788
  906SOL     OW 3621   2.483   2.528   0.721 -0.3872  0.0578 -0.3304
  906SOL    HW1 3622   2.569   2.521   0.759 -2.1859  2.2071 -1.3580
  906SOL    HW2 3623   2.447   2.614   0.739 -1.7104 -0.0789 -3.6009
  906SOL     MW 3624   2.489   2.539   0.728 -0.7991  0.3233 -0.8975
  907SOL     OW 3625   2.660   2.806   1.304  0.0161 -0.9409  0.0556
  907SOL    HW1 3626   2.692   2.882   1.357  0.1140 -0.1410 -2.7563
  907SOL    HW2 3627   2.686   2.820   1.216 -0.4422  2.0349  2.1526
  907SOL     MW 3628   2.667   2.818   1.299 -0.0315 -0.4428 -0.0387
  908SOL     OW 3629   2.685   2.368   3.092 -0.0767 -0.5714 -0.8436
  908SOL    HW1 3630   2.627   2.294   3.123 -0.6636  1.8139 -1.6037
  908SOL    HW2 3631   2.642   2.436   3.155  0.2229  1.3466  0.9039
  908SOL     MW 3632   2.672   2.367   3.104 -0.1146 -0.0036 -0.7133
  909SOL     OW 3633   1.696   0.102   1.318  0.5295  0.3021 -0.1413
  909SOL    HW1 3634   1.628   0.175   1.314  0.7558  1.2566 -0.4982
  909SOL    HW2 3635   1.679   0.055   1.405  1.3740  1.5433 -0.2138
  909SOL     MW 3636   1.685   0.105   1.329  0.6708  0.5918 -0.1979
  910SOL     OW 3637   2.133   1.637   0.391  0.2804 -0.3559  0.5689
  910SOL    HW1 3638   2.073   1.556   0.393  1.2802  0.7084  0.7314
  910SOL    HW2 3639   2.097   1.694   0.321 -2.0977 -1.6194 -0.4524
  910SOL     MW 3640   2.120   1.634   0.382  0.0986 -0.3822  0.4556
  911SOL     OW 3641   2.380   2.176   1.561  0.5646  0.3065 -0.3241
  911SOL    HW1 3642   2.451   2.157   1.620  1.3464 -0.9339  2.5295
  911SOL    HW2 3643   2.420   2.164   1.470  1.9165  1.9727  0.9215
  911SOL     MW 3644   2.395   2.172   1.557  0.8461  0.3627  0.2168
  912SOL     OW 3645   2.922   1.864   1.380 -0.1453 -0.3536  0.5512
  912SOL    HW1 3646   2.933   1.933   1.313 -0.5819  1.2141 -2.8696
  912SOL    HW2 3647   2.837   1.886   1.405  2.9274  2.6484 -1.7118
  912SOL     MW 3648   2.913   1.876   1.374  0.2025  0.2493 -0.1987
  913SOL     OW 3649   2.699   0.022   0.258  0.2837  0.2672  0.1760
  913SOL    HW1 3650   2.781  -0.025   0.274 -0.5466 -2.1307  0.2058
  913SOL    HW2 3651   2.631  -0.041   0.231  2.8437  0.2857  2.2320
  913SOL     MW 3652   2.701   0.008   0.257  0.5119 -0.0467  0.4512
  914SOL     OW 3653   2.687   1.801   2.958 -0.6548 -0.0422  0.6709
  914SOL    HW1 3654   2.728   1.884   2.948 -0.2703 -1.5665 -0.9877
  914SOL    HW2 3655   2.594   1.821   2.979  1.0102  0.1985  2.3186
  914SOL     MW 3656   2.680   1.815   2.960 -0.3844 -0.2116  0.6695
  915SOL     OW 3657   1.802   0.108   0.101 -0.3116 -0.3048 -0.0701
  915SOL    HW1 3658   1.880   0.077   0.148  0.1467 -0.1278  1.7374
  915SOL    HW2 3659   1.737   0.068   0.154  1.0633  0.8422 -0.8200
  915SOL     MW 3660   1.804   0.098   0.114 -0.0698 -0.1301  0.0694
  916SOL     OW 3661   1.781   2.149   1.976  0.2132 -0.1014  0.0811
  916SOL    HW1 3662   1.813   2.239   1.958  0.1707 -2.7321  1.8045
  916SOL    HW2 3663   1.813   2.106   1.894  0.0203  0.4367 -0.6809
  916SOL     MW 3664   1.789   2.155   1.963  0.1821 -0.3775  0.2079
  917SOL     OW 3665   2.545   2.189   2.575 -0.3281 -0.6210 -0.3240
  917SOL    HW1 3666   2.513   2.257   2.630  1.9855 -2.0714 -1.0556
  917SOL    HW2 3667   2.628   2.216   2.549 -1.0389 -0.7358 -1.8205
  917SOL     MW 3668   2.552   2.202   2.579 -0.1166 -0.8275 -0.6179
  918SOL     OW 3669   2.048   1.600   2.697 -0.3909  0.3862  1.2651
  918SOL    HW1 3670   1.998   1.637   2.627 -1.5190  1.2356  2.2731
  918SOL    HW2 3671   2.133   1.631   2.680 -0.8546 -1.6092  1.2077
  918SOL     MW 3672   2.052   1.609   2.686 -0.6009  0.2350  1.3905
  919SOL     OW 3673   3.043   2.425   2.294  0.1254 -0.2874  0.6930
  919SOL    HW1 3674   3.001   2.356   2.238  0.3875 -0.5317 -2.0374
  919SOL    HW2 3675   3.116   2.449   2.243 -1.8282 -2.5198  0.8550
  919SOL     MW 3676   3.047   2.419   2.280 -0.0978 -0.6142  0.3541
  920SOL     OW 3677   2.640   2.815   3.091  0.2846  0.5543  0.4268
  920SOL    HW1 3678   2.556   2.797   3.049  0.6038 -0.6872  0.3644
  920SOL    HW2 3679   2.699   2.826   3.016 -1.2155  1.1553  3.2856
  920SOL     MW 3680   2.636   2.814   3.075  0.1288  0.4698  0.7958
  921SOL     OW 3681   2.443   2.599   2.628 -0.5217 -0.1006 -0.7220
  921SOL    HW1 3682   2.535   2.605   2.611 -0.8240 -1.1179 -1.0045
  921SOL    HW2 3683   2.449   2.526   2.688  0.5353  0.4831  0.0325
  921SOL     MW 3684   2.456   2.590   2.634 -0.4221 -0.1578 -0.6597
  922SOL     OW 3685   2.079   2.655   0.423 -0.1835  0.2048  0.1292
  922SOL    HW1 3686   2.083   2.672   0.327 -0.5137 -2.6715  0.5473
  922SOL    HW2 3687   2.084   2.559   0.419 -0.7383  4.5165 -0.1319
  922SOL     MW 3688   2.081   2.645   0.409 -0.3003  0.3942  0.1499
  923SOL     OW 3689   2.200   2.916   1.662 -0.0854  0.1644 -0.1187
  923SOL    HW1 3690   2.256   2.843   1.624 -0.9579  0.7195  0.6072
  923SOL    HW2 3691   2.172   2.981   1.596  1.2915 -0.8619 -1.8279
  923SOL     MW 3692   2.204   2.915   1.649 -0.0188  0.1022 -0.2484
  924SOL     OW 3693   1.094   2.734   2.620  0.1235  0.3524 -0.2611
  924SOL    HW1 3694   1.187   2.758   2.604 -0.2297  0.0309 -0.4278
  924SOL    HW2 3695   1.105   2.646   2.653 -0.5572 -2.3135 -2.0904
  924SOL     MW 3696   1.108   2.726   2.623 -0.0129 -0.0417 -0.5244
  925SOL     OW 3697   3.001   0.213   2.620 -0.0440 -0.7839 -0.3880
  925SOL    HW1 3698   2.952   0.209   2.537  0.7695 -1.9440 -1.3796
  925SOL    HW2 3699   2.949   0.283   2.663 -3.6695 -0.2090  1.5685
  925SOL     MW 3700   2.987   0.221   2.615 -0.4150 -0.8611 -0.2607
  926SOL     OW 3701   2.795   2.401   1.967  0.1220  0.5475  0.2173
  926SOL    HW1 3702   2.801   2.464   2.046  1.8876 -2.4126  0.3136
  926SOL    HW2 3703   2.846   2.440   1.893 -0.0643 -1.1999  0.5590
  926SOL     MW 3704   2.803   2.415   1.968  0.3304 -0.0736  0.2751
  927SOL     OW 3705   2.411   0.117   0.301 -0.1879 -0.4192  0.2593
  927SOL    HW1 3706   2.506   0.141   0.317  1.2254 -3.3420 -0.4520
  927SOL    HW2 3707   2.397   0.110   0.201 -0.9135 -0.7030 -0.3620
  927SOL     MW 3708   2.422   0.119   0.290 -0.0971 -0.8423  0.0835
  928SOL     OW 3709   2.152   2.333   1.817  0.0077 -0.1646  0.2609
  928SOL    HW1 3710   2.183   2.404   1.758 -2.5460  1.5441  0.7329
  928SOL    HW2 3711   2.234   2.309   1.864 -0.1023  0.4947  0.1259
  928SOL     MW 3712   2.167   2.339   1.815 -0.3437  0.1479  0.3053
  929SOL     OW 3713   2.759   2.346   2.433 -0.0304  0.2843 -0.8418
  929SOL    HW1 3714   2.788   2.304   2.343  1.7629 -3.3952  2.2684
  929SOL    HW2 3715   2.833   2.333   2.493  2.0598 -0.8506  1.2555
  929SOL     MW 3716   2.773   2.339   2.429  0.4820 -0.3509 -0.1547
  930SOL     OW 3717   2.003   2.813   2.670  0.4236  0.2038 -0.0539
  930SOL    HW1 3718   2.002   2.734   2.724 -2.6063 -0.6099  1.2254
  930SOL    HW2 3719   2.087   2.857   2.665  0.8190  0.8452 -2.0952
  930SOL     MW 3720   2.014   2.808   2.677  0.0760  0.1811 -0.1545
  931SOL     OW 3721   0.048   2.802   2.431  0.3524 -0.0204  0.0352
  931SOL    HW1 3722   0.024   2.831   2.524  0.1840  1.1071  4.3082
  931SOL    HW2 3723   0.139   2.836   2.424 -1.1892 -0.6569 -1.3335
  931SOL     MW 3724   0.057   2.810   2.442  0.1268  0.0444  0.4184
  932SOL     OW 3725   2.787   1.986   2.504 -0.5392  0.3777 -0.3389
  932SOL    HW1 3726   2.866   2.036   2.530 -0.4588  0.3398 -1.9610
  932SOL    HW2 3727   2.794   1.967   2.411 -2.2130  0.2502 -0.2898
  932SOL     MW 3728   2.798   1.990   2.495 -0.7495  0.3559 -0.5464
  933SOL     OW 3729   2.095   2.800   2.213  0.1542 -0.0824  0.3813
  933SOL    HW1 3730   2.166   2.853   2.234  1.4699  0.5056 -1.2261
  933SOL    HW2 3731   2.022   2.853   2.210 -0.1998  1.8666 -0.7848
  933SOL     MW 3732   2.095   2.814   2.216  0.2811  0.2524  0.0153
  934SOL     OW 3733   2.017   2.670   2.433  0.1337  0.1346  0.3127
  934SOL    HW1 3734   2.002   2.738   2.493 -2.8747 -1.2566 -1.8167
  934SOL    HW2 3735   2.059   2.709   2.348  0.2470  0.4531 -0.4567
  934SOL     MW 3736   2.020   2.684   2.430 -0.2483 -0.0069 -0.0698
  935SOL     OW 3737   2.636   1.474   1.779 -0.0045 -0.2879 -0.1132
  935SOL    HW1 3738   2.731   1.474   1.753  0.2310  0.0520  0.2537
  935SOL    HW2 3739   2.602   1.501   1.691  0.6372 -1.9959  0.9180
  935SOL     MW 3740   2.644   1.478   1.764  0.1113 -0.4684  0.0713
  936SOL     OW 3741   2.937   2.232   0.035 -0.3282  0.1743  0.5089
  936SOL    HW1 3742   2.996   2.283   0.083 -0.6881 -1.9996 -1.4853
  936SOL    HW2 3743   2.855   2.281   0.026 -1.2264 -5.4647  3.2392
  936SOL     MW 3744   2.934   2.245   0.040 -0.4942 -0.8566  0.6060
  937SOL     OW 3745   1.949   2.121   2.652 -0.1566 -0.6816 -0.4693
  937SOL    HW1 3746   2.028   2.109   2.703 -1.4628 -0.0205 -0.3312
  937SOL    HW2 3747   1.973   2.122   2.560  0.0725 -2.1668  1.7106
  937SOL     MW 3748   1.962   2.119   2.647 -0.2987 -0.7903 -0.1635
  938SOL     OW 3749   2.283   1.748   1.847 -0.4722  0.7288  0.3508
  938SOL    HW1 3750   2.312   1.797   1.764  0.9201  1.7349  0.9312
  938SOL    HW2 3751   2.285   1.805   1.933  0.0442  1.5615 -0.0637
  938SOL     MW 3752   2.287   1.762   1.847 -0.2204  0.9714  0.3727
  939SOL     OW 3753   2.755   1.964   2.223 -0.1226  0.4288 -0.6754
  939SOL    HW1 3754   2.816   1.923   2.158  0.7104 -1.0170 -1.0103
  939SOL    HW2 3755   2.665   1.924   2.206 -0.0080  0.9766 -1.1330
  939SOL     MW 3756   2.751   1.953   2.212  0.0024  0.3103 -0.7800
  940SOL     OW 3757   2.163   0.124   2.765 -0.3996 -0.0316  0.4421
  940SOL    HW1 3758   2.176   0.050   2.700  0.8735 -1.2432 -1.5623
  940SOL    HW2 3759   2.240   0.140   2.818 -0.6572 -0.6006  0.7644
  940SOL     MW 3760   2.175   0.117   2.763 -0.2656 -0.2666  0.2202
  941SOL     OW 3761   0.117   2.460   2.035 -0.5260 -0.1591  0.4449
  941SOL    HW1 3762   0.186   2.402   2.067  4.0128  1.5517 -1.0293
  941SOL    HW2 3763   0.085   2.430   1.953  0.1311  0.7218  2.5283
  941SOL     MW 3764   0.122   2.448   2.028  0.1596  0.1829  0.5252
  942SOL     OW 3765   2.839   2.214   2.214 -0.5339 -0.0240  0.1854
  942SOL    HW1 3766   2.830   2.249   2.128 -0.5641 -1.2558  0.3014
  942SOL    HW2 3767   2.794   2.123   2.228 -1.5889 -1.4346  0.6585
  942SOL     MW 3768   2.832   2.207   2.205 -0.6771 -0.3726  0.2631
  943SOL     OW 3769   0.312   2.136   2.304  0.4339  0.2268 -0.5374
  943SOL    HW1 3770   0.239   2.191   2.340  2.2891 -2.1496 -1.2892
  943SOL    HW2 3771   0.366   2.109   2.377 -2.2821 -1.1367 -0.9847
  943SOL     MW 3772   0.309   2.140   2.318  0.3203 -0.2666 -0.6956
  944SOL     OW 3773   2.130   2.636   1.968  0.1871 -0.1438  0.2440
  944SOL    HW1 3774   2.178   2.556   1.996 -1.0763 -2.2487 -0.1349
  944SOL    HW2 3775   2.079   2.666   2.036  1.8628  0.6444  0.3534
  944SOL     MW 3776   2.129   2.630   1.980  0.2415 -0.3175  0.2084
  945SOL     OW 3777   2.785   2.746   2.836 -0.6704 -0.4460  0.3753
  945SOL    HW1 3778   2.763   2.653   2.829 -2.2880 -1.6741 -3.0013
  945SOL    HW2 3779   2.777   2.782   2.746  1.7568 -3.0402  2.7665
  945SOL     MW 3780   2.781   2.739   2.823 -0.5636 -0.9503  0.2453
  946SOL     OW 3781   2.472   2.669   2.234  0.3542  0.3771  0.3087
  946SOL    HW1 3782   2.508   2.704   2.153  0.9618  1.7631 -3.3691
  946SOL    HW2 3783   2.430   2.594   2.198 -1.2203  1.5635  0.8235
  946SOL     MW 3784   2.471   2.664   2.219  0.2266  0.7165 -0.1087
  947SOL     OW 3785   2.046   3.103   0.232  0.5503 -0.2809  0.3870
  947SOL    HW1 3786   2.054   3.018   0.194 -2.0110  3.2628  0.9002
  947SOL    HW2 3787   2.101   3.109   0.315 -1.1702 -1.4056  0.8875
  947SOL     MW 3788   2.054   3.093   0.238 -0.0146  0.0383  0.5208
  948SOL     OW 3789   1.798   3.011   2.615  0.0466  0.4580 -0.3963
  948SOL    HW1 3790   1.830   2.919   2.629  1.0572  2.3855  0.9375
  948SOL    HW2 3791   1.773   3.028   2.523  0.5881 -0.0337 -0.5914
  948SOL     MW 3792   1.799   3.001   2.605  0.2514  0.6475 -0.2460
  949SOL     OW 3793   2.516   1.859   2.197  0.3145  0.1320 -0.2013
  949SOL    HW1 3794   2.490   1.789   2.257  0.9720  1.9361  1.7545
  949SOL    HW2 3795   2.499   1.947   2.236 -0.1584 -1.1320 -0.2650
  949SOL     MW 3796   2.510   1.861   2.210  0.3388  0.2033  0.0483
  950SOL     OW 3797   2.327   2.502   2.994 -0.5504 -1.0569  0.0370
  950SOL    HW1 3798   2.372   2.465   2.920 -1.3839 -1.7502  0.6304
  950SOL    HW2 3799   2.245   2.517   2.953  2.8051 -2.5290 -2.7001
  950SOL     MW 3800   2.322   2.499   2.979 -0.2176 -1.3426 -0.2458
  951SOL     OW 3801   3.042   2.202   2.884  0.1396  0.4120 -0.3910
  951SOL    HW1 3802   2.993   2.203   2.969 -1.2514  0.4239  0.2247
  951SOL    HW2 3803   3.042   2.109   2.872 -1.3984  2.3759  0.8641
  951SOL     MW 3804   3.036   2.190   2.894 -0.2469  0.6726 -0.1442
  952SOL     OW 3805   3.028   1.727   2.144  0.3335  0.1096  0.1039
  952SOL    HW1 3806   2.966   1.774   2.084  0.4277  3.1982 -1.4098
  952SOL    HW2 3807   3.086   1.792   2.189 -0.8001  0.1307 -2.0264
  952SOL     MW 3808   3.027   1.741   2.142  0.1964  0.5199 -0.3769
  953SOL     OW 3809   1.968   1.730   2.924 -0.0175  0.1184 -0.5892
  953SOL    HW1 3810   1.889   1.679   2.956 -0.3321 -0.7763 -0.9878
  953SOL    HW2 3811   2.000   1.672   2.852 -0.2646 -1.7575  2.5659
  953SOL     MW 3812   1.962   1.716   2.919 -0.0916 -0.2472 -0.2255
  954SOL     OW 3813   2.373   2.143   2.888 -0.4327 -0.3761 -0.3233
  954SOL    HW1 3814   2.279   2.130   2.867 -0.7684  1.3056 -0.1878
  954SOL    HW2 3815   2.415   2.089   2.821  1.4011  0.0042 -1.9088
  954SOL     MW 3816   2.366   2.134   2.877 -0.2350 -0.1041 -0.5146
  955SOL     OW 3817   1.581   1.518   2.548 -0.2577 -0.0304  0.0086
  955SOL    HW1 3818   1.578   1.499   2.450 -1.1648  1.6675  0.9957
  955SOL    HW2 3819   1.671   1.541   2.560  0.8473 -0.2142 -1.2620
  955SOL     MW 3820   1.592   1.519   2.537 -0.2316  0.1693 -0.0288
  956SOL     OW 3821   2.731   2.475   2.851 -0.0898 -0.5819 -0.1739
  956SOL    HW1 3822   2.731   2.445   2.937  1.8133  2.4220 -2.1370
  956SOL    HW2 3823   2.797   2.430   2.797 -0.9929 -1.1841 -0.9789
  956SOL     MW 3824   2.740   2.465   2.855  0.0422 -0.2651 -0.5391
  957SOL     OW 3825   2.258   2.818   0.592 -0.6993 -0.0706 -0.9630
  957SOL    HW1 3826   2.205   2.765   0.540  3.1875  0.3495  0.4099
  957SOL    HW2 3827   2.254   2.788   0.688 -0.2598  0.5683  1.8444
  957SOL     MW 3828   2.250   2.807   0.598 -0.1285  0.0691 -0.4114
  958SOL     OW 3829   2.081   2.562   2.895  0.1779 -0.0715  0.0003
  958SOL    HW1 3830   2.042   2.492   2.839 -0.3087  0.6517 -3.7249
  958SOL    HW2 3831   2.016   2.577   2.966  0.0989 -4.6279  0.7815
  958SOL     MW 3832   2.067   2.555   2.897  0.1032 -0.5773 -0.3881
  959SOL     OW 3833   2.512   2.807   0.453 -0.0863 -0.2623 -0.1916
  959SOL    HW1 3834   2.495   2.857   0.375 -0.0675  2.5329  2.4447
  959SOL    HW2 3835   2.429   2.803   0.505  1.3869 -2.2384  0.0723
  959SOL     MW 3836   2.499   2.813   0.450  0.1106 -0.1542  0.1910
  960SOL     OW 3837   1.921   2.394   2.266  0.0394  0.4624  0.2427
  960SOL    HW1 3838   1.919   2.298   2.253  1.5984 -0.4568 -1.3580
  960SOL    HW2 3839   1.860   2.402   2.342 -0.9978 -0.7976  1.0148
  960SOL     MW 3840   1.913   2.382   2.274  0.1082  0.1748  0.1334
  961SOL     OW 3841   2.231   2.323   2.315  0.0059  0.2773 -0.0188
  961SOL    HW1 3842   2.137   2.346   2.305 -0.2953  2.0037 -0.0500
  961SOL    HW2 3843   2.237   2.363   2.400 -2.5200  0.0657  0.6374
  961SOL     MW 3844   2.219   2.331   2.325 -0.3671  0.4771  0.0637
  962SOL     OW 3845   2.151   2.021   2.832 -0.2623  0.2283 -0.8557
  962SOL    HW1 3846   2.120   1.968   2.910  0.3039 -2.1762 -3.2307
  962SOL    HW2 3847   2.168   1.960   2.761 -3.6341  2.7569  2.5283
  962SOL     MW 3848   2.149   2.006   2.833 -0.6325  0.2447 -0.7226
  963SOL     OW 3849   1.881   2.612   2.077 -0.3215 -0.3579  0.1217
  963SOL    HW1 3850   1.898   2.561   2.158 -0.5900 -0.1860 -1.0602
  963SOL    HW2 3851   1.899   2.539   2.012  0.1998 -1.0602 -1.6057
  963SOL     MW 3852   1.885   2.596   2.079 -0.2881 -0.4278 -0.2621
  964SOL     OW 3853   1.833   1.886   2.737 -0.0023  0.1474 -0.0806
  964SOL    HW1 3854   1.869   1.962   2.686  1.0806 -2.0454 -1.5703
  964SOL    HW2 3855   1.890   1.849   2.802  0.8281 -1.7169  2.0202
  964SOL     MW 3856   1.846   1.892   2.739  0.2501 -0.3879 -0.0000
  965SOL     OW 3857   2.092   2.600   0.811 -0.2113 -0.3517 -0.1466
  965SOL    HW1 3858   2.150   2.539   0.761  1.2630 -0.2378  0.5802
  965SOL    HW2 3859   2.155   2.641   0.872 -2.6113  0.8762 -0.4589
  965SOL     MW 3860   2.108   2.597   0.813 -0.3334 -0.1747 -0.0919
  966SOL     OW 3861   2.672   2.612   2.414 -0.3545  0.1998  0.0937
  966SOL    HW1 3862   2.589   2.621   2.365  2.4022 -0.4335 -2.7390
  966SOL    HW2 3863   2.703   2.520   2.418 -0.7722 -1.0101  1.4915
  966SOL     MW 3864   2.665   2.601   2.408 -0.0459 -0.0434 -0.0956
  967SOL     OW 3865   2.725   3.075   3.023 -0.3838  0.5568  0.4069
  967SOL    HW1 3866   2.684   2.993   3.055  0.4171  2.7631 -0.1860
  967SOL    HW2 3867   2.665   3.089   2.947  1.3098  2.1835 -3.0267
  967SOL     MW 3868   2.712   3.066   3.017 -0.0547  1.0625 -0.1243
  968SOL     OW 3869   3.069   2.698   2.906 -0.2764 -0.1138 -0.5091
  968SOL    HW1 3870   2.993   2.749   2.869 -1.5123  0.5691 -1.8605
  968SOL    HW2 3871   3.102   2.657   2.823  2.0964  2.0592 -0.0719
  968SOL     MW 3872   3.064   2.699   2.890 -0.1264  0.2630 -0.6297
  969SOL     OW 3873   1.553   2.158   1.692  0.0052 -0.6917 -0.2545
  969SOL    HW1 3874   1.626   2.104   1.717  2.0851  1.4216  1.4250
  969SOL    HW2 3875   1.520   2.197   1.779 -1.0971  1.1880  1.7498
  969SOL     MW 3876   1.558   2.156   1.707  0.1342 -0.1648  0.2315
  970SOL     OW 3877   1.749   1.809   1.906  0.1657 -0.2836 -0.3493
  970SOL    HW1 3878   1.795   1.747   1.963  2.0432  1.0193  0.8729
  970SOL    HW2 3879   1.656   1.787   1.901 -0.2305  1.7757  1.5674
  970SOL     MW 3880   1.743   1.798   1.913  0.3611  0.1600  0.0649
  971SOL     OW 3881   1.746   0.025   2.348  0.2412 -0.0479  0.1320
  971SOL    HW1 3882   1.790  -0.044   2.286  2.0315 -0.5738  1.7719
  971SOL    HW2 3883   1.774   0.114   2.318  1.3128  2.4380  1.8514
  971SOL     MW 3884   1.755   0.028   2.336  0.6188  0.2107  0.5752
  972SOL     OW 3885   0.304   2.869   2.395  0.0074 -0.6696 -0.0708
  972SOL    HW1 3886   0.338   2.785   2.428 -0.5736  0.5352 -0.6519
  972SOL    HW2 3887   0.336   2.937   2.453 -1.9730  0.5417 -0.1346
  972SOL     MW 3888   0.313   2.867   2.407 -0.3305 -0.3508 -0.1559
  973SOL     OW 3889   2.587   3.001   2.126 -0.3760 -0.0960  0.3419
  973SOL    HW1 3890   2.580   2.924   2.067  0.9241  0.5834  0.8259
  973SOL    HW2 3891   2.612   3.050   2.055  1.2746 -1.5410  1.3981
  973SOL     MW 3892   2.590   2.998   2.109  0.0133 -0.1970  0.5451
  974SOL     OW 3893   1.947   0.154   2.600  0.4776 -0.3111 -0.1814
  974SOL    HW1 3894   2.014   0.158   2.668 -1.1188 -0.1977 -1.2560
  974SOL    HW2 3895   1.902   0.072   2.612  2.0114 -0.7635 -1.8606
  974SOL     MW 3896   1.950   0.144   2.611  0.4693 -0.3558 -0.5448
  975SOL     OW 3897   2.207   2.495   2.526 -0.0578  0.1129 -0.0141
  975SOL    HW1 3898   2.288   2.544   2.549  0.2818 -2.2517  0.1582
  975SOL    HW2 3899   2.145   2.552   2.493  1.2657  0.1961  2.0171
  975SOL     MW 3900   2.210   2.509   2.525  0.1616 -0.1881  0.2766
  976SOL     OW 3901   0.193   0.373   1.589 -0.1357  0.1405 -0.1876
  976SOL    HW1 3902   0.260   0.332   1.642 -1.7406 -0.7659 -0.8403
  976SOL    HW2 3903   0.135   0.299   1.577 -1.3056  1.1526 -2.0086
  976SOL     MW 3904   0.194   0.358   1.594 -0.5018  0.1545 -0.5140
  977SOL     OW 3905   1.753   2.758   2.391 -0.3865 -0.2165 -0.0068
  977SOL    HW1 3906   1.834   2.732   2.353 -2.3375 -0.7942  0.5389
  977SOL    HW2 3907   1.728   2.822   2.328  0.7389 -2.3537  0.1299
  977SOL     MW 3908   1.760   2.763   2.378 -0.4955 -0.5747  0.0832
   3.10000   3.10000   3.10000
