977 TIP4P/2005f water molecules t=   1.17000 step= 1170
 3908
    1SOL     OW    1   0.415   0.788   3.078  0.0863  0.1465  0.1448
    1SOL    HW1    2   0.370   0.836   3.009 -0.3588 -2.2484  0.3883
    1SOL    HW2    3   0.350   0.721   3.107  1.8946  0.5358 -0.5572
    1SOL     MW    4   0.400   0.785   3.073  0.2662 -0.1181  0.0843
    2SOL     OW    5   0.330   3.049   1.154  0.0665  0.1580  0.4707
    2SOL    HW1    6   0.381   3.117   1.102  3.5535  2.2139  0.4103
    2SOL    HW2    7   0.239   3.086   1.159 -0.0417  0.6222 -2.8592
    2SOL     MW    8   0.325   3.063   1.148  0.5123  0.4905  0.0234
    3SOL     OW    9   2.570   0.381   0.995  0.0709 -0.7493  0.4440
    3SOL    HW1   10   2.601   0.439   0.932 -3.1019  0.3989 -0.9920
    3SOL    HW2   11   2.566   0.442   1.070 -0.0907 -2.8501 -3.6299
    3SOL     MW   12   2.574   0.397   0.997 -0.3691 -0.8750 -0.2830
    4SOL     OW   13   2.978   1.720   0.538  0.8090  0.2287  0.5869
    4SOL    HW1   14   2.914   1.777   0.496  2.9668  2.2786 -2.7210
    4SOL    HW2   15   3.036   1.677   0.476  3.0434  0.7342  1.1949
    4SOL     MW   16   2.977   1.722   0.524  1.3885  0.5658  0.2307
    5SOL     OW   17   1.701   1.504   0.513 -0.6324  0.2659 -0.3583
    5SOL    HW1   18   1.714   1.464   0.600 -1.2853 -0.0224  0.1699
    5SOL    HW2   19   1.610   1.523   0.527  2.0273 -0.5028  1.7304
    5SOL     MW   20   1.691   1.501   0.526 -0.3676  0.1265 -0.0131
    6SOL     OW   21   0.815   1.360   0.581  0.3164  0.7171 -0.4629
    6SOL    HW1   22   0.727   1.370   0.621 -0.3281  1.9954  0.9798
    6SOL    HW2   23   0.858   1.300   0.642  1.9325  1.0927  0.3171
    6SOL     MW   24   0.809   1.353   0.594  0.4446  0.9353 -0.1697
    7SOL     OW   25   2.074   1.036   0.009 -0.1638  0.1570 -0.5705
    7SOL    HW1   26   2.150   1.090   0.012  1.4144 -1.6582  2.7984
    7SOL    HW2   27   2.055   1.009   0.102 -2.3392  0.9333 -1.2596
    7SOL     MW   28   2.081   1.039   0.022 -0.2426  0.0199 -0.2169
    8SOL     OW   29   0.914   1.459   1.192 -0.2594 -0.0351  0.1593
    8SOL    HW1   30   1.007   1.459   1.188 -0.9770  0.7685  1.8683
    8SOL    HW2   31   0.885   1.371   1.205  1.8540 -1.1126  1.5689
    8SOL     MW   32   0.922   1.447   1.193 -0.0752 -0.0712  0.5707
    9SOL     OW   33   0.997   0.520   1.397 -0.1832 -0.3568  0.0811
    9SOL    HW1   34   0.969   0.439   1.352  0.8057  1.6720  0.5044
    9SOL    HW2   35   1.073   0.486   1.439 -0.5225  1.2187  1.5910
    9SOL     MW   36   1.004   0.505   1.397 -0.0975  0.1187  0.3362
   10SOL     OW   37   0.229   0.787   0.486 -0.0263  0.6285  0.3376
   10SOL    HW1   38   0.314   0.825   0.460  0.8124 -0.5683 -1.5227
   10SOL    HW2   39   0.224   0.817   0.576  1.5817 -1.5105 -0.9235
   10SOL     MW   40   0.239   0.796   0.494  0.2965  0.1884 -0.0742
   11SOL     OW   41   0.783   1.130   1.606 -0.2967 -0.3972  0.2245
   11SOL    HW1   42   0.798   1.086   1.683 -1.1229 -0.8806 -0.1577
   11SOL    HW2   43   0.767   1.057   1.549 -0.9909  0.2215  1.1359
   11SOL     MW   44   0.783   1.115   1.609 -0.4973 -0.3793  0.2943
   12SOL     OW   45  -0.000   1.060   0.890 -0.3798  0.3669 -0.2000
   12SOL    HW1   46   0.035   1.121   0.954  0.6169 -2.9591  1.7391
   12SOL    HW2   47  -0.028   1.117   0.813 -0.0258  3.3648 -0.7687
   12SOL     MW   48   0.001   1.076   0.889 -0.2016  0.3236 -0.0192
   13SOL     OW   49   1.863   1.411   1.379  0.1161 -0.4938  0.2472
   13SOL    HW1   50   1.864   1.344   1.310 -1.5885 -2.9038  1.3210
   13SOL    HW2   51   1.880   1.501   1.347 -0.0224 -0.1601  3.5877
   13SOL     MW   52   1.866   1.414   1.366 -0.1271 -0.7677  0.8296
   14SOL     OW   53   0.560   0.359   1.858  0.0167 -0.9445 -0.1901
   14SOL    HW1   54   0.489   0.304   1.884  0.0810 -1.1877  0.1938
   14SOL    HW2   55   0.572   0.343   1.760  1.3748 -0.0284 -1.5903
   14SOL     MW   56   0.552   0.349   1.848  0.2044 -0.8557 -0.3242
   15SOL     OW   57   1.962   0.341   1.064  0.0978 -0.3682 -0.1630
   15SOL    HW1   58   1.938   0.428   1.103  0.1861 -0.4358  1.7770
   15SOL    HW2   59   2.031   0.365   1.003 -1.9268  0.6837  0.8422
   15SOL     MW   60   1.968   0.356   1.061 -0.1577 -0.2383  0.2256
   16SOL     OW   61   0.187   1.817   0.276  0.3682  0.4597 -0.4926
   16SOL    HW1   62   0.283   1.803   0.272 -0.4408 -0.9509  1.6045
   16SOL    HW2   63   0.187   1.912   0.308 -0.9129  2.3286  1.1762
   16SOL     MW   64   0.199   1.828   0.279  0.0924  0.5202  0.0042
   17SOL     OW   65   1.039   0.938   1.455 -0.3349  0.0471  0.1212
   17SOL    HW1   66   1.088   0.887   1.517 -2.0897  0.0977  1.1448
   17SOL    HW2   67   0.949   0.901   1.460 -1.0022  1.1511  1.3116
   17SOL     MW   68   1.034   0.926   1.464 -0.6545  0.1995  0.4133
   18SOL     OW   69   0.067   1.577   0.354  0.8238  0.3144 -0.5465
   18SOL    HW1   70   0.127   1.649   0.341 -1.5770 -0.2486  1.6354
   18SOL    HW2   71   0.049   1.541   0.263 -2.1953 -1.2139  3.1402
   18SOL     MW   72   0.073   1.582   0.340  0.1087  0.0384  0.2278
   19SOL     OW   73   0.079   1.274   1.031  0.2702 -0.1440 -0.4300
   19SOL    HW1   74   0.126   1.330   0.963  0.3828 -0.4484  0.3525
   19SOL    HW2   75   0.002   1.329   1.056  1.0610  3.7181 -1.6340
   19SOL     MW   76   0.075   1.289   1.025  0.3894  0.3254 -0.4856
   20SOL     OW   77   0.426   2.174   1.166 -0.3941  0.1426 -0.1479
   20SOL    HW1   78   0.407   2.099   1.112 -0.9854  1.1898 -2.6873
   20SOL    HW2   79   0.357   2.182   1.235  0.4201 -0.1557 -0.1322
   20SOL     MW   80   0.415   2.165   1.168 -0.3647  0.2414 -0.4809
   21SOL     OW   81   0.483   0.884   0.419  0.0829  0.2103  0.2346
   21SOL    HW1   82   0.547   0.841   0.477  1.4516 -0.1203 -2.6158
   21SOL    HW2   83   0.529   0.878   0.335  0.3496 -0.5211 -0.0974
   21SOL     MW   84   0.498   0.878   0.415  0.2987  0.0702 -0.1853
   22SOL     OW   85   1.553   0.682   1.027 -0.6302  0.4705 -0.3675
   22SOL    HW1   86   1.512   0.652   0.946  0.9757 -0.2704  2.2528
   22SOL    HW2   87   1.485   0.733   1.074 -0.4100  1.2875  0.9143
   22SOL     MW   88   1.539   0.685   1.023 -0.3893  0.4806  0.1473
   23SOL     OW   89   3.042   0.681   0.721  0.5375 -0.4300 -0.0085
   23SOL    HW1   90   3.087   0.610   0.768 -1.9637  1.3737  1.3578
   23SOL    HW2   91   3.101   0.754   0.735 -0.1035 -0.1840  2.5055
   23SOL     MW   92   3.056   0.682   0.729  0.1230 -0.1595  0.5035
   24SOL     OW   93   2.034   2.221   0.040  0.0054  0.6401 -0.1322
   24SOL    HW1   94   2.041   2.222   0.135 -0.5544 -1.0225  0.5239
   24SOL    HW2   95   2.055   2.128   0.011 -0.0352 -0.3416 -3.0627
   24SOL     MW   96   2.038   2.209   0.049 -0.0738  0.2913 -0.4323
   25SOL     OW   97   0.203   1.416   0.547 -0.3834 -0.1123 -0.4347
   25SOL    HW1   98   0.144   1.462   0.492 -1.4971  1.0854 -0.3733
   25SOL    HW2   99   0.294   1.447   0.521 -1.1393  0.7379 -0.4959
   25SOL     MW  100   0.208   1.426   0.537 -0.6301  0.1579 -0.4347
   26SOL     OW  101   2.064   1.038   0.305 -0.0774  0.7137 -0.3094
   26SOL    HW1  102   1.985   1.072   0.353  0.3730 -0.0767  0.5397
   26SOL    HW2  103   2.131   1.106   0.286 -0.7893 -3.4197  0.4726
   26SOL     MW  104   2.062   1.051   0.309 -0.1119  0.0640 -0.0942
   27SOL     OW  105   1.980   1.463   0.221  0.0093  0.0496  0.0890
   27SOL    HW1  106   1.911   1.527   0.235  0.8747  1.5265 -4.1409
   27SOL    HW2  107   2.038   1.474   0.295 -0.3093 -0.1383  0.1955
   27SOL     MW  108   1.978   1.473   0.232  0.0815  0.2197 -0.4550
   28SOL     OW  109   0.449   0.997   1.958 -0.1322  0.1357 -0.1861
   28SOL    HW1  110   0.498   1.018   2.040  1.1989  3.3432  2.8942
   28SOL    HW2  111   0.367   0.959   1.981  1.1135  0.9709  0.1706
   28SOL     MW  112   0.445   0.994   1.972  0.2078  0.6691  0.2674
   29SOL     OW  113   0.215   1.451   0.845  0.1231  0.2425 -0.6895
   29SOL    HW1  114   0.215   1.544   0.863 -1.0741 -1.1371 -0.8574
   29SOL    HW2  115   0.222   1.448   0.748  1.8708  0.0646  0.7825
   29SOL     MW  116   0.216   1.463   0.835  0.1957  0.0370 -0.5174
   30SOL     OW  117   0.794   1.219   1.246 -0.3629  0.7644 -0.6257
   30SOL    HW1  118   0.710   1.217   1.301 -1.3531  0.1249 -1.8970
   30SOL    HW2  119   0.873   1.184   1.295  1.8312 -1.2608  1.8751
   30SOL     MW  120   0.793   1.214   1.260 -0.2040  0.4128 -0.4635
   31SOL     OW  121   0.417   0.249   0.161 -0.7423 -0.2037 -0.1959
   31SOL    HW1  122   0.450   0.169   0.209 -0.0469 -0.9581  2.4829
   31SOL    HW2  123   0.414   0.212   0.071  2.3380 -0.2256 -0.0258
   31SOL     MW  124   0.421   0.233   0.155 -0.2441 -0.3061  0.1799
   32SOL     OW  125   2.789   0.977   1.179 -0.9827  0.2486 -0.2990
   32SOL    HW1  126   2.720   0.921   1.131 -1.2906  1.3823 -2.2490
   32SOL    HW2  127   2.878   0.946   1.154  0.5520  3.4738  1.7068
   32SOL     MW  128   2.792   0.966   1.169 -0.8208  0.8237 -0.2917
   33SOL     OW  129   1.676   1.305   0.336 -0.4789 -0.2079  0.2762
   33SOL    HW1  130   1.739   1.244   0.377 -2.0574  0.4397  1.7387
   33SOL    HW2  131   1.689   1.390   0.382  1.1456  1.1950 -0.1117
   33SOL     MW  132   1.686   1.308   0.347 -0.4728  0.0626  0.4180
   34SOL     OW  133   1.223   1.927   1.103  0.2624  0.0380 -0.0165
   34SOL    HW1  134   1.136   1.957   1.130  0.2164 -0.2937  0.5556
   34SOL    HW2  135   1.289   1.978   1.153 -1.0416  1.1282  1.0815
   34SOL     MW  136   1.220   1.937   1.113  0.0842  0.1380  0.2039
   35SOL     OW  137   0.373   0.136   1.841 -0.3876 -0.3362  0.2348
   35SOL    HW1  138   0.388   0.070   1.908 -2.3438  0.4182 -0.3596
   35SOL    HW2  139   0.445   0.128   1.772 -0.7834  0.4005  1.1214
   35SOL     MW  140   0.385   0.126   1.841 -0.6979 -0.1395  0.2733
   36SOL     OW  141   1.973   1.944   0.575 -0.0466 -0.2279 -0.6445
   36SOL    HW1  142   1.973   1.923   0.482 -2.1354 -0.0809  1.1321
   36SOL    HW2  143   1.944   1.864   0.621  1.6746 -2.9556 -1.6296
   36SOL     MW  144   1.969   1.931   0.569 -0.0951 -0.5684 -0.5400
   37SOL     OW  145   1.781   2.012   0.975 -0.3869  1.0831  0.0279
   37SOL    HW1  146   1.714   1.965   0.927  3.2848 -0.5094  1.4290
   37SOL    HW2  147   1.721   2.065   1.033  0.2580  0.2422  0.7356
   37SOL     MW  148   1.764   2.013   0.976  0.1826  0.7620  0.3061
   38SOL     OW  149   2.812   0.943   0.140  0.3741  0.2807 -0.5908
   38SOL    HW1  150   2.823   0.930   0.236 -2.8104  2.1503  0.7844
   38SOL    HW2  151   2.893   0.902   0.108  1.7544  0.2021 -1.2425
   38SOL     MW  152   2.824   0.936   0.148  0.1360  0.5170 -0.4953
   39SOL     OW  153   1.418   0.609   0.803 -0.2649  0.0843 -0.4661
   39SOL    HW1  154   1.377   0.520   0.807  0.7569  0.7802  0.4467
   39SOL    HW2  155   1.349   0.669   0.779 -2.5287  1.2395 -1.3420
   39SOL     MW  156   1.404   0.605   0.800 -0.4287  0.3285 -0.4612
   40SOL     OW  157   1.165   1.900   0.310 -0.4953 -0.4085 -0.4889
   40SOL    HW1  158   1.205   1.830   0.368 -0.4121 -0.6768  0.9830
   40SOL    HW2  159   1.186   1.985   0.353  3.0162 -0.6911  0.6637
   40SOL     MW  160   1.173   1.902   0.323 -0.0210 -0.4812 -0.1426
   41SOL     OW  161   0.551   0.506   1.569 -0.4251 -0.1026  0.1822
   41SOL    HW1  162   0.643   0.535   1.572 -0.9063 -1.2349  0.7003
   41SOL    HW2  163   0.511   0.538   1.642 -0.6060  1.1465  1.3198
   41SOL     MW  164   0.558   0.514   1.579 -0.5124 -0.0872  0.4007
   42SOL     OW  165   1.250   3.006   2.015  0.2163  0.1613 -0.2807
   42SOL    HW1  166   1.152   3.005   2.024 -1.9784  0.2307 -2.1351
   42SOL    HW2  167   1.289   2.942   2.072 -2.2106 -0.3312  2.1168
   42SOL     MW  168   1.242   2.998   2.023 -0.3935  0.1055 -0.2091
   43SOL     OW  169   1.492   0.123   1.704 -0.6771 -0.2835 -0.5465
   43SOL    HW1  170   1.546   0.056   1.658 -0.0796 -0.1793 -3.1376
   43SOL    HW2  171   1.405   0.080   1.707 -4.1706  1.2771 -0.9840
   43SOL     MW  172   1.488   0.109   1.698 -1.0592 -0.0639 -0.9461
   44SOL     OW  173   1.140   0.773   0.991  0.5649 -0.5887 -0.0316
   44SOL    HW1  174   1.150   0.868   0.970  2.9496  0.6762  0.4351
   44SOL    HW2  175   1.176   0.770   1.084 -0.0422 -0.6637  2.1285
   44SOL     MW  176   1.146   0.785   1.000  0.7994 -0.4317  0.3150
   45SOL     OW  177   1.226   0.749   0.648  0.1707 -0.0506  0.7257
   45SOL    HW1  178   1.177   0.767   0.728 -0.4627 -0.9955  2.1158
   45SOL    HW2  179   1.189   0.680   0.589  0.1644 -1.8478  1.2546
   45SOL     MW  180   1.215   0.742   0.651  0.0863 -0.4124  0.9789
   46SOL     OW  181   0.571   1.126   0.579 -0.5605 -0.3362 -0.2414
   46SOL    HW1  182   0.538   1.106   0.494  0.8837  1.0482 -0.0637
   46SOL    HW2  183   0.666   1.111   0.585 -0.1665 -1.2661 -0.8254
   46SOL     MW  184   0.579   1.121   0.569 -0.3180 -0.2762 -0.2950
   47SOL     OW  185   0.228   1.994   1.966 -0.4058 -0.1732  0.0234
   47SOL    HW1  186   0.303   1.939   2.003 -0.2630 -1.0151  1.4889
   47SOL    HW2  187   0.170   2.017   2.033  0.0793 -2.8785 -1.7989
   47SOL     MW  188   0.230   1.990   1.980 -0.3229 -0.6412 -0.0237
   48SOL     OW  189   1.100   0.521   1.081  0.3803  0.0523 -0.2057
   48SOL    HW1  190   1.003   0.519   1.109 -1.6343 -0.6623  1.6285
   48SOL    HW2  191   1.106   0.598   1.024 -0.3541 -2.0227 -1.4095
   48SOL     MW  192   1.088   0.531   1.077  0.0176 -0.3158 -0.1225
   49SOL     OW  193   1.705   0.689   1.552  0.5541 -0.4086 -0.7275
   49SOL    HW1  194   1.678   0.645   1.634 -0.8099  0.6093  1.4698
   49SOL    HW2  195   1.782   0.638   1.520  0.7690  0.5889  0.4928
   49SOL     MW  196   1.712   0.677   1.558  0.4025 -0.1427 -0.2766
   50SOL     OW  197   1.301   1.107   0.516 -0.3166  0.0294  0.5130
   50SOL    HW1  198   1.243   1.145   0.584  0.0539  1.5920 -1.3144
   50SOL    HW2  199   1.384   1.081   0.554  0.8308  2.7628  1.3377
   50SOL     MW  200   1.304   1.109   0.530 -0.1163  0.5962  0.3807
   51SOL     OW  201   0.341   2.939   0.912 -0.3971 -0.3933 -0.3484
   51SOL    HW1  202   0.428   2.888   0.923  0.7530 -1.5466  0.8213
   51SOL    HW2  203   0.326   2.961   1.007 -1.1291 -0.3775  1.3158
   51SOL     MW  204   0.350   2.935   0.926 -0.3420 -0.5434  0.0255
   52SOL     OW  205   0.822   1.740   0.410  0.2294  0.2835 -0.0275
   52SOL    HW1  206   0.789   1.831   0.396  1.0216  2.7089  0.2681
   52SOL    HW2  207   0.860   1.706   0.324 -1.0732  2.4186 -1.1633
   52SOL     MW  208   0.823   1.748   0.397  0.1620  0.8852 -0.1384
   53SOL     OW  209   0.436   2.136   0.464 -0.6207  0.1160  0.2944
   53SOL    HW1  210   0.363   2.134   0.398 -1.7749  1.1306 -2.6477
   53SOL    HW2  211   0.420   2.215   0.522 -0.2256 -0.5382 -1.7774
   53SOL     MW  212   0.424   2.146   0.463 -0.7208  0.1636 -0.3671
   54SOL     OW  213   1.995   0.906   0.793  0.3093  0.1050 -0.2732
   54SOL    HW1  214   2.043   0.917   0.712 -1.2799  0.2532 -1.0635
   54SOL    HW2  215   1.996   0.809   0.810  2.5568 -1.4155  0.4909
   54SOL     MW  216   2.001   0.895   0.785  0.3962 -0.0760 -0.2767
   55SOL     OW  217   0.544   1.558   1.603  0.2727 -0.0939  0.6528
   55SOL    HW1  218   0.487   1.604   1.539  1.7919  0.3870 -0.7457
   55SOL    HW2  219   0.616   1.504   1.562  0.5344  0.9902 -1.6104
   55SOL     MW  220   0.546   1.557   1.589  0.5077  0.1126  0.1696
   56SOL     OW  221   0.628   0.842   0.192  0.2280 -0.4387 -0.2802
   56SOL    HW1  222   0.654   0.924   0.153 -0.0167  1.0712  0.6572
   56SOL    HW2  223   0.567   0.807   0.131  0.8045 -1.1972  2.1177
   56SOL     MW  224   0.624   0.848   0.179  0.2718 -0.3396  0.1599
   57SOL     OW  225   1.184   1.291   1.148 -0.1853 -0.0104 -0.5876
   57SOL    HW1  226   1.276   1.261   1.142 -3.8271  0.2174  1.4658
   57SOL    HW2  227   1.153   1.250   1.232 -0.7707  0.0888  0.8550
   57SOL     MW  228   1.192   1.281   1.158 -0.7431  0.0327 -0.1264
   58SOL     OW  229   0.543   1.230   1.344  0.3164  0.0036 -0.4103
   58SOL    HW1  230   0.511   1.319   1.318  1.4672 -0.7826 -2.2799
   58SOL    HW2  231   0.528   1.208   1.441  1.8188 -2.8072 -1.5407
   58SOL     MW  232   0.537   1.238   1.353  0.6665 -0.4710 -0.8061
   59SOL     OW  233   1.532   1.695   0.347 -0.3211  0.0939 -0.2077
   59SOL    HW1  234   1.568   1.727   0.431 -1.7003 -0.9343 -0.0253
   59SOL    HW2  235   1.447   1.678   0.375 -0.5364  0.7668 -0.5935
   59SOL     MW  236   1.526   1.697   0.362 -0.5315  0.0471 -0.2345
   60SOL     OW  237   0.036   0.240   1.677  0.0100  0.2247 -0.0331
   60SOL    HW1  238  -0.060   0.265   1.690  4.5607  0.5271  2.1329
   60SOL    HW2  239   0.047   0.149   1.711  1.8676  0.1599 -0.6680
   60SOL     MW  240   0.025   0.231   1.683  0.8555  0.2561  0.1689
   61SOL     OW  241   1.992   1.401   3.045  0.0848 -0.2105 -0.1728
   61SOL    HW1  242   1.982   1.428   3.138 -1.0748  0.1895  0.7841
   61SOL    HW2  243   2.067   1.345   3.045 -1.2641 -1.1077 -1.3897
   61SOL     MW  244   2.001   1.397   3.057 -0.2461 -0.2761 -0.2071
   62SOL     OW  245   0.585   1.666   0.556 -0.1543  0.0281 -0.9662
   62SOL    HW1  246   0.674   1.675   0.519 -1.0042  3.6118 -0.3076
   62SOL    HW2  247   0.562   1.578   0.580 -5.0990 -1.7209 -0.0280
   62SOL     MW  248   0.594   1.656   0.554 -0.9188  0.2702 -0.7555
   63SOL     OW  249   1.711   0.674   0.713  0.4179 -0.4985 -0.0061
   63SOL    HW1  250   1.739   0.753   0.664  1.3523 -1.4967  0.1487
   63SOL    HW2  251   1.618   0.688   0.729 -0.4561 -2.3455 -1.3188
   63SOL     MW  252   1.702   0.686   0.708  0.4259 -0.8739 -0.1589
   64SOL     OW  253   0.222   1.723   0.858  0.2690 -0.7247  0.1889
   64SOL    HW1  254   0.263   1.753   0.776  1.4900  0.9967 -0.6950
   64SOL    HW2  255   0.132   1.756   0.841 -0.2487  1.8469 -2.0250
   64SOL     MW  256   0.215   1.731   0.845  0.3618 -0.1583 -0.2198
   65SOL     OW  257   1.588   2.297   0.428 -0.2694  0.3013  0.6676
   65SOL    HW1  258   1.655   2.245   0.469 -1.1387 -2.1351 -1.9892
   65SOL    HW2  259   1.530   2.338   0.490  1.1502  0.3373 -2.1756
   65SOL     MW  260   1.589   2.296   0.441 -0.1968 -0.0154 -0.0581
   66SOL     OW  261   0.311   0.528   0.522  0.0525  0.4657 -0.3834
   66SOL    HW1  262   0.365   0.505   0.452 -0.2939 -1.5187  1.5641
   66SOL    HW2  263   0.291   0.620   0.511  0.8440  1.1742  1.7308
   66SOL     MW  264   0.315   0.537   0.511  0.1112  0.2974  0.1525
   67SOL     OW  265   1.477   0.126   1.974 -0.0484  0.5346  0.4300
   67SOL    HW1  266   1.483   0.117   1.876  0.5268  3.4780 -1.7939
   67SOL    HW2  267   1.430   0.040   1.991  0.2522 -1.8795 -0.2765
   67SOL     MW  268   1.472   0.113   1.963  0.0671  0.6044  0.0434
   68SOL     OW  269   0.714   0.064   2.996  0.0923  0.9111  0.3157
   68SOL    HW1  270   0.739   0.114   2.917  1.6179 -0.7617 -2.1192
   68SOL    HW2  271   0.808   0.055   3.029 -1.4462 -0.5685 -0.0395
   68SOL     MW  272   0.729   0.069   2.990  0.0906  0.4951 -0.0524
   69SOL     OW  273   1.007   0.189   1.978 -0.4675 -0.1057  0.4198
   69SOL    HW1  274   1.089   0.233   1.999 -1.7234  0.4549 -1.2060
   69SOL    HW2  275   1.022   0.098   2.008  2.1007 -1.8405  0.3711
   69SOL     MW  276   1.019   0.183   1.985 -0.2943 -0.2606  0.1989
   70SOL     OW  277   0.567   1.785   1.168  0.0460  0.3901 -0.1693
   70SOL    HW1  278   0.629   1.741   1.230 -2.1892  1.1593 -0.3935
   70SOL    HW2  279   0.637   1.827   1.113 -0.6065  2.1830 -0.7967
   70SOL     MW  280   0.584   1.785   1.169 -0.3350  0.7281 -0.2816
   71SOL     OW  281   1.591   0.479   1.236 -0.0276  0.0545 -0.4847
   71SOL    HW1  282   1.556   0.546   1.300  1.1034 -0.5182 -0.3432
   71SOL    HW2  283   1.599   0.527   1.152  3.6751  0.3036  0.2615
   71SOL     MW  284   1.588   0.494   1.233  0.6101  0.0118 -0.3676
   72SOL     OW  285   0.797   1.857   1.039 -0.3139 -0.2842 -0.1391
   72SOL    HW1  286   0.771   1.876   0.948  2.0504 -2.2413  0.6698
   72SOL    HW2  287   0.831   1.764   1.044 -0.8250 -1.0436  1.4933
   72SOL     MW  288   0.798   1.848   1.027 -0.0694 -0.6427  0.1830
   73SOL     OW  289   1.176   0.735   1.294  0.2425 -0.2905 -0.2263
   73SOL    HW1  290   1.129   0.653   1.320 -0.4779 -2.7329 -0.3711
   73SOL    HW2  291   1.118   0.796   1.344  0.5403  0.7471 -0.6611
   73SOL     MW  292   1.162   0.732   1.304  0.1868 -0.4758 -0.3028
   74SOL     OW  293   2.777   0.213   1.121  0.3850  0.5658  0.1795
   74SOL    HW1  294   2.792   0.145   1.057 -0.6624  2.6157  1.2490
   74SOL    HW2  295   2.708   0.265   1.075  1.6045 -0.6800 -0.4664
   74SOL     MW  296   2.770   0.211   1.106  0.4077  0.6719  0.2354
   75SOL     OW  297   1.571   1.451   0.125  0.1971 -0.4564 -0.1964
   75SOL    HW1  298   1.647   1.506   0.130 -0.8922 -1.1035 -3.1758
   75SOL    HW2  299   1.602   1.390   0.188  1.6378  1.3677 -1.9165
   75SOL     MW  300   1.585   1.450   0.134  0.2434 -0.3011 -0.8164
   76SOL     OW  301   2.950   0.560   0.476  0.1294  0.8376 -0.0203
   76SOL    HW1  302   2.978   0.598   0.561 -0.2717  1.8295 -0.4380
   76SOL    HW2  303   3.032   0.541   0.432 -0.1445  0.4002 -1.1928
   76SOL     MW  304   2.964   0.563   0.481  0.0403  0.9107 -0.2301
   77SOL     OW  305   0.827   0.565   0.478 -0.4465 -0.6396 -0.0595
   77SOL    HW1  306   0.802   0.567   0.385 -0.3654  0.6669  0.0334
   77SOL    HW2  307   0.800   0.478   0.509 -0.1898  1.5633  0.1415
   77SOL     MW  308   0.820   0.554   0.469 -0.4019 -0.1766 -0.0207
   78SOL     OW  309   0.763   0.888   1.199  0.0302 -0.7777 -0.3331
   78SOL    HW1  310   0.792   0.954   1.132  1.3794  3.5946 -1.1569
   78SOL    HW2  311   0.673   0.880   1.168 -1.2369  0.9813  0.5980
   78SOL     MW  312   0.755   0.896   1.186  0.0411  0.0313 -0.3190
   79SOL     OW  313   1.902   1.663   0.617  0.2397 -0.0063  0.3265
   79SOL    HW1  314   1.834   1.620   0.568  0.4470  0.5745 -2.0056
   79SOL    HW2  315   1.887   1.640   0.708  0.5182 -0.7012  0.7258
   79SOL     MW  316   1.891   1.654   0.622  0.3038 -0.0214  0.0715
   80SOL     OW  317   0.058   0.925   0.322  0.3586 -0.0068  0.4397
   80SOL    HW1  318  -0.032   0.892   0.348  0.5000  1.1356 -0.1779
   80SOL    HW2  319   0.123   0.876   0.366 -0.3115 -0.9160 -0.9342
   80SOL     MW  320   0.055   0.914   0.331  0.2889  0.0240  0.1769
   81SOL     OW  321   1.886   1.873   0.320 -0.2243  0.7100  0.0257
   81SOL    HW1  322   1.872   1.789   0.270  0.4950  1.2366  0.5392
   81SOL    HW2  323   1.829   1.948   0.277 -1.2484  1.6003  2.8602
   81SOL     MW  324   1.877   1.872   0.308 -0.2645  0.8969  0.4675
   82SOL     OW  325   0.816   0.990   0.546  0.5764 -0.4660 -0.2089
   82SOL    HW1  326   0.817   1.006   0.449 -2.7992 -1.3288  0.5444
   82SOL    HW2  327   0.760   0.915   0.557 -0.8481 -1.1778  1.0096
   82SOL     MW  328   0.809   0.982   0.535 -0.0570 -0.6737  0.0513
   83SOL     OW  329   0.086   0.695   1.454 -0.2231  0.7657  0.1119
   83SOL    HW1  330   0.118   0.742   1.378 -1.8987 -0.1917 -0.5691
   83SOL    HW2  331   0.162   0.655   1.494 -1.9915  3.3850  1.5621
   83SOL     MW  332   0.101   0.696   1.449 -0.6775  0.9850  0.2134
   84SOL     OW  333   0.096   0.186   0.966 -0.1811 -0.3457 -0.5926
   84SOL    HW1  334   0.035   0.263   0.975  0.6260  0.6634  1.0322
   84SOL    HW2  335   0.092   0.138   1.053 -3.1186 -1.9808  0.2320
   84SOL     MW  336   0.088   0.190   0.979 -0.4622 -0.4283 -0.2694
   85SOL     OW  337   0.449   0.467   0.750 -0.3532 -0.1149 -0.0970
   85SOL    HW1  338   0.404   0.490   0.666 -1.6909 -1.4219 -0.4505
   85SOL    HW2  339   0.441   0.376   0.761  0.0951 -1.7690  0.9437
   85SOL     MW  340   0.442   0.458   0.740 -0.4705 -0.5056 -0.0063
   86SOL     OW  341   1.163   0.261   1.121  0.0122  0.5290  0.1629
   86SOL    HW1  342   1.109   0.340   1.124 -2.8228  1.2147  1.3447
   86SOL    HW2  343   1.231   0.273   1.187 -3.1549 -1.4253  3.0431
   86SOL     MW  344   1.165   0.273   1.130 -0.7797  0.3616  0.6988
   87SOL     OW  345   1.179   1.518   1.259 -0.4968 -0.6087 -0.1792
   87SOL    HW1  346   1.222   1.574   1.197 -3.6090 -1.0307 -2.6473
   87SOL    HW2  347   1.195   1.434   1.222 -1.1903  1.3896  0.8320
   87SOL     MW  348   1.187   1.514   1.246 -0.9989 -0.4007 -0.3714
   88SOL     OW  349   1.184   1.054   0.975 -0.6925  0.2215  0.2914
   88SOL    HW1  350   1.278   1.059   0.946  3.1706 -0.5170  0.2264
   88SOL    HW2  351   1.173   1.133   1.029  1.5698 -0.6267 -0.5279
   88SOL     MW  352   1.195   1.065   0.978  0.1157  0.0122  0.1747
   89SOL     OW  353   1.754   0.756   0.344  0.1633 -0.0461 -0.6696
   89SOL    HW1  354   1.742   0.662   0.347 -1.3504  0.3220 -0.6240
   89SOL    HW2  355   1.851   0.763   0.327  1.6669  0.8715 -1.6064
   89SOL     MW  356   1.765   0.744   0.342  0.1620  0.1235 -0.7872
   90SOL     OW  357   0.809   1.077   2.792  0.1110  0.2529  0.1043
   90SOL    HW1  358   0.844   0.991   2.801 -2.0724  2.2164 -4.2385
   90SOL    HW2  359   0.842   1.135   2.862 -0.0840 -0.3418  1.5161
   90SOL     MW  360   0.818   1.073   2.802 -0.2028  0.4335 -0.2824
   91SOL     OW  361   2.163   0.670   0.505  0.0742  0.4556  0.0572
   91SOL    HW1  362   2.245   0.716   0.483 -0.1625 -0.4528  1.2210
   91SOL    HW2  363   2.184   0.592   0.460 -2.6785  1.4957  0.3039
   91SOL     MW  364   2.177   0.665   0.496 -0.3202  0.4729  0.2433
   92SOL     OW  365   1.739   0.923   0.579 -0.4979  0.2812  0.5445
   92SOL    HW1  366   1.649   0.922   0.611  1.7375  0.7068 -0.7484
   92SOL    HW2  367   1.740   0.868   0.496 -0.7719 -2.3482  1.2170
   92SOL     MW  368   1.727   0.915   0.572 -0.2391 -0.0095  0.4626
   93SOL     OW  369   1.015   0.216   0.418  0.9833 -0.5961 -0.4499
   93SOL    HW1  370   0.931   0.248   0.448  0.5593 -0.6155 -1.2281
   93SOL    HW2  371   1.022   0.255   0.327  1.3373  1.2444 -0.5999
   93SOL     MW  372   1.005   0.225   0.410  0.9741 -0.3558 -0.5724
   94SOL     OW  373   1.865   1.390   1.632  0.0486  0.1284 -1.3202
   94SOL    HW1  374   1.892   1.379   1.538 -1.8744  0.8902  1.7509
   94SOL    HW2  375   1.836   1.304   1.667  0.7945  0.8353  0.7399
   94SOL     MW  376   1.865   1.377   1.624 -0.1067  0.3222 -0.6432
   95SOL     OW  377   0.805   1.556   0.955 -0.2700 -0.0874  0.4338
   95SOL    HW1  378   0.831   1.521   1.038 -0.8876 -2.2340 -0.5876
   95SOL    HW2  379   0.711   1.534   0.954 -0.5032  3.7162  1.5464
   95SOL     MW  380   0.796   1.549   0.966 -0.3823  0.1312  0.4459
   96SOL     OW  381   1.300   1.892   1.700  0.1317  0.1130  0.4690
   96SOL    HW1  382   1.231   1.886   1.770  0.8387 -1.3216  3.1680
   96SOL    HW2  383   1.293   1.807   1.651 -0.2098  3.8206  2.5281
   96SOL     MW  384   1.290   1.880   1.703  0.1799  0.4129  1.0968
   97SOL     OW  385   1.152   1.441   0.872 -0.8440  0.0399  0.1388
   97SOL    HW1  386   1.195   1.503   0.932 -0.8938  0.8163  0.8219
   97SOL    HW2  387   1.078   1.483   0.826  3.2532 -0.2131 -0.0645
   97SOL     MW  388   1.148   1.455   0.874 -0.3100  0.1090  0.2021
   98SOL     OW  389   1.470   1.286   1.097  0.6342 -0.2660 -0.2901
   98SOL    HW1  390   1.516   1.335   1.165 -0.1747 -0.0874  0.8598
   98SOL    HW2  391   1.469   1.326   1.015  1.3142  1.9280  0.7221
   98SOL     MW  392   1.476   1.298   1.095  0.6172  0.0470 -0.0048
   99SOL     OW  393   1.391   0.276   1.282  0.9167 -0.0981  0.4269
   99SOL    HW1  394   1.467   0.327   1.249 -2.8776  1.9628  0.7315
   99SOL    HW2  395   1.384   0.325   1.366 -1.7592  0.4870 -1.0899
   99SOL     MW  396   1.400   0.289   1.289  0.0630  0.2510  0.2669
  100SOL     OW  397   1.033   1.203   1.370  0.2784  0.2621 -0.3634
  100SOL    HW1  398   1.038   1.252   1.453 -0.3416  1.1244 -1.6071
  100SOL    HW2  399   1.054   1.110   1.400 -2.1411 -0.5802  1.0499
  100SOL     MW  400   1.037   1.197   1.385 -0.1226  0.2647 -0.3411
  101SOL     OW  401   0.494   1.183   0.300 -0.2575  0.2483  0.0119
  101SOL    HW1  402   0.399   1.169   0.288 -1.3139 -1.0053  2.2793
  101SOL    HW2  403   0.533   1.131   0.233 -3.9691  1.3396  0.9587
  101SOL     MW  404   0.487   1.174   0.289 -0.8866  0.2269  0.4360
  102SOL     OW  405   2.912   0.651   0.974  0.0033 -0.1728 -0.2996
  102SOL    HW1  406   2.972   0.727   0.979  0.7199  2.8346  2.7880
  102SOL    HW2  407   2.899   0.647   1.070  0.2282  0.5854 -0.4441
  102SOL     MW  408   2.918   0.661   0.987  0.1275  0.3241  0.0887
  103SOL     OW  409   1.684   0.279   1.872  0.1305 -0.6195  0.3377
  103SOL    HW1  410   1.719   0.204   1.818  2.0453 -0.9599  0.3335
  103SOL    HW2  411   1.619   0.241   1.922  2.9946 -0.6009 -0.4857
  103SOL     MW  412   1.680   0.264   1.871  0.7610 -0.6620  0.2285
  104SOL     OW  413   0.148   1.503   1.604  0.1013  0.2036 -0.6084
  104SOL    HW1  414   0.197   1.431   1.628  0.0836  1.2978 -1.9756
  104SOL    HW2  415   0.060   1.481   1.593  1.1199  1.8872 -0.2167
  104SOL     MW  416   0.143   1.490   1.605  0.2334  0.5701 -0.7371
  105SOL     OW  417   0.050   1.211   0.405 -0.3223 -0.2978  0.0146
  105SOL    HW1  418   0.072   1.110   0.402 -0.4476 -2.3853  1.8936
  105SOL    HW2  419   0.130   1.256   0.437  1.7234 -1.4427  3.2135
  105SOL     MW  420   0.063   1.204   0.409 -0.0689 -0.7243  0.6846
  106SOL     OW  421   0.820   0.373   1.015  0.0059  0.6386  0.0687
  106SOL    HW1  422   0.748   0.430   0.984  0.2366  0.7013  1.6349
  106SOL    HW2  423   0.872   0.366   0.931 -2.4591  0.4677 -0.5071
  106SOL     MW  424   0.817   0.380   1.000 -0.2889  0.6243  0.1994
  107SOL     OW  425   0.794   2.176   2.914  0.0345 -0.7508 -0.3184
  107SOL    HW1  426   0.713   2.143   2.874 -0.6140 -0.5426  1.6226
  107SOL    HW2  427   0.783   2.141   3.006 -1.4445  0.5147  0.5059
  107SOL     MW  428   0.782   2.167   2.921 -0.2462 -0.5564  0.0465
  108SOL     OW  429   1.346   1.611   1.627  0.5820 -0.4821  0.0231
  108SOL    HW1  430   1.264   1.619   1.565 -0.0816 -0.8849 -1.5499
  108SOL    HW2  431   1.416   1.562   1.585 -2.7974  0.2384 -1.4654
  108SOL     MW  432   1.345   1.606   1.613  0.0486 -0.4402 -0.3808
  109SOL     OW  433   2.015   0.788   0.251  0.6862 -0.7530  0.0690
  109SOL    HW1  434   2.039   0.878   0.281 -0.5649  1.2725  1.0296
  109SOL    HW2  435   2.067   0.732   0.307 -0.8332 -0.9662 -2.1869
  109SOL     MW  436   2.025   0.792   0.262  0.3206 -0.5139 -0.1019
  110SOL     OW  437   0.393   1.898   0.621  0.5851  0.8747 -0.4005
  110SOL    HW1  438   0.460   1.838   0.600 -1.5908  0.0183  1.8434
  110SOL    HW2  439   0.402   1.974   0.564  0.0955 -0.2860  0.9509
  110SOL     MW  440   0.403   1.900   0.611  0.2334  0.6086  0.0739
  111SOL     OW  441   0.776   0.876   1.477 -0.6751 -0.5414 -0.2446
  111SOL    HW1  442   0.780   0.881   1.380 -1.2739 -1.5527 -1.1513
  111SOL    HW2  443   0.776   0.787   1.510 -0.4636 -0.5091  2.0268
  111SOL     MW  444   0.776   0.865   1.469 -0.7262 -0.6706 -0.0646
  112SOL     OW  445   1.308   1.107   1.630  0.3741 -0.4815 -0.0141
  112SOL    HW1  446   1.232   1.165   1.639  2.6010  1.0089 -0.5095
  112SOL    HW2  447   1.265   1.022   1.640 -0.5624 -0.1392  2.1119
  112SOL     MW  448   1.292   1.104   1.632  0.5443 -0.2397  0.2010
  113SOL     OW  449   1.274   3.079   1.739  0.1522  0.4170  0.2413
  113SOL    HW1  450   1.285   3.001   1.795  0.6006 -1.7570 -1.0225
  113SOL    HW2  451   1.280   3.050   1.647 -1.0117  0.4150 -2.1133
  113SOL     MW  452   1.276   3.065   1.734  0.0578  0.1299 -0.2361
  114SOL     OW  453   0.262   2.839   1.904 -0.1516  0.4082 -1.0035
  114SOL    HW1  454   0.334   2.891   1.950  1.0970  0.6768  1.7636
  114SOL    HW2  455   0.203   2.906   1.878 -2.9348  0.8731  1.8521
  114SOL     MW  456   0.264   2.855   1.907 -0.3541  0.5050 -0.2616
  115SOL     OW  457   0.491   0.864   1.122 -0.2264  0.0221 -0.4877
  115SOL    HW1  458   0.464   0.777   1.148 -0.2237 -0.7362  1.3053
  115SOL    HW2  459   0.455   0.924   1.191 -0.0271  1.3029  0.2661
  115SOL     MW  460   0.483   0.860   1.135 -0.1998  0.0910 -0.1517
  116SOL     OW  461   0.782   1.066   0.998 -0.2036  0.5798  0.5312
  116SOL    HW1  462   0.830   1.105   0.921  0.4465 -0.5217  1.9029
  116SOL    HW2  463   0.785   1.140   1.067 -0.2418 -1.3450  1.3105
  116SOL     MW  464   0.789   1.081   0.997 -0.1229  0.1805  0.8150
  117SOL     OW  465   1.164   1.200   0.736 -0.6599 -0.4495  0.2247
  117SOL    HW1  466   1.162   1.145   0.818 -2.0659  2.7548  1.2056
  117SOL    HW2  467   1.171   1.291   0.769 -2.4702  1.9224  2.1110
  117SOL     MW  468   1.165   1.205   0.751 -1.0843  0.2862  0.6030
  118SOL     OW  469   3.038   2.965   1.649 -0.1752  0.4071  0.0864
  118SOL    HW1  470   3.083   3.021   1.719  2.0069  2.4722 -1.2139
  118SOL    HW2  471   2.951   2.998   1.643 -0.7354 -3.6333  0.1689
  118SOL     MW  472   3.033   2.977   1.657  0.0388  0.1465 -0.0743
  119SOL     OW  473   0.462   1.496   1.209  0.1233  0.2551  0.3211
  119SOL    HW1  474   0.503   1.570   1.166  0.7165 -2.5830  0.9850
  119SOL    HW2  475   0.366   1.494   1.183 -0.3717 -1.8359 -0.9066
  119SOL     MW  476   0.455   1.506   1.200  0.1363 -0.3952  0.2467
  120SOL     OW  477   0.290   0.766   0.944 -0.8448 -0.4184 -0.2560
  120SOL    HW1  478   0.238   0.798   1.017 -0.6132  0.1578  1.2334
  120SOL    HW2  479   0.379   0.794   0.961  0.3757  0.0214 -1.5088
  120SOL     MW  480   0.295   0.774   0.956 -0.6532 -0.2843 -0.2248
  121SOL     OW  481   1.776   1.105   1.700  0.3666 -0.5585 -0.0537
  121SOL    HW1  482   1.694   1.066   1.709  3.0695  2.3022 -0.7817
  121SOL    HW2  483   1.818   1.054   1.628 -0.5310 -0.8560 -2.1205
  121SOL     MW  484   1.771   1.093   1.692  0.6048 -0.2203 -0.4225
  122SOL     OW  485   0.159   0.502   0.807  0.6668 -0.3939  0.2419
  122SOL    HW1  486   0.227   0.451   0.761  0.6598  0.0734  0.4961
  122SOL    HW2  487   0.212   0.571   0.852 -1.5837 -0.4166 -0.0849
  122SOL     MW  488   0.175   0.505   0.806  0.3690 -0.3352  0.2323
  123SOL     OW  489   1.882   1.145   0.502 -0.5225  0.2402 -0.1651
  123SOL    HW1  490   1.819   1.070   0.512 -0.7348  0.3199 -1.2715
  123SOL    HW2  491   1.898   1.180   0.586  0.2303  0.5303 -0.2563
  123SOL     MW  492   1.876   1.140   0.514 -0.4512  0.2890 -0.3231
  124SOL     OW  493   0.618   0.568   0.921  0.2690 -0.1413  0.1041
  124SOL    HW1  494   0.553   0.547   0.854 -1.4375  0.1332  2.7158
  124SOL    HW2  495   0.657   0.660   0.907 -1.6795 -0.4460 -1.3461
  124SOL     MW  496   0.615   0.578   0.910 -0.2133 -0.1453  0.2573
  125SOL     OW  497   0.680   1.780   1.727  0.5317 -0.0631  0.2893
  125SOL    HW1  498   0.628   1.712   1.683  1.2156  0.7649 -1.2649
  125SOL    HW2  499   0.620   1.862   1.731 -1.0780 -1.3446  0.4801
  125SOL     MW  500   0.665   1.782   1.721  0.4095 -0.1229  0.1094
  126SOL     OW  501   2.110   1.602   1.967 -0.0229  0.5731  0.4008
  126SOL    HW1  502   2.164   1.682   1.954  0.5610 -0.1174  0.0655
  126SOL    HW2  503   2.174   1.529   1.973 -2.5214  0.3971 -1.1758
  126SOL     MW  504   2.126   1.603   1.966 -0.2755  0.4587  0.1485
  127SOL     OW  505   0.591   0.794   1.836 -0.4699  0.2862 -0.1696
  127SOL    HW1  506   0.680   0.792   1.877  0.9704 -2.3744 -1.1867
  127SOL    HW2  507   0.538   0.867   1.872 -1.6150 -0.7889  2.4281
  127SOL     MW  508   0.596   0.804   1.846 -0.4310 -0.2067  0.0389
  128SOL     OW  509   1.717   0.712   2.904  0.0464 -0.2721 -0.5462
  128SOL    HW1  510   1.747   0.694   2.817  1.4078 -1.1700  1.6599
  128SOL    HW2  511   1.719   0.810   2.900  0.2996  0.7166  1.1664
  128SOL     MW  512   1.721   0.723   2.892  0.2594 -0.2601 -0.0292
  129SOL     OW  513   1.620   0.924   0.164  0.4248 -0.6050 -0.2367
  129SOL    HW1  514   1.549   0.868   0.127 -0.7886 -1.5041 -0.5249
  129SOL    HW2  515   1.663   0.852   0.210  1.1559 -0.1161 -1.5231
  129SOL     MW  516   1.616   0.907   0.165  0.3612 -0.6591 -0.4444
  130SOL     OW  517   0.757   1.383   0.315  0.5448 -0.3583 -0.0779
  130SOL    HW1  518   0.764   1.381   0.410  0.5217 -0.3400 -2.0288
  130SOL    HW2  519   0.816   1.459   0.291  0.8920  1.7209  0.2166
  130SOL     MW  520   0.766   1.393   0.324  0.5876 -0.0815 -0.2964
  131SOL     OW  521   3.049   0.855   0.035  0.0491  0.1339  0.1770
  131SOL    HW1  522   3.067   0.880  -0.052 -1.6514 -0.6705 -1.4397
  131SOL    HW2  523   3.125   0.808   0.063 -1.4220  2.4510 -2.5303
  131SOL     MW  524   3.061   0.852   0.027 -0.3694  0.3335 -0.3935
  132SOL     OW  525   2.671   0.125   1.354  0.2258 -0.6476  0.5923
  132SOL    HW1  526   2.702   0.166   1.271 -2.3685  0.4257 -2.5465
  132SOL    HW2  527   2.584   0.087   1.340 -0.4410 -2.4528  1.3102
  132SOL     MW  528   2.664   0.126   1.341 -0.2045 -0.7442  0.2729
  133SOL     OW  529   1.068   0.156   1.722  0.3133  0.0211  0.0491
  133SOL    HW1  530   1.128   0.080   1.729  0.8955 -1.2136 -0.9839
  133SOL    HW2  531   1.045   0.185   1.813  2.4406  3.4529 -0.6686
  133SOL     MW  532   1.073   0.150   1.735  0.6708  0.3110 -0.1819
  134SOL     OW  533   1.416   2.533   1.401 -0.3695 -0.4234 -0.1530
  134SOL    HW1  534   1.332   2.578   1.381 -1.4254  1.5041 -1.3732
  134SOL    HW2  535   1.434   2.543   1.493 -0.7832  1.1165 -1.2492
  134SOL     MW  536   1.407   2.540   1.410 -0.5634  0.0341 -0.4586
  135SOL     OW  537   3.016   0.995   2.883 -0.3327 -0.4338 -0.6192
  135SOL    HW1  538   3.099   1.052   2.914  2.0455  1.4547  0.5870
  135SOL    HW2  539   2.942   1.056   2.896  1.6563  0.1923  2.2874
  135SOL     MW  540   3.017   1.011   2.888  0.2435 -0.1020 -0.0766
  136SOL     OW  541   0.181   2.025   0.789  0.4271  0.4034 -0.0419
  136SOL    HW1  542   0.112   1.966   0.752 -1.3425  0.4270 -0.3291
  136SOL    HW2  543   0.260   2.012   0.738  1.0995 -0.9392 -0.1566
  136SOL     MW  544   0.183   2.015   0.777  0.2824  0.2294 -0.0949
  137SOL     OW  545   0.689   2.009   0.513  0.1259 -0.1781 -0.2514
  137SOL    HW1  546   0.718   2.012   0.605  0.3623  1.0041 -0.8433
  137SOL    HW2  547   0.600   2.040   0.523 -1.4059  0.7197 -2.0091
  137SOL     MW  548   0.681   2.014   0.527 -0.0451  0.0964 -0.5614
  138SOL     OW  549   0.507   0.590   1.174  0.2945  0.2434 -0.0423
  138SOL    HW1  550   0.414   0.583   1.161 -1.0572  1.6963  0.7888
  138SOL    HW2  551   0.549   0.576   1.087  2.1768  0.2119 -0.7500
  138SOL     MW  552   0.501   0.587   1.161  0.3645  0.4309 -0.0260
  139SOL     OW  553   2.845   0.587   1.222  0.6174 -0.2242 -0.3893
  139SOL    HW1  554   2.907   0.513   1.244  1.2729 -1.0239 -0.2933
  139SOL    HW2  555   2.829   0.632   1.303  3.1404  0.0769 -0.6594
  139SOL     MW  556   2.851   0.583   1.235  1.0368 -0.2900 -0.4123
  140SOL     OW  557   0.949   0.481   2.046  0.0944  0.6421  0.0997
  140SOL    HW1  558   0.965   0.389   2.027  1.2632 -1.8822  1.6303
  140SOL    HW2  559   0.958   0.487   2.138  1.4690  2.5581 -1.8259
  140SOL     MW  560   0.952   0.469   2.056  0.4300  0.5619  0.0476
  141SOL     OW  561   1.018   0.627   1.751  0.0006  0.4160 -0.6553
  141SOL    HW1  562   1.072   0.551   1.741 -0.8510  0.9021 -0.9322
  141SOL    HW2  563   1.061   0.707   1.723  0.6194 -1.9507  1.1568
  141SOL     MW  564   1.031   0.627   1.746 -0.0301  0.1679 -0.4527
  142SOL     OW  565   0.897   1.141   0.753  0.2703 -0.5123  0.4229
  142SOL    HW1  566   0.882   1.067   0.682 -1.5420  0.6084  0.0483
  142SOL    HW2  567   0.994   1.155   0.754  0.4922 -3.5221  0.9098
  142SOL     MW  568   0.908   1.133   0.743  0.0605 -0.7616  0.4377
  143SOL     OW  569   1.822   0.758   1.068 -0.0922 -0.2093 -0.0619
  143SOL    HW1  570   1.882   0.727   0.998 -0.4323 -1.5171 -1.9892
  143SOL    HW2  571   1.730   0.739   1.043  1.8592 -0.5009 -1.5510
  143SOL     MW  572   1.818   0.751   1.055  0.1204 -0.4203 -0.5127
  144SOL     OW  573   0.308   1.287   1.666  0.3392 -0.1681  1.0312
  144SOL    HW1  574   0.383   1.226   1.646 -2.2030 -1.0512 -1.6966
  144SOL    HW2  575   0.290   1.281   1.764  0.7484  2.5097  0.7383
  144SOL     MW  576   0.316   1.278   1.676  0.0578  0.0687  0.6327
  145SOL     OW  577   0.246   0.499   1.180 -0.6505 -0.4747  0.1536
  145SOL    HW1  578   0.306   0.424   1.201  2.3863  2.1554 -0.9606
  145SOL    HW2  579   0.167   0.458   1.176  3.1484  3.2467 -0.8782
  145SOL     MW  580   0.244   0.484   1.182  0.2514  0.3633 -0.1296
  146SOL     OW  581   0.833   1.981   1.411 -0.9583  0.3250  0.2570
  146SOL    HW1  582   0.889   1.997   1.332 -1.5900 -0.0362 -3.1194
  146SOL    HW2  583   0.740   1.969   1.378  0.8697 -3.1901  1.4931
  146SOL     MW  584   0.828   1.981   1.396 -0.8005 -0.1864 -0.0254
  147SOL     OW  585   0.370   0.464   3.016 -0.4273  0.3830 -0.0708
  147SOL    HW1  586   0.311   0.434   3.088 -1.6322 -0.7181 -0.7965
  147SOL    HW2  587   0.322   0.527   2.964  0.9965  1.6644  1.3983
  147SOL     MW  588   0.356   0.468   3.019 -0.3984  0.4068  0.0273
  148SOL     OW  589   0.108   0.953   1.314 -0.1976  0.0284 -0.0067
  148SOL    HW1  590   0.200   0.966   1.319 -1.3849 -3.0366 -0.8874
  148SOL    HW2  591   0.076   1.018   1.378 -4.5952  1.4846  0.3281
  148SOL     MW  592   0.116   0.964   1.323 -0.9344 -0.1838 -0.0787
  149SOL     OW  593   1.427   1.127   1.382  0.4452 -0.8531  0.2264
  149SOL    HW1  594   1.363   1.120   1.451  2.7314  0.5895  0.7313
  149SOL    HW2  595   1.465   1.211   1.395 -1.1330 -0.4389  0.4857
  149SOL     MW  596   1.424   1.137   1.393  0.5387 -0.6081  0.3273
  150SOL     OW  597   1.744   1.377   0.760  0.2072  0.0083  0.4473
  150SOL    HW1  598   1.800   1.308   0.782 -2.1487  1.2984 -0.0931
  150SOL    HW2  599   1.780   1.445   0.816  0.1024 -1.3931 -2.2147
  150SOL     MW  600   1.756   1.377   0.770 -0.1175 -0.0064  0.0248
  151SOL     OW  601   1.667   1.782   0.797 -0.0892  0.1497 -0.5455
  151SOL    HW1  602   1.666   1.813   0.705  0.2354 -0.9429 -3.9351
  151SOL    HW2  603   1.592   1.720   0.806  1.9245 -0.3594  0.0274
  151SOL     MW  604   1.657   1.778   0.786  0.2193 -0.0616 -0.9171
  152SOL     OW  605   0.781   1.426   1.606  0.2249  0.4980  0.7410
  152SOL    HW1  606   0.778   1.341   1.567 -0.1474 -0.5056  2.2571
  152SOL    HW2  607   0.856   1.464   1.568 -3.4030 -0.6620 -2.1847
  152SOL     MW  608   0.790   1.420   1.596 -0.3029  0.2126  0.5550
  153SOL     OW  609   2.616   1.210   0.799 -0.6659 -0.1236 -0.1952
  153SOL    HW1  610   2.687   1.189   0.735  1.0895  0.4354 -2.1142
  153SOL    HW2  611   2.552   1.143   0.787 -0.2667 -2.4458  1.9508
  153SOL     MW  612   2.617   1.198   0.789 -0.3816 -0.3562 -0.1652
  154SOL     OW  613   0.175   1.761   1.710 -0.0541  0.1071 -0.2577
  154SOL    HW1  614   0.180   1.675   1.676 -1.2575  0.3830  2.8294
  154SOL    HW2  615   0.175   1.753   1.804 -2.4722 -0.3468  0.7150
  154SOL     MW  616   0.175   1.749   1.718 -0.5319  0.0836  0.2780
  155SOL     OW  617   1.173   0.671   0.246 -0.1166  0.5004  0.6110
  155SOL    HW1  618   1.170   0.610   0.316  1.1159  4.9062  2.8039
  155SOL    HW2  619   1.151   0.756   0.295 -0.4570  2.1242 -1.0959
  155SOL     MW  620   1.170   0.674   0.262  0.0011  1.2960  0.6751
  156SOL     OW  621   1.516   3.006   1.081  0.1817  0.1986 -0.1371
  156SOL    HW1  622   1.591   3.064   1.098  0.7172  0.1342 -1.1281
  156SOL    HW2  623   1.540   2.919   1.106 -0.6685 -0.7785 -0.2557
  156SOL     MW  624   1.529   3.003   1.087  0.1402  0.0612 -0.2835
  157SOL     OW  625   1.434   1.185   0.105 -0.4636  0.2731 -0.0215
  157SOL    HW1  626   1.490   1.103   0.137  0.7741  0.7110 -2.4658
  157SOL    HW2  627   1.506   1.243   0.076 -0.0415  0.3879  1.8746
  157SOL     MW  628   1.451   1.182   0.105 -0.2446  0.3460 -0.0938
  158SOL     OW  629   0.432   1.626   2.235 -0.9614  0.3562  0.5528
  158SOL    HW1  630   0.413   1.689   2.167  3.0932  0.0486 -0.2514
  158SOL    HW2  631   0.388   1.662   2.310  0.2989  0.1870 -1.2138
  158SOL     MW  632   0.424   1.639   2.236 -0.2602  0.2933  0.2136
  159SOL     OW  633   1.251   1.707   0.459 -0.1376  0.9448  0.6538
  159SOL    HW1  634   1.222   1.646   0.387 -1.4533 -0.5234 -0.7668
  159SOL    HW2  635   1.172   1.720   0.509  0.6153 -0.5814 -1.7814
  159SOL     MW  636   1.237   1.701   0.456 -0.2119  0.5497  0.1451
  160SOL     OW  637   0.517   1.137   1.597  0.0988  0.4317 -0.1873
  160SOL    HW1  638   0.494   1.044   1.616  1.0407 -0.1671 -1.6006
  160SOL    HW2  639   0.599   1.158   1.639 -2.6184  1.9293  1.6349
  160SOL     MW  640   0.524   1.127   1.605 -0.1354  0.5503 -0.1334
  161SOL     OW  641   0.504   2.277   2.550 -0.4456 -0.3635  0.1351
  161SOL    HW1  642   0.415   2.301   2.556  1.2788 -0.0344 -0.3268
  161SOL    HW2  643   0.513   2.204   2.487 -0.7515 -1.5759 -0.9499
  161SOL     MW  644   0.493   2.270   2.542 -0.2585 -0.4800 -0.0690
  162SOL     OW  645   1.110   1.778   1.890  0.2283 -0.1658 -0.3503
  162SOL    HW1  646   1.133   1.857   1.953  2.6782  0.3464 -1.2479
  162SOL    HW2  647   1.025   1.737   1.914  1.4746  0.9628 -1.4075
  162SOL     MW  648   1.102   1.783   1.901  0.7160  0.0507 -0.6082
  163SOL     OW  649   2.121   3.031   0.859  0.2079 -0.2875  0.5162
  163SOL    HW1  650   2.087   3.116   0.810 -0.0878 -0.1200 -1.0936
  163SOL    HW2  651   2.099   2.957   0.805 -1.3703 -0.2485 -0.3778
  163SOL     MW  652   2.114   3.033   0.845 -0.0393 -0.2603  0.1859
  164SOL     OW  653   0.318   0.217   0.824 -0.3032  0.2350 -0.0329
  164SOL    HW1  654   0.232   0.219   0.876  0.8368 -0.0427 -0.8906
  164SOL    HW2  655   0.312   0.140   0.773 -2.1827 -0.2458  0.0177
  164SOL     MW  656   0.306   0.207   0.824 -0.4008  0.1349 -0.1394
  165SOL     OW  657   1.346   1.316   0.350 -0.6450  0.0016 -0.4667
  165SOL    HW1  658   1.329   1.234   0.406 -0.5273  1.4114 -0.7908
  165SOL    HW2  659   1.373   1.286   0.263  1.3134  2.4186  0.0515
  165SOL     MW  660   1.347   1.301   0.346 -0.3711  0.5065 -0.4411
  166SOL     OW  661   0.529   1.199   0.986  0.5123 -0.1469 -0.2616
  166SOL    HW1  662   0.514   1.147   1.062 -2.2187  0.0950  2.0179
  166SOL    HW2  663   0.596   1.152   0.939  0.0619  0.1810 -0.4827
  166SOL     MW  664   0.536   1.186   0.990  0.0925 -0.0718  0.0100
  167SOL     OW  665   0.813   1.082   0.273  0.2731  0.0323 -0.3685
  167SOL    HW1  666   0.778   1.168   0.314 -3.3014  1.9535 -0.5851
  167SOL    HW2  667   0.898   1.113   0.258  0.8691  2.8067  1.4012
  167SOL     MW  668   0.820   1.097   0.276 -0.1199  0.6518 -0.1636
  168SOL     OW  669   1.702   1.658   3.051  0.2607 -0.0723  0.3697
  168SOL    HW1  670   1.624   1.707   3.054  0.7616  1.6672  1.7293
  168SOL    HW2  671   1.669   1.571   3.043  2.3655 -1.4341 -1.5455
  168SOL     MW  672   1.687   1.653   3.050  0.6045 -0.0225  0.2964
  169SOL     OW  673   0.385   0.993   1.321 -0.3248  0.1796  0.3226
  169SOL    HW1  674   0.440   0.954   1.392  1.3092  0.5430 -0.3220
  169SOL    HW2  675   0.407   1.088   1.319 -0.5057  0.4936 -1.0168
  169SOL     MW  676   0.395   1.000   1.330 -0.1331  0.2690  0.0608
  170SOL     OW  677   1.073   1.560   1.527  0.1926 -0.9703  0.1675
  170SOL    HW1  678   1.011   1.634   1.526  3.8531 -0.1074  1.3640
  170SOL    HW2  679   1.096   1.546   1.435  0.5294  1.6493 -1.7378
  170SOL     MW  680   1.068   1.568   1.515  0.7200 -0.5108  0.0740
  171SOL     OW  681   0.551   1.395   0.645  0.1615 -0.5651  0.5571
  171SOL    HW1  682   0.526   1.433   0.730 -1.3644  0.2543 -1.0398
  171SOL    HW2  683   0.521   1.303   0.651 -2.4716 -0.6158  2.0220
  171SOL     MW  684   0.544   1.388   0.657 -0.3873 -0.4637  0.5397
  172SOL     OW  685   0.885   0.288   1.274 -0.3647  0.3975 -0.0987
  172SOL    HW1  686   0.829   0.306   1.191 -0.5377 -1.2116 -2.2884
  172SOL    HW2  687   0.818   0.274   1.338  0.6809 -0.6122  1.7438
  172SOL     MW  688   0.869   0.289   1.272 -0.2496  0.0520 -0.1445
  173SOL     OW  689   0.462   1.753   0.292  0.3280  0.4348 -0.4762
  173SOL    HW1  690   0.484   1.660   0.271 -2.1045  0.2478 -1.6088
  173SOL    HW2  691   0.462   1.756   0.391  1.0011  1.5522  1.6573
  173SOL     MW  692   0.465   1.741   0.303  0.0959  0.5575 -0.3441
  174SOL     OW  693   1.846   0.905   1.494  0.0156 -0.0402  0.1103
  174SOL    HW1  694   1.782   0.837   1.522 -0.2782 -0.6982  0.7668
  174SOL    HW2  695   1.845   0.911   1.400  0.2524 -0.0658 -1.8643
  174SOL     MW  696   1.837   0.897   1.486  0.0080 -0.1304 -0.0636
  175SOL     OW  697   0.493   1.479   0.211 -0.1656  0.8317 -0.4408
  175SOL    HW1  698   0.423   1.418   0.173  0.5549  1.6571  0.7499
  175SOL    HW2  699   0.552   1.417   0.253  0.6069 -4.4620 -2.2044
  175SOL     MW  700   0.492   1.463   0.211  0.0314  0.2422 -0.5164
  176SOL     OW  701   0.194   1.487   1.178 -0.2914 -0.0109  0.4267
  176SOL    HW1  702   0.161   1.414   1.112 -3.3747 -2.0088 -0.6313
  176SOL    HW2  703   0.117   1.493   1.241 -1.3053 -2.1670 -2.1889
  176SOL     MW  704   0.180   1.478   1.177 -0.8320 -0.5590 -0.0580
  177SOL     OW  705   0.616   0.385   1.314 -0.3505 -0.7444 -0.5300
  177SOL    HW1  706   0.586   0.451   1.238 -1.6672 -2.6424  0.4411
  177SOL    HW2  707   0.585   0.427   1.395 -1.7140 -2.5964 -0.5990
  177SOL     MW  708   0.608   0.399   1.314 -0.7041 -1.2392 -0.4110
  178SOL     OW  709   3.068   0.575   2.942  0.2220 -0.2958 -0.1450
  178SOL    HW1  710   3.002   0.589   3.013 -0.1796 -1.1278  0.7314
  178SOL    HW2  711   3.013   0.548   2.870  0.1743 -0.5918  3.2866
  178SOL     MW  712   3.052   0.573   2.942  0.1627 -0.4447  0.4234
  179SOL     OW  713   1.572   1.396   1.325  0.0861  0.2082  0.6202
  179SOL    HW1  714   1.539   1.402   1.418  1.3496  2.6167 -2.1852
  179SOL    HW2  715   1.666   1.392   1.331 -1.4038 -1.3939 -2.4115
  179SOL     MW  716   1.580   1.396   1.338  0.0562  0.3146 -0.1499
  180SOL     OW  717   2.986   0.247   0.458 -0.3115 -0.4891 -0.0723
  180SOL    HW1  718   2.945   0.248   0.368 -1.7499  0.9332 -0.6961
  180SOL    HW2  719   3.080   0.284   0.441  1.0408  0.5097 -1.1376
  180SOL     MW  720   2.993   0.252   0.444 -0.3229 -0.1696 -0.2952
  181SOL     OW  721   1.105   1.348   3.068  0.2163  0.1131 -0.0095
  181SOL    HW1  722   1.170   1.412   3.085 -0.3247 -0.8706 -2.1532
  181SOL    HW2  723   1.149   1.273   3.030  0.0892  1.7603 -1.2539
  181SOL     MW  724   1.119   1.347   3.065  0.1281  0.2006 -0.4565
  182SOL     OW  725   0.456   0.840   1.572  0.2485  0.2001 -0.2725
  182SOL    HW1  726   0.380   0.848   1.639  1.3766  1.4245  3.3381
  182SOL    HW2  727   0.539   0.820   1.619  1.2198  0.8467  2.1584
  182SOL     MW  728   0.457   0.838   1.587  0.5255  0.4470  0.5246
  183SOL     OW  729   1.587   1.660   1.184  0.0084  1.1643  0.4370
  183SOL    HW1  730   1.671   1.680   1.228  1.3436 -0.0077  0.5102
  183SOL    HW2  731   1.557   1.586   1.238  1.1728  0.6577  1.7279
  183SOL     MW  732   1.594   1.653   1.197  0.3382  0.9428  0.6170
  184SOL     OW  733   0.835   0.702   1.939 -0.2722  0.3723  0.3069
  184SOL    HW1  734   0.907   0.696   1.882 -1.0475  1.7803  0.2501
  184SOL    HW2  735   0.842   0.611   1.976 -0.2197  1.5783 -1.9523
  184SOL     MW  736   0.845   0.689   1.937 -0.3676  0.7172  0.0014
  185SOL     OW  737   1.136   0.973   1.911 -0.2252  0.2368 -0.1322
  185SOL    HW1  738   1.156   0.890   1.965  0.2320  0.3434  1.4257
  185SOL    HW2  739   1.170   1.040   1.964 -2.1396 -1.2672  1.7915
  185SOL     MW  740   1.143   0.971   1.925 -0.4174  0.0524  0.3272
  186SOL     OW  741   0.372   1.638   1.412 -0.2892 -0.4034  0.1418
  186SOL    HW1  742   0.423   1.591   1.343 -1.6514  3.4265 -0.6126
  186SOL    HW2  743   0.291   1.587   1.430 -2.4419  0.9717 -0.7472
  186SOL     MW  744   0.368   1.625   1.405 -0.7529  0.2833 -0.0750
  187SOL     OW  745   1.499   0.719   1.338  0.2178  0.4955  0.6706
  187SOL    HW1  746   1.546   0.754   1.414  1.5836 -1.7862  1.9636
  187SOL    HW2  747   1.408   0.720   1.364 -0.2892 -0.3736 -3.6461
  187SOL     MW  748   1.493   0.724   1.351  0.3311  0.0798  0.2717
  188SOL     OW  749   1.887   1.151   0.916 -0.0233  0.2258 -0.4255
  188SOL    HW1  750   1.891   1.170   1.009 -0.8328 -3.4466 -0.0197
  188SOL    HW2  751   1.915   1.065   0.892  0.6961  0.4218  0.1642
  188SOL     MW  752   1.891   1.142   0.925 -0.0352 -0.2328 -0.2942
  189SOL     OW  753   0.681   0.834   0.884 -0.0772  0.1442  0.2461
  189SOL    HW1  754   0.582   0.855   0.880  1.3381 -2.6873  0.5106
  189SOL    HW2  755   0.725   0.911   0.926  1.7996 -2.1852 -1.2404
  189SOL     MW  756   0.674   0.847   0.889  0.3571 -0.5367  0.0849
  190SOL     OW  757   1.906   0.241   2.165 -0.4396  0.2021 -0.1666
  190SOL    HW1  758   1.905   0.239   2.264  3.1487  2.5647  0.3780
  190SOL    HW2  759   1.976   0.307   2.137 -0.2515 -2.2660 -0.6800
  190SOL     MW  760   1.915   0.249   2.174  0.0587  0.1882 -0.1625
  191SOL     OW  761   1.530   0.948   1.163  0.9392  0.2336 -0.2875
  191SOL    HW1  762   1.505   1.019   1.221 -2.1638 -2.2877 -0.4724
  191SOL    HW2  763   1.516   0.869   1.216  0.2671  0.9093 -2.0641
  191SOL     MW  764   1.525   0.947   1.178  0.4411 -0.0099 -0.5463
  192SOL     OW  765   0.590   2.107   2.759 -0.0867  0.2221  0.2104
  192SOL    HW1  766   0.554   2.157   2.686 -2.4881  3.7128  1.4762
  192SOL    HW2  767   0.581   2.010   2.749  1.7355  1.1340 -1.8807
  192SOL     MW  768   0.584   2.100   2.748 -0.1631  0.8030  0.1015
  193SOL     OW  769   0.936   1.563   0.729 -0.2920  0.0472  0.4290
  193SOL    HW1  770   0.871   1.581   0.793  2.1941  2.5472 -1.5360
  193SOL    HW2  771   0.899   1.484   0.677 -0.2285 -0.7062 -0.5557
  193SOL     MW  772   0.923   1.555   0.731  0.0444  0.2776  0.0398
  194SOL     OW  773   0.524   1.475   0.900  0.0167 -0.7203 -1.1715
  194SOL    HW1  774   0.494   1.406   0.965 -1.0434  0.8395  1.4930
  194SOL    HW2  775   0.443   1.521   0.880 -1.0819 -0.3463 -1.6217
  194SOL     MW  776   0.509   1.472   0.906 -0.2682 -0.4652 -0.8794
  195SOL     OW  777   1.301   1.164   2.958 -0.1686 -0.4633  0.5075
  195SOL    HW1  778   1.334   1.165   3.047  0.6640 -1.3055  1.0535
  195SOL    HW2  779   1.232   1.094   2.952  0.9923  0.0707 -2.5535
  195SOL     MW  780   1.296   1.154   2.969  0.0944 -0.5039  0.1756
  196SOL     OW  781   2.192   0.997   0.560  0.3015 -0.4241 -0.1769
  196SOL    HW1  782   2.138   0.991   0.482 -1.6043  0.6750 -3.2223
  196SOL    HW2  783   2.200   1.091   0.576  1.2505  1.2774 -1.7776
  196SOL     MW  784   2.186   1.009   0.552  0.1752 -0.0546 -0.7899
  197SOL     OW  785   0.672   1.369   2.119  0.2876  0.7560  0.7067
  197SOL    HW1  786   0.710   1.279   2.088  1.5757 -1.0996  2.0612
  197SOL    HW2  787   0.636   1.408   2.036  0.4481  1.6223  1.8525
  197SOL     MW  788   0.672   1.363   2.104  0.4787  0.6255  1.0366
  198SOL     OW  789   2.922   1.404   1.054 -0.1337  0.4786  0.5057
  198SOL    HW1  790   2.872   1.468   1.007  0.8945 -1.5577 -1.4340
  198SOL    HW2  791   2.860   1.335   1.069  1.7970  0.5016  2.2201
  198SOL     MW  792   2.907   1.403   1.050  0.2567  0.2130  0.4760
  199SOL     OW  793   0.542   1.403   1.884  0.7041  0.0663 -0.5685
  199SOL    HW1  794   0.459   1.360   1.894 -0.0705  0.8148 -1.0844
  199SOL    HW2  795   0.544   1.433   1.797 -1.1282  2.7033  1.8152
  199SOL     MW  796   0.531   1.401   1.874  0.3602  0.5130 -0.3221
  200SOL     OW  797   1.884   2.895   1.391 -0.5952 -0.2774  0.2626
  200SOL    HW1  798   1.932   2.914   1.303 -0.6177  0.1980 -1.9880
  200SOL    HW2  799   1.815   2.959   1.399  0.0431 -0.1017 -1.8067
  200SOL     MW  800   1.881   2.906   1.381 -0.5139 -0.1915 -0.3074
  201SOL     OW  801   1.001   0.350   0.797 -0.2122  1.0781  0.1915
  201SOL    HW1  802   1.021   0.267   0.753 -2.6103 -2.5505 -0.6553
  201SOL    HW2  803   1.088   0.379   0.819 -2.5798 -0.1900 -0.2136
  201SOL     MW  804   1.015   0.343   0.794 -0.8410  0.4320  0.0263
  202SOL     OW  805   1.513   1.573   0.902 -0.1042  0.1603  0.0553
  202SOL    HW1  806   1.509   1.494   0.849 -3.0788  1.3228  1.5886
  202SOL    HW2  807   1.558   1.557   0.984 -0.1743  0.7519  0.4443
  202SOL     MW  808   1.518   1.561   0.906 -0.5059  0.3918  0.3089
  203SOL     OW  809   3.019   0.448   1.405  0.5754 -0.3841  0.4653
  203SOL    HW1  810   3.089   0.385   1.412 -1.8846  1.1874  0.0775
  203SOL    HW2  811   3.060   0.536   1.412  3.1728 -1.2216 -0.5198
  203SOL     MW  812   3.033   0.451   1.407  0.5935 -0.2873  0.2841
  204SOL     OW  813   1.023   1.766   0.597  0.4736 -0.0960  0.0044
  204SOL    HW1  814   1.011   1.701   0.667  2.0171 -0.1709  1.7850
  204SOL    HW2  815   0.947   1.761   0.536  0.5099  2.6432  0.4793
  204SOL     MW  816   1.012   1.757   0.598  0.6820  0.2555  0.3020
  205SOL     OW  817   1.397  -0.003   1.333  0.6300 -0.5646 -0.0572
  205SOL    HW1  818   1.430  -0.037   1.248  4.0456  1.8804 -2.2619
  205SOL    HW2  819   1.388   0.093   1.321 -3.0617 -0.4176 -0.8794
  205SOL     MW  820   1.400   0.005   1.320  0.5936 -0.2227 -0.4566
  206SOL     OW  821   0.490   3.063   1.396  0.0208  0.4624  0.1135
  206SOL    HW1  822   0.430   3.058   1.320  0.3179  1.3727  1.4961
  206SOL    HW2  823   0.549   2.985   1.388  0.8369  1.6415  0.3929
  206SOL     MW  824   0.490   3.052   1.385  0.1677  0.7380  0.3328
  207SOL     OW  825   0.931   1.612   0.204  0.4170  0.9016  0.2157
  207SOL    HW1  826   0.944   1.692   0.148 -0.9600  1.1149 -2.0464
  207SOL    HW2  827   1.021   1.586   0.234 -0.8001 -0.9703  1.7793
  207SOL     MW  828   0.944   1.619   0.201  0.0748  0.6828  0.1235
  208SOL     OW  829   0.749   1.635   1.318 -0.1638  0.2573 -0.3617
  208SOL    HW1  830   0.783   1.676   1.398  2.9052 -0.0734 -0.1498
  208SOL    HW2  831   0.810   1.577   1.277 -3.0324  1.5265  0.1990
  208SOL     MW  832   0.761   1.633   1.323 -0.1374  0.3812 -0.2598
  209SOL     OW  833   1.569   0.498   2.911 -0.2290  0.2710 -0.4402
  209SOL    HW1  834   1.618   0.578   2.943 -0.7102  2.1702 -1.1129
  209SOL    HW2  835   1.632   0.430   2.872  1.8492  1.2011 -0.9335
  209SOL     MW  836   1.583   0.499   2.910 -0.0183  0.6443 -0.5941
  210SOL     OW  837   1.476   1.301   0.767 -0.7954  0.3453  0.6215
  210SOL    HW1  838   1.572   1.311   0.742  0.6087  1.6293 -0.9191
  210SOL    HW2  839   1.432   1.356   0.705 -0.0323  0.3919  0.6883
  210SOL     MW  840   1.483   1.309   0.756 -0.5095  0.5209  0.4271
  211SOL     OW  841   1.724   0.243   0.966 -0.2602  0.0717  0.2608
  211SOL    HW1  842   1.702   0.286   0.882  0.1764  0.5492 -1.3218
  211SOL    HW2  843   1.816   0.271   0.981  0.5795  1.6325  1.1075
  211SOL     MW  844   1.733   0.253   0.957 -0.0918  0.3406  0.1637
  212SOL     OW  845   0.270   1.046   0.180 -0.4022  0.3060  0.4888
  212SOL    HW1  846   0.205   0.984   0.220 -0.0568 -0.8707 -1.2884
  212SOL    HW2  847   0.320   0.992   0.117 -2.0146  0.1696 -0.9586
  212SOL     MW  848   0.268   1.031   0.177 -0.5694  0.1327  0.0634
  213SOL     OW  849   0.500   1.723   3.002 -0.2443  0.2106 -0.7888
  213SOL    HW1  850   0.500   1.789   3.077  0.4579  2.9250 -0.5570
  213SOL    HW2  851   0.560   1.769   2.940 -2.5679  0.7103 -0.6178
  213SOL     MW  852   0.508   1.738   3.003 -0.4582  0.6347 -0.7357
  214SOL     OW  853   0.670   0.375   2.165 -0.2292  0.3479  0.5170
  214SOL    HW1  854   0.585   0.429   2.178 -0.0867  0.8639 -0.2482
  214SOL    HW2  855   0.676   0.383   2.067  1.2928 -0.3952 -0.6488
  214SOL     MW  856   0.659   0.383   2.154 -0.0095  0.3180  0.2622
  215SOL     OW  857   0.502   0.702   2.648 -0.1487 -0.1903 -0.4419
  215SOL    HW1  858   0.497   0.702   2.559  1.5469 -1.6953 -0.3979
  215SOL    HW2  859   0.432   0.647   2.684  1.2849  0.6233  2.6982
  215SOL     MW  860   0.492   0.695   2.641  0.2642 -0.2815 -0.0218
  216SOL     OW  861   2.970   2.997   2.723  0.3861 -0.4917  0.4566
  216SOL    HW1  862   2.940   3.018   2.816  1.4528  1.3673  1.7358
  216SOL    HW2  863   2.953   3.080   2.679 -2.2813 -0.9594 -1.5689
  216SOL     MW  864   2.964   3.011   2.729  0.1749 -0.3081  0.3581
  217SOL     OW  865   1.061   1.119   0.128  0.2274  0.1616 -0.2772
  217SOL    HW1  866   1.086   1.057   0.059 -0.2025 -0.0295 -0.0031
  217SOL    HW2  867   1.076   1.198   0.081  0.7340 -2.1667  0.9976
  217SOL     MW  868   1.066   1.122   0.112  0.2375 -0.1708 -0.0728
  218SOL     OW  869   0.922   1.359   2.608 -0.2059  0.0063  0.4545
  218SOL    HW1  870   0.958   1.279   2.637 -0.5984 -0.4752  0.3961
  218SOL    HW2  871   0.991   1.425   2.622  0.6788 -1.6965  1.2129
  218SOL     MW  872   0.936   1.357   2.614 -0.1410 -0.2819  0.5469
  219SOL     OW  873   1.121   0.371   2.614 -0.0138 -0.0036 -0.6377
  219SOL    HW1  874   1.203   0.424   2.635  1.8965  4.1043 -0.3143
  219SOL    HW2  875   1.047   0.429   2.600  1.6364 -1.6509  1.3376
  219SOL     MW  876   1.122   0.385   2.615  0.4559  0.3211 -0.3344
  220SOL     OW  877   1.746   0.452   2.218 -0.3836 -0.4249  0.0196
  220SOL    HW1  878   1.671   0.454   2.155  0.0927 -0.9149  0.4958
  220SOL    HW2  879   1.800   0.387   2.178 -0.5919  0.9598 -1.8724
  220SOL     MW  880   1.743   0.444   2.204 -0.3482 -0.3068 -0.1672
  221SOL     OW  881   0.347   1.313   2.936 -0.0844  0.1472 -0.3105
  221SOL    HW1  882   0.417   1.250   2.917 -1.1337 -2.8104  2.8793
  221SOL    HW2  883   0.378   1.386   2.879  0.3624  0.3684 -0.8060
  221SOL     MW  884   0.360   1.315   2.926 -0.1639 -0.2138  0.0450
  222SOL     OW  885   0.429   0.983   2.671  0.2428 -0.0261  0.1689
  222SOL    HW1  886   0.378   1.011   2.596  0.5563 -1.7195  0.1243
  222SOL    HW2  887   0.446   0.890   2.666 -0.3369  2.4218 -1.1768
  222SOL     MW  888   0.424   0.975   2.661  0.2077  0.0734 -0.0145
  223SOL     OW  889   0.084   2.022   2.507  0.4510  0.0283  0.3303
  223SOL    HW1  890   0.105   1.989   2.596 -1.2959 -0.6063  0.0822
  223SOL    HW2  891   0.113   2.112   2.507 -1.0255  0.9859  0.7865
  223SOL     MW  892   0.091   2.029   2.518  0.0257  0.0710  0.3577
  224SOL     OW  893   1.573   0.752   2.551 -0.1136 -0.2698 -0.6405
  224SOL    HW1  894   1.592   0.787   2.639  0.4096 -2.2981  1.5329
  224SOL    HW2  895   1.523   0.824   2.509 -1.8541  0.9889 -0.9990
  224SOL     MW  896   1.569   0.766   2.557 -0.2742 -0.3714 -0.4010
  225SOL     OW  897   2.953   1.456   2.284  0.4449 -0.1918  0.6589
  225SOL    HW1  898   2.981   1.537   2.242 -0.3531  1.2644  1.8038
  225SOL    HW2  899   2.888   1.473   2.346 -0.4689 -0.9880  0.3916
  225SOL     MW  900   2.948   1.469   2.287  0.2190 -0.1047  0.7747
  226SOL     OW  901   0.414   1.504   2.761 -0.1989  0.3837  0.6931
  226SOL    HW1  902   0.497   1.489   2.709  0.5493  1.2398 -0.6531
  226SOL    HW2  903   0.425   1.603   2.769 -0.7964  2.0626 -2.4636
  226SOL     MW  904   0.426   1.515   2.755 -0.1790  0.7182  0.0990
  227SOL     OW  905   0.556   1.139   2.869  0.0073 -0.0097 -0.7219
  227SOL    HW1  906   0.649   1.116   2.864 -0.0756  2.2649  0.5145
  227SOL    HW2  907   0.517   1.096   2.796  0.3542 -0.9630  1.9227
  227SOL     MW  908   0.563   1.130   2.858  0.0421  0.1647 -0.2098
  228SOL     OW  909   0.728   1.096   2.028  0.2982  0.1455 -0.0323
  228SOL    HW1  910   0.807   1.110   1.974  0.2079  2.1904  1.7371
  228SOL    HW2  911   0.754   1.023   2.085  0.9672  0.2661 -0.3166
  228SOL     MW  912   0.741   1.088   2.028  0.3745  0.4313  0.1636
  229SOL     OW  913   0.145   0.652   0.050 -0.4501  0.2651  0.5831
  229SOL    HW1  914   0.100   0.619  -0.025  0.1264  2.6786  1.0250
  229SOL    HW2  915   0.158   0.576   0.110  0.4854 -2.5658 -0.8875
  229SOL     MW  916   0.141   0.637   0.048 -0.2506  0.2100  0.4474
  230SOL     OW  917   1.710   1.335   2.017  0.4256  0.3271 -0.0139
  230SOL    HW1  918   1.657   1.302   2.092 -0.9382 -1.4647  1.1492
  230SOL    HW2  919   1.745   1.256   1.978  1.4059  0.2223  2.9348
  230SOL     MW  920   1.708   1.320   2.022  0.3750  0.0769  0.5286
  231SOL     OW  921   2.777   1.278   2.206  0.4902  0.1803 -0.3648
  231SOL    HW1  922   2.839   1.346   2.206 -2.0817 -1.0871 -2.4862
  231SOL    HW2  923   2.714   1.305   2.142  3.6026 -2.1249 -1.7812
  231SOL     MW  924   2.777   1.290   2.197  0.5615 -0.2911 -0.8316
  232SOL     OW  925   2.245   0.848   2.001 -0.3120 -0.4246 -0.0997
  232SOL    HW1  926   2.173   0.828   1.941 -0.8793 -0.3886  2.2747
  232SOL    HW2  927   2.202   0.881   2.077 -0.5695  3.6199  0.7112
  232SOL     MW  928   2.230   0.850   2.003 -0.4208  0.1138  0.3206
  233SOL     OW  929   2.080   0.428   2.073 -0.5171 -0.1287 -0.3468
  233SOL    HW1  930   2.129   0.353   2.036 -0.8818 -2.2382 -2.9919
  233SOL    HW2  931   2.143   0.477   2.121 -3.0278  0.4984  0.6727
  233SOL     MW  932   2.095   0.424   2.075 -0.8965 -0.3243 -0.5612
  234SOL     OW  933   0.210   1.051   2.500 -0.1278 -0.6116  0.0426
  234SOL    HW1  934   0.126   1.039   2.452 -1.2036 -0.8130 -0.9895
  234SOL    HW2  935   0.232   1.147   2.509  2.2213 -0.9393  4.2479
  234SOL     MW  936   0.202   1.062   2.495  0.0402 -0.6814  0.4613
  235SOL     OW  937   1.122   3.061   2.766  0.2964  0.3504  0.4007
  235SOL    HW1  938   1.135   2.997   2.838 -2.3779 -0.2516 -2.4842
  235SOL    HW2  939   1.108   3.143   2.816  0.2989  0.0157  0.7282
  235SOL     MW  940   1.122   3.063   2.782 -0.0561  0.2268  0.0633
  236SOL     OW  941   2.917   0.599   0.128 -0.0601 -0.4217 -0.3023
  236SOL    HW1  942   2.830   0.629   0.135  1.0369 -0.7167  0.7002
  236SOL    HW2  943   2.962   0.687   0.123 -1.0970 -0.1085 -0.6942
  236SOL     MW  944   2.911   0.614   0.128 -0.0522 -0.4193 -0.2218
  237SOL     OW  945   2.020   1.159   2.222  0.1443 -0.0194  0.0205
  237SOL    HW1  946   1.962   1.179   2.145 -1.1240  2.3756 -0.2628
  237SOL    HW2  947   2.044   1.064   2.210 -0.3226  1.1759  0.1859
  237SOL     MW  948   2.016   1.149   2.210 -0.0846  0.4543  0.0050
  238SOL     OW  949   1.083   1.804   2.962  0.2303 -0.2184  0.1280
  238SOL    HW1  950   1.034   1.727   2.988  1.6329  0.7164  1.8671
  238SOL    HW2  951   1.174   1.777   2.967  0.2004 -1.6306 -1.1038
  238SOL     MW  952   1.089   1.790   2.966  0.4114 -0.2814  0.1949
  239SOL     OW  953   1.276   1.439   2.389 -0.5118  0.0397  0.1933
  239SOL    HW1  954   1.243   1.459   2.476  3.0399  1.3846 -1.1943
  239SOL    HW2  955   1.287   1.345   2.393 -2.1229  2.2991 -3.3299
  239SOL     MW  956   1.273   1.430   2.401 -0.2558  0.5152 -0.4546
  240SOL     OW  957   0.627   0.913   2.319 -0.0044  0.2174 -0.1495
  240SOL    HW1  958   0.673   0.974   2.380 -2.4824 -2.0959 -0.7310
  240SOL    HW2  959   0.696   0.855   2.286  1.2340  2.2969  0.2890
  240SOL     MW  960   0.642   0.913   2.322 -0.1680  0.1865 -0.1684
  241SOL     OW  961   0.683   0.402   0.011  0.3022  0.1787 -0.0430
  241SOL    HW1  962   0.696   0.475   0.076 -1.4434  0.1834  3.0039
  241SOL    HW2  963   0.595   0.361   0.033 -1.4222  0.7098  0.5703
  241SOL     MW  964   0.673   0.406   0.023 -0.1557  0.2494  0.4399
  242SOL     OW  965   1.483   1.739   2.323  0.2702 -0.2180 -0.1205
  242SOL    HW1  966   1.464   1.834   2.309 -3.1080 -0.7303 -0.5591
  242SOL    HW2  967   1.440   1.692   2.251 -1.1806  3.1382 -0.5472
  242SOL     MW  968   1.475   1.746   2.312 -0.3669  0.1572 -0.2346
  243SOL     OW  969   0.989   0.165   2.468 -0.0790  0.1244 -0.2611
  243SOL    HW1  970   1.051   0.146   2.396 -0.9620 -0.8124 -0.5924
  243SOL    HW2  971   1.029   0.230   2.533 -0.3133 -0.8569  0.4805
  243SOL     MW  972   1.002   0.171   2.467 -0.2264 -0.1287 -0.2069
  244SOL     OW  973   0.190   0.804   2.355 -0.4479 -0.1272  0.0211
  244SOL    HW1  974   0.195   0.887   2.400  0.0709  1.6263 -0.0203
  244SOL    HW2  975   0.278   0.768   2.368 -0.8438 -0.3608 -0.1363
  244SOL     MW  976   0.203   0.810   2.363 -0.4317  0.0734 -0.0051
  245SOL     OW  977   1.229   0.165   2.290  0.3369  0.0715  0.1701
  245SOL    HW1  978   1.269   0.079   2.317  0.0665 -1.4289  0.6000
  245SOL    HW2  979   1.257   0.216   2.364  1.7864 -0.7638 -4.0485
  245SOL     MW  980   1.238   0.160   2.304  0.4924 -0.2367 -0.3298
  246SOL     OW  981   1.254   1.161   2.090  0.4252 -0.2415  0.4579
  246SOL    HW1  982   1.181   1.144   2.151 -0.3311  0.0248  0.0499
  246SOL    HW2  983   1.332   1.153   2.137 -2.4785 -0.1969 -2.1770
  246SOL     MW  984   1.255   1.158   2.104 -0.0577 -0.2004  0.0564
  247SOL     OW  985   0.745   0.590   0.204 -0.5695  0.3190  0.2004
  247SOL    HW1  986   0.697   0.672   0.215  0.0693  2.2380 -1.3376
  247SOL    HW2  987   0.825   0.625   0.154  2.4189  0.2450  0.3597
  247SOL     MW  988   0.749   0.606   0.199 -0.0909  0.5624  0.0185
  248SOL     OW  989   0.309   1.282   2.600  0.2885  0.0545 -0.3409
  248SOL    HW1  990   0.378   1.300   2.534 -2.0889 -1.6099 -2.5918
  248SOL    HW2  991   0.304   1.355   2.657  0.4633 -1.1109  0.1460
  248SOL     MW  992   0.317   1.294   2.599 -0.0021 -0.3189 -0.5736
  249SOL     OW  993   0.136   1.856   2.748 -0.6456 -0.2823 -0.4661
  249SOL    HW1  994   0.094   1.773   2.718 -1.0498  1.4842  1.2563
  249SOL    HW2  995   0.177   1.836   2.831 -3.0020 -1.1683 -0.1496
  249SOL     MW  996   0.136   1.842   2.755 -1.0098 -0.1661 -0.1971
  250SOL     OW  997   2.177   0.920   2.299 -0.1500  0.1760 -0.3311
  250SOL    HW1  998   2.195   0.849   2.359  0.8376 -0.1378  1.5198
  250SOL    HW2  999   2.268   0.945   2.276  2.6954 -4.4179  2.5781
  250SOL     MW 1000   2.192   0.914   2.304  0.3557 -0.4715  0.2970
  251SOL     OW 1001   0.175   0.913   1.932 -0.3168 -0.2625 -0.4338
  251SOL    HW1 1002   0.078   0.902   1.922  1.3943  1.4339  2.3482
  251SOL    HW2 1003   0.192   0.903   1.837 -1.7648 -2.1624  2.5250
  251SOL     MW 1004   0.164   0.910   1.918 -0.2821 -0.2894  0.3236
  252SOL     OW 1005   1.747   0.993   2.901 -0.1180 -0.5863  0.7508
  252SOL    HW1 1006   1.773   1.040   2.984  0.5043 -0.2323  1.0389
  252SOL    HW2 1007   1.825   1.006   2.842  0.6076  2.0216 -0.6961
  252SOL     MW 1008   1.761   1.001   2.905  0.0598 -0.1955  0.5979
  253SOL     OW 1009   1.136   1.759   2.534 -0.5458 -0.6954 -0.2151
  253SOL    HW1 1010   1.168   1.768   2.439  2.6498  0.8049  3.0011
  253SOL    HW2 1011   1.058   1.818   2.535  0.0773  0.6551 -0.2143
  253SOL     MW 1012   1.130   1.768   2.521 -0.0420 -0.3193  0.2093
  254SOL     OW 1013   1.020   1.062   2.248 -0.4365  0.1884 -0.0065
  254SOL    HW1 1014   0.985   0.990   2.196 -0.7820  1.2480 -1.2729
  254SOL    HW2 1015   0.942   1.125   2.264  0.6684  1.6046 -1.5644
  254SOL     MW 1016   1.005   1.061   2.243 -0.3363  0.5150 -0.3791
  255SOL     OW 1017   0.824   2.556   2.136  0.7365 -0.3568  0.7475
  255SOL    HW1 1018   0.738   2.515   2.127  1.8209 -0.9900  1.3577
  255SOL    HW2 1019   0.881   2.482   2.148 -1.5855 -0.5226 -1.2903
  255SOL     MW 1020   0.820   2.541   2.137  0.5732 -0.4622  0.5592
  256SOL     OW 1021   1.322   2.707   2.936 -0.5033 -0.3312  0.3215
  256SOL    HW1 1022   1.266   2.637   2.895 -0.6794  0.6342  1.7684
  256SOL    HW2 1023   1.387   2.738   2.874 -0.7495  3.2905 -1.8163
  256SOL     MW 1024   1.323   2.702   2.923 -0.5590  0.2740  0.2303
  257SOL     OW 1025   0.182   1.922   0.049 -0.2641  0.2378  0.0149
  257SOL    HW1 1026   0.181   1.869   0.128 -1.3490 -2.2674  1.5456
  257SOL    HW2 1027   0.199   1.856  -0.018  1.1130  0.8584 -1.1378
  257SOL     MW 1028   0.184   1.907   0.050 -0.2255 -0.0109  0.0648
  258SOL     OW 1029   0.813   1.017   2.532  0.1197 -0.8212  0.8060
  258SOL    HW1 1030   0.805   1.092   2.477  0.1577 -0.3657 -0.7537
  258SOL    HW2 1031   0.799   1.046   2.626 -0.4698  1.6160 -2.2708
  258SOL     MW 1032   0.810   1.031   2.537  0.0470 -0.4396  0.1943
  259SOL     OW 1033   0.910   0.383   2.305  0.0746  0.2068 -0.5456
  259SOL    HW1 1034   0.818   0.353   2.283 -0.7529  1.4217 -3.2927
  259SOL    HW2 1035   0.946   0.316   2.363  2.1706 -0.3194 -0.2462
  259SOL     MW 1036   0.902   0.371   2.310  0.2419  0.2977 -0.8685
  260SOL     OW 1037   0.559   0.131   1.638  1.0399  0.4926 -0.3167
  260SOL    HW1 1038   0.516   0.088   1.560 -0.4499  1.9597  0.0303
  260SOL    HW2 1039   0.649   0.146   1.595  2.1780  0.7263 -0.8030
  260SOL     MW 1040   0.565   0.127   1.622  0.9935  0.7170 -0.3351
  261SOL     OW 1041   1.176   0.739   2.037  0.0849  0.1000 -0.1293
  261SOL    HW1 1042   1.159   0.700   2.123 -0.6267 -0.1733  2.4344
  261SOL    HW2 1043   1.182   0.668   1.973 -0.0344 -1.3416 -2.8495
  261SOL     MW 1044   1.174   0.725   2.040 -0.0247 -0.1263 -0.1500
  262SOL     OW 1045   1.054   0.300   0.165 -0.0319 -0.2122  0.1469
  262SOL    HW1 1046   1.151   0.315   0.152  1.2803  2.6898 -1.1136
  262SOL    HW2 1047   1.019   0.240   0.099 -0.9549  1.4780  0.6875
  262SOL     MW 1048   1.062   0.294   0.155  0.0194  0.3937  0.0520
  263SOL     OW 1049   0.439   0.032   2.474 -0.1645  0.3723 -0.1133
  263SOL    HW1 1050   0.353   0.078   2.463  0.7861  0.2506  0.1140
  263SOL    HW2 1051   0.486   0.068   2.397  0.1187 -0.6612 -1.1408
  263SOL     MW 1052   0.434   0.043   2.462 -0.0017  0.2199 -0.2189
  264SOL     OW 1053   1.506   1.341   1.824  0.3128 -0.1243  0.7589
  264SOL    HW1 1054   1.490   1.250   1.841  1.2896 -0.0622 -1.5029
  264SOL    HW2 1055   1.575   1.361   1.884  1.0044  2.5511 -2.0940
  264SOL     MW 1056   1.513   1.332   1.834  0.5329  0.2369  0.0841
  265SOL     OW 1057   0.800   2.813   2.212  0.4603 -0.1209 -0.2102
  265SOL    HW1 1058   0.814   2.721   2.180 -0.2909 -0.9257  2.4272
  265SOL    HW2 1059   0.809   2.802   2.306 -0.0068 -1.4921 -0.5414
  265SOL     MW 1060   0.803   2.799   2.220  0.2995 -0.4080  0.0941
  266SOL     OW 1061   0.835   0.767   2.218 -0.1239  0.1814 -0.1752
  266SOL    HW1 1062   0.840   0.748   2.123 -0.5834  0.8786 -1.2644
  266SOL    HW2 1063   0.915   0.732   2.261  0.3192 -0.1582  2.0579
  266SOL     MW 1064   0.846   0.760   2.211 -0.1260  0.2286 -0.0243
  267SOL     OW 1065   1.367   1.772   2.669 -0.6705  0.1642 -0.1837
  267SOL    HW1 1066   1.438   1.719   2.625  3.5524 -0.3222  0.5338
  267SOL    HW2 1067   1.291   1.748   2.613 -2.3204  0.2649 -3.7216
  267SOL     MW 1068   1.366   1.762   2.656 -0.3310  0.1133 -0.5558
  268SOL     OW 1069   0.193   0.882   1.666 -0.5401  0.6481  0.1600
  268SOL    HW1 1070   0.164   0.952   1.606  0.0203 -1.4603 -1.4967
  268SOL    HW2 1071   0.167   0.811   1.613  0.7416  1.1501  0.7696
  268SOL     MW 1072   0.186   0.882   1.651 -0.2970  0.4361  0.0218
  269SOL     OW 1073   1.379   2.003   2.346 -0.7200  0.0796  0.0115
  269SOL    HW1 1074   1.421   2.087   2.343  1.1554 -1.0825 -1.0005
  269SOL    HW2 1075   1.293   2.025   2.335  3.1163 -0.7607 -1.0072
  269SOL     MW 1076   1.373   2.017   2.344  0.0336 -0.1846 -0.2565
  270SOL     OW 1077   1.153   0.415   1.610  0.1900 -0.6204 -0.2736
  270SOL    HW1 1078   1.123   0.324   1.617  0.5714  0.4119 -0.1939
  270SOL    HW2 1079   1.245   0.409   1.592  1.4640 -1.8105 -1.9343
  270SOL     MW 1080   1.161   0.403   1.608  0.4084 -0.6412 -0.4822
  271SOL     OW 1081   0.804   0.010   2.581 -1.0856 -0.5898 -0.4735
  271SOL    HW1 1082   0.848  -0.078   2.603 -0.2498 -0.7179  1.3367
  271SOL    HW2 1083   0.879   0.074   2.557 -0.4648  1.5845  2.0339
  271SOL     MW 1084   0.820   0.007   2.581 -0.8934 -0.3198  0.0962
  272SOL     OW 1085   1.516   2.825   2.791  0.2042 -0.3617  0.6964
  272SOL    HW1 1086   1.481   2.824   2.699 -0.6754  1.3712 -2.5008
  272SOL    HW2 1087   1.525   2.916   2.822  0.7984 -2.7390  1.6816
  272SOL     MW 1088   1.512   2.837   2.783  0.1665 -0.4468  0.4046
  273SOL     OW 1089   1.499   0.912   2.798 -0.2476  0.0932 -0.2153
  273SOL    HW1 1090   1.579   0.961   2.828  0.1592 -1.5256  0.4815
  273SOL    HW2 1091   1.448   0.983   2.757 -1.9984 -0.2243  0.2890
  273SOL     MW 1092   1.503   0.928   2.797 -0.4249 -0.1623 -0.0568
  274SOL     OW 1093   1.412   0.720   0.122  0.0100 -0.0028 -0.2562
  274SOL    HW1 1094   1.444   0.637   0.160 -2.7317 -0.0111  1.7057
  274SOL    HW2 1095   1.322   0.725   0.165  1.2919  4.6657 -0.2221
  274SOL     MW 1096   1.405   0.709   0.133 -0.1826  0.6120  0.0071
  275SOL     OW 1097   1.649   0.537   1.786  0.1866  0.0931 -0.1527
  275SOL    HW1 1098   1.730   0.557   1.835  1.2537 -1.6432 -0.4020
  275SOL    HW2 1099   1.654   0.442   1.799  0.4604  0.9606 -2.0781
  275SOL     MW 1100   1.660   0.527   1.795  0.3635 -0.0215 -0.4396
  276SOL     OW 1101   0.310   1.250   1.931  0.2873  0.1691 -0.0142
  276SOL    HW1 1102   0.367   1.177   1.945  0.4435  1.5392  4.2082
  276SOL    HW2 1103   0.290   1.284   2.018 -0.3186 -1.2181 -1.5399
  276SOL     MW 1104   0.315   1.245   1.945  0.2280  0.1669  0.3416
  277SOL     OW 1105   1.935   1.148   2.500  0.8920 -0.2039  0.9848
  277SOL    HW1 1106   1.975   1.239   2.506 -0.1695  1.9528  3.8342
  277SOL    HW2 1107   1.976   1.115   2.420  1.8600 -0.4138  0.6861
  277SOL     MW 1108   1.946   1.155   2.490  0.8796  0.0530  1.3213
  278SOL     OW 1109   1.410   0.687   1.661 -0.6686 -0.4037 -0.1576
  278SOL    HW1 1110   1.386   0.615   1.726 -0.0948  0.5189  0.1452
  278SOL    HW2 1111   1.489   0.726   1.691 -0.8846  2.5429 -0.4258
  278SOL     MW 1112   1.417   0.683   1.673 -0.6214  0.1068 -0.1530
  279SOL     OW 1113   0.573   0.120   2.233 -0.8948 -0.1552 -0.0360
  279SOL    HW1 1114   0.647   0.063   2.267  1.1033 -0.9778  0.4987
  279SOL    HW2 1115   0.604   0.210   2.215  3.2874  0.4189 -3.5871
  279SOL     MW 1116   0.587   0.124   2.235 -0.0794 -0.1880 -0.4340
  280SOL     OW 1117   1.466   0.968   2.159  0.0451  0.2182 -0.0934
  280SOL    HW1 1118   1.531   0.923   2.105 -1.5778  2.0206 -1.4778
  280SOL    HW2 1119   1.471   0.939   2.249 -3.2977  2.1483 -1.2953
  280SOL     MW 1120   1.475   0.958   2.164 -0.6101  0.7107 -0.4347
  281SOL     OW 1121   1.336   1.325   2.734 -0.1791  0.3542 -0.6908
  281SOL    HW1 1122   1.428   1.348   2.737  0.2653 -3.5226  0.3448
  281SOL    HW2 1123   1.332   1.266   2.814  0.7707 -0.2896 -0.3817
  281SOL     MW 1124   1.347   1.320   2.745  0.0048 -0.2422 -0.5134
  282SOL     OW 1125   1.084   1.302   1.631  0.0059  0.6315  0.0156
  282SOL    HW1 1126   1.094   1.397   1.612 -0.4959 -0.0303 -2.0170
  282SOL    HW2 1127   1.035   1.308   1.710  1.6534 -0.6786  0.7158
  282SOL     MW 1128   1.079   1.315   1.639  0.1570  0.3714 -0.1602
  283SOL     OW 1129   0.827   1.258   3.018  0.0302  0.2387  0.5241
  283SOL    HW1 1130   0.844   1.230   3.104  2.1918 -0.2750 -1.8523
  283SOL    HW2 1131   0.784   1.339   3.030  1.8348  0.2994 -0.4546
  283SOL     MW 1132   0.824   1.265   3.031  0.5535  0.1789  0.0814
  284SOL     OW 1133   0.449   0.707   2.382 -0.3443  0.6879 -0.1070
  284SOL    HW1 1134   0.500   0.783   2.352 -3.7836  0.7499 -1.0583
  284SOL    HW2 1135   0.457   0.645   2.307 -1.2658 -0.7341 -0.9121
  284SOL     MW 1136   0.456   0.709   2.368 -0.9196  0.5085 -0.3387
  285SOL     OW 1137   0.955   0.835   2.829 -0.5333  0.6009  0.2477
  285SOL    HW1 1138   1.028   0.830   2.771  0.6305  0.5035  1.2435
  285SOL    HW2 1139   0.881   0.784   2.785  0.6415 -1.2769  2.4412
  285SOL     MW 1140   0.955   0.827   2.816 -0.2248  0.3403  0.6685
  286SOL     OW 1141   1.149   1.495   2.671  0.6130  0.1821 -0.4089
  286SOL    HW1 1142   1.218   1.435   2.702 -1.0879  1.4116  0.1574
  286SOL    HW2 1143   1.176   1.589   2.686  0.4412 -0.6520  1.5119
  286SOL     MW 1144   1.162   1.499   2.677  0.3659  0.2342 -0.0807
  287SOL     OW 1145   1.152   0.927   0.352  0.2544 -0.1366 -0.3958
  287SOL    HW1 1146   1.197   0.962   0.428 -1.5833 -0.3993 -0.4550
  287SOL    HW2 1147   1.114   1.002   0.297 -0.0320  0.8226 -1.9692
  287SOL     MW 1148   1.153   0.941   0.355 -0.0258 -0.0447 -0.6112
  288SOL     OW 1149   1.523   0.570   2.062 -0.8901 -0.0539  0.3574
  288SOL    HW1 1150   1.510   0.579   2.158  2.0578  0.2841  2.0158
  288SOL    HW2 1151   1.559   0.649   2.023  1.0831  2.4724 -0.2617
  288SOL     MW 1152   1.526   0.581   2.069 -0.2408  0.3240  0.4945
  289SOL     OW 1153   1.085   0.979   2.592 -0.4226 -0.0052 -0.2841
  289SOL    HW1 1154   1.115   0.891   2.577  2.2224  0.2847 -1.4607
  289SOL    HW2 1155   0.994   0.978   2.562  2.0582  0.0331  0.2460
  289SOL     MW 1156   1.077   0.967   2.586  0.2537  0.0381 -0.3694
  290SOL     OW 1157   0.800   0.611   1.572 -0.3173  0.2839 -0.5183
  290SOL    HW1 1158   0.844   0.574   1.492  2.6903 -2.2081 -0.7038
  290SOL    HW2 1159   0.855   0.587   1.644  0.5214 -1.1619 -0.9248
  290SOL     MW 1160   0.813   0.603   1.571  0.1902 -0.2356 -0.5964
  291SOL     OW 1161   0.183   0.380   0.126 -0.2674 -0.0345 -0.5901
  291SOL    HW1 1162   0.250   0.316   0.152  1.1279  1.3799  2.7412
  291SOL    HW2 1163   0.146   0.349   0.044  1.4398  0.3041  0.6012
  291SOL     MW 1164   0.187   0.367   0.119  0.1420  0.1968  0.0066
  292SOL     OW 1165   1.003   0.546   0.080  0.0344 -0.2825 -0.1587
  292SOL    HW1 1166   1.058   0.603   0.133 -1.0551 -0.0788  1.5963
  292SOL    HW2 1167   1.024   0.462   0.124 -1.7716  2.5930  1.0902
  292SOL     MW 1168   1.013   0.543   0.092 -0.3477  0.1238  0.2376
  293SOL     OW 1169   0.179   0.120   2.448  0.6930  0.0544  0.2897
  293SOL    HW1 1170   0.112   0.071   2.400  2.1289 -0.2219  2.0702
  293SOL    HW2 1171   0.136   0.153   2.524  1.2762 -0.2470  1.0258
  293SOL     MW 1172   0.164   0.118   2.452  0.9594 -0.0218  0.6217
  294SOL     OW 1173   1.451   0.579   2.326 -0.2835  0.1104 -0.6008
  294SOL    HW1 1174   1.458   0.628   2.404  0.8362 -2.1589  2.3030
  294SOL    HW2 1175   1.456   0.493   2.365 -0.9427  1.8822  0.4469
  294SOL     MW 1176   1.452   0.574   2.341 -0.2228  0.0448 -0.0794
  295SOL     OW 1177   0.926   0.538   2.543 -0.0959  0.0465  0.1984
  295SOL    HW1 1178   0.893   0.506   2.459  0.2577  2.8022 -1.3998
  295SOL    HW2 1179   0.851   0.588   2.582 -1.6228  5.8765 -0.1384
  295SOL     MW 1180   0.912   0.540   2.537 -0.2507  1.1793 -0.0569
  296SOL     OW 1181   1.266   0.282   2.029 -0.3851  0.0989 -0.3590
  296SOL    HW1 1182   1.343   0.232   2.000 -1.1832 -1.6016  1.6616
  296SOL    HW2 1183   1.255   0.252   2.123 -1.1578  0.4109 -1.0797
  296SOL     MW 1184   1.275   0.271   2.038 -0.5923 -0.0843 -0.1875
  297SOL     OW 1185   1.416   0.414   1.560  0.4953 -0.1239 -0.6774
  297SOL    HW1 1186   1.430   0.509   1.574  0.7311 -1.8647 -0.4764
  297SOL    HW2 1187   1.459   0.363   1.626  0.2181  3.2180  0.6892
  297SOL     MW 1188   1.423   0.420   1.571  0.4898  0.0873 -0.4706
  298SOL     OW 1189   1.639   0.834   2.000 -0.2048  0.1682  0.3403
  298SOL    HW1 1190   1.664   0.926   1.979  3.0043 -0.1219  3.7105
  298SOL    HW2 1191   1.694   0.814   2.082 -0.2631  3.8981  2.1305
  298SOL     MW 1192   1.650   0.843   2.008  0.2109  0.6221  1.0212
  299SOL     OW 1193   0.562   1.101   0.047  0.0708 -0.0821  0.3391
  299SOL    HW1 1194   0.557   1.064  -0.046  2.1579  0.8755 -3.1649
  299SOL    HW2 1195   0.624   1.175   0.029  2.8984 -0.7635 -3.0469
  299SOL     MW 1196   0.569   1.106   0.032  0.7192 -0.0456 -0.5700
  300SOL     OW 1197   1.305   1.162   2.497 -0.1017  0.2269 -0.6084
  300SOL    HW1 1198   1.240   1.094   2.519 -2.0865  0.8956 -2.2893
  300SOL    HW2 1199   1.317   1.218   2.572 -0.5065 -2.2358  0.3080
  300SOL     MW 1200   1.298   1.160   2.509 -0.4170 -0.0098 -0.7093
  301SOL     OW 1201   1.491   0.937   0.662  0.5912  1.0212 -0.0451
  301SOL    HW1 1202   1.474   0.964   0.755 -1.5086  0.1155 -1.8048
  301SOL    HW2 1203   1.416   0.893   0.621 -1.8048 -0.4159 -1.0627
  301SOL     MW 1204   1.479   0.935   0.669 -0.0020  0.7121 -0.4115
  302SOL     OW 1205   0.125   1.600   2.007 -0.0322  0.5127 -0.4079
  302SOL    HW1 1206   0.157   1.538   2.074 -1.2694 -0.1165  0.0311
  302SOL    HW2 1207   0.049   1.624   2.060  1.3143  0.3772  3.6104
  302SOL     MW 1208   0.119   1.595   2.023 -0.0178  0.4118  0.1802
  303SOL     OW 1209   0.420   1.802   2.666 -0.7077 -0.5292 -0.1831
  303SOL    HW1 1210   0.388   1.783   2.580 -1.0344  3.7115  1.2752
  303SOL    HW2 1211   0.352   1.861   2.691 -1.6632 -0.4027 -0.5289
  303SOL     MW 1212   0.407   1.807   2.658 -0.8769  0.0470 -0.0363
  304SOL     OW 1213   0.522   2.053   2.372 -0.1551 -0.3781 -0.6153
  304SOL    HW1 1214   0.578   2.105   2.309  1.7807 -4.1953 -1.2579
  304SOL    HW2 1215   0.573   1.972   2.367 -1.4762  2.2841 -0.1640
  304SOL     MW 1216   0.536   2.049   2.363 -0.0740 -0.5305 -0.6405
  305SOL     OW 1217   1.103   0.549   0.493 -0.5230 -0.1595  0.0497
  305SOL    HW1 1218   1.007   0.565   0.504  0.2983  0.3524  0.6261
  305SOL    HW2 1219   1.128   0.466   0.535  0.8855  0.1780 -0.0366
  305SOL     MW 1220   1.093   0.540   0.500 -0.2288 -0.0474  0.1144
  306SOL     OW 1221   1.181   1.526   0.291  0.0586  0.0157 -0.1524
  306SOL    HW1 1222   1.220   1.438   0.317  1.0718  1.7438  0.9076
  306SOL    HW2 1223   1.224   1.540   0.209  0.8115  1.3194  1.4987
  306SOL     MW 1224   1.192   1.516   0.284  0.2916  0.4157  0.2053
  307SOL     OW 1225   1.342   0.487   1.866 -0.3393 -0.3874 -0.6925
  307SOL    HW1 1226   1.302   0.418   1.917  1.5234  1.5761  1.1121
  307SOL    HW2 1227   1.421   0.513   1.921  1.5880 -1.9700  0.9385
  307SOL     MW 1228   1.347   0.481   1.880  0.1607 -0.3371 -0.2392
  308SOL     OW 1229   2.184   0.560   2.715  0.5012 -0.4933 -0.2802
  308SOL    HW1 1230   2.283   0.535   2.723  1.8597  0.0097 -0.0889
  308SOL    HW2 1231   2.187   0.655   2.717  4.4628 -1.3031  6.5204
  308SOL     MW 1232   2.198   0.569   2.717  1.2032 -0.5338  0.6423
  309SOL     OW 1233   0.474   0.506   0.307  0.4010  0.4164 -0.9996
  309SOL    HW1 1234   0.568   0.516   0.316 -0.9698  0.2844 -0.8367
  309SOL    HW2 1235   0.459   0.430   0.251  0.0620 -1.6029  0.9464
  309SOL     MW 1236   0.484   0.497   0.301  0.1754  0.1326 -0.7213
  310SOL     OW 1237   0.429   0.602   1.926 -0.2234 -0.1218 -0.2798
  310SOL    HW1 1238   0.483   0.516   1.929  1.4519 -1.7723  0.8913
  310SOL    HW2 1239   0.490   0.663   1.883 -0.1585 -0.3408 -0.2683
  310SOL     MW 1240   0.444   0.599   1.920  0.0062 -0.3685 -0.1238
  311SOL     OW 1241   1.875   0.582   1.932  0.5572 -0.2311 -0.3655
  311SOL    HW1 1242   1.855   0.629   2.015  2.7422 -0.2964  2.4160
  311SOL    HW2 1243   1.960   0.538   1.958  1.9363  0.4402  0.3494
  311SOL     MW 1244   1.884   0.583   1.947  1.0275 -0.1512  0.0958
  312SOL     OW 1245   1.802   2.496   0.154 -0.1892 -0.4315  0.2045
  312SOL    HW1 1246   1.850   2.497   0.239 -0.5447 -2.4476  1.5283
  312SOL    HW2 1247   1.725   2.554   0.172  0.5936 -1.4655 -0.7921
  312SOL     MW 1248   1.798   2.504   0.168 -0.1328 -0.8339  0.2477
  313SOL     OW 1249   0.126   1.130   2.950 -0.1927  0.5447 -0.2520
  313SOL    HW1 1250   0.092   1.161   3.040 -0.7964  2.6537 -0.0875
  313SOL    HW2 1251   0.180   1.206   2.933 -0.7780  0.9335  2.9940
  313SOL     MW 1252   0.129   1.144   2.959 -0.3496  0.8742  0.1980
  314SOL     OW 1253   2.161   3.009   2.949 -0.0161  0.2109  0.1894
  314SOL    HW1 1254   2.097   3.063   2.901  2.2475 -1.0654 -3.0803
  314SOL    HW2 1255   2.195   3.058   3.022  0.2346  0.8621 -1.3101
  314SOL     MW 1256   2.157   3.022   2.952  0.3157  0.1284 -0.4398
  315SOL     OW 1257   1.531   1.868   3.039 -0.2236 -0.0214 -0.4836
  315SOL    HW1 1258   1.465   1.900   3.093 -0.9021 -1.8409 -4.1141
  315SOL    HW2 1259   1.561   1.948   2.991 -0.5891  0.6319  0.5608
  315SOL     MW 1260   1.527   1.883   3.040 -0.3614 -0.1753 -0.8248
  316SOL     OW 1261   1.328   0.527   2.708  0.1457 -0.4786  0.0224
  316SOL    HW1 1262   1.424   0.531   2.726 -2.1670 -1.2551  1.1663
  316SOL    HW2 1263   1.274   0.554   2.788  0.4219 -0.2652  2.3745
  316SOL     MW 1264   1.333   0.531   2.721 -0.1230 -0.5529  0.4837
  317SOL     OW 1265   0.665   1.459   2.603 -0.3249  0.3188  0.8329
  317SOL    HW1 1266   0.742   1.407   2.604  0.8979  0.4387  0.1167
  317SOL    HW2 1267   0.671   1.496   2.510 -1.1943  1.0170 -1.9304
  317SOL     MW 1268   0.676   1.457   2.591 -0.2782  0.4268  0.3738
  318SOL     OW 1269   1.323   0.351   2.970  0.4428  0.3186  0.1601
  318SOL    HW1 1270   1.238   0.406   2.956  0.5987  2.5495  1.8102
  318SOL    HW2 1271   1.391   0.420   2.969 -1.0045 -0.1345 -1.8414
  318SOL     MW 1272   1.321   0.368   2.968  0.2724  0.5532  0.1137
  319SOL     OW 1273   0.841   0.430   2.872  0.1185 -0.2689  0.2136
  319SOL    HW1 1274   0.780   0.379   2.815  1.2370 -1.5637 -0.2707
  319SOL    HW2 1275   0.791   0.427   2.951  1.5150 -2.1217 -0.8961
  319SOL     MW 1276   0.826   0.423   2.875  0.4503 -0.6842  0.0033
  320SOL     OW 1277   1.064   1.352   2.006 -0.1960  0.0516 -0.5623
  320SOL    HW1 1278   1.136   1.300   2.045 -0.4794 -1.9653 -0.8640
  320SOL    HW2 1279   1.110   1.416   1.951 -0.1141  0.5833  2.7942
  320SOL     MW 1280   1.080   1.353   2.004 -0.2226 -0.1444 -0.1592
  321SOL     OW 1281   1.126   0.951   2.999 -0.5040  0.2811  0.2079
  321SOL    HW1 1282   1.061   0.905   2.945 -1.9901 -1.2454  1.8873
  321SOL    HW2 1283   1.174   0.879   3.030  0.2999  2.6990 -3.2171
  321SOL     MW 1284   1.123   0.935   2.996 -0.5940  0.3987 -0.0224
  322SOL     OW 1285   1.191   0.847   1.674 -0.2161 -0.0495  0.1223
  322SOL    HW1 1286   1.270   0.795   1.692 -2.3462  1.1824 -0.2040
  322SOL    HW2 1287   1.179   0.891   1.759  0.5010  0.1692  0.0880
  322SOL     MW 1288   1.200   0.846   1.688 -0.4025  0.1419  0.0747
  323SOL     OW 1289   1.225   1.551   1.880  0.1427  0.3613 -0.1898
  323SOL    HW1 1290   1.278   1.565   1.801  1.6120  1.1623  0.9171
  323SOL    HW2 1291   1.173   1.634   1.873  3.7846 -0.0149 -0.2427
  323SOL     MW 1292   1.225   1.564   1.869  0.8171  0.4174 -0.0508
  324SOL     OW 1293   1.475   0.967   2.433 -0.0690 -0.2124  0.1177
  324SOL    HW1 1294   1.411   1.034   2.441  0.6005  4.4082  0.3115
  324SOL    HW2 1295   1.553   1.023   2.429 -1.9560  1.5857 -0.0835
  324SOL     MW 1296   1.477   0.983   2.433 -0.2296  0.6345  0.1167
  325SOL     OW 1297   1.119   0.514   2.913  0.3145 -0.2671  0.0043
  325SOL    HW1 1298   1.072   0.544   2.992 -0.4430  1.6227  0.2701
  325SOL    HW2 1299   1.039   0.472   2.871  1.0740  2.9979  0.5856
  325SOL     MW 1300   1.102   0.512   2.918  0.3148  0.4130  0.1161
  326SOL     OW 1301   0.464   1.350   2.340 -0.1118 -0.0720  0.0257
  326SOL    HW1 1302   0.534   1.333   2.280 -2.8616  0.2605  2.6277
  326SOL    HW2 1303   0.436   1.440   2.326  0.8588 -3.4526  1.9001
  326SOL     MW 1304   0.470   1.359   2.330 -0.3465 -0.4742  0.6164
  327SOL     OW 1305   1.909   0.794   2.433  0.0298 -0.2856 -0.0908
  327SOL    HW1 1306   1.864   0.732   2.496 -0.0850  1.3058  0.1403
  327SOL    HW2 1307   1.980   0.836   2.477 -2.0484 -1.3396 -0.3636
  327SOL     MW 1308   1.912   0.792   2.447 -0.2596 -0.2147 -0.0963
  328SOL     OW 1309   0.195   1.394   2.180 -0.2383 -0.9377 -0.2346
  328SOL    HW1 1310   0.125   1.335   2.160  0.4315 -0.1628 -1.0136
  328SOL    HW2 1311   0.203   1.383   2.275 -0.3992 -0.1547  1.1423
  328SOL     MW 1312   0.187   1.385   2.190 -0.1712 -0.7321 -0.1557
  329SOL     OW 1313   0.105   0.250   1.408 -0.3011  0.5255  0.1448
  329SOL    HW1 1314   0.093   0.245   1.506 -1.4798 -0.4017  0.7127
  329SOL    HW2 1315   0.197   0.275   1.401 -1.5125 -2.0298 -3.2861
  329SOL     MW 1316   0.115   0.253   1.420 -0.6164  0.0660 -0.2329
  330SOL     OW 1317   0.391   3.079   2.085  0.0789 -0.2472  0.1774
  330SOL    HW1 1318   0.461   3.129   2.132  0.5874 -1.8853 -1.1070
  330SOL    HW2 1319   0.325   3.047   2.147 -0.7492  1.1872 -0.2824
  330SOL     MW 1320   0.392   3.081   2.099  0.0368 -0.2741 -0.0527
  331SOL     OW 1321   0.831   1.250   2.330 -0.4262  0.3083  0.8603
  331SOL    HW1 1322   0.776   1.316   2.282 -1.6976  1.8397  1.8658
  331SOL    HW2 1323   0.855   1.297   2.410  0.5235  0.6215 -0.9677
  331SOL     MW 1324   0.827   1.265   2.335 -0.4686  0.5516  0.7518
  332SOL     OW 1325   1.354   1.701   2.937 -0.2778  0.0020 -0.5589
  332SOL    HW1 1326   1.355   1.711   2.839 -1.5856 -0.8031 -1.6930
  332SOL    HW2 1327   1.427   1.760   2.960 -0.2960 -0.4843 -1.6844
  332SOL     MW 1328   1.364   1.710   2.927 -0.4528 -0.1684 -0.8571
  333SOL     OW 1329   1.735   1.371   2.971  0.0251 -0.6722  0.0229
  333SOL    HW1 1330   1.829   1.384   2.967  3.1110  0.0855  0.2424
  333SOL    HW2 1331   1.731   1.297   3.028 -2.4627 -1.6492 -1.5315
  333SOL     MW 1332   1.747   1.363   2.978  0.1040 -0.7011 -0.1532
  334SOL     OW 1333   1.298   0.061   2.558 -0.6000 -0.0826  0.2021
  334SOL    HW1 1334   1.236   0.028   2.623  1.3683  3.8324  0.7120
  334SOL    HW2 1335   1.347   0.127   2.609  0.2451  0.7711  0.5996
  334SOL     MW 1336   1.296   0.065   2.573 -0.2288  0.5466  0.3218
  335SOL     OW 1337   1.330   0.759   2.955  0.1016 -0.7055  0.3025
  335SOL    HW1 1338   1.387   0.726   3.024  0.5356  0.6960 -2.3507
  335SOL    HW2 1339   1.395   0.813   2.899  1.8802 -0.5129  0.6994
  335SOL     MW 1340   1.346   0.762   2.956  0.3935 -0.4952  0.0048
  336SOL     OW 1341   0.943   1.168   1.866 -0.1881  0.4252 -0.4678
  336SOL    HW1 1342   0.979   1.235   1.921 -2.8173 -2.5104 -1.8878
  336SOL    HW2 1343   1.005   1.095   1.877 -1.9568 -1.1401  1.2897
  336SOL     MW 1344   0.956   1.167   1.875 -0.7683 -0.1687 -0.4233
  337SOL     OW 1345   0.664   1.813   2.787  0.4383 -0.1950  0.4188
  337SOL    HW1 1346   0.584   1.801   2.734 -0.2526  1.2759  1.0434
  337SOL    HW2 1347   0.732   1.757   2.762  0.0526  0.2791 -1.0374
  337SOL     MW 1348   0.662   1.804   2.777  0.2962  0.0616  0.3090
  338SOL     OW 1349   1.132   0.702   2.597 -0.3861 -0.4913  0.3690
  338SOL    HW1 1350   1.051   0.647   2.581  0.0812 -1.4959  1.6513
  338SOL    HW2 1351   1.196   0.637   2.634 -0.0238 -1.6507 -3.1339
  338SOL     MW 1352   1.130   0.686   2.600 -0.2767 -0.7768  0.0760
  339SOL     OW 1353   1.491   1.070   1.844  0.0631 -0.3135  0.1870
  339SOL    HW1 1354   1.432   1.072   1.769 -1.2875 -0.7758  1.1945
  339SOL    HW2 1355   1.428   1.049   1.913 -0.4591  0.9364 -1.9843
  339SOL     MW 1356   1.475   1.068   1.843 -0.1840 -0.2096  0.0334
  340SOL     OW 1357   1.297   1.525   0.051 -0.0284 -0.5355  0.0022
  340SOL    HW1 1358   1.299   1.552  -0.041  0.4478 -1.2832  2.6012
  340SOL    HW2 1359   1.387   1.494   0.073  2.0508  0.9097  0.5250
  340SOL     MW 1360   1.309   1.524   0.041  0.3088 -0.4435  0.4141
  341SOL     OW 1361   0.037   1.348   2.756 -0.2958 -0.5880 -0.2308
  341SOL    HW1 1362   0.111   1.285   2.758  0.2935  0.6145 -1.5859
  341SOL    HW2 1363   0.012   1.339   2.660  1.2506 -1.8329 -0.6168
  341SOL     MW 1364   0.044   1.339   2.743 -0.0140 -0.5936 -0.4605
  342SOL     OW 1365   1.313   0.342   0.142  0.2058  0.4551  0.0061
  342SOL    HW1 1366   1.379   0.405   0.159 -1.1200 -2.0579 -0.0861
  342SOL    HW2 1367   1.305   0.337   0.043 -1.4600 -0.3776 -2.7304
  342SOL     MW 1368   1.321   0.350   0.131 -0.1889  0.0137 -0.3671
  343SOL     OW 1369   0.267   0.299   2.100  0.5685  0.4096  0.5818
  343SOL    HW1 1370   0.340   0.238   2.096  1.3666  5.6017  0.2301
  343SOL    HW2 1371   0.194   0.237   2.085 -1.0166  0.1150  2.0953
  343SOL     MW 1372   0.267   0.282   2.098  0.4647  1.0558  0.7351
  344SOL     OW 1373   1.694   2.041   0.179  0.1990  0.3172 -0.1122
  344SOL    HW1 1374   1.701   2.106   0.106  0.4220  0.4481  0.1240
  344SOL    HW2 1375   1.612   1.993   0.159  1.5114  1.9571  0.8908
  344SOL     MW 1376   1.684   2.044   0.166  0.4015  0.5508  0.0513
  345SOL     OW 1377   0.705   1.566   2.340 -0.1509  0.4384 -0.0703
  345SOL    HW1 1378   0.643   1.553   2.272  1.6784  0.3406 -0.2751
  345SOL    HW2 1379   0.795   1.543   2.306  0.5945 -0.0101 -2.1990
  345SOL     MW 1380   0.709   1.561   2.327  0.1888  0.3663 -0.3782
  346SOL     OW 1381   1.766   1.153   0.052  0.1965  0.5503 -0.0902
  346SOL    HW1 1382   1.857   1.167   0.077 -0.1902 -0.0169 -2.0360
  346SOL    HW2 1383   1.732   1.093   0.116 -2.8920  0.8184  0.7662
  346SOL     MW 1384   1.774   1.147   0.063 -0.2620  0.5108 -0.2339
  347SOL     OW 1385   1.165   0.638   2.298 -0.0180 -0.2587 -0.0661
  347SOL    HW1 1386   1.253   0.610   2.299  0.1217  1.4344  0.7314
  347SOL    HW2 1387   1.148   0.645   2.398 -1.5195 -0.3148  1.6368
  347SOL     MW 1388   1.174   0.635   2.312 -0.1977 -0.0427  0.2638
  348SOL     OW 1389   1.313   2.641   1.888 -0.3338 -0.0851 -0.3493
  348SOL    HW1 1390   1.345   2.555   1.923  0.0608  0.6348  1.3592
  348SOL    HW2 1391   1.350   2.705   1.942 -2.4557  0.3551 -2.4954
  348SOL     MW 1392   1.322   2.638   1.900 -0.5617  0.0679 -0.4070
  349SOL     OW 1393   1.453   0.218   2.719 -0.0378 -0.4733 -0.4690
  349SOL    HW1 1394   1.409   0.265   2.792 -1.7658 -0.5959 -1.3553
  349SOL    HW2 1395   1.502   0.149   2.772 -0.3848  1.1053 -0.5834
  349SOL     MW 1396   1.454   0.215   2.736 -0.3116 -0.2812 -0.6010
  350SOL     OW 1397   1.850   0.610   2.664  0.0728  0.1608  0.2674
  350SOL    HW1 1398   1.795   0.551   2.615  0.9839  0.5652  1.5746
  350SOL    HW2 1399   1.875   0.564   2.744 -0.5417  4.4541 -0.7453
  350SOL     MW 1400   1.846   0.596   2.668  0.1119  0.7807  0.3063
  351SOL     OW 1401   0.111   1.119   1.562 -0.2004  0.1890 -0.0131
  351SOL    HW1 1402   0.046   1.110   1.632 -1.8229  0.2268  1.9970
  351SOL    HW2 1403   0.181   1.189   1.592 -1.7425  3.8481 -1.6150
  351SOL     MW 1404   0.112   1.127   1.575 -0.6179  0.6768  0.0407
  352SOL     OW 1405   0.859   1.647   2.727  0.5859 -0.4232  0.5458
  352SOL    HW1 1406   0.908   1.596   2.785  2.2873  2.8773 -0.1162
  352SOL    HW2 1407   0.813   1.582   2.675 -0.0502 -1.3960 -1.5073
  352SOL     MW 1408   0.859   1.632   2.727  0.7264 -0.1161  0.1876
  353SOL     OW 1409   3.079   2.518   2.707  0.6050 -0.5788  0.4180
  353SOL    HW1 1410   3.172   2.489   2.682  1.2587 -0.9686  0.3444
  353SOL    HW2 1411   3.081   2.611   2.677  0.3363  1.6543  1.1875
  353SOL     MW 1412   3.091   2.527   2.700  0.6558 -0.3356  0.5098
  354SOL     OW 1413   0.272   2.458   0.813  0.0695 -0.5193 -0.3145
  354SOL    HW1 1414   0.307   2.431   0.896 -2.1145 -1.1255 -0.9373
  354SOL    HW2 1415   0.192   2.405   0.825 -0.0729  1.8203  0.2677
  354SOL     MW 1416   0.266   2.448   0.826 -0.2375 -0.2906 -0.3199
  355SOL     OW 1417   0.011   2.238   0.382 -0.1075 -0.4045 -0.5630
  355SOL    HW1 1418  -0.061   2.177   0.377  1.2852  0.1013 -3.0211
  355SOL    HW2 1419  -0.010   2.289   0.460  0.3490 -2.4529 -2.9060
  355SOL     MW 1420  -0.001   2.237   0.392  0.1365 -0.6080 -1.1965
  356SOL     OW 1421   0.851   2.786   0.975  0.2080  0.1553 -0.6862
  356SOL    HW1 1422   0.903   2.824   0.895 -1.3200  0.3624 -0.6974
  356SOL    HW2 1423   0.759   2.810   0.957 -1.2096  0.4687  0.5317
  356SOL     MW 1424   0.846   2.794   0.962 -0.1806  0.2240 -0.5270
  357SOL     OW 1425   1.775   2.912   0.370  0.0831 -0.5233 -0.3490
  357SOL    HW1 1426   1.738   2.830   0.409 -3.2236  1.2970  1.8740
  357SOL    HW2 1427   1.858   2.877   0.330 -1.6360 -1.3127 -0.0461
  357SOL     MW 1428   1.781   2.896   0.370 -0.5800 -0.3873 -0.0158
  358SOL     OW 1429   0.451   0.160   1.045  0.1356 -0.5549 -0.3649
  358SOL    HW1 1430   0.544   0.161   1.027 -0.3267  2.3786  0.8063
  358SOL    HW2 1431   0.413   0.190   0.966  1.0352  1.0783  2.4886
  358SOL     MW 1432   0.458   0.164   1.032  0.1933  0.0476  0.1662
  359SOL     OW 1433   0.865   2.886   1.846 -0.4704 -0.2395  0.0231
  359SOL    HW1 1434   0.832   2.799   1.865  1.3692 -2.2971 -2.2073
  359SOL    HW2 1435   0.874   2.887   1.748 -0.8186  1.4807 -2.5095
  359SOL     MW 1436   0.862   2.874   1.835 -0.2736 -0.2840 -0.6054
  360SOL     OW 1437   0.570   2.799   0.925  0.1153  0.4448  0.1567
  360SOL    HW1 1438   0.579   2.766   0.836 -0.5524 -0.6126  1.1672
  360SOL    HW2 1439   0.565   2.719   0.983  0.0512  2.9141  0.2082
  360SOL     MW 1440   0.571   2.784   0.921  0.0187  0.6311  0.2968
  361SOL     OW 1441   0.188   2.631   1.353  0.4925  0.3422 -0.3143
  361SOL    HW1 1442   0.174   2.690   1.426  1.0461 -0.9161  1.2776
  361SOL    HW2 1443   0.286   2.625   1.349 -0.3823  0.8226  1.4178
  361SOL     MW 1444   0.199   2.638   1.362  0.4502  0.2396  0.1243
  362SOL     OW 1445   1.456   2.446   0.651 -0.1932  0.5786 -0.4870
  362SOL    HW1 1446   1.464   2.419   0.747  0.1417  1.9378  0.0290
  362SOL    HW2 1447   1.504   2.529   0.644  0.4861 -1.4174 -0.4997
  362SOL     MW 1448   1.463   2.453   0.663 -0.0594  0.4946 -0.4206
  363SOL     OW 1449   0.298   3.069   0.686  0.0892  0.4970  0.3975
  363SOL    HW1 1450   0.311   3.022   0.770 -2.3800  1.1577 -1.9570
  363SOL    HW2 1451   0.209   3.072   0.660  1.9523 -0.1770 -1.6730
  363SOL     MW 1452   0.288   3.063   0.694  0.0092  0.4952 -0.1864
  364SOL     OW 1453   0.748   0.203   0.224  0.2593  0.1824  0.1599
  364SOL    HW1 1454   0.676   0.137   0.220  2.3794  0.6853  0.8133
  364SOL    HW2 1455   0.715   0.276   0.171  1.2733  0.5696  1.7263
  364SOL     MW 1456   0.734   0.203   0.217  0.6728  0.2998  0.4528
  365SOL     OW 1457   0.963   2.032   1.176  0.6006  0.1880  0.2728
  365SOL    HW1 1458   0.933   2.104   1.124 -1.3721 -0.6429 -2.1939
  365SOL    HW2 1459   0.921   1.959   1.121  0.3367  0.8538 -0.8481
  365SOL     MW 1460   0.954   2.032   1.161  0.3055  0.1662 -0.2006
  366SOL     OW 1461   2.877   2.692   0.996  0.3448 -0.1517 -0.1238
  366SOL    HW1 1462   2.946   2.676   1.065 -0.0017  0.6169 -2.1607
  366SOL    HW2 1463   2.918   2.710   0.908  0.5728 -1.0717 -1.7483
  366SOL     MW 1464   2.892   2.692   0.994  0.3291 -0.1717 -0.6069
  367SOL     OW 1465   1.230   2.975   0.900  0.3404 -0.3355  0.3305
  367SOL    HW1 1466   1.258   3.044   0.833 -0.2177  0.4690 -0.5062
  367SOL    HW2 1467   1.170   2.913   0.860 -0.2470  0.0550 -1.4449
  367SOL     MW 1468   1.226   2.976   0.886  0.1893 -0.1779 -0.0141
  368SOL     OW 1469   1.653   0.372   0.739  0.1099 -0.7780  0.0310
  368SOL    HW1 1470   1.741   0.370   0.697 -0.8917  2.9544  0.7157
  368SOL    HW2 1471   1.651   0.466   0.761 -0.7946 -1.0306  2.7489
  368SOL     MW 1472   1.664   0.384   0.736 -0.1416 -0.3189  0.4799
  369SOL     OW 1473   0.154   2.449   1.791 -0.3879 -0.2787 -0.2008
  369SOL    HW1 1474   0.251   2.463   1.785 -1.8329 -0.2754  0.2933
  369SOL    HW2 1475   0.117   2.535   1.799 -1.4924  0.7029  1.1762
  369SOL     MW 1476   0.162   2.462   1.791 -0.7243 -0.1487  0.0460
  370SOL     OW 1477   0.720   0.107   0.970  0.3195  0.6873 -0.0252
  370SOL    HW1 1478   0.765   0.188   0.979 -2.4554 -2.0666 -1.6824
  370SOL    HW2 1479   0.775   0.035   0.999 -0.1694 -2.2452  0.1589
  370SOL     MW 1480   0.733   0.108   0.975 -0.1111 -0.0629 -0.2195
  371SOL     OW 1481   1.345   2.924   1.519  0.4504 -0.3303  0.1692
  371SOL    HW1 1482   1.292   2.859   1.471 -1.3771  1.9747 -0.7188
  371SOL    HW2 1483   1.352   2.988   1.445  1.5054 -1.6886  0.5709
  371SOL     MW 1484   1.339   2.924   1.503  0.3485 -0.2054  0.1051
  372SOL     OW 1485   0.763   2.286   0.466  0.6405 -0.2822  0.6970
  372SOL    HW1 1486   0.733   2.197   0.475  1.3928 -2.1796  0.7341
  372SOL    HW2 1487   0.766   2.290   0.370 -2.8582 -0.7179 -3.7486
  372SOL     MW 1488   0.759   2.275   0.454  0.2781 -0.5900  0.1154
  373SOL     OW 1489   2.814   3.022   1.452  0.2316  0.0961 -0.0388
  373SOL    HW1 1490   2.894   2.994   1.412  1.7591  2.9083  1.0407
  373SOL    HW2 1491   2.776   3.086   1.397  1.2225 -1.1213  0.3645
  373SOL     MW 1492   2.820   3.027   1.440  0.5639  0.3065  0.1569
  374SOL     OW 1493   1.531   0.474   0.226 -0.3950  0.9563  0.3443
  374SOL    HW1 1494   1.602   0.417   0.199 -0.8881  1.6503 -0.2727
  374SOL    HW2 1495   1.504   0.448   0.314 -0.7317 -1.3949  1.4150
  374SOL     MW 1496   1.537   0.463   0.234 -0.5044  0.7377  0.4041
  375SOL     OW 1497   0.969   2.120   2.257 -0.5083  0.4009 -0.2738
  375SOL    HW1 1498   1.039   2.117   2.326  0.7147 -4.0081 -1.2428
  375SOL    HW2 1499   0.970   2.040   2.203 -1.1832 -2.4915  0.4899
  375SOL     MW 1500   0.978   2.109   2.259 -0.4360 -0.5625 -0.3009
  376SOL     OW 1501   0.769   2.554   0.088  0.7057  0.1975 -0.1296
  376SOL    HW1 1502   0.767   2.471   0.128 -1.3919  1.5017  0.0378
  376SOL    HW2 1503   0.774   2.522  -0.002  3.2159 -3.6861 -2.9722
  376SOL     MW 1504   0.769   2.539   0.082  0.7602 -0.1428 -0.4826
  377SOL     OW 1505   1.261   2.014   0.860 -0.6231 -0.3195  0.0375
  377SOL    HW1 1506   1.179   1.987   0.805  0.4665  0.5401  1.3582
  377SOL    HW2 1507   1.238   1.985   0.947  0.0408  0.5106 -0.2705
  377SOL     MW 1508   1.247   2.007   0.864 -0.3918 -0.0966  0.1711
  378SOL     OW 1509   0.873   2.841   1.570 -0.1225  0.1306  0.4007
  378SOL    HW1 1510   0.881   2.745   1.549 -3.4574 -1.6270 -1.8728
  378SOL    HW2 1511   0.903   2.901   1.502  0.2896 -1.1615  0.7527
  378SOL     MW 1512   0.878   2.837   1.558 -0.5081 -0.2718  0.1472
  379SOL     OW 1513   1.164   1.736   2.269 -0.2820 -0.6534 -0.0949
  379SOL    HW1 1514   1.088   1.686   2.240 -1.4345  0.2312  1.3560
  379SOL    HW2 1515   1.226   1.686   2.216  1.5218 -1.0496 -1.2271
  379SOL     MW 1516   1.162   1.723   2.258 -0.1961 -0.5890 -0.0529
  380SOL     OW 1517   0.826   0.118   1.569  0.1893  0.0899 -0.6777
  380SOL    HW1 1518   0.816   0.034   1.527  0.1153 -2.1594 -3.8688
  380SOL    HW2 1519   0.903   0.114   1.626  1.0342 -0.4316 -2.0652
  380SOL     MW 1520   0.835   0.107   1.571  0.2910 -0.2757 -1.2818
  381SOL     OW 1521   0.785   2.005   0.805 -0.4347  0.0505  0.5747
  381SOL    HW1 1522   0.879   2.006   0.780 -0.1890  1.2773 -4.8876
  381SOL    HW2 1523   0.767   2.072   0.873 -1.9381  1.1705  2.7696
  381SOL     MW 1524   0.795   2.014   0.810 -0.6007  0.3601  0.1436
  382SOL     OW 1525   0.721   0.084   0.693 -0.1752  0.0311 -1.2857
  382SOL    HW1 1526   0.726   0.098   0.790 -0.4134  0.7139 -1.5578
  382SOL    HW2 1527   0.694  -0.001   0.665  1.0511  2.4614  1.2077
  382SOL     MW 1528   0.718   0.075   0.702 -0.0448  0.4419 -0.9926
  383SOL     OW 1529   0.551   0.031   0.258 -0.0572  0.6183 -0.0090
  383SOL    HW1 1530   0.572  -0.038   0.192 -1.2257  1.1129  0.7843
  383SOL    HW2 1531   0.514  -0.017   0.334 -0.4200 -0.5709  2.7956
  383SOL     MW 1532   0.549   0.016   0.259 -0.2593  0.5267  0.4657
  384SOL     OW 1533   0.698   2.914   0.625  0.2648  0.2009 -0.2417
  384SOL    HW1 1534   0.783   2.889   0.666  0.1418  0.6984  1.0880
  384SOL    HW2 1535   0.643   2.837   0.614  0.0655 -0.8204  0.3249
  384SOL     MW 1536   0.702   2.901   0.629  0.2223  0.1318  0.0085
  385SOL     OW 1537   1.391   2.086   1.507  0.2564  0.1227 -0.9634
  385SOL    HW1 1538   1.474   2.104   1.555 -2.2752  2.1046  2.1991
  385SOL    HW2 1539   1.338   2.035   1.565  4.7289  0.6916  1.0607
  385SOL     MW 1540   1.395   2.081   1.521  0.5125  0.4593 -0.2791
  386SOL     OW 1541   1.283   0.384   0.880 -0.5057 -0.1518 -0.2136
  386SOL    HW1 1542   1.233   0.403   0.965 -3.2313  1.8477 -0.8184
  386SOL    HW2 1543   1.339   0.314   0.906 -0.4916 -0.6227  0.0477
  386SOL     MW 1544   1.284   0.377   0.894 -0.8635  0.0499 -0.2589
  387SOL     OW 1545   0.850   2.220   1.533 -0.0478  0.1141  0.0111
  387SOL    HW1 1546   0.912   2.284   1.483  0.4530  1.2527  2.1041
  387SOL    HW2 1547   0.847   2.142   1.475  1.2463  0.1093  0.7579
  387SOL     MW 1548   0.858   2.218   1.519  0.1890  0.2637  0.3858
  388SOL     OW 1549   1.532   2.762   1.198  0.0944  0.1249  0.8009
  388SOL    HW1 1550   1.437   2.762   1.218  1.6909 -1.5885 -0.3996
  388SOL    HW2 1551   1.536   2.679   1.157 -1.8097  0.4095  0.8188
  388SOL     MW 1552   1.520   2.751   1.195  0.0538 -0.0636  0.6449
  389SOL     OW 1553   0.433   0.137   3.009  0.0705  0.0583  0.2194
  389SOL    HW1 1554   0.511   0.084   3.015 -1.6989 -0.1317  1.8223
  389SOL    HW2 1555   0.438   0.200   2.930  0.9435 -1.6088  0.8948
  389SOL     MW 1556   0.444   0.139   3.000 -0.0477 -0.1867  0.5200
  390SOL     OW 1557   1.316   0.081   0.725  0.7401 -0.1308  0.2911
  390SOL    HW1 1558   1.380   0.088   0.652 -2.1130 -0.4617  0.0577
  390SOL    HW2 1559   1.363   0.114   0.803 -1.6229 -0.9662 -0.7635
  390SOL     MW 1560   1.331   0.086   0.726  0.0519 -0.2847  0.1212
  391SOL     OW 1561   0.335   2.235   1.418  0.2550 -0.0717  0.1402
  391SOL    HW1 1562   0.326   2.144   1.451  1.2950  1.9224  0.1118
  391SOL    HW2 1563   0.261   2.274   1.458 -2.0090 -0.2760 -3.6852
  391SOL     MW 1564   0.324   2.228   1.428  0.0935  0.1644 -0.3683
  392SOL     OW 1565   2.017   2.194   0.322  0.1871 -0.4889  0.5743
  392SOL    HW1 1566   2.110   2.194   0.309  0.9559  1.1010  1.5078
  392SOL    HW2 1567   2.006   2.256   0.394  1.7821  0.4751 -3.0897
  392SOL     MW 1568   2.028   2.202   0.329  0.4990 -0.1520  0.2140
  393SOL     OW 1569   0.277   2.953   2.792  0.6427 -0.6087 -0.4656
  393SOL    HW1 1570   0.346   2.939   2.721 -1.2439 -1.2507  1.3304
  393SOL    HW2 1571   0.254   3.045   2.781  2.5701 -0.8905  2.4762
  393SOL     MW 1572   0.283   2.963   2.781  0.6481 -0.7306  0.1595
  394SOL     OW 1573   0.889   1.746   1.540  0.1625  0.1712  0.0517
  394SOL    HW1 1574   0.832   1.751   1.622 -1.8712  0.9763  0.3319
  394SOL    HW2 1575   0.892   1.844   1.512 -1.1226 -0.3535  1.1440
  394SOL     MW 1576   0.882   1.760   1.547 -0.2754  0.2082  0.2328
  395SOL     OW 1577   0.947   2.894   2.665 -0.2029  0.4138 -0.2012
  395SOL    HW1 1578   1.002   2.963   2.702 -2.0120  0.5030 -0.9453
  395SOL    HW2 1579   1.011   2.843   2.616  0.1020  0.7994  0.6772
  395SOL     MW 1580   0.963   2.897   2.664 -0.4014  0.4764 -0.1835
  396SOL     OW 1581   0.707   1.841   2.383 -0.2168 -0.1956 -0.0859
  396SOL    HW1 1582   0.775   1.870   2.448  2.5362 -0.7348  0.5464
  396SOL    HW2 1583   0.725   1.752   2.375 -1.1134  1.5065  0.5568
  396SOL     MW 1584   0.718   1.833   2.391  0.0281 -0.0422  0.0823
  397SOL     OW 1585   1.021   2.348   1.380  0.2473  0.4047  0.6017
  397SOL    HW1 1586   1.027   2.402   1.302  2.6452  1.3779 -0.2076
  397SOL    HW2 1587   1.107   2.348   1.420 -1.6166  0.2825 -2.1922
  397SOL     MW 1588   1.033   2.355   1.375  0.3177  0.5170  0.1263
  398SOL     OW 1589   0.565   2.668   0.672  0.6348  0.3014 -0.5700
  398SOL    HW1 1590   0.502   2.642   0.599 -2.2181 -1.2059 -0.0025
  398SOL    HW2 1591   0.637   2.602   0.667 -2.0196  1.3032  1.9610
  398SOL     MW 1592   0.566   2.656   0.661 -0.0918  0.2347 -0.1612
  399SOL     OW 1593   0.222   2.088   0.284  0.1555 -0.0163  0.1371
  399SOL    HW1 1594   0.150   2.150   0.302 -0.9859  1.1363 -1.5031
  399SOL    HW2 1595   0.245   2.092   0.192 -0.0685 -2.7221  2.9962
  399SOL     MW 1596   0.215   2.097   0.274 -0.0246 -0.2212  0.2979
  400SOL     OW 1597   0.524   1.927   0.093  0.4653 -0.1821  0.1310
  400SOL    HW1 1598   0.466   2.006   0.088 -1.9456  0.5748 -1.0163
  400SOL    HW2 1599   0.485   1.864   0.155  0.7639 -0.7799 -0.9736
  400SOL     MW 1600   0.511   1.929   0.101  0.1866 -0.1611 -0.1661
  401SOL     OW 1601   0.779   2.044   0.055  0.2788 -0.1677 -0.1661
  401SOL    HW1 1602   0.853   1.979   0.074 -2.3070 -0.1848  3.0864
  401SOL    HW2 1603   0.691   2.002   0.070 -0.6780  1.4085  0.8518
  401SOL     MW 1604   0.777   2.030   0.060 -0.1886  0.0380  0.3973
  402SOL     OW 1605   0.613   2.953   1.735  0.0696 -0.3575  0.0886
  402SOL    HW1 1606   0.689   2.921   1.776  0.1014 -2.6304 -0.5885
  402SOL    HW2 1607   0.625   3.048   1.731  0.8789  0.7978  0.0247
  402SOL     MW 1608   0.625   2.961   1.740  0.1806 -0.5049 -0.0092
  403SOL     OW 1609   0.092   0.409   0.399 -0.1164  0.0022  0.2327
  403SOL    HW1 1610   0.169   0.427   0.455  0.2557 -1.1803 -0.8520
  403SOL    HW2 1611   0.119   0.427   0.311 -1.8559 -1.4259 -0.1961
  403SOL     MW 1612   0.105   0.414   0.395 -0.2968 -0.3422  0.0330
  404SOL     OW 1613   0.953   2.903   0.753 -0.3569 -0.5501 -0.0123
  404SOL    HW1 1614   1.024   2.850   0.716  0.2877  0.1827 -2.6240
  404SOL    HW2 1615   0.978   2.997   0.740 -0.7296  0.6322  0.2713
  404SOL     MW 1616   0.965   2.908   0.747 -0.3210 -0.2974 -0.3195
  405SOL     OW 1617   0.551   2.430   1.543  0.4041 -0.3448  0.1236
  405SOL    HW1 1618   0.522   2.498   1.484  0.7906  0.8674  1.0907
  405SOL    HW2 1619   0.505   2.347   1.526 -0.1027  1.0870 -0.5183
  405SOL     MW 1620   0.541   2.428   1.533  0.3882  0.0040  0.1665
  406SOL     OW 1621   0.356   2.409   1.058 -0.1416  0.0931 -0.0552
  406SOL    HW1 1622   0.272   2.409   1.105 -1.1235  1.3096  0.8661
  406SOL    HW2 1623   0.390   2.318   1.075 -0.0849  0.6393  2.2705
  406SOL     MW 1624   0.350   2.397   1.067 -0.2637  0.3256  0.3732
  407SOL     OW 1625   0.021   2.691   1.147 -0.0677  0.8039 -0.2999
  407SOL    HW1 1626   0.095   2.691   1.216  2.2090  0.0860  0.7934
  407SOL    HW2 1627   0.067   2.722   1.064 -2.1357  0.8709 -1.0805
  407SOL     MW 1628   0.037   2.695   1.145 -0.0401  0.7180 -0.2587
  408SOL     OW 1629   2.158   2.163   0.621 -0.5011 -0.2388 -0.3593
  408SOL    HW1 1630   2.082   2.177   0.680  0.5552 -2.3787 -0.3351
  408SOL    HW2 1631   2.119   2.107   0.558  2.6924 -2.6409 -1.3762
  408SOL     MW 1632   2.143   2.158   0.621  0.0596 -0.8381 -0.4903
  409SOL     OW 1633   1.444   0.139   0.940  0.6558  0.0609  0.4106
  409SOL    HW1 1634   1.535   0.166   0.942 -1.0624 -1.2897 -0.6807
  409SOL    HW2 1635   1.441   0.051   0.984  4.9495 -0.8109 -0.0148
  409SOL     MW 1636   1.455   0.131   0.946  0.9956 -0.2323  0.2104
  410SOL     OW 1637   1.091   2.438   1.127 -0.2256 -0.1263  0.7702
  410SOL    HW1 1638   1.028   2.469   1.060 -0.7780  3.4067 -1.4163
  410SOL    HW2 1639   1.146   2.364   1.091 -1.0024  0.1448 -0.2898
  410SOL     MW 1640   1.090   2.433   1.114 -0.4009  0.3756  0.3418
  411SOL     OW 1641   1.954   0.066   2.864 -0.2020  0.1694  0.0447
  411SOL    HW1 1642   1.922   0.008   2.800  1.5215  1.3124  0.2923
  411SOL    HW2 1643   1.881   0.080   2.925  1.1779 -0.6253  0.2949
  411SOL     MW 1644   1.940   0.060   2.864  0.2075  0.2153  0.1104
  412SOL     OW 1645   1.059   2.271   0.564 -0.2133 -0.1940 -0.3271
  412SOL    HW1 1646   1.107   2.326   0.631  0.9057 -0.8429 -0.7197
  412SOL    HW2 1647   0.988   2.316   0.538  3.4572  1.2486  0.1817
  412SOL     MW 1648   1.056   2.284   0.570  0.4186 -0.0893 -0.3118
  413SOL     OW 1649   0.555   2.717   3.067 -0.9170  0.0773 -0.0479
  413SOL    HW1 1650   0.628   2.667   3.112  2.6333 -0.9045  1.3274
  413SOL    HW2 1651   0.585   2.752   2.987 -1.2477 -0.0878 -3.3764
  413SOL     MW 1652   0.568   2.715   3.063 -0.4922 -0.0740 -0.3056
  414SOL     OW 1653   1.925   2.969   1.111  0.9559  0.0045  0.5633
  414SOL    HW1 1654   1.865   3.040   1.126  1.7910  2.0511 -0.2434
  414SOL    HW2 1655   1.959   2.983   1.022  1.4664 -1.2243 -1.0263
  414SOL     MW 1656   1.921   2.980   1.101  1.1334  0.1124  0.2471
  415SOL     OW 1657   1.849   2.719   1.066 -0.2399 -0.2032 -0.1316
  415SOL    HW1 1658   1.787   2.698   1.136 -0.8527  0.6158 -1.2725
  415SOL    HW2 1659   1.887   2.805   1.083  0.3339 -0.7022  1.3830
  415SOL     MW 1660   1.846   2.728   1.077 -0.2451 -0.1609 -0.0823
  416SOL     OW 1661   0.570   1.974   1.345  0.6116 -0.3468 -0.2350
  416SOL    HW1 1662   0.528   2.047   1.306  3.0376 -0.4715 -0.8783
  416SOL    HW2 1663   0.554   1.907   1.274 -0.8965 -1.6831 -3.0577
  416SOL     MW 1664   0.562   1.975   1.331  0.7327 -0.5396 -0.6923
  417SOL     OW 1665   0.983   3.009   2.051  0.0884 -0.3759  0.0675
  417SOL    HW1 1666   0.915   3.020   2.120 -1.7841  0.6962  3.6881
  417SOL    HW2 1667   0.930   2.965   1.979  1.5442 -1.9704 -0.5690
  417SOL     MW 1668   0.967   3.005   2.050  0.0334 -0.4448  0.4612
  418SOL     OW 1669   0.660   2.933   0.105 -0.2791 -0.2487  0.2530
  418SOL    HW1 1670   0.753   2.935   0.076  0.4832  2.1667  1.1789
  418SOL    HW2 1671   0.618   2.859   0.053 -1.6027 -1.4738  0.7142
  418SOL     MW 1672   0.666   2.924   0.094 -0.3532 -0.0917  0.4361
  419SOL     OW 1673   0.498   2.621   1.346 -0.2653  0.1262 -0.5292
  419SOL    HW1 1674   0.530   2.701   1.384  0.7356 -2.1581 -0.8640
  419SOL    HW2 1675   0.546   2.610   1.262 -0.1400  5.0783 -0.5229
  419SOL     MW 1676   0.508   2.630   1.340 -0.1167  0.4782 -0.5725
  420SOL     OW 1677   0.861   2.232   1.022 -0.2972 -0.6961  0.5482
  420SOL    HW1 1678   0.815   2.243   1.103  2.0024 -1.7251  1.1603
  420SOL    HW2 1679   0.898   2.320   1.007 -0.8831 -2.4978  0.5276
  420SOL     MW 1680   0.860   2.245   1.031 -0.0711 -1.0695  0.6262
  421SOL     OW 1681   2.958   0.203   3.053  0.8119  0.8100  0.2510
  421SOL    HW1 1682   2.872   0.184   3.029  1.3449 -1.0447  2.7714
  421SOL    HW2 1683   2.987   0.115   3.058 -1.6788  1.8899  0.5250
  421SOL     MW 1684   2.950   0.189   3.050  0.5536  0.7078  0.6197
  422SOL     OW 1685   0.895   2.530   0.939 -0.1903 -0.1918 -0.1934
  422SOL    HW1 1686   0.886   2.622   0.968 -1.2810  1.3134  0.4135
  422SOL    HW2 1687   0.865   2.526   0.846 -0.9170  0.0161  0.5044
  422SOL     MW 1688   0.890   2.542   0.931 -0.4301  0.0342 -0.0213
  423SOL     OW 1689   1.447   0.094   0.462 -0.3394  0.4096 -0.0247
  423SOL    HW1 1690   1.430   0.085   0.370  1.9809 -0.8032 -1.5456
  423SOL    HW2 1691   1.473   0.182   0.466 -2.0799  2.7945  2.2127
  423SOL     MW 1692   1.448   0.104   0.450 -0.2629  0.5642  0.0699
  424SOL     OW 1693   0.680   2.313   1.226 -0.1603  0.3501  0.4008
  424SOL    HW1 1694   0.598   2.259   1.203  0.3559 -0.7930  1.1465
  424SOL    HW2 1695   0.661   2.320   1.321  1.3568 -1.5945  0.6507
  424SOL     MW 1696   0.667   2.307   1.235  0.1080 -0.0573  0.5321
  425SOL     OW 1697   1.717   2.798   2.030  0.3142 -0.5065 -0.2285
  425SOL    HW1 1698   1.750   2.809   1.935 -0.9136  0.9841 -1.1415
  425SOL    HW2 1699   1.727   2.713   2.069 -1.3881  2.2505  2.0389
  425SOL     MW 1700   1.722   2.789   2.022 -0.0724  0.0540 -0.0498
  426SOL     OW 1701   0.825   1.679   1.963 -0.0322 -0.2633 -0.2479
  426SOL    HW1 1702   0.764   1.699   1.890  1.1350 -0.9925 -0.4668
  426SOL    HW2 1703   0.798   1.737   2.033 -2.5663 -2.9025 -1.4580
  426SOL     MW 1704   0.814   1.689   1.963 -0.2126 -0.7077 -0.4365
  427SOL     OW 1705   0.397   1.670   1.881  0.0898  0.3553  0.0615
  427SOL    HW1 1706   0.443   1.607   1.827  0.2294 -1.7082 -2.3720
  427SOL    HW2 1707   0.331   1.627   1.933  0.5871  0.4227  0.0190
  427SOL     MW 1708   0.395   1.656   1.881  0.1738  0.0919 -0.2652
  428SOL     OW 1709   0.581   2.560   1.049 -0.8055 -0.6610 -0.7855
  428SOL    HW1 1710   0.652   2.521   0.995 -0.5156 -3.0498 -2.8230
  428SOL    HW2 1711   0.506   2.497   1.071 -2.3735  1.5758  2.0352
  428SOL     MW 1712   0.581   2.546   1.045 -0.9741 -0.6810 -0.6822
  429SOL     OW 1713   1.250   2.794   1.141 -0.2757  0.4351 -0.2795
  429SOL    HW1 1714   1.159   2.767   1.152  1.2073  2.0420  0.4391
  429SOL    HW2 1715   1.250   2.859   1.071  2.4835 -0.0758 -0.5240
  429SOL     MW 1716   1.238   2.799   1.133  0.2840  0.5797 -0.2170
  430SOL     OW 1717   1.158   2.719   0.717  0.2126 -0.1735  0.0443
  430SOL    HW1 1718   1.173   2.627   0.714 -1.9588 -1.7897  0.9150
  430SOL    HW2 1719   1.103   2.710   0.637  0.7569  1.2353  1.9968
  430SOL     MW 1720   1.152   2.706   0.706 -0.0021 -0.2009  0.4168
  431SOL     OW 1721   0.359   1.949   1.027 -0.2601  0.1436 -0.3633
  431SOL    HW1 1722   0.388   1.856   1.018 -1.1914  1.1334 -0.0171
  431SOL    HW2 1723   0.294   1.968   0.956  0.4533 -0.1378  0.1724
  431SOL     MW 1724   0.355   1.939   1.017 -0.2888  0.2371 -0.2469
  432SOL     OW 1725   0.088   0.036   1.207  0.1639  0.2745 -0.5885
  432SOL    HW1 1726   0.090   0.117   1.262 -0.7022 -2.2236  0.0110
  432SOL    HW2 1727   0.026  -0.022   1.251  1.7700  2.4557 -1.8032
  432SOL     MW 1728   0.080   0.039   1.220  0.2615  0.2327 -0.6697
  433SOL     OW 1729   0.601   2.801   1.512  0.1565  0.0740  0.0562
  433SOL    HW1 1730   0.573   2.868   1.581 -0.1877  3.4964 -1.8485
  433SOL    HW2 1731   0.693   2.824   1.502  2.7823 -0.3556  2.2131
  433SOL     MW 1732   0.609   2.813   1.520  0.4575  0.4689  0.0895
  434SOL     OW 1733   1.607   2.808   1.525 -0.1015 -0.0034  0.4061
  434SOL    HW1 1734   1.512   2.825   1.513 -0.8764 -2.0621 -3.0283
  434SOL    HW2 1735   1.635   2.751   1.449  1.9590  1.2616  1.1904
  434SOL     MW 1736   1.598   2.803   1.513  0.0681 -0.1081  0.0564
  435SOL     OW 1737   2.843   1.790   0.182 -0.5937  0.2187 -0.4912
  435SOL    HW1 1738   2.921   1.846   0.172 -0.0480 -0.3529  0.9666
  435SOL    HW2 1739   2.813   1.756   0.090 -0.5840 -0.6689  0.4609
  435SOL     MW 1740   2.850   1.793   0.169 -0.5204  0.0262 -0.1732
  436SOL     OW 1741   1.393   2.667   0.452  0.4875 -0.2202 -0.2389
  436SOL    HW1 1742   1.471   2.673   0.506 -0.5299  0.3947  1.0695
  436SOL    HW2 1743   1.340   2.744   0.456  0.5656  2.2778  0.2083
  436SOL     MW 1744   1.396   2.678   0.460  0.3636  0.1905 -0.0072
  437SOL     OW 1745   0.874   2.991   1.353 -0.0020  0.3832 -0.0606
  437SOL    HW1 1746   0.950   3.045   1.327  0.9256 -1.0371 -0.1037
  437SOL    HW2 1747   0.907   2.910   1.311  1.7299 -1.5655  1.5556
  437SOL     MW 1748   0.888   2.987   1.344  0.3489 -0.0613  0.1469
  438SOL     OW 1749   0.811   2.601   1.863 -0.1807 -0.2864 -0.4665
  438SOL    HW1 1750   0.811   2.603   1.958 -0.9234  2.3252  0.5270
  438SOL    HW2 1751   0.766   2.521   1.836  2.7193  0.8986  0.3155
  438SOL     MW 1752   0.805   2.591   1.872  0.1039  0.2145 -0.2322
  439SOL     OW 1753   1.242   2.148   0.405 -0.2691 -0.2399 -0.0413
  439SOL    HW1 1754   1.198   2.207   0.466 -0.4365 -0.0408 -2.3457
  439SOL    HW2 1755   1.199   2.181   0.326 -0.1300 -0.2308 -0.2051
  439SOL     MW 1756   1.230   2.160   0.403 -0.2729 -0.2125 -0.3669
  440SOL     OW 1757   1.757   3.021   3.062 -0.0810 -0.0454 -0.1354
  440SOL    HW1 1758   1.702   2.977   3.131  0.9977 -4.6123  0.3173
  440SOL    HW2 1759   1.840   2.979   3.075 -2.0030 -0.0307 -0.3744
  440SOL     MW 1760   1.761   3.009   3.073 -0.1923 -0.6460 -0.1072
  441SOL     OW 1761   0.332   2.651   0.463  0.3799  0.1608  0.3244
  441SOL    HW1 1762   0.324   2.628   0.366  2.2778  1.4873 -3.2962
  441SOL    HW2 1763   0.367   2.741   0.457  0.4353 -1.8476 -0.8382
  441SOL     MW 1764   0.336   2.660   0.450  0.6376  0.0708 -0.3067
  442SOL     OW 1765   0.006   2.399   0.628 -0.3261 -0.5466  0.5904
  442SOL    HW1 1766   0.038   2.484   0.601  1.3960  2.0056 -1.3676
  442SOL    HW2 1767  -0.077   2.423   0.667  0.5159 -0.4695  0.2443
  442SOL     MW 1768  -0.001   2.414   0.629  0.0122 -0.1997  0.2864
  443SOL     OW 1769   1.433   1.783   1.936  0.2387 -0.1952  0.3442
  443SOL    HW1 1770   1.401   1.830   1.858  0.5397 -0.4284 -0.2433
  443SOL    HW2 1771   1.362   1.726   1.961  3.2071 -0.5207  0.8346
  443SOL     MW 1772   1.419   1.782   1.929  0.6701 -0.2689  0.3314
  444SOL     OW 1773   0.848   2.572   1.548  0.0797  0.1633  1.1184
  444SOL    HW1 1774   0.921   2.548   1.612 -0.0515  0.6441  0.0582
  444SOL    HW2 1775   0.766   2.570   1.595 -0.2890 -0.9119  0.1463
  444SOL     MW 1776   0.847   2.568   1.563  0.0137  0.0849  0.8503
  445SOL     OW 1777   1.075   0.074   1.329  0.7461  0.0157 -0.0514
  445SOL    HW1 1778   1.010   0.144   1.333  3.0287  2.9863 -1.3020
  445SOL    HW2 1779   1.125   0.092   1.245 -0.6325 -0.2010 -2.4661
  445SOL     MW 1780   1.073   0.086   1.318  0.8654  0.3791 -0.5350
  446SOL     OW 1781   2.744   2.908   1.110  0.2741 -0.2711 -0.2999
  446SOL    HW1 1782   2.700   2.952   1.036 -0.5052 -1.4068  0.7224
  446SOL    HW2 1783   2.782   2.832   1.064  1.4305 -1.6116 -2.2089
  446SOL     MW 1784   2.743   2.904   1.094  0.3239 -0.5978 -0.4169
  447SOL     OW 1785   0.058   2.002   1.637  0.2486 -0.3945  0.2363
  447SOL    HW1 1786   0.097   1.923   1.678 -0.1491  0.4248  1.1883
  447SOL    HW2 1787  -0.007   1.979   1.567  0.7967 -1.0807 -2.5644
  447SOL     MW 1788   0.055   1.989   1.633  0.2684 -0.3769 -0.0076
  448SOL     OW 1789   1.740   2.422   1.635 -0.6810 -0.0395  0.2578
  448SOL    HW1 1790   1.694   2.334   1.639 -0.3949 -0.2735  0.3919
  448SOL    HW2 1791   1.672   2.492   1.644 -0.6411 -2.0909 -0.9273
  448SOL     MW 1792   1.725   2.420   1.637 -0.6380 -0.3410  0.1191
  449SOL     OW 1793   0.828   2.891   0.348  0.0799 -0.0905  0.0395
  449SOL    HW1 1794   0.775   2.896   0.270  0.2152  3.7256  0.9860
  449SOL    HW2 1795   0.788   2.931   0.430  0.1935  0.5353  0.7591
  449SOL     MW 1796   0.816   2.897   0.348  0.1128  0.4956  0.2594
  450SOL     OW 1797   1.191   2.449   0.713 -0.2064 -0.0163 -0.3856
  450SOL    HW1 1798   1.191   2.375   0.781 -2.9115 -2.7014  1.7534
  450SOL    HW2 1799   1.276   2.458   0.675  1.0817  0.9631  0.7536
  450SOL     MW 1800   1.202   2.440   0.717 -0.3934 -0.2414  0.0469
  451SOL     OW 1801   0.545   2.062   1.621 -0.0101 -0.5377  0.4677
  451SOL    HW1 1802   0.640   2.082   1.618  0.8825  1.8392 -0.5453
  451SOL    HW2 1803   0.521   2.009   1.541 -1.5114  0.1625 -0.9441
  451SOL     MW 1804   0.554   2.058   1.610 -0.0904 -0.1317  0.1478
  452SOL     OW 1805   0.284   2.688   0.032  0.2691 -0.2366  0.2334
  452SOL    HW1 1806   0.364   2.673  -0.015 -1.0461 -1.6481  0.5740
  452SOL    HW2 1807   0.232   2.739  -0.033 -0.2141  0.1058  3.5527
  452SOL     MW 1808   0.288   2.692   0.017  0.0318 -0.3777  0.7163
  453SOL     OW 1809   0.340   2.987   1.632 -0.1570 -0.1251 -0.7125
  453SOL    HW1 1810   0.400   2.954   1.701  0.9588 -2.7747  0.5375
  453SOL    HW2 1811   0.399   3.007   1.556  0.8607 -0.3337  1.7806
  453SOL     MW 1812   0.356   2.985   1.631  0.1245 -0.5022 -0.2187
  454SOL     OW 1813   0.978   2.771   1.217 -0.4815 -0.9561  0.3503
  454SOL    HW1 1814   0.949   2.679   1.242 -1.8711  0.0722 -0.0674
  454SOL    HW2 1815   0.921   2.793   1.140  2.6718  3.9343 -1.3900
  454SOL     MW 1816   0.967   2.761   1.210 -0.2488 -0.1752  0.0656
  455SOL     OW 1817   1.607   2.912   0.158 -0.0805 -1.0280  0.3810
  455SOL    HW1 1818   1.673   2.908   0.233  1.3218 -3.6787  0.1825
  455SOL    HW2 1819   1.572   2.822   0.147 -0.8387 -0.6977 -0.0722
  455SOL     MW 1820   1.611   2.900   0.167  0.0044 -1.3342  0.2950
  456SOL     OW 1821   2.741   0.354   1.482 -0.2143  0.5426  0.5026
  456SOL    HW1 1822   2.697   0.281   1.438 -1.2173 -2.5746 -2.0612
  456SOL    HW2 1823   2.839   0.352   1.458 -0.2429  1.9391  0.8736
  456SOL     MW 1824   2.748   0.344   1.473 -0.3504  0.3155  0.2133
  457SOL     OW 1825   0.954   1.546   2.964 -0.7857  0.2939  0.8865
  457SOL    HW1 1826   0.872   1.576   3.011 -3.6146  0.6887  2.6257
  457SOL    HW2 1827   0.979   1.457   2.993 -2.1086  0.0706 -2.2414
  457SOL     MW 1828   0.947   1.538   2.974 -1.3335  0.3165  0.7033
  458SOL     OW 1829   1.401   1.473   0.571 -0.7922  0.0991 -0.0640
  458SOL    HW1 1830   1.320   1.526   0.568 -1.7879  1.2354  1.2785
  458SOL    HW2 1831   1.392   1.412   0.496 -1.6293 -1.7133  0.4128
  458SOL     MW 1832   1.389   1.472   0.561 -1.0340  0.0099  0.1761
  459SOL     OW 1833   1.489   0.040   0.197 -0.1444 -0.4893  0.1065
  459SOL    HW1 1834   1.530  -0.047   0.174 -2.3071 -2.1256 -0.9817
  459SOL    HW2 1835   1.433   0.060   0.124 -1.6330 -3.4537  0.4471
  459SOL     MW 1836   1.487   0.031   0.184 -0.6262 -1.0963  0.0079
  460SOL     OW 1837   1.762   2.150   0.603  0.4147 -0.7540  0.0271
  460SOL    HW1 1838   1.694   2.110   0.661 -1.0396  1.9184  0.7051
  460SOL    HW2 1839   1.827   2.085   0.571 -1.6766 -2.2980 -1.5558
  460SOL     MW 1840   1.761   2.136   0.606 -0.0531 -0.6051 -0.0923
  461SOL     OW 1841   0.372   2.375   0.570  0.0781  0.0516 -0.1140
  461SOL    HW1 1842   0.326   2.456   0.549  2.4251 -0.8936 -0.1450
  461SOL    HW2 1843   0.380   2.382   0.662  0.8720  1.5330  1.3412
  461SOL     MW 1844   0.367   2.387   0.579  0.4925  0.1224  0.0739
  462SOL     OW 1845   0.375   0.272   1.283 -1.0417 -0.1967  0.3038
  462SOL    HW1 1846   0.396   0.223   1.198 -3.7244 -3.3526  0.1539
  462SOL    HW2 1847   0.462   0.303   1.310 -0.3619  0.4113 -2.6342
  462SOL     MW 1848   0.389   0.270   1.276 -1.3059 -0.5329 -0.1036
  463SOL     OW 1849   1.000   0.082   0.673 -0.0222  0.0066  0.7132
  463SOL    HW1 1850   1.032   0.076   0.580 -0.4950 -0.7146  0.9243
  463SOL    HW2 1851   0.906   0.065   0.661  2.6803  0.2529 -0.4769
  463SOL     MW 1852   0.991   0.079   0.659  0.2720 -0.0561  0.5840
  464SOL     OW 1853   0.809   3.062   2.290 -0.2532  0.1293 -0.1515
  464SOL    HW1 1854   0.793   2.973   2.261  0.8237  1.3772 -0.2126
  464SOL    HW2 1855   0.801   3.060   2.388 -3.2486  0.5242 -3.1579
  464SOL     MW 1856   0.806   3.050   2.299 -0.5063  0.3460 -0.5562
  465SOL     OW 1857   0.743   0.294   0.496  0.6983  0.0364  0.0953
  465SOL    HW1 1858   0.740   0.239   0.577  1.6397 -0.8470  0.0413
  465SOL    HW2 1859   0.722   0.247   0.413  1.0822  2.3452  0.6475
  465SOL     MW 1860   0.740   0.280   0.496  0.8732  0.2245  0.1610
  466SOL     OW 1861   1.036   2.002   0.705 -0.3881 -0.0219 -0.1147
  466SOL    HW1 1862   1.051   1.920   0.655  1.7837  0.0886  0.8072
  466SOL    HW2 1863   1.050   2.076   0.643  0.8425  1.2721  0.1872
  466SOL     MW 1864   1.040   2.001   0.691  0.0608  0.1635  0.0468
  467SOL     OW 1865   1.219   2.262   0.931 -0.1569 -0.0663  0.2034
  467SOL    HW1 1866   1.312   2.289   0.938  0.7153 -0.3446 -0.0230
  467SOL    HW2 1867   1.224   2.175   0.891  0.3723 -0.7139 -1.2319
  467SOL     MW 1868   1.232   2.254   0.927  0.0280 -0.1884 -0.0158
  468SOL     OW 1869   0.376   2.622   2.027  0.5076  0.3087 -0.4895
  468SOL    HW1 1870   0.393   2.575   1.942 -2.1516  3.8382 -0.3231
  468SOL    HW2 1871   0.319   2.699   1.992 -2.8057 -2.6509  1.0233
  468SOL     MW 1872   0.371   2.626   2.011 -0.2804  0.3839 -0.2679
  469SOL     OW 1873   0.366   2.175   1.814  0.2158 -0.5269  0.4148
  469SOL    HW1 1874   0.309   2.104   1.842 -0.1491 -1.1172 -0.2536
  469SOL    HW2 1875   0.429   2.133   1.746 -0.8778 -1.1370 -0.7728
  469SOL     MW 1876   0.367   2.160   1.809  0.0234 -0.6853  0.1699
  470SOL     OW 1877   3.027   2.612   0.107  0.1998  0.6938  0.2434
  470SOL    HW1 1878   2.938   2.600   0.127  1.6538  1.8634  2.0162
  470SOL    HW2 1879   3.024   2.615   0.006 -2.3556  0.0022  0.0913
  470SOL     MW 1880   3.015   2.611   0.097  0.0545  0.7569  0.4573
  471SOL     OW 1881   1.188   2.692   1.456 -0.0900 -0.8940 -0.2798
  471SOL    HW1 1882   1.143   2.639   1.520  2.0212  2.4012 -0.1905
  471SOL    HW2 1883   1.119   2.734   1.409  1.3470  1.6768  1.3762
  471SOL     MW 1884   1.173   2.691   1.458  0.3781 -0.1201 -0.0495
  472SOL     OW 1885   2.854   2.091   0.334 -0.4190  0.4556 -0.2988
  472SOL    HW1 1886   2.907   2.053   0.258  3.8274 -2.5671  1.0564
  472SOL    HW2 1887   2.822   2.007   0.367 -0.2192  0.8113 -0.4211
  472SOL     MW 1888   2.857   2.075   0.328  0.1676  0.1038 -0.1361
  473SOL     OW 1889   0.840   2.526   1.267  0.4558 -0.1709 -0.3536
  473SOL    HW1 1890   0.769   2.459   1.250 -1.3392 -0.7816  2.6297
  473SOL    HW2 1891   0.852   2.528   1.361 -0.2785  3.2314 -1.3775
  473SOL     MW 1892   0.832   2.518   1.277  0.1221  0.1974 -0.0951
  474SOL     OW 1893   0.866   2.110   1.799  0.4342 -0.2138 -0.1069
  474SOL    HW1 1894   0.944   2.142   1.841 -0.7071 -1.4496  1.0454
  474SOL    HW2 1895   0.879   2.134   1.705 -1.7622 -2.9969 -0.2957
  474SOL     MW 1896   0.878   2.118   1.792 -0.0062 -0.7440  0.0202
  475SOL     OW 1897   1.638   3.061   1.475 -0.1610 -0.4751 -0.6786
  475SOL    HW1 1898   1.547   3.084   1.433 -1.8448  0.2162  1.2051
  475SOL    HW2 1899   1.632   2.963   1.481 -0.9959 -1.6530  0.2046
  475SOL     MW 1900   1.625   3.051   1.470 -0.4933 -0.5393 -0.3135
  476SOL     OW 1901   1.431   2.605   0.996  0.4298 -0.1576  0.2733
  476SOL    HW1 1902   1.347   2.640   1.026 -1.2472  0.3711  2.0115
  476SOL    HW2 1903   1.463   2.661   0.928  0.4601 -2.9726  1.2780
  476SOL     MW 1904   1.424   2.617   0.991  0.2125 -0.4593  0.6352
  477SOL     OW 1905   0.780   2.512   0.679  0.6955  0.3412  0.5761
  477SOL    HW1 1906   0.836   2.555   0.612 -0.2023 -2.1923 -3.5621
  477SOL    HW2 1907   0.747   2.433   0.636  0.1653 -0.0336  0.1201
  477SOL     MW 1908   0.783   2.507   0.664  0.5071 -0.0425 -0.0301
  478SOL     OW 1909   0.174   2.719   0.925  0.5787 -0.3642  0.0343
  478SOL    HW1 1910   0.222   2.802   0.914 -0.1976  4.6114 -0.5226
  478SOL    HW2 1911   0.235   2.654   0.895 -2.6737  0.1205  0.5893
  478SOL     MW 1912   0.188   2.721   0.920  0.0472  0.3562  0.0340
  479SOL     OW 1913   1.451   1.989   1.257  0.2147  0.2169 -0.5249
  479SOL    HW1 1914   1.444   2.025   1.348  1.6491  0.2383  1.3893
  479SOL    HW2 1915   1.483   1.902   1.265  0.2815 -0.3538  1.7522
  479SOL     MW 1916   1.454   1.983   1.270  0.4128  0.1444  0.0281
  480SOL     OW 1917   1.876   2.412   1.275 -0.1810  0.4164 -0.5352
  480SOL    HW1 1918   1.879   2.317   1.278 -1.9282 -0.7198 -1.3454
  480SOL    HW2 1919   1.916   2.430   1.193 -0.4670  1.9054 -0.8831
  480SOL     MW 1920   1.881   2.402   1.264 -0.4493  0.4630 -0.6880
  481SOL     OW 1921   1.003   0.031   0.965  0.1394 -0.5895 -0.6119
  481SOL    HW1 1922   1.086  -0.015   0.960 -0.1836 -0.0025 -1.4272
  481SOL    HW2 1923   1.034   0.119   0.990  0.8467  1.3954 -0.7870
  481SOL     MW 1924   1.018   0.037   0.967  0.1901 -0.2502 -0.7426
  482SOL     OW 1925   1.052   3.031   0.264  0.7419  0.5362  0.1497
  482SOL    HW1 1926   0.977   2.981   0.292  0.1352  1.8575 -1.3630
  482SOL    HW2 1927   1.026   3.120   0.270 -1.3894 -1.2155 -0.5387
  482SOL     MW 1928   1.039   3.036   0.268  0.3806  0.4794 -0.1407
  483SOL     OW 1929   0.422   2.907   0.459  0.0518  0.3536 -0.2574
  483SOL    HW1 1930   0.348   2.923   0.398  1.6193 -2.9949 -1.4835
  483SOL    HW2 1931   0.402   2.945   0.544  1.3179  1.8212 -1.0918
  483SOL     MW 1932   0.409   2.914   0.462  0.4257  0.1055 -0.5293
  484SOL     OW 1933   1.718   1.879   1.397  0.9335  0.2112  0.2368
  484SOL    HW1 1934   1.737   1.973   1.398 -1.5450 -0.0087  2.3445
  484SOL    HW2 1935   1.719   1.858   1.490  1.4877  1.0435  1.0471
  484SOL     MW 1936   1.721   1.889   1.410  0.6796  0.2920  0.6218
  485SOL     OW 1937   0.536   2.347   0.230 -0.8231 -0.7829 -0.1385
  485SOL    HW1 1938   0.517   2.309   0.310 -1.4902  0.2867 -0.2650
  485SOL    HW2 1939   0.484   2.429   0.235 -1.4267 -2.8738  1.8285
  485SOL     MW 1940   0.527   2.353   0.241 -0.9908 -0.9177  0.1044
  486SOL     OW 1941   0.156   2.387   1.536 -0.2666 -0.5141  0.3764
  486SOL    HW1 1942   0.158   2.473   1.485  0.8463 -0.9587  2.2375
  486SOL    HW2 1943   0.155   2.408   1.634  0.1144  1.6961  0.0019
  486SOL     MW 1944   0.156   2.401   1.542 -0.0695 -0.2812  0.5726
  487SOL     OW 1945   1.291   1.657   1.029 -0.3514  0.3120 -0.3403
  487SOL    HW1 1946   1.266   1.747   1.045 -1.8121  1.0714  1.8223
  487SOL    HW2 1947   1.381   1.655   0.984  3.5883 -1.1320 -2.0731
  487SOL     MW 1948   1.300   1.668   1.025 -0.0243  0.2217 -0.2836
  488SOL     OW 1949   1.680   1.848   0.542  0.1519  0.4094 -0.0456
  488SOL    HW1 1950   1.757   1.836   0.491  1.9416 -2.2387 -0.8700
  488SOL    HW2 1951   1.620   1.912   0.501  0.5410 -2.4638 -0.5399
  488SOL     MW 1952   1.682   1.855   0.530  0.4394 -0.3191 -0.2196
  489SOL     OW 1953   0.659   0.783   0.602  0.6124 -0.0164  0.0263
  489SOL    HW1 1954   0.696   0.695   0.596  1.8672 -1.1534 -2.9486
  489SOL    HW2 1955   0.669   0.820   0.690 -0.5306  0.5574 -1.4661
  489SOL     MW 1956   0.665   0.776   0.613  0.6271 -0.0907 -0.5631
  490SOL     OW 1957   1.501   2.046   0.430  0.2946  0.2732  0.6315
  490SOL    HW1 1958   1.534   2.132   0.419 -0.2881  0.5899  0.0937
  490SOL    HW2 1959   1.403   2.051   0.412  1.0886 -1.7069  0.4358
  490SOL     MW 1960   1.493   2.058   0.426  0.3225  0.0537  0.5347
  491SOL     OW 1961   1.248   2.936   0.444  0.7502 -0.1373 -0.8373
  491SOL    HW1 1962   1.282   3.020   0.478  1.2434 -1.9384  3.0657
  491SOL    HW2 1963   1.191   2.954   0.371  0.8592  0.0283 -1.8738
  491SOL     MW 1964   1.245   2.950   0.439  0.8296 -0.3531 -0.4591
  492SOL     OW 1965   1.517   2.092   0.740  0.3116 -0.0083 -0.2154
  492SOL    HW1 1966   1.485   2.114   0.655  0.6031 -0.3221 -1.5170
  492SOL    HW2 1967   1.433   2.056   0.783 -1.3287 -1.5677 -1.1124
  492SOL     MW 1968   1.501   2.090   0.735  0.1336 -0.2555 -0.5055
  493SOL     OW 1969   0.211   2.985   0.301 -0.3877  0.3730 -0.5170
  493SOL    HW1 1970   0.179   3.047   0.366  2.3378 -0.2107 -0.0961
  493SOL    HW2 1971   0.224   3.038   0.220  0.2003 -0.9966 -1.2896
  493SOL     MW 1972   0.208   3.000   0.299  0.0495  0.1153 -0.5634
  494SOL     OW 1973   0.421   2.453   1.793 -0.3737 -0.1656  0.3095
  494SOL    HW1 1974   0.417   2.360   1.821  2.2834 -0.6816 -1.5328
  494SOL    HW2 1975   0.490   2.457   1.725  2.1303  2.7905 -2.1738
  494SOL     MW 1976   0.430   2.441   1.788  0.3072  0.1563 -0.2612
  495SOL     OW 1977   2.917   1.681   2.601  0.8347  0.1808  0.4361
  495SOL    HW1 1978   2.920   1.776   2.577  1.2643 -0.7881  2.8011
  495SOL    HW2 1979   2.915   1.669   2.697 -0.1723 -0.0748 -3.3292
  495SOL     MW 1980   2.917   1.692   2.610  0.7585  0.0192  0.2513
  496SOL     OW 1981   2.919   2.289   2.672  0.0184 -0.1195 -0.4538
  496SOL    HW1 1982   2.947   2.204   2.713 -0.2066 -0.6459  2.0204
  496SOL    HW2 1983   2.972   2.368   2.686 -1.9087 -1.4630  2.8817
  496SOL     MW 1984   2.930   2.289   2.679 -0.2656 -0.3662  0.3127
  497SOL     OW 1985   1.551   2.267   2.636 -0.7290  0.1614  0.0487
  497SOL    HW1 1986   1.525   2.212   2.562  1.6043  0.6949 -1.9034
  497SOL    HW2 1987   1.548   2.210   2.716 -0.0070  1.0551  1.6668
  497SOL     MW 1988   1.547   2.252   2.637 -0.3259  0.3497  0.0046
  498SOL     OW 1989   1.552   2.739   2.387 -0.2442  0.2929 -0.1973
  498SOL    HW1 1990   1.527   2.656   2.351  0.5931  1.3794  1.8516
  498SOL    HW2 1991   1.638   2.727   2.429  1.6897 -1.3026  0.5609
  498SOL     MW 1992   1.560   2.726   2.388  0.1214  0.2257  0.1730
  499SOL     OW 1993   0.938   0.090   0.023 -0.2848  0.0725  0.7988
  499SOL    HW1 1994   0.880   0.148   0.077 -2.6843 -0.1961 -1.4471
  499SOL    HW2 1995   0.953   0.016   0.074  1.6153  1.9592 -1.3501
  499SOL     MW 1996   0.933   0.088   0.037 -0.3507  0.2860  0.2189
  500SOL     OW 1997   1.145   2.556   2.789 -0.2379  0.1970  0.8721
  500SOL    HW1 1998   1.160   2.487   2.858 -1.3241 -2.2478 -0.0844
  500SOL    HW2 1999   1.055   2.579   2.821 -1.5245  0.0410  0.5862
  500SOL     MW 2000   1.135   2.550   2.803 -0.5509 -0.1462  0.7082
  501SOL     OW 2001   1.760   2.228   3.083 -0.2652  0.5097  0.7251
  501SOL    HW1 2002   1.750   2.299   3.155  1.5350 -2.3177  1.3901
  501SOL    HW2 2003   1.856   2.214   3.073  2.0223 -0.0023  3.4430
  501SOL     MW 2004   1.772   2.236   3.091  0.2741  0.0691  1.1714
  502SOL     OW 2005   0.088   2.807   2.962  0.1363  0.2990 -0.4491
  502SOL    HW1 2006   0.048   2.739   2.915 -0.1649 -1.2402 -1.8199
  502SOL    HW2 2007   0.153   2.848   2.905  0.5041 -0.5242  3.7807
  502SOL     MW 2008   0.091   2.804   2.949  0.1451 -0.0127 -0.0719
  503SOL     OW 2009   1.118   2.692   2.098  0.1604  0.5509  0.5971
  503SOL    HW1 2010   1.156   2.694   2.008  1.1650 -2.8058 -1.3919
  503SOL    HW2 2011   1.080   2.779   2.120  1.2287  0.4376 -0.4187
  503SOL     MW 2012   1.118   2.703   2.089  0.4339  0.0930  0.2006
  504SOL     OW 2013   3.096   2.704   2.093  0.1600  0.0010  0.4745
  504SOL    HW1 2014   3.153   2.628   2.077 -1.1198 -1.8717  2.4057
  504SOL    HW2 2015   3.011   2.672   2.109 -0.8342  2.2012 -0.9282
  504SOL     MW 2016   3.093   2.690   2.093 -0.1400  0.0442  0.5442
  505SOL     OW 2017   1.724   2.624   2.838  0.1387  0.5448 -0.5573
  505SOL    HW1 2018   1.757   2.622   2.746 -0.5417 -1.6775 -2.2738
  505SOL    HW2 2019   1.657   2.696   2.830  0.0088  1.9272 -2.7088
  505SOL     MW 2020   1.720   2.633   2.825  0.0318  0.4340 -1.0676
  506SOL     OW 2021   1.578   3.082   2.867 -0.0746 -0.1676 -0.4874
  506SOL    HW1 2022   1.644   3.059   2.935 -0.7700  0.6399  0.0937
  506SOL    HW2 2023   1.642   3.079   2.792  1.6013  0.4211  1.4121
  506SOL     MW 2024   1.595   3.079   2.866  0.0548  0.0166 -0.1601
  507SOL     OW 2025   0.894   2.672   2.831  0.6614  0.8635 -0.3643
  507SOL    HW1 2026   0.870   2.761   2.804 -2.7520  2.7901 -0.4466
  507SOL    HW2 2027   0.807   2.629   2.801 -1.5132  2.5940 -1.7273
  507SOL     MW 2028   0.879   2.678   2.824 -0.0759  1.3460 -0.5550
  508SOL     OW 2029   1.127   2.091   2.475 -0.0442  0.0240 -0.0055
  508SOL    HW1 2030   1.184   2.064   2.543  0.2303 -1.2512  0.4958
  508SOL    HW2 2031   1.092   2.186   2.505  0.4181  0.9377 -0.1209
  508SOL     MW 2032   1.130   2.100   2.488  0.0530 -0.0237  0.0454
  509SOL     OW 2033   0.645   2.606   2.730  0.3878 -0.1035 -0.5420
  509SOL    HW1 2034   0.653   2.568   2.643 -0.7913  1.4899 -0.4728
  509SOL    HW2 2035   0.547   2.604   2.743  1.6410  1.9973 -0.8094
  509SOL     MW 2036   0.633   2.601   2.720  0.3976  0.3839 -0.5681
  510SOL     OW 2037   1.492   2.596   1.657  0.1935 -0.6783  0.3240
  510SOL    HW1 2038   1.521   2.682   1.649 -1.1937  1.6216  2.4832
  510SOL    HW2 2039   1.437   2.601   1.735  2.4038 -0.6180  0.4900
  510SOL     MW 2040   1.489   2.608   1.666  0.3021 -0.3669  0.6308
  511SOL     OW 2041   0.433   2.627   2.454  0.7346  0.0401  0.0048
  511SOL    HW1 2042   0.517   2.569   2.454 -3.3326  1.6564  1.8792
  511SOL    HW2 2043   0.444   2.673   2.366 -0.8600 -0.7408 -0.6892
  511SOL     MW 2044   0.446   2.625   2.442 -0.0124  0.1503  0.1606
  512SOL     OW 2045   0.989   2.007   2.795  0.6290 -0.4484  0.4333
  512SOL    HW1 2046   0.920   2.036   2.852  0.1895  0.7123 -0.2051
  512SOL    HW2 2047   0.998   1.917   2.823 -1.3589  0.0142  1.0246
  512SOL     MW 2048   0.981   1.999   2.806  0.3087 -0.2342  0.4271
  513SOL     OW 2049   1.579   2.475   2.294  0.3904  0.2302  0.0856
  513SOL    HW1 2050   1.661   2.453   2.246  1.8542 -1.5634 -0.5857
  513SOL    HW2 2051   1.582   2.433   2.381 -2.0937 -1.1638  1.0114
  513SOL     MW 2052   1.590   2.467   2.299  0.2558 -0.1904  0.1192
  514SOL     OW 2053   0.282   2.482   2.633  0.4873 -0.2465  0.1483
  514SOL    HW1 2054   0.339   2.550   2.591 -1.5048 -0.4803  0.5370
  514SOL    HW2 2055   0.328   2.480   2.724  1.2396  1.6113  1.5522
  514SOL     MW 2056   0.295   2.491   2.640  0.3237 -0.0322  0.3848
  515SOL     OW 2057   1.153   2.016   2.018  0.4071 -0.1082 -0.1413
  515SOL    HW1 2058   1.146   2.102   1.969  1.7707  1.1552 -1.9371
  515SOL    HW2 2059   1.251   2.021   2.036  1.8051 -3.1536  0.3787
  515SOL     MW 2060   1.165   2.028   2.014  0.7715 -0.3433 -0.3096
  516SOL     OW 2061   1.458   2.532   3.104 -0.7641 -0.0321 -0.6552
  516SOL    HW1 2062   1.506   2.498   3.029 -0.2899  1.2570 -0.6509
  516SOL    HW2 2063   1.396   2.589   3.054 -0.1994 -0.2512  0.2934
  516SOL     MW 2064   1.456   2.535   3.087 -0.6270  0.1091 -0.5295
  517SOL     OW 2065   0.569   2.433   2.101 -0.0160 -0.0470 -0.4356
  517SOL    HW1 2066   0.502   2.493   2.069 -1.1605 -1.1411  1.6222
  517SOL    HW2 2067   0.514   2.354   2.127 -2.2348 -2.8456  2.3982
  517SOL     MW 2068   0.553   2.430   2.100 -0.4598 -0.5606  0.2098
  518SOL     OW 2069   1.746   0.210   3.064  0.3846  0.0608 -0.2425
  518SOL    HW1 2070   1.735   0.214   3.165  0.3604  2.0967  3.0727
  518SOL    HW2 2071   1.748   0.117   3.041 -3.3691 -1.1523  1.8674
  518SOL     MW 2072   1.745   0.198   3.074 -0.1139  0.1694  0.4733
  519SOL     OW 2073   0.736   2.335   1.781  0.1055  0.0822 -0.3600
  519SOL    HW1 2074   0.771   2.250   1.813 -1.6080 -1.8618  1.6385
  519SOL    HW2 2075   0.758   2.323   1.690 -1.1228  2.8416  0.3555
  519SOL     MW 2076   0.744   2.322   1.773 -0.2826  0.1898 -0.0019
  520SOL     OW 2077   1.253   2.111   2.972  0.9337 -0.0809 -0.0601
  520SOL    HW1 2078   1.170   2.072   2.964  2.0484 -0.6091  1.4445
  520SOL    HW2 2079   1.299   2.092   3.049  1.6258  0.1586 -0.4647
  520SOL     MW 2080   1.248   2.104   2.981  1.1721 -0.1190  0.0850
  521SOL     OW 2081   1.745   2.033   2.177 -0.6455 -0.2266 -0.2466
  521SOL    HW1 2082   1.804   2.077   2.109 -0.9571 -1.6041 -0.1238
  521SOL    HW2 2083   1.742   1.938   2.158 -0.5174 -1.4289  3.3924
  521SOL     MW 2084   1.753   2.026   2.166 -0.6697 -0.5670  0.2497
  522SOL     OW 2085   2.890   2.542   2.233  0.3705 -0.1051 -0.3449
  522SOL    HW1 2086   2.951   2.465   2.228  0.9169 -0.1931  1.4847
  522SOL    HW2 2087   2.934   2.597   2.295  0.8825 -0.0957  4.0421
  522SOL     MW 2088   2.903   2.539   2.241  0.5101 -0.1155  0.4753
  523SOL     OW 2089   0.956   1.528   2.193 -0.6746 -0.0742  0.1806
  523SOL    HW1 2090   0.880   1.534   2.137  0.7403 -1.8737 -0.4630
  523SOL    HW2 2091   0.992   1.452   2.149  0.2552 -1.8653 -0.0767
  523SOL     MW 2092   0.951   1.519   2.180 -0.3652 -0.5480  0.0618
  524SOL     OW 2093   0.687   2.427   2.954 -0.0825 -0.1517  0.8726
  524SOL    HW1 2094   0.708   2.451   2.863 -0.6355  0.1304 -3.3451
  524SOL    HW2 2095   0.714   2.329   2.955 -3.0024 -2.0526 -1.1095
  524SOL     MW 2096   0.693   2.417   2.942 -0.5407 -0.3653  0.0546
  525SOL     OW 2097   0.324   2.288   2.095 -0.0195 -0.0435 -0.0145
  525SOL    HW1 2098   0.314   2.211   2.145 -0.6551 -0.1826  0.9065
  525SOL    HW2 2099   0.336   2.255   2.010  0.1336  0.6959  3.2937
  525SOL     MW 2100   0.324   2.274   2.090 -0.0832  0.0357  0.5435
  526SOL     OW 2101   0.644   2.039   1.997 -0.2151  0.9525  0.4833
  526SOL    HW1 2102   0.691   2.055   1.914  2.6306 -0.6445  1.7769
  526SOL    HW2 2103   0.643   2.116   2.053  1.0739 -2.0455  0.8614
  526SOL     MW 2104   0.650   2.051   1.993  0.3304  0.3463  0.7039
  527SOL     OW 2105   1.424   2.016   2.050 -0.7203  0.1885 -0.3494
  527SOL    HW1 2106   1.421   2.007   2.145 -0.9684 -3.1768 -2.6201
  527SOL    HW2 2107   1.443   1.926   2.015 -2.0800  0.4873  0.7891
  527SOL     MW 2108   1.426   2.003   2.058 -0.9324 -0.2161 -0.4988
  528SOL     OW 2109   0.673   2.915   2.855 -0.2195 -0.2663  0.2992
  528SOL    HW1 2110   0.685   2.986   2.918 -2.4921 -1.1567  1.6773
  528SOL    HW2 2111   0.596   2.939   2.800  0.6391 -1.3586  0.1967
  528SOL     MW 2112   0.664   2.927   2.856 -0.4061 -0.5279  0.4675
  529SOL     OW 2113   1.090   2.242   1.878 -0.2706  0.4485 -0.7536
  529SOL    HW1 2114   1.070   2.280   1.966 -1.9253  0.5410  2.8439
  529SOL    HW2 2115   1.078   2.307   1.816 -0.6548 -1.9664 -0.5733
  529SOL     MW 2116   1.086   2.255   1.882 -0.5396  0.1421 -0.2552
  530SOL     OW 2117   1.160   2.413   3.009  0.5168  0.6147 -0.3930
  530SOL    HW1 2118   1.128   2.461   3.089 -1.0591  1.2690  0.1329
  530SOL    HW2 2119   1.194   2.324   3.031 -1.1317 -0.9668 -1.1495
  530SOL     MW 2120   1.161   2.407   3.022  0.0914  0.4923 -0.4234
  531SOL     OW 2121   0.901   1.879   2.577  0.1481  0.1826 -0.2988
  531SOL    HW1 2122   0.931   1.952   2.635  1.2838 -1.2853 -3.7073
  531SOL    HW2 2123   0.902   1.801   2.632  1.9906 -0.8259 -0.1562
  531SOL     MW 2124   0.905   1.879   2.592  0.5411 -0.1441 -0.7297
  532SOL     OW 2125   1.758   0.297   2.800 -0.4974  0.0567 -0.2764
  532SOL    HW1 2126   1.738   0.268   2.889 -1.7297  0.8279 -0.8564
  532SOL    HW2 2127   1.826   0.357   2.817  0.1539 -2.2129 -1.3739
  532SOL     MW 2128   1.764   0.301   2.814 -0.5740 -0.1410 -0.4977
  533SOL     OW 2129   1.939   2.630   3.041  0.4238  0.1963  0.0749
  533SOL    HW1 2130   1.909   2.575   3.115  0.5306  0.1025  1.3211
  533SOL    HW2 2131   1.861   2.623   2.974  2.2805 -0.2742  1.6076
  533SOL     MW 2132   1.925   2.621   3.042  0.6829  0.1219  0.4415
  534SOL     OW 2133   1.747   2.412   2.517 -0.0112 -0.5465  0.6074
  534SOL    HW1 2134   1.685   2.357   2.570 -1.6745  1.5721  0.9519
  534SOL    HW2 2135   1.833   2.392   2.564 -0.3868  1.1925 -0.1124
  534SOL     MW 2136   1.750   2.402   2.530 -0.2802 -0.0375  0.5579
  535SOL     OW 2137   1.909   2.372   1.849  0.5977  0.2917  0.2012
  535SOL    HW1 2138   1.847   2.406   1.782  0.2379  0.1240 -0.2082
  535SOL    HW2 2139   1.998   2.412   1.834  0.3875  0.0032  1.9034
  535SOL     MW 2140   1.913   2.382   1.838  0.5225  0.2315  0.3717
  536SOL     OW 2141   0.457   1.862   2.050  0.1637 -0.6514  0.0703
  536SOL    HW1 2142   0.439   1.793   1.975  0.4573  0.4229 -1.4331
  536SOL    HW2 2143   0.538   1.908   2.032  1.4790 -0.5208  3.4781
  536SOL     MW 2144   0.465   1.859   2.038  0.3760 -0.4924  0.3216
  537SOL     OW 2145   1.074   0.218   2.851  0.3777 -0.3963  0.0542
  537SOL    HW1 2146   0.987   0.241   2.873  2.3520 -0.4493 -1.2230
  537SOL    HW2 2147   1.092   0.240   2.757 -0.6101  0.2288  0.1464
  537SOL     MW 2148   1.065   0.224   2.841  0.5079 -0.3208 -0.1021
  538SOL     OW 2149   1.339   0.067   3.055 -0.1395 -0.0837  0.8602
  538SOL    HW1 2150   1.309   0.154   3.026 -1.3734 -0.3399  1.0218
  538SOL    HW2 2151   1.418   0.051   3.005 -1.8255  2.0224  1.9301
  538SOL     MW 2152   1.345   0.076   3.045 -0.5247  0.1604  1.0227
  539SOL     OW 2153   0.726   2.791   2.484 -0.4112  0.2685 -0.0231
  539SOL    HW1 2154   0.777   2.781   2.561 -1.4979 -1.0099 -0.7356
  539SOL    HW2 2155   0.667   2.719   2.486  0.7500 -0.9996 -0.9096
  539SOL     MW 2156   0.725   2.780   2.494 -0.4013 -0.0675 -0.2341
  540SOL     OW 2157   0.424   2.474   2.860 -0.0910  0.4143  0.3899
  540SOL    HW1 2158   0.511   2.468   2.902 -1.0486 -0.1395  1.3668
  540SOL    HW2 2159   0.371   2.457   2.940 -1.1494  2.9624  1.0149
  540SOL     MW 2160   0.428   2.471   2.876 -0.3570  0.6775  0.6013
  541SOL     OW 2161   0.177   2.904   2.204  0.0321  0.3169  0.0883
  541SOL    HW1 2162   0.140   2.843   2.141 -3.4644 -2.1542  0.4849
  541SOL    HW2 2163   0.211   2.857   2.283 -1.2024  1.0431  3.1865
  541SOL     MW 2164   0.176   2.890   2.206 -0.5921  0.0867  0.5494
  542SOL     OW 2165   1.018   2.286   2.653  0.1619  0.2761 -0.1258
  542SOL    HW1 2166   1.016   2.215   2.715 -0.7865  1.3549  0.8079
  542SOL    HW2 2167   1.040   2.365   2.703  0.1621 -2.3128 -1.1829
  542SOL     MW 2168   1.021   2.287   2.668  0.0368  0.0769 -0.1421
  543SOL     OW 2169   1.530   2.432   2.855  1.0458  0.0942  0.3209
  543SOL    HW1 2170   1.514   2.401   2.762  1.0862  1.6226  0.3295
  543SOL    HW2 2171   1.609   2.494   2.850  0.6228  0.7307 -1.9343
  543SOL     MW 2172   1.538   2.436   2.842  0.9953  0.3798  0.0245
  544SOL     OW 2173   0.712   0.206   2.764 -0.1500  0.5825 -0.4646
  544SOL    HW1 2174   0.617   0.238   2.773 -1.7825  1.4618  2.5618
  544SOL    HW2 2175   0.724   0.129   2.709  0.0175  0.5430 -0.0059
  544SOL     MW 2176   0.701   0.200   2.758 -0.3433  0.6933 -0.0047
  545SOL     OW 2177   1.575   2.195   2.339 -0.2550 -0.1664  0.1902
  545SOL    HW1 2178   1.569   2.273   2.288  0.6111  0.0010  1.1566
  545SOL    HW2 2179   1.638   2.132   2.300 -1.5955 -2.7434  1.5761
  545SOL     MW 2180   1.583   2.197   2.327 -0.3176 -0.4843  0.5006
  546SOL     OW 2181   3.036   1.985   0.142 -0.1928  0.0507  0.0588
  546SOL    HW1 2182   3.024   2.077   0.109 -1.0885  1.3200  0.9488
  546SOL    HW2 2183   3.128   1.958   0.118  0.1575  0.1568 -0.8916
  546SOL     MW 2184   3.047   1.994   0.134 -0.2648  0.2321  0.0508
  547SOL     OW 2185   0.225   3.084   0.025  0.6904  0.8877  0.4141
  547SOL    HW1 2186   0.271   3.101  -0.053 -0.0785  0.8464 -3.8752
  547SOL    HW2 2187   0.131   3.072   0.004  2.1306  1.2724 -0.0457
  547SOL     MW 2188   0.219   3.085   0.012  0.7789  0.9330 -0.2125
  548SOL     OW 2189   0.304   2.514   0.237  0.1786 -0.2571  0.8949
  548SOL    HW1 2190   0.286   2.584   0.171 -0.8747  1.3195 -1.1635
  548SOL    HW2 2191   0.236   2.451   0.235 -1.5757  0.8045  1.9058
  548SOL     MW 2192   0.293   2.515   0.228 -0.1918  0.0910  0.7567
  549SOL     OW 2193   0.827   1.892   2.129 -0.5190 -0.0351 -0.2109
  549SOL    HW1 2194   0.766   1.943   2.076 -2.8553  2.7217  0.8253
  549SOL    HW2 2195   0.779   1.873   2.215 -2.5728  0.2931 -1.1623
  549SOL     MW 2196   0.813   1.896   2.134 -1.0982  0.3719 -0.1997
  550SOL     OW 2197   1.781   1.739   2.569  0.1206  0.1822 -1.1751
  550SOL    HW1 2198   1.791   1.717   2.475 -1.1590  1.3075 -1.3617
  550SOL    HW2 2199   1.746   1.827   2.592 -1.4737  2.5715 -0.0616
  550SOL     MW 2200   1.778   1.747   2.560 -0.2586  0.6459 -1.0528
  551SOL     OW 2201   0.835   2.287   0.202  0.5133  0.0267 -0.3627
  551SOL    HW1 2202   0.932   2.288   0.201  0.4773  0.6272  0.8981
  551SOL    HW2 2203   0.799   2.209   0.159 -0.0281 -0.1350 -0.0930
  551SOL     MW 2204   0.843   2.277   0.196  0.4371  0.0846 -0.1608
  552SOL     OW 2205   1.761   1.681   2.302 -0.1105  0.0952 -0.5856
  552SOL    HW1 2206   1.669   1.688   2.305  2.9554 -1.4002  2.6022
  552SOL    HW2 2207   1.776   1.643   2.213  1.4479  2.1705  4.7351
  552SOL     MW 2208   1.751   1.677   2.290  0.4997  0.1717  0.5370
  553SOL     OW 2209   1.255   2.316   1.510  0.5069  0.1093  0.3696
  553SOL    HW1 2210   1.293   2.226   1.524 -0.3534  2.1003  1.4807
  553SOL    HW2 2211   1.320   2.366   1.457 -0.0382 -0.8844 -1.4505
  553SOL     MW 2212   1.269   2.311   1.505  0.3215  0.2409  0.2761
  554SOL     OW 2213   0.507   2.936   2.630 -0.2742 -0.0364  0.1664
  554SOL    HW1 2214   0.490   3.013   2.568 -0.0686  0.3403  2.7080
  554SOL    HW2 2215   0.589   2.893   2.593 -0.6113  1.9198 -0.8658
  554SOL     MW 2216   0.516   2.940   2.617 -0.2915  0.2714  0.3655
  555SOL     OW 2217   0.646   2.487   2.484 -0.4655  0.3253 -0.5229
  555SOL    HW1 2218   0.585   2.409   2.515 -0.8224 -1.4466 -0.1363
  555SOL    HW2 2219   0.731   2.457   2.453  1.4325 -0.4265 -1.4607
  555SOL     MW 2220   0.649   2.472   2.484 -0.2622 -0.0077 -0.5956
  556SOL     OW 2221   0.979   1.860   0.106  0.0422 -0.5223 -0.3150
  556SOL    HW1 2222   1.033   1.879   0.027  1.5291 -2.4051 -2.0667
  556SOL    HW2 2223   1.040   1.874   0.185  3.0681 -0.3857 -0.2780
  556SOL     MW 2224   0.994   1.864   0.106  0.6377 -0.7527 -0.5412
  557SOL     OW 2225   0.948   2.665   0.501  0.2573 -0.9399  0.0561
  557SOL    HW1 2226   1.006   2.616   0.448 -1.4010  1.8478 -0.0031
  557SOL    HW2 2227   0.893   2.721   0.436 -1.3854  0.2397 -0.1987
  557SOL     MW 2228   0.948   2.666   0.485 -0.1782 -0.4164  0.0147
  558SOL     OW 2229   0.200   2.338   3.006  0.1034 -0.0575 -0.3783
  558SOL    HW1 2230   0.140   2.265   2.994  0.4646  1.1402  0.9925
  558SOL    HW2 2231   0.156   2.382   3.083 -1.7018 -2.0335 -1.4274
  558SOL     MW 2232   0.186   2.334   3.014 -0.0871 -0.1601 -0.3358
  559SOL     OW 2233   1.020   2.341   2.117  0.7727  0.7056  0.2577
  559SOL    HW1 2234   1.073   2.392   2.177  1.7443 -1.6760  2.6897
  559SOL    HW2 2235   1.011   2.250   2.157  1.2624 -0.7937  0.9178
  559SOL     MW 2236   1.026   2.336   2.130  0.9655  0.1936  0.6657
  560SOL     OW 2237   1.997   2.886   0.013 -0.1431 -0.2804 -0.0740
  560SOL    HW1 2238   2.057   2.933  -0.053 -2.1131 -0.3994  1.0729
  560SOL    HW2 2239   1.968   2.795  -0.020  2.8107 -2.2194 -0.5957
  560SOL     MW 2240   2.001   2.880  -0.000 -0.0133 -0.5520  0.0085
  561SOL     OW 2241   0.398   2.172   0.039 -0.4078 -0.4013 -0.1413
  561SOL    HW1 2242   0.335   2.224  -0.011  1.2965 -0.2598  1.2061
  561SOL    HW2 2243   0.441   2.243   0.093 -0.4559 -0.7503 -1.1282
  561SOL     MW 2244   0.395   2.188   0.039 -0.1893 -0.4286 -0.0938
  562SOL     OW 2245   0.708   2.199   2.213  0.6825 -0.0171  0.5907
  562SOL    HW1 2246   0.727   2.295   2.230  0.2421  1.0503  1.6856
  562SOL    HW2 2247   0.798   2.155   2.220 -1.4819  0.6386  2.9776
  562SOL     MW 2248   0.722   2.206   2.216  0.3388  0.2103  1.0501
  563SOL     OW 2249   1.222   0.312   0.569  0.1357 -0.2195 -0.2257
  563SOL    HW1 2250   1.168   0.260   0.510  1.5103  1.0959  0.0405
  563SOL    HW2 2251   1.239   0.262   0.647 -1.0273  1.5232  2.7040
  563SOL     MW 2252   1.217   0.298   0.572  0.1636  0.1839  0.1960
  564SOL     OW 2253   1.142   2.503   2.296  0.4756 -0.0015  0.2684
  564SOL    HW1 2254   1.133   2.572   2.230 -0.7940 -0.2137 -0.0374
  564SOL    HW2 2255   1.139   2.557   2.379  0.4233 -2.9985 -1.2774
  564SOL     MW 2256   1.141   2.520   2.299  0.3012 -0.4249  0.0241
  565SOL     OW 2257   2.820   2.755   2.658 -0.2189  0.6153  0.0375
  565SOL    HW1 2258   2.845   2.844   2.681 -1.5877  0.1802  0.2251
  565SOL    HW2 2259   2.757   2.745   2.587  2.0784  0.2394  2.0640
  565SOL     MW 2260   2.815   2.765   2.652 -0.0964  0.5083  0.3296
  566SOL     OW 2261   2.133   1.845   2.369 -0.1356 -0.2579  0.7054
  566SOL    HW1 2262   2.182   1.800   2.301 -1.6640  0.1543  0.1117
  566SOL    HW2 2263   2.197   1.923   2.385 -1.8603 -1.1399 -2.0889
  566SOL     MW 2264   2.148   1.849   2.362 -0.5648 -0.3199  0.2584
  567SOL     OW 2265   1.187   2.939   3.033 -0.2078  0.3584  0.7119
  567SOL    HW1 2266   1.243   3.018   3.038  1.3624  0.0123 -3.6161
  567SOL    HW2 2267   1.243   2.860   2.994  0.7734  1.1830 -1.5691
  567SOL     MW 2268   1.202   2.939   3.028  0.1288  0.4215 -0.1601
  568SOL     OW 2269   1.601   2.113   2.899  0.3854 -0.5355  0.0506
  568SOL    HW1 2270   1.647   2.164   2.962 -2.7549 -1.5180  1.3263
  568SOL    HW2 2271   1.662   2.067   2.847  1.4255 -0.5241 -1.7958
  568SOL     MW 2272   1.615   2.114   2.901  0.1083 -0.6637 -0.0247
  569SOL     OW 2273   0.170   2.308   2.464 -0.4368 -0.0977 -0.1206
  569SOL    HW1 2274   0.097   2.339   2.408  1.1735 -0.0495 -0.8157
  569SOL    HW2 2275   0.209   2.378   2.522  0.7126 -2.9362 -0.9916
  569SOL     MW 2276   0.165   2.321   2.464 -0.0727 -0.4659 -0.3272
  570SOL     OW 2277   1.502   0.364   0.509  0.7306 -0.4299  0.0444
  570SOL    HW1 2278   1.405   0.366   0.532 -0.2860  0.8398  1.8111
  570SOL    HW2 2279   1.549   0.374   0.592  0.5931 -2.4825  1.2974
  570SOL     MW 2280   1.496   0.366   0.523  0.5784 -0.5332  0.4428
  571SOL     OW 2281   1.461   2.444   2.003 -0.8168 -0.2427  0.0909
  571SOL    HW1 2282   1.459   2.443   2.098 -1.6219  1.6321  0.2141
  571SOL    HW2 2283   1.484   2.354   1.976  1.4820 -2.4480 -0.6369
  571SOL     MW 2284   1.463   2.432   2.012 -0.6197 -0.2863  0.0111
  572SOL     OW 2285   1.070   2.584   0.113 -0.5569 -0.0506  0.3640
  572SOL    HW1 2286   1.087   2.673   0.081  1.7056 -1.1403 -1.5544
  572SOL    HW2 2287   0.967   2.572   0.106  0.8623 -1.7522 -0.4776
  572SOL     MW 2288   1.059   2.594   0.108 -0.0711 -0.4189 -0.0002
  573SOL     OW 2289   1.119   2.278   0.199  0.6709 -0.0600  0.4867
  573SOL    HW1 2290   1.208   2.279   0.168  1.5514  1.4591 -0.1960
  573SOL    HW2 2291   1.127   2.359   0.258  0.5740  1.2032  0.1373
  573SOL     MW 2292   1.132   2.289   0.203  0.7743  0.3071  0.3505
  574SOL     OW 2293   1.127   2.510   0.368  0.0649 -0.1317 -0.0800
  574SOL    HW1 2294   1.218   2.541   0.383  0.8972  1.4750  0.1465
  574SOL    HW2 2295   1.111   2.533   0.271  0.5080 -0.3245  0.4891
  574SOL     MW 2296   1.137   2.517   0.357  0.2332  0.0549  0.0250
  575SOL     OW 2297   3.062   2.197   1.814  0.3386 -0.1835 -0.2761
  575SOL    HW1 2298   3.083   2.128   1.748 -1.2708 -0.7981  0.1843
  575SOL    HW2 2299   3.141   2.251   1.817  0.7968  2.2775  1.0439
  575SOL     MW 2300   3.075   2.195   1.806  0.1867  0.0601 -0.0412
  576SOL     OW 2301   2.787   1.780   2.101 -0.0997  0.8692 -0.2785
  576SOL    HW1 2302   2.819   1.811   2.017 -1.2942 -2.5064 -0.0097
  576SOL    HW2 2303   2.695   1.756   2.086  1.1834  1.6279 -0.5035
  576SOL     MW 2304   2.779   1.781   2.088 -0.0880  0.5239 -0.2727
  577SOL     OW 2305   2.042   0.206   0.089 -0.4297 -0.1115 -0.3391
  577SOL    HW1 2306   1.984   0.231   0.020 -1.1627 -0.5693 -2.3941
  577SOL    HW2 2307   1.987   0.182   0.163 -0.8249 -0.0532  0.3067
  577SOL     MW 2308   2.027   0.206   0.089 -0.5785 -0.1642 -0.5250
  578SOL     OW 2309   1.943   2.043   2.354  0.7444  0.6257  0.7124
  578SOL    HW1 2310   1.873   2.010   2.290 -1.7060 -2.2844  1.8632
  578SOL    HW2 2311   2.002   1.968   2.364  0.2670 -1.9841 -0.8742
  578SOL     MW 2312   1.942   2.029   2.347  0.3581 -0.1026  0.6549
  579SOL     OW 2313   0.904   2.384   2.433 -0.0535  0.1835  0.5866
  579SOL    HW1 2314   0.930   2.349   2.516 -1.8213  0.9904 -1.2367
  579SOL    HW2 2315   0.982   2.428   2.400 -1.7497  2.7864 -1.8611
  579SOL     MW 2316   0.918   2.385   2.440 -0.5106  0.6334  0.0231
  580SOL     OW 2317   0.923   2.881   3.087  0.0340 -0.4135  0.6737
  580SOL    HW1 2318   1.018   2.895   3.071 -0.1025 -0.2986 -0.5901
  580SOL    HW2 2319   0.893   2.826   3.011 -1.5146 -1.7843  1.2445
  580SOL     MW 2320   0.932   2.876   3.075 -0.1884 -0.5792  0.5823
  581SOL     OW 2321   1.130   2.483   1.689 -0.1005  0.7333 -0.0058
  581SOL    HW1 2322   1.204   2.504   1.752 -1.3963 -0.2688 -0.9794
  581SOL    HW2 2323   1.180   2.436   1.614  3.3026  0.3015 -2.3392
  581SOL     MW 2324   1.146   2.479   1.688  0.1775  0.5441 -0.4421
  582SOL     OW 2325   0.055   2.787   2.607 -0.5097  0.1261  0.1380
  582SOL    HW1 2326  -0.013   2.845   2.635  1.3133  1.5174 -1.3203
  582SOL    HW2 2327   0.130   2.843   2.589  1.1303  0.3166  0.7906
  582SOL     MW 2328   0.056   2.802   2.608 -0.0528  0.3348  0.0317
  583SOL     OW 2329   1.977   2.393   2.643 -0.3988  0.1971 -0.3036
  583SOL    HW1 2330   2.063   2.421   2.604  1.7436  0.2798 -0.2726
  583SOL    HW2 2331   1.992   2.294   2.653 -1.9747 -0.7251  1.1305
  583SOL     MW 2332   1.990   2.384   2.639 -0.3241  0.0863 -0.1103
  584SOL     OW 2333   0.106   1.881   2.251  0.1242  0.4655  0.2290
  584SOL    HW1 2334   0.157   1.838   2.185  0.7104  1.1298  3.4259
  584SOL    HW2 2335   0.138   1.972   2.267  0.3900 -0.1930  1.9409
  584SOL     MW 2336   0.117   1.887   2.244  0.2366  0.4662  0.8767
  585SOL     OW 2337   1.598   2.646   0.238  0.2617 -0.0024  0.5865
  585SOL    HW1 2338   1.540   2.630   0.162  1.5872 -0.6565 -1.6976
  585SOL    HW2 2339   1.534   2.632   0.317 -0.2526  0.1902  0.4285
  585SOL     MW 2340   1.582   2.642   0.238  0.3687 -0.0633  0.2643
  586SOL     OW 2341   1.363   2.862   2.564  0.2316 -0.2503 -0.0600
  586SOL    HW1 2342   1.427   2.807   2.508  0.4772 -0.1248  2.8740
  586SOL    HW2 2343   1.393   2.948   2.553  0.4034 -0.5091 -0.1298
  586SOL     MW 2344   1.375   2.866   2.555  0.2867 -0.2679  0.3179
  587SOL     OW 2345   1.341   1.597   2.115  0.0779 -0.5158  0.2266
  587SOL    HW1 2346   1.313   1.530   2.184 -0.4840 -0.0388 -0.1369
  587SOL    HW2 2347   1.316   1.559   2.031 -1.3174  0.6704  2.1709
  587SOL     MW 2348   1.334   1.583   2.113 -0.1803 -0.2963  0.4352
  588SOL     OW 2349   1.314   2.073   2.688  0.2699 -0.3561 -0.4531
  588SOL    HW1 2350   1.356   1.985   2.672 -1.0321 -1.1216 -1.9043
  588SOL    HW2 2351   1.287   2.069   2.784 -0.7195 -1.2326  1.3014
  588SOL     MW 2352   1.316   2.061   2.699 -0.0324 -0.5727 -0.4131
  589SOL     OW 2353   1.370   1.996   0.104  0.2444 -0.0166 -0.1168
  589SOL    HW1 2354   1.404   2.080   0.134 -0.6632  0.5593  0.4992
  589SOL    HW2 2355   1.335   1.944   0.175  0.0170  0.0903  2.0062
  589SOL     MW 2356   1.370   2.000   0.118  0.0946  0.0735  0.2446
  590SOL     OW 2357   0.484   2.769   2.242 -0.2209  0.0330  0.2046
  590SOL    HW1 2358   0.436   2.716   2.174 -1.7288  0.7918  0.8667
  590SOL    HW2 2359   0.568   2.799   2.213  0.7428  1.4585  1.5656
  590SOL     MW 2360   0.489   2.766   2.229 -0.2927  0.3212  0.4715
  591SOL     OW 2361   2.255   0.646   3.096 -0.5101  0.2473 -0.0189
  591SOL    HW1 2362   2.193   0.682   3.040  3.9660  0.9285  1.3850
  591SOL    HW2 2363   2.329   0.671   3.041  0.1178  0.3346 -1.9347
  591SOL     MW 2364   2.257   0.654   3.081  0.1633  0.3487 -0.0864
  592SOL     OW 2365   1.756   2.953   0.774 -0.2869  0.0678  0.0046
  592SOL    HW1 2366   1.758   3.029   0.721  1.5680 -0.7035  2.0425
  592SOL    HW2 2367   1.833   2.899   0.766 -0.0016 -0.4346 -1.6865
  592SOL     MW 2368   1.766   2.956   0.766 -0.0045 -0.1003  0.0504
  593SOL     OW 2369   1.963   0.645   0.830 -0.0055 -0.2965  0.7948
  593SOL    HW1 2370   1.880   0.624   0.781 -1.1206  0.2561  2.4033
  593SOL    HW2 2371   2.014   0.564   0.828  0.8022 -0.2688  0.7677
  593SOL     MW 2372   1.959   0.631   0.824 -0.0461 -0.2199  1.0034
  594SOL     OW 2373   2.779   1.166   1.394 -0.0255 -0.4655 -0.0229
  594SOL    HW1 2374   2.871   1.183   1.394 -1.1569  1.2311  0.6523
  594SOL    HW2 2375   2.759   1.110   1.317  0.4546 -0.8605  0.6398
  594SOL     MW 2376   2.789   1.161   1.384 -0.1115 -0.2938  0.1536
  595SOL     OW 2377   0.449   0.989   0.820  0.5517  0.0897  0.3923
  595SOL    HW1 2378   0.495   1.015   0.743 -0.5841  1.2793 -3.0867
  595SOL    HW2 2379   0.416   1.076   0.855 -0.0355 -0.4843 -0.4674
  595SOL     MW 2380   0.451   1.004   0.815  0.3243  0.1709 -0.1802
  596SOL     OW 2381   2.482   1.313   0.566  0.0444 -0.5460 -0.1577
  596SOL    HW1 2382   2.549   1.362   0.519 -1.3507 -0.7470  1.1976
  596SOL    HW2 2383   2.523   1.299   0.654  1.6557  1.1598  1.3991
  596SOL     MW 2384   2.496   1.317   0.571  0.0729 -0.3475  0.2265
  597SOL     OW 2385   2.191   0.669   1.630 -0.1550 -0.0608 -0.2201
  597SOL    HW1 2386   2.230   0.605   1.692 -2.5107  1.3478 -0.6842
  597SOL    HW2 2387   2.131   0.618   1.579  1.6226 -0.9210  3.8916
  597SOL     MW 2388   2.188   0.654   1.632 -0.2313  0.0116  0.2611
  598SOL     OW 2389   2.559   1.055   2.765 -0.0794  0.3519 -0.2713
  598SOL    HW1 2390   2.575   1.009   2.682  0.9880 -2.4479  1.8543
  598SOL    HW2 2391   2.645   1.073   2.813  1.5061 -0.2132 -0.3379
  598SOL     MW 2392   2.573   1.052   2.761  0.2706 -0.0920  0.0004
  599SOL     OW 2393   2.989   0.393   2.064  0.2855 -0.1873  0.8133
  599SOL    HW1 2394   3.051   0.430   2.126  0.2312  1.0350  0.1877
  599SOL    HW2 2395   2.967   0.468   2.007  0.3076  3.4556  2.5040
  599SOL     MW 2396   2.994   0.408   2.065  0.2812  0.4546  0.9538
  600SOL     OW 2397   1.849   1.599   0.885 -0.5231  0.1307  0.2348
  600SOL    HW1 2398   1.896   1.635   0.958 -0.2068  0.9182 -1.2486
  600SOL    HW2 2399   1.799   1.683   0.867  3.0131  3.6057  0.3693
  600SOL     MW 2400   1.848   1.615   0.892 -0.0148  0.6931  0.0569
  601SOL     OW 2401   2.511   0.761   0.802 -0.0966 -0.1957 -0.2097
  601SOL    HW1 2402   2.510   0.788   0.894 -0.1892  0.1373 -0.4986
  601SOL    HW2 2403   2.433   0.703   0.792 -1.5740 -3.2111  0.1599
  601SOL     MW 2404   2.501   0.757   0.813 -0.3038 -0.5496 -0.1990
  602SOL     OW 2405   2.264   1.953   0.768 -0.5832  0.6199  0.0232
  602SOL    HW1 2406   2.256   1.862   0.740 -1.2262  1.3091 -0.5292
  602SOL    HW2 2407   2.229   2.006   0.693  4.3411  2.6115 -0.8103
  602SOL     MW 2408   2.259   1.948   0.754 -0.0183  0.9736 -0.1597
  603SOL     OW 2409   0.008   1.350   1.849 -0.1612  0.2385  0.8623
  603SOL    HW1 2410   0.043   1.429   1.887  1.0915 -1.1451  2.8666
  603SOL    HW2 2411   0.013   1.285   1.918  0.8799  1.8351  2.2063
  603SOL     MW 2412   0.014   1.352   1.863  0.1414  0.2666  1.3041
  604SOL     OW 2413   2.098   1.549   0.461 -0.7478  0.5125  0.1214
  604SOL    HW1 2414   2.140   1.481   0.511  1.8654  1.8978 -0.5631
  604SOL    HW2 2415   2.028   1.581   0.514  2.4686 -3.6390 -0.6336
  604SOL     MW 2416   2.094   1.544   0.474  0.0213  0.1475 -0.0685
  605SOL     OW 2417   2.523   1.491   0.886 -0.2858  0.4435  0.3849
  605SOL    HW1 2418   2.550   1.532   0.810  0.8470 -0.5984  3.6225
  605SOL    HW2 2419   2.542   1.401   0.876 -0.8233 -0.4872  2.5194
  605SOL     MW 2420   2.529   1.485   0.875 -0.2072  0.1832  1.0937
  606SOL     OW 2421   2.537   1.695   2.024  0.1954  0.3339 -0.0085
  606SOL    HW1 2422   2.453   1.733   1.991  0.2428 -1.5268  0.0153
  606SOL    HW2 2423   2.570   1.639   1.955  1.4784  1.7387  2.5190
  606SOL     MW 2424   2.530   1.692   2.011  0.3710  0.2738  0.3281
  607SOL     OW 2425   2.436   1.052   3.018  0.0153 -0.5645 -0.0555
  607SOL    HW1 2426   2.495   1.052   2.938 -2.3055  1.3797 -0.6957
  607SOL    HW2 2427   2.472   0.999   3.088 -1.8577 -0.0482 -1.9182
  607SOL     MW 2428   2.449   1.045   3.017 -0.5380 -0.2399 -0.3857
  608SOL     OW 2429   1.855   0.286   0.574 -0.0745  0.0417  0.1123
  608SOL    HW1 2430   1.845   0.324   0.485 -2.8536  1.9360 -1.9282
  608SOL    HW2 2431   1.798   0.206   0.576 -0.1463 -2.0854 -0.5589
  608SOL     MW 2432   1.846   0.280   0.562 -0.4507  0.0110 -0.2455
  609SOL     OW 2433   2.067   1.954   3.053  0.2007 -0.3963 -0.3114
  609SOL    HW1 2434   1.988   1.905   3.036  2.5520  0.9573 -1.8569
  609SOL    HW2 2435   2.086   1.933   3.147  0.7847 -0.0833 -0.2324
  609SOL     MW 2436   2.059   1.944   3.063  0.5880 -0.1764 -0.5049
  610SOL     OW 2437   1.812   0.962   1.231  0.3414 -0.3144 -0.5359
  610SOL    HW1 2438   1.815   0.886   1.167 -0.6284 -1.1071  3.0837
  610SOL    HW2 2439   1.717   0.978   1.224 -0.6490  1.2535  0.1960
  610SOL     MW 2440   1.800   0.954   1.222  0.0827 -0.2122  0.0383
  611SOL     OW 2441   2.535   1.688   0.667 -0.0755 -0.3332 -0.0639
  611SOL    HW1 2442   2.535   1.757   0.599  2.9667  1.1418 -0.7999
  611SOL    HW2 2443   2.440   1.672   0.684  0.7970  1.2962 -4.0347
  611SOL     MW 2444   2.522   1.695   0.660  0.4410  0.0764 -0.6850
  612SOL     OW 2445   2.859   2.896   0.369 -0.2731 -0.0866  0.3124
  612SOL    HW1 2446   2.897   2.931   0.452  0.1536  0.1335 -0.6678
  612SOL    HW2 2447   2.930   2.856   0.322  1.5523  2.5334  1.4587
  612SOL     MW 2448   2.874   2.895   0.373  0.0240  0.2881  0.3343
  613SOL     OW 2449   1.453   1.038   0.904  0.0957  0.4136  0.3216
  613SOL    HW1 2450   1.489   1.127   0.908  1.3175 -0.4268 -0.5952
  613SOL    HW2 2451   1.488   0.982   0.976  0.0545 -0.2544  3.2946
  613SOL     MW 2452   1.462   1.042   0.914  0.2515  0.2146  0.5929
  614SOL     OW 2453   1.984   0.531   1.487  0.0323  0.0543  0.1704
  614SOL    HW1 2454   1.951   0.447   1.536  0.1706 -0.8571  0.9703
  614SOL    HW2 2455   1.953   0.535   1.395  0.5058 -0.9768 -1.3608
  614SOL     MW 2456   1.975   0.520   1.481  0.1130 -0.2020  0.0739
  615SOL     OW 2457   2.310   0.773   0.261 -0.3482 -0.0519  0.3130
  615SOL    HW1 2458   2.392   0.725   0.264 -1.1416 -0.9576  0.0550
  615SOL    HW2 2459   2.278   0.735   0.185  0.7434  1.1099  1.3391
  615SOL     MW 2460   2.317   0.762   0.251 -0.3089 -0.0181  0.4143
  616SOL     OW 2461   2.497   0.416   1.674 -0.0250  0.4185  0.1933
  616SOL    HW1 2462   2.553   0.349   1.649  0.5628  2.9092  0.7251
  616SOL    HW2 2463   2.476   0.457   1.586  1.8796 -0.9859 -1.2024
  616SOL     MW 2464   2.502   0.413   1.659  0.3039  0.5618  0.0793
  617SOL     OW 2465   2.788   0.614   1.694 -0.2928 -0.2721 -0.1626
  617SOL    HW1 2466   2.743   0.645   1.774  0.5378 -3.4226 -2.2562
  617SOL    HW2 2467   2.779   0.519   1.687  3.8931 -0.7680 -1.1295
  617SOL     MW 2468   2.781   0.606   1.703  0.3691 -0.7532 -0.5664
  618SOL     OW 2469   2.699   0.360   1.962 -0.2850  0.4954  0.3907
  618SOL    HW1 2470   2.695   0.453   1.932  1.1718 -1.1177 -3.0350
  618SOL    HW2 2471   2.743   0.370   2.048  0.5538  0.1743  1.1739
  618SOL     MW 2472   2.705   0.373   1.969  0.0179  0.2402  0.0420
  619SOL     OW 2473   2.644   0.743   0.042  0.5531  0.0107  0.2490
  619SOL    HW1 2474   2.686   0.825   0.069  0.1498 -1.1564  0.4075
  619SOL    HW2 2475   2.603   0.705   0.118  0.0311  1.1625 -1.8356
  619SOL     MW 2476   2.644   0.749   0.056  0.4310  0.0087 -0.0051
  620SOL     OW 2477   2.216   1.041   0.912  0.2862  0.0484  0.0288
  620SOL    HW1 2478   2.283   1.035   0.839  0.2684  1.7777  0.2255
  620SOL    HW2 2479   2.131   1.004   0.892  0.1902  0.8477 -0.1563
  620SOL     MW 2480   2.214   1.035   0.899  0.2712  0.3820  0.0304
  621SOL     OW 2481   1.565   2.199   1.926  0.3847 -0.0311  0.0445
  621SOL    HW1 2482   1.520   2.122   1.977 -1.7885  0.3115 -0.8628
  621SOL    HW2 2483   1.663   2.186   1.940  2.3248  1.9699 -1.0911
  621SOL     MW 2484   1.572   2.187   1.935  0.3540  0.2781 -0.2251
  622SOL     OW 2485   2.639   0.202   0.242  0.1659  0.1069 -0.0116
  622SOL    HW1 2486   2.726   0.226   0.216  0.4175  0.3171  0.5637
  622SOL    HW2 2487   2.649   0.117   0.290  0.5150  0.2500  0.1467
  622SOL     MW 2488   2.652   0.194   0.245  0.2452  0.1535  0.0852
  623SOL     OW 2489   2.458   2.754   0.843  0.4883 -0.1348 -0.0410
  623SOL    HW1 2490   2.523   2.825   0.826 -0.4475  1.1261  1.0010
  623SOL    HW2 2491   2.404   2.775   0.917  0.2594 -1.2985 -1.1313
  623SOL     MW 2492   2.460   2.766   0.851  0.3346 -0.1220 -0.0474
  624SOL     OW 2493   2.145   1.633   3.035 -0.7638 -0.0049  0.1388
  624SOL    HW1 2494   2.113   1.550   3.004 -0.2845 -4.1941 -1.1654
  624SOL    HW2 2495   2.065   1.689   3.006 -3.6589  0.4597 -0.7917
  624SOL     MW 2496   2.130   1.629   3.027 -1.0826 -0.4963 -0.1560
  625SOL     OW 2497   2.223   1.893   1.067  0.4850  0.8252  0.2802
  625SOL    HW1 2498   2.287   1.855   1.129 -2.5169  1.5172  1.3523
  625SOL    HW2 2499   2.266   1.887   0.983  0.0327  2.2734 -1.2767
  625SOL     MW 2500   2.237   1.887   1.064  0.0293  1.1076  0.2162
  626SOL     OW 2501   0.283   1.746   2.428 -0.0226  0.5915  0.1038
  626SOL    HW1 2502   0.224   1.698   2.484 -0.7481  1.0390 -1.0477
  626SOL    HW2 2503   0.223   1.814   2.391  0.2367  0.4531  0.4694
  626SOL     MW 2504   0.267   1.749   2.430 -0.0841  0.6323  0.0001
  627SOL     OW 2505   2.505   0.726   2.551  0.4787 -0.1733  0.4974
  627SOL    HW1 2506   2.439   0.796   2.564 -0.0420  0.1928 -1.0614
  627SOL    HW2 2507   2.478   0.697   2.464  2.7844  1.7948 -2.9083
  627SOL     MW 2508   2.493   0.731   2.542  0.7142  0.1347 -0.1576
  628SOL     OW 2509   2.267   1.371   1.297 -0.3559 -0.6602 -0.6498
  628SOL    HW1 2510   2.239   1.287   1.260  0.1468  0.9101 -0.6113
  628SOL    HW2 2511   2.338   1.404   1.231  2.6648  1.0371  0.0278
  628SOL     MW 2512   2.273   1.364   1.283  0.1090 -0.2291 -0.5553
  629SOL     OW 2513   1.874   0.534   1.227 -0.1799 -0.3339 -0.0942
  629SOL    HW1 2514   1.883   0.617   1.187  3.4716  0.1391  3.5080
  629SOL    HW2 2515   1.780   0.513   1.238 -0.0257 -0.0320  0.1302
  629SOL     MW 2516   1.863   0.542   1.223  0.3222 -0.2317  0.4107
  630SOL     OW 2517   2.375   1.879   3.050  0.5685  0.0741 -0.1914
  630SOL    HW1 2518   2.379   1.953   2.982 -0.0246 -1.8516 -0.6125
  630SOL    HW2 2519   2.284   1.842   3.060 -2.7541  1.8742 -1.5202
  630SOL     MW 2520   2.363   1.884   3.042  0.0519  0.0575 -0.4223
  631SOL     OW 2521   2.048   1.713   1.546 -0.4253 -0.5513 -0.1747
  631SOL    HW1 2522   2.054   1.629   1.597 -0.4202 -4.3925  2.4370
  631SOL    HW2 2523   2.001   1.695   1.467 -0.4676 -1.5268  2.6660
  631SOL     MW 2524   2.042   1.700   1.542 -0.4302 -1.1868  0.5447
  632SOL     OW 2525   0.234   1.977   1.426 -0.2487 -0.3181  0.3688
  632SOL    HW1 2526   0.194   1.992   1.514 -0.2552 -0.3619 -1.9878
  632SOL    HW2 2527   0.269   1.890   1.438 -0.0177 -2.6162  3.2892
  632SOL     MW 2528   0.233   1.968   1.439 -0.2191 -0.6271  0.4432
  633SOL     OW 2529   2.530   0.613   0.256 -0.9210 -0.0788  0.2071
  633SOL    HW1 2530   2.581   0.613   0.337  2.1114 -5.4902 -1.1536
  633SOL    HW2 2531   2.509   0.522   0.250  0.7506  1.7275 -0.7466
  633SOL     MW 2532   2.534   0.601   0.266 -0.3003 -0.5544 -0.0983
  634SOL     OW 2533   2.678   0.020   0.656  0.0216 -0.8178  0.1187
  634SOL    HW1 2534   2.735   0.097   0.664  0.9923  1.8729  0.9801
  634SOL    HW2 2535   2.670   0.002   0.561 -2.0695 -1.2122 -0.7539
  634SOL     MW 2536   2.684   0.028   0.645 -0.1262 -0.5148  0.1173
  635SOL     OW 2537   2.580   0.137   1.832 -0.3252 -0.1117  0.1820
  635SOL    HW1 2538   2.651   0.076   1.794  1.5197  0.4957  1.7749
  635SOL    HW2 2539   2.620   0.222   1.866  0.4391  4.3180 -1.7118
  635SOL     MW 2540   2.594   0.140   1.831  0.0191  0.5529  0.1423
  636SOL     OW 2541   2.822   1.580   0.878 -0.3017 -0.2655 -0.6110
  636SOL    HW1 2542   2.737   1.617   0.891 -1.1079 -0.5193 -0.7845
  636SOL    HW2 2543   2.883   1.640   0.918 -1.6041  1.7341 -0.1668
  636SOL     MW 2544   2.819   1.593   0.885 -0.5799 -0.0352 -0.5753
  637SOL     OW 2545   2.880   1.484   0.621  0.2708  0.3391 -0.3354
  637SOL    HW1 2546   2.924   1.570   0.607  1.2132 -0.9664 -3.5891
  637SOL    HW2 2547   2.843   1.500   0.712 -1.0253  1.8506 -0.1073
  637SOL     MW 2548   2.881   1.498   0.631  0.2242  0.3663 -0.7346
  638SOL     OW 2549   2.668   0.504   0.506  0.6312 -0.0576  0.0013
  638SOL    HW1 2550   2.756   0.485   0.478  0.6666 -1.5518 -0.8074
  638SOL    HW2 2551   2.677   0.517   0.604 -0.7136  1.9886 -0.5352
  638SOL     MW 2552   2.681   0.503   0.515  0.4585  0.0153 -0.1762
  639SOL     OW 2553   1.710   0.032   0.559  0.6194  0.0417 -0.0541
  639SOL    HW1 2554   1.617   0.032   0.520 -0.9940  0.8421 -1.5189
  639SOL    HW2 2555   1.743  -0.045   0.512 -1.8040  1.6913  0.0568
  639SOL     MW 2556   1.702   0.022   0.548  0.0868  0.3650 -0.2327
  640SOL     OW 2557   0.268   1.330   0.088  0.2418  0.2473 -0.2662
  640SOL    HW1 2558   0.298   1.326  -0.007 -2.2012  0.8231 -0.7122
  640SOL    HW2 2559   0.268   1.238   0.111  1.6936  0.8483 -0.2556
  640SOL     MW 2560   0.272   1.317   0.078  0.1110  0.4026 -0.3237
  641SOL     OW 2561   2.242   0.429   0.402  0.1361  0.1920  0.1076
  641SOL    HW1 2562   2.240   0.400   0.314  1.0469  0.4196  1.7477
  641SOL    HW2 2563   2.301   0.376   0.446 -1.2000  0.0137  1.9488
  641SOL     MW 2564   2.250   0.418   0.396  0.0800  0.1985  0.5669
  642SOL     OW 2565   0.053   0.018   0.500  0.4308  0.0550 -0.6268
  642SOL    HW1 2566  -0.014   0.079   0.478 -0.6191 -1.5149 -1.9459
  642SOL    HW2 2567  -0.001  -0.041   0.558  0.7553  1.5932  1.0908
  642SOL     MW 2568   0.037   0.019   0.505  0.3351  0.0508 -0.5742
  643SOL     OW 2569   2.003   0.348   1.700 -0.1666 -0.1469  0.6167
  643SOL    HW1 2570   1.958   0.318   1.776 -1.5075  0.1290  3.3191
  643SOL    HW2 2571   2.064   0.276   1.675  0.1746 -0.5901  0.7083
  643SOL     MW 2572   2.005   0.335   1.707 -0.2985 -0.1690  0.9853
  644SOL     OW 2573   2.673   1.894   1.034 -0.3119 -0.8599 -0.0015
  644SOL    HW1 2574   2.650   1.838   1.107 -1.0335 -0.7201 -1.2228
  644SOL    HW2 2575   2.594   1.944   1.008  0.6299  1.0901 -3.6745
  644SOL     MW 2576   2.659   1.893   1.040 -0.2829 -0.5841 -0.6473
  645SOL     OW 2577   2.814   0.843   0.659 -0.2861 -0.3146  0.4980
  645SOL    HW1 2578   2.873   0.780   0.693 -0.8092  0.1504  0.3508
  645SOL    HW2 2579   2.728   0.809   0.659  0.6482  1.1237  2.8799
  645SOL     MW 2580   2.810   0.830   0.664 -0.2318 -0.0635  0.7928
  646SOL     OW 2581   0.073   2.267   0.856  0.3111  0.3783 -0.3232
  646SOL    HW1 2582   0.122   2.185   0.849  1.2085 -0.8817 -2.0465
  646SOL    HW2 2583   0.037   2.300   0.775 -0.0128  0.2999  0.2226
  646SOL     MW 2584   0.075   2.260   0.844  0.3868  0.2017 -0.4785
  647SOL     OW 2585   2.718   0.497   2.942 -0.0062 -0.1132  0.3044
  647SOL    HW1 2586   2.655   0.434   2.980 -0.4596 -1.2575  0.0091
  647SOL    HW2 2587   2.693   0.568   2.999  1.4013 -0.4507  1.6114
  647SOL     MW 2588   2.706   0.498   2.954  0.1197 -0.3087  0.4379
  648SOL     OW 2589   2.203   0.726   1.130  0.3502  0.2854 -1.0579
  648SOL    HW1 2590   2.192   0.640   1.174 -3.1098 -2.2764 -1.3888
  648SOL    HW2 2591   2.214   0.791   1.201 -0.5237  1.3841  1.1616
  648SOL     MW 2592   2.203   0.724   1.145 -0.2217  0.0924 -0.8087
  649SOL     OW 2593   2.391   2.693   1.341  0.7506  0.3600 -0.0506
  649SOL    HW1 2594   2.483   2.708   1.341 -0.2425 -1.0214 -0.6247
  649SOL    HW2 2595   2.395   2.596   1.337  0.9102 -0.6432 -0.5314
  649SOL     MW 2596   2.404   2.682   1.340  0.6406  0.0453 -0.1898
  650SOL     OW 2597   2.840   0.240   0.688 -0.1155  0.4374  0.2432
  650SOL    HW1 2598   2.846   0.318   0.740 -1.0141 -0.9039  2.0169
  650SOL    HW2 2599   2.891   0.262   0.607 -1.6185  0.9616  1.5092
  650SOL     MW 2600   2.848   0.253   0.684 -0.4324  0.3296  0.6443
  651SOL     OW 2601   3.085   0.438   1.002  0.6877 -0.1992  0.3386
  651SOL    HW1 2602   3.160   0.458   0.938 -0.0616 -0.5199  0.0337
  651SOL    HW2 2603   3.021   0.510   0.984 -0.0714  0.5304 -0.0272
  651SOL     MW 2604   3.087   0.450   0.992  0.4887 -0.1452  0.2501
  652SOL     OW 2605   2.398   1.547   3.045  0.0855 -0.6223 -0.1629
  652SOL    HW1 2606   2.445   1.582   2.968  0.0922  0.5876 -2.2840
  652SOL    HW2 2607   2.310   1.594   3.031  0.9209 -2.7827 -0.0709
  652SOL     MW 2608   2.393   1.558   3.033  0.1966 -0.7477 -0.4307
  653SOL     OW 2609   1.803   0.462   0.329  0.1536 -0.0653  0.0781
  653SOL    HW1 2610   1.739   0.389   0.321  3.6126  1.1528 -2.0683
  653SOL    HW2 2611   1.824   0.475   0.238 -2.0666  1.1311  0.6797
  653SOL     MW 2612   1.797   0.454   0.316  0.3170  0.2533 -0.1257
  654SOL     OW 2613   2.443   1.007   0.725  0.1149  0.2241 -0.5570
  654SOL    HW1 2614   2.382   1.007   0.652  0.3458  0.4542  2.0265
  654SOL    HW2 2615   2.449   0.915   0.755  1.2625  2.9229 -1.7598
  654SOL     MW 2616   2.436   0.995   0.719  0.2968  0.6106 -0.3748
  655SOL     OW 2617   2.900   0.846   0.390  0.1653 -0.7652 -0.0721
  655SOL    HW1 2618   2.861   0.869   0.473  0.1734  1.5527 -0.0099
  655SOL    HW2 2619   2.896   0.751   0.383  1.0418  1.3026  3.3524
  655SOL     MW 2620   2.895   0.837   0.400  0.2820 -0.1866  0.3880
  656SOL     OW 2621   1.757   2.660   1.359 -0.0291 -0.4325 -0.4366
  656SOL    HW1 2622   1.812   2.743   1.370 -0.7047 -1.4132 -2.1213
  656SOL    HW2 2623   1.823   2.592   1.352  1.1269  0.5421  0.4009
  656SOL     MW 2624   1.773   2.662   1.359  0.0343 -0.4333 -0.5484
  657SOL     OW 2625   0.152   1.760   1.167  0.1479  0.2213 -0.0975
  657SOL    HW1 2626   0.217   1.830   1.165 -2.3658 -0.3839 -0.8032
  657SOL    HW2 2627   0.201   1.683   1.162  2.3298  1.0883  0.7857
  657SOL     MW 2628   0.167   1.759   1.166  0.1041  0.2559 -0.0741
  658SOL     OW 2629   2.647   1.297   0.249  0.1698  0.0185 -0.3966
  658SOL    HW1 2630   2.609   1.238   0.312 -0.9831 -1.1247  1.8851
  658SOL    HW2 2631   2.668   1.373   0.309 -1.2210  1.0964  0.5496
  658SOL     MW 2632   2.645   1.299   0.265 -0.1658  0.0099  0.0293
  659SOL     OW 2633   2.246   1.543   0.973 -0.4956 -0.2875 -0.3171
  659SOL    HW1 2634   2.334   1.506   0.966 -1.6067  2.1523 -0.4099
  659SOL    HW2 2635   2.248   1.603   1.057  1.2412 -0.4534  1.2559
  659SOL     MW 2636   2.258   1.546   0.983 -0.4131  0.0125 -0.1218
  660SOL     OW 2637   2.107   1.502   1.717 -0.1772 -0.1988  0.1933
  660SOL    HW1 2638   2.108   1.525   1.813 -2.6325 -1.4842 -0.6356
  660SOL    HW2 2639   2.023   1.455   1.699  0.7573 -1.8743  1.9494
  660SOL     MW 2640   2.096   1.499   1.728 -0.3778 -0.5894  0.3156
  661SOL     OW 2641   2.499   0.954   0.185  0.2609 -0.3306  0.8767
  661SOL    HW1 2642   2.547   0.997   0.256 -1.8969 -1.3929  4.4269
  661SOL    HW2 2643   2.436   0.887   0.225  0.8286  1.7607  1.5635
  661SOL     MW 2644   2.497   0.951   0.200  0.0511 -0.1948  1.4358
  662SOL     OW 2645   2.594   3.008   0.904  0.2052 -0.5115 -0.0972
  662SOL    HW1 2646   2.511   3.047   0.931  1.2377 -1.5434 -1.4026
  662SOL    HW2 2647   2.614   3.059   0.827 -0.8844  1.6450  0.6006
  662SOL     MW 2648   2.586   3.020   0.898  0.1976 -0.3631 -0.1774
  663SOL     OW 2649   2.668   1.480   0.435 -0.3860  0.0004  0.0697
  663SOL    HW1 2650   2.638   1.568   0.410  1.4005  1.7131 -0.4016
  663SOL    HW2 2651   2.747   1.486   0.489 -1.4225  1.7387 -2.7278
  663SOL     MW 2652   2.675   1.492   0.439 -0.2870  0.4557 -0.3616
  664SOL     OW 2653   2.563   1.536   1.601 -0.3711 -0.2519  0.2208
  664SOL    HW1 2654   2.542   1.627   1.579 -1.9120 -0.2135 -0.0285
  664SOL    HW2 2655   2.477   1.489   1.608  3.0356  0.7848 -1.1675
  664SOL     MW 2656   2.549   1.542   1.599 -0.1249 -0.1101  0.0047
  665SOL     OW 2657   2.772   0.811   2.034  0.1231 -0.1209  0.5120
  665SOL    HW1 2658   2.747   0.864   1.959  0.7552 -1.3851 -0.9484
  665SOL    HW2 2659   2.855   0.772   2.006 -1.0704 -1.5256  1.0047
  665SOL     MW 2660   2.780   0.813   2.020  0.0490 -0.4730  0.3843
  666SOL     OW 2661   2.761   3.083   1.717 -0.1022 -0.1674  0.0417
  666SOL    HW1 2662   2.755   3.076   1.620  1.2150 -1.5653  0.0911
  666SOL    HW2 2663   2.727   2.995   1.742  1.0652 -1.5085 -1.9933
  666SOL     MW 2664   2.756   3.071   1.708  0.2256 -0.5288 -0.2203
  667SOL     OW 2665   1.955   2.698   1.751  0.5297  0.1946 -0.3524
  667SOL    HW1 2666   1.971   2.662   1.838 -0.4663  0.5312 -0.1666
  667SOL    HW2 2667   2.025   2.763   1.740 -0.0181  0.2073 -0.5894
  667SOL     MW 2668   1.966   2.702   1.761  0.3260  0.2407 -0.3592
  668SOL     OW 2669   2.693   0.569   0.794 -0.3309 -0.4487  0.0722
  668SOL    HW1 2670   2.758   0.593   0.860 -1.2335 -0.2720  1.7130
  668SOL    HW2 2671   2.612   0.640   0.812 -2.2254 -0.9101 -1.0159
  668SOL     MW 2672   2.691   0.582   0.805 -0.7000 -0.4863  0.1452
  669SOL     OW 2673   0.140   0.864   0.757  0.1849 -0.4533  0.6413
  669SOL    HW1 2674   0.095   0.948   0.782  0.3994  1.4565 -1.8115
  669SOL    HW2 2675   0.207   0.832   0.826  0.5647  1.8976  1.2267
  669SOL     MW 2676   0.143   0.871   0.769  0.2633  0.1089  0.3949
  670SOL     OW 2677   2.887   0.292   0.191  0.8311  0.3768 -0.3011
  670SOL    HW1 2678   2.918   0.262   0.099  1.6752 -0.2792 -0.6829
  670SOL    HW2 2679   2.910   0.391   0.193  0.7586  1.1695  0.3708
  670SOL     MW 2680   2.894   0.301   0.179  0.9329  0.3948 -0.2628
  671SOL     OW 2681   2.003   3.066   1.575 -0.3575  0.0114  0.3806
  671SOL    HW1 2682   1.985   3.006   1.502 -0.1744  2.2627 -1.2359
  671SOL    HW2 2683   1.933   3.056   1.642 -0.9893 -0.9884  0.4476
  671SOL     MW 2684   1.991   3.057   1.574 -0.4167  0.1765  0.1761
  672SOL     OW 2685   1.906   1.689   1.323 -0.0770 -0.1893  0.5210
  672SOL    HW1 2686   1.853   1.766   1.356 -1.3487  0.5352  0.8591
  672SOL    HW2 2687   1.911   1.712   1.227  0.3874  0.1128 -1.9497
  672SOL     MW 2688   1.899   1.702   1.314 -0.1835 -0.0539  0.2396
  673SOL     OW 2689   2.796   1.103   0.635  0.1533 -0.3469  0.0974
  673SOL    HW1 2690   2.815   1.015   0.665 -1.2653 -0.2731 -1.0601
  673SOL    HW2 2691   2.880   1.152   0.624  0.5687  1.9541  0.0021
  673SOL     MW 2692   2.810   1.098   0.638  0.0209 -0.0336 -0.0679
  674SOL     OW 2693   2.448   3.101   1.246 -0.4045  0.5101 -0.5068
  674SOL    HW1 2694   2.395   3.128   1.164 -0.3108 -0.1931  1.9329
  674SOL    HW2 2695   2.456   3.011   1.220  1.8538  1.6384 -0.4720
  674SOL     MW 2696   2.442   3.092   1.232 -0.0942  0.5662 -0.1803
  675SOL     OW 2697   3.043   0.878   1.098 -0.1341 -0.0302  0.4768
  675SOL    HW1 2698   3.102   0.891   1.176 -0.3868  1.2418  0.2804
  675SOL    HW2 2699   3.062   0.943   1.036 -2.4682 -3.1335  1.0271
  675SOL     MW 2700   3.053   0.888   1.100 -0.4754 -0.2718  0.5235
  676SOL     OW 2701   2.950   1.485   1.644  0.1664  0.0527  0.2982
  676SOL    HW1 2702   2.903   1.404   1.642  2.3939 -0.9748 -1.8654
  676SOL    HW2 2703   3.007   1.453   1.710 -2.1446  1.0254  2.1487
  676SOL     MW 2704   2.951   1.470   1.652  0.1554  0.0454  0.2569
  677SOL     OW 2705   2.371   0.624   2.024  0.1832  0.1998 -0.1323
  677SOL    HW1 2706   2.334   0.563   1.963  1.0065 -2.0558  1.2317
  677SOL    HW2 2707   2.316   0.713   2.020  1.3839  1.9814 -2.1845
  677SOL     MW 2708   2.359   0.628   2.015  0.4503  0.1372 -0.2231
  678SOL     OW 2709   2.488   1.684   0.322 -0.2330  0.4635  0.4312
  678SOL    HW1 2710   2.406   1.723   0.344 -1.0456 -1.3051 -3.6016
  678SOL    HW2 2711   2.464   1.594   0.300  0.7041  3.3722  0.2390
  678SOL     MW 2712   2.474   1.677   0.322 -0.2166  0.6140 -0.1263
  679SOL     OW 2713   2.212   0.468   1.306 -0.4136 -0.1855  0.6958
  679SOL    HW1 2714   2.228   0.381   1.270  0.3752  0.1624 -0.5392
  679SOL    HW2 2715   2.152   0.464   1.382 -1.8056  0.5005  1.7862
  679SOL     MW 2716   2.206   0.456   1.311 -0.4932 -0.0491  0.6767
  680SOL     OW 2717   2.376   0.177   1.452  0.1101 -0.0129 -0.1713
  680SOL    HW1 2718   2.281   0.202   1.461 -0.5488 -1.1936 -1.0437
  680SOL    HW2 2719   2.387   0.111   1.394  1.1734  0.5054  1.8996
  680SOL     MW 2720   2.365   0.172   1.446  0.1635 -0.1003 -0.0132
  681SOL     OW 2721   0.274   0.560   1.574  0.2089  0.7617  0.1819
  681SOL    HW1 2722   0.271   0.503   1.657  1.0044 -1.2489  2.3990
  681SOL    HW2 2723   0.355   0.532   1.528  1.6646 -0.8682 -1.2884
  681SOL     MW 2724   0.284   0.549   1.579  0.5059  0.2813  0.2804
  682SOL     OW 2725   0.134   2.816   1.540  0.2763 -0.5469  0.4423
  682SOL    HW1 2726   0.201   2.883   1.567 -0.6739  0.3166  0.5381
  682SOL    HW2 2727   0.055   2.865   1.553 -0.5338 -3.7530 -2.3077
  682SOL     MW 2728   0.133   2.832   1.545  0.0440 -0.8560  0.0921
  683SOL     OW 2729   2.064   0.793   2.943  0.0658  0.3312  0.0767
  683SOL    HW1 2730   1.974   0.784   2.936  1.5196 -0.0040  1.0151
  683SOL    HW2 2731   2.079   0.876   2.993  0.1438 -1.9730  1.3541
  683SOL     MW 2732   2.054   0.803   2.949  0.2679 -0.0170  0.3691
  684SOL     OW 2733   2.256   1.673   0.727 -0.2484 -0.6269 -0.5517
  684SOL    HW1 2734   2.196   1.658   0.658  0.8438  2.9487  0.2595
  684SOL    HW2 2735   2.241   1.617   0.807 -0.2625 -0.7382 -0.3656
  684SOL     MW 2736   2.246   1.664   0.729 -0.1062 -0.1698 -0.4201
  685SOL     OW 2737   2.642   1.703   1.245  0.0782  0.0557  0.4517
  685SOL    HW1 2738   2.723   1.697   1.294 -0.3726  2.5415  1.4931
  685SOL    HW2 2739   2.611   1.617   1.239  1.2507 -0.3482  2.6474
  685SOL     MW 2740   2.649   1.691   1.251  0.1735  0.3304  0.8788
  686SOL     OW 2741   2.907   0.741   1.469 -0.1938 -0.0333 -0.4347
  686SOL    HW1 2742   2.893   0.689   1.547  3.1936 -1.1762  0.7886
  686SOL    HW2 2743   3.002   0.758   1.481 -1.9863  0.2572  0.2171
  686SOL     MW 2744   2.918   0.736   1.481  0.0167 -0.1458 -0.1873
  687SOL     OW 2745   2.151   0.212   1.211  0.0346  0.0890  0.0584
  687SOL    HW1 2746   2.199   0.154   1.155 -2.3503  0.8330 -0.5909
  687SOL    HW2 2747   2.077   0.245   1.166  0.5805 -1.8264  1.6664
  687SOL     MW 2748   2.148   0.209   1.198 -0.2081 -0.0656  0.1849
  688SOL     OW 2749   2.431   0.591   1.466  0.0840 -0.5584  0.0590
  688SOL    HW1 2750   2.368   0.540   1.412  1.4179 -1.4573 -0.7869
  688SOL    HW2 2751   2.387   0.652   1.525 -0.4164 -0.0861  1.2289
  688SOL     MW 2752   2.417   0.592   1.467  0.1939 -0.6147  0.1018
  689SOL     OW 2753   2.479   0.697   2.950 -0.5903  0.2518 -0.4244
  689SOL    HW1 2754   2.474   0.781   2.904 -1.5760 -3.2814 -3.0125
  689SOL    HW2 2755   2.551   0.720   3.014 -1.0159  0.9201 -1.3502
  689SOL     MW 2756   2.488   0.711   2.952 -0.7765 -0.1262 -0.8880
  690SOL     OW 2757   1.991   0.834   1.886  0.3212  0.4359  0.6140
  690SOL    HW1 2758   1.956   0.748   1.907  0.3693  0.6211 -2.8134
  690SOL    HW2 2759   2.018   0.816   1.794  1.2591  0.1737  1.9994
  690SOL     MW 2760   1.990   0.820   1.877  0.4513  0.4257  0.3446
  691SOL     OW 2761   2.381   0.235   0.850 -0.3197 -0.2477 -0.0302
  691SOL    HW1 2762   2.463   0.269   0.876 -2.0537  1.2411 -1.5825
  691SOL    HW2 2763   2.311   0.291   0.885 -1.1314 -4.3501  2.1639
  691SOL     MW 2764   2.382   0.247   0.858 -0.6555 -0.5925  0.0545
  692SOL     OW 2765   2.888   1.651   1.459  0.3746 -0.3030 -0.1325
  692SOL    HW1 2766   2.916   1.602   1.537  2.3164 -1.3927  0.8341
  692SOL    HW2 2767   2.921   1.745   1.477 -0.1164  1.2956  0.3528
  692SOL     MW 2768   2.896   1.657   1.472  0.5660 -0.2359  0.0590
  693SOL     OW 2769   2.245   0.396   0.139 -0.0745  0.5819 -0.3729
  693SOL    HW1 2770   2.162   0.356   0.117 -2.3822  1.4569 -0.7949
  693SOL    HW2 2771   2.248   0.482   0.102  0.2744 -2.2310 -0.9226
  693SOL     MW 2772   2.235   0.402   0.131 -0.3329  0.3262 -0.5011
  694SOL     OW 2773   1.909   1.213   1.169 -0.6603  0.1334 -0.4276
  694SOL    HW1 2774   2.007   1.205   1.166 -0.2025  0.8650  2.0169
  694SOL    HW2 2775   1.882   1.121   1.194  4.0956 -0.9177  1.7798
  694SOL     MW 2776   1.918   1.199   1.172  0.0276  0.0912  0.1862
  695SOL     OW 2777   3.036   1.514   1.300 -0.9017 -0.2677 -0.1258
  695SOL    HW1 2778   2.979   1.478   1.232  0.6493  0.2024  0.8439
  695SOL    HW2 2779   2.970   1.564   1.363 -1.4187  0.9991 -0.0905
  695SOL     MW 2780   3.019   1.516   1.299 -0.7653 -0.0385  0.0068
  696SOL     OW 2781   2.069   1.358   0.805  0.0996  0.1058 -0.2444
  696SOL    HW1 2782   2.093   1.422   0.872  0.2845  2.2639  3.5099
  696SOL    HW2 2783   2.028   1.288   0.848  1.6672 -1.3497 -0.0127
  696SOL     MW 2784   2.067   1.357   0.820  0.3308  0.1985  0.2815
  697SOL     OW 2785   2.900   1.026   2.172 -0.7465 -0.0715  0.1864
  697SOL    HW1 2786   2.845   1.096   2.162 -1.9997 -4.6166  1.0554
  697SOL    HW2 2787   2.852   0.951   2.136 -2.0460 -0.7265  3.6113
  697SOL     MW 2788   2.886   1.025   2.166 -1.0833 -0.7576  0.7529
  698SOL     OW 2789   2.513   0.340   0.037  1.1390 -0.0351 -0.0077
  698SOL    HW1 2790   2.425   0.346   0.071 -0.6643  0.3179  1.6814
  698SOL    HW2 2791   2.561   0.298   0.115  0.0719 -2.7659  3.3681
  698SOL     MW 2792   2.508   0.335   0.052  0.7603 -0.3488  0.6606
  699SOL     OW 2793   1.844   1.562   2.069  0.1117  0.7263  0.0166
  699SOL    HW1 2794   1.796   1.481   2.044 -1.3863  0.9995 -0.5854
  699SOL    HW2 2795   1.929   1.545   2.031  3.0755 -1.9778 -0.9993
  699SOL     MW 2796   1.849   1.549   2.061  0.3051  0.4056 -0.1968
  700SOL     OW 2797   2.710   0.921   1.540  0.1400  0.0855  0.6102
  700SOL    HW1 2798   2.739   0.992   1.483  1.1885 -0.7231 -1.7106
  700SOL    HW2 2799   2.773   0.848   1.532  1.3371  2.1255 -1.2148
  700SOL     MW 2800   2.722   0.921   1.531  0.4363  0.2480  0.0632
  701SOL     OW 2801   1.658   1.203   2.473  0.1762  0.1531 -0.8496
  701SOL    HW1 2802   1.751   1.191   2.462 -1.8055  0.5351  0.2413
  701SOL    HW2 2803   1.660   1.252   2.558 -0.3408  0.4373  2.0992
  701SOL     MW 2804   1.670   1.208   2.483 -0.1535  0.2410 -0.3166
  702SOL     OW 2805   2.154   0.412   0.843  0.0120 -0.0447  0.0552
  702SOL    HW1 2806   2.141   0.332   0.792 -2.1534  1.7617  0.2732
  702SOL    HW2 2807   2.192   0.481   0.781 -0.2285  0.7493 -0.9323
  702SOL     MW 2808   2.157   0.411   0.828 -0.3055  0.2984 -0.0463
  703SOL     OW 2809   2.720   1.220   1.070 -0.1229 -0.3591  0.1361
  703SOL    HW1 2810   2.679   1.205   0.989 -0.0426 -0.1994  1.3051
  703SOL    HW2 2811   2.746   1.131   1.101 -0.6354  2.5350 -1.6983
  703SOL     MW 2812   2.718   1.206   1.064 -0.1800  0.0438  0.0483
  704SOL     OW 2813   3.085   1.163   0.091  0.7311  0.0607  0.5965
  704SOL    HW1 2814   2.992   1.185   0.116  1.7399  0.4215  0.4568
  704SOL    HW2 2815   3.139   1.126   0.167  1.4737 -0.7885  0.3542
  704SOL     MW 2816   3.080   1.161   0.104  0.9622 -0.0037  0.5461
  705SOL     OW 2817   2.181   1.636   1.246 -0.2923  0.4691  0.5191
  705SOL    HW1 2818   2.107   1.668   1.296  0.2882  0.9579 -1.6320
  705SOL    HW2 2819   2.170   1.541   1.255 -1.2366  0.1210 -0.0320
  705SOL     MW 2820   2.170   1.627   1.253 -0.3403  0.4877  0.1626
  706SOL     OW 2821   3.033   1.256   0.651  0.3027  0.3431 -0.3699
  706SOL    HW1 2822   3.069   1.248   0.557 -0.2463 -1.4349  1.0669
  706SOL    HW2 2823   2.994   1.342   0.663 -0.4372 -2.4283  2.4832
  706SOL     MW 2824   3.032   1.266   0.640  0.1327 -0.2572  0.1961
  707SOL     OW 2825   2.298   0.050   1.037 -0.4557 -0.1730 -0.1241
  707SOL    HW1 2826   2.336   0.107   0.973  1.9962 -1.4422  0.4491
  707SOL    HW2 2827   2.233   0.007   0.985  0.5316  1.8906 -1.0416
  707SOL     MW 2828   2.295   0.052   1.022 -0.0019 -0.0682 -0.1695
  708SOL     OW 2829   2.420   1.448   0.220 -0.6449  0.2134 -0.0261
  708SOL    HW1 2830   2.501   1.394   0.233 -1.1348 -1.4581  1.4728
  708SOL    HW2 2831   2.428   1.480   0.130  4.5606 -1.4971  1.9940
  708SOL     MW 2832   2.432   1.445   0.210 -0.0227 -0.2328  0.4382
  709SOL     OW 2833   1.751   1.635   0.199 -0.4519 -0.1284  0.4631
  709SOL    HW1 2834   1.752   1.655   0.101 -1.1575 -1.3194 -1.3914
  709SOL    HW2 2835   1.663   1.655   0.237 -1.0479 -0.7695 -1.8385
  709SOL     MW 2836   1.740   1.640   0.191 -0.6236 -0.3701 -0.0853
  710SOL     OW 2837   2.169   1.156   1.166 -0.0725 -0.2813 -0.0175
  710SOL    HW1 2838   2.204   1.129   1.080  0.6860 -1.4727  2.1433
  710SOL    HW2 2839   2.203   1.095   1.238 -2.7237  0.0851  1.4335
  710SOL     MW 2840   2.178   1.145   1.164 -0.3222 -0.3902  0.4590
  711SOL     OW 2841   2.333   0.173   1.734 -0.2266 -0.5336  0.7767
  711SOL    HW1 2842   2.419   0.153   1.779  0.0617 -1.6456  0.5671
  711SOL    HW2 2843   2.359   0.196   1.648  1.2361 -0.2935 -0.2880
  711SOL     MW 2844   2.348   0.174   1.729  0.0044 -0.6486  0.6086
  712SOL     OW 2845   1.911   0.592   0.088 -0.2378  1.0597 -0.6521
  712SOL    HW1 2846   1.841   0.651   0.071  3.3593  1.4260  3.4600
  712SOL    HW2 2847   1.970   0.647   0.135  0.6122  0.7740 -0.5105
  712SOL     MW 2848   1.910   0.607   0.092  0.3490  1.0703 -0.0909
  713SOL     OW 2849   2.565   0.831   1.085  0.3502  0.0431  0.3393
  713SOL    HW1 2850   2.558   0.744   1.107 -0.3641  1.5876 -2.1915
  713SOL    HW2 2851   2.518   0.880   1.158 -1.7291 -2.8047 -1.7438
  713SOL     MW 2852   2.558   0.826   1.097 -0.0184 -0.1289 -0.2695
  714SOL     OW 2853   2.204   0.193   1.996 -0.2938 -0.1570 -0.1717
  714SOL    HW1 2854   2.257   0.140   2.065  1.5424 -0.2233  2.1970
  714SOL    HW2 2855   2.234   0.189   1.904 -1.1441 -1.5666  1.6548
  714SOL     MW 2856   2.215   0.185   1.993 -0.1637 -0.3517  0.3818
  715SOL     OW 2857   1.749   1.928   1.722  0.3447  0.3925  0.2524
  715SOL    HW1 2858   1.839   1.912   1.698 -2.0551  1.8369  1.1530
  715SOL    HW2 2859   1.729   1.862   1.789  1.2768 -1.8003  0.5453
  715SOL     MW 2860   1.758   1.917   1.727  0.1511  0.2937  0.4099
  716SOL     OW 2861   2.302   0.594   0.709  0.6676  0.0781 -0.1381
  716SOL    HW1 2862   2.347   0.519   0.671  1.2247 -0.5092  2.1397
  716SOL    HW2 2863   2.230   0.615   0.648 -0.3015  0.3229  0.3525
  716SOL     MW 2864   2.298   0.587   0.696  0.6133  0.0329  0.2271
  717SOL     OW 2865   2.872   1.605   2.853 -0.5226 -0.1607 -0.4560
  717SOL    HW1 2866   2.949   1.573   2.897 -0.4365  1.1365  0.1070
  717SOL    HW2 2867   2.839   1.674   2.913  1.7020 -2.4251  1.6502
  717SOL     MW 2868   2.878   1.610   2.867 -0.2177 -0.2883 -0.1038
  718SOL     OW 2869   2.699   1.421   1.330 -0.0886 -0.3056  0.0414
  718SOL    HW1 2870   2.686   1.473   1.412  0.5953 -0.9793  2.0921
  718SOL    HW2 2871   2.708   1.332   1.362  0.7564  0.1624 -0.5340
  718SOL     MW 2872   2.699   1.416   1.345  0.1131 -0.3327  0.2361
  719SOL     OW 2873   2.219   1.257   0.613  0.1478 -0.1649 -0.1763
  719SOL    HW1 2874   2.306   1.289   0.596 -1.9195 -1.6107 -0.3059
  719SOL    HW2 2875   2.174   1.295   0.691  0.4551  0.4481  0.6209
  719SOL     MW 2876   2.224   1.266   0.621 -0.0844 -0.2748 -0.0882
  720SOL     OW 2877   2.815   1.210   0.062  0.5068  0.2039 -0.0861
  720SOL    HW1 2878   2.816   1.113   0.087  1.6831  0.9363  0.5348
  720SOL    HW2 2879   2.758   1.245   0.138 -2.1344  0.1479 -1.9916
  720SOL     MW 2880   2.808   1.202   0.076  0.3135  0.2932 -0.2556
  721SOL     OW 2881   2.501   0.850   1.398  0.4957  1.0991  0.3451
  721SOL    HW1 2882   2.502   0.758   1.431  0.3656  2.4091  0.0520
  721SOL    HW2 2883   2.582   0.884   1.441 -0.1286 -0.6707  1.9733
  721SOL     MW 2884   2.512   0.843   1.408  0.3962  1.0384  0.5213
  722SOL     OW 2885   2.571   1.108   0.412 -0.6977 -0.5253  0.1192
  722SOL    HW1 2886   2.501   1.150   0.461 -3.0262  0.1774 -1.8669
  722SOL    HW2 2887   2.632   1.094   0.480  1.9437 -0.4441 -1.6169
  722SOL     MW 2888   2.570   1.111   0.427 -0.6564 -0.4219 -0.3719
  723SOL     OW 2889   2.314   1.412   1.578  0.5423  0.1858  0.3035
  723SOL    HW1 2890   2.298   1.403   1.484  0.8155  0.4822  1.3759
  723SOL    HW2 2891   2.235   1.443   1.623  0.2468  2.0361  0.5876
  723SOL     MW 2892   2.302   1.415   1.571  0.5393  0.4690  0.4825
  724SOL     OW 2893   2.436   0.392   0.610  0.0793  0.0990 -0.2260
  724SOL    HW1 2894   2.440   0.309   0.656  1.5225 -0.6245 -1.4493
  724SOL    HW2 2895   2.521   0.404   0.568 -2.5383  2.5877 -2.1825
  724SOL     MW 2896   2.448   0.382   0.610 -0.0756  0.3319 -0.6455
  725SOL     OW 2897   2.562   0.561   1.208  0.3746 -0.5215 -0.4600
  725SOL    HW1 2898   2.655   0.576   1.216 -2.5026 -2.1929  1.1982
  725SOL    HW2 2899   2.536   0.535   1.294  1.5258 -4.1266 -0.5251
  725SOL     MW 2900   2.571   0.560   1.220  0.1469 -1.2177 -0.2498
  726SOL     OW 2901   2.562   2.468   0.572  0.0899 -0.0009  0.1601
  726SOL    HW1 2902   2.522   2.512   0.498  1.1665 -1.7889 -2.2183
  726SOL    HW2 2903   2.510   2.477   0.655  2.1982 -0.6354 -1.5877
  726SOL     MW 2904   2.550   2.475   0.573  0.5101 -0.3205 -0.3843
  727SOL     OW 2905   2.891   0.323   1.730 -0.6889 -0.1127  0.8052
  727SOL    HW1 2906   2.824   0.312   1.660  1.6898 -0.2688  2.0639
  727SOL    HW2 2907   2.845   0.325   1.810  2.1333 -1.8872 -2.1298
  727SOL     MW 2908   2.876   0.322   1.731 -0.0027 -0.3674  0.5840
  728SOL     OW 2909   2.767   1.141   2.895 -0.3950 -0.4874  0.1248
  728SOL    HW1 2910   2.772   1.210   2.828 -0.0032 -1.2031 -2.4878
  728SOL    HW2 2911   2.776   1.185   2.978 -0.2768 -1.1666  0.2228
  728SOL     MW 2912   2.769   1.155   2.897 -0.3277 -0.6715 -0.2070
  729SOL     OW 2913   2.502   1.473   1.165  0.2168 -0.4101  0.4777
  729SOL    HW1 2914   2.573   1.420   1.217  2.5786  1.8373 -1.1728
  729SOL    HW2 2915   2.527   1.472   1.070 -2.8858 -4.9236 -1.0783
  729SOL     MW 2916   2.515   1.466   1.159  0.1191 -0.7091  0.0546
  730SOL     OW 2917   2.289   1.195   0.178  0.2618  0.0012  0.0396
  730SOL    HW1 2918   2.342   1.130   0.139  0.7148 -2.2250  2.5846
  730SOL    HW2 2919   2.321   1.284   0.153 -0.1939  2.3921  1.0664
  730SOL     MW 2920   2.300   1.198   0.169  0.2614  0.0230  0.5109
  731SOL     OW 2921   2.775   1.972   2.891 -0.0084  0.4034  0.4713
  731SOL    HW1 2922   2.721   2.003   2.818  0.0738  2.3751  4.0608
  731SOL    HW2 2923   2.859   2.009   2.872  0.6890 -1.0444  0.6417
  731SOL     MW 2924   2.779   1.981   2.879  0.0945  0.4725  0.9674
  732SOL     OW 2925   2.219   0.895   1.347  0.5534 -0.5917  0.4288
  732SOL    HW1 2926   2.160   0.925   1.417 -1.8974 -1.7897 -0.9082
  732SOL    HW2 2927   2.307   0.887   1.384 -2.6349 -1.9650 -0.5674
  732SOL     MW 2928   2.223   0.898   1.361 -0.1906 -0.9309  0.1210
  733SOL     OW 2929   2.355   2.788   3.008  0.1211  1.0672  0.1390
  733SOL    HW1 2930   2.280   2.834   2.967  0.9056  0.5713 -2.5442
  733SOL    HW2 2931   2.334   2.697   2.996 -0.3318  0.7793  2.5764
  733SOL     MW 2932   2.343   2.782   3.001  0.1649  0.9638  0.1066
  734SOL     OW 2933   1.438   0.336   2.443  0.6205 -0.4884 -0.5134
  734SOL    HW1 2934   1.449   0.307   2.532 -1.9000 -2.6825 -0.2339
  734SOL    HW2 2935   1.452   0.259   2.384  3.5625 -0.8039 -0.1843
  734SOL     MW 2936   1.441   0.322   2.447  0.6761 -0.8195 -0.4331
  735SOL     OW 2937   2.916   0.908   2.642  0.0438  0.0224 -0.3961
  735SOL    HW1 2938   2.914   0.812   2.633 -3.3589 -2.8969 -0.5679
  735SOL    HW2 2939   2.954   0.942   2.722  0.7305 -0.0303 -1.1557
  735SOL     MW 2940   2.921   0.900   2.651 -0.3146 -0.3698 -0.5190
  736SOL     OW 2941   0.101   0.601   2.503  0.0804  0.5684 -0.2983
  736SOL    HW1 2942   0.127   0.686   2.472  0.5480 -0.1046  0.7098
  736SOL    HW2 2943   0.101   0.550   2.421 -1.3269  1.1548  0.0497
  736SOL     MW 2944   0.105   0.606   2.488 -0.0436  0.5570 -0.1194
  737SOL     OW 2945   2.931   0.623   2.598  0.2205 -0.1908  0.1975
  737SOL    HW1 2946   2.870   0.604   2.528 -1.5299 -0.6456 -0.7804
  737SOL    HW2 2947   3.018   0.629   2.554  0.9403 -1.3160 -1.1969
  737SOL     MW 2948   2.935   0.621   2.583  0.0845 -0.3993 -0.1155
  738SOL     OW 2949   0.118   0.583   1.932  0.0389  0.4279  0.5939
  738SOL    HW1 2950   0.192   0.646   1.927 -0.4466  1.5116 -2.2064
  738SOL    HW2 2951   0.163   0.501   1.907 -1.8451 -1.7079  3.4234
  738SOL     MW 2952   0.134   0.580   1.928 -0.2737  0.2890  0.5977
  739SOL     OW 2953   2.495   0.987   2.029 -0.0174 -0.2988  0.0584
  739SOL    HW1 2954   2.421   0.933   2.002  0.2672 -1.7943  0.5914
  739SOL    HW2 2955   2.497   1.045   1.953 -0.7537  0.3387  0.3793
  739SOL     MW 2956   2.486   0.988   2.015 -0.0770 -0.4120  0.1711
  740SOL     OW 2957   0.241   1.744   2.965 -0.1212  0.1748  0.2597
  740SOL    HW1 2958   0.193   1.661   2.951 -0.9044  2.0429  0.2735
  740SOL    HW2 2959   0.338   1.725   2.975  2.0367 -1.0625 -1.6460
  740SOL     MW 2960   0.248   1.731   2.964  0.0602  0.2580  0.0101
  741SOL     OW 2961   2.207   1.094   2.763 -0.2377  0.3154  0.3707
  741SOL    HW1 2962   2.118   1.128   2.749 -0.0864 -0.3277  0.2146
  741SOL    HW2 2963   2.251   1.159   2.818 -0.1072 -0.4158 -2.4102
  741SOL     MW 2964   2.201   1.107   2.769 -0.2005  0.1340 -0.0168
  742SOL     OW 2965   1.547   1.212   2.213  0.3830 -0.5904  0.2351
  742SOL    HW1 2966   1.525   1.117   2.199 -0.6869 -0.8520 -2.1170
  742SOL    HW2 2967   1.583   1.212   2.304  1.0443  0.2844 -1.3837
  742SOL     MW 2968   1.549   1.199   2.223  0.3291 -0.5095 -0.2888
  743SOL     OW 2969   2.477   1.300   2.718  0.5522  0.3042  0.2026
  743SOL    HW1 2970   2.394   1.301   2.687  2.0025  1.3723 -0.4645
  743SOL    HW2 2971   2.500   1.209   2.739  0.9470 -2.2323  0.7845
  743SOL     MW 2972   2.469   1.288   2.717  0.7957  0.1105  0.1913
  744SOL     OW 2973   2.755   0.930   1.791  0.4365 -0.6630 -0.0927
  744SOL    HW1 2974   2.662   0.965   1.810 -1.2378 -1.8483  1.7289
  744SOL    HW2 2975   2.744   0.911   1.696  2.1225  2.5532 -0.2504
  744SOL     MW 2976   2.742   0.932   1.781  0.4381 -0.3951  0.1269
  745SOL     OW 2977   1.689   0.455   2.485 -0.0917 -0.6581  0.2525
  745SOL    HW1 2978   1.693   0.473   2.392 -2.1563  0.3562 -0.9591
  745SOL    HW2 2979   1.611   0.400   2.490 -0.6542 -1.3836  1.2827
  745SOL     MW 2980   1.679   0.450   2.474 -0.4383 -0.6200  0.2286
  746SOL     OW 2981   1.553   1.464   1.574 -0.1508  0.7853  0.4237
  746SOL    HW1 2982   1.643   1.489   1.587  0.1200  0.6141  1.3374
  746SOL    HW2 2983   1.528   1.398   1.642  0.0661 -0.1339  0.8836
  746SOL     MW 2984   1.562   1.458   1.585 -0.0865  0.6415  0.6049
  747SOL     OW 2985   2.550   1.140   1.815  0.4295  0.2552  0.0809
  747SOL    HW1 2986   2.464   1.137   1.768 -2.1737  0.0553  0.7540
  747SOL    HW2 2987   2.578   1.221   1.863  1.9230  1.2720 -1.2148
  747SOL     MW 2988   2.542   1.150   1.815  0.2831  0.3630 -0.0013
  748SOL     OW 2989   0.100   3.094   1.834 -0.3111 -0.7775 -0.1167
  748SOL    HW1 2990   0.179   3.123   1.782  0.4035  0.3777 -2.8192
  748SOL    HW2 2991   0.082   3.160   1.908  0.7259  0.8967  0.9852
  748SOL     MW 2992   0.108   3.106   1.837 -0.0800 -0.4042 -0.3279
  749SOL     OW 2993   2.455   0.516   2.736 -0.1399  0.3548 -0.7343
  749SOL    HW1 2994   2.446   0.575   2.659 -2.7174 -0.6104 -1.0313
  749SOL    HW2 2995   2.473   0.581   2.803 -1.6115 -1.3405 -0.9310
  749SOL     MW 2996   2.456   0.532   2.735 -0.6741  0.0037 -0.7994
  750SOL     OW 2997   2.024   3.067   2.003 -0.1525 -0.4127 -0.0708
  750SOL    HW1 2998   2.052   3.155   1.997  1.5472 -1.9850 -0.1667
  750SOL    HW2 2999   2.099   3.012   1.993  0.1778 -1.0870  1.4080
  750SOL     MW 3000   2.037   3.071   2.000  0.1154 -0.7091  0.1116
  751SOL     OW 3001   0.056   0.410   2.309 -0.4412 -0.0114  0.0930
  751SOL    HW1 3002  -0.023   0.369   2.333  0.6927  2.6094 -0.0916
  751SOL    HW2 3003   0.104   0.341   2.260  0.2065 -0.3444 -0.5838
  751SOL     MW 3004   0.052   0.396   2.306 -0.2061  0.2905 -0.0206
  752SOL     OW 3005   2.141   0.823   2.683  0.3729 -0.0814 -0.0172
  752SOL    HW1 3006   2.207   0.891   2.670  0.2730  0.7923  1.4520
  752SOL    HW2 3007   2.132   0.813   2.781 -0.6907  1.6558 -0.9299
  752SOL     MW 3008   2.149   0.831   2.694  0.2194  0.2631  0.0562
  753SOL     OW 3009   2.914   0.283   2.403  0.0247  0.9127  0.0115
  753SOL    HW1 3010   2.871   0.209   2.356 -3.6445 -0.7627 -0.8687
  753SOL    HW2 3011   2.848   0.356   2.416 -1.0784  3.5398 -0.8280
  753SOL     MW 3012   2.900   0.283   2.399 -0.6050  1.0382 -0.2154
  754SOL     OW 3013   2.265   2.981   2.612 -0.4276  0.1583  0.5437
  754SOL    HW1 3014   2.293   2.993   2.521  0.8858  0.1457 -0.5322
  754SOL    HW2 3015   2.336   2.926   2.649  0.1656  3.6545 -1.5783
  754SOL     MW 3016   2.278   2.975   2.605 -0.1760  0.6179  0.1218
  755SOL     OW 3017   2.718   1.517   2.507 -0.0851 -0.2928 -0.1152
  755SOL    HW1 3018   2.697   1.451   2.567 -1.2767  0.1430  2.1753
  755SOL    HW2 3019   2.790   1.568   2.550  0.6124 -0.3236 -0.9242
  755SOL     MW 3020   2.724   1.515   2.520 -0.1503 -0.2393  0.0803
  756SOL     OW 3021   2.268   1.284   2.985 -0.6427 -0.0971  0.2230
  756SOL    HW1 3022   2.326   1.357   3.010  0.4208  0.4085  0.0934
  756SOL    HW2 3023   2.326   1.204   2.994  1.8602 -1.2396 -1.4396
  756SOL     MW 3024   2.283   1.283   2.989 -0.1721 -0.1812 -0.0135
  757SOL     OW 3025   2.100   0.947   1.610 -0.3832  0.5547 -0.2754
  757SOL    HW1 3026   2.144   0.862   1.614 -0.3047  0.0237  0.3762
  757SOL    HW2 3027   2.012   0.933   1.568 -3.5933  0.5517  3.0282
  757SOL     MW 3028   2.094   0.934   1.605 -0.7964  0.4843  0.2464
  758SOL     OW 3029   2.189   1.756   2.629  0.2577 -0.3791  0.3860
  758SOL    HW1 3030   2.163   1.794   2.541 -2.1618 -0.0356  0.8119
  758SOL    HW2 3031   2.285   1.754   2.638 -0.0784  0.5759  0.6478
  758SOL     MW 3032   2.198   1.761   2.618 -0.1059 -0.2078  0.4767
  759SOL     OW 3033   1.617   1.357   2.706  0.0336 -0.2359  0.2357
  759SOL    HW1 3034   1.616   1.449   2.663  3.0675 -0.0150 -0.6787
  759SOL    HW2 3035   1.653   1.377   2.794  0.6646 -0.1053 -0.9107
  759SOL     MW 3036   1.622   1.372   2.712  0.5172 -0.1895 -0.0362
  760SOL     OW 3037   2.573   2.009   2.677  0.0098 -0.1288  0.3577
  760SOL    HW1 3038   2.546   1.913   2.657 -1.5230  2.0919 -2.1560
  760SOL    HW2 3039   2.553   2.067   2.605 -0.3643 -0.4071 -1.3550
  760SOL     MW 3040   2.567   2.004   2.665 -0.2418  0.1275 -0.2000
  761SOL     OW 3041   2.160   0.417   2.484  0.7573 -0.0641 -0.5328
  761SOL    HW1 3042   2.084   0.361   2.497 -1.8028  0.5996 -1.6732
  761SOL    HW2 3043   2.170   0.470   2.566  2.6981 -2.9629  2.9734
  761SOL     MW 3044   2.151   0.417   2.497  0.6756 -0.3590 -0.2207
  762SOL     OW 3045   0.029   0.162   2.045  0.1474 -0.0377  0.2208
  762SOL    HW1 3046   0.013   0.101   2.118  0.4158  1.3930  1.3834
  762SOL    HW2 3047  -0.038   0.231   2.037  1.5046 -0.3599 -0.2995
  762SOL     MW 3048   0.018   0.163   2.053  0.3619  0.1086  0.3055
  763SOL     OW 3049   2.400   1.078   2.293 -0.6837 -0.0156 -0.1664
  763SOL    HW1 3050   2.456   1.046   2.220  0.9026 -0.2599 -0.0187
  763SOL    HW2 3051   2.461   1.140   2.339 -3.2335 -0.5083 -2.2615
  763SOL     MW 3052   2.416   1.082   2.289 -0.8108 -0.1128 -0.4234
  764SOL     OW 3053   0.457   0.292   2.794  0.2556  0.1916  0.0092
  764SOL    HW1 3054   0.374   0.257   2.790  1.0406  0.3093  0.2970
  764SOL    HW2 3055   0.438   0.372   2.843 -0.4098  0.9426 -1.1393
  764SOL     MW 3056   0.443   0.298   2.800  0.2714  0.3062 -0.1044
  765SOL     OW 3057   2.779   0.092   2.293  0.3432 -0.0637  0.4890
  765SOL    HW1 3058   2.719   0.088   2.218  1.3855  1.2601  0.4966
  765SOL    HW2 3059   2.811  -0.003   2.299  1.1917 -0.7838 -0.6752
  765SOL     MW 3060   2.775   0.079   2.284  0.5927  0.0159  0.3364
  766SOL     OW 3061   1.877   3.001   2.232  0.1004  0.2336  0.3027
  766SOL    HW1 3062   1.925   3.051   2.165 -0.7999  0.9389 -1.0397
  766SOL    HW2 3063   1.802   2.961   2.192 -0.1710 -5.1809  0.4157
  766SOL     MW 3064   1.873   3.002   2.218 -0.0542 -0.3877  0.1405
  767SOL     OW 3065   2.626   0.621   1.925 -0.6464 -0.2393 -0.3649
  767SOL    HW1 3066   2.674   0.677   1.989 -0.0961  0.3392 -0.7136
  767SOL    HW2 3067   2.534   0.631   1.954  0.3462  0.5055  0.8080
  767SOL     MW 3068   2.620   0.630   1.937 -0.4429 -0.0647 -0.2561
  768SOL     OW 3069   0.041   1.528   2.953  0.3029  0.0203  0.2275
  768SOL    HW1 3070   0.016   1.491   3.038  2.1566 -0.8715 -0.7690
  768SOL    HW2 3071   0.047   1.444   2.895 -1.5363 -2.7929  2.3738
  768SOL     MW 3072   0.038   1.512   2.956  0.3048 -0.4685  0.3792
  769SOL     OW 3073   2.362   0.687   2.276  0.0429 -0.1302  0.3560
  769SOL    HW1 3074   2.275   0.660   2.275  2.3061  0.4961 -1.1983
  769SOL    HW2 3075   2.398   0.652   2.196  0.0045 -1.1913  3.3170
  769SOL     MW 3076   2.355   0.679   2.265  0.3365 -0.1876  0.5416
  770SOL     OW 3077   0.079   1.603   2.596 -0.5658  0.0569  0.3046
  770SOL    HW1 3078  -0.018   1.615   2.597  0.7985 -0.0803 -0.8097
  770SOL    HW2 3079   0.089   1.535   2.658  1.4924  1.5378 -0.9462
  770SOL     MW 3080   0.067   1.595   2.605 -0.1143  0.2342 -0.0075
  771SOL     OW 3081   2.949   0.639   1.932  0.0293  0.4292 -0.4740
  771SOL    HW1 3082   2.916   0.601   1.855  1.4850 -0.8874  1.7652
  771SOL    HW2 3083   3.044   0.625   1.920 -0.5135 -0.0960  0.8330
  771SOL     MW 3084   2.957   0.632   1.920  0.1498  0.1862 -0.0061
  772SOL     OW 3085   0.004   3.097   2.259  0.1321 -0.7819  0.0268
  772SOL    HW1 3086  -0.080   3.065   2.289 -1.6131  0.1771 -0.9463
  772SOL    HW2 3087   0.057   3.014   2.227  0.2605  1.6409  1.9025
  772SOL     MW 3088  -0.000   3.082   2.258 -0.0813 -0.3357  0.1459
  773SOL     OW 3089   2.456   2.853   2.736  0.2404  0.1539  0.3523
  773SOL    HW1 3090   2.440   2.767   2.698  0.4080 -1.3261  1.8949
  773SOL    HW2 3091   2.438   2.831   2.828  0.9691  1.0555  1.3914
  773SOL     MW 3092   2.452   2.839   2.743  0.3586  0.0776  0.6929
  774SOL     OW 3093   2.287   1.166   1.738 -0.6859  0.2375 -0.1072
  774SOL    HW1 3094   2.285   1.237   1.667  2.1955 -0.2590 -2.3863
  774SOL    HW2 3095   2.227   1.093   1.717  1.0651  1.8746  3.4057
  774SOL     MW 3096   2.279   1.166   1.726 -0.0747  0.3880  0.0556
  775SOL     OW 3097   2.308   2.914   2.313 -0.0284 -0.2953 -0.6040
  775SOL    HW1 3098   2.332   2.990   2.261 -4.2246  0.2646  2.1594
  775SOL    HW2 3099   2.369   2.838   2.305 -1.5840 -0.5260  2.0243
  775SOL     MW 3100   2.319   2.914   2.305 -0.7873 -0.2519  0.1074
  776SOL     OW 3101   0.025   1.453   0.120  0.4883 -0.0176 -0.3725
  776SOL    HW1 3102   0.106   1.404   0.116 -3.0447  1.6544 -0.0419
  776SOL    HW2 3103  -0.027   1.396   0.169  0.6533  0.6652 -1.6399
  776SOL     MW 3104   0.028   1.439   0.126  0.0439  0.2931 -0.4961
  777SOL     OW 3105   3.008   1.071   1.761 -0.3221 -0.3623  0.1798
  777SOL    HW1 3106   3.000   1.168   1.765 -0.6998  0.3036 -2.4723
  777SOL    HW2 3107   2.921   1.044   1.781 -1.2219  0.7361  1.1386
  777SOL     MW 3108   2.996   1.080   1.764 -0.4907 -0.1295 -0.0436
  778SOL     OW 3109   2.896   0.405   2.757 -0.5068  0.1300  0.0512
  778SOL    HW1 3110   2.841   0.440   2.829  0.8045 -2.6502  0.1400
  778SOL    HW2 3111   2.893   0.473   2.693  0.0547 -0.0869 -0.3856
  778SOL     MW 3112   2.888   0.419   2.758 -0.2597 -0.2655  0.0053
  779SOL     OW 3113   2.090   0.616   2.296  0.2705  0.1266  0.3253
  779SOL    HW1 3114   2.011   0.673   2.324 -1.7398  1.3910 -0.8864
  779SOL    HW2 3115   2.100   0.545   2.353 -2.2940  1.4455 -2.7755
  779SOL     MW 3116   2.081   0.614   2.307 -0.3331  0.4675 -0.2437
  780SOL     OW 3117   0.210   0.128   2.787 -0.0505  0.0862  0.6984
  780SOL    HW1 3118   0.182   0.160   2.870  1.4406 -1.1085  1.2874
  780SOL    HW2 3119   0.137   0.124   2.725 -0.6774 -1.2004  0.6585
  780SOL     MW 3120   0.197   0.132   2.789  0.0636 -0.2412  0.7709
  781SOL     OW 3121   3.033   1.335   2.500 -0.7149 -0.0361 -0.2459
  781SOL    HW1 3122   3.036   1.391   2.424 -2.2716 -0.3695  0.1866
  781SOL    HW2 3123   3.037   1.245   2.466 -0.8647 -2.6753 -2.8123
  781SOL     MW 3124   3.034   1.330   2.485 -0.9401 -0.4283 -0.5274
  782SOL     OW 3125   0.692   1.557  -0.001 -0.7740 -0.0908  0.3415
  782SOL    HW1 3126   0.628   1.612  -0.046 -0.3927  0.6940  1.1739
  782SOL    HW2 3127   0.656   1.538   0.085 -2.3513  1.0950  3.4819
  782SOL     MW 3128   0.679   1.562   0.004 -0.9318  0.1692  0.8656
  783SOL     OW 3129   2.713   0.470   2.427 -0.0417 -0.0335  0.2413
  783SOL    HW1 3130   2.670   0.459   2.339  3.7656  0.5406 -1.3268
  783SOL    HW2 3131   2.656   0.440   2.498  1.2954 -2.5041  0.3648
  783SOL     MW 3132   2.700   0.464   2.425  0.6371 -0.2837  0.0507
  784SOL     OW 3133   0.283   0.902   2.880  0.7047  0.5480 -0.8191
  784SOL    HW1 3134   0.245   0.981   2.919  1.2270 -0.1098  1.2808
  784SOL    HW2 3135   0.343   0.929   2.812 -3.9591 -0.8731  1.4940
  784SOL     MW 3136   0.286   0.916   2.876  0.1582  0.2737 -0.2368
  785SOL     OW 3137   0.419   0.503   2.191  0.1468 -0.0196 -0.2030
  785SOL    HW1 3138   0.428   0.545   2.108 -1.3617  0.9517 -2.1284
  785SOL    HW2 3139   0.355   0.430   2.174 -1.5048  1.5017  2.7889
  785SOL     MW 3140   0.412   0.499   2.178 -0.2701  0.3093 -0.0622
  786SOL     OW 3141   1.941   0.497   2.893  0.1427  0.0516  0.0633
  786SOL    HW1 3142   1.974   0.515   2.984 -1.0026  0.5869 -3.8183
  786SOL    HW2 3143   2.017   0.452   2.850 -3.5833  1.4381 -0.9260
  786SOL     MW 3144   1.956   0.493   2.899 -0.5000  0.3051 -0.5794
  787SOL     OW 3145   2.423   0.142   2.957 -0.2183 -0.6952  0.5510
  787SOL    HW1 3146   2.488   0.090   2.905 -0.5757  0.2165  2.3288
  787SOL    HW2 3147   2.474   0.213   3.006  1.3367  2.4987 -1.8346
  787SOL     MW 3148   2.439   0.144   2.956 -0.0603 -0.1535  0.4708
  788SOL     OW 3149   2.869   2.942   2.365 -0.2172  0.0548  0.1591
  788SOL    HW1 3150   2.816   2.938   2.440  2.2240 -2.2543 -1.2026
  788SOL    HW2 3151   2.929   2.864   2.364 -0.7464 -1.3248  2.0515
  788SOL     MW 3152   2.870   2.931   2.375  0.0351 -0.4319  0.2291
  789SOL     OW 3153   0.093   0.314   2.952  0.4472 -0.1286  0.1807
  789SOL    HW1 3154   0.006   0.280   2.981 -0.5351  1.4694  1.7022
  789SOL    HW2 3155   0.086   0.393   2.903 -0.8599 -3.7235 -0.6207
  789SOL     MW 3156   0.080   0.320   2.950  0.1451 -0.3920  0.2757
  790SOL     OW 3157   3.036   1.061   2.431 -0.3957  0.1179  0.0739
  790SOL    HW1 3158   3.014   1.011   2.507  1.3298 -0.5790  0.1080
  790SOL    HW2 3159   2.988   1.013   2.362  0.9709 -0.4872 -1.1589
  790SOL     MW 3160   3.027   1.048   2.432  0.0123 -0.0539 -0.0842
  791SOL     OW 3161   2.639   0.317   2.650  1.0104 -0.3176  0.4561
  791SOL    HW1 3162   2.566   0.356   2.698  0.7824 -0.1272 -2.4844
  791SOL    HW2 3163   2.720   0.337   2.688 -0.7097 -0.0808  2.3364
  791SOL     MW 3164   2.640   0.324   2.661  0.7533 -0.2613  0.3162
  792SOL     OW 3165   2.363   0.267   2.365 -0.0729 -0.1124 -0.1522
  792SOL    HW1 3166   2.294   0.331   2.398  0.6896  0.1741  2.0128
  792SOL    HW2 3167   2.379   0.216   2.444 -0.1640 -1.5253 -3.3432
  792SOL     MW 3168   2.356   0.269   2.380  0.0157 -0.2610 -0.2876
  793SOL     OW 3169   1.852   1.079   1.966  0.2437 -0.0332 -0.7969
  793SOL    HW1 3170   1.839   1.094   1.877  2.1503 -0.2822 -1.8984
  793SOL    HW2 3171   1.899   0.993   1.967 -1.9503 -0.7359  1.9243
  793SOL     MW 3172   1.856   1.070   1.955  0.2058 -0.1587 -0.5832
  794SOL     OW 3173   1.450   2.264   0.177 -0.0076  0.3467 -0.2224
  794SOL    HW1 3174   1.467   2.339   0.129  0.0091 -0.9126 -1.4189
  794SOL    HW2 3175   1.489   2.277   0.264  2.1765 -1.7197  0.1126
  794SOL     MW 3176   1.458   2.276   0.182  0.2828 -0.0921 -0.3361
  795SOL     OW 3177   2.353   0.971   2.562 -0.1046  0.1148 -0.0440
  795SOL    HW1 3178   2.327   1.035   2.631  2.5375 -0.4236  0.2991
  795SOL    HW2 3179   2.363   1.013   2.482 -0.3901  0.2834  1.4278
  795SOL     MW 3180   2.351   0.985   2.560  0.2063  0.0660  0.1955
  796SOL     OW 3181   0.244   0.598   2.762 -0.5975 -0.0719  0.8262
  796SOL    HW1 3182   0.204   0.681   2.799  0.9454  0.4488 -0.9909
  796SOL    HW2 3183   0.198   0.579   2.677 -2.8204  1.5458  2.2285
  796SOL     MW 3184   0.233   0.606   2.756 -0.6872  0.2102  0.7715
  797SOL     OW 3185   2.562   0.090   2.511 -0.1766 -0.2518  0.3019
  797SOL    HW1 3186   2.591   0.164   2.553  1.0860  0.2864  1.7885
  797SOL    HW2 3187   2.615   0.075   2.431  2.2005 -2.7739 -0.4390
  797SOL     MW 3188   2.573   0.098   2.506  0.3036 -0.5136  0.4003
  798SOL     OW 3189   2.342   0.050   2.169  0.0410  0.0130 -0.6273
  798SOL    HW1 3190   2.341   0.103   2.251  1.6137 -1.2132 -0.7475
  798SOL    HW2 3191   2.430   0.052   2.142  0.5637 -1.4060 -0.0483
  798SOL     MW 3192   2.353   0.057   2.176  0.3174 -0.3360 -0.5668
  799SOL     OW 3193   2.454   2.912   0.125 -0.0953 -0.3768 -0.2672
  799SOL    HW1 3194   2.417   2.860   0.052 -0.6248  2.1126 -0.1794
  799SOL    HW2 3195   2.398   2.988   0.124  2.0873 -0.5044 -0.4736
  799SOL     MW 3196   2.442   2.915   0.116  0.1228 -0.0652 -0.2828
  800SOL     OW 3197   1.832   3.087   1.790 -0.1775  0.2349  0.2957
  800SOL    HW1 3198   1.777   3.005   1.792 -1.0780  1.0333  0.9614
  800SOL    HW2 3199   1.888   3.084   1.864  1.1797 -0.6647 -1.1271
  800SOL     MW 3200   1.832   3.076   1.800 -0.1172  0.2215  0.1958
  801SOL     OW 3201   2.802   1.270   2.647  0.0746  0.3172 -0.3888
  801SOL    HW1 3202   2.791   1.183   2.620  3.3523 -2.1239 -0.6445
  801SOL    HW2 3203   2.876   1.300   2.601 -1.2755 -1.8382  2.1249
  801SOL     MW 3204   2.810   1.263   2.637  0.3289 -0.2892 -0.0909
  802SOL     OW 3205   2.573   1.538   2.808 -0.4604 -0.1332 -0.2228
  802SOL    HW1 3206   2.549   1.446   2.780  0.3084  1.7004  2.9037
  802SOL    HW2 3207   2.661   1.538   2.841  0.7602  0.3705 -0.6942
  802SOL     MW 3208   2.581   1.526   2.809 -0.1979  0.1752  0.1275
  803SOL     OW 3209   2.281   1.377   1.956  0.1359 -1.0151 -0.3536
  803SOL    HW1 3210   2.249   1.368   2.042  0.1930 -1.6185 -5.2499
  803SOL    HW2 3211   2.267   1.292   1.920 -0.4662  0.1917 -3.1468
  803SOL     MW 3212   2.275   1.365   1.963  0.0640 -0.9355 -1.3682
  804SOL     OW 3213   2.286   0.040   0.056  0.2683 -0.4213  0.2592
  804SOL    HW1 3214   2.199   0.086   0.066  0.0984  0.5772  0.7189
  804SOL    HW2 3215   2.345   0.089  -0.006  1.4329  0.4603 -1.3849
  804SOL     MW 3216   2.282   0.053   0.049  0.3996 -0.1733  0.1029
  805SOL     OW 3217   2.699   1.018   2.504  0.1861  0.3540  0.1835
  805SOL    HW1 3218   2.737   0.992   2.421  1.0510  3.5668 -0.0170
  805SOL    HW2 3219   2.755   0.971   2.565  0.1510  0.8460  0.6104
  805SOL     MW 3220   2.711   1.008   2.501  0.2956  0.8428  0.2134
  806SOL     OW 3221   2.555   0.391   2.213  0.4863  0.0857  0.0401
  806SOL    HW1 3222   2.483   0.348   2.262 -2.7563 -0.3567  0.3093
  806SOL    HW2 3223   2.522   0.427   2.134 -0.6655 -0.3882  0.3244
  806SOL     MW 3224   2.541   0.390   2.209 -0.0935 -0.0352  0.1131
  807SOL     OW 3225   0.051   1.149   2.086  0.2998 -0.0273 -0.7695
  807SOL    HW1 3226   0.096   1.076   2.033 -0.3452 -1.5325 -0.9469
  807SOL    HW2 3227  -0.038   1.107   2.107  0.9832  0.6701 -1.0816
  807SOL     MW 3228   0.046   1.134   2.082  0.3049 -0.1339 -0.8341
  808SOL     OW 3229   2.580   3.096   2.774  0.1880  0.2441  0.6785
  808SOL    HW1 3230   2.548   3.004   2.768  0.6402 -0.0307 -0.9547
  808SOL    HW2 3231   2.582   3.119   2.680  0.0151  1.2583 -4.3999
  808SOL     MW 3232   2.576   3.087   2.761  0.2249  0.3417 -0.2070
  809SOL     OW 3233   2.563   1.269   2.413 -0.0207 -0.2121  0.2299
  809SOL    HW1 3234   2.593   1.251   2.502 -2.0061  0.3023 -2.3224
  809SOL    HW2 3235   2.639   1.271   2.361 -2.1836 -0.9768 -0.3288
  809SOL     MW 3236   2.577   1.267   2.418 -0.5680 -0.2451 -0.1805
  810SOL     OW 3237   2.262   1.296   2.233 -0.1593  0.0784 -0.0333
  810SOL    HW1 3238   2.312   1.213   2.257  0.9891 -1.7223 -0.8622
  810SOL    HW2 3239   2.172   1.257   2.239 -1.3061 -1.9344  0.2457
  810SOL     MW 3240   2.257   1.280   2.237 -0.1591 -0.4247 -0.1059
  811SOL     OW 3241   1.540   0.133   2.275 -0.4770 -0.0077  0.4971
  811SOL    HW1 3242   1.618   0.104   2.338  1.6085  0.2831 -1.0252
  811SOL    HW2 3243   1.559   0.130   2.181 -2.4515  0.2284 -1.5775
  811SOL     MW 3244   1.553   0.129   2.271 -0.4623  0.0618  0.0225
  812SOL     OW 3245   1.442   2.797   2.115 -0.5379 -0.6362 -0.4090
  812SOL    HW1 3246   1.532   2.812   2.076 -0.2532 -0.4931 -0.4611
  812SOL    HW2 3247   1.455   2.798   2.212  0.5832 -2.3020  0.2741
  812SOL     MW 3248   1.455   2.799   2.123 -0.3524 -0.8371 -0.3258
  813SOL     OW 3249   1.782   0.716   2.192 -0.6346  0.2156  0.0590
  813SOL    HW1 3250   1.771   0.628   2.231  1.4513  1.3043  0.6561
  813SOL    HW2 3251   1.808   0.771   2.268  1.2693  0.4730  0.2963
  813SOL     MW 3252   1.784   0.712   2.207 -0.1082  0.3932  0.1691
  814SOL     OW 3253   2.794   1.262   1.675 -0.0838 -0.4916 -0.0127
  814SOL    HW1 3254   2.700   1.263   1.679  1.8784 -2.9767 -2.6946
  814SOL    HW2 3255   2.801   1.241   1.583 -1.3705  0.1816  1.5921
  814SOL     MW 3256   2.782   1.259   1.664  0.0053 -0.7307 -0.1548
  815SOL     OW 3257   2.487   1.649   2.429  0.2055  0.3587 -0.1972
  815SOL    HW1 3258   2.423   1.578   2.427 -1.3850 -1.3604 -0.1152
  815SOL    HW2 3259   2.575   1.614   2.428  4.5535  1.6830 -1.3544
  815SOL     MW 3260   2.490   1.635   2.429  0.5693  0.3066 -0.3391
  816SOL     OW 3261   0.768   0.677   2.716  0.6259 -1.1728  0.1117
  816SOL    HW1 3262   0.779   0.613   2.783 -0.0836  2.1631 -0.0886
  816SOL    HW2 3263   0.672   0.697   2.710 -0.3851 -1.0443 -0.4223
  816SOL     MW 3264   0.757   0.671   2.724  0.3989 -0.7157  0.0148
  817SOL     OW 3265   3.030   1.251   1.394  0.1837 -0.9495  0.0827
  817SOL    HW1 3266   3.100   1.219   1.449 -1.9666 -0.7474  0.8026
  817SOL    HW2 3267   3.035   1.347   1.378 -0.3333 -1.9340 -0.5813
  817SOL     MW 3268   3.040   1.260   1.399 -0.1682 -1.0528  0.0901
  818SOL     OW 3269   1.943   1.003   2.732 -0.4423  0.1695  0.1644
  818SOL    HW1 3270   1.922   1.031   2.643 -0.0936 -0.6421 -0.2040
  818SOL    HW2 3271   2.003   0.925   2.722  0.2174 -1.1250 -0.6611
  818SOL     MW 3272   1.948   0.997   2.719 -0.3093 -0.1084  0.0069
  819SOL     OW 3273   1.900   0.283   2.475 -0.0225  0.3551  0.1715
  819SOL    HW1 3274   1.815   0.326   2.478  2.3228 -1.1688  0.5921
  819SOL    HW2 3275   1.933   0.284   2.571  0.3249 -0.5294  2.5955
  819SOL     MW 3276   1.893   0.289   2.488  0.3328  0.0373  0.5468
  820SOL     OW 3277   2.458   1.763   2.676 -0.0770  0.1913 -0.2707
  820SOL    HW1 3278   2.486   1.697   2.743 -0.4193  1.2424 -0.1430
  820SOL    HW2 3279   2.474   1.718   2.595  1.8721 -1.8103  2.0830
  820SOL     MW 3280   2.464   1.749   2.674  0.1350  0.0659  0.0567
  821SOL     OW 3281   2.569   1.350   2.003 -0.0739 -0.1777  0.2201
  821SOL    HW1 3282   2.616   1.414   1.950 -0.0065  0.2939  1.2821
  821SOL    HW2 3283   2.476   1.371   1.983  2.0581 -0.0161 -1.3329
  821SOL     MW 3284   2.563   1.361   1.993  0.2163 -0.0941  0.1554
  822SOL     OW 3285   2.816   2.623   1.487 -0.1140  0.8940 -0.2412
  822SOL    HW1 3286   2.853   2.664   1.567 -1.3758  2.1825  1.0098
  822SOL    HW2 3287   2.760   2.686   1.452 -1.5448 -1.9606  0.0420
  822SOL     MW 3288   2.814   2.637   1.493 -0.4692  0.6874 -0.0388
  823SOL     OW 3289   2.251   0.460   1.794  0.0021 -0.1589  0.1875
  823SOL    HW1 3290   2.335   0.419   1.762  1.4414 -0.8449  2.1915
  823SOL    HW2 3291   2.181   0.422   1.746  0.8707 -0.8322  1.8761
  823SOL     MW 3292   2.253   0.449   1.783  0.3066 -0.3382  0.6747
  824SOL     OW 3293   2.069   1.377   2.530 -0.2089 -0.2482 -0.6963
  824SOL    HW1 3294   2.162   1.398   2.500 -0.2726 -0.8757 -1.7451
  824SOL    HW2 3295   2.046   1.442   2.603 -0.7953  0.9889 -3.7582
  824SOL     MW 3296   2.078   1.388   2.535 -0.2947 -0.1678 -1.2387
  825SOL     OW 3297   2.099   2.565   0.293  0.0483  0.0060  0.2566
  825SOL    HW1 3298   2.155   2.547   0.367  0.3527 -0.5782 -2.2247
  825SOL    HW2 3299   2.144   2.504   0.233 -0.2405  1.1979  0.1791
  825SOL     MW 3300   2.112   2.555   0.295  0.0504  0.0862 -0.0810
  826SOL     OW 3301   1.933   2.334   0.553  0.1015  0.6109  0.3199
  826SOL    HW1 3302   1.852   2.283   0.581 -1.9757  0.9049 -0.5520
  826SOL    HW2 3303   1.930   2.421   0.603 -0.0030  2.1973 -0.9462
  826SOL     MW 3304   1.922   2.339   0.564 -0.1864  0.8590  0.0378
  827SOL     OW 3305   1.975   2.185   0.838 -0.2312 -0.1128 -0.3919
  827SOL    HW1 3306   1.896   2.210   0.791  0.5875 -0.3213 -1.9380
  827SOL    HW2 3307   1.955   2.099   0.869 -0.1118 -2.0363 -0.2688
  827SOL     MW 3308   1.962   2.177   0.836 -0.1074 -0.3941 -0.5797
  828SOL     OW 3309   0.049   2.670   0.539  0.2466 -0.4625 -0.6586
  828SOL    HW1 3310   0.144   2.668   0.524  1.8451 -1.9595 -2.4941
  828SOL    HW2 3311   0.019   2.729   0.468 -2.2400  2.5143  0.3536
  828SOL     MW 3312   0.058   2.677   0.528  0.1294 -0.2673 -0.7672
  829SOL     OW 3313   2.992   2.934   1.250  0.2033 -0.0107 -0.3864
  829SOL    HW1 3314   2.906   2.927   1.208 -3.1748  0.3659  2.1291
  829SOL    HW2 3315   3.026   2.847   1.243 -2.1526  0.3178  0.6025
  829SOL     MW 3316   2.985   2.921   1.243 -0.5532  0.0823  0.0759
  830SOL     OW 3317   2.496   2.873   2.038 -0.1135 -0.0806  0.1022
  830SOL    HW1 3318   2.400   2.889   2.010 -1.2222  3.9108 -1.3376
  830SOL    HW2 3319   2.547   2.855   1.963 -2.4419 -1.1434  0.3134
  830SOL     MW 3320   2.490   2.873   2.024 -0.5670  0.3058 -0.0599
  831SOL     OW 3321   2.384   2.425   1.236  0.0316  0.3911 -0.3111
  831SOL    HW1 3322   2.358   2.363   1.309  2.5576  0.3956  3.4275
  831SOL    HW2 3323   2.480   2.417   1.231 -1.2047  0.4757 -2.5507
  831SOL     MW 3324   2.394   2.416   1.245  0.2018  0.4028 -0.1133
  832SOL     OW 3325   2.433   2.210   1.887 -0.4759 -0.5844 -0.6313
  832SOL    HW1 3326   2.463   2.308   1.892  2.7392 -1.7812  2.5903
  832SOL    HW2 3327   2.520   2.163   1.889  0.2365 -0.8810 -0.4138
  832SOL     MW 3328   2.448   2.217   1.888  0.0423 -0.7815 -0.1775
  833SOL     OW 3329   1.790   2.476   0.917  0.4250  0.6442 -0.1221
  833SOL    HW1 3330   1.721   2.410   0.944  0.0031 -0.6257 -1.8611
  833SOL    HW2 3331   1.791   2.566   0.959  0.8847  5.2952  1.5836
  833SOL     MW 3332   1.781   2.479   0.926  0.4300  1.0903 -0.1265
  834SOL     OW 3333   2.220   2.448   0.509 -0.4483 -0.2052 -0.2508
  834SOL    HW1 3334   2.166   2.376   0.540  1.1344 -0.8941  2.4099
  834SOL    HW2 3335   2.284   2.411   0.438  2.0250  1.7889 -2.2585
  834SOL     MW 3336   2.221   2.434   0.504  0.0869 -0.0330 -0.1647
  835SOL     OW 3337   1.866   2.590   0.693  0.4828  0.0190 -0.1303
  835SOL    HW1 3338   1.842   2.524   0.766  0.3408  2.1013  1.0320
  835SOL    HW2 3339   1.923   2.663   0.713 -0.5404  1.7774  1.9923
  835SOL     MW 3340   1.871   2.591   0.705  0.3291  0.5258  0.3031
  836SOL     OW 3341   1.982   2.149   1.661  0.4563  0.4653 -0.1590
  836SOL    HW1 3342   2.077   2.134   1.658  0.6380 -1.4819  0.5379
  836SOL    HW2 3343   1.953   2.210   1.727 -0.0215  0.5015 -1.6976
  836SOL     MW 3344   1.990   2.155   1.669  0.4173  0.2132 -0.2701
  837SOL     OW 3345   2.081   0.188   0.703 -0.0824 -0.2400 -0.2833
  837SOL    HW1 3346   2.011   0.231   0.643 -0.7774  0.2886 -1.0936
  837SOL    HW2 3347   2.116   0.127   0.633 -2.4849  0.2628 -0.2562
  837SOL     MW 3348   2.077   0.186   0.686 -0.4911 -0.1039 -0.3866
  838SOL     OW 3349   2.913   2.025   0.912 -0.2619  0.2768  0.3736
  838SOL    HW1 3350   2.833   1.986   0.945 -0.1342  0.8315 -1.4789
  838SOL    HW2 3351   2.953   1.970   0.846 -0.1547  0.0419 -1.7877
  838SOL     MW 3352   2.908   2.012   0.908 -0.2309  0.3190 -0.1560
  839SOL     OW 3353   1.479   2.355   0.925  0.3399  0.2721  0.3683
  839SOL    HW1 3354   1.465   2.436   0.975 -2.5859  0.7182 -0.5093
  839SOL    HW2 3355   1.531   2.301   0.987  0.2298 -0.6998  0.7678
  839SOL     MW 3356   1.484   2.359   0.940 -0.0607  0.2027  0.3052
  840SOL     OW 3357   2.286   2.063   2.402 -0.2063  0.1030 -0.0373
  840SOL    HW1 3358   2.250   2.147   2.375 -0.3442 -4.1488 -2.4929
  840SOL    HW2 3359   2.348   2.103   2.458 -1.3680 -0.3823  2.5002
  840SOL     MW 3360   2.290   2.079   2.405 -0.3777 -0.5220 -0.0265
  841SOL     OW 3361   2.185   2.438   0.046  0.3357  0.1036 -0.4051
  841SOL    HW1 3362   2.247   2.451  -0.031  3.8041  0.5470 -0.5500
  841SOL    HW2 3363   2.115   2.371   0.021 -0.0134  1.2730 -2.6409
  841SOL     MW 3364   2.184   2.431   0.032  0.7473  0.3164 -0.7192
  842SOL     OW 3365   2.681   1.995   1.573  0.1622 -0.4221  0.5689
  842SOL    HW1 3366   2.614   1.929   1.575  1.7470 -1.5705  2.1192
  842SOL    HW2 3367   2.663   2.037   1.484  1.0277  3.6364 -3.5320
  842SOL     MW 3368   2.669   1.992   1.562  0.4855 -0.0381  0.2323
  843SOL     OW 3369   2.665   2.846   1.813 -0.1770 -0.5193 -0.3040
  843SOL    HW1 3370   2.753   2.816   1.825 -0.2766 -2.2367 -1.3351
  843SOL    HW2 3371   2.619   2.767   1.778  0.7638 -1.3142 -1.4786
  843SOL     MW 3372   2.670   2.831   1.810 -0.0660 -0.8508 -0.5950
  844SOL     OW 3373   2.653   2.342   1.212 -0.1496  0.4785 -0.1115
  844SOL    HW1 3374   2.669   2.385   1.128 -3.9753 -2.7027  0.5186
  844SOL    HW2 3375   2.735   2.347   1.262 -0.7949  0.9526  1.8234
  844SOL     MW 3376   2.666   2.348   1.207 -0.7395  0.1213  0.2270
  845SOL     OW 3377   2.828   2.520   0.338  0.0418  0.0949  0.3004
  845SOL    HW1 3378   2.749   2.462   0.348 -0.5815  1.5017  1.3110
  845SOL    HW2 3379   2.821   2.581   0.421 -2.5616  1.1268  3.5668
  845SOL     MW 3380   2.817   2.521   0.350 -0.3839  0.4166  0.8647
  846SOL     OW 3381   1.506   2.809   0.844 -0.6141  0.0298  0.2903
  846SOL    HW1 3382   1.581   2.867   0.817 -0.0617 -3.1825 -1.4234
  846SOL    HW2 3383   1.445   2.868   0.885 -0.6997 -1.6515  1.6430
  846SOL     MW 3384   1.508   2.825   0.846 -0.5525 -0.6158  0.2427
  847SOL     OW 3385   2.511   1.938   0.177 -0.4277 -0.5681 -0.1642
  847SOL    HW1 3386   2.533   1.848   0.215 -1.3638 -1.6556  4.0495
  847SOL    HW2 3387   2.463   1.915   0.094  1.6278  2.3804 -1.0543
  847SOL     MW 3388   2.507   1.923   0.171 -0.2800 -0.3225  0.2743
  848SOL     OW 3389   2.575   2.103   1.333  0.3913  0.0140 -1.1567
  848SOL    HW1 3390   2.618   2.162   1.276 -2.4422  1.8477  2.1012
  848SOL    HW2 3391   2.592   2.013   1.299  0.9947 -1.0655 -0.2838
  848SOL     MW 3392   2.583   2.099   1.321  0.0971  0.1135 -0.6117
  849SOL     OW 3393   2.034   2.792   0.781 -0.2311 -0.3009  0.0805
  849SOL    HW1 3394   2.068   2.750   0.861 -0.7054  0.4895 -1.6076
  849SOL    HW2 3395   2.091   2.741   0.718 -2.2528 -1.0661 -3.8379
  849SOL     MW 3396   2.046   2.780   0.783 -0.5604 -0.2975 -0.6592
  850SOL     OW 3397   2.251   1.853   1.689 -0.1827 -0.3776 -1.2533
  850SOL    HW1 3398   2.202   1.806   1.622  0.8164  0.6798  1.9323
  850SOL    HW2 3399   2.247   1.947   1.662  0.0018  0.1696  1.2806
  850SOL     MW 3400   2.244   1.859   1.676 -0.0266 -0.1659 -0.4987
  851SOL     OW 3401   2.364   2.358   0.288  0.3723  0.1385 -0.6326
  851SOL    HW1 3402   2.353   2.362   0.192  0.4879  1.7635 -3.3114
  851SOL    HW2 3403   2.459   2.336   0.306  0.4379 -1.3486  0.4847
  851SOL     MW 3404   2.375   2.356   0.278  0.3962  0.1567 -0.8386
  852SOL     OW 3405   2.314   2.093   0.330  0.1331  0.3139 -0.1878
  852SOL    HW1 3406   2.345   2.181   0.340  0.0208 -1.5645  1.2059
  852SOL    HW2 3407   2.379   2.045   0.274 -1.2599 -0.2224  0.2921
  852SOL     MW 3408   2.326   2.098   0.324 -0.0655 -0.0047  0.0594
  853SOL     OW 3409   2.464   2.486   1.935  0.3600 -0.7734 -0.5400
  853SOL    HW1 3410   2.470   2.529   1.848  1.1192 -0.4249 -1.7302
  853SOL    HW2 3411   2.555   2.496   1.965  0.6616  1.2622 -1.8974
  853SOL     MW 3412   2.477   2.493   1.928  0.5000 -0.4589 -0.8761
  854SOL     OW 3413   2.865   2.287   0.776 -0.0940  0.7932 -0.0963
  854SOL    HW1 3414   2.778   2.242   0.764 -0.9084 -0.1179  1.4211
  854SOL    HW2 3415   2.919   2.213   0.823  0.8181 -2.7934 -1.9547
  854SOL     MW 3416   2.860   2.271   0.781 -0.0811  0.1998 -0.1413
  855SOL     OW 3417   2.637   2.329   0.350 -0.4067  0.4870 -0.2904
  855SOL    HW1 3418   2.634   2.332   0.449  0.5244 -0.3770  2.2347
  855SOL    HW2 3419   2.686   2.243   0.341 -0.6997 -3.2273  0.6907
  855SOL     MW 3420   2.643   2.318   0.362 -0.3225 -0.1170  0.1722
  856SOL     OW 3421   2.130   1.954   0.196 -0.5952  0.3017  0.6425
  856SOL    HW1 3422   2.047   1.949   0.241  0.7325 -0.4016 -0.5550
  856SOL    HW2 3423   2.189   2.020   0.241  1.6014  0.7826  1.1351
  856SOL     MW 3424   2.127   1.962   0.208 -0.1302  0.2724  0.5495
  857SOL     OW 3425   2.474   1.974   0.555 -0.5364 -0.4476  0.1443
  857SOL    HW1 3426   2.416   2.013   0.479  2.6627  1.3930 -2.5567
  857SOL    HW2 3427   2.428   1.971   0.636  0.0303 -0.6199  0.3310
  857SOL     MW 3428   2.460   1.979   0.556 -0.0396 -0.2275 -0.1875
  858SOL     OW 3429   2.868   2.689   1.746  0.6773  0.7763  0.0634
  858SOL    HW1 3430   2.963   2.714   1.736 -1.5667  0.2655 -2.3136
  858SOL    HW2 3431   2.872   2.603   1.777 -2.3975  2.3849  1.2541
  858SOL     MW 3432   2.881   2.681   1.748 -0.0245  0.9211 -0.0931
  859SOL     OW 3433   2.144   2.583   0.909  0.2221  0.0505  0.2130
  859SOL    HW1 3434   2.097   2.505   0.934 -0.9179 -1.0933  0.3062
  859SOL    HW2 3435   2.231   2.551   0.919  0.2695  0.8721  1.0779
  859SOL     MW 3436   2.149   2.569   0.914  0.0780  0.0080  0.3394
  860SOL     OW 3437   2.692   2.587   0.119  0.0666  0.4277  0.0466
  860SOL    HW1 3438   2.724   2.589   0.214 -0.1366 -4.5456  0.0083
  860SOL    HW2 3439   2.680   2.679   0.094  2.3258  0.9722 -3.1962
  860SOL     MW 3440   2.695   2.599   0.128  0.3379 -0.1566 -0.3863
  861SOL     OW 3441   1.616   2.169   1.112  0.0216 -0.2653  0.1484
  861SOL    HW1 3442   1.623   2.259   1.152 -0.4671  1.8369 -1.2066
  861SOL    HW2 3443   1.567   2.111   1.169  1.6601 -0.2918  1.7774
  861SOL     MW 3444   1.611   2.173   1.125  0.1733  0.0086  0.1845
  862SOL     OW 3445   2.474   1.807   1.536 -0.0380 -0.2844 -0.5756
  862SOL    HW1 3446   2.401   1.824   1.598 -1.2175  1.1606 -0.3036
  862SOL    HW2 3447   2.437   1.827   1.448 -1.8622  1.7916 -0.0837
  862SOL     MW 3448   2.460   1.812   1.532 -0.4343  0.1802 -0.4748
  863SOL     OW 3449   3.002   1.752   1.037 -0.1387  0.0093  0.2061
  863SOL    HW1 3450   3.083   1.748   1.093 -1.7569  1.3449  0.5967
  863SOL    HW2 3451   2.973   1.841   1.040  1.6282  0.3246 -1.2038
  863SOL     MW 3452   3.009   1.763   1.045 -0.1191  0.2271  0.0716
  864SOL     OW 3453   3.073   1.839   0.788  0.4999 -0.3764  0.5527
  864SOL    HW1 3454   3.035   1.793   0.869 -0.9297 -2.3432  1.3772
  864SOL    HW2 3455   3.052   1.799   0.699  2.7696 -0.8920 -1.3005
  864SOL     MW 3456   3.065   1.828   0.787  0.6107 -0.7039  0.4170
  865SOL     OW 3457   2.473   2.202   0.056 -0.1529  0.2148  0.5018
  865SOL    HW1 3458   2.507   2.117   0.079 -0.9066  2.2523  0.9610
  865SOL    HW2 3459   2.390   2.184   0.017  0.9639 -5.3167  3.6191
  865SOL     MW 3460   2.467   2.189   0.053 -0.1050 -0.2462  0.9737
  866SOL     OW 3461   2.680   2.335   1.659  0.0696 -0.0587 -0.4993
  866SOL    HW1 3462   2.680   2.248   1.702  0.0592  0.1519 -0.6246
  866SOL    HW2 3463   2.730   2.322   1.572 -1.1320  2.0533 -3.4185
  866SOL     MW 3464   2.686   2.322   1.653 -0.0903  0.2478 -0.9010
  867SOL     OW 3465   0.060   2.683   1.776  0.2469 -0.3098 -0.6729
  867SOL    HW1 3466   0.080   2.753   1.836  0.4575  1.6802  2.5402
  867SOL    HW2 3467   0.099   2.713   1.696  2.5131 -2.1030  0.7949
  867SOL     MW 3468   0.068   2.696   1.773  0.5737 -0.2838 -0.0553
  868SOL     OW 3469   2.773   2.676   0.557 -0.3165  0.8992  0.2685
  868SOL    HW1 3470   2.696   2.623   0.548  0.1364  0.1171  2.2920
  868SOL    HW2 3471   2.765   2.756   0.507  0.1521  1.2838 -0.6880
  868SOL     MW 3472   2.761   2.680   0.549 -0.1949  0.8467  0.4092
  869SOL     OW 3473   2.066   2.311   1.059  0.4532  0.4199  0.4359
  869SOL    HW1 3474   2.159   2.308   1.031  1.0437 -1.3759 -3.0541
  869SOL    HW2 3475   2.028   2.271   0.976 -0.5583  0.2044 -0.2105
  869SOL     MW 3476   2.073   2.306   1.044  0.3976  0.1545 -0.1098
  870SOL     OW 3477   2.131   0.017   0.490  0.3337 -0.4328  0.6923
  870SOL    HW1 3478   2.211   0.040   0.433  1.6082 -1.9456 -1.4144
  870SOL    HW2 3479   2.150  -0.070   0.519 -1.5775  0.0415 -1.3276
  870SOL     MW 3480   2.144   0.009   0.486  0.2497 -0.5698  0.1478
  871SOL     OW 3481   2.439   2.039   0.965 -0.3952  0.1828 -0.1298
  871SOL    HW1 3482   2.388   2.032   0.886 -1.0742  0.9881  1.7147
  871SOL    HW2 3483   2.402   2.120   1.008 -0.6852  2.7310 -2.0701
  871SOL     MW 3484   2.427   2.049   0.961 -0.5230  0.6252 -0.1424
  872SOL     OW 3485   2.043   2.496   1.550  0.3911 -0.0261 -0.1689
  872SOL    HW1 3486   1.964   2.542   1.573 -0.7699 -1.3696 -0.2587
  872SOL    HW2 3487   2.029   2.432   1.485  1.6162  1.2159 -0.7163
  872SOL     MW 3488   2.030   2.494   1.545  0.3996 -0.0395 -0.2529
  873SOL     OW 3489   2.898   2.047   1.968 -0.4129 -0.0409  0.6201
  873SOL    HW1 3490   2.894   2.104   2.044 -1.8883 -0.7903  2.0000
  873SOL    HW2 3491   2.984   2.080   1.929  0.6458  0.0535 -2.8349
  873SOL     MW 3492   2.909   2.059   1.973 -0.4679 -0.1273  0.3463
  874SOL     OW 3493   2.333   1.430   2.470  0.0879 -0.1595  0.1659
  874SOL    HW1 3494   2.317   1.388   2.388 -0.1876  0.3142 -0.7422
  874SOL    HW2 3495   2.421   1.392   2.487  0.0359 -0.5217  2.1470
  874SOL     MW 3496   2.343   1.420   2.461  0.0447 -0.1448  0.3075
  875SOL     OW 3497   2.340   2.297   0.994  0.1324  0.3813 -0.2392
  875SOL    HW1 3498   2.390   2.354   0.936  0.2469 -2.4542 -2.5129
  875SOL    HW2 3499   2.347   2.336   1.084 -1.1521  1.4749  0.2937
  875SOL     MW 3500   2.347   2.310   0.998 -0.0220  0.1515 -0.4689
  876SOL     OW 3501   3.069   2.283   1.356  0.9462 -0.8296  1.1988
  876SOL    HW1 3502   3.110   2.330   1.274  1.5324  1.9983  2.0231
  876SOL    HW2 3503   3.118   2.324   1.430 -1.1636  0.6488  0.0155
  876SOL     MW 3504   3.081   2.295   1.355  0.7452 -0.2615  1.1514
  877SOL     OW 3505   0.012   2.794   0.296 -0.0461  0.3131 -0.6032
  877SOL    HW1 3506   0.094   2.848   0.290  0.9023 -0.9759 -1.0654
  877SOL    HW2 3507   0.008   2.729   0.227 -2.2732  0.6938  1.3243
  877SOL     MW 3508   0.022   2.793   0.286 -0.2148  0.1933 -0.4099
  878SOL     OW 3509   2.389   1.806   1.260  0.8569 -0.3117 -0.1762
  878SOL    HW1 3510   2.309   1.746   1.254  2.7560  0.2552  0.0800
  878SOL    HW2 3511   2.472   1.750   1.267 -0.3233 -2.3752  1.1347
  878SOL     MW 3512   2.389   1.791   1.260  0.9518 -0.5092  0.0306
  879SOL     OW 3513   2.749   2.437   0.970 -0.1563  0.0545 -0.1738
  879SOL    HW1 3514   2.783   2.524   0.956 -0.0009 -2.2370 -0.4867
  879SOL    HW2 3515   2.789   2.378   0.903 -1.1710 -0.4498 -2.0554
  879SOL     MW 3516   2.759   2.441   0.960 -0.2697 -0.3144 -0.4634
  880SOL     OW 3517   2.610   2.158   0.729 -0.0955 -0.0686  0.2595
  880SOL    HW1 3518   2.564   2.114   0.798  1.3881  0.8308 -2.8594
  880SOL    HW2 3519   2.600   2.092   0.652 -1.2117  0.4231 -2.7151
  880SOL     MW 3520   2.603   2.143   0.728 -0.0470  0.1150 -0.5445
  881SOL     OW 3521   2.961   2.700   0.740  0.4478 -0.1559  0.0663
  881SOL    HW1 3522   2.897   2.684   0.673  0.9734 -0.0967 -0.7827
  881SOL    HW2 3523   3.045   2.699   0.698 -1.4286  1.1524  0.6435
  881SOL     MW 3524   2.964   2.698   0.726  0.2696  0.0246  0.0304
  882SOL     OW 3525   2.233   2.892   1.962  0.2561 -0.0238  0.4227
  882SOL    HW1 3526   2.231   2.892   1.862 -0.5265 -0.1124  2.4938
  882SOL    HW2 3527   2.175   2.810   1.982 -1.5102 -4.2937  1.6716
  882SOL     MW 3528   2.225   2.881   1.952 -0.0802 -0.5989  0.8608
  883SOL     OW 3529   2.332   2.205   1.398  0.0498  0.2258  0.2629
  883SOL    HW1 3530   2.420   2.167   1.366  0.8953  0.3543 -1.4668
  883SOL    HW2 3531   2.263   2.172   1.339 -0.1981 -2.3061 -1.6461
  883SOL     MW 3532   2.334   2.195   1.386  0.1286 -0.0913 -0.2172
  884SOL     OW 3533   1.948   1.806   1.065  0.1139  0.2053  0.2868
  884SOL    HW1 3534   1.882   1.877   1.059 -1.9457  2.3855 -0.6855
  884SOL    HW2 3535   2.036   1.853   1.047  2.6655  1.2757 -3.1625
  884SOL     MW 3536   1.951   1.822   1.062  0.1788  0.6342 -0.2966
  885SOL     OW 3537   2.871   2.402   1.829 -0.3303  0.2311 -0.3117
  885SOL    HW1 3538   2.934   2.328   1.830 -0.5640  1.4899 -0.7304
  885SOL    HW2 3539   2.801   2.377   1.771  0.3410 -0.8389  2.1186
  885SOL     MW 3540   2.870   2.389   1.822 -0.2725  0.2560 -0.0463
  886SOL     OW 3541   2.823   2.355   1.418 -0.3422  0.4226 -0.6919
  886SOL    HW1 3542   2.907   2.321   1.416 -2.1023 -1.3927 -1.4233
  886SOL    HW2 3543   2.836   2.451   1.433 -0.5705  1.5449  1.2982
  886SOL     MW 3544   2.836   2.363   1.420 -0.6045  0.3312 -0.5259
  887SOL     OW 3545   2.274   2.626   1.575 -0.0201 -0.2239  0.2658
  887SOL    HW1 3546   2.296   2.680   1.498 -1.5916  0.3012 -1.6784
  887SOL    HW2 3547   2.186   2.588   1.560 -0.0006  0.2605 -0.4021
  887SOL     MW 3548   2.265   2.628   1.563 -0.2248 -0.0907 -0.0788
  888SOL     OW 3549   1.857   2.135   1.412 -0.4325  0.3145  0.4952
  888SOL    HW1 3550   1.932   2.082   1.389 -0.1860 -0.5683 -2.1807
  888SOL    HW2 3551   1.860   2.159   1.504 -0.3598  0.3217  0.8541
  888SOL     MW 3552   1.867   2.131   1.421 -0.3904  0.1990  0.1895
  889SOL     OW 3553   2.341   2.041   2.078  0.2102  0.2125  0.1706
  889SOL    HW1 3554   2.423   2.019   2.120 -1.4926 -2.3691 -1.0603
  889SOL    HW2 3555   2.356   2.122   2.028  3.0996 -0.6919 -0.3516
  889SOL     MW 3556   2.354   2.049   2.077  0.3668 -0.2474 -0.0607
  890SOL     OW 3557   0.054   2.389   0.150  0.4192 -0.0820  0.7129
  890SOL    HW1 3558   0.006   2.478   0.139  1.0667  2.6133 -1.4716
  890SOL    HW2 3559   0.031   2.358   0.239  0.9705  0.5429  0.7015
  890SOL     MW 3560   0.045   2.397   0.160  0.5774  0.3561  0.4232
  891SOL     OW 3561   3.065   2.007   1.295  0.6495  0.0285  0.0615
  891SOL    HW1 3562   3.150   1.976   1.329 -0.3582  0.3766 -1.6427
  891SOL    HW2 3563   3.062   2.100   1.296 -0.9118  1.7429  0.7443
  891SOL     MW 3564   3.076   2.015   1.300  0.3105  0.3006 -0.0732
  892SOL     OW 3565   2.448   2.325   2.764  0.0850  0.2918  0.4217
  892SOL    HW1 3566   2.420   2.242   2.801  3.1581  0.3787 -1.3416
  892SOL    HW2 3567   2.539   2.325   2.790 -2.4900  2.5667 -0.9629
  892SOL     MW 3568   2.457   2.314   2.772  0.1507  0.6034  0.0063
  893SOL     OW 3569   1.598   2.416   1.208  0.0018  0.6919 -0.1063
  893SOL    HW1 3570   1.543   2.461   1.269  0.1989 -1.6131  0.5232
  893SOL    HW2 3571   1.679   2.407   1.257  0.4315 -1.4661 -1.6481
  893SOL     MW 3572   1.601   2.421   1.223  0.0845  0.1031 -0.2267
  894SOL     OW 3573   2.746   1.878   0.449 -0.1357 -0.0729 -0.3623
  894SOL    HW1 3574   2.655   1.897   0.481 -2.3488  0.6743  1.5677
  894SOL    HW2 3575   2.720   1.818   0.376 -0.8384 -1.7817  0.3534
  894SOL     MW 3576   2.730   1.873   0.443 -0.5204 -0.1997 -0.0133
  895SOL     OW 3577   2.131   2.097   1.219 -0.1551 -0.1629 -0.3440
  895SOL    HW1 3578   2.100   2.170   1.155  0.0007  1.1357 -0.6794
  895SOL    HW2 3579   2.176   2.025   1.166  0.4223 -1.4257 -2.5038
  895SOL     MW 3580   2.133   2.097   1.204 -0.0584 -0.1582 -0.6732
  896SOL     OW 3581   2.314   2.818   1.114  0.3260 -0.0392  0.2638
  896SOL    HW1 3582   2.351   2.778   1.188 -1.1521  0.4281  0.0493
  896SOL    HW2 3583   2.226   2.776   1.096 -5.1179  0.5888 -0.4715
  896SOL     MW 3584   2.307   2.807   1.121 -0.5873  0.1053  0.1385
  897SOL     OW 3585   3.064   3.034   3.077 -0.6645  0.6507 -0.2837
  897SOL    HW1 3586   3.071   2.957   3.016  1.6790 -3.0889 -2.0217
  897SOL    HW2 3587   3.021   3.017   3.159 -1.7051 -0.3944  0.2591
  897SOL     MW 3588   3.059   3.021   3.079 -0.4926  0.0194 -0.4414
  898SOL     OW 3589   2.111   0.200   1.489  0.2440 -0.2093 -0.5477
  898SOL    HW1 3590   2.080   0.117   1.524 -0.1329  0.8874 -1.2550
  898SOL    HW2 3591   2.105   0.187   1.396 -2.0307  2.4259  1.1024
  898SOL     MW 3592   2.106   0.187   1.482 -0.1059  0.2830 -0.4233
  899SOL     OW 3593   2.909   2.973   0.637 -0.1400  0.0937 -0.6515
  899SOL    HW1 3594   2.920   2.900   0.701  0.5184 -1.6460  1.1308
  899SOL    HW2 3595   2.832   3.015   0.674  0.3800 -2.0554  1.0449
  899SOL     MW 3596   2.900   2.969   0.651  0.0155 -0.4194 -0.1925
  900SOL     OW 3597   0.062   2.395   1.123  0.2651 -0.0711  0.0863
  900SOL    HW1 3598   0.026   2.483   1.124 -1.3999  1.1499  1.8237
  900SOL    HW2 3599   0.035   2.357   1.039 -0.8069  0.9127  0.0007
  900SOL     MW 3600   0.054   2.402   1.112 -0.0960  0.2198  0.3042
  901SOL     OW 3601   1.741   2.847   1.754 -0.3007  0.0304 -0.1823
  901SOL    HW1 3602   1.816   2.778   1.739  0.0735 -0.5369 -0.2970
  901SOL    HW2 3603   1.679   2.833   1.680  0.5740  0.7669  0.4542
  901SOL     MW 3604   1.743   2.836   1.742 -0.1359  0.0527 -0.1135
  902SOL     OW 3605   2.672   2.113   1.826 -0.2697 -0.5840 -0.0032
  902SOL    HW1 3606   2.663   2.057   1.750 -2.1195  0.9832  1.1993
  902SOL    HW2 3607   2.755   2.079   1.858 -2.7535 -2.3178  1.4442
  902SOL     MW 3608   2.681   2.101   1.820 -0.8414 -0.6060  0.3464
  903SOL     OW 3609   1.617   2.675   0.627  0.3563 -1.1919  0.4813
  903SOL    HW1 3610   1.704   2.647   0.648 -0.4888  1.5587 -0.2110
  903SOL    HW2 3611   1.589   2.726   0.701  1.9702  1.4108 -0.2121
  903SOL     MW 3612   1.625   2.678   0.639  0.4577 -0.4856  0.2985
  904SOL     OW 3613   2.526   2.592   1.701 -0.2281  0.5229 -0.6843
  904SOL    HW1 3614   2.442   2.578   1.659  0.4888 -0.5199 -0.4817
  904SOL    HW2 3615   2.570   2.513   1.678  1.5859 -0.7825  1.1170
  904SOL     MW 3616   2.521   2.580   1.692  0.1058  0.2131 -0.4199
  905SOL     OW 3617   2.274   2.513   2.137 -0.6604  0.0075  0.1938
  905SOL    HW1 3618   2.340   2.482   2.065 -1.1535  0.9027  0.5235
  905SOL    HW2 3619   2.242   2.438   2.183  0.1292 -0.2954 -0.5111
  905SOL     MW 3620   2.278   2.499   2.133 -0.6213  0.0857  0.1443
  906SOL     OW 3621   2.478   2.488   0.820  0.6253  0.0595 -0.0106
  906SOL    HW1 3622   2.559   2.459   0.866  1.3477  1.8710  1.9566
  906SOL    HW2 3623   2.471   2.575   0.846  3.1589 -3.0361  0.0854
  906SOL     MW 3624   2.488   2.496   0.829  1.0549 -0.1099  0.2616
  907SOL     OW 3625   2.639   2.808   1.346  0.1357  0.3374 -0.0202
  907SOL    HW1 3626   2.689   2.879   1.380  0.3896 -0.3549  1.2471
  907SOL    HW2 3627   2.658   2.804   1.253  0.1058 -0.6457  1.2137
  907SOL     MW 3628   2.648   2.817   1.338  0.1653  0.1163  0.3098
  908SOL     OW 3629   2.719   2.352   0.007  0.5216 -0.3627  0.1859
  908SOL    HW1 3630   2.647   2.304   0.050  0.0134  4.8369 -0.0242
  908SOL    HW2 3631   2.713   2.444   0.047  0.3124 -0.1088  0.5357
  908SOL     MW 3632   2.708   2.358   0.018  0.4270  0.3568  0.2044
  909SOL     OW 3633   1.727   0.065   1.198 -0.4187  0.3578 -0.1311
  909SOL    HW1 3634   1.727   0.141   1.138 -0.6846  0.0565 -0.5544
  909SOL    HW2 3635   1.695   0.093   1.285 -0.8855 -1.7200  4.5818
  909SOL     MW 3636   1.723   0.078   1.202 -0.5154  0.0439  0.4349
  910SOL     OW 3637   2.243   1.788   0.413 -0.3546 -0.9206  0.1211
  910SOL    HW1 3638   2.199   1.701   0.429  1.7906 -2.1393  0.9457
  910SOL    HW2 3639   2.219   1.808   0.322 -2.1746 -0.8744  0.3873
  910SOL     MW 3640   2.234   1.779   0.403 -0.3117 -1.0753  0.2650
  911SOL     OW 3641   2.249   2.119   1.646 -0.0702 -0.7432 -0.6209
  911SOL    HW1 3642   2.321   2.125   1.710  1.2029  0.1334  0.9734
  911SOL    HW2 3643   2.295   2.143   1.562  1.1757  0.2367  0.7216
  911SOL     MW 3644   2.265   2.123   1.643  0.2622 -0.4982 -0.2334
  912SOL     OW 3645   2.935   1.909   1.506 -0.2539 -0.4144 -0.3277
  912SOL    HW1 3646   2.979   1.934   1.422 -1.8688 -1.3068 -4.7299
  912SOL    HW2 3647   2.848   1.954   1.519 -2.6154  1.5835 -2.7923
  912SOL     MW 3648   2.929   1.919   1.496 -0.7785 -0.2685 -1.2337
  913SOL     OW 3649   2.631   3.044   0.355 -0.0139  0.1477 -0.1316
  913SOL    HW1 3650   2.716   2.989   0.348  0.9329  0.4443 -0.3400
  913SOL    HW2 3651   2.563   3.012   0.288 -3.1403  1.7829 -1.7631
  913SOL     MW 3652   2.633   3.033   0.345 -0.3015  0.4026 -0.3743
  914SOL     OW 3653   2.725   1.750   3.032  0.1698  0.0705 -0.1062
  914SOL    HW1 3654   2.740   1.830   2.982  1.5226  1.8487 -1.7725
  914SOL    HW2 3655   2.633   1.765   3.071  0.1160  2.3927  1.9705
  914SOL     MW 3656   2.715   1.762   3.031  0.3412  0.6115 -0.0520
  915SOL     OW 3657   1.688   0.225   0.249 -0.0670  0.1596  0.3300
  915SOL    HW1 3658   1.771   0.181   0.278  1.8550  0.2054  0.6561
  915SOL    HW2 3659   1.619   0.159   0.223 -0.5705  0.8100  1.1999
  915SOL     MW 3660   1.690   0.211   0.249  0.1201  0.2514  0.4878
  916SOL     OW 3661   1.837   2.133   1.934  0.2359  0.3193  0.3407
  916SOL    HW1 3662   1.891   2.208   1.915 -0.2956 -0.5871 -1.1067
  916SOL    HW2 3663   1.832   2.080   1.855  0.3350  0.8676 -0.2281
  916SOL     MW 3664   1.843   2.136   1.921  0.1789  0.2720  0.0747
  917SOL     OW 3665   2.493   2.206   2.512  0.0896 -0.2108 -0.0412
  917SOL    HW1 3666   2.463   2.259   2.589  0.0507 -0.7148 -0.1384
  917SOL    HW2 3667   2.568   2.261   2.485 -0.1413  0.0152  1.6061
  917SOL     MW 3668   2.499   2.220   2.518  0.0540 -0.2475  0.1633
  918SOL     OW 3669   1.990   1.611   2.707 -0.0026 -0.0840 -0.2594
  918SOL    HW1 3670   1.925   1.637   2.641  3.8892 -1.9664 -0.8795
  918SOL    HW2 3671   2.068   1.662   2.683 -1.4863 -1.4491  0.4664
  918SOL     MW 3672   1.991   1.621   2.695  0.3151 -0.5125 -0.2455
  919SOL     OW 3673   3.081   2.352   2.266 -0.0326  0.3957 -0.2482
  919SOL    HW1 3674   3.022   2.282   2.243  0.6546  1.8453  2.0520
  919SOL    HW2 3675   3.132   2.376   2.180 -0.5746  0.8092  3.0160
  919SOL     MW 3676   3.080   2.346   2.252 -0.0134  0.6415  0.4860
  920SOL     OW 3677   2.698   2.874   0.007 -0.1797 -0.2002  0.1643
  920SOL    HW1 3678   2.605   2.894   0.024 -1.0218  0.3605 -0.8938
  920SOL    HW2 3679   2.703   2.811  -0.072  0.0753 -0.2252 -0.6029
  920SOL     MW 3680   2.686   2.868  -0.001 -0.2571 -0.1295 -0.0766
  921SOL     OW 3681   2.425   2.591   2.632  0.0527  0.5016 -0.9804
  921SOL    HW1 3682   2.498   2.594   2.574  1.5366  1.9988  2.9985
  921SOL    HW2 3683   2.432   2.522   2.693 -2.1095 -0.7991  1.1280
  921SOL     MW 3684   2.435   2.582   2.632 -0.0368  0.5275 -0.1772
  922SOL     OW 3685   2.016   2.837   0.287  0.2899 -0.7294 -0.4709
  922SOL    HW1 3686   2.027   2.866   0.194  2.4962 -0.4612 -0.3529
  922SOL    HW2 3687   2.025   2.741   0.280 -0.2527  0.3026  1.6514
  922SOL     MW 3688   2.019   2.828   0.274  0.5094 -0.5578 -0.1753
  923SOL     OW 3689   2.172   2.856   1.706  0.3737  0.0098 -0.0642
  923SOL    HW1 3690   2.212   2.781   1.663 -1.9847  0.3281 -2.0681
  923SOL    HW2 3691   2.169   2.932   1.646 -0.6944  1.4793 -0.2733
  923SOL     MW 3692   2.177   2.856   1.693 -0.0784  0.2456 -0.3562
  924SOL     OW 3693   1.127   2.701   2.515  0.0273  0.3851 -0.0662
  924SOL    HW1 3694   1.200   2.770   2.522  0.8689  0.7762  3.0473
  924SOL    HW2 3695   1.145   2.666   2.600  1.5300  2.0441  0.0795
  924SOL     MW 3696   1.139   2.706   2.527  0.3366  0.6556  0.3638
  925SOL     OW 3697   3.069   0.178   2.615  0.0070  0.0219  0.1188
  925SOL    HW1 3698   3.031   0.211   2.534  1.8559 -0.5022  0.6147
  925SOL    HW2 3699   3.029   0.244   2.681 -1.9521  1.7889 -2.3053
  925SOL     MW 3700   3.058   0.191   2.613 -0.0076  0.1859 -0.1356
  926SOL     OW 3701   2.712   2.415   2.049 -0.4535  0.2254  0.3242
  926SOL    HW1 3702   2.758   2.464   2.117  2.0139  3.9711 -4.0282
  926SOL    HW2 3703   2.769   2.429   1.968  0.0988 -0.0727 -1.1728
  926SOL     MW 3704   2.725   2.423   2.048 -0.0551  0.6803 -0.4475
  927SOL     OW 3705   2.325   0.121   0.318 -0.5038  0.1937 -0.0218
  927SOL    HW1 3706   2.418   0.144   0.329  2.4121 -0.3151  0.5799
  927SOL    HW2 3707   2.311   0.102   0.225  1.3589 -1.4735  2.8391
  927SOL     MW 3708   2.335   0.121   0.307  0.1267 -0.0934  0.4351
  928SOL     OW 3709   2.184   2.385   1.770  0.0099 -0.1724 -0.3335
  928SOL    HW1 3710   2.134   2.389   1.691 -0.7848 -1.0204 -2.7066
  928SOL    HW2 3711   2.230   2.304   1.764  2.1636  0.7031 -0.1005
  928SOL     MW 3712   2.183   2.375   1.759  0.1892 -0.1688 -0.6158
  929SOL     OW 3713   2.753   2.328   2.455 -0.3069 -0.7851 -0.0429
  929SOL    HW1 3714   2.789   2.307   2.371 -1.3486 -1.5186  2.3685
  929SOL    HW2 3715   2.813   2.293   2.523  1.3888 -0.2835  0.1157
  929SOL     MW 3716   2.766   2.321   2.453 -0.2206 -0.8157  0.2962
  930SOL     OW 3717   2.014   2.851   2.736  0.1243  0.0676 -0.1118
  930SOL    HW1 3718   2.027   2.760   2.767 -0.3523 -2.3669  0.2338
  930SOL    HW2 3719   2.094   2.902   2.762  1.2621  0.7932  1.9920
  930SOL     MW 3720   2.026   2.846   2.744  0.2115 -0.1579  0.2113
  931SOL     OW 3721   3.024   2.718   2.376  0.0019  0.0130  0.0671
  931SOL    HW1 3722   3.088   2.744   2.446  1.6815 -0.8467 -0.2267
  931SOL    HW2 3723   3.056   2.746   2.293 -0.6855  0.8378  4.0070
  931SOL     MW 3724   3.037   2.725   2.375  0.1328  0.0084  0.5481
  932SOL     OW 3725   2.924   1.936   2.515  0.1360 -0.4316 -0.8761
  932SOL    HW1 3726   3.014   1.969   2.504 -1.2207 -0.5949 -0.0365
  932SOL    HW2 3727   2.875   1.966   2.437  0.3544  0.3519  0.3439
  932SOL     MW 3728   2.930   1.944   2.503 -0.0142 -0.3498 -0.6044
  933SOL     OW 3729   2.069   2.804   2.239  0.1204 -0.3117 -0.7190
  933SOL    HW1 3730   2.154   2.844   2.230  2.8826 -0.5259 -0.3865
  933SOL    HW2 3731   2.002   2.872   2.225 -3.6380 -0.8659 -3.2073
  933SOL     MW 3732   2.071   2.818   2.236 -0.0110 -0.4131 -1.0034
  934SOL     OW 3733   2.009   2.747   2.487 -0.3826  0.3116 -0.5758
  934SOL    HW1 3734   2.053   2.820   2.531  1.2711  0.7317  1.8141
  934SOL    HW2 3735   2.020   2.764   2.392 -2.4706 -2.2562 -0.1411
  934SOL     MW 3736   2.017   2.759   2.481 -0.4399  0.0282 -0.2032
  935SOL     OW 3737   2.696   1.542   1.847  0.1621  0.6262  0.3257
  935SOL    HW1 3738   2.788   1.536   1.874  1.1162  1.5705  2.6621
  935SOL    HW2 3739   2.681   1.553   1.757 -2.7551  0.6549  2.5944
  935SOL     MW 3740   2.706   1.543   1.839 -0.0969  0.7546  0.9333
  936SOL     OW 3741   2.980   2.224   3.078 -0.6522  0.4021  0.1888
  936SOL    HW1 3742   3.018   2.288   3.135 -2.6377 -0.6443  0.5915
  936SOL    HW2 3743   2.890   2.259   3.086 -0.5119  0.2068  0.3992
  936SOL     MW 3744   2.973   2.237   3.087 -0.8957  0.2383  0.2697
  937SOL     OW 3745   1.975   2.132   2.609  0.6696 -0.5347  0.1757
  937SOL    HW1 3746   2.039   2.068   2.650  1.2156 -0.3087  0.6724
  937SOL    HW2 3747   1.965   2.106   2.515 -1.8172 -0.2101 -2.6951
  937SOL     MW 3748   1.982   2.120   2.602  0.4136 -0.4621 -0.1375
  938SOL     OW 3749   2.295   1.799   1.937 -0.2140  0.2360 -0.0887
  938SOL    HW1 3750   2.272   1.826   1.843  2.1524  0.0357  0.0604
  938SOL    HW2 3751   2.299   1.883   1.978 -2.2795  0.6322  0.6375
  938SOL     MW 3752   2.292   1.813   1.930 -0.1743  0.2619  0.0268
  939SOL     OW 3753   2.760   1.985   2.291  0.2560 -0.4704 -0.2157
  939SOL    HW1 3754   2.780   1.921   2.224 -0.5180  0.2277 -1.4207
  939SOL    HW2 3755   2.660   1.956   2.302 -1.4712 -1.3250 -1.8513
  939SOL     MW 3756   2.750   1.973   2.284 -0.0740 -0.4911 -0.5905
  940SOL     OW 3757   2.279   0.163   2.681  0.0808 -0.2967 -0.2682
  940SOL    HW1 3758   2.287   0.072   2.662  0.8257 -0.1718 -1.9999
  940SOL    HW2 3759   2.329   0.151   2.764 -0.4117  0.0700 -1.0293
  940SOL     MW 3760   2.287   0.149   2.690  0.1141 -0.2318 -0.5971
  941SOL     OW 3761   0.103   2.457   2.055 -0.6132 -0.0063  0.0473
  941SOL    HW1 3762   0.186   2.428   2.081 -1.2604 -1.5808  0.0333
  941SOL    HW2 3763   0.110   2.447   1.958  0.0809 -0.8298 -0.8266
  941SOL     MW 3764   0.115   2.452   2.046 -0.6070 -0.3227 -0.0698
  942SOL     OW 3765   2.834   2.215   2.172 -0.0177 -0.0303  0.1922
  942SOL    HW1 3766   2.772   2.273   2.127  0.6518 -0.7936 -0.1755
  942SOL    HW2 3767   2.792   2.135   2.201  3.3371  0.4923 -0.6610
  942SOL     MW 3768   2.820   2.212   2.170  0.5133 -0.0620  0.0311
  943SOL     OW 3769   0.273   2.085   2.267 -0.2662 -0.2138 -0.3139
  943SOL    HW1 3770   0.257   2.159   2.324 -0.4042  1.6620  0.7890
  943SOL    HW2 3771   0.358   2.048   2.300 -0.3428  1.7177 -2.9859
  943SOL     MW 3772   0.282   2.090   2.279 -0.2945  0.2886 -0.5209
  944SOL     OW 3773   2.091   2.673   2.005  0.1821  0.3799 -0.3628
  944SOL    HW1 3774   2.163   2.620   2.031 -0.8140  1.2823 -0.0136
  944SOL    HW2 3775   2.057   2.720   2.084 -0.7656  1.0432 -1.1927
  944SOL     MW 3776   2.096   2.672   2.019 -0.0743  0.5865 -0.4263
  945SOL     OW 3777   2.696   2.696   2.878  0.7120 -0.0114 -0.1474
  945SOL    HW1 3778   2.688   2.598   2.882  0.8388 -2.2802  0.3642
  945SOL    HW2 3779   2.696   2.710   2.784  0.6889 -0.2910  0.0516
  945SOL     MW 3780   2.695   2.685   2.866  0.7257 -0.3476 -0.0536
  946SOL     OW 3781   2.478   2.681   2.235  0.1251  0.3950 -0.2575
  946SOL    HW1 3782   2.507   2.723   2.153  0.2184 -1.0251  2.8693
  946SOL    HW2 3783   2.410   2.610   2.210 -0.4669 -2.2614 -3.7167
  946SOL     MW 3784   2.473   2.677   2.221  0.0593 -0.1429 -0.3014
  947SOL     OW 3785   1.922   0.077   0.290  0.0373  0.0303 -0.1197
  947SOL    HW1 3786   1.870  -0.009   0.304 -0.6225 -1.0667 -0.0848
  947SOL    HW2 3787   1.983   0.081   0.365  2.9066 -1.4459  0.6700
  947SOL     MW 3788   1.923   0.066   0.302  0.3288 -0.3092 -0.0109
  948SOL     OW 3789   1.791   3.028   2.702 -0.3694 -0.0104 -0.8835
  948SOL    HW1 3790   1.854   2.952   2.698  0.4767 -0.2665 -0.8146
  948SOL    HW2 3791   1.776   3.062   2.609  0.8220 -1.0188  1.3859
  948SOL     MW 3792   1.797   3.022   2.689 -0.1006 -0.1772 -0.5750
  949SOL     OW 3793   2.501   1.909   2.276  0.6817 -0.1331  0.4844
  949SOL    HW1 3794   2.493   1.809   2.272  2.5197 -1.7068  1.3297
  949SOL    HW2 3795   2.427   1.954   2.315 -0.9942  0.0587 -1.5355
  949SOL     MW 3796   2.490   1.902   2.281  0.7030 -0.3154  0.3294
  950SOL     OW 3797   2.323   2.502   2.918  0.0748  0.1512  0.5668
  950SOL    HW1 3798   2.377   2.447   2.861 -2.0405  0.3100 -1.5989
  950SOL    HW2 3799   2.242   2.528   2.864 -2.5767  0.3464  1.5353
  950SOL     MW 3800   2.320   2.498   2.904 -0.5542  0.1979  0.4089
  951SOL     OW 3801   3.025   2.095   2.832  0.6273  0.7219  0.2122
  951SOL    HW1 3802   3.039   2.144   2.915  0.5772 -1.7726  0.0017
  951SOL    HW2 3803   3.101   2.040   2.820 -0.2885 -2.3691  0.0681
  951SOL     MW 3804   3.037   2.094   2.841  0.4999 -0.0151  0.1654
  952SOL     OW 3805   3.031   1.678   2.175  0.1570 -0.2517 -0.3634
  952SOL    HW1 3806   2.946   1.720   2.166  2.5561 -0.7256  0.8622
  952SOL    HW2 3807   3.083   1.736   2.233 -0.1554  1.4863 -2.4297
  952SOL     MW 3808   3.027   1.691   2.182  0.4323 -0.0849 -0.4743
  953SOL     OW 3809   1.911   1.771   2.910  0.6617  0.5159  0.1933
  953SOL    HW1 3810   1.836   1.731   2.954  0.8824 -1.2190 -0.4021
  953SOL    HW2 3811   1.931   1.713   2.842 -1.3505  0.4091  0.2563
  953SOL     MW 3812   1.904   1.758   2.907  0.4253  0.2729  0.1231
  954SOL     OW 3813   2.379   2.079   2.850 -0.0988 -0.2475 -0.5682
  954SOL    HW1 3814   2.303   2.032   2.822  3.1960  0.1761  0.4973
  954SOL    HW2 3815   2.461   2.041   2.794  5.0298  0.5054  0.1553
  954SOL     MW 3816   2.380   2.068   2.839  1.0126 -0.0923 -0.3322
  955SOL     OW 3817   1.555   1.588   2.566 -0.5726  0.6239  0.1432
  955SOL    HW1 3818   1.520   1.601   2.479  1.2118 -0.1797 -0.9221
  955SOL    HW2 3819   1.635   1.647   2.564 -2.3848  2.2575 -2.7071
  955SOL     MW 3820   1.561   1.597   2.555 -0.5762  0.7334 -0.3734
  956SOL     OW 3821   2.693   2.402   2.844  0.1704 -0.3199  0.4381
  956SOL    HW1 3822   2.695   2.384   2.945  1.7469  2.7920 -0.6382
  956SOL    HW2 3823   2.750   2.342   2.792  2.4820 -2.7449 -1.8240
  956SOL     MW 3824   2.701   2.392   2.851  0.6834 -0.2293 -0.0024
  957SOL     OW 3825   2.285   2.846   0.409 -0.6745  0.3066  0.6213
  957SOL    HW1 3826   2.205   2.837   0.358  0.3162  2.1618  0.0574
  957SOL    HW2 3827   2.267   2.786   0.489  1.6084 -2.9858  2.2524
  957SOL     MW 3828   2.272   2.837   0.413 -0.2426  0.1170  0.7621
  958SOL     OW 3829   2.082   2.585   2.821 -0.1210  0.1308  1.0447
  958SOL    HW1 3830   2.037   2.525   2.763 -4.0537 -0.9318 -0.0007
  958SOL    HW2 3831   2.031   2.573   2.907 -0.8227 -1.4942 -1.0683
  958SOL     MW 3832   2.070   2.575   2.825 -0.7324 -0.2238  0.6280
  959SOL     OW 3833   2.505   2.662   0.378 -0.5580  0.8550  0.3231
  959SOL    HW1 3834   2.524   2.641   0.282  0.5997  0.0450 -0.5615
  959SOL    HW2 3835   2.462   2.746   0.381 -2.7909  0.0996 -1.2949
  959SOL     MW 3836   2.502   2.670   0.365 -0.6999  0.6485 -0.0071
  960SOL     OW 3837   1.908   2.306   2.312 -0.4105  0.2022  0.4519
  960SOL    HW1 3838   1.932   2.214   2.311 -1.4840  1.0702 -1.3167
  960SOL    HW2 3839   1.841   2.330   2.374 -1.5414  1.9946 -0.8088
  960SOL     MW 3840   1.903   2.297   2.320 -0.7014  0.5532  0.0522
  961SOL     OW 3841   2.179   2.309   2.301 -0.3936 -0.3591  0.2665
  961SOL    HW1 3842   2.086   2.309   2.288  1.3794  0.8755 -0.2196
  961SOL    HW2 3843   2.191   2.382   2.366  1.2873 -0.7556  2.0357
  961SOL     MW 3844   2.168   2.319   2.308  0.0621 -0.2485  0.4358
  962SOL     OW 3845   2.136   1.992   2.771 -0.3199  0.2631  0.2074
  962SOL    HW1 3846   2.102   1.976   2.861 -0.3983 -1.0772  1.8678
  962SOL    HW2 3847   2.158   1.901   2.731 -1.2365 -0.6082  0.0590
  962SOL     MW 3848   2.134   1.978   2.778 -0.4512 -0.0287  0.4069
  963SOL     OW 3849   1.806   2.497   2.080 -0.8110 -0.4426  0.4356
  963SOL    HW1 3850   1.891   2.483   2.118  2.0008 -1.3140 -0.2554
  963SOL    HW2 3851   1.813   2.447   1.997 -2.0823  1.9258 -0.3583
  963SOL     MW 3852   1.818   2.489   2.074 -0.6078 -0.2451  0.2396
  964SOL     OW 3853   1.773   1.990   2.725  0.1757 -0.8260  0.2374
  964SOL    HW1 3854   1.845   2.038   2.680  2.2757 -4.5111  1.3858
  964SOL    HW2 3855   1.817   1.921   2.768  0.8899  1.6124  0.3788
  964SOL     MW 3856   1.788   1.988   2.725  0.5470 -0.9905  0.4076
  965SOL     OW 3857   2.244   2.694   0.644  0.6918 -0.0593  0.4462
  965SOL    HW1 3858   2.231   2.608   0.601 -2.5461  0.0500 -0.3829
  965SOL    HW2 3859   2.318   2.696   0.705 -0.7959 -1.5022  1.8248
  965SOL     MW 3860   2.252   2.683   0.646  0.0683 -0.2352  0.5187
  966SOL     OW 3861   2.642   2.619   2.475 -0.0804 -0.2813 -0.0593
  966SOL    HW1 3862   2.612   2.634   2.378  1.8692 -0.1280  0.8495
  966SOL    HW2 3863   2.692   2.541   2.477 -2.3879  0.1877  0.7365
  966SOL     MW 3864   2.645   2.611   2.462 -0.1277 -0.1992  0.1656
  967SOL     OW 3865   2.777   3.094   2.953 -0.3319  0.0513 -0.3690
  967SOL    HW1 3866   2.727   3.033   3.008 -1.6361  0.5540 -2.0608
  967SOL    HW2 3867   2.719   3.100   2.880  2.5050 -0.3985  1.6693
  967SOL     MW 3868   2.763   3.087   2.951 -0.1297  0.0583 -0.3233
  968SOL     OW 3869   2.971   2.621   2.946  0.1469  0.2465  0.6367
  968SOL    HW1 3870   2.886   2.662   2.913 -0.4043 -0.3511  0.3765
  968SOL    HW2 3871   3.005   2.571   2.874  1.3736  1.6451 -0.3399
  968SOL     MW 3872   2.965   2.620   2.932  0.2360  0.3522  0.4735
  969SOL     OW 3873   1.606   2.145   1.661  0.0616  0.1541 -0.0352
  969SOL    HW1 3874   1.662   2.062   1.680 -0.7904 -0.8145  0.1540
  969SOL    HW2 3875   1.566   2.158   1.749 -2.3269  0.1213 -0.7220
  969SOL     MW 3876   1.608   2.136   1.675 -0.3659  0.0220 -0.1009
  970SOL     OW 3877   1.693   1.778   1.947  0.1497 -0.2304 -0.1067
  970SOL    HW1 3878   1.742   1.711   1.990  1.3051  3.0483 -4.0861
  970SOL    HW2 3879   1.603   1.751   1.958  3.2445  1.0933  0.9613
  970SOL     MW 3880   1.688   1.766   1.954  0.7105  0.3768 -0.4908
  971SOL     OW 3881   1.769   0.057   2.433  0.4151 -0.3921  0.0794
  971SOL    HW1 3882   1.817   0.005   2.369 -0.1553 -1.3320  0.9300
  971SOL    HW2 3883   1.826   0.129   2.461 -0.7745  1.9913 -2.8574
  971SOL     MW 3884   1.782   0.060   2.428  0.1829 -0.2016 -0.1958
  972SOL     OW 3885   0.277   2.864   2.452  0.0172 -0.0078 -0.4803
  972SOL    HW1 3886   0.337   2.789   2.457 -0.1500 -0.5392  0.1007
  972SOL    HW2 3887   0.331   2.944   2.462  3.9025  0.2332  1.1688
  972SOL     MW 3888   0.292   2.865   2.454  0.5077 -0.0461 -0.1861
  973SOL     OW 3889   2.595   0.022   2.099  0.2602  0.4792 -0.8391
  973SOL    HW1 3890   2.576  -0.069   2.075 -0.3953  0.0079 -0.0578
  973SOL    HW2 3891   2.592   0.061   2.011  0.1979 -0.5578 -1.2709
  973SOL     MW 3892   2.592   0.015   2.084  0.1655  0.2802 -0.7930
  974SOL     OW 3893   2.033   0.281   2.706  0.4125 -0.3085  0.8790
  974SOL    HW1 3894   2.121   0.249   2.694  0.5008 -0.9387  0.4960
  974SOL    HW2 3895   1.986   0.216   2.756 -0.8972  1.8448 -0.7211
  974SOL     MW 3896   2.038   0.268   2.711  0.2514 -0.1075  0.6173
  975SOL     OW 3897   2.185   2.519   2.515  0.2938  0.0086 -0.0032
  975SOL    HW1 3898   2.262   2.549   2.558 -0.5358  0.1619  0.3247
  975SOL    HW2 3899   2.133   2.594   2.491 -0.0915 -0.0219 -1.1837
  975SOL     MW 3900   2.189   2.533   2.518  0.1335  0.0248 -0.1157
  976SOL     OW 3901   0.255   0.394   1.770 -0.3606  0.2498 -0.2515
  976SOL    HW1 3902   0.304   0.323   1.804  0.2740 -2.9404  0.4661
  976SOL    HW2 3903   0.168   0.357   1.751 -1.4861 -1.7879  2.1353
  976SOL     MW 3904   0.250   0.380   1.772 -0.4254 -0.4400  0.1581
  977SOL     OW 3905   1.759   2.687   2.558 -0.2152 -0.0313  0.4861
  977SOL    HW1 3906   1.767   2.594   2.543  0.0898  2.8474 -1.2649
  977SOL    HW2 3907   1.848   2.720   2.534  2.2340 -2.0497  1.1260
  977SOL     MW 3908   1.772   2.679   2.553  0.1482  0.0822  0.3395
   3.10000   3.10000   3.10000
