977 TIP4P/2005f water molecules t=   0.07000 step= 70
 3908
    1SOL     OW    1   0.189   0.774   3.094 -0.1060  0.0703  0.7492
    1SOL    HW1    2   0.167   0.800   3.000  3.2931 -0.3815 -0.8913
    1SOL    HW2    3   0.213   0.680   3.081 -2.2034 -1.3909 -1.6042
    1SOL     MW    4   0.189   0.765   3.080  0.0657 -0.1821  0.2222
    2SOL     OW    5   0.339   3.044   1.104 -0.0831  0.2617  0.3956
    2SOL    HW1    6   0.398   3.113   1.070  1.7113 -0.1819  2.7228
    2SOL    HW2    7   0.256   3.091   1.135 -2.3039 -2.1632  0.8025
    2SOL     MW    8   0.336   3.060   1.103 -0.1394 -0.1168  0.7563
    3SOL     OW    9   2.758   0.373   0.876 -0.1721  0.1539 -0.6276
    3SOL    HW1   10   2.738   0.461   0.838 -1.3824  1.3286  2.6817
    3SOL    HW2   11   2.744   0.393   0.976 -0.1699  1.1148  0.9795
    3SOL     MW   12   2.754   0.388   0.884 -0.3315  0.4357  0.0211
    4SOL     OW   13   3.089   1.683   0.718 -0.0805  0.0668 -0.6088
    4SOL    HW1   14   3.057   1.726   0.637  1.5927  1.8306  1.3018
    4SOL    HW2   15   3.165   1.629   0.693  0.2484  0.3245 -1.8099
    4SOL     MW   16   3.095   1.682   0.704  0.1836  0.3335 -0.5151
    5SOL     OW   17   1.673   1.439   0.535 -0.3883  0.1900 -0.7127
    5SOL    HW1   18   1.732   1.402   0.606  2.1338 -0.3511 -0.4132
    5SOL    HW2   19   1.587   1.441   0.563  0.9181 -0.8891 -0.1138
    5SOL     MW   20   1.670   1.434   0.548  0.1168 -0.0238 -0.5941
    6SOL     OW   21   0.838   1.339   0.569  0.1402 -0.1961  0.1023
    6SOL    HW1   22   0.760   1.359   0.621  2.3293 -2.4197 -0.2769
    6SOL    HW2   23   0.880   1.267   0.625  1.3026 -1.0160 -0.5819
    6SOL     MW   24   0.833   1.333   0.583  0.5824 -0.5976 -0.0380
    7SOL     OW   25   1.977   1.061   3.037 -0.4765 -0.2270  0.2279
    7SOL    HW1   26   2.042   1.087   2.973 -0.0502  1.1510  3.3017
    7SOL    HW2   27   2.022   1.092   3.113  0.6512 -2.0569  1.4413
    7SOL     MW   28   1.992   1.069   3.039 -0.2715 -0.2866  0.7936
    8SOL     OW   29   1.019   1.318   1.060  0.0908 -0.2667  0.2123
    8SOL    HW1   30   1.106   1.316   1.095  2.4785  1.4215  1.7728
    8SOL    HW2   31   0.987   1.232   1.069 -1.5855 -0.5644 -1.1135
    8SOL     MW   32   1.026   1.307   1.066  0.1847 -0.0832  0.2433
    9SOL     OW   33   0.995   0.486   1.448 -0.0746  0.2559 -0.4150
    9SOL    HW1   34   0.956   0.398   1.464  1.2171  0.7356  0.3376
    9SOL    HW2   35   1.071   0.501   1.500 -0.6762 -0.1589 -1.9147
    9SOL     MW   36   1.000   0.476   1.457  0.0165  0.2645 -0.5136
   10SOL     OW   37   0.304   0.858   0.424  0.2809  0.1136 -0.0243
   10SOL    HW1   38   0.404   0.864   0.404 -0.8987 -0.1064 -1.4399
   10SOL    HW2   39   0.290   0.909   0.506 -0.3818 -0.5110 -0.1709
   10SOL     MW   40   0.315   0.866   0.432  0.0378  0.0022 -0.2304
   11SOL     OW   41   0.927   1.081   1.569  0.1029  0.5167 -0.5089
   11SOL    HW1   42   0.916   1.094   1.666 -1.2449 -0.6116  0.4637
   11SOL    HW2   43   0.843   1.035   1.532 -0.0889 -2.4428  0.0427
   11SOL     MW   44   0.914   1.076   1.577 -0.1002 -0.0226 -0.3078
   12SOL     OW   45   3.047   1.043   0.871  0.3833  0.3250 -0.0569
   12SOL    HW1   46   3.108   1.106   0.914  0.7281 -0.3608  4.1531
   12SOL    HW2   47   2.975   1.097   0.831 -2.7524  3.3448 -2.2298
   12SOL     MW   48   3.046   1.058   0.872  0.0151  0.6329  0.2119
   13SOL     OW   49   1.923   1.390   1.441 -0.1495  0.4285  0.1581
   13SOL    HW1   50   1.934   1.346   1.357 -0.3521  0.6143 -1.9903
   13SOL    HW2   51   1.925   1.485   1.427  0.9732 -1.0646 -0.7962
   13SOL     MW   52   1.925   1.397   1.428 -0.0281  0.2560 -0.2513
   14SOL     OW   53   0.612   0.384   1.771 -0.2648  0.4687 -0.3423
   14SOL    HW1   54   0.622   0.300   1.725 -1.9847 -2.6778  1.1553
   14SOL    HW2   55   0.693   0.401   1.824  0.1907  0.2569 -0.7379
   14SOL     MW   56   0.624   0.375   1.772 -0.4316  0.0256 -0.1969
   15SOL     OW   57   2.006   0.569   0.940  0.3607 -0.3969 -0.4323
   15SOL    HW1   58   2.028   0.539   1.029  0.8990 -2.1079 -0.3129
   15SOL    HW2   59   2.078   0.547   0.882 -0.0522  2.8257 -1.7575
   15SOL     MW   60   2.018   0.562   0.944  0.3772 -0.1975 -0.5914
   16SOL     OW   61   0.137   1.764   0.272  0.1147  0.2882 -0.5068
   16SOL    HW1   62   0.221   1.726   0.295  2.9165  1.0188 -1.2882
   16SOL    HW2   63   0.151   1.855   0.290 -0.7600 -1.0592 -1.7277
   16SOL     MW   64   0.150   1.771   0.277  0.3690  0.2068 -0.7710
   17SOL     OW   65   1.165   0.779   1.459  0.2581 -0.3603  0.0840
   17SOL    HW1   66   1.171   0.826   1.545 -0.5464 -0.6455  2.4621
   17SOL    HW2   67   1.084   0.805   1.415 -1.5283  0.7755  0.7905
   17SOL     MW   68   1.155   0.788   1.465 -0.0837 -0.2481  0.4910
   18SOL     OW   69   3.097   1.552   0.382  0.0656  0.2518 -0.3839
   18SOL    HW1   70   3.134   1.637   0.350  0.3798  1.7979  0.9348
   18SOL    HW2   71   3.100   1.487   0.314 -0.3168  0.8299  1.8407
   18SOL     MW   72   3.102   1.555   0.369  0.0566  0.5321  0.0836
   19SOL     OW   73   0.055   1.252   1.029  0.2486 -0.6041 -0.1761
   19SOL    HW1   74   0.095   1.320   0.973  2.1297 -2.0853 -0.3272
   19SOL    HW2   75  -0.031   1.287   1.061  2.0992 -1.4610  0.5265
   19SOL     MW   76   0.049   1.266   1.026  0.7409 -0.9126 -0.1033
   20SOL     OW   77   0.484   2.178   1.288  0.2555  0.4077  0.3884
   20SOL    HW1   78   0.443   2.127   1.215  0.0743  0.6064 -0.4943
   20SOL    HW2   79   0.424   2.208   1.356  0.2301  1.3580  0.3098
   20SOL     MW   80   0.471   2.175   1.287  0.2283  0.5593  0.2616
   21SOL     OW   81   0.571   0.887   0.367 -0.4034  0.3163  0.0903
   21SOL    HW1   82   0.619   0.817   0.405  0.8658  0.9119  0.3103
   21SOL    HW2   83   0.541   0.855   0.275 -0.3068  0.7013 -1.5370
   21SOL     MW   84   0.574   0.873   0.360 -0.2232  0.4457 -0.0954
   22SOL     OW   85   1.601   0.625   1.156  0.1069 -0.3250  0.3804
   22SOL    HW1   86   1.648   0.583   1.080 -0.2978  1.0346  1.6415
   22SOL    HW2   87   1.523   0.672   1.114 -1.8946  0.7162 -0.1130
   22SOL     MW   88   1.597   0.626   1.141 -0.2105 -0.0082  0.4817
   23SOL     OW   89   3.080   0.707   0.672 -0.1825  0.3952  0.9563
   23SOL    HW1   90   3.118   0.624   0.683  0.7647  0.9800  0.2923
   23SOL    HW2   91   3.157   0.769   0.671 -3.3746 -2.0836 -2.8190
   23SOL     MW   92   3.095   0.704   0.673 -0.4787  0.1453  0.3706
   24SOL     OW   93   2.072   2.227   3.080  0.8014  0.3096  0.3290
   24SOL    HW1   94   2.064   2.205   3.173 -2.4055  1.2151 -0.3445
   24SOL    HW2   95   2.093   2.143   3.035  0.0044 -3.1728  0.5403
   24SOL     MW   96   2.074   2.213   3.086  0.2731 -0.0304  0.2680
   25SOL     OW   97   0.171   1.481   0.574  0.5464 -0.6404  0.0082
   25SOL    HW1   98   0.110   1.497   0.503 -0.9247  0.3734  2.7475
   25SOL    HW2   99   0.253   1.483   0.526 -1.8631  2.4592  2.1275
   25SOL     MW  100   0.174   1.483   0.558  0.0344 -0.0977  0.6493
   26SOL     OW  101   1.984   1.024   0.394  0.3632 -0.2740  0.3912
   26SOL    HW1  102   1.888   1.032   0.419  1.0213  0.0532 -1.6270
   26SOL    HW2  103   2.001   1.089   0.319  0.5176  1.3668 -0.3130
   26SOL     MW  104   1.974   1.034   0.387  0.4704 -0.0144  0.0320
   27SOL     OW  105   2.010   1.423   0.234 -0.2053  1.0914 -0.4444
   27SOL    HW1  106   1.933   1.377   0.262  0.2085 -0.0685 -1.2539
   27SOL    HW2  107   2.052   1.451   0.319 -0.7164 -0.4094  1.9437
   27SOL     MW  108   2.005   1.421   0.248 -0.2181  0.7403 -0.2361
   28SOL     OW  109   0.306   0.964   1.921  0.7247  0.0111 -0.0224
   28SOL    HW1  110   0.242   0.906   1.946  0.2332 -0.0058  1.9840
   28SOL    HW2  111   0.358   0.928   1.847 -0.7283 -0.3917 -0.1993
   28SOL     MW  112   0.304   0.951   1.915  0.4681 -0.0443  0.2189
   29SOL     OW  113   0.257   1.426   0.903 -0.2506  0.3108  0.2608
   29SOL    HW1  114   0.281   1.522   0.917 -1.5998 -0.5608 -1.9075
   29SOL    HW2  115   0.234   1.416   0.810  0.5051 -1.4907  3.2466
   29SOL     MW  116   0.257   1.438   0.893 -0.3289 -0.0419  0.3687
   30SOL     OW  117   0.901   1.023   1.146  0.5649 -0.3051  0.1500
   30SOL    HW1  118   0.829   1.052   1.200 -2.0896 -2.8292 -2.7268
   30SOL    HW2  119   0.982   1.008   1.196  0.9993 -0.8298 -2.2311
   30SOL     MW  120   0.902   1.025   1.159  0.2720 -0.7074 -0.5437
   31SOL     OW  121   0.502   0.247   0.158 -0.1360  0.0859  0.6821
   31SOL    HW1  122   0.472   0.184   0.225  0.3298  0.6411 -0.3381
   31SOL    HW2  123   0.487   0.217   0.063 -1.7329 -1.3354 -0.6182
   31SOL     MW  124   0.496   0.235   0.154 -0.2852 -0.0284  0.3760
   32SOL     OW  125   2.696   1.032   1.157 -0.1881 -0.0772 -0.6091
   32SOL    HW1  126   2.648   0.951   1.135  1.0846  0.9033  1.5201
   32SOL    HW2  127   2.789   0.996   1.151  1.1300 -1.3353 -1.8659
   32SOL     MW  128   2.702   1.017   1.153  0.1537 -0.1138 -0.4940
   33SOL     OW  129   1.786   1.281   0.330  0.1548  0.2721  0.2039
   33SOL    HW1  130   1.773   1.188   0.352 -0.7623 -1.9759  0.3605
   33SOL    HW2  131   1.755   1.330   0.408  0.0242 -0.5706 -2.6770
   33SOL     MW  132   1.780   1.275   0.343  0.0166 -0.1357 -0.1555
   34SOL     OW  133   1.277   1.850   1.104  0.0989 -0.1256  0.4744
   34SOL    HW1  134   1.214   1.918   1.120 -2.0785  0.2336 -1.9275
   34SOL    HW2  135   1.342   1.861   1.170  0.3028 -0.4805 -0.1902
   34SOL     MW  136   1.278   1.860   1.115 -0.1615 -0.1250  0.0698
   35SOL     OW  137   0.359   0.076   1.877  0.0806 -0.0580 -0.4179
   35SOL    HW1  138   0.402   0.019   1.946  0.0674 -2.2415  2.0712
   35SOL    HW2  139   0.383   0.023   1.799  0.9114  0.9494  1.8485
   35SOL     MW  140   0.368   0.061   1.876  0.1885 -0.2132  0.2095
   36SOL     OW  141   1.827   1.916   0.475  0.3328 -0.6163  0.3725
   36SOL    HW1  142   1.858   1.900   0.381  2.4654  0.5326  1.2508
   36SOL    HW2  143   1.803   1.838   0.523 -0.3009  3.1714  0.2189
   36SOL     MW  144   1.828   1.904   0.469  0.5306  0.0351  0.4681
   37SOL     OW  145   1.823   1.981   0.949 -0.1790  0.2812 -0.2254
   37SOL    HW1  146   1.756   1.949   0.899  1.4832 -2.3079  2.8168
   37SOL    HW2  147   1.783   2.047   1.015 -0.6961  1.7041  2.2117
   37SOL     MW  148   1.809   1.986   0.951 -0.0279  0.1273  0.4976
   38SOL     OW  149   2.822   0.920   0.256  0.2170  0.2865 -0.8895
   38SOL    HW1  150   2.853   0.947   0.339  1.1140 -0.0778 -4.7311
   38SOL    HW2  151   2.900   0.877   0.213 -0.6942 -1.4302 -0.0819
   38SOL     MW  152   2.837   0.918   0.261  0.2151  0.0120 -1.2898
   39SOL     OW  153   1.451   0.654   0.788  0.2679  0.5554  0.1370
   39SOL    HW1  154   1.421   0.572   0.816  0.7619  0.0112 -1.7901
   39SOL    HW2  155   1.393   0.721   0.819 -0.5948  0.5900 -2.6154
   39SOL     MW  156   1.440   0.652   0.796  0.2193  0.4882 -0.4804
   40SOL     OW  157   1.294   1.903   0.236  0.1019 -0.1772  0.1556
   40SOL    HW1  158   1.285   1.818   0.281 -1.5840  1.5805 -0.2782
   40SOL    HW2  159   1.312   1.971   0.300 -0.7979  0.1188 -0.2184
   40SOL     MW  160   1.295   1.901   0.250 -0.2392  0.0938  0.0490
   41SOL     OW  161   0.594   0.553   1.556  0.3892 -0.7248  0.0029
   41SOL    HW1  162   0.675   0.612   1.546  2.4917  2.6869  0.4788
   41SOL    HW2  163   0.604   0.502   1.632  0.3861  0.2161 -1.0621
   41SOL     MW  164   0.606   0.554   1.565  0.6662 -0.1505 -0.0748
   42SOL     OW  165   1.399   3.051   1.992  0.0583  0.0724 -0.3915
   42SOL    HW1  166   1.315   3.031   2.024  3.4540  0.3799 -0.7656
   42SOL    HW2  167   1.442   2.964   1.984 -0.7851  1.0505 -0.9289
   42SOL     MW  168   1.394   3.037   1.995  0.3950  0.2420 -0.5118
   43SOL     OW  169   1.575   0.158   1.580 -0.0044 -0.1068 -0.2955
   43SOL    HW1  170   1.603   0.099   1.514  1.5246  2.0510  1.0002
   43SOL    HW2  171   1.483   0.129   1.613 -2.5384 -1.9692  1.5937
   43SOL     MW  172   1.566   0.146   1.576 -0.1370 -0.0678  0.1247
   44SOL     OW  173   1.332   0.738   1.082 -0.3963 -0.2290  0.2008
   44SOL    HW1  174   1.339   0.831   1.101  0.7407  0.6876 -1.4957
   44SOL    HW2  175   1.335   0.696   1.169  2.9129 -0.3551  0.4450
   44SOL     MW  176   1.333   0.745   1.096  0.1903 -0.1247  0.0092
   45SOL     OW  177   1.008   0.827   0.797  0.0494 -0.5519 -0.1967
   45SOL    HW1  178   1.010   0.753   0.858  2.0654  0.7757  0.9342
   45SOL    HW2  179   0.946   0.802   0.722  1.5355 -0.2109  2.0613
   45SOL     MW  180   1.000   0.814   0.795  0.5114 -0.3318  0.2504
   46SOL     OW  181   0.630   1.127   0.599 -0.3323  0.2797 -0.0496
   46SOL    HW1  182   0.638   1.147   0.503 -2.0313  0.4093  1.7621
   46SOL    HW2  183   0.705   1.070   0.618 -1.1287  1.9305  0.5722
   46SOL     MW  184   0.641   1.122   0.589 -0.6616  0.5146  0.2715
   47SOL     OW  185   0.079   1.840   1.808  0.8430  0.4179  0.1854
   47SOL    HW1  186   0.155   1.793   1.773  1.7911 -0.6077 -0.4797
   47SOL    HW2  187   0.096   1.852   1.904  1.0885  1.2251 -0.1969
   47SOL     MW  188   0.091   1.835   1.816  1.0005  0.3890  0.0472
   48SOL     OW  189   1.047   0.622   1.023 -0.1914  0.1783  0.7285
   48SOL    HW1  190   0.977   0.656   1.084  1.1157 -1.8725  1.5186
   48SOL    HW2  191   1.123   0.693   1.029 -0.2441  0.7007  3.6557
   48SOL     MW  192   1.048   0.636   1.032 -0.0259 -0.0234  1.2189
   49SOL     OW  193   1.873   0.746   1.590 -0.3569  0.4929 -0.0730
   49SOL    HW1  194   1.806   0.705   1.642  0.3900 -0.1802  3.6711
   49SOL    HW2  195   1.921   0.672   1.560 -1.0213  0.7577  1.4740
   49SOL     MW  196   1.870   0.731   1.593 -0.3460  0.4390  0.6251
   50SOL     OW  197   1.272   1.023   0.583 -0.3228 -0.0660  0.3202
   50SOL    HW1  198   1.259   1.071   0.665  0.5647 -3.7653 -1.1231
   50SOL    HW2  199   1.318   0.945   0.594 -0.9843 -1.9134  1.0352
   50SOL     MW  200   1.276   1.019   0.596 -0.2930 -0.7978  0.2241
   51SOL     OW  201   0.288   2.897   0.878  0.2878 -0.5691  0.2933
   51SOL    HW1  202   0.369   2.841   0.874 -0.6126  1.4125  0.4462
   51SOL    HW2  203   0.310   2.952   0.959 -0.6717 -0.6535  1.5499
   51SOL     MW  204   0.302   2.897   0.888  0.0424 -0.3188  0.4793
   52SOL     OW  205   0.830   1.888   0.468  0.0269  0.4365 -0.5196
   52SOL    HW1  206   0.768   1.945   0.517 -0.0219 -1.5682  0.4500
   52SOL    HW2  207   0.784   1.886   0.386 -1.9949 -1.5773 -0.7731
   52SOL     MW  208   0.815   1.896   0.464 -0.2463 -0.0937 -0.4251
   53SOL     OW  209   0.389   2.036   0.622 -0.7140 -0.4212 -0.5684
   53SOL    HW1  210   0.327   2.026   0.550  1.1905  1.1948  1.0334
   53SOL    HW2  211   0.412   2.138   0.627  0.9928 -3.2042 -0.4095
   53SOL     MW  212   0.384   2.048   0.613 -0.2375 -0.5752 -0.3361
   54SOL     OW  213   2.176   0.851   0.847  0.1471  0.1551 -0.3907
   54SOL    HW1  214   2.180   0.832   0.754 -1.6763  0.9799 -1.4528
   54SOL    HW2  215   2.081   0.857   0.867 -0.8920 -1.7304  0.6087
   54SOL     MW  216   2.164   0.850   0.837 -0.2306  0.0152 -0.3990
   55SOL     OW  217   0.523   1.444   1.538 -0.1847 -0.3643  0.4234
   55SOL    HW1  218   0.507   1.491   1.453 -0.1525 -1.5053 -1.3538
   55SOL    HW2  219   0.614   1.400   1.528  1.5505  0.0723  1.1765
   55SOL     MW  220   0.533   1.445   1.526  0.0485 -0.4572  0.2883
   56SOL     OW  221   0.478   0.810   0.117  0.0264 -0.0169  0.2118
   56SOL    HW1  222   0.502   0.865   0.048 -1.2065 -1.6769 -1.0167
   56SOL    HW2  223   0.383   0.793   0.107 -0.7917  1.8942  1.3013
   56SOL     MW  224   0.469   0.815   0.106 -0.2442  0.0162  0.1934
   57SOL     OW  225   1.260   1.219   1.166  0.2132  0.0374 -0.2259
   57SOL    HW1  226   1.352   1.227   1.192 -0.5917 -1.2174 -1.0301
   57SOL    HW2  227   1.219   1.158   1.233 -0.7987  0.0759 -2.0081
   57SOL     MW  228   1.267   1.212   1.178 -0.0265 -0.1231 -0.5672
   58SOL     OW  229   0.658   1.077   1.276  0.3053 -0.2586  0.0498
   58SOL    HW1  230   0.577   1.137   1.266 -0.0326 -0.3407 -2.4058
   58SOL    HW2  231   0.649   1.016   1.350 -1.3097  0.4834  0.6230
   58SOL     MW  232   0.646   1.077   1.284  0.0476 -0.1715 -0.1986
   59SOL     OW  233   1.571   1.590   0.309 -0.2158 -0.3783 -0.5381
   59SOL    HW1  234   1.625   1.537   0.359  1.5372  3.0977 -1.6443
   59SOL    HW2  235   1.528   1.655   0.362  1.8168 -1.3558 -0.1009
   59SOL     MW  236   1.572   1.592   0.323  0.2836 -0.0486 -0.6263
   60SOL     OW  237   0.040   0.148   1.712 -0.2731  0.3777  0.5105
   60SOL    HW1  238  -0.036   0.204   1.729 -1.6294  0.0963 -1.7147
   60SOL    HW2  239   0.006   0.061   1.727 -0.4776 -1.5973 -1.3614
   60SOL     MW  240   0.025   0.144   1.716 -0.4790  0.0800 -0.0301
   61SOL     OW  241   2.012   1.478   3.058 -0.0331 -0.0376  1.0070
   61SOL    HW1  242   2.006   1.457   3.153 -2.6870 -2.2004 -2.4140
   61SOL    HW2  243   2.066   1.412   3.025 -1.3846  0.5484 -2.3505
   61SOL     MW  244   2.018   1.467   3.066 -0.5616 -0.2457  0.1127
   62SOL     OW  245   0.586   1.620   0.558  0.0471  0.0245  0.7389
   62SOL    HW1  246   0.659   1.610   0.489  0.4969  0.4240  0.3658
   62SOL    HW2  247   0.594   1.532   0.606 -0.8280 -0.1574  2.2214
   62SOL     MW  248   0.597   1.607   0.556 -0.0090  0.0532  0.8853
   63SOL     OW  249   1.714   0.782   0.744  0.4468 -0.3832 -0.3379
   63SOL    HW1  250   1.719   0.778   0.650 -1.7742  1.2367 -0.0673
   63SOL    HW2  251   1.635   0.730   0.745  0.6559  1.3180  1.4514
   63SOL     MW  252   1.704   0.774   0.731  0.1813  0.0550 -0.0661
   64SOL     OW  253   0.269   1.684   0.956  0.8497  0.0322  0.1348
   64SOL    HW1  254   0.343   1.724   0.904  0.6536  3.7003 -1.0871
   64SOL    HW2  255   0.194   1.726   0.912 -0.5072  0.4396 -0.4143
   64SOL     MW  256   0.269   1.695   0.943  0.6448  0.5699 -0.0988
   65SOL     OW  257   1.555   2.233   0.331 -1.2091 -0.7814  0.5284
   65SOL    HW1  258   1.607   2.230   0.249  0.5019 -1.8748 -2.4141
   65SOL    HW2  259   1.585   2.314   0.379 -2.4637 -2.7430 -0.2954
   65SOL     MW  260   1.566   2.244   0.327 -1.1489 -1.1845  0.0315
   66SOL     OW  261   0.288   0.610   0.549 -0.2357 -0.0836 -0.4005
   66SOL    HW1  262   0.343   0.573   0.482 -0.4745  1.0634  2.8604
   66SOL    HW2  263   0.272   0.695   0.504 -2.2339 -1.5606  1.9122
   66SOL     MW  264   0.293   0.616   0.534 -0.5308 -0.1271  0.3349
   67SOL     OW  265   1.540   0.215   2.008  0.5546 -0.1092 -0.1579
   67SOL    HW1  266   1.587   0.251   1.936  0.7779  2.7169  0.3699
   67SOL    HW2  267   1.516   0.126   1.993  2.6550 -0.2690  1.1864
   67SOL     MW  268   1.543   0.208   1.997  0.8612  0.2426  0.0891
   68SOL     OW  269   0.738   0.054   2.975 -0.8599 -0.5072 -0.7566
   68SOL    HW1  270   0.757   0.046   2.878  1.3853  0.5644 -1.9701
   68SOL    HW2  271   0.754   0.144   2.997 -0.9630  0.5743 -3.5444
   68SOL     MW  272   0.743   0.065   2.965 -0.5772 -0.2231 -1.2845
   69SOL     OW  273   1.029   0.165   1.955 -0.2516 -0.3231 -0.2044
   69SOL    HW1  274   1.122   0.192   1.971 -2.1557 -0.8779  0.3453
   69SOL    HW2  275   1.034   0.071   1.982  3.0165 -1.0694 -1.8720
   69SOL     MW  276   1.042   0.156   1.960 -0.0716 -0.4947 -0.3519
   70SOL     OW  277   0.592   1.819   1.157  0.1544 -0.6274  0.1158
   70SOL    HW1  278   0.593   1.728   1.187 -0.1072 -0.7430 -2.7621
   70SOL    HW2  279   0.680   1.830   1.104  0.3686  0.7581  3.0575
   70SOL     MW  280   0.604   1.809   1.154  0.1482 -0.4598  0.1242
   71SOL     OW  281   1.814   0.664   1.321 -0.8098  0.8058 -0.5194
   71SOL    HW1  282   1.811   0.695   1.412  0.2667  2.2763  1.0315
   71SOL    HW2  283   1.727   0.647   1.293 -0.5987 -0.0208  2.2808
   71SOL     MW  284   1.802   0.666   1.329 -0.6399  0.8908  0.0547
   72SOL     OW  285   0.824   1.826   1.022 -0.1079 -0.3666  0.6117
   72SOL    HW1  286   0.826   1.861   0.935  0.5482  0.1717  0.0240
   72SOL    HW2  287   0.843   1.730   1.016 -0.0302  2.0073 -1.0593
   72SOL     MW  288   0.827   1.818   1.010 -0.0111  0.0176  0.3137
   73SOL     OW  289   1.336   0.617   1.322  0.1047  0.5972  0.0853
   73SOL    HW1  290   1.296   0.536   1.285  0.0504 -0.6219  2.6882
   73SOL    HW2  291   1.265   0.667   1.367 -0.0432  1.2230 -1.7392
   73SOL     MW  292   1.321   0.613   1.323  0.0781  0.5189  0.1880
   74SOL     OW  293   2.792   0.098   1.025  0.1214  0.2452 -0.1302
   74SOL    HW1  294   2.740   0.077   0.950 -2.3332 -0.6385 -0.7417
   74SOL    HW2  295   2.870   0.136   0.989 -2.1020  0.9164 -0.7229
   74SOL     MW  296   2.795   0.100   1.010 -0.4958  0.2171 -0.2891
   75SOL     OW  297   1.657   1.283   0.098  0.1821 -0.5156  0.4192
   75SOL    HW1  298   1.717   1.281   0.180 -0.5523 -0.7075  0.0608
   75SOL    HW2  299   1.677   1.199   0.047 -0.4584  0.7209  0.0368
   75SOL     MW  300   1.667   1.272   0.102  0.0007 -0.3778  0.3214
   76SOL     OW  301   2.935   0.630   0.463 -0.2442  0.0941  0.1518
   76SOL    HW1  302   2.989   0.637   0.548 -0.2659  0.1418 -0.4155
   76SOL    HW2  303   2.996   0.584   0.401 -0.1237 -0.5701  0.5314
   76SOL     MW  304   2.951   0.625   0.466 -0.2312  0.0127  0.1271
   77SOL     OW  305   0.925   0.481   0.520 -0.1779 -0.4319  0.0902
   77SOL    HW1  306   0.881   0.565   0.503 -0.0108 -0.1288  1.3094
   77SOL    HW2  307   0.857   0.413   0.533  0.3441 -1.1310  1.7359
   77SOL     MW  308   0.910   0.483   0.520 -0.0870 -0.4842  0.4682
   78SOL     OW  309   0.894   0.744   1.208 -0.5131 -0.1571 -0.0073
   78SOL    HW1  310   0.821   0.709   1.254 -0.0691  2.5880 -1.7176
   78SOL    HW2  311   0.862   0.828   1.172  0.9038  0.7082  0.1100
   78SOL     MW  312   0.880   0.751   1.209 -0.2676  0.3193 -0.2175
   79SOL     OW  313   1.854   1.651   0.588 -0.3031  0.2475  0.5737
   79SOL    HW1  314   1.774   1.598   0.606 -1.4723  1.0771 -0.3070
   79SOL    HW2  315   1.895   1.639   0.676  0.2619 -1.3294  2.7038
   79SOL     MW  316   1.849   1.642   0.602 -0.3828  0.1489  0.7386
   80SOL     OW  317   0.159   1.070   0.279 -0.1990 -0.4255 -0.4855
   80SOL    HW1  318   0.101   1.003   0.312 -1.1966 -2.3146 -0.0879
   80SOL    HW2  319   0.237   1.019   0.272  1.2298 -0.4380  0.1057
   80SOL     MW  320   0.162   1.055   0.283 -0.1421 -0.6764 -0.3551
   81SOL     OW  321   1.910   1.903   0.213  0.3652  0.4310  0.1282
   81SOL    HW1  322   1.859   1.824   0.185  1.5798 -0.0178  0.7307
   81SOL    HW2  323   1.857   1.974   0.193 -1.3368 -0.3526  0.2154
   81SOL     MW  324   1.896   1.902   0.207  0.3009  0.2684  0.2192
   82SOL     OW  325   0.870   0.871   0.545 -0.3705  0.7787  0.2945
   82SOL    HW1  326   0.936   0.895   0.478  0.9741  1.3324  0.3506
   82SOL    HW2  327   0.813   0.795   0.519 -1.4331  0.1263 -2.0197
   82SOL     MW  328   0.871   0.864   0.533 -0.3333  0.7657 -0.0035
   83SOL     OW  329   0.070   0.583   1.363  0.1194  0.4414  0.1471
   83SOL    HW1  330   0.071   0.666   1.316 -0.2748 -1.8172 -0.1008
   83SOL    HW2  331   0.145   0.565   1.416  0.8399  2.1056  1.1626
   83SOL     MW  332   0.080   0.592   1.364  0.1625  0.3630  0.2484
   84SOL     OW  333   0.050   0.282   1.069 -0.7099  0.2070 -0.1448
   84SOL    HW1  334   0.018   0.283   0.976  1.4740  0.6312  0.2643
   84SOL    HW2  335   0.043   0.190   1.105  1.4093 -0.7962 -0.4486
   84SOL     MW  336   0.045   0.270   1.061 -0.1422  0.1306 -0.1309
   85SOL     OW  337   0.471   0.399   0.720 -0.0985  0.0093  0.2634
   85SOL    HW1  338   0.414   0.470   0.677 -0.1891  0.3030  0.4359
   85SOL    HW2  339   0.410   0.328   0.745 -3.9054 -0.7476 -1.4838
   85SOL     MW  340   0.455   0.399   0.718 -0.6127 -0.0519  0.0557
   86SOL     OW  341   1.135   0.441   1.204  0.2457 -0.6178 -0.0716
   86SOL    HW1  342   1.088   0.510   1.147 -1.1004 -1.2706 -2.1575
   86SOL    HW2  343   1.099   0.451   1.294  1.5801  0.9747  0.5179
   86SOL     MW  344   1.124   0.452   1.208  0.2441 -0.4938 -0.2691
   87SOL     OW  345   1.262   1.422   1.362  0.1887 -0.6306 -0.2219
   87SOL    HW1  346   1.284   1.467   1.278  2.0179 -1.7127  0.5980
   87SOL    HW2  347   1.210   1.345   1.335  0.2001 -0.2800  0.9933
   87SOL     MW  348   1.258   1.418   1.348  0.4316 -0.7271  0.0466
   88SOL     OW  349   1.354   1.021   1.010  0.2039  0.4608  0.3180
   88SOL    HW1  350   1.444   1.010   1.007  0.9182  0.5102  2.4891
   88SOL    HW2  351   1.331   1.087   1.072  1.3815 -2.4532  0.0974
   88SOL     MW  352   1.363   1.028   1.018  0.4535  0.0828  0.5753
   89SOL     OW  353   1.823   0.556   0.301 -0.0112 -0.1901 -0.4214
   89SOL    HW1  354   1.885   0.493   0.343 -0.6631  0.1391 -0.4376
   89SOL    HW2  355   1.874   0.625   0.250  0.8468 -1.1055 -2.7457
   89SOL     MW  356   1.838   0.557   0.300  0.0160 -0.2674 -0.7302
   90SOL     OW  357   0.770   1.239   2.837 -0.5168 -0.2231 -0.1305
   90SOL    HW1  358   0.803   1.156   2.873  0.6642  0.1829  1.5952
   90SOL    HW2  359   0.814   1.307   2.887 -1.9719  5.2050  0.1664
   90SOL     MW  360   0.780   1.237   2.849 -0.5530  0.5466  0.1364
   91SOL     OW  361   1.958   0.766   0.472  0.7707 -0.5137  0.0395
   91SOL    HW1  362   1.983   0.852   0.422 -1.4338  0.0747  1.7570
   91SOL    HW2  363   1.918   0.700   0.409 -0.3025 -2.2501  0.3131
   91SOL     MW  364   1.956   0.769   0.457  0.3382 -0.6652  0.3022
   92SOL     OW  365   1.653   0.757   0.462  0.3350 -0.3761  0.3838
   92SOL    HW1  366   1.561   0.726   0.473 -1.2998  0.7556  0.2661
   92SOL    HW2  367   1.702   0.689   0.413  2.6919 -1.8908 -0.5879
   92SOL     MW  368   1.647   0.744   0.457  0.4303 -0.4267  0.2401
   93SOL     OW  369   0.993   0.220   0.396  0.1977 -0.6575 -0.0174
   93SOL    HW1  370   0.970   0.312   0.398  0.4988  0.3345  0.7285
   93SOL    HW2  371   0.947   0.200   0.316  1.2882  0.2945  0.2359
   93SOL     MW  372   0.984   0.230   0.386  0.3813 -0.4010  0.1144
   94SOL     OW  373   1.966   1.290   1.697 -0.2017 -0.4144  0.0379
   94SOL    HW1  374   1.955   1.333   1.614 -0.2449  1.2230  0.4290
   94SOL    HW2  375   1.929   1.207   1.700  1.8484 -1.2501  0.1508
   94SOL     MW  376   1.960   1.285   1.686  0.0631 -0.3087  0.1044
   95SOL     OW  377   0.918   1.572   1.011 -0.4479 -0.0215  0.1219
   95SOL    HW1  378   0.925   1.480   1.031 -0.0856  1.2393 -1.9892
   95SOL    HW2  379   0.997   1.606   1.049  1.4139  1.5076  1.6886
   95SOL     MW  380   0.929   1.565   1.018 -0.1545  0.3466  0.0500
   96SOL     OW  381   1.274   1.791   1.704 -1.1140 -0.5491 -0.4853
   96SOL    HW1  382   1.186   1.778   1.750 -1.3114  0.1888  1.9989
   96SOL    HW2  383   1.297   1.714   1.647 -2.3723  0.1798 -0.6958
   96SOL     MW  384   1.266   1.779   1.702 -1.3061 -0.3556 -0.1853
   97SOL     OW  385   1.216   1.449   0.865  0.6841 -0.0796 -0.1438
   97SOL    HW1  386   1.221   1.500   0.943  0.8709 -0.6797 -1.2586
   97SOL    HW2  387   1.127   1.474   0.820 -1.5669 -0.3271 -1.3959
   97SOL     MW  388   1.205   1.459   0.869  0.4117 -0.1914 -0.4561
   98SOL     OW  389   1.540   1.281   1.161 -0.3233  0.4900  0.1079
   98SOL    HW1  390   1.558   1.358   1.219  1.9151 -0.4068  0.1211
   98SOL    HW2  391   1.566   1.314   1.076  1.5908 -0.8707 -0.2548
   98SOL     MW  392   1.546   1.295   1.158  0.2246  0.1921  0.0618
   99SOL     OW  393   1.445   0.386   1.205  0.3277  0.1883  0.2579
   99SOL    HW1  394   1.503   0.453   1.171  1.9907  0.9600 -1.4696
   99SOL    HW2  395   1.452   0.385   1.304  2.9687 -0.2333  0.1877
   99SOL     MW  396   1.454   0.394   1.213  0.8956  0.2345  0.0207
  100SOL     OW  397   1.099   1.058   1.347  0.7865  0.1655 -0.5683
  100SOL    HW1  398   1.039   1.096   1.420 -0.4466 -2.2396 -0.9501
  100SOL    HW2  399   1.172   1.021   1.391  1.3275  2.8523  1.0501
  100SOL     MW  400   1.100   1.058   1.363  0.6952  0.2027 -0.4051
  101SOL     OW  401   0.654   1.161   0.337 -0.1277  0.2836 -0.8922
  101SOL    HW1  402   0.638   1.059   0.334  1.5799 -0.5644 -2.0118
  101SOL    HW2  403   0.663   1.179   0.243  0.2463  2.7803  0.4527
  101SOL     MW  404   0.653   1.150   0.324  0.1470  0.5011 -0.8625
  102SOL     OW  405   2.918   0.637   0.922  0.1766 -0.7449 -0.4407
  102SOL    HW1  406   2.991   0.693   0.887  2.1921  0.0434  0.1736
  102SOL    HW2  407   2.940   0.613   1.012  0.5433 -1.2098 -2.0265
  102SOL     MW  408   2.930   0.641   0.929  0.4909 -0.7022 -0.5689
  103SOL     OW  409   1.674   0.348   1.766 -1.1369  0.1593 -0.1804
  103SOL    HW1  410   1.671   0.286   1.694 -1.7352 -2.5830  2.9049
  103SOL    HW2  411   1.759   0.325   1.818  1.0267 -2.2304  0.6524
  103SOL     MW  412   1.685   0.337   1.763 -0.9303 -0.5178  0.3366
  104SOL     OW  413   0.093   1.822   1.494  0.2385  0.6042  0.2430
  104SOL    HW1  414   0.181   1.802   1.467 -1.9937 -1.1518  2.4486
  104SOL    HW2  415   0.087   1.774   1.577 -0.0217  0.2453  4.5039
  104SOL     MW  416   0.104   1.813   1.502 -0.0904  0.3251  1.0962
  105SOL     OW  417   0.141   1.187   0.546  0.3864 -0.7345  0.1013
  105SOL    HW1  418   0.128   1.174   0.454  3.3279 -1.4740 -0.8840
  105SOL    HW2  419   0.194   1.265   0.547 -1.6089 -1.5819  0.6322
  105SOL     MW  420   0.146   1.195   0.534  0.5112 -0.9439  0.0414
  106SOL     OW  421   0.841   0.323   0.921  0.3592  0.3344  0.5143
  106SOL    HW1  422   0.798   0.409   0.895  1.1187  4.0134  0.2784
  106SOL    HW2  423   0.924   0.321   0.882 -1.8197  0.4328 -0.1460
  106SOL     MW  424   0.846   0.334   0.913  0.1719  0.8328  0.3961
  107SOL     OW  425   0.788   2.200   3.072 -0.3521  0.1314 -0.3387
  107SOL    HW1  426   0.757   2.127   3.022  0.4169  1.1229  3.4262
  107SOL    HW2  427   0.871   2.165   3.107  0.9549  0.0464  1.3487
  107SOL     MW  428   0.795   2.186   3.070 -0.0782  0.2510  0.3807
  108SOL     OW  429   1.391   1.588   1.568  0.4181  0.5599 -0.4183
  108SOL    HW1  430   1.372   1.526   1.503 -0.1599 -3.3068 -0.1001
  108SOL    HW2  431   1.457   1.548   1.618 -0.9120  2.1106  1.5782
  108SOL     MW  432   1.397   1.575   1.566  0.1663  0.2543 -0.1129
  109SOL     OW  433   1.967   0.770   0.173  0.0673  0.1141 -0.2128
  109SOL    HW1  434   1.966   0.728   0.084 -1.2955 -0.3714  1.3966
  109SOL    HW2  435   2.059   0.774   0.197 -0.8951 -1.4433  1.6454
  109SOL     MW  436   1.979   0.765   0.165 -0.2395 -0.1555  0.2447
  110SOL     OW  437   0.442   1.787   0.740 -0.3571 -0.6007  0.0839
  110SOL    HW1  438   0.516   1.730   0.702  0.4586 -0.3395 -0.4523
  110SOL    HW2  439   0.450   1.870   0.696 -1.4558  0.3127 -0.9582
  110SOL     MW  440   0.453   1.790   0.729 -0.3944 -0.4457 -0.1244
  111SOL     OW  441   0.691   0.920   1.491 -0.3199  0.5789 -0.1279
  111SOL    HW1  442   0.751   0.844   1.523 -0.0915 -0.3966 -0.0322
  111SOL    HW2  443   0.609   0.903   1.534  1.9484 -2.1053  1.4118
  111SOL     MW  444   0.689   0.908   1.501  0.0095  0.0961  0.0879
  112SOL     OW  445   1.298   1.145   1.598 -0.1064 -0.1780 -0.1109
  112SOL    HW1  446   1.251   1.222   1.645 -0.3540  0.2310  0.2987
  112SOL    HW2  447   1.254   1.066   1.628  0.3760  1.9397  2.0569
  112SOL     MW  448   1.286   1.144   1.608 -0.0754  0.1554  0.2291
  113SOL     OW  449   1.363   0.046   1.704  0.3431  0.2537  0.3280
  113SOL    HW1  450   1.375  -0.006   1.781 -0.7257  1.0235  1.5208
  113SOL    HW2  451   1.365  -0.017   1.639 -1.4175  0.6985 -1.2013
  113SOL     MW  452   1.365   0.031   1.706 -0.0302  0.4139  0.2836
  114SOL     OW  453   0.451   2.812   1.838  0.0630  0.4322 -0.1458
  114SOL    HW1  454   0.443   2.859   1.922  0.7669  1.7142  1.2066
  114SOL    HW2  455   0.415   2.874   1.772  2.2465  1.2724 -3.0780
  114SOL     MW  456   0.445   2.826   1.841  0.4440  0.7122 -0.3542
  115SOL     OW  457   0.374   0.849   1.054  0.0824  0.2468  0.1904
  115SOL    HW1  458   0.415   0.767   1.077  1.4026  0.0026 -0.1955
  115SOL    HW2  459   0.346   0.884   1.144  0.8706 -1.6055 -0.1537
  115SOL     MW  460   0.375   0.843   1.069  0.3606 -0.0298  0.0941
  116SOL     OW  461   0.771   0.955   0.911 -0.0581 -0.2845 -0.2863
  116SOL    HW1  462   0.833   0.997   0.846 -1.9082  1.0198 -1.3173
  116SOL    HW2  463   0.809   0.969   1.001 -2.0827  2.8314  2.3135
  116SOL     MW  464   0.785   0.963   0.914 -0.5693  0.2987 -0.0793
  117SOL     OW  465   1.219   1.186   0.795 -0.2474  0.1736 -0.0613
  117SOL    HW1  466   1.244   1.134   0.874  1.0903 -2.4337  0.8424
  117SOL    HW2  467   1.198   1.275   0.819 -0.2341  0.9347  0.8404
  117SOL     MW  468   1.219   1.191   0.809 -0.0692 -0.0700  0.1769
  118SOL     OW  469   0.004   2.968   1.734 -0.0525 -0.3819  0.1933
  118SOL    HW1  470   0.044   2.987   1.822 -1.3746  2.5066  3.2252
  118SOL    HW2  471  -0.089   2.995   1.735  2.1667  1.1205 -1.7018
  118SOL     MW  472  -0.003   2.974   1.746  0.0659  0.1974  0.3433
  119SOL     OW  473   0.479   1.293   1.238  0.1478  0.2641  0.2988
  119SOL    HW1  474   0.497   1.313   1.143 -2.0273  0.7067 -0.0409
  119SOL    HW2  475   0.376   1.291   1.247 -1.2870 -1.1969  0.3130
  119SOL     MW  476   0.468   1.295   1.226 -0.3285  0.1297  0.2559
  120SOL     OW  477   0.177   0.599   0.959 -0.0649 -0.0525 -0.1670
  120SOL    HW1  478   0.208   0.527   1.011 -1.8083  2.7865  0.2494
  120SOL    HW2  479   0.242   0.665   0.973 -1.0316 -2.5605  0.5648
  120SOL     MW  480   0.189   0.598   0.968 -0.4225 -0.0088 -0.0155
  121SOL     OW  481   1.806   1.042   1.773  0.4662  0.4028 -0.3903
  121SOL    HW1  482   1.722   1.048   1.723 -2.3324 -1.1082 -1.6446
  121SOL    HW2  483   1.814   0.946   1.800 -2.5131 -1.6923 -0.4351
  121SOL     MW  484   1.796   1.030   1.770 -0.2961 -0.0730 -0.5617
  122SOL     OW  485   0.112   0.478   0.716 -0.8096  0.0663  0.0721
  122SOL    HW1  486   0.186   0.507   0.656 -1.9687 -2.2678 -2.4289
  122SOL    HW2  487   0.134   0.511   0.808  2.8627  0.0568 -0.9254
  122SOL     MW  488   0.124   0.486   0.720 -0.4780 -0.2429 -0.3895
  123SOL     OW  489   1.728   1.038   0.472  0.1279 -0.2786  0.3587
  123SOL    HW1  490   1.715   0.945   0.476 -0.8899  0.8971 -0.3363
  123SOL    HW2  491   1.749   1.045   0.566 -0.0508 -0.5363 -0.9202
  123SOL     MW  492   1.729   1.027   0.485 -0.0300 -0.1575  0.0982
  124SOL     OW  493   0.640   0.534   0.879  0.3713  0.0257 -0.8012
  124SOL    HW1  494   0.573   0.493   0.826 -0.7838  0.7183 -0.2687
  124SOL    HW2  495   0.657   0.622   0.844  0.4182 -0.6630 -0.2403
  124SOL     MW  496   0.633   0.540   0.867  0.2251  0.0262 -0.6570
  125SOL     OW  497   0.625   1.643   1.689 -0.1751 -0.0342 -0.4600
  125SOL    HW1  498   0.587   1.575   1.639 -2.9093  1.7268  0.8368
  125SOL    HW2  499   0.592   1.730   1.656 -0.8616  1.1801 -0.7383
  125SOL     MW  500   0.615   1.645   1.678 -0.6264  0.3583 -0.3256
  126SOL     OW  501   2.130   1.613   2.041  0.0594  0.3829 -0.4350
  126SOL    HW1  502   2.164   1.699   2.033 -1.7370  0.7051 -0.7111
  126SOL    HW2  503   2.203   1.551   2.033  0.2374 -1.5481 -2.7060
  126SOL     MW  504   2.144   1.617   2.039 -0.1541  0.1706 -0.7710
  127SOL     OW  505   0.625   0.681   1.868 -0.6206  0.2789  0.3766
  127SOL    HW1  506   0.705   0.631   1.896  2.1523 -0.7054 -0.3141
  127SOL    HW2  507   0.645   0.775   1.896 -1.3050  1.4817 -0.0465
  127SOL     MW  508   0.638   0.687   1.875 -0.3450  0.3078  0.2296
  128SOL     OW  509   1.721   0.731   2.818 -0.5067  0.1079  0.5695
  128SOL    HW1  510   1.793   0.721   2.750 -2.5768 -0.5344  2.5087
  128SOL    HW2  511   1.690   0.824   2.813  0.8016  0.8400  0.0868
  128SOL     MW  512   1.726   0.742   2.808 -0.6072  0.1197  0.7617
  129SOL     OW  513   1.598   0.854   0.205 -1.3707  0.4198  0.0537
  129SOL    HW1  514   1.508   0.842   0.208  0.2276  3.5967  0.7286
  129SOL    HW2  515   1.630   0.842   0.296  1.1944 -3.5760 -0.3303
  129SOL     MW  516   1.591   0.850   0.217 -0.8214  0.3118  0.0921
  130SOL     OW  517   0.752   1.527   0.343  0.5849  0.1586 -0.1992
  130SOL    HW1  518   0.789   1.460   0.405 -0.4704  0.2689 -2.7526
  130SOL    HW2  519   0.831   1.561   0.294 -1.9759 -0.1972 -0.5847
  130SOL     MW  520   0.767   1.523   0.345  0.1078  0.1262 -0.5870
  131SOL     OW  521   3.021   0.804   0.082  0.2095 -0.7410 -0.0433
  131SOL    HW1  522   3.006   0.886   0.022  0.8778  2.6476 -0.6210
  131SOL    HW2  523   3.115   0.785   0.071 -0.4600 -1.0223  0.8967
  131SOL     MW  524   3.032   0.813   0.073  0.2093 -0.3310  0.0045
  132SOL     OW  525   2.690   0.106   1.284 -0.1603 -0.2914 -0.2541
  132SOL    HW1  526   2.706   0.113   1.187 -1.5143  0.7145 -0.2846
  132SOL    HW2  527   2.593   0.094   1.290  0.2850 -0.8991  0.2091
  132SOL     MW  528   2.680   0.105   1.272 -0.2802 -0.2388 -0.1970
  133SOL     OW  529   1.093   0.225   1.700  0.4301 -0.2216  0.1946
  133SOL    HW1  530   1.153   0.156   1.689  0.3373  1.8684 -1.3356
  133SOL    HW2  531   1.048   0.206   1.780 -0.4436  1.4878  0.7183
  133SOL     MW  532   1.095   0.213   1.709  0.3026  0.2797  0.0618
  134SOL     OW  533   1.393   2.511   1.468 -0.2393 -0.2568 -0.8519
  134SOL    HW1  534   1.324   2.570   1.453  0.9663 -2.4319 -0.4095
  134SOL    HW2  535   1.437   2.540   1.552 -1.2817 -1.1346  0.6354
  134SOL     MW  536   1.390   2.522   1.477 -0.2178 -0.6596 -0.5973
  135SOL     OW  537   3.009   1.024   2.985  0.4292 -0.1976 -0.4142
  135SOL    HW1  538   3.078   1.084   2.964  0.8792 -0.4120 -3.0216
  135SOL    HW2  539   2.925   1.065   2.998  0.9066 -2.9246 -3.0916
  135SOL     MW  540   3.007   1.037   2.984  0.5515 -0.5857 -1.1115
  136SOL     OW  541   0.236   2.078   0.884  0.2573 -0.2334 -0.4955
  136SOL    HW1  542   0.198   1.989   0.888  0.8031 -0.2547  0.7395
  136SOL    HW2  543   0.282   2.080   0.798 -3.0952  0.7374  2.3852
  136SOL     MW  544   0.237   2.066   0.873 -0.1131 -0.1081  0.0475
  137SOL     OW  545   0.663   2.081   0.608  0.3024  0.1497  0.0747
  137SOL    HW1  546   0.703   2.051   0.687  0.5154  1.3406 -0.3512
  137SOL    HW2  547   0.575   2.041   0.584 -0.9505 -0.7139 -1.0282
  137SOL     MW  548   0.656   2.071   0.615  0.1652  0.1929 -0.1270
  138SOL     OW  549   0.484   0.598   1.110  0.5378  0.4272 -0.7912
  138SOL    HW1  550   0.420   0.531   1.131  2.4024  1.9414 -0.1488
  138SOL    HW2  551   0.540   0.569   1.037  1.9426  1.0752  2.1734
  138SOL     MW  552   0.483   0.586   1.103  0.9692  0.7125 -0.3153
  139SOL     OW  553   2.704   0.549   1.393 -0.1878  0.2759  0.4360
  139SOL    HW1  554   2.761   0.464   1.397  1.2998 -0.1356 -3.3520
  139SOL    HW2  555   2.760   0.613   1.435  2.0994  0.4740 -0.1494
  139SOL     MW  556   2.719   0.547   1.399  0.3103  0.2477 -0.1410
  140SOL     OW  557   0.881   0.292   2.186 -0.4954  0.5497  0.5411
  140SOL    HW1  558   0.917   0.262   2.097  2.3526 -1.2661 -3.8779
  140SOL    HW2  559   0.954   0.291   2.243  0.8398 -0.9841 -0.8894
  140SOL     MW  560   0.895   0.288   2.181  0.0566  0.1078 -0.2307
  141SOL     OW  561   1.044   0.675   1.764 -0.4875 -0.0608  0.2473
  141SOL    HW1  562   1.100   0.599   1.747 -0.0485 -1.4408 -0.1106
  141SOL    HW2  563   1.093   0.758   1.747 -0.2187  0.6058 -2.1144
  141SOL     MW  564   1.057   0.676   1.760 -0.3941 -0.1549 -0.1115
  142SOL     OW  565   0.955   1.137   0.706  0.3919 -0.3493 -0.6133
  142SOL    HW1  566   0.966   1.049   0.659 -0.2032  0.0291 -0.4172
  142SOL    HW2  567   1.039   1.172   0.741  0.4060  1.6823 -0.2840
  142SOL     MW  568   0.968   1.130   0.704  0.3152 -0.0313 -0.5440
  143SOL     OW  569   1.904   0.883   1.193  0.2029 -0.1333 -0.2339
  143SOL    HW1  570   1.917   0.879   1.095 -0.3308 -0.0925 -1.2948
  143SOL    HW2  571   1.845   0.805   1.210 -1.7403 -0.7686  2.3927
  143SOL     MW  572   1.898   0.872   1.183 -0.1239 -0.2118 -0.0273
  144SOL     OW  573   0.161   1.247   1.535 -0.0251 -0.3431 -0.6790
  144SOL    HW1  574   0.255   1.221   1.539  1.0966 -0.8912 -0.1327
  144SOL    HW2  575   0.148   1.287   1.622 -1.4313 -1.6130  1.1868
  144SOL     MW  576   0.172   1.249   1.547 -0.0626 -0.5829 -0.3607
  145SOL     OW  577   0.290   0.409   1.153 -0.6805  0.2539  0.0831
  145SOL    HW1  578   0.336   0.367   1.223  1.6708  0.3515 -0.9445
  145SOL    HW2  579   0.204   0.366   1.151  1.0683 -0.8672  2.0915
  145SOL     MW  580   0.285   0.398   1.162 -0.1396  0.1189  0.2125
  146SOL     OW  581   0.868   1.938   1.369 -0.0859 -0.2498  0.4872
  146SOL    HW1  582   0.902   1.964   1.284  0.1772  2.5479 -3.1144
  146SOL    HW2  583   0.777   1.937   1.352 -0.7308 -0.3591  1.1382
  146SOL     MW  584   0.860   1.942   1.356 -0.1363  0.1049  0.0979
  147SOL     OW  585   0.462   0.435   2.851 -0.9408  0.1520  0.0576
  147SOL    HW1  586   0.419   0.456   2.934 -2.0569 -1.7578  1.5629
  147SOL    HW2  587   0.432   0.507   2.802 -2.9653 -2.3231 -2.8625
  147SOL     MW  588   0.453   0.447   2.855 -1.3552 -0.4265 -0.1291
  148SOL     OW  589   0.076   0.882   1.291 -0.4286  0.1554  0.1134
  148SOL    HW1  590   0.138   0.950   1.259 -0.8227 -0.2350 -2.1571
  148SOL    HW2  591   0.068   0.909   1.382  2.1464  0.5588 -1.0549
  148SOL     MW  592   0.083   0.894   1.299 -0.1408  0.1571 -0.3403
  149SOL     OW  593   1.433   1.109   1.374 -0.0025 -0.6704 -0.1343
  149SOL    HW1  594   1.389   1.109   1.462  0.7117  0.2303 -1.8911
  149SOL    HW2  595   1.490   1.187   1.378  0.1744 -0.6892  0.6118
  149SOL     MW  596   1.435   1.119   1.386  0.1150 -0.5541 -0.2676
  150SOL     OW  597   1.856   1.349   0.708  0.4505  0.5969  0.2325
  150SOL    HW1  598   1.892   1.261   0.703 -0.9479 -1.9254  0.4121
  150SOL    HW2  599   1.913   1.391   0.773  0.1251  1.5864 -1.7711
  150SOL     MW  600   1.868   1.343   0.716  0.2230  0.3947 -0.0082
  151SOL     OW  601   1.609   1.801   0.826  0.2317 -0.0188 -0.2538
  151SOL    HW1  602   1.558   1.794   0.740  1.1032 -0.1725 -0.3745
  151SOL    HW2  603   1.568   1.747   0.893 -1.7736 -0.6852 -2.1813
  151SOL     MW  604   1.597   1.793   0.824  0.0821 -0.1270 -0.5240
  152SOL     OW  605   0.757   1.329   1.463  0.3482  0.0167  0.5373
  152SOL    HW1  606   0.733   1.252   1.412  1.3673  0.5542  2.3299
  152SOL    HW2  607   0.854   1.320   1.485  3.0799 -0.8896  1.0050
  152SOL     MW  608   0.767   1.318   1.459  0.8431 -0.0319  0.8355
  153SOL     OW  609   2.625   1.224   0.728  0.2806  0.3678 -0.0794
  153SOL    HW1  610   2.682   1.244   0.650  1.2872 -0.3401 -4.8828
  153SOL    HW2  611   2.580   1.143   0.719  2.1619  2.5932 -1.9188
  153SOL     MW  612   2.627   1.216   0.716  0.6617  0.5680 -0.9558
  154SOL     OW  613   0.313   1.745   1.725 -0.4605 -0.1658  0.3484
  154SOL    HW1  614   0.330   1.727   1.633 -1.0520 -0.2726 -3.3118
  154SOL    HW2  615   0.370   1.678   1.774  0.3857 -1.5300 -0.9420
  154SOL     MW  616   0.323   1.734   1.720 -0.4269 -0.3599 -0.3048
  155SOL     OW  617   1.091   0.722   0.254 -0.1360  0.2369  0.3265
  155SOL    HW1  618   1.115   0.658   0.319  1.3603 -0.1665 -0.8403
  155SOL    HW2  619   1.094   0.805   0.307 -0.6614 -0.3059  1.8967
  155SOL     MW  620   1.095   0.725   0.270 -0.0079  0.1121  0.3798
  156SOL     OW  621   1.600   3.035   0.992 -0.1377 -0.1695 -0.0782
  156SOL    HW1  622   1.694   3.061   0.993  1.1811 -0.4930 -2.4829
  156SOL    HW2  623   1.580   2.979   1.070  0.1099  0.9535 -0.2008
  156SOL     MW  624   1.610   3.031   1.002  0.0690 -0.0640 -0.4116
  157SOL     OW  625   1.383   1.208   0.090  0.9865 -0.1652 -0.1790
  157SOL    HW1  626   1.364   1.197   0.186 -3.4899 -1.0137  0.3890
  157SOL    HW2  627   1.466   1.259   0.082 -0.6195 -0.1128 -0.5210
  157SOL     MW  628   1.391   1.213   0.102  0.1840 -0.2702 -0.1491
  158SOL     OW  629   0.388   1.606   2.242  0.3025  0.9359  0.4159
  158SOL    HW1  630   0.344   1.691   2.225 -2.2573  1.0223  2.2903
  158SOL    HW2  631   0.331   1.582   2.317 -0.5585  0.6050  1.3773
  158SOL     MW  632   0.375   1.614   2.250 -0.1489  0.9037  0.7901
  159SOL     OW  633   1.250   1.693   0.399  0.1009 -0.7012  0.0220
  159SOL    HW1  634   1.241   1.596   0.397  0.3775  1.2254 -1.6977
  159SOL    HW2  635   1.167   1.732   0.434 -2.5413 -0.7649  1.1586
  159SOL     MW  636   1.238   1.686   0.403 -0.2112 -0.4554 -0.0549
  160SOL     OW  637   0.414   1.074   1.552  0.4753 -0.3354  0.6932
  160SOL    HW1  638   0.423   0.993   1.604 -1.0870  0.0514  1.8663
  160SOL    HW2  639   0.453   1.138   1.615 -0.5995 -3.0805  2.2460
  160SOL     MW  640   0.420   1.072   1.567  0.1274 -0.6466  1.0529
  161SOL     OW  641   0.538   2.143   2.655  0.7784 -0.2058 -0.1760
  161SOL    HW1  642   0.453   2.167   2.704  0.5706  1.4467  0.2527
  161SOL    HW2  643   0.512   2.089   2.587  0.0141  0.5717  0.2193
  161SOL     MW  644   0.523   2.139   2.653  0.6501  0.1148 -0.0673
  162SOL     OW  645   1.022   1.734   1.834  0.1173 -0.5254 -0.0206
  162SOL    HW1  646   1.009   1.811   1.877 -2.1021 -1.7175  0.9902
  162SOL    HW2  647   0.943   1.694   1.857 -0.0176 -0.7610 -2.5160
  162SOL     MW  648   1.010   1.739   1.843 -0.1934 -0.7138 -0.2165
  163SOL     OW  649   2.156   0.163   0.994 -0.1767 -0.1085  0.0675
  163SOL    HW1  650   2.162   0.178   0.894 -0.5713 -0.0311 -1.7218
  163SOL    HW2  651   2.102   0.090   1.001  2.4430 -1.7523  0.5827
  163SOL     MW  652   2.150   0.155   0.981  0.1169 -0.3152 -0.1006
  164SOL     OW  653   0.306   0.225   0.843 -0.0373 -0.5835 -0.1341
  164SOL    HW1  654   0.244   0.276   0.897 -2.9939  2.1926  0.3156
  164SOL    HW2  655   0.270   0.142   0.812  1.1868 -2.6429  0.2607
  164SOL     MW  656   0.293   0.221   0.846 -0.2659 -0.4889 -0.0227
  165SOL     OW  657   1.394   1.191   0.383 -0.1796  0.0173  0.0513
  165SOL    HW1  658   1.358   1.118   0.429  1.5127  2.2294  0.2581
  165SOL    HW2  659   1.492   1.187   0.391  1.5573 -0.7620 -1.0399
  165SOL     MW  660   1.402   1.181   0.390  0.2729  0.2063 -0.0654
  166SOL     OW  661   0.532   1.085   0.972  0.3372  1.1291  0.1994
  166SOL    HW1  662   0.470   1.029   1.021 -0.7587  3.0136  1.4342
  166SOL    HW2  663   0.620   1.044   0.978  1.8021 -2.4202  0.2550
  166SOL     MW  664   0.535   1.072   0.979  0.3859  0.9094  0.3697
  167SOL     OW  665   0.962   1.159   0.355  0.3597 -0.1250  0.0748
  167SOL    HW1  666   0.895   1.208   0.407 -4.1532  1.6099  0.7110
  167SOL    HW2  667   0.928   1.171   0.261 -3.3900 -2.9207 -1.9488
  167SOL     MW  668   0.949   1.167   0.349 -0.7305 -0.2650 -0.1082
  168SOL     OW  669   1.684   1.749   2.921  0.1951  0.0890 -0.2545
  168SOL    HW1  670   1.664   1.815   2.990  1.2174  0.2771 -0.6534
  168SOL    HW2  671   1.655   1.664   2.945 -0.0598  0.1533  2.0354
  168SOL     MW  672   1.678   1.746   2.934  0.2963  0.1223 -0.0050
  169SOL     OW  673   0.328   0.992   1.280 -0.1815 -0.9562  0.0396
  169SOL    HW1  674   0.367   0.996   1.363  1.3373  1.4822 -1.3639
  169SOL    HW2  675   0.317   1.086   1.251 -0.6457  2.0699  1.9529
  169SOL     MW  676   0.332   1.005   1.287 -0.0423 -0.2352  0.1069
  170SOL     OW  677   1.024   1.449   1.536  0.0204 -0.3698 -0.4945
  170SOL    HW1  678   0.965   1.525   1.533  1.5415 -0.6636  2.1684
  170SOL    HW2  679   1.094   1.476   1.483 -3.0218 -1.1662 -1.2637
  170SOL     MW  680   1.026   1.463   1.529 -0.1803 -0.5136 -0.2446
  171SOL     OW  681   0.561   1.380   0.690 -0.0518  0.4978 -0.2628
  171SOL    HW1  682   0.534   1.375   0.783 -0.6165  1.8797 -1.9968
  171SOL    HW2  683   0.578   1.284   0.669  0.9695 -1.0337 -1.5755
  171SOL     MW  684   0.560   1.367   0.699  0.0085  0.4781 -0.6648
  172SOL     OW  685   0.838   0.293   1.203 -0.1420  0.6982  0.2681
  172SOL    HW1  686   0.839   0.305   1.111  0.9096 -0.8275  0.3296
  172SOL    HW2  687   0.760   0.341   1.230  0.1687  2.2451 -0.9968
  172SOL     MW  688   0.827   0.301   1.194  0.0377  0.7010  0.1094
  173SOL     OW  689   0.406   1.636   0.358  0.2448  0.2429 -0.1907
  173SOL    HW1  690   0.385   1.545   0.354  1.0405  0.9273 -1.4852
  173SOL    HW2  691   0.469   1.632   0.433  0.6045  2.1620  1.0077
  173SOL     MW  692   0.412   1.624   0.368  0.3973  0.5864 -0.2034
  174SOL     OW  693   2.029   0.944   1.489 -0.3297  0.3387  0.9881
  174SOL    HW1  694   1.981   0.861   1.514 -1.5930 -0.2313  0.7937
  174SOL    HW2  695   1.967   1.002   1.450 -1.1514 -0.2024 -0.5019
  174SOL     MW  696   2.015   0.941   1.487 -0.6048  0.1921  0.7658
  175SOL     OW  697   0.367   1.363   0.387 -0.1361 -0.0654 -0.3233
  175SOL    HW1  698   0.366   1.362   0.289 -3.5508 -2.1065  1.4011
  175SOL    HW2  699   0.456   1.344   0.412  1.5890 -0.3632  0.2397
  175SOL     MW  700   0.379   1.360   0.377 -0.3590 -0.3740 -0.0215
  176SOL     OW  701   0.224   1.236   1.250  0.0881 -0.1225 -0.0500
  176SOL    HW1  702   0.164   1.240   1.174 -0.4793  0.2981  2.8034
  176SOL    HW2  703   0.178   1.255   1.327 -2.4145  0.0743  0.5104
  176SOL     MW  704   0.210   1.239   1.250 -0.3169 -0.0410  0.4004
  177SOL     OW  705   0.633   0.427   1.291  0.3276  0.0620  0.6222
  177SOL    HW1  706   0.588   0.492   1.235  0.9783 -2.4736  0.8367
  177SOL    HW2  707   0.615   0.463   1.378 -2.4730 -0.6595  0.3450
  177SOL     MW  708   0.625   0.440   1.295  0.0439 -0.3678  0.6140
  178SOL     OW  709   3.093   0.433   3.035 -0.2197 -0.2613 -0.2380
  178SOL    HW1  710   3.038   0.476   3.107 -0.2807 -1.0377 -2.0635
  178SOL    HW2  711   3.047   0.451   2.957  1.6431 -0.9684 -0.2041
  178SOL     MW  712   3.080   0.441   3.034  0.0180 -0.4570 -0.4744
  179SOL     OW  713   1.635   1.326   1.484  0.2017  0.0251 -0.1990
  179SOL    HW1  714   1.599   1.353   1.574 -2.1018 -2.8473  1.4959
  179SOL    HW2  715   1.729   1.310   1.502 -1.1635  1.1772 -0.3544
  179SOL     MW  716   1.642   1.328   1.498 -0.2823 -0.2018  0.0041
  180SOL     OW  717   2.981   0.299   0.491  0.4540  0.2325 -0.5029
  180SOL    HW1  718   2.948   0.313   0.401  1.6166 -1.0716  1.0088
  180SOL    HW2  719   3.025   0.374   0.517 -1.4874  0.0519  1.6366
  180SOL     MW  720   2.983   0.311   0.482  0.3513  0.0366 -0.0211
  181SOL     OW  721   1.138   1.362   3.037  0.1415  0.1398 -0.0503
  181SOL    HW1  722   1.196   1.396   3.101  1.4767  2.0475 -2.4410
  181SOL    HW2  723   1.199   1.320   2.979 -1.2349  0.2765  0.2261
  181SOL     MW  724   1.153   1.361   3.038  0.1361  0.4095 -0.3293
  182SOL     OW  725   0.459   0.854   1.714  0.2263 -1.0531 -0.6403
  182SOL    HW1  726   0.376   0.808   1.709  0.0785  1.7833  1.5685
  182SOL    HW2  727   0.516   0.790   1.748  2.5589  1.1523  0.7715
  182SOL     MW  728   0.455   0.840   1.718  0.5146 -0.3879 -0.1626
  183SOL     OW  729   1.573   1.515   1.287  0.0191 -0.0879 -0.4466
  183SOL    HW1  730   1.567   1.602   1.317 -2.9695  0.9595 -0.8813
  183SOL    HW2  731   1.611   1.466   1.368  1.9466 -0.1520 -0.0704
  183SOL     MW  732   1.577   1.520   1.301 -0.1209  0.0419 -0.4543
  184SOL     OW  733   0.807   0.481   1.952 -0.3674  0.2724  0.4847
  184SOL    HW1  734   0.889   0.504   1.914 -0.1900  2.1270 -1.1360
  184SOL    HW2  735   0.822   0.421   2.019 -2.6977  1.4686  3.0825
  184SOL     MW  736   0.820   0.476   1.956 -0.6515  0.6749  0.6136
  185SOL     OW  737   1.121   0.918   1.963  0.2842 -0.5494 -0.0666
  185SOL    HW1  738   1.100   0.835   2.001 -0.5151  1.1150  0.4075
  185SOL    HW2  739   1.168   0.965   2.038  2.8614 -0.4689  0.5355
  185SOL     MW  740   1.125   0.913   1.978  0.5188 -0.3192  0.0754
  186SOL     OW  741   0.363   1.775   1.450 -0.0963 -0.2826 -0.1999
  186SOL    HW1  742   0.418   1.844   1.419 -0.3270  1.1118  2.1714
  186SOL    HW2  743   0.351   1.714   1.381  0.0661 -2.3939  0.0370
  186SOL     MW  744   0.369   1.776   1.437 -0.1053 -0.3772  0.1442
  187SOL     OW  745   1.516   0.727   1.496  0.0590 -0.7103  0.1710
  187SOL    HW1  746   1.470   0.727   1.583  0.0777  1.0510  0.6320
  187SOL    HW2  747   1.458   0.709   1.426  0.8312  0.9225  0.8331
  187SOL     MW  748   1.502   0.725   1.498  0.1634 -0.2625  0.3192
  188SOL     OW  749   1.918   1.079   0.700  0.1464 -0.0256 -0.0380
  188SOL    HW1  750   1.908   1.033   0.782 -0.0020  2.7323 -0.1279
  188SOL    HW2  751   1.992   1.041   0.658 -0.8411  0.9210 -0.5320
  188SOL     MW  752   1.927   1.068   0.705 -0.0035  0.4632 -0.1150
  189SOL     OW  753   0.636   0.782   0.748  0.1160 -0.2326  0.6597
  189SOL    HW1  754   0.546   0.804   0.743 -0.7115 -0.7355 -1.5279
  189SOL    HW2  755   0.656   0.845   0.821 -0.4560 -0.1291  4.4425
  189SOL     MW  756   0.627   0.793   0.757 -0.0687 -0.2853  0.8702
  190SOL     OW  757   1.885   0.351   1.952 -0.3050  0.4218  0.6003
  190SOL    HW1  758   1.933   0.283   1.991 -0.0605  0.1026  0.7204
  190SOL    HW2  759   1.950   0.421   1.922  0.8499 -1.0978 -1.2862
  190SOL     MW  760   1.900   0.352   1.953 -0.1203  0.1792  0.3672
  191SOL     OW  761   1.622   0.982   1.500 -0.5731 -0.2103  0.1529
  191SOL    HW1  762   1.560   1.024   1.441  3.3482 -1.9852  1.2980
  191SOL    HW2  763   1.585   0.894   1.512  0.7935  0.9638 -0.3564
  191SOL     MW  764   1.609   0.976   1.494  0.1246 -0.2896  0.2368
  192SOL     OW  765   0.682   2.042   2.871  0.0679  0.0625  0.3478
  192SOL    HW1  766   0.639   2.085   2.793  0.4285 -1.4432 -2.3431
  192SOL    HW2  767   0.658   1.949   2.856  0.1781 -1.6817 -0.7805
  192SOL     MW  768   0.674   2.035   2.859  0.1300 -0.3663 -0.1561
  193SOL     OW  769   0.994   1.537   0.748 -0.2480 -0.1106 -0.6099
  193SOL    HW1  770   0.958   1.557   0.832  1.4254  0.6186 -2.2882
  193SOL    HW2  771   0.930   1.484   0.694 -0.1636 -0.7392  1.4412
  193SOL     MW  772   0.981   1.533   0.752 -0.0161 -0.0974 -0.5607
  194SOL     OW  773   0.503   1.357   0.955  0.0636 -0.0125  0.2156
  194SOL    HW1  774   0.501   1.261   0.951 -1.4194 -3.6172  1.8642
  194SOL    HW2  775   0.412   1.388   0.960 -1.3698  0.7709 -1.8991
  194SOL     MW  776   0.490   1.348   0.955 -0.3212 -0.3847  0.1541
  195SOL     OW  777   1.303   1.146   2.910  0.5193 -0.1376  0.3899
  195SOL    HW1  778   1.313   1.149   3.007  1.8135  2.1733 -0.3020
  195SOL    HW2  779   1.215   1.104   2.895 -0.2095  0.3567 -0.3707
  195SOL     MW  780   1.292   1.141   2.921  0.5939  0.2325  0.1983
  196SOL     OW  781   2.205   1.082   0.596  0.4192 -0.7865  0.1738
  196SOL    HW1  782   2.152   1.075   0.510 -0.7278  0.4331 -0.6425
  196SOL    HW2  783   2.162   1.154   0.649  1.9237 -0.4258  0.8508
  196SOL     MW  784   2.192   1.091   0.592  0.4664 -0.5780  0.1554
  197SOL     OW  785   0.537   1.172   1.958 -0.0080  0.3380 -0.4118
  197SOL    HW1  786   0.544   1.081   1.923 -1.3668  2.6815  0.8083
  197SOL    HW2  787   0.499   1.219   1.890  2.3456  2.3426  0.5441
  197SOL     MW  788   0.533   1.166   1.944  0.1233  0.9117 -0.1247
  198SOL     OW  789   2.911   1.413   1.091 -0.0562 -0.4767 -0.7757
  198SOL    HW1  790   2.909   1.507   1.063 -0.6700  0.7546  0.1390
  198SOL    HW2  791   2.837   1.370   1.048 -1.4294 -5.7940  1.9122
  198SOL     MW  792   2.901   1.420   1.082 -0.3183 -1.0158 -0.3004
  199SOL     OW  793   0.423   1.289   1.736 -0.0034 -0.0872 -0.2624
  199SOL    HW1  794   0.327   1.267   1.751 -1.3204  0.3932  2.0010
  199SOL    HW2  795   0.435   1.355   1.660  2.2959 -0.1344  3.1066
  199SOL     MW  796   0.412   1.295   1.728  0.1262 -0.0300  0.4807
  200SOL     OW  797   1.940   3.003   1.264  0.2029  0.2949  0.2284
  200SOL    HW1  798   1.964   2.992   1.172 -2.0163 -1.7528 -1.0844
  200SOL    HW2  799   1.849   3.028   1.275  0.9522  1.5524  4.5489
  200SOL     MW  800   1.931   3.005   1.253  0.0089  0.1906  0.6253
  201SOL     OW  801   1.051   0.300   0.756  0.3549  0.0354  0.3883
  201SOL    HW1  802   1.015   0.219   0.735  1.0288 -0.8288 -0.6442
  201SOL    HW2  803   1.015   0.364   0.691  1.1010  1.1472 -2.3906
  201SOL     MW  804   1.041   0.298   0.745  0.5423  0.0681 -0.1146
  202SOL     OW  805   1.557   1.593   1.018  0.7862 -0.3304  0.1969
  202SOL    HW1  806   1.577   1.515   0.965  0.9712 -0.3961  1.8460
  202SOL    HW2  807   1.615   1.599   1.093 -0.6981  1.3544  0.2264
  202SOL     MW  808   1.567   1.584   1.021  0.6148 -0.1168  0.4184
  203SOL     OW  809   2.986   0.466   1.206  0.3714  0.2409  0.2416
  203SOL    HW1  810   3.066   0.413   1.168  4.4620  3.5901  0.4317
  203SOL    HW2  811   3.029   0.512   1.277  1.5253  2.5322  3.6128
  203SOL     MW  812   3.002   0.465   1.210  1.0634  0.9851  0.7115
  204SOL     OW  813   1.047   1.781   0.568  0.0315 -0.1531  0.3095
  204SOL    HW1  814   1.027   1.695   0.611 -1.2705 -0.6397  0.9811
  204SOL    HW2  815   0.963   1.810   0.527  1.3055 -0.3490  0.4723
  204SOL     MW  816   1.033   1.773   0.568  0.0278 -0.2431  0.4196
  205SOL     OW  817   1.454   0.075   1.216 -0.6446 -0.7098 -0.0004
  205SOL    HW1  818   1.456   0.051   1.123 -2.0448 -2.5200  1.5719
  205SOL    HW2  819   1.436   0.168   1.212  1.1203  0.5878  1.9806
  205SOL     MW  820   1.452   0.084   1.203 -0.5965 -0.7774  0.4684
  206SOL     OW  821   0.481   3.082   1.367  0.5434  0.8637  0.0778
  206SOL    HW1  822   0.457   3.051   1.281  1.5241  0.8677  1.7802
  206SOL    HW2  823   0.551   3.014   1.399  0.2400 -0.5961 -0.2228
  206SOL     MW  824   0.487   3.069   1.360  0.6327  0.6716  0.2627
  207SOL     OW  825   1.002   1.597   0.241 -0.0523  0.4885 -0.3326
  207SOL    HW1  826   1.021   1.673   0.187  0.8812 -2.5683  2.9327
  207SOL    HW2  827   1.078   1.538   0.244  2.5077  0.7357 -0.1580
  207SOL     MW  828   1.014   1.600   0.234  0.4086  0.1178  0.1213
  208SOL     OW  829   0.602   1.577   1.309  0.2083 -0.0649 -0.7578
  208SOL    HW1  830   0.675   1.563   1.366  0.5252 -1.2800  0.8552
  208SOL    HW2  831   0.595   1.500   1.255  0.6016  1.3565  2.3296
  208SOL     MW  832   0.610   1.565   1.309  0.3020 -0.0377 -0.1376
  209SOL     OW  833   1.507   0.555   2.798  0.2622 -0.1131 -0.0771
  209SOL    HW1  834   1.572   0.625   2.809 -0.2422 -1.2014  1.3453
  209SOL    HW2  835   1.560   0.478   2.776  0.4310  1.6803  2.0971
  209SOL     MW  836   1.523   0.554   2.797  0.2179 -0.0201  0.3974
  210SOL     OW  837   1.625   1.339   0.875  0.3944 -0.4603  0.6025
  210SOL    HW1  838   1.715   1.345   0.844 -0.5674 -2.4927  0.4394
  210SOL    HW2  839   1.582   1.321   0.794 -1.3254 -1.4879  1.5453
  210SOL     MW  840   1.631   1.338   0.860  0.0406 -0.8640  0.7054
  211SOL     OW  841   1.729   0.492   0.953 -0.7088  0.0654 -0.3825
  211SOL    HW1  842   1.686   0.497   0.860 -0.5922  1.6658  1.6058
  211SOL    HW2  843   1.822   0.515   0.937 -0.1944 -1.1104 -0.9600
  211SOL     MW  844   1.736   0.496   0.939 -0.6255  0.1214 -0.1964
  212SOL     OW  845   0.326   1.130   0.048 -0.0628 -0.3069 -0.1977
  212SOL    HW1  846   0.236   1.096   0.081 -0.6596  0.3527  0.5791
  212SOL    HW2  847   0.371   1.064  -0.009  0.4029  1.7836 -0.1199
  212SOL     MW  848   0.320   1.117   0.045 -0.0801  0.0559 -0.0850
  213SOL     OW  849   0.516   1.703   3.071 -0.4741  0.2464  0.2881
  213SOL    HW1  850   0.541   1.761   3.151  1.4584 -2.9003  0.0853
  213SOL    HW2  851   0.575   1.737   2.999  1.6115 -0.6356 -0.4489
  213SOL     MW  852   0.527   1.715   3.072  0.0561 -0.2852  0.1641
  214SOL     OW  853   0.614   0.232   2.281 -0.3738 -0.2242 -0.0216
  214SOL    HW1  854   0.563   0.304   2.232 -1.0379  0.5635 -1.3609
  214SOL    HW2  855   0.702   0.242   2.237  1.4523  2.0683 -1.2359
  214SOL     MW  856   0.619   0.243   2.269 -0.2205  0.1822 -0.3585
  215SOL     OW  857   0.488   0.695   2.621  0.5087 -0.1267 -0.2502
  215SOL    HW1  858   0.501   0.661   2.533  1.3583  1.5262  0.7591
  215SOL    HW2  859   0.412   0.643   2.652  2.2132 -0.3298 -1.1526
  215SOL     MW  860   0.480   0.684   2.613  0.8457  0.0646 -0.2361
  216SOL     OW  861   3.064  -0.002   2.836  0.2549  0.2244 -0.1489
  216SOL    HW1  862   3.012  -0.003   2.917  3.1085  0.8850 -0.7774
  216SOL    HW2  863   3.065   0.095   2.821  1.8865 -1.9011  1.8478
  216SOL     MW  864   3.057   0.011   2.845  0.8466  0.0311  0.0316
  217SOL     OW  865   0.978   1.162   0.074 -0.2237 -0.4527  0.1573
  217SOL    HW1  866   1.014   1.082   0.035  1.0335 -0.0209 -3.0610
  217SOL    HW2  867   1.032   1.234   0.039  0.0020  4.8173  0.3251
  217SOL     MW  868   0.990   1.161   0.064 -0.0280  0.2996 -0.2452
  218SOL     OW  869   0.927   1.318   2.485 -0.2012  0.0226 -0.6080
  218SOL    HW1  870   0.933   1.230   2.528 -0.1846 -1.0104  2.6208
  218SOL    HW2  871   0.999   1.369   2.532  3.0797  0.7486 -0.1488
  218SOL     MW  872   0.937   1.313   2.497  0.2339 -0.0179 -0.1214
  219SOL     OW  873   1.032   0.374   2.572 -0.0280  0.2150 -0.6830
  219SOL    HW1  874   1.096   0.403   2.638 -0.3926  1.4862 -0.1105
  219SOL    HW2  875   0.942   0.394   2.602  1.7828 -1.0030  0.4832
  219SOL     MW  876   1.028   0.380   2.584  0.1628  0.2220 -0.4536
  220SOL     OW  877   1.748   0.556   2.177  0.4796  0.1421  0.0062
  220SOL    HW1  878   1.676   0.615   2.168  2.8146 -2.5107  0.8921
  220SOL    HW2  879   1.737   0.481   2.121 -1.6813  2.4241 -3.9425
  220SOL     MW  880   1.737   0.554   2.168  0.5026  0.0932 -0.3979
  221SOL     OW  881   0.388   1.416   2.923  0.1790  0.5809  0.5282
  221SOL    HW1  882   0.362   1.339   2.880 -2.4428  3.0426 -0.9879
  221SOL    HW2  883   0.405   1.475   2.849 -1.0436 -0.7865 -3.0171
  221SOL     MW  884   0.387   1.413   2.908 -0.3282  0.7253 -0.1396
  222SOL     OW  885   0.402   0.926   2.675  0.7561 -0.3743 -0.5433
  222SOL    HW1  886   0.347   0.946   2.595  0.3882  1.1632  1.5232
  222SOL    HW2  887   0.452   0.846   2.657 -0.5406  2.1053  1.7566
  222SOL     MW  888   0.402   0.918   2.662  0.5365  0.1557  0.0328
  223SOL     OW  889   3.038   2.013   2.671 -0.0476 -0.1326  0.2887
  223SOL    HW1  890   3.106   1.951   2.686  1.7211 -0.1428 -2.6810
  223SOL    HW2  891   3.084   2.080   2.619 -2.4154  1.2665 -0.0866
  223SOL     MW  892   3.053   2.014   2.666 -0.1266  0.0507 -0.1527
  224SOL     OW  893   1.546   0.795   2.570 -0.1168 -0.2631  0.6907
  224SOL    HW1  894   1.530   0.792   2.664  0.1039  0.1718  4.1244
  224SOL    HW2  895   1.521   0.881   2.544  1.8313 -1.1576  1.3537
  224SOL     MW  896   1.540   0.806   2.579  0.1693 -0.3238  1.2312
  225SOL     OW  897   2.980   1.508   2.268  0.0395 -0.8285  0.7518
  225SOL    HW1  898   3.014   1.571   2.201 -0.4035 -0.0782 -1.3227
  225SOL    HW2  899   2.905   1.548   2.313 -2.9151 -1.3984 -1.7179
  225SOL     MW  900   2.975   1.522   2.265 -0.4088 -0.8047  0.1522
  226SOL     OW  901   0.425   1.534   2.672  0.3912 -0.3324 -0.1403
  226SOL    HW1  902   0.496   1.497   2.630 -0.6096  0.7951  1.3304
  226SOL    HW2  903   0.446   1.625   2.678 -0.5599  1.2838  2.1119
  226SOL     MW  904   0.437   1.541   2.668  0.1337  0.0296  0.3509
  227SOL     OW  905   0.460   1.170   2.811 -0.7316 -0.5186  0.0564
  227SOL    HW1  906   0.541   1.204   2.772 -2.0729  3.7367  0.5393
  227SOL    HW2  907   0.437   1.104   2.744 -1.0832  3.1719  2.7745
  227SOL     MW  908   0.468   1.166   2.797 -0.9550  0.5297  0.4787
  228SOL     OW  909   0.672   0.928   1.988 -0.0790 -0.0042 -0.2128
  228SOL    HW1  910   0.759   0.964   2.001  2.0357  0.4039  2.3868
  228SOL    HW2  911   0.643   0.886   2.076 -0.0110 -2.4744 -0.4718
  228SOL     MW  912   0.679   0.927   2.001  0.2090 -0.2763  0.0960
  229SOL     OW  913   0.268   0.482   3.066  0.5732 -0.1812 -0.0216
  229SOL    HW1  914   0.166   0.468   3.050 -2.7060 -2.3281 -1.4674
  229SOL    HW2  915   0.278   0.427   3.147  0.0954 -0.7674  0.9116
  229SOL     MW  916   0.256   0.473   3.074  0.0775 -0.5418 -0.0892
  230SOL     OW  917   1.696   1.384   2.100  0.4395 -0.2797 -0.0264
  230SOL    HW1  918   1.651   1.395   2.180 -1.7064  0.5400  0.7647
  230SOL    HW2  919   1.758   1.307   2.107 -1.9794 -1.1177  1.0089
  230SOL     MW  920   1.698   1.375   2.111 -0.1628 -0.2821  0.2146
  231SOL     OW  921   2.826   1.291   2.193  0.0425 -1.2365  0.1574
  231SOL    HW1  922   2.886   1.359   2.212 -2.8694 -4.1017  2.2964
  231SOL    HW2  923   2.768   1.347   2.141 -1.4246  1.6064  1.8565
  231SOL     MW  924   2.826   1.308   2.189 -0.5353 -1.2395  0.6638
  232SOL     OW  925   2.290   1.027   2.107  0.3164 -0.1059 -0.2282
  232SOL    HW1  926   2.235   1.026   2.038  2.1489  2.9748  0.8601
  232SOL    HW2  927   2.239   0.980   2.178  0.9462 -2.7590 -2.2581
  232SOL     MW  928   2.276   1.021   2.107  0.6413 -0.0495 -0.3524
  233SOL     OW  929   2.024   0.598   1.887 -0.3533 -0.0406  0.0381
  233SOL    HW1  930   2.039   0.568   1.795  2.2464 -2.4432  1.9249
  233SOL    HW2  931   2.108   0.584   1.929  0.1226  1.1657  1.0045
  233SOL     MW  932   2.037   0.592   1.881  0.0525 -0.1985  0.4146
  234SOL     OW  933   0.214   0.970   2.490 -0.0347  0.7392 -0.4127
  234SOL    HW1  934   0.118   0.948   2.489 -0.1020 -1.8206 -1.2109
  234SOL    HW2  935   0.241   1.054   2.438  2.1501  1.0505  0.9406
  234SOL     MW  936   0.205   0.978   2.483  0.2447  0.4425 -0.3395
  235SOL     OW  937   0.987   3.048   2.791  0.0358 -0.2579  0.2065
  235SOL    HW1  938   0.992   2.982   2.861  1.2879  1.1291  1.2323
  235SOL    HW2  939   0.981   3.137   2.833  1.4133  0.5458 -1.1626
  235SOL     MW  940   0.987   3.051   2.806  0.3828  0.0312  0.1612
  236SOL     OW  941   2.946   0.556   0.111 -0.0662 -0.2091 -0.6706
  236SOL    HW1  942   2.852   0.553   0.082 -1.8655 -0.5676  1.7312
  236SOL    HW2  943   2.971   0.644   0.100 -2.7454  1.6540  2.5352
  236SOL     MW  944   2.937   0.567   0.106 -0.6571 -0.0106  0.0692
  237SOL     OW  945   1.755   0.904   2.182 -0.2754 -0.5288 -0.4134
  237SOL    HW1  946   1.804   0.983   2.148  0.0815 -2.9942  0.0018
  237SOL    HW2  947   1.786   0.885   2.272  3.0053  0.0070  0.1138
  237SOL     MW  948   1.766   0.912   2.189  0.2045 -0.7834 -0.2891
  238SOL     OW  949   1.036   1.766   2.962  0.2401 -0.2304  0.0760
  238SOL    HW1  950   1.002   1.676   2.967 -0.3432 -1.5210 -0.7920
  238SOL    HW2  951   1.129   1.761   2.950  0.4729  1.5940  0.5913
  238SOL     MW  952   1.044   1.754   2.961  0.1938 -0.1600  0.0295
  239SOL     OW  953   1.273   1.434   2.348 -0.2520 -0.3999 -0.3857
  239SOL    HW1  954   1.215   1.428   2.424 -3.3642  0.0758  0.7782
  239SOL    HW2  955   1.358   1.451   2.388 -0.7308  0.6103 -2.9182
  239SOL     MW  956   1.277   1.436   2.363 -0.7258 -0.2038 -0.5663
  240SOL     OW  957   0.596   0.834   2.229  0.3762 -0.1205 -0.0137
  240SOL    HW1  958   0.566   0.910   2.279  1.8283  0.1053 -0.2031
  240SOL    HW2  959   0.672   0.794   2.277  0.6158 -1.0206  1.7240
  240SOL     MW  960   0.602   0.839   2.242  0.5994 -0.2095  0.1906
  241SOL     OW  961   0.655   0.335   3.021  0.3263  0.1142  0.2345
  241SOL    HW1  962   0.644   0.390   3.102  2.1795  1.2171 -0.5490
  241SOL    HW2  963   0.591   0.361   2.954  1.5404  1.3625 -2.6132
  241SOL     MW  964   0.645   0.346   3.022  0.7310  0.4244 -0.2446
  242SOL     OW  965   1.427   1.695   2.289 -0.4197 -0.5700  0.8964
  242SOL    HW1  966   1.396   1.762   2.348  0.4225 -0.8177 -2.6362
  242SOL    HW2  967   1.344   1.661   2.260 -1.3083 -0.9362 -0.1934
  242SOL     MW  968   1.412   1.699   2.293 -0.4258 -0.6510  0.2865
  243SOL     OW  969   1.063   0.211   2.375  0.0984  0.0653 -0.2947
  243SOL    HW1  970   1.151   0.177   2.371 -1.0180 -3.2275 -3.5306
  243SOL    HW2  971   1.057   0.267   2.454  0.7306 -1.6536  1.9052
  243SOL     MW  972   1.074   0.214   2.385  0.0345 -0.5959 -0.4314
  244SOL     OW  973   0.234   0.757   2.319  0.1153 -0.1262  0.3348
  244SOL    HW1  974   0.238   0.832   2.377  0.8022  3.0272 -1.1992
  244SOL    HW2  975   0.304   0.697   2.352 -0.0346  3.3974 -1.1302
  244SOL     MW  976   0.244   0.759   2.331  0.1861  0.7548 -0.0609
  245SOL     OW  977   1.337   0.139   2.318 -0.3919  0.3026 -0.0416
  245SOL    HW1  978   1.304   0.056   2.288 -1.1283  1.4478 -1.9589
  245SOL    HW2  979   1.422   0.159   2.277  2.1219 -1.6425  1.1356
  245SOL     MW  980   1.344   0.131   2.309 -0.1574  0.1971 -0.1392
  246SOL     OW  981   1.162   1.141   2.173  0.3436 -0.1861  0.0898
  246SOL    HW1  982   1.104   1.118   2.245  2.9372  0.2307 -3.0888
  246SOL    HW2  983   1.252   1.161   2.208  0.4647 -0.6184  0.1425
  246SOL     MW  984   1.167   1.141   2.187  0.7018 -0.1882 -0.3226
  247SOL     OW  985   0.633   0.577   0.123  0.2242 -0.1563 -0.1940
  247SOL    HW1  986   0.580   0.639   0.079  1.5380 -1.0150 -1.9003
  247SOL    HW2  987   0.725   0.597   0.100  2.0174  1.3888  3.8776
  247SOL     MW  988   0.638   0.588   0.114  0.6342 -0.0657  0.1181
  248SOL     OW  989   0.340   1.204   2.418 -0.0658 -0.1515  0.4696
  248SOL    HW1  990   0.362   1.267   2.352 -3.5491 -0.1353  0.5450
  248SOL    HW2  991   0.302   1.244   2.495 -0.2132  1.0407  0.8147
  248SOL     MW  992   0.338   1.218   2.419 -0.5448  0.0080  0.5251
  249SOL     OW  993   0.141   1.835   2.710  0.2844 -0.3378  0.3959
  249SOL    HW1  994   0.088   1.758   2.684 -1.0921 -0.9688 -1.2377
  249SOL    HW2  995   0.176   1.796   2.792  0.0318  1.4837  2.4277
  249SOL     MW  996   0.139   1.820   2.717  0.0695 -0.1807  0.4484
  250SOL     OW  997   2.177   0.874   2.306 -0.4622  0.8614  0.2889
  250SOL    HW1  998   2.251   0.814   2.298 -2.4271 -0.8870 -1.8405
  250SOL    HW2  999   2.210   0.923   2.386  1.6892  2.1297  0.3717
  250SOL     MW 1000   2.191   0.873   2.316 -0.4376  0.7981  0.0189
  251SOL     OW 1001   0.082   0.822   2.078  0.3325  0.3352 -0.7124
  251SOL    HW1 1002   0.150   0.802   2.144 -0.3875 -1.7214 -3.4538
  251SOL    HW2 1003   0.051   0.739   2.050 -1.5366  1.5128  4.2893
  251SOL     MW 1004   0.087   0.808   2.083 -0.0091  0.2192 -0.4142
  252SOL     OW 1005   1.697   0.999   2.788 -0.1179 -0.0970 -0.2567
  252SOL    HW1 1006   1.732   1.037   2.866 -1.7351  0.6743  0.2837
  252SOL    HW2 1007   1.737   1.048   2.720 -0.2995  0.7377  2.0903
  252SOL     MW 1008   1.707   1.010   2.789 -0.3552  0.1149  0.1243
  253SOL     OW 1009   1.143   1.749   2.563 -0.0141  0.2759  0.3452
  253SOL    HW1 1010   1.132   1.787   2.477 -1.4463  0.7948  1.0902
  253SOL    HW2 1011   1.047   1.763   2.596 -1.2078  1.8235  1.0559
  253SOL     MW 1012   1.129   1.756   2.556 -0.3605  0.5486  0.5372
  254SOL     OW 1013   0.953   1.061   2.336 -0.3558  0.5869 -0.4963
  254SOL    HW1 1014   0.968   0.967   2.318  0.7084 -0.7024  0.7444
  254SOL    HW2 1015   0.884   1.104   2.284  0.0971 -2.0227  0.0030
  254SOL     MW 1016   0.946   1.054   2.327 -0.1556  0.0725 -0.2667
  255SOL     OW 1017   0.718   2.305   2.300  0.2381  0.9812 -0.5921
  255SOL    HW1 1018   0.629   2.289   2.305  1.7817  1.7823 -1.5836
  255SOL    HW2 1019   0.734   2.357   2.379  1.5756  0.3357  1.1919
  255SOL     MW 1020   0.709   2.310   2.311  0.6182  1.0017 -0.4875
  256SOL     OW 1021   1.202   2.865   2.973 -0.1411  0.1213 -0.3001
  256SOL    HW1 1022   1.243   2.778   2.988 -0.5780 -0.2737  2.1934
  256SOL    HW2 1023   1.251   2.911   2.903 -0.3575 -0.3602  0.8678
  256SOL     MW 1024   1.214   2.860   2.966 -0.2273  0.0056  0.1830
  257SOL     OW 1025   0.132   1.853   0.013 -0.1284  0.0086 -0.2654
  257SOL    HW1 1026   0.118   1.811   0.099 -1.1519  0.3389  3.2187
  257SOL    HW2 1027   0.182   1.793  -0.039 -0.6529 -0.4092  0.4766
  257SOL     MW 1028   0.137   1.839   0.018 -0.3327 -0.0029  0.2922
  258SOL     OW 1029   0.549   1.039   2.388  0.7109 -0.2153  0.8294
  258SOL    HW1 1030   0.618   1.094   2.354  1.3297 -0.1478 -0.4838
  258SOL    HW2 1031   0.482   1.107   2.420 -0.0275 -0.8901 -1.4541
  258SOL     MW 1032   0.549   1.055   2.388  0.6951 -0.2954  0.3548
  259SOL     OW 1033   0.607   0.366   2.537 -0.2416 -0.0898 -0.0936
  259SOL    HW1 1034   0.522   0.411   2.521  3.8708 -0.5720 -1.6712
  259SOL    HW2 1035   0.609   0.306   2.459  0.4110 -1.7982 -1.4419
  259SOL     MW 1036   0.596   0.364   2.524  0.3871 -0.3788 -0.4796
  260SOL     OW 1037   0.592   0.156   1.595 -0.2799 -0.0780 -0.7180
  260SOL    HW1 1038   0.521   0.175   1.536  1.0014 -0.3571  0.7872
  260SOL    HW2 1039   0.662   0.138   1.528  2.1634 -0.6854  2.3810
  260SOL     MW 1040   0.592   0.156   1.578  0.2115 -0.1950 -0.1105
  261SOL     OW 1041   1.042   0.672   2.080  0.1573  0.5221 -0.5103
  261SOL    HW1 1042   1.078   0.661   2.170  2.0578 -1.3384  0.6278
  261SOL    HW2 1043   1.093   0.614   2.025  0.0479  0.8672  1.0873
  261SOL     MW 1044   1.053   0.662   2.085  0.3936  0.3221 -0.1494
  262SOL     OW 1045   1.148   0.401   0.138 -0.2558 -0.0771 -0.1700
  262SOL    HW1 1046   1.167   0.308   0.152  0.1495 -0.0239  2.1816
  262SOL    HW2 1047   1.191   0.422   0.053 -0.9353  0.2384  1.0784
  262SOL     MW 1048   1.156   0.392   0.129 -0.2920 -0.0285  0.3049
  263SOL     OW 1049   0.414   2.999   2.471  0.5048  0.2650 -0.0044
  263SOL    HW1 1050   0.357   3.067   2.438  1.2825  1.4628 -0.4504
  263SOL    HW2 1051   0.469   2.979   2.399  0.6762 -1.9637  3.8416
  263SOL     MW 1052   0.414   3.005   2.457  0.6300  0.1290  0.4442
  264SOL     OW 1053   1.471   1.329   1.983  0.6027  0.0269 -0.1663
  264SOL    HW1 1054   1.404   1.345   2.047 -1.2731 -3.7591  0.6856
  264SOL    HW2 1055   1.563   1.343   2.015  1.6314 -0.3072 -1.9787
  264SOL     MW 1056   1.474   1.333   1.995  0.4909 -0.5167 -0.2930
  265SOL     OW 1057   0.751   2.754   2.204 -0.0427 -0.5921 -0.0984
  265SOL    HW1 1058   0.783   2.666   2.182 -0.7369  1.5772  0.4085
  265SOL    HW2 1059   0.730   2.746   2.299 -0.0270 -0.7960  1.8103
  265SOL     MW 1060   0.753   2.741   2.214 -0.1322 -0.3328  0.2203
  266SOL     OW 1061   0.881   0.796   2.283  0.0757  0.3647 -0.1424
  266SOL    HW1 1062   0.917   0.762   2.207  1.5767  2.6586  0.5625
  266SOL    HW2 1063   0.864   0.722   2.342 -0.3612  0.6774  0.8501
  266SOL     MW 1064   0.883   0.781   2.281  0.2161  0.7086  0.0816
  267SOL     OW 1065   1.383   1.811   2.687  0.0207  0.2927 -0.5788
  267SOL    HW1 1066   1.442   1.740   2.648  2.1364 -0.3712 -0.8604
  267SOL    HW2 1067   1.300   1.789   2.657  0.5371  1.5075  2.4956
  267SOL     MW 1068   1.380   1.799   2.678  0.3679  0.3654 -0.2103
  268SOL     OW 1069   0.195   0.766   1.663  0.2421 -0.4013 -0.1991
  268SOL    HW1 1070   0.150   0.846   1.620 -1.9072  1.1497 -0.9212
  268SOL    HW2 1071   0.156   0.687   1.617 -0.5434  1.6192 -1.0372
  268SOL     MW 1072   0.184   0.766   1.651 -0.1451  0.0699 -0.4050
  269SOL     OW 1073   1.376   1.948   2.446  0.7847 -0.2636 -0.0184
  269SOL    HW1 1074   1.400   1.925   2.535 -0.8020  3.1401 -0.0486
  269SOL    HW2 1075   1.310   2.012   2.468  1.9067  0.2786 -1.8029
  269SOL     MW 1076   1.371   1.953   2.460  0.7233  0.2570 -0.2578
  270SOL     OW 1077   1.199   0.487   1.646 -0.1933 -0.1588 -0.3224
  270SOL    HW1 1078   1.162   0.405   1.675  0.4883 -1.0325  1.1343
  270SOL    HW2 1079   1.295   0.467   1.613  0.3598  0.4526 -0.4991
  270SOL     MW 1080   1.206   0.474   1.645 -0.0304 -0.1934 -0.1535
  271SOL     OW 1081   0.908   0.012   2.467 -0.4114 -0.0623 -0.4195
  271SOL    HW1 1082   0.992  -0.033   2.481  1.3283  0.0751  1.0615
  271SOL    HW2 1083   0.948   0.099   2.444  1.3359 -1.7416  2.2636
  271SOL     MW 1084   0.924   0.018   2.466  0.0487 -0.2658  0.1299
  272SOL     OW 1085   1.360   2.999   2.772  0.2265  0.4117 -0.0148
  272SOL    HW1 1086   1.297   3.021   2.697 -0.8275 -1.6881  3.9593
  272SOL    HW2 1087   1.345   3.070   2.848 -0.7699 -0.2742  0.3658
  272SOL     MW 1088   1.350   3.011   2.772 -0.0440  0.0441  0.5597
  273SOL     OW 1089   1.434   0.931   2.791  0.2349  0.3623  0.1326
  273SOL    HW1 1090   1.511   0.973   2.750  0.1335 -0.4228 -1.1978
  273SOL    HW2 1091   1.394   1.012   2.830 -2.8354 -2.6259 -1.1101
  273SOL     MW 1092   1.439   0.947   2.791 -0.1836 -0.1356 -0.2069
  274SOL     OW 1093   1.358   0.720   0.122 -0.1573  0.0030  0.1850
  274SOL    HW1 1094   1.398   0.639   0.143  2.4165  0.6232 -0.5678
  274SOL    HW2 1095   1.272   0.726   0.169  2.1450 -1.2527  0.0362
  274SOL     MW 1096   1.352   0.710   0.131  0.4861 -0.0809  0.0660
  275SOL     OW 1097   1.678   0.638   1.766 -0.0840  0.9930 -0.5710
  275SOL    HW1 1098   1.727   0.675   1.845  0.7032  0.4036 -1.5633
  275SOL    HW2 1099   1.681   0.537   1.766 -1.4466 -1.5430  3.2454
  275SOL     MW 1100   1.685   0.630   1.776 -0.1599  0.5806 -0.1984
  276SOL     OW 1101   0.171   1.177   1.823  0.7555 -0.1321 -0.2295
  276SOL    HW1 1102   0.223   1.109   1.876  0.7111 -0.0714  2.0834
  276SOL    HW2 1103   0.084   1.162   1.858  3.4532  1.6944  1.2318
  276SOL     MW 1104   0.167   1.166   1.835  1.1056  0.1169  0.2685
  277SOL     OW 1105   1.901   1.373   2.732 -0.0972  0.3570  0.3807
  277SOL    HW1 1106   1.934   1.442   2.679  2.5987 -0.1928 -1.7355
  277SOL    HW2 1107   1.938   1.298   2.695 -0.7260 -1.9183  0.0781
  277SOL     MW 1108   1.910   1.372   2.720  0.1755 -0.0158  0.0615
  278SOL     OW 1109   1.422   0.733   1.758  0.5890  0.4471 -0.2385
  278SOL    HW1 1110   1.369   0.668   1.811  0.7042 -0.7372  1.3708
  278SOL    HW2 1111   1.514   0.705   1.777 -1.9503 -3.7031  0.0473
  278SOL     MW 1112   1.427   0.721   1.768  0.2692 -0.2568  0.0115
  279SOL     OW 1113   0.581   3.036   2.266 -0.6011  0.5060  0.1117
  279SOL    HW1 1114   0.658   3.007   2.216 -0.9395  3.1106 -3.3023
  279SOL    HW2 1115   0.588   3.134   2.274 -2.9224 -0.4241  1.3966
  279SOL     MW 1116   0.592   3.045   2.261 -0.9520  0.7269 -0.1692
  280SOL     OW 1117   1.425   1.165   2.254 -0.0070 -0.0219 -0.7271
  280SOL    HW1 1118   1.455   1.104   2.188 -2.5246  0.5927  1.8846
  280SOL    HW2 1119   1.428   1.106   2.329 -0.3414  1.1928 -0.3796
  280SOL     MW 1120   1.430   1.149   2.255 -0.3833  0.2195 -0.3367
  281SOL     OW 1121   1.327   1.365   2.764  0.1105  0.6113  0.8612
  281SOL    HW1 1122   1.402   1.418   2.791  0.3781  2.5134  0.9180
  281SOL    HW2 1123   1.324   1.277   2.810  0.5374 -1.6513 -0.4359
  281SOL     MW 1124   1.337   1.360   2.773  0.2021  0.5637  0.6976
  282SOL     OW 1125   1.149   1.329   1.730 -0.6090 -0.4260  0.3084
  282SOL    HW1 1126   1.092   1.389   1.678  2.2225 -0.0578  2.0940
  282SOL    HW2 1127   1.097   1.253   1.762  1.1037 -0.6024  0.2208
  282SOL     MW 1128   1.135   1.327   1.727 -0.0094 -0.4007  0.5324
  283SOL     OW 1129   0.708   1.196   0.085 -0.3581 -0.2891 -0.1976
  283SOL    HW1 1130   0.804   1.179   0.061  1.6573  1.1825 -1.2723
  283SOL    HW2 1131   0.682   1.284   0.066 -0.9419 -1.4252 -0.3862
  283SOL     MW 1132   0.717   1.205   0.079 -0.1692 -0.2448 -0.3643
  284SOL     OW 1133   0.456   0.611   2.364 -0.0805 -0.6862 -0.1313
  284SOL    HW1 1134   0.502   0.686   2.319 -0.0675  0.5752  1.8151
  284SOL    HW2 1135   0.453   0.555   2.287 -1.3793  1.3777 -1.1015
  284SOL     MW 1136   0.461   0.613   2.348 -0.2502 -0.2475 -0.0025
  285SOL     OW 1137   0.853   0.911   2.781  0.0541 -0.5828 -0.2945
  285SOL    HW1 1138   0.821   0.948   2.698  1.5333  0.5050 -1.0185
  285SOL    HW2 1139   0.802   0.830   2.796  4.7073  1.4380  0.9457
  285SOL     MW 1140   0.842   0.905   2.772  0.8632 -0.1726 -0.2264
  286SOL     OW 1141   1.138   1.465   2.580  0.2288 -0.1069  0.1048
  286SOL    HW1 1142   1.204   1.424   2.643  1.7082 -0.4495  1.8944
  286SOL    HW2 1143   1.137   1.565   2.587  0.5271 -0.6576  3.9480
  286SOL     MW 1144   1.147   1.473   2.589  0.4633 -0.2248  0.8480
  287SOL     OW 1145   1.103   0.949   0.386  0.1325 -0.0947  0.2660
  287SOL    HW1 1146   1.173   0.965   0.452  0.0413 -1.4313 -1.9679
  287SOL    HW2 1147   1.058   1.038   0.367  1.8891  0.9057  0.2086
  287SOL     MW 1148   1.106   0.963   0.392  0.3522 -0.1391 -0.0363
  288SOL     OW 1149   1.472   0.664   2.148  0.2683  0.8455  0.4775
  288SOL    HW1 1150   1.457   0.640   2.246 -1.6467  2.6308  2.7412
  288SOL    HW2 1151   1.479   0.761   2.140 -0.8382  0.7475  1.6150
  288SOL     MW 1152   1.471   0.674   2.160 -0.1303  1.0681  0.9262
  289SOL     OW 1153   0.791   0.990   2.527  0.4652  0.8753  0.1415
  289SOL    HW1 1154   0.834   1.027   2.448  1.2662  3.2290 -1.6099
  289SOL    HW2 1155   0.697   0.998   2.494 -5.1982  0.8494  0.6463
  289SOL     MW 1156   0.784   0.996   2.512 -0.1763  1.1824 -0.0230
  290SOL     OW 1157   0.844   0.707   1.560 -0.1059  0.2127 -0.1621
  290SOL    HW1 1158   0.893   0.641   1.507 -0.9739  0.2521 -2.8070
  290SOL    HW2 1159   0.882   0.712   1.648 -1.7007 -0.2326  1.3532
  290SOL     MW 1160   0.855   0.699   1.564 -0.4309  0.1591 -0.3112
  291SOL     OW 1161   0.260   0.374   0.215 -0.0756  0.0593 -0.4681
  291SOL    HW1 1162   0.345   0.331   0.207 -2.4022  1.0023 -0.0442
  291SOL    HW2 1163   0.198   0.309   0.185  0.0194  0.8361 -1.1480
  291SOL     MW 1164   0.263   0.360   0.210 -0.3701  0.2862 -0.5018
  292SOL     OW 1165   0.922   0.547   0.096  0.4172  0.3814  0.2796
  292SOL    HW1 1166   0.945   0.632   0.130  0.7351 -0.6799 -0.6865
  292SOL    HW2 1167   0.991   0.492   0.132 -0.2168  0.0065 -0.4969
  292SOL     MW 1168   0.934   0.551   0.105  0.3755  0.1919  0.0497
  293SOL     OW 1169   0.240   0.105   2.437  0.5405 -0.6555  0.7609
  293SOL    HW1 1170   0.150   0.072   2.422 -0.2436  0.5792  1.2702
  293SOL    HW2 1171   0.241   0.127   2.531 -2.2627  1.9446  2.5397
  293SOL     MW 1172   0.228   0.103   2.448  0.0672 -0.1495  1.0628
  294SOL     OW 1173   1.440   0.599   2.411  0.0734  0.0307  0.4105
  294SOL    HW1 1174   1.464   0.661   2.480 -1.0979  0.4122 -0.3136
  294SOL    HW2 1175   1.471   0.516   2.453 -0.8267 -0.3973 -3.3953
  294SOL     MW 1176   1.447   0.596   2.425 -0.1999  0.0246 -0.1872
  295SOL     OW 1177   0.791   0.582   2.468 -0.4678  0.2713  0.7045
  295SOL    HW1 1178   0.755   0.494   2.463 -1.1910 -1.1791  3.7894
  295SOL    HW2 1179   0.800   0.598   2.555 -1.5983 -4.6622  1.3972
  295SOL     MW 1180   0.787   0.573   2.478 -0.7124 -0.5710  1.2029
  296SOL     OW 1181   1.254   0.279   2.052 -0.0538 -0.2758  0.3752
  296SOL    HW1 1182   1.331   0.234   2.022 -0.0383  1.2105 -0.5101
  296SOL    HW2 1183   1.255   0.273   2.148 -2.9362  3.5755  3.2373
  296SOL     MW 1184   1.264   0.272   2.061 -0.4321  0.4285  0.6360
  297SOL     OW 1185   1.441   0.440   1.534  0.3732 -0.1804 -0.1462
  297SOL    HW1 1186   1.479   0.526   1.522 -0.5276 -0.7701 -1.9119
  297SOL    HW2 1187   1.515   0.392   1.564 -3.5019  0.4419  0.1454
  297SOL     MW 1188   1.456   0.445   1.536 -0.2569 -0.1761 -0.3407
  298SOL     OW 1189   1.506   0.961   2.105 -0.2116  0.0447 -0.3231
  298SOL    HW1 1190   1.494   0.988   2.014  0.4873 -1.7387  0.2710
  298SOL    HW2 1191   1.601   0.943   2.112 -0.0821 -2.2696 -0.6493
  298SOL     MW 1192   1.517   0.962   2.094 -0.1023 -0.4960 -0.2878
  299SOL     OW 1193   0.548   0.995   3.012 -0.9605 -0.0678 -0.5844
  299SOL    HW1 1194   0.584   1.059   3.080  0.7050  0.9638  1.8354
  299SOL    HW2 1195   0.550   1.048   2.940 -1.5748  0.1806  3.5732
  299SOL     MW 1196   0.553   1.010   3.012 -0.8218  0.1011  0.2834
  300SOL     OW 1197   1.177   1.044   2.555 -0.1527  0.4241 -0.1747
  300SOL    HW1 1198   1.121   1.046   2.481  2.7983  1.7491  2.3179
  300SOL    HW2 1199   1.155   0.955   2.578 -3.4404  0.5651 -0.0922
  300SOL     MW 1200   1.167   1.032   2.548 -0.1971  0.6175  0.1651
  301SOL     OW 1201   1.384   0.725   0.538  0.3247  0.0648  0.2660
  301SOL    HW1 1202   1.395   0.678   0.624  1.8810  0.4388  2.3712
  301SOL    HW2 1203   1.321   0.662   0.494  0.6827  2.7591 -0.0819
  301SOL     MW 1204   1.377   0.710   0.544  0.5773  0.4697  0.4978
  302SOL     OW 1205   0.139   1.496   1.972  0.2614  0.5747 -0.5110
  302SOL    HW1 1206   0.171   1.436   2.041  0.1137  0.9101  0.1866
  302SOL    HW2 1207   0.060   1.542   2.007  0.5664  0.2248 -1.5093
  302SOL     MW 1208   0.133   1.494   1.986  0.2821  0.5728 -0.5507
  303SOL     OW 1209   0.437   1.819   2.668 -0.7903  0.0142 -0.1715
  303SOL    HW1 1210   0.468   1.833   2.577 -1.0868  3.0177 -0.2215
  303SOL    HW2 1211   0.345   1.842   2.683 -0.4388  2.2088 -0.9202
  303SOL     MW 1212   0.429   1.824   2.658 -0.7830  0.7000 -0.2769
  304SOL     OW 1213   0.515   1.962   2.420  0.4149  0.3441 -0.1008
  304SOL    HW1 1214   0.525   2.026   2.351  1.7051 -1.0833  0.9408
  304SOL    HW2 1215   0.600   1.923   2.418  1.8806  2.6729 -1.8394
  304SOL     MW 1216   0.527   1.966   2.411  0.7785  0.4630 -0.1927
  305SOL     OW 1217   1.185   0.541   0.455  0.3220  0.1455 -0.4151
  305SOL    HW1 1218   1.100   0.525   0.488 -2.1693 -1.7836 -0.0058
  305SOL    HW2 1219   1.234   0.456   0.453 -0.5164  1.7012  1.8573
  305SOL     MW 1220   1.180   0.528   0.459 -0.1173  0.0962 -0.0613
  306SOL     OW 1221   1.217   1.433   0.272 -0.0256 -0.4734  0.1248
  306SOL    HW1 1222   1.227   1.336   0.284  0.4210 -1.7079  1.0712
  306SOL    HW2 1223   1.291   1.461   0.210 -1.5046  0.9667 -0.8282
  306SOL     MW 1224   1.228   1.424   0.266 -0.1618 -0.4463  0.1239
  307SOL     OW 1225   1.315   0.541   1.955  0.0308  0.3684  0.3455
  307SOL    HW1 1226   1.306   0.456   2.000 -1.0392 -0.3679  0.1897
  307SOL    HW2 1227   1.362   0.594   2.018  2.2220  2.5538 -0.9933
  307SOL     MW 1228   1.320   0.537   1.969  0.1787  0.5596  0.1483
  308SOL     OW 1229   2.134   0.562   2.763  0.3095 -0.1444 -0.0563
  308SOL    HW1 1230   2.118   0.462   2.735 -0.6991 -0.9073  1.3866
  308SOL    HW2 1231   2.230   0.559   2.784 -0.2404  0.4916 -1.5060
  308SOL     MW 1232   2.144   0.549   2.762  0.1039 -0.1611 -0.0572
  309SOL     OW 1233   0.526   0.505   0.369 -0.2803  0.1425  0.0117
  309SOL    HW1 1234   0.559   0.420   0.404 -0.9270  0.1111 -0.4665
  309SOL    HW2 1235   0.551   0.510   0.277 -3.2635  1.0921  1.4982
  309SOL     MW 1236   0.534   0.494   0.362 -0.7592  0.2636  0.1447
  310SOL     OW 1237   0.404   0.519   1.900  0.2565 -0.0011  0.1474
  310SOL    HW1 1238   0.446   0.444   1.851  0.8506 -1.9398 -1.7395
  310SOL    HW2 1239   0.469   0.588   1.906 -1.5753  3.5895  0.6046
  310SOL     MW 1240   0.418   0.518   1.894  0.0932  0.2168 -0.0412
  311SOL     OW 1241   1.822   0.773   1.939  0.2432 -0.5151  0.6698
  311SOL    HW1 1242   1.808   0.798   2.030  1.0173 -0.4223 -0.2668
  311SOL    HW2 1243   1.891   0.713   1.932 -2.4138  2.0116  0.1756
  311SOL     MW 1244   1.830   0.768   1.950 -0.0052 -0.1695  0.4810
  312SOL     OW 1245   1.751   2.644   3.092 -0.7357 -0.6823 -0.5005
  312SOL    HW1 1246   1.799   2.625   3.174  3.8416  1.6738 -1.2574
  312SOL    HW2 1247   1.662   2.641   3.116  2.5201  0.3523  0.2346
  312SOL     MW 1248   1.746   2.641   3.106  0.2978 -0.2349 -0.5034
  313SOL     OW 1249   0.140   1.178   2.906 -0.1384  0.5169  0.6084
  313SOL    HW1 1250   0.217   1.172   2.965 -1.7442 -2.0737 -0.2615
  313SOL    HW2 1251   0.188   1.209   2.825  1.0681  0.6945  0.6851
  313SOL     MW 1252   0.157   1.181   2.903 -0.1911  0.1986  0.5037
  314SOL     OW 1253   2.137   3.037   2.983  0.2701  0.4909 -0.0302
  314SOL    HW1 1254   2.072   3.088   2.930 -0.3539 -1.9394  0.2124
  314SOL    HW2 1255   2.183   3.103   3.047  0.9701  4.3443  2.9269
  314SOL     MW 1256   2.135   3.053   2.985  0.2801  0.6787  0.3919
  315SOL     OW 1257   1.569   1.991   3.012 -0.3473  0.1341 -0.1001
  315SOL    HW1 1258   1.474   2.018   3.019  0.1546 -0.0111 -0.0368
  315SOL    HW2 1259   1.592   2.044   2.936  0.7542 -0.8911  3.3844
  315SOL     MW 1260   1.559   2.001   3.003 -0.1357 -0.0203  0.3680
  316SOL     OW 1261   1.213   0.618   2.707  0.1646  0.3303 -0.6273
  316SOL    HW1 1262   1.301   0.620   2.671  0.5904  0.3910  1.1222
  316SOL    HW2 1263   1.207   0.680   2.783 -1.8654  0.5200  1.9106
  316SOL     MW 1264   1.224   0.626   2.713 -0.0471  0.3633 -0.0616
  317SOL     OW 1265   0.678   1.349   2.599 -0.2157 -0.0744 -0.3088
  317SOL    HW1 1266   0.705   1.295   2.670  1.2104 -0.8076 -4.0495
  317SOL    HW2 1267   0.756   1.353   2.534  0.0672  1.1104 -2.2171
  317SOL     MW 1268   0.692   1.342   2.600  0.0098 -0.0148 -1.0542
  318SOL     OW 1269   1.298   0.442   2.951 -0.5789 -0.2664 -0.4341
  318SOL    HW1 1270   1.214   0.461   2.915 -0.6875 -1.0527  0.7891
  318SOL    HW2 1271   1.367   0.492   2.898  0.5479 -1.3546 -0.4477
  318SOL     MW 1272   1.296   0.451   2.940 -0.4446 -0.5137 -0.2745
  319SOL     OW 1273   0.773   0.419   2.745 -0.5751  0.2261  0.1376
  319SOL    HW1 1274   0.708   0.403   2.677  0.9997 -1.9275 -1.8994
  319SOL    HW2 1275   0.753   0.344   2.801  0.5407 -2.6026 -2.9533
  319SOL     MW 1276   0.762   0.407   2.743 -0.2201 -0.4313 -0.5390
  320SOL     OW 1277   0.999   1.314   2.038 -0.1914 -0.2086 -0.4953
  320SOL    HW1 1278   1.042   1.257   2.097  0.0750  1.0138  0.4546
  320SOL    HW2 1279   1.061   1.383   2.016 -0.4168 -0.3876 -0.2577
  320SOL     MW 1280   1.013   1.316   2.043 -0.1860 -0.0709 -0.3386
  321SOL     OW 1281   1.074   0.993   2.977  0.6493 -0.1320  0.0258
  321SOL    HW1 1282   1.003   0.952   2.911  0.7380 -0.1232  1.4825
  321SOL    HW2 1283   1.144   0.923   2.978  3.8729 -0.0560  0.8119
  321SOL     MW 1284   1.074   0.979   2.968  1.0863 -0.1208  0.3217
  322SOL     OW 1285   1.220   0.915   1.705  0.5315 -0.3668 -0.0077
  322SOL    HW1 1286   1.303   0.862   1.724  1.6937  0.1684 -0.9354
  322SOL    HW2 1287   1.202   0.937   1.795  0.7555  0.6376  0.3811
  322SOL     MW 1288   1.229   0.911   1.719  0.7144 -0.1637 -0.0788
  323SOL     OW 1289   1.182   1.517   1.921  0.4223 -0.3341 -0.1704
  323SOL    HW1 1290   1.173   1.444   1.852 -0.4482  2.4833 -0.6003
  323SOL    HW2 1291   1.130   1.585   1.875  2.6065  3.9932  2.4884
  323SOL     MW 1292   1.174   1.517   1.906  0.5956  0.6086  0.1237
  324SOL     OW 1293   1.484   1.066   2.549 -0.0465  0.5025 -0.9061
  324SOL    HW1 1294   1.394   1.072   2.551  3.7290  0.7805 -0.1001
  324SOL    HW2 1295   1.532   1.149   2.561  2.3565 -1.6688  1.3851
  324SOL     MW 1296   1.479   1.078   2.551  0.7687  0.2527 -0.4975
  325SOL     OW 1297   0.989   0.441   2.918 -0.1765  0.0683 -0.2720
  325SOL    HW1 1298   0.940   0.491   2.996 -0.0454  1.1462  0.2661
  325SOL    HW2 1299   0.922   0.441   2.845  1.2146 -0.6779 -1.9402
  325SOL     MW 1300   0.973   0.447   2.919  0.0244  0.1121 -0.4211
  326SOL     OW 1301   0.413   1.334   2.169 -0.5282  0.1786 -0.0432
  326SOL    HW1 1302   0.443   1.280   2.093 -0.4368 -0.9027  2.1493
  326SOL    HW2 1303   0.429   1.427   2.157  0.3524  1.2251  3.1494
  326SOL     MW 1304   0.419   1.339   2.157 -0.3999  0.1740  0.6673
  327SOL     OW 1305   1.899   0.862   2.421 -0.0028 -0.3422 -0.1797
  327SOL    HW1 1306   1.906   0.788   2.481  0.7864  0.6019 -0.0675
  327SOL    HW2 1307   1.991   0.883   2.400 -1.9264 -2.0959  0.8417
  327SOL     MW 1308   1.912   0.855   2.426 -0.1525 -0.4490 -0.0301
  328SOL     OW 1309   0.126   1.242   2.166  0.5127  0.4452  0.6600
  328SOL    HW1 1310   0.128   1.168   2.107 -1.0157  0.3658  3.6028
  328SOL    HW2 1311   0.219   1.258   2.179 -1.3019 -0.6858 -2.4610
  328SOL     MW 1312   0.138   1.234   2.160  0.0716  0.2855  0.6365
  329SOL     OW 1313   0.116   0.159   1.420  0.0900  0.3331 -0.5831
  329SOL    HW1 1314   0.085   0.144   1.514 -0.3430 -0.4745  0.2697
  329SOL    HW2 1315   0.189   0.219   1.421 -0.0374 -2.8398 -1.6178
  329SOL     MW 1316   0.122   0.165   1.433  0.0161 -0.1921 -0.6071
  330SOL     OW 1317   0.416   2.968   2.063  0.1220 -0.1267  0.6875
  330SOL    HW1 1318   0.471   3.002   2.139 -0.0599 -2.7917  0.8123
  330SOL    HW2 1319   0.334   2.940   2.102  2.3222 -2.4792 -1.0808
  330SOL     MW 1320   0.412   2.969   2.078  0.3883 -0.7887  0.4707
  331SOL     OW 1321   0.736   1.182   2.211  0.2886 -0.3999  0.7820
  331SOL    HW1 1322   0.673   1.153   2.140  0.5464  1.5623  0.7391
  331SOL    HW2 1323   0.731   1.278   2.210 -1.6959 -0.0482 -3.1437
  331SOL     MW 1324   0.727   1.191   2.202  0.0608 -0.0946  0.2584
  332SOL     OW 1325   1.352   1.759   2.957  0.0988 -0.0766 -0.2345
  332SOL    HW1 1326   1.346   1.809   2.871 -1.3679  0.3311 -3.0351
  332SOL    HW2 1327   1.443   1.768   2.985  0.7937 -2.2246 -0.9612
  332SOL     MW 1328   1.363   1.767   2.950 -0.0031 -0.3062 -0.6999
  333SOL     OW 1329   1.736   1.488   3.042 -0.2207  0.7894 -0.3108
  333SOL    HW1 1330   1.835   1.496   3.036  1.4873 -2.5837 -1.6288
  333SOL    HW2 1331   1.731   1.403   3.087  1.0813  0.0269  0.1236
  333SOL     MW 1332   1.748   1.477   3.047  0.1765  0.2437 -0.4273
  334SOL     OW 1333   1.183   0.012   2.597 -0.5397 -0.3429 -0.3100
  334SOL    HW1 1334   1.115  -0.002   2.668 -1.4527 -1.0483  0.6539
  334SOL    HW2 1335   1.227   0.096   2.614 -0.1276 -1.4658  0.5548
  334SOL     MW 1336   1.180   0.021   2.608 -0.6058 -0.5841 -0.0687
  335SOL     OW 1337   1.256   0.780   2.938 -0.0874 -0.2026  0.1103
  335SOL    HW1 1338   1.298   0.769   3.025  0.5847  0.8508 -1.8743
  335SOL    HW2 1339   1.328   0.818   2.882  2.4958 -0.6009 -0.9747
  335SOL     MW 1340   1.271   0.783   2.942  0.3421 -0.1161 -0.2947
  336SOL     OW 1341   0.953   1.125   1.853 -0.4039 -0.8112  0.4430
  336SOL    HW1 1342   0.957   1.201   1.915  0.1900  2.6405  0.1419
  336SOL    HW2 1343   1.005   1.060   1.894 -1.0733 -1.3226 -3.4431
  336SOL     MW 1344   0.961   1.126   1.866 -0.4138 -0.4233 -0.1095
  337SOL     OW 1345   0.653   1.764   2.845  0.2539 -0.1047 -0.3721
  337SOL    HW1 1346   0.584   1.759   2.776 -1.9567  2.4397 -0.6452
  337SOL    HW2 1347   0.711   1.698   2.823 -3.4582 -2.3746  0.6756
  337SOL     MW 1348   0.651   1.754   2.833 -0.5275 -0.0685 -0.2699
  338SOL     OW 1349   1.045   0.816   2.595 -0.3064  0.0405 -0.7309
  338SOL    HW1 1350   0.973   0.846   2.661 -0.0665 -1.5820  2.0756
  338SOL    HW2 1351   1.082   0.733   2.622  0.2321  1.1717  1.1011
  338SOL     MW 1352   1.040   0.809   2.608 -0.2037 -0.0243 -0.1189
  339SOL     OW 1353   1.402   1.093   1.870  0.0627  0.2859 -0.3951
  339SOL    HW1 1354   1.402   1.097   1.777 -1.8620  1.4141 -0.1508
  339SOL    HW2 1355   1.431   1.174   1.909  1.9265  0.9256  2.2347
  339SOL     MW 1356   1.406   1.105   1.863  0.0547  0.5191 -0.0159
  340SOL     OW 1357   1.383   1.514   0.070 -0.3152  0.3270  0.3590
  340SOL    HW1 1358   1.377   1.584   0.012  0.6900  0.5103  0.9227
  340SOL    HW2 1359   1.459   1.530   0.128 -1.3572  1.0951  0.6551
  340SOL     MW 1360   1.392   1.525   0.070 -0.3201  0.4525  0.4725
  341SOL     OW 1361   0.230   1.279   2.646 -0.2186 -0.7501 -0.4164
  341SOL    HW1 1362   0.259   1.367   2.655  0.2608  0.3448  0.5869
  341SOL    HW2 1363   0.151   1.278   2.593  2.3152 -3.8925 -2.6858
  341SOL     MW 1364   0.223   1.291   2.640  0.1790 -1.0202 -0.5834
  342SOL     OW 1365   1.406   0.256   0.073  0.0530  0.2827  0.3851
  342SOL    HW1 1366   1.419   0.304   0.154 -3.8692 -1.0300 -0.0519
  342SOL    HW2 1367   1.389   0.317   0.004  0.3482 -1.4193 -0.3799
  342SOL     MW 1368   1.405   0.270   0.075 -0.4256 -0.1151  0.2265
  343SOL     OW 1369   0.241   0.303   2.253 -0.3028  0.2834  0.3999
  343SOL    HW1 1370   0.253   0.230   2.311  2.2671  0.8051 -3.1870
  343SOL    HW2 1371   0.194   0.266   2.178 -0.3202 -0.1554 -0.6879
  343SOL     MW 1372   0.237   0.289   2.251  0.0340  0.2943 -0.2169
  344SOL     OW 1373   1.696   2.180   0.075 -0.1211  0.1786  0.5918
  344SOL    HW1 1374   1.737   2.236   0.002 -3.2204 -0.6985 -0.2316
  344SOL    HW2 1375   1.652   2.110   0.024  0.4422 -0.2122 -2.1158
  344SOL     MW 1376   1.695   2.178   0.059 -0.4557  0.0113  0.1259
  345SOL     OW 1377   0.646   1.563   2.357  0.2640  0.3306  0.4296
  345SOL    HW1 1378   0.566   1.555   2.299  0.9374 -0.4547 -2.3604
  345SOL    HW2 1379   0.720   1.528   2.297  1.1867 -0.9457  0.5886
  345SOL     MW 1380   0.645   1.557   2.341  0.4746  0.0586  0.0825
  346SOL     OW 1381   1.678   1.016  -0.003 -0.2479  0.2916  0.5034
  346SOL    HW1 1382   1.769   0.986  -0.008 -0.4059 -0.1368 -0.6955
  346SOL    HW2 1383   1.634   0.961   0.058  1.8793  0.1715  0.2929
  346SOL     MW 1384   1.684   1.005   0.004  0.0119  0.2192  0.3174
  347SOL     OW 1385   1.155   0.663   2.342  0.7312 -0.3824  0.1093
  347SOL    HW1 1386   1.247   0.659   2.370  2.6422  2.6920  1.3152
  347SOL    HW2 1387   1.106   0.712   2.416 -1.5167  0.1108  2.7141
  347SOL     MW 1388   1.160   0.669   2.355  0.6868  0.0883  0.6121
  348SOL     OW 1389   1.306   2.660   1.885 -0.1659  0.6402  0.0006
  348SOL    HW1 1390   1.361   2.587   1.899  0.7539  1.3445  0.4470
  348SOL    HW2 1391   1.346   2.721   1.944  0.8957 -0.8873  1.3500
  348SOL     MW 1392   1.318   2.658   1.895  0.0956  0.5316  0.2375
  349SOL     OW 1393   1.315   0.243   2.681  0.0374 -0.7045 -0.0077
  349SOL    HW1 1394   1.289   0.278   2.768  0.9064  1.1869 -0.3596
  349SOL    HW2 1395   1.396   0.194   2.702  1.6126 -0.2571  0.7101
  349SOL     MW 1396   1.322   0.241   2.695  0.3599 -0.3959  0.0406
  350SOL     OW 1397   1.911   0.697   2.632 -0.2725 -0.3709 -0.0362
  350SOL    HW1 1398   1.852   0.632   2.590  0.1998 -2.7588  3.7493
  350SOL    HW2 1399   1.992   0.654   2.668  0.4547  1.2801  3.0901
  350SOL     MW 1400   1.914   0.683   2.631 -0.1142 -0.4681  0.8757
  351SOL     OW 1401   0.080   0.986   1.548 -0.4579  0.3291  0.3717
  351SOL    HW1 1402   0.011   1.010   1.613  0.0651 -2.0053  0.8003
  351SOL    HW2 1403   0.111   1.078   1.525  0.6660 -1.3095  1.1323
  351SOL     MW 1404   0.075   1.002   1.553 -0.2406 -0.1951  0.5286
  352SOL     OW 1405   0.825   1.591   2.721  0.2411 -0.1086  0.3191
  352SOL    HW1 1406   0.884   1.560   2.790 -1.8737 -0.0635 -0.4976
  352SOL    HW2 1407   0.806   1.518   2.666 -0.8134 -1.0580  0.3837
  352SOL     MW 1408   0.830   1.578   2.723 -0.1771 -0.2279  0.2198
  353SOL     OW 1409   3.053   2.448   2.789  0.9800 -0.3180  0.1709
  353SOL    HW1 1410   3.134   2.428   2.753 -2.8362  1.3233  0.0331
  353SOL    HW2 1411   3.021   2.525   2.741 -0.2301 -1.7808  1.9759
  353SOL     MW 1412   3.059   2.456   2.778  0.3168 -0.2945  0.3909
  354SOL     OW 1413   0.326   2.473   0.882  0.4228  0.0925  0.1264
  354SOL    HW1 1414   0.344   2.447   0.978  0.6666 -1.1746  2.2069
  354SOL    HW2 1415   0.244   2.423   0.869  0.9076 -0.0949 -1.4112
  354SOL     MW 1416   0.317   2.463   0.893  0.5189 -0.0994  0.1980
  355SOL     OW 1417   0.066   2.259   0.366  0.4548  0.6147  0.5643
  355SOL    HW1 1418  -0.007   2.198   0.373 -1.5759  0.2113  2.6119
  355SOL    HW2 1419   0.060   2.299   0.452 -1.5530  0.0625  1.1330
  355SOL     MW 1420   0.056   2.256   0.378 -0.0780  0.4886  0.9095
  356SOL     OW 1421   0.729   2.929   0.981 -0.3483  0.0204 -0.3877
  356SOL    HW1 1422   0.817   2.913   0.946 -1.6606  1.8063  1.3366
  356SOL    HW2 1423   0.668   2.861   0.948 -0.8872 -1.5210 -2.0854
  356SOL     MW 1424   0.733   2.918   0.972 -0.5925  0.0526 -0.3842
  357SOL     OW 1425   1.770   3.001   0.380 -0.0252  0.0921 -0.3636
  357SOL    HW1 1426   1.724   2.928   0.426 -1.0750 -1.0709  0.7441
  357SOL    HW2 1427   1.859   2.966   0.361  2.8104 -2.6842 -0.2710
  357SOL     MW 1428   1.776   2.987   0.384  0.2104 -0.4277 -0.2052
  358SOL     OW 1429   0.502   0.138   1.023  0.4430 -0.2165  0.3614
  358SOL    HW1 1430   0.584   0.131   0.975  1.9172  1.1014 -1.6218
  358SOL    HW2 1431   0.443   0.180   0.959  0.6680 -0.2912  0.1623
  358SOL     MW 1432   0.505   0.142   1.008  0.6672 -0.0525  0.0734
  359SOL     OW 1433   0.905   2.729   1.924  0.4051 -0.7677 -0.2912
  359SOL    HW1 1434   0.844   2.667   1.978 -0.4790 -0.6472 -2.2113
  359SOL    HW2 1435   0.960   2.669   1.875  1.6767  3.4768 -0.3780
  359SOL     MW 1436   0.904   2.713   1.924  0.4562 -0.1918 -0.5560
  360SOL     OW 1437   0.510   2.736   0.937 -0.1526 -0.5651 -0.3709
  360SOL    HW1 1438   0.541   2.670   0.877 -1.6772  1.4231  0.5754
  360SOL    HW2 1439   0.520   2.710   1.031 -2.2651 -0.0370 -1.5802
  360SOL     MW 1440   0.516   2.724   0.942 -0.6325 -0.2331 -0.4056
  361SOL     OW 1441   0.177   2.738   1.373 -0.0353  0.3838  0.1222
  361SOL    HW1 1442   0.150   2.801   1.427 -0.2437  0.8066 -0.7897
  361SOL    HW2 1443   0.271   2.730   1.386 -0.0243 -0.1848  1.6966
  361SOL     MW 1444   0.186   2.745   1.382 -0.0614  0.3645  0.2096
  362SOL     OW 1445   1.446   2.415   0.627  0.1692 -0.5313  0.0638
  362SOL    HW1 1446   1.464   2.330   0.666  0.8540  0.4699  2.1006
  362SOL    HW2 1447   1.462   2.473   0.699 -1.6730 -1.8331 -0.4180
  362SOL     MW 1448   1.451   2.411   0.642  0.0165 -0.5709  0.2690
  363SOL     OW 1449   0.290   3.092   0.699  0.0827 -0.1165 -0.3429
  363SOL    HW1 1450   0.294   3.014   0.767 -3.4791 -4.3536  2.2179
  363SOL    HW2 1451   0.205   3.088   0.657  1.5300 -0.0939 -1.0367
  363SOL     MW 1452   0.280   3.081   0.703 -0.1963 -0.6726 -0.0965
  364SOL     OW 1453   0.759   0.152   0.243 -0.0421 -0.5291 -0.2233
  364SOL    HW1 1454   0.720   0.068   0.275  1.3552  0.0738  1.2107
  364SOL    HW2 1455   0.692   0.176   0.180 -0.5762  1.9147 -0.1834
  364SOL     MW 1456   0.745   0.144   0.239  0.0718 -0.1271 -0.0288
  365SOL     OW 1457   1.038   2.006   1.141  0.2322 -0.1574  0.1311
  365SOL    HW1 1458   1.022   2.083   1.089 -1.4976  0.1628 -2.9672
  365SOL    HW2 1459   0.991   1.928   1.109 -1.4670 -0.5144 -1.4542
  365SOL     MW 1460   1.030   2.006   1.130 -0.2202 -0.1622 -0.4869
  366SOL     OW 1461   2.858   2.619   0.986  0.3945  0.2964 -0.0479
  366SOL    HW1 1462   2.921   2.634   1.051 -3.5014  0.3028 -1.3887
  366SOL    HW2 1463   2.891   2.658   0.903  1.3902 -1.2591 -1.7557
  366SOL     MW 1464   2.871   2.626   0.984  0.0119  0.0920 -0.4501
  367SOL     OW 1465   1.244   2.940   0.830  0.0333  0.0236  0.3508
  367SOL    HW1 1466   1.179   3.004   0.858  0.7795  1.8717  3.1513
  367SOL    HW2 1467   1.196   2.875   0.777 -0.8222  3.6304  3.0041
  367SOL     MW 1468   1.229   2.940   0.827  0.0189  0.7433  1.0704
  368SOL     OW 1469   1.717   0.467   0.660 -0.6036 -0.1742 -0.1738
  368SOL    HW1 1470   1.765   0.385   0.677 -3.1170 -1.6803  0.3108
  368SOL    HW2 1471   1.784   0.535   0.647  4.1613  0.5776 -3.0591
  368SOL     MW 1472   1.732   0.465   0.661 -0.3066 -0.2738 -0.4906
  369SOL     OW 1473   0.130   2.450   1.743  0.2832 -0.0543  0.3414
  369SOL    HW1 1474   0.220   2.421   1.767  0.7378 -0.5695  1.7166
  369SOL    HW2 1475   0.129   2.539   1.786  1.3948 -1.6019 -1.0005
  369SOL     MW 1476   0.142   2.458   1.752  0.4898 -0.3264  0.3458
  370SOL     OW 1477   0.735   0.086   0.862 -0.3509 -0.0352 -0.3300
  370SOL    HW1 1478   0.791   0.160   0.887 -0.7420  0.5822 -0.7282
  370SOL    HW2 1479   0.747   0.009   0.925 -0.7129  0.4950 -1.2148
  370SOL     MW 1480   0.744   0.086   0.874 -0.4502  0.1163 -0.4993
  371SOL     OW 1481   1.386   2.985   1.448  0.0700  0.3976  0.1852
  371SOL    HW1 1482   1.349   2.893   1.439  0.9120 -4.8785  2.9481
  371SOL    HW2 1483   1.402   3.017   1.358 -0.7207  2.3172  1.4432
  371SOL     MW 1484   1.383   2.977   1.435  0.0768 -0.0452  0.7157
  372SOL     OW 1485   0.773   2.297   0.466  0.1756 -0.1999 -0.1594
  372SOL    HW1 1486   0.737   2.214   0.489 -2.1041  1.5138  2.1089
  372SOL    HW2 1487   0.767   2.298   0.371  0.9316  1.7854  0.5156
  372SOL     MW 1488   0.767   2.286   0.456 -0.0254  0.2881  0.2289
  373SOL     OW 1489   2.822   2.976   1.416 -0.5665  0.5698 -0.9263
  373SOL    HW1 1490   2.881   2.944   1.342  1.3659 -0.6352 -2.9467
  373SOL    HW2 1491   2.781   3.056   1.383  0.5836 -0.7151 -2.0404
  373SOL     MW 1492   2.824   2.982   1.402 -0.1598  0.2412 -1.3399
  374SOL     OW 1493   1.511   0.477   0.219 -0.8122  0.3560  0.6167
  374SOL    HW1 1494   1.576   0.503   0.158  1.4181 -0.3860 -1.1489
  374SOL    HW2 1495   1.559   0.432   0.291  2.2336  2.1374  4.0455
  374SOL     MW 1496   1.526   0.474   0.220 -0.1161  0.4931  0.8361
  375SOL     OW 1497   1.111   2.111   2.250  0.4042  0.4434 -0.0992
  375SOL    HW1 1498   1.152   2.139   2.331  0.6313 -1.2472  0.7071
  375SOL    HW2 1499   1.113   2.019   2.263 -1.1655 -1.3706 -1.2067
  375SOL     MW 1500   1.116   2.103   2.262  0.2270 -0.0190 -0.1390
  376SOL     OW 1501   0.657   2.542   0.136  0.0250  0.4795  0.6016
  376SOL    HW1 1502   0.716   2.498   0.194  0.7282  0.5810 -0.2856
  376SOL    HW2 1503   0.627   2.472   0.072 -2.6484 -0.1103 -0.5250
  376SOL     MW 1504   0.661   2.527   0.135 -0.2349  0.4151  0.3359
  377SOL     OW 1505   1.296   2.053   0.901 -0.0028  0.5212 -0.2268
  377SOL    HW1 1506   1.226   2.037   0.836  1.1708  1.8748 -1.3431
  377SOL    HW2 1507   1.286   1.993   0.969 -0.7214  3.5259 -1.0193
  377SOL     MW 1508   1.285   2.043   0.901  0.0572  1.0962 -0.4787
  378SOL     OW 1509   0.988   2.860   1.494  0.4680 -0.2815  0.3427
  378SOL    HW1 1510   0.963   2.772   1.527  0.9585 -0.9670 -1.3909
  378SOL    HW2 1511   0.946   2.869   1.407 -0.4255 -0.9313 -1.2578
  378SOL     MW 1512   0.979   2.849   1.487  0.4148 -0.4577 -0.0972
  379SOL     OW 1513   1.058   1.832   2.261 -0.3307 -0.4340  0.2200
  379SOL    HW1 1514   0.960   1.835   2.258  0.2608  1.0944 -0.5853
  379SOL    HW2 1515   1.093   1.745   2.229 -2.6561 -1.3736  1.6743
  379SOL     MW 1516   1.049   1.821   2.257 -0.5595 -0.3563  0.3056
  380SOL     OW 1517   0.925   0.223   1.468 -0.0941  0.2629  0.1036
  380SOL    HW1 1518   0.956   0.164   1.405 -1.2585  1.4121 -0.2083
  380SOL    HW2 1519   0.984   0.220   1.542 -0.2484  0.7574  1.7224
  380SOL     MW 1520   0.937   0.215   1.469 -0.2681  0.4798  0.2761
  381SOL     OW 1521   0.842   1.997   0.817  0.2012  0.1065 -0.5708
  381SOL    HW1 1522   0.930   1.978   0.778 -1.0154  0.1720  1.5845
  381SOL    HW2 1523   0.851   2.083   0.870  0.2473  1.1058  1.2341
  381SOL     MW 1524   0.855   2.006   0.819  0.0468  0.2470 -0.0483
  382SOL     OW 1525   0.651   0.039   0.616  0.2277 -0.0760 -0.1105
  382SOL    HW1 1526   0.637   0.074   0.701  0.4341  0.9021  2.3128
  382SOL    HW2 1527   0.661  -0.054   0.636 -0.2042 -0.7239  0.1898
  382SOL     MW 1528   0.651   0.031   0.629  0.1979 -0.0324  0.2489
  383SOL     OW 1529   0.518   0.044   0.374  0.0717 -0.0064 -0.7382
  383SOL    HW1 1530   0.554   0.031   0.463 -1.0571 -0.6693  0.3509
  383SOL    HW2 1531   0.444  -0.026   0.372  0.6770 -1.7039  0.1577
  383SOL     MW 1532   0.513   0.033   0.386  0.0026 -0.3178 -0.4763
  384SOL     OW 1533   0.637   2.837   0.551 -0.5725  0.0189  0.4640
  384SOL    HW1 1534   0.628   2.752   0.598 -0.0812 -0.4700  0.8220
  384SOL    HW2 1535   0.547   2.866   0.511 -0.5065 -0.6052 -1.8928
  384SOL     MW 1536   0.624   2.830   0.552 -0.4990 -0.1280  0.2003
  385SOL     OW 1537   1.339   2.048   1.560  0.0133  0.2521 -0.0162
  385SOL    HW1 1538   1.412   2.075   1.617  1.0509 -2.4920 -2.7456
  385SOL    HW2 1539   1.326   1.952   1.585  0.7064  1.0877  0.2647
  385SOL     MW 1540   1.347   2.039   1.571  0.2417  0.0003 -0.3393
  386SOL     OW 1541   1.265   0.418   0.939  0.0739  0.2294  0.3290
  386SOL    HW1 1542   1.178   0.397   0.892  0.4082  1.5731  0.3844
  386SOL    HW2 1543   1.251   0.419   1.033 -0.7635  1.9344 -0.0804
  386SOL     MW 1544   1.252   0.415   0.945  0.0075  0.6316  0.2823
  387SOL     OW 1545   0.855   2.223   1.465 -0.1321 -0.1488 -0.3234
  387SOL    HW1 1546   0.910   2.299   1.437  1.3623  1.7619 -1.1826
  387SOL    HW2 1547   0.901   2.145   1.437 -1.7163  0.9797 -1.6552
  387SOL     MW 1548   0.868   2.222   1.457 -0.1440  0.2522 -0.6125
  388SOL     OW 1549   1.575   2.846   1.233 -0.4429  0.0852 -0.2228
  388SOL    HW1 1550   1.507   2.836   1.160  0.0485  1.5504 -1.0946
  388SOL    HW2 1551   1.646   2.781   1.200 -1.0445  0.6222 -0.3218
  388SOL     MW 1552   1.575   2.836   1.219 -0.4575  0.3493 -0.3509
  389SOL     OW 1553   0.473   0.058   3.058 -0.8865  0.1743  0.5939
  389SOL    HW1 1554   0.570   0.055   3.028  1.4268  1.7757  1.1303
  389SOL    HW2 1555   0.459  -0.016   3.114  0.8771  2.6793  0.0267
  389SOL     MW 1556   0.484   0.048   3.062 -0.3486  0.7161  0.5899
  390SOL     OW 1557   1.363   0.112   0.652 -0.4171 -0.1957  0.0428
  390SOL    HW1 1558   1.452   0.098   0.624 -0.7061 -2.9217 -1.8350
  390SOL    HW2 1559   1.379   0.145   0.740 -0.0673  1.0819 -0.6779
  390SOL     MW 1560   1.377   0.114   0.660 -0.4091 -0.3868 -0.3000
  391SOL     OW 1561   0.292   2.282   1.457 -0.1896  0.6341 -0.2841
  391SOL    HW1 1562   0.256   2.216   1.514 -0.7483  2.2210 -3.1471
  391SOL    HW2 1563   0.228   2.354   1.456  1.9534 -3.4936  1.7364
  391SOL     MW 1564   0.279   2.283   1.465  0.0194  0.2989 -0.3952
  392SOL     OW 1565   2.046   2.186   0.257 -0.8155 -0.7253  0.6701
  392SOL    HW1 1566   1.988   2.240   0.307  1.7868  0.7474 -1.7907
  392SOL    HW2 1567   2.074   2.123   0.317  1.8585  1.5698 -0.6953
  392SOL     MW 1568   2.042   2.184   0.271 -0.1193 -0.2282  0.1653
  393SOL     OW 1569   0.190   2.998   2.933  0.1636  0.6571  0.0754
  393SOL    HW1 1570   0.252   3.031   2.873 -0.6168 -1.3506  2.0016
  393SOL    HW2 1571   0.110   3.043   2.911  1.9423 -2.1814 -1.9004
  393SOL     MW 1572   0.187   3.009   2.922  0.2954  0.0177  0.0689
  394SOL     OW 1573   0.837   1.674   1.488 -0.4052  0.3923 -0.5999
  394SOL    HW1 1574   0.786   1.677   1.575 -1.2895  1.2133  3.6641
  394SOL    HW2 1575   0.863   1.759   1.463 -3.0710 -3.1754  0.8219
  394SOL     MW 1576   0.833   1.685   1.496 -0.8736  0.0299  0.1503
  395SOL     OW 1577   0.914   2.831   2.624 -0.0400  0.3822  0.1665
  395SOL    HW1 1578   0.931   2.920   2.664  3.7583  1.8931  0.1668
  395SOL    HW2 1579   1.000   2.804   2.573  0.0502  0.1751 -3.7408
  395SOL     MW 1580   0.927   2.839   2.623  0.4731  0.5542 -0.3490
  396SOL     OW 1581   0.753   1.818   2.376 -0.0022  0.2160  0.3485
  396SOL    HW1 1582   0.802   1.832   2.465  0.1161  1.6508  3.2902
  396SOL    HW2 1583   0.717   1.730   2.373  0.7404  1.2535  0.4504
  396SOL     MW 1584   0.755   1.808   2.387  0.1114  0.5422  0.7501
  397SOL     OW 1585   1.039   2.346   1.273  0.0768  0.0830 -0.2743
  397SOL    HW1 1586   1.060   2.388   1.191  0.1393 -2.5903  0.2726
  397SOL    HW2 1587   1.120   2.346   1.327  1.2174 -0.7488  3.0329
  397SOL     MW 1588   1.053   2.352   1.270  0.2355 -0.3795  0.2342
  398SOL     OW 1589   0.572   2.605   0.695  0.0840  0.2328 -0.4542
  398SOL    HW1 1590   0.514   2.611   0.621 -0.1504 -2.2899  3.0158
  398SOL    HW2 1591   0.657   2.563   0.661  1.7698 -2.6282  0.3922
  398SOL     MW 1592   0.576   2.601   0.680  0.2755 -0.4775  0.1153
  399SOL     OW 1593   0.231   2.020   0.355  0.2601  0.1653  0.0046
  399SOL    HW1 1594   0.183   2.100   0.357  3.6057  0.3108 -0.9393
  399SOL    HW2 1595   0.302   2.032   0.279  2.2361  2.9049 -4.1427
  399SOL     MW 1596   0.234   2.032   0.345  0.9622  0.5460 -0.6671
  400SOL     OW 1597   0.566   1.819   0.212  0.2745  0.0622 -0.4697
  400SOL    HW1 1598   0.504   1.894   0.221  0.8774 -0.1953 -1.6757
  400SOL    HW2 1599   0.515   1.745   0.248 -1.4569  2.5923 -0.1072
  400SOL     MW 1600   0.551   1.819   0.218  0.1256  0.3621 -0.5810
  401SOL     OW 1601   1.006   2.111   0.108  0.1784 -0.2416 -0.2616
  401SOL    HW1 1602   1.000   2.019   0.132  3.6857  0.2614 -1.8589
  401SOL    HW2 1603   1.055   2.146   0.179 -1.5991  2.1593 -2.9440
  401SOL     MW 1604   1.012   2.104   0.120  0.4067  0.1415 -0.8263
  402SOL     OW 1605   0.687   2.673   1.741 -0.3774  0.5145 -0.1881
  402SOL    HW1 1606   0.601   2.711   1.758  1.1478 -0.9009 -1.0224
  402SOL    HW2 1607   0.742   2.710   1.811 -1.9820  0.5870 -3.1321
  402SOL     MW 1608   0.683   2.683   1.753 -0.3879  0.3373 -0.6866
  403SOL     OW 1609   0.078   0.563   0.333 -0.0399  0.3527  0.3542
  403SOL    HW1 1610   0.128   0.559   0.413 -1.7576  1.1572  0.4741
  403SOL    HW2 1611   0.135   0.510   0.270 -0.7724  1.4346  1.1993
  403SOL     MW 1612   0.092   0.555   0.335 -0.3632  0.6016  0.4816
  404SOL     OW 1613   0.966   2.899   0.875  0.6045  0.4337  0.1381
  404SOL    HW1 1614   1.029   2.836   0.842 -2.3189  0.3243  0.6031
  404SOL    HW2 1615   0.964   2.962   0.804 -0.3921  1.0545  1.2940
  404SOL     MW 1616   0.974   2.899   0.861  0.0873  0.5012  0.3520
  405SOL     OW 1617   0.447   2.466   1.586 -0.2811 -0.3533 -0.1788
  405SOL    HW1 1618   0.459   2.553   1.539  0.4214 -1.8710  0.2081
  405SOL    HW2 1619   0.396   2.413   1.534  2.0173 -1.3709  0.0815
  405SOL     MW 1620   0.442   2.470   1.573  0.1149 -0.6878 -0.0934
  406SOL     OW 1621   0.402   2.404   1.146  0.6444  0.2935  0.6744
  406SOL    HW1 1622   0.308   2.417   1.166  1.5499  0.0370 -1.2053
  406SOL    HW2 1623   0.420   2.328   1.194 -0.8293  1.9073 -2.5645
  406SOL     MW 1624   0.392   2.396   1.155  0.5695  0.4726 -0.0009
  407SOL     OW 1625   3.065   2.741   1.163 -0.1607 -0.2362 -0.0299
  407SOL    HW1 1626   3.112   2.730   1.251  1.0392  1.4091  1.7259
  407SOL    HW2 1627   3.132   2.736   1.096  1.2771 -0.2848  1.3015
  407SOL     MW 1628   3.080   2.739   1.166  0.1873 -0.0255  0.3774
  408SOL     OW 1629   2.100   2.033   0.508 -0.0860  0.7703  0.7018
  408SOL    HW1 1630   2.089   2.069   0.595 -2.7393 -1.0404  1.4040
  408SOL    HW2 1631   2.025   1.974   0.510 -1.5727 -1.2276  2.5738
  408SOL     MW 1632   2.089   2.030   0.520 -0.6322  0.2678  1.0414
  409SOL     OW 1633   1.422   0.161   0.937 -0.0336  0.3689 -0.6744
  409SOL    HW1 1634   1.437   0.238   0.988  1.2692 -0.0060  0.3473
  409SOL    HW2 1635   1.517   0.134   0.926  1.1819 -2.0218 -1.5308
  409SOL     MW 1636   1.437   0.168   0.942  0.2987  0.0040 -0.6526
  410SOL     OW 1637   1.070   2.518   1.049 -0.0698 -0.1446 -0.0436
  410SOL    HW1 1638   0.994   2.535   0.989  1.7701  0.7797  0.8123
  410SOL    HW2 1639   1.138   2.483   0.993  0.4978 -0.7077 -2.4352
  410SOL     MW 1640   1.069   2.516   1.034  0.2479 -0.0969 -0.2462
  411SOL     OW 1641   1.935   0.086   2.877 -0.1519  0.0717 -0.0271
  411SOL    HW1 1642   1.897   0.041   2.802  2.3869  0.5579 -1.4879
  411SOL    HW2 1643   1.870   0.123   2.937  3.3557 -0.8682  1.0167
  411SOL     MW 1644   1.922   0.085   2.875  0.6459  0.0119 -0.0821
  412SOL     OW 1645   1.011   2.231   0.589  0.2096  0.3469 -0.6005
  412SOL    HW1 1646   1.069   2.308   0.611  0.0522 -3.8483 -0.1859
  412SOL    HW2 1647   0.923   2.263   0.554 -2.0093  0.8607  1.9437
  412SOL     MW 1648   1.007   2.246   0.587 -0.1040 -0.1388 -0.2101
  413SOL     OW 1649   0.525   2.795   0.059  0.3029 -0.5563  0.9181
  413SOL    HW1 1650   0.590   2.725   0.091  5.0959  1.3203  2.2781
  413SOL    HW2 1651   0.553   2.839  -0.027 -0.5489 -1.7623  1.0812
  413SOL     MW 1652   0.538   2.791   0.052  0.8229 -0.4678  1.1190
  414SOL     OW 1653   2.015   3.012   1.002 -0.5107  0.1869  0.3654
  414SOL    HW1 1654   1.934   2.976   0.968  2.0198  0.9466  0.1769
  414SOL    HW2 1655   2.085   2.945   0.997  0.4502  0.5263 -0.5337
  414SOL     MW 1656   2.014   2.998   0.997 -0.0500  0.3319  0.2219
  415SOL     OW 1657   1.730   2.666   1.110  0.0957  0.1619  0.0553
  415SOL    HW1 1658   1.673   2.600   1.160 -2.1004 -0.4894 -1.2913
  415SOL    HW2 1659   1.820   2.667   1.156 -0.7345 -2.2220  0.3384
  415SOL     MW 1660   1.734   2.657   1.123 -0.3036 -0.2386 -0.0850
  416SOL     OW 1661   0.568   1.937   1.392 -0.4053 -0.1209  0.4397
  416SOL    HW1 1662   0.545   2.029   1.364  1.7870 -1.1385 -0.8907
  416SOL    HW2 1663   0.581   1.892   1.306  2.1202 -0.1199  2.0026
  416SOL     MW 1664   0.567   1.944   1.377  0.2172 -0.2551  0.4704
  417SOL     OW 1665   1.051   2.980   2.032  0.2539  0.3499 -0.3356
  417SOL    HW1 1666   1.002   2.994   2.117  1.0525 -1.4471 -0.4021
  417SOL    HW2 1667   1.012   2.903   1.991  1.3247 -0.0874 -0.9158
  417SOL     MW 1668   1.039   2.971   2.037  0.5005  0.0551 -0.4209
  418SOL     OW 1669   0.716   2.976   0.167 -0.0587 -0.2563  0.5188
  418SOL    HW1 1670   0.759   2.928   0.092 -1.4075 -0.6527 -2.1117
  418SOL    HW2 1671   0.636   2.926   0.179  1.9195 -2.3103  0.0346
  418SOL     MW 1672   0.711   2.963   0.159  0.0243 -0.5796  0.1079
  419SOL     OW 1673   0.462   2.691   1.405 -0.0211 -0.4031  0.2264
  419SOL    HW1 1674   0.519   2.755   1.437  1.5756 -2.3550 -3.1470
  419SOL    HW2 1675   0.512   2.659   1.329 -2.6998  2.1735 -0.7851
  419SOL     MW 1676   0.476   2.696   1.399 -0.1638 -0.3207 -0.3521
  420SOL     OW 1677   0.913   2.215   0.951  0.3223  0.2695  0.6808
  420SOL    HW1 1678   0.867   2.214   1.037 -1.2432 -3.6227 -0.5675
  420SOL    HW2 1679   0.923   2.307   0.928  0.2155  0.1374 -2.2766
  420SOL     MW 1680   0.908   2.227   0.959  0.1017 -0.2615  0.1259
  421SOL     OW 1681   2.940   0.090   0.106 -0.1292  0.4318 -0.5776
  421SOL    HW1 1682   2.909   0.069   0.023 -0.8540  1.6292 -0.4604
  421SOL    HW2 1683   2.960   0.002   0.135 -1.1130  1.9212 -1.9472
  421SOL     MW 1684   2.938   0.075   0.099 -0.3547  0.7863 -0.7428
  422SOL     OW 1685   0.826   2.504   0.911  0.0494 -0.0003 -0.0468
  422SOL    HW1 1686   0.741   2.525   0.949  0.4131  0.8389 -1.7003
  422SOL    HW2 1687   0.827   2.524   0.809  2.3178  2.5224 -2.0614
  422SOL     MW 1688   0.815   2.509   0.902  0.3966  0.4432 -0.5308
  423SOL     OW 1689   1.622   0.092   0.522  0.0718  0.1008  0.1516
  423SOL    HW1 1690   1.662   0.038   0.456 -0.7341 -0.2154 -0.1395
  423SOL    HW2 1691   1.606   0.177   0.477 -0.1694 -0.0098  1.7861
  423SOL     MW 1692   1.625   0.096   0.507 -0.0663  0.0445  0.3288
  424SOL     OW 1693   0.740   2.174   1.181 -0.0965  0.1031  0.3065
  424SOL    HW1 1694   0.644   2.187   1.212 -0.7237  0.9249 -0.1417
  424SOL    HW2 1695   0.785   2.225   1.253 -1.0264 -2.7191  0.1237
  424SOL     MW 1696   0.733   2.182   1.195 -0.3019 -0.1608  0.2232
  425SOL     OW 1697   1.758   2.796   2.061 -0.2221  0.1157  0.0319
  425SOL    HW1 1698   1.765   2.817   1.968 -0.5294 -0.9140  0.7802
  425SOL    HW2 1699   1.772   2.699   2.072 -0.8489 -1.4549 -0.0395
  425SOL     MW 1700   1.761   2.786   2.051 -0.3453 -0.2274  0.1212
  426SOL     OW 1701   0.766   1.646   1.916 -0.2814  0.0827  0.1825
  426SOL    HW1 1702   0.701   1.653   1.837 -0.1395  0.8242 -0.3006
  426SOL    HW2 1703   0.739   1.721   1.974  3.5546  2.6368 -0.8981
  426SOL     MW 1704   0.754   1.657   1.914  0.2435  0.5175 -0.0238
  427SOL     OW 1705   0.390   1.548   1.897  0.1714  0.2159 -1.1896
  427SOL    HW1 1706   0.418   1.462   1.855 -2.1233  2.4822 -0.5938
  427SOL    HW2 1707   0.304   1.536   1.935 -1.0383  0.7134 -1.7672
  427SOL     MW 1708   0.383   1.535   1.897 -0.2910  0.5805 -1.1872
  428SOL     OW 1709   0.590   2.594   1.163  0.3397 -0.3271  0.4176
  428SOL    HW1 1710   0.667   2.554   1.207 -0.9881 -0.4925  0.4420
  428SOL    HW2 1711   0.525   2.522   1.151 -0.2284  1.1163  0.7038
  428SOL     MW 1712   0.591   2.580   1.167  0.0896 -0.1584  0.4586
  429SOL     OW 1713   1.387   2.821   1.048  0.0745 -0.6696  0.2420
  429SOL    HW1 1714   1.297   2.799   1.092  0.1423 -2.3427  0.7338
  429SOL    HW2 1715   1.361   2.883   0.982 -1.1232  0.1199  2.8845
  429SOL     MW 1716   1.372   2.827   1.045 -0.0746 -0.7862  0.6555
  430SOL     OW 1717   1.119   2.720   0.697  0.5220 -0.2414 -0.3313
  430SOL    HW1 1718   1.158   2.640   0.720  0.2855  1.5549  0.8139
  430SOL    HW2 1719   1.076   2.700   0.619  0.1189  0.5981  1.4844
  430SOL     MW 1720   1.118   2.707   0.690  0.4376  0.1064  0.0594
  431SOL     OW 1721   0.391   2.033   1.094  0.0528  0.0231  1.1192
  431SOL    HW1 1722   0.442   1.961   1.050  0.4594  1.1974  1.4459
  431SOL    HW2 1723   0.346   2.064   1.012  3.3741  0.1342  2.1353
  431SOL     MW 1724   0.392   2.028   1.077  0.5446  0.1927  1.2963
  432SOL     OW 1725   0.077   0.051   1.184  0.5937 -0.3590 -0.4639
  432SOL    HW1 1726   0.073   0.102   1.276 -0.2230  1.4851  0.0031
  432SOL    HW2 1727  -0.011   0.001   1.178  1.3538 -0.8166 -1.3123
  432SOL     MW 1728   0.065   0.051   1.195  0.5863 -0.1760 -0.5142
  433SOL     OW 1729   0.671   2.913   1.445 -0.1115 -0.1628  0.1693
  433SOL    HW1 1730   0.708   2.871   1.516  0.9330  1.0715 -0.9713
  433SOL    HW2 1731   0.738   2.897   1.376 -0.4741 -2.0497  2.1872
  433SOL     MW 1732   0.684   2.905   1.445 -0.0215 -0.2489  0.2851
  434SOL     OW 1733   1.624   2.870   1.518 -0.2593 -0.3871  0.1597
  434SOL    HW1 1734   1.533   2.893   1.492  0.2033  0.3142 -2.3416
  434SOL    HW2 1735   1.661   2.829   1.436 -0.2343  1.7959 -0.1283
  434SOL     MW 1736   1.617   2.868   1.503 -0.1950 -0.0065 -0.2083
  435SOL     OW 1737   2.825   1.797   0.285  0.2995 -0.0938 -0.5768
  435SOL    HW1 1738   2.877   1.862   0.237  0.2204  0.7747 -2.0320
  435SOL    HW2 1739   2.798   1.736   0.216  0.6816  0.7715  1.2709
  435SOL     MW 1740   2.829   1.798   0.269  0.3395  0.1350 -0.5250
  436SOL     OW 1741   1.483   2.796   0.319 -0.5856  0.2693 -0.1923
  436SOL    HW1 1742   1.549   2.797   0.394 -0.5733  0.9018  0.0749
  436SOL    HW2 1743   1.432   2.880   0.327 -0.9388  0.2054  1.1679
  436SOL     MW 1744   1.485   2.807   0.330 -0.6306  0.3443  0.0224
  437SOL     OW 1745   0.857   2.903   1.233 -0.2153  1.0482  0.2237
  437SOL    HW1 1746   0.876   3.001   1.248  0.2904  0.8136 -0.6499
  437SOL    HW2 1747   0.815   2.887   1.149 -1.3229  2.3965 -2.3977
  437SOL     MW 1748   0.854   2.914   1.224 -0.2947  1.1952 -0.2375
  438SOL     OW 1749   0.817   2.496   2.080  0.0122  0.1991 -0.0920
  438SOL    HW1 1750   0.824   2.441   2.160 -0.8763  2.4989 -1.5025
  438SOL    HW2 1751   0.743   2.460   2.034  0.4896  1.6090  1.4248
  438SOL     MW 1752   0.808   2.484   2.085 -0.0421  0.6886 -0.0780
  439SOL     OW 1753   1.127   2.184   0.345  0.2145  0.0701 -0.5695
  439SOL    HW1 1754   1.067   2.194   0.426  1.0214 -1.1343 -1.3355
  439SOL    HW2 1755   1.139   2.275   0.317  0.1773  1.7673 -0.1292
  439SOL     MW 1756   1.121   2.197   0.352  0.3160  0.1351 -0.6125
  440SOL     OW 1757   1.627   3.058   2.981 -0.2065 -0.7947  0.4591
  440SOL    HW1 1758   1.590   3.012   3.054  1.7267 -0.1137 -0.3723
  440SOL    HW2 1759   1.687   2.989   2.952 -0.5490 -0.7642  0.3562
  440SOL     MW 1760   1.630   3.042   2.987  0.0034 -0.7008  0.3358
  441SOL     OW 1761   0.356   2.644   0.502 -0.3347 -0.1279  0.1881
  441SOL    HW1 1762   0.337   2.616   0.410  1.6397 -3.1124  2.7587
  441SOL    HW2 1763   0.353   2.737   0.498 -0.2282  0.8511  0.2390
  441SOL     MW 1764   0.353   2.652   0.489 -0.0601 -0.3925  0.5340
  442SOL     OW 1765   3.104   2.370   0.613  0.1620 -0.3541 -0.4892
  442SOL    HW1 1766   3.097   2.467   0.641 -0.5428  1.9706 -0.4599
  442SOL    HW2 1767   3.020   2.332   0.642 -0.2049  0.0589 -0.5300
  442SOL     MW 1768   3.092   2.378   0.621  0.0206  0.0071 -0.4907
  443SOL     OW 1769   1.421   1.692   1.922  0.4532  0.2948 -0.3751
  443SOL    HW1 1770   1.374   1.731   1.849  0.8281  0.2353  4.7293
  443SOL    HW2 1771   1.364   1.623   1.946 -2.3612  0.0919  2.6198
  443SOL     MW 1772   1.407   1.688   1.915  0.1314  0.2602  0.6936
  444SOL     OW 1773   0.888   2.609   1.560 -0.5391 -0.0549  0.3795
  444SOL    HW1 1774   0.946   2.582   1.628 -0.0903 -1.6856  1.4224
  444SOL    HW2 1775   0.805   2.615   1.603  2.4168 -1.3165 -2.9682
  444SOL     MW 1776   0.885   2.606   1.574 -0.0899 -0.4365  0.0754
  445SOL     OW 1777   0.950   0.060   1.243  0.1229 -0.2992  0.4752
  445SOL    HW1 1778   0.892   0.141   1.216 -2.4556  0.4222 -1.8990
  445SOL    HW2 1779   1.035   0.070   1.201  2.4581 -0.6678  0.2428
  445SOL     MW 1780   0.953   0.072   1.234  0.0908 -0.2526  0.1313
  446SOL     OW 1781   2.724   2.849   1.059 -0.2180  0.1510 -0.2615
  446SOL    HW1 1782   2.696   2.878   0.970  1.2685 -0.1996 -0.2548
  446SOL    HW2 1783   2.758   2.755   1.049 -2.4537 -0.7258  1.4589
  446SOL     MW 1784   2.725   2.840   1.046 -0.3168 -0.0109 -0.0336
  447SOL     OW 1785   3.022   2.021   1.681 -0.0247  0.7881 -0.5871
  447SOL    HW1 1786   3.079   1.952   1.726  0.0735  2.0010  0.0596
  447SOL    HW2 1787   2.962   1.970   1.620  1.0940 -2.1864 -0.3863
  447SOL     MW 1788   3.021   2.005   1.679  0.1358  0.5557 -0.4753
  448SOL     OW 1789   1.683   2.385   1.683 -0.0207  0.1569  0.1032
  448SOL    HW1 1790   1.605   2.328   1.691  0.1130  1.3885 -0.5798
  448SOL    HW2 1791   1.652   2.476   1.671 -0.0571  1.4879 -1.1666
  448SOL     MW 1792   1.669   2.389   1.682 -0.0078  0.4950 -0.1545
  449SOL     OW 1793   0.855   2.875   0.392 -0.4616  0.7928 -0.0020
  449SOL    HW1 1794   0.819   2.916   0.308  0.4113 -2.8387 -1.9937
  449SOL    HW2 1795   0.774   2.850   0.434  0.5937  2.2240  0.1916
  449SOL     MW 1796   0.839   2.877   0.386 -0.2072  0.5025 -0.2393
  450SOL     OW 1797   1.189   2.435   0.641  0.3490 -0.1965 -0.5876
  450SOL    HW1 1798   1.198   2.431   0.732 -0.1595  2.3651 -0.6082
  450SOL    HW2 1799   1.285   2.431   0.617  1.8436  1.6956  0.2420
  450SOL     MW 1800   1.203   2.434   0.650  0.4791  0.3911 -0.4809
  451SOL     OW 1801   0.633   1.925   1.650 -0.0349  0.6833 -0.6683
  451SOL    HW1 1802   0.704   1.982   1.671 -3.9645  1.1538  1.6035
  451SOL    HW2 1803   0.625   1.931   1.552  1.7396 -1.6191 -1.1449
  451SOL     MW 1804   0.641   1.933   1.640 -0.3192  0.4416 -0.4314
  452SOL     OW 1805   0.319   2.641   0.023  0.0333  0.3717  0.0765
  452SOL    HW1 1806   0.398   2.703   0.041  0.7028  0.8082 -0.4109
  452SOL    HW2 1807   0.307   2.638  -0.070 -1.7489 -0.0512  1.0480
  452SOL     MW 1808   0.328   2.649   0.013 -0.1135  0.3735  0.1404
  453SOL     OW 1809   0.408   3.018   1.667 -0.0132 -0.9211 -0.2519
  453SOL    HW1 1810   0.482   3.055   1.611  0.0171 -0.6504 -0.0569
  453SOL    HW2 1811   0.339   3.007   1.600  1.6796  1.3486 -0.8094
  453SOL     MW 1812   0.409   3.021   1.651  0.2141 -0.5859 -0.2997
  454SOL     OW 1813   1.152   2.758   1.158 -0.3716 -0.2427  0.0085
  454SOL    HW1 1814   1.108   2.673   1.130 -3.1184  0.8401 -1.5164
  454SOL    HW2 1815   1.087   2.823   1.144  1.6033  0.4723  0.9462
  454SOL     MW 1816   1.137   2.755   1.152 -0.4735 -0.0055 -0.0689
  455SOL     OW 1817   1.618   2.939   0.134  0.4937  0.2437  0.2440
  455SOL    HW1 1818   1.710   2.938   0.160  0.5167  2.1495 -0.3028
  455SOL    HW2 1819   1.569   2.891   0.197  0.6372 -0.6717 -0.1210
  455SOL     MW 1820   1.624   2.932   0.146  0.5157  0.3744  0.1237
  456SOL     OW 1821   2.847   0.313   1.385  0.4506 -0.0987  0.3150
  456SOL    HW1 1822   2.790   0.246   1.351  2.8484 -1.1778 -0.3177
  456SOL    HW2 1823   2.903   0.346   1.309 -0.8985 -1.2182 -0.0602
  456SOL     MW 1824   2.846   0.309   1.371  0.5890 -0.3888  0.1820
  457SOL     OW 1825   0.926   1.513   2.957  0.5444  0.6891  0.3312
  457SOL    HW1 1826   0.861   1.517   3.032 -1.6565 -0.0927  0.0531
  457SOL    HW2 1827   1.000   1.470   2.994  0.9319  1.0619 -1.0457
  457SOL     MW 1828   0.927   1.508   2.971  0.3051  0.6352  0.1129
  458SOL     OW 1829   1.432   1.329   0.655  0.1000  0.4121 -0.4661
  458SOL    HW1 1830   1.366   1.375   0.717  0.4456  2.0210 -0.6887
  458SOL    HW2 1831   1.380   1.278   0.592  0.0355 -0.0400 -1.8566
  458SOL     MW 1832   1.416   1.328   0.655  0.1371  0.5647 -0.6790
  459SOL     OW 1833   1.610   0.110   0.204  0.1888 -0.5189  0.1783
  459SOL    HW1 1834   1.616   0.016   0.182 -1.5838  1.5230  2.1087
  459SOL    HW2 1835   1.551   0.147   0.138  0.0703 -0.5699 -1.2736
  459SOL     MW 1836   1.603   0.103   0.193 -0.0607 -0.2562  0.2414
  460SOL     OW 1837   1.755   2.156   0.625 -0.3398  0.3866  0.2747
  460SOL    HW1 1838   1.673   2.159   0.667  2.3361 -1.3133 -1.8359
  460SOL    HW2 1839   1.730   2.074   0.582 -1.6997  0.7434  0.6235
  460SOL     MW 1840   1.741   2.146   0.625 -0.1662  0.2094  0.0423
  461SOL     OW 1841   0.360   2.313   0.641  0.1551  0.2834  0.3886
  461SOL    HW1 1842   0.287   2.347   0.600 -0.5623 -0.0186  0.2488
  461SOL    HW2 1843   0.378   2.379   0.710  1.7408 -1.2946  2.5806
  461SOL     MW 1844   0.353   2.326   0.645  0.2696  0.0354  0.6594
  462SOL     OW 1845   0.411   0.246   1.364 -0.3631 -0.2650  0.0274
  462SOL    HW1 1846   0.431   0.155   1.347 -0.8390  2.0598 -0.2165
  462SOL    HW2 1847   0.499   0.295   1.348  0.9687  1.3522  0.9685
  462SOL     MW 1848   0.425   0.240   1.360 -0.2502  0.2551  0.1194
  463SOL     OW 1849   0.966   3.080   0.677 -0.3125 -0.1130 -0.4789
  463SOL    HW1 1850   1.022   3.069   0.596  0.0771  2.4942  0.0935
  463SOL    HW2 1851   0.870   3.099   0.661 -0.8402 -2.1927 -2.3387
  463SOL     MW 1852   0.961   3.081   0.664 -0.3307 -0.0434 -0.6488
  464SOL     OW 1853   0.871   2.990   2.234  0.1995 -0.0249 -0.7255
  464SOL    HW1 1854   0.833   2.899   2.229 -2.6358 -3.4109 -2.7305
  464SOL    HW2 1855   0.863   3.037   2.318  1.5558 -0.0776 -1.9341
  464SOL     MW 1856   0.865   2.984   2.244  0.0044 -0.4786 -1.1495
  465SOL     OW 1857   0.706   0.302   0.480 -0.3753 -0.4450  0.1812
  465SOL    HW1 1858   0.673   0.227   0.533  1.6795 -3.1376  0.5858
  465SOL    HW2 1859   0.709   0.255   0.393  0.8460 -1.8715  1.0263
  465SOL     MW 1860   0.702   0.286   0.475  0.0569 -0.9885  0.3461
  466SOL     OW 1861   1.092   2.007   0.740  0.3482 -0.2216  0.2073
  466SOL    HW1 1862   1.091   1.930   0.685  1.5236  2.0919  1.2493
  466SOL    HW2 1863   1.051   2.081   0.697  0.2373 -0.4897  1.8020
  466SOL     MW 1864   1.086   2.007   0.727  0.4887  0.0483  0.5552
  467SOL     OW 1865   1.250   2.352   0.901  0.5704  0.0714  0.6879
  467SOL    HW1 1866   1.342   2.389   0.915 -0.7804  3.9540 -4.1827
  467SOL    HW2 1867   1.260   2.260   0.898 -3.4327 -1.1148  1.8598
  467SOL     MW 1868   1.264   2.345   0.903 -0.1360  0.4272  0.1999
  468SOL     OW 1869   0.330   2.606   2.013  0.1264  0.2328 -0.1985
  468SOL    HW1 1870   0.359   2.521   1.976 -2.0381 -0.7653  0.9339
  468SOL    HW2 1871   0.376   2.679   1.968 -2.7390  2.3800  0.0329
  468SOL     MW 1872   0.340   2.605   2.002 -0.5372  0.3844 -0.0185
  469SOL     OW 1873   0.410   2.079   1.751  0.4557 -0.3684  0.3677
  469SOL    HW1 1874   0.340   2.067   1.686  1.6324 -1.0144 -0.4264
  469SOL    HW2 1875   0.494   2.034   1.728  1.5840  0.4112  2.5095
  469SOL     MW 1876   0.412   2.072   1.740  0.7598 -0.3508  0.5455
  470SOL     OW 1877   3.098   2.600   0.209 -0.2091  0.4865 -0.1283
  470SOL    HW1 1878   3.050   2.536   0.259 -2.7198  0.9915 -2.2984
  470SOL    HW2 1879   3.098   2.572   0.119 -0.5687  2.2104  0.7654
  470SOL     MW 1880   3.092   2.588   0.203 -0.5878  0.7806 -0.2967
  471SOL     OW 1881   1.231   2.746   1.432 -0.3224 -0.3095  0.5193
  471SOL    HW1 1882   1.155   2.797   1.467 -1.5900  0.4629 -0.2250
  471SOL    HW2 1883   1.222   2.743   1.341  2.0040  1.2751 -0.2634
  471SOL     MW 1884   1.220   2.752   1.425 -0.1827  0.0015  0.3178
  472SOL     OW 1885   2.952   2.087   0.403 -0.0211  0.5783 -0.0826
  472SOL    HW1 1886   2.958   2.038   0.321 -0.9033  2.3952  1.4527
  472SOL    HW2 1887   2.948   2.007   0.456  0.3892 -0.3422  0.7988
  472SOL     MW 1888   2.952   2.070   0.399 -0.0833  0.6966  0.2363
  473SOL     OW 1889   0.820   2.509   1.301 -0.9022  0.4952  0.2280
  473SOL    HW1 1890   0.909   2.476   1.283  0.6256  0.0883  0.0487
  473SOL    HW2 1891   0.825   2.522   1.395 -1.1192 -1.7221  1.5638
  473SOL     MW 1892   0.833   2.507   1.311 -0.7293  0.1490  0.3806
  474SOL     OW 1893   0.843   2.105   1.726  0.1332  0.5717  0.0027
  474SOL    HW1 1894   0.924   2.088   1.760 -2.6343  2.3368 -0.4354
  474SOL    HW2 1895   0.860   2.165   1.651  1.0594  0.8336  0.3974
  474SOL     MW 1896   0.856   2.111   1.720 -0.1097  0.8391 -0.0030
  475SOL     OW 1897   1.684   0.013   1.331 -0.3009 -0.5410  0.8036
  475SOL    HW1 1898   1.604   0.057   1.292  0.1491  0.0500 -1.0938
  475SOL    HW2 1899   1.651  -0.072   1.356 -1.2212 -0.0228  1.2432
  475SOL     MW 1900   1.669   0.007   1.329 -0.3630 -0.3947  0.6112
  476SOL     OW 1901   1.456   2.617   0.834  0.4228 -0.1254 -0.7165
  476SOL    HW1 1902   1.462   2.636   0.930 -0.1929  1.1379  2.6039
  476SOL    HW2 1903   1.497   2.696   0.794  3.5049 -0.6623 -1.4488
  476SOL     MW 1904   1.462   2.630   0.841  0.7482 -0.0296 -0.3750
  477SOL     OW 1905   0.826   2.534   0.611  0.0158 -0.5863 -0.5261
  477SOL    HW1 1906   0.883   2.577   0.553 -0.3552  1.0438  3.7501
  477SOL    HW2 1907   0.797   2.456   0.559 -0.9129 -0.2883  0.6853
  477SOL     MW 1908   0.829   2.529   0.596 -0.1557 -0.3319  0.1979
  478SOL     OW 1909   0.154   2.687   0.978  0.5323 -0.7586  0.4485
  478SOL    HW1 1910   0.181   2.766   0.937 -0.5474 -0.1124 -0.0058
  478SOL    HW2 1911   0.226   2.632   0.951  0.3626 -0.0016  1.9626
  478SOL     MW 1912   0.167   2.690   0.969  0.3675 -0.5734  0.5883
  479SOL     OW 1913   1.469   1.935   1.315 -0.0425 -0.1176 -0.0083
  479SOL    HW1 1914   1.413   1.976   1.381  0.0383 -2.3230 -1.0753
  479SOL    HW2 1915   1.531   1.875   1.361 -1.5550 -0.2381 -1.3811
  479SOL     MW 1916   1.470   1.933   1.330 -0.2314 -0.4245 -0.3302
  480SOL     OW 1917   1.851   2.426   1.358 -0.3834  0.0399  0.0003
  480SOL    HW1 1918   1.872   2.366   1.433 -0.7499 -0.6322 -2.8826
  480SOL    HW2 1919   1.894   2.391   1.282  0.6455  1.0402  2.5302
  480SOL     MW 1920   1.859   2.414   1.358 -0.2960  0.0832 -0.0462
  481SOL     OW 1921   1.167   0.159   1.082 -0.3538 -0.2251  0.0133
  481SOL    HW1 1922   1.244   0.166   1.029 -1.1870 -1.9661 -1.7589
  481SOL    HW2 1923   1.153   0.247   1.125  0.3897  1.2100 -0.1735
  481SOL     MW 1924   1.175   0.172   1.081 -0.3657 -0.2654 -0.2451
  482SOL     OW 1925   1.058   3.038   0.433  0.0233  0.2169  0.5086
  482SOL    HW1 1926   0.979   2.986   0.422  1.3003 -0.6731 -1.8344
  482SOL    HW2 1927   1.037   3.133   0.420 -2.4295 -1.2327 -0.1551
  482SOL     MW 1928   1.045   3.044   0.430 -0.1318 -0.0918  0.1119
  483SOL     OW 1929   0.386   2.923   0.482 -0.2505  0.0047  0.0165
  483SOL    HW1 1930   0.332   2.950   0.410  3.2163  0.5581  2.8697
  483SOL    HW2 1931   0.377   2.991   0.548  1.0051 -2.8033  0.9493
  483SOL     MW 1932   0.378   2.936   0.481  0.3725 -0.2928  0.5160
  484SOL     OW 1933   1.691   1.819   1.445 -0.5131  0.4431  0.2008
  484SOL    HW1 1934   1.758   1.885   1.420  1.5412 -0.3742  0.8932
  484SOL    HW2 1935   1.686   1.836   1.542  0.0555  1.5411 -0.4620
  484SOL     MW 1936   1.699   1.830   1.455 -0.1671  0.4801  0.2047
  485SOL     OW 1937   0.416   2.321   0.325  1.1910 -0.0417 -0.2225
  485SOL    HW1 1938   0.436   2.355   0.412 -0.5191 -3.3864  1.3295
  485SOL    HW2 1939   0.369   2.399   0.290  0.8439 -3.4461 -2.0323
  485SOL     MW 1940   0.412   2.336   0.332  0.9196 -0.9322 -0.2565
  486SOL     OW 1941   0.105   2.471   1.472 -0.1679  0.3113 -0.2335
  486SOL    HW1 1942   0.151   2.550   1.446 -0.6602  0.0772 -1.7771
  486SOL    HW2 1943   0.102   2.468   1.571  2.8283  0.9448  3.5232
  486SOL     MW 1944   0.111   2.481   1.482  0.1625  0.3640  0.0585
  487SOL     OW 1945   1.300   1.552   1.114  0.4198  0.1405  0.4105
  487SOL    HW1 1946   1.287   1.646   1.106  0.5288  0.3040 -0.1081
  487SOL    HW2 1947   1.394   1.538   1.082  1.7678 -1.7678 -1.0279
  487SOL     MW 1948   1.311   1.562   1.108  0.6121 -0.0897  0.1523
  488SOL     OW 1949   1.433   1.785   0.591 -0.4281  0.0963 -0.1790
  488SOL    HW1 1950   1.427   1.875   0.561 -2.5082 -0.2589 -2.4225
  488SOL    HW2 1951   1.361   1.747   0.546 -0.5843  1.3360  0.7798
  488SOL     MW 1952   1.423   1.791   0.581 -0.7231  0.2130 -0.3485
  489SOL     OW 1953   0.706   0.669   0.472 -0.1607 -0.4136  0.4117
  489SOL    HW1 1954   0.644   0.614   0.419 -1.0340  1.6002 -1.2948
  489SOL    HW2 1955   0.662   0.677   0.559 -1.4919  1.8935 -1.2482
  489SOL     MW 1956   0.692   0.663   0.477 -0.4516  0.1565 -0.0325
  490SOL     OW 1957   1.364   2.076   0.430 -0.2092  0.4978  0.6484
  490SOL    HW1 1958   1.429   2.143   0.406  1.0605  0.6512  0.7668
  490SOL    HW2 1959   1.277   2.122   0.433  1.9941  2.0240 -0.4788
  490SOL     MW 1960   1.361   2.091   0.427  0.2490  0.7194  0.5153
  491SOL     OW 1961   1.331   3.008   0.415  0.0337 -0.4317 -0.2052
  491SOL    HW1 1962   1.347   3.070   0.485 -0.0312  0.5037 -2.4373
  491SOL    HW2 1963   1.239   2.975   0.405 -2.8870 -1.2038 -0.4360
  491SOL     MW 1964   1.321   3.012   0.423 -0.3602 -0.4101 -0.5302
  492SOL     OW 1965   1.463   2.154   0.702  0.4513 -0.0709 -0.0110
  492SOL    HW1 1966   1.412   2.124   0.630  0.0961  0.7091  0.5949
  492SOL    HW2 1967   1.422   2.117   0.774  0.6082  0.4276 -0.4045
  492SOL     MW 1968   1.451   2.145   0.702  0.4252  0.0978  0.0170
  493SOL     OW 1969   0.208   3.027   0.326  0.1087  0.4863  0.2470
  493SOL    HW1 1970   0.134   3.063   0.362  0.7887 -0.6655 -0.1509
  493SOL    HW2 1971   0.179   2.988   0.246 -1.0108  0.9219  0.9013
  493SOL     MW 1972   0.194   3.026   0.320  0.0507  0.3918  0.2808
  494SOL     OW 1973   0.386   2.353   1.826  0.3056 -0.6405  0.1733
  494SOL    HW1 1974   0.384   2.263   1.785 -1.7453 -1.0873 -0.9479
  494SOL    HW2 1975   0.434   2.399   1.757  2.9915  0.5990 -0.8075
  494SOL     MW 1976   0.392   2.347   1.811  0.3894 -0.5359 -0.1041
  495SOL     OW 1977   2.811   1.632   2.670 -0.4398 -0.2571 -0.1773
  495SOL    HW1 1978   2.805   1.703   2.736 -0.3400  0.4383 -0.4337
  495SOL    HW2 1979   2.752   1.566   2.702 -1.0390  2.4108 -1.1219
  495SOL     MW 1980   2.802   1.633   2.683 -0.5057  0.1866 -0.3358
  496SOL     OW 1981   2.828   2.294   2.754 -0.2821 -0.2234  0.0268
  496SOL    HW1 1982   2.828   2.210   2.791 -1.9017 -0.5682  1.3487
  496SOL    HW2 1983   2.912   2.339   2.764 -0.0039 -0.5070 -1.6737
  496SOL     MW 1984   2.839   2.289   2.760 -0.4591 -0.3063 -0.0232
  497SOL     OW 1985   1.473   2.425   2.575 -0.0677 -0.5832 -0.4709
  497SOL    HW1 1986   1.482   2.358   2.503  1.3281 -1.4394 -2.3701
  497SOL    HW2 1987   1.449   2.369   2.648  3.4253  0.9488  0.8449
  497SOL     MW 1988   1.471   2.409   2.575  0.5773 -0.4940 -0.5479
  498SOL     OW 1989   1.482   2.736   2.319 -0.1412  0.2983  0.0360
  498SOL    HW1 1990   1.462   2.646   2.339 -0.7961  0.0017 -2.3012
  498SOL    HW2 1991   1.575   2.744   2.305 -0.0639 -0.8624 -0.9780
  498SOL     MW 1992   1.492   2.725   2.319 -0.2174  0.1060 -0.4062
  499SOL     OW 1993   0.964   0.064   0.108 -0.1339  0.6158  0.3846
  499SOL    HW1 1994   0.886   0.089   0.157  1.7029 -1.9619  1.1308
  499SOL    HW2 1995   0.932  -0.012   0.060 -0.6539  0.3187 -0.4690
  499SOL     MW 1996   0.950   0.057   0.108  0.0398  0.2365  0.3705
  500SOL     OW 1997   1.038   2.538   2.731  0.0798 -0.0805  0.1388
  500SOL    HW1 1998   1.060   2.489   2.814 -0.3731  1.3009 -0.0664
  500SOL    HW2 1999   0.985   2.611   2.764  0.9326  1.7318 -1.6685
  500SOL     MW 2000   1.034   2.541   2.746  0.1326  0.3408 -0.1268
  501SOL     OW 2001   1.803   2.304   2.942  0.2352 -0.3675 -0.5226
  501SOL    HW1 2002   1.792   2.396   2.917 -2.1039 -1.7459 -1.8910
  501SOL    HW2 2003   1.897   2.288   2.961  0.3366  1.3869  0.5939
  501SOL     MW 2004   1.814   2.314   2.942 -0.0601 -0.3179 -0.5558
  502SOL     OW 2005   0.327   2.744   2.849 -0.2683  0.1639  0.5961
  502SOL    HW1 2006   0.320   2.785   2.760  0.8998  1.4203 -0.1937
  502SOL    HW2 2007   0.298   2.818   2.902 -0.5299  0.5717 -0.7230
  502SOL     MW 2008   0.322   2.759   2.845 -0.1487  0.3835  0.3178
  503SOL     OW 2009   1.107   2.473   2.070 -0.0647  0.1247 -0.0417
  503SOL    HW1 2010   1.148   2.552   2.034  2.0956  2.5573  1.6650
  503SOL    HW2 2011   1.025   2.451   2.032 -0.2176  0.9924 -2.2312
  503SOL     MW 2012   1.102   2.481   2.060  0.2002  0.5602 -0.1054
  504SOL     OW 2013   0.063   2.629   2.189 -0.0439  0.4462  0.2311
  504SOL    HW1 2014   0.123   2.561   2.157  1.0052  0.1856  3.2149
  504SOL    HW2 2015   0.010   2.580   2.257 -3.7190 -0.0972  2.3482
  504SOL     MW 2016   0.064   2.614   2.194 -0.3904  0.3401  0.9042
  505SOL     OW 2017   1.587   2.844   2.738 -0.4901 -0.4941  0.4587
  505SOL    HW1 2018   1.623   2.859   2.646  0.7886  0.3319  0.1937
  505SOL    HW2 2019   1.533   2.920   2.764  1.4146 -0.1989  0.4521
  505SOL     MW 2020   1.585   2.856   2.729 -0.0700 -0.3462  0.4229
  506SOL     OW 2021   1.565   0.139   2.763  0.5607  0.2522 -0.4423
  506SOL    HW1 2022   1.546   0.086   2.836  1.3580  1.2700  1.4740
  506SOL    HW2 2023   1.631   0.084   2.715 -1.1777 -0.1040  0.3012
  506SOL     MW 2024   1.571   0.125   2.766  0.4365  0.3395 -0.0914
  507SOL     OW 2025   0.800   2.689   2.833  0.3187 -0.5249 -0.1323
  507SOL    HW1 2026   0.822   2.763   2.774  0.1379 -0.0248  1.3696
  507SOL    HW2 2027   0.707   2.681   2.836  1.3052 -1.1405  0.8242
  507SOL     MW 2028   0.791   2.698   2.826  0.4250 -0.5402  0.1920
  508SOL     OW 2029   1.201   2.153   2.546  0.1016 -0.0803 -0.3007
  508SOL    HW1 2030   1.255   2.175   2.620  1.3273  0.7732  1.2887
  508SOL    HW2 2031   1.112   2.173   2.574  0.7575 -1.0848 -1.2456
  508SOL     MW 2032   1.196   2.159   2.559  0.3499 -0.1002 -0.2157
  509SOL     OW 2033   0.559   2.570   2.866  0.3732 -1.2305 -0.4308
  509SOL    HW1 2034   0.572   2.521   2.781  0.1836  0.2951  0.5364
  509SOL    HW2 2035   0.464   2.599   2.870  2.0473  0.3226  1.1980
  509SOL     MW 2036   0.548   2.567   2.855  0.5690 -0.8243 -0.0883
  510SOL     OW 2037   1.518   2.638   1.651  0.1525  0.0889 -0.6839
  510SOL    HW1 2038   1.538   2.721   1.612  1.5204 -1.2971  0.2986
  510SOL    HW2 2039   1.463   2.664   1.725 -0.2270 -0.4736 -0.6785
  510SOL     MW 2040   1.513   2.652   1.655  0.2829 -0.1682 -0.5536
  511SOL     OW 2041   0.399   2.580   2.514  0.1516 -0.4609 -0.1257
  511SOL    HW1 2042   0.477   2.543   2.561  1.8815 -4.2196  0.8874
  511SOL    HW2 2043   0.428   2.596   2.422 -0.0333  0.3077 -0.8854
  511SOL     MW 2044   0.413   2.577   2.508  0.3555 -0.8554 -0.0922
  512SOL     OW 2045   0.934   1.984   2.811  0.1843 -0.5947  0.2366
  512SOL    HW1 2046   0.844   2.013   2.832 -0.8448  1.0558  0.9635
  512SOL    HW2 2047   0.961   1.908   2.869  2.5856 -1.1819 -1.0895
  512SOL     MW 2048   0.926   1.978   2.821  0.3653 -0.4544  0.1575
  513SOL     OW 2049   1.496   2.407   2.237  0.4348  0.2212  0.6125
  513SOL    HW1 2050   1.589   2.438   2.245  0.2165  0.4743  0.9318
  513SOL    HW2 2051   1.490   2.322   2.280  3.9297  0.3091  2.2253
  513SOL     MW 2052   1.507   2.400   2.244  0.8671  0.2662  0.8674
  514SOL     OW 2053   0.219   2.381   2.673  0.2800  0.0850  0.6568
  514SOL    HW1 2054   0.271   2.400   2.595  0.7609 -1.9205 -0.3811
  514SOL    HW2 2055   0.272   2.335   2.740 -0.1935 -0.4259 -0.3909
  514SOL     MW 2056   0.233   2.378   2.671  0.2809 -0.2470  0.3816
  515SOL     OW 2057   1.072   2.012   1.896 -0.0999 -0.5351 -0.1758
  515SOL    HW1 2058   1.062   2.107   1.911  1.4727  4.0510 -1.4492
  515SOL    HW2 2059   1.138   1.984   1.957 -0.6203  1.0602 -1.4819
  515SOL     MW 2060   1.080   2.021   1.906  0.0389  0.2805 -0.5161
  516SOL     OW 2061   1.347   2.625   2.911  0.0347 -0.2508  0.0706
  516SOL    HW1 2062   1.359   2.661   2.825  0.2762  0.3739  0.4896
  516SOL    HW2 2063   1.298   2.547   2.894  1.0843  2.6862  1.6234
  516SOL     MW 2064   1.342   2.620   2.897  0.2051  0.2192  0.3308
  517SOL     OW 2065   0.443   2.266   2.326  0.2235 -0.0939  0.1621
  517SOL    HW1 2066   0.429   2.364   2.322  1.0808  0.8888  1.1479
  517SOL    HW2 2067   0.394   2.238   2.245 -0.2357  2.2699 -1.2756
  517SOL     MW 2068   0.435   2.276   2.315  0.2760  0.3476  0.1024
  518SOL     OW 2069   1.742   0.197   3.032 -0.5925 -0.0322  0.3182
  518SOL    HW1 2070   1.739   0.197   3.126 -0.5617  1.1339  1.0228
  518SOL    HW2 2071   1.677   0.136   3.020 -0.3881  1.0878  1.7081
  518SOL     MW 2072   1.733   0.189   3.043 -0.5614  0.2694  0.5946
  519SOL     OW 2073   0.598   2.348   1.976 -0.4908  0.0366 -0.3667
  519SOL    HW1 2074   0.615   2.256   1.966  3.0165  1.8372  0.0229
  519SOL    HW2 2075   0.511   2.354   1.929  0.6555  1.7822  0.4600
  519SOL     MW 2076   0.588   2.337   1.968  0.1232  0.5045 -0.2062
  520SOL     OW 2077   1.148   2.130   2.893  0.7502 -0.2920  0.1274
  520SOL    HW1 2078   1.073   2.079   2.853  2.9205 -1.3786 -0.1413
  520SOL    HW2 2079   1.157   2.112   2.985 -0.1838 -1.5794 -2.1170
  520SOL     MW 2080   1.139   2.121   2.900  0.9133 -0.6053 -0.2042
  521SOL     OW 2081   1.687   2.083   2.207 -0.3150 -0.8602  0.6143
  521SOL    HW1 2082   1.753   2.085   2.134 -0.7119 -2.8242  2.3247
  521SOL    HW2 2083   1.656   1.986   2.190  1.4580  0.1434 -2.6993
  521SOL     MW 2084   1.691   2.070   2.195 -0.1335 -0.9869  0.4028
  522SOL     OW 2085   2.845   2.559   2.160 -0.0444  0.2008  0.1917
  522SOL    HW1 2086   2.910   2.506   2.200  0.4579  3.9320 -0.3569
  522SOL    HW2 2087   2.874   2.646   2.157  1.5184 -3.1285 -1.9604
  522SOL     MW 2088   2.858   2.563   2.165  0.2281  0.2538 -0.1647
  523SOL     OW 2089   0.817   1.488   2.138  0.6054 -0.5867  0.2405
  523SOL    HW1 2090   0.788   1.538   2.060 -2.8497  0.5155 -0.2202
  523SOL    HW2 2091   0.877   1.424   2.101 -0.9414  1.1640 -0.3169
  523SOL     MW 2092   0.821   1.486   2.123 -0.0545 -0.2103  0.1062
  524SOL     OW 2093   0.571   2.374   3.054  0.3322  0.0607 -0.4211
  524SOL    HW1 2094   0.575   2.445   2.985  1.1864 -3.5516 -1.2755
  524SOL    HW2 2095   0.645   2.319   3.044 -4.4136  2.6349  2.9653
  524SOL     MW 2096   0.582   2.376   3.044 -0.1812 -0.0763 -0.0870
  525SOL     OW 2097   0.305   2.170   2.108  0.1677 -0.1570 -0.5476
  525SOL    HW1 2098   0.271   2.109   2.181  0.1920  1.6053 -0.5414
  525SOL    HW2 2099   0.340   2.107   2.044 -1.5797  1.3809 -2.3588
  525SOL     MW 2100   0.305   2.154   2.109 -0.0596  0.2785 -0.7857
  526SOL     OW 2101   0.659   2.090   1.949  0.3991 -0.8398  0.7300
  526SOL    HW1 2102   0.708   2.095   1.873 -1.1666  2.0564 -3.3081
  526SOL    HW2 2103   0.718   2.117   2.015  0.4502  1.0090  1.3525
  526SOL     MW 2104   0.673   2.094   1.948  0.1993 -0.2138  0.2793
  527SOL     OW 2105   1.273   1.922   2.068  0.4433  0.2778  0.2927
  527SOL    HW1 2106   1.220   1.893   2.140  0.1082 -0.0966 -3.2011
  527SOL    HW2 2107   1.333   1.857   2.045 -3.0337 -0.8498  0.3288
  527SOL     MW 2108   1.274   1.910   2.075 -0.0597  0.0796 -0.1635
  528SOL     OW 2109   0.619   2.920   2.943  0.0642  0.8862  0.1908
  528SOL    HW1 2110   0.686   2.982   2.962  0.9229 -0.2639  1.0721
  528SOL    HW2 2111   0.590   2.919   2.855  0.8444 -1.1692  0.8366
  528SOL     MW 2112   0.624   2.928   2.934  0.2805  0.4632  0.3923
  529SOL     OW 2113   1.106   2.302   1.787 -0.1051  0.1231  0.5321
  529SOL    HW1 2114   1.178   2.284   1.849  1.4518 -1.1021 -0.5881
  529SOL    HW2 2115   1.154   2.284   1.706  0.1798  0.8914 -0.0180
  529SOL     MW 2116   1.122   2.297   1.785  0.1379  0.0628  0.3117
  530SOL     OW 2117   1.132   2.409   2.947  0.3779  0.3498 -0.2079
  530SOL    HW1 2118   1.055   2.446   2.984  1.5278 -0.3389  0.8133
  530SOL    HW2 2119   1.109   2.317   2.922 -0.8971 -0.4754 -0.2252
  530SOL     MW 2120   1.119   2.401   2.948  0.3614  0.1500 -0.0754
  531SOL     OW 2121   0.890   1.825   2.599  0.1283 -0.3685 -0.3634
  531SOL    HW1 2122   0.901   1.895   2.675 -1.0979  1.8227  1.2065
  531SOL    HW2 2123   0.856   1.738   2.637 -1.9842 -0.6649 -0.2591
  531SOL     MW 2124   0.887   1.822   2.614 -0.3122 -0.1185 -0.1425
  532SOL     OW 2125   1.722   0.363   2.791  0.3241  0.0800  0.5197
  532SOL    HW1 2126   1.667   0.283   2.793 -0.1926 -2.9294  0.1431
  532SOL    HW2 2127   1.753   0.370   2.878  0.4096  0.6170  0.8411
  532SOL     MW 2128   1.719   0.353   2.803  0.2672 -0.2462  0.5124
  533SOL     OW 2129   1.793   2.847   2.912 -0.2389  0.0004 -0.8192
  533SOL    HW1 2130   1.776   2.775   2.981 -0.0990  1.5332  0.6010
  533SOL    HW2 2131   1.726   2.839   2.843  0.2368  0.1582  0.9461
  533SOL     MW 2132   1.782   2.836   2.912 -0.1577  0.2235 -0.3989
  534SOL     OW 2133   1.776   2.541   2.511  0.2282 -0.0254  0.3386
  534SOL    HW1 2134   1.686   2.495   2.527  0.9718 -0.1168  0.6181
  534SOL    HW2 2135   1.826   2.542   2.586 -2.7685 -0.5629 -0.0685
  534SOL     MW 2136   1.771   2.535   2.523 -0.0691 -0.1083  0.3218
  535SOL     OW 2137   1.807   2.384   1.926 -0.0415  0.2485 -0.1950
  535SOL    HW1 2138   1.747   2.369   1.856  1.6314 -1.1040  0.7193
  535SOL    HW2 2139   1.885   2.427   1.889  0.8118  1.8717 -1.4481
  535SOL     MW 2140   1.810   2.388   1.912  0.2918  0.2842 -0.2397
  536SOL     OW 2141   0.389   1.930   1.983  0.4012 -0.5064 -0.4478
  536SOL    HW1 2142   0.391   1.986   1.900 -0.8358  0.5759  0.0841
  536SOL    HW2 2143   0.482   1.903   1.990  0.7830 -1.5790 -0.9054
  536SOL     MW 2144   0.401   1.934   1.973  0.2883 -0.5051 -0.4380
  537SOL     OW 2145   1.016   0.162   2.960 -0.5434  0.4239 -0.0046
  537SOL    HW1 2146   0.998   0.143   3.050  0.6279  0.4112 -0.3895
  537SOL    HW2 2147   0.990   0.253   2.957  0.8888 -2.5886  0.4549
  537SOL     MW 2148   1.010   0.171   2.972 -0.1999  0.0248  0.0053
  538SOL     OW 2149   1.315   0.082   2.961 -0.4860 -0.5726 -0.1382
  538SOL    HW1 2150   1.225   0.093   2.984 -1.1638  0.7583 -0.0525
  538SOL    HW2 2151   1.356   0.128   3.029 -1.8439 -2.2429 -3.3763
  538SOL     MW 2152   1.308   0.089   2.973 -0.7546 -0.6174 -0.5541
  539SOL     OW 2153   0.679   2.745   2.467 -0.6347  0.3695  0.1546
  539SOL    HW1 2154   0.749   2.788   2.523 -0.8315 -0.6357  0.0927
  539SOL    HW2 2155   0.714   2.653   2.465 -0.7179 -0.8833 -0.3930
  539SOL     MW 2156   0.693   2.738   2.474 -0.6717  0.0716  0.0742
  540SOL     OW 2157   0.378   2.253   2.858 -0.0342 -0.4143  0.6986
  540SOL    HW1 2158   0.453   2.293   2.904  1.1181  0.0668  1.8489
  540SOL    HW2 2159   0.338   2.198   2.923  1.1711 -0.4777  0.1911
  540SOL     MW 2160   0.383   2.251   2.872  0.2768 -0.3592  0.7834
  541SOL     OW 2161   0.161   2.881   2.254  0.2479  0.4264 -0.1605
  541SOL    HW1 2162   0.134   2.795   2.220  1.6227  0.4497 -1.6085
  541SOL    HW2 2163   0.215   2.862   2.326  1.7511 -1.8372 -2.2033
  541SOL     MW 2164   0.165   2.867   2.259  0.6276  0.1308 -0.6211
  542SOL     OW 2165   0.848   2.337   2.780 -0.3851  0.3558 -0.4338
  542SOL    HW1 2166   0.829   2.346   2.866  1.2354 -0.3612 -2.8861
  542SOL    HW2 2167   0.897   2.414   2.751  0.6580 -2.4614  0.0510
  542SOL     MW 2168   0.852   2.348   2.788 -0.0337 -0.1105 -0.6934
  543SOL     OW 2169   1.359   2.673   2.615  0.0762  0.4658  0.7395
  543SOL    HW1 2170   1.377   2.582   2.598 -1.3725  0.4130  0.3910
  543SOL    HW2 2171   1.444   2.710   2.634 -1.4866  0.0229 -0.6593
  543SOL     MW 2172   1.373   2.665   2.615 -0.3211  0.4004  0.5090
  544SOL     OW 2173   0.677   0.101   2.709  0.5236  0.2531  0.3213
  544SOL    HW1 2174   0.586   0.096   2.688 -1.3981  1.3872 -1.2840
  544SOL    HW2 2175   0.720   0.082   2.626 -0.4859  0.7095  3.1027
  544SOL     MW 2176   0.670   0.098   2.695  0.1369  0.4629  0.4765
  545SOL     OW 2177   1.539   2.182   2.396  0.0909 -0.1157 -0.2112
  545SOL    HW1 2178   1.501   2.101   2.430 -2.8794 -0.8824  1.2931
  545SOL    HW2 2179   1.610   2.147   2.347  1.7707 -1.0016  0.4631
  545SOL     MW 2180   1.543   2.166   2.394 -0.0794 -0.3338  0.0762
  546SOL     OW 2181   2.992   1.987   0.150  0.0949 -0.1189 -0.2290
  546SOL    HW1 2182   2.957   2.064   0.095  0.4864  3.3584 -0.5337
  546SOL    HW2 2183   3.072   1.958   0.115  0.3995  0.0891  0.2333
  546SOL     MW 2184   2.998   1.993   0.138  0.1867  0.3673 -0.2082
  547SOL     OW 2185   0.156   2.881   0.082  0.3576  0.0761  0.2730
  547SOL    HW1 2186   0.174   2.937   0.005  1.7342 -0.6891  0.1186
  547SOL    HW2 2187   0.193   2.792   0.065  2.0606 -1.4671 -0.2764
  547SOL     MW 2188   0.163   2.876   0.070  0.7639 -0.2284  0.1801
  548SOL     OW 2189   0.274   2.554   0.259 -0.0786  0.4139 -0.0950
  548SOL    HW1 2190   0.302   2.571   0.165  0.6681 -0.4098 -3.6538
  548SOL    HW2 2191   0.180   2.574   0.253  1.1844  0.4715  1.5568
  548SOL     MW 2192   0.265   2.559   0.246  0.1866  0.3128 -0.3466
  549SOL     OW 2193   0.699   1.838   2.105  0.5405 -0.1634 -0.7063
  549SOL    HW1 2194   0.707   1.931   2.081  1.3479 -3.3411  1.3610
  549SOL    HW2 2195   0.705   1.842   2.200 -3.7840  2.4920 -2.9114
  549SOL     MW 2196   0.701   1.851   2.114  0.0764 -0.2323 -0.7245
  550SOL     OW 2197   1.767   1.804   2.486  0.6512 -0.3489  0.5381
  550SOL    HW1 2198   1.741   1.798   2.391 -0.3908 -0.2240 -2.1288
  550SOL    HW2 2199   1.776   1.901   2.499 -1.2661  2.7953 -1.7500
  550SOL     MW 2200   1.765   1.816   2.475  0.2608  0.0825 -0.1157
  551SOL     OW 2201   0.869   2.363   0.205 -0.1836 -0.5438  0.2068
  551SOL    HW1 2202   0.961   2.376   0.197 -0.9056  1.7997 -2.5915
  551SOL    HW2 2203   0.846   2.297   0.145  2.6217 -0.4617 -0.6694
  551SOL     MW 2204   0.878   2.356   0.196  0.0913 -0.2237 -0.2780
  552SOL     OW 2205   1.678   1.816   2.212 -0.1288 -0.0663  0.6034
  552SOL    HW1 2206   1.599   1.758   2.212 -1.5596 -0.9632 -1.4190
  552SOL    HW2 2207   1.744   1.760   2.169  2.6519  1.9955 -1.3979
  552SOL     MW 2208   1.676   1.801   2.206  0.0493  0.0874  0.0725
  553SOL     OW 2209   1.245   2.304   1.535 -0.0451  0.3987 -0.3409
  553SOL    HW1 2210   1.289   2.217   1.539  0.4717  1.5563  1.5606
  553SOL    HW2 2211   1.308   2.366   1.497 -2.3318  1.2618  0.2644
  553SOL     MW 2212   1.259   2.300   1.530 -0.2786  0.6653 -0.0102
  554SOL     OW 2213   0.551   2.871   2.693  0.3555 -0.4003  0.1736
  554SOL    HW1 2214   0.505   2.950   2.657 -0.6385 -1.1280 -0.4315
  554SOL    HW2 2215   0.579   2.822   2.614  1.1099 -2.7224  0.3696
  554SOL     MW 2216   0.549   2.875   2.678  0.3239 -0.8027  0.1196
  555SOL     OW 2217   0.598   2.426   2.644 -0.1763  0.0834  0.1583
  555SOL    HW1 2218   0.586   2.328   2.652 -0.3136  0.6692 -2.4173
  555SOL    HW2 2219   0.683   2.462   2.605 -0.6076  1.0636 -1.8501
  555SOL     MW 2220   0.608   2.418   2.640 -0.2513  0.2900 -0.4465
  556SOL     OW 2221   1.051   1.845   0.124  0.1484 -0.0753  0.0867
  556SOL    HW1 2222   1.058   1.834   0.030 -0.1388  0.7769 -1.0918
  556SOL    HW2 2223   1.140   1.853   0.158 -2.0817 -2.2759  1.7662
  556SOL     MW 2224   1.064   1.844   0.116 -0.1837 -0.2532  0.1528
  557SOL     OW 2225   0.996   2.633   0.437  0.7481 -0.1522 -0.5095
  557SOL    HW1 2226   1.077   2.611   0.392 -1.9467 -1.1586 -0.7219
  557SOL    HW2 2227   0.960   2.711   0.398  0.7374  2.2423  0.9154
  557SOL     MW 2228   1.002   2.640   0.426  0.3911  0.0309 -0.3495
  558SOL     OW 2229   0.263   2.120   3.072  0.0457 -0.1473 -0.5208
  558SOL    HW1 2230   0.204   2.044   3.077 -0.7327  0.3678 -0.3340
  558SOL    HW2 2231   0.218   2.192   3.124 -2.3124  1.7880  2.8626
  558SOL     MW 2232   0.250   2.119   3.079 -0.3681  0.1760 -0.0497
  559SOL     OW 2233   1.237   2.235   2.029  0.0971  0.1831  0.0520
  559SOL    HW1 2234   1.266   2.321   2.062  0.7165  1.6079  1.8676
  559SOL    HW2 2235   1.202   2.183   2.100  1.0355 -1.0517 -0.8418
  559SOL     MW 2236   1.236   2.239   2.043  0.3026  0.2082  0.1736
  560SOL     OW 2237   1.930   2.948   0.043 -0.0403  0.4577 -0.3153
  560SOL    HW1 2238   1.996   2.995  -0.001  1.8496  0.8562  0.0328
  560SOL    HW2 2239   1.882   2.917  -0.037 -1.0676 -0.3787 -1.3435
  560SOL     MW 2240   1.932   2.950   0.027  0.0735  0.3999 -0.4050
  561SOL     OW 2241   0.436   2.067   0.183  0.7395 -0.0372  0.1523
  561SOL    HW1 2242   0.392   2.080   0.103  2.0677  0.0264 -3.2133
  561SOL    HW2 2243   0.441   2.158   0.224 -1.0480 -1.0051 -2.7273
  561SOL     MW 2244   0.431   2.081   0.178  0.6789 -0.1565 -0.6717
  562SOL     OW 2245   0.854   2.114   2.136 -0.4390  0.0931  0.1495
  562SOL    HW1 2246   0.805   2.184   2.178 -3.8699 -0.9036 -0.7402
  562SOL    HW2 2247   0.940   2.110   2.186  2.4637 -0.0180  2.2312
  562SOL     MW 2248   0.859   2.122   2.148 -0.5087 -0.0530  0.3068
  563SOL     OW 2249   1.276   0.302   0.477 -0.1306  0.1224  0.3437
  563SOL    HW1 2250   1.224   0.242   0.415  0.8491 -3.0676 -0.4344
  563SOL    HW2 2251   1.305   0.248   0.551  1.0302  1.2237 -2.8119
  563SOL     MW 2252   1.273   0.287   0.479  0.1518 -0.1532 -0.1753
  564SOL     OW 2253   1.017   2.543   2.338  0.2138  0.6409 -0.4386
  564SOL    HW1 2254   1.056   2.531   2.249 -2.1116 -3.2625 -1.3448
  564SOL    HW2 2255   1.067   2.611   2.384 -1.9054 -1.6386  1.0237
  564SOL     MW 2256   1.029   2.550   2.333 -0.3726 -0.1749 -0.3652
  565SOL     OW 2257   2.921   2.661   2.690  0.1910  0.6923  0.6004
  565SOL    HW1 2258   2.978   2.734   2.680  0.4014  0.1051 -0.4043
  565SOL    HW2 2259   2.874   2.671   2.609 -0.3842  1.0053 -2.0362
  565SOL     MW 2260   2.922   2.672   2.678  0.1429  0.6561  0.1200
  566SOL     OW 2261   2.157   2.084   2.341 -0.1501 -0.6992  0.3225
  566SOL    HW1 2262   2.185   2.097   2.250 -0.4073  0.2278  1.1702
  566SOL    HW2 2263   2.207   2.145   2.395  2.0457 -2.6140  0.3566
  566SOL     MW 2264   2.167   2.094   2.336  0.1057 -0.8295  0.4388
  567SOL     OW 2265   1.130   2.879   0.141  0.3911 -0.0350 -0.5859
  567SOL    HW1 2266   1.126   2.967   0.177  0.8039  1.8928  0.1401
  567SOL    HW2 2267   1.160   2.883   0.050  0.7916 -1.8592 -3.4622
  567SOL     MW 2268   1.134   2.891   0.134  0.4984 -0.0213 -0.8696
  568SOL     OW 2269   1.635   2.147   2.787  0.1626 -0.2551  0.2080
  568SOL    HW1 2270   1.701   2.200   2.833 -1.5845 -0.4606 -1.0934
  568SOL    HW2 2271   1.689   2.101   2.721 -0.3817  1.9328 -2.9440
  568SOL     MW 2272   1.651   2.148   2.784 -0.1398  0.0064 -0.3796
  569SOL     OW 2273   0.027   2.233   2.507  0.0230  0.0595 -0.1440
  569SOL    HW1 2274  -0.013   2.284   2.443 -0.5886  1.6294  0.3910
  569SOL    HW2 2275   0.091   2.287   2.546 -2.7120  0.5373 -0.6971
  569SOL     MW 2276   0.030   2.247   2.504 -0.4186  0.3297 -0.1464
  570SOL     OW 2277   1.561   0.345   0.459 -0.0019  0.4318 -0.2559
  570SOL    HW1 2278   1.464   0.335   0.464 -0.3332 -2.7532  1.4399
  570SOL    HW2 2279   1.581   0.403   0.531 -0.2665  1.4121  1.4102
  570SOL     MW 2280   1.551   0.351   0.469 -0.0805  0.1409  0.1876
  571SOL     OW 2281   1.440   2.441   1.966  0.0149  0.3713  0.7480
  571SOL    HW1 2282   1.463   2.440   2.059  0.9118 -1.1220 -2.8071
  571SOL    HW2 2283   1.461   2.348   1.955 -1.6238 -0.8388  0.0707
  571SOL     MW 2284   1.446   2.429   1.977 -0.0829  0.0146  0.1896
  572SOL     OW 2285   0.910   2.536   3.048 -0.0697 -0.3446  0.1074
  572SOL    HW1 2286   0.871   2.607   2.990  0.6009  0.5946 -0.4461
  572SOL    HW2 2287   0.841   2.518   3.111  1.2829 -0.7191  0.6480
  572SOL     MW 2288   0.895   2.543   3.049  0.1973 -0.2701  0.1057
  573SOL     OW 2289   1.149   2.421   0.206  0.1918 -0.2739 -0.1755
  573SOL    HW1 2290   1.225   2.394   0.158 -2.1872 -0.2356  1.2874
  573SOL    HW2 2291   1.176   2.507   0.243  1.4679  0.3669  0.0986
  573SOL     MW 2292   1.163   2.429   0.205  0.0462 -0.1843  0.0537
  574SOL     OW 2293   1.244   2.651   0.276  0.4451  0.3575 -0.2830
  574SOL    HW1 2294   1.330   2.678   0.307  0.6494 -3.1179  1.4432
  574SOL    HW2 2295   1.215   2.730   0.235  2.6810  0.5323 -0.4632
  574SOL     MW 2296   1.252   2.665   0.275  0.7670 -0.0780 -0.0791
  575SOL     OW 2297   3.080   2.265   1.826 -0.5826  0.1176 -0.7325
  575SOL    HW1 2298   3.073   2.193   1.768 -1.7022 -0.8660 -1.0978
  575SOL    HW2 2299   3.138   2.339   1.791 -0.0692  1.3609  1.4999
  575SOL     MW 2300   3.087   2.266   1.814 -0.6626  0.1518 -0.4862
  576SOL     OW 2301   2.777   1.843   2.064  0.9879 -0.0831 -0.2598
  576SOL    HW1 2302   2.781   1.917   2.005  0.3999 -2.4258  0.1647
  576SOL    HW2 2303   2.708   1.797   2.017  1.9078 -0.2647 -1.3909
  576SOL     MW 2304   2.769   1.847   2.050  1.0317 -0.4161 -0.3531
  577SOL     OW 2305   2.055   0.345   0.081  0.1991 -0.3186 -0.0457
  577SOL    HW1 2306   2.003   0.373   0.012  1.1382 -0.6343  1.1647
  577SOL    HW2 2307   1.996   0.275   0.128 -2.1818 -2.3239 -0.0117
  577SOL     MW 2308   2.040   0.339   0.078  0.0089 -0.6248  0.1185
  578SOL     OW 2309   1.924   2.204   2.357  0.0129  0.1824 -0.6060
  578SOL    HW1 2310   1.857   2.135   2.357 -2.0546 -1.7763 -0.2412
  578SOL    HW2 2311   2.017   2.163   2.352  1.7546 -0.8353 -0.5154
  578SOL     MW 2312   1.927   2.190   2.357 -0.0301 -0.2103 -0.5459
  579SOL     OW 2313   0.815   2.497   2.497 -0.2781 -0.2659  0.2142
  579SOL    HW1 2314   0.874   2.477   2.565  0.9064 -1.3117  0.0518
  579SOL    HW2 2315   0.885   2.526   2.430 -0.1647 -0.0834 -2.3334
  579SOL     MW 2316   0.832   2.498   2.498 -0.1069 -0.3798 -0.1434
  580SOL     OW 2317   0.872   2.861   3.056 -0.5211 -0.3122  0.1230
  580SOL    HW1 2318   0.941   2.807   3.093 -2.9411  1.2005 -0.2313
  580SOL    HW2 2319   0.825   2.801   2.993 -0.0605  1.7463 -0.6433
  580SOL     MW 2320   0.875   2.846   3.052 -0.7796  0.1590 -0.0249
  581SOL     OW 2321   1.062   2.560   1.767 -0.1656  1.2052  0.2024
  581SOL    HW1 2322   1.150   2.597   1.793  1.1398 -2.2472  0.5352
  581SOL    HW2 2323   1.098   2.471   1.733  1.9472 -0.9068  0.1185
  581SOL     MW 2324   1.079   2.553   1.766  0.2854  0.4710  0.2353
  582SOL     OW 2325  -0.004   2.885   2.637  0.0604 -0.2543  0.0401
  582SOL    HW1 2326   0.008   2.961   2.692  1.3899 -1.1612 -0.1678
  582SOL    HW2 2327   0.087   2.854   2.611 -1.4030  2.5073 -1.9241
  582SOL     MW 2328   0.010   2.891   2.640  0.0428 -0.0096 -0.2465
  583SOL     OW 2329   1.941   2.512   2.725 -0.2255  0.3309 -0.1760
  583SOL    HW1 2330   1.987   2.580   2.664  1.3912  0.6752 -2.7202
  583SOL    HW2 2331   1.954   2.425   2.684  0.3666  0.7067 -0.3825
  583SOL     MW 2332   1.949   2.509   2.712  0.0660  0.4260 -0.5389
  584SOL     OW 2333   0.161   1.832   2.111 -0.0183 -0.2140 -0.0507
  584SOL    HW1 2334   0.244   1.855   2.063 -1.2938  0.1646 -0.2798
  584SOL    HW2 2335   0.159   1.882   2.193 -3.3147  1.3036 -0.2435
  584SOL     MW 2336   0.172   1.842   2.115 -0.6216  0.0362 -0.1064
  585SOL     OW 2337   1.441   2.553   0.057 -0.7803  0.2854 -0.9847
  585SOL    HW1 2338   1.432   2.565  -0.035  2.5366  2.3485  1.8754
  585SOL    HW2 2339   1.371   2.607   0.101  0.3322 -3.1640 -1.6952
  585SOL     MW 2340   1.431   2.562   0.051 -0.1959  0.1025 -0.7011
  586SOL     OW 2341   1.263   2.972   2.329  0.3937  0.1233  0.0515
  586SOL    HW1 2342   1.337   2.917   2.324 -1.3964 -0.7211  4.7573
  586SOL    HW2 2343   1.275   3.009   2.416 -0.4921  0.6482 -0.7572
  586SOL     MW 2344   1.275   2.970   2.340  0.0406  0.0812  0.5657
  587SOL     OW 2345   1.206   1.619   2.165  0.2599  0.1648 -0.1032
  587SOL    HW1 2346   1.226   1.547   2.227 -1.5219  1.6602 -0.6014
  587SOL    HW2 2347   1.202   1.570   2.076 -0.0673  0.1239 -2.2588
  587SOL     MW 2348   1.208   1.603   2.161 -0.0184  0.3567 -0.4534
  588SOL     OW 2349   1.382   2.213   2.752  0.0056  0.0609  0.2169
  588SOL    HW1 2350   1.469   2.173   2.767 -1.0407  2.9339  0.5246
  588SOL    HW2 2351   1.314   2.213   2.833 -2.4949 -0.0056  0.5145
  588SOL     MW 2352   1.385   2.208   2.765 -0.4624  0.4312  0.2968
  589SOL     OW 2353   1.320   2.059   0.000  0.2779  0.3371 -0.2021
  589SOL    HW1 2354   1.319   2.146   0.040 -1.1062  1.7288  0.7289
  589SOL    HW2 2355   1.322   2.011   0.080 -1.8025  1.7880 -1.0322
  589SOL     MW 2356   1.320   2.064   0.016 -0.1792  0.7121 -0.1888
  590SOL     OW 2357   0.459   2.549   2.245  0.5990 -0.1114  0.4107
  590SOL    HW1 2358   0.411   2.591   2.169 -1.4413  0.1403  1.0263
  590SOL    HW2 2359   0.535   2.519   2.199 -0.3995  1.1130 -1.5273
  590SOL     MW 2360   0.463   2.551   2.229  0.1980  0.0834  0.2362
  591SOL     OW 2361   2.215   0.682   3.007 -0.1412  0.2516 -0.1047
  591SOL    HW1 2362   2.115   0.663   2.995 -2.6620  1.3475  1.1388
  591SOL    HW2 2363   2.249   0.688   2.919 -0.9237 -0.0005  0.1223
  591SOL     MW 2364   2.206   0.680   2.994 -0.5770  0.3629  0.0893
  592SOL     OW 2365   1.835   2.890   0.813 -0.8223  0.2943  0.0636
  592SOL    HW1 2366   1.886   2.946   0.748  1.8138  0.6600 -0.4945
  592SOL    HW2 2367   1.854   2.802   0.792 -2.1843 -0.4179 -0.0530
  592SOL     MW 2368   1.844   2.886   0.802 -0.6542  0.2486 -0.0254
  593SOL     OW 2369   1.920   0.843   0.910  0.2223  0.0921 -0.1493
  593SOL    HW1 2370   1.836   0.838   0.864 -1.5334  1.9630  3.3340
  593SOL    HW2 2371   1.948   0.748   0.916  0.3907 -1.1626  3.1346
  593SOL     MW 2372   1.912   0.830   0.905  0.0129  0.1734  0.7436
  594SOL     OW 2373   2.770   1.112   1.395  0.0922  0.5352 -0.0237
  594SOL    HW1 2374   2.855   1.152   1.388  1.4368 -0.5293 -1.3656
  594SOL    HW2 2375   2.746   1.073   1.308 -2.4425  0.0638 -0.3306
  594SOL     MW 2376   2.778   1.112   1.382 -0.0648  0.3326 -0.2413
  595SOL     OW 2377   0.416   0.997   0.734 -0.1516 -0.2965  0.7776
  595SOL    HW1 2378   0.477   1.044   0.661  2.9587  1.1730 -3.0937
  595SOL    HW2 2379   0.455   1.020   0.823 -0.7555  0.9568 -0.0185
  595SOL     MW 2380   0.429   1.006   0.736  0.1791  0.0628  0.1618
  596SOL     OW 2381   2.416   1.336   0.617 -0.0819 -0.1033  0.0940
  596SOL    HW1 2382   2.445   1.425   0.594 -0.6327  0.8837 -0.0849
  596SOL    HW2 2383   2.494   1.298   0.667 -0.9694 -3.2074 -0.9407
  596SOL     MW 2384   2.430   1.343   0.620 -0.2716 -0.3826 -0.0661
  597SOL     OW 2385   2.287   0.681   1.718 -0.6177  0.5993  0.3165
  597SOL    HW1 2386   2.310   0.618   1.781 -1.5480 -1.7402  0.6524
  597SOL    HW2 2387   2.302   0.629   1.638  2.4043  0.5246  1.5328
  597SOL     MW 2388   2.292   0.666   1.716 -0.3417  0.2808  0.5213
  598SOL     OW 2389   2.623   1.007   2.812  0.2537 -0.1988  0.5397
  598SOL    HW1 2390   2.662   0.941   2.751 -1.0777  0.9233  0.1639
  598SOL    HW2 2391   2.685   1.039   2.873  1.0890 -2.6795  2.0809
  598SOL     MW 2392   2.637   1.003   2.812  0.1883 -0.3781  0.6934
  599SOL     OW 2393   2.906   0.370   2.078  0.0722 -0.0830 -0.6237
  599SOL    HW1 2394   2.901   0.351   2.172 -4.7782 -0.0279 -0.7313
  599SOL    HW2 2395   2.968   0.443   2.066 -0.5001  0.0924  2.9301
  599SOL     MW 2396   2.913   0.377   2.089 -0.6433 -0.0526 -0.1690
  600SOL     OW 2397   1.850   1.622   0.864  0.1735  0.1968  0.2530
  600SOL    HW1 2398   1.892   1.634   0.949 -0.8633 -0.6954 -2.6330
  600SOL    HW2 2399   1.780   1.686   0.862 -2.3000  0.3853  0.3616
  600SOL     MW 2400   1.846   1.632   0.875 -0.2896  0.1040 -0.1135
  601SOL     OW 2401   2.456   0.738   0.891 -0.0267  0.3138  0.1053
  601SOL    HW1 2402   2.467   0.718   0.986 -0.8591  0.8281 -0.6796
  601SOL    HW2 2403   2.374   0.783   0.900  4.1716  0.2442  0.3818
  601SOL     MW 2404   2.447   0.741   0.905  0.4174  0.3725  0.0382
  602SOL     OW 2405   2.265   1.931   0.720 -0.3538 -0.0455 -0.5773
  602SOL    HW1 2406   2.205   1.859   0.748  2.5021 -1.1941 -1.0962
  602SOL    HW2 2407   2.259   1.933   0.621 -0.9742  1.9402 -1.6477
  602SOL     MW 2408   2.257   1.922   0.711 -0.0588  0.0649 -0.7870
  603SOL     OW 2409   3.007   1.347   1.841 -0.4413 -0.4002 -0.1214
  603SOL    HW1 2410   3.085   1.340   1.893  1.5573  0.5836 -1.2354
  603SOL    HW2 2411   2.988   1.259   1.817  0.4349 -1.2133  0.9719
  603SOL     MW 2412   3.015   1.334   1.845 -0.0620 -0.3777 -0.1241
  604SOL     OW 2413   2.059   1.506   0.499 -0.4764 -0.6135  0.2920
  604SOL    HW1 2414   2.085   1.453   0.573 -0.6045  0.2850  0.7874
  604SOL    HW2 2415   1.983   1.551   0.523  0.2453  0.6448  0.9637
  604SOL     MW 2416   2.053   1.505   0.512 -0.3980 -0.3289  0.4460
  605SOL     OW 2417   2.664   1.542   0.805 -0.1562 -0.1848 -0.5559
  605SOL    HW1 2418   2.612   1.612   0.759 -1.3415  0.2974 -0.3461
  605SOL    HW2 2419   2.586   1.513   0.856 -1.2408  0.3255  2.5130
  605SOL     MW 2420   2.647   1.547   0.806 -0.4557 -0.0539 -0.1233
  606SOL     OW 2421   2.532   1.825   1.895 -0.0846 -0.1768  0.0295
  606SOL    HW1 2422   2.441   1.802   1.918  0.4215 -3.0704  0.9882
  606SOL    HW2 2423   2.559   1.733   1.884 -2.0327 -1.0593  0.7701
  606SOL     MW 2424   2.523   1.810   1.896 -0.2749 -0.6750  0.2537
  607SOL     OW 2425   2.382   1.035   2.976 -0.4818 -0.2330 -0.0161
  607SOL    HW1 2426   2.464   1.047   2.923 -0.2788 -2.0553  2.3240
  607SOL    HW2 2427   2.399   1.061   3.064 -2.7403  1.2660  1.2183
  607SOL     MW 2428   2.395   1.040   2.981 -0.7530 -0.2757  0.4555
  608SOL     OW 2429   1.914   0.253   0.663  0.3693 -0.6246 -0.1859
  608SOL    HW1 2430   1.951   0.277   0.578  0.7797 -3.3717 -0.9532
  608SOL    HW2 2431   1.897   0.153   0.657 -0.0065 -0.1626 -4.8659
  608SOL     MW 2432   1.917   0.243   0.651  0.3739 -0.9261 -0.9046
  609SOL     OW 2433   2.126   1.953   3.002  0.2792 -0.2326  0.1227
  609SOL    HW1 2434   2.039   1.925   2.977  1.2721 -0.4660 -1.5264
  609SOL    HW2 2435   2.134   1.938   3.096 -3.5824 -0.5046  0.7360
  609SOL     MW 2436   2.116   1.947   3.011 -0.0993 -0.2993 -0.0140
  610SOL     OW 2437   1.846   1.088   1.373  0.3716  0.5707 -0.5652
  610SOL    HW1 2438   1.876   1.020   1.313 -1.1150  1.9932 -0.3682
  610SOL    HW2 2439   1.768   1.044   1.419  0.1742 -0.8266  0.6980
  610SOL     MW 2440   1.840   1.074   1.371  0.1494  0.5740 -0.3725
  611SOL     OW 2441   2.514   1.791   0.726 -0.0515 -0.6984 -0.3345
  611SOL    HW1 2442   2.423   1.828   0.711 -2.4247  0.2777 -1.2255
  611SOL    HW2 2443   2.516   1.751   0.639 -1.0102 -0.9639  1.3131
  611SOL     MW 2444   2.502   1.790   0.713 -0.4911 -0.6047 -0.2347
  612SOL     OW 2445   2.772   2.777   0.393  0.3465 -0.0092  0.9214
  612SOL    HW1 2446   2.800   2.837   0.467  0.2867 -0.3695 -1.1224
  612SOL    HW2 2447   2.848   2.772   0.336  1.3647 -1.5931  2.1463
  612SOL     MW 2448   2.786   2.784   0.395  0.4730 -0.2657  0.8133
  613SOL     OW 2449   1.636   1.002   1.103 -0.2659  0.2842 -0.0898
  613SOL    HW1 2450   1.627   1.092   1.125 -0.4977 -1.5753  1.1816
  613SOL    HW2 2451   1.692   0.964   1.167 -1.1310 -1.0453  0.2521
  613SOL     MW 2452   1.643   1.009   1.114 -0.4107 -0.1365  0.1231
  614SOL     OW 2453   2.012   0.516   1.522 -0.7155  0.1148  0.4220
  614SOL    HW1 2454   2.013   0.429   1.570 -2.9617  1.1428  1.3085
  614SOL    HW2 2455   2.047   0.494   1.437 -1.0323  0.8950 -0.9992
  614SOL     MW 2456   2.017   0.501   1.517 -1.0537  0.3534  0.3515
  615SOL     OW 2457   2.232   0.791   0.176 -0.1411  0.1263 -0.3039
  615SOL    HW1 2458   2.285   0.747   0.246  0.2953 -1.7480  0.4353
  615SOL    HW2 2459   2.278   0.767   0.094 -0.3890  2.0125  0.2640
  615SOL     MW 2460   2.245   0.782   0.174 -0.1162  0.1279 -0.1315
  616SOL     OW 2461   2.632   0.356   1.635  0.0962 -0.1718  0.2038
  616SOL    HW1 2462   2.565   0.303   1.594  0.7728  0.1417 -1.7422
  616SOL    HW2 2463   2.612   0.446   1.607 -1.5490  1.2870  1.1549
  616SOL     MW 2464   2.620   0.361   1.626 -0.0316  0.0620  0.0725
  617SOL     OW 2465   2.920   0.570   1.752  0.4950  0.0618  0.3239
  617SOL    HW1 2466   2.833   0.584   1.794 -3.6176 -2.1592 -1.5902
  617SOL    HW2 2467   2.916   0.476   1.726  1.4889  0.8373  2.2886
  617SOL     MW 2468   2.908   0.559   1.754  0.0835 -0.1289  0.3306
  618SOL     OW 2469   2.672   0.362   1.930  0.0690  0.2205  0.1926
  618SOL    HW1 2470   2.665   0.450   1.887  1.7609  0.8877 -0.9914
  618SOL    HW2 2471   2.754   0.360   1.982  0.4183 -0.1009 -2.9735
  618SOL     MW 2472   2.682   0.373   1.932  0.3383  0.2661 -0.3813
  619SOL     OW 2473   2.576   0.812   0.152  0.4535  0.8845 -0.1809
  619SOL    HW1 2474   2.652   0.845   0.202 -0.6244  1.6467 -1.2029
  619SOL    HW2 2475   2.516   0.776   0.217 -0.4715  1.0858  0.5428
  619SOL     MW 2476   2.578   0.811   0.167  0.1893  1.0116 -0.2202
  620SOL     OW 2477   2.295   1.145   0.937  0.1123  0.1059 -0.1978
  620SOL    HW1 2478   2.374   1.110   0.891  1.3730 -1.8638  1.8565
  620SOL    HW2 2479   2.222   1.085   0.915 -1.8380 -1.0205 -0.2331
  620SOL     MW 2480   2.296   1.133   0.928  0.0213 -0.3026  0.0686
  621SOL     OW 2481   1.518   2.152   1.986  0.6233 -0.3636  0.6232
  621SOL    HW1 2482   1.429   2.128   2.000  0.6899  0.3036 -0.2712
  621SOL    HW2 2483   1.553   2.140   2.075 -2.4415 -0.4439  0.3593
  621SOL     MW 2484   1.511   2.147   1.999  0.2277 -0.2861  0.4704
  622SOL     OW 2485   2.630   0.229   0.098 -0.2770 -0.1393  0.2642
  622SOL    HW1 2486   2.699   0.246   0.164  0.8924 -1.5637  1.9313
  622SOL    HW2 2487   2.636   0.135   0.087  2.5997  2.0734  0.0470
  622SOL     MW 2488   2.640   0.219   0.105  0.2568 -0.0353  0.4555
  623SOL     OW 2489   2.417   2.766   0.824 -0.6133 -0.0842 -0.2563
  623SOL    HW1 2490   2.474   2.846   0.840 -1.0367  2.1233 -1.2999
  623SOL    HW2 2491   2.341   2.765   0.881  1.5175 -0.0984 -0.4568
  623SOL     MW 2492   2.414   2.776   0.834 -0.3880  0.2052 -0.4204
  624SOL     OW 2493   2.203   1.626   2.904 -0.1811  0.1889  0.2640
  624SOL    HW1 2494   2.121   1.602   2.951 -0.1756 -1.2328 -0.0747
  624SOL    HW2 2495   2.206   1.720   2.920  0.2762 -1.3688  1.2179
  624SOL     MW 2496   2.193   1.635   2.913 -0.1200 -0.2042  0.3451
  625SOL     OW 2497   2.207   1.940   1.091 -0.5767 -0.1419  0.0560
  625SOL    HW1 2498   2.293   1.923   1.127 -1.4357  1.2043  0.6962
  625SOL    HW2 2499   2.213   1.899   1.002  0.1777 -1.8039 -1.4481
  625SOL     MW 2500   2.219   1.933   1.084 -0.5905 -0.1836 -0.0580
  626SOL     OW 2501   0.109   1.584   2.417  0.1078  0.2592 -0.4018
  626SOL    HW1 2502   0.039   1.533   2.378  2.9753 -0.1512 -1.2110
  626SOL    HW2 2503   0.073   1.613   2.505  2.0529 -3.3583  0.3603
  626SOL     MW 2504   0.095   1.581   2.423  0.7427 -0.2723 -0.4080
  627SOL     OW 2505   2.450   0.830   2.586  0.4143  0.4077 -0.1113
  627SOL    HW1 2506   2.381   0.904   2.574 -0.7288  1.0392  0.4429
  627SOL    HW2 2507   2.439   0.773   2.508 -0.1835  0.7254  0.7952
  627SOL     MW 2508   2.439   0.833   2.574  0.1846  0.5329  0.0814
  628SOL     OW 2509   2.327   1.375   1.356  0.6379 -0.5196  0.1610
  628SOL    HW1 2510   2.297   1.300   1.296  0.2369  0.5377  0.3607
  628SOL    HW2 2511   2.417   1.391   1.328 -1.2650  0.5467  2.6686
  628SOL     MW 2512   2.335   1.368   1.344  0.3339 -0.2394  0.5182
  629SOL     OW 2513   2.049   0.552   1.220  0.3038  0.5183 -0.5064
  629SOL    HW1 2514   2.095   0.631   1.192 -1.5371 -1.0001  0.0862
  629SOL    HW2 2515   1.964   0.581   1.253  0.1455 -1.1258  1.5983
  629SOL     MW 2516   2.044   0.567   1.221  0.0400  0.1011 -0.1505
  630SOL     OW 2517   2.489   1.827   3.094 -0.2877 -0.3255 -0.1135
  630SOL    HW1 2518   2.431   1.879   3.039 -0.7154 -0.2525  0.1959
  630SOL    HW2 2519   2.467   1.737   3.068 -0.2853 -4.2568 -2.3009
  630SOL     MW 2520   2.478   1.822   3.083 -0.3438 -0.8345 -0.3613
  631SOL     OW 2521   1.976   1.761   1.623 -0.1612 -0.8590 -0.1972
  631SOL    HW1 2522   2.010   1.681   1.681  0.9617 -0.2010  1.1943
  631SOL    HW2 2523   1.961   1.723   1.541 -0.1241  1.0347  1.7890
  631SOL     MW 2524   1.978   1.745   1.620 -0.0082 -0.5223  0.2485
  632SOL     OW 2525   0.167   2.071   1.596 -0.0394 -0.0551 -0.1190
  632SOL    HW1 2526   0.079   2.050   1.637  1.5807 -0.4622 -1.7657
  632SOL    HW2 2527   0.189   1.985   1.551  2.9131  0.7255  2.4478
  632SOL     MW 2528   0.158   2.057   1.596  0.5639 -0.0058  0.0024
  633SOL     OW 2529   2.423   0.693   0.353 -0.5504 -0.1286 -0.0972
  633SOL    HW1 2530   2.506   0.666   0.398  0.4861  1.2867  1.4918
  633SOL    HW2 2531   2.375   0.599   0.354  1.8715  0.5901 -0.3849
  633SOL     MW 2532   2.428   0.677   0.359 -0.0941  0.1529  0.0745
  634SOL     OW 2533   2.626   3.093   0.609  0.9665  0.1594 -0.2217
  634SOL    HW1 2534   2.662   3.182   0.610  0.5130  0.3706 -1.4435
  634SOL    HW2 2535   2.586   3.079   0.521  0.7282 -2.3028  1.5505
  634SOL     MW 2536   2.625   3.103   0.597  0.8752 -0.1376 -0.1491
  635SOL     OW 2537   2.629   0.098   1.837 -0.3573  0.4178  0.0384
  635SOL    HW1 2538   2.692   0.059   1.772  1.7340  1.1942  1.3808
  635SOL    HW2 2539   2.651   0.193   1.846  3.3001  1.9331 -1.2712
  635SOL     MW 2540   2.640   0.106   1.829  0.4012  0.7201  0.0427
  636SOL     OW 2541   2.916   1.676   1.023 -0.0736 -0.4178  0.4020
  636SOL    HW1 2542   2.859   1.741   0.975 -0.4689 -1.1206  1.6870
  636SOL    HW2 2543   2.930   1.718   1.110  0.2357 -1.1621 -0.6174
  636SOL     MW 2544   2.911   1.690   1.028 -0.0849 -0.6087  0.4371
  637SOL     OW 2545   2.911   1.488   0.703  0.5378  0.0469  0.2575
  637SOL    HW1 2546   2.972   1.559   0.717  0.0646 -0.6103 -2.8654
  637SOL    HW2 2547   2.829   1.507   0.749  0.3134  2.3197  0.4201
  637SOL     MW 2548   2.908   1.499   0.711  0.4457  0.2600 -0.1331
  638SOL     OW 2549   2.671   0.682   0.482  0.5118 -0.4045  0.2530
  638SOL    HW1 2550   2.764   0.662   0.465  1.1954 -0.8892  0.1875
  638SOL    HW2 2551   2.656   0.645   0.569 -1.5364 -0.1284  0.1952
  638SOL     MW 2552   2.681   0.674   0.491  0.3318 -0.4320  0.2368
  639SOL     OW 2553   1.904   3.085   0.638 -0.8674 -0.2973  0.5584
  639SOL    HW1 2554   1.827   3.076   0.584  0.9834 -0.2322 -3.5866
  639SOL    HW2 2555   1.977   3.083   0.580  0.0717  2.5848 -1.0154
  639SOL     MW 2556   1.904   3.084   0.623 -0.4993  0.0916 -0.1961
  640SOL     OW 2557   0.389   1.378   0.116  0.1276 -0.7565  0.0208
  640SOL    HW1 2558   0.427   1.413   0.033 -1.0101  2.4238 -0.3513
  640SOL    HW2 2559   0.356   1.291   0.082  0.1585 -0.4042 -1.3349
  640SOL     MW 2560   0.389   1.371   0.101 -0.0185 -0.2904 -0.2072
  641SOL     OW 2561   2.312   0.463   0.380  0.2992  0.1821 -0.3766
  641SOL    HW1 2562   2.311   0.420   0.294 -0.8957 -0.0493 -0.8630
  641SOL    HW2 2563   2.382   0.416   0.436  3.0881 -0.2560 -0.0168
  641SOL     MW 2564   2.321   0.451   0.376  0.5095  0.0938 -0.3933
  642SOL     OW 2565   3.085   0.032   0.480 -0.1193 -0.2722  0.1231
  642SOL    HW1 2566   3.047   0.120   0.491 -0.8598 -0.8356 -0.6248
  642SOL    HW2 2567   3.027  -0.027   0.524  1.9585 -0.3291  0.1674
  642SOL     MW 2568   3.072   0.036   0.487  0.0572 -0.3541  0.0303
  643SOL     OW 2569   2.080   0.277   1.643 -0.6890  0.3407 -0.6932
  643SOL    HW1 2570   2.152   0.259   1.700 -0.6782  0.1190 -0.7942
  643SOL    HW2 2571   2.080   0.218   1.571 -0.6367  1.8899  0.1092
  643SOL     MW 2572   2.089   0.267   1.641 -0.6807  0.5158 -0.6007
  644SOL     OW 2573   2.730   1.839   0.911 -0.3659  0.3286 -0.2240
  644SOL    HW1 2574   2.691   1.792   0.986 -1.5633 -0.7628  2.0704
  644SOL    HW2 2575   2.663   1.826   0.847 -0.7249  0.3365  1.5472
  644SOL     MW 2576   2.716   1.831   0.913 -0.5713  0.1857  0.3124
  645SOL     OW 2577   2.759   0.915   0.616 -0.2062  0.1975  0.6526
  645SOL    HW1 2578   2.799   0.874   0.689 -1.3740 -0.3813 -1.3712
  645SOL    HW2 2579   2.732   0.838   0.562 -0.0870  0.2695  1.2665
  645SOL     MW 2580   2.761   0.899   0.618 -0.3446  0.1306  0.4666
  646SOL     OW 2581   0.087   2.329   0.887  0.5342 -0.1362  0.0452
  646SOL    HW1 2582   0.133   2.242   0.872  2.2752 -2.8098  3.1556
  646SOL    HW2 2583   0.058   2.347   0.790  0.3228  0.3831  0.1328
  646SOL     MW 2584   0.089   2.320   0.872  0.7360 -0.4204  0.4671
  647SOL     OW 2585   2.748   0.597   3.010  0.2168 -0.1891 -0.1945
  647SOL    HW1 2586   2.709   0.517   3.016  2.1377 -1.0438 -0.6977
  647SOL    HW2 2587   2.674   0.664   3.017 -3.6253  0.1114  1.2353
  647SOL     MW 2588   2.733   0.595   3.011 -0.0367 -0.2622 -0.0722
  648SOL     OW 2589   2.226   0.738   1.100  0.1584  0.1012 -0.0115
  648SOL    HW1 2590   2.208   0.765   1.014  0.9008 -3.0177  1.4908
  648SOL    HW2 2591   2.211   0.816   1.157 -1.2706 -1.4955  1.9379
  648SOL     MW 2592   2.222   0.751   1.096  0.0678 -0.5210  0.4440
  649SOL     OW 2593   2.361   2.684   1.201 -0.3733  0.0503 -0.2144
  649SOL    HW1 2594   2.430   2.748   1.213  2.4662 -2.0716  0.0326
  649SOL    HW2 2595   2.405   2.599   1.189  1.1634 -0.2765  0.5342
  649SOL     MW 2596   2.376   2.681   1.201  0.2041 -0.2728 -0.0831
  650SOL     OW 2597   2.734   0.228   0.639  0.2877  0.0507  0.0523
  650SOL    HW1 2598   2.739   0.270   0.728  0.6023 -1.1321 -0.6624
  650SOL    HW2 2599   2.813   0.257   0.598 -2.1857 -0.3890 -0.0346
  650SOL     MW 2600   2.745   0.237   0.645  0.0029 -0.1634 -0.0534
  651SOL     OW 2601   3.047   0.289   0.824 -0.1047  0.3136  0.3837
  651SOL    HW1 2602   3.100   0.344   0.766  1.8803 -0.5176 -0.1268
  651SOL    HW2 2603   2.968   0.345   0.846 -0.1804  0.3893 -0.0328
  651SOL     MW 2604   3.043   0.304   0.819  0.1472  0.2139  0.2614
  652SOL     OW 2605   2.399   1.443   2.983  0.0358 -0.5909  0.2597
  652SOL    HW1 2606   2.469   1.428   2.920 -0.9851 -2.3119 -0.2174
  652SOL    HW2 2607   2.336   1.509   2.951 -1.4178  1.2008  1.3492
  652SOL     MW 2608   2.400   1.449   2.970 -0.2907 -0.5815  0.3405
  653SOL     OW 2609   1.978   0.372   0.421 -0.1239  0.0975 -0.0206
  653SOL    HW1 2610   1.951   0.290   0.371 -3.5008  0.8493 -1.0903
  653SOL    HW2 2611   2.061   0.395   0.383  0.1184  1.0521  2.0015
  653SOL     MW 2612   1.985   0.364   0.410 -0.5375  0.3226  0.1051
  654SOL     OW 2613   2.458   0.978   0.744  0.1877 -0.0305 -0.5217
  654SOL    HW1 2614   2.381   0.991   0.690  0.7989 -0.7287  0.8071
  654SOL    HW2 2615   2.474   0.882   0.749 -2.3052 -1.1915 -1.4382
  654SOL     MW 2616   2.450   0.967   0.738 -0.0605 -0.2758 -0.4673
  655SOL     OW 2617   3.076   0.929   0.442  0.3302 -0.3083  0.0894
  655SOL    HW1 2618   3.097   0.942   0.531 -0.0720 -1.4071 -0.4088
  655SOL    HW2 2619   3.024   0.847   0.442 -0.2367  0.7226  0.9051
  655SOL     MW 2620   3.072   0.920   0.454  0.2023 -0.3173  0.1313
  656SOL     OW 2621   1.972   2.728   1.228  0.2093  0.0376 -0.0510
  656SOL    HW1 2622   1.968   2.814   1.268 -2.1002 -0.1897 -2.6340
  656SOL    HW2 2623   2.012   2.678   1.297  0.6241 -1.4169 -2.8758
  656SOL     MW 2624   1.977   2.733   1.242 -0.0407 -0.1843 -0.7645
  657SOL     OW 2625   0.209   1.627   1.279 -0.4087 -0.7391 -0.2793
  657SOL    HW1 2626   0.126   1.580   1.304 -1.7041  1.8631  0.3035
  657SOL    HW2 2627   0.226   1.614   1.189 -0.3787 -1.4950 -0.2801
  657SOL     MW 2628   0.200   1.619   1.270 -0.5757 -0.4955 -0.2025
  658SOL     OW 2629   2.669   1.357   0.267  0.5655  0.3628 -0.2519
  658SOL    HW1 2630   2.629   1.298   0.331  1.3226  0.1942 -0.7795
  658SOL    HW2 2631   2.723   1.424   0.321 -2.5378  0.2706  0.9301
  658SOL     MW 2632   2.671   1.358   0.283  0.2559  0.3284 -0.1655
  659SOL     OW 2633   2.214   1.561   1.005 -0.4939  0.5935 -0.4862
  659SOL    HW1 2634   2.300   1.530   0.975  1.3072  0.6630 -0.9321
  659SOL    HW2 2635   2.222   1.571   1.099 -0.4981  2.2052  3.5009
  659SOL     MW 2636   2.226   1.558   1.014 -0.2568  0.8153 -0.0190
  660SOL     OW 2637   2.022   1.555   1.777  0.0541 -0.2557 -0.2088
  660SOL    HW1 2638   2.055   1.583   1.861  0.5804  1.5245  1.2395
  660SOL    HW2 2639   2.006   1.466   1.766  0.3316  4.3273  1.2398
  660SOL     MW 2640   2.024   1.547   1.787  0.1602  0.5838  0.1734
  661SOL     OW 2641   2.317   1.070   0.141  0.1358 -0.2237 -0.8954
  661SOL    HW1 2642   2.380   1.091   0.208  0.3126 -0.1060  1.9207
  661SOL    HW2 2643   2.293   0.978   0.150  4.1102 -0.6058 -0.4093
  661SOL     MW 2644   2.322   1.060   0.151  0.6835 -0.2586 -0.4597
  662SOL     OW 2645   2.575   2.987   0.855 -0.8260 -0.3344 -0.0583
  662SOL    HW1 2646   2.527   3.060   0.890  0.3017 -0.4802  4.2620
  662SOL    HW2 2647   2.604   3.017   0.766  1.7408  1.6576  1.6340
  662SOL     MW 2648   2.573   3.001   0.848 -0.3386 -0.0908  0.7350
  663SOL     OW 2649   2.810   1.522   0.418 -0.0718  0.2801 -0.3537
  663SOL    HW1 2650   2.884   1.551   0.376  0.2504  0.7748  1.5057
  663SOL    HW2 2651   2.841   1.491   0.498 -0.7855  0.0601 -0.3071
  663SOL     MW 2652   2.824   1.522   0.423 -0.1235  0.3163 -0.1022
  664SOL     OW 2653   2.463   1.577   1.640 -0.4706  0.5579 -0.0361
  664SOL    HW1 2654   2.434   1.669   1.620  0.0716  1.7461 -1.0096
  664SOL    HW2 2655   2.384   1.531   1.670  3.0098 -1.2224 -1.4499
  664SOL     MW 2656   2.448   1.583   1.641  0.0602  0.4797 -0.3511
  665SOL     OW 2657   2.865   0.823   2.028 -0.1905 -0.0573 -0.2694
  665SOL    HW1 2658   2.860   0.865   1.940  1.2095 -0.9790 -0.5490
  665SOL    HW2 2659   2.947   0.770   2.039  0.7661 -0.0478 -0.3275
  665SOL     MW 2660   2.876   0.822   2.018  0.1205 -0.1776 -0.3140
  666SOL     OW 2661   2.793   3.035   1.681  0.2314 -0.1715  0.2334
  666SOL    HW1 2662   2.795   3.006   1.587  1.4536 -0.2265 -1.8533
  666SOL    HW2 2663   2.735   2.970   1.724 -1.4818 -0.4728  0.3645
  666SOL     MW 2664   2.786   3.022   1.674  0.1666 -0.2185 -0.0246
  667SOL     OW 2665   1.946   2.664   1.747 -0.9533  0.2996 -0.9503
  667SOL    HW1 2666   2.000   2.601   1.797 -2.8583  0.5520 -2.4697
  667SOL    HW2 2667   2.012   2.732   1.718 -0.6834 -0.6996  1.6264
  667SOL     MW 2668   1.962   2.665   1.749 -1.1690  0.2011 -0.8108
  668SOL     OW 2669   2.683   0.614   0.766  0.6283  0.4594  0.5243
  668SOL    HW1 2670   2.769   0.641   0.788 -1.8537  1.8528 -1.1916
  668SOL    HW2 2671   2.616   0.672   0.801  2.1498 -1.3011 -0.0997
  668SOL     MW 2672   2.686   0.625   0.773  0.5015  0.4110  0.2156
  669SOL     OW 2673   0.152   0.893   0.730  0.1504  0.8699 -0.0827
  669SOL    HW1 2674   0.091   0.945   0.785 -2.1996  0.4401  1.2865
  669SOL    HW2 2675   0.239   0.928   0.743 -4.0527  1.9913  2.5009
  669SOL     MW 2676   0.156   0.905   0.739 -0.7142  0.9612  0.4388
  670SOL     OW 2677   2.886   0.321   0.240 -0.3089 -0.1487  0.2387
  670SOL    HW1 2678   2.912   0.256   0.172  1.5102 -3.0427  3.5329
  670SOL    HW2 2679   2.913   0.405   0.202  1.6120 -2.8727 -1.2423
  670SOL     MW 2680   2.893   0.323   0.226  0.1846 -0.8899  0.4779
  671SOL     OW 2681   2.174   3.072   1.597 -0.9789  0.6328 -0.0576
  671SOL    HW1 2682   2.191   3.076   1.498 -1.2550  2.8578  0.1081
  671SOL    HW2 2683   2.082   3.073   1.616  3.3370  0.7665  1.8112
  671SOL     MW 2684   2.164   3.073   1.586 -0.4459  0.9440  0.2109
  672SOL     OW 2685   1.913   1.669   1.358 -0.1074  0.5396 -0.1279
  672SOL    HW1 2686   1.829   1.711   1.378 -0.9525 -0.4772  1.0021
  672SOL    HW2 2687   1.934   1.696   1.268  0.0687  3.6621 -2.3606
  672SOL     MW 2688   1.905   1.678   1.349 -0.1956  0.8174 -0.2734
  673SOL     OW 2689   2.780   1.161   0.476  0.2467 -0.0815  0.0488
  673SOL    HW1 2690   2.777   1.071   0.505 -1.0924 -2.1758 -0.2548
  673SOL    HW2 2691   2.865   1.194   0.506  0.9026  2.6188 -0.1978
  673SOL     MW 2692   2.791   1.154   0.484  0.1566 -0.0015 -0.0238
  674SOL     OW 2693   2.420   0.064   1.288 -0.7284 -0.1645  0.2807
  674SOL    HW1 2694   2.427   0.112   1.203  0.2053 -2.2096 -0.5223
  674SOL    HW2 2695   2.450  -0.023   1.266 -0.0305 -1.1138  0.4229
  674SOL     MW 2696   2.425   0.059   1.274 -0.5131 -0.5596  0.1935
  675SOL     OW 2697   2.942   0.950   1.098  0.0860  0.8554 -0.0617
  675SOL    HW1 2698   2.998   0.893   1.152 -0.0701  1.7461 -0.5981
  675SOL    HW2 2699   2.989   0.974   1.014  1.4474  3.5242 -3.7357
  675SOL     MW 2700   2.956   0.946   1.094  0.2450  1.3250 -0.6172
  676SOL     OW 2701   2.872   1.527   1.672 -0.4355  0.5157 -0.0609
  676SOL    HW1 2702   2.825   1.445   1.659  1.5354 -0.0330  1.0799
  676SOL    HW2 2703   2.940   1.502   1.728 -2.0110 -1.7134 -0.4770
  676SOL     MW 2704   2.875   1.513   1.677 -0.3833  0.1492  0.0347
  677SOL     OW 2705   2.479   0.833   1.832 -0.0208 -0.1497 -0.0105
  677SOL    HW1 2706   2.397   0.787   1.803 -0.1803  3.4570  0.8953
  677SOL    HW2 2707   2.492   0.912   1.784 -3.0378  2.4823 -0.7253
  677SOL     MW 2708   2.470   0.837   1.822 -0.4399  0.6734  0.0147
  678SOL     OW 2709   2.523   1.569   0.533 -0.1781  0.0790  0.2466
  678SOL    HW1 2710   2.459   1.586   0.461  2.1489 -1.6567 -0.4473
  678SOL    HW2 2711   2.604   1.539   0.490 -0.5285 -1.0956 -2.2169
  678SOL     MW 2712   2.525   1.567   0.518  0.0827 -0.3050 -0.1700
  679SOL     OW 2713   2.371   0.538   1.225  0.4554  0.2370 -0.4790
  679SOL    HW1 2714   2.310   0.461   1.218  0.8823 -2.3147  2.0355
  679SOL    HW2 2715   2.326   0.609   1.179 -1.2421 -2.6790 -1.7399
  679SOL     MW 2716   2.357   0.537   1.218  0.2877 -0.4844 -0.3136
  680SOL     OW 2717   2.418   0.216   1.520  0.2271  0.0994 -0.4028
  680SOL    HW1 2718   2.375   0.175   1.595  3.9125  0.5924 -0.8628
  680SOL    HW2 2719   2.414   0.160   1.438  0.1442  2.0866  0.5755
  680SOL     MW 2720   2.412   0.203   1.519  0.7024  0.4266 -0.3344
  681SOL     OW 2721   0.309   0.509   1.524 -0.5733 -0.0864  0.3388
  681SOL    HW1 2722   0.304   0.415   1.562 -2.3770 -2.3048  1.4527
  681SOL    HW2 2723   0.399   0.534   1.528 -0.7051 -2.5917 -1.5573
  681SOL     MW 2724   0.321   0.500   1.530 -0.8287 -0.7097  0.2356
  682SOL     OW 2725   0.193   2.980   1.515 -0.6354  0.0426 -0.4595
  682SOL    HW1 2726   0.193   3.064   1.457 -4.4490  2.6976 -3.9184
  682SOL    HW2 2727   0.126   2.985   1.586 -0.2819  0.1862 -0.9287
  682SOL     MW 2728   0.184   2.992   1.517 -1.0919  0.4119 -0.9778
  683SOL     OW 2729   1.937   0.784   2.993  0.0380 -0.1435  0.0394
  683SOL    HW1 2730   1.844   0.790   2.956 -1.1992 -0.0301  0.6297
  683SOL    HW2 2731   1.953   0.868   3.041 -0.3669  0.6613  2.2488
  683SOL     MW 2732   1.927   0.796   2.994 -0.1787 -0.0224  0.4088
  684SOL     OW 2733   2.109   1.732   0.813 -0.0263 -0.1248  0.0273
  684SOL    HW1 2734   2.015   1.719   0.830  0.3691 -2.4481 -0.0133
  684SOL    HW2 2735   2.143   1.668   0.877  0.1175 -1.4585  0.2547
  684SOL     MW 2736   2.101   1.722   0.824  0.0449 -0.6073  0.0519
  685SOL     OW 2737   2.655   1.744   1.180 -0.7398 -0.1612  0.2719
  685SOL    HW1 2738   2.735   1.752   1.231  0.9849 -0.2898  1.2147
  685SOL    HW2 2739   2.628   1.653   1.195 -0.7596 -0.3859 -0.7727
  685SOL     MW 2740   2.662   1.733   1.189 -0.5149 -0.2078  0.2585
  686SOL     OW 2741   2.918   0.691   1.516  1.3274  0.1457 -0.0855
  686SOL    HW1 2742   2.921   0.638   1.602  0.1175 -0.3927 -1.4626
  686SOL    HW2 2743   3.001   0.697   1.469  1.2955  1.6878  1.4530
  686SOL     MW 2744   2.929   0.685   1.521  1.1635  0.2782 -0.0642
  687SOL     OW 2745   2.206   0.326   1.221 -0.5223  0.3309  0.6390
  687SOL    HW1 2746   2.184   0.288   1.136 -0.7620  0.8025 -1.4230
  687SOL    HW2 2747   2.141   0.396   1.234 -0.2093 -1.1402 -0.0477
  687SOL     MW 2748   2.194   0.331   1.211 -0.5126  0.1990  0.2763
  688SOL     OW 2749   2.358   0.524   1.487 -0.0034 -0.1198 -0.2564
  688SOL    HW1 2750   2.374   0.434   1.520 -0.8230 -0.2986 -0.1913
  688SOL    HW2 2751   2.368   0.508   1.391  0.0793  0.6774  1.2272
  688SOL     MW 2752   2.362   0.510   1.479 -0.1006 -0.0382 -0.0521
  689SOL     OW 2753   2.571   0.785   2.974  0.2142  0.2726 -0.3179
  689SOL    HW1 2754   2.584   0.849   2.899 -0.1813 -0.8198  0.9382
  689SOL    HW2 2755   2.564   0.833   3.055  1.7843  0.5062 -2.8778
  689SOL     MW 2756   2.572   0.800   2.975  0.3692  0.1593 -0.4899
  690SOL     OW 2757   2.063   1.021   1.944 -0.3793  0.1621 -0.1338
  690SOL    HW1 2758   2.034   0.933   1.966  1.2970  0.2480 -0.6830
  690SOL    HW2 2759   2.097   1.020   1.855 -1.8989  2.3336  1.3641
  690SOL     MW 2760   2.064   1.010   1.935 -0.3586  0.4600 -0.0086
  691SOL     OW 2761   2.461   0.379   0.863 -0.2341 -0.3497 -0.3907
  691SOL    HW1 2762   2.536   0.419   0.896 -1.8273  1.3897 -0.9178
  691SOL    HW2 2763   2.385   0.437   0.869  1.0751  0.4380  0.5455
  691SOL     MW 2764   2.461   0.392   0.868 -0.2715 -0.0162 -0.3367
  692SOL     OW 2765   2.823   1.663   1.420  0.6135 -0.1699 -0.5604
  692SOL    HW1 2766   2.801   1.620   1.496 -3.6088  2.2410  0.0909
  692SOL    HW2 2767   2.839   1.752   1.451 -0.8761 -2.2522 -4.0413
  692SOL     MW 2768   2.822   1.669   1.434 -0.1402 -0.1265 -0.9338
  693SOL     OW 2769   2.307   0.478   0.096  0.5604 -0.7929  0.1080
  693SOL    HW1 2770   2.232   0.425   0.080  2.3470  1.5333  0.7714
  693SOL    HW2 2771   2.286   0.536   0.023  1.8653  0.0748 -1.3598
  693SOL     MW 2772   2.294   0.479   0.084  0.9683 -0.3715  0.0019
  694SOL     OW 2773   1.971   1.263   1.201 -0.2531 -0.0402  0.5358
  694SOL    HW1 2774   2.063   1.233   1.199  0.8451 -0.6013 -0.8349
  694SOL    HW2 2775   1.913   1.195   1.236  0.8689 -2.8606 -0.2242
  694SOL     MW 2776   1.975   1.250   1.205  0.0399 -0.4864  0.2547
  695SOL     OW 2777   3.049   1.503   1.334 -0.2354  0.1658  0.9473
  695SOL    HW1 2778   3.009   1.464   1.258 -0.5569  0.7135 -0.6921
  695SOL    HW2 2779   2.981   1.565   1.364  1.7125  4.3265  2.2016
  695SOL     MW 2780   3.035   1.506   1.328 -0.0208  0.7870  0.8965
  696SOL     OW 2781   2.021   1.359   0.946 -0.5389 -0.0454 -0.2092
  696SOL    HW1 2782   2.089   1.426   0.969  0.5059 -0.2774  1.7231
  696SOL    HW2 2783   1.990   1.330   1.033  4.1195 -1.0267 -0.1550
  696SOL     MW 2784   2.026   1.364   0.960  0.2135 -0.2055  0.0529
  697SOL     OW 2785   2.871   1.012   2.266 -0.1588 -0.5151 -0.0573
  697SOL    HW1 2786   2.851   1.101   2.249 -0.2180 -0.1197  0.6639
  697SOL    HW2 2787   2.862   0.967   2.183 -2.8674 -1.9188 -1.7558
  697SOL     MW 2788   2.867   1.018   2.253 -0.5240 -0.6481 -0.1862
  698SOL     OW 2789   2.520   0.399   3.015  0.2329  0.2982  0.3515
  698SOL    HW1 2790   2.475   0.468   3.062  0.3921 -2.3172  2.4755
  698SOL    HW2 2791   2.551   0.350   3.090  0.3903 -0.0615  2.4003
  698SOL     MW 2792   2.519   0.401   3.031  0.2747 -0.0944  0.9021
  699SOL     OW 2793   1.829   1.639   2.035  0.1078 -0.3388  0.0617
  699SOL    HW1 2794   1.789   1.553   2.059  0.3724  0.2342  0.1273
  699SOL    HW2 2795   1.921   1.613   2.028  0.5852 -0.3419 -1.5174
  699SOL     MW 2796   1.836   1.624   2.037  0.2057 -0.2636 -0.1380
  700SOL     OW 2797   2.699   0.876   1.539  0.3230 -0.1378  0.5799
  700SOL    HW1 2798   2.708   0.947   1.475 -1.1104  1.0706 -1.3450
  700SOL    HW2 2799   2.786   0.840   1.531 -0.7660  2.6157 -1.8337
  700SOL     MW 2800   2.711   0.881   1.530 -0.0098  0.3849  0.0075
  701SOL     OW 2801   1.671   1.301   2.574  0.2528 -0.1228  0.2126
  701SOL    HW1 2802   1.768   1.301   2.587  0.3888  0.6048  0.2703
  701SOL    HW2 2803   1.638   1.367   2.637 -0.7493 -0.3108  2.0698
  701SOL     MW 2804   1.680   1.310   2.584  0.1385 -0.0516  0.4653
  702SOL     OW 2805   2.230   0.509   0.781  0.0745 -0.3329 -0.8827
  702SOL    HW1 2806   2.211   0.423   0.754 -1.6632 -0.0770  1.6741
  702SOL    HW2 2807   2.215   0.562   0.706 -2.1513 -1.6595 -1.9227
  702SOL     MW 2808   2.225   0.504   0.767 -0.4484 -0.4742 -0.6826
  703SOL     OW 2809   2.688   1.282   0.993  0.3934  0.2878  0.2107
  703SOL    HW1 2810   2.706   1.256   0.900 -0.3454  1.0780 -2.3346
  703SOL    HW2 2811   2.694   1.204   1.051 -0.9662  1.6590  1.4969
  703SOL     MW 2812   2.691   1.268   0.989  0.1166  0.5730  0.0446
  704SOL     OW 2813   3.099   1.306   0.211  0.2705 -0.0597  0.4407
  704SOL    HW1 2814   3.023   1.254   0.185  0.3569 -1.0535  0.9037
  704SOL    HW2 2815   3.168   1.250   0.229  0.5754 -1.3824  2.3160
  704SOL     MW 2816   3.098   1.292   0.210  0.3222 -0.3653  0.7492
  705SOL     OW 2817   2.236   1.625   1.313 -0.0107 -0.1143  0.6648
  705SOL    HW1 2818   2.151   1.641   1.347  0.1739  0.7465 -0.2626
  705SOL    HW2 2819   2.248   1.536   1.333 -0.2073  1.7125 -1.5073
  705SOL     MW 2820   2.226   1.616   1.320 -0.0123  0.2403  0.2558
  706SOL     OW 2821   2.981   1.232   0.636 -0.1786  0.1379 -0.0668
  706SOL    HW1 2822   3.069   1.216   0.602 -0.9314  1.5195  1.0123
  706SOL    HW2 2823   2.991   1.333   0.647  1.6529  3.7691 -2.0667
  706SOL     MW 2824   2.994   1.244   0.633 -0.0363  0.7993 -0.1883
  707SOL     OW 2825   2.447   0.104   1.001  0.5350 -0.0129  0.3450
  707SOL    HW1 2826   2.445   0.192   0.965  2.5046  2.2855  1.1881
  707SOL    HW2 2827   2.353   0.084   1.011  1.7245  0.8075  1.3829
  707SOL     MW 2828   2.434   0.113   0.998  0.9518  0.3986  0.5932
  708SOL     OW 2829   2.527   1.540   0.124  0.5567 -0.2614 -0.1744
  708SOL    HW1 2830   2.571   1.463   0.173  1.8394 -0.0672  0.0748
  708SOL    HW2 2831   2.505   1.500   0.042 -1.7690 -0.7746 -3.6383
  708SOL     MW 2832   2.530   1.525   0.120  0.4191 -0.3035 -0.5986
  709SOL     OW 2833   1.772   1.684   0.135  0.0127 -0.0962 -0.0877
  709SOL    HW1 2834   1.759   1.617   0.073 -0.1548  1.1937 -2.2277
  709SOL    HW2 2835   1.708   1.663   0.208  1.7235  0.1979  2.3832
  709SOL     MW 2836   1.762   1.672   0.137  0.2163  0.1128 -0.0441
  710SOL     OW 2837   2.222   1.180   1.193 -0.0971  0.0986  0.4459
  710SOL    HW1 2838   2.239   1.168   1.102 -0.8121  1.4548  2.5472
  710SOL    HW2 2839   2.245   1.094   1.234  4.7348 -2.6728  0.5600
  710SOL     MW 2840   2.227   1.167   1.187  0.4461 -0.0881  0.7382
  711SOL     OW 2841   2.314   0.127   1.758  0.0777  0.3071 -0.1285
  711SOL    HW1 2842   2.407   0.118   1.774 -1.7539  1.9906  0.5085
  711SOL    HW2 2843   2.277   0.070   1.695  1.3231 -0.7074 -3.8721
  711SOL     MW 2844   2.321   0.118   1.752  0.0003  0.3954 -0.5384
  712SOL     OW 2845   1.608   0.647   3.088 -0.4608  0.2044 -0.5681
  712SOL    HW1 2846   1.646   0.707   3.026  2.2338 -0.1399  0.1595
  712SOL    HW2 2847   1.549   0.700   3.138 -2.2358 -2.8288 -0.2826
  712SOL     MW 2848   1.605   0.662   3.086 -0.3395 -0.2412 -0.4344
  713SOL     OW 2849   2.576   0.773   1.144  0.2732  0.0826  0.4776
  713SOL    HW1 2850   2.630   0.693   1.122  2.8110 -1.1792 -3.2280
  713SOL    HW2 2851   2.554   0.767   1.241 -0.3536 -0.5217 -1.4193
  713SOL     MW 2852   2.580   0.762   1.154  0.5253 -0.1636 -0.2616
  714SOL     OW 2853   2.251   0.153   2.031 -0.0964 -0.4545 -0.5810
  714SOL    HW1 2854   2.295   0.086   2.083 -0.9726  0.2959  0.5841
  714SOL    HW2 2855   2.274   0.151   1.934 -1.6266 -0.8361 -0.8848
  714SOL     MW 2856   2.260   0.144   2.025 -0.4139 -0.4059 -0.4673
  715SOL     OW 2857   1.745   1.920   1.708  0.3133  0.7759  0.4879
  715SOL    HW1 2858   1.838   1.904   1.676  2.2406  1.5102 -1.7090
  715SOL    HW2 2859   1.717   1.833   1.740 -2.6004 -0.9560 -0.8148
  715SOL     MW 2860   1.753   1.906   1.708  0.1832  0.6443  0.0262
  716SOL     OW 2861   2.192   0.725   0.565 -0.0593 -0.0011  0.0674
  716SOL    HW1 2862   2.255   0.734   0.496  0.3618 -1.4335  3.0977
  716SOL    HW2 2863   2.098   0.733   0.529 -0.4074 -2.6722  0.0059
  716SOL     MW 2864   2.188   0.727   0.551 -0.0496 -0.5425  0.4591
  717SOL     OW 2865   2.898   1.425   2.983  0.1069 -0.0323 -0.4244
  717SOL    HW1 2866   2.976   1.438   2.930 -1.7377  2.8708  0.1458
  717SOL    HW2 2867   2.882   1.510   3.032 -0.6796  2.6063 -0.2008
  717SOL     MW 2868   2.906   1.438   2.982 -0.2403  0.6988 -0.3197
  718SOL     OW 2869   2.566   1.494   1.274 -0.1899  0.0461  0.5132
  718SOL    HW1 2870   2.591   1.521   1.367 -2.5021 -2.2891  0.3010
  718SOL    HW2 2871   2.641   1.440   1.239  0.8899 -1.2681 -0.8092
  718SOL     MW 2872   2.579   1.491   1.281 -0.3525 -0.4354  0.3107
  719SOL     OW 2873   2.161   1.325   0.686 -0.4878  0.4948 -0.0727
  719SOL    HW1 2874   2.254   1.314   0.659 -1.8773 -2.4686 -3.5732
  719SOL    HW2 2875   2.168   1.348   0.776 -0.6575 -1.4415 -0.7168
  719SOL     MW 2876   2.174   1.327   0.695 -0.6935 -0.1517 -0.6195
  720SOL     OW 2877   2.867   1.169   0.162 -0.4719 -0.3657  0.0158
  720SOL    HW1 2878   2.870   1.100   0.231  2.3981  0.2388 -2.3513
  720SOL    HW2 2879   2.816   1.240   0.194 -1.4254  0.6564  0.6101
  720SOL     MW 2880   2.861   1.169   0.175 -0.2190 -0.1511 -0.2181
  721SOL     OW 2881   2.459   0.784   1.423  0.3884 -0.2215 -0.6154
  721SOL    HW1 2882   2.458   0.695   1.464 -0.6256  0.5427  2.3435
  721SOL    HW2 2883   2.517   0.852   1.463 -1.0629 -1.2698 -0.0713
  721SOL     MW 2884   2.466   0.782   1.433  0.0631 -0.2590 -0.1532
  722SOL     OW 2885   2.494   1.160   0.351  0.3917  0.3377 -0.1672
  722SOL    HW1 2886   2.434   1.185   0.421 -1.9971 -0.0853  1.0051
  722SOL    HW2 2887   2.539   1.087   0.384  2.9991  0.5891 -0.0778
  722SOL     MW 2888   2.492   1.153   0.365  0.4206  0.3151 -0.0008
  723SOL     OW 2889   2.251   1.379   1.643 -0.1407  0.2233 -0.0261
  723SOL    HW1 2890   2.240   1.394   1.549 -0.9767 -1.1595 -0.8748
  723SOL    HW2 2891   2.175   1.331   1.672  0.2566 -0.5982 -0.4057
  723SOL     MW 2892   2.240   1.375   1.634 -0.1986 -0.0676 -0.1882
  724SOL     OW 2893   2.501   0.359   0.591 -0.0950 -0.1691 -0.2283
  724SOL    HW1 2894   2.488   0.369   0.685  0.0581 -0.1124 -2.2164
  724SOL    HW2 2895   2.587   0.318   0.588 -0.1809  2.8604  2.3963
  724SOL     MW 2896   2.511   0.355   0.603 -0.0861  0.2381 -0.1443
  725SOL     OW 2897   2.641   0.487   1.129  0.3849  0.4413  0.0109
  725SOL    HW1 2898   2.687   0.496   1.217 -1.2034 -0.5427  3.2619
  725SOL    HW2 2899   2.557   0.514   1.165  0.3146  0.8464  0.1127
  725SOL     MW 2900   2.636   0.492   1.145  0.1661  0.3649  0.4533
  726SOL     OW 2901   2.568   2.398   0.534 -0.2646  0.4358  0.6256
  726SOL    HW1 2902   2.494   2.443   0.497  1.5127  0.1053  1.6548
  726SOL    HW2 2903   2.548   2.371   0.620  2.5974  1.0118  0.2131
  726SOL     MW 2904   2.556   2.400   0.541  0.3475  0.4682  0.7069
  727SOL     OW 2905   2.892   0.290   1.662 -0.5207 -0.1495  0.0136
  727SOL    HW1 2906   2.911   0.275   1.569  0.3702 -0.3365 -2.5402
  727SOL    HW2 2907   2.804   0.328   1.643  1.4717 -0.2560 -0.1318
  727SOL     MW 2908   2.883   0.293   1.648 -0.1403 -0.1882 -0.3425
  728SOL     OW 2909   2.769   1.168   2.997  0.1352 -0.3825  0.0077
  728SOL    HW1 2910   2.826   1.241   2.984 -4.0656 -0.2709  0.4067
  728SOL    HW2 2911   2.792   1.148   3.083  3.1641  1.0093 -0.1132
  728SOL     MW 2912   2.780   1.175   3.007 -0.0194 -0.1841  0.0444
  729SOL     OW 2913   2.467   1.454   0.987  0.0618 -0.0244  0.1046
  729SOL    HW1 2914   2.493   1.497   1.062 -0.9354  0.0557 -0.1078
  729SOL    HW2 2915   2.517   1.372   0.979 -0.9980  0.9368  2.9107
  729SOL     MW 2916   2.477   1.449   0.996 -0.2096  0.1130  0.4468
  730SOL     OW 2917   2.075   1.164   0.171 -0.1834  0.7687  0.0434
  730SOL    HW1 2918   2.170   1.145   0.150  0.5064  1.2589  0.9106
  730SOL    HW2 2919   2.066   1.260   0.186  2.8366  1.1367 -0.1472
  730SOL     MW 2920   2.086   1.175   0.170  0.3061  0.8819  0.1327
  731SOL     OW 2921   2.784   1.798   2.875  0.4459 -0.2214 -0.3772
  731SOL    HW1 2922   2.694   1.818   2.857 -0.3600 -0.2968  1.1992
  731SOL    HW2 2923   2.831   1.882   2.878 -0.1156  2.1109  0.9357
  731SOL     MW 2924   2.779   1.812   2.873  0.2655  0.0764  0.0040
  732SOL     OW 2925   2.233   0.922   1.296 -0.5629  0.7860 -0.6249
  732SOL    HW1 2926   2.160   0.940   1.356  0.8627  1.6338 -1.2114
  732SOL    HW2 2927   2.301   0.881   1.363  1.7131 -3.1721 -0.6182
  732SOL     MW 2928   2.232   0.919   1.313 -0.0745  0.3757 -0.7014
  733SOL     OW 2929   2.383   2.857   3.044  0.0465 -0.7885 -0.6386
  733SOL    HW1 2930   2.300   2.896   3.020 -2.4490 -0.7110  0.1185
  733SOL    HW2 2931   2.361   2.765   3.061 -2.5037 -0.1161  0.8533
  733SOL     MW 2932   2.369   2.850   3.043 -0.6192 -0.6895 -0.3419
  734SOL     OW 2933   1.512   0.375   2.524 -0.0515  1.0956  0.2733
  734SOL    HW1 2934   1.455   0.335   2.589 -1.5960 -1.0955  1.1605
  734SOL    HW2 2935   1.519   0.306   2.450 -2.1231  0.5925  1.2657
  734SOL     MW 2936   1.506   0.360   2.523 -0.5286  0.7401  0.5213
  735SOL     OW 2937   2.993   0.888   2.750 -0.3190 -0.0105  0.3286
  735SOL    HW1 2938   2.911   0.840   2.752 -0.3381 -2.2549 -3.3063
  735SOL    HW2 2939   3.001   0.939   2.827 -0.4252  0.5535  0.1151
  735SOL     MW 2940   2.983   0.888   2.760 -0.3355 -0.2322 -0.1791
  736SOL     OW 2941   0.040   0.643   2.491 -0.0772 -0.0119 -0.6232
  736SOL    HW1 2942   0.089   0.687   2.419  0.0084  2.9226  1.3275
  736SOL    HW2 2943   0.048   0.547   2.481 -1.5853 -0.2519 -0.5466
  736SOL     MW 2944   0.048   0.636   2.480 -0.2649  0.3436 -0.3557
  737SOL     OW 2945   2.868   0.617   2.557  0.0621  0.2308 -0.2945
  737SOL    HW1 2946   2.825   0.584   2.475  1.1356 -0.1759  0.4635
  737SOL    HW2 2947   2.965   0.632   2.542  0.1977  3.3864  0.0842
  737SOL     MW 2948   2.875   0.615   2.544  0.2217  0.5935 -0.1445
  738SOL     OW 2949   0.157   0.389   1.903  0.3706  0.4134 -0.1976
  738SOL    HW1 2950   0.231   0.434   1.925 -1.4722 -0.8911  1.6261
  738SOL    HW2 2951   0.179   0.335   1.826 -0.2520 -2.1185  0.9418
  738SOL     MW 2952   0.169   0.388   1.896  0.0453 -0.0928  0.1934
  739SOL     OW 2953   2.559   1.024   2.189  0.3022  0.1206  0.5656
  739SOL    HW1 2954   2.468   1.016   2.164  0.1311 -2.1333 -0.7057
  739SOL    HW2 2955   2.590   1.067   2.110 -0.4202  1.6248  0.5030
  739SOL     MW 2956   2.551   1.028   2.175  0.1843  0.0217  0.3896
  740SOL     OW 2957   0.289   1.704   2.925 -0.1841 -0.1191  0.1019
  740SOL    HW1 2958   0.270   1.611   2.937 -0.5629  0.9496  0.3605
  740SOL    HW2 2959   0.372   1.718   2.979 -1.1072  1.7513  0.7091
  740SOL     MW 2960   0.297   1.693   2.934 -0.3558  0.2687  0.2161
  741SOL     OW 2961   2.216   1.263   2.637 -0.0178  0.1124  0.3679
  741SOL    HW1 2962   2.236   1.346   2.596  1.4404 -0.4639  2.6457
  741SOL    HW2 2963   2.171   1.275   2.717  1.9388 -1.1921  3.0775
  741SOL     MW 2964   2.213   1.276   2.642  0.4327 -0.1358  1.0259
  742SOL     OW 2965   1.558   1.372   2.350  0.4196 -0.6271 -0.2665
  742SOL    HW1 2966   1.523   1.293   2.311  1.5669  1.6956 -0.4300
  742SOL    HW2 2967   1.616   1.351   2.430  0.0048  0.3779  0.9742
  742SOL     MW 2968   1.561   1.358   2.355  0.5163 -0.1880 -0.1243
  743SOL     OW 2969   2.501   1.216   2.690 -0.2563 -0.3775  0.4565
  743SOL    HW1 2970   2.406   1.220   2.668  0.5710 -0.0119 -0.6496
  743SOL    HW2 2971   2.529   1.129   2.703 -2.7895  2.4291  0.6598
  743SOL     MW 2972   2.492   1.205   2.688 -0.4813  0.0411  0.3373
  744SOL     OW 2973   2.781   0.968   1.802 -0.1018  0.0722  0.0365
  744SOL    HW1 2974   2.729   1.009   1.876 -2.2867 -0.9585  0.5035
  744SOL    HW2 2975   2.720   0.929   1.734 -1.6767  0.2885  0.1388
  744SOL     MW 2976   2.766   0.968   1.803 -0.5979 -0.0353  0.1116
  745SOL     OW 2977   1.803   0.479   2.471 -1.0151  0.2157 -0.3393
  745SOL    HW1 2978   1.788   0.494   2.369 -1.7092 -0.8642 -1.5416
  745SOL    HW2 2979   1.742   0.418   2.512  1.1845  0.3227  3.3714
  745SOL     MW 2980   1.793   0.473   2.463 -0.8164  0.0873 -0.0084
  746SOL     OW 2981   1.590   1.432   1.730  0.1810 -0.0032 -0.2740
  746SOL    HW1 2982   1.618   1.522   1.746  0.9084  2.7165  2.0746
  746SOL    HW2 2983   1.534   1.411   1.801  1.5389 -1.9148 -2.9964
  746SOL     MW 2984   1.587   1.441   1.742  0.4562  0.1034 -0.3233
  747SOL     OW 2985   2.599   1.153   1.938  0.5492 -0.2541 -0.6024
  747SOL    HW1 2986   2.518   1.167   1.884 -0.7109 -0.5867 -0.6792
  747SOL    HW2 2987   2.622   1.247   1.969  1.0141 -2.3343  2.9251
  747SOL     MW 2988   2.591   1.167   1.935  0.4442 -0.5724 -0.1471
  748SOL     OW 2989   0.125   2.999   1.962 -0.1598  0.4252  0.1787
  748SOL    HW1 2990   0.187   3.057   1.924 -0.6268  2.2980 -0.2622
  748SOL    HW2 2991   0.114   3.052   2.038  0.0150  2.6136 -3.9170
  748SOL     MW 2992   0.132   3.013   1.967 -0.1984  0.9610 -0.4198
  749SOL     OW 2993   2.401   0.637   2.800  0.6011 -0.0091 -0.3840
  749SOL    HW1 2994   2.413   0.711   2.740 -3.2341 -1.9578  4.2211
  749SOL    HW2 2995   2.457   0.665   2.878 -1.3898  0.0483 -0.5991
  749SOL     MW 2996   2.410   0.651   2.803 -0.1676 -0.2586  0.1952
  750SOL     OW 2997   2.065   3.060   2.001  0.8262 -0.0594  0.3204
  750SOL    HW1 2998   2.127   3.137   1.992 -0.6086 -0.8362  0.6345
  750SOL    HW2 2999   2.129   2.989   1.980  0.5361  0.2903  1.8029
  750SOL     MW 3000   2.081   3.061   1.997  0.5986 -0.1158  0.5574
  751SOL     OW 3001   0.027   0.373   2.434  0.0394 -0.2661  0.4535
  751SOL    HW1 3002  -0.058   0.344   2.397 -2.3675 -1.7970  2.7796
  751SOL    HW2 3003   0.095   0.357   2.366 -0.3834  4.1030  2.1407
  751SOL     MW 3004   0.025   0.367   2.420 -0.3339  0.1084  0.9830
  752SOL     OW 3005   2.158   0.963   2.781 -0.2331 -0.0229  0.3550
  752SOL    HW1 3006   2.218   0.992   2.845  2.5322 -0.3690 -1.6113
  752SOL    HW2 3007   2.133   0.876   2.807  0.4371 -0.0390  0.0833
  752SOL     MW 3008   2.163   0.955   2.793  0.2201 -0.0707  0.0597
  753SOL     OW 3009   2.856   0.288   2.341 -0.1639  0.4838 -0.5567
  753SOL    HW1 3010   2.807   0.200   2.344 -0.4952 -1.2587  0.7790
  753SOL    HW2 3011   2.797   0.360   2.355  2.3199 -1.6710  0.7720
  753SOL     MW 3012   2.841   0.286   2.343  0.1201 -0.0304 -0.2051
  754SOL     OW 3013   2.240   3.008   2.625 -0.1168  0.2141 -0.5932
  754SOL    HW1 3014   2.244   2.956   2.543  0.1016 -0.0855  0.5944
  754SOL    HW2 3015   2.325   2.975   2.662 -1.4457  0.3615  1.7019
  754SOL     MW 3016   2.252   2.997   2.619 -0.2633  0.1940 -0.1337
  755SOL     OW 3017   2.774   1.611   2.386 -0.1559 -0.2933 -0.2285
  755SOL    HW1 3018   2.741   1.522   2.412  1.7894 -3.0366 -0.6353
  755SOL    HW2 3019   2.812   1.648   2.470 -2.1451  0.1293 -1.7083
  755SOL     MW 3020   2.775   1.604   2.401 -0.1617 -0.5995 -0.4774
  756SOL     OW 3021   2.210   1.248   2.966 -0.3467 -0.1631  0.3799
  756SOL    HW1 3022   2.276   1.314   2.982  0.7797 -1.4575 -1.6603
  756SOL    HW2 3023   2.268   1.168   2.966 -0.0539 -0.6030 -1.0200
  756SOL     MW 3024   2.226   1.246   2.969 -0.1595 -0.3920 -0.0740
  757SOL     OW 3025   2.192   0.969   1.702 -0.4703 -0.3025  0.6591
  757SOL    HW1 3026   2.220   0.879   1.707 -0.2563 -0.3033  0.2933
  757SOL    HW2 3027   2.127   0.976   1.629 -0.2266  1.4646  1.2992
  757SOL     MW 3028   2.187   0.958   1.693 -0.4099 -0.0694  0.6953
  758SOL     OW 3029   2.173   1.846   2.510  0.3762 -0.1473  0.6103
  758SOL    HW1 3030   2.126   1.913   2.455 -1.3491  0.0987  0.7538
  758SOL    HW2 3031   2.260   1.834   2.477  0.8253 -0.7095  1.0972
  758SOL     MW 3032   2.178   1.853   2.498  0.2078 -0.1890  0.6935
  759SOL     OW 3033   1.586   1.461   2.809  0.0029 -0.0688  0.4844
  759SOL    HW1 3034   1.611   1.532   2.737  0.9490  0.7097 -2.4795
  759SOL    HW2 3035   1.654   1.453   2.877  1.3116  2.8082  0.3550
  759SOL     MW 3036   1.598   1.469   2.808  0.3004  0.4135  0.0763
  760SOL     OW 3037   2.582   1.922   2.716 -0.2559  0.3164  0.1266
  760SOL    HW1 3038   2.565   1.841   2.674  0.2104  1.6908 -0.1118
  760SOL    HW2 3039   2.660   1.945   2.667 -2.0899  1.1348  0.8690
  760SOL     MW 3040   2.590   1.914   2.704 -0.4364  0.6057  0.1931
  761SOL     OW 3041   2.323   0.433   2.374 -0.6168  0.0123  0.8786
  761SOL    HW1 3042   2.230   0.404   2.383  0.6863 -0.2175  1.8279
  761SOL    HW2 3043   2.360   0.446   2.464  2.3535  0.3531 -2.9161
  761SOL     MW 3044   2.315   0.431   2.387 -0.0530  0.0269  0.5032
  762SOL     OW 3045   0.014   0.184   2.140  0.1151  0.0973 -0.2245
  762SOL    HW1 3046  -0.019   0.131   2.216 -0.3123  0.6212  0.5187
  762SOL    HW2 3047  -0.053   0.244   2.114  0.7760  0.4503  0.5680
  762SOL     MW 3048   0.000   0.185   2.147  0.1459  0.2130 -0.0219
  763SOL     OW 3049   2.448   1.199   2.396  0.1003  0.6331  0.2779
  763SOL    HW1 3050   2.477   1.143   2.323 -0.6023  0.7282 -1.9922
  763SOL    HW2 3051   2.521   1.238   2.437 -2.6770 -2.0457 -0.2040
  763SOL     MW 3052   2.461   1.197   2.392 -0.3588  0.2922 -0.0852
  764SOL     OW 3053   0.397   0.039   2.784 -0.2898  0.0501 -0.0130
  764SOL    HW1 3054   0.350   0.118   2.776  0.5107 -2.8310  0.9295
  764SOL    HW2 3055   0.432   0.041   2.875 -0.6225 -0.4410  1.6703
  764SOL     MW 3056   0.395   0.049   2.795 -0.2281 -0.3948  0.3335
  765SOL     OW 3057   2.772   0.031   2.341 -0.1036 -0.6587 -0.2422
  765SOL    HW1 3058   2.729  -0.006   2.266  0.4429  1.5029  1.3983
  765SOL    HW2 3059   2.821  -0.044   2.372  0.0772  0.2786 -1.7356
  765SOL     MW 3060   2.773   0.016   2.335 -0.0077 -0.2498 -0.2228
  766SOL     OW 3061   1.923   2.979   2.213 -0.0059  0.4107 -0.7860
  766SOL    HW1 3062   1.963   3.027   2.137  3.8159  3.2279  0.7692
  766SOL    HW2 3063   1.844   2.934   2.166 -2.8770  1.0816  1.3104
  766SOL     MW 3064   1.918   2.979   2.197  0.1196  0.8709 -0.3042
  767SOL     OW 3065   2.650   0.629   1.895 -0.0787 -0.0692 -0.0008
  767SOL    HW1 3066   2.642   0.658   1.983  0.8502 -1.1731 -1.6244
  767SOL    HW2 3067   2.584   0.679   1.846 -0.7644 -0.2547  1.4628
  767SOL     MW 3068   2.640   0.639   1.900 -0.0466 -0.2393 -0.0219
  768SOL     OW 3069   0.069   1.457   2.894  0.2497  0.0724 -0.4068
  768SOL    HW1 3070   0.071   1.507   2.972 -0.3784 -0.0013  1.5519
  768SOL    HW2 3071   0.119   1.379   2.919 -0.3980  2.3227  2.5420
  768SOL     MW 3072   0.076   1.454   2.908  0.0814  0.3596  0.2407
  769SOL     OW 3073   2.391   0.701   2.349 -0.1238 -0.1495 -0.1045
  769SOL    HW1 3074   2.362   0.603   2.350  1.2950  0.3246 -1.8700
  769SOL    HW2 3075   2.462   0.707   2.287  1.4043  1.7593 -2.1729
  769SOL     MW 3076   2.396   0.688   2.341  0.2650  0.1649 -0.6103
  770SOL     OW 3077   3.086   1.605   2.657 -0.0619 -0.8509  0.5072
  770SOL    HW1 3078   2.993   1.606   2.669  1.1353 -0.3953  0.2591
  770SOL    HW2 3079   3.110   1.557   2.738  1.3864  0.2338  0.7859
  770SOL     MW 3080   3.077   1.599   2.669  0.2871 -0.6477  0.5112
  771SOL     OW 3081   3.069   0.562   1.992  0.1717  0.0278 -0.3069
  771SOL    HW1 3082   3.027   0.583   1.908  0.5806 -0.0958  0.2394
  771SOL    HW2 3083   3.116   0.490   1.948 -1.9413  1.5237  0.8918
  771SOL     MW 3084   3.069   0.555   1.975 -0.0531  0.2088 -0.0767
  772SOL     OW 3085   3.095   0.007   2.341 -0.6165  0.0388  0.0967
  772SOL    HW1 3086   3.007  -0.006   2.364  1.0892  2.2538 -0.6642
  772SOL    HW2 3087   3.120  -0.089   2.321 -0.0689 -1.1718 -0.4352
  772SOL     MW 3088   3.087  -0.008   2.341 -0.3192  0.1713 -0.0738
  773SOL     OW 3089   2.478   2.912   2.766 -0.0752 -0.0828 -0.5145
  773SOL    HW1 3090   2.520   2.827   2.745  1.1442 -1.0794 -0.7832
  773SOL    HW2 3091   2.446   2.911   2.858  1.9512  2.6551  1.6373
  773SOL     MW 3092   2.479   2.900   2.776  0.3531  0.1469 -0.2660
  774SOL     OW 3093   2.385   1.171   1.775 -0.3906 -0.2613 -0.8166
  774SOL    HW1 3094   2.381   1.250   1.726  3.0608  0.5240 -1.0855
  774SOL    HW2 3095   2.324   1.103   1.739  0.1694  1.8712 -0.9414
  774SOL     MW 3096   2.376   1.172   1.764  0.1386  0.1237 -0.8685
  775SOL     OW 3097   2.332   2.883   2.389 -0.2699  0.1931 -0.0222
  775SOL    HW1 3098   2.349   2.975   2.359 -1.0879  0.8175  0.1377
  775SOL    HW2 3099   2.401   2.830   2.358 -0.4660  0.9106 -1.9323
  775SOL     MW 3100   2.343   2.888   2.381 -0.4037  0.3702 -0.2531
  776SOL     OW 3101   0.136   1.505   0.060  0.1922  0.1562  0.6568
  776SOL    HW1 3102   0.218   1.458   0.077 -1.0608 -0.9986  0.3864
  776SOL    HW2 3103   0.068   1.466   0.119 -1.0670 -0.1671  1.5320
  776SOL     MW 3104   0.138   1.494   0.070 -0.1392 -0.0388  0.7366
  777SOL     OW 3105   2.986   1.125   1.686 -0.7127 -0.0437  1.0036
  777SOL    HW1 3106   2.969   1.163   1.603 -3.2102 -0.0275 -3.2665
  777SOL    HW2 3107   2.931   1.051   1.703 -2.2727  1.0393  0.8753
  777SOL     MW 3108   2.977   1.120   1.677 -1.2480  0.1013  0.4233
  778SOL     OW 3109   2.939   0.498   2.832 -0.2715 -0.0302  0.5185
  778SOL    HW1 3110   2.880   0.549   2.894 -0.2294  1.0246  2.4546
  778SOL    HW2 3111   2.904   0.521   2.747 -0.4212  2.1655  0.9188
  778SOL     MW 3112   2.927   0.508   2.829 -0.2857  0.3986  0.8268
  779SOL     OW 3113   2.220   0.549   2.104  0.3057 -0.6839  0.2039
  779SOL    HW1 3114   2.134   0.583   2.143 -0.2220 -0.0048 -0.4252
  779SOL    HW2 3115   2.235   0.469   2.148  1.4148  1.5098 -1.9470
  779SOL     MW 3116   2.211   0.543   2.115  0.3824 -0.3049 -0.1629
  780SOL     OW 3117   0.220   0.250   2.721 -0.1208  0.3917 -0.1114
  780SOL    HW1 3118   0.133   0.285   2.699 -4.7983  1.5500  0.9282
  780SOL    HW2 3119   0.276   0.324   2.723  0.3233  1.2453 -0.2970
  780SOL     MW 3120   0.216   0.265   2.719 -0.6794  0.6571  0.0013
  781SOL     OW 3121   0.006   1.205   2.425  0.0370 -0.1098 -0.4931
  781SOL    HW1 3122   0.035   1.227   2.334  0.4709 -0.0917 -1.9598
  781SOL    HW2 3123  -0.024   1.117   2.426  0.5948  2.0556  0.2449
  781SOL     MW 3124   0.006   1.196   2.413  0.1678  0.1783 -0.5893
  782SOL     OW 3125   0.737   1.488   0.054  0.2571  0.2037 -0.2677
  782SOL    HW1 3126   0.670   1.546   0.016 -3.4956  1.5098  0.0289
  782SOL    HW2 3127   0.736   1.500   0.151  1.5174 -0.4495  0.2573
  782SOL     MW 3128   0.728   1.497   0.062 -0.0717  0.2899 -0.1593
  783SOL     OW 3129   2.707   0.534   2.358 -0.2715 -0.4077 -0.0370
  783SOL    HW1 3130   2.685   0.594   2.290 -0.4405 -2.0408  1.2762
  783SOL    HW2 3131   2.642   0.540   2.425  1.7694 -0.8475 -0.5577
  783SOL     MW 3132   2.696   0.543   2.358 -0.0245 -0.6812  0.0675
  784SOL     OW 3133   0.135   0.804   2.833  0.1752 -0.0049 -0.2485
  784SOL    HW1 3134   0.049   0.821   2.802  0.3385 -0.6607 -0.9446
  784SOL    HW2 3135   0.199   0.861   2.789  2.0934 -2.2283 -2.0824
  784SOL     MW 3136   0.132   0.814   2.823  0.4498 -0.3848 -0.5823
  785SOL     OW 3137   0.461   0.435   2.156 -0.7624  0.2482  0.3136
  785SOL    HW1 3138   0.435   0.468   2.066  1.7711 -0.1075  1.2484
  785SOL    HW2 3139   0.378   0.394   2.190 -0.5880 -0.8867 -0.4852
  785SOL     MW 3140   0.447   0.434   2.149 -0.4051  0.0515  0.3315
  786SOL     OW 3141   1.877   0.516   3.035  0.2329 -0.1449  0.1558
  786SOL    HW1 3142   1.871   0.558   2.945  0.5787  1.3480 -2.1103
  786SOL    HW2 3143   1.801   0.541   3.090 -3.3677 -0.7340 -0.3810
  786SOL     MW 3144   1.866   0.525   3.031 -0.1965 -0.0256 -0.2140
  787SOL     OW 3145   2.387   0.199   2.914 -0.1286 -0.0279 -0.0782
  787SOL    HW1 3146   2.469   0.153   2.872  2.1798  0.6398 -2.0528
  787SOL    HW2 3147   2.431   0.281   2.948  1.4209  0.7300  0.8926
  787SOL     MW 3148   2.404   0.203   2.913  0.3804  0.1602 -0.2106
  788SOL     OW 3149   2.920   2.883   2.386  0.1135  0.2378 -0.0948
  788SOL    HW1 3150   2.990   2.876   2.449  0.4492  0.6822  1.0042
  788SOL    HW2 3151   2.950   2.838   2.303 -0.5526  1.0812 -0.1940
  788SOL     MW 3152   2.933   2.876   2.383  0.0699  0.4077  0.0371
  789SOL     OW 3153   0.103   0.194   0.072  0.4580  0.3384 -0.5058
  789SOL    HW1 3154   0.031   0.135   0.093 -1.9338 -1.1725 -1.2777
  789SOL    HW2 3155   0.053   0.252   0.017 -0.5334 -1.9631  0.8208
  789SOL     MW 3156   0.087   0.194   0.068  0.0116 -0.1646 -0.4326
  790SOL     OW 3157   3.046   0.942   2.479 -0.2537  0.2799  0.2019
  790SOL    HW1 3158   3.001   0.927   2.561  1.2144  0.6650 -4.0628
  790SOL    HW2 3159   2.970   0.956   2.418 -0.5379 -0.3441 -1.4506
  790SOL     MW 3160   3.030   0.941   2.482 -0.0975  0.2483 -0.5788
  791SOL     OW 3161   2.508   0.506   2.580  0.6027  0.0038  0.4099
  791SOL    HW1 3162   2.484   0.537   2.669 -0.3291  1.3243 -0.9470
  791SOL    HW2 3163   2.542   0.416   2.589 -0.2688  0.7539 -2.2807
  791SOL     MW 3164   2.509   0.498   2.593  0.3648  0.2770 -0.1241
  792SOL     OW 3165   2.491   0.225   2.443 -0.3462 -0.1088 -0.0147
  792SOL    HW1 3166   2.439   0.296   2.400  2.2461  2.9743 -0.8069
  792SOL    HW2 3167   2.432   0.208   2.516 -1.7140  1.4137  0.6154
  792SOL     MW 3168   2.477   0.232   2.447 -0.1847  0.4989 -0.0361
  793SOL     OW 3169   1.845   1.139   2.052 -0.3537 -0.2568 -0.3011
  793SOL    HW1 3170   1.806   1.127   1.966  0.2185 -0.8671  3.2843
  793SOL    HW2 3171   1.936   1.122   2.026 -1.7375 -0.7735  0.0731
  793SOL     MW 3172   1.852   1.136   2.037 -0.4608 -0.4055  0.2213
  794SOL     OW 3173   1.373   2.295   0.116 -0.3880  0.4746  0.0535
  794SOL    HW1 3174   1.417   2.371   0.075 -0.7926 -2.2197  1.2128
  794SOL    HW2 3175   1.431   2.264   0.178  1.6468  0.4299 -4.0781
  794SOL     MW 3176   1.387   2.301   0.119 -0.1729  0.1132 -0.3387
  795SOL     OW 3177   2.281   1.027   2.506 -0.2370  0.1221  0.2349
  795SOL    HW1 3178   2.220   1.068   2.569  0.6644  2.5006 -1.1988
  795SOL    HW2 3179   2.353   1.098   2.491  3.6351  2.4279  1.3177
  795SOL     MW 3180   2.282   1.041   2.512  0.3928  0.7401  0.1886
  796SOL     OW 3181   0.250   0.585   2.677  0.0975  0.5321  0.0796
  796SOL    HW1 3182   0.199   0.633   2.739 -0.1920 -0.3606  1.1750
  796SOL    HW2 3183   0.215   0.618   2.596 -0.7133  0.5169 -0.4855
  796SOL     MW 3184   0.239   0.595   2.674 -0.0477  0.4123  0.1496
  797SOL     OW 3185   2.766   0.217   2.661 -0.3549 -0.1464  0.0875
  797SOL    HW1 3186   2.747   0.191   2.568 -0.1802  0.5064 -0.0157
  797SOL    HW2 3187   2.861   0.223   2.652 -1.9375  1.7151 -1.6974
  797SOL     MW 3188   2.776   0.215   2.647 -0.5407  0.1853 -0.1616
  798SOL     OW 3189   2.414   0.019   2.264 -0.1062 -0.6481  0.5733
  798SOL    HW1 3190   2.445   0.077   2.342 -0.8077 -2.7512  2.1017
  798SOL    HW2 3191   2.490   0.018   2.206 -1.7189 -1.1041  0.6773
  798SOL     MW 3192   2.428   0.027   2.267 -0.4115 -0.9857  0.7887
  799SOL     OW 3193   2.581   3.006   0.074 -0.3513  0.9529  0.2339
  799SOL    HW1 3194   2.504   2.976   0.030  0.2740  2.0229 -2.1330
  799SOL    HW2 3195   2.568   2.986   0.174  1.0273 -1.0230  0.8782
  799SOL     MW 3196   2.569   2.999   0.081 -0.0869  0.8334  0.0066
  800SOL     OW 3197   1.947   3.000   1.745  0.1032 -0.3659 -0.2823
  800SOL    HW1 3198   1.866   2.943   1.744 -1.8258  0.0253 -3.0325
  800SOL    HW2 3199   1.951   3.014   1.837  0.5911  1.4829 -1.0564
  800SOL     MW 3200   1.937   2.994   1.757 -0.0870 -0.0704 -0.7473
  801SOL     OW 3201   2.891   1.268   2.583 -0.2556 -0.5622  0.1570
  801SOL    HW1 3202   2.855   1.185   2.598  1.6011  0.3848 -0.3968
  801SOL    HW2 3203   2.975   1.262   2.535  0.6032 -0.4547  0.5328
  801SOL     MW 3204   2.898   1.256   2.579  0.1027 -0.4231  0.1335
  802SOL     OW 3205   2.636   1.420   2.826 -0.0252 -0.7726 -0.2512
  802SOL    HW1 3206   2.604   1.339   2.766  2.2209  0.0650 -2.1626
  802SOL    HW2 3207   2.706   1.397   2.882 -0.1017  2.3267  2.4433
  802SOL     MW 3208   2.641   1.406   2.825  0.2610 -0.2532 -0.1479
  803SOL     OW 3209   2.348   1.405   1.990 -0.3683  0.3545  0.1267
  803SOL    HW1 3210   2.303   1.385   2.069  0.1813  0.8885 -0.2006
  803SOL    HW2 3211   2.329   1.331   1.932 -0.3084 -1.1137  1.3367
  803SOL     MW 3212   2.340   1.393   1.993 -0.2879  0.2312  0.2432
  804SOL     OW 3213   2.242   0.127   0.047  0.3447  0.0804  0.1747
  804SOL    HW1 3214   2.170   0.183   0.040  1.4020 -1.7713  0.4587
  804SOL    HW2 3215   2.308   0.157  -0.015  0.1807 -3.5352  1.1714
  804SOL     MW 3216   2.242   0.138   0.038  0.4626 -0.6410  0.3437
  805SOL     OW 3217   2.721   0.810   2.664 -0.3845 -0.0250 -0.5611
  805SOL    HW1 3218   2.634   0.814   2.623 -1.5876  1.4778 -0.0034
  805SOL    HW2 3219   2.779   0.757   2.617  0.4723 -1.1937  1.9622
  805SOL     MW 3220   2.717   0.804   2.652 -0.4302  0.0191 -0.1546
  806SOL     OW 3221   2.648   0.753   2.194  0.7562 -0.7512 -0.0903
  806SOL    HW1 3222   2.720   0.776   2.137  1.6521  2.1152  1.2350
  806SOL    HW2 3223   2.609   0.840   2.216  1.2761 -0.8694  1.3577
  806SOL     MW 3224   2.652   0.768   2.189  0.9430 -0.3886  0.2756
  807SOL     OW 3225   3.055   1.062   2.010  0.4675  0.0743  0.4841
  807SOL    HW1 3226   3.074   0.968   2.008  0.2764  0.1647 -2.1186
  807SOL    HW2 3227   3.014   1.085   2.093 -2.2016  3.0065  2.9857
  807SOL     MW 3228   3.052   1.053   2.021  0.0901  0.4731  0.4708
  808SOL     OW 3229   2.607   0.075   2.821  0.0940 -0.2610  0.2324
  808SOL    HW1 3230   2.601  -0.021   2.805  2.4456 -1.1661 -1.2887
  808SOL    HW2 3231   2.654   0.118   2.754  1.8575 -0.1098 -1.2995
  808SOL     MW 3232   2.612   0.068   2.810  0.6370 -0.3605 -0.1704
  809SOL     OW 3233   2.696   1.356   2.442 -0.1139 -0.1185  0.1149
  809SOL    HW1 3234   2.780   1.339   2.495 -0.5970  3.1250 -0.9759
  809SOL    HW2 3235   2.727   1.331   2.356 -1.0059  1.5930  0.5857
  809SOL     MW 3236   2.711   1.350   2.437 -0.2953  0.5352  0.0331
  810SOL     OW 3237   2.239   1.300   2.208 -0.0663  0.2369  0.4921
  810SOL    HW1 3238   2.299   1.290   2.282  1.4911 -2.7432 -2.1360
  810SOL    HW2 3239   2.236   1.215   2.168 -1.9238 -0.5767  2.7139
  810SOL     MW 3240   2.247   1.287   2.212 -0.1059 -0.2637  0.4385
  811SOL     OW 3241   1.624   0.214   2.273  0.3148 -0.4058 -0.4983
  811SOL    HW1 3242   1.688   0.139   2.282  1.5309 -3.7708  0.7111
  811SOL    HW2 3243   1.598   0.221   2.175 -0.0523  0.3923 -2.2218
  811SOL     MW 3244   1.629   0.205   2.261  0.4268 -0.7445 -0.5661
  812SOL     OW 3245   1.467   2.802   2.057  0.3518 -0.0366 -0.1263
  812SOL    HW1 3246   1.560   2.806   2.040 -1.4776  0.3131 -1.2560
  812SOL    HW2 3247   1.462   2.755   2.143  1.8651  0.2839  1.3870
  812SOL     MW 3248   1.479   2.797   2.066  0.3101  0.0518 -0.0757
  813SOL     OW 3249   1.985   0.632   2.251  0.0376 -0.1011  0.1169
  813SOL    HW1 3250   1.882   0.628   2.241 -2.1334 -2.1334  0.0794
  813SOL    HW2 3251   2.006   0.726   2.280 -0.3344  0.5243 -1.4281
  813SOL     MW 3252   1.974   0.644   2.253 -0.2979 -0.2867 -0.0919
  814SOL     OW 3253   2.707   1.294   1.647 -0.2329 -0.0960  0.0364
  814SOL    HW1 3254   2.704   1.216   1.697 -0.8389  1.8653 -0.5229
  814SOL    HW2 3255   2.727   1.265   1.559  1.5610 -2.9615  1.2202
  814SOL     MW 3256   2.709   1.280   1.642 -0.0762 -0.2153  0.1188
  815SOL     OW 3257   2.541   1.775   2.367 -0.0074 -0.5254  0.4765
  815SOL    HW1 3258   2.497   1.705   2.303 -1.5462 -1.8393  0.0149
  815SOL    HW2 3259   2.633   1.743   2.376  0.5139 -0.6408  1.2505
  815SOL     MW 3260   2.547   1.761   2.360 -0.1417 -0.7140  0.5177
  816SOL     OW 3261   0.697   0.684   2.774 -0.0943  0.3057  0.2266
  816SOL    HW1 3262   0.720   0.589   2.780 -0.2340  3.4908 -1.5783
  816SOL    HW2 3263   0.625   0.692   2.715  4.1162 -1.7560  2.1866
  816SOL     MW 3264   0.690   0.672   2.767  0.4428  0.4539  0.2471
  817SOL     OW 3265   3.003   1.269   1.450 -0.2320  0.1279 -0.5668
  817SOL    HW1 3266   3.095   1.267   1.483  1.4954  1.8304  1.1694
  817SOL    HW2 3267   2.999   1.356   1.413 -0.7050  2.6462  3.1468
  817SOL     MW 3268   3.014   1.280   1.449 -0.0665  0.6848  0.1523
  818SOL     OW 3269   1.925   1.059   2.641  0.4027 -0.3465  0.0300
  818SOL    HW1 3270   1.904   0.988   2.575  0.1905 -4.2039 -0.4890
  818SOL    HW2 3271   1.998   1.010   2.684  0.0169  1.2695  0.4056
  818SOL     MW 3272   1.932   1.043   2.638  0.3238 -0.6422  0.0111
  819SOL     OW 3273   2.062   0.320   2.415 -0.7681  0.4210  0.4489
  819SOL    HW1 3274   1.994   0.386   2.400 -0.5633  1.1433  1.4195
  819SOL    HW2 3275   2.049   0.302   2.503 -1.6148  0.1540  0.7269
  819SOL     MW 3276   2.051   0.327   2.425 -0.8528  0.4811  0.6137
  820SOL     OW 3277   2.481   1.672   2.605  0.0199  0.0507  1.2178
  820SOL    HW1 3278   2.550   1.616   2.640  1.6537  1.0328  1.4134
  820SOL    HW2 3279   2.502   1.683   2.513  0.7664  1.9406  1.1998
  820SOL     MW 3280   2.493   1.666   2.598  0.3340  0.4296  1.2412
  821SOL     OW 3281   2.624   1.389   2.055  0.0016 -0.6755 -0.9031
  821SOL    HW1 3282   2.668   1.440   1.986  1.4155 -1.3500  0.5557
  821SOL    HW2 3283   2.527   1.418   2.049 -1.8518  1.2241  0.3128
  821SOL     MW 3284   2.617   1.399   2.045 -0.0564 -0.5138 -0.5502
  822SOL     OW 3285   2.957   2.726   1.514 -0.1878 -0.5666 -0.0708
  822SOL    HW1 3286   2.952   2.709   1.613 -1.0652 -1.2059 -1.7713
  822SOL    HW2 3287   2.898   2.794   1.495  1.1827 -0.8285  1.2428
  822SOL     MW 3288   2.949   2.733   1.525 -0.1227 -0.6855 -0.1219
  823SOL     OW 3289   2.378   0.468   1.881 -0.0354 -0.3624 -0.4393
  823SOL    HW1 3290   2.469   0.442   1.902  3.2276 -0.8220  2.8254
  823SOL    HW2 3291   2.341   0.478   1.966  0.3019  0.8241 -0.4905
  823SOL     MW 3292   2.385   0.466   1.895  0.4396 -0.2665 -0.0153
  824SOL     OW 3293   2.257   1.539   2.501  0.2093 -0.4839  0.7134
  824SOL    HW1 3294   2.313   1.587   2.562 -1.0449  0.1789 -0.4216
  824SOL    HW2 3295   2.177   1.596   2.501  1.8592  0.9268 -0.8403
  824SOL     MW 3296   2.254   1.553   2.509  0.2615 -0.2103  0.3587
  825SOL     OW 3297   1.896   2.630   0.231  0.3794  0.0173  0.1726
  825SOL    HW1 3298   1.869   2.546   0.270  1.4397  1.2765 -4.8874
  825SOL    HW2 3299   1.970   2.606   0.183 -1.9828 -1.9154  0.5898
  825SOL     MW 3300   1.903   2.616   0.230  0.2076 -0.0715 -0.4399
  826SOL     OW 3301   1.857   2.347   0.391 -0.3165 -0.8909  0.7955
  826SOL    HW1 3302   1.818   2.270   0.432  0.2692  0.1877  2.5631
  826SOL    HW2 3303   1.860   2.416   0.449 -0.5403 -0.5005 -1.5900
  826SOL     MW 3304   1.852   2.346   0.404 -0.2688 -0.6970  0.7140
  827SOL     OW 3305   1.980   2.182   0.770 -0.2130  0.3697 -0.8019
  827SOL    HW1 3306   1.902   2.202   0.713 -1.0496 -0.6168 -2.4833
  827SOL    HW2 3307   1.943   2.108   0.827 -0.6254 -2.3521 -0.7767
  827SOL     MW 3308   1.965   2.175   0.770 -0.3778 -0.1196 -1.0204
  828SOL     OW 3309   0.055   2.644   0.622 -0.6891 -0.1050 -0.7079
  828SOL    HW1 3310   0.149   2.641   0.612 -1.8236 -0.2758 -1.5059
  828SOL    HW2 3311   0.035   2.701   0.544 -0.3638 -1.0977 -1.0187
  828SOL     MW 3312   0.065   2.651   0.611 -0.7958 -0.2585 -0.8542
  829SOL     OW 3313   2.959   2.986   1.183  0.2902  0.0515 -0.0058
  829SOL    HW1 3314   2.873   2.983   1.141  2.3257  0.3256  2.9930
  829SOL    HW2 3315   2.989   2.890   1.181  1.9908 -2.9699  2.3274
  829SOL     MW 3316   2.952   2.973   1.177  0.7831 -0.3110  0.6977
  830SOL     OW 3317   2.535   2.831   1.995 -0.0278  0.1362  0.4837
  830SOL    HW1 3318   2.448   2.857   1.965  0.4890 -0.9021 -2.3542
  830SOL    HW2 3319   2.576   2.810   1.908  2.8585 -0.0225 -0.4704
  830SOL     MW 3320   2.529   2.831   1.979  0.4212 -0.0217 -0.0166
  831SOL     OW 3321   2.430   2.412   1.215 -0.2978 -0.0173  0.3482
  831SOL    HW1 3322   2.363   2.369   1.260  1.4629  1.4130  0.9982
  831SOL    HW2 3323   2.511   2.366   1.247 -2.2599 -2.3123 -0.2627
  831SOL     MW 3324   2.432   2.401   1.225 -0.3244 -0.1314  0.3534
  832SOL     OW 3325   2.299   2.196   1.848 -0.5132 -0.7512 -0.5094
  832SOL    HW1 3326   2.340   2.291   1.845  1.2760 -2.2162 -2.1311
  832SOL    HW2 3327   2.378   2.141   1.841  1.0210  0.4735 -0.6018
  832SOL     MW 3328   2.315   2.201   1.847 -0.0747 -0.7829 -0.7355
  833SOL     OW 3329   1.723   2.513   0.879 -0.3538  0.3088  0.5424
  833SOL    HW1 3330   1.662   2.459   0.924  0.5756  1.0155 -2.0535
  833SOL    HW2 3331   1.737   2.580   0.947 -0.8932 -2.3584 -2.3510
  833SOL     MW 3332   1.717   2.515   0.894 -0.3023  0.0501 -0.1819
  834SOL     OW 3333   2.145   2.446   0.550 -1.0908  0.1502  0.3389
  834SOL    HW1 3334   2.116   2.359   0.584  1.0605 -1.7708  0.4771
  834SOL    HW2 3335   2.191   2.417   0.470  2.2004 -1.1982  0.6238
  834SOL     MW 3336   2.147   2.430   0.544 -0.3727 -0.2812  0.3948
  835SOL     OW 3337   1.830   2.568   0.638 -0.0074  0.4884 -0.1116
  835SOL    HW1 3338   1.795   2.554   0.720  1.6583 -0.4430 -1.6568
  835SOL    HW2 3339   1.914   2.613   0.661  1.4626 -1.2869  0.4481
  835SOL     MW 3340   1.837   2.572   0.652  0.4063  0.1313 -0.2416
  836SOL     OW 3341   1.899   2.236   1.542  0.0138 -0.0940  0.2643
  836SOL    HW1 3342   1.983   2.214   1.582  3.2944  1.7314 -0.1780
  836SOL    HW2 3343   1.840   2.269   1.614  1.3616  2.0429 -0.3023
  836SOL     MW 3344   1.902   2.238   1.557  0.6245  0.4287  0.1312
  837SOL     OW 3345   2.166   0.242   0.739 -0.2517 -0.4424 -0.2023
  837SOL    HW1 3346   2.074   0.249   0.697 -1.5936  0.0462 -1.1504
  837SOL    HW2 3347   2.228   0.221   0.664 -0.1228  0.6305 -1.4574
  837SOL     MW 3348   2.162   0.240   0.723 -0.4117 -0.2364 -0.4930
  838SOL     OW 3349   2.939   2.074   0.937  0.0557 -0.0022  0.3922
  838SOL    HW1 3350   2.867   2.006   0.930  1.6107  0.2157  1.5728
  838SOL    HW2 3351   3.023   2.036   0.906  1.7665  3.1507 -0.8328
  838SOL     MW 3352   2.940   2.060   0.932  0.4866  0.4426  0.3863
  839SOL     OW 3353   1.517   2.338   1.051 -0.3315  0.8352 -0.0275
  839SOL    HW1 3354   1.537   2.402   1.119  0.2679  0.2415 -0.7270
  839SOL    HW2 3355   1.546   2.254   1.096  1.7510 -1.2951 -1.2365
  839SOL     MW 3356   1.524   2.335   1.066  0.0224  0.4758 -0.2793
  840SOL     OW 3357   2.394   2.241   2.437 -0.1125  0.5752 -0.9343
  840SOL    HW1 3358   2.352   2.304   2.386  1.6494 -2.1102 -0.6172
  840SOL    HW2 3359   2.357   2.246   2.523  0.6340 -0.6379  1.6598
  840SOL     MW 3360   2.384   2.250   2.441  0.2185  0.0608 -0.5502
  841SOL     OW 3361   2.105   2.497   0.106 -1.0655  0.0259 -0.3816
  841SOL    HW1 3362   2.172   2.537   0.046 -1.6386 -0.0248 -0.5065
  841SOL    HW2 3363   2.074   2.411   0.070 -0.9258 -0.7260 -0.1805
  841SOL     MW 3364   2.110   2.491   0.093 -1.1227 -0.0800 -0.3716
  842SOL     OW 3365   2.665   2.098   1.562  0.1005 -0.1751 -0.4564
  842SOL    HW1 3366   2.631   2.116   1.652  0.4413 -1.9347 -1.0789
  842SOL    HW2 3367   2.596   2.058   1.508  2.1568  0.4526  1.0476
  842SOL     MW 3368   2.651   2.095   1.567  0.4167 -0.3245 -0.3401
  843SOL     OW 3369   2.664   2.760   1.760 -0.0159 -0.0847  0.2137
  843SOL    HW1 3370   2.752   2.730   1.774 -1.5875  0.7774  0.4470
  843SOL    HW2 3371   2.601   2.679   1.753  0.9200 -0.2512  0.4415
  843SOL     MW 3372   2.667   2.745   1.761 -0.0998  0.0071  0.2746
  844SOL     OW 3373   2.701   2.320   1.237  0.3758  0.3742  0.2256
  844SOL    HW1 3374   2.713   2.334   1.143 -1.9733 -1.0469 -0.7278
  844SOL    HW2 3375   2.777   2.376   1.270  3.8782  3.3168 -0.2564
  844SOL     MW 3376   2.713   2.329   1.229  0.5280  0.5750  0.0362
  845SOL     OW 3377   2.870   2.473   0.344 -0.2410 -0.0687  0.0844
  845SOL    HW1 3378   2.822   2.388   0.336 -0.6352  0.0132  2.0208
  845SOL    HW2 3379   2.852   2.490   0.436  0.9679 -0.8037 -0.3694
  845SOL     MW 3380   2.861   2.464   0.355 -0.1335 -0.1548  0.2800
  846SOL     OW 3381   1.509   2.877   0.754  0.0791  0.0207  0.1606
  846SOL    HW1 3382   1.579   2.894   0.818  1.6063  1.2632  1.0479
  846SOL    HW2 3383   1.430   2.925   0.784  1.2564  0.0003 -0.8406
  846SOL     MW 3384   1.508   2.886   0.766  0.4359  0.1819  0.1456
  847SOL     OW 3385   2.629   1.981   0.162  0.1014  0.6148  0.7042
  847SOL    HW1 3386   2.642   1.950   0.249  1.1912 -0.7990  1.4642
  847SOL    HW2 3387   2.569   1.921   0.125 -1.5690  0.5512  1.7868
  847SOL     MW 3388   2.622   1.969   0.169  0.0248  0.4199  0.9473
  848SOL     OW 3389   2.512   2.081   1.282  0.4710  0.4869 -0.0367
  848SOL    HW1 3390   2.603   2.087   1.256  2.1137  0.5281  1.9169
  848SOL    HW2 3391   2.477   1.989   1.261  1.7485 -0.9929 -0.7487
  848SOL     MW 3392   2.519   2.069   1.276  0.8563  0.2971  0.1271
  849SOL     OW 3393   2.047   2.674   0.773 -0.7581 -0.1104 -0.1409
  849SOL    HW1 3394   2.053   2.592   0.819  0.7382  3.2599 -2.7752
  849SOL    HW2 3395   2.119   2.681   0.707 -0.5422  0.0665  0.5763
  849SOL     MW 3396   2.057   2.664   0.771 -0.5322  0.3576 -0.3939
  850SOL     OW 3397   2.217   1.897   1.713 -0.2364  0.6727  0.2190
  850SOL    HW1 3398   2.145   1.838   1.691  1.2918 -0.9802  0.1981
  850SOL    HW2 3399   2.189   1.986   1.699  1.3246  1.2041  1.1302
  850SOL     MW 3400   2.204   1.901   1.708  0.1712  0.5247  0.3364
  851SOL     OW 3401   2.287   2.384   0.313 -0.1356  0.0252  0.0683
  851SOL    HW1 3402   2.224   2.427   0.257  0.7355 -0.4684  1.7544
  851SOL    HW2 3403   2.367   2.445   0.328 -0.4182  0.7373 -2.5739
  851SOL     MW 3404   2.289   2.397   0.308 -0.0579  0.0540 -0.0579
  852SOL     OW 3405   2.342   2.106   0.288  0.5207 -0.1471  0.1074
  852SOL    HW1 3406   2.308   2.194   0.321  0.7101  1.0385 -0.8559
  852SOL    HW2 3407   2.372   2.127   0.199  1.9044 -0.9475  0.1123
  852SOL     MW 3408   2.342   2.120   0.281  0.7283 -0.0963 -0.0191
  853SOL     OW 3409   2.431   2.433   1.866 -0.0362 -0.0939  0.5048
  853SOL    HW1 3410   2.445   2.486   1.787  2.7366  0.6843  0.1881
  853SOL    HW2 3411   2.517   2.396   1.883 -2.0858  1.6693 -0.6769
  853SOL     MW 3412   2.444   2.435   1.858  0.0593  0.2414  0.3071
  854SOL     OW 3413   2.814   2.249   0.753  0.2382 -0.1360 -0.4961
  854SOL    HW1 3414   2.769   2.184   0.699  0.9181  0.3696 -1.9388
  854SOL    HW2 3415   2.878   2.197   0.804 -0.9056 -1.2976  0.8235
  854SOL     MW 3416   2.816   2.234   0.753  0.1770 -0.2226 -0.5123
  855SOL     OW 3417   2.720   2.243   0.371 -0.3463  0.2671 -0.0779
  855SOL    HW1 3418   2.658   2.286   0.434  2.3874 -1.9462 -0.4198
  855SOL    HW2 3419   2.789   2.190   0.413 -0.0360 -1.9628 -1.7408
  855SOL     MW 3420   2.721   2.242   0.385  0.0553 -0.3192 -0.3424
  856SOL     OW 3421   2.180   1.869   0.202  0.5011  0.3529 -0.3763
  856SOL    HW1 3422   2.087   1.896   0.224 -0.0091 -0.6021 -0.0608
  856SOL    HW2 3423   2.241   1.934   0.232  1.1266 -0.0639 -1.6159
  856SOL     MW 3424   2.175   1.881   0.209  0.5163  0.1719 -0.4982
  857SOL     OW 3425   2.464   1.899   0.441 -0.1728 -0.3817  0.0325
  857SOL    HW1 3426   2.422   1.961   0.380 -0.8484  2.1871 -1.2762
  857SOL    HW2 3427   2.406   1.821   0.447  1.6690 -0.3257 -0.6167
  857SOL     MW 3428   2.450   1.897   0.434 -0.0190 -0.0353 -0.2258
  858SOL     OW 3429   2.935   2.684   1.798  0.1794 -0.0491 -0.2781
  858SOL    HW1 3430   3.033   2.682   1.819  0.4957  1.7280 -0.3176
  858SOL    HW2 3431   2.906   2.598   1.777 -1.2500  1.5526 -3.7382
  858SOL     MW 3432   2.944   2.673   1.798  0.0326  0.3967 -0.7398
  859SOL     OW 3433   2.057   2.417   0.880  0.4882 -0.1592  0.3879
  859SOL    HW1 3434   2.039   2.330   0.844 -2.2010  0.3838 -1.6129
  859SOL    HW2 3435   2.145   2.404   0.912 -1.2216  1.0186 -2.4038
  859SOL     MW 3436   2.067   2.404   0.879 -0.0922  0.0678 -0.2444
  860SOL     OW 3437   2.674   2.566   0.165 -0.2306  0.1329  0.0769
  860SOL    HW1 3438   2.735   2.553   0.233 -1.6380  1.4317  0.3819
  860SOL    HW2 3439   2.695   2.655   0.124  1.8299  0.6214  0.1143
  860SOL     MW 3440   2.685   2.576   0.168 -0.1444  0.3687  0.1221
  861SOL     OW 3441   1.640   2.102   1.177 -0.4926 -0.8072  0.3888
  861SOL    HW1 3442   1.715   2.116   1.239  1.5358 -0.4421 -0.6934
  861SOL    HW2 3443   1.567   2.062   1.229 -0.2078 -0.3760  0.1756
  861SOL     MW 3444   1.640   2.099   1.192 -0.1874 -0.7021  0.2179
  862SOL     OW 3445   2.444   1.857   1.550  0.3410 -0.1701  0.7243
  862SOL    HW1 3446   2.367   1.881   1.608 -0.2656 -0.5796 -1.1749
  862SOL    HW2 3447   2.409   1.877   1.465 -0.9959 -1.8947 -0.0443
  862SOL     MW 3448   2.429   1.863   1.546  0.0846 -0.4517  0.3723
  863SOL     OW 3449   3.006   1.821   1.238  0.1502  0.1805  0.2610
  863SOL    HW1 3450   3.070   1.788   1.302 -2.0870  2.6865  4.3448
  863SOL    HW2 3451   3.017   1.913   1.239 -2.6297 -2.0318  1.1076
  863SOL     MW 3452   3.016   1.829   1.247 -0.5118  0.2192  0.9115
  864SOL     OW 3453   0.044   1.864   0.920  0.7192  0.2751  0.2213
  864SOL    HW1 3454   0.007   1.841   1.002 -3.8352  1.1813 -1.5475
  864SOL    HW2 3455   0.003   1.806   0.858  0.6615  3.5150 -1.3103
  864SOL     MW 3456   0.033   1.853   0.923  0.1107  0.8222 -0.2141
  865SOL     OW 3457   2.476   2.166   0.039 -0.4081  0.4623 -0.0245
  865SOL    HW1 3458   2.550   2.108   0.070  1.8601 -1.8374  1.9457
  865SOL    HW2 3459   2.445   2.119  -0.036  0.7418  1.2655  2.1893
  865SOL     MW 3460   2.482   2.152   0.033  0.0429  0.2649  0.5276
  866SOL     OW 3461   2.710   2.364   1.528  0.4693 -0.6416  0.3509
  866SOL    HW1 3462   2.714   2.269   1.517  0.9214 -0.0943  0.9044
  866SOL    HW2 3463   2.750   2.403   1.448 -0.3667 -1.5855  1.4950
  866SOL     MW 3464   2.716   2.356   1.516  0.4187 -0.6940  0.5749
  867SOL     OW 3465   0.102   2.699   1.855  0.0475  0.4110  0.0219
  867SOL    HW1 3466   0.175   2.669   1.903 -0.8710  0.9567 -1.1895
  867SOL    HW2 3467   0.107   2.785   1.816 -1.8632 -2.2421 -0.4897
  867SOL     MW 3468   0.112   2.706   1.856 -0.3258  0.1329 -0.2054
  868SOL     OW 3469   2.765   2.576   0.608 -0.3128 -0.5074 -0.2490
  868SOL    HW1 3470   2.687   2.528   0.591 -0.4503 -1.6377 -0.3923
  868SOL    HW2 3471   2.767   2.639   0.539  2.0000 -2.9050  0.3439
  868SOL     MW 3472   2.755   2.578   0.597 -0.0258 -0.9729 -0.1897
  869SOL     OW 3473   1.902   2.310   1.092  0.0520  0.1921  0.2878
  869SOL    HW1 3474   1.935   2.343   1.011 -0.4982 -1.4450  0.9983
  869SOL    HW2 3475   1.813   2.344   1.084 -3.7940 -0.7864 -0.9032
  869SOL     MW 3476   1.894   2.318   1.080 -0.5280 -0.1530  0.2244
  870SOL     OW 3477   2.320   0.114   0.529  0.1354  0.1925  0.3020
  870SOL    HW1 3478   2.356   0.149   0.449  2.5814  1.4443  0.0949
  870SOL    HW2 3479   2.397   0.122   0.582  0.8915 -2.5266 -2.7282
  870SOL     MW 3480   2.335   0.120   0.526  0.5579 -0.0011 -0.1252
  871SOL     OW 3481   2.451   2.165   0.783  0.4430 -0.1672  0.2916
  871SOL    HW1 3482   2.376   2.110   0.779 -2.3479 -1.6330  0.7084
  871SOL    HW2 3483   2.422   2.238   0.841 -1.3789  0.0152 -1.8475
  871SOL     MW 3484   2.437   2.168   0.790 -0.1656 -0.3365  0.0643
  872SOL     OW 3485   2.037   2.586   1.463 -0.0210  0.6204 -0.2718
  872SOL    HW1 3486   2.002   2.580   1.551  0.5717  0.1821  0.6144
  872SOL    HW2 3487   1.974   2.526   1.418 -1.6047 -0.5750  0.4885
  872SOL     MW 3488   2.024   2.577   1.468 -0.1517  0.4049 -0.0546
  873SOL     OW 3489   2.833   2.028   1.889 -0.3208 -0.1051  0.5186
  873SOL    HW1 3490   2.868   2.104   1.946  2.1193 -0.2404 -1.8975
  873SOL    HW2 3491   2.900   2.021   1.819 -0.6303 -1.2884  1.2310
  873SOL     MW 3492   2.847   2.037   1.887 -0.0397 -0.2791  0.2938
  874SOL     OW 3493   2.434   1.548   2.271  0.5106 -0.1015 -0.1575
  874SOL    HW1 3494   2.360   1.545   2.331  2.3948 -1.5268 -1.3654
  874SOL    HW2 3495   2.490   1.473   2.288 -2.3100  0.2813  1.0356
  874SOL     MW 3496   2.431   1.538   2.281  0.3871 -0.2390 -0.1594
  875SOL     OW 3497   2.337   2.384   0.955  0.3013  0.1918 -0.2841
  875SOL    HW1 3498   2.382   2.461   0.908  0.7525  1.8203 -1.2209
  875SOL    HW2 3499   2.375   2.389   1.044 -1.6617  0.4519  1.5719
  875SOL     MW 3500   2.348   2.395   0.961  0.1019  0.4410 -0.1628
  876SOL     OW 3501   3.046   2.319   1.322  0.2038 -0.3507  0.0736
  876SOL    HW1 3502   3.105   2.335   1.248  3.0162 -0.4775 -0.6343
  876SOL    HW2 3503   3.086   2.382   1.389 -0.2899  1.7485 -0.6389
  876SOL     MW 3504   3.059   2.330   1.321  0.5097 -0.0905 -0.1138
  877SOL     OW 3505   3.086   2.799   0.427  0.1655 -0.5142 -0.2915
  877SOL    HW1 3506   3.109   2.878   0.384 -0.7119 -0.7643 -0.6559
  877SOL    HW2 3507   3.065   2.746   0.348 -0.4647 -1.2810 -0.3486
  877SOL     MW 3508   3.086   2.802   0.411 -0.0334 -0.6484 -0.3471
  878SOL     OW 3509   2.407   1.832   1.241  0.1923 -0.3427  0.2524
  878SOL    HW1 3510   2.374   1.741   1.267 -1.5264 -2.2424  2.3980
  878SOL    HW2 3511   2.501   1.808   1.228 -0.9856  2.8172 -1.0945
  878SOL     MW 3512   2.415   1.817   1.243 -0.1899 -0.1764  0.3578
  879SOL     OW 3513   2.696   2.410   0.964 -0.1707 -0.1258 -0.1956
  879SOL    HW1 3514   2.763   2.481   0.974 -1.5154 -0.7148  1.3636
  879SOL    HW2 3515   2.725   2.366   0.884  2.4160 -1.0535  2.1583
  879SOL     MW 3516   2.709   2.414   0.955 -0.0069 -0.3259  0.3207
  880SOL     OW 3517   2.707   2.023   0.611 -0.4459 -0.7332  0.5670
  880SOL    HW1 3518   2.624   2.013   0.664  0.3049  1.9016  1.7502
  880SOL    HW2 3519   2.672   2.030   0.521 -1.7646 -0.0838 -0.9475
  880SOL     MW 3520   2.691   2.023   0.606 -0.5209 -0.2999  0.5233
  881SOL     OW 3521   2.922   2.751   0.756  0.1708 -0.2606 -0.2775
  881SOL    HW1 3522   2.883   2.675   0.702  0.0263 -1.3084 -2.2747
  881SOL    HW2 3523   3.020   2.745   0.740 -0.6677 -1.4022  0.1835
  881SOL     MW 3524   2.930   2.740   0.747  0.0411 -0.5495 -0.4802
  882SOL     OW 3525   2.276   2.842   1.885  0.2783 -0.6141 -0.3384
  882SOL    HW1 3526   2.260   2.840   1.792 -0.2668  0.7738 -0.1860
  882SOL    HW2 3527   2.227   2.772   1.924 -0.1018 -1.7946 -0.1996
  882SOL     MW 3528   2.267   2.833   1.878  0.1562 -0.5867 -0.3000
  883SOL     OW 3529   2.271   2.206   1.374 -0.3535  0.0828 -0.2730
  883SOL    HW1 3530   2.353   2.155   1.350 -0.3279  0.2047 -0.6162
  883SOL    HW2 3531   2.196   2.166   1.325 -3.4992 -2.9631 -0.1090
  883SOL     MW 3532   2.272   2.194   1.364 -0.7652 -0.3030 -0.2966
  884SOL     OW 3533   1.974   1.777   1.101 -0.0825  0.6901 -0.4949
  884SOL    HW1 3534   1.938   1.855   1.054 -0.6010 -0.9279  2.2762
  884SOL    HW2 3535   2.064   1.806   1.118  0.9315 -1.6374 -0.6890
  884SOL     MW 3536   1.981   1.791   1.097 -0.0171  0.1695 -0.1549
  885SOL     OW 3537   2.844   2.423   1.770  0.2603 -0.9053  0.7651
  885SOL    HW1 3538   2.912   2.362   1.781 -1.4967  0.3324  1.0514
  885SOL    HW2 3539   2.796   2.402   1.693  0.3918  0.8185  2.6269
  885SOL     MW 3540   2.847   2.412   1.761  0.0458 -0.5145  1.0485
  886SOL     OW 3541   2.850   2.529   1.333 -0.3147  0.7392  0.3332
  886SOL    HW1 3542   2.937   2.491   1.314  0.3692  1.8669 -0.0421
  886SOL    HW2 3543   2.863   2.595   1.398  1.2008 -0.7026 -1.0237
  886SOL     MW 3544   2.863   2.532   1.339 -0.0245  0.6978  0.1047
  887SOL     OW 3545   2.323   2.619   1.459 -0.4634  0.2626 -0.3437
  887SOL    HW1 3546   2.342   2.659   1.375 -1.3828 -1.3651 -0.2811
  887SOL    HW2 3547   2.245   2.563   1.448 -0.2886  0.2000 -1.1601
  887SOL     MW 3548   2.315   2.617   1.447 -0.5616  0.0395 -0.4432
  888SOL     OW 3549   1.836   2.041   1.379 -0.0634  0.0552 -0.4741
  888SOL    HW1 3550   1.928   2.044   1.346 -2.6730  0.7446 -1.5914
  888SOL    HW2 3551   1.836   2.106   1.454 -1.2788  0.6063  1.1372
  888SOL     MW 3552   1.848   2.050   1.385 -0.5681  0.2189 -0.4089
  889SOL     OW 3553   2.268   2.083   2.102  0.1880  0.0141 -0.2741
  889SOL    HW1 3554   2.357   2.070   2.143 -0.1077  0.1282  0.9188
  889SOL    HW2 3555   2.286   2.150   2.036 -0.3232  0.6291  1.2136
  889SOL     MW 3556   2.282   2.090   2.099  0.0816  0.1103  0.0796
  890SOL     OW 3557   0.103   2.303   0.082  0.0582  0.2713 -0.2953
  890SOL    HW1 3558   0.030   2.360   0.049  1.0737  2.3834 -2.9241
  890SOL    HW2 3559   0.101   2.296   0.178 -0.3932 -0.4344 -0.8326
  890SOL     MW 3560   0.093   2.310   0.091  0.1326  0.4569 -0.7131
  891SOL     OW 3561   3.059   2.052   1.357 -0.5260 -0.5833 -0.4987
  891SOL    HW1 3562   3.124   2.030   1.423  0.1216 -1.6028 -0.5211
  891SOL    HW2 3563   3.056   2.152   1.338 -0.1692 -2.5903 -0.6221
  891SOL     MW 3564   3.067   2.062   1.363 -0.3935 -0.9826 -0.5179
  892SOL     OW 3565   2.341   2.354   2.919 -0.1077  0.4133  0.7006
  892SOL    HW1 3566   2.353   2.302   2.995  1.4967  2.6707  0.3773
  892SOL    HW2 3567   2.429   2.375   2.885 -1.0125 -2.6060 -2.0004
  892SOL     MW 3568   2.354   2.350   2.925 -0.0154  0.3128  0.3016
  893SOL     OW 3569   1.578   2.498   1.281  0.6049  0.4929 -0.7924
  893SOL    HW1 3570   1.506   2.501   1.349 -1.9679 -3.1325  2.8001
  893SOL    HW2 3571   1.659   2.466   1.327  2.8990 -0.6111  1.0179
  893SOL     MW 3572   1.579   2.494   1.296  0.5681 -0.1311 -0.0796
  894SOL     OW 3573   2.897   1.825   0.552  0.1152 -0.0257 -0.5057
  894SOL    HW1 3574   2.832   1.895   0.584 -3.5579  3.6740  1.9237
  894SOL    HW2 3575   2.862   1.786   0.468 -0.8243  0.3869  2.8353
  894SOL     MW 3576   2.884   1.829   0.546 -0.4934  0.5169  0.2556
  895SOL     OW 3577   2.072   2.134   1.221  0.1061  0.0522  0.1811
  895SOL    HW1 3578   2.017   2.185   1.160  2.1816 -0.4331  0.0478
  895SOL    HW2 3579   2.126   2.080   1.161 -1.3161 -1.2573 -0.6488
  895SOL     MW 3580   2.072   2.134   1.205  0.1923 -0.1846  0.0540
  896SOL     OW 3581   2.196   2.804   0.998  0.1129 -0.1451  0.7835
  896SOL    HW1 3582   2.228   2.756   1.075 -1.7602 -2.2278  0.0739
  896SOL    HW2 3583   2.127   2.755   0.968  1.9635  2.0518  1.3289
  896SOL     MW 3584   2.191   2.792   1.004  0.1100 -0.1300  0.7618
  897SOL     OW 3585   2.992   2.936   0.193  0.0823  0.5951  0.4509
  897SOL    HW1 3586   3.073   2.909   0.147 -2.3048  0.3717 -0.7363
  897SOL    HW2 3587   2.916   2.891   0.143 -0.3543 -0.4223 -2.5714
  897SOL     MW 3588   2.993   2.926   0.180 -0.2902  0.4314 -0.1045
  898SOL     OW 3589   2.083   0.137   1.394  0.2357  0.2217  0.5428
  898SOL    HW1 3590   2.043   0.072   1.337  1.1795 -0.4290  1.0862
  898SOL    HW2 3591   2.145   0.190   1.343  2.4231  0.2442 -1.5280
  898SOL     MW 3592   2.086   0.135   1.380  0.6488  0.1388  0.3413
  899SOL     OW 3593   2.863   2.960   0.582 -0.1079 -0.3632  0.0641
  899SOL    HW1 3594   2.893   2.903   0.654 -2.4465 -1.7200 -1.5213
  899SOL    HW2 3595   2.782   3.002   0.608  0.3666 -0.7796  1.7172
  899SOL     MW 3596   2.856   2.958   0.595 -0.3539 -0.5972  0.0730
  900SOL     OW 3597   0.123   2.443   1.133 -0.0854 -0.8035  0.1437
  900SOL    HW1 3598   0.099   2.534   1.118 -1.5496 -1.8522  0.9976
  900SOL    HW2 3599   0.094   2.405   1.048 -0.3747  1.3823  0.4633
  900SOL     MW 3600   0.116   2.450   1.120 -0.3168 -0.6534  0.2986
  901SOL     OW 3601   1.730   2.834   1.780  0.3384 -0.4608  0.2766
  901SOL    HW1 3602   1.781   2.749   1.772  1.3275  0.5146  0.8382
  901SOL    HW2 3603   1.690   2.859   1.694 -1.1922  1.0513 -2.3103
  901SOL     MW 3604   1.731   2.826   1.768  0.2670 -0.1326  0.0094
  902SOL     OW 3605   2.571   2.092   1.816  0.3981  0.3104  0.0272
  902SOL    HW1 3606   2.548   1.995   1.797  0.7928 -1.2033  1.2365
  902SOL    HW2 3607   2.656   2.093   1.866  0.2335 -0.1647  0.5869
  902SOL     MW 3608   2.579   2.079   1.820  0.4284  0.0480  0.2606
  903SOL     OW 3609   1.677   2.787   0.520 -0.0273 -0.3149  0.0355
  903SOL    HW1 3610   1.719   2.707   0.549 -3.7957  2.4702 -1.6716
  903SOL    HW2 3611   1.629   2.820   0.595  1.0845  0.4207  0.0279
  903SOL     MW 3612   1.676   2.781   0.534 -0.3778  0.1496 -0.1907
  904SOL     OW 3613   2.521   2.548   1.636 -0.2096 -0.3004 -0.1711
  904SOL    HW1 3614   2.458   2.571   1.567 -4.2556 -0.9118  1.1411
  904SOL    HW2 3615   2.595   2.502   1.596  0.7700 -0.6116  0.0997
  904SOL     MW 3616   2.523   2.545   1.622 -0.6142 -0.4221  0.0377
  905SOL     OW 3617   2.400   2.555   2.110 -0.3511  0.1566  0.3293
  905SOL    HW1 3618   2.409   2.491   2.039  0.7475  1.6827 -1.1211
  905SOL    HW2 3619   2.350   2.501   2.175 -1.3275 -0.8338 -0.2897
  905SOL     MW 3620   2.395   2.539   2.109 -0.3349  0.2273  0.0563
  906SOL     OW 3621   2.518   2.513   0.783  0.4273 -0.1862 -0.2637
  906SOL    HW1 3622   2.576   2.477   0.852 -0.9339  0.9788 -0.0367
  906SOL    HW2 3623   2.501   2.607   0.800  0.7323  3.0577 -1.6389
  906SOL     MW 3624   2.524   2.520   0.795  0.2879  0.3955 -0.4152
  907SOL     OW 3625   2.554   2.894   1.257  0.2927 -0.4967  0.1601
  907SOL    HW1 3626   2.608   2.905   1.333  2.2402  1.0030 -0.1460
  907SOL    HW2 3627   2.616   2.876   1.189 -0.0023 -1.4794  1.0789
  907SOL     MW 3628   2.569   2.893   1.258  0.5108 -0.4285  0.2410
  908SOL     OW 3629   2.664   2.358  -0.002  0.5090 -0.1794  0.0001
  908SOL    HW1 3630   2.591   2.299   0.031 -2.1407 -1.4791  1.0666
  908SOL    HW2 3631   2.659   2.445   0.055  1.7036  3.8767 -0.0758
  908SOL     MW 3632   2.653   2.362   0.010  0.3170  0.1843  0.1308
  909SOL     OW 3633   1.745   0.171   1.034 -0.5823  0.3101  0.0518
  909SOL    HW1 3634   1.757   0.262   1.015 -0.9391  1.1281 -1.6376
  909SOL    HW2 3635   1.742   0.164   1.129  0.2603  0.2540  0.1605
  909SOL     MW 3636   1.746   0.182   1.044 -0.5182  0.4106 -0.1568
  910SOL     OW 3637   2.288   1.681   0.413  0.0661  0.4706  0.1490
  910SOL    HW1 3638   2.204   1.647   0.437 -1.8188 -0.1878  1.0408
  910SOL    HW2 3639   2.275   1.718   0.326 -0.0393  0.7082 -0.2399
  910SOL     MW 3640   2.275   1.681   0.405 -0.1965  0.4151  0.2153
  911SOL     OW 3641   2.148   2.150   1.623  0.0739  0.7982 -0.4797
  911SOL    HW1 3642   2.213   2.183   1.685 -0.0156 -0.3281  0.6112
  911SOL    HW2 3643   2.190   2.170   1.539 -1.3620 -0.6667 -1.9980
  911SOL     MW 3644   2.163   2.157   1.620 -0.1274  0.4563 -0.5361
  912SOL     OW 3645   2.853   1.920   1.510  0.3119  0.0666 -0.0696
  912SOL    HW1 3646   2.912   1.960   1.445  1.3098 -0.6444  1.4404
  912SOL    HW2 3647   2.777   1.983   1.524 -0.3303 -1.3549 -2.0491
  912SOL     MW 3648   2.851   1.934   1.503  0.3589 -0.2148 -0.1315
  913SOL     OW 3649   2.558   2.945   0.338 -0.4799 -0.3243  0.5575
  913SOL    HW1 3650   2.626   2.877   0.351 -3.1496 -0.2188 -1.6214
  913SOL    HW2 3651   2.475   2.902   0.359  0.1001  0.1381 -0.9935
  913SOL     MW 3652   2.556   2.930   0.343 -0.7556 -0.2493  0.0654
  914SOL     OW 3653   2.801   1.641   0.022 -0.0884 -0.2604  0.1466
  914SOL    HW1 3654   2.785   1.710  -0.045 -0.7787 -2.0372  1.5457
  914SOL    HW2 3655   2.715   1.607   0.045 -3.1234 -1.0387  2.0774
  914SOL     MW 3656   2.788   1.646   0.017 -0.5799 -0.5975  0.5859
  915SOL     OW 3657   1.901   0.178   0.225 -0.6188 -0.2012 -0.6322
  915SOL    HW1 3658   1.945   0.105   0.269 -1.1954  0.9046 -0.3853
  915SOL    HW2 3659   1.807   0.157   0.230 -0.3419  0.9148 -1.5403
  915SOL     MW 3660   1.894   0.166   0.232 -0.6584  0.0919 -0.7194
  916SOL     OW 3661   1.853   2.092   1.972 -0.2133  0.3377 -0.7062
  916SOL    HW1 3662   1.846   2.184   1.944 -1.7066  4.1067  2.3992
  916SOL    HW2 3663   1.834   2.039   1.894 -0.5903  0.1770 -1.0685
  916SOL     MW 3664   1.850   2.097   1.958 -0.4600  0.8138 -0.3443
  917SOL     OW 3665   2.225   2.339   2.656 -0.2060  0.0422  0.3971
  917SOL    HW1 3666   2.255   2.313   2.748  0.1476 -0.4272  2.6018
  917SOL    HW2 3667   2.265   2.428   2.629  2.1007 -0.4146  0.4909
  917SOL     MW 3668   2.235   2.347   2.665  0.1450 -0.0800  0.7004
  918SOL     OW 3669   1.977   1.664   2.598  0.2912 -0.3234  0.3950
  918SOL    HW1 3670   1.890   1.706   2.572 -1.2388  0.8751 -1.2714
  918SOL    HW2 3671   2.044   1.726   2.570 -1.9443 -0.6375  0.1090
  918SOL     MW 3672   1.974   1.678   2.591 -0.2056 -0.2067  0.1374
  919SOL     OW 3673   3.006   2.369   2.284  0.2317 -0.0205 -0.9156
  919SOL    HW1 3674   2.918   2.327   2.266  2.0695  1.4797  1.0295
  919SOL    HW2 3675   3.075   2.344   2.219 -1.1405  0.2709  0.0941
  919SOL     MW 3676   3.004   2.360   2.273  0.2931  0.2159 -0.5258
  920SOL     OW 3677   2.769   2.813   0.067 -0.0869  0.2245 -0.8082
  920SOL    HW1 3678   2.707   2.887   0.068  1.3093  0.7010 -0.4094
  920SOL    HW2 3679   2.762   2.765  -0.017 -2.0430  1.6029 -1.6211
  920SOL     MW 3680   2.760   2.816   0.056 -0.1608  0.4692 -0.8629
  921SOL     OW 3681   2.566   2.658   2.687 -0.5124  0.5860 -0.0192
  921SOL    HW1 3682   2.630   2.645   2.620 -0.2146 -3.8018  1.2461
  921SOL    HW2 3683   2.574   2.588   2.750  1.9108  3.6519 -1.7907
  921SOL     MW 3684   2.575   2.647   2.687 -0.1534  0.4116 -0.0860
  922SOL     OW 3685   2.045   2.865   0.287 -0.7327 -0.3572  0.4144
  922SOL    HW1 3686   2.010   2.900   0.205  3.6546  1.5783  1.6895
  922SOL    HW2 3687   2.005   2.780   0.292 -6.0493 -0.6173 -0.1925
  922SOL     MW 3688   2.035   2.859   0.277 -0.8553 -0.1362  0.5025
  923SOL     OW 3689   2.172   2.786   1.625  0.0284  0.4782 -1.2295
  923SOL    HW1 3690   2.237   2.740   1.570 -2.6438 -1.7149  0.5487
  923SOL    HW2 3691   2.163   2.876   1.598  0.4874  0.8236 -0.5224
  923SOL     MW 3692   2.179   2.792   1.614 -0.2636  0.2344 -0.9016
  924SOL     OW 3693   1.135   2.752   2.466  0.7942 -0.6174 -0.2090
  924SOL    HW1 3694   1.177   2.817   2.408 -0.5628 -0.3355  0.0863
  924SOL    HW2 3695   1.205   2.724   2.525  0.3235  1.7793  0.5112
  924SOL     MW 3696   1.150   2.757   2.466  0.5530 -0.2640 -0.0750
  925SOL     OW 3697   3.052   0.273   2.673 -0.1771 -0.2591 -0.1800
  925SOL    HW1 3698   3.069   0.315   2.590  0.6188  0.5709 -0.8729
  925SOL    HW2 3699   3.037   0.351   2.724 -1.1361  0.0682  0.3370
  925SOL     MW 3700   3.052   0.289   2.669 -0.1986 -0.1064 -0.2032
  926SOL     OW 3701   2.688   2.389   1.991 -0.3086  0.1951  0.5802
  926SOL    HW1 3702   2.701   2.461   2.056  1.6696  2.5762  3.1385
  926SOL    HW2 3703   2.748   2.426   1.924 -0.7163 -1.3429  0.3137
  926SOL     MW 3704   2.698   2.403   1.991 -0.1014  0.3063  0.8826
  927SOL     OW 3705   2.384   0.165   0.271 -0.2602 -0.4075 -0.0399
  927SOL    HW1 3706   2.466   0.181   0.224  0.8596  0.0181  1.7412
  927SOL    HW2 3707   2.332   0.121   0.196  2.3844 -0.8004  2.5884
  927SOL     MW 3708   2.388   0.162   0.255  0.2365 -0.4032  0.5419
  928SOL     OW 3709   2.082   2.447   1.853 -0.5316 -0.1999 -0.1318
  928SOL    HW1 3710   2.116   2.358   1.862 -2.5937  1.3384 -2.9766
  928SOL    HW2 3711   2.126   2.496   1.924  0.7894  1.4450  0.5919
  928SOL     MW 3712   2.092   2.442   1.864 -0.6294  0.2201 -0.4117
  929SOL     OW 3713   2.713   2.313   2.491  0.3634  0.0135 -0.0728
  929SOL    HW1 3714   2.628   2.275   2.512 -0.3573 -0.3377  0.2434
  929SOL    HW2 3715   2.761   2.291   2.571 -0.0384  2.8204 -1.6573
  929SOL     MW 3716   2.708   2.305   2.505  0.2153  0.3375 -0.2401
  930SOL     OW 3717   2.023   2.899   2.702 -0.1137 -0.6289 -0.3961
  930SOL    HW1 3718   2.029   2.831   2.775  1.4956  2.0183  1.4569
  930SOL    HW2 3719   2.115   2.947   2.697 -0.1583  0.3016  1.2061
  930SOL     MW 3720   2.036   2.896   2.711  0.0927 -0.1568  0.0598
  931SOL     OW 3721   2.963   2.810   2.104 -0.5851  0.6809  0.9628
  931SOL    HW1 3722   3.047   2.768   2.099 -0.3426 -3.4713  0.2042
  931SOL    HW2 3723   2.943   2.821   2.012 -1.4879  0.4954  2.0752
  931SOL     MW 3724   2.971   2.806   2.091 -0.6722  0.1086  1.0095
  932SOL     OW 3725   2.811   1.936   2.546  0.3434 -0.5409  0.1121
  932SOL    HW1 3726   2.886   1.962   2.600 -0.8009 -2.6901  3.8805
  932SOL    HW2 3727   2.806   1.989   2.465  0.9263  2.6444 -0.5066
  932SOL     MW 3728   2.820   1.946   2.543  0.2693 -0.4042  0.5277
  933SOL     OW 3729   2.108   2.786   2.269  0.0028  0.7032  0.0634
  933SOL    HW1 3730   2.185   2.832   2.308 -1.1571 -0.3893  0.4528
  933SOL    HW2 3731   2.048   2.856   2.249  1.3909  0.7057 -1.1581
  933SOL     MW 3732   2.110   2.801   2.272  0.0329  0.5594 -0.0464
  934SOL     OW 3733   2.081   2.705   2.536  0.0866 -0.7241 -0.3035
  934SOL    HW1 3734   2.050   2.782   2.591  1.0139 -0.8755 -2.6053
  934SOL    HW2 3735   2.066   2.726   2.440 -0.4038  0.8724 -2.6172
  934SOL     MW 3736   2.075   2.718   2.530  0.1442 -0.5334 -0.9125
  935SOL     OW 3737   2.659   1.574   1.833  0.0593  0.2722 -0.6489
  935SOL    HW1 3738   2.741   1.578   1.777  2.0540  1.1032 -1.5077
  935SOL    HW2 3739   2.594   1.556   1.754 -2.2694 -0.1346 -0.8814
  935SOL     MW 3740   2.661   1.572   1.815  0.0152  0.3281 -0.7929
  936SOL     OW 3741   2.882   2.193   0.018 -0.2385  0.2840 -0.4460
  936SOL    HW1 3742   2.927   2.260   0.067  1.6563 -3.1585 -1.2364
  936SOL    HW2 3743   2.792   2.228   0.007 -0.9785 -0.3499  3.1581
  936SOL     MW 3744   2.876   2.207   0.023 -0.0861 -0.2538 -0.0748
  937SOL     OW 3745   1.973   2.261   2.625  0.2208 -0.2897  0.0838
  937SOL    HW1 3746   2.067   2.282   2.622  2.7722 -1.4808 -0.3670
  937SOL    HW2 3747   1.942   2.247   2.531 -1.4622 -1.2023  0.9638
  937SOL     MW 3748   1.981   2.262   2.612  0.3354 -0.5672  0.1404
  938SOL     OW 3749   2.276   1.836   1.981 -0.2835 -0.1814 -0.0039
  938SOL    HW1 3750   2.243   1.863   1.900 -0.7298  0.1340  3.4191
  938SOL    HW2 3751   2.275   1.926   2.021  1.4689  1.4068 -2.6311
  938SOL     MW 3752   2.272   1.852   1.976 -0.1112  0.0697  0.1011
  939SOL     OW 3753   2.761   2.039   2.271  0.6049  0.0890 -0.1900
  939SOL    HW1 3754   2.768   1.959   2.218 -0.2561  2.4344  0.0101
  939SOL    HW2 3755   2.667   2.058   2.266 -2.7948  0.7640 -1.0228
  939SOL     MW 3756   2.750   2.031   2.263  0.0427  0.4875 -0.2735
  940SOL     OW 3757   2.314   0.171   2.650 -0.4766 -0.5226  0.3811
  940SOL    HW1 3758   2.283   0.082   2.642  1.2904  3.3987 -1.5767
  940SOL    HW2 3759   2.327   0.189   2.747  0.0397 -0.8047  2.0454
  940SOL     MW 3760   2.312   0.162   2.662 -0.1753 -0.0424  0.3424
  941SOL     OW 3761   0.092   2.347   2.084 -0.3878 -0.1409 -0.5279
  941SOL    HW1 3762   0.162   2.291   2.071 -4.0662  3.9115  1.3794
  941SOL    HW2 3763   0.018   2.308   2.033 -1.3051  0.1465 -0.0855
  941SOL     MW 3764   0.092   2.335   2.076 -0.9942  0.4317 -0.2179
  942SOL     OW 3765   2.878   2.224   2.094  0.4484 -0.1517 -0.0377
  942SOL    HW1 3766   2.816   2.286   2.066  0.0869 -0.1778 -1.5366
  942SOL    HW2 3767   2.835   2.160   2.153 -0.4037  0.1700  0.1403
  942SOL     MW 3768   2.864   2.223   2.098  0.2883 -0.1127 -0.2120
  943SOL     OW 3769   0.198   2.029   2.330  0.3598 -0.3386  0.0818
  943SOL    HW1 3770   0.139   2.083   2.376  1.9846 -0.3042 -0.3904
  943SOL    HW2 3771   0.256   1.996   2.396  0.2225 -0.9648  1.2022
  943SOL     MW 3772   0.198   2.032   2.344  0.5560 -0.4167  0.1673
  944SOL     OW 3773   2.154   2.645   2.023 -0.3606  0.2377  0.1590
  944SOL    HW1 3774   2.249   2.635   2.051 -1.3507  1.7111  0.0750
  944SOL    HW2 3775   2.112   2.691   2.097  1.2774  1.3753 -1.2235
  944SOL     MW 3776   2.161   2.650   2.037 -0.2751  0.5822 -0.0345
  945SOL     OW 3777   2.785   2.629   2.949 -0.0933  0.0780 -0.5949
  945SOL    HW1 3778   2.737   2.559   2.898 -0.2574 -0.9990  1.1287
  945SOL    HW2 3779   2.831   2.678   2.880 -3.1222  0.8197  2.2665
  945SOL     MW 3780   2.785   2.627   2.933 -0.5146  0.0337  0.0100
  946SOL     OW 3781   2.552   2.713   2.285 -0.1954 -0.7607 -0.1265
  946SOL    HW1 3782   2.618   2.761   2.236  0.0106  3.5895 -0.0914
  946SOL    HW2 3783   2.505   2.657   2.219  0.6075  0.7238  1.7964
  946SOL     MW 3784   2.555   2.712   2.270 -0.0623  0.0091  0.1318
  947SOL     OW 3785   2.078   0.010   0.426 -0.1201  0.6197  0.0263
  947SOL    HW1 3786   2.078  -0.084   0.402 -1.0561  0.8980 -0.3961
  947SOL    HW2 3787   2.160   0.032   0.466 -3.5889  1.0790 -3.0594
  947SOL     MW 3788   2.089   0.001   0.428 -0.7013  0.7170 -0.4365
  948SOL     OW 3789   1.828   3.085   2.637  0.0797  0.2762  0.5935
  948SOL    HW1 3790   1.872   3.006   2.651 -0.9800 -1.5308 -2.3174
  948SOL    HW2 3791   1.845   3.128   2.555 -0.7314  0.4192  0.1086
  948SOL     MW 3792   1.836   3.080   2.628 -0.1671  0.0566  0.1454
  949SOL     OW 3793   2.485   2.018   2.266  0.2694  0.6186  0.2355
  949SOL    HW1 3794   2.504   1.934   2.304  0.9896  0.6799 -0.1230
  949SOL    HW2 3795   2.442   2.075   2.332  1.2317  2.2080  0.2499
  949SOL     MW 3796   2.482   2.015   2.280  0.4914  0.8364  0.1901
  950SOL     OW 3797   2.276   2.601   3.014 -0.5787 -0.3481  0.2204
  950SOL    HW1 3798   2.297   2.516   2.973  1.5673 -0.1035  0.1007
  950SOL    HW2 3799   2.190   2.642   2.984  0.4648  1.0902  1.0292
  950SOL     MW 3800   2.268   2.595   3.005 -0.1579 -0.1260  0.3113
  951SOL     OW 3801   2.884   2.068   2.877  0.0317  0.0838 -0.0973
  951SOL    HW1 3802   2.917   2.105   2.955 -2.8266  0.0937 -0.6817
  951SOL    HW2 3803   2.956   2.042   2.811  3.0876  0.1514 -0.4507
  951SOL     MW 3804   2.898   2.069   2.878  0.0578  0.0940 -0.2210
  952SOL     OW 3805   3.046   1.674   2.073  0.2113 -0.1149 -0.3955
  952SOL    HW1 3806   2.983   1.744   2.065 -1.0517 -0.9347 -0.0618
  952SOL    HW2 3807   3.130   1.727   2.092 -1.2370  2.6474 -1.1510
  952SOL     MW 3808   3.049   1.690   2.075 -0.1464  0.1414 -0.4511
  953SOL     OW 3809   1.928   1.830   2.800 -0.1155  0.5033 -0.1290
  953SOL    HW1 3810   1.858   1.794   2.851  0.2189  1.7318  1.2945
  953SOL    HW2 3811   1.954   1.758   2.748  0.4289  1.0846  0.4193
  953SOL     MW 3812   1.923   1.816   2.800  0.0004  0.7421  0.1311
  954SOL     OW 3813   2.415   2.044   2.906 -0.0290 -0.5314 -0.3102
  954SOL    HW1 3814   2.342   2.056   2.841  0.4719 -0.3039  1.2321
  954SOL    HW2 3815   2.494   2.013   2.855  0.4615 -0.4840  0.5309
  954SOL     MW 3816   2.416   2.042   2.891  0.1018 -0.4951  0.0043
  955SOL     OW 3817   1.581   1.609   2.563 -0.0667  0.2269  0.1607
  955SOL    HW1 3818   1.587   1.557   2.481  1.5919 -0.6629  1.8714
  955SOL    HW2 3819   1.619   1.697   2.547 -0.9601 -1.9166  0.7281
  955SOL     MW 3820   1.586   1.613   2.550  0.0343 -0.1733  0.4613
  956SOL     OW 3821   2.614   2.415   2.851 -0.1151 -1.0515 -0.0113
  956SOL    HW1 3822   2.631   2.387   2.953  0.7234 -3.4671 -0.1162
  956SOL    HW2 3823   2.692   2.370   2.806 -0.0818  0.1939 -1.5297
  956SOL     MW 3824   2.626   2.406   2.858 -0.0001 -1.2059 -0.2255
  957SOL     OW 3825   2.317   2.815   0.371 -0.2546  0.5978  0.8925
  957SOL    HW1 3826   2.252   2.828   0.298 -1.0074 -0.0973 -2.7149
  957SOL    HW2 3827   2.272   2.791   0.455  0.0232  0.1779  0.0746
  957SOL     MW 3828   2.302   2.814   0.372 -0.3173  0.4507  0.3086
  958SOL     OW 3829   2.028   2.703   2.919  0.4236 -0.4638 -0.0259
  958SOL    HW1 3830   1.973   2.631   2.886  0.5538  0.5153  0.2443
  958SOL    HW2 3831   1.970   2.775   2.942 -1.5968 -0.8692 -0.6407
  958SOL     MW 3832   2.013   2.703   2.918  0.1742 -0.3881 -0.0714
  959SOL     OW 3833   2.477   2.581   0.349 -0.2526 -0.2840  0.4849
  959SOL    HW1 3834   2.548   2.577   0.285 -1.0442 -0.0911 -0.4521
  959SOL    HW2 3835   2.425   2.663   0.335 -0.5410  1.7921 -2.3185
  959SOL     MW 3836   2.479   2.591   0.339 -0.3951  0.0154 -0.0086
  960SOL     OW 3837   1.970   2.463   2.320  0.0412 -0.2440 -1.0510
  960SOL    HW1 3838   1.957   2.367   2.307  1.1978  0.0932  4.7857
  960SOL    HW2 3839   1.909   2.490   2.392 -0.4520  0.0681 -2.7319
  960SOL     MW 3840   1.960   2.454   2.328  0.1288 -0.1583 -0.5027
  961SOL     OW 3841   2.243   2.461   2.325  0.0778  0.1339 -0.0060
  961SOL    HW1 3842   2.148   2.473   2.328 -2.0982  0.0159 -1.9954
  961SOL    HW2 3843   2.267   2.505   2.409  1.3730  0.5442  0.4253
  961SOL     MW 3844   2.233   2.468   2.336 -0.0384  0.1725 -0.2116
  962SOL     OW 3845   2.183   2.015   2.743  0.2813  0.6303  0.2896
  962SOL    HW1 3846   2.156   1.981   2.826  0.9787 -0.9424  1.2835
  962SOL    HW2 3847   2.198   1.940   2.686  2.8084  1.0707  4.0419
  962SOL     MW 3848   2.181   2.001   2.746  0.7067  0.4809  0.9159
  963SOL     OW 3849   1.735   2.520   2.162 -0.9130 -0.1762  0.3610
  963SOL    HW1 3850   1.815   2.514   2.216  2.8335 -3.0399  2.0671
  963SOL    HW2 3851   1.761   2.461   2.085  1.7796 -2.3246 -0.8636
  963SOL     MW 3852   1.749   2.512   2.159 -0.0634 -0.8375  0.4245
  964SOL     OW 3853   1.847   2.030   2.649 -0.1008 -0.5869 -0.4630
  964SOL    HW1 3854   1.894   2.116   2.660 -0.5109 -1.3793  0.8956
  964SOL    HW2 3855   1.879   1.961   2.706 -2.1108  3.7776 -0.6617
  964SOL     MW 3856   1.857   2.032   2.658 -0.4201 -0.1156 -0.3100
  965SOL     OW 3857   2.246   2.705   0.599  0.3650  0.0364  0.3423
  965SOL    HW1 3858   2.247   2.610   0.588 -1.6100 -1.3026 -0.1498
  965SOL    HW2 3859   2.307   2.723   0.672  0.7693  0.4997 -2.5737
  965SOL     MW 3860   2.254   2.695   0.607  0.1578 -0.0791 -0.1074
  966SOL     OW 3861   2.729   2.587   2.462 -0.0439 -0.1170  0.7665
  966SOL    HW1 3862   2.685   2.638   2.391 -1.7963  1.4038  2.7591
  966SOL    HW2 3863   2.727   2.497   2.446  1.4005  1.0141 -0.8190
  966SOL     MW 3864   2.723   2.582   2.450 -0.0846  0.2329  0.8202
  967SOL     OW 3865   2.816   3.078   2.988 -0.1344 -0.6981 -0.7503
  967SOL    HW1 3866   2.759   3.005   3.005 -0.3094  0.3101 -1.6697
  967SOL    HW2 3867   2.769   3.133   2.926  1.5154  0.8411  0.5719
  967SOL     MW 3868   2.802   3.076   2.982  0.0602 -0.3620 -0.6972
  968SOL     OW 3869   3.022   2.479   3.052  0.0640  0.2611 -0.8852
  968SOL    HW1 3870   2.928   2.489   3.052  3.9334 -0.7227  0.0476
  968SOL    HW2 3871   3.045   2.467   2.957  0.8666 -0.7741  0.6130
  968SOL     MW 3872   3.012   2.479   3.040  0.6805 -0.0053 -0.5644
  969SOL     OW 3873   1.540   2.135   1.711 -0.7070 -0.3024 -0.2365
  969SOL    HW1 3874   1.611   2.079   1.682  1.8797 -0.6359 -1.7759
  969SOL    HW2 3875   1.540   2.135   1.806 -3.0820  2.1318 -0.1729
  969SOL     MW 3876   1.549   2.127   1.720 -0.6791 -0.0253 -0.4312
  970SOL     OW 3877   1.663   1.675   1.821  0.3565 -0.2109  0.2839
  970SOL    HW1 3878   1.731   1.672   1.889  1.7149 -0.6289 -0.1216
  970SOL    HW2 3879   1.581   1.681   1.873 -0.2628  2.1635 -2.1667
  970SOL     MW 3880   1.661   1.675   1.837  0.4540  0.0472 -0.0929
  971SOL     OW 3881   1.887   0.094   2.372 -0.0053 -0.5593 -0.6720
  971SOL    HW1 3882   1.924   0.013   2.321  3.0540 -1.7180 -1.2792
  971SOL    HW2 3883   1.953   0.160   2.379 -0.8636 -2.1318 -1.0664
  971SOL     MW 3884   1.900   0.092   2.366  0.2851 -0.9197 -0.8041
  972SOL     OW 3885   0.240   2.806   2.538 -0.5842 -0.9138  0.2740
  972SOL    HW1 3886   0.294   2.719   2.552  1.0010  0.4685  3.9793
  972SOL    HW2 3887   0.319   2.859   2.521 -0.4139 -0.2846 -3.5090
  972SOL     MW 3888   0.258   2.801   2.538 -0.3525 -0.6484  0.2637
  973SOL     OW 3889   2.646   3.057   2.108 -0.0812  0.1627 -0.5178
  973SOL    HW1 3890   2.632   2.969   2.072 -3.2706  0.1166 -0.2602
  973SOL    HW2 3891   2.634   3.125   2.035 -3.0841  0.0338 -3.3799
  973SOL     MW 3892   2.642   3.054   2.093 -0.8982  0.1396 -0.8615
  974SOL     OW 3893   2.004   0.314   2.689  0.7702  0.0773 -0.0268
  974SOL    HW1 3894   2.027   0.238   2.744  1.5560 -0.1876 -0.5683
  974SOL    HW2 3895   1.914   0.334   2.712  2.8548 -2.3826  0.9519
  974SOL     MW 3896   1.995   0.307   2.699  1.1489 -0.2822  0.0308
  975SOL     OW 3897   2.321   2.572   2.570 -0.3780  0.6607  0.0037
  975SOL    HW1 3898   2.404   2.625   2.586 -0.8490  2.0745  2.6083
  975SOL    HW2 3899   2.254   2.641   2.580 -2.0213 -2.2700  0.5701
  975SOL     MW 3900   2.323   2.588   2.573 -0.6569  0.4606  0.4221
  976SOL     OW 3901   0.283   0.255   1.691  0.1217 -0.0616 -0.1514
  976SOL    HW1 3902   0.323   0.205   1.761 -0.8615  0.1876  2.8388
  976SOL    HW2 3903   0.197   0.207   1.688 -1.4844 -0.3159  0.8337
  976SOL     MW 3904   0.277   0.242   1.700 -0.2199 -0.0623  0.3731
  977SOL     OW 3905   1.719   2.809   2.466 -0.4855 -0.5934  0.3543
  977SOL    HW1 3906   1.755   2.730   2.500  0.5654  0.9473 -1.4997
  977SOL    HW2 3907   1.780   2.871   2.430 -0.0007 -1.4858  1.8251
  977SOL     MW 3908   1.732   2.806   2.466 -0.2829 -0.5078  0.3037
   3.10000   3.10000   3.10000
