977 TIP4P/2005f water molecules t=   1.98000 step= 1980
 3908
    1SOL     OW    1   0.447   0.727   0.174 -0.1019  0.2222 -0.0632
    1SOL    HW1    2   0.373   0.691   0.124 -0.6274 -0.5272  0.5206
    1SOL    HW2    3   0.486   0.661   0.231  2.1065  0.6164  1.2198
    1SOL     MW    4   0.442   0.713   0.175  0.1201  0.1754  0.1831
    2SOL     OW    5   0.278   2.978   1.140  0.0651  0.4545 -0.6256
    2SOL    HW1    6   0.316   3.066   1.144 -0.2048 -0.4125 -1.3128
    2SOL    HW2    7   0.183   2.994   1.135  0.2104 -3.1859  2.6418
    2SOL     MW    8   0.270   2.992   1.140  0.0486 -0.1402 -0.2851
    3SOL     OW    9   2.688   0.346   0.865 -0.2680 -0.6594  0.5270
    3SOL    HW1   10   2.727   0.427   0.829  1.7226 -0.4063 -3.0841
    3SOL    HW2   11   2.683   0.363   0.960 -0.1761 -1.9353 -3.8167
    3SOL     MW   12   2.693   0.359   0.873  0.0068 -0.7944 -0.5225
    4SOL     OW   13   2.931   1.708   0.562 -0.1268 -0.6575  0.0876
    4SOL    HW1   14   2.886   1.790   0.540  1.3879 -1.0807 -1.1228
    4SOL    HW2   15   3.008   1.705   0.490  0.7670  0.6093 -0.7284
    4SOL     MW   16   2.936   1.719   0.550  0.1910 -0.5462 -0.1797
    5SOL     OW   17   1.617   1.480   0.634 -0.0579  0.8398  0.4421
    5SOL    HW1   18   1.636   1.429   0.716 -0.0024  0.5678  0.8923
    5SOL    HW2   19   1.526   1.504   0.647  3.2569 -0.2794  1.2420
    5SOL     MW   20   1.607   1.476   0.647  0.3868  0.6562  0.6070
    6SOL     OW   21   0.750   1.442   0.628 -0.4222  0.1669 -0.1357
    6SOL    HW1   22   0.662   1.424   0.597 -3.5497  0.3584  1.6115
    6SOL    HW2   23   0.781   1.368   0.677 -1.0507  1.5263 -0.8725
    6SOL     MW   24   0.743   1.430   0.630 -0.9178  0.3715 -0.0024
    7SOL     OW   25   1.974   1.020   0.057 -0.7739 -0.2593 -0.0235
    7SOL    HW1   26   2.038   1.087   0.095  0.1668  0.2570  1.4521
    7SOL    HW2   27   1.923   0.992   0.138 -1.5886 -2.7639  3.1391
    7SOL     MW   28   1.975   1.025   0.073 -0.7573 -0.5216  0.5884
    8SOL     OW   29   0.877   1.407   0.993  0.3123 -0.1312  0.2929
    8SOL    HW1   30   0.923   1.469   1.047 -1.2961  0.6933 -1.8141
    8SOL    HW2   31   0.892   1.322   1.041 -1.3945 -3.3780 -1.0808
    8SOL     MW   32   0.885   1.404   1.007 -0.1251 -0.4508 -0.1663
    9SOL     OW   33   0.887   0.539   1.307  0.6801  0.0849  0.2667
    9SOL    HW1   34   0.871   0.449   1.287  0.0533  1.6039  2.4566
    9SOL    HW2   35   0.947   0.542   1.379  1.0542  0.4043 -0.3952
    9SOL     MW   36   0.893   0.528   1.314  0.6467  0.3274  0.4683
   10SOL     OW   37   0.325   0.844   0.491  0.1803  0.1428 -0.2224
   10SOL    HW1   38   0.410   0.888   0.482  1.5534  0.3415 -1.5267
   10SOL    HW2   39   0.285   0.886   0.566  0.6448  0.6202 -0.6555
   10SOL     MW   40   0.331   0.855   0.500  0.4228  0.2320 -0.4516
   11SOL     OW   41   0.732   1.081   1.452  0.1672 -0.7173  0.1946
   11SOL    HW1   42   0.793   1.095   1.524 -0.5712 -1.3229  0.1496
   11SOL    HW2   43   0.752   0.999   1.410  2.5876  0.8641 -0.9588
   11SOL     MW   44   0.742   1.072   1.456  0.3891 -0.5885  0.0365
   12SOL     OW   45  -0.001   1.085   0.902  0.2373  0.5176 -0.1352
   12SOL    HW1   46   0.008   1.168   0.943  0.5025  1.2375  0.9961
   12SOL    HW2   47   0.010   1.097   0.810  0.4543  2.3587  1.1347
   12SOL     MW   48   0.002   1.097   0.895  0.3009  0.8555  0.1816
   13SOL     OW   49   1.877   1.406   1.286  0.0292 -0.3334 -0.5547
   13SOL    HW1   50   1.894   1.313   1.266  0.9248  0.0303  1.4266
   13SOL    HW2   51   1.956   1.458   1.277  1.6163 -0.0749 -0.0459
   13SOL     MW   52   1.890   1.401   1.282  0.3567 -0.2513 -0.2261
   14SOL     OW   53   0.559   0.247   1.869 -0.4241 -0.0635 -0.0167
   14SOL    HW1   54   0.585   0.171   1.810 -3.8052  1.0590  0.3047
   14SOL    HW2   55   0.561   0.321   1.813  1.3605 -0.3604  1.6139
   14SOL     MW   56   0.563   0.247   1.854 -0.6347  0.0454  0.2409
   15SOL     OW   57   1.984   0.411   0.978 -0.2783 -0.2871 -0.0765
   15SOL    HW1   58   2.005   0.497   1.010 -0.8388  1.2182  2.9371
   15SOL    HW2   59   2.005   0.433   0.884  1.1177 -2.2476  0.3168
   15SOL     MW   60   1.990   0.425   0.970 -0.1681 -0.3471  0.3730
   16SOL     OW   61   0.206   1.828   0.273  0.1810 -0.0057  1.0885
   16SOL    HW1   62   0.305   1.804   0.284 -1.5573  0.3828  1.2261
   16SOL    HW2   63   0.194   1.921   0.302 -0.6221  1.6426  0.6283
   16SOL     MW   64   0.217   1.837   0.279 -0.1543  0.2630  1.0459
   17SOL     OW   65   1.124   0.819   1.379  0.1302 -0.6972 -0.0692
   17SOL    HW1   66   1.154   0.806   1.471  0.6708 -0.3506  0.9724
   17SOL    HW2   67   1.032   0.813   1.390 -2.1694  2.4237 -1.2536
   17SOL     MW   68   1.116   0.817   1.393 -0.1019 -0.2397 -0.0880
   18SOL     OW   69   0.012   1.676   0.350  0.0376  0.7823 -0.4329
   18SOL    HW1   70   0.075   1.744   0.327  1.5815 -0.5114  1.3162
   18SOL    HW2   71  -0.004   1.634   0.267 -0.1108  0.1650  0.8496
   18SOL     MW   72   0.018   1.679   0.336  0.2217  0.5302 -0.0329
   19SOL     OW   73   0.065   1.377   0.939 -0.6736 -0.4648  0.0671
   19SOL    HW1   74   0.093   1.430   0.868 -0.5157 -1.4743  0.5643
   19SOL    HW2   75  -0.032   1.396   0.949 -2.4987  0.0840 -1.8876
   19SOL     MW   76   0.056   1.386   0.931 -0.8935 -0.5256 -0.1252
   20SOL     OW   77   0.470   2.131   1.264  0.5374  0.1772  0.1032
   20SOL    HW1   78   0.453   2.036   1.243  1.9642  1.2477 -1.7040
   20SOL    HW2   79   0.406   2.151   1.334 -4.5797  0.7308  0.1145
   20SOL     MW   80   0.459   2.121   1.270  0.0505  0.3914 -0.1338
   21SOL     OW   81   0.592   0.948   0.462  0.3620  0.1933 -0.0870
   21SOL    HW1   82   0.665   0.914   0.514  0.7794  1.7445  0.4065
   21SOL    HW2   83   0.624   0.973   0.379 -4.4038 -0.8740  1.3775
   21SOL     MW   84   0.606   0.947   0.458 -0.2117  0.2572  0.1713
   22SOL     OW   85   1.538   0.775   0.937 -0.1793  0.0440 -0.1023
   22SOL    HW1   86   1.515   0.712   0.872  0.0478 -1.2867  0.9785
   22SOL    HW2   87   1.460   0.800   0.983  1.3409 -0.7675 -1.1277
   22SOL     MW   88   1.525   0.770   0.934  0.0512 -0.2386 -0.0950
   23SOL     OW   89   3.082   0.825   0.708 -0.6771 -0.1306  0.6743
   23SOL    HW1   90   3.116   0.746   0.753 -1.1453 -0.2462 -0.3350
   23SOL    HW2   91   3.161   0.882   0.679  3.5316 -0.0114 -1.4071
   23SOL     MW   92   3.097   0.822   0.710 -0.1836 -0.1301  0.2665
   24SOL     OW   93   2.022   2.173   0.021 -0.0860 -0.4513 -0.3175
   24SOL    HW1   94   2.005   2.147   0.119  1.4489 -0.5390 -1.2053
   24SOL    HW2   95   2.053   2.086  -0.019  2.7633  0.5745 -0.1826
   24SOL     MW   96   2.024   2.158   0.029  0.4925 -0.3275 -0.4168
   25SOL     OW   97   0.218   1.509   0.394  0.1520  0.9493 -0.6212
   25SOL    HW1   98   0.144   1.565   0.394  2.3313 -1.8643  3.4723
   25SOL    HW2   99   0.271   1.502   0.316  1.8633  2.0089 -2.7782
   25SOL     MW  100   0.215   1.515   0.384  0.6654  0.7179 -0.3657
   26SOL     OW  101   1.964   1.019   0.339  0.2944  0.4945  0.2857
   26SOL    HW1  102   1.921   1.077   0.404  2.6218  1.1674 -0.9223
   26SOL    HW2  103   2.029   1.079   0.296  0.9424 -1.8613  1.4190
   26SOL     MW  104   1.967   1.035   0.342  0.6870  0.2725  0.2758
   27SOL     OW  105   1.856   1.334   0.169 -0.3099 -0.2949  0.1088
   27SOL    HW1  106   1.784   1.399   0.194  0.4525  0.5226 -0.0102
   27SOL    HW2  107   1.918   1.343   0.245 -3.3283 -2.0032  3.6410
   27SOL     MW  108   1.854   1.344   0.182 -0.6076 -0.4125  0.5592
   28SOL     OW  109   0.425   0.904   2.051 -0.4396 -0.5517 -0.2401
   28SOL    HW1  110   0.468   0.896   2.132 -0.1970  1.0871  0.1121
   28SOL    HW2  111   0.326   0.890   2.055 -2.2901  0.4853  0.7909
   28SOL     MW  112   0.418   0.901   2.063 -0.6518 -0.1987 -0.0576
   29SOL     OW  113   0.195   1.441   0.687  0.3190  0.0735 -0.3154
   29SOL    HW1  114   0.207   1.527   0.648  1.1687 -0.9471  1.4119
   29SOL    HW2  115   0.179   1.381   0.616 -2.8178 -0.2975 -0.0836
   29SOL     MW  116   0.195   1.444   0.672  0.0172 -0.1101 -0.0569
   30SOL     OW  117   0.725   1.249   1.236 -0.4382 -0.2844 -0.3217
   30SOL    HW1  118   0.632   1.243   1.221  0.3502  0.3790 -0.4218
   30SOL    HW2  119   0.744   1.183   1.311 -2.4189 -2.7439 -1.8451
   30SOL     MW  120   0.716   1.239   1.244 -0.5955 -0.5213 -0.5359
   31SOL     OW  121   0.436   0.261   0.204 -0.3932  0.2875  0.5299
   31SOL    HW1  122   0.474   0.204   0.263 -1.3829  2.3028  0.2316
   31SOL    HW2  123   0.430   0.208   0.122  0.6480  0.3676  2.9295
   31SOL     MW  124   0.440   0.246   0.201 -0.3864  0.5639  0.8071
   32SOL     OW  125   2.718   0.969   1.050  0.2383 -0.3915  0.1163
   32SOL    HW1  126   2.703   0.873   1.045 -2.7110 -1.9333  1.8487
   32SOL    HW2  127   2.756   0.971   1.134 -2.7947 -0.9681 -3.9461
   32SOL     MW  128   2.721   0.956   1.061 -0.5510 -0.6710 -0.1911
   33SOL     OW  129   1.640   1.346   0.401  0.5628  0.6049  0.0396
   33SOL    HW1  130   1.696   1.285   0.447 -1.4710 -3.0980  0.7995
   33SOL    HW2  131   1.634   1.422   0.461 -0.1508 -0.6398  0.7421
   33SOL     MW  132   1.646   1.348   0.415  0.2003 -0.0478  0.2325
   34SOL     OW  133   1.164   1.977   1.175 -0.0270 -0.8939 -0.2127
   34SOL    HW1  134   1.078   1.996   1.211  0.5028 -0.5647  1.8500
   34SOL    HW2  135   1.229   2.006   1.247  3.1010  1.2426 -0.0778
   34SOL     MW  136   1.161   1.983   1.189  0.4556 -0.5686  0.0772
   35SOL     OW  137   0.351   0.110   1.668 -0.2485  0.0311 -0.2055
   35SOL    HW1  138   0.327   0.098   1.761 -0.8529 -0.5635 -0.2545
   35SOL    HW2  139   0.302   0.030   1.635 -0.4714 -0.3580  0.8542
   35SOL     MW  140   0.341   0.098   1.676 -0.3577 -0.0987 -0.0722
   36SOL     OW  141   1.918   2.017   0.609 -0.6163  0.1494  0.0964
   36SOL    HW1  142   1.863   1.993   0.533 -1.1989  0.8690  0.9372
   36SOL    HW2  143   1.958   1.932   0.625 -3.0330  1.3890 -2.5925
   36SOL     MW  144   1.916   2.003   0.601 -1.0121  0.4079 -0.1475
   37SOL     OW  145   1.704   2.028   0.955 -0.3713 -0.5662  0.5626
   37SOL    HW1  146   1.664   1.954   0.908  0.2557  0.6152 -0.4042
   37SOL    HW2  147   1.636   2.071   1.007  1.4053 -1.7605  0.9390
   37SOL     MW  148   1.690   2.024   0.955 -0.0542 -0.5679  0.4847
   38SOL     OW  149   2.842   0.984   0.085  0.0384  0.0972  0.4414
   38SOL    HW1  150   2.907   0.972   0.151 -1.2943 -1.6544 -0.0532
   38SOL    HW2  151   2.879   0.975  -0.008 -0.1703 -0.6065  2.6978
   38SOL     MW  152   2.856   0.981   0.082 -0.1650 -0.2267  0.6739
   39SOL     OW  153   1.498   0.564   0.663 -0.9677 -0.3628 -0.0999
   39SOL    HW1  154   1.498   0.493   0.727  1.6328  1.5217 -0.0022
   39SOL    HW2  155   1.427   0.620   0.673  1.4075 -0.2120  0.4804
   39SOL     MW  156   1.489   0.562   0.673 -0.3112 -0.0942 -0.0104
   40SOL     OW  157   1.257   1.865   0.228 -0.3333 -0.0779 -0.1179
   40SOL    HW1  158   1.305   1.788   0.251  0.6959  0.6713  0.0191
   40SOL    HW2  159   1.241   1.916   0.310 -1.1973 -0.0157 -0.4702
   40SOL     MW  160   1.261   1.861   0.242 -0.3115  0.0292 -0.1463
   41SOL     OW  161   0.493   0.505   1.536  0.3367 -0.0211 -0.0567
   41SOL    HW1  162   0.555   0.583   1.517  0.1199 -0.8049 -2.3879
   41SOL    HW2  163   0.404   0.519   1.501  1.7443  0.2632 -2.5587
   41SOL     MW  164   0.490   0.517   1.529  0.4938 -0.0870 -0.6944
   42SOL     OW  165   1.299   2.917   1.981  0.6978  0.6837  0.0424
   42SOL    HW1  166   1.224   2.955   2.018  1.4609  1.2558 -3.6085
   42SOL    HW2  167   1.336   2.863   2.052 -1.0753 -1.2369  3.9888
   42SOL     MW  168   1.294   2.914   1.995  0.5645  0.5057  0.0814
   43SOL     OW  169   1.414   0.160   1.690  0.3680  0.2526 -0.0148
   43SOL    HW1  170   1.467   0.096   1.644 -1.2301 -0.2480 -3.7590
   43SOL    HW2  171   1.335   0.108   1.693 -0.2031  1.5247  0.5046
   43SOL     MW  172   1.411   0.144   1.684  0.0818  0.3544 -0.4403
   44SOL     OW  173   1.185   0.855   0.952  0.1980 -0.1924 -0.0454
   44SOL    HW1  174   1.189   0.947   0.980 -0.5666 -0.5559 -1.9706
   44SOL    HW2  175   1.146   0.802   1.026  0.4327 -2.0473  0.8739
   44SOL     MW  176   1.180   0.860   0.966  0.1281 -0.4851 -0.1781
   45SOL     OW  177   1.290   0.788   0.697 -0.7471 -0.1194 -0.3476
   45SOL    HW1  178   1.257   0.801   0.784  1.1361 -0.1152  2.0537
   45SOL    HW2  179   1.215   0.750   0.642 -0.7658  1.1442 -1.1378
   45SOL     MW  180   1.276   0.785   0.701 -0.5011  0.0479 -0.1350
   46SOL     OW  181   0.448   1.134   0.694  0.0726 -0.0108 -0.2491
   46SOL    HW1  182   0.500   1.163   0.620  1.2632  0.9643 -3.4682
   46SOL    HW2  183   0.417   1.219   0.742 -0.1862 -0.4313  2.1475
   46SOL     MW  184   0.451   1.149   0.690  0.1956  0.0624 -0.3576
   47SOL     OW  185   0.127   2.024   1.944 -0.1687  0.2649  0.2710
   47SOL    HW1  186   0.139   1.945   1.883  3.5968 -1.1235 -0.4529
   47SOL    HW2  187   0.137   1.991   2.030 -1.5293 -0.1731  1.6807
   47SOL     MW  188   0.130   2.009   1.947  0.1486  0.0239  0.3615
   48SOL     OW  189   1.285   0.526   1.045 -0.0521  0.4129  0.2997
   48SOL    HW1  190   1.247   0.500   0.963  0.2089  0.5263  2.9899
   48SOL    HW2  191   1.215   0.579   1.082 -1.2547  0.8330  0.7246
   48SOL     MW  192   1.270   0.529   1.039 -0.1763  0.4833  0.7107
   49SOL     OW  193   1.782   0.701   1.527  0.5593 -0.0239 -0.1646
   49SOL    HW1  194   1.830   0.643   1.585 -0.8029 -1.1435  0.3632
   49SOL    HW2  195   1.785   0.658   1.439  0.0324  0.8264 -2.9612
   49SOL     MW  196   1.789   0.688   1.523  0.3101 -0.0595 -0.4639
   50SOL     OW  197   1.252   1.256   0.606 -0.7379  0.6890 -0.1568
   50SOL    HW1  198   1.195   1.247   0.690 -0.8719 -0.1548 -2.2515
   50SOL    HW2  199   1.320   1.185   0.611  0.8746 -0.8379 -3.4987
   50SOL     MW  200   1.254   1.245   0.618 -0.5428  0.3762 -0.8741
   51SOL     OW  201   0.318   2.893   0.872  0.1298 -0.0489  0.2545
   51SOL    HW1  202   0.397   2.839   0.883 -0.2675  0.0864 -0.0543
   51SOL    HW2  203   0.304   2.926   0.961 -0.3353 -2.1555  0.7780
   51SOL     MW  204   0.327   2.890   0.885  0.0160 -0.3090  0.2828
   52SOL     OW  205   0.800   1.849   0.464 -0.0954 -0.0398  0.4749
   52SOL    HW1  206   0.768   1.940   0.457  0.2392  0.1993 -1.4626
   52SOL    HW2  207   0.823   1.822   0.373  0.7895  2.1153 -0.7646
   52SOL     MW  208   0.799   1.857   0.451  0.0655  0.2761  0.0557
   53SOL     OW  209   0.455   2.155   0.639 -0.6374 -0.1231 -0.0515
   53SOL    HW1  210   0.422   2.122   0.556  4.5443  0.7638 -0.0600
   53SOL    HW2  211   0.456   2.248   0.623  0.2333 -0.3815 -0.8677
   53SOL     MW  212   0.451   2.163   0.626  0.1611 -0.0402 -0.1603
   54SOL     OW  213   2.014   0.964   0.677 -0.7753 -0.5610 -0.0573
   54SOL    HW1  214   2.093   0.957   0.627 -3.4691 -1.9807 -2.6577
   54SOL    HW2  215   1.971   0.880   0.691 -0.9419  0.7093  1.2328
   54SOL     MW  216   2.018   0.952   0.672 -1.1527 -0.5807 -0.2302
   55SOL     OW  217   0.428   1.531   1.737  0.0320 -0.2454  0.2338
   55SOL    HW1  218   0.376   1.566   1.661 -0.5446 -0.5385  0.5283
   55SOL    HW2  219   0.501   1.486   1.694  1.1352 -0.5124 -1.3062
   55SOL     MW  220   0.431   1.530   1.721  0.1014 -0.3193  0.0695
   56SOL     OW  221   0.695   0.908   0.209 -0.4652 -0.7006  0.1851
   56SOL    HW1  222   0.706   0.982   0.146  1.6919 -2.0009  0.5363
   56SOL    HW2  223   0.603   0.886   0.197  1.5567  1.2149  0.1813
   56SOL     MW  224   0.684   0.915   0.199  0.0862 -0.6194  0.2310
   57SOL     OW  225   1.079   1.335   1.200  0.3945  0.3994 -0.0784
   57SOL    HW1  226   1.164   1.375   1.217 -0.5579 -2.6682 -1.9698
   57SOL    HW2  227   1.074   1.265   1.268  0.2145 -1.4262 -2.0944
   57SOL     MW  228   1.089   1.331   1.211  0.2451 -0.2462 -0.5939
   58SOL     OW  229   0.418   1.239   1.296 -0.2527  0.3908 -0.7427
   58SOL    HW1  230   0.408   1.338   1.304  1.1986 -0.1051  1.8725
   58SOL    HW2  231   0.425   1.221   1.389  0.9034  0.0756  0.7896
   58SOL     MW  232   0.417   1.250   1.309  0.0913  0.2838 -0.1955
   59SOL     OW  233   1.489   1.676   0.398 -0.1432  0.4423  0.3344
   59SOL    HW1  234   1.545   1.739   0.435  0.7626 -0.7603  1.1956
   59SOL    HW2  235   1.401   1.691   0.435  2.8989  0.2744 -1.9230
   59SOL     MW  236   1.485   1.686   0.408  0.3777  0.2615  0.1502
   60SOL     OW  237   3.047   0.153   1.595  0.1555  0.1264 -0.0282
   60SOL    HW1  238   2.956   0.188   1.595  2.6152 -0.5322 -1.3429
   60SOL    HW2  239   3.060   0.110   1.674 -1.0595  0.4839 -1.2058
   60SOL     MW  240   3.036   0.152   1.605  0.3197  0.0866 -0.3570
   61SOL     OW  241   1.984   1.383   3.022  0.0894  0.1949 -0.0376
   61SOL    HW1  242   1.928   1.347   3.090  2.7391  2.7312 -0.5514
   61SOL    HW2  243   2.054   1.315   3.017  2.5774 -1.3298  3.0054
   61SOL     MW  244   1.986   1.369   3.030  0.7672  0.3284  0.2961
   62SOL     OW  245   0.535   1.803   0.519 -0.2421 -0.2228 -0.2939
   62SOL    HW1  246   0.631   1.805   0.506  2.5136 -0.5937 -0.8641
   62SOL    HW2  247   0.510   1.712   0.535  0.6072  0.0460 -0.4531
   62SOL     MW  248   0.545   1.791   0.519  0.2336 -0.2362 -0.3901
   63SOL     OW  249   1.694   0.659   0.505 -0.2846 -0.2997 -0.3120
   63SOL    HW1  250   1.666   0.750   0.490 -0.4155 -0.9863 -3.0155
   63SOL    HW2  251   1.624   0.634   0.571  0.9321  1.9838  0.7015
   63SOL     MW  252   1.681   0.668   0.512 -0.1413 -0.0890 -0.5350
   64SOL     OW  253   0.189   1.716   0.632 -0.0010  0.5208  0.1377
   64SOL    HW1  254   0.232   1.801   0.654 -1.1514  1.2705  2.2949
   64SOL    HW2  255   0.115   1.727   0.700 -2.3011  1.3411  0.3891
   64SOL     MW  256   0.185   1.728   0.644 -0.4562  0.7279  0.4555
   65SOL     OW  257   1.567   2.325   0.396  0.0684 -0.2722 -0.3238
   65SOL    HW1  258   1.644   2.377   0.399 -1.9178 -0.4378 -1.3349
   65SOL    HW2  259   1.505   2.371   0.448  1.0769 -2.2293 -0.4885
   65SOL     MW  260   1.569   2.338   0.403 -0.0606 -0.5523 -0.4789
   66SOL     OW  261   0.390   0.588   0.522 -0.1840  0.1133 -0.2165
   66SOL    HW1  262   0.438   0.553   0.448 -2.3827  1.4966 -0.8254
   66SOL    HW2  263   0.375   0.686   0.515  0.4910  0.2603  0.4108
   66SOL     MW  264   0.394   0.597   0.511 -0.3850  0.3152 -0.2141
   67SOL     OW  265   1.358   0.102   1.941  0.3233  0.0086 -0.0405
   67SOL    HW1  266   1.400   0.135   1.862  0.1709 -0.0284  0.9350
   67SOL    HW2  267   1.359   0.008   1.940  0.5748  0.0684  0.9457
   67SOL     MW  268   1.363   0.094   1.930  0.3364  0.0116  0.2183
   68SOL     OW  269   0.809   0.111   2.840  0.2397  0.5147  0.2238
   68SOL    HW1  270   0.773   0.189   2.803 -0.3931 -0.1334  0.4389
   68SOL    HW2  271   0.866   0.136   2.916  1.1775  1.2605  0.5965
   68SOL     MW  272   0.812   0.125   2.845  0.2799  0.5276  0.3014
   69SOL     OW  273   1.081   0.264   1.964 -0.1530  0.3073 -0.1479
   69SOL    HW1  274   1.172   0.273   2.004  0.0107  2.1546  1.4245
   69SOL    HW2  275   1.030   0.192   2.015 -0.7829  1.3907 -1.0524
   69SOL     MW  276   1.086   0.256   1.976 -0.2145  0.6940 -0.0598
   70SOL     OW  277   0.552   1.655   1.138  0.2483 -0.0779  0.5131
   70SOL    HW1  278   0.642   1.670   1.159 -1.2479  0.6768 -1.4892
   70SOL    HW2  279   0.571   1.616   1.055  0.5807 -0.7177 -1.1787
   70SOL     MW  280   0.567   1.652   1.130  0.0948 -0.0627  0.0257
   71SOL     OW  281   1.561   0.652   1.231 -0.1342  0.1140  0.1647
   71SOL    HW1  282   1.512   0.725   1.273 -0.3902  2.3955  1.9580
   71SOL    HW2  283   1.576   0.686   1.145 -1.5454  0.8762 -3.2965
   71SOL     MW  284   1.557   0.666   1.225 -0.3542  0.5156 -0.0554
   72SOL     OW  285   0.782   1.818   1.089 -0.0430 -0.1986  0.0322
   72SOL    HW1  286   0.797   1.871   1.012  0.3702  0.8317  0.8251
   72SOL    HW2  287   0.828   1.738   1.067  2.1068  1.0703  0.4581
   72SOL     MW  288   0.790   1.814   1.076  0.2952  0.1047  0.1930
   73SOL     OW  289   1.084   0.700   1.150 -0.1501  0.6732  0.7256
   73SOL    HW1  290   1.031   0.627   1.183  0.2456  0.5976  1.3929
   73SOL    HW2  291   1.116   0.742   1.238 -0.0658  1.2541 -0.0029
   73SOL     MW  292   1.081   0.696   1.166 -0.0867  0.7398  0.7175
   74SOL     OW  293   2.814   0.124   0.983 -0.0544  0.8765  0.0628
   74SOL    HW1  294   2.908   0.137   0.977  0.5218 -2.5467  0.9641
   74SOL    HW2  295   2.778   0.186   0.921  1.5275  0.3745  0.0886
   74SOL     MW  296   2.822   0.134   0.974  0.2303  0.3586  0.1851
   75SOL     OW  297   1.463   1.306   0.198  0.3620 -0.4714  0.1300
   75SOL    HW1  298   1.517   1.295   0.121 -2.3161  1.9782  1.5784
   75SOL    HW2  299   1.529   1.317   0.267  0.8219 -3.4249 -1.3265
   75SOL     MW  300   1.479   1.306   0.197  0.0693 -0.5379  0.1289
   76SOL     OW  301   3.023   0.679   0.440  0.4220  0.0995 -0.3163
   76SOL    HW1  302   3.019   0.713   0.531  1.0167  1.2981 -0.9700
   76SOL    HW2  303   3.097   0.618   0.431 -1.6538 -0.0386 -0.6385
   76SOL     MW  304   3.032   0.676   0.451  0.2266  0.2394 -0.4450
   77SOL     OW  305   0.868   0.599   0.444  0.1436  0.4366 -0.1753
   77SOL    HW1  306   0.840   0.621   0.356  0.5486  1.1663  1.1746
   77SOL    HW2  307   0.859   0.497   0.436  1.1650 -0.2735 -1.7525
   77SOL     MW  308   0.863   0.588   0.431  0.3318  0.4392 -0.2053
   78SOL     OW  309   0.749   0.865   1.114 -0.4357 -0.0626  0.3842
   78SOL    HW1  310   0.754   0.951   1.072 -1.0436  0.9166  0.3602
   78SOL    HW2  311   0.653   0.849   1.134  0.2240 -0.8159 -0.8240
   78SOL     MW  312   0.737   0.874   1.111 -0.4289 -0.0328  0.2216
   79SOL     OW  313   1.936   1.503   0.598  0.5180  0.1785  0.0207
   79SOL    HW1  314   1.837   1.493   0.592  0.1688 -0.8864  0.1898
   79SOL    HW2  315   1.969   1.428   0.647 -1.3361  2.1467  0.6995
   79SOL     MW  316   1.927   1.492   0.603  0.2273  0.2977  0.1326
   80SOL     OW  317   0.231   0.984   0.264  0.0240 -0.6318 -0.9061
   80SOL    HW1  318   0.161   0.948   0.203 -1.1397 -0.1263 -0.7999
   80SOL    HW2  319   0.261   0.908   0.319  0.4453 -0.0161 -0.3415
   80SOL     MW  320   0.226   0.969   0.263 -0.0739 -0.4839 -0.8176
   81SOL     OW  321   1.763   1.826   0.256  0.2192  0.1763 -0.2984
   81SOL    HW1  322   1.727   1.734   0.227 -0.6086  0.4874 -0.4635
   81SOL    HW2  323   1.711   1.889   0.205 -0.2336  0.8094 -2.5551
   81SOL     MW  324   1.751   1.822   0.245  0.0502  0.3009 -0.6180
   82SOL     OW  325   0.929   1.031   0.534 -0.4837  0.3749 -0.9104
   82SOL    HW1  326   0.880   1.075   0.460 -1.8962  1.6792  1.2744
   82SOL    HW2  327   0.888   0.943   0.551  1.1135  0.0422  0.5340
   82SOL     MW  328   0.917   1.025   0.527 -0.4593  0.5031 -0.4315
   83SOL     OW  329   0.013   0.745   1.462 -0.3171  0.9931 -0.7633
   83SOL    HW1  330   0.026   0.807   1.391  0.1676  2.1640 -1.4931
   83SOL    HW2  331   0.052   0.663   1.432 -1.7533  0.1004  1.0425
   83SOL     MW  332   0.020   0.743   1.448 -0.4426  1.0298 -0.6214
   84SOL     OW  333   0.002   0.186   0.924  0.0870 -0.4742 -0.5220
   84SOL    HW1  334   0.016   0.272   0.972  2.2794  0.1285  0.1212
   84SOL    HW2  335   0.031   0.114   0.985 -1.2841 -2.4908  2.5381
   84SOL     MW  336   0.007   0.188   0.939  0.1953 -0.6607 -0.0334
   85SOL     OW  337   0.395   0.469   0.762  1.1745  0.5429 -0.2077
   85SOL    HW1  338   0.403   0.505   0.669 -0.8223  2.0480 -1.8564
   85SOL    HW2  339   0.338   0.391   0.760  0.6302 -1.1479  0.2821
   85SOL     MW  340   0.389   0.464   0.750  0.8392  0.5184 -0.3606
   86SOL     OW  341   1.289   0.232   1.208 -0.0303 -0.6191 -0.1276
   86SOL    HW1  342   1.250   0.299   1.148  1.3838  0.8490  0.8501
   86SOL    HW2  343   1.386   0.253   1.209  0.0297  0.6787  0.0681
   86SOL     MW  344   1.297   0.243   1.201  0.1642 -0.2541  0.0272
   87SOL     OW  345   0.946   1.579   1.198  0.0624 -0.4150 -0.0625
   87SOL    HW1  346   1.013   1.646   1.165  0.1451 -0.5724  3.3584
   87SOL    HW2  347   0.990   1.494   1.212 -1.4499 -0.7187  2.7616
   87SOL     MW  348   0.961   1.577   1.196 -0.1262 -0.4758  0.7615
   88SOL     OW  349   1.199   1.118   1.024  0.4943  0.1711  0.5418
   88SOL    HW1  350   1.292   1.116   1.023  0.8899 -0.6962  0.5351
   88SOL    HW2  351   1.162   1.164   1.099  0.1826 -0.3827  0.4794
   88SOL     MW  352   1.207   1.124   1.033  0.5054 -0.0164  0.5326
   89SOL     OW  353   1.791   0.717   0.223 -0.2780 -0.3392  0.0156
   89SOL    HW1  354   1.755   0.659   0.293  0.5242 -2.3141  1.2283
   89SOL    HW2  355   1.878   0.748   0.265  0.3501 -0.6830 -0.2859
   89SOL     MW  356   1.798   0.714   0.238 -0.0893 -0.6452  0.1359
   90SOL     OW  357   0.733   1.180   2.761 -0.5130 -0.2002 -0.3503
   90SOL    HW1  358   0.747   1.089   2.748 -3.5482 -1.2573  1.8537
   90SOL    HW2  359   0.766   1.188   2.847 -0.3338  0.5151 -1.5375
   90SOL     MW  360   0.739   1.169   2.771 -0.8899 -0.2453 -0.2162
   91SOL     OW  361   2.234   0.624   0.537 -0.5665 -0.0694  0.1205
   91SOL    HW1  362   2.276   0.701   0.503 -0.2916  0.4572  3.6004
   91SOL    HW2  363   2.253   0.550   0.482 -0.5399 -0.2596  1.3098
   91SOL     MW  364   2.242   0.624   0.525 -0.5268 -0.0250  0.7365
   92SOL     OW  365   1.646   0.942   0.498 -0.5424 -0.0560  0.0096
   92SOL    HW1  366   1.560   0.969   0.535 -0.4423 -0.0838 -0.1687
   92SOL    HW2  367   1.636   0.955   0.399  0.6991  0.6756 -0.7474
   92SOL     MW  368   1.634   0.947   0.489 -0.3654  0.0368 -0.1138
   93SOL     OW  369   1.100   0.214   0.385  0.3380 -0.1821  0.2769
   93SOL    HW1  370   1.016   0.253   0.408 -0.8920  1.8787 -3.0839
   93SOL    HW2  371   1.129   0.259   0.305 -1.6787 -1.1700 -1.0464
   93SOL     MW  372   1.093   0.225   0.378 -0.0903 -0.0405 -0.3411
   94SOL     OW  373   1.896   1.376   1.540 -0.2660 -0.2521 -0.3674
   94SOL    HW1  374   1.868   1.393   1.447 -1.3238 -0.3295 -1.7866
   94SOL    HW2  375   1.826   1.312   1.579 -2.0221 -1.0687 -0.0588
   94SOL     MW  376   1.883   1.370   1.533 -0.6373 -0.3701 -0.5139
   95SOL     OW  377   0.625   1.499   0.926 -0.1093  0.0116 -0.2633
   95SOL    HW1  378   0.709   1.451   0.928  3.7693  0.4321  0.4276
   95SOL    HW2  379   0.552   1.437   0.899  1.6961 -0.9171 -1.1128
   95SOL     MW  380   0.626   1.484   0.923  0.6406 -0.0555 -0.2842
   96SOL     OW  381   1.298   1.820   1.743 -0.0961 -0.4671  0.5357
   96SOL    HW1  382   1.225   1.850   1.794  0.0649  0.1764  2.2237
   96SOL    HW2  383   1.284   1.728   1.720 -2.8212 -1.2385  0.8800
   96SOL     MW  384   1.287   1.812   1.747 -0.4344 -0.4840  0.8038
   97SOL     OW  385   1.080   1.551   0.846  0.6584 -0.0272  0.0160
   97SOL    HW1  386   1.088   1.622   0.906 -2.4897 -0.6611 -1.5486
   97SOL    HW2  387   0.991   1.568   0.812 -0.7372  0.2241  2.1830
   97SOL     MW  388   1.069   1.563   0.850  0.0589 -0.0777  0.0954
   98SOL     OW  389   1.376   1.414   1.218  0.0672  0.1177  0.1662
   98SOL    HW1  390   1.434   1.429   1.289  1.4176  1.0971 -0.4064
   98SOL    HW2  391   1.425   1.388   1.140 -0.1850  1.9178  0.0545
   98SOL     MW  392   1.390   1.413   1.217  0.2121  0.4844  0.0759
   99SOL     OW  393   1.550   0.345   1.292 -0.1289  0.4233  0.0502
   99SOL    HW1  394   1.551   0.425   1.247  0.8341 -1.0129 -0.6199
   99SOL    HW2  395   1.492   0.369   1.365  0.2765 -0.4086 -1.3446
   99SOL     MW  396   1.543   0.359   1.296  0.0516  0.1240 -0.2223
  100SOL     OW  397   1.065   1.138   1.386 -0.2581 -0.6952 -0.3575
  100SOL    HW1  398   1.067   1.202   1.456 -0.9674 -1.5055 -1.0962
  100SOL    HW2  399   1.066   1.053   1.421 -2.5418  2.4956 -0.7672
  100SOL     MW  400   1.065   1.135   1.400 -0.6530 -0.3811 -0.5090
  101SOL     OW  401   0.558   1.254   0.473  0.0163  0.6208 -0.2518
  101SOL    HW1  402   0.501   1.215   0.406  0.0787 -3.8685 -0.1588
  101SOL    HW2  403   0.636   1.230   0.428  1.3180  0.1467  2.1008
  101SOL     MW  404   0.561   1.246   0.458  0.1963 -0.0340  0.0708
  102SOL     OW  405   2.907   0.600   1.030  0.0490 -0.1869 -0.5691
  102SOL    HW1  406   2.945   0.698   1.025  1.8184  0.3326  0.5195
  102SOL    HW2  407   2.851   0.605   1.112  1.2546  0.2594 -0.9577
  102SOL     MW  408   2.905   0.614   1.040  0.4415 -0.0595 -0.4768
  103SOL     OW  409   1.891   0.273   1.791 -0.1652  0.3704  0.4407
  103SOL    HW1  410   1.877   0.181   1.773  1.6428 -0.0581  1.8748
  103SOL    HW2  411   1.859   0.291   1.877  0.6727  2.1470 -1.2754
  103SOL     MW  412   1.885   0.263   1.800  0.1839  0.5483  0.4035
  104SOL     OW  413   0.058   1.545   1.674  0.0732 -0.3123  0.2022
  104SOL    HW1  414   0.107   1.466   1.691  2.5896 -0.1233  1.9687
  104SOL    HW2  415  -0.030   1.519   1.684 -0.3145  2.0043 -1.1309
  104SOL     MW  416   0.053   1.531   1.677  0.3540  0.0183  0.2594
  105SOL     OW  417   0.142   1.205   0.438  0.1382 -0.0292  0.8385
  105SOL    HW1  418   0.172   1.131   0.386  1.7043 -0.2380  0.3734
  105SOL    HW2  419   0.204   1.274   0.412 -0.4316  2.3104  0.4311
  105SOL     MW  420   0.154   1.204   0.428  0.2696  0.2519  0.7234
  106SOL     OW  421   0.855   0.243   0.879 -0.3656  0.5473  0.5317
  106SOL    HW1  422   0.791   0.317   0.881 -0.4443  0.1140  0.0693
  106SOL    HW2  423   0.944   0.277   0.857 -0.3790  1.9792  0.0832
  106SOL     MW  424   0.858   0.257   0.876 -0.3777  0.6791  0.4115
  107SOL     OW  425   0.806   2.146   2.884  0.1997 -0.8635  0.2816
  107SOL    HW1  426   0.712   2.129   2.906 -0.7916 -4.1473  0.6109
  107SOL    HW2  427   0.848   2.130   2.972  0.9905 -0.3821  2.5913
  107SOL     MW  428   0.799   2.142   2.898  0.1732 -1.2333  0.6298
  108SOL     OW  429   1.319   1.539   1.661 -0.2222 -0.2596  0.4967
  108SOL    HW1  430   1.283   1.498   1.588 -2.1164  1.9551  1.3209
  108SOL    HW2  431   1.412   1.519   1.655  1.9640  3.2670  4.2646
  108SOL     MW  432   1.327   1.531   1.651 -0.1837  0.4979  1.1026
  109SOL     OW  433   2.018   0.751   0.364  0.3713  0.1266 -0.5501
  109SOL    HW1  434   2.022   0.844   0.373  1.2612 -1.6996 -0.9552
  109SOL    HW2  435   2.015   0.717   0.452 -1.4207 -1.8684  0.2668
  109SOL     MW  436   2.018   0.759   0.377  0.2522 -0.3775 -0.4958
  110SOL     OW  437   0.389   1.909   0.721 -0.1719  0.2131 -0.8240
  110SOL    HW1  438   0.450   1.868   0.658 -0.7616  0.9920  0.7826
  110SOL    HW2  439   0.406   2.001   0.711 -0.6309 -0.3939 -3.8867
  110SOL     MW  440   0.399   1.915   0.711 -0.3103  0.2358 -1.0161
  111SOL     OW  441   0.849   0.849   1.370 -0.2186  0.0467  0.1015
  111SOL    HW1  442   0.836   0.853   1.272  0.7503 -2.4652 -1.7631
  111SOL    HW2  443   0.791   0.777   1.389 -0.0421 -0.8132  0.2573
  111SOL     MW  444   0.840   0.840   1.359 -0.0675 -0.3982 -0.1240
  112SOL     OW  445   1.299   1.172   1.659 -0.0945  0.5130  0.1925
  112SOL    HW1  446   1.208   1.209   1.655 -2.2928  2.9081  1.2524
  112SOL    HW2  447   1.300   1.076   1.641  0.0814 -0.1059 -1.2638
  112SOL     MW  448   1.287   1.164   1.656 -0.3613  0.7474  0.1402
  113SOL     OW  449   1.251   2.998   1.710  0.0829  0.3455 -0.1579
  113SOL    HW1  450   1.258   2.947   1.793  2.0235 -0.4777  0.0517
  113SOL    HW2  451   1.232   2.931   1.642 -0.5069 -1.9523  1.1131
  113SOL     MW  452   1.249   2.983   1.712  0.2611 -0.0663  0.0374
  114SOL     OW  453   0.328   2.882   1.844 -0.3623  0.1240 -0.2546
  114SOL    HW1  454   0.411   2.922   1.819  2.6934 -3.7898 -0.4580
  114SOL    HW2  455   0.306   2.936   1.919  1.5378 -2.4050  0.0582
  114SOL     MW  456   0.336   2.895   1.851  0.2916 -0.7261 -0.2402
  115SOL     OW  457   0.495   0.860   1.166 -0.1099 -0.5303 -0.1170
  115SOL    HW1  458   0.489   0.774   1.119 -2.4158  0.3720 -0.4747
  115SOL    HW2  459   0.428   0.852   1.238 -0.5563  1.2733 -3.3190
  115SOL     MW  460   0.485   0.847   1.169 -0.4730 -0.1733 -0.5866
  116SOL     OW  461   0.731   1.101   0.979  0.3963 -0.0277 -0.2727
  116SOL    HW1  462   0.764   1.140   0.897  1.4946  2.0588  0.3678
  116SOL    HW2  463   0.749   1.167   1.050  1.6516  0.7807  0.8326
  116SOL     MW  464   0.738   1.115   0.978  0.7069  0.3543 -0.0423
  117SOL     OW  465   1.083   1.273   0.810 -0.6292  0.5551  0.4159
  117SOL    HW1  466   1.132   1.227   0.873  0.2215  1.1133  0.2791
  117SOL    HW2  467   1.078   1.360   0.847  2.6885  0.5087 -0.7660
  117SOL     MW  468   1.088   1.279   0.823 -0.0793  0.6226  0.2419
  118SOL     OW  469   3.064   2.923   1.855 -0.8558 -0.2483  0.0706
  118SOL    HW1  470   3.071   2.980   1.934  1.0491  0.9004  4.3255
  118SOL    HW2  471   2.984   2.951   1.804 -0.9497 -0.0289 -0.9472
  118SOL     MW  472   3.055   2.934   1.859 -0.6169 -0.0678  0.4977
  119SOL     OW  473   0.385   1.513   1.286  0.5289 -0.3946  0.2011
  119SOL    HW1  474   0.452   1.567   1.235 -0.9047  3.4963  0.3821
  119SOL    HW2  475   0.308   1.494   1.228 -1.0871 -0.2136  0.6537
  119SOL     MW  476   0.383   1.518   1.271  0.1265  0.1427  0.2847
  120SOL     OW  477   0.292   0.853   0.960 -0.4517 -0.8284  0.6569
  120SOL    HW1  478   0.294   0.888   1.046 -0.2679 -0.1007 -1.1097
  120SOL    HW2  479   0.385   0.866   0.939 -0.1390 -3.1904  0.5298
  120SOL     MW  480   0.305   0.859   0.969 -0.3862 -1.0441  0.4071
  121SOL     OW  481   1.753   1.152   1.623 -0.3398  0.1790  0.0828
  121SOL    HW1  482   1.673   1.153   1.567 -0.4691 -2.1084 -2.0575
  121SOL    HW2  483   1.801   1.075   1.589 -0.1057  0.1224  1.5821
  121SOL     MW  484   1.749   1.142   1.611 -0.3260 -0.1303 -0.0018
  122SOL     OW  485   0.176   0.627   0.806  0.5176  0.2845 -0.3272
  122SOL    HW1  486   0.260   0.586   0.772  0.3669 -0.9415 -0.2600
  122SOL    HW2  487   0.204   0.703   0.858 -2.8528  1.6064  1.1210
  122SOL     MW  488   0.191   0.632   0.809  0.0530  0.2972 -0.1272
  123SOL     OW  489   1.822   1.127   0.553 -0.1516  0.0240 -0.2809
  123SOL    HW1  490   1.747   1.068   0.539 -2.5148  2.5532 -0.9164
  123SOL    HW2  491   1.887   1.075   0.608  1.1612 -0.1524 -2.3065
  123SOL     MW  492   1.821   1.113   0.558 -0.2901  0.3344 -0.6320
  124SOL     OW  493   0.682   0.482   0.811  0.3654 -0.1457  0.2356
  124SOL    HW1  494   0.593   0.487   0.780 -1.7432  0.6861  0.3638
  124SOL    HW2  495   0.725   0.568   0.806  1.3430  0.5816 -0.5336
  124SOL     MW  496   0.676   0.494   0.807  0.2162  0.0600  0.1510
  125SOL     OW  497   0.647   1.767   1.745 -0.6209 -0.1703  0.2077
  125SOL    HW1  498   0.673   1.726   1.666 -0.2049 -0.2497  0.9102
  125SOL    HW2  499   0.618   1.858   1.714 -0.5598  0.1877  0.9371
  125SOL     MW  500   0.646   1.774   1.730 -0.5580 -0.1336  0.3966
  126SOL     OW  501   2.091   1.564   1.850 -0.1138  0.5659 -0.6386
  126SOL    HW1  502   2.135   1.654   1.854 -0.3214  0.9140  1.3784
  126SOL    HW2  503   2.153   1.511   1.900 -0.5205  1.1153  0.7261
  126SOL     MW  504   2.105   1.569   1.857 -0.1949  0.6843 -0.1924
  127SOL     OW  505   0.549   0.792   1.848  0.2929  0.1166  0.1542
  127SOL    HW1  506   0.634   0.844   1.853  1.4622 -2.6568  0.1633
  127SOL    HW2  507   0.509   0.830   1.929  0.5656  1.4443  1.9001
  127SOL     MW  508   0.555   0.803   1.859  0.4831 -0.0742  0.3857
  128SOL     OW  509   1.742   0.734   2.867 -0.3840  0.1273  0.0751
  128SOL    HW1  510   1.798   0.714   2.791  0.2659 -0.1435  1.7354
  128SOL    HW2  511   1.752   0.832   2.878  1.6983 -0.0519  1.8686
  128SOL     MW  512   1.751   0.745   2.859 -0.0235  0.0679  0.5308
  129SOL     OW  513   1.629   0.948   0.184 -0.3449 -0.0526  0.6683
  129SOL    HW1  514   1.542   0.918   0.170  0.2413 -2.9634  1.8834
  129SOL    HW2  515   1.680   0.872   0.169  1.8728  0.6064  0.0354
  129SOL     MW  516   1.625   0.934   0.180  0.0251 -0.3497  0.7451
  130SOL     OW  517   0.871   1.462   0.384 -0.1225  0.1921 -0.0104
  130SOL    HW1  518   0.850   1.450   0.478 -0.6375 -1.3913  1.2961
  130SOL    HW2  519   0.965   1.486   0.375  3.4032  0.6650  3.0352
  130SOL     MW  520   0.881   1.463   0.395  0.2747  0.0456  0.5639
  131SOL     OW  521   0.048   0.838   0.059 -0.0955 -0.2135  0.4335
  131SOL    HW1  522   0.057   0.869  -0.029 -0.8930 -0.7580 -0.9088
  131SOL    HW2  523   0.083   0.746   0.053 -1.0377  1.6624  2.2066
  131SOL     MW  524   0.053   0.830   0.047 -0.3250 -0.0379  0.4903
  132SOL     OW  525   2.686   0.081   1.230 -0.3425  0.5103 -0.4415
  132SOL    HW1  526   2.737   0.101   1.149  2.2110 -0.7635  0.9385
  132SOL    HW2  527   2.601   0.034   1.204  0.7908 -0.2102  1.5541
  132SOL     MW  528   2.681   0.077   1.216  0.1439  0.2472  0.0039
  133SOL     OW  529   1.089   0.139   1.731 -0.0064  0.1091  0.3944
  133SOL    HW1  530   1.118   0.050   1.755  1.8371 -0.2292  0.2820
  133SOL    HW2  531   1.091   0.185   1.815  0.6241  0.7894 -1.9465
  133SOL     MW  532   1.093   0.133   1.745  0.3200  0.1542  0.0708
  134SOL     OW  533   1.400   2.471   1.481 -0.5194 -0.2510 -0.1214
  134SOL    HW1  534   1.347   2.547   1.443 -0.2293  0.0061 -0.4429
  134SOL    HW2  535   1.422   2.505   1.571  0.9678  1.9868  3.6620
  134SOL     MW  536   1.396   2.485   1.487 -0.2849  0.0782  0.3354
  135SOL     OW  537   2.977   1.003   2.914 -0.0510 -0.2378 -0.4988
  135SOL    HW1  538   3.051   1.041   2.954 -3.6252  1.2352 -1.8359
  135SOL    HW2  539   2.926   1.081   2.878 -2.3555 -0.4495  2.8611
  135SOL     MW  540   2.980   1.019   2.915 -0.8267 -0.0714 -0.2319
  136SOL     OW  541   0.146   1.989   0.833  0.3303  0.0058 -0.2047
  136SOL    HW1  542   0.069   1.945   0.864  0.3569 -0.8229  0.0283
  136SOL    HW2  543   0.202   1.927   0.797 -0.9354  0.2083  0.4571
  136SOL     MW  544   0.143   1.975   0.832  0.1668 -0.0768 -0.0866
  137SOL     OW  545   0.735   2.097   0.636 -0.2057 -0.2773  0.2639
  137SOL    HW1  546   0.761   2.078   0.726 -1.6554 -1.0306  2.0638
  137SOL    HW2  547   0.639   2.119   0.637  0.8654  0.4918 -0.7852
  137SOL     MW  548   0.726   2.097   0.648 -0.2556 -0.2752  0.3629
  138SOL     OW  549   0.524   0.614   1.033  0.0375 -0.2382 -0.2254
  138SOL    HW1  550   0.470   0.538   1.013 -0.3541 -0.2052 -1.7150
  138SOL    HW2  551   0.601   0.593   0.993 -1.8127 -2.9136 -0.3318
  138SOL     MW  552   0.527   0.601   1.025 -0.2583 -0.5869 -0.4360
  139SOL     OW  553   2.810   0.476   1.316 -0.5586  0.0313 -0.1385
  139SOL    HW1  554   2.911   0.459   1.305  0.4630 -1.9157 -2.7142
  139SOL    HW2  555   2.809   0.546   1.385 -1.4915 -0.1180 -1.1475
  139SOL     MW  556   2.823   0.483   1.324 -0.5469 -0.2453 -0.6115
  140SOL     OW  557   0.878   0.478   1.962 -0.4131 -0.3750  0.3158
  140SOL    HW1  558   0.942   0.404   1.964  1.7515 -0.3068 -0.2679
  140SOL    HW2  559   0.833   0.473   2.041  0.1300 -3.2604  1.8520
  140SOL     MW  560   0.881   0.468   1.972 -0.0559 -0.7467  0.4415
  141SOL     OW  561   1.132   0.683   1.717 -0.0535 -0.1052 -0.0152
  141SOL    HW1  562   1.113   0.598   1.663  0.3650 -0.5682  0.4883
  141SOL    HW2  563   1.206   0.656   1.776  2.0539 -0.6621  2.1328
  141SOL     MW  564   1.140   0.668   1.718  0.2798 -0.2398  0.3346
  142SOL     OW  565   0.823   1.206   0.725  0.6229  0.2774  0.3705
  142SOL    HW1  566   0.841   1.141   0.661 -1.7677 -0.3322 -1.1142
  142SOL    HW2  567   0.908   1.217   0.774  1.6531 -2.0439  0.0132
  142SOL     MW  568   0.837   1.199   0.723  0.4434 -0.1093  0.1275
  143SOL     OW  569   1.800   0.838   1.011 -0.3121  0.9549 -0.6595
  143SOL    HW1  570   1.855   0.774   0.977 -2.2270 -0.0140 -1.6760
  143SOL    HW2  571   1.715   0.828   0.969 -1.8102  1.2175 -2.7362
  143SOL     MW  572   1.796   0.829   1.001 -0.7624  0.8617 -1.0676
  144SOL     OW  573   0.236   1.336   1.749 -0.1863 -0.0736  0.0321
  144SOL    HW1  574   0.304   1.397   1.763 -1.3153 -0.8355 -2.3048
  144SOL    HW2  575   0.188   1.327   1.827 -3.1038 -1.7139 -1.4425
  144SOL     MW  576   0.239   1.343   1.761 -0.7202 -0.3905 -0.4708
  145SOL     OW  577   0.233   0.482   1.192  0.6772 -0.2012  0.3098
  145SOL    HW1  578   0.266   0.396   1.218 -0.3201 -0.2009 -1.8207
  145SOL    HW2  579   0.183   0.463   1.110 -0.2734 -2.0491 -0.0699
  145SOL     MW  580   0.230   0.468   1.185  0.4202 -0.4450 -0.0214
  146SOL     OW  581   0.803   1.966   1.546  0.1385 -0.0293 -0.7687
  146SOL    HW1  582   0.841   1.991   1.459  1.0784 -0.5060  1.0144
  146SOL    HW2  583   0.747   1.889   1.529  1.1979 -0.9778 -0.5323
  146SOL     MW  584   0.801   1.959   1.532  0.4023 -0.2174 -0.5022
  147SOL     OW  585   0.388   0.517   3.003 -0.0655  0.3496 -0.3588
  147SOL    HW1  586   0.306   0.532   3.058 -0.2891 -1.6035  1.2673
  147SOL    HW2  587   0.378   0.589   2.936 -0.5257  0.9575  0.5809
  147SOL     MW  588   0.376   0.529   3.001 -0.1557  0.1721 -0.0203
  148SOL     OW  589   0.049   0.913   1.269  0.0257  0.5247 -0.1143
  148SOL    HW1  590   0.140   0.904   1.299  2.2568  0.8577  0.5123
  148SOL    HW2  591   0.031   1.005   1.287  2.4635 -1.0976  0.0637
  148SOL     MW  592   0.059   0.924   1.275  0.6417  0.3546 -0.0081
  149SOL     OW  593   1.537   1.183   1.456  0.6980 -0.0429  0.0893
  149SOL    HW1  594   1.457   1.181   1.512 -2.3510 -1.2924  3.4854
  149SOL    HW2  595   1.564   1.276   1.439 -0.8540  1.1159 -2.1956
  149SOL     MW  596   1.530   1.195   1.462  0.0910 -0.0548  0.2359
  150SOL     OW  597   1.719   1.424   0.879 -0.6251 -0.4127  0.0011
  150SOL    HW1  598   1.785   1.355   0.899  1.6974 -0.9445 -2.7885
  150SOL    HW2  599   1.769   1.509   0.866  2.0664 -1.4900 -3.2633
  150SOL     MW  600   1.734   1.426   0.880  0.0365 -0.6250 -0.7976
  151SOL     OW  601   1.602   1.827   0.790 -0.2752 -0.2213 -0.6798
  151SOL    HW1  602   1.589   1.878   0.713  1.3201  0.7719  2.0652
  151SOL    HW2  603   1.534   1.764   0.794  0.1005 -1.8920 -0.0882
  151SOL     MW  604   1.591   1.825   0.780 -0.0152 -0.3107 -0.2395
  152SOL     OW  605   0.638   1.383   1.628  0.0371  0.3606 -0.1413
  152SOL    HW1  606   0.691   1.436   1.561  0.7707  2.2180 -0.1232
  152SOL    HW2  607   0.603   1.311   1.577  2.0714  0.1292  3.5902
  152SOL     MW  608   0.640   1.381   1.613  0.4023  0.5751  0.3534
  153SOL     OW  609   2.630   1.236   0.719  0.3507  0.3369  0.0092
  153SOL    HW1  610   2.697   1.204   0.660 -2.1970 -1.5676  2.1117
  153SOL    HW2  611   2.555   1.174   0.705  2.1695  3.1888 -0.4259
  153SOL     MW  612   2.629   1.224   0.709  0.2545  0.4619  0.2292
  154SOL     OW  613   0.156   1.799   1.783  0.4001  0.0736  0.0638
  154SOL    HW1  614   0.115   1.706   1.770  0.7980 -2.0499  0.6836
  154SOL    HW2  615   0.245   1.799   1.817 -1.1555 -1.8094  1.2294
  154SOL     MW  616   0.162   1.786   1.786  0.2474 -0.4550  0.2993
  155SOL     OW  617   1.168   0.719   0.284  0.0275  0.0101  0.1565
  155SOL    HW1  618   1.158   0.675   0.364  4.4882  2.3914 -1.4233
  155SOL    HW2  619   1.142   0.816   0.303 -0.3279  2.5208 -0.0289
  155SOL     MW  620   1.163   0.726   0.297  0.5691  0.6555 -0.0764
  156SOL     OW  621   1.578   3.088   1.112  0.3596 -0.2949 -0.4871
  156SOL    HW1  622   1.628   3.144   1.180  0.8543  1.6541  2.8766
  156SOL    HW2  623   1.602   3.001   1.139 -0.2498  0.9651  0.1176
  156SOL     MW  624   1.588   3.084   1.124  0.3444  0.1285  0.0365
  157SOL     OW  625   1.292   1.093   0.175  0.5802 -0.2120  0.5917
  157SOL    HW1  626   1.271   1.035   0.250 -1.6362 -0.4671  0.2986
  157SOL    HW2  627   1.351   1.166   0.194 -0.4775  0.1069 -0.5235
  157SOL     MW  628   1.297   1.095   0.187  0.1482 -0.2036  0.4059
  158SOL     OW  629   0.286   1.618   2.358 -0.4907 -0.3180 -0.0920
  158SOL    HW1  630   0.259   1.619   2.269 -2.1656 -3.6586  1.5303
  158SOL    HW2  631   0.243   1.674   2.420  2.9415  1.3366  0.2074
  158SOL     MW  632   0.277   1.626   2.354 -0.2588 -0.5405  0.1616
  159SOL     OW  633   1.231   1.725   0.486 -0.0097 -0.0742 -0.0969
  159SOL    HW1  634   1.178   1.652   0.448  0.4571 -0.8500 -2.1992
  159SOL    HW2  635   1.171   1.757   0.558 -0.4293 -0.0822  2.0802
  159SOL     MW  636   1.216   1.720   0.491 -0.0034 -0.1776 -0.0870
  160SOL     OW  637   0.496   1.168   1.547 -0.1958 -0.5912 -0.1481
  160SOL    HW1  638   0.468   1.112   1.616  0.4017  0.2121 -1.6993
  160SOL    HW2  639   0.574   1.124   1.509  1.1086 -0.0267 -4.6556
  160SOL     MW  640   0.503   1.155   1.551  0.0551 -0.4107 -0.9475
  161SOL     OW  641   0.504   2.288   2.672 -0.1179  0.7955 -0.4237
  161SOL    HW1  642   0.415   2.307   2.648  1.9307 -1.4115  0.8558
  161SOL    HW2  643   0.542   2.223   2.609  5.1438 -2.3301 -0.1723
  161SOL     MW  644   0.497   2.282   2.661  0.8466  0.0920 -0.2217
  162SOL     OW  645   1.071   1.801   1.888 -0.1749 -0.4976  0.6390
  162SOL    HW1  646   1.107   1.887   1.894  0.9268 -1.4139 -1.8857
  162SOL    HW2  647   0.975   1.794   1.900 -0.3196  2.6363  0.2101
  162SOL     MW  648   1.063   1.811   1.891 -0.0487 -0.2050  0.2493
  163SOL     OW  649   2.051   3.071   0.825 -0.4075  0.4580  0.4101
  163SOL    HW1  650   2.018   3.143   0.769  1.1419 -0.5204  1.8720
  163SOL    HW2  651   1.989   3.002   0.810 -0.6829  3.0518  3.1755
  163SOL     MW  652   2.039   3.071   0.815 -0.2394  0.6712  0.9678
  164SOL     OW  653   0.259   0.231   0.803  0.0868 -0.2117  0.0633
  164SOL    HW1  654   0.162   0.222   0.815  0.5614  0.6143 -2.5369
  164SOL    HW2  655   0.283   0.142   0.771  0.5674 -1.2403  0.8712
  164SOL     MW  656   0.249   0.218   0.800  0.2128 -0.2384 -0.1731
  165SOL     OW  657   1.107   1.255   0.308 -0.2111 -0.2925 -0.7194
  165SOL    HW1  658   1.124   1.254   0.406 -2.0202  1.8212  0.1066
  165SOL    HW2  659   1.138   1.181   0.264  0.5919 -2.0148 -0.1332
  165SOL     MW  660   1.113   1.245   0.315 -0.3438 -0.2408 -0.5331
  166SOL     OW  661   0.335   1.172   1.033  0.3283 -0.0375 -0.2432
  166SOL    HW1  662   0.354   1.183   1.129  1.2937 -2.6281 -0.2658
  166SOL    HW2  663   0.259   1.114   1.029 -2.6369  0.2205 -2.7181
  166SOL     MW  664   0.328   1.166   1.045  0.0644 -0.3453 -0.5727
  167SOL     OW  665   0.809   1.191   0.362  0.7958  0.5488 -0.3221
  167SOL    HW1  666   0.846   1.280   0.375 -0.0543  4.7662  0.7073
  167SOL    HW2  667   0.839   1.157   0.277  1.2816 -2.0148  0.3226
  167SOL     MW  668   0.818   1.198   0.352  0.7477  0.7670 -0.1012
  168SOL     OW  669   1.716   1.654   3.051  0.3821  0.1334 -0.3269
  168SOL    HW1  670   1.653   1.724   3.057  0.7842 -0.5557 -2.3855
  168SOL    HW2  671   1.674   1.591   2.988  2.8281 -0.8063 -1.3348
  168SOL     MW  672   1.702   1.655   3.043  0.7579 -0.0815 -0.7315
  169SOL     OW  673   0.284   0.854   1.384 -0.0244 -0.4636  0.8033
  169SOL    HW1  674   0.261   0.764   1.401 -0.9449  3.0694  3.3256
  169SOL    HW2  675   0.308   0.900   1.463 -1.2113 -3.0910  2.9335
  169SOL     MW  676   0.284   0.848   1.397 -0.3025 -0.3441  1.4172
  170SOL     OW  677   1.052   1.567   1.484 -0.1643 -0.4555  0.3736
  170SOL    HW1  678   1.025   1.649   1.535 -1.8834 -1.8328 -0.9844
  170SOL    HW2  679   1.004   1.583   1.408 -0.1714  0.9394  1.3072
  170SOL     MW  680   1.042   1.580   1.480 -0.3920 -0.4532  0.3176
  171SOL     OW  681   0.456   1.549   0.530 -0.3458  0.4857  0.5699
  171SOL    HW1  682   0.372   1.538   0.480  1.8544  1.8352 -0.1394
  171SOL    HW2  683   0.418   1.522   0.610 -1.4716 -0.9984  1.4846
  171SOL     MW  684   0.440   1.544   0.534 -0.2040  0.4680  0.5970
  172SOL     OW  685   0.783   0.287   1.285 -0.7098 -0.2564 -0.5558
  172SOL    HW1  686   0.756   0.208   1.242  0.1983  3.1002 -4.0307
  172SOL    HW2  687   0.839   0.262   1.362 -0.7279 -0.6474  2.6861
  172SOL     MW  688   0.787   0.273   1.290 -0.5924  0.1349 -0.5865
  173SOL     OW  689   0.474   1.768   0.269 -0.1823  0.0602 -0.1181
  173SOL    HW1  690   0.513   1.682   0.258  0.7636  0.7564  2.3048
  173SOL    HW2  691   0.487   1.784   0.366 -2.2253 -1.0128  0.2132
  173SOL     MW  692   0.481   1.759   0.280 -0.3270  0.0105  0.2453
  174SOL     OW  693   1.893   0.945   1.488 -0.7541  0.0601  0.5902
  174SOL    HW1  694   1.831   0.870   1.503 -2.6864 -1.5554  1.3021
  174SOL    HW2  695   1.868   0.954   1.395 -1.1629 -0.0877 -0.9556
  174SOL     MW  696   1.881   0.936   1.478 -1.0629 -0.1726  0.4802
  175SOL     OW  697   0.593   1.510   0.244 -0.3447  0.3701  0.4697
  175SOL    HW1  698   0.585   1.473   0.329  1.2857 -1.4968 -3.3511
  175SOL    HW2  699   0.679   1.543   0.253 -1.2139 -0.5779 -1.5758
  175SOL     MW  700   0.604   1.509   0.257 -0.2443 -0.0013 -0.3043
  176SOL     OW  701   0.126   1.497   1.166 -0.4725 -0.2467 -0.5259
  176SOL    HW1  702   0.121   1.453   1.078 -1.2742 -0.9947  1.1696
  176SOL    HW2  703   0.047   1.478   1.207  0.5429  0.1827 -1.6002
  176SOL     MW  704   0.115   1.489   1.160 -0.4443 -0.2887 -0.4439
  177SOL     OW  705   0.540   0.249   1.442  0.1244 -0.3246 -0.2498
  177SOL    HW1  706   0.612   0.276   1.387 -2.6610  0.7398 -1.9269
  177SOL    HW2  707   0.516   0.330   1.486 -1.9619 -1.1080 -1.6716
  177SOL     MW  708   0.546   0.263   1.440 -0.5184 -0.2875 -0.6586
  178SOL     OW  709   0.019   0.692   2.894  0.4370  0.4925 -0.4028
  178SOL    HW1  710  -0.036   0.672   2.822  0.9993  1.8873  2.5971
  178SOL    HW2  711   0.109   0.705   2.855 -2.7599 -3.0654  1.6317
  178SOL     MW  712   0.023   0.691   2.880  0.0894  0.2071  0.2614
  179SOL     OW  713   1.587   1.465   1.406 -0.1053 -0.3575  0.2221
  179SOL    HW1  714   1.603   1.506   1.489  1.6537  1.3213  0.1519
  179SOL    HW2  715   1.650   1.500   1.346 -0.6107  2.4386  1.7769
  179SOL     MW  716   1.597   1.475   1.409  0.0601  0.2329  0.4180
  180SOL     OW  717   0.005   0.212   0.395 -0.5674 -0.2592 -0.3459
  180SOL    HW1  718  -0.075   0.229   0.338 -0.5980 -1.1792 -2.4141
  180SOL    HW2  719   0.002   0.271   0.466  1.5653  0.1016 -0.3250
  180SOL     MW  720  -0.006   0.222   0.397 -0.2901 -0.3330 -0.6161
  181SOL     OW  721   1.041   1.334   0.002 -0.5508  0.4626 -0.2025
  181SOL    HW1  722   1.071   1.422   0.016  1.2475  1.8312  0.9109
  181SOL    HW2  723   1.110   1.276  -0.029  0.8194 -1.0125 -1.2093
  181SOL     MW  724   1.054   1.338  -0.000 -0.1328  0.4485 -0.1885
  182SOL     OW  725   0.391   0.968   1.718  0.6309  0.2203  0.2750
  182SOL    HW1  726   0.314   0.912   1.712  0.8763  2.7443  0.7820
  182SOL    HW2  727   0.466   0.910   1.742 -0.4390  1.3614  0.8321
  182SOL     MW  728   0.390   0.953   1.720  0.5221  0.7039  0.4154
  183SOL     OW  729   1.530   1.730   1.240  0.4584 -0.1652 -0.2983
  183SOL    HW1  730   1.621   1.755   1.253  0.8429 -0.0865  0.5501
  183SOL    HW2  731   1.504   1.678   1.319 -0.4043 -0.3302  5.0845
  183SOL     MW  732   1.539   1.726   1.252  0.3953 -0.1766  0.5238
  184SOL     OW  733   0.855   0.636   1.722 -0.4192 -0.1069  0.1465
  184SOL    HW1  734   0.940   0.676   1.730 -0.5623  0.0587  2.7376
  184SOL    HW2  735   0.856   0.582   1.801  0.9122  1.5258  0.8264
  184SOL     MW  736   0.866   0.635   1.734 -0.2624  0.1304  0.5781
  185SOL     OW  737   1.080   0.958   1.827 -0.2322  0.5319 -0.4478
  185SOL    HW1  738   1.050   0.873   1.864 -0.1098 -2.1936  2.1635
  185SOL    HW2  739   1.125   0.996   1.907  0.0524 -1.3044  0.0537
  185SOL     MW  740   1.082   0.952   1.842 -0.1785 -0.0700 -0.0371
  186SOL     OW  741   0.266   1.637   1.525 -0.1668 -0.1834 -0.1601
  186SOL    HW1  742   0.282   1.583   1.452 -3.5657  0.1138  1.3634
  186SOL    HW2  743   0.185   1.603   1.566 -0.2782  0.0992  0.6816
  186SOL     MW  744   0.258   1.625   1.521 -0.6299 -0.1069  0.1520
  187SOL     OW  745   1.424   0.866   1.332  0.0661 -0.0456 -0.4880
  187SOL    HW1  746   1.447   0.881   1.425  1.1137 -0.1596 -1.5684
  187SOL    HW2  747   1.334   0.853   1.325 -0.9674  2.5473  0.3371
  187SOL     MW  748   1.415   0.866   1.344  0.0679  0.2815 -0.5217
  188SOL     OW  749   1.868   1.194   0.928  0.1696 -0.7405 -0.2148
  188SOL    HW1  750   1.895   1.194   1.021 -0.9563  1.6941  0.4747
  188SOL    HW2  751   1.828   1.110   0.913 -1.1358  1.2487  0.4068
  188SOL     MW  752   1.866   1.183   0.938 -0.1512 -0.1568 -0.0418
  189SOL     OW  753   0.747   0.753   0.871 -0.0440 -0.3722  0.6608
  189SOL    HW1  754   0.661   0.793   0.855  0.6062  0.3913  1.3429
  189SOL    HW2  755   0.770   0.791   0.953 -1.7308 -0.0687 -0.0457
  189SOL     MW  756   0.739   0.763   0.879 -0.1808 -0.2314  0.6576
  190SOL     OW  757   1.843   0.331   2.073 -0.0563  0.4369  0.3606
  190SOL    HW1  758   1.872   0.291   2.158  0.8797  0.1501  1.2174
  190SOL    HW2  759   1.908   0.403   2.065 -0.5665 -2.6753  2.2035
  190SOL     MW  760   1.855   0.336   2.084 -0.0001 -0.0116  0.7168
  191SOL     OW  761   1.517   1.088   1.195  0.5137  0.3412 -0.1419
  191SOL    HW1  762   1.495   1.143   1.276  0.7567 -1.8002  1.8593
  191SOL    HW2  763   1.474   1.004   1.218 -0.0974 -2.1360 -0.1754
  191SOL     MW  764   1.508   1.084   1.209  0.4652 -0.2681  0.1177
  192SOL     OW  765   0.535   2.200   2.932  0.0611 -0.4600  0.0268
  192SOL    HW1  766   0.541   2.238   2.842 -0.0503  0.0351  1.2236
  192SOL    HW2  767   0.488   2.120   2.923 -1.1801  1.1780  0.9098
  192SOL     MW  768   0.530   2.195   2.919 -0.1173 -0.1786  0.3012
  193SOL     OW  769   0.842   1.643   0.774  0.2775 -0.2844 -0.3050
  193SOL    HW1  770   0.784   1.670   0.855  0.0913 -1.5690  2.2557
  193SOL    HW2  771   0.783   1.594   0.708 -0.1768 -1.7071  0.4059
  193SOL     MW  772   0.827   1.640   0.776  0.1930 -0.6416  0.1266
  194SOL     OW  773   0.398   1.358   0.837 -0.0028  0.1539  0.7365
  194SOL    HW1  774   0.363   1.304   0.914  1.2747  1.2682 -0.3445
  194SOL    HW2  775   0.324   1.409   0.804 -1.9228 -1.0472  0.5674
  194SOL     MW  776   0.383   1.357   0.843 -0.0876  0.1425  0.5715
  195SOL     OW  777   1.218   1.147   3.012  0.1903 -0.0577 -0.1471
  195SOL    HW1  778   1.252   1.131   3.102  5.0752 -1.7636  0.1731
  195SOL    HW2  779   1.151   1.078   2.997 -0.0984  2.1235 -3.2199
  195SOL     MW  780   1.214   1.135   3.022  0.7967  0.0050 -0.5103
  196SOL     OW  781   2.276   0.964   0.540  0.5363 -0.2289  0.0236
  196SOL    HW1  782   2.323   0.957   0.459 -1.1984 -0.0726  2.3158
  196SOL    HW2  783   2.237   1.055   0.540  0.0199 -2.2171  1.3438
  196SOL     MW  784   2.277   0.975   0.530  0.2393 -0.4706  0.5002
  197SOL     OW  785   0.659   1.242   2.247  0.0853  0.1544  0.7776
  197SOL    HW1  786   0.678   1.179   2.177 -0.2013  0.4215  2.9968
  197SOL    HW2  787   0.682   1.327   2.211  2.9292  0.4528 -1.3504
  197SOL     MW  788   0.665   1.245   2.233  0.4227  0.2290  0.7897
  198SOL     OW  789   2.896   1.375   1.061  0.0913 -0.2444  0.0336
  198SOL    HW1  790   2.877   1.450   1.012 -1.4742 -0.0344  2.0038
  198SOL    HW2  791   2.830   1.304   1.031 -2.2065 -2.3997  0.4864
  198SOL     MW  792   2.884   1.376   1.051 -0.4184 -0.5011  0.3533
  199SOL     OW  793   0.659   1.191   1.837  0.4166  0.1509 -0.2523
  199SOL    HW1  794   0.561   1.187   1.882 -2.1648 -0.3821 -1.6720
  199SOL    HW2  795   0.658   1.280   1.793 -1.2348 -1.8971  3.8609
  199SOL     MW  796   0.646   1.202   1.837 -0.1419 -0.1896  0.1031
  200SOL     OW  797   1.909   2.975   1.307  0.2708  0.6432  0.2027
  200SOL    HW1  798   1.972   2.980   1.228  2.1310  1.7310  0.9532
  200SOL    HW2  799   1.870   3.065   1.320  2.8916  1.6771 -0.0181
  200SOL     MW  800   1.912   2.987   1.298  0.8621  0.9232  0.2726
  201SOL     OW  801   1.223   0.334   0.839  0.6133  0.2857 -0.4128
  201SOL    HW1  802   1.183   0.251   0.810 -1.1277  2.3543  1.0483
  201SOL    HW2  803   1.321   0.324   0.842 -0.1353 -0.7263  3.0276
  201SOL     MW  804   1.231   0.321   0.836  0.2848  0.4251  0.2339
  202SOL     OW  805   1.386   1.684   0.989 -0.1263  0.6326 -0.1750
  202SOL    HW1  806   1.416   1.601   0.951  2.6427 -0.8454 -1.5242
  202SOL    HW2  807   1.439   1.708   1.068  1.0059  0.4789 -0.6411
  202SOL     MW  808   1.397   1.676   0.995  0.3884  0.4173 -0.4145
  203SOL     OW  809   3.075   0.442   1.320 -0.6865  0.0876 -0.1481
  203SOL    HW1  810   3.090   0.342   1.322  2.4142 -1.2458 -1.8478
  203SOL    HW2  811   3.144   0.463   1.254 -1.4589 -2.3749 -2.0342
  203SOL     MW  812   3.086   0.432   1.312 -0.3793 -0.4132 -0.6212
  204SOL     OW  813   1.016   1.817   0.629 -0.4828  0.4717 -0.1593
  204SOL    HW1  814   0.966   1.769   0.697 -2.3119  0.6808  1.8824
  204SOL    HW2  815   0.955   1.826   0.556 -1.5260 -1.1032  0.5379
  204SOL     MW  816   1.001   1.812   0.629 -0.8618  0.2915  0.2021
  205SOL     OW  817   1.364   2.995   1.377 -0.3051 -0.2410  0.1289
  205SOL    HW1  818   1.392   3.002   1.285  1.2249  3.9846 -1.2898
  205SOL    HW2  819   1.304   3.065   1.397  1.0122  0.4962 -0.2005
  205SOL     MW  820   1.360   3.005   1.368  0.0706  0.4138 -0.1017
  206SOL     OW  821   0.324   2.872   1.394 -0.1186  0.0901  0.3374
  206SOL    HW1  822   0.320   2.905   1.303 -0.2032 -1.1680  0.0978
  206SOL    HW2  823   0.411   2.885   1.429  0.5785 -0.3054  2.2292
  206SOL     MW  824   0.335   2.878   1.386 -0.0378 -0.1281  0.5554
  207SOL     OW  825   0.826   1.700   0.223 -0.1485 -0.4285  0.0624
  207SOL    HW1  826   0.899   1.748   0.182  0.4372 -0.0173  1.6423
  207SOL    HW2  827   0.857   1.639   0.289 -0.7440 -0.6813 -0.1494
  207SOL     MW  828   0.839   1.698   0.227 -0.1498 -0.4076  0.2429
  208SOL     OW  829   0.746   1.499   1.366 -0.8855 -1.1106 -0.0800
  208SOL    HW1  830   0.804   1.544   1.297 -0.2824  3.9936  0.3996
  208SOL    HW2  831   0.695   1.441   1.317  2.7774  2.3411 -0.6572
  208SOL     MW  832   0.747   1.497   1.350 -0.3226  0.0182 -0.0929
  209SOL     OW  833   1.604   0.470   2.806  0.6499 -0.5532 -0.1068
  209SOL    HW1  834   1.665   0.539   2.795  0.7859 -1.8668 -2.8607
  209SOL    HW2  835   1.652   0.399   2.848 -0.8427  1.6931  1.2416
  209SOL     MW  836   1.619   0.470   2.810  0.4709 -0.4301 -0.2923
  210SOL     OW  837   1.445   1.411   0.906  0.1422 -0.5144  0.1891
  210SOL    HW1  838   1.545   1.417   0.903  1.4117  0.5660  0.3081
  210SOL    HW2  839   1.412   1.424   0.815 -1.8501  0.9010  0.0065
  210SOL     MW  840   1.454   1.413   0.893  0.0468 -0.1851  0.1807
  211SOL     OW  841   1.757   0.289   0.865  0.3904 -1.3194 -0.0386
  211SOL    HW1  842   1.760   0.334   0.785 -0.7149 -2.9657  2.7763
  211SOL    HW2  843   1.829   0.339   0.906  2.5010  1.1902 -0.1336
  211SOL     MW  844   1.767   0.302   0.860  0.5230 -1.2055  0.3203
  212SOL     OW  845   0.404   1.191   0.220 -0.1674  0.1401 -0.0300
  212SOL    HW1  846   0.354   1.113   0.233 -0.9453  0.3596  0.3260
  212SOL    HW2  847   0.476   1.169   0.165  5.4565 -0.6739 -0.5297
  212SOL     MW  848   0.406   1.178   0.214  0.4720  0.0617 -0.0490
  213SOL     OW  849   0.418   1.786   3.076  0.5699 -0.3509  0.0840
  213SOL    HW1  850   0.414   1.817   3.167 -0.6536 -3.7393  0.0599
  213SOL    HW2  851   0.490   1.834   3.027  1.2170 -0.1839  0.3045
  213SOL     MW  852   0.427   1.797   3.082  0.4938 -0.7759  0.1099
  214SOL     OW  853   0.594   0.327   2.141  0.1555 -0.4880  0.3580
  214SOL    HW1  854   0.523   0.393   2.154 -1.1277  1.0667  1.7058
  214SOL    HW2  855   0.613   0.307   2.045 -0.9361  1.0477  1.9937
  214SOL     MW  856   0.587   0.333   2.130 -0.1578 -0.0802  0.7516
  215SOL     OW  857   0.610   0.590   2.517  0.7963  0.2233  0.4148
  215SOL    HW1  858   0.553   0.634   2.455 -0.4065  0.4438 -1.1728
  215SOL    HW2  859   0.576   0.510   2.563  0.5831 -0.1312  3.6069
  215SOL     MW  860   0.598   0.585   2.515  0.6094  0.2056  0.6265
  216SOL     OW  861   2.908   3.052   2.807 -0.8660 -0.1144 -0.0428
  216SOL    HW1  862   2.816   3.038   2.781  2.0821 -0.6472 -0.7912
  216SOL    HW2  863   2.927   3.135   2.769 -2.3258 -0.6427  0.6049
  216SOL     MW  864   2.898   3.061   2.799 -0.6696 -0.2544 -0.0561
  217SOL     OW  865   0.922   1.102   0.130  0.7416  0.1186 -0.5090
  217SOL    HW1  866   0.933   1.053   0.049  1.0374 -1.5144 -0.8486
  217SOL    HW2  867   0.962   1.191   0.108 -2.3444  1.6332  2.1555
  217SOL     MW  868   0.928   1.107   0.116  0.3735  0.1029 -0.2023
  218SOL     OW  869   0.822   1.431   2.596 -0.2892  0.4912 -0.0222
  218SOL    HW1  870   0.781   1.367   2.658 -0.3702 -0.8681 -0.8438
  218SOL    HW2  871   0.911   1.455   2.638  0.3532  1.2890  1.1927
  218SOL     MW  872   0.828   1.426   2.609 -0.2151  0.4171  0.0297
  219SOL     OW  873   1.061   0.423   2.492 -0.5979 -0.2587  0.0863
  219SOL    HW1  874   1.126   0.436   2.417 -1.2418 -1.8510 -3.2460
  219SOL    HW2  875   1.009   0.501   2.499 -1.0880  0.0836 -1.4483
  219SOL     MW  876   1.063   0.435   2.483 -0.7475 -0.4236 -0.5558
  220SOL     OW  877   1.642   0.493   2.183 -0.0524  0.2324  0.1038
  220SOL    HW1  878   1.591   0.547   2.128  0.3464 -1.8878 -0.2631
  220SOL    HW2  879   1.681   0.421   2.134  0.9183 -0.9782  0.3745
  220SOL     MW  880   1.641   0.491   2.169  0.1283 -0.2071  0.0911
  221SOL     OW  881   0.330   1.374   2.934 -0.3300  0.0293 -0.4034
  221SOL    HW1  882   0.380   1.295   2.933 -2.4250  0.9710  0.6593
  221SOL    HW2  883   0.383   1.445   2.894  1.7565  1.8339 -0.8407
  221SOL     MW  884   0.343   1.373   2.929 -0.3311  0.3917 -0.3209
  222SOL     OW  885   0.505   0.913   2.698  0.0354  0.4140 -0.5009
  222SOL    HW1  886   0.431   0.910   2.637  0.6204 -0.6664 -0.3798
  222SOL    HW2  887   0.533   0.824   2.718 -0.4037  0.0277 -1.4749
  222SOL     MW  888   0.499   0.901   2.693  0.0547  0.2204 -0.6134
  223SOL     OW  889   3.029   2.061   2.565 -0.2370  0.1547  0.0658
  223SOL    HW1  890   3.039   2.015   2.650  0.6315 -3.1951 -1.8521
  223SOL    HW2  891   3.088   2.138   2.557  1.7353  0.5151 -0.7689
  223SOL     MW  892   3.038   2.065   2.575  0.1378 -0.2397 -0.2974
  224SOL     OW  893   1.440   0.560   2.428 -0.0523 -0.6819  0.4173
  224SOL    HW1  894   1.523   0.523   2.470  2.1231  0.1523  0.1831
  224SOL    HW2  895   1.435   0.653   2.457 -1.5647  0.6728 -1.3112
  224SOL     MW  896   1.451   0.567   2.437  0.0351 -0.3931  0.1584
  225SOL     OW  897   2.908   1.492   2.175  0.0541 -0.3178 -0.0220
  225SOL    HW1  898   2.957   1.571   2.154  0.7060 -3.1119 -1.1413
  225SOL    HW2  899   2.834   1.526   2.230 -1.1120  0.3839  0.6623
  225SOL     MW  900   2.905   1.507   2.180 -0.0138 -0.5939 -0.0794
  226SOL     OW  901   0.436   1.547   2.757 -0.2831 -0.3288  0.2308
  226SOL    HW1  902   0.515   1.557   2.707 -1.0448  1.6740 -0.4758
  226SOL    HW2  903   0.383   1.619   2.724 -0.0056  0.9478 -0.2338
  226SOL     MW  904   0.439   1.558   2.746 -0.3470  0.1038  0.0763
  227SOL     OW  905   0.500   1.154   2.883 -0.2733  0.1349  0.6460
  227SOL    HW1  906   0.582   1.195   2.849  0.9685  2.0383  0.0671
  227SOL    HW2  907   0.497   1.076   2.819  0.1386 -0.9684 -0.7372
  227SOL     MW  908   0.510   1.149   2.870 -0.0551  0.2405  0.3871
  228SOL     OW  909   0.790   1.129   2.042  0.2444  0.0538  0.5392
  228SOL    HW1  910   0.746   1.152   1.957  1.2740  0.9959  1.2243
  228SOL    HW2  911   0.855   1.200   2.050 -2.5012  0.7811 -0.0256
  228SOL     MW  912   0.793   1.141   2.032  0.0180  0.2740  0.5551
  229SOL     OW  913   0.132   0.574   0.038 -0.4817 -0.0202 -0.0731
  229SOL    HW1  914   0.069   0.573  -0.038  0.0581  0.9862  0.9104
  229SOL    HW2  915   0.138   0.484   0.075 -3.4311 -1.9423  0.3763
  229SOL     MW  916   0.125   0.562   0.033 -0.7996 -0.1410  0.1160
  230SOL     OW  917   1.724   1.388   2.193 -0.7112 -0.4844  0.3717
  230SOL    HW1  918   1.664   1.379   2.270 -0.0434  0.2107  3.3319
  230SOL    HW2  919   1.784   1.326   2.225 -2.5416 -2.1597 -0.3220
  230SOL     MW  920   1.724   1.379   2.207 -0.8646 -0.6137  0.6708
  231SOL     OW  921   2.732   1.215   2.184  0.1957  0.2081 -0.4681
  231SOL    HW1  922   2.773   1.298   2.159  1.3372 -0.2904  0.0670
  231SOL    HW2  923   2.642   1.222   2.151  1.1461 -2.4026 -0.1142
  231SOL     MW  924   2.726   1.227   2.177  0.4717 -0.2022 -0.3508
  232SOL     OW  925   2.279   0.867   2.001 -0.2147 -0.7468 -0.2345
  232SOL    HW1  926   2.195   0.919   1.995 -0.9166  1.3456 -1.5433
  232SOL    HW2  927   2.265   0.801   2.068  1.5569 -1.4797 -2.0932
  232SOL     MW  928   2.266   0.865   2.009 -0.0736 -0.5674 -0.6524
  233SOL     OW  929   2.108   0.459   2.020  0.0919 -0.0188 -0.1028
  233SOL    HW1  930   2.164   0.392   1.997 -1.5780 -2.9924 -2.1490
  233SOL    HW2  931   2.106   0.467   2.117 -0.9695  1.9547  0.6153
  233SOL     MW  932   2.115   0.451   2.030 -0.2685 -0.1508 -0.2780
  234SOL     OW  933   0.251   1.039   2.625 -0.4721  0.2499 -0.3602
  234SOL    HW1  934   0.178   1.062   2.569  0.2200 -1.8643 -0.0527
  234SOL    HW2  935   0.301   1.115   2.636 -0.1293 -2.8321  2.1579
  234SOL     MW  936   0.248   1.052   2.619 -0.3356 -0.4357  0.0126
  235SOL     OW  937   1.140   0.055   2.812  0.6192  0.0373 -0.3521
  235SOL    HW1  938   1.141   0.055   2.912  2.3148  1.6006  1.0923
  235SOL    HW2  939   1.105   0.139   2.779  1.2994 -1.3649 -0.5198
  235SOL     MW  940   1.136   0.066   2.821  0.9327  0.0585 -0.1837
  236SOL     OW  941   2.977   0.621   0.168  0.2693 -0.1387  0.4322
  236SOL    HW1  942   2.990   0.662   0.258  1.0000  1.3711  1.4190
  236SOL    HW2  943   3.043   0.668   0.116 -0.9455 -2.2444  0.9974
  236SOL     MW  944   2.988   0.633   0.173  0.2055 -0.2173  0.6370
  237SOL     OW  945   1.930   1.127   2.147 -0.1106 -0.2907  0.2576
  237SOL    HW1  946   1.872   1.082   2.093  0.3077  4.1944 -0.1007
  237SOL    HW2  947   2.010   1.103   2.113 -0.9707  4.9032  0.5427
  237SOL     MW  948   1.933   1.118   2.135 -0.1689  0.9863  0.2480
  238SOL     OW  949   1.120   1.695   2.933  1.0392  0.0293  0.8802
  238SOL    HW1  950   1.094   1.602   2.901 -1.7735  0.5809  2.2298
  238SOL    HW2  951   1.207   1.687   2.966  0.0477 -1.1125  0.5775
  238SOL     MW  952   1.128   1.682   2.933  0.5373 -0.0485  1.0183
  239SOL     OW  953   1.198   1.296   2.398  0.5912  0.2474  0.1248
  239SOL    HW1  954   1.106   1.313   2.395 -0.3701  1.7258  0.4041
  239SOL    HW2  955   1.214   1.280   2.491  2.1594  0.0045 -1.4310
  239SOL     MW  956   1.188   1.296   2.410  0.6713  0.4104 -0.0436
  240SOL     OW  957   0.599   0.856   2.298 -0.1191  0.1931 -0.9349
  240SOL    HW1  958   0.646   0.889   2.381  0.6844  0.4716 -1.1025
  240SOL    HW2  959   0.659   0.846   2.226 -2.2237 -0.4559 -1.6078
  240SOL     MW  960   0.613   0.859   2.299 -0.2908  0.1443 -1.0458
  241SOL     OW  961   0.657   0.451   3.097 -0.5994  0.1281 -0.2608
  241SOL    HW1  962   0.697   0.527   3.150  1.4521 -0.5500  1.4093
  241SOL    HW2  963   0.570   0.480   3.070 -1.8762 -1.0216 -2.2786
  241SOL     MW  964   0.651   0.465   3.100 -0.4972 -0.1131 -0.3067
  242SOL     OW  965   1.486   1.620   2.292  0.0422  0.4429  0.3264
  242SOL    HW1  966   1.431   1.693   2.321  1.1253  0.2391 -1.8651
  242SOL    HW2  967   1.428   1.574   2.231  0.0736  0.4433 -0.9532
  242SOL     MW  968   1.471   1.623   2.288  0.1892  0.4160 -0.1315
  243SOL     OW  969   0.958   0.178   2.465 -0.2432 -0.0571  0.0320
  243SOL    HW1  970   1.033   0.130   2.428 -0.8061  2.2831 -0.6765
  243SOL    HW2  971   0.997   0.259   2.488  1.2543 -3.0324 -0.6104
  243SOL     MW  972   0.973   0.182   2.463 -0.1199 -0.1409 -0.1462
  244SOL     OW  973   0.098   0.734   2.341 -0.2448 -0.7885 -0.9505
  244SOL    HW1  974   0.072   0.825   2.346  0.2605  1.4173 -2.5774
  244SOL    HW2  975   0.191   0.741   2.337  3.1145 -1.2555 -0.4726
  244SOL     MW  976   0.107   0.747   2.341  0.2651 -0.5591 -1.1021
  245SOL     OW  977   1.210   0.108   2.386  0.2745 -0.0930 -0.2121
  245SOL    HW1  978   1.275   0.084   2.319  2.0572  0.1944 -0.7568
  245SOL    HW2  979   1.227   0.059   2.462 -3.4367  1.0519 -1.0948
  245SOL     MW  980   1.221   0.098   2.387  0.0201  0.0960 -0.4004
  246SOL     OW  981   1.178   1.052   2.117  0.8977 -0.6397  0.7929
  246SOL    HW1  982   1.106   1.022   2.169 -0.5762 -2.1315 -2.6310
  246SOL    HW2  983   1.256   1.013   2.158 -0.6737 -2.3530  1.4878
  246SOL     MW  984   1.179   1.043   2.129  0.4959 -1.0626  0.4328
  247SOL     OW  985   0.772   0.656   0.157  0.5368  0.1173  0.3098
  247SOL    HW1  986   0.748   0.755   0.163 -1.3646  0.1481  0.5999
  247SOL    HW2  987   0.869   0.651   0.140 -2.7417 -0.1301  1.1023
  247SOL     MW  988   0.782   0.669   0.156 -0.1466  0.0887  0.4527
  248SOL     OW  989   0.364   1.300   2.599 -0.0905 -0.3717  0.1270
  248SOL    HW1  990   0.359   1.320   2.505  0.9054 -0.6232  0.5645
  248SOL    HW2  991   0.370   1.384   2.646 -0.0284  0.0843  1.7233
  248SOL     MW  992   0.364   1.314   2.593  0.0491 -0.3447  0.3953
  249SOL     OW  993   3.031   1.855   2.786  0.1437 -0.2835 -0.0396
  249SOL    HW1  994   2.971   1.815   2.851 -0.4937  0.4811  2.7281
  249SOL    HW2  995   3.106   1.843   2.839  0.1534  1.9979 -0.4272
  249SOL     MW  996   3.033   1.848   2.801  0.0609  0.1184  0.2744
  250SOL     OW  997   2.309   0.703   2.244  0.5365  0.2817  0.2211
  250SOL    HW1  998   2.250   0.627   2.269  0.8594 -1.2060  4.4533
  250SOL    HW2  999   2.291   0.768   2.311 -2.7055  0.4548  4.1415
  250SOL     MW 1000   2.298   0.701   2.256  0.1514  0.1082  1.2967
  251SOL     OW 1001   0.125   0.879   1.959 -0.3277 -0.6828 -0.0378
  251SOL    HW1 1002   0.075   0.802   1.977  0.9208  2.0453 -3.6687
  251SOL    HW2 1003   0.100   0.896   1.865  0.9254 -1.8987  0.2841
  251SOL     MW 1004   0.115   0.871   1.949  0.0023 -0.4833 -0.4744
  252SOL     OW 1005   1.747   1.005   2.907  0.6408 -0.5068 -0.4099
  252SOL    HW1 1006   1.740   1.069   2.980 -1.6175 -2.0149  0.2414
  252SOL    HW2 1007   1.825   1.024   2.847  0.8198 -1.1079  1.9139
  252SOL     MW 1008   1.756   1.016   2.908  0.3665 -0.7851 -0.0174
  253SOL     OW 1009   1.113   1.674   2.556 -0.5111 -0.0258 -0.5873
  253SOL    HW1 1010   1.078   1.620   2.485  0.5218 -1.2009 -0.2721
  253SOL    HW2 1011   1.048   1.746   2.576  3.3300 -1.0590 -1.0420
  253SOL     MW 1012   1.100   1.677   2.549  0.1320 -0.3172 -0.6057
  254SOL     OW 1013   0.965   0.987   2.266 -0.4703 -0.9509 -0.2543
  254SOL    HW1 1014   0.918   0.919   2.224  0.0588  2.3297 -0.7042
  254SOL    HW2 1015   0.901   1.057   2.285  0.7858  0.1170  1.4611
  254SOL     MW 1016   0.950   0.987   2.263 -0.2348 -0.3771 -0.0873
  255SOL     OW 1017   0.867   2.434   2.143  0.1196  0.2291 -0.5269
  255SOL    HW1 1018   0.777   2.393   2.127  2.0798 -1.5386  0.5334
  255SOL    HW2 1019   0.932   2.362   2.174 -0.5212 -0.0876  1.8154
  255SOL     MW 1020   0.864   2.419   2.145  0.2937 -0.0459 -0.0779
  256SOL     OW 1021   1.318   2.788   3.071 -0.1644 -0.3533  0.2390
  256SOL    HW1 1022   1.361   2.719   3.120 -1.6195 -2.0304  0.7297
  256SOL    HW2 1023   1.377   2.806   2.992 -1.1149  3.1378 -0.5041
  256SOL     MW 1024   1.332   2.781   3.067 -0.4818 -0.1140  0.2057
  257SOL     OW 1025   0.103   1.952   0.059 -0.1841  0.1508 -0.3938
  257SOL    HW1 1026   0.135   1.889   0.130 -2.4937 -1.2100  0.2242
  257SOL    HW2 1027   0.131   1.898  -0.019  1.5140 -1.2806  1.5752
  257SOL     MW 1028   0.111   1.936   0.058 -0.2648 -0.2176 -0.0525
  258SOL     OW 1029   0.716   0.960   2.527 -0.0639 -0.1045  0.5099
  258SOL    HW1 1030   0.732   1.058   2.514  2.9091 -2.0243  0.3424
  258SOL    HW2 1031   0.636   0.957   2.573  0.9447 -1.6857 -0.2820
  258SOL     MW 1032   0.707   0.972   2.531  0.4615 -0.5664  0.3833
  259SOL     OW 1033   0.811   0.448   2.259  0.1585  0.5121 -0.1046
  259SOL    HW1 1034   0.726   0.421   2.229  0.7782  1.0546  0.4242
  259SOL    HW2 1035   0.860   0.366   2.282  1.6019  0.1562  0.1132
  259SOL     MW 1036   0.806   0.434   2.258  0.4307  0.5367 -0.0061
  260SOL     OW 1037   0.663   0.094   1.655  0.2393  0.2866  0.5976
  260SOL    HW1 1038   0.590   0.127   1.608 -1.6254  0.8137  0.6395
  260SOL    HW2 1039   0.737   0.115   1.599  2.7975  1.0147  0.7032
  260SOL     MW 1040   0.663   0.101   1.641  0.3308  0.4522  0.6170
  261SOL     OW 1041   1.018   0.731   2.023  0.4462  0.5409  0.0160
  261SOL    HW1 1042   1.079   0.728   2.098  0.9008  4.0882  0.7005
  261SOL    HW2 1043   1.000   0.635   2.011  0.9012 -2.3442  0.4847
  261SOL     MW 1044   1.024   0.718   2.031  0.5662  0.6283  0.1681
  262SOL     OW 1045   1.133   0.334   0.151 -0.4015  0.4038  0.0147
  262SOL    HW1 1046   1.222   0.356   0.120 -1.4440 -0.4389 -0.1749
  262SOL    HW2 1047   1.109   0.278   0.078 -0.8499  1.0359 -1.5803
  262SOL     MW 1048   1.141   0.329   0.137 -0.5982  0.3760 -0.2208
  263SOL     OW 1049   0.361   0.030   2.452  0.1847  0.3819 -0.1203
  263SOL    HW1 1050   0.297   0.093   2.486  0.8916  1.9893 -0.6715
  263SOL    HW2 1051   0.403   0.078   2.371  1.6311  0.7641 -1.3791
  263SOL     MW 1052   0.358   0.044   2.446  0.4688  0.6444 -0.3591
  264SOL     OW 1053   1.542   1.482   1.988  0.0898  0.1507  0.3040
  264SOL    HW1 1054   1.472   1.420   1.976  0.9357 -0.7218 -1.5932
  264SOL    HW2 1055   1.601   1.440   2.053 -2.3335  4.2192  0.8020
  264SOL     MW 1056   1.540   1.468   1.995 -0.1183  0.5724  0.1194
  265SOL     OW 1057   0.700   2.778   2.320 -0.3255  0.0514 -0.4215
  265SOL    HW1 1058   0.792   2.749   2.303  1.6944 -1.5506  1.8344
  265SOL    HW2 1059   0.678   2.779   2.414 -2.1350  0.9691  0.5258
  265SOL     MW 1060   0.709   2.774   2.330 -0.2977 -0.0389  0.0011
  266SOL     OW 1061   0.795   0.853   2.098  0.2472 -0.0885 -0.4867
  266SOL    HW1 1062   0.793   0.941   2.060 -0.4485 -2.0265 -1.0129
  266SOL    HW2 1063   0.873   0.806   2.057 -0.2309 -0.2792  0.7482
  266SOL     MW 1064   0.805   0.858   2.088  0.0923 -0.3694 -0.3932
  267SOL     OW 1065   1.334   1.759   2.700 -0.4624  0.4851 -0.4799
  267SOL    HW1 1066   1.380   1.685   2.662 -0.9703  0.7428  0.1099
  267SOL    HW2 1067   1.243   1.740   2.671  2.1710 -0.4673  0.3040
  267SOL     MW 1068   1.328   1.747   2.692 -0.1819  0.3934 -0.2987
  268SOL     OW 1069   0.088   0.880   1.690 -0.1127 -0.1466  0.4958
  268SOL    HW1 1070   0.004   0.921   1.720 -0.0090 -0.4838 -0.4560
  268SOL    HW2 1071   0.048   0.819   1.621 -2.2839 -0.0364 -1.6688
  268SOL     MW 1072   0.072   0.878   1.685 -0.3855 -0.1766  0.0846
  269SOL     OW 1073   1.313   1.800   2.391 -0.3024 -0.0444  0.1873
  269SOL    HW1 1074   1.374   1.830   2.458 -1.1979 -0.1036  0.7121
  269SOL    HW2 1075   1.240   1.776   2.444 -3.4669  0.5378 -4.0243
  269SOL     MW 1076   1.311   1.801   2.407 -0.8381  0.0246 -0.2991
  270SOL     OW 1077   1.111   0.479   1.525  0.1051 -0.2524 -0.4706
  270SOL    HW1 1078   1.058   0.424   1.581 -0.3781 -0.4716 -0.3903
  270SOL    HW2 1079   1.197   0.437   1.524 -3.5511 -0.6129 -1.3953
  270SOL     MW 1080   1.116   0.466   1.532 -0.4410 -0.3289 -0.5820
  271SOL     OW 1081   0.710   0.107   2.539 -0.0230 -0.0999 -0.2292
  271SOL    HW1 1082   0.734   0.062   2.618 -2.5313 -1.0702 -0.2596
  271SOL    HW2 1083   0.795   0.135   2.498 -1.7702  1.6298  0.2227
  271SOL     MW 1084   0.724   0.105   2.544 -0.5845  0.0003 -0.1736
  272SOL     OW 1085   1.474   2.791   2.846  0.0610 -0.0947  0.1322
  272SOL    HW1 1086   1.421   2.795   2.761 -0.5971 -0.6376 -4.6897
  272SOL    HW2 1087   1.528   2.871   2.851 -1.5123 -0.9236 -1.6287
  272SOL     MW 1088   1.474   2.802   2.835 -0.2334 -0.2757 -0.7363
  273SOL     OW 1089   1.422   0.802   2.843 -0.0279  0.5018  0.2602
  273SOL    HW1 1090   1.506   0.766   2.866  0.0294 -0.0428  0.0089
  273SOL    HW2 1091   1.437   0.895   2.833 -3.3125  0.7787  1.4005
  273SOL     MW 1092   1.435   0.809   2.845 -0.4537  0.4665  0.3775
  274SOL     OW 1093   1.428   0.712   0.169  0.5799  1.1935  0.1700
  274SOL    HW1 1094   1.470   0.624   0.172 -2.1753  1.3374 -0.3935
  274SOL    HW2 1095   1.347   0.709   0.232  0.8379  3.1963  0.6561
  274SOL     MW 1096   1.423   0.700   0.178  0.2504  1.4768  0.1598
  275SOL     OW 1097   1.902   0.540   1.711  0.4090 -0.5254 -0.0993
  275SOL    HW1 1098   1.947   0.570   1.789 -0.0186 -1.1198  2.6973
  275SOL    HW2 1099   1.878   0.447   1.713 -0.6776 -0.1781 -2.2765
  275SOL     MW 1100   1.905   0.532   1.721  0.2092 -0.5580 -0.0176
  276SOL     OW 1101   0.440   1.157   1.953 -0.1720 -0.0953  0.1455
  276SOL    HW1 1102   0.433   1.067   1.978  0.3632  1.0732 -0.8428
  276SOL    HW2 1103   0.373   1.199   2.010 -1.3031 -1.2456  0.4366
  276SOL     MW 1104   0.430   1.151   1.964 -0.2506 -0.0929  0.0535
  277SOL     OW 1105   2.001   1.165   2.437  0.3183 -0.0620 -0.0846
  277SOL    HW1 1106   2.055   1.227   2.488  2.2602  1.2707 -0.6669
  277SOL    HW2 1107   1.951   1.212   2.375 -0.8882 -0.3588 -0.7924
  277SOL     MW 1108   2.001   1.179   2.436  0.4153  0.0747 -0.2548
  278SOL     OW 1109   1.471   0.641   1.609  0.6900  0.5858  0.0083
  278SOL    HW1 1110   1.473   0.623   1.712 -0.9324 -0.0503  1.7582
  278SOL    HW2 1111   1.560   0.673   1.588  0.3120  1.5284 -0.3981
  278SOL     MW 1112   1.483   0.643   1.620  0.4261  0.6262  0.1855
  279SOL     OW 1113   0.504   0.076   2.229 -0.6367  0.2635  0.2023
  279SOL    HW1 1114   0.576   0.007   2.254 -1.0383  2.2227  3.9008
  279SOL    HW2 1115   0.545   0.158   2.203  1.6176 -0.8882  0.7363
  279SOL     MW 1116   0.519   0.078   2.229 -0.3923  0.3701  0.7607
  280SOL     OW 1117   1.447   0.998   2.249  0.5037  0.2426 -0.1101
  280SOL    HW1 1118   1.537   0.992   2.214  0.6227  3.1707 -0.2524
  280SOL    HW2 1119   1.464   0.945   2.326  0.3014  0.2966  1.0388
  280SOL     MW 1120   1.461   0.990   2.255  0.4927  0.6361  0.0227
  281SOL     OW 1121   1.383   1.078   2.797 -0.1951  0.2236  0.6755
  281SOL    HW1 1122   1.446   1.147   2.786  1.1416  0.2760  1.7760
  281SOL    HW2 1123   1.323   1.097   2.866  0.8417  1.0527 -0.2610
  281SOL     MW 1124   1.384   1.089   2.805  0.1180  0.3399  0.6972
  282SOL     OW 1125   1.068   1.311   1.618  0.1016 -0.2021  0.0881
  282SOL    HW1 1126   1.031   1.393   1.605 -0.1153  0.4377  0.5980
  282SOL    HW2 1127   0.995   1.251   1.635  0.1337 -1.9486 -2.0061
  282SOL     MW 1128   1.054   1.314   1.619  0.0772 -0.3481 -0.1209
  283SOL     OW 1129   0.780   1.303   3.017 -0.8097  0.0365  0.6611
  283SOL    HW1 1130   0.865   1.336   3.054 -1.5696  0.0111  1.7236
  283SOL    HW2 1131   0.709   1.355   3.048  1.1761  0.1851  1.1294
  283SOL     MW 1132   0.782   1.314   3.026 -0.6480  0.0527  0.8631
  284SOL     OW 1133   0.376   0.712   2.357 -0.1268  0.2119 -0.1395
  284SOL    HW1 1134   0.430   0.794   2.340 -1.5454  1.5241 -0.7728
  284SOL    HW2 1135   0.385   0.656   2.281 -0.7020 -1.5737  0.6221
  284SOL     MW 1136   0.384   0.716   2.345 -0.3898  0.1495 -0.1226
  285SOL     OW 1137   0.880   0.921   2.769  0.3946  0.0678 -0.0451
  285SOL    HW1 1138   0.908   0.933   2.676 -2.2888  0.2979  0.4324
  285SOL    HW2 1139   0.798   0.858   2.762 -2.0060  0.0266 -1.8992
  285SOL     MW 1140   0.873   0.914   2.755 -0.2762  0.0927 -0.2267
  286SOL     OW 1141   1.055   1.502   2.741 -0.0174  0.1038 -0.0958
  286SOL    HW1 1142   1.118   1.432   2.735 -0.4558 -1.4573 -0.2014
  286SOL    HW2 1143   1.084   1.571   2.672  0.3744 -2.0642  2.1161
  286SOL     MW 1144   1.067   1.502   2.731 -0.0235 -0.3882  0.1821
  287SOL     OW 1145   1.099   0.965   0.331 -0.1137  0.1335 -0.0029
  287SOL    HW1 1146   1.038   0.967   0.403  1.6656  0.3499  0.8608
  287SOL    HW2 1147   1.052   0.992   0.250 -1.3312 -2.1526 -0.1428
  287SOL     MW 1148   1.084   0.969   0.330 -0.0396 -0.1396  0.0926
  288SOL     OW 1149   1.501   0.723   2.087 -0.2533 -0.0897  0.0955
  288SOL    HW1 1150   1.441   0.750   2.154  2.9512 -2.6389 -2.9659
  288SOL    HW2 1151   1.559   0.799   2.078 -1.1388  2.7613 -1.3244
  288SOL     MW 1152   1.501   0.737   2.094  0.0527 -0.0498 -0.4958
  289SOL     OW 1153   1.040   1.023   2.565  0.5811  0.3140  0.1179
  289SOL    HW1 1154   1.097   0.953   2.528  0.9024 -0.5670 -1.2534
  289SOL    HW2 1155   0.982   1.041   2.489 -2.0536 -2.1200 -3.0193
  289SOL     MW 1156   1.040   1.016   2.550  0.2759 -0.1234 -0.4770
  290SOL     OW 1157   0.698   0.659   1.474  0.4401  0.0255  0.7492
  290SOL    HW1 1158   0.760   0.618   1.415 -1.4665  0.1211  0.5006
  290SOL    HW2 1159   0.730   0.637   1.563 -0.8829 -2.0300 -2.6696
  290SOL     MW 1160   0.710   0.651   1.478  0.0139 -0.2331  0.2653
  291SOL     OW 1161   0.162   0.354   0.208  0.0518  0.4573  0.0790
  291SOL    HW1 1162   0.243   0.310   0.184  0.4949 -2.4485 -0.3488
  291SOL    HW2 1163   0.118   0.287   0.259 -1.1177  1.1875 -0.6309
  291SOL     MW 1164   0.167   0.339   0.211 -0.0440  0.1703 -0.0711
  292SOL     OW 1165   1.030   0.601   0.088  0.2169 -0.1099  0.0706
  292SOL    HW1 1166   1.077   0.662   0.147 -0.4557  1.1864 -2.5934
  292SOL    HW2 1167   1.058   0.509   0.114 -1.3636 -0.5989 -0.9224
  292SOL     MW 1168   1.040   0.597   0.100 -0.0804 -0.0034 -0.4119
  293SOL     OW 1169   0.080   0.132   2.499  0.1091  0.3864 -0.4732
  293SOL    HW1 1170   0.065   0.066   2.429 -2.6636  0.3317 -1.4938
  293SOL    HW2 1171  -0.011   0.145   2.536  1.5219  0.4463 -2.8139
  293SOL     MW 1172   0.066   0.125   2.495 -0.0704  0.3871 -0.9167
  294SOL     OW 1173   1.247   0.407   2.283  0.3448 -0.6346 -0.0349
  294SOL    HW1 1174   1.316   0.457   2.332 -1.2269 -1.9661 -1.3092
  294SOL    HW2 1175   1.246   0.312   2.300  0.7659 -1.6155 -1.0238
  294SOL     MW 1176   1.256   0.401   2.292  0.1930 -0.9397 -0.3335
  295SOL     OW 1177   0.905   0.640   2.459  0.1616 -0.5359 -0.5729
  295SOL    HW1 1178   0.854   0.579   2.402  0.9759  1.1350 -0.4882
  295SOL    HW2 1179   0.846   0.702   2.495  0.5965 -0.5597 -1.8638
  295SOL     MW 1180   0.891   0.640   2.456  0.3264 -0.3186 -0.7321
  296SOL     OW 1181   1.361   0.360   2.045 -0.4533 -0.2018  0.1558
  296SOL    HW1 1182   1.385   0.269   2.041 -0.2675 -2.5884 -0.9414
  296SOL    HW2 1183   1.327   0.385   2.131 -0.8550 -0.1290  0.1107
  296SOL     MW 1184   1.360   0.351   2.056 -0.4818 -0.5071  0.0051
  297SOL     OW 1185   1.353   0.370   1.538  0.2070  0.1093  0.0729
  297SOL    HW1 1186   1.419   0.436   1.557 -0.9204 -0.1030 -0.3665
  297SOL    HW2 1187   1.367   0.307   1.612  0.9273  1.2587 -3.0236
  297SOL     MW 1188   1.364   0.370   1.550  0.1533  0.2330 -0.3936
  298SOL     OW 1189   1.686   0.925   2.132  0.4728  0.0702 -0.0411
  298SOL    HW1 1190   1.689   0.954   2.039 -0.6915 -1.1331 -2.8279
  298SOL    HW2 1191   1.752   0.852   2.137  1.0523 -1.0148 -2.0289
  298SOL     MW 1192   1.695   0.919   2.121  0.3956 -0.2317 -0.6711
  299SOL     OW 1193   0.612   1.132   0.054 -0.4313 -0.2541 -0.4163
  299SOL    HW1 1194   0.569   1.128  -0.032  0.3722  1.7134  1.5308
  299SOL    HW2 1195   0.690   1.181   0.024  1.3615 -1.8379 -0.7085
  299SOL     MW 1196   0.616   1.138   0.039 -0.0887 -0.2035 -0.1980
  300SOL     OW 1197   1.202   1.254   2.659 -0.1468  0.2656 -0.1965
  300SOL    HW1 1198   1.137   1.198   2.625  0.7904  2.0510  1.4560
  300SOL    HW2 1199   1.267   1.195   2.692  0.8997  2.2987 -0.0988
  300SOL     MW 1200   1.202   1.239   2.659  0.1149  0.7695  0.0344
  301SOL     OW 1201   1.425   1.019   0.654 -0.1514 -0.5818 -0.4104
  301SOL    HW1 1202   1.461   1.042   0.737 -0.3471  1.1260  1.1462
  301SOL    HW2 1203   1.364   0.945   0.665 -1.2182 -2.6405 -1.8800
  301SOL     MW 1204   1.422   1.012   0.667 -0.3180 -0.6281 -0.3989
  302SOL     OW 1205   0.242   1.591   2.090  0.3141  0.1923  0.2142
  302SOL    HW1 1206   0.231   1.500   2.112 -0.8634 -1.2297 -0.0391
  302SOL    HW2 1207   0.151   1.630   2.082  1.2499  1.2550 -1.0308
  302SOL     MW 1208   0.228   1.584   2.092  0.2822  0.1449  0.0165
  303SOL     OW 1209   0.328   1.828   2.693  0.6264  0.4426  0.0765
  303SOL    HW1 1210   0.275   1.834   2.610 -0.6868 -2.1467 -2.0908
  303SOL    HW2 1211   0.268   1.863   2.763  1.1709 -0.2190 -0.0449
  303SOL     MW 1212   0.313   1.834   2.691  0.5250  0.0136 -0.2255
  304SOL     OW 1213   0.570   2.134   2.455  0.2458  0.1014  0.1735
  304SOL    HW1 1214   0.606   2.205   2.395  1.2337 -0.3507  2.1776
  304SOL    HW2 1215   0.614   2.051   2.432 -0.0697  0.7070 -1.3252
  304SOL     MW 1216   0.581   2.132   2.444  0.3345  0.1216  0.2402
  305SOL     OW 1217   1.126   0.602   0.524  0.2284 -0.2207 -0.0381
  305SOL    HW1 1218   1.042   0.559   0.510  0.6597 -0.6080  1.3303
  305SOL    HW2 1219   1.191   0.522   0.542  1.2913 -2.6951  1.9609
  305SOL     MW 1220   1.124   0.586   0.524  0.4255 -0.5983  0.4062
  306SOL     OW 1221   1.133   1.534   0.307 -0.1490  0.1747  0.1357
  306SOL    HW1 1222   1.125   1.435   0.301  0.9385  0.6838 -0.8997
  306SOL    HW2 1223   1.189   1.565   0.233  1.6477 -2.4559 -0.4117
  306SOL     MW 1224   1.139   1.525   0.297  0.2315 -0.1052 -0.0732
  307SOL     OW 1225   1.410   0.596   1.871 -0.6378  1.1114 -0.2057
  307SOL    HW1 1226   1.394   0.518   1.928 -1.4047  0.4913 -1.9345
  307SOL    HW2 1227   1.425   0.662   1.941 -0.7258 -2.2398 -0.7884
  307SOL     MW 1228   1.410   0.595   1.888 -0.7506  0.5874 -0.5106
  308SOL     OW 1229   2.255   0.584   2.710 -0.1316 -0.2735 -0.2542
  308SOL    HW1 1230   2.349   0.600   2.731  1.5358  2.7300 -0.9433
  308SOL    HW2 1231   2.216   0.671   2.699 -0.2166  0.2354 -0.6109
  308SOL     MW 1232   2.262   0.597   2.711  0.0772  0.1900 -0.3922
  309SOL     OW 1233   0.564   0.505   0.298 -0.0927 -0.6936  0.6267
  309SOL    HW1 1234   0.631   0.552   0.245 -0.3056 -2.8831 -3.6631
  309SOL    HW2 1235   0.549   0.415   0.256  3.6283 -1.2286 -3.0338
  309SOL     MW 1236   0.571   0.499   0.286  0.3702 -1.0531 -0.4222
  310SOL     OW 1237   0.409   0.548   1.832  0.2928  0.3829  0.2599
  310SOL    HW1 1238   0.426   0.528   1.739  1.1610 -0.0114  0.3536
  310SOL    HW2 1239   0.473   0.619   1.844  2.2745 -1.1378 -1.2560
  310SOL     MW 1240   0.420   0.555   1.821  0.6688  0.1302  0.0723
  311SOL     OW 1241   2.007   0.684   1.924  0.3752 -0.4463  0.2036
  311SOL    HW1 1242   1.968   0.722   2.004  1.7849 -0.4543  0.8194
  311SOL    HW2 1243   2.062   0.611   1.962  1.5858 -1.8158  1.1972
  311SOL     MW 1244   2.009   0.679   1.940  0.7209 -0.6281  0.4159
  312SOL     OW 1245   1.776   2.387   0.182  0.3734 -0.8726  0.4910
  312SOL    HW1 1246   1.816   2.391   0.272  1.2041  0.7113 -0.0280
  312SOL    HW2 1247   1.705   2.456   0.174  1.2868 -1.6684  2.0090
  312SOL     MW 1248   1.772   2.396   0.193  0.6035 -0.7686  0.6228
  313SOL     OW 1249   0.066   1.170   3.038  0.0931  0.6738 -0.4306
  313SOL    HW1 1250   0.042   1.180   3.130 -0.1124  1.7563 -1.1826
  313SOL    HW2 1251   0.042   1.250   2.993  1.0022 -1.9431 -1.1136
  313SOL     MW 1252   0.060   1.182   3.044  0.1860  0.4714 -0.6199
  314SOL     OW 1253   2.219   2.854   3.062 -0.5251  0.0294 -0.0166
  314SOL    HW1 1254   2.152   2.885   2.997  3.4779 -0.6554  0.1121
  314SOL    HW2 1255   2.262   2.927   3.091  0.9915 -3.4696  0.7869
  314SOL     MW 1256   2.216   2.868   3.057  0.2032 -0.5226  0.1064
  315SOL     OW 1257   1.507   1.860   3.031  0.0260  0.3666 -0.1560
  315SOL    HW1 1258   1.438   1.916   3.072 -0.5103  1.6777  3.4282
  315SOL    HW2 1259   1.542   1.915   2.965 -0.9181  0.5931  1.6299
  315SOL     MW 1260   1.503   1.874   3.027 -0.1693  0.5694  0.5525
  316SOL     OW 1261   1.225   0.688   2.688  0.1074 -0.2656 -0.4989
  316SOL    HW1 1262   1.293   0.723   2.742  0.2190  0.4948  3.6132
  316SOL    HW2 1263   1.178   0.636   2.751  0.4479  0.9059  1.9817
  316SOL     MW 1264   1.228   0.686   2.703  0.1670 -0.0107  0.3709
  317SOL     OW 1265   0.650   1.635   2.538  0.1186 -0.4964  0.1386
  317SOL    HW1 1266   0.706   1.557   2.552  0.6015 -0.6667 -1.0172
  317SOL    HW2 1267   0.593   1.616   2.466 -1.8453 -1.3665 -2.8176
  317SOL     MW 1268   0.650   1.623   2.530 -0.0768 -0.6337 -0.4040
  318SOL     OW 1269   1.351   0.376   2.855 -0.4371 -0.6817  0.2668
  318SOL    HW1 1270   1.290   0.453   2.838 -1.3587 -0.1205 -0.0076
  318SOL    HW2 1271   1.440   0.412   2.840 -2.8587 -0.1436 -0.0002
  318SOL     MW 1272   1.355   0.391   2.851 -0.8782 -0.5367  0.1954
  319SOL     OW 1273   0.814   0.497   2.864 -0.6765  0.5196  0.1696
  319SOL    HW1 1274   0.776   0.431   2.814  4.0161  3.0334  1.1040
  319SOL    HW2 1275   0.769   0.474   2.944 -1.6763 -1.4620  0.0009
  319SOL     MW 1276   0.803   0.485   2.868 -0.1893  0.5898  0.2707
  320SOL     OW 1277   1.008   1.301   2.049  0.0432  0.5773  0.3885
  320SOL    HW1 1278   1.076   1.249   2.091 -0.7101 -0.7480 -0.0131
  320SOL    HW2 1279   1.062   1.346   1.979  1.2594  2.5022  0.9687
  320SOL     MW 1280   1.024   1.300   2.045  0.1043  0.6564  0.4121
  321SOL     OW 1281   1.018   0.941   3.030  0.0324 -0.2980 -0.1620
  321SOL    HW1 1282   0.965   0.933   2.942 -1.8385  1.9284 -0.3544
  321SOL    HW2 1283   1.073   0.856   3.044  1.2849 -1.1641  5.2661
  321SOL     MW 1284   1.018   0.929   3.020 -0.0492 -0.1185  0.5288
  322SOL     OW 1285   1.311   0.896   1.625 -0.3252  0.1571 -0.6798
  322SOL    HW1 1286   1.347   0.810   1.629 -0.4189  0.7771  1.3886
  322SOL    HW2 1287   1.242   0.886   1.690  1.0210  0.9443  0.6495
  322SOL     MW 1288   1.307   0.884   1.634 -0.1600  0.3427 -0.2315
  323SOL     OW 1289   1.124   1.513   1.908  0.1666 -0.1005 -0.0776
  323SOL    HW1 1290   1.167   1.492   1.825 -3.7957  2.3376 -3.5017
  323SOL    HW2 1291   1.094   1.604   1.899 -1.1179 -1.8447  1.7303
  323SOL     MW 1292   1.126   1.523   1.896 -0.5256 -0.0090 -0.2908
  324SOL     OW 1293   1.424   0.830   2.472  0.1069 -0.4279 -0.6063
  324SOL    HW1 1294   1.324   0.851   2.469  1.5982 -0.8792  1.5407
  324SOL    HW2 1295   1.476   0.879   2.533 -1.5111  0.2626  1.3012
  324SOL     MW 1296   1.417   0.839   2.480  0.0902 -0.3963 -0.0714
  325SOL     OW 1297   1.086   0.539   2.902 -0.2350  0.0107 -0.1049
  325SOL    HW1 1298   1.055   0.581   2.986  0.0731  0.4479  1.0250
  325SOL    HW2 1299   1.000   0.511   2.873 -0.4890 -0.8645 -1.6069
  325SOL     MW 1300   1.070   0.541   2.910 -0.2278 -0.0471 -0.1540
  326SOL     OW 1301   0.391   1.353   2.343  0.2672 -0.0585 -0.1932
  326SOL    HW1 1302   0.480   1.319   2.328 -1.1828  0.3723  0.9106
  326SOL    HW2 1303   0.402   1.446   2.350  2.0650  0.2041 -3.3643
  326SOL     MW 1304   0.404   1.361   2.342  0.3131  0.0330 -0.4660
  327SOL     OW 1305   1.954   0.734   2.422 -0.0696 -0.2317 -0.1832
  327SOL    HW1 1306   1.917   0.710   2.509 -0.1777 -0.2808  1.3115
  327SOL    HW2 1307   1.979   0.826   2.428  0.0759  0.7773  0.3167
  327SOL     MW 1308   1.953   0.743   2.434 -0.0646 -0.1050  0.0800
  328SOL     OW 1309   0.254   1.304   2.114 -0.4529 -0.4295  0.0565
  328SOL    HW1 1310   0.204   1.229   2.125  2.4292  1.2411  1.1298
  328SOL    HW2 1311   0.314   1.307   2.187 -1.5635  1.8529  0.7743
  328SOL     MW 1312   0.256   1.295   2.125 -0.2191  0.0920  0.2928
  329SOL     OW 1313   0.036   0.166   1.340  0.4411  0.2763 -0.1202
  329SOL    HW1 1314  -0.006   0.151   1.435 -1.8677  1.4450 -1.2026
  329SOL    HW2 1315   0.127   0.187   1.358 -0.2143  3.5170  0.6080
  329SOL     MW 1316   0.042   0.167   1.355  0.0500  0.8581 -0.1669
  330SOL     OW 1317   0.334   0.098   1.946  0.5399 -0.2811 -0.3034
  330SOL    HW1 1318   0.413   0.147   1.913 -1.4839  1.5877 -2.3343
  330SOL    HW2 1319   0.358   0.045   2.021  0.4142  1.3054 -0.4230
  330SOL     MW 1320   0.347   0.097   1.952  0.2563  0.1748 -0.5871
  331SOL     OW 1321   0.827   1.196   2.444  0.6419  0.1600  0.2629
  331SOL    HW1 1322   0.758   1.225   2.382 -2.8947 -2.3492 -1.3555
  331SOL    HW2 1323   0.838   1.289   2.478  2.5824 -3.2778  4.9627
  331SOL     MW 1324   0.819   1.212   2.440  0.4313 -0.6247  0.6695
  332SOL     OW 1325   1.396   1.628   2.967  0.3228 -0.1879  0.2137
  332SOL    HW1 1326   1.348   1.651   2.887 -0.9772 -0.2726 -0.7987
  332SOL    HW2 1327   1.445   1.710   2.993 -1.7579  1.4771  2.1818
  332SOL     MW 1328   1.396   1.642   2.960 -0.1233  0.0206  0.3398
  333SOL     OW 1329   1.708   1.425   2.910 -0.2864  0.8824  0.2062
  333SOL    HW1 1330   1.806   1.421   2.912  1.0383  0.4019 -2.3764
  333SOL    HW2 1331   1.669   1.346   2.953  1.5000  2.0308  1.5482
  333SOL     MW 1332   1.716   1.414   2.916  0.1241  0.9705  0.0425
  334SOL     OW 1333   1.284   3.052   2.606 -0.9522  0.4322 -0.4117
  334SOL    HW1 1334   1.241   3.050   2.694 -0.0422 -0.4190  3.4659
  334SOL    HW2 1335   1.365   3.096   2.631 -1.7887 -1.1880 -0.7221
  334SOL     MW 1336   1.289   3.058   2.621 -0.9425  0.1061  0.0589
  335SOL     OW 1337   1.258   0.808   3.058 -0.2755  0.1586  0.5634
  335SOL    HW1 1338   1.311   0.782   3.135  0.9756  1.4025 -2.8910
  335SOL    HW2 1339   1.317   0.794   2.976  3.7372 -1.3808  0.3052
  335SOL     MW 1340   1.273   0.803   3.058  0.4190  0.1196  0.0735
  336SOL     OW 1341   0.886   1.118   1.668  0.6957 -0.0654 -0.9036
  336SOL    HW1 1342   0.814   1.137   1.727 -0.5127  0.1210  1.2946
  336SOL    HW2 1343   0.941   1.045   1.711  1.1812 -0.9481  1.0740
  336SOL     MW 1344   0.884   1.111   1.682  0.6003 -0.1573 -0.3526
  337SOL     OW 1345   0.523   1.922   2.859 -0.1406 -0.1180 -0.2044
  337SOL    HW1 1346   0.468   1.880   2.792 -0.3890  1.3688 -1.6740
  337SOL    HW2 1347   0.611   1.885   2.852  1.5948  0.5031 -0.4972
  337SOL     MW 1348   0.527   1.912   2.849  0.0556  0.1602 -0.4370
  338SOL     OW 1349   1.137   0.799   2.453 -0.0071  0.2077 -0.0042
  338SOL    HW1 1350   1.052   0.753   2.443  1.7931  2.1526 -0.5764
  338SOL    HW2 1351   1.176   0.747   2.529  1.0172  0.4958 -1.3563
  338SOL     MW 1352   1.131   0.786   2.462  0.3655  0.5023 -0.2581
  339SOL     OW 1353   1.305   1.255   1.975 -0.1088  0.2047  0.0715
  339SOL    HW1 1354   1.326   1.229   1.886  1.8935 -0.5030  1.9175
  339SOL    HW2 1355   1.269   1.178   2.016 -2.8733  2.1610  0.2815
  339SOL     MW 1356   1.303   1.241   1.969 -0.2094  0.3694  0.3428
  340SOL     OW 1357   1.331   1.549   0.126 -0.3370  0.3302  0.2494
  340SOL    HW1 1358   1.370   1.547   0.032 -0.5471 -0.3655  0.0188
  340SOL    HW2 1359   1.374   1.476   0.174 -1.2113 -0.7517  2.1985
  340SOL     MW 1360   1.342   1.539   0.120 -0.4800  0.0957  0.4762
  341SOL     OW 1361   0.065   1.393   2.839 -0.2557  0.1079 -0.0469
  341SOL    HW1 1362   0.160   1.383   2.876  2.2597 -3.1944  1.1350
  341SOL    HW2 1363   0.081   1.428   2.750  0.9031 -2.2738 -1.3431
  341SOL     MW 1364   0.080   1.396   2.832  0.2291 -0.6420 -0.0620
  342SOL     OW 1365   1.379   0.349   0.030  0.1139 -0.3717 -0.8037
  342SOL    HW1 1366   1.448   0.388   0.084  0.9451 -0.2711  1.4207
  342SOL    HW2 1367   1.375   0.397  -0.051  1.8141 -0.1584 -0.5526
  342SOL     MW 1368   1.388   0.361   0.027  0.4479 -0.3303 -0.4771
  343SOL     OW 1369   0.254   0.300   2.110  0.3673  0.5320  0.8208
  343SOL    HW1 1370   0.278   0.221   2.063 -1.3755 -0.1955 -1.2078
  343SOL    HW2 1371   0.157   0.293   2.120  0.1209 -1.0136  3.9606
  343SOL     MW 1372   0.244   0.289   2.105  0.1048  0.2321  0.9674
  344SOL     OW 1373   1.660   2.098   0.183 -0.1873  0.4966  0.5290
  344SOL    HW1 1374   1.667   2.135   0.095 -1.7103  1.1463 -2.0073
  344SOL    HW2 1375   1.640   2.179   0.244 -0.8684  3.7150  2.4676
  344SOL     MW 1376   1.658   2.113   0.180 -0.4781  1.0070  0.4501
  345SOL     OW 1377   0.602   1.585   2.265 -0.2259  0.0853 -0.4114
  345SOL    HW1 1378   0.541   1.607   2.199  0.8396 -0.2866 -0.7565
  345SOL    HW2 1379   0.683   1.570   2.223 -1.3591  1.1356  0.0729
  345SOL     MW 1380   0.604   1.586   2.251 -0.2348  0.1748 -0.3930
  346SOL     OW 1381   1.648   1.185   0.021  0.1298 -0.1859 -0.0355
  346SOL    HW1 1382   1.721   1.221   0.065 -3.3770  1.6976 -1.7125
  346SOL    HW2 1383   1.630   1.110   0.072 -0.2924 -0.6633 -0.0591
  346SOL     MW 1384   1.655   1.180   0.034 -0.3886 -0.0003 -0.2599
  347SOL     OW 1385   1.236   0.739   2.203 -0.4016 -0.1682  0.2432
  347SOL    HW1 1386   1.254   0.654   2.245 -1.4031 -0.6005 -0.1234
  347SOL    HW2 1387   1.202   0.788   2.277  1.2641 -0.2802 -1.4122
  347SOL     MW 1388   1.234   0.734   2.219 -0.3140 -0.2400 -0.0235
  348SOL     OW 1389   1.289   2.538   1.949  0.1382  0.0757  0.3363
  348SOL    HW1 1390   1.295   2.466   2.018  2.8654 -0.6530  0.7011
  348SOL    HW2 1391   1.332   2.607   1.995  1.0787  2.5195  0.6906
  348SOL     MW 1392   1.295   2.538   1.964  0.6221  0.3020  0.4312
  349SOL     OW 1393   1.454   0.117   2.767  0.4654  0.2079 -0.1791
  349SOL    HW1 1394   1.397   0.188   2.796  0.5068 -3.6202 -1.4235
  349SOL    HW2 1395   1.496   0.075   2.845  1.1910  2.8181  2.3617
  349SOL     MW 1396   1.452   0.121   2.781  0.5666  0.0472 -0.0081
  350SOL     OW 1397   1.874   0.624   2.654 -0.3020  0.1494 -0.4472
  350SOL    HW1 1398   1.820   0.560   2.604 -2.9497 -1.6630 -1.4637
  350SOL    HW2 1399   1.937   0.565   2.706  0.8732  0.3141  1.5270
  350SOL     MW 1400   1.875   0.608   2.655 -0.4963 -0.0680 -0.3208
  351SOL     OW 1401   0.175   1.104   1.555  0.7422 -0.1993 -0.0461
  351SOL    HW1 1402   0.131   1.027   1.594  0.0544 -0.9132 -1.4828
  351SOL    HW2 1403   0.220   1.144   1.630  0.8734  2.0477 -1.1731
  351SOL     MW 1404   0.175   1.099   1.570  0.6688  0.0029 -0.3843
  352SOL     OW 1405   0.764   1.783   2.813 -0.4488 -0.6048 -0.2280
  352SOL    HW1 1406   0.793   1.705   2.863 -0.3305 -0.4424  0.9896
  352SOL    HW2 1407   0.755   1.763   2.722 -0.5937  1.8879 -0.6283
  352SOL     MW 1408   0.766   1.770   2.808 -0.4523 -0.2545 -0.1202
  353SOL     OW 1409   3.091   2.521   2.674  0.1263 -0.8587 -0.3467
  353SOL    HW1 1410   3.181   2.492   2.660 -0.6343 -3.1264  0.2826
  353SOL    HW2 1411   3.084   2.584   2.599  1.5867  0.3094 -0.8864
  353SOL     MW 1412   3.102   2.525   2.663  0.2186 -1.0038 -0.3349
  354SOL     OW 1413   0.346   2.449   0.817 -0.2333  0.4909 -0.1922
  354SOL    HW1 1414   0.386   2.398   0.893  1.9036 -0.5380  0.6136
  354SOL    HW2 1415   0.287   2.390   0.772 -1.1870  2.1505  0.3840
  354SOL     MW 1416   0.344   2.435   0.821 -0.0772  0.5741 -0.0098
  355SOL     OW 1417   0.100   2.287   0.360 -0.3719  0.4924  0.1165
  355SOL    HW1 1418   0.030   2.231   0.345 -1.3224  3.9775  0.0451
  355SOL    HW2 1419   0.072   2.343   0.433 -2.6958  2.1172  1.5536
  355SOL     MW 1420   0.087   2.287   0.368 -0.8039  1.1666  0.2967
  356SOL     OW 1421   0.770   2.948   1.011  0.1721 -0.1864  0.1141
  356SOL    HW1 1422   0.825   2.914   0.939  0.1065 -0.1623  1.2298
  356SOL    HW2 1423   0.690   2.906   0.992 -0.0112  2.9314 -0.7881
  356SOL     MW 1424   0.767   2.938   0.999  0.1393  0.2281  0.1423
  357SOL     OW 1425   1.890   2.813   0.444  0.3282 -0.2930  0.2764
  357SOL    HW1 1426   1.848   2.777   0.522 -0.4671 -1.4378  0.0375
  357SOL    HW2 1427   1.973   2.764   0.437  1.7111  1.2831  1.9456
  357SOL     MW 1428   1.896   2.802   0.454  0.4058 -0.2361  0.4651
  358SOL     OW 1429   0.370   0.126   1.013  0.2025 -0.1015  0.4333
  358SOL    HW1 1430   0.470   0.133   1.008  1.5699 -1.0380  2.5803
  358SOL    HW2 1431   0.332   0.167   0.934 -1.1098  2.7786  0.2822
  358SOL     MW 1432   0.378   0.132   1.002  0.2098  0.1549  0.6967
  359SOL     OW 1433   0.882   2.949   1.918 -0.6444  0.3440  0.1709
  359SOL    HW1 1434   0.847   2.865   1.958 -0.9668 -1.3927 -0.1803
  359SOL    HW2 1435   0.879   2.926   1.823 -1.1151  1.3563  2.9067
  359SOL     MW 1436   0.877   2.935   1.911 -0.7490  0.2484  0.4855
  360SOL     OW 1437   0.567   2.774   0.888  0.1748  0.3433  0.1373
  360SOL    HW1 1438   0.599   2.729   0.810 -0.8943  2.6756 -0.1246
  360SOL    HW2 1439   0.570   2.709   0.958 -0.4957 -0.5875  1.6527
  360SOL     MW 1440   0.571   2.759   0.887 -0.0547  0.5282  0.3027
  361SOL     OW 1441   0.091   2.715   1.328 -0.2691 -0.1815 -0.5560
  361SOL    HW1 1442   0.021   2.768   1.377 -3.2135 -0.7785 -1.2301
  361SOL    HW2 1443   0.178   2.753   1.353  1.1963  0.2059  4.1274
  361SOL     MW 1444   0.094   2.727   1.337 -0.4642 -0.2091 -0.0270
  362SOL     OW 1445   1.413   2.429   0.577 -0.1719  0.5248  0.4318
  362SOL    HW1 1446   1.444   2.368   0.646  0.9684 -1.7780  0.2423
  362SOL    HW2 1447   1.477   2.503   0.571 -0.3687  1.8173 -0.6405
  362SOL     MW 1448   1.425   2.430   0.585 -0.0474  0.3915  0.2653
  363SOL     OW 1449   0.340   3.083   0.660 -0.4063 -0.4226  0.0590
  363SOL    HW1 1450   0.335   3.025   0.733  2.0824  0.7290  3.3648
  363SOL    HW2 1451   0.258   3.071   0.620 -0.3070  0.2138  0.0352
  363SOL     MW 1452   0.329   3.074   0.665 -0.0648 -0.1867  0.4921
  364SOL     OW 1453   0.792   0.264   0.132  0.3688  0.2113 -0.5233
  364SOL    HW1 1454   0.740   0.184   0.161 -1.2031 -0.5373  1.9967
  364SOL    HW2 1455   0.739   0.310   0.067  0.9305 -1.7208  1.2831
  364SOL     MW 1456   0.778   0.259   0.128  0.2355 -0.1424  0.0475
  365SOL     OW 1457   0.915   2.017   1.283  0.5610  0.1045 -0.2057
  365SOL    HW1 1458   0.894   2.109   1.240 -3.9815 -0.0736  0.4452
  365SOL    HW2 1459   0.855   1.959   1.232  2.9709  2.1040  1.2067
  365SOL     MW 1460   0.904   2.021   1.270  0.2796  0.3448  0.0666
  366SOL     OW 1461   2.863   2.635   0.948 -0.5181 -0.0152 -0.4553
  366SOL    HW1 1462   2.950   2.621   0.996 -1.0844 -0.5761 -1.4048
  366SOL    HW2 1463   2.896   2.643   0.858  3.6146 -0.9065  0.9700
  366SOL     MW 1464   2.879   2.634   0.943 -0.0476 -0.2068 -0.3925
  367SOL     OW 1465   1.308   3.073   0.992  0.3309  0.2837 -0.3049
  367SOL    HW1 1466   1.390   3.095   1.027 -0.6365 -1.7608 -0.4004
  367SOL    HW2 1467   1.334   3.046   0.909 -1.5781  1.5571  1.9732
  367SOL     MW 1468   1.322   3.072   0.986 -0.0487  0.1820 -0.0169
  368SOL     OW 1469   1.767   0.398   0.581  0.3527  0.5453 -0.0404
  368SOL    HW1 1470   1.817   0.345   0.525 -0.4066  1.1512  0.7258
  368SOL    HW2 1471   1.760   0.485   0.539  0.1633  3.0513 -3.0614
  368SOL     MW 1472   1.772   0.402   0.568  0.2276  0.9559 -0.3379
  369SOL     OW 1473   0.188   2.469   1.762 -0.4749  0.9589 -0.6201
  369SOL    HW1 1474   0.284   2.464   1.765 -1.8097  0.7325  1.7235
  369SOL    HW2 1475   0.162   2.560   1.742 -1.6454 -0.2728 -0.0631
  369SOL     MW 1476   0.197   2.480   1.760 -0.8054  0.7665 -0.2374
  370SOL     OW 1477   0.657   0.113   1.042 -0.1975 -0.3699 -0.1102
  370SOL    HW1 1478   0.729   0.155   0.989 -1.6325 -4.4201 -3.3159
  370SOL    HW2 1479   0.688   0.020   1.037  0.2634 -1.3512  0.0395
  370SOL     MW 1480   0.671   0.106   1.034 -0.3260 -1.0338 -0.5134
  371SOL     OW 1481   1.103   2.897   1.478 -0.0975 -0.1659  0.0713
  371SOL    HW1 1482   1.145   2.816   1.452 -1.6345  0.1148 -0.4743
  371SOL    HW2 1483   1.146   2.966   1.424 -2.2271  1.4870 -0.7051
  371SOL     MW 1484   1.114   2.895   1.468 -0.5813  0.0892 -0.1031
  372SOL     OW 1485   0.833   2.294   0.469 -0.0692 -0.5318 -0.6559
  372SOL    HW1 1486   0.802   2.217   0.522 -0.6586  0.5404 -0.5800
  372SOL    HW2 1487   0.867   2.265   0.382  0.9561 -0.0737 -0.2853
  372SOL     MW 1488   0.833   2.280   0.464 -0.0117 -0.3299 -0.5970
  373SOL     OW 1489   2.811   2.963   1.406  0.3086  0.1319 -0.2729
  373SOL    HW1 1490   2.873   2.961   1.330 -0.3939  1.1154  1.5042
  373SOL    HW2 1491   2.767   3.045   1.395 -0.0976 -0.1044  1.6165
  373SOL     MW 1492   2.813   2.973   1.394  0.1623  0.2305  0.2109
  374SOL     OW 1493   1.558   0.445   0.202  0.5100  0.3177  0.0283
  374SOL    HW1 1494   1.653   0.435   0.206 -0.7632 -0.1276  1.8899
  374SOL    HW2 1495   1.523   0.417   0.280 -0.8768 -0.3035 -0.9869
  374SOL     MW 1496   1.566   0.440   0.213  0.1591  0.1770  0.1400
  375SOL     OW 1497   1.095   1.992   2.191 -0.2341 -0.4309  0.1783
  375SOL    HW1 1498   1.110   2.000   2.287  0.5944 -3.2907 -1.7205
  375SOL    HW2 1499   1.003   1.961   2.175  1.6940 -0.9688  0.2646
  375SOL     MW 1500   1.085   1.989   2.201  0.1296 -0.8792 -0.0608
  376SOL     OW 1501   0.808   2.536   0.104  0.3638  0.1924  0.0847
  376SOL    HW1 1502   0.757   2.466   0.156 -2.9826 -2.5892  2.2349
  376SOL    HW2 1503   0.807   2.497   0.020 -0.5652  0.9496 -1.8214
  376SOL     MW 1504   0.801   2.521   0.100 -0.2003 -0.0747  0.1169
  377SOL     OW 1505   1.315   2.074   0.967  0.0069 -0.5987 -0.3036
  377SOL    HW1 1506   1.257   2.057   0.897  0.5882 -0.8503 -2.7411
  377SOL    HW2 1507   1.278   2.009   1.034  2.1667 -0.5653  0.7602
  377SOL     MW 1508   1.302   2.063   0.967  0.3686 -0.6275 -0.4849
  378SOL     OW 1509   0.864   2.872   1.658  0.1839  0.0184  0.8493
  378SOL    HW1 1510   0.853   2.780   1.639  0.0233  2.3774 -2.4708
  378SOL    HW2 1511   0.949   2.904   1.615  1.2822  0.3290  0.2351
  378SOL     MW 1512   0.874   2.864   1.650  0.3076  0.3706  0.3302
  379SOL     OW 1513   1.032   1.526   2.345 -0.3676 -0.4783 -0.1010
  379SOL    HW1 1514   0.970   1.550   2.276  1.0906 -0.0118  0.1531
  379SOL    HW2 1515   1.106   1.529   2.292 -0.3329  1.8998  2.1811
  379SOL     MW 1516   1.034   1.529   2.329 -0.1706 -0.1030  0.2337
  380SOL     OW 1517   0.913   0.195   1.498 -0.1983  0.0905 -0.5351
  380SOL    HW1 1518   0.920   0.107   1.463 -0.1019 -0.2014  0.1038
  380SOL    HW2 1519   0.964   0.183   1.575  0.9884  1.7765 -0.5573
  380SOL     MW 1520   0.921   0.182   1.504 -0.0290  0.2744 -0.4537
  381SOL     OW 1521   0.821   2.032   0.908 -0.2448 -0.6603  0.4707
  381SOL    HW1 1522   0.912   2.045   0.884 -1.4509 -1.4238 -0.0812
  381SOL    HW2 1523   0.790   2.094   0.974  1.4483  2.2042  0.3396
  381SOL     MW 1524   0.829   2.042   0.913 -0.1805 -0.3831  0.3806
  382SOL     OW 1525   0.839   0.111   0.642  0.3006  0.6478  0.1848
  382SOL    HW1 1526   0.819   0.139   0.730 -1.3343  1.6387 -1.3034
  382SOL    HW2 1527   0.823   0.011   0.646 -1.6434 -1.8977 -0.9139
  382SOL     MW 1528   0.834   0.102   0.654 -0.1716  0.4427 -0.1565
  383SOL     OW 1529   0.663   0.034   0.215 -0.4643  0.1289 -0.8513
  383SOL    HW1 1530   0.703  -0.042   0.166  3.1685  0.2483  0.2271
  383SOL    HW2 1531   0.612  -0.001   0.286  3.2599  1.6459 -2.0470
  383SOL     MW 1532   0.662   0.019   0.218  0.5064  0.3448 -0.8668
  384SOL     OW 1533   0.823   2.929   0.670  0.7283  0.0342  0.5485
  384SOL    HW1 1534   0.897   2.936   0.733  0.2804  1.2564 -1.3087
  384SOL    HW2 1535   0.784   2.842   0.682  1.7273 -1.8040 -0.8849
  384SOL     MW 1536   0.828   2.919   0.680  0.8010 -0.0471  0.1144
  385SOL     OW 1537   1.371   2.025   1.578  0.3544 -1.0424 -0.2828
  385SOL    HW1 1538   1.457   2.060   1.611  1.9090  2.4843  0.9183
  385SOL    HW2 1539   1.352   1.954   1.639  0.4537 -2.9936 -0.7136
  385SOL     MW 1540   1.380   2.020   1.590  0.5726 -0.8345 -0.1811
  386SOL     OW 1541   1.503   0.407   0.899  0.2597  0.0360  0.2930
  386SOL    HW1 1542   1.458   0.440   0.977 -1.1885 -1.4778 -1.3148
  386SOL    HW2 1543   1.595   0.379   0.913 -1.0776 -1.2976 -0.9833
  386SOL     MW 1544   1.510   0.407   0.911 -0.1078 -0.3397 -0.0875
  387SOL     OW 1545   0.819   2.271   1.565 -0.0232 -0.9529  0.4813
  387SOL    HW1 1546   0.910   2.294   1.519  2.6511  2.3046  1.3803
  387SOL    HW2 1547   0.810   2.178   1.576  1.0177  1.4682 -3.1206
  387SOL     MW 1548   0.830   2.261   1.560  0.4670 -0.2037  0.1247
  388SOL     OW 1549   1.503   2.786   1.526  0.0169  0.1440 -0.3564
  388SOL    HW1 1550   1.436   2.829   1.468 -0.0687  1.5901  0.7339
  388SOL    HW2 1551   1.564   2.741   1.466 -0.2992 -1.4060 -1.0127
  388SOL     MW 1552   1.502   2.786   1.511 -0.0361  0.1303 -0.2991
  389SOL     OW 1553   0.402   0.124   3.068 -0.5934  0.5177  0.6191
  389SOL    HW1 1554   0.467   0.059   3.040  2.5288 -0.3580 -0.6858
  389SOL    HW2 1555   0.384   0.181   2.991 -1.3201 -0.1412 -0.0414
  389SOL     MW 1556   0.408   0.123   3.054 -0.2774  0.3152  0.3598
  390SOL     OW 1557   1.355   3.087   0.697  0.2922  0.1922  0.4270
  390SOL    HW1 1558   1.340   3.032   0.617 -1.2021  1.5613  1.7303
  390SOL    HW2 1559   1.434   3.135   0.686  0.9562  3.4283 -1.4869
  390SOL     MW 1560   1.364   3.086   0.685  0.1827  0.7998  0.3464
  391SOL     OW 1561   0.327   2.221   1.488  0.4597  0.8286 -0.8906
  391SOL    HW1 1562   0.341   2.216   1.582 -2.7090  2.1988  0.5992
  391SOL    HW2 1563   0.286   2.310   1.474  1.9820  0.2665  0.7335
  391SOL     MW 1564   0.324   2.232   1.499  0.2425  0.9352 -0.4798
  392SOL     OW 1565   1.935   2.108   0.280 -0.5423  0.2542 -0.5075
  392SOL    HW1 1566   1.973   2.193   0.322 -1.6896  0.0733  1.5494
  392SOL    HW2 1567   1.848   2.128   0.244  2.2641  2.2293 -2.6307
  392SOL     MW 1568   1.929   2.122   0.281 -0.3234  0.4909 -0.5162
  393SOL     OW 1569   0.246   2.977   2.783  0.1422  0.6994 -0.2464
  393SOL    HW1 1570   0.328   2.979   2.740 -0.6238  1.3609 -0.8884
  393SOL    HW2 1571   0.231   3.068   2.809 -2.5554  0.2078 -3.7942
  393SOL     MW 1572   0.255   2.989   2.781 -0.3148  0.7218 -0.7992
  394SOL     OW 1573   0.972   1.758   1.635  0.2226 -0.0087  0.1055
  394SOL    HW1 1574   1.022   1.794   1.711  0.0165  1.7904  2.6379
  394SOL    HW2 1575   0.918   1.833   1.603  0.0680  1.5368  0.1801
  394SOL     MW 1576   0.971   1.773   1.641  0.1750  0.4326  0.4494
  395SOL     OW 1577   0.938   2.937   2.701 -0.3868 -0.1130 -0.1728
  395SOL    HW1 1578   0.985   3.021   2.714 -2.6301 -3.1728  0.5207
  395SOL    HW2 1579   1.000   2.870   2.671  2.1300  0.3826 -0.1156
  395SOL     MW 1580   0.953   2.939   2.699 -0.3507 -0.4513 -0.0738
  396SOL     OW 1581   0.727   1.881   2.445 -0.6064 -0.2331  0.4033
  396SOL    HW1 1582   0.802   1.864   2.502 -1.4765 -2.3514  1.0810
  396SOL    HW2 1583   0.670   1.806   2.460 -0.6699 -0.6515  1.5407
  396SOL     MW 1584   0.729   1.869   2.455 -0.7295 -0.5678  0.6428
  397SOL     OW 1585   1.053   2.325   1.425  0.1926  0.2428  0.6267
  397SOL    HW1 1586   1.098   2.315   1.343 -1.6521  0.0057 -0.8121
  397SOL    HW2 1587   1.125   2.305   1.481 -2.7883  0.6975 -1.0899
  397SOL     MW 1588   1.069   2.321   1.421 -0.4441  0.2715  0.2104
  398SOL     OW 1589   0.722   2.671   0.700 -0.2318 -0.8972  0.2012
  398SOL    HW1 1590   0.694   2.674   0.612  2.6843 -1.3121  1.2164
  398SOL    HW2 1591   0.758   2.582   0.712 -1.8585  0.0904 -0.3161
  398SOL     MW 1592   0.723   2.659   0.690 -0.0617 -0.8217  0.2669
  399SOL     OW 1593   0.331   2.111   0.358  0.6751  0.1736 -0.3282
  399SOL    HW1 1594   0.258   2.169   0.360  0.3430  0.1934  0.3173
  399SOL    HW2 1595   0.370   2.133   0.276 -1.4245  0.0262 -2.3189
  399SOL     MW 1596   0.326   2.122   0.347  0.3543  0.1568 -0.5057
  400SOL     OW 1597   0.625   1.957   0.147  0.6573  0.4110 -0.2274
  400SOL    HW1 1598   0.572   2.036   0.154  1.4631 -0.1974 -1.8246
  400SOL    HW2 1599   0.574   1.901   0.204  1.2404 -2.3987 -0.1912
  400SOL     MW 1600   0.611   1.960   0.156  0.8406 -0.0400 -0.4333
  401SOL     OW 1601   0.859   2.042   0.036  0.5391  0.6382  0.1302
  401SOL    HW1 1602   0.919   1.965   0.033  3.3878 -0.5893  3.3534
  401SOL    HW2 1603   0.791   2.015   0.099 -1.0784 -1.3176  1.9969
  401SOL     MW 1604   0.858   2.028   0.044  0.7016  0.2182  0.8018
  402SOL     OW 1605   0.579   3.038   1.861 -0.2707 -0.3705  0.0781
  402SOL    HW1 1606   0.664   3.040   1.911  2.1343  1.8921 -3.2909
  402SOL    HW2 1607   0.609   3.019   1.774  0.1681 -1.0136  2.8400
  402SOL     MW 1608   0.594   3.036   1.856  0.1045 -0.1568 -0.0020
  403SOL     OW 1609   0.141   0.511   0.446  0.1155  0.3358 -0.1631
  403SOL    HW1 1610   0.226   0.542   0.479 -3.1218 -3.3604  1.6368
  403SOL    HW2 1611   0.155   0.470   0.361 -0.8416 -2.8137 -0.6649
  403SOL     MW 1612   0.154   0.510   0.439 -0.4379 -0.5674  0.0082
  404SOL     OW 1613   1.022   2.993   0.842  0.2443 -0.0136  0.5576
  404SOL    HW1 1614   1.101   2.938   0.834  1.8286  1.1344  0.0450
  404SOL    HW2 1615   1.048   3.085   0.813  3.2027  0.2065 -1.5281
  404SOL     MW 1616   1.036   2.998   0.837  0.8437  0.1669  0.2148
  405SOL     OW 1617   0.488   2.500   1.474 -0.3835 -0.2605 -0.5149
  405SOL    HW1 1618   0.475   2.568   1.410 -0.0022  1.4315 -1.0862
  405SOL    HW2 1619   0.549   2.437   1.442 -2.1809  0.2281  0.8009
  405SOL     MW 1620   0.494   2.500   1.461 -0.5703  0.0272 -0.4166
  406SOL     OW 1621   0.425   2.332   1.051  0.1653  0.4930 -0.0154
  406SOL    HW1 1622   0.327   2.339   1.069  0.0663 -1.4974 -1.1648
  406SOL    HW2 1623   0.458   2.264   1.108 -1.9210  0.4090  2.5950
  406SOL     MW 1624   0.417   2.324   1.061 -0.1230  0.2193  0.1774
  407SOL     OW 1625   0.020   2.628   1.060  0.0464  0.5514  0.3331
  407SOL    HW1 1626   0.066   2.659   1.138  1.8109  1.7909  1.4203
  407SOL    HW2 1627   0.074   2.640   0.979 -1.0790  1.6058 -0.4101
  407SOL     MW 1628   0.033   2.633   1.059  0.1307  0.8541  0.3785
  408SOL     OW 1629   2.098   2.210   0.729 -0.3263 -0.1110  0.3283
  408SOL    HW1 1630   2.037   2.203   0.804  0.7935 -0.8789 -0.0266
  408SOL    HW2 1631   2.055   2.161   0.657 -1.1636 -2.0581 -0.1781
  408SOL     MW 1632   2.085   2.202   0.729 -0.2890 -0.4692  0.2146
  409SOL     OW 1633   1.627   0.080   0.824 -0.3722  0.0686  0.3034
  409SOL    HW1 1634   1.697   0.145   0.841  0.3188 -1.6739  0.3933
  409SOL    HW2 1635   1.598   0.058   0.917 -1.0187  0.7508 -0.5019
  409SOL     MW 1636   1.632   0.086   0.839 -0.3663 -0.0713  0.2090
  410SOL     OW 1637   1.100   2.473   1.183  0.0576  0.4965  0.0296
  410SOL    HW1 1638   1.031   2.486   1.118 -0.2660  2.0498 -2.4246
  410SOL    HW2 1639   1.172   2.423   1.145 -1.5679  3.0584 -0.2519
  410SOL     MW 1640   1.101   2.468   1.170 -0.1995  1.0394 -0.3314
  411SOL     OW 1641   1.989   2.944   2.940  0.1179 -0.4216 -0.2966
  411SOL    HW1 1642   1.996   2.926   2.848 -4.4430  0.9021  1.2720
  411SOL    HW2 1643   1.962   3.038   2.955  0.9575 -0.4221  0.6721
  411SOL     MW 1644   1.986   2.954   2.930 -0.3731 -0.2470  0.0382
  412SOL     OW 1645   1.101   2.230   0.642  0.0040 -0.6132 -0.4353
  412SOL    HW1 1646   1.128   2.317   0.668 -2.5321 -0.0514  0.0360
  412SOL    HW2 1647   1.009   2.249   0.622  2.3134 -2.8807 -1.0072
  412SOL     MW 1648   1.092   2.244   0.643 -0.0259 -0.8383 -0.4485
  413SOL     OW 1649   0.563   2.665   0.069 -0.4254 -0.1572 -0.2564
  413SOL    HW1 1650   0.638   2.636   0.118 -2.2404 -0.1159 -3.0169
  413SOL    HW2 1651   0.581   2.658  -0.026  2.0385  0.6414 -0.4865
  413SOL     MW 1652   0.575   2.660   0.063 -0.3398 -0.0464 -0.6510
  414SOL     OW 1653   2.080   3.040   1.094  0.0369  0.7681  0.2327
  414SOL    HW1 1654   2.170   3.063   1.090  1.2720 -1.6667  1.0861
  414SOL    HW2 1655   2.058   3.035   1.001  1.1959 -0.5796  0.4370
  414SOL     MW 1656   2.089   3.043   1.081  0.3528  0.2690  0.3722
  415SOL     OW 1657   1.654   2.845   1.210  0.3527  0.6461  0.6224
  415SOL    HW1 1658   1.715   2.865   1.284 -2.1713 -0.8624  1.2277
  415SOL    HW2 1659   1.701   2.770   1.161  0.3337 -1.5747  0.3610
  415SOL     MW 1660   1.669   2.838   1.214  0.0172  0.1540  0.6678
  416SOL     OW 1661   0.673   1.753   1.470 -0.9509  0.2993  0.8649
  416SOL    HW1 1662   0.593   1.785   1.429  2.8336 -0.9330  2.1959
  416SOL    HW2 1663   0.696   1.660   1.449  1.4351 -0.9305 -0.0215
  416SOL     MW 1664   0.666   1.745   1.462 -0.1368 -0.0255  0.9235
  417SOL     OW 1665   0.937   0.069   2.105 -0.0163 -0.5543  0.5434
  417SOL    HW1 1666   0.853   0.061   2.151 -2.0325 -0.2211  0.2983
  417SOL    HW2 1667   0.905   0.023   2.024 -1.6941 -3.2502 -0.7943
  417SOL     MW 1668   0.922   0.062   2.101 -0.5037 -0.8661  0.3346
  418SOL     OW 1669   0.758   2.876   0.155  0.2184  0.3287 -0.6602
  418SOL    HW1 1670   0.831   2.859   0.094 -0.9089  4.0876 -0.9002
  418SOL    HW2 1671   0.690   2.844   0.103  2.7253  0.2245 -2.0921
  418SOL     MW 1672   0.759   2.870   0.141  0.4004  0.8109 -0.8808
  419SOL     OW 1673   0.615   2.710   1.296  0.0050  0.2372 -0.5737
  419SOL    HW1 1674   0.614   2.806   1.310 -3.7666  1.4610 -1.9910
  419SOL    HW2 1675   0.698   2.679   1.317 -1.0423 -0.3480 -1.7380
  419SOL     MW 1676   0.626   2.719   1.300 -0.6308  0.3214 -0.9143
  420SOL     OW 1677   0.824   2.233   1.144 -0.0897  0.3979 -0.3543
  420SOL    HW1 1678   0.757   2.275   1.194 -0.6334 -0.9392 -1.8944
  420SOL    HW2 1679   0.862   2.303   1.092 -0.0890  0.6959 -0.5256
  420SOL     MW 1680   0.820   2.248   1.143 -0.1613  0.2608 -0.5801
  421SOL     OW 1681   2.916   0.128   0.040 -0.1740 -0.0963 -0.7322
  421SOL    HW1 1682   2.825   0.107   0.018  1.6837  0.5346 -0.0769
  421SOL    HW2 1683   2.972   0.058   0.035  1.7779  0.6661  2.5193
  421SOL     MW 1684   2.911   0.116   0.037  0.3286  0.0875 -0.2167
  422SOL     OW 1685   0.874   2.452   0.980 -0.0599 -0.0223  0.3686
  422SOL    HW1 1686   0.787   2.476   1.006 -1.7282 -0.3356  1.2025
  422SOL    HW2 1687   0.869   2.450   0.887 -0.6882 -2.3465 -0.2253
  422SOL     MW 1688   0.862   2.455   0.971 -0.3629 -0.3703  0.4003
  423SOL     OW 1689   1.571   0.063   0.458 -0.3616 -0.1491 -0.5885
  423SOL    HW1 1690   1.585   0.039   0.366  2.2010  0.1680 -1.0416
  423SOL    HW2 1691   1.553   0.154   0.468 -0.3870 -1.0770  3.0920
  423SOL     MW 1692   1.571   0.072   0.447 -0.0268 -0.2297 -0.1626
  424SOL     OW 1693   0.647   2.322   1.352 -0.2290 -0.0056 -0.7326
  424SOL    HW1 1694   0.595   2.242   1.336 -2.2920  1.7871  0.3331
  424SOL    HW2 1695   0.699   2.307   1.436 -0.7006  0.7773  1.9866
  424SOL     MW 1696   0.647   2.309   1.361 -0.5634  0.3342 -0.2332
  425SOL     OW 1697   1.764   2.801   2.037  0.2476 -0.1413  0.1310
  425SOL    HW1 1698   1.744   2.799   1.943  0.2609  1.5847  1.0865
  425SOL    HW2 1699   1.789   2.708   2.056 -0.6822 -2.2632 -1.9556
  425SOL     MW 1700   1.765   2.788   2.027  0.1267 -0.1936 -0.0182
  426SOL     OW 1701   0.807   1.756   1.962  0.1353 -0.3332  0.6287
  426SOL    HW1 1702   0.731   1.745   1.895 -1.0087  0.8254  2.4077
  426SOL    HW2 1703   0.758   1.794   2.036  0.5344  1.4083  3.1083
  426SOL     MW 1704   0.790   1.760   1.963  0.0370  0.0495  1.1906
  427SOL     OW 1705   0.388   1.767   1.890  0.0144  0.0203  0.2962
  427SOL    HW1 1706   0.452   1.726   1.838  1.3918 -3.3523 -0.5210
  427SOL    HW2 1707   0.345   1.692   1.937 -1.6472  2.0207  2.9010
  427SOL     MW 1708   0.391   1.752   1.890 -0.0231 -0.1608  0.5320
  428SOL     OW 1709   0.614   2.536   1.039 -0.4302 -0.1660 -0.1035
  428SOL    HW1 1710   0.567   2.453   1.043 -0.7031 -0.3118  2.4980
  428SOL    HW2 1711   0.641   2.558   1.130 -3.5539  1.8548 -0.8825
  428SOL     MW 1712   0.611   2.528   1.051 -0.8783  0.0814  0.1370
  429SOL     OW 1713   1.249   2.815   1.072 -0.6144 -0.1843 -0.0497
  429SOL    HW1 1714   1.164   2.818   1.116 -0.2460  1.2782  2.0390
  429SOL    HW2 1715   1.265   2.910   1.042 -1.9483  0.0128  1.4870
  429SOL     MW 1716   1.240   2.828   1.074 -0.7418  0.0347  0.4287
  430SOL     OW 1717   1.204   2.793   0.780  0.0165 -0.5493  0.3158
  430SOL    HW1 1718   1.193   2.748   0.867  0.6081 -0.3480  0.7873
  430SOL    HW2 1719   1.141   2.749   0.716 -0.4705  0.7025 -4.9851
  430SOL     MW 1720   1.194   2.781   0.783  0.0303 -0.3575 -0.3214
  431SOL     OW 1721   0.368   1.874   1.102  0.4675  0.0861 -0.3262
  431SOL    HW1 1722   0.446   1.817   1.104 -0.7232 -0.6402 -0.4716
  431SOL    HW2 1723   0.365   1.879   1.007  1.7278 -1.0792 -2.6910
  431SOL     MW 1724   0.378   1.867   1.090  0.4767 -0.1635 -0.6574
  432SOL     OW 1725   0.022   3.087   1.113 -0.2422 -0.5319 -0.2213
  432SOL    HW1 1726   0.015   3.138   1.203  3.1929 -0.3292  3.4473
  432SOL    HW2 1727  -0.037   3.017   1.133  1.6808  2.5441 -0.8326
  432SOL     MW 1728   0.013   3.084   1.128  0.4647 -0.0993  0.1820
  433SOL     OW 1729   0.622   2.945   1.484 -0.3004  0.2212 -0.1403
  433SOL    HW1 1730   0.622   3.042   1.489 -0.6590  1.5779  0.6655
  433SOL    HW2 1731   0.694   2.913   1.533 -2.8519  0.5800 -1.8047
  433SOL     MW 1732   0.631   2.954   1.491 -0.6843  0.4475 -0.2536
  434SOL     OW 1733   1.500   2.810   1.806  0.2739 -0.0631 -0.0138
  434SOL    HW1 1734   1.450   2.838   1.880  2.9798 -1.5499  0.8973
  434SOL    HW2 1735   1.461   2.852   1.735 -0.8499 -0.3078  0.4020
  434SOL     MW 1736   1.488   2.819   1.807  0.4826 -0.2916  0.1613
  435SOL     OW 1737   2.737   1.815   0.308  0.6986  0.6541  0.6624
  435SOL    HW1 1738   2.784   1.880   0.251  0.9214  0.8834 -3.4214
  435SOL    HW2 1739   2.662   1.804   0.253 -0.6601  0.7447  0.1415
  435SOL     MW 1740   2.733   1.822   0.294  0.5487  0.6963  0.0548
  436SOL     OW 1741   1.403   2.777   0.340  1.2191 -0.8011 -0.1145
  436SOL    HW1 1742   1.464   2.743   0.407 -2.5173  2.6235 -2.3100
  436SOL    HW2 1743   1.366   2.862   0.364 -1.3339 -0.9180 -0.6057
  436SOL     MW 1744   1.406   2.784   0.352  0.3893 -0.3647 -0.4690
  437SOL     OW 1745   0.877   3.093   1.310  0.0814 -0.2812 -0.0313
  437SOL    HW1 1746   0.937   3.132   1.241  0.8260  1.1648  0.8369
  437SOL    HW2 1747   0.867   3.005   1.280 -0.7419 -1.3889 -0.4391
  437SOL     MW 1748   0.884   3.086   1.297  0.0710 -0.2365  0.0295
  438SOL     OW 1749   0.830   2.689   2.042 -0.1528  0.0985  0.2889
  438SOL    HW1 1750   0.862   2.601   2.070 -0.8296  1.0741  0.5513
  438SOL    HW2 1751   0.762   2.663   1.976 -3.3770 -2.0711 -0.0333
  438SOL     MW 1752   0.825   2.674   2.037 -0.6675 -0.0591  0.2810
  439SOL     OW 1753   1.198   2.083   0.402  0.9160  0.2757 -0.1030
  439SOL    HW1 1754   1.163   2.099   0.488  0.4213 -1.1649  0.8545
  439SOL    HW2 1755   1.180   2.164   0.356 -0.3906 -1.8459  1.2538
  439SOL     MW 1756   1.191   2.096   0.407  0.6783 -0.1943  0.2023
  440SOL     OW 1757   1.833   2.752   3.056  0.3237  0.4626  0.3374
  440SOL    HW1 1758   1.794   2.772   3.144  0.9610 -0.8969 -1.8092
  440SOL    HW2 1759   1.886   2.823   3.030  1.8141 -0.0178  0.7626
  440SOL     MW 1760   1.835   2.764   3.064  0.6044  0.2198  0.1103
  441SOL     OW 1761   0.499   2.714   0.471  0.0415  0.3957  0.2036
  441SOL    HW1 1762   0.463   2.668   0.393  1.1333 -0.3786  2.0401
  441SOL    HW2 1763   0.510   2.810   0.438 -1.3499  0.8509 -1.4770
  441SOL     MW 1764   0.495   2.721   0.457  0.0020  0.3536  0.2241
  442SOL     OW 1765   0.010   2.404   0.613 -0.1771 -0.9408 -0.4687
  442SOL    HW1 1766   0.022   2.495   0.608 -0.8341 -0.6097  2.2275
  442SOL    HW2 1767  -0.083   2.392   0.629 -0.1693 -1.4669 -0.4886
  442SOL     MW 1768  -0.001   2.415   0.614 -0.2628 -0.9665 -0.1156
  443SOL     OW 1769   1.474   1.757   1.940  0.1084 -0.6672  0.4151
  443SOL    HW1 1770   1.407   1.769   1.875 -1.2266  1.1926  2.2393
  443SOL    HW2 1771   1.460   1.663   1.970 -1.4618  1.8786  0.3520
  443SOL     MW 1772   1.463   1.746   1.936 -0.2749 -0.0859  0.6474
  444SOL     OW 1773   0.869   2.584   1.636 -0.2983  0.1038  0.3212
  444SOL    HW1 1774   0.953   2.544   1.662  0.3904 -0.2811 -0.7599
  444SOL    HW2 1775   0.811   2.563   1.712  0.7797  0.4342  0.8611
  444SOL     MW 1776   0.873   2.576   1.650 -0.0652  0.0966  0.2498
  445SOL     OW 1777   1.200   0.091   1.436  0.8414  0.0191  0.3596
  445SOL    HW1 1778   1.118   0.136   1.449  1.7185  0.3888 -0.0929
  445SOL    HW2 1779   1.243   0.156   1.380 -0.5449  1.8842  0.4434
  445SOL     MW 1780   1.195   0.106   1.430  0.7742  0.3140  0.3110
  446SOL     OW 1781   2.677   2.806   1.044 -0.1679  0.2728 -0.4788
  446SOL    HW1 1782   2.660   2.861   0.963  1.8186 -0.3730 -3.1632
  446SOL    HW2 1783   2.728   2.735   1.008 -0.3980 -1.1488 -0.9574
  446SOL     MW 1784   2.681   2.804   1.029  0.0638  0.0000 -0.8961
  447SOL     OW 1785   0.057   1.961   1.587 -0.1202  0.0535  0.3609
  447SOL    HW1 1786   0.098   1.882   1.632  0.8568  1.1261  1.7705
  447SOL    HW2 1787  -0.023   1.929   1.540 -2.6006 -2.2403 -2.7475
  447SOL     MW 1788   0.052   1.946   1.587 -0.3185 -0.1076  0.1367
  448SOL     OW 1789   1.734   2.375   1.682  0.9779 -0.0349  0.1892
  448SOL    HW1 1790   1.682   2.295   1.693 -1.2088  1.6737  0.0115
  448SOL    HW2 1791   1.667   2.445   1.696  3.8158  0.7803  1.8907
  448SOL     MW 1792   1.718   2.373   1.685  1.0639  0.2981  0.3902
  449SOL     OW 1793   0.926   2.908   0.380 -0.2864 -0.0541  0.3907
  449SOL    HW1 1794   0.872   2.889   0.300  0.0624  1.4491 -0.6441
  449SOL    HW2 1795   0.868   2.959   0.435  1.8648  1.4818 -2.1239
  449SOL     MW 1796   0.912   2.912   0.377  0.0435  0.3469 -0.0776
  450SOL     OW 1797   1.216   2.479   0.746  0.7458  0.6026  0.0901
  450SOL    HW1 1798   1.242   2.438   0.829 -0.3980 -2.1526  1.7989
  450SOL    HW2 1799   1.294   2.461   0.682 -0.3034  0.1003  0.1679
  450SOL     MW 1800   1.230   2.471   0.748  0.4564  0.1728  0.3258
  451SOL     OW 1801   0.572   2.026   1.665  0.7617  0.0645 -0.4456
  451SOL    HW1 1802   0.657   2.017   1.627  1.0417  0.2881 -1.2941
  451SOL    HW2 1803   0.502   1.995   1.604  0.4113  1.6277 -1.4814
  451SOL     MW 1804   0.574   2.021   1.652  0.7524  0.3003 -0.6942
  452SOL     OW 1805   0.313   2.637   0.005  0.2827  0.0779 -0.0242
  452SOL    HW1 1806   0.403   2.646   0.041  0.8027 -1.3774  2.0145
  452SOL    HW2 1807   0.280   2.708  -0.043 -0.9349 -3.0722  0.4654
  452SOL     MW 1808   0.321   2.648   0.003  0.1907 -0.5297  0.3094
  453SOL     OW 1809   0.199   3.004   1.599  0.3108 -0.1216  0.4546
  453SOL    HW1 1810   0.208   2.924   1.649 -2.5197  0.1204  0.0007
  453SOL    HW2 1811   0.236   2.986   1.511  0.6759  2.3179 -0.6149
  453SOL     MW 1812   0.205   2.991   1.594 -0.0145  0.2322  0.2536
  454SOL     OW 1813   0.959   2.833   1.164  0.4788  0.3366 -0.0593
  454SOL    HW1 1814   0.917   2.757   1.204  0.7570  4.1269  0.6761
  454SOL    HW2 1815   0.893   2.872   1.101  0.0313  1.2943  0.0202
  454SOL     MW 1816   0.945   2.828   1.161  0.4564  0.9631  0.0482
  455SOL     OW 1817   1.743   2.816   0.207 -0.5027  0.1464  0.3584
  455SOL    HW1 1818   1.804   2.832   0.278 -2.7611  0.1152 -1.7291
  455SOL    HW2 1819   1.694   2.737   0.226 -0.3527  1.9107 -0.2203
  455SOL     MW 1820   1.745   2.808   0.219 -0.7809  0.3750  0.0067
  456SOL     OW 1821   2.798   0.226   1.443  0.2018 -0.0240 -0.1793
  456SOL    HW1 1822   2.776   0.174   1.364  1.8839  1.9050 -4.0624
  456SOL    HW2 1823   2.790   0.317   1.413 -0.2559  0.0513  2.7090
  456SOL     MW 1824   2.794   0.231   1.429  0.3634  0.2404 -0.3105
  457SOL     OW 1825   0.813   1.609   3.042 -0.4301 -0.5905  0.0165
  457SOL    HW1 1826   0.715   1.584   3.038 -1.4261 -0.5952  0.0845
  457SOL    HW2 1827   0.820   1.636   3.133 -0.4620 -0.0346 -0.8696
  457SOL     MW 1828   0.801   1.610   3.054 -0.5658 -0.5177 -0.0914
  458SOL     OW 1829   1.338   1.515   0.687  0.5028  0.0290 -0.2094
  458SOL    HW1 1830   1.256   1.550   0.712 -1.9483  0.2403  0.2381
  458SOL    HW2 1831   1.303   1.458   0.612 -0.6862 -0.3531 -1.3684
  458SOL     MW 1832   1.323   1.512   0.681  0.0225  0.0064 -0.3033
  459SOL     OW 1833   1.601   3.047   0.209 -0.4284 -0.0870 -0.4998
  459SOL    HW1 1834   1.636   2.959   0.213  0.4141  1.5066 -0.9415
  459SOL    HW2 1835   1.551   3.064   0.125  1.4179 -1.5392 -0.5694
  459SOL     MW 1836   1.599   3.038   0.199 -0.0736 -0.0684 -0.5673
  460SOL     OW 1837   1.753   2.245   0.654 -0.6829  0.2396  0.0004
  460SOL    HW1 1838   1.663   2.228   0.654  1.2602  1.3082 -1.1425
  460SOL    HW2 1839   1.799   2.164   0.642  1.5758  4.4201 -0.3170
  460SOL     MW 1840   1.747   2.232   0.652 -0.1285  0.9322 -0.1923
  461SOL     OW 1841   0.473   2.411   0.565  0.6028 -0.3541  0.6043
  461SOL    HW1 1842   0.502   2.494   0.537 -0.4108  0.1055 -0.6909
  461SOL    HW2 1843   0.463   2.427   0.659  0.8978  2.3553  2.1100
  461SOL     MW 1844   0.476   2.424   0.574  0.5080  0.0640  0.6321
  462SOL     OW 1845   0.339   0.244   1.273 -0.1201 -0.1066 -0.4277
  462SOL    HW1 1846   0.362   0.202   1.190  0.3783  1.9902  0.8114
  462SOL    HW2 1847   0.409   0.242   1.339  1.2427  2.9110 -2.0685
  462SOL     MW 1848   0.351   0.238   1.271  0.1255  0.5682 -0.4807
  463SOL     OW 1849   1.115   0.118   0.728  0.0594  0.2665 -0.0516
  463SOL    HW1 1850   1.183   0.054   0.710 -2.4280 -1.7506  1.2516
  463SOL    HW2 1851   1.033   0.100   0.677 -2.7228 -1.6307  0.4519
  463SOL     MW 1852   1.113   0.107   0.719 -0.6359 -0.2500  0.1868
  464SOL     OW 1853   0.727   3.059   2.321  0.3096  0.3916  0.2811
  464SOL    HW1 1854   0.690   2.967   2.336 -1.9044  0.8912 -1.9842
  464SOL    HW2 1855   0.721   3.108   2.401  0.7345  2.8612 -1.5166
  464SOL     MW 1856   0.721   3.053   2.333  0.0736  0.7834 -0.2550
  465SOL     OW 1857   0.862   0.325   0.424 -0.5481 -0.5019  0.7039
  465SOL    HW1 1858   0.820   0.251   0.474 -0.5219  0.8044  2.0475
  465SOL    HW2 1859   0.863   0.314   0.329  1.4553  0.9484  1.9633
  465SOL     MW 1860   0.856   0.314   0.418 -0.2803 -0.1382  1.0473
  466SOL     OW 1861   1.095   2.022   0.806 -0.7107 -0.7619  0.0713
  466SOL    HW1 1862   1.074   1.960   0.726 -2.6304 -1.4835 -0.6004
  466SOL    HW2 1863   1.104   2.117   0.773 -0.0255  0.4723 -3.8244
  466SOL     MW 1864   1.093   2.026   0.791 -0.8736 -0.6942 -0.5314
  467SOL     OW 1865   1.300   2.328   1.066  0.2662  0.0807  0.4190
  467SOL    HW1 1866   1.388   2.357   1.099 -1.8584 -0.3415  2.1420
  467SOL    HW2 1867   1.317   2.238   1.032 -1.6427 -1.1482  1.2355
  467SOL     MW 1868   1.314   2.320   1.066 -0.2660 -0.1371  0.7541
  468SOL     OW 1869   0.398   2.640   1.963 -0.3239 -0.7592 -0.0935
  468SOL    HW1 1870   0.410   2.574   1.901 -2.6651 -2.0645 -0.8049
  468SOL    HW2 1871   0.367   2.725   1.920 -2.1110  2.7984 -2.8518
  468SOL     MW 1872   0.396   2.642   1.950 -0.8685 -0.4620 -0.5513
  469SOL     OW 1873   0.343   2.180   1.778  0.3105 -0.2909 -0.2135
  469SOL    HW1 1874   0.273   2.127   1.806 -0.9672  0.8306 -2.2427
  469SOL    HW2 1875   0.420   2.121   1.756  0.8426  0.9170 -0.1779
  469SOL     MW 1876   0.344   2.165   1.779  0.2121  0.0164 -0.4766
  470SOL     OW 1877   3.055   2.606   0.114  0.7862  0.1640 -0.4753
  470SOL    HW1 1878   2.973   2.606   0.171 -1.7415 -0.0994  0.6740
  470SOL    HW2 1879   3.028   2.624   0.025 -1.6569 -0.2386 -0.2964
  470SOL     MW 1880   3.040   2.608   0.110  0.1303  0.0761 -0.3000
  471SOL     OW 1881   1.246   2.680   1.386  0.1509  0.0302  0.7754
  471SOL    HW1 1882   1.175   2.634   1.341  0.6844  1.4712  0.0316
  471SOL    HW2 1883   1.304   2.710   1.314 -2.6520 -0.8605 -2.3908
  471SOL     MW 1884   1.244   2.678   1.370 -0.1485  0.1028  0.2595
  472SOL     OW 1885   2.974   2.118   0.384 -0.2730 -0.2118  0.5799
  472SOL    HW1 1886   2.970   2.056   0.309  1.0770 -1.5683 -0.0962
  472SOL    HW2 1887   2.917   2.093   0.464  0.5090 -1.1495  0.1224
  472SOL     MW 1888   2.966   2.106   0.385  0.0083 -0.5145  0.4303
  473SOL     OW 1889   0.886   2.591   1.360  0.3310  0.6090  0.3428
  473SOL    HW1 1890   0.955   2.522   1.364 -0.8208 -0.5756 -2.3621
  473SOL    HW2 1891   0.874   2.604   1.458 -1.2456 -2.1340 -1.5215
  473SOL     MW 1892   0.894   2.584   1.373 -0.0290  0.0908 -0.2601
  474SOL     OW 1893   0.799   2.254   1.860  0.1963  0.0453  0.5134
  474SOL    HW1 1894   0.892   2.267   1.891 -0.7566  0.1153  1.8378
  474SOL    HW2 1895   0.811   2.245   1.760  3.2814 -0.2193 -1.8731
  474SOL     MW 1896   0.813   2.254   1.850  0.4776  0.0196  0.3733
  475SOL     OW 1897   1.592   3.092   1.555  0.3600  0.0434  0.4386
  475SOL    HW1 1898   1.520   3.049   1.500 -0.9491  0.3208 -2.0049
  475SOL    HW2 1899   1.648   3.015   1.568  1.1596 -0.0247  0.9518
  475SOL     MW 1900   1.590   3.076   1.550  0.2928  0.0710  0.1839
  476SOL     OW 1901   1.460   2.683   1.201  0.7703  0.4377 -0.3188
  476SOL    HW1 1902   1.414   2.695   1.118  3.2860 -1.7718  0.5273
  476SOL    HW2 1903   1.530   2.748   1.209 -0.6576 -0.4004 -1.2011
  476SOL     MW 1904   1.463   2.693   1.191  0.9138  0.0356 -0.3236
  477SOL     OW 1905   0.878   2.457   0.678  0.9998 -0.0722  1.1171
  477SOL    HW1 1906   0.948   2.516   0.646 -1.5993  1.2125  1.3314
  477SOL    HW2 1907   0.850   2.407   0.602 -0.7405  1.3762  1.3996
  477SOL     MW 1908   0.883   2.458   0.664  0.4272  0.2884  1.1827
  478SOL     OW 1909   0.159   2.683   0.835 -0.5076 -0.1769 -0.3368
  478SOL    HW1 1910   0.214   2.762   0.849 -1.2698  2.5746  0.2013
  478SOL    HW2 1911   0.218   2.610   0.822 -0.8292  0.7468  0.7339
  478SOL     MW 1912   0.174   2.683   0.835 -0.6506  0.3080 -0.1245
  479SOL     OW 1913   1.399   1.982   1.304 -0.0295 -0.0304  0.3383
  479SOL    HW1 1914   1.378   1.996   1.398  1.9862  0.0780  0.1690
  479SOL    HW2 1915   1.445   1.900   1.292 -2.8826  1.5374 -0.9893
  479SOL     MW 1916   1.403   1.973   1.315 -0.1400  0.1907  0.1408
  480SOL     OW 1917   1.897   2.456   1.343  0.0667 -0.0522 -0.5199
  480SOL    HW1 1918   1.962   2.414   1.398  2.1646  0.8923  3.3624
  480SOL    HW2 1919   1.923   2.446   1.251  0.0427 -2.0656  0.6172
  480SOL     MW 1920   1.909   2.449   1.338  0.3403 -0.1932  0.1423
  481SOL     OW 1921   1.062   0.065   1.101 -0.9552 -0.0487 -0.1715
  481SOL    HW1 1922   1.036  -0.001   1.034 -1.8912 -0.5717 -0.0109
  481SOL    HW2 1923   1.157   0.074   1.094  0.5587 -1.2579  1.2234
  481SOL     MW 1924   1.071   0.058   1.091 -0.8790 -0.2773  0.0337
  482SOL     OW 1925   1.119   3.075   0.259  0.7334 -0.7725  0.3665
  482SOL    HW1 1926   1.053   3.018   0.295 -0.4383 -1.2732 -0.9753
  482SOL    HW2 1927   1.108   3.167   0.299  3.6212  0.6153 -1.0833
  482SOL     MW 1928   1.109   3.080   0.269  0.9598 -0.6554 -0.0018
  483SOL     OW 1929   0.514   3.010   0.404  0.0769 -0.5871 -0.2847
  483SOL    HW1 1930   0.429   3.005   0.361 -0.0767 -0.1169  1.0112
  483SOL    HW2 1931   0.489   3.039   0.492  0.4453  2.4849 -2.3813
  483SOL     MW 1932   0.499   3.013   0.410  0.1052 -0.1197 -0.3903
  484SOL     OW 1933   1.890   2.036   1.460 -0.0633  0.1615  0.3113
  484SOL    HW1 1934   1.950   2.111   1.465  1.7648 -2.1655  1.1466
  484SOL    HW2 1935   1.859   2.005   1.546 -1.6884 -0.3360  1.9184
  484SOL     MW 1936   1.894   2.042   1.472 -0.0365 -0.2112  0.6335
  485SOL     OW 1937   0.613   2.416   0.246 -0.7430 -0.2374  0.0755
  485SOL    HW1 1938   0.648   2.376   0.322  0.3151  1.2889 -2.1361
  485SOL    HW2 1939   0.555   2.489   0.272  0.1292 -0.6042  2.1385
  485SOL     MW 1940   0.610   2.420   0.259 -0.4883 -0.0844  0.0559
  486SOL     OW 1941   0.138   2.413   1.460 -0.3576  0.3269 -0.2870
  486SOL    HW1 1942   0.113   2.508   1.455 -2.2219  0.5412 -1.2875
  486SOL    HW2 1943   0.150   2.387   1.554  1.4862  3.0440  1.0521
  486SOL     MW 1944   0.136   2.422   1.472 -0.3603  0.7137 -0.2423
  487SOL     OW 1945   1.124   1.738   1.058 -0.5608  0.4371 -0.0244
  487SOL    HW1 1946   1.138   1.819   1.096  0.4735 -2.9124 -1.0196
  487SOL    HW2 1947   1.214   1.708   1.044  0.4011  0.5467  0.4960
  487SOL     MW 1948   1.138   1.745   1.061 -0.2974  0.0097 -0.0871
  488SOL     OW 1949   1.636   1.887   0.484 -0.0233  0.0526  0.1880
  488SOL    HW1 1950   1.688   1.871   0.397  1.2104  2.3394 -0.5762
  488SOL    HW2 1951   1.565   1.952   0.459 -0.4247 -0.9459 -0.4066
  488SOL     MW 1952   1.633   1.893   0.469  0.0865  0.2226  0.0087
  489SOL     OW 1953   0.778   0.800   0.594  0.0907 -0.7505 -0.0053
  489SOL    HW1 1954   0.791   0.717   0.548  1.1095  2.7710 -0.7358
  489SOL    HW2 1955   0.776   0.778   0.692 -1.9868 -0.4487 -2.5173
  489SOL     MW 1956   0.779   0.786   0.601 -0.0490 -0.2461 -0.4332
  490SOL     OW 1957   1.468   2.084   0.455  0.1329 -0.0148  0.0832
  490SOL    HW1 1958   1.499   2.171   0.430  0.8487 -1.9872  2.3833
  490SOL    HW2 1959   1.374   2.069   0.422 -0.3700 -0.9991 -2.8760
  490SOL     MW 1960   1.459   2.094   0.447  0.1610 -0.4049 -0.0038
  491SOL     OW 1961   1.320   3.019   0.435 -0.0406 -0.2309 -0.4737
  491SOL    HW1 1962   1.406   3.072   0.421  0.0870  3.0440 -0.6425
  491SOL    HW2 1963   1.249   3.067   0.390 -1.1735 -2.2469 -1.0548
  491SOL     MW 1964   1.322   3.032   0.427 -0.1732 -0.0648 -0.5726
  492SOL     OW 1965   1.487   2.183   0.702  0.3602 -0.1591 -0.2876
  492SOL    HW1 1966   1.471   2.152   0.604  0.2593  1.2571 -2.4356
  492SOL    HW2 1967   1.449   2.123   0.763 -1.4890 -0.3689  0.0997
  492SOL     MW 1968   1.480   2.171   0.697  0.1029  0.0001 -0.5199
  493SOL     OW 1969   0.285   2.971   0.267 -0.3959  0.1716  0.3295
  493SOL    HW1 1970   0.228   2.998   0.341  2.2908  2.2656 -0.3708
  493SOL    HW2 1971   0.283   3.039   0.199 -0.4770 -0.4776  1.5782
  493SOL     MW 1972   0.277   2.984   0.268 -0.0521  0.3622  0.4019
  494SOL     OW 1973   0.452   2.457   1.743  0.8158  0.3007  0.2261
  494SOL    HW1 1974   0.426   2.363   1.736 -2.1736  1.2804  2.1159
  494SOL    HW2 1975   0.456   2.479   1.641 -1.3107 -0.1623 -3.3990
  494SOL     MW 1976   0.449   2.447   1.729  0.1408  0.3689 -0.0029
  495SOL     OW 1977   2.822   1.751   2.572  0.3996  0.0114  0.4058
  495SOL    HW1 1978   2.855   1.846   2.563  1.8593  0.0906 -1.6937
  495SOL    HW2 1979   2.803   1.730   2.663  0.3345 -0.4930 -3.5157
  495SOL     MW 1980   2.824   1.761   2.583  0.5836 -0.0447 -0.3886
  496SOL     OW 1981   2.885   2.361   2.634  0.2145  0.3478 -0.0944
  496SOL    HW1 1982   2.911   2.290   2.687 -1.1506  0.8346  0.2416
  496SOL    HW2 1983   2.945   2.431   2.663 -0.7040 -0.5737  0.8700
  496SOL     MW 1984   2.896   2.361   2.644 -0.0868  0.2904  0.0772
  497SOL     OW 1985   1.549   2.240   2.682  0.0728  0.2571 -0.1235
  497SOL    HW1 1986   1.523   2.199   2.601  0.3781  0.2588  1.4920
  497SOL    HW2 1987   1.579   2.169   2.737 -2.4595  3.2622  2.7902
  497SOL     MW 1988   1.550   2.225   2.679 -0.2210  0.6538  0.4741
  498SOL     OW 1989   1.453   2.658   2.371 -0.0705 -0.0807  0.6034
  498SOL    HW1 1990   1.454   2.560   2.364  2.3654  1.6177  2.0985
  498SOL    HW2 1991   1.539   2.683   2.402 -1.3307  1.4837 -0.5831
  498SOL     MW 1992   1.464   2.649   2.374  0.0846  0.3498  0.6441
  499SOL     OW 1993   0.982   0.173   3.062 -0.5176  0.7563 -0.3136
  499SOL    HW1 1994   0.915   0.197   3.127 -2.3792  1.5449 -0.9062
  499SOL    HW2 1995   1.038   0.102   3.089  3.6140  1.1798  1.0646
  499SOL     MW 1996   0.980   0.167   3.074 -0.2181  0.9162 -0.2099
  500SOL     OW 1997   1.008   2.528   2.777  0.0195 -0.0900 -0.0207
  500SOL    HW1 1998   1.074   2.518   2.849 -0.5792 -2.1861  0.8076
  500SOL    HW2 1999   0.922   2.512   2.825  0.7726 -1.1651  2.0045
  500SOL     MW 2000   1.005   2.524   2.793  0.0399 -0.5084  0.3558
  501SOL     OW 2001   1.753   2.185   3.046 -0.0343  0.2600 -0.8204
  501SOL    HW1 2002   1.717   2.266   3.007  0.9410  0.1277 -1.2459
  501SOL    HW2 2003   1.841   2.197   3.070  0.4854  0.6538  0.4010
  501SOL     MW 2004   1.760   2.198   3.044  0.1630  0.2945 -0.7154
  502SOL     OW 2005   0.108   2.792   2.942 -0.3944 -0.2614 -0.1444
  502SOL    HW1 2006   0.025   2.745   2.926 -1.2559 -2.3342  2.7976
  502SOL    HW2 2007   0.134   2.837   2.858  0.2574  0.2377  1.7301
  502SOL     MW 2008   0.100   2.792   2.929 -0.4221 -0.4690  0.4911
  503SOL     OW 2009   1.096   2.940   2.180  0.4345  0.0490  0.1423
  503SOL    HW1 2010   1.071   2.880   2.110  2.0948  0.7505  1.4283
  503SOL    HW2 2011   1.043   3.015   2.170  0.1087 -1.9194 -2.2907
  503SOL     MW 2012   1.086   2.942   2.169  0.6105 -0.1181 -0.0090
  504SOL     OW 2013   0.118   2.711   2.095 -0.5537  0.5109 -0.3444
  504SOL    HW1 2014   0.191   2.653   2.084  0.9081 -0.6564 -1.8745
  504SOL    HW2 2015   0.044   2.665   2.062  0.8387 -3.9972 -2.2932
  504SOL     MW 2016   0.118   2.697   2.090 -0.1771 -0.2379 -0.8034
  505SOL     OW 2017   1.719   2.675   2.714 -0.0313 -0.2718  0.2045
  505SOL    HW1 2018   1.685   2.696   2.630 -2.3484  0.5607  2.4282
  505SOL    HW2 2019   1.645   2.672   2.774  2.3366 -2.3970  0.0878
  505SOL     MW 2020   1.705   2.677   2.711 -0.0246 -0.4423  0.4825
  506SOL     OW 2021   1.690   3.023   2.858  0.4716  0.1895 -0.5861
  506SOL    HW1 2022   1.739   2.953   2.900  0.0490  0.4305  0.8564
  506SOL    HW2 2023   1.738   3.035   2.774  1.5100 -0.9606 -0.0117
  506SOL     MW 2024   1.702   3.016   2.852  0.5529  0.0695 -0.3200
  507SOL     OW 2025   0.785   2.876   2.919 -0.4829  0.4581 -0.2903
  507SOL    HW1 2026   0.827   2.907   2.834  1.6233 -0.6278 -1.9931
  507SOL    HW2 2027   0.712   2.931   2.924  1.3903 -0.1765 -1.0594
  507SOL     MW 2028   0.781   2.887   2.909  0.0421  0.2311 -0.6165
  508SOL     OW 2029   1.123   2.069   2.438  0.3467 -0.1236  0.0936
  508SOL    HW1 2030   1.195   2.085   2.504 -0.2826  0.6844 -0.4698
  508SOL    HW2 2031   1.081   2.153   2.434  5.1865 -0.5921  0.2911
  508SOL     MW 2032   1.127   2.082   2.446  0.9022 -0.0788  0.0454
  509SOL     OW 2033   0.569   2.577   2.903  0.0755  0.1842  0.4236
  509SOL    HW1 2034   0.616   2.613   2.827 -2.8959  0.2784 -1.2401
  509SOL    HW2 2035   0.479   2.555   2.888  0.8020  1.0422  1.5190
  509SOL     MW 2036   0.563   2.579   2.891 -0.2207  0.3099  0.3486
  510SOL     OW 2037   1.485   2.506   1.739  0.1695  0.3395  0.7414
  510SOL    HW1 2038   1.495   2.602   1.737 -1.0404  0.2029 -0.3411
  510SOL    HW2 2039   1.418   2.490   1.802 -0.5037  0.9434 -1.2151
  510SOL     MW 2040   1.478   2.517   1.747 -0.0790  0.4011  0.3404
  511SOL     OW 2041   0.425   2.633   2.492  0.0858  0.4619  0.0683
  511SOL    HW1 2042   0.505   2.588   2.510 -0.6405 -0.4702 -0.0202
  511SOL    HW2 2043   0.425   2.630   2.389  1.5731 -0.9018 -0.4316
  511SOL     MW 2044   0.435   2.626   2.480  0.1862  0.1590 -0.0093
  512SOL     OW 2045   1.009   1.916   2.811  0.7204 -0.0440  0.1274
  512SOL    HW1 2046   0.922   1.894   2.844  1.2834  0.7523  2.0754
  512SOL    HW2 2047   1.058   1.837   2.835 -1.5602 -1.7095  0.2966
  512SOL     MW 2048   1.004   1.903   2.819  0.4938 -0.1587  0.4068
  513SOL     OW 2049   1.497   2.390   2.366  0.6524 -0.3519 -0.1501
  513SOL    HW1 2050   1.555   2.416   2.438  2.4100 -2.3009  1.2888
  513SOL    HW2 2051   1.510   2.295   2.357  0.0013 -2.1976  2.2868
  513SOL     MW 2052   1.506   2.381   2.375  0.7984 -0.8526  0.3613
  514SOL     OW 2053   0.241   2.414   2.636  0.4732  0.7299  0.6294
  514SOL    HW1 2054   0.303   2.466   2.585  1.2108 -0.2451 -0.2173
  514SOL    HW2 2055   0.266   2.433   2.724 -0.0731 -1.3947 -0.9823
  514SOL     MW 2056   0.253   2.423   2.641  0.4985  0.3210  0.3051
  515SOL     OW 2057   1.199   2.049   1.927  0.0908 -0.2587  0.2743
  515SOL    HW1 2058   1.152   2.129   1.892 -1.4020  0.7626  0.2235
  515SOL    HW2 2059   1.173   2.041   2.024  1.2660  0.4881  1.3322
  515SOL     MW 2060   1.189   2.059   1.935  0.0489 -0.0254  0.4072
  516SOL     OW 2061   1.432   2.476   3.045  0.1906  0.1826  0.3959
  516SOL    HW1 2062   1.507   2.474   2.980 -0.2306  0.1532  0.9703
  516SOL    HW2 2063   1.349   2.490   2.996  1.1688 -2.3597  0.8971
  516SOL     MW 2064   1.431   2.478   3.030  0.2641 -0.1567  0.5378
  517SOL     OW 2065   0.585   2.409   2.079 -0.6378 -0.6009 -0.0941
  517SOL    HW1 2066   0.584   2.497   2.040 -1.3744  1.8617 -3.3738
  517SOL    HW2 2067   0.489   2.378   2.070 -1.1399  2.4322  1.4033
  517SOL     MW 2068   0.572   2.417   2.072 -0.8012  0.1242 -0.3292
  518SOL     OW 2069   1.914   0.101   3.018  0.3473  0.6530  0.3281
  518SOL    HW1 2070   1.872   0.159   2.951  3.8940 -0.9613 -0.4361
  518SOL    HW2 2071   1.851   0.093   3.094 -2.1148  1.1491 -1.6515
  518SOL     MW 2072   1.900   0.107   3.019  0.4904  0.5055 -0.0339
  519SOL     OW 2073   0.701   2.516   1.849 -0.2578 -0.4189  0.2357
  519SOL    HW1 2074   0.722   2.424   1.890 -3.2011  1.9456 -0.0936
  519SOL    HW2 2075   0.612   2.496   1.810  1.7334 -1.3071  3.1518
  519SOL     MW 2076   0.692   2.501   1.849 -0.3835 -0.2241  0.5770
  520SOL     OW 2077   1.161   2.153   2.903 -0.1240 -0.3926  0.2939
  520SOL    HW1 2078   1.104   2.082   2.878  0.6604 -0.1155  0.1180
  520SOL    HW2 2079   1.202   2.115   2.979 -2.4686  1.0136 -1.8013
  520SOL     MW 2080   1.159   2.138   2.910 -0.3298 -0.1705 -0.0057
  521SOL     OW 2081   1.790   1.958   2.240  0.1104 -0.3404 -0.0561
  521SOL    HW1 2082   1.800   1.990   2.153 -3.1669 -0.5953  0.1706
  521SOL    HW2 2083   1.760   1.870   2.224  0.6806  1.8703 -0.0211
  521SOL     MW 2084   1.787   1.950   2.227 -0.2468 -0.0823 -0.0216
  522SOL     OW 2085   2.869   2.606   2.223 -0.2678  0.2448 -0.5899
  522SOL    HW1 2086   2.949   2.549   2.241 -2.2489 -0.0130  0.3283
  522SOL    HW2 2087   2.840   2.615   2.314  0.3686 -0.6075 -0.7813
  522SOL     MW 2088   2.876   2.600   2.237 -0.4452  0.0984 -0.4940
  523SOL     OW 2089   0.825   1.522   2.099 -0.1837  0.2201  0.3220
  523SOL    HW1 2090   0.808   1.581   2.025  1.0892 -0.0320  0.6116
  523SOL    HW2 2091   0.876   1.448   2.067 -2.4438 -0.2658  1.4934
  523SOL     MW 2092   0.830   1.520   2.085 -0.3140  0.1227  0.5148
  524SOL     OW 2093   0.806   2.422   2.940 -0.3161  0.0442 -0.2491
  524SOL    HW1 2094   0.709   2.425   2.948 -1.8987 -0.4095  1.5267
  524SOL    HW2 2095   0.813   2.328   2.937 -4.1871  1.3973 -2.8257
  524SOL     MW 2096   0.794   2.410   2.941 -1.0356  0.1629 -0.3547
  525SOL     OW 2097   0.342   2.294   2.030  0.1861  1.3339  0.4979
  525SOL    HW1 2098   0.326   2.261   2.116  1.5681 -0.2612 -1.3591
  525SOL    HW2 2099   0.328   2.214   1.972  3.2981 -0.3891 -0.1167
  525SOL     MW 2100   0.338   2.279   2.034  0.7791  0.8961  0.1718
  526SOL     OW 2101   0.657   2.129   2.056 -0.0432  0.3769 -1.0747
  526SOL    HW1 2102   0.725   2.136   1.987 -0.5537 -0.6434 -0.7594
  526SOL    HW2 2103   0.628   2.218   2.065 -0.2955  0.6982  0.9009
  526SOL     MW 2104   0.662   2.142   2.048 -0.1439  0.2847 -0.7725
  527SOL     OW 2105   1.388   1.949   2.152 -0.2245 -0.7997 -0.2715
  527SOL    HW1 2106   1.322   1.910   2.212  0.2184 -1.9770  2.0819
  527SOL    HW2 2107   1.417   1.877   2.101 -0.6968 -0.3764  0.8378
  527SOL     MW 2108   1.383   1.935   2.153 -0.2284 -0.8992  0.1854
  528SOL     OW 2109   0.589   3.070   2.920  0.2321 -0.6176 -0.4842
  528SOL    HW1 2110   0.669   3.117   2.890  0.1352 -0.2909  0.5782
  528SOL    HW2 2111   0.538   3.066   2.838 -0.8997  4.6099  1.2569
  528SOL     MW 2112   0.592   3.076   2.905  0.0700  0.1152 -0.1143
  529SOL     OW 2113   1.054   2.294   1.936  0.3929 -0.5033 -0.2549
  529SOL    HW1 2114   1.054   2.311   2.031  0.7740 -0.2370 -1.9500
  529SOL    HW2 2115   1.063   2.378   1.886 -0.9763 -0.0100  1.3686
  529SOL     MW 2116   1.055   2.307   1.942  0.2625 -0.4031 -0.2643
  530SOL     OW 2117   1.170   2.442   2.978 -0.0222  0.1544 -0.5287
  530SOL    HW1 2118   1.121   2.453   3.064 -0.4591 -0.1067  0.7926
  530SOL    HW2 2119   1.170   2.350   2.947 -0.0482 -0.2758 -1.2757
  530SOL     MW 2120   1.164   2.431   2.985 -0.0833  0.0632 -0.4530
  531SOL     OW 2121   0.975   1.884   2.542  1.0341  0.2707  0.2421
  531SOL    HW1 2122   1.030   1.947   2.497 -1.8383  0.6098 -0.3442
  531SOL    HW2 2123   0.983   1.900   2.639 -0.5920  0.8388  3.7583
  531SOL     MW 2124   0.984   1.894   2.549  0.4406  0.3904  0.6286
  532SOL     OW 2125   1.803   0.252   2.823  0.0905  0.8966  0.0841
  532SOL    HW1 2126   1.751   0.237   2.750 -1.0628  0.9657  2.6289
  532SOL    HW2 2127   1.891   0.279   2.789 -0.1768  4.6859 -0.1598
  532SOL     MW 2128   1.808   0.254   2.809 -0.0969  1.4057  0.3877
  533SOL     OW 2129   1.960   2.527   3.086 -0.3236  0.0339 -0.2001
  533SOL    HW1 2130   1.908   2.462   3.133 -0.2908  0.6873 -0.3507
  533SOL    HW2 2131   1.901   2.602   3.073 -0.9798 -1.0912 -2.6277
  533SOL     MW 2132   1.945   2.529   3.091 -0.4059 -0.0283 -0.5403
  534SOL     OW 2133   1.713   2.414   2.557  0.2905  0.6468  0.1656
  534SOL    HW1 2134   1.664   2.348   2.605  1.6890  0.4482  0.8209
  534SOL    HW2 2135   1.797   2.438   2.590  0.1852  0.7958 -0.4034
  534SOL     MW 2136   1.717   2.409   2.567  0.4611  0.6402  0.1770
  535SOL     OW 2137   1.870   2.320   1.912  0.0126  0.1379  0.5629
  535SOL    HW1 2138   1.841   2.332   1.817 -1.9710 -2.5323  2.3994
  535SOL    HW2 2139   1.964   2.327   1.902 -1.5714 -2.5653  1.9575
  535SOL     MW 2140   1.878   2.322   1.898 -0.4581 -0.5710  0.9892
  536SOL     OW 2141   0.477   1.894   2.120 -0.0899  0.0989  0.3466
  536SOL    HW1 2142   0.462   1.852   2.035 -1.2081 -0.0605 -1.4843
  536SOL    HW2 2143   0.521   1.975   2.098 -1.1504  1.1745 -0.9592
  536SOL     MW 2144   0.481   1.899   2.106 -0.3774  0.2198 -0.0673
  537SOL     OW 2145   1.043   0.298   2.756  0.0768 -0.1701 -0.5718
  537SOL    HW1 2146   1.076   0.357   2.822  1.0043  1.4653  1.0701
  537SOL    HW2 2147   1.045   0.353   2.681 -1.3691  2.9161 -0.5881
  537SOL     MW 2148   1.048   0.313   2.755  0.0084  0.4529 -0.3573
  538SOL     OW 2149   1.438   0.078   0.013  0.3316  0.1811 -0.2134
  538SOL    HW1 2150   1.442   0.171  -0.008  0.8976  0.4465  1.1109
  538SOL    HW2 2151   1.359   0.037  -0.012  1.6520 -0.1757 -0.6597
  538SOL     MW 2152   1.428   0.085   0.007  0.5805  0.1691 -0.0976
  539SOL     OW 2153   0.709   2.833   2.584 -0.4077 -0.6607 -0.1757
  539SOL    HW1 2154   0.785   2.876   2.620 -0.3511 -2.2393  1.3985
  539SOL    HW2 2155   0.714   2.733   2.604 -0.3150 -1.7873 -0.7923
  539SOL     MW 2156   0.720   2.825   2.591 -0.3880 -1.0176 -0.0494
  540SOL     OW 2157   0.297   2.479   2.888 -0.0430  0.2927  0.3277
  540SOL    HW1 2158   0.286   2.527   2.969  2.1179 -0.0289  0.7689
  540SOL    HW2 2159   0.309   2.389   2.916  0.0600  0.9928  1.9158
  540SOL     MW 2160   0.297   2.473   2.902  0.2557  0.3426  0.5955
  541SOL     OW 2161   0.263   2.954   2.149 -0.5007  0.2001  0.8255
  541SOL    HW1 2162   0.207   2.877   2.162 -0.1967 -0.7163 -0.4724
  541SOL    HW2 2163   0.349   2.922   2.180  0.8482  0.5115 -0.4689
  541SOL     MW 2164   0.267   2.940   2.155 -0.2826  0.1203  0.4834
  542SOL     OW 2165   0.940   2.267   2.673  0.0584  0.5316  0.1752
  542SOL    HW1 2166   0.901   2.211   2.744 -1.4316  0.5903  1.7895
  542SOL    HW2 2167   0.962   2.351   2.710  0.3999 -0.3211  1.3871
  542SOL     MW 2168   0.938   2.271   2.687 -0.0932  0.4268  0.5481
  543SOL     OW 2169   1.646   2.461   2.873  0.3728 -0.3210  0.2412
  543SOL    HW1 2170   1.631   2.391   2.802 -0.2947 -1.1952  1.0022
  543SOL    HW2 2171   1.710   2.519   2.834  2.3006 -0.7707  1.3119
  543SOL     MW 2172   1.652   2.460   2.859  0.5391 -0.4957  0.4829
  544SOL     OW 2173   0.677   0.329   2.706  0.6024  0.2255 -0.6243
  544SOL    HW1 2174   0.597   0.314   2.749 -0.3805 -1.6471 -3.0075
  544SOL    HW2 2175   0.684   0.265   2.637  0.0690 -0.0627  1.4511
  544SOL     MW 2176   0.668   0.319   2.702  0.4024 -0.0596 -0.6649
  545SOL     OW 2177   1.540   2.108   2.393 -0.2457 -0.2311  0.1001
  545SOL    HW1 2178   1.496   2.077   2.317 -0.4635  1.8536 -1.7287
  545SOL    HW2 2179   1.635   2.092   2.366  0.7399 -1.7644 -0.5748
  545SOL     MW 2180   1.547   2.102   2.379 -0.1444 -0.1584 -0.2303
  546SOL     OW 2181   2.933   1.961   0.144  0.3716 -0.0976  0.0159
  546SOL    HW1 2182   2.915   2.038   0.091  1.4501 -2.6945 -1.3372
  546SOL    HW2 2183   3.027   1.942   0.128  2.1249  0.4832 -0.3245
  546SOL     MW 2184   2.943   1.969   0.135  0.7452 -0.3636 -0.2075
  547SOL     OW 2185   0.171   0.067   0.106 -0.0265 -0.3762  0.2408
  547SOL    HW1 2186   0.245   0.090   0.045 -0.2908  1.7389  0.8622
  547SOL    HW2 2187   0.103   0.037   0.051 -0.3454  1.8572 -0.2886
  547SOL     MW 2188   0.172   0.066   0.091 -0.1034  0.1975  0.2530
  548SOL     OW 2189   0.362   2.557   0.274 -0.2280 -0.8350  0.4658
  548SOL    HW1 2190   0.320   2.585   0.189 -0.1580 -0.7537 -0.1908
  548SOL    HW2 2191   0.321   2.478   0.299 -1.9084  3.5612  0.0645
  548SOL     MW 2192   0.351   2.550   0.266 -0.4404 -0.2442  0.3262
  549SOL     OW 2193   0.818   1.948   2.177  0.2637 -0.0534  0.8632
  549SOL    HW1 2194   0.751   2.012   2.154 -3.1047 -0.6016  1.3067
  549SOL    HW2 2195   0.777   1.919   2.259  0.1007 -1.3160 -0.3191
  549SOL     MW 2196   0.804   1.952   2.185 -0.2022 -0.2923  0.7658
  550SOL     OW 2197   1.771   1.658   2.503 -0.1791  0.2769 -0.0885
  550SOL    HW1 2198   1.770   1.678   2.404 -0.1949  0.5968 -3.4142
  550SOL    HW2 2199   1.759   1.750   2.537 -2.6142  0.3641 -3.8992
  550SOL     MW 2200   1.769   1.673   2.495 -0.5025  0.3306 -1.0301
  551SOL     OW 2201   0.918   2.226   0.231  0.1866 -0.0007 -0.0344
  551SOL    HW1 2202   1.006   2.255   0.225 -0.4715 -0.0417  1.8446
  551SOL    HW2 2203   0.906   2.167   0.150 -1.1653 -3.3671 -0.5173
  551SOL     MW 2204   0.928   2.222   0.220 -0.0786 -0.4502  0.1498
  552SOL     OW 2205   1.773   1.699   2.228 -0.1449 -0.5070  0.2635
  552SOL    HW1 2206   1.682   1.654   2.221 -2.3080  1.5681  1.6629
  552SOL    HW2 2207   1.844   1.661   2.171  0.9178  0.5411  0.7900
  552SOL     MW 2208   1.770   1.688   2.220 -0.2901 -0.0949  0.5176
  553SOL     OW 2209   1.263   2.266   1.619 -0.1788  0.3400 -0.2315
  553SOL    HW1 2210   1.301   2.180   1.618  1.7707  3.2236  2.5295
  553SOL    HW2 2211   1.319   2.322   1.556 -1.0581  0.0431 -0.0353
  553SOL     MW 2212   1.275   2.262   1.611 -0.0376  0.6813  0.1587
  554SOL     OW 2213   0.495   3.001   2.670 -0.1994  0.4293 -0.0005
  554SOL    HW1 2214   0.462   3.057   2.597 -3.0963  0.2000 -2.0349
  554SOL    HW2 2215   0.549   2.930   2.631 -0.4906  0.7690  2.9545
  554SOL     MW 2216   0.498   2.999   2.655 -0.6200  0.4439  0.1210
  555SOL     OW 2217   0.665   2.527   2.617  0.0903  0.0473 -0.4778
  555SOL    HW1 2218   0.625   2.434   2.627 -1.7199 -1.4682  0.1089
  555SOL    HW2 2219   0.740   2.508   2.562  0.9561 -0.9648  0.1160
  555SOL     MW 2220   0.670   2.512   2.611 -0.0343 -0.2862 -0.3221
  556SOL     OW 2221   1.048   1.809   0.067 -0.1423 -0.0776  0.3539
  556SOL    HW1 2222   1.066   1.755  -0.014 -3.2295 -1.0627 -0.2082
  556SOL    HW2 2223   1.126   1.809   0.120 -1.3321 -1.6046 -0.8096
  556SOL     MW 2224   1.061   1.802   0.063 -0.7066 -0.4090  0.1262
  557SOL     OW 2225   1.041   2.689   0.557 -0.2460 -0.1035 -0.1191
  557SOL    HW1 2226   1.101   2.654   0.495 -1.2518 -0.6705 -0.0618
  557SOL    HW2 2227   0.990   2.754   0.497 -2.8100  1.0363 -1.3815
  557SOL     MW 2228   1.042   2.693   0.541 -0.7170 -0.0279 -0.2781
  558SOL     OW 2229   0.169   2.215   3.006 -0.2837 -0.0172  0.0697
  558SOL    HW1 2230   0.110   2.138   3.007 -0.6014  0.2839 -0.0654
  558SOL    HW2 2231   0.137   2.262   3.089 -2.3421  2.3521  2.1657
  558SOL     MW 2232   0.157   2.211   3.017 -0.5972  0.3351  0.3284
  559SOL     OW 2233   1.075   2.272   2.214 -0.5308  0.0880 -0.5877
  559SOL    HW1 2234   1.168   2.287   2.187  0.0663  0.1751 -4.8893
  559SOL    HW2 2235   1.078   2.176   2.221 -1.3568 -0.3248  0.1773
  559SOL     MW 2236   1.088   2.261   2.211 -0.5610  0.0450 -1.0544
  560SOL     OW 2237   2.150   2.644   0.160 -0.1318  0.0627  0.1778
  560SOL    HW1 2238   2.172   2.721   0.108 -2.0003 -1.8965 -0.3217
  560SOL    HW2 2239   2.103   2.588   0.099  0.6846  0.5221  0.7896
  560SOL     MW 2240   2.147   2.647   0.145 -0.2706 -0.1352  0.1926
  561SOL     OW 2241   0.480   2.202   0.142 -0.7058 -0.0752 -0.1366
  561SOL    HW1 2242   0.453   2.213   0.050  3.2719 -4.8585 -1.9002
  561SOL    HW2 2243   0.534   2.280   0.174 -1.3807  1.4842 -0.0302
  561SOL     MW 2244   0.483   2.214   0.134 -0.2700 -0.5006 -0.3552
  562SOL     OW 2245   0.627   2.375   2.335 -0.4197  0.3130  0.1187
  562SOL    HW1 2246   0.612   2.427   2.248  0.7630  3.2844 -0.4760
  562SOL    HW2 2247   0.717   2.408   2.360 -0.8900  0.9909 -2.1261
  562SOL     MW 2248   0.637   2.386   2.327 -0.3257  0.7945 -0.2560
  563SOL     OW 2249   1.248   0.350   0.574  0.1710  0.3317 -0.5783
  563SOL    HW1 2250   1.191   0.291   0.526 -0.3332 -2.6275 -1.9533
  563SOL    HW2 2251   1.225   0.367   0.671 -2.3536 -1.3517 -0.0003
  563SOL     MW 2252   1.237   0.345   0.580 -0.2286 -0.2808 -0.6835
  564SOL     OW 2253   0.986   2.739   2.349  0.4933 -0.3236 -0.0117
  564SOL    HW1 2254   1.048   2.803   2.305  1.5467  1.0756 -1.5355
  564SOL    HW2 2255   1.020   2.729   2.448  2.3991  1.5515 -0.9353
  564SOL     MW 2256   0.999   2.746   2.357  0.8837  0.1084 -0.3346
  565SOL     OW 2257   2.776   2.728   2.615  1.1551 -0.5380  0.0527
  565SOL    HW1 2258   2.771   2.821   2.592 -1.0209  0.2550  1.2224
  565SOL    HW2 2259   2.728   2.693   2.533 -5.0600 -0.3801 -2.3578
  565SOL     MW 2260   2.769   2.736   2.601  0.0480 -0.4125 -0.1110
  566SOL     OW 2261   2.167   1.895   2.332  0.1208 -0.1796 -0.3969
  566SOL    HW1 2262   2.151   1.853   2.250 -1.7614  0.3541 -3.1269
  566SOL    HW2 2263   2.235   1.968   2.318 -0.8267 -0.2661 -0.3022
  566SOL     MW 2264   2.174   1.899   2.319 -0.2525 -0.1206 -0.7446
  567SOL     OW 2265   1.173   3.069   3.080 -0.0509 -0.5416 -0.0509
  567SOL    HW1 2266   1.162   3.078   3.176  1.0121  0.5678 -2.0479
  567SOL    HW2 2267   1.216   2.981   3.067  2.0361 -2.1836  1.5145
  567SOL     MW 2268   1.177   3.058   3.091  0.3647 -0.6119 -0.1079
  568SOL     OW 2269   1.646   2.029   2.840 -0.3064 -0.2907 -0.4782
  568SOL    HW1 2270   1.714   2.049   2.904 -0.7917 -0.2354  0.0742
  568SOL    HW2 2271   1.684   1.973   2.771 -1.3853  1.6074  0.2625
  568SOL     MW 2272   1.660   2.024   2.840 -0.5128 -0.0330 -0.3076
  569SOL     OW 2273   0.105   2.248   2.435 -0.6258  0.1748  0.2111
  569SOL    HW1 2274   0.035   2.290   2.393 -2.8874 -4.6234 -0.4054
  569SOL    HW2 2275   0.158   2.318   2.466 -0.1477 -1.5690 -1.1914
  569SOL     MW 2276   0.103   2.263   2.434 -0.8611 -0.6883 -0.0553
  570SOL     OW 2277   1.514   0.336   0.454  0.0663  0.4067 -0.0020
  570SOL    HW1 2278   1.434   0.320   0.506  1.0299 -0.0578 -0.4323
  570SOL    HW2 2279   1.590   0.354   0.515 -0.2394  1.3755 -0.0415
  570SOL     MW 2280   1.514   0.336   0.469  0.1531  0.4733 -0.0640
  571SOL     OW 2281   1.316   2.313   2.133  0.4232 -0.1362  0.0389
  571SOL    HW1 2282   1.356   2.342   2.217  2.6460  0.1910  0.0891
  571SOL    HW2 2283   1.374   2.249   2.094 -0.7261  1.3079  1.1009
  571SOL     MW 2284   1.329   2.309   2.139  0.5648  0.0975  0.1856
  572SOL     OW 2285   1.067   2.568   0.125 -0.7115 -0.3260 -0.2123
  572SOL    HW1 2286   1.043   2.629   0.061  0.3437 -2.6309  3.4646
  572SOL    HW2 2287   0.978   2.524   0.139 -2.3885 -0.0684 -1.8578
  572SOL     MW 2288   1.052   2.570   0.118 -0.7935 -0.5961  0.0557
  573SOL     OW 2289   1.167   2.328   0.273 -0.7622 -0.2947 -0.4726
  573SOL    HW1 2290   1.239   2.338   0.208  0.9833 -0.2166 -1.3724
  573SOL    HW2 2291   1.171   2.406   0.331  1.7423 -0.0341 -1.8749
  573SOL     MW 2292   1.177   2.340   0.272 -0.2014 -0.2500 -0.7763
  574SOL     OW 2293   1.195   2.579   0.375  0.7658  0.2991 -0.2967
  574SOL    HW1 2294   1.257   2.649   0.368 -0.9988 -0.7648 -2.4140
  574SOL    HW2 2295   1.134   2.591   0.305  2.2328 -0.0540  0.9083
  574SOL     MW 2296   1.195   2.590   0.365  0.7266  0.1121 -0.4171
  575SOL     OW 2297   0.035   2.194   1.733 -0.4068 -0.3622  0.6316
  575SOL    HW1 2298   0.052   2.108   1.696 -2.3642 -0.3293 -0.3091
  575SOL    HW2 2299   0.069   2.186   1.821 -1.3438  0.0581  2.1234
  575SOL     MW 2300   0.042   2.181   1.740 -0.7887 -0.3024  0.7043
  576SOL     OW 2301   2.905   1.845   1.933  0.2100 -0.6472  0.0596
  576SOL    HW1 2302   2.941   1.934   1.910 -2.1964  0.7661  0.2433
  576SOL    HW2 2303   2.838   1.817   1.864  1.8774 -0.2046  2.1578
  576SOL     MW 2304   2.901   1.853   1.921  0.1125 -0.4023  0.3607
  577SOL     OW 2305   2.128   0.143   0.063  0.2204 -0.4526  0.1195
  577SOL    HW1 2306   2.055   0.132   0.000 -1.2300 -2.1192 -1.1311
  577SOL    HW2 2307   2.100   0.082   0.133  2.2537  1.4110 -0.3005
  577SOL     MW 2308   2.115   0.134   0.064  0.2973 -0.4266 -0.1009
  578SOL     OW 2309   1.984   2.098   2.366  0.3034  0.0003  0.0270
  578SOL    HW1 2310   1.916   2.062   2.315  0.1164 -1.4025 -0.9277
  578SOL    HW2 2311   2.048   2.018   2.355  4.7843 -0.1794  2.3087
  578SOL     MW 2312   1.983   2.083   2.358  0.8699 -0.2085  0.2021
  579SOL     OW 2313   0.880   2.448   2.469 -0.1743 -0.0822  0.3075
  579SOL    HW1 2314   0.905   2.373   2.531 -0.7830 -3.2067  3.4829
  579SOL    HW2 2315   0.954   2.464   2.408  1.7690 -0.1537  0.2552
  579SOL     MW 2316   0.893   2.440   2.469  0.0018 -0.5039  0.7196
  580SOL     OW 2317   0.977   2.812   0.010  0.0979  0.2366  0.7659
  580SOL    HW1 2318   1.046   2.860  -0.036  0.2125 -0.9173 -1.2447
  580SOL    HW2 2319   0.917   2.797  -0.077 -2.1259 -2.4426 -0.2547
  580SOL     MW 2320   0.978   2.816  -0.008 -0.1804 -0.2692  0.3659
  581SOL     OW 2321   1.119   2.471   1.736  0.0511  0.9290 -0.3275
  581SOL    HW1 2322   1.177   2.524   1.796  1.2622 -1.2612  0.1299
  581SOL    HW2 2323   1.171   2.399   1.698 -1.9488 -0.4986 -1.6120
  581SOL     MW 2324   1.134   2.469   1.739 -0.0530  0.4516 -0.4366
  582SOL     OW 2325   0.006   2.922   2.665  0.2226 -0.6061 -0.0872
  582SOL    HW1 2326  -0.067   2.973   2.704  1.1236 -2.2560 -2.8476
  582SOL    HW2 2327   0.081   2.985   2.665  2.4140 -0.8309  1.1857
  582SOL     MW 2328   0.006   2.937   2.670  0.6306 -0.8534 -0.2834
  583SOL     OW 2329   1.967   2.380   2.667  0.0681  0.2506  0.1225
  583SOL    HW1 2330   2.052   2.389   2.626 -0.6091  0.7039  0.4319
  583SOL    HW2 2331   1.955   2.282   2.671  0.3273 -1.4945  1.5313
  583SOL     MW 2332   1.977   2.369   2.662  0.0130  0.0801  0.3492
  584SOL     OW 2333   0.211   1.881   2.177  0.2445  0.4959  0.2642
  584SOL    HW1 2334   0.211   1.903   2.268 -3.1883 -1.0075 -2.9383
  584SOL    HW2 2335   0.302   1.889   2.146  0.3569  1.5874 -1.3430
  584SOL     MW 2336   0.223   1.885   2.185 -0.1936  0.4416 -0.3704
  585SOL     OW 2337   1.556   2.572   0.181 -0.0348 -0.7543 -0.0678
  585SOL    HW1 2338   1.506   2.539   0.099  1.1774  0.9595 -1.2181
  585SOL    HW2 2339   1.490   2.621   0.227  0.7725 -1.2462  0.2067
  585SOL     MW 2340   1.541   2.574   0.176  0.2316 -0.5931 -0.1833
  586SOL     OW 2341   1.365   2.780   2.599  0.6052  0.3082  0.0948
  586SOL    HW1 2342   1.398   2.734   2.522 -2.3960  0.7871  1.8061
  586SOL    HW2 2343   1.340   2.875   2.576  0.4283 -0.2336  3.6797
  586SOL     MW 2344   1.366   2.787   2.586  0.1859  0.2999  0.7936
  587SOL     OW 2345   1.270   1.519   2.155 -0.7315 -0.3780 -0.2650
  587SOL    HW1 2346   1.288   1.435   2.117 -1.0081 -1.1436  1.7207
  587SOL    HW2 2347   1.202   1.557   2.098 -2.7925  0.6444 -1.9712
  587SOL     MW 2348   1.263   1.513   2.143 -1.0399 -0.3441 -0.2281
  588SOL     OW 2349   1.296   2.044   2.636  0.0612 -0.2942  0.0496
  588SOL    HW1 2350   1.329   1.958   2.659  2.7025  2.3298  0.5194
  588SOL    HW2 2351   1.264   2.083   2.717 -2.0220 -0.5363 -0.9291
  588SOL     MW 2352   1.296   2.038   2.650  0.1348  0.0201 -0.0176
  589SOL     OW 2353   1.316   2.054   0.009 -0.2252 -0.1624 -0.5254
  589SOL    HW1 2354   1.359   2.133   0.036 -2.7205  1.1378 -1.3347
  589SOL    HW2 2355   1.296   2.010   0.088 -0.4851  1.0866  0.8313
  589SOL     MW 2356   1.319   2.059   0.023 -0.5887  0.1740 -0.4532
  590SOL     OW 2357   0.483   2.671   2.230 -0.4714 -0.4839  0.3652
  590SOL    HW1 2358   0.471   2.671   2.130  1.0543  1.1830  0.2172
  590SOL    HW2 2359   0.573   2.721   2.247  0.0929  1.9731  2.3144
  590SOL     MW 2360   0.493   2.678   2.219 -0.1956  0.0602  0.6029
  591SOL     OW 2361   2.210   0.655   0.178 -0.0450 -0.6261  0.4393
  591SOL    HW1 2362   2.154   0.688   0.242 -0.3172  1.3236 -2.8260
  591SOL    HW2 2363   2.181   0.696   0.099  0.7008 -1.2512  0.5815
  591SOL     MW 2364   2.199   0.665   0.176  0.0175 -0.4513  0.0273
  592SOL     OW 2365   1.653   2.930   0.701 -0.0249  0.4731 -0.8139
  592SOL    HW1 2366   1.636   3.021   0.719 -1.2633  0.0271 -2.6521
  592SOL    HW2 2367   1.741   2.914   0.744 -0.5186 -0.4016  1.6875
  592SOL     MW 2368   1.662   2.940   0.709 -0.2534  0.2988 -0.7264
  593SOL     OW 2369   1.902   0.710   0.684  0.2277 -0.5054  0.1686
  593SOL    HW1 2370   1.836   0.710   0.618  1.6671  0.6624  0.7037
  593SOL    HW2 2371   1.927   0.618   0.693 -0.2448  1.9380 -0.2691
  593SOL     MW 2372   1.896   0.698   0.677  0.3553 -0.0289  0.1814
  594SOL     OW 2373   2.831   1.112   1.366 -0.3700 -0.0998  0.0098
  594SOL    HW1 2374   2.919   1.156   1.361  2.3056 -1.6704 -0.4928
  594SOL    HW2 2375   2.764   1.190   1.361  0.2509  0.1554 -0.6480
  594SOL     MW 2376   2.834   1.128   1.365  0.0649 -0.2733 -0.1433
  595SOL     OW 2377   0.529   0.932   0.860  0.1638  0.0561  0.1497
  595SOL    HW1 2378   0.513   1.012   0.805 -0.9263 -0.3285 -2.3507
  595SOL    HW2 2379   0.571   0.971   0.939 -1.3587 -0.4659 -0.9141
  595SOL     MW 2380   0.532   0.948   0.863 -0.1809 -0.0635 -0.3206
  596SOL     OW 2381   2.417   1.313   0.490 -0.0449  0.3659 -0.1754
  596SOL    HW1 2382   2.404   1.389   0.429 -0.3307 -0.7424 -2.8504
  596SOL    HW2 2383   2.458   1.345   0.570  1.0797 -2.7348  1.1344
  596SOL     MW 2384   2.420   1.327   0.492  0.0658 -0.1894 -0.3555
  597SOL     OW 2385   2.235   0.690   1.643 -0.4249  0.4703 -0.3294
  597SOL    HW1 2386   2.261   0.620   1.712  0.3159 -1.5446 -0.9858
  597SOL    HW2 2387   2.184   0.640   1.583  2.7957  0.0652  1.0065
  597SOL     MW 2388   2.231   0.674   1.644  0.0977  0.1510 -0.2397
  598SOL     OW 2389   2.600   1.000   2.867  0.7450  0.0725  0.1385
  598SOL    HW1 2390   2.578   0.940   2.794 -0.8561  0.2153  1.6020
  598SOL    HW2 2391   2.695   0.999   2.862 -0.9592  0.2656 -1.2226
  598SOL     MW 2392   2.610   0.992   2.857  0.3089  0.1168  0.1520
  599SOL     OW 2393   3.003   0.559   2.227  0.1933  0.7502  0.3751
  599SOL    HW1 2394   3.085   0.593   2.258 -2.7573 -0.4630 -1.3330
  599SOL    HW2 2395   3.036   0.555   2.135  3.6956  0.8926 -1.9598
  599SOL     MW 2396   3.018   0.563   2.219  0.2661  0.6089 -0.1583
  600SOL     OW 2397   1.844   1.655   0.844  0.0654 -0.4663 -0.0549
  600SOL    HW1 2398   1.862   1.706   0.923  1.2248  0.9846 -0.8709
  600SOL    HW2 2399   1.766   1.699   0.809 -1.2502 -2.3444 -3.6720
  600SOL     MW 2400   1.836   1.668   0.850  0.0448 -0.5227 -0.6398
  601SOL     OW 2401   2.536   0.780   0.856 -0.1750  0.1261 -0.1787
  601SOL    HW1 2402   2.524   0.769   0.954 -1.8541 -1.1679  0.0787
  601SOL    HW2 2403   2.474   0.709   0.821 -1.3067 -0.5279 -1.5509
  601SOL     MW 2404   2.526   0.770   0.864 -0.5458 -0.1309 -0.3258
  602SOL     OW 2405   2.251   1.972   0.780  0.4284  0.4149  0.1197
  602SOL    HW1 2406   2.193   1.908   0.749 -1.9792 -0.8320  1.1371
  602SOL    HW2 2407   2.210   2.060   0.771  0.9045 -1.6445 -0.1373
  602SOL     MW 2408   2.238   1.975   0.775  0.1736 -0.0213  0.2200
  603SOL     OW 2409   3.032   1.329   1.990  0.1997 -0.3722  0.5825
  603SOL    HW1 2410   3.002   1.385   2.070  1.1842  0.4758  1.5985
  603SOL    HW2 2411   3.032   1.240   2.026  0.3496 -0.3240 -1.7846
  603SOL     MW 2412   3.028   1.325   2.006  0.3494 -0.2540  0.4042
  604SOL     OW 2413   2.032   1.367   0.362  0.3763  0.3503  0.3869
  604SOL    HW1 2414   2.080   1.296   0.411 -1.7355 -1.6145  0.5740
  604SOL    HW2 2415   1.995   1.413   0.437  0.2214 -0.8266  2.9232
  604SOL     MW 2416   2.034   1.364   0.378  0.0772 -0.0643  0.7462
  605SOL     OW 2417   2.455   1.445   0.790  0.5491  0.1886 -0.2558
  605SOL    HW1 2418   2.454   1.526   0.739 -1.4280 -0.0969  0.1406
  605SOL    HW2 2419   2.540   1.402   0.786  0.0228  0.3738 -2.1993
  605SOL     MW 2420   2.466   1.450   0.783  0.2188  0.1754 -0.4599
  606SOL     OW 2421   2.684   1.805   1.762  0.0003 -0.1744 -0.0444
  606SOL    HW1 2422   2.624   1.848   1.820  0.3289 -0.4968  1.8928
  606SOL    HW2 2423   2.671   1.714   1.774  0.3881  1.1270 -1.1391
  606SOL     MW 2424   2.674   1.798   1.772  0.0948 -0.0452  0.0668
  607SOL     OW 2425   2.394   1.042   3.077 -0.1545  0.3261 -0.1717
  607SOL    HW1 2426   2.470   1.030   3.015 -1.1074  3.1738  0.8343
  607SOL    HW2 2427   2.429   1.026   3.168  0.6720 -2.2794 -2.1604
  607SOL     MW 2428   2.408   1.038   3.081 -0.1712  0.3580 -0.3013
  608SOL     OW 2429   1.925   0.240   0.416  0.3689  0.2198 -0.4712
  608SOL    HW1 2430   1.908   0.256   0.326  2.3254  2.1182 -0.1368
  608SOL    HW2 2431   1.912   0.141   0.422 -1.0451  0.2772  1.5399
  608SOL     MW 2432   1.921   0.229   0.405  0.4405  0.4779 -0.1617
  609SOL     OW 2433   2.092   1.911   3.067  0.0391 -0.1271 -0.2240
  609SOL    HW1 2434   2.054   1.833   3.028 -1.0545 -2.2292  2.7730
  609SOL    HW2 2435   2.072   1.894   3.160 -0.2506 -1.3280 -1.5314
  609SOL     MW 2436   2.084   1.899   3.074 -0.1434 -0.5629 -0.0011
  610SOL     OW 2437   1.764   0.980   1.237 -0.2316  0.8296 -0.0711
  610SOL    HW1 2438   1.777   0.935   1.145 -1.2144 -4.4220 -1.0075
  610SOL    HW2 2439   1.681   1.020   1.220 -1.5069 -0.7773 -2.3167
  610SOL     MW 2440   1.755   0.980   1.222 -0.5296 -0.0753 -0.4909
  611SOL     OW 2441   2.488   1.674   0.570  0.5971  0.2695  0.5547
  611SOL    HW1 2442   2.448   1.660   0.483  1.1231 -1.6526 -1.5543
  611SOL    HW2 2443   2.499   1.772   0.573  0.4980  0.7710  1.2122
  611SOL     MW 2444   2.484   1.685   0.559  0.6534  0.0821  0.3632
  612SOL     OW 2445   2.913   2.870   0.360  0.5876  0.6883 -0.4325
  612SOL    HW1 2446   2.909   2.876   0.454  0.8879  0.7950 -0.1689
  612SOL    HW2 2447   3.006   2.861   0.343 -1.6959 -0.4651 -0.4233
  612SOL     MW 2448   2.925   2.869   0.370  0.3259  0.5502 -0.3965
  613SOL     OW 2449   1.450   1.119   0.927  0.0595  0.0255  0.0202
  613SOL    HW1 2450   1.451   1.218   0.918  0.3219  0.1571 -1.7261
  613SOL    HW2 2451   1.500   1.092   1.003 -2.3001  0.7726 -1.4900
  613SOL     MW 2452   1.456   1.129   0.936 -0.2172  0.1414 -0.4094
  614SOL     OW 2453   2.114   0.553   1.456  0.0929  0.4114  0.3468
  614SOL    HW1 2454   2.140   0.471   1.510  0.2261 -1.2238 -0.3430
  614SOL    HW2 2455   2.026   0.545   1.423  3.5301  1.0169  2.5949
  614SOL     MW 2456   2.106   0.541   1.459  0.5640  0.2755  0.5524
  615SOL     OW 2457   2.422   0.742   0.335  0.1723  0.4078 -0.1859
  615SOL    HW1 2458   2.509   0.693   0.349  0.3334 -2.5394  0.4329
  615SOL    HW2 2459   2.367   0.684   0.277 -1.0981  0.8249 -1.5815
  615SOL     MW 2460   2.427   0.728   0.329  0.0260  0.0740 -0.2884
  616SOL     OW 2461   2.559   0.368   1.664 -0.1572  0.1309 -0.0733
  616SOL    HW1 2462   2.530   0.292   1.612  0.7373 -1.8377 -1.6027
  616SOL    HW2 2463   2.554   0.442   1.606  1.4335 -0.9149  1.4435
  616SOL     MW 2464   2.555   0.368   1.649  0.1707 -0.2668 -0.0749
  617SOL     OW 2465   2.823   0.604   1.788  0.3733  0.5186  0.5487
  617SOL    HW1 2466   2.749   0.620   1.847  1.2605 -2.1532 -0.5173
  617SOL    HW2 2467   2.834   0.506   1.787  1.2184 -1.7091  0.1948
  617SOL     MW 2468   2.815   0.593   1.796  0.6018 -0.1279  0.3613
  618SOL     OW 2469   2.855   0.199   1.995 -0.5152 -0.0041  0.1003
  618SOL    HW1 2470   2.812   0.274   2.034 -4.6058  0.9934 -2.6477
  618SOL    HW2 2471   2.947   0.218   2.011  1.0144 -0.2944 -3.9538
  618SOL     MW 2472   2.862   0.211   2.002 -0.8531  0.0892 -0.7972
  619SOL     OW 2473   2.737   0.727   0.037  0.1691  0.1353 -0.1036
  619SOL    HW1 2474   2.754   0.819   0.050  0.0052  0.0953 -1.6760
  619SOL    HW2 2475   2.806   0.685   0.079 -0.0825  0.5653  1.7319
  619SOL     MW 2476   2.748   0.734   0.044  0.1143  0.1867 -0.0689
  620SOL     OW 2477   2.223   0.984   0.874 -0.0123 -0.1518  0.3218
  620SOL    HW1 2478   2.299   1.036   0.848  0.9668  1.5422  0.6841
  620SOL    HW2 2479   2.150   1.010   0.821  0.7599 -2.2277  0.0592
  620SOL     MW 2480   2.224   0.995   0.864  0.2187 -0.2022  0.3349
  621SOL     OW 2481   1.513   2.162   1.999  0.4861 -0.3327 -0.4336
  621SOL    HW1 2482   1.469   2.078   1.992 -0.8443  0.0666  1.1840
  621SOL    HW2 2483   1.604   2.133   2.001  0.4657  0.1169  1.0964
  621SOL     MW 2484   1.519   2.147   1.998  0.3078 -0.2207 -0.0183
  622SOL     OW 2485   2.630   0.300   0.198  0.1459  0.0065  0.2728
  622SOL    HW1 2486   2.718   0.325   0.210 -0.5074  2.6493 -0.5858
  622SOL    HW2 2487   2.626   0.219   0.155  1.5575 -0.2252  0.2655
  622SOL     MW 2488   2.641   0.293   0.194  0.2459  0.3246  0.1585
  623SOL     OW 2489   2.340   2.723   0.807  0.4576 -0.2594 -0.3806
  623SOL    HW1 2490   2.418   2.776   0.788  1.5535  0.6320 -3.5869
  623SOL    HW2 2491   2.343   2.722   0.909 -3.0523 -1.4459  3.2185
  623SOL     MW 2492   2.351   2.730   0.818  0.1391 -0.2983 -0.3288
  624SOL     OW 2493   2.140   1.624   3.009  0.3033  0.4731 -0.0693
  624SOL    HW1 2494   2.060   1.570   3.020 -1.3077  0.9390  0.1647
  624SOL    HW2 2495   2.185   1.618   3.096 -1.1095  1.7735 -0.1310
  624SOL     MW 2496   2.135   1.616   3.022 -0.0956  0.7061 -0.0466
  625SOL     OW 2497   2.130   1.965   1.024  0.0458  0.2656  0.1472
  625SOL    HW1 2498   2.175   1.896   1.068 -0.8023  1.6590  0.1578
  625SOL    HW2 2499   2.184   1.998   0.951  1.7857  0.0188  1.5642
  625SOL     MW 2500   2.143   1.960   1.020  0.1635  0.4169  0.3355
  626SOL     OW 2501   0.119   1.852   2.474 -0.1985 -0.0259  0.2518
  626SOL    HW1 2502   0.070   1.768   2.495 -1.2632 -1.9639 -1.3815
  626SOL    HW2 2503   0.063   1.934   2.477 -1.2632  2.2180  1.8586
  626SOL     MW 2504   0.105   1.852   2.477 -0.4795  0.0144  0.2483
  627SOL     OW 2505   2.596   0.855   2.616 -0.7300  0.1653  0.4813
  627SOL    HW1 2506   2.503   0.884   2.605 -1.0916  0.9679  1.1995
  627SOL    HW2 2507   2.606   0.788   2.542 -1.0555 -0.7277 -1.3456
  627SOL     MW 2508   2.585   0.850   2.604 -0.8207  0.1534  0.3350
  628SOL     OW 2509   2.360   1.366   1.263  0.3410 -0.0226 -0.2058
  628SOL    HW1 2510   2.311   1.296   1.222  0.7276 -1.7067 -1.1462
  628SOL    HW2 2511   2.392   1.427   1.195  0.5439  0.2845 -2.5616
  628SOL     MW 2512   2.357   1.365   1.248  0.4188 -0.2043 -0.6407
  629SOL     OW 2513   1.852   0.583   1.258  0.1971  0.1274 -0.2535
  629SOL    HW1 2514   1.920   0.610   1.193  0.5911 -2.5582 -0.2100
  629SOL    HW2 2515   1.764   0.598   1.228  0.3506 -0.3141  0.3829
  629SOL     MW 2516   1.850   0.588   1.245  0.2693 -0.2852 -0.1638
  630SOL     OW 2517   2.358   1.955   3.072 -0.1552 -0.3765  0.1192
  630SOL    HW1 2518   2.377   1.980   2.981  0.3154  1.4497  0.6516
  630SOL    HW2 2519   2.265   1.952   3.068  3.2354 -0.1738  0.4632
  630SOL     MW 2520   2.348   1.958   3.060  0.3543 -0.1088  0.2348
  631SOL     OW 2521   2.106   1.871   1.485 -0.1279 -0.7352  0.0604
  631SOL    HW1 2522   2.076   1.806   1.549  0.8598 -1.5630  1.8224
  631SOL    HW2 2523   2.037   1.938   1.475  0.5800  0.3552 -0.5813
  631SOL     MW 2524   2.093   1.871   1.492  0.0958 -0.7006  0.2082
  632SOL     OW 2525   0.387   1.894   1.465  0.3085  0.3162 -0.0682
  632SOL    HW1 2526   0.313   1.958   1.478 -1.9904  0.4659 -0.5416
  632SOL    HW2 2527   0.332   1.818   1.492 -0.8622 -1.8792 -1.6197
  632SOL     MW 2528   0.370   1.892   1.470 -0.1493  0.0463 -0.3354
  633SOL     OW 2529   2.654   0.568   0.357  0.4007 -0.3529 -0.3233
  633SOL    HW1 2530   2.693   0.564   0.446  0.6790 -0.6774  0.7719
  633SOL    HW2 2531   2.607   0.483   0.348 -3.1670  0.7017 -0.0882
  633SOL     MW 2532   2.653   0.556   0.368 -0.0333 -0.2566 -0.1478
  634SOL     OW 2533   2.757   0.024   0.633  0.1881 -0.1391 -0.1335
  634SOL    HW1 2534   2.777   0.119   0.622  1.7352  0.6998 -0.5680
  634SOL    HW2 2535   2.740   0.006   0.540  3.1037  0.7760  0.0482
  634SOL     MW 2536   2.757   0.034   0.619  0.7769  0.0924 -0.1669
  635SOL     OW 2537   2.681   0.045   1.804 -0.0111 -0.1979 -0.1383
  635SOL    HW1 2538   2.740  -0.012   1.755  2.8054 -1.4297 -0.3195
  635SOL    HW2 2539   2.742   0.090   1.861  2.9921 -2.5036 -1.0150
  635SOL     MW 2540   2.697   0.044   1.805  0.7568 -0.6647 -0.2779
  636SOL     OW 2541   2.703   1.632   0.736  0.0067  0.2299  0.3799
  636SOL    HW1 2542   2.637   1.637   0.662  0.1764 -1.6846 -1.3777
  636SOL    HW2 2543   2.680   1.704   0.797  0.0723  0.3974  0.2990
  636SOL     MW 2544   2.691   1.642   0.735  0.0378 -0.0006  0.1373
  637SOL     OW 2545   2.957   1.470   0.687 -0.1164  0.6625 -0.1738
  637SOL    HW1 2546   3.005   1.549   0.665 -0.6026  3.8998 -0.7139
  637SOL    HW2 2547   2.868   1.506   0.688 -0.9854 -0.1149 -1.7831
  637SOL     MW 2548   2.951   1.485   0.684 -0.2952  0.9871 -0.4574
  638SOL     OW 2549   2.823   0.537   0.564 -0.0246  0.0731  0.1670
  638SOL    HW1 2550   2.900   0.575   0.520 -1.3035  0.4633  1.3410
  638SOL    HW2 2551   2.803   0.570   0.655 -1.0362  1.2274 -1.5206
  638SOL     MW 2552   2.831   0.547   0.570 -0.3268  0.2769  0.0992
  639SOL     OW 2553   1.861   3.081   0.481  0.2447 -0.2477 -0.2390
  639SOL    HW1 2554   1.771   3.092   0.488  2.2143 -3.9321 -3.7159
  639SOL    HW2 2555   1.869   2.986   0.475 -0.8327  1.2988  1.0847
  639SOL     MW 2556   1.850   3.070   0.481  0.3624 -0.5298 -0.5231
  640SOL     OW 2557   0.301   1.420   0.105 -0.1668 -0.8326 -0.1432
  640SOL    HW1 2558   0.314   1.401   0.009 -1.2944  0.0325  2.1363
  640SOL    HW2 2559   0.320   1.342   0.153 -0.2190  3.3661  0.8795
  640SOL     MW 2560   0.305   1.407   0.099 -0.3225 -0.1645  0.2925
  641SOL     OW 2561   2.371   0.406   0.413  0.3203  0.4088 -0.0353
  641SOL    HW1 2562   2.368   0.348   0.336 -0.3575 -1.0579 -1.3512
  641SOL    HW2 2563   2.386   0.342   0.484 -2.5015 -1.3087  1.4968
  641SOL     MW 2564   2.372   0.390   0.412 -0.1415 -0.0114 -0.0068
  642SOL     OW 2565   0.109   3.059   0.495 -0.1434  0.2222  0.4074
  642SOL    HW1 2566   0.071   3.135   0.447  1.3664 -1.2329 -0.2645
  642SOL    HW2 2567   0.039   3.036   0.556  1.7884 -0.0333  3.5859
  642SOL     MW 2568   0.094   3.066   0.496  0.3107 -0.0035  0.7381
  643SOL     OW 2569   2.148   0.344   1.640 -0.1694  0.4536  0.0645
  643SOL    HW1 2570   2.083   0.359   1.711  0.1975 -0.2473 -1.9788
  643SOL    HW2 2571   2.110   0.282   1.579  1.3699 -0.8670 -1.2437
  643SOL     MW 2572   2.135   0.338   1.641  0.0821  0.1869 -0.3777
  644SOL     OW 2573   2.688   1.883   0.940  0.1337 -0.3567 -0.1086
  644SOL    HW1 2574   2.653   1.843   1.014  1.0668  0.7422 -3.6105
  644SOL    HW2 2575   2.620   1.944   0.914 -0.5593 -2.6434 -0.3604
  644SOL     MW 2576   2.674   1.886   0.946  0.1654 -0.5134 -0.6039
  645SOL     OW 2577   2.814   0.952   0.787 -0.5341 -1.0352 -0.3554
  645SOL    HW1 2578   2.907   0.943   0.774 -0.3661  1.9077  1.8111
  645SOL    HW2 2579   2.801   0.970   0.880  2.4999  0.7301 -0.2930
  645SOL     MW 2580   2.824   0.953   0.798 -0.1116 -0.4140 -0.0613
  646SOL     OW 2581   0.107   2.264   0.853 -0.5267 -0.5628 -1.3067
  646SOL    HW1 2582   0.100   2.177   0.866  0.0375  0.7118 -0.0667
  646SOL    HW2 2583   0.060   2.296   0.773  0.5709  0.5972 -0.8213
  646SOL     MW 2584   0.100   2.257   0.844 -0.3074 -0.2416 -1.0791
  647SOL     OW 2585   2.767   0.417   3.034 -0.6198 -0.2020  0.5879
  647SOL    HW1 2586   2.683   0.390   3.064 -1.0755 -0.8346 -1.4315
  647SOL    HW2 2587   2.753   0.508   3.048 -3.5379 -1.5885  1.3370
  647SOL     MW 2588   2.754   0.425   3.040 -1.0650 -0.4684  0.4203
  648SOL     OW 2589   2.069   0.640   1.090 -0.2732  0.5090 -0.2394
  648SOL    HW1 2590   2.146   0.596   1.128 -0.4220  0.3863 -1.1912
  648SOL    HW2 2591   2.106   0.728   1.070  0.1741  0.4817  1.1609
  648SOL     MW 2592   2.084   0.646   1.092 -0.2338  0.4892 -0.1802
  649SOL     OW 2593   2.398   2.643   1.293 -0.1347  0.1693  0.3897
  649SOL    HW1 2594   2.491   2.666   1.309 -0.6352  0.3176 -2.2985
  649SOL    HW2 2595   2.400   2.551   1.261 -0.6430 -0.8669 -1.6187
  649SOL     MW 2596   2.410   2.634   1.291 -0.2678  0.0521 -0.2299
  650SOL     OW 2597   2.784   0.265   0.534  0.4377 -0.0554  0.1776
  650SOL    HW1 2598   2.789   0.362   0.539 -0.9375 -0.5514 -2.6176
  650SOL    HW2 2599   2.803   0.240   0.443 -0.7941  0.7369 -0.3071
  650SOL     MW 2600   2.787   0.274   0.522  0.0937 -0.0163 -0.2551
  651SOL     OW 2601   0.043   0.458   1.008  0.4951  0.0506  0.1015
  651SOL    HW1 2602   0.088   0.518   0.945  2.0837  1.5575 -1.9207
  651SOL    HW2 2603  -0.046   0.503   1.018 -2.3711  2.0490 -1.6634
  651SOL     MW 2604   0.037   0.472   1.001  0.3265  0.5131 -0.3982
  652SOL     OW 2605   2.352   1.425   2.906  0.4885  0.3885  0.1507
  652SOL    HW1 2606   2.418   1.460   2.847  2.0633  0.4379  2.2538
  652SOL    HW2 2607   2.279   1.488   2.912 -0.3028  2.1460  3.0429
  652SOL     MW 2608   2.351   1.438   2.899  0.5919  0.6269  0.8098
  653SOL     OW 2609   1.821   0.392   0.167 -0.6188 -0.0401 -0.6717
  653SOL    HW1 2610   1.814   0.305   0.128  0.7325  1.4414 -0.9235
  653SOL    HW2 2611   1.845   0.450   0.092 -0.2981  0.2246 -0.8770
  653SOL     MW 2612   1.823   0.388   0.152 -0.3982  0.1903 -0.7320
  654SOL     OW 2613   2.465   1.033   0.715  0.2293  0.3625 -0.2777
  654SOL    HW1 2614   2.399   0.996   0.649 -2.5195  0.7515 -1.0911
  654SOL    HW2 2615   2.519   0.949   0.734 -1.1634 -0.7437 -0.6617
  654SOL     MW 2616   2.463   1.017   0.709 -0.3171  0.2679 -0.4357
  655SOL     OW 2617   3.028   0.938   0.349  0.8295 -0.2270  0.5144
  655SOL    HW1 2618   2.975   0.986   0.415 -0.0141  2.2293  0.7938
  655SOL    HW2 2619   3.032   0.846   0.379  0.5111  0.1199 -0.1786
  655SOL     MW 2620   3.021   0.932   0.362  0.6762  0.1428  0.4598
  656SOL     OW 2621   1.741   2.663   1.422 -0.1168  0.1537 -0.0191
  656SOL    HW1 2622   1.801   2.660   1.495 -2.0652 -0.4452  1.1011
  656SOL    HW2 2623   1.776   2.593   1.363  4.3535  1.7009 -0.1864
  656SOL     MW 2624   1.753   2.653   1.424  0.2159  0.2788  0.1066
  657SOL     OW 2625   0.103   1.806   1.139 -0.1516  0.4120  0.3857
  657SOL    HW1 2626   0.189   1.840   1.112  1.1154 -0.6741 -1.2489
  657SOL    HW2 2627   0.135   1.729   1.188 -0.0574 -0.2839  0.8822
  657SOL     MW 2628   0.118   1.800   1.142  0.0280  0.1769  0.2355
  658SOL     OW 2629   2.610   1.362   0.198 -0.0694  0.8064 -0.2066
  658SOL    HW1 2630   2.603   1.290   0.267  2.0242  0.1703  1.1338
  658SOL    HW2 2631   2.660   1.429   0.242 -1.5534 -2.1082 -0.1593
  658SOL     MW 2632   2.615   1.361   0.213  0.0110  0.3379 -0.0235
  659SOL     OW 2633   2.164   1.441   0.987  0.5835  0.5136 -0.3686
  659SOL    HW1 2634   2.222   1.434   1.067  1.2083  0.9588 -1.0911
  659SOL    HW2 2635   2.111   1.521   1.002  0.1397 -0.1317 -3.2181
  659SOL     MW 2636   2.165   1.450   1.000  0.6074  0.4872 -0.8399
  660SOL     OW 2637   2.052   1.586   1.572 -0.0808 -0.1363  0.2371
  660SOL    HW1 2638   2.062   1.582   1.667  1.3152  1.2122  0.2973
  660SOL    HW2 2639   1.978   1.516   1.572  0.2317 -2.2315  0.4540
  660SOL     MW 2640   2.044   1.576   1.585  0.1446 -0.2348  0.2737
  661SOL     OW 2641   2.393   1.017   0.256 -0.0828  0.2606 -0.7970
  661SOL    HW1 2642   2.468   1.060   0.297  1.9728  0.6628  2.2953
  661SOL    HW2 2643   2.419   0.924   0.253  0.9041 -2.5557 -0.9473
  661SOL     MW 2644   2.406   1.011   0.261  0.3186 -0.0579 -0.4088
  662SOL     OW 2645   2.538   2.983   0.787  0.3093 -0.4175  0.2081
  662SOL    HW1 2646   2.476   3.053   0.774  1.3018 -0.8505 -0.6674
  662SOL    HW2 2647   2.619   3.016   0.739  2.7929 -0.9532  0.7629
  662SOL     MW 2648   2.541   2.997   0.779  0.7679 -0.5453  0.1658
  663SOL     OW 2649   2.754   1.539   0.386  0.4139  0.1622 -0.3618
  663SOL    HW1 2650   2.756   1.621   0.340 -0.4896 -0.7850  1.9357
  663SOL    HW2 2651   2.818   1.552   0.450 -1.3163 -2.4933 -4.1604
  663SOL     MW 2652   2.763   1.552   0.389  0.0664 -0.3131 -0.5599
  664SOL     OW 2653   2.515   1.521   1.594 -0.2812  0.6485  0.0593
  664SOL    HW1 2654   2.486   1.610   1.570 -1.5466  0.4418 -1.0995
  664SOL    HW2 2655   2.439   1.466   1.573 -1.5730  0.5071  2.3573
  664SOL     MW 2656   2.501   1.526   1.588 -0.6186  0.6025  0.2096
  665SOL     OW 2657   2.829   0.793   2.186 -0.6807  0.0209  0.0551
  665SOL    HW1 2658   2.811   0.841   2.106 -1.3924  1.3603  0.9565
  665SOL    HW2 2659   2.912   0.744   2.165 -2.3405  1.6543 -1.7400
  665SOL     MW 2660   2.837   0.793   2.173 -0.9936  0.4131 -0.0628
  666SOL     OW 2661   2.845   2.958   1.690  0.6889  0.0282 -0.0889
  666SOL    HW1 2662   2.826   2.972   1.598  1.1840 -0.3926  0.6158
  666SOL    HW2 2663   2.789   2.881   1.729 -1.0220 -1.4773  3.4915
  666SOL     MW 2664   2.835   2.950   1.683  0.5285 -0.2259  0.4765
  667SOL     OW 2665   1.964   2.680   1.725 -0.4875 -0.2703  0.4108
  667SOL    HW1 2666   1.981   2.638   1.812 -0.1259 -0.7556 -1.5078
  667SOL    HW2 2667   2.050   2.732   1.704 -2.4332 -1.1168 -0.6450
  667SOL     MW 2668   1.977   2.681   1.734 -0.6965 -0.4460  0.0184
  668SOL     OW 2669   2.757   0.608   0.810  0.3619  0.3577  0.3562
  668SOL    HW1 2670   2.816   0.609   0.888  2.4097 -0.6509 -0.6028
  668SOL    HW2 2671   2.701   0.685   0.810 -0.6143  0.8632 -1.1254
  668SOL     MW 2672   2.757   0.618   0.821  0.5033  0.2913  0.0342
  669SOL     OW 2673   0.230   0.980   0.729  0.3593  0.0640 -0.2610
  669SOL    HW1 2674   0.242   0.946   0.823  2.0481  0.4494 -0.7717
  669SOL    HW2 2675   0.310   1.033   0.706 -1.0875 -1.2879  1.1702
  669SOL     MW 2676   0.242   0.982   0.739  0.3912 -0.0636 -0.1395
  670SOL     OW 2677   2.927   0.329   0.228 -0.1323 -0.1974 -0.3250
  670SOL    HW1 2678   2.922   0.261   0.152 -0.7008  1.0386 -0.3780
  670SOL    HW2 2679   2.973   0.406   0.196 -1.3557 -1.9433 -0.1908
  670SOL     MW 2680   2.932   0.330   0.213 -0.3687 -0.2647 -0.3143
  671SOL     OW 2681   2.073   3.017   1.512 -0.2466 -0.6021 -0.3539
  671SOL    HW1 2682   2.017   3.003   1.434 -0.4683 -0.7513  0.6958
  671SOL    HW2 2683   2.008   3.040   1.578 -0.1368 -1.3999 -1.4778
  671SOL     MW 2684   2.057   3.018   1.510 -0.2614 -0.7270 -0.3637
  672SOL     OW 2685   1.790   1.815   1.293 -0.1452 -0.2907 -0.0108
  672SOL    HW1 2686   1.798   1.899   1.347  0.0715 -2.6544  0.1885
  672SOL    HW2 2687   1.828   1.828   1.210  0.8160  1.4100 -0.0909
  672SOL     MW 2688   1.796   1.828   1.289  0.0102 -0.3782  0.0049
  673SOL     OW 2689   2.819   1.080   0.550 -0.1552 -0.3053  0.1399
  673SOL    HW1 2690   2.799   1.040   0.630  2.1990 -1.1306  1.8762
  673SOL    HW2 2691   2.898   1.128   0.572 -2.5150 -0.1689  2.5217
  673SOL     MW 2692   2.827   1.081   0.563 -0.1559 -0.3962  0.6832
  674SOL     OW 2693   2.468   3.050   1.136  0.1241  0.4479 -0.3031
  674SOL    HW1 2694   2.425   3.099   1.063  1.1187 -0.0340 -0.2265
  674SOL    HW2 2695   2.487   2.962   1.093 -1.0751  0.0749 -1.7496
  674SOL     MW 2696   2.465   3.045   1.121  0.0971  0.3351 -0.4839
  675SOL     OW 2697   3.029   0.835   1.033  0.1186 -0.0230 -0.2724
  675SOL    HW1 2698   3.025   0.857   1.129  0.4705  2.0183  0.4587
  675SOL    HW2 2699   3.053   0.916   0.977  2.5416  3.4836 -0.1753
  675SOL     MW 2700   3.031   0.849   1.038  0.4847  0.7090 -0.1631
  676SOL     OW 2701   2.908   1.394   1.761  0.2288  0.5960  0.0995
  676SOL    HW1 2702   2.882   1.312   1.729  1.1641 -0.6566  1.2419
  676SOL    HW2 2703   2.952   1.376   1.840 -3.9207 -0.2502 -1.5572
  676SOL     MW 2704   2.910   1.381   1.767 -0.1953  0.3191  0.0316
  677SOL     OW 2705   2.479   0.713   1.905 -0.5773 -0.1849  0.4469
  677SOL    HW1 2706   2.454   0.623   1.865  2.4316 -3.7666  1.8941
  677SOL    HW2 2707   2.395   0.764   1.913  0.2083 -2.9321 -1.2863
  677SOL     MW 2708   2.464   0.708   1.901 -0.0767 -1.0199  0.4091
  678SOL     OW 2709   2.372   1.558   0.318 -0.5610 -0.1418 -0.0352
  678SOL    HW1 2710   2.286   1.570   0.358  0.3698  0.8969  0.1691
  678SOL    HW2 2711   2.358   1.513   0.230 -0.5456 -0.0778  0.9331
  678SOL     MW 2712   2.359   1.554   0.311 -0.4362  0.0037  0.1195
  679SOL     OW 2713   2.287   0.479   1.265 -0.0072  0.3258  0.3029
  679SOL    HW1 2714   2.263   0.398   1.222  0.8883  1.4862  1.3877
  679SOL    HW2 2715   2.217   0.505   1.324  0.2927  2.1298 -0.0415
  679SOL     MW 2716   2.275   0.472   1.267  0.1505  0.7169  0.4006
  680SOL     OW 2717   2.395   0.197   1.495 -0.1399  0.2991  0.0002
  680SOL    HW1 2718   2.311   0.200   1.460  1.5914  1.1589  1.2946
  680SOL    HW2 2719   2.417   0.099   1.488  1.1036 -0.9133 -1.0311
  680SOL     MW 2720   2.387   0.184   1.489  0.2526  0.2525  0.0349
  681SOL     OW 2721   0.230   0.572   1.436  0.2199 -0.5313 -0.1355
  681SOL    HW1 2722   0.184   0.497   1.456  2.4594  0.0083  0.7719
  681SOL    HW2 2723   0.250   0.554   1.337 -0.4651 -1.1570 -1.7025
  681SOL     MW 2724   0.226   0.560   1.426  0.4250 -0.5427 -0.2225
  682SOL     OW 2725   3.057   2.852   1.545  0.4587  0.1812 -0.7273
  682SOL    HW1 2726   3.140   2.902   1.550 -2.8477  1.7562  1.6633
  682SOL    HW2 2727   3.011   2.896   1.618  1.9140  3.1612 -0.7676
  682SOL     MW 2728   3.062   2.864   1.555  0.2145  0.7822 -0.4172
  683SOL     OW 2729   2.125   0.766   3.035  0.0956 -0.2519 -0.0423
  683SOL    HW1 2730   2.038   0.717   3.029 -0.9007  4.1574  1.6641
  683SOL    HW2 2731   2.081   0.857   3.048 -0.8821  0.7577 -0.1237
  683SOL     MW 2732   2.108   0.772   3.036 -0.1648  0.4630  0.1721
  684SOL     OW 2733   2.041   1.788   0.677 -0.0260  0.0955 -0.0837
  684SOL    HW1 2734   2.080   1.730   0.607  2.6113  1.2005  1.7547
  684SOL    HW2 2735   1.978   1.728   0.725 -0.7529  0.2276  2.0724
  684SOL     MW 2736   2.038   1.772   0.674  0.2260  0.2587  0.4433
  685SOL     OW 2737   2.615   1.724   1.149  0.0666 -0.4498  0.3124
  685SOL    HW1 2738   2.647   1.692   1.231 -1.0747 -1.0375  0.2064
  685SOL    HW2 2739   2.575   1.652   1.106  1.3500 -2.5585  0.2387
  685SOL     MW 2740   2.614   1.710   1.155  0.0853 -0.8055  0.2887
  686SOL     OW 2741   2.865   0.643   1.519  0.0124  0.1993 -0.5442
  686SOL    HW1 2742   2.851   0.633   1.612 -0.8461  0.7122  1.4054
  686SOL    HW2 2743   2.949   0.690   1.502 -1.2410 -0.6087 -1.3607
  686SOL     MW 2744   2.874   0.648   1.529 -0.2663  0.1603 -0.3947
  687SOL     OW 2745   2.192   0.240   1.164  0.1156  0.1985  0.5113
  687SOL    HW1 2746   2.248   0.213   1.089 -1.5539  0.2660  0.2035
  687SOL    HW2 2747   2.121   0.257   1.107 -0.1097 -0.4149 -0.2244
  687SOL     MW 2748   2.190   0.239   1.147 -0.1344  0.1265  0.3736
  688SOL     OW 2749   2.431   0.579   1.480 -0.4474 -0.2238 -0.4864
  688SOL    HW1 2750   2.384   0.549   1.401 -1.2146 -0.4722 -1.8342
  688SOL    HW2 2751   2.370   0.636   1.533  0.4970  1.9203 -0.3797
  688SOL     MW 2752   2.417   0.583   1.477 -0.4240  0.0263 -0.6501
  689SOL     OW 2753   2.458   0.724   2.999 -0.8198 -0.8596 -0.0565
  689SOL    HW1 2754   2.384   0.737   3.060  0.2883  0.1276  1.7557
  689SOL    HW2 2755   2.539   0.760   3.037  0.9381 -0.2683  0.1295
  689SOL     MW 2756   2.459   0.731   3.012 -0.4416 -0.6514  0.2071
  690SOL     OW 2757   2.055   0.960   1.859  0.1825 -0.2052  0.4623
  690SOL    HW1 2758   2.043   0.866   1.851  0.3341 -1.9716  0.9857
  690SOL    HW2 2759   2.101   0.975   1.781 -0.3665 -0.1432  1.3751
  690SOL     MW 2760   2.059   0.950   1.847  0.1301 -0.4301  0.6518
  691SOL     OW 2761   2.427   0.283   0.859 -0.2683  0.0148 -0.4657
  691SOL    HW1 2762   2.522   0.312   0.874 -2.5854  2.0015 -0.5019
  691SOL    HW2 2763   2.394   0.371   0.824 -0.7542  1.7381 -3.2736
  691SOL     MW 2764   2.435   0.298   0.856 -0.6381  0.5043 -0.8409
  692SOL     OW 2765   2.772   1.657   1.377  0.6647  0.0097  0.0832
  692SOL    HW1 2766   2.736   1.672   1.460 -1.9569  1.1957 -2.2801
  692SOL    HW2 2767   2.840   1.722   1.371  2.3110  0.7100 -3.2176
  692SOL     MW 2768   2.777   1.667   1.387  0.5360  0.2586 -0.6641
  693SOL     OW 2769   2.196   0.419   3.085 -0.1781  0.2258  0.0363
  693SOL    HW1 2770   2.169   0.334   3.121 -1.5655 -2.3379  1.7345
  693SOL    HW2 2771   2.141   0.482   3.127  1.8235 -0.8106  0.9342
  693SOL     MW 2772   2.185   0.416   3.095 -0.0971 -0.2492  0.3788
  694SOL     OW 2773   1.958   1.171   1.174 -0.3263 -0.1596 -0.0499
  694SOL    HW1 2774   2.053   1.165   1.143 -0.2847 -0.4538 -0.5796
  694SOL    HW2 2775   1.923   1.083   1.200  0.2445  1.0162  1.3995
  694SOL     MW 2776   1.966   1.158   1.173 -0.2455 -0.0432  0.0714
  695SOL     OW 2777   2.949   1.411   1.332  1.0093 -0.2157  0.2133
  695SOL    HW1 2778   2.921   1.398   1.237 -1.0656  0.4768 -1.0568
  695SOL    HW2 2779   2.873   1.461   1.351 -0.3805 -3.2926  0.3907
  695SOL     MW 2780   2.935   1.416   1.322  0.5522 -0.5303  0.0691
  696SOL     OW 2781   2.071   1.322   0.763  0.1792  0.0592  0.8337
  696SOL    HW1 2782   2.115   1.346   0.849  1.3206 -0.1846  0.5141
  696SOL    HW2 2783   1.997   1.261   0.778  0.7323 -2.2591  1.0029
  696SOL     MW 2784   2.067   1.317   0.777  0.4028 -0.2789  0.8138
  697SOL     OW 2785   2.917   1.034   2.266 -0.0100 -0.1908  0.1536
  697SOL    HW1 2786   2.843   1.101   2.242 -0.8404  0.1449 -0.0055
  697SOL    HW2 2787   2.887   0.943   2.247 -0.2167  2.2234  0.7604
  697SOL     MW 2788   2.903   1.031   2.260 -0.1469  0.1720  0.2127
  698SOL     OW 2789   2.483   0.377   3.068 -0.4030  0.3930 -0.0140
  698SOL    HW1 2790   2.401   0.417   3.065  2.6430 -1.7816  0.0313
  698SOL    HW2 2791   2.503   0.382   3.165 -2.9398  2.3752  0.6599
  698SOL     MW 2792   2.474   0.383   3.080 -0.3358  0.3676  0.0809
  699SOL     OW 2793   1.873   1.544   1.997  0.3034 -0.0016  0.2775
  699SOL    HW1 2794   1.856   1.467   2.047 -0.7923  1.1891 -1.8400
  699SOL    HW2 2795   1.955   1.521   1.947 -0.4479 -3.7475 -2.7525
  699SOL     MW 2796   1.882   1.531   1.997  0.0597 -0.3388 -0.4016
  700SOL     OW 2797   2.730   0.887   1.557 -0.2368 -0.2927 -0.8650
  700SOL    HW1 2798   2.782   0.941   1.504 -0.5896  0.9860  0.7608
  700SOL    HW2 2799   2.770   0.801   1.550  3.0566  0.4824 -2.2313
  700SOL     MW 2800   2.742   0.883   1.549  0.1512 -0.0217 -0.8307
  701SOL     OW 2801   1.653   1.056   2.552  0.4295 -0.3773  0.1190
  701SOL    HW1 2802   1.737   1.039   2.593 -2.2826  2.3360 -1.7490
  701SOL    HW2 2803   1.611   1.110   2.616  2.3853  1.5424 -4.0600
  701SOL     MW 2804   1.658   1.061   2.566  0.3297  0.2340 -0.6788
  702SOL     OW 2805   2.085   0.483   0.724 -0.2123 -0.6463  0.4281
  702SOL    HW1 2806   2.092   0.400   0.680  1.3242  2.7142 -0.7957
  702SOL    HW2 2807   2.127   0.552   0.667 -1.2892 -1.4229 -1.5328
  702SOL     MW 2808   2.092   0.481   0.711 -0.1516 -0.3053  0.0079
  703SOL     OW 2809   2.657   1.248   1.009  0.0467  0.2071 -0.3190
  703SOL    HW1 2810   2.639   1.234   0.916 -0.5976  0.5510 -0.7819
  703SOL    HW2 2811   2.682   1.158   1.033  1.5724  1.5737 -1.1282
  703SOL     MW 2812   2.658   1.234   1.000  0.1630  0.4328 -0.4868
  704SOL     OW 2813   3.081   1.256   0.201 -0.1629 -0.2263  0.1660
  704SOL    HW1 2814   2.989   1.276   0.189  0.6294 -2.2270 -3.2924
  704SOL    HW2 2815   3.088   1.239   0.295 -2.1334 -0.7933 -1.5443
  704SOL     MW 2816   3.070   1.256   0.212 -0.3183 -0.5651 -0.5160
  705SOL     OW 2817   2.036   1.649   1.294 -0.4366  0.3528 -0.7037
  705SOL    HW1 2818   1.958   1.712   1.309 -0.8407  0.3135  0.4939
  705SOL    HW2 2819   2.060   1.617   1.383 -0.5303  0.5653  3.0080
  705SOL     MW 2820   2.029   1.653   1.308 -0.5023  0.3756 -0.0559
  706SOL     OW 2821   3.052   1.201   0.634  0.0503 -0.0726 -0.1187
  706SOL    HW1 2822   3.143   1.203   0.598  2.4350  0.5392  1.2555
  706SOL    HW2 2823   3.030   1.293   0.646 -0.4208 -0.1204 -1.1721
  706SOL     MW 2824   3.061   1.213   0.631  0.3028  0.0019 -0.0764
  707SOL     OW 2825   2.317   0.046   0.942 -0.5663  0.1372 -0.1572
  707SOL    HW1 2826   2.319   0.130   0.893 -1.4020  1.0288  0.2989
  707SOL    HW2 2827   2.247  -0.001   0.903 -2.0540 -1.0639 -1.6106
  707SOL     MW 2828   2.308   0.051   0.931 -0.8728  0.0964 -0.2888
  708SOL     OW 2829   2.381   1.424   0.075 -0.1761  0.1857  0.4689
  708SOL    HW1 2830   2.469   1.395   0.096 -0.2378 -0.3127 -0.0419
  708SOL    HW2 2831   2.379   1.425  -0.021 -2.2653 -0.6138 -0.6284
  708SOL     MW 2832   2.392   1.421   0.065 -0.4599  0.0144  0.2567
  709SOL     OW 2833   1.668   1.565   0.206 -0.1916 -0.6426 -0.6167
  709SOL    HW1 2834   1.669   1.569   0.107  0.9135  0.4444 -1.7986
  709SOL    HW2 2835   1.573   1.573   0.237  1.0485  1.5841 -0.7553
  709SOL     MW 2836   1.656   1.567   0.197  0.1178 -0.2054 -0.7909
  710SOL     OW 2837   2.221   1.118   1.139 -0.6061 -0.1761 -0.2136
  710SOL    HW1 2838   2.243   1.071   1.058 -2.6802 -0.2247 -3.4264
  710SOL    HW2 2839   2.260   1.071   1.210 -0.4806  1.4091  1.1247
  710SOL     MW 2840   2.229   1.106   1.137 -0.8632  0.0266 -0.4609
  711SOL     OW 2841   2.381   0.116   1.758  0.3119  0.0007  0.0052
  711SOL    HW1 2842   2.472   0.084   1.772 -2.3443 -0.6607  1.9921
  711SOL    HW2 2843   2.358   0.149   1.671 -1.9373  0.5053  0.7419
  711SOL     MW 2844   2.390   0.116   1.749 -0.3353 -0.0200  0.3646
  712SOL     OW 2845   1.890   0.640   3.073  0.1380  0.0330  0.2691
  712SOL    HW1 2846   1.830   0.678   3.011 -1.2360 -1.5022  1.0369
  712SOL    HW2 2847   1.868   0.693   3.153  1.4206 -2.6316 -0.0173
  712SOL     MW 2848   1.879   0.652   3.075  0.1259 -0.5211  0.3326
  713SOL     OW 2849   2.589   0.709   1.117  0.0682  0.0398  0.2142
  713SOL    HW1 2850   2.572   0.618   1.124 -2.0891 -0.5946  0.9079
  713SOL    HW2 2851   2.570   0.751   1.201  0.6043  0.1333 -0.2206
  713SOL     MW 2852   2.584   0.702   1.129 -0.1457 -0.0315  0.2483
  714SOL     OW 2853   2.277   0.208   1.988  0.0160  0.2497  0.4317
  714SOL    HW1 2854   2.312   0.155   2.060 -0.7412 -1.6723 -1.0498
  714SOL    HW2 2855   2.345   0.195   1.921 -0.1797  3.7269  1.5762
  714SOL     MW 2856   2.290   0.199   1.989 -0.1097  0.4549  0.3872
  715SOL     OW 2857   1.844   1.976   1.716  0.1639 -0.0554  0.0496
  715SOL    HW1 2858   1.931   2.000   1.758 -0.5456  1.0580  1.3761
  715SOL    HW2 2859   1.807   1.898   1.754 -0.1880  0.6131  1.3534
  715SOL     MW 2860   1.851   1.969   1.726  0.0239  0.1797  0.3967
  716SOL     OW 2861   2.433   0.541   0.733 -0.1563 -0.2052 -0.1363
  716SOL    HW1 2862   2.502   0.549   0.677 -0.0843  1.6675  1.6508
  716SOL    HW2 2863   2.357   0.572   0.689 -0.6914  2.7277  0.4508
  716SOL     MW 2864   2.432   0.546   0.720 -0.2174  0.4289  0.1770
  717SOL     OW 2865   2.775   1.668   2.829  0.2740  0.1432  0.4919
  717SOL    HW1 2866   2.853   1.625   2.864 -1.8734  0.0579  1.7048
  717SOL    HW2 2867   2.725   1.682   2.906 -0.4574  2.6141  1.8152
  717SOL     MW 2868   2.779   1.664   2.844 -0.1058  0.4579  0.8265
  718SOL     OW 2869   2.662   1.317   1.373 -0.1010  0.4349  0.4642
  718SOL    HW1 2870   2.575   1.286   1.336  1.0616 -0.0736  1.2403
  718SOL    HW2 2871   2.638   1.385   1.437 -2.3971 -0.7058  3.3214
  718SOL     MW 2872   2.647   1.322   1.377 -0.2505  0.2173  0.9436
  719SOL     OW 2873   2.181   1.209   0.523  0.0603 -0.3761 -0.3893
  719SOL    HW1 2874   2.269   1.255   0.533 -1.7725  0.7689  1.5361
  719SOL    HW2 2875   2.130   1.218   0.611 -0.5418 -1.8137  1.0476
  719SOL     MW 2876   2.186   1.216   0.536 -0.2609 -0.4147  0.0543
  720SOL     OW 2877   2.806   1.247   0.054 -0.5007 -0.0244  0.4609
  720SOL    HW1 2878   2.820   1.148   0.075  0.2233 -1.3363  1.4541
  720SOL    HW2 2879   2.726   1.278   0.100 -1.8510  0.8663  1.0569
  720SOL     MW 2880   2.797   1.238   0.063 -0.5833 -0.0800  0.6706
  721SOL     OW 2881   2.541   0.795   1.365 -0.2468 -0.4264  0.4102
  721SOL    HW1 2882   2.496   0.719   1.405 -0.9279  0.3346  0.9555
  721SOL    HW2 2883   2.601   0.843   1.424  2.4524  2.5449  0.7515
  721SOL     MW 2884   2.543   0.791   1.378  0.0194  0.0660  0.5272
  722SOL     OW 2885   2.617   1.147   0.379  0.4159  0.2477  0.3324
  722SOL    HW1 2886   2.583   1.201   0.449 -0.0573  1.0884 -1.3864
  722SOL    HW2 2887   2.702   1.121   0.415  1.1605  2.4506 -0.8463
  722SOL     MW 2888   2.624   1.151   0.393  0.4517  0.6493 -0.0499
  723SOL     OW 2889   2.265   1.392   1.545 -0.1285  0.8259 -0.2988
  723SOL    HW1 2890   2.249   1.367   1.454  0.9350  0.3270  0.0423
  723SOL    HW2 2891   2.190   1.428   1.585  2.6933  1.7617 -0.6170
  723SOL     MW 2892   2.253   1.394   1.538  0.3841  0.8835 -0.2958
  724SOL     OW 2893   2.441   0.210   0.604  0.5024 -0.5849  0.0056
  724SOL    HW1 2894   2.407   0.219   0.695 -1.5646  1.9966  0.9849
  724SOL    HW2 2895   2.534   0.229   0.615  0.1510 -3.2960 -0.7693
  724SOL     MW 2896   2.449   0.214   0.618  0.1833 -0.6020  0.0325
  725SOL     OW 2897   2.624   0.383   1.134  0.1130 -0.0283 -0.3687
  725SOL    HW1 2898   2.691   0.422   1.188 -1.1190 -0.9186 -3.3262
  725SOL    HW2 2899   2.596   0.307   1.186 -1.8314 -0.8127  0.2932
  725SOL     MW 2900   2.629   0.378   1.148 -0.3061 -0.2493 -0.6716
  726SOL     OW 2901   2.448   2.459   0.423 -0.5637  0.2136 -0.3102
  726SOL    HW1 2902   2.475   2.548   0.406 -2.0262 -1.0406  0.6560
  726SOL    HW2 2903   2.376   2.467   0.488 -0.5601 -2.0281  4.8538
  726SOL     MW 2904   2.442   2.472   0.429 -0.7562 -0.2477  0.4986
  727SOL     OW 2905   2.840   0.308   1.746 -0.4045  0.2051  0.1409
  727SOL    HW1 2906   2.751   0.303   1.709 -1.4984 -1.2919 -1.0833
  727SOL    HW2 2907   2.843   0.265   1.835  0.4419 -2.4986  3.3319
  727SOL     MW 2908   2.828   0.301   1.753 -0.4371 -0.3491  0.4004
  728SOL     OW 2909   2.802   1.238   2.876  0.1725  0.4988  0.2902
  728SOL    HW1 2910   2.849   1.313   2.848 -3.0319 -0.7871  0.5414
  728SOL    HW2 2911   2.794   1.244   2.971  3.6027  0.1245 -0.5501
  728SOL     MW 2912   2.808   1.248   2.885  0.2023  0.2797  0.2125
  729SOL     OW 2913   2.491   1.497   1.054 -1.1369 -0.1912  0.1786
  729SOL    HW1 2914   2.541   1.414   1.059 -3.3736 -1.3947 -0.2255
  729SOL    HW2 2915   2.465   1.501   0.960 -0.5149 -1.3720 -0.3906
  729SOL     MW 2916   2.494   1.487   1.042 -1.3499 -0.5058  0.0502
  730SOL     OW 2917   2.170   1.163   0.198  0.3133  0.1230 -0.2234
  730SOL    HW1 2918   2.246   1.104   0.230  1.3268 -1.0295  0.4153
  730SOL    HW2 2919   2.206   1.252   0.185  1.6037  1.3983  1.7472
  730SOL     MW 2920   2.185   1.167   0.201  0.6173  0.1392  0.1209
  731SOL     OW 2921   2.789   1.973   2.946  0.4226  0.1058  0.4223
  731SOL    HW1 2922   2.751   1.978   2.856 -1.3500  1.0626 -1.9244
  731SOL    HW2 2923   2.881   1.989   2.923  0.6615 -1.0709  0.6474
  731SOL     MW 2924   2.796   1.976   2.931  0.2203  0.0768  0.1423
  732SOL     OW 2925   2.336   0.997   1.334  0.0614 -0.2581  0.4674
  732SOL    HW1 2926   2.273   0.974   1.399  2.1694  2.9038 -0.4596
  732SOL    HW2 2927   2.405   0.932   1.348 -1.5499  0.0284  3.0976
  732SOL     MW 2928   2.337   0.985   1.344  0.1270  0.1969  0.6921
  733SOL     OW 2929   2.410   2.687   2.971  0.2114 -0.0190 -0.4231
  733SOL    HW1 2930   2.345   2.758   3.000 -0.1866  0.5996  0.7066
  733SOL    HW2 2931   2.369   2.603   2.973  4.0291 -1.1854  0.7368
  733SOL     MW 2932   2.396   2.685   2.975  0.6626 -0.0913 -0.1210
  734SOL     OW 2933   1.534   0.254   2.543  0.3465 -0.2951  0.2312
  734SOL    HW1 2934   1.516   0.219   2.631 -0.2172 -2.2614  0.6226
  734SOL    HW2 2935   1.489   0.204   2.478  2.4961 -0.8407 -0.3523
  734SOL     MW 2936   1.526   0.242   2.546  0.5557 -0.6265  0.2059
  735SOL     OW 2937   3.035   0.880   2.651 -0.2084  0.2484 -0.1975
  735SOL    HW1 2938   3.052   0.789   2.680  0.3331 -0.5527  1.4867
  735SOL    HW2 2939   3.010   0.924   2.732 -0.8933  1.1804 -0.1491
  735SOL     MW 2940   3.034   0.873   2.666 -0.2273  0.2657  0.0311
  736SOL     OW 2941   0.162   0.581   2.559  0.3194 -0.2087  0.0578
  736SOL    HW1 2942   0.139   0.639   2.487  0.5453  0.3468 -1.3155
  736SOL    HW2 2943   0.225   0.528   2.508 -0.8322 -0.5072  0.4469
  736SOL     MW 2944   0.167   0.582   2.542  0.1973 -0.1748 -0.0721
  737SOL     OW 2945   2.996   0.600   2.651  0.4436  0.8937  0.5693
  737SOL    HW1 2946   2.927   0.602   2.582 -1.1951 -0.7390  0.7904
  737SOL    HW2 2947   3.075   0.575   2.603 -1.6855  0.5904  1.2969
  737SOL     MW 2948   2.997   0.597   2.636 -0.0535  0.6382  0.6945
  738SOL     OW 2949   0.144   0.441   1.854  0.1950  0.5555 -0.5496
  738SOL    HW1 2950   0.234   0.438   1.877 -0.1152  0.9315 -1.1645
  738SOL    HW2 2951   0.151   0.405   1.762  0.4533  3.1819 -1.0729
  738SOL     MW 2952   0.157   0.436   1.845  0.1882  0.9516 -0.6997
  739SOL     OW 2953   2.504   0.960   2.125  0.4121  0.0818  0.5641
  739SOL    HW1 2954   2.425   0.940   2.077 -1.0667  2.1035 -0.5482
  739SOL    HW2 2955   2.558   0.919   2.060 -0.2895 -2.4381 -0.0049
  739SOL     MW 2956   2.501   0.952   2.110  0.1244  0.0161  0.3423
  740SOL     OW 2957   0.187   1.802   2.943 -0.6537 -0.2459  0.1634
  740SOL    HW1 2958   0.201   1.716   2.968 -0.6825 -0.2867 -1.2140
  740SOL    HW2 2959   0.277   1.830   2.981  2.9900 -1.8756 -1.1837
  740SOL     MW 2960   0.201   1.794   2.952 -0.1768 -0.4663 -0.1961
  741SOL     OW 2961   2.301   1.184   2.704 -0.1805 -0.2085 -0.0595
  741SOL    HW1 2962   2.251   1.259   2.660 -0.5554  1.3701 -0.8695
  741SOL    HW2 2963   2.251   1.177   2.789  0.0401 -0.3061 -1.0127
  741SOL     MW 2964   2.288   1.193   2.709 -0.2008 -0.0131 -0.2921
  742SOL     OW 2965   1.531   1.272   2.391  0.1779  0.9329  0.1730
  742SOL    HW1 2966   1.439   1.278   2.353  0.4087  1.1230 -2.1321
  742SOL    HW2 2967   1.545   1.182   2.419 -2.8126  0.6781  2.5109
  742SOL     MW 2968   1.520   1.261   2.390 -0.1862  0.9244  0.1774
  743SOL     OW 2969   2.567   1.249   2.683  0.4341  0.8461 -0.0290
  743SOL    HW1 2970   2.471   1.236   2.722 -1.1510 -0.8423 -1.7458
  743SOL    HW2 2971   2.625   1.186   2.730 -0.1562  1.7869  0.3553
  743SOL     MW 2972   2.562   1.239   2.694  0.1471  0.7474 -0.2048
  744SOL     OW 2973   2.712   0.923   1.904  0.8258  0.5872 -0.6608
  744SOL    HW1 2974   2.658   0.988   1.854  0.2330 -0.7681 -2.4835
  744SOL    HW2 2975   2.675   0.839   1.876  0.9507 -1.6529  2.1110
  744SOL     MW 2976   2.700   0.920   1.894  0.7641  0.1128 -0.5356
  745SOL     OW 2977   1.725   0.446   2.466 -0.0985 -0.2005 -0.3978
  745SOL    HW1 2978   1.699   0.488   2.384 -0.0106  0.0410 -1.0725
  745SOL    HW2 2979   1.668   0.364   2.474 -0.1323 -0.9478  2.3382
  745SOL     MW 2980   1.714   0.441   2.456 -0.0914 -0.2672 -0.1259
  746SOL     OW 2981   1.616   1.563   1.683  0.1578  0.3275  0.0066
  746SOL    HW1 2982   1.641   1.653   1.694 -1.4337 -2.1368  0.1735
  746SOL    HW2 2983   1.620   1.533   1.775 -1.8084  0.7430 -1.1879
  746SOL     MW 2984   1.620   1.571   1.696 -0.3116  0.0572 -0.1290
  747SOL     OW 2985   2.559   1.131   1.800 -0.1417  0.7538 -0.2882
  747SOL    HW1 2986   2.465   1.137   1.771 -2.0979  1.6414  3.1875
  747SOL    HW2 2987   2.555   1.190   1.870  0.1692 -2.3895  1.9583
  747SOL     MW 2988   2.546   1.140   1.806 -0.3587  0.4561  0.4668
  748SOL     OW 2989   0.070   0.124   1.850 -0.3362 -0.2253 -0.1700
  748SOL    HW1 2990   0.159   0.089   1.834  1.9150  0.1525 -0.3300
  748SOL    HW2 2991   0.075   0.214   1.875 -0.6528 -0.4458  2.2820
  748SOL     MW 2992   0.082   0.131   1.851 -0.0809 -0.2046  0.1324
  749SOL     OW 2993   2.546   0.619   2.777 -0.8534  0.7211 -0.6734
  749SOL    HW1 2994   2.577   0.698   2.726 -0.8150  0.3416 -0.7204
  749SOL    HW2 2995   2.521   0.647   2.868  0.2390  1.6003 -2.0382
  749SOL     MW 2996   2.547   0.633   2.782 -0.7042  0.7871 -0.8597
  750SOL     OW 2997   2.089   3.090   1.940  0.6726  0.0396 -0.2059
  750SOL    HW1 2998   2.130   3.178   1.942  1.4879  0.0309  1.0254
  750SOL    HW2 2999   2.165   3.035   1.913  3.2461  0.2789  1.3078
  750SOL     MW 3000   2.104   3.095   1.936  1.1197  0.0700  0.1563
  751SOL     OW 3001   0.273   0.340   2.370 -0.5642 -0.5533  0.2070
  751SOL    HW1 3002   0.211   0.291   2.424 -1.5882  3.3621 -1.1220
  751SOL    HW2 3003   0.273   0.285   2.287  2.3338  0.4330 -2.0224
  751SOL     MW 3004   0.265   0.326   2.366 -0.3169  0.0934 -0.2625
  752SOL     OW 3005   2.130   0.835   2.717 -0.2246  0.1787 -0.5737
  752SOL    HW1 3006   2.206   0.869   2.667  0.6494  2.3352 -1.6962
  752SOL    HW2 3007   2.159   0.836   2.810 -0.5426 -0.9521  1.3480
  752SOL     MW 3008   2.143   0.839   2.723 -0.1513  0.3140 -0.4683
  753SOL     OW 3009   2.771   0.114   2.431 -0.2148  0.1432 -0.5049
  753SOL    HW1 3010   2.784   0.019   2.409 -1.5136  1.8338 -0.7860
  753SOL    HW2 3011   2.763   0.162   2.351 -1.5298  1.1859  0.5350
  753SOL     MW 3012   2.772   0.108   2.418 -0.5596  0.5038 -0.4048
  754SOL     OW 3013   2.271   2.949   2.635 -0.4273  0.3375 -0.1047
  754SOL    HW1 3014   2.307   2.980   2.549  2.6738  0.5206  2.7623
  754SOL    HW2 3015   2.346   2.910   2.680 -0.1463 -1.5100  1.1936
  754SOL     MW 3016   2.286   2.948   2.629  0.0189  0.1179  0.4449
  755SOL     OW 3017   2.727   1.547   2.428 -0.4596 -0.3790 -0.4762
  755SOL    HW1 3018   2.768   1.483   2.489  0.9284 -1.4869  1.4336
  755SOL    HW2 3019   2.755   1.629   2.476  0.2232 -2.8362 -1.0043
  755SOL     MW 3020   2.736   1.550   2.442 -0.1864 -0.8494 -0.2939
  756SOL     OW 3021   2.197   1.198   2.950  0.0656  0.0618 -0.6117
  756SOL    HW1 3022   2.240   1.287   2.963 -2.8730  1.8511  0.4152
  756SOL    HW2 3023   2.253   1.141   3.007  1.4230  1.9584 -0.6299
  756SOL     MW 3024   2.210   1.202   2.959 -0.1430  0.5481 -0.4786
  757SOL     OW 3025   2.163   0.957   1.569  0.0698  0.2629  0.2532
  757SOL    HW1 3026   2.194   0.870   1.604 -0.9774 -0.6805 -3.3811
  757SOL    HW2 3027   2.066   0.946   1.546 -2.1017  0.3632 -0.1118
  757SOL     MW 3028   2.154   0.944   1.571 -0.3548  0.1517 -0.2745
  758SOL     OW 3029   2.193   1.772   2.603 -0.1475 -0.3465 -0.2458
  758SOL    HW1 3030   2.174   1.787   2.508 -0.8103 -1.3641 -1.0545
  758SOL    HW2 3031   2.283   1.752   2.613 -1.1835  1.2752 -1.9058
  758SOL     MW 3032   2.202   1.771   2.592 -0.3717 -0.2668 -0.5715
  759SOL     OW 3033   1.555   1.272   2.696 -0.3011 -1.1240 -0.4014
  759SOL    HW1 3034   1.515   1.314   2.618  0.0110 -0.5469  0.5935
  759SOL    HW2 3035   1.614   1.343   2.734 -0.6919 -0.3630 -1.4692
  759SOL     MW 3036   1.557   1.287   2.691 -0.3114 -0.9475 -0.4110
  760SOL     OW 3037   2.671   1.957   2.698 -0.2467 -0.0489  0.1851
  760SOL    HW1 3038   2.618   1.872   2.693 -1.4543  2.6158 -0.7193
  760SOL    HW2 3039   2.700   1.976   2.609 -0.8686  1.2501 -0.9862
  760SOL     MW 3040   2.668   1.948   2.686 -0.4881  0.4741 -0.0888
  761SOL     OW 3041   2.212   0.363   2.534 -0.1746 -0.2357 -0.2205
  761SOL    HW1 3042   2.128   0.330   2.570 -2.6351 -2.6172  0.1423
  761SOL    HW2 3043   2.241   0.417   2.604  0.8527 -1.1587 -1.7126
  761SOL     MW 3044   2.205   0.366   2.548 -0.3637 -0.6717 -0.3695
  762SOL     OW 3045   3.072   0.280   2.134 -0.2249  0.2480 -0.2068
  762SOL    HW1 3046   3.060   0.200   2.186  0.4227  0.2343 -0.0529
  762SOL    HW2 3047   3.050   0.358   2.187  0.7924  2.2806  0.5294
  762SOL     MW 3048   3.068   0.280   2.148 -0.0053  0.5144 -0.0894
  763SOL     OW 3049   2.372   1.030   2.340  0.1975  0.5437  0.2996
  763SOL    HW1 3050   2.422   0.991   2.269 -3.2087 -2.0238  2.5586
  763SOL    HW2 3051   2.440   1.082   2.375 -1.6202 -0.5903  0.6175
  763SOL     MW 3052   2.387   1.031   2.335 -0.4917  0.0553  0.6396
  764SOL     OW 3053   0.422   0.306   2.855 -0.3282  0.4021 -0.0288
  764SOL    HW1 3054   0.335   0.264   2.832  0.8546 -0.9430  0.1433
  764SOL    HW2 3055   0.393   0.384   2.903 -0.0348  1.3323 -3.3078
  764SOL     MW 3056   0.407   0.311   2.858 -0.1335  0.3474 -0.4388
  765SOL     OW 3057   2.738   2.946   2.382  0.1906 -0.4526 -0.1124
  765SOL    HW1 3058   2.684   2.965   2.303 -0.1499  0.6214 -1.0015
  765SOL    HW2 3059   2.822   2.905   2.359  0.1132  1.0098 -0.6211
  765SOL     MW 3060   2.742   2.943   2.368  0.1354 -0.1179 -0.2968
  766SOL     OW 3061   1.907   2.997   2.137 -0.3894 -0.0371 -0.3096
  766SOL    HW1 3062   1.968   3.049   2.083  1.7927 -0.7380 -2.1421
  766SOL    HW2 3063   1.864   2.938   2.082  2.2166 -0.3117  0.2590
  766SOL     MW 3064   1.909   2.996   2.123  0.2424 -0.1658 -0.4764
  767SOL     OW 3065   2.665   0.596   2.076  0.3570 -0.2012 -0.0614
  767SOL    HW1 3066   2.713   0.663   2.126  1.8788 -1.7225  0.2855
  767SOL    HW2 3067   2.587   0.632   2.027 -0.6784 -2.4891  0.4482
  767SOL     MW 3068   2.661   0.610   2.076  0.4212 -0.7038  0.0516
  768SOL     OW 3069   2.978   1.561   2.960  0.1151  0.2750 -0.0240
  768SOL    HW1 3070   2.996   1.559   3.059  1.5519 -1.4267  0.0294
  768SOL    HW2 3071   3.031   1.495   2.930 -1.9443 -0.3826  2.8176
  768SOL     MW 3072   2.987   1.552   2.969  0.0329 -0.0363  0.3580
  769SOL     OW 3073   2.536   0.629   2.439  0.1726  0.0874  0.0639
  769SOL    HW1 3074   2.500   0.658   2.360  3.6643  0.3859  1.6298
  769SOL    HW2 3075   2.616   0.586   2.411 -0.9000 -1.4615  3.8132
  769SOL     MW 3076   2.542   0.627   2.425  0.4918 -0.0776  0.7652
  770SOL     OW 3077   3.060   1.610   2.511  0.2438  0.1053 -0.0648
  770SOL    HW1 3078   3.004   1.644   2.579  1.3670 -0.3561 -1.3483
  770SOL    HW2 3079   3.042   1.512   2.504  1.3318 -3.2738 -0.5930
  770SOL     MW 3080   3.050   1.601   2.519  0.5355 -0.4014 -0.3039
  771SOL     OW 3081   3.059   0.630   1.950 -0.1656  0.7382 -0.5533
  771SOL    HW1 3082   3.002   0.633   1.874 -2.2656 -4.6314 -0.0087
  771SOL    HW2 3083   3.129   0.584   1.906 -1.7688  2.0872  0.6184
  771SOL     MW 3084   3.061   0.624   1.934 -0.6542  0.2077 -0.3269
  772SOL     OW 3085   0.030   3.085   2.250  0.3077  0.0220 -0.4786
  772SOL    HW1 3086  -0.029   3.012   2.258 -0.2040 -0.5573  0.0121
  772SOL    HW2 3087   0.112   3.054   2.201  0.0450  0.3794 -2.7992
  772SOL     MW 3088   0.033   3.072   2.245  0.2055 -0.0073 -0.7201
  773SOL     OW 3089   2.500   2.796   2.728 -0.3473  0.1840 -0.8287
  773SOL    HW1 3090   2.476   2.734   2.657  0.2446  1.2200  1.2628
  773SOL    HW2 3091   2.487   2.753   2.812 -1.0767 -0.8323 -3.7171
  773SOL     MW 3092   2.495   2.782   2.730 -0.3654  0.1866 -0.9339
  774SOL     OW 3093   2.321   1.156   1.708  0.0101  0.1881 -0.5531
  774SOL    HW1 3094   2.303   1.238   1.656 -0.1799 -0.9242 -1.4842
  774SOL    HW2 3095   2.279   1.091   1.653 -1.8511  2.2001 -0.9574
  774SOL     MW 3096   2.313   1.158   1.694 -0.2606  0.3068 -0.7293
  775SOL     OW 3097   2.315   2.924   2.347  0.2840 -0.0935 -0.3474
  775SOL    HW1 3098   2.307   3.000   2.291 -0.5957 -1.4672  0.4912
  775SOL    HW2 3099   2.357   2.857   2.299  3.1502 -1.6747 -0.6333
  775SOL     MW 3100   2.319   2.925   2.334  0.5461 -0.4834 -0.2745
  776SOL     OW 3101   0.029   1.494   0.091  0.2298 -0.6388  0.1952
  776SOL    HW1 3102   0.131   1.497   0.083  1.7099  0.7252  0.8217
  776SOL    HW2 3103   0.007   1.414   0.150  1.2713 -0.4520 -2.4087
  776SOL     MW 3104   0.039   1.484   0.098  0.5625 -0.4342 -0.0657
  777SOL     OW 3105   2.963   1.004   1.788  0.4097  0.4465  0.1170
  777SOL    HW1 3106   2.927   1.070   1.735 -0.8509 -2.0232  1.4931
  777SOL    HW2 3107   2.891   0.994   1.846 -0.3341 -0.3803 -3.1705
  777SOL     MW 3108   2.948   1.011   1.789  0.1452  0.0116 -0.1352
  778SOL     OW 3109   2.912   0.367   2.788  0.3243 -0.1380 -0.0200
  778SOL    HW1 3110   2.902   0.371   2.883  1.9205  0.7109 -0.2262
  778SOL    HW2 3111   2.939   0.460   2.757  0.4025  1.8617 -2.0189
  778SOL     MW 3112   2.914   0.380   2.797  0.5452  0.2379 -0.3110
  779SOL     OW 3113   2.100   0.513   2.307  0.1468 -0.1162 -0.3281
  779SOL    HW1 3114   2.061   0.593   2.344  1.2521  1.0742 -3.1726
  779SOL    HW2 3115   2.102   0.438   2.365  1.4204 -0.7730 -1.9624
  779SOL     MW 3116   2.095   0.513   2.319  0.4606 -0.0458 -0.9190
  780SOL     OW 3117   0.207   0.164   2.797 -0.1513  0.3549  0.0767
  780SOL    HW1 3118   0.148   0.209   2.860  0.0087  2.1892  0.3704
  780SOL    HW2 3119   0.166   0.177   2.715 -0.7369  1.8093  1.1920
  780SOL     MW 3120   0.194   0.172   2.794 -0.2074  0.7888  0.2626
  781SOL     OW 3121   3.064   1.337   2.371  0.4000  0.0833 -0.0778
  781SOL    HW1 3122   3.014   1.390   2.311  0.6340 -3.0377  1.4229
  781SOL    HW2 3123   3.125   1.300   2.315 -1.6845  0.6588 -0.3839
  781SOL     MW 3124   3.066   1.339   2.355  0.1559 -0.2526  0.0798
  782SOL     OW 3125   0.548   1.523   3.073 -0.0844  0.3505  0.0536
  782SOL    HW1 3126   0.489   1.597   3.087  1.6720 -0.8296  1.1766
  782SOL    HW2 3127   0.564   1.488   3.161 -0.9653  1.1302 -2.5186
  782SOL     MW 3128   0.542   1.528   3.086  0.0311  0.2977 -0.1376
  783SOL     OW 3129   2.798   0.589   2.454 -0.2029  0.2598 -0.1411
  783SOL    HW1 3130   2.853   0.557   2.381 -0.9552 -2.0644 -0.5090
  783SOL    HW2 3131   2.782   0.502   2.497 -1.0700  1.9918  1.5330
  783SOL     MW 3132   2.803   0.573   2.450 -0.4165  0.1817  0.0312
  784SOL     OW 3133   0.208   0.912   2.854 -0.0233  0.4209 -0.3662
  784SOL    HW1 3134   0.244   0.965   2.922 -1.4724 -4.8151  0.4717
  784SOL    HW2 3135   0.215   0.959   2.773 -0.8657 -2.1147  2.2310
  784SOL     MW 3136   0.214   0.925   2.852 -0.3256 -0.6045  0.0871
  785SOL     OW 3137   0.362   0.555   2.125  0.7414  0.1897 -0.1213
  785SOL    HW1 3138   0.352   0.560   2.028  0.5713 -1.5019  0.2997
  785SOL    HW2 3139   0.329   0.469   2.125 -0.6412  2.9057 -0.3876
  785SOL     MW 3140   0.357   0.544   2.112  0.5365  0.3249 -0.1009
  786SOL     OW 3141   2.048   0.457   2.822  0.3028 -0.3594 -0.2063
  786SOL    HW1 3142   2.079   0.423   2.908  2.0308  1.1733  1.4706
  786SOL    HW2 3143   2.138   0.502   2.794  1.9271 -0.4150 -0.9473
  786SOL     MW 3144   2.064   0.458   2.830  0.7451 -0.1645 -0.0828
  787SOL     OW 3145   2.487   0.145   2.894  0.3586 -0.0391 -0.1332
  787SOL    HW1 3146   2.521   0.144   2.802 -1.9934 -0.7843 -0.1014
  787SOL    HW2 3147   2.492   0.237   2.930  0.4061  1.3192 -1.1276
  787SOL     MW 3148   2.492   0.157   2.887  0.0545  0.0418 -0.2602
  788SOL     OW 3149   2.978   2.866   2.300  0.1885 -0.9183  0.2651
  788SOL    HW1 3150   2.943   2.808   2.233  1.5572 -1.1515  1.1986
  788SOL    HW2 3151   3.034   2.825   2.361 -1.5971  0.2324 -2.2629
  788SOL     MW 3152   2.981   2.853   2.299  0.1335 -0.7972  0.0547
  789SOL     OW 3153   0.081   0.280   3.026  0.1423 -0.1303 -0.4419
  789SOL    HW1 3154  -0.004   0.236   3.031 -0.5851  0.5846 -0.6873
  789SOL    HW2 3155   0.120   0.258   3.107  1.8202 -1.6572  0.3668
  789SOL     MW 3156   0.075   0.271   3.038  0.2677 -0.2375 -0.3675
  790SOL     OW 3157   0.041   1.016   2.460  0.5015 -0.4250  0.1744
  790SOL    HW1 3158   0.007   0.968   2.541  1.9325  0.0218  0.6355
  790SOL    HW2 3159  -0.034   1.064   2.427 -1.6050  0.1993  0.2439
  790SOL     MW 3160   0.027   1.016   2.466  0.4124 -0.2837  0.2444
  791SOL     OW 3161   2.681   0.419   2.650 -0.3315 -0.2121  0.6351
  791SOL    HW1 3162   2.629   0.492   2.694  0.0412 -0.0093 -2.7578
  791SOL    HW2 3163   2.755   0.407   2.707 -2.2692  2.0240  0.3281
  791SOL     MW 3164   2.684   0.427   2.664 -0.5380  0.1097  0.1469
  792SOL     OW 3165   2.464   0.263   2.382  0.3073  0.1778  0.7947
  792SOL    HW1 3166   2.398   0.321   2.421  1.4729  0.5005 -3.1805
  792SOL    HW2 3167   2.517   0.233   2.457  1.9091 -3.0406  0.8092
  792SOL     MW 3168   2.462   0.267   2.397  0.6724 -0.2043  0.2721
  793SOL     OW 3169   1.763   1.018   1.870  0.8542  0.4428 -0.2745
  793SOL    HW1 3170   1.752   1.075   1.787  0.0174 -1.9384 -0.7120
  793SOL    HW2 3171   1.855   0.988   1.863 -3.4553 -2.8341 -1.2802
  793SOL     MW 3172   1.774   1.021   1.858  0.1752 -0.3037 -0.4649
  794SOL     OW 3173   1.416   2.300   0.152 -0.4056 -0.1792 -0.2328
  794SOL    HW1 3174   1.424   2.366   0.077  1.9341 -0.4941  0.9534
  794SOL    HW2 3175   1.469   2.331   0.229  1.6361  0.4515 -0.7579
  794SOL     MW 3176   1.424   2.313   0.152  0.1725 -0.1375 -0.1455
  795SOL     OW 3177   2.339   0.929   2.592 -0.1189 -0.0145  0.5195
  795SOL    HW1 3178   2.342   1.013   2.636 -0.4023  1.0250 -1.4668
  795SOL    HW2 3179   2.345   0.964   2.500 -1.7993 -3.0633 -0.2284
  795SOL     MW 3180   2.340   0.945   2.586 -0.3780 -0.2796  0.1588
  796SOL     OW 3181   0.277   0.670   2.775  0.1766  0.3662  0.3545
  796SOL    HW1 3182   0.291   0.764   2.780  1.2217 -1.0250  0.2417
  796SOL    HW2 3183   0.239   0.641   2.690 -1.2681  0.6213  1.2850
  796SOL     MW 3184   0.274   0.679   2.765  0.1239  0.2163  0.4624
  797SOL     OW 3185   2.580   0.163   2.607 -0.0677  0.0150  0.1780
  797SOL    HW1 3186   2.609   0.251   2.626 -1.3649  3.4937 -0.2165
  797SOL    HW2 3187   2.647   0.132   2.540 -1.0949  2.4660 -1.8448
  797SOL     MW 3188   2.593   0.171   2.600 -0.3744  0.7974 -0.1410
  798SOL     OW 3189   2.336   0.063   2.223  0.1461  0.0586 -0.3202
  798SOL    HW1 3190   2.360   0.140   2.280 -1.7495 -0.4102  1.9014
  798SOL    HW2 3191   2.424   0.038   2.189  0.0759 -0.0466  0.0281
  798SOL     MW 3192   2.351   0.070   2.226 -0.1133 -0.0172  0.0189
  799SOL     OW 3193   2.521   2.878   0.205 -0.2048 -0.0113  0.6516
  799SOL    HW1 3194   2.578   2.849   0.134  0.1225 -0.7573  0.2011
  799SOL    HW2 3195   2.460   2.942   0.163  0.4280  0.7322  0.6032
  799SOL     MW 3196   2.520   2.883   0.190 -0.0781 -0.0116  0.5858
  800SOL     OW 3197   1.896   3.088   1.728 -0.2128  0.1902  0.2708
  800SOL    HW1 3198   1.839   3.008   1.740 -0.2626 -0.3493 -2.0297
  800SOL    HW2 3199   1.956   3.097   1.801  1.3342  2.5333 -1.2942
  800SOL     MW 3200   1.896   3.078   1.739 -0.0153  0.4281 -0.2392
  801SOL     OW 3201   2.850   1.309   2.552  0.1653 -0.4783 -0.6369
  801SOL    HW1 3202   2.826   1.225   2.589  1.0685  0.3860  0.4301
  801SOL    HW2 3203   2.912   1.287   2.479  0.2894 -0.5761  0.4030
  801SOL     MW 3204   2.855   1.295   2.547  0.3008 -0.3772 -0.3589
  802SOL     OW 3205   2.568   1.509   2.754 -0.3104 -0.3355 -0.2151
  802SOL    HW1 3206   2.579   1.413   2.730 -0.9512 -0.4990 -2.6213
  802SOL    HW2 3207   2.662   1.526   2.784  0.9134 -1.8861  2.8423
  802SOL     MW 3208   2.582   1.499   2.755 -0.2335 -0.5617 -0.1292
  803SOL     OW 3209   2.258   1.332   1.971  0.2834  0.0376  0.3994
  803SOL    HW1 3210   2.225   1.288   2.056  1.5550  1.8114  0.9365
  803SOL    HW2 3211   2.249   1.270   1.899  0.5663  0.7474 -1.1144
  803SOL     MW 3212   2.252   1.318   1.973  0.4885  0.3653  0.2706
  804SOL     OW 3213   2.365   3.089   0.056 -0.5730  0.5297  0.2089
  804SOL    HW1 3214   2.282   3.148   0.035 -1.4171 -1.4074  0.3058
  804SOL    HW2 3215   2.439   3.138   0.018  1.5927 -0.2592  1.3234
  804SOL     MW 3216   2.364   3.104   0.048 -0.3986  0.1701  0.3688
  805SOL     OW 3217   2.793   1.034   2.635 -0.1594  0.0206  0.0122
  805SOL    HW1 3218   2.720   0.971   2.611 -2.0880 -0.0657  1.2174
  805SOL    HW2 3219   2.868   0.971   2.631  0.0493  0.3565  1.7526
  805SOL     MW 3220   2.793   1.017   2.632 -0.3863  0.0536  0.4008
  806SOL     OW 3221   2.665   0.330   2.191  0.7426 -0.0863  0.0191
  806SOL    HW1 3222   2.596   0.305   2.257  0.9255 -0.6151  0.8812
  806SOL    HW2 3223   2.640   0.414   2.151 -2.2179  2.6733 -0.6025
  806SOL     MW 3224   2.653   0.338   2.194  0.3762  0.2080  0.0508
  807SOL     OW 3225   0.055   1.085   2.119 -0.1396 -0.3333 -0.2003
  807SOL    HW1 3226   0.093   1.011   2.069 -2.1029 -1.5512 -0.5898
  807SOL    HW2 3227  -0.032   1.056   2.152 -2.0509  0.7983  0.6295
  807SOL     MW 3228   0.049   1.071   2.117 -0.6508 -0.3447 -0.1422
  808SOL     OW 3229   2.654   3.034   2.748  0.0727 -0.9176 -0.7848
  808SOL    HW1 3230   2.605   2.953   2.731  1.9259 -2.5599 -0.6963
  808SOL    HW2 3231   2.624   3.099   2.682 -2.2038  0.1404 -0.5703
  808SOL     MW 3232   2.644   3.032   2.737  0.0169 -0.9947 -0.7448
  809SOL     OW 3233   2.550   1.242   2.411  0.1678  0.2345 -0.2358
  809SOL    HW1 3234   2.586   1.242   2.496 -1.0726 -0.6725  1.7947
  809SOL    HW2 3235   2.623   1.267   2.356  3.3336  0.8799  1.9685
  809SOL     MW 3236   2.564   1.245   2.415  0.4218  0.2000  0.3229
  810SOL     OW 3237   2.201   1.238   2.251 -0.2519 -0.3339  0.1133
  810SOL    HW1 3238   2.268   1.171   2.287  1.6269 -1.1932 -0.3965
  810SOL    HW2 3239   2.123   1.220   2.306  0.6821  1.1646  0.7702
  810SOL     MW 3240   2.200   1.227   2.263  0.1192 -0.2496  0.1327
  811SOL     OW 3241   1.486   0.059   2.254 -0.0958 -0.0416  0.7704
  811SOL    HW1 3242   1.569   0.016   2.270 -0.6964  1.8530  0.8561
  811SOL    HW2 3243   1.490   0.050   2.162  1.9336 -0.5994 -1.8519
  811SOL     MW 3244   1.498   0.053   2.244  0.0927  0.1348  0.4357
  812SOL     OW 3245   1.486   2.738   2.104 -0.0783 -0.3009 -0.0869
  812SOL    HW1 3246   1.579   2.743   2.090  1.3173 -0.2341  2.0854
  812SOL    HW2 3247   1.476   2.720   2.197 -0.6355 -0.5922 -0.5462
  812SOL     MW 3248   1.497   2.736   2.114  0.0323 -0.3306  0.1391
  813SOL     OW 3249   1.849   0.718   2.151 -0.3131  0.7711  0.6651
  813SOL    HW1 3250   1.780   0.650   2.166 -1.0391 -0.8277  3.3692
  813SOL    HW2 3251   1.864   0.734   2.246  0.6848 -1.0604  0.2611
  813SOL     MW 3252   1.842   0.711   2.165 -0.2772  0.3185  0.9686
  814SOL     OW 3253   2.809   1.172   1.657 -0.2812  0.1432  0.5464
  814SOL    HW1 3254   2.721   1.165   1.698 -0.4204  0.9611  1.4639
  814SOL    HW2 3255   2.808   1.172   1.565  0.3130  0.1920  1.7972
  814SOL     MW 3256   2.797   1.171   1.650 -0.2212  0.2576  0.8324
  815SOL     OW 3257   2.491   1.672   2.363 -0.4976 -0.0020  0.0206
  815SOL    HW1 3258   2.438   1.591   2.352  3.0104  1.1261  0.9440
  815SOL    HW2 3259   2.574   1.627   2.397  1.5067 -3.8784 -0.1789
  815SOL     MW 3260   2.495   1.656   2.366  0.2297 -0.3646  0.1161
  816SOL     OW 3261   0.699   0.724   2.768  0.6751  0.1466  0.3930
  816SOL    HW1 3262   0.751   0.668   2.829  1.6553 -1.4760  1.1028
  816SOL    HW2 3263   0.699   0.677   2.680 -0.8056  1.1875  0.5667
  816SOL     MW 3264   0.705   0.711   2.764  0.6091  0.0698  0.5096
  817SOL     OW 3265   0.012   1.187   1.335  0.7169 -0.1157  0.2055
  817SOL    HW1 3266   0.064   1.187   1.412 -0.2173  1.4454 -1.4223
  817SOL    HW2 3267  -0.037   1.274   1.346 -1.9593  0.5033  3.0441
  817SOL     MW 3268   0.012   1.199   1.347  0.2405  0.1719  0.3653
  818SOL     OW 3269   1.917   1.024   2.665  0.0717 -0.0793 -0.1296
  818SOL    HW1 3270   1.940   1.073   2.581  0.4203  1.5096 -1.1776
  818SOL    HW2 3271   1.987   0.957   2.677 -0.0450 -1.7484 -0.2172
  818SOL     MW 3272   1.929   1.022   2.656  0.1023 -0.0899 -0.2795
  819SOL     OW 3273   1.974   0.178   2.327  0.2547 -0.2685 -0.0977
  819SOL    HW1 3274   2.059   0.137   2.295  1.9345  0.3364  1.2888
  819SOL    HW2 3275   1.975   0.173   2.424  1.2424 -0.2459 -1.2285
  819SOL     MW 3276   1.985   0.172   2.336  0.6066 -0.1857 -0.0640
  820SOL     OW 3277   2.474   1.741   2.632 -0.0935 -0.2233  0.0100
  820SOL    HW1 3278   2.500   1.666   2.688 -0.8664  0.1615 -0.2106
  820SOL    HW2 3279   2.474   1.708   2.543  0.0709  0.5662  0.3323
  820SOL     MW 3280   2.477   1.727   2.628 -0.1738 -0.0684  0.0234
  821SOL     OW 3281   2.527   1.321   2.003  0.2875 -0.2869 -0.1533
  821SOL    HW1 3282   2.572   1.395   1.964  1.5892 -0.0056 -0.5810
  821SOL    HW2 3283   2.429   1.341   1.983  0.2288 -0.7221 -2.6111
  821SOL     MW 3284   2.520   1.334   1.995  0.4515 -0.3072 -0.5340
  822SOL     OW 3285   2.895   2.626   1.428 -0.4497  0.2518 -0.3458
  822SOL    HW1 3286   2.809   2.653   1.398  1.5173  1.0036  1.7730
  822SOL    HW2 3287   2.931   2.698   1.473 -2.3512 -1.2048  0.2546
  822SOL     MW 3288   2.889   2.639   1.430 -0.4411  0.1588  0.0130
  823SOL     OW 3289   2.364   0.472   1.825 -0.2517 -0.4284  0.2208
  823SOL    HW1 3290   2.431   0.429   1.768  0.2078 -1.4497 -0.2115
  823SOL    HW2 3291   2.291   0.406   1.824  1.5245 -0.1446  0.2520
  823SOL     MW 3292   2.363   0.457   1.817  0.0433 -0.5257  0.1679
  824SOL     OW 3293   2.144   1.364   2.561  1.1665  0.6782 -0.0226
  824SOL    HW1 3294   2.222   1.396   2.513 -2.4395 -3.1612 -1.6581
  824SOL    HW2 3295   2.097   1.431   2.613  0.4727 -0.8825  1.4303
  824SOL     MW 3296   2.148   1.377   2.561  0.5992 -0.0343 -0.0467
  825SOL     OW 3297   2.083   2.329   0.361 -0.1112  0.5843 -0.4705
  825SOL    HW1 3298   2.112   2.342   0.273 -0.1208  1.4032 -0.6840
  825SOL    HW2 3299   2.164   2.314   0.405  1.1726 -0.4036 -0.5645
  825SOL     MW 3300   2.097   2.329   0.355  0.0569  0.5620 -0.5111
  826SOL     OW 3301   1.833   2.442   0.458  0.6148 -0.4147  0.2511
  826SOL    HW1 3302   1.825   2.384   0.531 -0.1268  0.2876  0.6074
  826SOL    HW2 3303   1.923   2.473   0.464  2.7582  0.1438 -0.8161
  826SOL     MW 3304   1.844   2.438   0.468  0.7998 -0.2484  0.1573
  827SOL     OW 3305   1.873   2.243   0.904 -0.5379  0.1823  0.1717
  827SOL    HW1 3306   1.801   2.257   0.842 -1.0622  1.0648  1.9580
  827SOL    HW2 3307   1.850   2.154   0.941  0.4257 -0.4766  0.1479
  827SOL     MW 3308   1.861   2.233   0.900 -0.4799  0.2118  0.4042
  828SOL     OW 3309   0.054   2.679   0.523 -0.1331  0.3116  0.3924
  828SOL    HW1 3310   0.125   2.707   0.583  0.6945 -0.4999 -0.7973
  828SOL    HW2 3311   0.075   2.717   0.439 -0.2052  0.9510  1.7483
  828SOL     MW 3312   0.067   2.687   0.520 -0.0334  0.2889  0.4143
  829SOL     OW 3313   2.925   2.900   1.135 -0.7913  0.1256 -0.3510
  829SOL    HW1 3314   2.832   2.887   1.106  2.1039  0.4399 -1.2982
  829SOL    HW2 3315   2.971   2.814   1.117  0.4346  1.8973  1.5125
  829SOL     MW 3316   2.919   2.887   1.129 -0.2476  0.4008 -0.2301
  830SOL     OW 3317   2.515   2.877   2.014  0.0833  0.7182  0.0167
  830SOL    HW1 3318   2.437   2.894   1.950 -1.4821 -1.0828  0.3315
  830SOL    HW2 3319   2.588   2.845   1.955  2.0684  0.5430 -0.1972
  830SOL     MW 3320   2.515   2.875   1.997  0.1387  0.4574  0.0300
  831SOL     OW 3321   2.446   2.392   1.186 -0.0686 -0.0575  0.2384
  831SOL    HW1 3322   2.427   2.316   1.241 -0.4016 -2.5588  1.2651
  831SOL    HW2 3323   2.542   2.396   1.171  0.8564 -5.1642  0.9177
  831SOL     MW 3324   2.456   2.382   1.192  0.0095 -1.0613  0.4635
  832SOL     OW 3325   2.409   2.126   1.883  0.2698 -0.5030 -0.5288
  832SOL    HW1 3326   2.430   2.221   1.900  1.0226 -0.5170  0.9114
  832SOL    HW2 3327   2.479   2.104   1.820  3.0918 -2.4684 -1.5773
  832SOL     MW 3328   2.421   2.136   1.877  0.7414 -0.7642 -0.4771
  833SOL     OW 3329   1.622   2.505   0.842  0.2391  0.5360  0.3095
  833SOL    HW1 3330   1.589   2.469   0.927  0.1594  4.1334 -0.6369
  833SOL    HW2 3331   1.564   2.576   0.818 -0.6223 -1.3049 -0.6744
  833SOL     MW 3332   1.610   2.510   0.850  0.1149  0.7678  0.0548
  834SOL     OW 3333   2.236   2.429   0.619  0.5757  0.3628 -0.0993
  834SOL    HW1 3334   2.192   2.348   0.651 -0.9352  2.6835  3.2199
  834SOL    HW2 3335   2.310   2.447   0.691 -1.7991  0.5373 -1.2335
  834SOL     MW 3336   2.240   2.421   0.633  0.0630  0.6920  0.1890
  835SOL     OW 3337   1.879   2.623   0.707  0.7801 -0.0929  0.2558
  835SOL    HW1 3338   1.814   2.561   0.752 -3.1335 -2.9807  0.6421
  835SOL    HW2 3339   1.956   2.615   0.754  0.3641 -1.1917 -1.7025
  835SOL     MW 3340   1.880   2.614   0.719  0.2089 -0.6189  0.0484
  836SOL     OW 3341   2.071   2.079   1.825  0.2220  0.3963  0.4898
  836SOL    HW1 3342   2.129   2.009   1.854 -1.4631 -0.6511 -0.3506
  836SOL    HW2 3343   2.115   2.164   1.815 -0.4424  1.8066 -1.1295
  836SOL     MW 3344   2.084   2.081   1.827 -0.0880  0.4441  0.1652
  837SOL     OW 3345   2.085   0.187   0.635  0.3411  0.0238 -0.7855
  837SOL    HW1 3346   2.019   0.206   0.569  0.2690  2.0525 -0.9111
  837SOL    HW2 3347   2.142   0.132   0.585 -1.0196 -1.1017  1.5429
  837SOL     MW 3348   2.084   0.182   0.620  0.1521  0.1430 -0.4949
  838SOL     OW 3349   2.921   2.058   0.958 -1.0512  0.1734  0.2588
  838SOL    HW1 3350   2.839   2.004   0.961  1.4914  0.4254  2.4687
  838SOL    HW2 3351   2.963   2.038   1.044 -1.2975  0.0780  0.8701
  838SOL     MW 3352   2.915   2.048   0.970 -0.7482  0.1941  0.6311
  839SOL     OW 3353   1.544   2.453   1.092  0.7017  0.2468  0.0916
  839SOL    HW1 3354   1.531   2.522   1.165  1.6718 -1.1695 -0.4778
  839SOL    HW2 3355   1.585   2.374   1.125  3.8397 -3.3102  0.3347
  839SOL     MW 3356   1.548   2.452   1.106  1.2437 -0.4094  0.0486
  840SOL     OW 3357   2.360   2.095   2.323 -0.1201 -0.2188  0.0746
  840SOL    HW1 3358   2.316   2.177   2.286  0.1322  0.7022 -3.3958
  840SOL    HW2 3359   2.411   2.119   2.402  0.0292 -1.3790 -0.6487
  840SOL     MW 3360   2.361   2.109   2.329 -0.0671 -0.2503 -0.4787
  841SOL     OW 3361   2.213   2.332   0.102 -0.8406 -0.1696 -0.0013
  841SOL    HW1 3362   2.249   2.379   0.027  1.1390  0.4331 -0.6537
  841SOL    HW2 3363   2.151   2.268   0.061 -0.3418 -0.6142 -0.0221
  841SOL     MW 3364   2.210   2.329   0.087 -0.5136 -0.1487 -0.0901
  842SOL     OW 3365   2.697   1.968   1.490  0.7534 -0.1089 -0.4434
  842SOL    HW1 3366   2.632   1.896   1.487 -0.6592  1.6878  0.7891
  842SOL    HW2 3367   2.683   2.006   1.405  0.6548 -0.0727 -1.5915
  842SOL     MW 3368   2.687   1.964   1.479  0.5540  0.1329 -0.4323
  843SOL     OW 3369   2.733   2.747   1.821  0.7067 -0.1869 -0.0779
  843SOL    HW1 3370   2.805   2.707   1.869  1.0875 -1.7610  1.9053
  843SOL    HW2 3371   2.687   2.679   1.769  1.3653  0.9334  3.0148
  843SOL     MW 3372   2.737   2.733   1.821  0.8438 -0.2467  0.5918
  844SOL     OW 3373   2.705   2.360   1.131  0.5194 -0.0759  0.4223
  844SOL    HW1 3374   2.715   2.384   1.036 -0.5404 -1.7371 -0.4879
  844SOL    HW2 3375   2.779   2.384   1.178  1.4892  1.1768 -0.8786
  844SOL     MW 3376   2.716   2.366   1.125  0.5075 -0.1298  0.1306
  845SOL     OW 3377   2.818   2.618   0.244 -0.0066  0.1959 -0.7037
  845SOL    HW1 3378   2.844   2.546   0.308 -1.3674 -0.6598  3.5659
  845SOL    HW2 3379   2.820   2.703   0.290  0.2961  2.1039  0.4929
  845SOL     MW 3380   2.821   2.620   0.258 -0.1462  0.3348  0.0175
  846SOL     OW 3381   1.477   2.746   0.777  0.5663  0.1927 -0.0988
  846SOL    HW1 3382   1.521   2.830   0.766  1.0495  0.0021 -1.4568
  846SOL    HW2 3383   1.381   2.765   0.782  1.1543 -1.5449 -0.7001
  846SOL     MW 3384   1.470   2.760   0.777  0.7077 -0.0617 -0.3573
  847SOL     OW 3385   2.425   1.828   0.229 -0.0192  0.3562  0.0456
  847SOL    HW1 3386   2.417   1.732   0.230 -0.6313 -3.4029 -0.0277
  847SOL    HW2 3387   2.383   1.856   0.141 -0.1979 -1.3604 -4.2107
  847SOL     MW 3388   2.418   1.819   0.218 -0.1236 -0.3663 -0.5257
  848SOL     OW 3389   2.713   2.108   1.234 -0.5155  0.0579  0.4147
  848SOL    HW1 3390   2.716   2.151   1.145 -2.1413 -2.5268 -2.9972
  848SOL    HW2 3391   2.804   2.083   1.239  0.6295 -1.7182 -1.5875
  848SOL     MW 3392   2.725   2.111   1.223 -0.5790 -0.5174 -0.2996
  849SOL     OW 3393   1.871   2.856   0.838  0.5170  0.1162  0.1527
  849SOL    HW1 3394   1.824   2.836   0.923 -0.3927  1.0099  2.0035
  849SOL    HW2 3395   1.854   2.771   0.786  1.4609 -1.5137  0.5869
  849SOL     MW 3396   1.863   2.842   0.843  0.5215  0.0191  0.4542
  850SOL     OW 3397   2.330   1.916   1.622  0.2743 -0.4668  0.4301
  850SOL    HW1 3398   2.243   1.898   1.579  1.0954 -0.8627 -1.7804
  850SOL    HW2 3399   2.335   2.011   1.607  0.4745  0.1353  0.1640
  850SOL     MW 3400   2.319   1.926   1.614  0.4091 -0.4396  0.1034
  851SOL     OW 3401   2.572   2.231   0.373 -0.8354 -0.1825 -0.5615
  851SOL    HW1 3402   2.568   2.229   0.279  2.2955 -0.2612 -1.2467
  851SOL    HW2 3403   2.540   2.318   0.383 -2.1994 -0.5024  0.2210
  851SOL     MW 3404   2.567   2.242   0.362 -0.6023 -0.2351 -0.5487
  852SOL     OW 3405   2.349   2.058   0.391 -0.1498  0.3131 -0.4393
  852SOL    HW1 3406   2.408   2.124   0.354  0.5697  2.2356  0.6705
  852SOL    HW2 3407   2.379   1.972   0.353  0.0167  1.1356 -0.2134
  852SOL     MW 3408   2.360   2.055   0.381 -0.0329  0.6753 -0.2631
  853SOL     OW 3409   2.512   2.392   1.929  0.1441  0.2440  0.1469
  853SOL    HW1 3410   2.539   2.442   1.850  0.2404  2.3123  0.0610
  853SOL    HW2 3411   2.595   2.389   1.978  2.2394 -0.0739 -1.1807
  853SOL     MW 3412   2.527   2.398   1.925  0.4333  0.4750 -0.0396
  854SOL     OW 3413   2.891   2.286   0.745  0.4231  0.0132  0.2052
  854SOL    HW1 3414   2.809   2.238   0.716  0.2054  2.1830  1.5658
  854SOL    HW2 3415   2.915   2.241   0.828 -0.8516  0.5321 -2.0155
  854SOL     MW 3416   2.883   2.274   0.752  0.2262  0.3679  0.0917
  855SOL     OW 3417   2.822   2.376   0.410  0.1413 -0.4637 -0.3536
  855SOL    HW1 3418   2.748   2.317   0.400  1.3113 -2.0302  1.6847
  855SOL    HW2 3419   2.895   2.316   0.398  1.3364  0.6357  1.3205
  855SOL     MW 3420   2.822   2.360   0.407  0.4533 -0.5254  0.1362
  856SOL     OW 3421   2.056   1.830   0.245 -0.0118 -0.2875 -0.1410
  856SOL    HW1 3422   1.963   1.810   0.247  0.6850  1.9590 -1.4747
  856SOL    HW2 3423   2.062   1.914   0.291 -3.1540 -0.7554  0.1473
  856SOL     MW 3424   2.045   1.839   0.251 -0.3345 -0.0528 -0.2790
  857SOL     OW 3425   2.463   1.966   0.609 -0.5153 -0.3553  0.8569
  857SOL    HW1 3426   2.419   2.010   0.540  2.8390 -0.8554 -0.6941
  857SOL    HW2 3427   2.394   1.947   0.674 -1.8108  0.2982  3.7706
  857SOL     MW 3428   2.448   1.969   0.609 -0.2437 -0.3350  1.0367
  858SOL     OW 3429   2.980   2.677   1.926  0.0455 -0.3074  0.3671
  858SOL    HW1 3430   2.998   2.768   1.895 -0.0159  0.7672 -1.1669
  858SOL    HW2 3431   2.981   2.626   1.844 -1.0801  2.0416  1.0134
  858SOL     MW 3432   2.982   2.682   1.911 -0.1111  0.1443  0.2499
  859SOL     OW 3433   1.772   2.658   1.049 -0.3497  0.5581  0.1127
  859SOL    HW1 3434   1.701   2.605   1.003 -0.4699 -3.7353 -0.7223
  859SOL    HW2 3435   1.833   2.592   1.076  0.7930 -0.6331  3.0949
  859SOL     MW 3436   1.771   2.642   1.047 -0.2148 -0.1655  0.3960
  860SOL     OW 3437   2.645   2.555   0.037 -0.2676  0.1840 -0.3830
  860SOL    HW1 3438   2.700   2.578   0.112  3.4448 -1.0503 -4.1787
  860SOL    HW2 3439   2.651   2.610  -0.037 -1.0012 -2.1027  0.8621
  860SOL     MW 3440   2.653   2.565   0.037  0.1255 -0.2806 -0.7195
  861SOL     OW 3441   1.562   2.193   1.162 -0.2437 -0.4431 -0.2346
  861SOL    HW1 3442   1.599   2.222   1.249 -0.1185  1.8488 -0.3394
  861SOL    HW2 3443   1.492   2.138   1.196  0.2562  0.2247 -0.2560
  861SOL     MW 3444   1.557   2.190   1.178 -0.1612 -0.0526 -0.2512
  862SOL     OW 3445   2.512   1.766   1.447  0.1516 -0.1708 -0.1312
  862SOL    HW1 3446   2.441   1.833   1.471  0.7286  1.8517 -2.2057
  862SOL    HW2 3447   2.476   1.735   1.363 -0.9787  0.2344  0.8542
  862SOL     MW 3448   2.498   1.770   1.439  0.0786  0.1495 -0.2749
  863SOL     OW 3449   2.884   1.643   0.967 -0.2208  0.5585 -0.2710
  863SOL    HW1 3450   2.851   1.687   1.042  1.1847  1.0198  0.3139
  863SOL    HW2 3451   2.832   1.666   0.893  1.5686  0.1841  0.2565
  863SOL     MW 3452   2.873   1.652   0.967  0.2007  0.5700 -0.1242
  864SOL     OW 3453   3.058   1.774   0.795  0.2330 -0.0153  0.5046
  864SOL    HW1 3454   3.011   1.749   0.873  0.5254 -0.7664  0.4130
  864SOL    HW2 3455   3.001   1.773   0.716  2.3876 -3.8784  0.0709
  864SOL     MW 3456   3.044   1.770   0.795  0.5558 -0.6241  0.4353
  865SOL     OW 3457   2.438   2.178   0.108 -0.7469  0.6016 -0.0528
  865SOL    HW1 3458   2.415   2.099   0.060 -1.3392  0.1509 -0.4496
  865SOL    HW2 3459   2.362   2.236   0.128 -1.8973  0.9022  3.4032
  865SOL     MW 3460   2.425   2.175   0.105 -0.9768  0.5818  0.3508
  866SOL     OW 3461   2.717   2.331   1.538 -0.1856  0.2932  0.4946
  866SOL    HW1 3462   2.719   2.253   1.590  0.9942 -1.7525  3.1220
  866SOL    HW2 3463   2.776   2.327   1.457  2.0719  0.9600  0.1136
  866SOL     MW 3464   2.725   2.320   1.534  0.2679  0.1112  0.7910
  867SOL     OW 3465   0.118   2.717   1.697 -0.3823  0.0325  0.3134
  867SOL    HW1 3466   0.103   2.772   1.770  0.1125 -2.3107  1.3723
  867SOL    HW2 3467   0.066   2.763   1.633 -0.1571  0.9864 -0.5255
  867SOL     MW 3468   0.109   2.730   1.698 -0.2873 -0.1508  0.3424
  868SOL     OW 3469   2.734   2.581   0.566 -0.0870 -0.0740  0.4189
  868SOL    HW1 3470   2.760   2.508   0.512 -1.2433 -1.3827 -0.7482
  868SOL    HW2 3471   2.658   2.622   0.531 -1.5198 -0.4566  1.9092
  868SOL     MW 3472   2.727   2.577   0.554 -0.4286 -0.2971  0.4616
  869SOL     OW 3473   1.963   2.450   1.073  0.1553 -0.6775  0.4920
  869SOL    HW1 3474   2.009   2.487   0.997  3.6022  0.6951  0.9423
  869SOL    HW2 3475   1.911   2.382   1.032  2.5328 -2.6382  0.1234
  869SOL     MW 3476   1.962   2.446   1.058  0.9238 -0.7551  0.5028
  870SOL     OW 3477   2.180   3.086   0.459  0.7030 -0.1326  0.1631
  870SOL    HW1 3478   2.243   3.136   0.409  1.2411  0.3088 -2.6197
  870SOL    HW2 3479   2.216   2.999   0.483 -2.8371  0.6773 -1.6655
  870SOL     MW 3480   2.193   3.081   0.456  0.3069  0.0325 -0.4453
  871SOL     OW 3481   2.485   2.063   0.913  0.2340  0.3420  0.0559
  871SOL    HW1 3482   2.413   2.013   0.871  2.9724  2.4156 -0.3387
  871SOL    HW2 3483   2.457   2.149   0.950  0.6323 -1.4852 -2.4604
  871SOL     MW 3484   2.472   2.068   0.912  0.6479  0.3745 -0.3282
  872SOL     OW 3485   2.097   2.482   1.618 -0.3651  0.3500 -0.0050
  872SOL    HW1 3486   2.027   2.539   1.651 -0.3415  0.2452 -0.4666
  872SOL    HW2 3487   2.062   2.398   1.587 -0.7812 -0.3070  0.9331
  872SOL     MW 3488   2.083   2.479   1.618 -0.4169  0.2495  0.0579
  873SOL     OW 3489   2.877   2.105   1.833  0.2691  0.0809  0.0606
  873SOL    HW1 3490   2.865   2.160   1.911  1.3130 -0.1655  0.1149
  873SOL    HW2 3491   2.954   2.143   1.796 -0.0648  1.7891 -1.4260
  873SOL     MW 3492   2.886   2.117   1.838  0.3628  0.2738 -0.1283
  874SOL     OW 3493   2.342   1.448   2.391  0.1793  0.5310  0.6104
  874SOL    HW1 3494   2.298   1.391   2.316 -1.0570  1.4849  1.4968
  874SOL    HW2 3495   2.421   1.396   2.412 -1.8883  1.4746 -2.3019
  874SOL     MW 3496   2.347   1.434   2.384 -0.2566  0.7814  0.3431
  875SOL     OW 3497   2.316   2.280   0.986 -0.4351 -0.3395 -0.4257
  875SOL    HW1 3498   2.336   2.344   0.920 -0.2234 -1.1485 -0.7179
  875SOL    HW2 3499   2.365   2.316   1.060 -2.3920 -2.7249 -1.2220
  875SOL     MW 3500   2.325   2.293   0.987 -0.6654 -0.7610 -0.5693
  876SOL     OW 3501   0.044   2.193   1.286 -0.1925  0.0491  0.1056
  876SOL    HW1 3502   0.112   2.240   1.235  0.9679  1.3874 -0.3825
  876SOL    HW2 3503   0.084   2.182   1.372  0.2453 -1.8923 -2.5453
  876SOL     MW 3504   0.058   2.198   1.291  0.0183 -0.0305 -0.3086
  877SOL     OW 3505   0.083   2.800   0.266  0.4681 -0.1657 -0.1360
  877SOL    HW1 3506   0.160   2.852   0.247 -2.3052 -1.2396 -0.4554
  877SOL    HW2 3507   0.074   2.736   0.196 -3.0554  1.4533  2.0269
  877SOL     MW 3508   0.092   2.799   0.255 -0.3627 -0.0938  0.1072
  878SOL     OW 3509   2.267   1.755   1.164  0.1181  0.3190  0.6151
  878SOL    HW1 3510   2.200   1.710   1.220  0.2195  1.5684 -3.2440
  878SOL    HW2 3511   2.302   1.674   1.136 -0.5870 -1.4975 -0.0829
  878SOL     MW 3512   2.263   1.739   1.168  0.0385  0.2442  0.0138
  879SOL     OW 3513   2.684   2.457   0.869 -0.0983 -0.2362  0.1078
  879SOL    HW1 3514   2.746   2.532   0.891 -1.7906 -0.0491  2.6041
  879SOL    HW2 3515   2.730   2.407   0.801  1.0411  0.3830 -0.2630
  879SOL     MW 3516   2.698   2.460   0.863 -0.1712 -0.1298  0.3883
  880SOL     OW 3517   2.638   2.173   0.687  0.7593  0.1183 -0.9182
  880SOL    HW1 3518   2.581   2.107   0.731 -0.7657 -2.9238  1.4405
  880SOL    HW2 3519   2.596   2.205   0.613 -0.8714 -1.5136  2.0650
  880SOL     MW 3520   2.625   2.169   0.683  0.3429 -0.4984 -0.2134
  881SOL     OW 3521   2.939   2.677   0.712 -0.8991 -0.3996  0.1211
  881SOL    HW1 3522   2.865   2.638   0.666  1.7785  1.0619 -0.8173
  881SOL    HW2 3523   3.012   2.684   0.644  2.6815  2.5109 -0.9550
  881SOL     MW 3524   2.939   2.673   0.697 -0.0734  0.1772 -0.1447
  882SOL     OW 3525   2.276   2.902   1.898  0.2796  0.0783 -0.1941
  882SOL    HW1 3526   2.253   2.879   1.808 -1.5955 -1.9618 -0.1717
  882SOL    HW2 3527   2.257   2.820   1.939 -0.7469 -2.2842 -0.4525
  882SOL     MW 3528   2.270   2.888   1.891 -0.1032 -0.5026 -0.2252
  883SOL     OW 3529   2.424   2.181   1.342  0.0924 -0.0809  0.7073
  883SOL    HW1 3530   2.509   2.148   1.314  0.7252 -1.2936 -1.8916
  883SOL    HW2 3531   2.352   2.148   1.286 -0.4696  1.6868  1.0176
  883SOL     MW 3532   2.426   2.172   1.331  0.1017 -0.0077  0.4054
  884SOL     OW 3533   1.892   1.842   1.032  0.1100  0.5116  0.4529
  884SOL    HW1 3534   1.822   1.910   0.996 -1.2692  1.5901 -1.9027
  884SOL    HW2 3535   1.974   1.887   1.005  0.5845 -0.0126 -0.6942
  884SOL     MW 3536   1.894   1.857   1.024 -0.0093  0.5847 -0.0093
  885SOL     OW 3537   2.908   2.459   1.728  0.2159 -0.3169  0.5175
  885SOL    HW1 3538   2.978   2.400   1.717 -0.2084  1.0823 -0.6084
  885SOL    HW2 3539   2.854   2.448   1.650 -0.7203  1.6396 -0.7394
  885SOL     MW 3540   2.910   2.450   1.716  0.0364  0.1258  0.2031
  886SOL     OW 3541   2.920   2.359   1.332  0.5856 -0.5266  0.6046
  886SOL    HW1 3542   3.003   2.321   1.296  0.5189  1.7848 -1.2009
  886SOL    HW2 3543   2.939   2.452   1.338 -1.3774 -2.3200  2.2322
  886SOL     MW 3544   2.934   2.367   1.328  0.3178 -0.4582  0.5811
  887SOL     OW 3545   2.346   2.585   1.553  0.6278 -0.3775 -0.2164
  887SOL    HW1 3546   2.355   2.594   1.457  0.4673  0.2872  0.9349
  887SOL    HW2 3547   2.262   2.546   1.571  2.2733  0.0183 -0.0335
  887SOL     MW 3548   2.336   2.581   1.542  0.8238 -0.2376 -0.0404
  888SOL     OW 3549   2.064   2.265   1.462  0.2155  0.3394 -0.0352
  888SOL    HW1 3550   2.093   2.245   1.375  0.5039  0.0177 -0.2732
  888SOL    HW2 3551   2.134   2.242   1.517 -0.0151 -1.4030 -0.7227
  888SOL     MW 3552   2.077   2.259   1.458  0.2232  0.0670 -0.1573
  889SOL     OW 3553   2.304   1.940   2.053  0.3589  0.2756 -0.4085
  889SOL    HW1 3554   2.386   1.933   2.099  0.1982  0.4909 -0.0061
  889SOL    HW2 3555   2.329   2.013   1.991  0.5775  0.1534  0.8532
  889SOL     MW 3556   2.318   1.949   2.051  0.3665  0.2879 -0.1889
  890SOL     OW 3557   0.048   2.356   0.096 -0.0399  0.2018 -0.3110
  890SOL    HW1 3558   0.032   2.450   0.090  1.8754  0.8310 -0.1164
  890SOL    HW2 3559   0.065   2.342   0.189 -0.2861 -1.4162  0.4131
  890SOL     MW 3560   0.048   2.367   0.108  0.1803  0.0713 -0.1898
  891SOL     OW 3561   3.006   1.970   1.213  0.1120  0.4985  0.1222
  891SOL    HW1 3562   3.070   1.900   1.187  0.2672  0.7876  0.2288
  891SOL    HW2 3563   3.053   2.055   1.235  1.4103 -1.6361  0.5805
  891SOL     MW 3564   3.021   1.972   1.212  0.3038  0.2550  0.1967
  892SOL     OW 3565   2.423   2.345   2.760 -0.0937  0.3843  0.4572
  892SOL    HW1 3566   2.426   2.249   2.788  2.2097 -1.8151  1.4278
  892SOL    HW2 3567   2.498   2.376   2.810 -1.3011 -0.3767 -0.3660
  892SOL     MW 3568   2.434   2.336   2.771  0.0509 -0.0063  0.4766
  893SOL     OW 3569   1.633   2.359   1.379  0.0850  0.2845 -0.0439
  893SOL    HW1 3570   1.566   2.414   1.423 -3.7040 -0.9081  1.0553
  893SOL    HW2 3571   1.726   2.375   1.400  0.4364  0.2045 -1.2025
  893SOL     MW 3572   1.637   2.368   1.387 -0.3686  0.1166 -0.0518
  894SOL     OW 3573   2.792   1.982   0.537 -0.2686  0.1610  0.1139
  894SOL    HW1 3574   2.716   2.031   0.578  2.0378  0.5332  0.3326
  894SOL    HW2 3575   2.756   1.950   0.452 -0.6108 -0.5599 -1.4154
  894SOL     MW 3576   2.777   1.984   0.531 -0.0094  0.1150 -0.0590
  895SOL     OW 3577   2.167   2.168   1.218 -0.5998 -0.1858  0.3632
  895SOL    HW1 3578   2.174   2.228   1.149  0.4123 -2.0692  0.4309
  895SOL    HW2 3579   2.124   2.087   1.177 -2.2451  1.4675  0.7518
  895SOL     MW 3580   2.162   2.165   1.203 -0.6833 -0.2162  0.4234
  896SOL     OW 3581   2.352   2.816   1.083 -0.4100 -0.4369  0.0936
  896SOL    HW1 3582   2.353   2.742   1.150  3.0080  1.3474  2.6870
  896SOL    HW2 3583   2.347   2.892   1.136 -0.6435  1.0290 -2.3521
  896SOL     MW 3584   2.352   2.816   1.099  0.0102 -0.0081  0.1131
  897SOL     OW 3585   0.007   3.042   3.014 -0.3851 -0.5248 -0.0917
  897SOL    HW1 3586   0.035   2.947   3.005 -0.6656  2.1090 -1.7334
  897SOL    HW2 3587  -0.063   3.050   2.949 -0.6438 -2.1928  4.6787
  897SOL     MW 3588   0.001   3.030   3.005 -0.4562 -0.3974  0.3211
  898SOL     OW 3589   2.134   0.171   1.417 -0.0751  0.4049 -0.5351
  898SOL    HW1 3590   2.107   0.078   1.446 -1.2438 -1.0922 -2.2185
  898SOL    HW2 3591   2.152   0.163   1.321  0.0036 -1.4988  1.3535
  898SOL     MW 3592   2.133   0.157   1.408 -0.2189 -0.0438 -0.5081
  899SOL     OW 3593   2.967   2.958   0.627 -1.0400  0.1498 -0.1838
  899SOL    HW1 3594   2.959   2.891   0.692  2.5764  2.3497 -2.0649
  899SOL    HW2 3595   2.899   3.023   0.635  2.5916 -1.2856 -0.5268
  899SOL     MW 3596   2.957   2.958   0.637 -0.0837  0.2507 -0.4772
  900SOL     OW 3597   0.136   2.391   1.081  0.0780 -0.0762  0.2420
  900SOL    HW1 3598   0.077   2.468   1.087 -0.3547  0.4889  0.2434
  900SOL    HW2 3599   0.114   2.354   0.995  0.3132  1.2809 -0.4774
  900SOL     MW 3600   0.125   2.397   1.070  0.0520  0.1774  0.1473
  901SOL     OW 3601   1.762   2.863   1.762 -0.2407 -0.0632  0.0377
  901SOL    HW1 3602   1.826   2.796   1.749  1.2625 -2.2732 -0.1613
  901SOL    HW2 3603   1.680   2.809   1.744 -0.1475 -0.3453 -1.3031
  901SOL     MW 3604   1.759   2.847   1.758 -0.0300 -0.3920 -0.1655
  902SOL     OW 3605   2.632   2.114   1.712 -0.3443  0.9691  0.6312
  902SOL    HW1 3606   2.659   2.057   1.640  0.6099  0.7087 -1.6185
  902SOL    HW2 3607   2.710   2.111   1.770  2.2230  0.1685 -2.2478
  902SOL     MW 3608   2.646   2.106   1.710  0.1204  0.8291 -0.0455
  903SOL     OW 3609   1.585   2.637   0.533  0.4681 -0.2762 -0.4835
  903SOL    HW1 3610   1.675   2.610   0.548  0.9807  0.4666  2.4894
  903SOL    HW2 3611   1.548   2.684   0.613 -0.1443  0.0796  4.0870
  903SOL     MW 3612   1.592   2.640   0.546  0.4549 -0.1313  0.5118
  904SOL     OW 3613   2.589   2.524   1.687  0.5110 -0.3815  0.3006
  904SOL    HW1 3614   2.500   2.544   1.663 -1.6816 -0.9375 -0.1566
  904SOL    HW2 3615   2.621   2.459   1.625  2.7110  1.5349 -0.7503
  904SOL     MW 3616   2.581   2.518   1.676  0.5120 -0.2020  0.1016
  905SOL     OW 3617   2.320   2.511   2.063 -0.6021 -0.4369  0.1641
  905SOL    HW1 3618   2.395   2.483   2.008 -0.1867 -0.9384  1.0817
  905SOL    HW2 3619   2.291   2.434   2.115  0.0379 -0.1749  1.9079
  905SOL     MW 3620   2.326   2.497   2.063 -0.4629 -0.4685  0.5152
  906SOL     OW 3621   2.435   2.479   0.805  0.0824  0.5218 -0.5929
  906SOL    HW1 3622   2.526   2.488   0.844  2.3061  1.1309 -2.8277
  906SOL    HW2 3623   2.392   2.564   0.819  1.1614 -0.9694 -0.2118
  906SOL     MW 3624   2.441   2.491   0.812  0.5181  0.4054 -0.8375
  907SOL     OW 3625   2.644   2.744   1.317 -0.1018 -0.1142  0.4248
  907SOL    HW1 3626   2.664   2.825   1.356 -2.1475 -4.0541 -0.0016
  907SOL    HW2 3627   2.649   2.754   1.223 -0.2716 -1.0169 -2.0388
  907SOL     MW 3628   2.648   2.756   1.310 -0.3941 -0.7531  0.0435
  908SOL     OW 3629   2.674   2.290   3.069 -0.4058 -0.1095  0.2087
  908SOL    HW1 3630   2.608   2.243   3.100  1.4518  0.5704  1.2539
  908SOL    HW2 3631   2.657   2.381   3.114 -0.2050 -0.3938  1.0266
  908SOL     MW 3632   2.663   2.296   3.079 -0.1342 -0.0573  0.4545
  909SOL     OW 3633   1.708   0.095   1.342  0.3014 -0.0407  0.4070
  909SOL    HW1 3634   1.695   0.189   1.347 -3.4393  0.3319  1.3888
  909SOL    HW2 3635   1.680   0.067   1.429  0.6487 -1.9629 -2.8859
  909SOL     MW 3636   1.703   0.104   1.354 -0.1464 -0.2452  0.1021
  910SOL     OW 3637   2.160   1.663   0.452 -0.0788  0.4928 -0.7424
  910SOL    HW1 3638   2.080   1.606   0.464 -1.5822  0.5307  0.4859
  910SOL    HW2 3639   2.133   1.728   0.387  1.4010 -1.3775  1.4822
  910SOL     MW 3640   2.146   1.664   0.445 -0.0819  0.2510 -0.2869
  911SOL     OW 3641   2.302   2.199   1.616 -1.3670  0.3215 -0.2109
  911SOL    HW1 3642   2.346   2.172   1.698 -2.4999  2.1265  2.5079
  911SOL    HW2 3643   2.362   2.212   1.549  1.5538  1.0285  0.7015
  911SOL     MW 3644   2.316   2.197   1.618 -1.1311  0.6529  0.2682
  912SOL     OW 3645   2.941   1.875   1.455  0.1987  0.2572  0.1700
  912SOL    HW1 3646   2.953   1.919   1.365  0.8351 -0.1052 -2.0781
  912SOL    HW2 3647   2.870   1.924   1.500  2.2736  2.6753  0.8701
  912SOL     MW 3648   2.933   1.887   1.449  0.5564  0.5284 -0.0343
  913SOL     OW 3649   2.706   3.060   0.364  0.0931 -0.7887  0.7279
  913SOL    HW1 3650   2.787   3.004   0.355  1.0259 -0.6459  2.7617
  913SOL    HW2 3651   2.635   3.012   0.324 -1.2884 -0.9220 -2.0863
  913SOL     MW 3652   2.707   3.046   0.357  0.0339 -0.7874  0.6250
  914SOL     OW 3653   2.637   1.791   3.088 -0.2276 -0.0991  0.2245
  914SOL    HW1 3654   2.688   1.855   3.037 -1.6783  2.5818  3.5517
  914SOL    HW2 3655   2.555   1.836   3.119 -0.0368  2.0357 -0.2647
  914SOL     MW 3656   2.633   1.806   3.086 -0.3938  0.5363  0.5989
  915SOL     OW 3657   1.810   0.110   0.175 -0.0693  1.0901 -0.7036
  915SOL    HW1 3658   1.888   0.056   0.208  1.2866 -0.8721 -0.3260
  915SOL    HW2 3659   1.732   0.055   0.187  1.6641 -2.0478  2.4454
  915SOL     MW 3660   1.810   0.096   0.181  0.3383  0.4172 -0.2383
  916SOL     OW 3661   1.783   2.068   1.979 -0.2086 -0.3785  0.3165
  916SOL    HW1 3662   1.815   2.158   1.999 -0.2746 -1.3434  0.7466
  916SOL    HW2 3663   1.810   2.052   1.891  0.2161 -1.9706 -0.0571
  916SOL     MW 3664   1.791   2.078   1.970 -0.1612 -0.7158  0.3239
  917SOL     OW 3665   2.497   2.202   2.529 -0.6168 -0.2190  0.0278
  917SOL    HW1 3666   2.458   2.231   2.616 -0.2565 -0.4253  1.3429
  917SOL    HW2 3667   2.561   2.266   2.500  3.4542  0.6212  0.3487
  917SOL     MW 3668   2.500   2.214   2.537 -0.0321 -0.1354  0.2437
  918SOL     OW 3669   2.016   1.585   2.671 -0.4836 -0.2572 -0.5565
  918SOL    HW1 3670   1.950   1.586   2.600 -0.4898 -1.7234  0.2952
  918SOL    HW2 3671   2.082   1.648   2.642 -1.8973 -1.9794  2.2638
  918SOL     MW 3672   2.016   1.593   2.658 -0.6709 -0.6779 -0.0720
  919SOL     OW 3673   3.043   2.371   2.227  0.0959 -0.3056  0.1497
  919SOL    HW1 3674   2.979   2.305   2.200 -0.4916 -2.2112  1.1734
  919SOL    HW2 3675   3.098   2.393   2.152 -0.4031  1.5444 -0.8711
  919SOL     MW 3676   3.042   2.365   2.213 -0.0474 -0.3129  0.1501
  920SOL     OW 3677   2.632   2.858   3.044  0.6860 -0.6384  0.2648
  920SOL    HW1 3678   2.550   2.819   3.021 -0.1437  1.7100  2.4232
  920SOL    HW2 3679   2.699   2.810   2.991 -1.1548 -1.2635 -0.4717
  920SOL     MW 3680   2.630   2.846   3.034  0.3336 -0.4110  0.4524
  921SOL     OW 3681   2.397   2.594   2.557 -0.1339 -0.1335 -0.2913
  921SOL    HW1 3682   2.471   2.572   2.497  1.6634  1.0433  0.4524
  921SOL    HW2 3683   2.398   2.529   2.627 -0.0634 -4.1396 -0.5368
  921SOL     MW 3684   2.407   2.583   2.559  0.1126 -0.5068 -0.2256
  922SOL     OW 3685   2.134   2.647   0.432  0.1888 -0.5395  0.1783
  922SOL    HW1 3686   2.162   2.617   0.345 -0.0976  1.3308  0.0401
  922SOL    HW2 3687   2.137   2.579   0.503 -0.5077 -0.1655  5.7617
  922SOL     MW 3688   2.138   2.634   0.430  0.0591 -0.2434  0.8968
  923SOL     OW 3689   2.185   2.807   1.651 -0.3045 -0.2658  0.0912
  923SOL    HW1 3690   2.240   2.734   1.609 -1.2008 -0.0025  0.4151
  923SOL    HW2 3691   2.159   2.871   1.582  1.6665  2.3103  2.8502
  923SOL     MW 3692   2.189   2.806   1.636 -0.1627  0.1089  0.4980
  924SOL     OW 3693   1.085   2.727   2.615 -0.0417  0.5518  0.0359
  924SOL    HW1 3694   1.183   2.728   2.614  0.6358 -1.2988  0.3030
  924SOL    HW2 3695   1.060   2.648   2.658  0.5687 -1.6566  0.6044
  924SOL     MW 3696   1.095   2.717   2.621  0.1282  0.0163  0.1462
  925SOL     OW 3697   2.955   0.161   2.635  0.2809  0.4498  0.3440
  925SOL    HW1 3698   2.883   0.167   2.570 -1.7072 -0.9677 -0.5670
  925SOL    HW2 3699   2.952   0.244   2.687 -0.1114 -0.9839 -1.3921
  925SOL     MW 3700   2.945   0.173   2.633 -0.0332  0.0736 -0.0052
  926SOL     OW 3701   2.787   2.431   1.993 -0.0994  0.4826  0.5943
  926SOL    HW1 3702   2.825   2.498   2.064  1.2637  1.6157  1.3241
  926SOL    HW2 3703   2.834   2.451   1.911  0.2913  1.2577  0.1868
  926SOL     MW 3704   2.798   2.443   1.992  0.1320  0.7344  0.6368
  927SOL     OW 3705   2.375   0.121   0.309  0.1659 -0.0250  0.3381
  927SOL    HW1 3706   2.460   0.116   0.350  0.0501 -0.0439 -2.2521
  927SOL    HW2 3707   2.378   0.081   0.224  1.7013 -0.3210 -0.2147
  927SOL     MW 3708   2.387   0.115   0.303  0.3532 -0.0666 -0.0766
  928SOL     OW 3709   2.154   2.355   1.849 -0.5841  0.2837  0.2610
  928SOL    HW1 3710   2.182   2.416   1.780  0.2073 -2.5026 -2.9772
  928SOL    HW2 3711   2.200   2.377   1.926 -3.2588 -1.3733  1.2967
  928SOL     MW 3712   2.164   2.366   1.850 -0.8326 -0.3026 -0.0296
  929SOL     OW 3713   2.695   2.354   2.427  0.2802  0.0951 -0.4313
  929SOL    HW1 3714   2.759   2.324   2.363  2.3939 -1.9154  1.2712
  929SOL    HW2 3715   2.741   2.355   2.513 -1.2789 -1.6810  2.1703
  929SOL     MW 3716   2.709   2.350   2.430  0.3534 -0.4045  0.1366
  930SOL     OW 3717   2.042   2.825   2.680 -0.4214  0.4542 -0.2227
  930SOL    HW1 3718   2.049   2.752   2.742  0.1285  0.1033 -3.7352
  930SOL    HW2 3719   2.131   2.862   2.668  0.1216 -1.4957 -0.9919
  930SOL     MW 3720   2.054   2.820   2.687 -0.2772  0.1507 -0.7877
  931SOL     OW 3721   0.026   2.722   2.491 -0.1318 -0.2835  0.3093
  931SOL    HW1 3722   0.022   2.773   2.570 -0.9348 -0.2678  1.2574
  931SOL    HW2 3723   0.106   2.756   2.454 -2.3554 -0.2592 -1.3307
  931SOL     MW 3724   0.036   2.733   2.497 -0.5311 -0.2782  0.2180
  932SOL     OW 3725   2.791   2.009   2.442  1.0061 -0.3127 -0.3854
  932SOL    HW1 3726   2.879   2.036   2.459 -0.4036 -0.9073  1.8341
  932SOL    HW2 3727   2.788   1.999   2.348  0.6250  0.3274 -0.6054
  932SOL     MW 3728   2.802   2.011   2.432  0.7698 -0.3067 -0.1216
  933SOL     OW 3729   2.078   2.809   2.256 -0.4037  0.4169  0.0661
  933SOL    HW1 3730   2.166   2.826   2.295  1.0443  0.3223 -0.0911
  933SOL    HW2 3731   2.054   2.886   2.207  0.1690 -2.4683  1.3628
  933SOL     MW 3732   2.086   2.821   2.255 -0.1371  0.0237  0.2165
  934SOL     OW 3733   1.987   2.661   2.472 -0.3463  0.1338 -0.0807
  934SOL    HW1 3734   2.024   2.710   2.540 -0.5206 -0.0991  0.8862
  934SOL    HW2 3735   1.996   2.712   2.394  1.3603  0.2136  3.0377
  934SOL     MW 3736   1.993   2.674   2.470 -0.1441  0.1136  0.4583
  935SOL     OW 3737   2.668   1.529   1.821  0.1523 -0.2049 -0.1103
  935SOL    HW1 3738   2.752   1.483   1.803 -0.0869  0.6536  1.9710
  935SOL    HW2 3739   2.615   1.512   1.743  2.1413 -1.5999  1.1353
  935SOL     MW 3740   2.672   1.521   1.808  0.3832 -0.2757  0.3286
  936SOL     OW 3741   2.930   2.192   3.099  0.4257 -0.3588 -0.8799
  936SOL    HW1 3742   2.967   2.276   3.115 -2.8512 -4.2710 -1.3692
  936SOL    HW2 3743   2.836   2.211   3.089 -1.0313  0.8807 -0.5544
  936SOL     MW 3744   2.922   2.206   3.100 -0.1989 -0.7115 -0.9015
  937SOL     OW 3745   1.932   2.112   2.622 -0.6689 -0.2015  0.1809
  937SOL    HW1 3746   2.006   2.077   2.674 -1.3684 -3.6283 -1.7761
  937SOL    HW2 3747   1.958   2.100   2.532 -0.2058  0.0323  0.0237
  937SOL     MW 3748   1.945   2.106   2.617 -0.7001 -0.6228 -0.0980
  938SOL     OW 3749   2.209   1.800   1.836 -0.1858 -0.5723 -0.0081
  938SOL    HW1 3750   2.268   1.827   1.772  0.8741 -0.9202  1.8937
  938SOL    HW2 3751   2.232   1.838   1.926 -3.2702 -0.0099 -3.7473
  938SOL     MW 3752   2.220   1.809   1.840 -0.4529 -0.5440 -0.2505
  939SOL     OW 3753   2.749   2.009   2.080 -0.3473  0.1727 -0.6522
  939SOL    HW1 3754   2.803   1.950   2.023 -0.9520 -0.7926  0.0667
  939SOL    HW2 3755   2.688   1.951   2.121 -1.3545  1.7124  2.3411
  939SOL     MW 3756   2.748   1.994   2.078 -0.5600  0.2485 -0.1624
  940SOL     OW 3757   2.212   0.083   2.778  0.1211 -0.2996 -0.1667
  940SOL    HW1 3758   2.252  -0.001   2.754 -2.6305  2.1626  2.0395
  940SOL    HW2 3759   2.277   0.115   2.839  2.0153 -1.2002 -0.8216
  940SOL     MW 3760   2.226   0.076   2.783  0.0080 -0.0936  0.0380
  941SOL     OW 3761   0.093   2.391   2.002  0.3664 -0.8750 -0.2335
  941SOL    HW1 3762   0.180   2.355   2.029 -1.8068 -0.4563 -0.5928
  941SOL    HW2 3763   0.120   2.435   1.917  1.2637 -1.2238 -3.1777
  941SOL     MW 3764   0.108   2.392   1.995  0.1981 -0.8658 -0.6694
  942SOL     OW 3765   2.830   2.237   2.182  0.3192 -0.0319 -0.1923
  942SOL    HW1 3766   2.818   2.304   2.105  2.4503  0.5031  3.0198
  942SOL    HW2 3767   2.783   2.153   2.143 -0.1898  0.2434  1.5559
  942SOL     MW 3768   2.822   2.235   2.166  0.5332  0.0750  0.4622
  943SOL     OW 3769   0.349   2.194   2.280 -0.1883 -0.4130  0.6591
  943SOL    HW1 3770   0.271   2.205   2.336 -1.1231 -0.5985  1.7042
  943SOL    HW2 3771   0.416   2.168   2.343 -0.3978  0.2144  0.8243
  943SOL     MW 3772   0.347   2.192   2.296 -0.3393 -0.3547  0.8188
  944SOL     OW 3773   2.115   2.669   1.986 -0.5712  0.2855  0.3433
  944SOL    HW1 3774   2.181   2.601   1.993  1.9558 -0.5044 -1.4905
  944SOL    HW2 3775   2.084   2.676   2.074  0.4214  1.2830 -2.6353
  944SOL     MW 3776   2.119   2.661   1.999 -0.1069  0.3129 -0.2917
  945SOL     OW 3777   2.742   2.664   2.874  0.0185  0.0828  0.0429
  945SOL    HW1 3778   2.732   2.561   2.853 -0.2218 -4.7902 -0.8264
  945SOL    HW2 3779   2.759   2.698   2.783  0.5019 -0.0326 -0.6342
  945SOL     MW 3780   2.743   2.655   2.859  0.0506 -0.5753 -0.1611
  946SOL     OW 3781   2.468   2.695   2.213 -0.4175  0.0067 -0.3030
  946SOL    HW1 3782   2.499   2.763   2.141  0.3122 -1.7495  1.9639
  946SOL    HW2 3783   2.418   2.624   2.158  1.5923  1.0145  0.0945
  946SOL     MW 3784   2.465   2.694   2.196 -0.0560 -0.0921  0.0486
  947SOL     OW 3785   2.043   3.054   0.248  0.4635 -0.2027  0.6464
  947SOL    HW1 3786   2.097   2.988   0.211  1.9339  2.7148  4.1080
  947SOL    HW2 3787   2.077   3.077   0.336  0.6790 -2.4237  1.2214
  947SOL     MW 3788   2.055   3.048   0.255  0.6859 -0.1108  1.1790
  948SOL     OW 3789   1.838   3.025   2.628  0.3167  0.0530  0.1447
  948SOL    HW1 3790   1.897   2.950   2.643  0.7371  1.5994  0.1147
  948SOL    HW2 3791   1.796   3.019   2.541  0.6373 -1.1517 -0.5619
  948SOL     MW 3792   1.840   3.014   2.619  0.4145  0.0981  0.0475
  949SOL     OW 3793   2.538   1.883   2.214  0.0444  0.1952  0.1579
  949SOL    HW1 3794   2.521   1.803   2.269 -0.8184  0.8618  0.9151
  949SOL    HW2 3795   2.502   1.955   2.264 -0.3356 -0.1413 -0.0596
  949SOL     MW 3796   2.531   1.882   2.228 -0.1196  0.2388  0.2291
  950SOL     OW 3797   2.255   2.446   2.956  0.0232  0.5157 -0.1460
  950SOL    HW1 3798   2.308   2.408   2.887 -0.3824  0.8257 -1.4904
  950SOL    HW2 3799   2.181   2.498   2.914  0.3832  1.7183  1.0742
  950SOL     MW 3800   2.252   2.448   2.941  0.0172  0.7152 -0.1624
  951SOL     OW 3801   3.039   2.211   2.846 -0.3365 -0.1979 -0.3213
  951SOL    HW1 3802   3.001   2.195   2.931 -0.1903  0.4310  0.9571
  951SOL    HW2 3803   3.125   2.240   2.863  0.1727 -3.6705 -1.4224
  951SOL     MW 3804   3.045   2.213   2.859 -0.2500 -0.5731 -0.2979
  952SOL     OW 3805   3.083   1.696   2.093  0.2594 -0.4449 -0.3540
  952SOL    HW1 3806   3.036   1.750   2.023 -1.9301 -0.9072  0.6402
  952SOL    HW2 3807   3.117   1.757   2.159  0.9966 -0.8609 -0.4249
  952SOL     MW 3808   3.082   1.711   2.093  0.0678 -0.5608 -0.2322
  953SOL     OW 3809   1.869   1.757   2.845 -0.3534 -0.2574  0.4264
  953SOL    HW1 3810   1.831   1.712   2.919 -0.0545 -0.1594 -1.7976
  953SOL    HW2 3811   1.912   1.686   2.793  1.4184 -2.1307  2.5102
  953SOL     MW 3812   1.870   1.742   2.848 -0.0802 -0.4916  0.4079
  954SOL     OW 3813   2.437   2.072   2.803  0.7196 -0.5764  0.1542
  954SOL    HW1 3814   2.363   2.047   2.748  0.7842  0.8812 -0.8616
  954SOL    HW2 3815   2.519   2.059   2.751 -0.4621  1.9635  1.2270
  954SOL     MW 3816   2.438   2.067   2.789  0.5722 -0.0490  0.1617
  955SOL     OW 3817   1.499   1.552   2.555  0.1146  0.2504 -0.0346
  955SOL    HW1 3818   1.476   1.566   2.468  0.8696 -0.7429 -1.4234
  955SOL    HW2 3819   1.588   1.583   2.553 -2.2943  0.4210 -4.4482
  955SOL     MW 3820   1.508   1.558   2.543 -0.1036  0.1418 -0.8001
  956SOL     OW 3821   2.680   2.416   2.826 -0.2766  0.4363 -0.0824
  956SOL    HW1 3822   2.714   2.370   2.908 -0.3656 -1.3878 -0.8558
  956SOL    HW2 3823   2.742   2.385   2.758  0.1402  0.0599  1.4909
  956SOL     MW 3824   2.693   2.406   2.828 -0.2333  0.1459  0.0232
  957SOL     OW 3825   2.277   2.860   0.531  0.1474  0.4600  0.3349
  957SOL    HW1 3826   2.223   2.783   0.503 -1.0084 -0.2111  2.2171
  957SOL    HW2 3827   2.285   2.865   0.630 -0.1494 -0.8548  4.3629
  957SOL     MW 3828   2.271   2.850   0.540 -0.0442  0.1980  1.1147
  958SOL     OW 3829   2.042   2.588   2.840 -0.0805 -0.5644 -0.2293
  958SOL    HW1 3830   1.992   2.533   2.784 -0.6912  0.7308  2.9927
  958SOL    HW2 3831   2.012   2.560   2.930 -0.3381 -3.6044 -2.2671
  958SOL     MW 3832   2.031   2.577   2.845 -0.1951 -0.7946 -0.0731
  959SOL     OW 3833   2.524   2.728   0.461  0.2508 -0.7675  0.1588
  959SOL    HW1 3834   2.541   2.778   0.382 -1.7427 -3.7759  0.6232
  959SOL    HW2 3835   2.439   2.763   0.487 -0.9459  1.0222 -2.3171
  959SOL     MW 3836   2.515   2.739   0.454 -0.1701 -0.9283 -0.1066
  960SOL     OW 3837   1.861   2.352   2.319 -0.3395 -0.2512 -0.4987
  960SOL    HW1 3838   1.904   2.275   2.360  1.0792  1.3843  0.6564
  960SOL    HW2 3839   1.799   2.379   2.393 -0.8577 -0.8602  4.1622
  960SOL     MW 3840   1.858   2.345   2.334 -0.2207 -0.1157  0.2687
  961SOL     OW 3841   2.201   2.310   2.236  0.0881 -0.3041 -0.4318
  961SOL    HW1 3842   2.118   2.268   2.209 -0.8240 -1.1474 -0.3249
  961SOL    HW2 3843   2.192   2.340   2.333  0.7966 -0.0189  0.4445
  961SOL     MW 3844   2.189   2.308   2.245  0.0612 -0.3777 -0.3021
  962SOL     OW 3845   2.172   2.004   2.784  0.2537 -1.3691 -0.0052
  962SOL    HW1 3846   2.153   1.977   2.876  0.7932  0.5385  2.7114
  962SOL    HW2 3847   2.181   1.919   2.747 -1.9092  1.8008  1.0596
  962SOL     MW 3848   2.171   1.989   2.791  0.0395 -0.6992  0.4937
  963SOL     OW 3849   1.831   2.548   2.085  0.0643 -0.2347  0.0304
  963SOL    HW1 3850   1.845   2.493   2.162 -1.7027 -0.1604 -0.1192
  963SOL    HW2 3851   1.827   2.484   2.014 -0.4775 -0.1661 -0.4750
  963SOL     MW 3852   1.833   2.532   2.086 -0.2403 -0.2158 -0.0560
  964SOL     OW 3853   1.764   1.905   2.644  0.1595  0.4074  0.2379
  964SOL    HW1 3854   1.802   1.990   2.638 -1.8107 -0.6749 -2.0548
  964SOL    HW2 3855   1.820   1.864   2.713  1.0469  2.3068  1.5792
  964SOL     MW 3856   1.776   1.911   2.652  0.0166  0.5152  0.1124
  965SOL     OW 3857   2.117   2.570   0.813 -0.6823  0.1118 -1.2525
  965SOL    HW1 3858   2.153   2.519   0.737  0.6687  1.9291 -1.5410
  965SOL    HW2 3859   2.176   2.645   0.815  1.3490 -0.0265 -0.6711
  965SOL     MW 3860   2.130   2.573   0.803 -0.2361  0.3334 -1.2139
  966SOL     OW 3861   2.641   2.623   2.411 -0.2641 -0.2618 -0.1513
  966SOL    HW1 3862   2.592   2.672   2.339  2.1720  0.0912  0.7246
  966SOL    HW2 3863   2.640   2.529   2.390 -2.5986 -0.4243  1.6682
  966SOL     MW 3864   2.634   2.617   2.399 -0.2507 -0.2367  0.2043
  967SOL     OW 3865   2.640   0.045   3.098 -0.2226 -0.0466 -0.6118
  967SOL    HW1 3866   2.665  -0.044   3.082  1.8338  4.3430 -1.0322
  967SOL    HW2 3867   2.623   0.074   3.005  2.0147  1.0182  1.7099
  967SOL     MW 3868   2.641   0.037   3.083  0.3439  0.6730 -0.3609
  968SOL     OW 3869   2.997   2.583   2.939  0.0067 -0.6928  0.4529
  968SOL    HW1 3870   2.918   2.633   2.914 -3.1597  0.7154  0.2055
  968SOL    HW2 3871   3.020   2.539   2.853 -0.1823  1.7355 -3.2591
  968SOL     MW 3872   2.990   2.584   2.925 -0.4360 -0.1866 -0.0695
  969SOL     OW 3873   1.590   2.141   1.727 -0.2351  0.6554  0.0323
  969SOL    HW1 3874   1.670   2.092   1.738  0.0319  2.1465  1.2641
  969SOL    HW2 3875   1.561   2.173   1.810 -0.2030  0.5224 -3.9878
  969SOL     MW 3876   1.597   2.139   1.739 -0.1957  0.8346 -0.3356
  970SOL     OW 3877   1.723   1.752   1.827 -0.0978 -0.0824 -0.5531
  970SOL    HW1 3878   1.762   1.681   1.878 -0.3842 -0.3053 -0.3981
  970SOL    HW2 3879   1.633   1.747   1.861  1.9363  0.1681 -1.2916
  970SOL     MW 3880   1.716   1.742   1.838  0.1328 -0.0788 -0.6301
  971SOL     OW 3881   1.768   3.072   2.355 -0.4030 -0.6105 -0.0316
  971SOL    HW1 3882   1.812   3.039   2.272 -0.6739 -1.1857  0.5762
  971SOL    HW2 3883   1.815   3.151   2.368 -0.9417  1.1158 -0.6663
  971SOL     MW 3884   1.780   3.078   2.345 -0.5099 -0.4586 -0.0352
  972SOL     OW 3885   0.257   2.874   2.435 -0.6024  0.0374 -0.0080
  972SOL    HW1 3886   0.332   2.820   2.462  0.8410 -0.0781  0.1090
  972SOL    HW2 3887   0.289   2.963   2.423 -0.7720 -2.2327 -0.3976
  972SOL     MW 3888   0.271   2.879   2.437 -0.4343 -0.2774 -0.0440
  973SOL     OW 3889   2.613   3.089   2.154 -0.1496  0.5514  0.0787
  973SOL    HW1 3890   2.592   3.028   2.080  0.1014  0.7819 -0.5719
  973SOL    HW2 3891   2.667   3.155   2.107 -2.6869  5.3990 -0.4614
  973SOL     MW 3892   2.618   3.090   2.138 -0.4513  1.2214 -0.0784
  974SOL     OW 3893   2.003   0.163   2.608 -0.0226  0.1050  0.2966
  974SOL    HW1 3894   2.087   0.145   2.661  0.1865  1.1341 -1.2606
  974SOL    HW2 3895   1.946   0.091   2.642  2.1285 -0.7554  1.9826
  974SOL     MW 3896   2.007   0.151   2.620  0.2888  0.1272  0.3136
  975SOL     OW 3897   2.155   2.439   2.473  0.0415  0.6971 -0.4059
  975SOL    HW1 3898   2.234   2.489   2.505  0.5374  0.6606 -0.0181
  975SOL    HW2 3899   2.095   2.512   2.477  1.0977 -2.7034 -1.6049
  975SOL     MW 3900   2.158   2.455   2.477  0.2463  0.2437 -0.5129
  976SOL     OW 3901   0.167   0.347   1.599  0.1376 -0.5990 -0.1149
  976SOL    HW1 3902   0.234   0.278   1.613 -0.4266 -1.1047 -0.9399
  976SOL    HW2 3903   0.079   0.302   1.594  0.4113  3.1220 -1.9481
  976SOL     MW 3904   0.164   0.332   1.600  0.0992 -0.1748 -0.4656
  977SOL     OW 3905   1.709   2.743   2.424 -0.6516 -0.1307  0.4915
  977SOL    HW1 3906   1.804   2.713   2.428  0.5638 -0.8399  2.2587
  977SOL    HW2 3907   1.703   2.804   2.355 -1.5282  0.2523 -0.1720
  977SOL     MW 3908   1.721   2.747   2.415 -0.6069 -0.1738  0.6371
   3.10000   3.10000   3.10000
