977 TIP4P/2005f water molecules t=   0.12000 step= 120
 3908
    1SOL     OW    1   0.204   0.755   0.027  0.7394 -0.7306  0.3362
    1SOL    HW1    2   0.182   0.789  -0.063  1.6429  1.5798  1.2093
    1SOL    HW2    3   0.220   0.657   0.016 -0.8273 -1.7884  2.2878
    1SOL     MW    4   0.203   0.746   0.014  0.6519 -0.5654  0.7089
    2SOL     OW    5   0.344   3.038   1.132  0.9081 -0.5870  0.4414
    2SOL    HW1    6   0.400   3.112   1.111 -0.6043  0.6948  0.3665
    2SOL    HW2    7   0.254   3.074   1.142  0.1899  1.5336  0.2871
    2SOL     MW    8   0.340   3.053   1.130  0.6138 -0.1381  0.4112
    3SOL     OW    9   2.752   0.383   0.869 -0.3503  0.2725  0.2109
    3SOL    HW1   10   2.749   0.474   0.828  0.8269  1.4940 -1.2488
    3SOL    HW2   11   2.737   0.408   0.967  1.3379 -2.9976  0.1891
    3SOL     MW   12   2.749   0.398   0.877  0.0278  0.0022  0.0154
    4SOL     OW   13   0.003   1.713   0.683  0.2391  0.9609 -0.6543
    4SOL    HW1   14  -0.061   1.768   0.634  3.0979  1.0224 -0.3583
    4SOL    HW2   15   0.048   1.663   0.617 -1.1944  0.9149  0.0540
    4SOL     MW   16   0.001   1.714   0.668  0.4271  0.9629 -0.5218
    5SOL     OW   17   1.670   1.444   0.509 -0.0735  0.4454 -0.1265
    5SOL    HW1   18   1.734   1.424   0.581 -0.2248 -0.6603  0.6598
    5SOL    HW2   19   1.592   1.427   0.557  2.2035 -1.4779  0.3615
    5SOL     MW   20   1.668   1.439   0.525  0.2070  0.0458  0.0416
    6SOL     OW   21   0.847   1.346   0.574 -0.0813  0.5978 -0.0531
    6SOL    HW1   22   0.763   1.352   0.616  0.1590  1.2798  2.0617
    6SOL    HW2   23   0.891   1.259   0.597  0.5102 -0.6734  0.3221
    6SOL     MW   24   0.841   1.336   0.582  0.0285  0.5201  0.2754
    7SOL     OW   25   1.955   1.055   3.067 -0.2823  0.1483  0.6034
    7SOL    HW1   26   1.992   1.072   2.981 -2.6299 -1.3329 -0.9053
    7SOL    HW2   27   2.002   1.094   3.140 -0.6404  0.7024  1.4986
    7SOL     MW   28   1.966   1.062   3.065 -0.6393  0.0260  0.5225
    8SOL     OW   29   1.009   1.308   1.070 -0.7545  0.0348 -0.0389
    8SOL    HW1   30   1.095   1.276   1.102  2.5033 -1.7052  2.3874
    8SOL    HW2   31   0.958   1.227   1.052  0.4986 -1.4696  0.4135
    8SOL     MW   32   1.014   1.293   1.072 -0.1593 -0.3932  0.3409
    9SOL     OW   33   0.995   0.504   1.426  0.0090  0.1526 -0.2430
    9SOL    HW1   34   0.954   0.420   1.445  1.6141  0.9176 -1.9054
    9SOL    HW2   35   1.064   0.505   1.490 -0.0149  0.5947 -0.0155
    9SOL     MW   36   0.999   0.493   1.437  0.2176  0.3118 -0.4323
   10SOL     OW   37   0.306   0.870   0.440 -0.2640  0.0472  0.7263
   10SOL    HW1   38   0.398   0.905   0.417  0.0394  2.1724  0.9683
   10SOL    HW2   39   0.282   0.911   0.523  1.0226  2.7196 -0.5624
   10SOL     MW   40   0.315   0.880   0.448 -0.0542  0.6802  0.5882
   11SOL     OW   41   0.922   1.087   1.542 -0.1502 -0.0593 -0.3787
   11SOL    HW1   42   0.932   1.085   1.638 -0.7533 -0.8118 -1.2475
   11SOL    HW2   43   0.844   1.023   1.531  0.8829 -0.3374 -3.0792
   11SOL     MW   44   0.913   1.079   1.553 -0.0935 -0.1952 -0.8496
   12SOL     OW   45   3.064   1.078   0.848  0.1152  0.8611 -0.5986
   12SOL    HW1   46   3.103   1.137   0.908  1.2034 -0.4763 -0.1816
   12SOL    HW2   47   3.012   1.138   0.784 -2.2969  3.8366 -0.8275
   12SOL     MW   48   3.062   1.093   0.847 -0.0595  1.0773 -0.5738
   13SOL     OW   49   1.910   1.415   1.440 -0.2002  0.6352 -0.0109
   13SOL    HW1   50   1.927   1.376   1.356 -2.6647 -0.8003 -1.0663
   13SOL    HW2   51   1.892   1.503   1.416 -1.3574  0.2440  0.3288
   13SOL     MW   52   1.910   1.422   1.426 -0.6780  0.3942 -0.1054
   14SOL     OW   53   0.596   0.377   1.760 -0.3018 -0.5757  0.0359
   14SOL    HW1   54   0.591   0.289   1.714  0.9707 -1.6238 -0.3880
   14SOL    HW2   55   0.675   0.382   1.812 -0.8799 -0.2143 -1.2685
   14SOL     MW   56   0.606   0.366   1.761 -0.2101 -0.6663 -0.1921
   15SOL     OW   57   2.007   0.562   0.918 -0.4297  0.0421 -0.0997
   15SOL    HW1   58   2.038   0.554   1.009  0.6840 -0.9161 -0.7348
   15SOL    HW2   59   2.070   0.514   0.867 -0.0391  1.6394 -0.8207
   15SOL     MW   60   2.019   0.555   0.923 -0.2312  0.1264 -0.2786
   16SOL     OW   61   0.163   1.778   0.263  0.7341  0.3548  0.2240
   16SOL    HW1   62   0.236   1.724   0.300  1.7380  0.2000  1.3431
   16SOL    HW2   63   0.185   1.862   0.290 -0.6042  0.4850 -1.1875
   16SOL     MW   64   0.175   1.782   0.271  0.6900  0.3516  0.1854
   17SOL     OW   65   1.155   0.781   1.474 -0.7979  0.4154  0.4852
   17SOL    HW1   66   1.169   0.820   1.565 -0.2334 -1.0906  2.0767
   17SOL    HW2   67   1.065   0.752   1.483  0.8680 -1.4842  0.2540
   17SOL     MW   68   1.145   0.782   1.487 -0.5036 -0.0340  0.6647
   18SOL     OW   69   3.096   1.559   0.374  0.0493 -0.1046  0.0306
   18SOL    HW1   70   3.128   1.638   0.327 -0.7287 -0.5343 -0.8922
   18SOL    HW2   71   3.100   1.491   0.313  0.9552  1.6623 -0.8967
   18SOL     MW   72   3.101   1.561   0.360  0.0662  0.0719 -0.2135
   19SOL     OW   73   0.071   1.240   1.029  0.0371  0.1379  0.1148
   19SOL    HW1   74   0.112   1.313   0.974 -2.0867  1.7552  0.5760
   19SOL    HW2   75  -0.020   1.270   1.050  2.3584  1.0465  0.2003
   19SOL     MW   76   0.064   1.254   1.024  0.0632  0.4712  0.1869
   20SOL     OW   77   0.496   2.206   1.309  0.3123  0.2000  0.2122
   20SOL    HW1   78   0.450   2.141   1.248  0.9859 -1.1173  1.1636
   20SOL    HW2   79   0.418   2.231   1.367 -0.1481  0.9424  0.2691
   20SOL     MW   80   0.480   2.201   1.309  0.3404  0.1242  0.3452
   21SOL     OW   81   0.563   0.903   0.352 -0.0572  0.5536 -0.3063
   21SOL    HW1   82   0.611   0.830   0.396  2.3880 -1.5771  1.4132
   21SOL    HW2   83   0.538   0.860   0.268 -0.3369 -2.1969 -1.6830
   21SOL     MW   84   0.566   0.888   0.347  0.2285 -0.0905 -0.2611
   22SOL     OW   85   1.582   0.613   1.151 -0.4007 -0.0869 -0.4794
   22SOL    HW1   86   1.608   0.578   1.062 -0.3519  1.7584 -0.5271
   22SOL    HW2   87   1.495   0.656   1.139  0.6789 -1.3588  0.1482
   22SOL     MW   88   1.574   0.614   1.138 -0.2518 -0.0113 -0.4029
   23SOL     OW   89   3.060   0.718   0.706 -0.0757  0.5953  0.5238
   23SOL    HW1   90   3.118   0.642   0.708 -0.0689  0.6646  2.8199
   23SOL    HW2   91   3.110   0.801   0.711 -3.6030 -1.9684 -2.2397
   23SOL     MW   92   3.074   0.719   0.707 -0.5402  0.2662  0.4621
   24SOL     OW   93   2.088   2.231   0.006  0.1568 -0.3535  0.4660
   24SOL    HW1   94   2.091   2.208   0.099 -0.3869  0.9034  0.7113
   24SOL    HW2   95   2.123   2.152  -0.041 -1.3053 -0.2075  1.5060
   24SOL     MW   96   2.093   2.217   0.012 -0.1078 -0.1684  0.6356
   25SOL     OW   97   0.179   1.458   0.589  0.0122 -0.5702  0.1274
   25SOL    HW1   98   0.135   1.505   0.523  1.6053 -1.1606  0.6764
   25SOL    HW2   99   0.252   1.427   0.543 -0.1094  0.8448 -1.2688
   25SOL     MW  100   0.183   1.460   0.575  0.2064 -0.4614  0.0156
   26SOL     OW  101   2.019   1.016   0.407  0.5711 -0.3529  0.0937
   26SOL    HW1  102   1.925   1.028   0.428  2.8274 -0.2032  2.4004
   26SOL    HW2  103   2.034   1.092   0.341  1.3373  0.8183 -0.3337
   26SOL     MW  104   2.009   1.028   0.401  0.9699 -0.1786  0.3417
   27SOL     OW  105   1.994   1.459   0.240 -0.4402  0.4092  0.4150
   27SOL    HW1  106   1.912   1.416   0.267 -2.5425  1.1716 -0.2247
   27SOL    HW2  107   2.030   1.485   0.329  0.3438 -0.2420  0.3618
   27SOL     MW  108   1.988   1.457   0.255 -0.6141  0.4239  0.3236
   28SOL     OW  109   0.338   0.956   1.924  0.6086 -0.0613 -0.2401
   28SOL    HW1  110   0.274   0.902   1.976  0.6972 -3.2950  3.5526
   28SOL    HW2  111   0.368   0.892   1.865  0.5609 -0.0664  0.1660
   28SOL     MW  112   0.333   0.940   1.923  0.6140 -0.4886  0.3139
   29SOL     OW  113   0.225   1.420   0.902 -0.4614  0.2759 -0.2104
   29SOL    HW1  114   0.241   1.508   0.943 -3.2305 -0.9118 -0.0278
   29SOL    HW2  115   0.193   1.445   0.819 -1.6941 -2.8185 -0.4899
   29SOL     MW  116   0.223   1.435   0.897 -0.9894 -0.2891 -0.2232
   30SOL     OW  117   0.913   1.011   1.148  0.2987  0.0195  0.2055
   30SOL    HW1  118   0.844   1.042   1.206  2.1989  1.3063  0.9896
   30SOL    HW2  119   0.989   1.015   1.207 -0.9504 -0.6337  0.9932
   30SOL     MW  120   0.914   1.015   1.163  0.3846  0.1031  0.4129
   31SOL     OW  121   0.489   0.247   0.201 -0.5671  0.2292  0.6743
   31SOL    HW1  122   0.480   0.158   0.242  1.9808  1.0991  0.0224
   31SOL    HW2  123   0.469   0.213   0.110  0.8904  0.6167 -0.3235
   31SOL     MW  124   0.485   0.231   0.194 -0.0386  0.3951  0.4566
   32SOL     OW  125   2.683   1.035   1.121 -0.0406 -0.0464 -0.5348
   32SOL    HW1  126   2.636   0.953   1.110 -1.7099  2.8681 -1.1616
   32SOL    HW2  127   2.773   1.017   1.091  0.7227  1.7574 -2.8823
   32SOL     MW  128   2.689   1.022   1.116 -0.1601  0.5761 -0.9272
   33SOL     OW  129   1.791   1.279   0.344  0.1291 -0.1000  0.2923
   33SOL    HW1  130   1.771   1.189   0.385 -1.0509 -1.4003 -1.2219
   33SOL    HW2  131   1.742   1.339   0.404  0.1660 -2.1432 -1.0616
   33SOL     MW  132   1.782   1.275   0.357 -0.0217 -0.5411 -0.0861
   34SOL     OW  133   1.275   1.843   1.125 -0.0782 -0.3716  0.2761
   34SOL    HW1  134   1.218   1.919   1.122 -0.5341  1.0003  1.7197
   34SOL    HW2  135   1.325   1.866   1.203 -0.1951  1.9774 -0.3754
   34SOL     MW  136   1.274   1.856   1.135 -0.1537  0.1194  0.3806
   35SOL     OW  137   0.362   0.048   1.881  0.2707 -0.9227 -0.1438
   35SOL    HW1  138   0.434   0.024   1.947 -0.4517  0.3585  0.6079
   35SOL    HW2  139   0.380  -0.002   1.802 -1.2418  2.0231 -0.9565
   35SOL     MW  140   0.374   0.038   1.879 -0.0242 -0.3650 -0.1519
   36SOL     OW  141   1.855   1.914   0.501  0.6755  0.3473  0.5732
   36SOL    HW1  142   1.860   1.894   0.403  2.7565 -0.4019  2.3890
   36SOL    HW2  143   1.832   1.827   0.535 -2.1150  1.8833 -1.7374
   36SOL     MW  144   1.853   1.900   0.492  0.5819  0.4511  0.5079
   37SOL     OW  145   1.809   1.988   0.958 -0.3309  0.1004  0.4901
   37SOL    HW1  146   1.754   1.976   0.880 -4.5617  0.4906 -1.1917
   37SOL    HW2  147   1.734   2.002   1.024  0.2610 -0.9347 -1.5260
   37SOL     MW  148   1.792   1.988   0.956 -0.8110  0.0153  0.0022
   38SOL     OW  149   2.842   0.913   0.222  0.5855 -0.1807 -0.3153
   38SOL    HW1  150   2.863   0.906   0.314 -0.6315 -2.5258  1.6670
   38SOL    HW2  151   2.922   0.874   0.177  0.6987  0.3662 -1.1138
   38SOL     MW  152   2.855   0.907   0.228  0.4399 -0.4179 -0.1591
   39SOL     OW  153   1.458   0.675   0.814  0.2834  0.4829  0.9421
   39SOL    HW1  154   1.422   0.584   0.818 -2.7593 -0.5174  0.9847
   39SOL    HW2  155   1.418   0.700   0.897 -2.0213 -1.7086  1.4013
   39SOL     MW  156   1.448   0.667   0.825 -0.4222  0.0618  1.0083
   40SOL     OW  157   1.299   1.896   0.240  0.0899 -0.2694  0.2484
   40SOL    HW1  158   1.280   1.813   0.286  2.1977  0.7658 -1.1628
   40SOL    HW2  159   1.304   1.959   0.313 -1.0638 -0.1908  0.8501
   40SOL     MW  160   1.297   1.893   0.256  0.2158 -0.1225  0.1416
   41SOL     OW  161   0.616   0.543   1.551  0.2445  0.3547  0.7014
   41SOL    HW1  162   0.699   0.603   1.545  0.8061 -0.4222 -1.6926
   41SOL    HW2  163   0.615   0.511   1.637  0.2745  2.5505 -1.8141
   41SOL     MW  164   0.627   0.547   1.561  0.3226  0.5419  0.0536
   42SOL     OW  165   1.398   3.069   1.962  0.0345  0.3182 -0.4375
   42SOL    HW1  166   1.306   3.058   1.984 -2.4824 -2.1714 -0.6790
   42SOL    HW2  167   1.432   2.982   1.980  0.8645  3.3428 -1.5289
   42SOL     MW  168   1.391   3.056   1.967 -0.1880  0.3888 -0.6133
   43SOL     OW  169   1.585   0.169   1.572  0.2742  0.6479 -0.2759
   43SOL    HW1  170   1.617   0.105   1.512 -0.2102 -1.2984  0.1714
   43SOL    HW2  171   1.506   0.129   1.617 -0.1572 -1.0307  0.5753
   43SOL     MW  172   1.578   0.155   1.570  0.1534  0.1697 -0.1045
   44SOL     OW  173   1.321   0.738   1.067 -0.2353  0.2754 -0.5870
   44SOL    HW1  174   1.318   0.835   1.060  2.2501  0.4644 -1.3113
   44SOL    HW2  175   1.327   0.714   1.160 -0.3943  0.2805  0.0839
   44SOL     MW  176   1.321   0.748   1.079  0.0717  0.3010 -0.5940
   45SOL     OW  177   1.026   0.803   0.796  0.2388 -0.5868  0.2289
   45SOL    HW1  178   1.044   0.738   0.865  0.5678  0.5955 -1.4113
   45SOL    HW2  179   1.005   0.761   0.721  3.2158 -0.2328 -0.5537
   45SOL     MW  180   1.026   0.789   0.795  0.6750 -0.3841 -0.0908
   46SOL     OW  181   0.605   1.131   0.604 -0.4565 -0.0120 -0.0595
   46SOL    HW1  182   0.624   1.151   0.511  1.1353 -0.8319  1.3296
   46SOL    HW2  183   0.682   1.087   0.638  0.4265 -1.6224  0.0791
   46SOL     MW  184   0.617   1.128   0.596 -0.1300 -0.3327  0.1421
   47SOL     OW  185   0.095   1.878   1.823  0.0503  0.8682  0.2643
   47SOL    HW1  186   0.174   1.832   1.801 -1.0886  1.4785  1.6848
   47SOL    HW2  187   0.090   1.855   1.913 -1.1232  1.1751 -0.8916
   47SOL     MW  188   0.105   1.869   1.832 -0.2548  0.9892  0.2992
   48SOL     OW  189   1.053   0.638   1.043  0.4097  0.4913  0.0913
   48SOL    HW1  190   1.001   0.674   1.117 -1.0908  0.8218 -0.7380
   48SOL    HW2  191   1.134   0.696   1.048 -1.2735 -1.2267 -0.6097
   48SOL     MW  192   1.057   0.650   1.054 -0.0103  0.3083 -0.1106
   49SOL     OW  193   1.852   0.756   1.589 -0.1593  0.2130 -0.1533
   49SOL    HW1  194   1.793   0.735   1.662 -1.0780  1.2008  2.6458
   49SOL    HW2  195   1.897   0.673   1.573 -1.5222  2.5703  0.9140
   49SOL     MW  196   1.850   0.743   1.596 -0.4603  0.6544  0.3568
   50SOL     OW  197   1.284   1.009   0.590  0.4134  0.2519  0.4180
   50SOL    HW1  198   1.263   1.052   0.668  1.4290 -2.7672 -1.6704
   50SOL    HW2  199   1.331   0.926   0.620  2.9353 -1.2932 -1.7517
   50SOL     MW  200   1.287   1.004   0.604  0.8801 -0.3503 -0.1438
   51SOL     OW  201   0.297   2.886   0.907  0.0506  0.0788  0.6809
   51SOL    HW1  202   0.376   2.825   0.896 -0.9038  1.1933 -0.1997
   51SOL    HW2  203   0.308   2.927   0.995  2.1191  0.0454  1.2366
   51SOL     MW  204   0.309   2.884   0.917  0.1976  0.2215  0.6380
   52SOL     OW  205   0.820   1.901   0.438 -0.1621  0.0116 -0.6088
   52SOL    HW1  206   0.761   1.960   0.485 -0.7184 -2.5442  0.6107
   52SOL    HW2  207   0.779   1.860   0.361  1.5006  1.7696 -1.4416
   52SOL     MW  208   0.807   1.903   0.434 -0.0162 -0.0937 -0.5577
   53SOL     OW  209   0.353   2.023   0.600 -0.6947  0.1903 -0.1687
   53SOL    HW1  210   0.308   2.016   0.517 -1.6556  1.1181  1.7717
   53SOL    HW2  211   0.361   2.126   0.611  0.9588 -2.4107 -0.6889
   53SOL     MW  212   0.348   2.036   0.590 -0.6033 -0.0304  0.0187
   54SOL     OW  213   2.193   0.853   0.830  0.4322 -0.1831  0.1716
   54SOL    HW1  214   2.206   0.822   0.739  1.1857  0.6923 -0.9748
   54SOL    HW2  215   2.099   0.867   0.835 -0.3393 -0.9850  0.0121
   54SOL     MW  216   2.182   0.851   0.819  0.4298 -0.1734 -0.0007
   55SOL     OW  217   0.512   1.433   1.539 -0.3307  0.3108 -0.5068
   55SOL    HW1  218   0.488   1.468   1.454  0.7217  0.0081  0.1082
   55SOL    HW2  219   0.597   1.388   1.514  1.2623 -2.1656 -0.5339
   55SOL     MW  220   0.520   1.432   1.525  0.0184 -0.0559 -0.4293
   56SOL     OW  221   0.469   0.815   0.115 -0.2748  0.0424 -0.1951
   56SOL    HW1  222   0.500   0.878   0.055  1.8254 -0.4606 -0.4353
   56SOL    HW2  223   0.383   0.789   0.079 -0.4962 -0.2157  0.4710
   56SOL     MW  224   0.462   0.820   0.102 -0.0269 -0.0580 -0.1389
   57SOL     OW  225   1.258   1.220   1.150  0.2778  0.2619 -0.4522
   57SOL    HW1  226   1.353   1.241   1.151 -0.7877  1.1712  0.7283
   57SOL    HW2  227   1.229   1.169   1.234  0.3718  1.2105 -0.5728
   57SOL     MW  228   1.266   1.216   1.161  0.1496  0.5070 -0.3123
   58SOL     OW  229   0.681   1.082   1.258  0.4505  0.2097 -0.2171
   58SOL    HW1  230   0.623   1.155   1.286  1.7626 -0.0098 -1.6225
   58SOL    HW2  231   0.674   1.020   1.332 -0.4460  0.0405 -0.2746
   58SOL     MW  232   0.673   1.083   1.272  0.5053  0.1584 -0.4101
   59SOL     OW  233   1.558   1.582   0.281 -0.6606  0.0759 -0.7585
   59SOL    HW1  234   1.584   1.542   0.362  3.1323 -0.3691  0.7015
   59SOL    HW2  235   1.510   1.654   0.317 -1.1109  0.4817  0.5711
   59SOL     MW  236   1.555   1.586   0.296 -0.2195  0.0707 -0.3904
   60SOL     OW  237   0.018   0.155   1.712 -0.2140 -0.0465 -0.2056
   60SOL    HW1  238  -0.053   0.219   1.702  0.5680  1.8935  0.6213
   60SOL    HW2  239  -0.025   0.067   1.707 -2.1211 -0.5302 -1.4658
   60SOL     MW  240   0.003   0.152   1.710 -0.3624  0.1457 -0.2628
   61SOL     OW  241   2.014   1.472   3.061 -0.0084  0.1974 -0.1806
   61SOL    HW1  242   2.004   1.489   3.155  0.0871 -4.4295 -2.0402
   61SOL    HW2  243   2.055   1.381   3.057  2.0701 -1.8272 -0.8359
   61SOL     MW  244   2.018   1.462   3.073  0.2785 -0.6802 -0.5124
   62SOL     OW  245   0.593   1.636   0.575  0.2201  0.8239 -0.2878
   62SOL    HW1  246   0.668   1.649   0.517 -0.8726 -0.6858  1.5762
   62SOL    HW2  247   0.585   1.544   0.608  1.0174 -2.3213 -2.0017
   62SOL     MW  248   0.602   1.626   0.571  0.1811  0.2098 -0.2680
   63SOL     OW  249   1.722   0.769   0.733  0.0025 -0.4109 -0.1180
   63SOL    HW1  250   1.726   0.787   0.641  0.4952  3.5405  1.3165
   63SOL    HW2  251   1.638   0.742   0.762  0.6287  0.7397 -0.4647
   63SOL     MW  252   1.712   0.767   0.725  0.1501  0.2623  0.0256
   64SOL     OW  253   0.294   1.701   0.964  0.2263  0.0398  0.7102
   64SOL    HW1  254   0.358   1.699   0.888  1.9517  0.8144 -1.5458
   64SOL    HW2  255   0.280   1.794   0.984 -0.8330 -0.6929  1.3620
   64SOL     MW  256   0.301   1.713   0.956  0.3142  0.0453  0.4986
   65SOL     OW  257   1.531   2.214   0.324 -0.4283  0.0720  0.0698
   65SOL    HW1  258   1.581   2.209   0.236 -1.8276 -0.1213 -2.4743
   65SOL    HW2  259   1.575   2.266   0.380  2.7215 -0.9029 -2.8387
   65SOL     MW  260   1.543   2.220   0.319 -0.1974 -0.0822 -0.6496
   66SOL     OW  261   0.287   0.590   0.523  0.3643 -0.5058 -0.4666
   66SOL    HW1  262   0.338   0.542   0.462  1.2214  2.4138  0.7831
   66SOL    HW2  263   0.302   0.682   0.506 -0.3226 -2.2683 -1.8482
   66SOL     MW  264   0.296   0.596   0.512  0.3868 -0.3531 -0.4840
   67SOL     OW  265   1.559   0.215   1.998 -0.0386 -0.2396  0.1120
   67SOL    HW1  266   1.584   0.250   1.912 -1.7286  0.5116 -2.8612
   67SOL    HW2  267   1.513   0.135   1.975 -0.1021 -1.8364 -0.2228
   67SOL     MW  268   1.556   0.209   1.984 -0.2699 -0.3512 -0.3245
   68SOL     OW  269   0.712   0.083   2.966 -0.4343  0.4197  0.6794
   68SOL    HW1  270   0.704   0.093   2.870 -3.0960  1.7175 -0.7151
   68SOL    HW2  271   0.742   0.169   3.000 -0.8710  3.8356 -0.3946
   68SOL     MW  272   0.715   0.095   2.958 -0.8431  1.0416  0.3537
   69SOL     OW  273   1.014   0.149   1.958 -0.0744  0.1562  0.2918
   69SOL    HW1  274   1.097   0.190   1.980 -1.7212  0.7351 -1.9168
   69SOL    HW2  275   1.025   0.049   1.965 -1.4102 -1.1581 -1.3156
   69SOL     MW  276   1.026   0.141   1.962 -0.4679  0.0592 -0.2117
   70SOL     OW  277   0.580   1.800   1.160 -0.5329 -0.1163 -0.2427
   70SOL    HW1  278   0.586   1.708   1.193  0.0629 -0.3830 -1.8618
   70SOL    HW2  279   0.672   1.820   1.117  0.2718 -0.4431  0.8894
   70SOL     MW  280   0.593   1.790   1.158 -0.3481 -0.1946 -0.3070
   71SOL     OW  281   1.795   0.694   1.317 -0.3896  0.1123 -0.5103
   71SOL    HW1  282   1.775   0.696   1.412  0.5665  3.0665  0.4801
   71SOL    HW2  283   1.721   0.657   1.274 -0.2227 -1.3486  0.9523
   71SOL     MW  284   1.782   0.689   1.324 -0.2414  0.3093 -0.1867
   72SOL     OW  285   0.834   1.839   1.040  0.0016  0.1568 -0.3149
   72SOL    HW1  286   0.822   1.894   0.962 -0.7687  2.5900 -1.2589
   72SOL    HW2  287   0.862   1.755   1.007  0.2506  1.8961  0.6344
   72SOL     MW  288   0.836   1.835   1.025 -0.0672  0.7073 -0.3142
   73SOL     OW  289   1.331   0.647   1.326 -0.3011  0.3322 -0.2823
   73SOL    HW1  290   1.287   0.565   1.305  0.1010  0.7530  0.5159
   73SOL    HW2  291   1.264   0.703   1.373  0.5869  1.1303 -0.4231
   73SOL     MW  292   1.316   0.644   1.329 -0.1308  0.4930 -0.1956
   74SOL     OW  293   2.783   0.105   1.014 -0.3540 -0.1963 -0.1238
   74SOL    HW1  294   2.722   0.045   0.968  1.0127 -0.2370  0.5226
   74SOL    HW2  295   2.815   0.170   0.949 -1.1062  1.8219 -1.3657
   74SOL     MW  296   2.779   0.105   0.999 -0.2729  0.0646 -0.2024
   75SOL     OW  297   1.659   1.272   0.099  0.1289  0.6620 -0.0731
   75SOL    HW1  298   1.702   1.262   0.190 -0.2326 -0.4429  1.0167
   75SOL    HW2  299   1.673   1.180   0.054  0.9882 -2.0012 -0.7236
   75SOL     MW  300   1.666   1.258   0.105  0.1946  0.1648 -0.0151
   76SOL     OW  301   2.944   0.631   0.464  0.1575 -0.0893  0.2134
   76SOL    HW1  302   2.971   0.669   0.553  1.2087  0.7897 -1.5346
   76SOL    HW2  303   3.028   0.610   0.414  1.4519  2.2570 -0.0460
   76SOL     MW  304   2.958   0.633   0.469  0.4670  0.3363 -0.0514
   77SOL     OW  305   0.907   0.447   0.527 -0.4617 -0.6753 -0.0054
   77SOL    HW1  306   0.857   0.521   0.500 -0.2612 -2.0436 -0.3698
   77SOL    HW2  307   0.827   0.392   0.539 -1.3857  0.5758  0.0137
   77SOL     MW  308   0.890   0.450   0.525 -0.5572 -0.6908 -0.0510
   78SOL     OW  309   0.863   0.754   1.219 -0.5569  0.3872  0.4707
   78SOL    HW1  310   0.770   0.740   1.189 -1.8611 -2.1734 -1.2444
   78SOL    HW2  311   0.876   0.849   1.219 -2.1170  0.0414 -1.3001
   78SOL     MW  312   0.852   0.764   1.215 -0.9348  0.0038  0.0108
   79SOL     OW  313   1.834   1.664   0.600 -0.3261  0.2853 -0.2294
   79SOL    HW1  314   1.751   1.634   0.568 -0.0786 -0.0724  2.1030
   79SOL    HW2  315   1.840   1.656   0.698  0.7540 -0.5651 -0.5581
   79SOL     MW  316   1.824   1.659   0.608 -0.1509  0.1259  0.0349
   80SOL     OW  317   0.154   1.037   0.264  0.1724 -0.5773 -0.5093
   80SOL    HW1  318   0.061   1.022   0.284 -2.3231 -1.6207  1.3669
   80SOL    HW2  319   0.198   0.955   0.293  0.8314 -1.9785  2.1313
   80SOL     MW  320   0.147   1.025   0.270 -0.0699 -0.8999  0.0867
   81SOL     OW  321   1.920   1.906   0.223  0.1733 -0.1478  0.2946
   81SOL    HW1  322   1.851   1.857   0.176  1.7832 -1.3724 -1.5007
   81SOL    HW2  323   1.927   2.002   0.190  0.2398  2.6292  1.6840
   81SOL     MW  324   1.912   1.912   0.213  0.3945  0.0570  0.2410
   82SOL     OW  325   0.869   0.912   0.553  0.0121  0.3574 -0.0253
   82SOL    HW1  326   0.937   0.913   0.482  0.5660  0.1783 -0.5966
   82SOL    HW2  327   0.806   0.849   0.513 -0.2063  1.5905  1.6457
   82SOL     MW  328   0.870   0.904   0.539  0.0564  0.4965  0.1198
   83SOL     OW  329   0.084   0.620   1.386  0.2306  0.5815  0.1734
   83SOL    HW1  330   0.100   0.708   1.366 -0.4929 -0.0502 -0.7588
   83SOL    HW2  331   0.167   0.597   1.427  0.4848  3.9227  4.2458
   83SOL     MW  332   0.097   0.629   1.389  0.1687  0.9390  0.5877
   84SOL     OW  333   0.042   0.297   1.078  0.0287  0.0364  0.1812
   84SOL    HW1  334   0.005   0.301   0.987 -1.3528  1.2183  0.8679
   84SOL    HW2  335   0.047   0.201   1.095  1.4818 -1.5243  0.9425
   84SOL     MW  336   0.038   0.285   1.068  0.0382 -0.0136  0.3722
   85SOL     OW  337   0.451   0.409   0.721 -0.5718  0.3136 -0.0204
   85SOL    HW1  338   0.390   0.451   0.671  2.9729  1.6727 -0.2244
   85SOL    HW2  339   0.398   0.348   0.777 -2.0651 -2.9592  0.5108
   85SOL     MW  340   0.436   0.406   0.722 -0.3011  0.0611  0.0227
   86SOL     OW  341   1.142   0.410   1.197  0.1701 -0.7199 -0.0315
   86SOL    HW1  342   1.090   0.482   1.146  1.2506  1.4117 -0.5359
   86SOL    HW2  343   1.110   0.421   1.288 -1.5023  0.4119 -1.1543
   86SOL     MW  344   1.131   0.421   1.202  0.0920 -0.2893 -0.2462
   87SOL     OW  345   1.268   1.408   1.365 -0.2062  0.1689  0.0259
   87SOL    HW1  346   1.248   1.478   1.304  2.2109 -1.0886 -0.6927
   87SOL    HW2  347   1.281   1.338   1.304 -0.1399  0.8035  0.1988
   87SOL     MW  348   1.267   1.408   1.349  0.1215  0.0867 -0.0461
   88SOL     OW  349   1.371   1.016   1.008 -0.0108 -0.3195 -0.2519
   88SOL    HW1  350   1.461   1.017   1.032 -1.0064 -0.3730 -0.9363
   88SOL    HW2  351   1.333   1.061   1.080 -0.9245 -2.7668 -2.1470
   88SOL     MW  352   1.378   1.022   1.021 -0.2627 -0.6495 -0.5923
   89SOL     OW  353   1.807   0.565   0.288 -0.7700  0.4292 -0.1596
   89SOL    HW1  354   1.870   0.493   0.305 -1.2226 -0.6860 -1.0986
   89SOL    HW2  355   1.862   0.625   0.231  0.1836 -1.2478 -0.5744
   89SOL     MW  356   1.823   0.563   0.283 -0.7039  0.0608 -0.3382
   90SOL     OW  357   0.751   1.244   2.833 -0.4456  0.4276 -0.0787
   90SOL    HW1  358   0.792   1.173   2.878 -0.6484 -1.2032 -1.6840
   90SOL    HW2  359   0.715   1.307   2.900 -0.2282 -2.3766  0.5708
   90SOL     MW  360   0.752   1.243   2.848 -0.4436 -0.1576 -0.2048
   91SOL     OW  361   1.965   0.737   0.464  0.4534 -0.3184 -0.0880
   91SOL    HW1  362   1.984   0.833   0.451 -0.5561 -1.7662 -1.2715
   91SOL    HW2  363   1.923   0.710   0.383  0.7839  0.7551  2.5217
   91SOL     MW  364   1.962   0.746   0.452  0.3638 -0.3678  0.1002
   92SOL     OW  365   1.661   0.740   0.467  0.2081 -0.1987 -0.2309
   92SOL    HW1  366   1.566   0.734   0.479 -0.5914 -1.3533  0.8438
   92SOL    HW2  367   1.692   0.678   0.395 -1.3796 -0.4642 -1.2954
   92SOL     MW  368   1.653   0.731   0.459 -0.1069 -0.3861 -0.2296
   93SOL     OW  369   1.018   0.206   0.391  0.5945  0.2043  0.0160
   93SOL    HW1  370   0.964   0.264   0.448 -0.3626  0.1850 -0.5169
   93SOL    HW2  371   0.968   0.181   0.314  1.6102 -1.0210 -1.4914
   93SOL     MW  372   1.004   0.211   0.388  0.6022  0.0400 -0.2532
   94SOL     OW  373   1.971   1.275   1.700  0.1202 -0.0371  0.1861
   94SOL    HW1  374   1.948   1.300   1.613 -0.4222  0.2832  0.2832
   94SOL    HW2  375   1.912   1.199   1.706 -0.2389 -3.0049 -3.0713
   94SOL     MW  376   1.960   1.268   1.689  0.0013 -0.3864 -0.2309
   95SOL     OW  377   0.921   1.560   1.009  0.3364 -0.3919  0.1629
   95SOL    HW1  378   0.956   1.474   1.020 -0.5187  0.5034 -0.9457
   95SOL    HW2  379   0.931   1.601   1.096 -0.9490 -2.9829 -1.3030
   95SOL     MW  380   0.927   1.554   1.022  0.0540 -0.6156 -0.1768
   96SOL     OW  381   1.235   1.785   1.687  0.0872 -0.0138 -0.6459
   96SOL    HW1  382   1.169   1.720   1.717  0.9298  2.4866 -0.9914
   96SOL    HW2  383   1.291   1.732   1.627 -1.6456 -2.1493  1.2456
   96SOL     MW  384   1.234   1.770   1.683 -0.0303  0.0343 -0.4419
   97SOL     OW  385   1.259   1.448   0.841  0.8532  0.0068 -0.7392
   97SOL    HW1  386   1.259   1.474   0.933  0.5216  0.8008  0.9761
   97SOL    HW2  387   1.171   1.478   0.803  0.3725 -0.2241 -0.1859
   97SOL     MW  388   1.248   1.455   0.848  0.7460  0.0811 -0.4398
   98SOL     OW  389   1.533   1.278   1.154 -0.3594 -0.0715  0.0752
   98SOL    HW1  390   1.537   1.367   1.191  0.0688 -0.6808  0.9736
   98SOL    HW2  391   1.570   1.282   1.065 -1.2947 -0.3490 -0.3519
   98SOL     MW  392   1.538   1.291   1.147 -0.4263 -0.1885  0.1374
   99SOL     OW  393   1.480   0.371   1.228  0.5200 -0.8256  1.0317
   99SOL    HW1  394   1.536   0.454   1.218  2.1527  1.6926 -1.0295
   99SOL    HW2  395   1.465   0.376   1.318 -0.0646  0.9028 -1.2133
   99SOL     MW  396   1.486   0.383   1.239  0.6583 -0.2653  0.4636
  100SOL     OW  397   1.133   1.070   1.334  0.4422  0.1746  0.0900
  100SOL    HW1  398   1.086   1.096   1.417  1.0528  0.5934 -1.2116
  100SOL    HW2  399   1.193   0.993   1.359 -0.7539 -3.2251 -0.8581
  100SOL     MW  400   1.135   1.063   1.348  0.3649 -0.2187 -0.2068
  101SOL     OW  401   0.637   1.166   0.328 -0.5698 -0.1821  0.1538
  101SOL    HW1  402   0.629   1.064   0.334  1.1658  0.1249 -1.6512
  101SOL    HW2  403   0.657   1.182   0.237  0.4861  0.4533  0.3871
  101SOL     MW  404   0.639   1.154   0.317 -0.2015 -0.0577 -0.0536
  102SOL     OW  405   2.934   0.603   0.916  0.5629 -0.5328  0.1767
  102SOL    HW1  406   2.978   0.656   0.844 -2.2550 -0.9722  1.0245
  102SOL    HW2  407   2.987   0.624   0.990  0.9172  1.1240  0.3248
  102SOL     MW  408   2.947   0.613   0.916  0.2379 -0.3722  0.3081
  103SOL     OW  409   1.628   0.348   1.779 -0.3461  0.3151  0.2930
  103SOL    HW1  410   1.641   0.285   1.711 -1.6413 -2.8208  0.6475
  103SOL    HW2  411   1.715   0.343   1.832 -0.9568  1.5946  1.9086
  103SOL     MW  412   1.641   0.339   1.777 -0.5975  0.0702  0.5529
  104SOL     OW  413   0.088   1.832   1.514 -0.0774  0.1861  0.3714
  104SOL    HW1  414   0.179   1.819   1.499 -0.9805 -0.0956 -0.5733
  104SOL    HW2  415   0.064   1.789   1.602 -0.7041 -0.7475 -1.7478
  104SOL     MW  416   0.097   1.825   1.524 -0.2792  0.0258 -0.0329
  105SOL     OW  417   0.159   1.166   0.543  0.3156  0.0223 -0.2625
  105SOL    HW1  418   0.183   1.148   0.450 -1.9036  1.6214 -1.3067
  105SOL    HW2  419   0.200   1.242   0.574  1.9983 -1.3464  1.3587
  105SOL     MW  420   0.167   1.174   0.535  0.2448  0.0527 -0.1864
  106SOL     OW  421   0.848   0.351   0.938  0.2253  0.3168 -0.3717
  106SOL    HW1  422   0.793   0.429   0.904 -0.4656  0.9424  1.1308
  106SOL    HW2  423   0.922   0.349   0.888 -0.0804  0.0681  1.3787
  106SOL     MW  424   0.850   0.361   0.927  0.0938  0.3665  0.0575
  107SOL     OW  425   0.786   2.210   3.061  0.1818 -0.0137 -0.4528
  107SOL    HW1  426   0.750   2.129   3.032  1.5705  1.7872  2.1153
  107SOL    HW2  427   0.869   2.183   3.105  0.5629  0.9004  0.5060
  107SOL     MW  428   0.792   2.196   3.063  0.4153  0.3446  0.0125
  108SOL     OW  429   1.406   1.593   1.543  0.1206  0.0927 -0.4265
  108SOL    HW1  430   1.347   1.530   1.492 -0.9311 -2.4467 -3.5988
  108SOL    HW2  431   1.473   1.537   1.580  1.1637 -1.0030  1.3057
  108SOL     MW  432   1.407   1.577   1.541  0.1194 -0.3869 -0.6165
  109SOL     OW  433   1.953   0.757   0.165 -0.3911 -0.1658 -0.1168
  109SOL    HW1  434   1.946   0.801   0.085  2.3305 -2.6587  0.3839
  109SOL    HW2  435   2.049   0.763   0.178  0.7030 -1.4367 -0.2350
  109SOL     MW  436   1.965   0.764   0.156  0.1123 -0.6624 -0.0663
  110SOL     OW  437   0.422   1.770   0.740 -0.3250 -0.1366 -0.2692
  110SOL    HW1  438   0.500   1.717   0.709 -1.0143  0.0810 -0.0205
  110SOL    HW2  439   0.418   1.852   0.685  0.7850  1.2751 -0.7499
  110SOL     MW  440   0.432   1.774   0.729 -0.2695  0.0784 -0.2998
  111SOL     OW  441   0.687   0.934   1.511  0.3079  0.4389  0.5405
  111SOL    HW1  442   0.735   0.849   1.538  0.9713 -0.9990 -0.4356
  111SOL    HW2  443   0.610   0.936   1.569 -2.8831 -0.3766 -0.7197
  111SOL     MW  444   0.683   0.923   1.522 -0.0256  0.1416  0.2454
  112SOL     OW  445   1.295   1.138   1.603 -0.0575 -0.5144  0.1581
  112SOL    HW1  446   1.230   1.209   1.641  0.4399  2.3967 -0.5882
  112SOL    HW2  447   1.263   1.055   1.634 -0.3971  0.6600  0.6591
  112SOL     MW  448   1.282   1.136   1.612 -0.0367  0.0247  0.1257
  113SOL     OW  449   1.356   0.053   1.715 -0.2706  0.4590  0.0869
  113SOL    HW1  450   1.382   0.018   1.798 -1.7700 -0.8525 -1.0067
  113SOL    HW2  451   1.353  -0.011   1.643  0.4078 -2.5240 -2.7845
  113SOL     MW  452   1.359   0.040   1.716 -0.3789 -0.1076 -0.4363
  114SOL     OW  453   0.458   2.808   1.852 -0.0180 -0.4864  0.5393
  114SOL    HW1  454   0.439   2.867   1.929 -0.0909  2.2708  0.4465
  114SOL    HW2  455   0.451   2.879   1.784  1.0120  1.2742 -0.0750
  114SOL     MW  456   0.455   2.825   1.853  0.1083  0.1097  0.4460
  115SOL     OW  457   0.387   0.851   1.052  0.2375  0.1624  0.0070
  115SOL    HW1  458   0.439   0.770   1.067  1.1378 -0.7584 -2.0947
  115SOL    HW2  459   0.345   0.877   1.135  0.4940 -2.0697 -1.1161
  115SOL     MW  460   0.388   0.843   1.065  0.3902 -0.2536 -0.4185
  116SOL     OW  461   0.769   0.969   0.907  0.5569  0.2145 -0.2146
  116SOL    HW1  462   0.852   0.985   0.869 -0.6553  1.6056  0.5986
  116SOL    HW2  463   0.810   0.964   0.997 -0.0827  1.8990  0.6057
  116SOL     MW  464   0.785   0.971   0.914  0.3125  0.6203  0.0009
  117SOL     OW  465   1.205   1.165   0.816  0.0042 -0.7928  0.4138
  117SOL    HW1  466   1.271   1.134   0.883 -2.1351 -0.8134  1.2380
  117SOL    HW2  467   1.212   1.257   0.835  1.4239 -0.4270  2.1375
  117SOL     MW  468   1.215   1.173   0.827 -0.0908 -0.7473  0.7499
  118SOL     OW  469   3.095   2.966   1.727 -0.0987  0.1754 -0.0293
  118SOL    HW1  470   3.140   2.991   1.805 -0.1614 -0.9162 -0.0425
  118SOL    HW2  471   3.003   2.975   1.738  0.8348  1.5672 -2.8647
  118SOL     MW  472   3.089   2.971   1.738  0.0162  0.2150 -0.4051
  119SOL     OW  473   0.500   1.314   1.239  0.5338  0.2953 -0.0906
  119SOL    HW1  474   0.522   1.338   1.147  0.7447  1.1967  0.5813
  119SOL    HW2  475   0.402   1.292   1.230  0.1751  1.5164  0.7840
  119SOL     MW  476   0.490   1.314   1.226  0.5143  0.5754  0.1135
  120SOL     OW  477   0.179   0.599   0.952  0.0806  0.0967 -0.0209
  120SOL    HW1  478   0.210   0.549   1.023  0.2666 -1.5138 -1.4198
  120SOL    HW2  479   0.188   0.690   0.974  0.5682  1.7165 -0.5334
  120SOL     MW  480   0.184   0.604   0.964  0.1695  0.0979 -0.2731
  121SOL     OW  481   1.799   1.052   1.748 -0.2601 -0.0945 -0.4736
  121SOL    HW1  482   1.746   1.014   1.670 -2.4261  1.7882 -0.0996
  121SOL    HW2  483   1.849   0.977   1.771  0.1111  3.0514 -1.1303
  121SOL     MW  484   1.798   1.037   1.741 -0.4969  0.5690 -0.5109
  122SOL     OW  485   0.093   0.480   0.714  0.1008  0.3889 -0.2022
  122SOL    HW1  486   0.169   0.512   0.663 -0.7699 -1.2557  0.6375
  122SOL    HW2  487   0.107   0.516   0.806 -0.9222  0.6061 -0.4692
  122SOL     MW  488   0.105   0.489   0.719 -0.1491  0.2006 -0.1267
  123SOL     OW  489   1.738   1.032   0.483  0.5166 -0.1758  0.1630
  123SOL    HW1  490   1.704   0.945   0.463 -0.9614 -0.6593  0.5906
  123SOL    HW2  491   1.752   1.042   0.576 -0.4632  2.5761 -2.0548
  123SOL     MW  492   1.735   1.022   0.492  0.1923  0.1235 -0.0732
  124SOL     OW  493   0.663   0.524   0.860  0.2113 -0.3886 -0.3695
  124SOL    HW1  494   0.590   0.491   0.808  0.2067  0.4163 -0.6933
  124SOL    HW2  495   0.665   0.615   0.830  0.8570 -1.4755  0.0993
  124SOL     MW  496   0.653   0.531   0.849  0.2959 -0.4258 -0.3504
  125SOL     OW  497   0.628   1.668   1.666  0.4369  0.6626 -0.2475
  125SOL    HW1  498   0.563   1.608   1.640 -2.1133 -1.1868 -0.3876
  125SOL    HW2  499   0.585   1.755   1.666  1.1549  0.0272 -0.9096
  125SOL     MW  500   0.614   1.672   1.663  0.1952  0.3348 -0.3533
  126SOL     OW  501   2.125   1.609   2.012 -0.1101 -0.2201 -0.1250
  126SOL    HW1  502   2.172   1.689   1.998 -0.2183 -0.8426  3.6815
  126SOL    HW2  503   2.201   1.550   2.028  0.5597  0.5723 -1.8701
  126SOL     MW  504   2.141   1.612   2.012 -0.0360 -0.1977  0.1470
  127SOL     OW  505   0.607   0.697   1.881 -0.3161 -0.1809  0.1527
  127SOL    HW1  506   0.684   0.648   1.918  1.0138  1.1345  0.8325
  127SOL    HW2  507   0.613   0.785   1.920  0.6157  0.7144  1.1810
  127SOL     MW  508   0.618   0.702   1.891 -0.0177  0.1108  0.3781
  128SOL     OW  509   1.707   0.751   2.861  0.1941  0.3093  0.4419
  128SOL    HW1  510   1.755   0.717   2.784 -0.0812  2.1344  2.5472
  128SOL    HW2  511   1.710   0.847   2.836 -0.7038  1.1091  0.9779
  128SOL     MW  512   1.713   0.759   2.847  0.0393  0.6556  0.7904
  129SOL     OW  513   1.548   0.886   0.213 -0.5993  0.8000 -0.1068
  129SOL    HW1  514   1.480   0.822   0.189 -2.3554 -2.6630  2.7951
  129SOL    HW2  515   1.607   0.847   0.274 -3.0311  2.8043  2.2676
  129SOL     MW  516   1.546   0.873   0.218 -1.1519  0.6075  0.5894
  130SOL     OW  517   0.770   1.526   0.342  0.0769 -0.3913  0.4360
  130SOL    HW1  518   0.801   1.464   0.402 -0.3123  1.2750 -0.3583
  130SOL    HW2  519   0.856   1.555   0.294  0.5181  1.2564  1.4501
  130SOL     MW  520   0.785   1.521   0.344  0.0838  0.0460  0.4650
  131SOL     OW  521   3.036   0.812   0.074  0.2935  0.4511 -0.4071
  131SOL    HW1  522   3.029   0.863  -0.015  1.4232  0.2759  0.0525
  131SOL    HW2  523   3.130   0.794   0.081  0.0691 -2.1573  0.0578
  131SOL     MW  524   3.048   0.816   0.063  0.4130  0.0839 -0.2852
  132SOL     OW  525   2.688   0.105   1.278 -0.3313  0.7375 -0.4604
  132SOL    HW1  526   2.724   0.108   1.186 -0.6722  1.6446 -0.3089
  132SOL    HW2  527   2.596   0.078   1.273  1.2853 -0.9235  0.3672
  132SOL     MW  528   2.681   0.102   1.265 -0.1630  0.6380 -0.3312
  133SOL     OW  529   1.126   0.218   1.700  0.7659 -0.1182  0.0635
  133SOL    HW1  530   1.194   0.154   1.706 -0.8534 -3.2701  0.4470
  133SOL    HW2  531   1.067   0.185   1.765  1.4642 -2.0739 -0.2715
  133SOL     MW  532   1.127   0.205   1.710  0.6444 -0.7921  0.0699
  134SOL     OW  533   1.382   2.512   1.420 -0.2817  0.2959 -0.7568
  134SOL    HW1  534   1.331   2.589   1.424  3.1611  0.0826  0.2948
  134SOL    HW2  535   1.425   2.513   1.506  0.4165  0.9897 -1.9807
  134SOL     MW  536   1.381   2.523   1.432  0.2646  0.3593 -0.7795
  135SOL     OW  537   3.033   1.012   2.970  0.4217 -0.1315  0.0583
  135SOL    HW1  538   3.091   1.087   2.955 -2.0498  1.9831 -0.1549
  135SOL    HW2  539   2.956   1.064   2.984  2.1124 -2.7812 -0.8429
  135SOL     MW  540   3.031   1.029   2.970  0.3187 -0.2021 -0.0887
  136SOL     OW  541   0.241   2.071   0.862  0.3390 -0.3204 -0.4852
  136SOL    HW1  542   0.171   2.002   0.876  2.7484 -1.3721 -1.1602
  136SOL    HW2  543   0.290   2.043   0.791 -1.6540  0.0509  1.0898
  136SOL     MW  544   0.238   2.058   0.854  0.3940 -0.4102 -0.3665
  137SOL     OW  545   0.673   2.074   0.599  0.1349 -0.2204 -0.3395
  137SOL    HW1  546   0.711   2.043   0.683 -3.4265  0.0888  1.4437
  137SOL    HW2  547   0.580   2.069   0.622  2.2020  0.1960 -1.9976
  137SOL     MW  548   0.666   2.069   0.613 -0.0623 -0.1246 -0.3230
  138SOL     OW  549   0.525   0.611   1.080  0.8221 -0.3142 -0.5092
  138SOL    HW1  550   0.464   0.545   1.101  1.8574  0.4583  1.9319
  138SOL    HW2  551   0.589   0.567   1.022  0.6826  2.1858  1.3929
  138SOL     MW  552   0.526   0.596   1.075  0.9403  0.1176  0.0638
  139SOL     OW  553   2.718   0.556   1.412  0.2577 -0.0984  0.3064
  139SOL    HW1  554   2.719   0.462   1.442  0.6531  0.8373  0.3169
  139SOL    HW2  555   2.811   0.590   1.425  2.2380  1.5925  2.5467
  139SOL     MW  556   2.730   0.548   1.418  0.5712  0.2482  0.6034
  140SOL     OW  557   0.859   0.303   2.181 -0.6529  0.0446 -0.5161
  140SOL    HW1  558   0.877   0.268   2.085 -0.2417 -0.8777 -2.1332
  140SOL    HW2  559   0.938   0.293   2.227  0.7146 -0.3187  2.5134
  140SOL     MW  560   0.872   0.297   2.174 -0.4182 -0.1250 -0.3297
  141SOL     OW  561   1.019   0.670   1.767 -0.4228 -0.0259  0.0394
  141SOL    HW1  562   1.087   0.605   1.745  0.5118 -0.6018  0.1198
  141SOL    HW2  563   1.079   0.738   1.789 -0.8268 -1.9465 -0.3699
  141SOL     MW  564   1.036   0.670   1.767 -0.3528 -0.3553 -0.0040
  142SOL     OW  565   0.969   1.116   0.688  0.0961 -0.4033 -0.0336
  142SOL    HW1  566   0.961   1.031   0.649 -1.0191  3.2291 -0.0531
  142SOL    HW2  567   1.056   1.107   0.731  0.6393 -2.5515 -1.3370
  142SOL     MW  568   0.980   1.104   0.688  0.0206 -0.2075 -0.2081
  143SOL     OW  569   1.903   0.903   1.183 -0.0382  0.9032 -0.2281
  143SOL    HW1  570   1.926   0.877   1.091 -0.3566 -0.7973 -0.0610
  143SOL    HW2  571   1.849   0.829   1.221  0.8315 -1.7002  0.5226
  143SOL     MW  572   1.899   0.890   1.176  0.0345  0.3354 -0.1070
  144SOL     OW  573   0.177   1.224   1.532  0.3935 -0.4756  0.2205
  144SOL    HW1  574   0.267   1.191   1.511  0.5734 -2.1249  2.1538
  144SOL    HW2  575   0.178   1.253   1.625  1.1953 -0.4125  1.1159
  144SOL     MW  576   0.189   1.224   1.541  0.5230 -0.6849  0.5937
  145SOL     OW  577   0.267   0.421   1.160 -0.4717  0.2882 -0.1306
  145SOL    HW1  578   0.291   0.371   1.241  1.5044  1.2254  1.6889
  145SOL    HW2  579   0.196   0.370   1.125 -0.2097  1.2262  2.8937
  145SOL     MW  580   0.261   0.407   1.166 -0.1764  0.5356  0.5085
  146SOL     OW  581   0.862   1.941   1.385  0.0616  0.0364  0.3339
  146SOL    HW1  582   0.939   1.938   1.320  1.9846  1.0131 -0.3503
  146SOL    HW2  583   0.780   1.970   1.341 -1.1461  0.8009  0.2725
  146SOL     MW  584   0.861   1.944   1.370  0.1560  0.2662  0.2355
  147SOL     OW  585   0.415   0.432   2.850 -0.2668 -0.4664 -0.4515
  147SOL    HW1  586   0.365   0.450   2.927 -3.2550  0.3318 -0.8799
  147SOL    HW2  587   0.395   0.511   2.795 -2.0579  1.7916  1.5711
  147SOL     MW  588   0.406   0.445   2.853 -0.8973 -0.0632 -0.2412
  148SOL     OW  589   0.051   0.881   1.285 -0.2205 -0.0196  0.0984
  148SOL    HW1  590   0.118   0.945   1.305 -5.0842  3.1300 -0.2751
  148SOL    HW2  591  -0.011   0.884   1.357  0.4238 -1.0871 -1.3361
  148SOL     MW  592   0.052   0.890   1.297 -0.7772  0.2551 -0.1401
  149SOL     OW  593   1.430   1.100   1.366  0.0617  0.1283  0.0776
  149SOL    HW1  594   1.381   1.148   1.440 -1.3164 -0.8604 -0.9240
  149SOL    HW2  595   1.483   1.169   1.324 -1.3105  0.3961 -0.1803
  149SOL     MW  596   1.430   1.115   1.370 -0.3012  0.0332 -0.0886
  150SOL     OW  597   1.847   1.361   0.719 -0.9242  0.2544  0.3514
  150SOL    HW1  598   1.869   1.269   0.700 -0.1938 -1.9439  1.9031
  150SOL    HW2  599   1.899   1.389   0.793  0.3004 -0.9435 -0.8090
  150SOL     MW  600   1.857   1.353   0.726 -0.6662 -0.1937  0.4030
  151SOL     OW  601   1.626   1.792   0.814  0.0233 -0.1478 -0.3125
  151SOL    HW1  602   1.562   1.783   0.747  2.8840 -0.9950  0.8964
  151SOL    HW2  603   1.577   1.745   0.882  0.4233 -0.6760  0.9830
  151SOL     MW  604   1.611   1.784   0.814  0.4535 -0.3293  0.0180
  152SOL     OW  605   0.771   1.328   1.489  0.1136  0.0134  0.4804
  152SOL    HW1  606   0.822   1.249   1.511  0.5285 -0.8067  3.5830
  152SOL    HW2  607   0.842   1.397   1.502 -1.7524  0.2212 -1.3958
  152SOL     MW  608   0.787   1.326   1.494 -0.0779 -0.0674  0.6422
  153SOL     OW  609   2.656   1.213   0.717  0.2556 -0.6972  0.0025
  153SOL    HW1  610   2.702   1.205   0.628  2.3377 -0.2624 -1.4509
  153SOL    HW2  611   2.599   1.141   0.711 -0.1164 -0.9153  1.6727
  153SOL     MW  612   2.654   1.203   0.704  0.4812 -0.6686  0.0311
  154SOL     OW  613   0.308   1.746   1.705 -0.1909  0.4791 -0.2643
  154SOL    HW1  614   0.324   1.738   1.608  1.3892 -0.2536 -3.6480
  154SOL    HW2  615   0.349   1.672   1.754  0.1029 -0.3275  0.3876
  154SOL     MW  616   0.315   1.735   1.699  0.0564  0.2760 -0.6247
  155SOL     OW  617   1.101   0.714   0.246  0.5364  0.2139 -0.3864
  155SOL    HW1  618   1.124   0.647   0.309 -2.2087  0.1410 -1.8602
  155SOL    HW2  619   1.083   0.795   0.297 -0.0095 -0.0980 -0.1229
  155SOL     MW  620   1.102   0.716   0.261  0.1022  0.1631 -0.5461
  156SOL     OW  621   1.586   3.027   0.979 -0.2926  0.1385 -0.0554
  156SOL    HW1  622   1.646   3.098   1.005 -1.3504 -0.8610  0.8458
  156SOL    HW2  623   1.605   2.962   1.042 -0.4432  0.6295 -0.4285
  156SOL     MW  624   1.596   3.028   0.991 -0.4520  0.0714  0.0143
  157SOL     OW  625   1.406   1.192   0.077 -0.0837 -0.3744 -0.0838
  157SOL    HW1  626   1.391   1.163   0.167  2.2387  1.3254 -1.0956
  157SOL    HW2  627   1.497   1.231   0.082  1.1206 -1.2662  1.7422
  157SOL     MW  628   1.416   1.193   0.090  0.3816 -0.2678  0.0236
  158SOL     OW  629   0.384   1.647   2.277 -0.5106  0.5040  0.5496
  158SOL    HW1  630   0.378   1.676   2.187  4.1258  1.2387  1.4485
  158SOL    HW2  631   0.292   1.645   2.317 -0.3239  0.1391  0.6859
  158SOL     MW  632   0.371   1.650   2.271  0.1258  0.5528  0.6861
  159SOL     OW  633   1.252   1.660   0.405  0.1440 -0.6145  0.1126
  159SOL    HW1  634   1.221   1.573   0.383  1.5135  1.6396  0.4922
  159SOL    HW2  635   1.170   1.693   0.449 -1.8377  0.2843  0.9943
  159SOL     MW  636   1.237   1.653   0.408  0.0632 -0.1985  0.2790
  160SOL     OW  637   0.419   1.063   1.580 -0.0626 -0.1646  0.3090
  160SOL    HW1  638   0.413   0.977   1.625 -2.4833 -0.2973 -0.5333
  160SOL    HW2  639   0.459   1.128   1.640  0.4261 -0.0327 -0.3868
  160SOL     MW  640   0.423   1.060   1.594 -0.3175 -0.1647  0.1061
  161SOL     OW  641   0.575   2.148   2.661  0.4053 -0.0578  0.4896
  161SOL    HW1  642   0.483   2.150   2.695  1.5784  0.4456 -0.0090
  161SOL    HW2  643   0.579   2.087   2.585  1.7581 -3.5653 -1.4496
  161SOL     MW  644   0.563   2.140   2.655  0.7386 -0.4542  0.1680
  162SOL     OW  645   1.013   1.708   1.839 -0.3762 -0.5138  0.2675
  162SOL    HW1  646   1.049   1.797   1.846 -0.7832  3.2690 -0.6896
  162SOL    HW2  647   0.926   1.697   1.868 -0.1899 -2.2993 -2.6621
  162SOL     MW  648   1.006   1.718   1.844 -0.4053 -0.2503 -0.2453
  163SOL     OW  649   2.164   0.150   1.006  0.3649 -0.0615  0.2738
  163SOL    HW1  650   2.161   0.183   0.912  0.2301 -0.5015 -0.7724
  163SOL    HW2  651   2.112   0.075   1.007  1.9928 -1.9209  0.6190
  163SOL     MW  652   2.157   0.144   0.993  0.5619 -0.3649  0.1813
  164SOL     OW  653   0.300   0.199   0.848 -0.0517 -0.5077  0.1027
  164SOL    HW1  654   0.213   0.173   0.876  2.6399  1.3728  1.4546
  164SOL    HW2  655   0.318   0.130   0.784 -1.8352 -2.9985  0.0705
  164SOL     MW  656   0.291   0.186   0.843  0.0681 -0.5882  0.2768
  165SOL     OW  657   1.386   1.192   0.392 -0.1233 -0.1497  0.2920
  165SOL    HW1  658   1.336   1.125   0.434 -0.0084  0.3418  1.3009
  165SOL    HW2  659   1.471   1.154   0.386 -2.3058  1.5172  1.5715
  165SOL     MW  660   1.390   1.178   0.397 -0.3961  0.1351  0.5939
  166SOL     OW  661   0.537   1.098   0.980 -0.0976 -0.0618  0.1845
  166SOL    HW1  662   0.519   1.037   1.052  0.3884 -0.4526  0.2391
  166SOL    HW2  663   0.633   1.078   0.959  1.7470 -2.7681 -0.3009
  166SOL     MW  664   0.547   1.087   0.986  0.2099 -0.4705  0.1277
  167SOL     OW  665   0.952   1.169   0.348 -0.2540  0.1343 -0.3703
  167SOL    HW1  666   0.851   1.170   0.357  0.3596 -1.6678 -0.0845
  167SOL    HW2  667   0.974   1.216   0.262  0.2198  0.4998 -0.4516
  167SOL     MW  668   0.942   1.176   0.338 -0.1105 -0.0553 -0.3433
  168SOL     OW  669   1.693   1.769   2.910  0.1396  0.9484 -0.1233
  168SOL    HW1  670   1.651   1.843   2.958  0.6714 -0.8299 -0.0781
  168SOL    HW2  671   1.689   1.695   2.976 -5.0125 -1.5200 -0.6990
  168SOL     MW  672   1.687   1.769   2.925 -0.4700  0.3881 -0.1933
  169SOL     OW  673   0.329   0.972   1.299 -0.2029 -0.1590  0.5492
  169SOL    HW1  674   0.375   0.993   1.384  1.6156 -1.5194  4.0011
  169SOL    HW2  675   0.307   1.062   1.266  0.3731  1.1012 -1.3540
  169SOL     MW  676   0.332   0.987   1.306  0.1130 -0.1723  0.7535
  170SOL     OW  677   1.014   1.443   1.509 -0.2592  0.2455 -0.4719
  170SOL    HW1  678   0.995   1.531   1.482  1.7993  0.1831  0.0246
  170SOL    HW2  679   1.094   1.410   1.467  1.9907 -2.1603  0.5482
  170SOL     MW  680   1.022   1.450   1.500  0.3092 -0.0801 -0.2718
  171SOL     OW  681   0.567   1.387   0.686  0.2761  0.1201  0.3962
  171SOL    HW1  682   0.537   1.393   0.774 -2.1446 -2.1207 -1.4995
  171SOL    HW2  683   0.564   1.289   0.659  0.8991 -0.7006  1.4749
  171SOL     MW  684   0.563   1.375   0.694  0.0389 -0.2838  0.2884
  172SOL     OW  685   0.848   0.311   1.202  0.1473  0.0780  0.3172
  172SOL    HW1  686   0.858   0.323   1.110 -0.1460  1.0364  1.0209
  172SOL    HW2  687   0.764   0.348   1.224  0.9081  0.7208  0.7122
  172SOL     MW  688   0.838   0.318   1.193  0.2090  0.2893  0.4621
  173SOL     OW  689   0.410   1.662   0.350  0.1355  0.8109 -0.2021
  173SOL    HW1  690   0.411   1.572   0.314  0.2267 -2.3368  0.3498
  173SOL    HW2  691   0.454   1.660   0.436 -1.6130  0.3041  1.4651
  173SOL     MW  692   0.416   1.650   0.357 -0.0832  0.3287  0.0907
  174SOL     OW  693   2.021   0.961   1.519 -0.1125  0.1484  0.1168
  174SOL    HW1  694   1.961   0.882   1.533 -0.6433  0.0408 -0.2833
  174SOL    HW2  695   1.959   1.022   1.486 -1.0318  2.0579  0.2622
  174SOL     MW  696   2.005   0.959   1.517 -0.3038  0.3861  0.0832
  175SOL     OW  697   0.370   1.354   0.379  0.2729 -0.1152 -0.1839
  175SOL    HW1  698   0.372   1.356   0.283  1.6596 -4.1216  0.3381
  175SOL    HW2  699   0.451   1.305   0.396 -1.5661 -0.1269 -0.9943
  175SOL     MW  700   0.381   1.348   0.369  0.2132 -0.6453 -0.2220
  176SOL     OW  701   0.211   1.228   1.255  0.0795 -0.3877 -0.2512
  176SOL    HW1  702   0.155   1.233   1.178  3.2446  0.4001 -1.5594
  176SOL    HW2  703   0.165   1.281   1.327 -1.6052  0.6874  3.8858
  176SOL     MW  704   0.198   1.235   1.254  0.2748 -0.1419  0.1220
  177SOL     OW  705   0.606   0.433   1.314 -0.9980 -0.2336 -0.6580
  177SOL    HW1  706   0.599   0.503   1.255  0.9552 -0.8105  1.2883
  177SOL    HW2  707   0.601   0.465   1.407  0.9743  0.2360 -0.1542
  177SOL     MW  708   0.604   0.447   1.319 -0.4800 -0.2478 -0.3347
  178SOL     OW  709   0.013   0.407   3.020  0.0788 -0.1347 -0.2966
  178SOL    HW1  710  -0.041   0.437   3.097  1.0650  0.5807 -2.8657
  178SOL    HW2  711  -0.041   0.435   2.951  0.2697  1.5405 -1.6753
  178SOL     MW  712  -0.001   0.415   3.021  0.2341  0.1807 -0.8175
  179SOL     OW  713   1.648   1.326   1.459  0.6062  0.2412 -0.5396
  179SOL    HW1  714   1.620   1.335   1.555 -1.5438 -4.0195 -0.3858
  179SOL    HW2  715   1.740   1.313   1.466 -0.7788 -1.1313 -0.8628
  179SOL     MW  716   1.656   1.325   1.473  0.1398 -0.5020 -0.5620
  180SOL     OW  717   2.991   0.299   0.493  0.0357 -0.1096  0.2068
  180SOL    HW1  718   2.961   0.280   0.399  1.0689 -0.4132  1.5703
  180SOL    HW2  719   3.020   0.395   0.490  1.1329 -0.0500 -1.3399
  180SOL     MW  720   2.991   0.309   0.480  0.3168 -0.1418  0.1826
  181SOL     OW  721   1.153   1.376   3.039  0.2852  0.2342  0.2142
  181SOL    HW1  722   1.237   1.401   3.079  1.2129  0.9196  2.3840
  181SOL    HW2  723   1.176   1.339   2.955  0.9260  0.4985 -0.9054
  181SOL     MW  724   1.167   1.375   3.033  0.4921  0.3595  0.3527
  182SOL     OW  725   0.469   0.813   1.684  0.0557 -0.3485 -0.6491
  182SOL    HW1  726   0.379   0.792   1.699  2.3952 -0.6565  0.3864
  182SOL    HW2  727   0.514   0.759   1.743 -0.6890 -0.6981 -1.1832
  182SOL     MW  728   0.463   0.803   1.694  0.2661 -0.4352 -0.5829
  183SOL     OW  729   1.581   1.527   1.294  0.0106 -0.0329  0.1232
  183SOL    HW1  730   1.500   1.574   1.326  0.5706  2.0302  1.3197
  183SOL    HW2  731   1.612   1.467   1.371  0.9989  1.3514  2.1341
  183SOL     MW  732   1.574   1.525   1.309  0.2149  0.4219  0.5464
  184SOL     OW  733   0.784   0.504   1.972 -0.7422  0.7216  0.2203
  184SOL    HW1  734   0.864   0.558   1.948  1.5926  0.0497  0.7689
  184SOL    HW2  735   0.816   0.436   2.036  3.1258 -2.5106  1.9892
  184SOL     MW  736   0.799   0.502   1.977  0.0762  0.2065  0.5261
  185SOL     OW  737   1.134   0.920   1.960  0.1058  0.8484  0.1753
  185SOL    HW1  738   1.119   0.840   2.010  1.0872  0.6506 -2.1895
  185SOL    HW2  739   1.161   0.993   2.025 -0.1843 -1.3510  0.0753
  185SOL     MW  740   1.135   0.919   1.976  0.1970  0.5321 -0.1499
  186SOL     OW  741   0.354   1.747   1.449 -0.2709 -0.7498 -0.2363
  186SOL    HW1  742   0.411   1.806   1.404 -0.4204 -0.5060 -3.0615
  186SOL    HW2  743   0.326   1.689   1.379  0.9835 -0.8600 -2.8433
  186SOL     MW  744   0.357   1.747   1.434 -0.1251 -0.7322 -0.9530
  187SOL     OW  745   1.534   0.696   1.501  0.5432 -0.4807  0.0036
  187SOL    HW1  746   1.483   0.704   1.584  1.2222  0.4637 -0.3234
  187SOL    HW2  747   1.466   0.679   1.437  2.0725 -0.9812  1.2025
  187SOL     MW  748   1.518   0.695   1.504  0.8345 -0.4222  0.1186
  188SOL     OW  749   1.919   1.081   0.694  0.0056  0.2063 -0.2253
  188SOL    HW1  750   1.903   1.062   0.785  0.2533  0.1380  1.4861
  188SOL    HW2  751   2.012   1.098   0.679  1.9047 -0.7568  1.3025
  188SOL     MW  752   1.929   1.081   0.704  0.2889  0.0702  0.2021
  189SOL     OW  753   0.620   0.773   0.764 -0.3261 -0.0594  0.2170
  189SOL    HW1  754   0.538   0.820   0.744 -2.0973 -1.3516 -4.3426
  189SOL    HW2  755   0.688   0.822   0.818 -0.7482  4.4701 -1.0854
  189SOL     MW  756   0.618   0.785   0.768 -0.6155  0.3677 -0.5564
  190SOL     OW  757   1.865   0.375   1.973 -0.4388  0.5665  0.1808
  190SOL    HW1  758   1.921   0.295   1.990 -2.1681 -0.1643 -0.5506
  190SOL    HW2  759   1.922   0.430   1.917 -0.7723  0.9410  0.8618
  190SOL     MW  760   1.880   0.372   1.968 -0.7110  0.5195  0.1741
  191SOL     OW  761   1.638   0.962   1.521  0.4653 -0.2746  0.2875
  191SOL    HW1  762   1.569   1.008   1.471  2.3981 -2.3555  1.0417
  191SOL    HW2  763   1.606   0.872   1.522  0.0453  1.3031  0.6678
  191SOL     MW  764   1.624   0.956   1.514  0.6649 -0.3410  0.4371
  192SOL     OW  765   0.688   2.028   2.881  0.4572 -0.3490  0.0926
  192SOL    HW1  766   0.653   2.089   2.812  0.3778  2.4313  1.1032
  192SOL    HW2  767   0.640   1.944   2.873 -1.5789 -0.2557 -0.0525
  192SOL     MW  768   0.677   2.025   2.871  0.1781  0.0301  0.2068
  193SOL     OW  769   0.982   1.540   0.715 -0.1574 -0.0257 -0.7993
  193SOL    HW1  770   0.938   1.530   0.797 -0.0973  0.4708  1.1951
  193SOL    HW2  771   0.933   1.480   0.658  0.9936  0.1945  2.3126
  193SOL     MW  772   0.969   1.531   0.719  0.0024  0.0689 -0.1255
  194SOL     OW  773   0.507   1.370   0.971  0.0988  0.3001  0.2602
  194SOL    HW1  774   0.511   1.278   0.968 -0.0633  3.9215 -1.4624
  194SOL    HW2  775   0.418   1.387   0.943  0.2836  0.7233 -1.3514
  194SOL     MW  776   0.496   1.360   0.967  0.1018  0.8337 -0.1797
  195SOL     OW  777   1.324   1.142   2.936  0.3188  0.3080  0.3753
  195SOL    HW1  778   1.338   1.157   3.032 -0.7221 -1.4251  0.8481
  195SOL    HW2  779   1.238   1.094   2.926 -1.1743  0.3960 -0.4058
  195SOL     MW  780   1.314   1.138   2.947 -0.0156  0.0910  0.3346
  196SOL     OW  781   2.214   1.042   0.604  0.1914 -0.6161 -0.0790
  196SOL    HW1  782   2.169   1.017   0.521 -1.3499  1.1541  2.8780
  196SOL    HW2  783   2.235   1.134   0.592 -0.6231 -1.3257  0.3901
  196SOL     MW  784   2.211   1.051   0.591 -0.1195 -0.4762  0.3730
  197SOL     OW  785   0.549   1.208   1.980  0.2205  0.6525  1.3782
  197SOL    HW1  786   0.530   1.120   1.979  1.4665  2.1093 -1.7850
  197SOL    HW2  787   0.514   1.247   1.902  2.1867  0.1804 -2.2830
  197SOL     MW  788   0.542   1.202   1.970  0.6443  0.7824  0.4778
  198SOL     OW  789   2.939   1.381   1.075  1.2476 -0.4115  0.0529
  198SOL    HW1  790   2.923   1.476   1.052 -1.5256 -0.3957 -3.0528
  198SOL    HW2  791   2.855   1.343   1.058 -1.0889 -1.3171  0.2463
  198SOL     MW  792   2.925   1.389   1.070  0.5735 -0.5289 -0.3313
  199SOL     OW  793   0.428   1.282   1.742  0.4652 -0.3441  0.6720
  199SOL    HW1  794   0.329   1.270   1.757 -1.5964  0.2836 -0.1231
  199SOL    HW2  795   0.444   1.347   1.664 -0.0898 -0.5669 -3.4712
  199SOL     MW  796   0.417   1.289   1.734  0.1200 -0.2907  0.0205
  200SOL     OW  797   1.946   3.026   1.293  0.3555  0.5559  0.4933
  200SOL    HW1  798   1.958   3.024   1.196 -1.8450 -2.1681 -0.9891
  200SOL    HW2  799   1.852   3.038   1.305 -0.7526  1.9896  0.1665
  200SOL     MW  800   1.935   3.027   1.281 -0.0811  0.3857  0.2546
  201SOL     OW  801   1.069   0.306   0.764  0.6232  0.3125  0.2575
  201SOL    HW1  802   1.085   0.209   0.745 -0.6343 -1.6710 -0.3886
  201SOL    HW2  803   1.090   0.353   0.686 -0.4570 -1.2118  1.8694
  201SOL     MW  804   1.074   0.300   0.751  0.3148 -0.1503  0.3849
  202SOL     OW  805   1.592   1.574   1.013  0.4344 -0.3591 -0.1747
  202SOL    HW1  806   1.609   1.484   0.987 -0.0103  0.6200  1.3561
  202SOL    HW2  807   1.634   1.575   1.098  0.8932 -0.7726 -0.7264
  202SOL     MW  808   1.600   1.563   1.021  0.4363 -0.2844 -0.0455
  203SOL     OW  809   3.003   0.484   1.215  0.0241  0.0476  0.0541
  203SOL    HW1  810   3.056   0.417   1.159  0.5379  2.8033 -2.0793
  203SOL    HW2  811   3.069   0.538   1.259  1.6406  5.0688  3.0239
  203SOL     MW  812   3.019   0.482   1.213  0.3052  1.0737  0.1644
  204SOL     OW  813   1.054   1.768   0.587  0.0092 -0.2296  0.1273
  204SOL    HW1  814   1.036   1.681   0.634  0.8432 -0.1097 -0.2027
  204SOL    HW2  815   0.972   1.791   0.541  0.4693 -0.5180  0.8002
  204SOL     MW  816   1.041   1.760   0.587  0.1800 -0.2518  0.1726
  205SOL     OW  817   1.418   0.051   1.232 -0.6671 -0.4326  0.8282
  205SOL    HW1  818   1.377  -0.002   1.165 -1.6305 -0.0590 -0.4351
  205SOL    HW2  819   1.418   0.144   1.206  0.2910 -1.0036 -2.0984
  205SOL     MW  820   1.412   0.056   1.220 -0.6678 -0.4587  0.2754
  206SOL     OW  821   0.499   3.102   1.351  0.1586 -0.4643 -0.4933
  206SOL    HW1  822   0.445   3.068   1.281  0.4507  1.3769 -2.3184
  206SOL    HW2  823   0.551   3.022   1.381  1.6544  0.7826 -2.0889
  206SOL     MW  824   0.498   3.087   1.346  0.3945 -0.0568 -0.9446
  207SOL     OW  825   0.993   1.602   0.230  0.0004 -0.0771 -0.3596
  207SOL    HW1  826   1.017   1.688   0.186 -3.6074 -1.6162  0.2617
  207SOL    HW2  827   1.073   1.542   0.220  0.9090 -2.0548 -0.1276
  207SOL     MW  828   1.007   1.606   0.223 -0.3557 -0.5411 -0.2470
  208SOL     OW  829   0.617   1.564   1.284  0.5710 -0.1579 -0.1921
  208SOL    HW1  830   0.685   1.578   1.353 -0.2459 -1.1914  2.7325
  208SOL    HW2  831   0.611   1.472   1.272 -1.5177 -1.8908 -1.6484
  208SOL     MW  832   0.625   1.554   1.292  0.1876 -0.5229  0.0016
  209SOL     OW  833   1.503   0.539   2.800 -0.3138 -0.4816  0.2131
  209SOL    HW1  834   1.549   0.610   2.841 -1.6679  0.0379 -0.8920
  209SOL    HW2  835   1.570   0.475   2.791 -0.9844 -0.3590 -0.0706
  209SOL     MW  836   1.518   0.540   2.804 -0.5809 -0.3969  0.0299
  210SOL     OW  837   1.635   1.321   0.910  0.2170 -0.0587  0.3043
  210SOL    HW1  838   1.718   1.329   0.869  0.0883 -1.6905  1.8300
  210SOL    HW2  839   1.569   1.309   0.840  0.3759 -0.5158 -0.8216
  210SOL     MW  840   1.637   1.321   0.895  0.2210 -0.3343  0.3570
  211SOL     OW  841   1.711   0.492   0.933 -0.0768 -0.0411 -0.6518
  211SOL    HW1  842   1.699   0.486   0.837 -0.4290 -2.1939  3.0994
  211SOL    HW2  843   1.803   0.522   0.942 -0.7419 -0.2856 -0.9858
  211SOL     MW  844   1.721   0.495   0.921 -0.2110 -0.3574 -0.2009
  212SOL     OW  845   0.299   1.110   0.025 -1.0566  0.0387  0.1663
  212SOL    HW1  846   0.272   1.059   0.104 -0.7561 -0.5394 -3.2580
  212SOL    HW2  847   0.376   1.053  -0.009 -2.1426 -0.9258 -1.2331
  212SOL     MW  848   0.306   1.096   0.031 -1.1603 -0.1649 -0.4701
  213SOL     OW  849   0.512   1.694   3.075  0.0860 -0.4947 -0.1263
  213SOL    HW1  850   0.550   1.748   3.153  1.9141  0.1090  0.4843
  213SOL    HW2  851   0.553   1.728   2.991 -1.1436  0.4356 -1.6248
  213SOL     MW  852   0.522   1.706   3.074  0.1650 -0.2923 -0.2434
  214SOL     OW  853   0.607   0.236   2.270  0.0095  0.3970 -0.4709
  214SOL    HW1  854   0.548   0.305   2.226 -1.3279  1.1517 -1.0861
  214SOL    HW2  855   0.702   0.260   2.250  2.8044  1.5682  0.1298
  214SOL     MW  856   0.612   0.248   2.261  0.2018  0.6511 -0.4728
  215SOL     OW  857   0.509   0.671   2.606  0.0572 -0.3185  0.2128
  215SOL    HW1  858   0.511   0.650   2.513  0.2121 -0.8538  0.4724
  215SOL    HW2  859   0.417   0.651   2.636  1.3272  1.5920 -1.0513
  215SOL     MW  860   0.497   0.666   2.598  0.2452 -0.1371  0.0802
  216SOL     OW  861   3.074   0.004   2.818 -0.4073  0.0820 -0.7625
  216SOL    HW1  862   2.993  -0.032   2.855  3.2503  1.4280  2.0894
  216SOL    HW2  863   3.057   0.083   2.775  0.9388 -1.6221  0.3487
  216SOL     MW  864   3.061   0.010   2.817  0.2529  0.0348 -0.2396
  217SOL     OW  865   0.973   1.159   0.066 -0.0677  0.2018 -0.0502
  217SOL    HW1  866   1.003   1.070   0.040  1.0848 -2.5124  0.1159
  217SOL    HW2  867   1.040   1.213   0.012  0.5620 -0.3953 -5.8239
  217SOL     MW  868   0.986   1.154   0.055  0.1674 -0.2351 -0.7901
  218SOL     OW  869   0.928   1.323   2.468 -0.0869  0.1130 -0.0467
  218SOL    HW1  870   0.916   1.244   2.519 -1.0685  0.4741 -2.8235
  218SOL    HW2  871   1.000   1.382   2.514  1.7612 -0.0239  0.4116
  218SOL     MW  872   0.936   1.321   2.481  0.0274  0.1426 -0.3526
  219SOL     OW  873   1.036   0.400   2.573 -0.1814  0.6267 -0.1303
  219SOL    HW1  874   1.031   0.483   2.531  0.5875 -1.2491 -0.8616
  219SOL    HW2  875   0.954   0.390   2.615 -0.0951 -0.4869  1.4507
  219SOL     MW  876   1.025   0.410   2.573 -0.0686  0.2322 -0.0182
  220SOL     OW  877   1.737   0.549   2.169 -0.3306 -0.3241 -0.1367
  220SOL    HW1  878   1.669   0.600   2.135  0.5523  1.5671 -0.0997
  220SOL    HW2  879   1.739   0.469   2.112 -1.8431 -3.4115  2.4234
  220SOL     MW  880   1.728   0.545   2.157 -0.4137 -0.4819  0.2060
  221SOL     OW  881   0.389   1.445   2.935  0.2459  0.0805 -0.0374
  221SOL    HW1  882   0.392   1.349   2.911 -2.2164 -2.7936 -0.7387
  221SOL    HW2  883   0.424   1.497   2.863  0.8552  3.7132  1.2647
  221SOL     MW  884   0.394   1.439   2.923  0.0014  0.1806  0.0418
  222SOL     OW  885   0.408   0.947   2.670 -0.2300  0.4242  0.0319
  222SOL    HW1  886   0.345   0.969   2.592  0.5460 -1.4974 -1.9580
  222SOL    HW2  887   0.468   0.885   2.635 -2.8874  0.8435 -0.4382
  222SOL     MW  888   0.407   0.942   2.655 -0.4782  0.2260 -0.2927
  223SOL     OW  889   3.063   2.017   2.665  0.5767  0.2985 -0.1054
  223SOL    HW1  890   3.122   1.949   2.694  1.8638 -2.3294 -0.9987
  223SOL    HW2  891   3.105   2.082   2.611 -1.5899 -0.5355  1.0097
  223SOL     MW  892   3.076   2.017   2.661  0.4606 -0.1583 -0.0761
  224SOL     OW  893   1.545   0.786   2.596 -0.2895  0.0908  0.2300
  224SOL    HW1  894   1.465   0.811   2.651  1.6890  2.4971 -0.1312
  224SOL    HW2  895   1.566   0.865   2.550  2.6315  1.2587  0.4230
  224SOL     MW  896   1.537   0.800   2.598  0.3569  0.5624  0.2078
  225SOL     OW  897   2.989   1.464   2.276 -0.0535 -0.8018 -0.3574
  225SOL    HW1  898   2.986   1.516   2.194  1.2169  1.1849  0.4345
  225SOL    HW2  899   2.916   1.501   2.321  2.0046  1.5906  0.6867
  225SOL     MW  900   2.979   1.476   2.271  0.3857 -0.2240 -0.1151
  226SOL     OW  901   0.439   1.517   2.671  0.0511 -0.3640 -0.0594
  226SOL    HW1  902   0.503   1.461   2.632  1.9079 -3.2715  0.4041
  226SOL    HW2  903   0.448   1.605   2.635  2.6689  1.0561 -0.7263
  226SOL     MW  904   0.449   1.521   2.662  0.6415 -0.5603 -0.0862
  227SOL     OW  905   0.426   1.162   2.825 -0.8264  0.1156  0.2132
  227SOL    HW1  906   0.481   1.205   2.761  0.2267 -2.8186 -0.5597
  227SOL    HW2  907   0.386   1.084   2.773  0.6186  2.7625 -0.2068
  227SOL     MW  908   0.428   1.157   2.809 -0.4968  0.0777  0.0558
  228SOL     OW  909   0.676   0.931   1.992  0.1943  0.6780  0.2820
  228SOL    HW1  910   0.763   0.969   1.976 -1.7824  0.4743  0.1427
  228SOL    HW2  911   0.683   0.889   2.083  1.8434 -3.0286  0.5407
  228SOL     MW  912   0.688   0.930   2.002  0.1511  0.1621  0.2978
  229SOL     OW  913   0.267   0.491   3.057 -0.2071  0.8492  0.0623
  229SOL    HW1  914   0.168   0.490   3.024 -3.3694  0.8369 -2.0142
  229SOL    HW2  915   0.269   0.432   3.137 -1.1849  1.3499  2.2713
  229SOL     MW  916   0.254   0.483   3.063 -0.7533  0.9137  0.0798
  230SOL     OW  917   1.732   1.381   2.110  1.0700 -0.3154  0.0565
  230SOL    HW1  918   1.681   1.383   2.189  0.3381  3.0207 -0.3074
  230SOL    HW2  919   1.767   1.291   2.105 -2.0508  1.2174  0.6394
  230SOL     MW  920   1.730   1.370   2.120  0.5616  0.3270  0.0854
  231SOL     OW  921   2.816   1.240   2.223  0.1083 -0.1146  0.3512
  231SOL    HW1  922   2.898   1.291   2.246 -3.3122 -4.9567  2.1707
  231SOL    HW2  923   2.772   1.278   2.144 -1.8026 -0.7382  1.3347
  231SOL     MW  924   2.821   1.252   2.216 -0.5951 -0.8358  0.7211
  232SOL     OW  925   2.301   1.016   2.100 -0.0132 -0.4661  0.2131
  232SOL    HW1  926   2.224   1.022   2.049 -2.2658  0.3408 -1.3304
  232SOL    HW2  927   2.272   0.983   2.182  0.8036  0.7050 -2.3667
  232SOL     MW  928   2.287   1.013   2.104 -0.2026 -0.2051 -0.3309
  233SOL     OW  929   2.032   0.579   1.899  0.6994 -0.1970  0.4515
  233SOL    HW1  930   2.076   0.634   1.837 -0.8125 -1.7957 -0.2642
  233SOL    HW2  931   2.107   0.536   1.950  0.5425 -2.6503  0.0239
  233SOL     MW  932   2.048   0.580   1.897  0.4792 -0.7316  0.3007
  234SOL     OW  933   0.217   0.977   2.478 -0.1246 -0.6072  0.0941
  234SOL    HW1  934   0.118   0.985   2.468 -1.2207  1.0644 -0.7624
  234SOL    HW2  935   0.254   1.049   2.415  0.9755  1.0685 -0.2667
  234SOL     MW  936   0.209   0.988   2.468 -0.1241 -0.1655 -0.0665
  235SOL     OW  937   1.003   3.034   2.807  0.3321 -0.5345  0.5997
  235SOL    HW1  938   1.063   2.984   2.864  0.4328 -1.5278 -0.0590
  235SOL    HW2  939   0.986   3.109   2.865  2.3917  0.0114 -0.8433
  235SOL     MW  940   1.009   3.037   2.822  0.6171 -0.5935  0.3224
  236SOL     OW  941   2.925   0.536   0.101 -0.1833 -0.4922 -0.2981
  236SOL    HW1  942   2.861   0.552   0.028 -1.6777 -1.9343  1.1037
  236SOL    HW2  943   2.955   0.619   0.117  0.3920  0.4507  1.5755
  236SOL     MW  944   2.921   0.549   0.094 -0.3046 -0.5581  0.1341
  237SOL     OW  945   1.758   0.888   2.178  0.1110  0.2405  0.1289
  237SOL    HW1  946   1.784   0.977   2.150 -3.6865 -0.1086 -0.2077
  237SOL    HW2  947   1.803   0.871   2.264  0.0165 -2.4484  2.0941
  237SOL     MW  948   1.767   0.897   2.186 -0.4025 -0.1603  0.3438
  238SOL     OW  949   1.071   1.770   2.967  0.9202  0.2602  0.2154
  238SOL    HW1  950   1.038   1.681   2.961  2.1995  0.0047  0.8998
  238SOL    HW2  951   1.165   1.766   2.948  3.1935 -0.8299  0.7360
  238SOL     MW  952   1.079   1.758   2.964  1.3889  0.0827  0.3744
  239SOL     OW  953   1.254   1.416   2.328 -0.1247 -0.3047 -0.4805
  239SOL    HW1  954   1.212   1.394   2.412 -2.7240 -1.7813  1.0093
  239SOL    HW2  955   1.346   1.427   2.339  0.3183 -2.3745  2.6313
  239SOL     MW  956   1.261   1.414   2.341 -0.4092 -0.7726  0.1266
  240SOL     OW  957   0.618   0.809   2.243  0.1226 -0.6142  0.3695
  240SOL    HW1  958   0.596   0.882   2.302  1.6789  1.9491 -0.9621
  240SOL    HW2  959   0.708   0.782   2.275  1.2131  0.4701  1.1434
  240SOL     MW  960   0.627   0.815   2.255  0.4718 -0.1330  0.2959
  241SOL     OW  961   0.680   0.348   3.016  0.4389  0.4795  0.0645
  241SOL    HW1  962   0.653   0.402   3.089 -1.2617 -0.5183 -2.1640
  241SOL    HW2  963   0.592   0.335   2.977 -0.8742  0.2111  0.2140
  241SOL     MW  964   0.665   0.353   3.021  0.0413  0.3125 -0.2098
  242SOL     OW  965   1.428   1.691   2.329  0.3875  0.4649  0.9666
  242SOL    HW1  966   1.405   1.769   2.372 -1.4774 -0.8934 -1.6056
  242SOL    HW2  967   1.362   1.664   2.263 -0.9300 -1.4831  1.2245
  242SOL     MW  968   1.417   1.697   2.326 -0.0324  0.0287  0.6612
  243SOL     OW  969   1.068   0.206   2.344 -0.1981  0.1900 -0.3192
  243SOL    HW1  970   1.159   0.180   2.344 -0.4021 -1.7347 -1.1323
  243SOL    HW2  971   1.054   0.251   2.425  3.0112  1.3667 -0.3536
  243SOL     MW  972   1.078   0.208   2.355  0.1984  0.0913 -0.4310
  244SOL     OW  973   0.224   0.760   2.314 -0.1720 -0.2577 -0.3446
  244SOL    HW1  974   0.226   0.842   2.365  0.8218  2.1786 -1.3634
  244SOL    HW2  975   0.309   0.727   2.335 -2.8381  2.0753 -0.8808
  244SOL     MW  976   0.236   0.767   2.324 -0.3926  0.3715 -0.5498
  245SOL     OW  977   1.332   0.151   2.307  0.1962  0.1824 -0.0349
  245SOL    HW1  978   1.328   0.057   2.324  0.2175 -0.8026  1.2649
  245SOL    HW2  979   1.425   0.163   2.282 -0.3159 -1.7725 -2.9227
  245SOL     MW  980   1.344   0.140   2.306  0.1315 -0.2055 -0.2444
  246SOL     OW  981   1.166   1.129   2.148 -0.2658 -0.3327 -0.7650
  246SOL    HW1  982   1.099   1.123   2.219  0.8468  0.2881 -3.8860
  246SOL    HW2  983   1.253   1.149   2.196 -0.0742  0.1820 -1.0540
  246SOL     MW  984   1.169   1.131   2.164 -0.0937 -0.1829 -1.2149
  247SOL     OW  985   0.654   0.551   0.118  0.5127 -0.6242  0.1215
  247SOL    HW1  986   0.601   0.632   0.107 -2.3471 -0.9431 -2.8107
  247SOL    HW2  987   0.744   0.567   0.087  0.4395 -0.0448  1.3924
  247SOL     MW  988   0.659   0.563   0.113  0.1257 -0.5898 -0.0977
  248SOL     OW  989   0.362   1.200   2.411  0.9648  0.2047 -0.4175
  248SOL    HW1  990   0.378   1.253   2.333  2.7926  0.3243 -1.8983
  248SOL    HW2  991   0.290   1.243   2.453 -2.7440 -0.7295 -1.7993
  248SOL     MW  992   0.355   1.213   2.406  0.7166  0.0972 -0.7952
  249SOL     OW  993   0.157   1.813   2.723  0.0875 -0.3390  0.1144
  249SOL    HW1  994   0.088   1.751   2.701 -0.1911 -1.5404  0.8226
  249SOL    HW2  995   0.200   1.791   2.807 -1.2554 -0.5437  0.0270
  249SOL     MW  996   0.153   1.802   2.731 -0.1265 -0.5245  0.1963
  250SOL     OW  997   2.147   0.908   2.321 -0.4095  0.4959  0.4873
  250SOL    HW1  998   2.212   0.840   2.294  0.2328  1.0985 -3.3192
  250SOL    HW2  999   2.191   0.958   2.393  1.2289  1.8108 -0.2120
  250SOL     MW 1000   2.162   0.906   2.327 -0.1086  0.7489 -0.1072
  251SOL     OW 1001   0.109   0.824   2.051  0.6395  0.1439 -0.3505
  251SOL    HW1 1002   0.125   0.790   2.135  3.8453  1.9496 -1.3740
  251SOL    HW2 1003   0.081   0.749   2.001 -1.9426  0.7288 -1.8186
  251SOL     MW 1004   0.107   0.810   2.056  0.7218  0.4593 -0.6792
  252SOL     OW 1005   1.696   1.012   2.791  0.2240  0.3458  0.3506
  252SOL    HW1 1006   1.731   1.071   2.858  2.2414  0.9305 -0.2113
  252SOL    HW2 1007   1.745   1.038   2.716 -3.7146  1.6160 -2.6456
  252SOL     MW 1008   1.707   1.023   2.790 -0.0295  0.5905 -0.1188
  253SOL     OW 1009   1.150   1.755   2.574  0.3662 -0.3364 -0.2525
  253SOL    HW1 1010   1.155   1.755   2.478 -0.7888  0.4989 -0.4929
  253SOL    HW2 1011   1.060   1.795   2.589 -1.3938  0.5812  1.5141
  253SOL     MW 1012   1.139   1.761   2.563 -0.0184 -0.1051 -0.0511
  254SOL     OW 1013   0.966   1.060   2.312  0.3205 -0.2130 -0.3874
  254SOL    HW1 1014   0.949   0.970   2.281 -0.5006 -0.4826  3.2136
  254SOL    HW2 1015   0.892   1.104   2.270  3.7026 -3.0124 -1.2896
  254SOL     MW 1016   0.954   1.054   2.302  0.6584 -0.6180 -0.0313
  255SOL     OW 1017   0.736   2.352   2.275  0.3438  1.1359 -0.1644
  255SOL    HW1 1018   0.649   2.321   2.282  0.4113 -0.3711 -1.0061
  255SOL    HW2 1019   0.763   2.400   2.353 -0.2358 -0.6744  0.1271
  255SOL     MW 1020   0.728   2.354   2.286  0.2763  0.6982 -0.2370
  256SOL     OW 1021   1.194   2.863   2.949 -0.3459  0.1219 -0.7399
  256SOL    HW1 1022   1.248   2.784   2.925  0.3354  1.0396  1.2174
  256SOL    HW2 1023   1.255   2.930   2.919  1.3621 -3.5731 -2.1054
  256SOL     MW 1024   1.209   2.861   2.942 -0.0306 -0.2445 -0.6618
  257SOL     OW 1025   0.118   1.869   0.004 -0.5396  0.5656 -0.0981
  257SOL    HW1 1026   0.127   1.827   0.087  1.0413 -0.5944 -1.0814
  257SOL    HW2 1027   0.161   1.801  -0.045 -0.2150  0.6923 -0.5173
  257SOL     MW 1028   0.125   1.855   0.008 -0.2882  0.4292 -0.2832
  258SOL     OW 1029   0.580   1.044   2.405  0.1502  0.1079  0.0626
  258SOL    HW1 1030   0.627   1.080   2.329  1.7884 -1.3426 -0.8225
  258SOL    HW2 1031   0.510   1.108   2.426  2.8348 -0.6787 -2.0295
  258SOL     MW 1032   0.577   1.057   2.397  0.7206 -0.1872 -0.3302
  259SOL     OW 1033   0.599   0.367   2.502 -0.1887  0.3315 -0.6158
  259SOL    HW1 1034   0.526   0.417   2.491 -1.0713  0.5811 -0.1044
  259SOL    HW2 1035   0.609   0.317   2.417 -0.0604  0.4835 -2.3218
  259SOL     MW 1036   0.591   0.367   2.489 -0.2882  0.3845 -0.7734
  260SOL     OW 1037   0.593   0.156   1.588  0.3133  0.3778  0.3826
  260SOL    HW1 1038   0.529   0.169   1.519 -0.3535 -0.4118 -1.1914
  260SOL    HW2 1039   0.678   0.164   1.556 -1.7705 -1.9665 -1.7550
  260SOL     MW 1040   0.596   0.159   1.575 -0.0496 -0.0357 -0.1071
  261SOL     OW 1041   1.067   0.690   2.083  0.5831  0.0900  0.2534
  261SOL    HW1 1042   1.121   0.669   2.162 -0.1418  1.3712  3.0681
  261SOL    HW2 1043   1.103   0.631   2.021  1.0389 -0.7710  1.6431
  261SOL     MW 1044   1.079   0.680   2.085  0.5476  0.1454  0.8081
  262SOL     OW 1045   1.140   0.387   0.127 -0.1310 -0.4159 -0.3526
  262SOL    HW1 1046   1.153   0.298   0.152  0.3120  0.3234 -0.6335
  262SOL    HW2 1047   1.203   0.407   0.063 -0.5614 -1.8913  0.4825
  262SOL     MW 1048   1.150   0.378   0.122 -0.1293 -0.5131 -0.2795
  263SOL     OW 1049   0.432   2.986   2.504  0.0787 -0.3110  0.8316
  263SOL    HW1 1050   0.380   3.066   2.499  1.0313  1.8193 -2.6874
  263SOL    HW2 1051   0.478   2.991   2.425  0.2972  1.2509  2.4201
  263SOL     MW 1052   0.431   2.997   2.493  0.2333  0.1762  0.5769
  264SOL     OW 1053   1.490   1.330   1.977  0.6792  0.3596  0.1340
  264SOL    HW1 1054   1.427   1.305   2.046  0.1687  1.8385  0.2314
  264SOL    HW2 1055   1.571   1.340   2.033 -1.3474 -1.5765  1.5794
  264SOL     MW 1056   1.493   1.328   1.993  0.3445  0.2993  0.3376
  265SOL     OW 1057   0.739   2.736   2.210 -0.4130 -0.2564  0.0506
  265SOL    HW1 1058   0.757   2.652   2.177  0.0782  1.9385  1.2554
  265SOL    HW2 1059   0.706   2.737   2.303  1.1251 -0.6921  1.4773
  265SOL     MW 1060   0.737   2.725   2.218 -0.1452 -0.0243  0.3978
  266SOL     OW 1061   0.879   0.807   2.276 -0.0373  0.1059 -0.0409
  266SOL    HW1 1062   0.928   0.741   2.229  0.9732 -2.7493 -1.3603
  266SOL    HW2 1063   0.877   0.771   2.365  2.7394 -1.7001  0.1569
  266SOL     MW 1064   0.885   0.793   2.282  0.4624 -0.5091 -0.1889
  267SOL     OW 1065   1.394   1.811   2.669  0.3619 -0.2462  0.0085
  267SOL    HW1 1066   1.454   1.728   2.654 -0.7129 -1.5073  1.0864
  267SOL    HW2 1067   1.306   1.792   2.641  4.5071 -0.0949 -1.0769
  267SOL     MW 1068   1.390   1.798   2.664  0.7670 -0.3926  0.0075
  268SOL     OW 1069   0.208   0.752   1.653  0.2114 -0.6556 -0.2451
  268SOL    HW1 1070   0.150   0.832   1.616  0.5560  1.9645 -0.1949
  268SOL    HW2 1071   0.189   0.673   1.611 -0.0716  0.2768  2.5618
  268SOL     MW 1072   0.198   0.752   1.643  0.2195 -0.1869  0.1319
  269SOL     OW 1073   1.407   1.948   2.438  0.3796 -0.1007  0.1201
  269SOL    HW1 1074   1.429   1.912   2.527 -1.4526 -0.6179 -1.8221
  269SOL    HW2 1075   1.327   2.000   2.441  1.0054  0.4539 -3.5056
  269SOL     MW 1076   1.399   1.950   2.450  0.2204 -0.0958 -0.6145
  270SOL     OW 1077   1.181   0.472   1.627 -0.4278 -0.2714 -0.5219
  270SOL    HW1 1078   1.160   0.386   1.664  1.2697 -1.0650  0.6674
  270SOL    HW2 1079   1.279   0.457   1.607 -0.7642  1.3900  0.1976
  270SOL     MW 1080   1.191   0.458   1.629 -0.2482 -0.1569 -0.2701
  271SOL     OW 1081   0.889   0.004   2.458 -0.3676 -0.2783 -0.0732
  271SOL    HW1 1082   0.927  -0.056   2.521 -1.5092 -1.6986 -3.3227
  271SOL    HW2 1083   0.960   0.065   2.434 -2.2053 -0.9920 -1.9548
  271SOL     MW 1084   0.903   0.004   2.463 -0.7607 -0.5599 -0.7502
  272SOL     OW 1085   1.368   2.998   2.771  0.0307  0.0415 -0.4148
  272SOL    HW1 1086   1.312   3.022   2.700  1.9940 -3.1429  0.6355
  272SOL    HW2 1087   1.361   3.080   2.830  1.1274  3.8317  1.4859
  272SOL     MW 1088   1.360   3.012   2.769  0.4345  0.1214 -0.0254
  273SOL     OW 1089   1.422   0.932   2.811 -0.2370 -0.2630  0.3639
  273SOL    HW1 1090   1.518   0.941   2.801 -0.2971  2.5607 -0.4567
  273SOL    HW2 1091   1.397   1.018   2.847  1.3596 -0.9881  1.6290
  273SOL     MW 1092   1.432   0.944   2.814 -0.0343  0.0139  0.4225
  274SOL     OW 1093   1.342   0.709   0.125 -0.6949 -0.1379 -0.1555
  274SOL    HW1 1094   1.373   0.627   0.160 -0.2535 -1.0430 -0.6364
  274SOL    HW2 1095   1.255   0.710   0.167  3.7149 -1.2030 -0.3875
  274SOL     MW 1096   1.335   0.698   0.135 -0.0548 -0.3979 -0.2496
  275SOL     OW 1097   1.680   0.655   1.757  0.5541 -0.1262  0.2314
  275SOL    HW1 1098   1.751   0.682   1.824  0.0784  0.4016  1.2261
  275SOL    HW2 1099   1.684   0.557   1.736 -0.6797 -0.7157  1.1012
  275SOL     MW 1100   1.690   0.646   1.763  0.3286 -0.1343  0.4774
  276SOL     OW 1101   0.194   1.177   1.818 -0.0058 -0.1115  0.0107
  276SOL    HW1 1102   0.249   1.100   1.848  0.4967 -1.4746  0.4858
  276SOL    HW2 1103   0.108   1.167   1.853 -2.2240  0.7666 -1.7773
  276SOL     MW 1104   0.190   1.165   1.826 -0.2322 -0.1755 -0.1625
  277SOL     OW 1105   1.913   1.377   2.731  0.4845 -0.0083 -0.0610
  277SOL    HW1 1106   1.928   1.475   2.724 -2.4714  2.1066 -0.6875
  277SOL    HW2 1107   1.996   1.325   2.705  2.4529  0.1883 -2.3447
  277SOL     MW 1108   1.926   1.383   2.726  0.3542  0.2967 -0.4449
  278SOL     OW 1109   1.428   0.731   1.760 -0.2988 -0.3368  0.3870
  278SOL    HW1 1110   1.393   0.676   1.837 -3.4265  0.0066  1.6835
  278SOL    HW2 1111   1.526   0.719   1.765  1.3454 -1.4805 -2.3529
  278SOL     MW 1112   1.436   0.722   1.771 -0.4945 -0.4424  0.1965
  279SOL     OW 1113   0.582   3.077   2.261  0.3517  0.5265 -0.1433
  279SOL    HW1 1114   0.657   3.017   2.273 -0.1570  0.7645 -1.1834
  279SOL    HW2 1115   0.619   3.167   2.264 -0.3322 -0.4885  3.1336
  279SOL     MW 1116   0.597   3.081   2.263  0.1944  0.4240  0.1518
  280SOL     OW 1117   1.427   1.160   2.245  0.2369 -0.2687 -0.1080
  280SOL    HW1 1118   1.454   1.088   2.180  0.6010  0.5856  1.6206
  280SOL    HW2 1119   1.442   1.122   2.338  1.0898  0.9835 -0.3710
  280SOL     MW 1120   1.433   1.145   2.249  0.3975  0.0093  0.0854
  281SOL     OW 1121   1.324   1.400   2.801 -0.3738  0.3392  0.8450
  281SOL    HW1 1122   1.414   1.431   2.818  0.0896  1.8807  1.4334
  281SOL    HW2 1123   1.346   1.309   2.829  2.3206  0.9236 -0.8015
  281SOL     MW 1124   1.339   1.392   2.807  0.0428  0.6197  0.7054
  282SOL     OW 1125   1.124   1.296   1.746 -0.6005 -0.5920  0.1793
  282SOL    HW1 1126   1.064   1.355   1.693 -2.4907 -3.6721  0.5840
  282SOL    HW2 1127   1.060   1.237   1.788 -1.0225  0.4772 -0.4488
  282SOL     MW 1128   1.107   1.296   1.745 -0.9055 -0.8573  0.1498
  283SOL     OW 1129   0.695   1.194   0.034 -0.0973  0.1651 -1.1869
  283SOL    HW1 1130   0.788   1.170   0.045  0.3953  0.5471 -0.6193
  283SOL    HW2 1131   0.709   1.285   0.054 -0.6632  1.3612  0.2755
  283SOL     MW 1132   0.709   1.203   0.038 -0.1070  0.3733 -0.9190
  284SOL     OW 1133   0.473   0.611   2.348  0.4206  0.4014 -0.5913
  284SOL    HW1 1134   0.524   0.694   2.316 -0.5837  0.6260  0.2711
  284SOL    HW2 1135   0.456   0.552   2.271  2.3632  1.1177 -1.2133
  284SOL     MW 1136   0.477   0.614   2.333  0.5444  0.5255 -0.5596
  285SOL     OW 1137   0.890   0.905   2.776  1.1540  0.0886  0.2707
  285SOL    HW1 1138   0.844   0.946   2.702 -1.4135 -0.8009 -0.9851
  285SOL    HW2 1139   0.837   0.820   2.796  0.0396  2.3605  0.4227
  285SOL     MW 1140   0.877   0.899   2.769  0.6682  0.2710  0.1251
  286SOL     OW 1141   1.156   1.462   2.596  0.1657  0.3387  0.0704
  286SOL    HW1 1142   1.216   1.443   2.667  1.2709 -2.3632  1.1556
  286SOL    HW2 1143   1.152   1.553   2.609  1.3122 -1.0101  0.1631
  286SOL     MW 1144   1.163   1.471   2.607  0.4628 -0.1957  0.2258
  287SOL     OW 1145   1.095   0.943   0.408 -0.5745 -0.1261  0.3968
  287SOL    HW1 1146   1.163   0.952   0.477 -2.7024 -1.2413  0.4393
  287SOL    HW2 1147   1.066   1.036   0.394 -0.0592  1.9610 -0.7653
  287SOL     MW 1148   1.100   0.957   0.415 -0.7873  0.0021  0.2491
  288SOL     OW 1149   1.492   0.696   2.167  0.4195 -0.0090 -0.1159
  288SOL    HW1 1150   1.472   0.699   2.263  1.0488 -0.8415  2.6433
  288SOL    HW2 1151   1.483   0.788   2.142  1.0516 -1.2251 -1.0518
  288SOL     MW 1152   1.488   0.708   2.176  0.5859 -0.2793  0.1247
  289SOL     OW 1153   0.803   1.047   2.560  0.6383  1.2791  0.9565
  289SOL    HW1 1154   0.876   1.017   2.508  0.8408  0.1082 -0.3661
  289SOL    HW2 1155   0.717   1.054   2.526  0.5217  1.8531  2.0050
  289SOL     MW 1156   0.801   1.044   2.549  0.6497  1.2003  0.9203
  290SOL     OW 1157   0.843   0.697   1.547  0.0512 -0.1760 -0.2473
  290SOL    HW1 1158   0.893   0.632   1.492  0.9473 -1.8037  0.0266
  290SOL    HW2 1159   0.896   0.690   1.631  1.2164 -3.1119  1.1426
  290SOL     MW 1160   0.856   0.688   1.551  0.3232 -0.7781 -0.0278
  291SOL     OW 1161   0.248   0.378   0.204 -0.1956 -0.2136  0.1512
  291SOL    HW1 1162   0.331   0.331   0.214 -1.7410  0.8747  0.1978
  291SOL    HW2 1163   0.186   0.313   0.167 -0.1492  0.4664  0.3063
  291SOL     MW 1164   0.251   0.363   0.200 -0.3934  0.0197  0.1778
  292SOL     OW 1165   0.932   0.570   0.099 -0.0996  0.2414 -0.1995
  292SOL    HW1 1166   0.966   0.646   0.142 -0.0663  0.4649 -1.6398
  292SOL    HW2 1167   1.004   0.508   0.119  0.5747  0.5786 -0.8596
  292SOL     MW 1168   0.946   0.572   0.107 -0.0062  0.3154 -0.4766
  293SOL     OW 1169   0.244   0.100   2.481 -0.2152  0.0575  0.8857
  293SOL    HW1 1170   0.151   0.075   2.477 -0.9206  2.4634  0.1284
  293SOL    HW2 1171   0.253   0.155   2.562  1.2806  1.9869  0.9729
  293SOL     MW 1172   0.233   0.104   2.491 -0.1109  0.6295  0.7973
  294SOL     OW 1173   1.428   0.629   2.421 -0.2526  0.6037  0.3344
  294SOL    HW1 1174   1.467   0.681   2.494  3.6299 -3.1257  2.0173
  294SOL    HW2 1175   1.455   0.541   2.447 -1.2563  0.7954  0.5975
  294SOL     MW 1176   1.437   0.624   2.434  0.1273  0.1369  0.5911
  295SOL     OW 1177   0.769   0.597   2.501 -0.0446  0.5662  0.4411
  295SOL    HW1 1178   0.738   0.503   2.508 -1.3937 -0.8285 -3.2635
  295SOL    HW2 1179   0.752   0.632   2.596 -1.0176  3.0952  3.5234
  295SOL     MW 1180   0.763   0.589   2.515 -0.3510  0.7158  0.3590
  296SOL     OW 1181   1.258   0.287   2.071 -0.1782  0.3978  0.0527
  296SOL    HW1 1182   1.348   0.261   2.048  1.8073  0.4868 -0.0107
  296SOL    HW2 1183   1.234   0.251   2.161  3.6029 -2.1323  0.0538
  296SOL     MW 1184   1.267   0.279   2.079  0.5826  0.0757  0.0445
  297SOL     OW 1185   1.454   0.428   1.516 -0.0721 -0.6790 -0.4622
  297SOL    HW1 1186   1.500   0.503   1.548  0.1852 -0.5326 -1.0318
  297SOL    HW2 1187   1.499   0.348   1.532  2.7251 -1.2360 -0.5600
  297SOL     MW 1188   1.466   0.427   1.522  0.3309 -0.7332 -0.5503
  298SOL     OW 1189   1.489   0.944   2.085 -0.3016  0.0271 -0.5046
  298SOL    HW1 1190   1.466   0.985   2.002 -1.6660  0.1002  0.1083
  298SOL    HW2 1191   1.585   0.924   2.087  0.0249  1.2889 -0.6540
  298SOL     MW 1192   1.498   0.947   2.074 -0.4386  0.2032 -0.4435
  299SOL     OW 1193   0.514   0.997   3.021  0.0380  0.1630  0.1239
  299SOL    HW1 1194   0.594   1.051   3.047 -2.2412 -1.7104  3.9021
  299SOL    HW2 1195   0.476   1.045   2.948  1.3856 -2.3465  0.3877
  299SOL     MW 1196   0.519   1.011   3.015 -0.0849 -0.4153  0.6572
  300SOL     OW 1197   1.178   1.075   2.551  0.2445  0.6524  0.0107
  300SOL    HW1 1198   1.157   1.149   2.494 -0.7378  3.3965 -2.4524
  300SOL    HW2 1199   1.146   0.994   2.517 -0.2857 -0.6983  0.7885
  300SOL     MW 1200   1.171   1.074   2.539  0.0449  0.8363 -0.2116
  301SOL     OW 1201   1.400   0.737   0.543  0.0917  0.2134 -0.1352
  301SOL    HW1 1202   1.396   0.713   0.636 -0.5067 -1.9922  0.7517
  301SOL    HW2 1203   1.337   0.689   0.496  0.7602  2.0724  1.5169
  301SOL     MW 1204   1.392   0.728   0.549  0.1010  0.1677  0.1998
  302SOL     OW 1205   0.139   1.505   1.952 -0.3046 -0.2060 -0.3080
  302SOL    HW1 1206   0.124   1.444   2.023  1.4106  0.1916 -0.7104
  302SOL    HW2 1207   0.065   1.565   1.961 -0.3347 -2.1543  0.3118
  302SOL     MW 1208   0.127   1.505   1.962 -0.0823 -0.4106 -0.2793
  303SOL     OW 1209   0.411   1.820   2.651 -0.1569 -0.0746 -0.6311
  303SOL    HW1 1210   0.435   1.864   2.572  0.5303 -1.2760 -0.0908
  303SOL    HW2 1211   0.322   1.846   2.657  0.5799 -0.3734  0.0450
  303SOL     MW 1212   0.403   1.829   2.641  0.0310 -0.2725 -0.4706
  304SOL     OW 1213   0.522   1.992   2.431  0.0170  0.8298  0.5804
  304SOL    HW1 1214   0.532   2.071   2.379 -2.5719  2.3400 -0.4782
  304SOL    HW2 1215   0.586   1.926   2.405 -3.6671 -1.7514 -0.8306
  304SOL     MW 1216   0.532   1.994   2.421 -0.8107  0.6885  0.2546
  305SOL     OW 1217   1.183   0.568   0.449  0.2655  0.1656  0.1812
  305SOL    HW1 1218   1.107   0.529   0.496 -3.0577 -0.6770  2.3582
  305SOL    HW2 1219   1.224   0.488   0.424 -0.1636  2.9435 -0.3116
  305SOL     MW 1220   1.178   0.552   0.452 -0.2295  0.4209  0.4034
  306SOL     OW 1221   1.215   1.418   0.286 -0.0952 -0.3550  0.4759
  306SOL    HW1 1222   1.259   1.342   0.325  0.0738 -0.0329 -3.4714
  306SOL    HW2 1223   1.278   1.456   0.215  1.1491  1.5433  2.1177
  306SOL     MW 1224   1.229   1.413   0.282  0.0913 -0.0620  0.1717
  307SOL     OW 1225   1.314   0.573   1.970 -0.3046  0.6286 -0.0132
  307SOL    HW1 1226   1.310   0.479   1.990  2.7352  1.0450  3.2334
  307SOL    HW2 1227   1.367   0.611   2.042  2.5800  2.1759  1.4527
  307SOL     MW 1228   1.321   0.565   1.982  0.4771  0.8877  0.6086
  308SOL     OW 1229   2.132   0.556   2.748 -0.0025  0.2403 -0.2240
  308SOL    HW1 1230   2.110   0.453   2.730  2.4159 -3.4964 -0.6247
  308SOL    HW2 1231   2.224   0.576   2.749 -1.3913  1.7287  0.8625
  308SOL     MW 1232   2.142   0.545   2.746  0.1334 -0.0563 -0.1335
  309SOL     OW 1233   0.500   0.508   0.379 -0.1708 -0.0611  0.1213
  309SOL    HW1 1234   0.514   0.419   0.409 -0.2932  1.1988 -0.2055
  309SOL    HW2 1235   0.543   0.509   0.296 -1.2673 -2.0412  1.3337
  309SOL     MW 1236   0.507   0.497   0.372 -0.3316 -0.1561  0.2382
  310SOL     OW 1237   0.414   0.516   1.909 -0.0862 -0.0253  0.3613
  310SOL    HW1 1238   0.467   0.452   1.854  1.2543 -1.3588 -1.6272
  310SOL    HW2 1239   0.484   0.587   1.909  3.4728 -0.0091 -1.1415
  310SOL     MW 1240   0.430   0.517   1.902  0.5603 -0.1991 -0.0993
  311SOL     OW 1241   1.837   0.767   1.946  0.8963 -0.1255 -0.3329
  311SOL    HW1 1242   1.809   0.788   2.038 -1.7698 -1.3132 -2.3111
  311SOL    HW2 1243   1.909   0.706   1.955 -3.4447  1.8370  1.1453
  311SOL     MW 1244   1.843   0.761   1.960 -0.0282 -0.0232 -0.3989
  312SOL     OW 1245   1.731   2.624   3.071 -0.1910 -0.3724 -0.3525
  312SOL    HW1 1246   1.757   2.615   3.163 -3.3287 -0.7979  0.1040
  312SOL    HW2 1247   1.639   2.598   3.068 -2.8103 -0.3039 -0.4788
  312SOL     MW 1248   1.722   2.620   3.083 -0.9506 -0.4195 -0.3090
  313SOL     OW 1249   0.135   1.200   2.926 -0.0798  0.4062  0.1279
  313SOL    HW1 1250   0.188   1.184   3.004 -1.0935 -2.8501 -1.5058
  313SOL    HW2 1251   0.184   1.193   2.841 -0.2912 -0.0805  2.1917
  313SOL     MW 1252   0.149   1.197   2.925 -0.2414 -0.0876  0.1847
  314SOL     OW 1253   2.152   3.039   2.986  0.2591 -0.4043 -0.2633
  314SOL    HW1 1254   2.094   3.094   2.931  1.0826 -2.9888 -0.1337
  314SOL    HW2 1255   2.198   3.105   3.033  0.3908  2.1171 -1.4382
  314SOL     MW 1256   2.150   3.055   2.985  0.3851 -0.4126 -0.4012
  315SOL     OW 1257   1.572   1.986   3.017  0.2733 -0.1250  0.0463
  315SOL    HW1 1258   1.480   2.018   3.044  0.6169  1.3899 -0.4097
  315SOL    HW2 1259   1.608   2.043   2.947  0.0300 -2.4831  1.1963
  315SOL     MW 1260   1.565   1.998   3.011  0.2866 -0.2363  0.1379
  316SOL     OW 1261   1.223   0.638   2.693  0.4454  0.5774 -0.1478
  316SOL    HW1 1262   1.297   0.580   2.692 -1.2069 -1.6060  1.2669
  316SOL    HW2 1263   1.240   0.682   2.782  2.2189 -0.8347  0.7853
  316SOL     MW 1264   1.235   0.636   2.705  0.4614  0.1030  0.1619
  317SOL     OW 1265   0.662   1.362   2.590 -0.2406  0.4338  0.0587
  317SOL    HW1 1266   0.689   1.304   2.657 -0.3757  0.1025  0.8790
  317SOL    HW2 1267   0.741   1.360   2.533 -1.8379 -0.2646  1.2254
  317SOL     MW 1268   0.676   1.354   2.592 -0.4691  0.2980  0.3209
  318SOL     OW 1269   1.275   0.412   2.939 -0.1110 -0.7280 -0.2164
  318SOL    HW1 1270   1.189   0.436   2.898 -2.1771  0.5636 -0.4007
  318SOL    HW2 1271   1.341   0.463   2.887 -2.2911 -1.9894 -0.7897
  318SOL     MW 1272   1.273   0.422   2.927 -0.6713 -0.7240 -0.3163
  319SOL     OW 1273   0.760   0.403   2.738 -0.0681 -0.5542 -0.1513
  319SOL    HW1 1274   0.705   0.378   2.665  1.0682 -0.8072 -1.3849
  319SOL    HW2 1275   0.734   0.332   2.797 -0.4100  1.3199  1.7253
  319SOL     MW 1276   0.749   0.390   2.736  0.0368 -0.3403 -0.0665
  320SOL     OW 1277   1.012   1.310   2.016  0.6723  0.0808 -0.3316
  320SOL    HW1 1278   1.070   1.258   2.070 -0.9320 -2.1190 -0.7285
  320SOL    HW2 1279   1.060   1.390   1.997 -0.2046  0.0792  1.6723
  320SOL     MW 1280   1.026   1.314   2.020  0.3449 -0.2097 -0.1195
  321SOL     OW 1281   1.098   0.982   2.972 -0.1351  0.0921 -0.3792
  321SOL    HW1 1282   1.046   0.983   2.889  2.8569 -2.8111  2.5577
  321SOL    HW2 1283   1.148   0.896   2.978  2.0590 -2.3454 -0.0824
  321SOL     MW 1284   1.098   0.971   2.962  0.5491 -0.6126  0.0474
  322SOL     OW 1285   1.229   0.888   1.709 -0.3221 -0.2365 -0.1235
  322SOL    HW1 1286   1.302   0.823   1.724  0.4743 -0.6777 -0.1814
  322SOL    HW2 1287   1.215   0.929   1.793  0.5008 -0.8105  1.6649
  322SOL     MW 1288   1.237   0.885   1.722 -0.1084 -0.3705  0.1049
  323SOL     OW 1289   1.194   1.515   1.911  0.2874 -0.3699 -0.4219
  323SOL    HW1 1290   1.204   1.440   1.848 -1.5882  2.4563 -0.3346
  323SOL    HW2 1291   1.136   1.581   1.877 -0.2776 -1.2692  1.9883
  323SOL     MW 1292   1.188   1.514   1.898 -0.0346 -0.1157 -0.0924
  324SOL     OW 1293   1.493   1.089   2.490  0.4099  0.1649 -1.1322
  324SOL    HW1 1294   1.426   1.083   2.552 -0.5768  3.0652 -0.3929
  324SOL    HW2 1295   1.548   1.151   2.538 -3.3962 -0.1497 -0.4339
  324SOL     MW 1296   1.491   1.097   2.504 -0.2224  0.5060 -0.9425
  325SOL     OW 1297   0.989   0.451   2.918  0.0342  0.4080  0.3456
  325SOL    HW1 1298   0.973   0.513   2.996 -0.2376 -0.4244 -3.1757
  325SOL    HW2 1299   0.919   0.463   2.851  0.4353  1.8409  0.9441
  325SOL     MW 1300   0.978   0.461   2.919  0.0513  0.4872 -0.0401
  326SOL     OW 1301   0.387   1.338   2.169 -0.1603  0.1131 -0.1215
  326SOL    HW1 1302   0.447   1.310   2.101 -0.0845  2.3080  1.3260
  326SOL    HW2 1303   0.406   1.434   2.186  2.1300  0.0199 -0.9361
  326SOL     MW 1304   0.397   1.347   2.163  0.1519  0.3904 -0.0380
  327SOL     OW 1305   1.907   0.851   2.412  0.4096 -0.2740 -0.2296
  327SOL    HW1 1306   1.931   0.827   2.501 -0.0832 -0.4791  0.2483
  327SOL    HW2 1307   1.993   0.870   2.369 -1.9281  2.1470  1.4596
  327SOL     MW 1308   1.921   0.851   2.418  0.0361  0.0184  0.0563
  328SOL     OW 1309   0.135   1.262   2.187 -0.2268  0.6084 -0.1917
  328SOL    HW1 1310   0.103   1.199   2.122  1.4480 -2.5030  3.0250
  328SOL    HW2 1311   0.228   1.285   2.180 -2.5113  1.7869  1.9994
  328SOL     MW 1312   0.143   1.257   2.178 -0.3073  0.3534  0.5218
  329SOL     OW 1313   0.129   0.165   1.408  0.4751  0.0236 -0.1762
  329SOL    HW1 1314   0.060   0.220   1.437  0.9290 -1.2007 -3.5836
  329SOL    HW2 1315   0.206   0.220   1.419 -0.5786  3.0294  0.3685
  329SOL     MW 1316   0.130   0.180   1.413  0.3959  0.2587 -0.5539
  330SOL     OW 1317   0.405   2.954   2.078 -0.2569 -0.2081  0.2777
  330SOL    HW1 1318   0.476   2.990   2.136 -1.1120 -0.9318  0.8478
  330SOL    HW2 1319   0.335   2.943   2.138 -0.8382 -1.1662  0.0631
  330SOL     MW 1320   0.405   2.957   2.093 -0.4465 -0.4300  0.3246
  331SOL     OW 1321   0.726   1.181   2.220 -0.4661  0.8089 -0.2749
  331SOL    HW1 1322   0.677   1.203   2.143  0.7782 -2.6189 -0.4437
  331SOL    HW2 1323   0.730   1.267   2.265 -0.3206 -0.7320  3.1166
  331SOL     MW 1324   0.720   1.196   2.216 -0.2827  0.1534  0.1503
  332SOL     OW 1325   1.353   1.745   2.936 -0.1243 -0.3931 -0.3038
  332SOL    HW1 1326   1.379   1.770   2.841  2.8848  1.0348 -0.7842
  332SOL    HW2 1327   1.400   1.814   2.980 -2.1586  1.2302 -0.3874
  332SOL     MW 1328   1.362   1.758   2.930  0.0044  0.0095 -0.3782
  333SOL     OW 1329   1.739   1.510   3.034  0.3551 -0.2500  0.1080
  333SOL    HW1 1330   1.831   1.491   3.005  0.0988  1.5431 -3.5387
  333SOL    HW2 1331   1.705   1.431   3.081 -0.8833 -1.1628  0.8309
  333SOL     MW 1332   1.746   1.497   3.036  0.1579 -0.1339 -0.2778
  334SOL     OW 1333   1.164   3.084   2.589  0.1527 -0.4803 -0.1343
  334SOL    HW1 1334   1.115   3.069   2.676 -2.1863 -1.1550  0.4933
  334SOL    HW2 1335   1.184   3.178   2.594  0.2987 -0.9075  0.5924
  334SOL     MW 1336   1.160   3.094   2.601 -0.1367 -0.6257  0.0444
  335SOL     OW 1337   1.260   0.763   2.945  0.0154 -0.7766  0.2888
  335SOL    HW1 1338   1.296   0.740   3.027 -1.5404  0.5207  1.0682
  335SOL    HW2 1339   1.327   0.821   2.905  1.3249  1.2508 -0.8004
  335SOL     MW 1340   1.274   0.768   2.950 -0.0171 -0.3380  0.2480
  336SOL     OW 1341   0.944   1.086   1.854 -0.1873 -0.8492 -0.4360
  336SOL    HW1 1342   0.934   1.162   1.914  1.6908  0.6156  2.1531
  336SOL    HW2 1343   1.009   1.031   1.894  0.8494 -0.4995  1.9471
  336SOL     MW 1344   0.951   1.089   1.867  0.1973 -0.6098  0.2200
  337SOL     OW 1345   0.632   1.774   2.829 -0.8446  0.3310 -0.1973
  337SOL    HW1 1346   0.564   1.754   2.765 -0.4972  0.5592 -1.3793
  337SOL    HW2 1347   0.707   1.723   2.808  1.3369 -3.8462  1.1912
  337SOL     MW 1348   0.633   1.765   2.818 -0.5109 -0.1900 -0.1700
  338SOL     OW 1349   1.037   0.799   2.566 -0.0479 -0.3659 -0.8284
  338SOL    HW1 1350   0.991   0.851   2.639  2.6767  2.4552 -0.5836
  338SOL    HW2 1351   1.075   0.724   2.612 -0.6409 -4.2607 -1.6192
  338SOL     MW 1352   1.036   0.796   2.581  0.2334 -0.5075 -0.9004
  339SOL     OW 1353   1.413   1.100   1.848  0.1832 -0.3541 -0.4716
  339SOL    HW1 1354   1.412   1.095   1.752  3.1046 -0.5347 -1.4709
  339SOL    HW2 1355   1.455   1.184   1.857  1.1535  2.1326 -0.1582
  339SOL     MW 1356   1.418   1.111   1.837  0.6966 -0.0498 -0.5621
  340SOL     OW 1357   1.367   1.544   0.084 -0.2873  0.6336  0.1465
  340SOL    HW1 1358   1.381   1.602   0.004 -0.0108  0.4370 -2.9340
  340SOL    HW2 1359   1.450   1.540   0.125 -0.6574 -0.8762 -1.0519
  340SOL     MW 1360   1.379   1.551   0.079 -0.2997  0.4085 -0.4181
  341SOL     OW 1361   0.194   1.263   2.648 -1.0590 -0.0885  0.2837
  341SOL    HW1 1362   0.207   1.360   2.658 -1.6664  0.9439 -1.5162
  341SOL    HW2 1363   0.123   1.253   2.588 -2.1271  1.0411  0.8259
  341SOL     MW 1364   0.186   1.274   2.641 -1.2801  0.1968  0.1177
  342SOL     OW 1365   1.403   0.267   0.082  0.3031  0.0838  0.1726
  342SOL    HW1 1366   1.426   0.355   0.093 -1.7447  0.7915 -1.3610
  342SOL    HW2 1367   1.393   0.270  -0.012 -1.3600  1.9644 -0.0492
  342SOL     MW 1368   1.405   0.279   0.071 -0.1865  0.4253 -0.0590
  343SOL     OW 1369   0.211   0.310   2.271 -0.5189 -0.1571  0.5463
  343SOL    HW1 1370   0.237   0.234   2.318 -1.4182  0.0847  2.2783
  343SOL    HW2 1371   0.165   0.283   2.189 -2.0181  0.2962  0.6997
  343SOL     MW 1372   0.209   0.296   2.266 -0.8354 -0.0654  0.7950
  344SOL     OW 1373   1.683   2.177   0.095  0.0342 -0.0911  0.0877
  344SOL    HW1 1374   1.732   2.232   0.041  0.1970 -0.1073  1.9134
  344SOL    HW2 1375   1.644   2.106   0.034 -1.5394 -2.8133  1.2115
  344SOL     MW 1376   1.684   2.175   0.080 -0.1520 -0.4524  0.4769
  345SOL     OW 1377   0.668   1.583   2.364  0.1138  0.3234 -0.0212
  345SOL    HW1 1378   0.572   1.575   2.346  0.6890  0.3188 -0.3566
  345SOL    HW2 1379   0.719   1.545   2.284  2.8822  1.0848  1.0921
  345SOL     MW 1380   0.662   1.577   2.351  0.5550  0.4232  0.0815
  346SOL     OW 1381   1.686   1.029   0.006  0.4364 -0.1278 -0.2266
  346SOL    HW1 1382   1.779   1.008   0.004 -0.7717 -0.9417  1.0911
  346SOL    HW2 1383   1.641   0.985   0.075 -1.1188  2.8657  0.1476
  346SOL     MW 1384   1.692   1.021   0.015  0.0718  0.1598 -0.0033
  347SOL     OW 1385   1.177   0.657   2.347 -0.2676  0.0243  0.0140
  347SOL    HW1 1386   1.274   0.637   2.367  2.3610  0.8598 -0.4063
  347SOL    HW2 1387   1.150   0.719   2.417  0.9214 -0.3328 -2.5150
  347SOL     MW 1388   1.186   0.662   2.359  0.2361  0.0874 -0.3751
  348SOL     OW 1389   1.310   2.670   1.885  0.6586 -0.1876 -0.0137
  348SOL    HW1 1390   1.352   2.595   1.922 -2.5255 -0.4166  0.0621
  348SOL    HW2 1391   1.349   2.739   1.937 -0.8781  0.9876  1.8785
  348SOL     MW 1392   1.321   2.669   1.897  0.0357 -0.0627  0.2460
  349SOL     OW 1393   1.333   0.213   2.685  0.3919 -0.4827  0.0206
  349SOL    HW1 1394   1.286   0.254   2.756  0.2479 -0.1960 -0.6213
  349SOL    HW2 1395   1.413   0.178   2.726  1.2285 -1.6450  0.2698
  349SOL     MW 1396   1.337   0.214   2.700  0.4833 -0.5982 -0.0312
  350SOL     OW 1397   1.902   0.659   2.640 -0.3265 -0.8505 -0.0852
  350SOL    HW1 1398   1.843   0.590   2.609 -2.2740 -0.4255  1.5371
  350SOL    HW2 1399   1.978   0.607   2.679  1.5866 -0.0034  0.8503
  350SOL     MW 1400   1.904   0.643   2.641 -0.3311 -0.6827  0.2522
  351SOL     OW 1401   0.052   0.973   1.563 -0.6794 -0.4985  0.1015
  351SOL    HW1 1402  -0.012   1.015   1.623  0.8696  0.4223 -0.2147
  351SOL    HW2 1403   0.112   1.045   1.548 -2.6262 -0.8238  1.7395
  351SOL     MW 1404   0.052   0.988   1.569 -0.7319 -0.4199  0.2759
  352SOL     OW 1405   0.817   1.569   2.718 -0.0563 -0.4393  0.0634
  352SOL    HW1 1406   0.872   1.530   2.784 -1.1589 -0.4211 -3.2657
  352SOL    HW2 1407   0.773   1.496   2.669 -2.5732 -0.5497 -0.6748
  352SOL     MW 1408   0.818   1.554   2.720 -0.5339 -0.4515 -0.4733
  353SOL     OW 1409   3.084   2.434   2.775  0.3288 -0.1555 -0.5787
  353SOL    HW1 1410   3.164   2.391   2.752 -2.0029  0.2084  1.1928
  353SOL    HW2 1411   3.077   2.510   2.722 -0.9110 -2.2652  0.5755
  353SOL     MW 1412   3.094   2.439   2.765 -0.1424 -0.3858 -0.1926
  354SOL     OW 1413   0.346   2.464   0.893  0.4396 -0.3297  0.4361
  354SOL    HW1 1414   0.370   2.461   0.992  0.5370 -1.4490 -0.2981
  354SOL    HW2 1415   0.273   2.400   0.881 -1.3479  0.6239 -1.4436
  354SOL     MW 1416   0.340   2.455   0.905  0.2166 -0.3516  0.0912
  355SOL     OW 1417   0.081   2.265   0.378  0.2906 -0.2146 -0.2285
  355SOL    HW1 1418  -0.007   2.227   0.369 -1.4584 -0.4595 -1.2180
  355SOL    HW2 1419   0.074   2.309   0.462  1.9441  1.1777 -0.4641
  355SOL     MW 1420   0.068   2.266   0.388  0.2780 -0.0632 -0.3902
  356SOL     OW 1421   0.708   2.935   0.975 -0.1385  0.1040  0.0551
  356SOL    HW1 1422   0.788   2.907   0.933 -2.1109  0.9121  0.0856
  356SOL    HW2 1423   0.644   2.861   0.956  0.7773  0.1094 -1.1748
  356SOL     MW 1424   0.710   2.922   0.967 -0.2779  0.2114 -0.1032
  357SOL     OW 1425   1.786   2.981   0.368  0.0839 -0.7017 -0.3877
  357SOL    HW1 1426   1.748   2.921   0.435 -0.6825  1.1635  3.7776
  357SOL    HW2 1427   1.869   2.926   0.350  0.4030 -1.6280  2.1160
  357SOL     MW 1428   1.792   2.966   0.375  0.0249 -0.5778  0.4922
  358SOL     OW 1429   0.511   0.141   1.032 -0.6830  0.1872  0.5096
  358SOL    HW1 1430   0.594   0.137   0.978  2.5376  1.0259  0.1281
  358SOL    HW2 1431   0.443   0.186   0.983 -0.9608 -0.6850 -0.1854
  358SOL     MW 1432   0.513   0.147   1.019 -0.2947  0.1828  0.3676
  359SOL     OW 1433   0.904   2.724   1.915 -0.7196  0.4878  0.3497
  359SOL    HW1 1434   0.860   2.669   1.981  3.0761  0.3645 -3.0272
  359SOL    HW2 1435   0.969   2.665   1.873 -1.5590 -0.7349 -0.5570
  359SOL     MW 1436   0.906   2.709   1.918 -0.3296  0.3102 -0.2155
  360SOL     OW 1437   0.514   2.726   0.920  0.6090 -0.1316 -0.1040
  360SOL    HW1 1438   0.547   2.660   0.859 -0.7615 -0.0992  2.7531
  360SOL    HW2 1439   0.526   2.683   1.005  0.5942  1.5106 -1.6945
  360SOL     MW 1440   0.520   2.711   0.923  0.4262  0.0893  0.0631
  361SOL     OW 1441   0.177   2.746   1.378  0.0396  0.0731 -0.0302
  361SOL    HW1 1442   0.163   2.830   1.402 -1.3467 -2.5974 -0.9974
  361SOL    HW2 1443   0.270   2.736   1.380 -0.6029  3.3546 -0.3857
  361SOL     MW 1444   0.187   2.755   1.382 -0.2281  0.1537 -0.2047
  362SOL     OW 1445   1.479   2.405   0.623  0.7355 -0.0662 -0.2229
  362SOL    HW1 1446   1.493   2.322   0.665 -0.3148  0.2509 -1.8061
  362SOL    HW2 1447   1.469   2.475   0.686 -0.6214  1.4195 -1.1328
  362SOL     MW 1448   1.479   2.403   0.637  0.4179  0.1717 -0.5519
  363SOL     OW 1449   0.285   3.070   0.681 -0.2763 -0.3990 -0.4046
  363SOL    HW1 1450   0.296   3.015   0.754  1.7084 -1.2563  1.9713
  363SOL    HW2 1451   0.195   3.057   0.664 -1.1271 -0.6836  0.7946
  363SOL     MW 1452   0.274   3.061   0.688 -0.1267 -0.5496  0.0671
  364SOL     OW 1453   0.744   0.154   0.241  0.0891 -0.0396 -0.2931
  364SOL    HW1 1454   0.711   0.065   0.253 -0.9442  1.6416  0.5128
  364SOL    HW2 1455   0.665   0.205   0.219 -1.6595  0.7405  0.2759
  364SOL     MW 1456   0.730   0.149   0.239 -0.2780  0.2852 -0.1117
  365SOL     OW 1457   1.030   1.984   1.132  0.1044 -0.3837  0.1215
  365SOL    HW1 1458   1.010   2.073   1.095 -2.2109  1.2596 -1.0322
  365SOL    HW2 1459   0.958   1.940   1.090 -0.4264 -2.7243  2.0059
  365SOL     MW 1460   1.018   1.990   1.121 -0.2711 -0.4757  0.2179
  366SOL     OW 1461   2.871   2.635   0.993  0.0364  0.1866  0.5241
  366SOL    HW1 1462   2.931   2.632   1.062  0.9985  0.4358 -1.0881
  366SOL    HW2 1463   2.921   2.649   0.910  0.7005  0.2254 -0.9302
  366SOL     MW 1464   2.885   2.637   0.991  0.2510  0.2246  0.1195
  367SOL     OW 1465   1.271   2.952   0.858  0.4014 -0.1838  0.4210
  367SOL    HW1 1466   1.187   2.971   0.900  1.5927 -0.2613 -2.2276
  367SOL    HW2 1467   1.252   2.893   0.793  2.7587  2.6310  0.6180
  367SOL     MW 1468   1.257   2.947   0.855  0.8696  0.1774  0.0976
  368SOL     OW 1469   1.703   0.450   0.659  0.1314 -0.2949  0.3872
  368SOL    HW1 1470   1.768   0.377   0.652  1.9545  0.1232 -3.5850
  368SOL    HW2 1471   1.756   0.528   0.625 -1.7494 -0.7496  1.4256
  368SOL     MW 1472   1.719   0.450   0.654  0.1238 -0.2998  0.0001
  369SOL     OW 1473   0.158   2.458   1.746 -0.1226  0.3722 -0.2876
  369SOL    HW1 1474   0.233   2.404   1.778  0.6914  0.5987  0.2980
  369SOL    HW2 1475   0.157   2.544   1.787 -0.7689 -3.2685 -0.7654
  369SOL     MW 1476   0.168   2.462   1.756 -0.1005 -0.0783 -0.2734
  370SOL     OW 1477   0.709   0.091   0.868 -0.3587 -0.0517  0.1284
  370SOL    HW1 1478   0.778   0.153   0.894  0.4040  0.2319 -0.1194
  370SOL    HW2 1479   0.726   0.001   0.909 -1.9140  1.7059  0.3562
  370SOL     MW 1480   0.720   0.087   0.877 -0.4633  0.2176  0.1258
  371SOL     OW 1481   1.375   2.993   1.478 -0.4367  0.5002  0.9447
  371SOL    HW1 1482   1.328   2.910   1.447  0.5857 -3.9420 -0.5042
  371SOL    HW2 1483   1.409   3.037   1.403 -0.6359 -1.2675 -0.2792
  371SOL     MW 1484   1.373   2.988   1.464 -0.3281 -0.3191  0.5921
  372SOL     OW 1485   0.778   2.296   0.467  0.1514 -0.4720 -0.1661
  372SOL    HW1 1486   0.731   2.220   0.500 -2.0381 -1.7050  0.8049
  372SOL    HW2 1487   0.761   2.313   0.377 -0.7103 -1.2360  0.8694
  372SOL     MW 1488   0.769   2.288   0.460 -0.2512 -0.7355  0.0986
  373SOL     OW 1489   2.789   2.990   1.385 -0.5583 -0.2181 -0.0175
  373SOL    HW1 1490   2.864   2.976   1.323  1.9657 -1.0958  0.1519
  373SOL    HW2 1491   2.760   3.075   1.348  0.4095 -0.3593  1.7372
  373SOL     MW 1492   2.795   3.000   1.372 -0.0976 -0.3525  0.2364
  374SOL     OW 1493   1.480   0.506   0.235 -0.4282  0.4421  0.0794
  374SOL    HW1 1494   1.569   0.549   0.220 -0.0805  2.6993 -0.9269
  374SOL    HW2 1495   1.499   0.453   0.314 -0.0953 -0.0912  2.9503
  374SOL     MW 1496   1.494   0.505   0.244 -0.3384  0.6695  0.3255
  375SOL     OW 1497   1.122   2.117   2.255  0.1319  0.0630  0.2111
  375SOL    HW1 1498   1.152   2.158   2.336  0.9478  0.0726  0.0064
  375SOL    HW2 1499   1.087   2.026   2.268 -1.1618 -2.4622 -0.4073
  375SOL     MW 1500   1.121   2.111   2.267  0.0688 -0.2689  0.1025
  376SOL     OW 1501   0.674   2.554   0.156  0.6058 -0.3474  0.1816
  376SOL    HW1 1502   0.740   2.520   0.215  3.1437 -1.0341  1.0354
  376SOL    HW2 1503   0.633   2.476   0.112  1.0073 -1.9507  0.1364
  376SOL     MW 1504   0.677   2.539   0.158  0.9936 -0.6495  0.2883
  377SOL     OW 1505   1.310   2.092   0.903  0.0680  0.7482  0.0706
  377SOL    HW1 1506   1.240   2.054   0.846  2.7669 -0.5607  0.6323
  377SOL    HW2 1507   1.335   2.016   0.953  0.4801 -1.6421  1.9721
  377SOL     MW 1508   1.304   2.077   0.902  0.4785  0.2601  0.3956
  378SOL     OW 1509   0.988   2.837   1.500 -0.5579 -0.2322  0.0737
  378SOL    HW1 1510   0.941   2.754   1.523  2.3616 -1.3640  1.2131
  378SOL    HW2 1511   0.947   2.867   1.417 -1.0039 -0.8640  0.4309
  378SOL     MW 1512   0.976   2.830   1.492 -0.2315 -0.4649  0.2712
  379SOL     OW 1513   1.040   1.829   2.276 -0.3191 -0.1017  0.1891
  379SOL    HW1 1514   0.954   1.803   2.300  0.7050  1.7430  1.9965
  379SOL    HW2 1515   1.066   1.754   2.222 -0.6244  0.5773  3.1114
  379SOL     MW 1516   1.032   1.816   2.272 -0.2243  0.2312  0.8131
  380SOL     OW 1517   0.914   0.234   1.502 -0.3890  0.2725  1.0722
  380SOL    HW1 1518   0.945   0.179   1.433  0.4026 -0.9022 -1.4976
  380SOL    HW2 1519   0.984   0.237   1.568  1.2928 -0.7780  0.5114
  380SOL     MW 1520   0.928   0.227   1.502 -0.0626 -0.0211  0.6592
  381SOL     OW 1521   0.832   2.008   0.807  0.1488  0.1839  0.2047
  381SOL    HW1 1522   0.926   1.995   0.780 -2.0790  1.1197  0.8280
  381SOL    HW2 1523   0.845   2.080   0.876 -1.1364  1.9872  1.0727
  381SOL     MW 1524   0.846   2.016   0.813 -0.3147  0.5453  0.4015
  382SOL     OW 1525   0.666   0.023   0.599  0.1771 -0.4216 -0.3759
  382SOL    HW1 1526   0.646   0.052   0.684  0.6749 -0.9937 -0.1302
  382SOL    HW2 1527   0.675  -0.074   0.609  4.4951  0.3690  1.5153
  382SOL     MW 1528   0.664   0.014   0.611  0.8125 -0.3928 -0.0940
  383SOL     OW 1529   0.513   0.037   0.349 -0.6617 -0.8198  0.4528
  383SOL    HW1 1530   0.572   0.050   0.428  1.1154 -3.6043  0.1709
  383SOL    HW2 1531   0.440  -0.013   0.383  0.5280  3.2051 -3.8138
  383SOL     MW 1532   0.511   0.032   0.364 -0.2703 -0.6561 -0.1474
  384SOL     OW 1533   0.630   2.852   0.573  0.0981  0.5221  0.3100
  384SOL    HW1 1534   0.618   2.768   0.624  0.5536  0.3673  1.6030
  384SOL    HW2 1535   0.535   2.866   0.538 -0.0731 -0.1570  1.2730
  384SOL     MW 1536   0.616   2.843   0.575  0.1356  0.4120  0.6077
  385SOL     OW 1537   1.333   2.037   1.537 -0.3978 -0.3061 -0.2142
  385SOL    HW1 1538   1.400   2.070   1.602 -0.5391  0.4480 -2.0034
  385SOL    HW2 1539   1.286   1.964   1.576  1.8373  0.0017 -3.9295
  385SOL     MW 1540   1.336   2.032   1.551 -0.1215 -0.1660 -0.9405
  386SOL     OW 1541   1.285   0.438   0.938  0.6554  0.1391 -0.2815
  386SOL    HW1 1542   1.209   0.405   0.899  2.4447  2.6755 -0.2102
  386SOL    HW2 1543   1.271   0.421   1.031 -0.2898 -0.9873 -0.6416
  386SOL     MW 1544   1.274   0.432   0.945  0.7668  0.3251 -0.3196
  387SOL     OW 1545   0.858   2.209   1.438  0.2122 -0.3044 -0.5131
  387SOL    HW1 1546   0.945   2.249   1.407  0.0378 -1.2125 -0.5791
  387SOL    HW2 1547   0.867   2.115   1.432  0.4019 -1.8656 -2.1333
  387SOL     MW 1548   0.870   2.202   1.433  0.2142 -0.6302 -0.7356
  388SOL     OW 1549   1.582   2.861   1.228  0.2768  0.1959 -0.0664
  388SOL    HW1 1550   1.501   2.841   1.173 -0.6430 -2.1789  0.1219
  388SOL    HW2 1551   1.645   2.787   1.200  2.6703  0.4678 -0.8591
  388SOL     MW 1552   1.579   2.848   1.217  0.4712 -0.0815 -0.1462
  389SOL     OW 1553   0.447   0.079   3.076 -0.2284  0.6823  0.0860
  389SOL    HW1 1554   0.539   0.050   3.052 -0.2264 -0.5277  0.8900
  389SOL    HW2 1555   0.395  -0.002   3.075 -2.9338 -1.1148 -1.1598
  389SOL     MW 1556   0.453   0.065   3.073 -0.5851  0.2855  0.0277
  390SOL     OW 1557   1.366   0.092   0.652  0.3528 -0.8413 -0.1677
  390SOL    HW1 1558   1.456   0.103   0.618  1.2796 -1.4871 -1.2172
  390SOL    HW2 1559   1.366   0.100   0.748  1.2615  1.5341  0.1424
  390SOL     MW 1560   1.378   0.095   0.660  0.5950 -0.6131 -0.2653
  391SOL     OW 1561   0.283   2.290   1.435 -0.8262  0.5037 -0.1915
  391SOL    HW1 1562   0.258   2.215   1.492  1.7890 -1.6276 -3.3361
  391SOL    HW2 1563   0.206   2.352   1.438  2.3417 -1.7803 -1.8901
  391SOL     MW 1564   0.269   2.288   1.443 -0.0631 -0.0788 -0.8305
  392SOL     OW 1565   2.013   2.170   0.275 -0.7923 -0.0330  0.0386
  392SOL    HW1 1566   1.949   2.220   0.322  2.7500 -0.0824  1.4510
  392SOL    HW2 1567   2.067   2.140   0.348 -0.5736 -0.0905  3.4903
  392SOL     MW 1568   2.011   2.173   0.291 -0.2961 -0.0471  0.6803
  393SOL     OW 1569   0.214   2.998   2.943  0.2180 -0.0097  0.2107
  393SOL    HW1 1570   0.275   3.030   2.879 -0.8516 -2.5674  2.0419
  393SOL    HW2 1571   0.142   3.056   2.929  1.7724 -2.7142  0.2066
  393SOL     MW 1572   0.213   3.010   2.932  0.2820 -0.7040  0.4517
  394SOL     OW 1573   0.813   1.673   1.469 -0.2637  0.0009 -0.6424
  394SOL    HW1 1574   0.768   1.665   1.561 -0.4390 -1.7935  1.6792
  394SOL    HW2 1575   0.831   1.760   1.463 -0.8100 -2.5864 -2.4665
  394SOL     MW 1576   0.809   1.684   1.480 -0.3589 -0.5772 -0.5767
  395SOL     OW 1577   0.916   2.842   2.611 -0.0531  0.0218 -0.1585
  395SOL    HW1 1578   0.926   2.907   2.687  0.6677  2.0746  0.4989
  395SOL    HW2 1579   1.016   2.823   2.599  0.4657 -0.5630 -2.6119
  395SOL     MW 1580   0.931   2.848   2.620  0.1104  0.2155 -0.3954
  396SOL     OW 1581   0.743   1.835   2.370 -0.1669  0.4863 -0.5140
  396SOL    HW1 1582   0.783   1.833   2.457  2.2737 -2.2939  0.6723
  396SOL    HW2 1583   0.713   1.742   2.367  0.0440  1.9011 -0.9131
  396SOL     MW 1584   0.744   1.823   2.381  0.1829  0.3062 -0.4101
  397SOL     OW 1585   1.045   2.343   1.283 -0.0739 -0.1549  0.6159
  397SOL    HW1 1586   1.052   2.402   1.210  1.1975 -0.1362 -2.0136
  397SOL    HW2 1587   1.115   2.362   1.350 -0.2791  2.6623 -0.9448
  397SOL     MW 1588   1.055   2.353   1.283  0.0667  0.2193  0.0631
  398SOL     OW 1589   0.575   2.606   0.683 -0.0634  0.0609 -0.1697
  398SOL    HW1 1590   0.513   2.593   0.617  0.8006 -0.2039  0.2532
  398SOL    HW2 1591   0.654   2.551   0.653 -0.2497 -2.0123 -2.1576
  398SOL     MW 1592   0.577   2.597   0.670  0.0260 -0.2475 -0.3762
  399SOL     OW 1593   0.254   2.037   0.352  0.2168  0.1415 -0.0812
  399SOL    HW1 1594   0.203   2.113   0.353  0.5374  1.1673  2.6307
  399SOL    HW2 1595   0.326   2.059   0.294  3.8113  0.7658 -0.9051
  399SOL     MW 1596   0.257   2.050   0.344  0.7334  0.3592  0.1679
  400SOL     OW 1597   0.587   1.830   0.204  0.4398  0.3631  0.1442
  400SOL    HW1 1598   0.531   1.912   0.201  0.9758  0.0093 -1.0946
  400SOL    HW2 1599   0.537   1.762   0.249  2.0298 -0.7675  0.7510
  400SOL     MW 1600   0.573   1.832   0.210  0.7203  0.1673  0.0608
  401SOL     OW 1601   1.010   2.105   0.081 -0.1206 -0.4013 -0.5664
  401SOL    HW1 1602   1.004   2.015   0.104  2.1620  1.7986  1.5845
  401SOL    HW2 1603   1.064   2.138   0.148  0.5933  2.1720 -1.6969
  401SOL     MW 1604   1.017   2.098   0.093  0.2748  0.2285 -0.4318
  402SOL     OW 1605   0.677   2.705   1.730  0.0184  0.6350  0.1532
  402SOL    HW1 1606   0.604   2.757   1.754  2.3609  0.8302  0.0198
  402SOL    HW2 1607   0.732   2.711   1.805  0.2331  1.3109 -3.0733
  402SOL     MW 1608   0.674   2.712   1.743  0.3558  0.7500 -0.2901
  403SOL     OW 1609   0.078   0.576   0.353 -0.0794 -0.0992  0.0534
  403SOL    HW1 1610   0.162   0.606   0.387 -0.2827 -1.6805  1.6666
  403SOL    HW2 1611   0.098   0.494   0.316  0.4904  4.0175 -0.1730
  403SOL     MW 1612   0.091   0.569   0.353 -0.0311  0.2354  0.2363
  404SOL     OW 1613   0.977   2.909   0.880 -0.0613 -0.0976 -0.0454
  404SOL    HW1 1614   1.030   2.847   0.838  2.1782  1.8188 -0.0301
  404SOL    HW2 1615   0.963   2.979   0.816  0.5871 -0.9562  0.3048
  404SOL     MW 1616   0.982   2.910   0.866  0.3197  0.0419  0.0028
  405SOL     OW 1617   0.449   2.456   1.584  0.3487  0.2891  0.0381
  405SOL    HW1 1618   0.463   2.540   1.547 -1.3023 -4.6939 -0.0360
  405SOL    HW2 1619   0.391   2.418   1.520 -0.2632 -0.5135 -0.9693
  405SOL     MW 1620   0.443   2.462   1.571  0.0501 -0.4743 -0.1046
  406SOL     OW 1621   0.405   2.406   1.161 -0.4083 -0.1379  0.2778
  406SOL    HW1 1622   0.309   2.405   1.168  0.8579 -0.7571 -0.4717
  406SOL    HW2 1623   0.439   2.343   1.222  0.6768  1.2648 -2.7081
  406SOL     MW 1624   0.396   2.397   1.170 -0.0981 -0.0345 -0.2151
  407SOL     OW 1625   3.080   2.716   1.172  0.7184 -0.5809  0.2588
  407SOL    HW1 1626   3.134   2.722   1.253 -0.8953 -1.0596  0.0370
  407SOL    HW2 1627   3.149   2.711   1.110 -0.7750 -1.5266  0.5634
  407SOL     MW 1628   3.096   2.716   1.175  0.3084 -0.7688  0.2697
  408SOL     OW 1629   2.076   2.065   0.546 -0.4785  0.4019 -0.1231
  408SOL    HW1 1630   2.041   2.114   0.625  2.5563  0.9096  3.4719
  408SOL    HW2 1631   2.005   1.994   0.528 -0.5477 -2.6049  0.4414
  408SOL     MW 1632   2.062   2.062   0.554 -0.0872  0.0721  0.4257
  409SOL     OW 1633   1.424   0.161   0.905 -0.2942 -0.1742 -0.1810
  409SOL    HW1 1634   1.411   0.257   0.925 -0.5983  0.8072 -1.3091
  409SOL    HW2 1635   1.512   0.129   0.929  0.2585  2.1562 -2.7566
  409SOL     MW 1636   1.434   0.170   0.911 -0.2614  0.2627 -0.6697
  410SOL     OW 1637   1.073   2.507   1.045 -0.0982  0.0717  0.1376
  410SOL    HW1 1638   1.001   2.532   0.987  2.2947  0.2904  1.6682
  410SOL    HW2 1639   1.146   2.454   1.005  0.5831 -3.2839  1.0333
  410SOL     MW 1640   1.073   2.503   1.032  0.3074 -0.3422  0.4577
  411SOL     OW 1641   1.949   0.093   2.872  0.4542  0.4391  0.1978
  411SOL    HW1 1642   1.892   0.070   2.796  0.3705  2.4155  0.7721
  411SOL    HW2 1643   1.886   0.137   2.927 -1.8039 -2.9298 -1.7302
  411SOL     MW 1644   1.933   0.096   2.869  0.1452  0.2553  0.0192
  412SOL     OW 1645   1.029   2.222   0.568  0.2920 -0.4375 -0.3841
  412SOL    HW1 1646   1.074   2.304   0.606  2.0145 -2.5105 -0.1402
  412SOL    HW2 1647   0.936   2.254   0.546  0.9701  1.4989 -0.5635
  412SOL     MW 1648   1.022   2.237   0.570  0.6088 -0.4556 -0.3756
  413SOL     OW 1649   0.545   2.776   0.106 -0.3904 -0.1017  0.7321
  413SOL    HW1 1650   0.602   2.698   0.119 -0.4654 -3.1562 -2.9590
  413SOL    HW2 1651   0.577   2.804   0.019 -2.2690 -0.5292  1.2955
  413SOL     MW 1652   0.557   2.770   0.096 -0.6482 -0.5611  0.3194
  414SOL     OW 1653   2.002   3.020   1.009 -0.2910 -0.0500  0.1844
  414SOL    HW1 1654   1.921   2.990   0.975  1.5900  0.2713  2.0389
  414SOL    HW2 1655   2.058   2.946   0.986 -1.2436  2.8348 -3.6409
  414SOL     MW 1656   1.998   3.006   1.001 -0.1685  0.3730 -0.0756
  415SOL     OW 1657   1.736   2.679   1.106  0.5651  0.6984 -0.4335
  415SOL    HW1 1658   1.687   2.613   1.159 -1.3162 -0.5105  1.2670
  415SOL    HW2 1659   1.826   2.690   1.152  0.8839  0.2797  0.7548
  415SOL     MW 1660   1.742   2.672   1.119  0.3590  0.4836 -0.0524
  416SOL     OW 1661   0.567   1.944   1.381 -0.0541  0.5850 -0.3461
  416SOL    HW1 1662   0.543   2.035   1.356  1.4457 -0.4356  0.0315
  416SOL    HW2 1663   0.579   1.885   1.301 -3.2747 -2.9968  1.4283
  416SOL     MW 1664   0.565   1.948   1.367 -0.2811 -0.0222 -0.0621
  417SOL     OW 1665   1.075   2.994   2.000  0.5465 -0.0022 -0.6369
  417SOL    HW1 1666   1.023   2.980   2.081  0.9574  0.9804 -1.3221
  417SOL    HW2 1667   1.047   2.917   1.948 -0.4038  0.5668 -1.3262
  417SOL     MW 1668   1.064   2.982   2.004  0.4754  0.2025 -0.8182
  418SOL     OW 1669   0.717   2.962   0.172  0.4325  0.3155  0.3431
  418SOL    HW1 1670   0.783   2.912   0.111 -1.1354  0.6377 -3.3714
  418SOL    HW2 1671   0.632   2.917   0.169 -1.4780  3.7120 -1.4556
  418SOL     MW 1672   0.715   2.949   0.163 -0.0264  0.8062 -0.3843
  419SOL     OW 1673   0.462   2.676   1.403  0.1270 -0.3538  0.0845
  419SOL    HW1 1674   0.503   2.742   1.458 -0.0921  3.0079  0.3290
  419SOL    HW2 1675   0.526   2.661   1.334 -2.0990  0.9212 -1.2511
  419SOL     MW 1676   0.476   2.683   1.401 -0.1956  0.2580 -0.0595
  420SOL     OW 1677   0.910   2.221   0.991 -0.0438 -0.1552  0.4829
  420SOL    HW1 1678   0.852   2.211   1.071 -4.2068  1.7000  0.0726
  420SOL    HW2 1679   0.881   2.308   0.958 -1.0252  2.0475  3.8882
  420SOL     MW 1680   0.899   2.231   0.997 -0.7225  0.3802  0.8780
  421SOL     OW 1681   2.941   0.097   0.075  0.4233 -0.0004 -0.5313
  421SOL    HW1 1682   2.917   0.076  -0.013 -1.7053 -0.7682 -2.5032
  421SOL    HW2 1683   2.943   0.017   0.124 -2.1017  1.6286 -3.0343
  421SOL     MW 1684   2.938   0.083   0.070 -0.1907  0.1132 -1.1217
  422SOL     OW 1685   0.843   2.502   0.890  0.4447 -0.3749 -0.5623
  422SOL    HW1 1686   0.769   2.553   0.921 -0.0956 -0.0112  0.2242
  422SOL    HW2 1687   0.827   2.489   0.788  0.5748  1.4525 -0.8371
  422SOL     MW 1688   0.831   2.507   0.881  0.3906 -0.0858 -0.4948
  423SOL     OW 1689   1.618   0.093   0.530 -0.1667  0.2868 -0.0662
  423SOL    HW1 1690   1.644   0.044   0.451 -0.6552 -1.0223 -0.4266
  423SOL    HW2 1691   1.612   0.183   0.503  0.8391 -1.1297 -0.2468
  423SOL     MW 1692   1.620   0.099   0.516 -0.0985 -0.0728 -0.1376
  424SOL     OW 1693   0.747   2.181   1.198  0.1908  0.1678  0.8357
  424SOL    HW1 1694   0.652   2.186   1.221  2.7627  1.3982 -0.5693
  424SOL    HW2 1695   0.791   2.190   1.283 -0.0456 -1.8750 -1.9669
  424SOL     MW 1696   0.741   2.183   1.212  0.4989  0.0606  0.2805
  425SOL     OW 1697   1.746   2.792   2.068  0.2423 -0.3220  0.2885
  425SOL    HW1 1698   1.746   2.806   1.972  0.0589  2.1600  0.6750
  425SOL    HW2 1699   1.740   2.694   2.078 -1.4496 -0.4629 -1.7130
  425SOL     MW 1700   1.745   2.781   2.056 -0.0051 -0.0131  0.0754
  426SOL     OW 1701   0.771   1.630   1.916  0.0639 -0.8146 -0.2446
  426SOL    HW1 1702   0.733   1.641   1.825  2.9006 -0.0741  0.1503
  426SOL    HW2 1703   0.752   1.715   1.962  1.3413 -0.4783  1.7310
  426SOL     MW 1704   0.764   1.642   1.910  0.6067 -0.6725  0.0682
  427SOL     OW 1705   0.404   1.539   1.853  0.5757 -0.6066 -0.4253
  427SOL    HW1 1706   0.451   1.465   1.833 -0.7411 -1.3436  0.8409
  427SOL    HW2 1707   0.317   1.505   1.873 -0.9586  0.3014 -2.5651
  427SOL     MW 1708   0.399   1.525   1.853  0.1995 -0.5840 -0.5406
  428SOL     OW 1709   0.596   2.609   1.166 -0.2687  0.6844 -0.5281
  428SOL    HW1 1710   0.671   2.558   1.205  0.5218 -0.0086 -0.9938
  428SOL    HW2 1711   0.523   2.540   1.165  0.2663  1.3444  1.4500
  428SOL     MW 1712   0.596   2.593   1.171 -0.0938  0.6801 -0.3286
  429SOL     OW 1713   1.365   2.776   1.042 -0.3822 -0.9609 -0.1740
  429SOL    HW1 1714   1.279   2.778   1.096 -2.1265 -2.0642 -1.4502
  429SOL    HW2 1715   1.367   2.848   0.979 -2.0041  0.1050 -1.6801
  429SOL     MW 1716   1.354   2.786   1.041 -0.8263 -0.9659 -0.5411
  430SOL     OW 1717   1.138   2.723   0.687  0.5272  0.2692 -0.1256
  430SOL    HW1 1718   1.159   2.630   0.702 -2.1013 -1.9666 -0.3462
  430SOL    HW2 1719   1.081   2.719   0.612 -2.4134  1.1648 -0.3117
  430SOL     MW 1720   1.133   2.710   0.679 -0.2076  0.0924 -0.1792
  431SOL     OW 1721   0.397   2.014   1.135 -0.0533 -0.8787  0.2485
  431SOL    HW1 1722   0.444   1.930   1.123 -0.3969  2.0947 -0.0315
  431SOL    HW2 1723   0.358   2.045   1.056  0.9536  1.4688  3.8020
  431SOL     MW 1724   0.398   2.007   1.123  0.0342 -0.1767  0.6804
  432SOL     OW 1725   0.099   0.036   1.156  0.0162  0.1498 -0.6217
  432SOL    HW1 1726   0.112   0.071   1.250 -0.4125  1.4177  3.3283
  432SOL    HW2 1727   0.035  -0.039   1.160 -0.2726  0.0518 -0.6930
  432SOL     MW 1728   0.092   0.030   1.169 -0.0785  0.3042 -0.1100
  433SOL     OW 1729   0.669   2.887   1.450 -0.0761 -0.3544 -0.0799
  433SOL    HW1 1730   0.714   2.905   1.538 -0.6556 -1.4008  2.1616
  433SOL    HW2 1731   0.732   2.894   1.377 -1.8913 -0.7563 -0.5004
  433SOL     MW 1732   0.683   2.891   1.452 -0.3920 -0.5455  0.1604
  434SOL     OW 1733   1.611   2.851   1.518 -0.5080 -0.2039 -0.3923
  434SOL    HW1 1734   1.536   2.909   1.522 -0.2019  0.3880 -0.0203
  434SOL    HW2 1735   1.596   2.825   1.429  2.0269  0.4964  1.3744
  434SOL     MW 1736   1.599   2.855   1.507 -0.1332 -0.0334 -0.1101
  435SOL     OW 1737   2.843   1.800   0.253  0.3059 -0.0622 -0.6189
  435SOL    HW1 1738   2.899   1.864   0.205 -0.5121  1.8091 -1.0858
  435SOL    HW2 1739   2.813   1.748   0.182 -1.1792  0.5744  1.1526
  435SOL     MW 1740   2.846   1.802   0.237  0.0021  0.2687 -0.4468
  436SOL     OW 1741   1.480   2.803   0.319  0.3563  0.1316  0.0320
  436SOL    HW1 1742   1.537   2.792   0.401  0.0166 -0.7688 -1.1153
  436SOL    HW2 1743   1.418   2.874   0.349  0.2393  0.1537  0.7404
  436SOL     MW 1744   1.479   2.811   0.334  0.2960  0.0157 -0.0259
  437SOL     OW 1745   0.836   2.934   1.239 -0.3202  0.2779  0.1179
  437SOL    HW1 1746   0.871   3.021   1.238 -0.1703 -0.0827  1.7279
  437SOL    HW2 1747   0.792   2.939   1.151 -3.3247 -0.2498 -1.5984
  437SOL     MW 1748   0.835   2.946   1.227 -0.6968  0.1607  0.1039
  438SOL     OW 1749   0.807   2.511   2.072 -0.1792  0.2438  0.0191
  438SOL    HW1 1750   0.795   2.448   2.143  1.2374  1.6600 -2.3842
  438SOL    HW2 1751   0.748   2.471   2.007  1.6748 -0.0065  0.3873
  438SOL     MW 1752   0.798   2.497   2.073  0.2523  0.3977 -0.2494
  439SOL     OW 1753   1.137   2.183   0.331  0.0407 -0.3567 -0.0248
  439SOL    HW1 1754   1.083   2.216   0.413 -1.4300 -0.9234 -0.5752
  439SOL    HW2 1755   1.163   2.264   0.283  2.0576  0.9334 -0.2265
  439SOL     MW 1756   1.133   2.198   0.336  0.1127 -0.2613 -0.1240
  440SOL     OW 1757   1.612   3.038   2.994 -0.4508 -0.1511  0.1735
  440SOL    HW1 1758   1.612   3.005   3.082  0.7909  1.4566 -2.0986
  440SOL    HW2 1759   1.667   2.974   2.947  2.3258  2.4230  1.0141
  440SOL     MW 1760   1.619   3.025   2.999  0.0793  0.4006 -0.0154
  441SOL     OW 1761   0.334   2.633   0.531 -0.6566 -0.3413  0.7241
  441SOL    HW1 1762   0.300   2.609   0.445  1.7258  1.6472  1.9165
  441SOL    HW2 1763   0.333   2.731   0.533 -2.7430  1.3588 -0.9515
  441SOL     MW 1764   0.329   2.643   0.520 -0.6176  0.1453  0.6603
  442SOL     OW 1765   3.103   2.364   0.628 -0.1646 -0.4190  1.0439
  442SOL    HW1 1766   3.111   2.462   0.616 -0.4836  2.1100 -2.0468
  442SOL    HW2 1767   3.010   2.337   0.631 -0.0101 -0.6604  0.6083
  442SOL     MW 1768   3.092   2.373   0.627 -0.1863 -0.1172  0.5786
  443SOL     OW 1769   1.415   1.719   1.917 -0.5188  0.6007 -0.6074
  443SOL    HW1 1770   1.358   1.753   1.854  2.7271  2.3198  2.1613
  443SOL    HW2 1771   1.383   1.624   1.931  0.4245  0.0069  1.3827
  443SOL     MW 1772   1.404   1.711   1.911  0.0339  0.7492  0.0205
  444SOL     OW 1773   0.869   2.602   1.568 -0.6943 -0.0635  0.0980
  444SOL    HW1 1774   0.935   2.593   1.639  1.1178  1.0783  2.6421
  444SOL    HW2 1775   0.788   2.629   1.615  3.4771  1.3936 -2.4020
  444SOL     MW 1776   0.867   2.604   1.583  0.0952  0.2794  0.1038
  445SOL     OW 1777   0.969   0.076   1.261  0.1944  0.6538  0.5695
  445SOL    HW1 1778   0.926   0.162   1.237  1.7119  3.7621  1.7866
  445SOL    HW2 1779   1.044   0.082   1.201  1.9625  1.0348 -1.4688
  445SOL     MW 1780   0.973   0.088   1.250  0.6279  1.1142  0.4612
  446SOL     OW 1781   2.718   2.862   1.041 -0.0297  0.3739 -0.4252
  446SOL    HW1 1782   2.666   2.889   0.965  1.3904  0.2510  0.8804
  446SOL    HW2 1783   2.763   2.776   1.020 -2.0471  0.9090 -0.1368
  446SOL     MW 1784   2.717   2.855   1.028 -0.1085  0.4283 -0.2149
  447SOL     OW 1785   3.023   2.042   1.686  0.2383 -0.0396  0.3242
  447SOL    HW1 1786   3.077   1.972   1.734 -1.4947 -0.5523  1.7181
  447SOL    HW2 1787   2.979   1.988   1.618 -2.3862 -1.5028 -0.0433
  447SOL     MW 1788   3.024   2.025   1.683 -0.3366 -0.3003  0.4596
  448SOL     OW 1789   1.683   2.397   1.681  0.0139 -0.0927  0.1604
  448SOL    HW1 1790   1.631   2.318   1.692 -2.1455  2.1987  0.1391
  448SOL    HW2 1791   1.619   2.473   1.674  2.3512  0.7748 -1.7482
  448SOL     MW 1792   1.668   2.397   1.681  0.0373  0.3241 -0.0942
  449SOL     OW 1793   0.843   2.889   0.398 -0.1196  0.0583  0.3848
  449SOL    HW1 1794   0.789   2.923   0.321 -0.5497 -3.2818  0.2320
  449SOL    HW2 1795   0.785   2.858   0.465  0.4600  0.7647  0.4321
  449SOL     MW 1796   0.828   2.890   0.396 -0.0999 -0.2892  0.3709
  450SOL     OW 1797   1.192   2.430   0.632  0.2242 -0.0297  0.2697
  450SOL    HW1 1798   1.196   2.421   0.730  0.6448  1.4721  3.0218
  450SOL    HW2 1799   1.280   2.440   0.593 -0.7721 -0.6233 -2.5740
  450SOL     MW 1800   1.204   2.430   0.640  0.1482  0.0901  0.2576
  451SOL     OW 1801   0.630   1.953   1.653 -0.1709  0.1355  0.1657
  451SOL    HW1 1802   0.699   2.010   1.682 -1.0090  3.2188 -0.7140
  451SOL    HW2 1803   0.646   1.937   1.557  3.8902  0.4597 -0.5775
  451SOL     MW 1804   0.641   1.958   1.645  0.2543  0.5851 -0.0484
  452SOL     OW 1805   0.311   2.670   0.010 -0.1391  0.7706  0.2814
  452SOL    HW1 1806   0.397   2.704   0.037  1.8142 -0.4846 -0.5995
  452SOL    HW2 1807   0.309   2.690  -0.082  1.3555 -1.4789 -0.2779
  452SOL     MW 1808   0.322   2.677   0.002  0.3158  0.3082  0.0914
  453SOL     OW 1809   0.420   3.003   1.636  0.2009  0.2630 -0.7880
  453SOL    HW1 1810   0.485   3.065   1.601 -0.5879 -2.2654  2.0586
  453SOL    HW2 1811   0.351   2.991   1.569 -0.8281  0.6470 -0.2752
  453SOL     MW 1812   0.419   3.010   1.623 -0.0389 -0.0199 -0.3448
  454SOL     OW 1813   1.125   2.749   1.175 -0.6505 -0.2920  0.5052
  454SOL    HW1 1814   1.124   2.659   1.137 -0.4096 -1.0555  0.3761
  454SOL    HW2 1815   1.038   2.786   1.154 -2.4427  1.4113  1.4708
  454SOL     MW 1816   1.113   2.742   1.167 -0.8552 -0.1680  0.6156
  455SOL     OW 1817   1.640   2.941   0.146  0.2639 -0.2452  0.4366
  455SOL    HW1 1818   1.695   2.953   0.225 -0.1804  1.4961 -0.7921
  455SOL    HW2 1819   1.577   2.883   0.187  1.2188 -1.4559  1.5146
  455SOL     MW 1820   1.639   2.935   0.162  0.3313 -0.1752  0.4167
  456SOL     OW 1821   2.871   0.305   1.388  0.3668  0.1068 -0.0667
  456SOL    HW1 1822   2.802   0.250   1.348 -0.5294 -3.5673  0.5370
  456SOL    HW2 1823   2.890   0.381   1.331  1.8686 -1.1872 -0.2803
  456SOL     MW 1824   2.865   0.307   1.375  0.4467 -0.5487 -0.0152
  457SOL     OW 1825   0.941   1.534   2.974  0.1141  0.2756  0.2060
  457SOL    HW1 1826   0.865   1.511   3.033  0.3974 -1.7294  1.6335
  457SOL    HW2 1827   1.009   1.479   3.009 -2.4343  0.7203 -0.6554
  457SOL     MW 1828   0.940   1.523   2.986 -0.1847  0.0698  0.2807
  458SOL     OW 1829   1.450   1.364   0.631  0.3127  0.8844 -0.4641
  458SOL    HW1 1830   1.375   1.400   0.679  2.0980 -2.2328 -1.6284
  458SOL    HW2 1831   1.413   1.295   0.572 -0.2998 -0.3213  3.0556
  458SOL     MW 1832   1.435   1.360   0.630  0.4674  0.3140 -0.1534
  459SOL     OW 1833   1.614   0.106   0.215 -0.3524  0.1510  0.2857
  459SOL    HW1 1834   1.636   0.026   0.171 -0.8793  0.9057  3.7152
  459SOL    HW2 1835   1.540   0.153   0.172  0.6136 -0.7832 -1.0514
  459SOL     MW 1836   1.607   0.101   0.204 -0.2945  0.1273  0.5618
  460SOL     OW 1837   1.729   2.162   0.609 -0.7215 -0.7089 -0.0139
  460SOL    HW1 1838   1.642   2.162   0.653  0.9794  2.2834 -2.6917
  460SOL    HW2 1839   1.753   2.073   0.566 -0.4180  2.7008 -3.6238
  460SOL     MW 1840   1.721   2.150   0.609 -0.4571  0.1358 -0.8435
  461SOL     OW 1841   0.368   2.318   0.656 -0.0072 -0.3662  0.1382
  461SOL    HW1 1842   0.286   2.361   0.618  0.4794  1.2182 -1.7060
  461SOL    HW2 1843   0.408   2.380   0.719  1.2837  2.2138 -1.4367
  461SOL     MW 1844   0.363   2.332   0.659  0.2273  0.1832 -0.3129
  462SOL     OW 1845   0.401   0.257   1.358 -0.2724  0.5668 -0.2944
  462SOL    HW1 1846   0.440   0.175   1.324  0.3018  1.8177  0.9976
  462SOL    HW2 1847   0.478   0.325   1.336  1.0204  0.2133 -0.5259
  462SOL     MW 1848   0.417   0.255   1.350 -0.0260  0.6852 -0.1545
  463SOL     OW 1849   0.937   3.090   0.677 -0.7243  0.3965  0.0782
  463SOL    HW1 1850   0.987   3.084   0.594 -0.8653 -0.8035  1.5491
  463SOL    HW2 1851   0.854   3.126   0.651  1.2072 -0.3693  1.3313
  463SOL     MW 1852   0.932   3.094   0.663 -0.4881  0.1371  0.4376
  464SOL     OW 1853   0.864   2.987   2.188 -0.2393  0.2150 -0.7513
  464SOL    HW1 1854   0.836   2.899   2.201 -1.0833 -1.1979  1.7672
  464SOL    HW2 1855   0.895   3.009   2.274 -0.2022 -1.3469 -1.1829
  464SOL     MW 1856   0.864   2.978   2.201 -0.3457 -0.1775 -0.4759
  465SOL     OW 1857   0.696   0.274   0.485 -0.1992 -0.2306  0.1664
  465SOL    HW1 1858   0.664   0.213   0.555  1.4351 -1.5692 -1.4607
  465SOL    HW2 1859   0.706   0.225   0.401  0.1643  1.9904 -0.7278
  465SOL     MW 1860   0.693   0.259   0.483  0.0644 -0.1142 -0.1663
  466SOL     OW 1861   1.105   1.997   0.724  0.1670 -0.2496 -0.5844
  466SOL    HW1 1862   1.095   1.913   0.676 -0.4052  2.0014 -0.4713
  466SOL    HW2 1863   1.073   2.060   0.658 -1.4075 -1.5347 -0.2974
  466SOL     MW 1864   1.099   1.994   0.709 -0.1162 -0.1222 -0.5316
  467SOL     OW 1865   1.260   2.368   0.921  0.2005  0.6711  0.3756
  467SOL    HW1 1866   1.335   2.366   0.980  0.5684 -4.7216 -1.0156
  467SOL    HW2 1867   1.264   2.275   0.888  2.3310 -2.1101 -2.6385
  467SOL     MW 1868   1.270   2.356   0.924  0.5302 -0.4073 -0.2056
  468SOL     OW 1869   0.324   2.623   1.998 -0.2701  0.1228 -0.0738
  468SOL    HW1 1870   0.340   2.538   1.960  1.8279  1.5543 -1.1835
  468SOL    HW2 1871   0.368   2.688   1.937  0.2376 -1.2750 -2.7802
  468SOL     MW 1872   0.332   2.621   1.985  0.0737  0.1272 -0.5773
  469SOL     OW 1873   0.423   2.074   1.766 -0.4975  0.2799  0.2600
  469SOL    HW1 1874   0.360   2.041   1.699  2.5814 -2.6897 -1.8503
  469SOL    HW2 1875   0.503   2.027   1.728  1.0826  0.2642  1.7739
  469SOL     MW 1876   0.425   2.063   1.752  0.1172 -0.1139  0.1813
  470SOL     OW 1877   3.078   2.609   0.200 -0.4062 -0.5637 -0.6058
  470SOL    HW1 1878   3.033   2.539   0.247  0.2753 -0.5650  1.5015
  470SOL    HW2 1879   3.069   2.582   0.110  0.1465 -2.9336 -0.8170
  470SOL     MW 1880   3.071   2.596   0.195 -0.2434 -0.8765 -0.3557
  471SOL     OW 1881   1.235   2.738   1.431  0.3278 -0.0242 -0.3486
  471SOL    HW1 1882   1.160   2.765   1.481 -0.8001 -1.8617 -1.2934
  471SOL    HW2 1883   1.200   2.750   1.346  0.7091 -0.1896 -1.8188
  471SOL     MW 1884   1.221   2.743   1.426  0.2293 -0.2885 -0.6672
  472SOL     OW 1885   2.953   2.102   0.401  0.0326 -0.0499 -0.4392
  472SOL    HW1 1886   2.955   2.060   0.319 -0.8688  0.9477  3.7744
  472SOL    HW2 1887   2.948   2.038   0.474  1.3740  0.2312 -0.2914
  472SOL     MW 1888   2.952   2.088   0.400  0.0906  0.1188  0.1362
  473SOL     OW 1889   0.798   2.523   1.323  0.2307  0.0082  0.5641
  473SOL    HW1 1890   0.854   2.444   1.315 -1.7020 -0.7183  0.8301
  473SOL    HW2 1891   0.803   2.547   1.418 -1.2871 -0.2189  1.9578
  473SOL     MW 1892   0.806   2.515   1.335 -0.2246 -0.1176  0.7831
  474SOL     OW 1893   0.826   2.129   1.723 -0.4019  0.4026  0.0253
  474SOL    HW1 1894   0.912   2.117   1.763  3.4314 -0.2773  1.3205
  474SOL    HW2 1895   0.825   2.211   1.680 -2.8283 -0.7404  0.0881
  474SOL     MW 1896   0.837   2.138   1.723 -0.2162  0.1621  0.2045
  475SOL     OW 1897   1.677   3.096   1.375 -0.0949 -0.2386  1.0397
  475SOL    HW1 1898   1.604   3.091   1.309  1.6509 -0.6304 -0.5469
  475SOL    HW2 1899   1.673   3.019   1.434 -0.1805 -0.0889  1.6230
  475SOL     MW 1900   1.666   3.085   1.374  0.1241 -0.2706  0.9073
  476SOL     OW 1901   1.463   2.612   0.809  0.1871  0.0163 -0.2695
  476SOL    HW1 1902   1.430   2.603   0.902  1.0467 -0.2089 -1.6233
  476SOL    HW2 1903   1.488   2.706   0.790 -2.4381  0.9875  0.0891
  476SOL     MW 1904   1.462   2.623   0.819 -0.0459  0.1147 -0.4008
  477SOL     OW 1905   0.821   2.511   0.612 -0.1197  0.0056  0.6297
  477SOL    HW1 1906   0.896   2.545   0.567  2.8395  0.4322 -0.6417
  477SOL    HW2 1907   0.805   2.428   0.557  2.3733  0.8925 -3.0538
  477SOL     MW 1908   0.829   2.505   0.599  0.5997  0.1789 -0.0241
  478SOL     OW 1909   0.177   2.654   0.999  0.4791 -0.6620  0.3345
  478SOL    HW1 1910   0.196   2.743   0.976  0.1573 -0.5498 -0.5563
  478SOL    HW2 1911   0.237   2.605   0.946 -0.0824  0.2051 -0.3860
  478SOL     MW 1912   0.188   2.659   0.989  0.3625 -0.5328  0.1219
  479SOL     OW 1913   1.446   1.920   1.319 -0.6197 -0.3843  0.4125
  479SOL    HW1 1914   1.404   1.964   1.395 -0.8064 -0.6672 -1.0908
  479SOL    HW2 1915   1.514   1.862   1.358 -0.8373  1.4770 -0.8761
  479SOL     MW 1916   1.449   1.918   1.334 -0.6730 -0.1761  0.0441
  480SOL     OW 1917   1.833   2.421   1.350  0.4288 -0.7364  0.2675
  480SOL    HW1 1918   1.842   2.366   1.429 -2.8133  2.6327  0.2036
  480SOL    HW2 1919   1.860   2.370   1.275  1.0218  0.9047 -0.3455
  480SOL     MW 1920   1.838   2.407   1.350  0.0793 -0.0754  0.1782
  481SOL     OW 1921   1.154   0.152   1.084  0.0072 -0.0202  0.0331
  481SOL    HW1 1922   1.226   0.176   1.023  1.0645  0.9774  0.1364
  481SOL    HW2 1923   1.125   0.237   1.123 -0.5075  0.2966 -2.6738
  481SOL     MW 1924   1.160   0.167   1.081  0.0788  0.1533 -0.3104
  482SOL     OW 1925   1.068   3.048   0.428 -0.2597  0.1510 -0.1610
  482SOL    HW1 1926   0.988   2.995   0.416  0.7932 -1.9127  1.0157
  482SOL    HW2 1927   1.047   3.142   0.416  0.4442 -0.8762 -1.9128
  482SOL     MW 1928   1.055   3.053   0.425 -0.0279 -0.2568 -0.2369
  483SOL     OW 1929   0.374   2.912   0.495 -0.3447 -0.2648 -0.0825
  483SOL    HW1 1930   0.317   2.921   0.411 -0.9506 -0.9302  3.1105
  483SOL    HW2 1931   0.338   2.978   0.556 -1.1722  0.3361 -2.0800
  483SOL     MW 1932   0.362   2.921   0.492 -0.5339 -0.2733  0.0752
  484SOL     OW 1933   1.677   1.841   1.450  0.0310  0.2644  0.0726
  484SOL    HW1 1934   1.734   1.918   1.426 -1.5826  2.6179 -0.6587
  484SOL    HW2 1935   1.685   1.824   1.541  0.2505  0.1959 -1.1124
  484SOL     MW 1936   1.686   1.849   1.459 -0.1529  0.5659 -0.1803
  485SOL     OW 1937   0.468   2.302   0.314  0.8753 -0.4313 -0.1702
  485SOL    HW1 1938   0.467   2.292   0.408  2.0671  2.2850  0.6682
  485SOL    HW2 1939   0.426   2.379   0.285  1.3596  0.2742  1.2118
  485SOL     MW 1940   0.462   2.311   0.323  1.0964  0.0202  0.1227
  486SOL     OW 1941   0.104   2.501   1.481 -0.2425  0.3248  0.2490
  486SOL    HW1 1942   0.122   2.593   1.464  3.0484 -0.4205 -1.1881
  486SOL    HW2 1943   0.107   2.500   1.580  0.9892  2.1116  3.8148
  486SOL     MW 1944   0.107   2.513   1.492  0.3542  0.4622  0.5299
  487SOL     OW 1945   1.322   1.572   1.120  0.2745  0.5563 -0.0633
  487SOL    HW1 1946   1.288   1.662   1.116  1.8737  2.0477 -2.3581
  487SOL    HW2 1947   1.413   1.578   1.078  1.4584  0.4393  2.2007
  487SOL     MW 1948   1.330   1.584   1.114  0.6417  0.7376 -0.0674
  488SOL     OW 1949   1.422   1.804   0.579 -0.0558  0.6759 -0.1844
  488SOL    HW1 1950   1.391   1.895   0.571  0.9133  0.9712  2.1115
  488SOL    HW2 1951   1.366   1.753   0.520 -0.6703 -1.8901 -1.0696
  488SOL     MW 1952   1.410   1.810   0.571 -0.0090  0.3763  0.0017
  489SOL     OW 1953   0.701   0.676   0.502 -0.1906  0.3682  0.9143
  489SOL    HW1 1954   0.636   0.619   0.456  0.9911 -0.4093 -0.9816
  489SOL    HW2 1955   0.667   0.689   0.589 -0.6538  1.7657 -0.3875
  489SOL     MW 1956   0.688   0.670   0.507 -0.0958  0.4500  0.4924
  490SOL     OW 1957   1.340   2.078   0.485 -0.5862 -0.4949  1.1499
  490SOL    HW1 1958   1.400   2.119   0.422 -0.7017 -1.3558  0.3544
  490SOL    HW2 1959   1.252   2.114   0.462  1.1363 -0.5893 -0.7763
  490SOL     MW 1960   1.336   2.088   0.473 -0.3742 -0.6209  0.7908
  491SOL     OW 1961   1.325   3.003   0.407  0.3579  0.2094  0.1082
  491SOL    HW1 1962   1.342   3.029   0.496 -1.4332 -0.1243  1.0953
  491SOL    HW2 1963   1.229   2.993   0.431 -0.3023  0.0811 -1.2827
  491SOL     MW 1964   1.314   3.005   0.422  0.0345  0.1485  0.0549
  492SOL     OW 1965   1.488   2.139   0.699  0.1524 -0.4494  0.2182
  492SOL    HW1 1966   1.427   2.113   0.630  0.3772  0.6203  1.2262
  492SOL    HW2 1967   1.443   2.139   0.779  3.1022 -1.5547 -2.1216
  492SOL     MW 1968   1.474   2.135   0.701  0.5712 -0.4541  0.0424
  493SOL     OW 1969   0.201   3.052   0.327 -0.0284  0.3220 -0.2200
  493SOL    HW1 1970   0.127   3.049   0.382  1.4943  0.4522  3.2000
  493SOL    HW2 1971   0.187   3.002   0.246 -0.0532 -0.6929 -0.3484
  493SOL     MW 1972   0.190   3.045   0.324  0.1692  0.2053  0.2143
  494SOL     OW 1973   0.381   2.336   1.812  0.3886 -0.1059 -0.1463
  494SOL    HW1 1974   0.391   2.239   1.790  0.8056 -0.7856 -0.8813
  494SOL    HW2 1975   0.422   2.376   1.738 -3.5221 -2.3829 -1.7939
  494SOL     MW 1976   0.387   2.328   1.800 -0.0723 -0.4960 -0.4606
  495SOL     OW 1977   2.792   1.608   2.661 -0.0059 -0.6678  0.0330
  495SOL    HW1 1978   2.793   1.676   2.727  0.9745 -0.4984 -1.0206
  495SOL    HW2 1979   2.753   1.531   2.701 -4.0901  0.5114  0.1686
  495SOL     MW 1980   2.787   1.607   2.675 -0.4154 -0.4898 -0.0881
  496SOL     OW 1981   2.831   2.285   2.729  0.2815 -0.3854 -0.4541
  496SOL    HW1 1982   2.840   2.205   2.778  0.8802  3.9141  1.3531
  496SOL    HW2 1983   2.920   2.318   2.736 -0.6226 -1.7847 -1.9529
  496SOL     MW 1984   2.844   2.279   2.736  0.2412 -0.0027 -0.4134
  497SOL     OW 1985   1.486   2.406   2.560  0.3128  0.1013  0.0196
  497SOL    HW1 1986   1.518   2.339   2.496  0.2579 -0.0805  2.9732
  497SOL    HW2 1987   1.447   2.354   2.633  2.1394 -1.1866  1.8406
  497SOL     MW 1988   1.485   2.390   2.561  0.5465 -0.0926  0.6496
  498SOL     OW 1989   1.464   2.743   2.324 -0.2711 -0.0282  0.5158
  498SOL    HW1 1990   1.492   2.654   2.303 -1.4516 -1.6465  0.3973
  498SOL    HW2 1991   1.541   2.775   2.373  1.7145  1.7391 -2.2672
  498SOL     MW 1992   1.478   2.736   2.328 -0.1649 -0.0086  0.1330
  499SOL     OW 1993   0.978   0.068   0.103  0.3544 -0.2392 -0.1991
  499SOL    HW1 1994   0.894   0.086   0.143  1.3045  0.5736 -2.6430
  499SOL    HW2 1995   0.978  -0.025   0.081 -0.7549  0.9422 -0.0500
  499SOL     MW 1996   0.967   0.058   0.105  0.3334  0.0239 -0.5019
  500SOL     OW 1997   1.034   2.537   2.717  0.0412 -0.1245 -0.2964
  500SOL    HW1 1998   1.101   2.490   2.769 -0.2395  1.9791 -0.2996
  500SOL    HW2 1999   0.968   2.582   2.770 -0.0737 -1.9265 -0.5035
  500SOL     MW 2000   1.034   2.537   2.731 -0.0110 -0.0847 -0.3242
  501SOL     OW 2001   1.817   2.295   2.931  0.4323  0.0161  0.2533
  501SOL    HW1 2002   1.832   2.387   2.945  2.1477 -1.0089  2.1022
  501SOL    HW2 2003   1.899   2.256   2.957 -0.1547  0.0941 -1.5792
  501SOL     MW 2004   1.830   2.302   2.936  0.5812 -0.1089  0.2555
  502SOL     OW 2005   0.316   2.760   2.862  0.0417  0.7106 -0.4378
  502SOL    HW1 2006   0.394   2.797   2.825 -1.4044 -0.7501  0.5068
  502SOL    HW2 2007   0.261   2.835   2.894  0.9828 -0.7177  1.9898
  502SOL     MW 2008   0.319   2.775   2.861 -0.0250  0.3294  0.0071
  503SOL     OW 2009   1.117   2.496   2.073  0.4219  0.3787  0.0817
  503SOL    HW1 2010   1.142   2.577   2.025 -2.3091 -0.5688 -1.0892
  503SOL    HW2 2011   1.021   2.522   2.075 -1.2622  1.1530 -3.2509
  503SOL     MW 2012   1.108   2.510   2.067 -0.1607  0.3558 -0.5125
  504SOL     OW 2013   0.054   2.644   2.208  0.0094  0.1967  0.3697
  504SOL    HW1 2014   0.041   2.598   2.125 -2.1138  1.5321 -0.2418
  504SOL    HW2 2015   0.045   2.579   2.280  0.6121  0.1960 -3.2461
  504SOL     MW 2016   0.051   2.630   2.206 -0.1912  0.3728 -0.1881
  505SOL     OW 2017   1.569   2.818   2.729 -0.0950 -0.2235 -0.4121
  505SOL    HW1 2018   1.609   2.821   2.635  0.0063 -2.7193  0.1922
  505SOL    HW2 2019   1.523   2.904   2.746 -1.3599 -0.4361 -1.4252
  505SOL     MW 2020   1.568   2.830   2.719 -0.2485 -0.5808 -0.4660
  506SOL     OW 2021   1.593   0.136   2.747  0.7409 -0.4145 -0.5352
  506SOL    HW1 2022   1.599   0.090   2.834 -0.0233 -0.5064  2.4308
  506SOL    HW2 2023   1.663   0.102   2.700  0.2076  1.5496  1.6598
  506SOL     MW 2024   1.603   0.126   2.752  0.5697 -0.1675  0.1457
  507SOL     OW 2025   0.822   2.674   2.836  0.4552 -0.2415 -0.2173
  507SOL    HW1 2026   0.831   2.727   2.758  0.9446  0.1090  0.8656
  507SOL    HW2 2027   0.731   2.646   2.845  0.3878  0.4404  0.5396
  507SOL     MW 2028   0.811   2.677   2.827  0.5109 -0.1053  0.0255
  508SOL     OW 2029   1.210   2.143   2.522  0.0966 -0.3609 -0.6866
  508SOL    HW1 2030   1.282   2.196   2.563  1.7462  2.0616  1.4642
  508SOL    HW2 2031   1.155   2.118   2.593  0.1374 -2.8337  0.4272
  508SOL     MW 2032   1.212   2.146   2.537  0.3196 -0.3675 -0.2559
  509SOL     OW 2033   0.582   2.552   2.855  0.5238  0.3123 -0.0284
  509SOL    HW1 2034   0.590   2.490   2.773  1.0523 -0.0229 -2.2152
  509SOL    HW2 2035   0.502   2.597   2.847 -0.3894 -3.8925 -0.2474
  509SOL     MW 2036   0.573   2.550   2.843  0.4730 -0.2867 -0.3458
  510SOL     OW 2037   1.528   2.626   1.639 -0.1187 -0.7346 -0.0186
  510SOL    HW1 2038   1.572   2.702   1.602 -0.2504 -1.8041  0.3548
  510SOL    HW2 2039   1.473   2.653   1.711  0.8397  0.2124  0.0280
  510SOL     MW 2040   1.527   2.640   1.644 -0.0096 -0.7507  0.0368
  511SOL     OW 2041   0.392   2.555   2.511 -1.0725 -0.0420 -0.2458
  511SOL    HW1 2042   0.455   2.492   2.549  0.5038 -2.8135 -0.4134
  511SOL    HW2 2043   0.427   2.562   2.420 -0.4701  0.3329 -1.2618
  511SOL     MW 2044   0.405   2.548   2.504 -0.7851 -0.3582 -0.4020
  512SOL     OW 2045   0.956   1.963   2.822  0.5263 -0.1033  0.2866
  512SOL    HW1 2046   0.865   1.962   2.849 -1.0790 -0.5919  2.7132
  512SOL    HW2 2047   0.992   1.888   2.873  0.0465 -0.5432 -0.1202
  512SOL     MW 2048   0.949   1.953   2.832  0.2512 -0.2258  0.5531
  513SOL     OW 2049   1.507   2.428   2.272 -0.2215  0.5494  0.5306
  513SOL    HW1 2050   1.597   2.440   2.235 -0.5643  1.4991 -1.8375
  513SOL    HW2 2051   1.496   2.336   2.293 -2.5172  0.1688  0.0509
  513SOL     MW 2052   1.517   2.417   2.269 -0.5696  0.6245  0.1549
  514SOL     OW 2053   0.225   2.380   2.692  0.5078 -0.0974  0.2755
  514SOL    HW1 2054   0.269   2.459   2.666 -0.3877 -0.7971 -0.2647
  514SOL    HW2 2055   0.294   2.337   2.744 -1.9935  0.6438  1.0451
  514SOL     MW 2056   0.240   2.385   2.696  0.0596 -0.0919  0.3058
  515SOL     OW 2057   1.072   2.007   1.881  0.2610 -0.0736 -0.3857
  515SOL    HW1 2058   1.097   2.102   1.859 -1.5908 -0.0065  0.6425
  515SOL    HW2 2059   1.122   1.997   1.957 -0.7753  1.2221 -0.0244
  515SOL     MW 2060   1.082   2.018   1.888 -0.1201  0.1062 -0.2024
  516SOL     OW 2061   1.325   2.624   2.896 -0.9459 -0.2186 -0.3070
  516SOL    HW1 2062   1.324   2.646   2.801 -2.2360 -0.4188 -0.2407
  516SOL    HW2 2063   1.260   2.556   2.908  0.4048  3.1868  0.6586
  516SOL     MW 2064   1.317   2.618   2.885 -0.9379  0.2043 -0.1709
  517SOL     OW 2065   0.467   2.270   2.319  0.7097  0.0803 -0.5441
  517SOL    HW1 2066   0.450   2.364   2.318  1.7989 -1.9810 -0.4522
  517SOL    HW2 2067   0.413   2.233   2.244 -0.4559 -1.0261  0.8905
  517SOL     MW 2068   0.458   2.277   2.309  0.6996 -0.3377 -0.3427
  518SOL     OW 2069   1.722   0.198   3.049 -0.0609  0.0050  0.1247
  518SOL    HW1 2070   1.755   0.212   3.137  0.3206 -0.3143 -1.1218
  518SOL    HW2 2071   1.671   0.122   3.033 -0.6004  0.3315 -2.3522
  518SOL     MW 2072   1.720   0.190   3.058 -0.0817  0.0060 -0.3666
  519SOL     OW 2073   0.607   2.362   1.986  0.0871  0.2232  0.1785
  519SOL    HW1 2074   0.627   2.270   1.975  1.2198 -0.4553 -3.1294
  519SOL    HW2 2075   0.543   2.376   1.915  0.4234 -2.1579  1.8106
  519SOL     MW 2076   0.601   2.351   1.975  0.2809 -0.1805 -0.0426
  520SOL     OW 2077   1.174   2.125   2.887  0.2717  0.0070  0.1455
  520SOL    HW1 2078   1.092   2.078   2.871  1.5549  1.8319 -2.8323
  520SOL    HW2 2079   1.192   2.106   2.977 -2.0777 -1.5328 -1.1690
  520SOL     MW 2080   1.166   2.116   2.897  0.1310  0.0446 -0.4208
  521SOL     OW 2081   1.710   2.058   2.204  1.0059  0.0669 -0.5873
  521SOL    HW1 2082   1.777   2.075   2.135  1.5000  0.5466  1.9930
  521SOL    HW2 2083   1.677   1.961   2.194  1.7278 -2.6034 -0.4319
  521SOL     MW 2084   1.715   2.048   2.193  1.1664 -0.2221 -0.2263
  522SOL     OW 2085   2.833   2.562   2.159 -0.2615 -0.1361  0.4147
  522SOL    HW1 2086   2.887   2.504   2.207  0.6274 -0.2332 -1.1276
  522SOL    HW2 2087   2.856   2.652   2.178 -0.0631  4.3096 -2.9370
  522SOL     MW 2088   2.843   2.566   2.168 -0.1181  0.4376 -0.2310
  523SOL     OW 2089   0.816   1.467   2.156 -0.1581 -0.3205  0.5092
  523SOL    HW1 2090   0.801   1.510   2.067 -2.0023 -1.3824 -1.5117
  523SOL    HW2 2091   0.887   1.409   2.144 -2.5504 -0.4358 -1.1050
  523SOL     MW 2092   0.823   1.465   2.142 -0.7171 -0.4758  0.0296
  524SOL     OW 2093   0.560   2.358   3.055 -0.1735 -0.2044  0.3567
  524SOL    HW1 2094   0.561   2.424   2.977  0.2591 -0.3345  0.1198
  524SOL    HW2 2095   0.643   2.304   3.043 -5.1558 -0.8378  0.6062
  524SOL     MW 2096   0.571   2.359   3.043 -0.7738 -0.3052  0.3584
  525SOL     OW 2097   0.303   2.168   2.100 -0.0634 -0.2354  0.4585
  525SOL    HW1 2098   0.250   2.116   2.168 -0.1154  0.7459 -1.9823
  525SOL    HW2 2099   0.337   2.102   2.040 -2.0360  0.1780 -0.4219
  525SOL     MW 2100   0.300   2.152   2.101 -0.3306 -0.0514  0.0203
  526SOL     OW 2101   0.689   2.072   1.960  0.5904 -0.0729  0.4326
  526SOL    HW1 2102   0.740   2.092   1.884  1.6612  3.4366 -2.0197
  526SOL    HW2 2103   0.751   2.088   2.034 -1.5548 -1.3141 -2.6077
  526SOL     MW 2104   0.704   2.077   1.959  0.4486  0.2264 -0.2921
  527SOL     OW 2105   1.283   1.918   2.065 -0.0435 -0.1716 -0.3556
  527SOL    HW1 2106   1.254   1.859   2.130  2.5417 -1.0064  1.7609
  527SOL    HW2 2107   1.337   1.856   2.019  0.5801 -1.1820 -0.4924
  527SOL     MW 2108   1.287   1.902   2.068  0.3798 -0.4151 -0.0944
  528SOL     OW 2109   0.591   2.909   2.959 -0.6349 -0.6470  0.2124
  528SOL    HW1 2110   0.655   2.978   2.966 -3.2047  0.3691  0.0171
  528SOL    HW2 2111   0.591   2.902   2.866  2.1087  0.1976  1.4655
  528SOL     MW 2112   0.600   2.917   2.947 -0.6120 -0.4015  0.3520
  529SOL     OW 2113   1.111   2.291   1.801  0.2307 -0.2001 -0.0850
  529SOL    HW1 2114   1.178   2.276   1.871 -1.2527  0.2205  2.0522
  529SOL    HW2 2115   1.142   2.281   1.709 -0.9932 -4.0227 -0.7515
  529SOL     MW 2116   1.124   2.288   1.798 -0.1265 -0.6489  0.1090
  530SOL     OW 2117   1.163   2.423   2.945  0.7333  0.0073 -0.0018
  530SOL    HW1 2118   1.088   2.443   3.001  0.5503  2.4882  0.7577
  530SOL    HW2 2119   1.177   2.327   2.943 -0.8882  1.3746 -0.9786
  530SOL     MW 2120   1.155   2.413   2.952  0.4952  0.5150 -0.0305
  531SOL     OW 2121   0.887   1.815   2.612 -0.0014 -0.2769  0.2145
  531SOL    HW1 2122   0.915   1.855   2.691 -1.2935  0.3765  1.6750
  531SOL    HW2 2123   0.862   1.729   2.645 -1.3062 -1.1839  0.8528
  531SOL     MW 2124   0.887   1.809   2.627 -0.3440 -0.3103  0.4914
  532SOL     OW 2125   1.743   0.363   2.810  0.3773 -0.0863  0.0781
  532SOL    HW1 2126   1.699   0.288   2.768  0.4783 -2.4093  0.3236
  532SOL    HW2 2127   1.740   0.341   2.905 -0.2943  1.5458  2.7258
  532SOL     MW 2128   1.737   0.350   2.817  0.3020 -0.1774  0.4599
  533SOL     OW 2129   1.784   2.833   2.908 -0.2404 -0.5938  0.0656
  533SOL    HW1 2130   1.765   2.761   2.975  0.7608 -0.7876  1.5729
  533SOL    HW2 2131   1.727   2.801   2.837 -0.0520 -1.5594  1.5644
  533SOL     MW 2132   1.774   2.819   2.907 -0.0834 -0.7468  0.4622
  534SOL     OW 2133   1.764   2.532   2.511 -0.6943 -0.6608  0.2019
  534SOL    HW1 2134   1.688   2.475   2.517  1.4907  3.5204 -2.3515
  534SOL    HW2 2135   1.796   2.530   2.598 -0.8696  0.1669 -3.5910
  534SOL     MW 2136   1.758   2.524   2.524 -0.4292  0.0001 -0.6354
  535SOL     OW 2137   1.807   2.388   1.932 -0.3542 -0.1066  0.1749
  535SOL    HW1 2138   1.749   2.390   1.860 -0.4482 -0.7262  1.4687
  535SOL    HW2 2139   1.887   2.421   1.889 -0.9681  1.4285 -1.5107
  535SOL     MW 2140   1.810   2.393   1.917 -0.4476  0.0142  0.1232
  536SOL     OW 2141   0.400   1.900   1.981  0.1648 -0.5929  0.5240
  536SOL    HW1 2142   0.411   1.956   1.897  1.9030 -1.4709 -1.7777
  536SOL    HW2 2143   0.486   1.872   2.007 -0.5335  0.4304 -0.5715
  536SOL     MW 2144   0.413   1.904   1.973  0.3020 -0.5737  0.0758
  537SOL     OW 2145   1.019   0.185   2.953  0.3112  0.5692 -0.2373
  537SOL    HW1 2146   1.017   0.165   3.045  0.3793  0.3081 -0.7751
  537SOL    HW2 2147   1.006   0.280   2.947  1.8438 -1.7147  0.9449
  537SOL     MW 2148   1.017   0.195   2.964  0.5224  0.2334 -0.1522
  538SOL     OW 2149   1.273   0.077   2.974 -0.9831  0.0919  0.3431
  538SOL    HW1 2150   1.187   0.116   2.952 -1.9806  0.5107 -0.0010
  538SOL    HW2 2151   1.286   0.086   3.066 -0.4105 -0.2359  4.6220
  538SOL     MW 2152   1.263   0.083   2.983 -1.0392  0.1039  0.8622
  539SOL     OW 2153   0.675   2.743   2.480  0.7161 -0.4674 -0.2657
  539SOL    HW1 2154   0.744   2.810   2.487 -0.2206 -0.9956  2.4469
  539SOL    HW2 2155   0.719   2.658   2.500  0.4688  0.1386  1.6945
  539SOL     MW 2156   0.690   2.740   2.484  0.5599 -0.4572  0.3509
  540SOL     OW 2157   0.394   2.242   2.878  0.3622 -0.2861 -0.0903
  540SOL    HW1 2158   0.472   2.270   2.936  1.6486  0.1136  0.6614
  540SOL    HW2 2159   0.346   2.186   2.935 -0.4203  1.6512 -1.1279
  540SOL     MW 2160   0.398   2.238   2.893  0.4287  0.0222 -0.1280
  541SOL     OW 2161   0.183   2.899   2.252  0.3989  0.3821  0.3520
  541SOL    HW1 2162   0.169   2.805   2.231  1.9938 -0.1135 -0.3102
  541SOL    HW2 2163   0.210   2.893   2.347  1.1491  1.4529  2.1799
  541SOL     MW 2164   0.184   2.886   2.262  0.7083  0.4580  0.5058
  542SOL     OW 2165   0.840   2.351   2.760 -0.0993  0.2893 -0.3926
  542SOL    HW1 2166   0.868   2.263   2.799  2.5375 -2.2089  0.1083
  542SOL    HW2 2167   0.919   2.399   2.753 -1.5762 -0.6044 -0.6703
  542SOL     MW 2168   0.854   2.345   2.765  0.0537 -0.1583 -0.3632
  543SOL     OW 2169   1.365   2.683   2.651  0.2621 -0.1664  0.4020
  543SOL    HW1 2170   1.409   2.613   2.607  1.0650 -0.3837  0.0532
  543SOL    HW2 2171   1.438   2.737   2.685  0.2241  0.5747 -4.3360
  543SOL     MW 2172   1.380   2.681   2.649  0.3630 -0.0973 -0.2691
  544SOL     OW 2173   0.697   0.119   2.697  0.3162  0.1574 -0.6958
  544SOL    HW1 2174   0.603   0.093   2.687 -0.4086  0.5346 -0.9663
  544SOL    HW2 2175   0.742   0.085   2.623  1.4447  2.5941 -4.1631
  544SOL     MW 2176   0.691   0.111   2.686  0.3695  0.5286 -1.1889
  545SOL     OW 2177   1.532   2.183   2.403 -0.0799  0.2544 -0.0074
  545SOL    HW1 2178   1.487   2.095   2.416 -0.8408 -2.0286 -2.8916
  545SOL    HW2 2179   1.606   2.160   2.353  2.6280 -1.3583  0.0380
  545SOL     MW 2180   1.535   2.169   2.398  0.1770 -0.2596 -0.3820
  546SOL     OW 2181   3.000   1.980   0.146  0.2130 -0.1146  0.0631
  546SOL    HW1 2182   2.975   2.071   0.112  1.1715  2.3334  0.5928
  546SOL    HW2 2183   3.068   1.949   0.084  3.1577 -0.7866 -0.7647
  546SOL     MW 2184   3.006   1.988   0.133  0.7280  0.1197  0.0238
  547SOL     OW 2185   0.167   2.890   0.097 -0.0923  0.5104  0.1702
  547SOL    HW1 2186   0.190   2.940   0.018  2.0426  0.5229  1.1450
  547SOL    HW2 2187   0.189   2.798   0.069 -1.6750 -1.2790  1.1507
  547SOL     MW 2188   0.173   2.885   0.083 -0.0194  0.2760  0.4282
  548SOL     OW 2189   0.266   2.549   0.274 -0.2358 -0.5012  0.5368
  548SOL    HW1 2190   0.284   2.570   0.180 -0.6548 -0.0328 -2.5323
  548SOL    HW2 2191   0.178   2.524   0.274  0.1565  0.2318 -0.2262
  548SOL     MW 2192   0.257   2.548   0.261 -0.2394 -0.3427  0.0312
  549SOL     OW 2193   0.707   1.839   2.079 -0.0854  0.7267 -0.3846
  549SOL    HW1 2194   0.692   1.913   2.014 -1.7956 -4.0820 -1.4522
  549SOL    HW2 2195   0.764   1.863   2.152  0.3237 -2.9722  1.3329
  549SOL     MW 2196   0.713   1.852   2.080 -0.2571 -0.3958 -0.2988
  550SOL     OW 2197   1.780   1.783   2.489  0.1209 -0.9350  0.0053
  550SOL    HW1 2198   1.770   1.781   2.389  1.2962 -2.7327 -2.4906
  550SOL    HW2 2199   1.796   1.877   2.523 -0.2129  2.3365  0.9812
  550SOL     MW 2200   1.781   1.795   2.481  0.2319 -0.7406 -0.1953
  551SOL     OW 2201   0.856   2.351   0.212 -0.2797 -0.0124  0.2637
  551SOL    HW1 2202   0.949   2.363   0.198  1.3166 -0.4554 -0.2983
  551SOL    HW2 2203   0.819   2.319   0.128 -4.3366 -0.3519 -0.7604
  551SOL     MW 2204   0.863   2.348   0.199 -0.6044 -0.1156  0.0545
  552SOL     OW 2205   1.675   1.776   2.236 -0.1743 -0.9596  0.5644
  552SOL    HW1 2206   1.592   1.737   2.273 -1.9684 -2.7802 -1.3432
  552SOL    HW2 2207   1.733   1.706   2.196  2.2340 -3.0522  0.6215
  552SOL     MW 2208   1.672   1.762   2.236 -0.0933 -1.4759  0.3203
  553SOL     OW 2209   1.207   2.304   1.534 -0.9748 -0.0864 -0.0809
  553SOL    HW1 2210   1.239   2.213   1.532  0.0452  0.3546  0.5952
  553SOL    HW2 2211   1.275   2.356   1.488 -0.5624 -2.5377  0.2468
  553SOL     MW 2212   1.220   2.299   1.527 -0.7858 -0.3516  0.0515
  554SOL     OW 2213   0.553   2.846   2.693 -0.3789 -0.2178  0.7134
  554SOL    HW1 2214   0.502   2.912   2.639  0.2609 -2.7743 -0.7939
  554SOL    HW2 2215   0.589   2.791   2.618 -1.2080 -2.4954 -0.3452
  554SOL     MW 2216   0.551   2.848   2.676 -0.4039 -0.8557  0.3749
  555SOL     OW 2217   0.579   2.403   2.624 -0.2745 -1.0411 -0.5527
  555SOL    HW1 2218   0.561   2.310   2.611  1.1356  0.1667  1.6584
  555SOL    HW2 2219   0.657   2.404   2.572  0.2001  1.6283  1.6869
  555SOL     MW 2220   0.587   2.391   2.616 -0.0258 -0.5296  0.0345
  556SOL     OW 2221   1.053   1.837   0.128  0.0935  0.0110 -0.0707
  556SOL    HW1 2222   1.072   1.830   0.034  1.7047  0.7190 -0.2158
  556SOL    HW2 2223   1.132   1.877   0.170 -1.6155  0.5097 -0.1179
  556SOL     MW 2224   1.066   1.842   0.121  0.0806  0.1702 -0.0961
  557SOL     OW 2225   1.025   2.654   0.427  0.4599  0.6828  0.0628
  557SOL    HW1 2226   1.109   2.683   0.406  0.0819 -0.0151  0.2776
  557SOL    HW2 2227   0.966   2.718   0.383  1.0628  2.4893 -0.0285
  557SOL     MW 2228   1.028   2.666   0.418  0.4896  0.8290  0.0791
  558SOL     OW 2229   0.252   2.094   3.068 -0.3275 -0.9312  0.4741
  558SOL    HW1 2230   0.194   2.020   3.074  0.0146  0.6794 -0.7229
  558SOL    HW2 2231   0.199   2.167   3.091 -1.2387  1.7343 -1.6669
  558SOL     MW 2232   0.238   2.094   3.072 -0.4026 -0.3670  0.0337
  559SOL     OW 2233   1.250   2.237   2.030  0.2387  0.0969  0.1084
  559SOL    HW1 2234   1.224   2.318   2.079  1.0703  1.0884  0.2760
  559SOL    HW2 2235   1.230   2.168   2.091 -1.8351  0.0268  0.6729
  559SOL     MW 2236   1.244   2.238   2.045  0.0748  0.2185  0.2050
  560SOL     OW 2237   1.939   2.970   0.032  0.0203  0.2583  0.1994
  560SOL    HW1 2238   2.009   3.000  -0.019  0.9698  0.2803  0.3673
  560SOL    HW2 2239   1.866   2.944  -0.021  2.6769  0.5203 -0.0161
  560SOL     MW 2240   1.938   2.971   0.019  0.4961  0.2958  0.1931
  561SOL     OW 2241   0.463   2.074   0.173  0.2085  0.4663  0.0623
  561SOL    HW1 2242   0.422   2.095   0.091  2.0922 -1.2345 -6.0832
  561SOL    HW2 2243   0.484   2.158   0.219 -0.1597 -2.0495 -2.0288
  561SOL     MW 2244   0.460   2.088   0.168  0.4085 -0.0900 -1.0244
  562SOL     OW 2245   0.843   2.128   2.172  0.0785  0.1192  0.6655
  562SOL    HW1 2246   0.832   2.217   2.209  0.8533  1.3363  0.5904
  562SOL    HW2 2247   0.944   2.123   2.169 -0.7004  1.1311  4.4795
  562SOL     MW 2248   0.855   2.139   2.176  0.0780  0.4133  1.1588
  563SOL     OW 2249   1.280   0.287   0.480 -0.3440 -0.4075 -0.2131
  563SOL    HW1 2250   1.204   0.246   0.436  1.6311  2.9415 -0.2185
  563SOL    HW2 2251   1.309   0.215   0.541 -0.3567  2.5651  1.8855
  563SOL     MW 2252   1.274   0.272   0.483 -0.0851  0.4265  0.0631
  564SOL     OW 2253   1.006   2.555   2.309 -0.4672  0.2789 -0.1192
  564SOL    HW1 2254   1.081   2.529   2.250  2.4831  0.8446  2.5496
  564SOL    HW2 2255   1.049   2.620   2.364  0.7638  0.6022 -1.7737
  564SOL     MW 2256   1.022   2.560   2.308  0.0845  0.3962  0.0146
  565SOL     OW 2257   2.922   2.684   2.709 -0.2638 -0.0151  0.3790
  565SOL    HW1 2258   2.980   2.756   2.691 -0.3240 -1.1752  1.0101
  565SOL    HW2 2259   2.858   2.667   2.633 -0.3564 -1.1188 -0.9893
  565SOL     MW 2260   2.921   2.691   2.696 -0.2839 -0.3138  0.2817
  566SOL     OW 2261   2.167   2.044   2.366  0.2879 -0.7110  0.3130
  566SOL    HW1 2262   2.190   2.037   2.275  1.6151  0.4358  0.5930
  566SOL    HW2 2263   2.199   2.129   2.395 -0.4347 -0.6261  1.4720
  566SOL     MW 2264   2.174   2.054   2.358  0.3677 -0.5485  0.5028
  567SOL     OW 2265   1.152   2.876   0.120  0.2663 -0.0734 -0.0478
  567SOL    HW1 2266   1.175   2.962   0.152  2.8481 -2.2717 -0.8022
  567SOL    HW2 2267   1.167   2.879   0.026 -0.6110  1.0899 -1.4893
  567SOL     MW 2268   1.157   2.887   0.112  0.4912 -0.2100 -0.3376
  568SOL     OW 2269   1.641   2.128   2.797  0.0757 -0.4449  0.2518
  568SOL    HW1 2270   1.692   2.207   2.820 -1.8770 -0.7994 -2.2035
  568SOL    HW2 2271   1.695   2.079   2.730 -1.4902 -1.5650 -0.5664
  568SOL     MW 2272   1.655   2.132   2.791 -0.3886 -0.6394 -0.1801
  569SOL     OW 2273   0.029   2.228   2.496  0.3458 -0.3930 -0.1953
  569SOL    HW1 2274  -0.020   2.275   2.430 -2.2392 -0.1767 -1.4147
  569SOL    HW2 2275   0.090   2.288   2.535  2.8179  1.5253 -1.0029
  569SOL     MW 2276   0.030   2.242   2.493  0.3309 -0.1114 -0.4627
  570SOL     OW 2277   1.551   0.363   0.456 -0.5110  0.0250 -0.1455
  570SOL    HW1 2278   1.465   0.354   0.495 -0.2679 -0.1772  0.0108
  570SOL    HW2 2279   1.609   0.397   0.521 -0.0113 -1.1886  1.3241
  570SOL     MW 2280   1.548   0.366   0.470 -0.4130 -0.1618  0.0690
  571SOL     OW 2281   1.443   2.451   1.995 -0.0728  0.1792  0.8729
  571SOL    HW1 2282   1.464   2.465   2.084  2.2117  2.2655 -3.5336
  571SOL    HW2 2283   1.428   2.358   1.979  0.3188  1.5968 -0.2145
  571SOL     MW 2284   1.444   2.441   2.005  0.2803  0.6415  0.1480
  572SOL     OW 2285   0.905   2.523   3.060 -0.0976 -0.0202  0.1176
  572SOL    HW1 2286   0.884   2.577   2.983 -1.7104  0.2121  4.0249
  572SOL    HW2 2287   0.834   2.524   3.122  0.5843 -1.2521  1.3391
  572SOL     MW 2288   0.893   2.531   3.058 -0.2204 -0.1521  0.7943
  573SOL     OW 2289   1.134   2.418   0.195 -0.4232  0.2284 -0.4278
  573SOL    HW1 2290   1.218   2.401   0.150 -2.6786  0.9138  0.8266
  573SOL    HW2 2291   1.153   2.495   0.250 -1.2648  0.5985  1.1293
  573SOL     MW 2292   1.148   2.426   0.197 -0.8318  0.3677 -0.0569
  574SOL     OW 2293   1.257   2.669   0.252 -0.3741  0.1988 -0.7449
  574SOL    HW1 2294   1.331   2.713   0.291 -0.1284 -1.7190  0.2083
  574SOL    HW2 2295   1.210   2.729   0.197  3.5602  2.5370  0.2864
  574SOL     MW 2296   1.260   2.682   0.250  0.1774  0.2543 -0.4830
  575SOL     OW 2297   3.054   2.261   1.816  0.3963  0.0996  0.3518
  575SOL    HW1 2298   3.051   2.177   1.768  1.8993 -0.4501 -3.5537
  575SOL    HW2 2299   3.114   2.315   1.760  0.6603  1.7376  2.0842
  575SOL     MW 2300   3.061   2.257   1.802  0.6295  0.2432  0.0651
  576SOL     OW 2301   2.826   1.816   2.069  0.4309 -0.0289  0.0969
  576SOL    HW1 2302   2.830   1.876   1.994  2.2376 -2.0617  0.2638
  576SOL    HW2 2303   2.735   1.788   2.072  1.7721 -2.4829  1.0094
  576SOL     MW 2304   2.815   1.820   2.060  0.8462 -0.6209  0.2393
  577SOL     OW 2305   2.068   0.325   0.073  0.0258 -0.4406 -0.3308
  577SOL    HW1 2306   2.017   0.374   0.013 -0.2783 -0.3268 -2.0738
  577SOL    HW2 2307   2.004   0.272   0.132 -0.2079  2.3036  3.0530
  577SOL     MW 2308   2.053   0.325   0.073 -0.0451 -0.0635 -0.1143
  578SOL     OW 2309   1.912   2.198   2.345 -0.3727 -0.0599 -0.1719
  578SOL    HW1 2310   1.848   2.136   2.297 -0.3750 -1.5126  0.2724
  578SOL    HW2 2311   1.985   2.132   2.357  1.3318 -1.4183  0.9203
  578SOL     MW 2312   1.913   2.181   2.340 -0.1481 -0.4308  0.0308
  579SOL     OW 2313   0.820   2.489   2.504  0.2116  0.1883 -0.1176
  579SOL    HW1 2314   0.859   2.444   2.583  0.1382 -2.3420  2.4574
  579SOL    HW2 2315   0.893   2.504   2.442  2.5736 -1.1461 -0.8699
  579SOL     MW 2316   0.835   2.485   2.507  0.5135 -0.3216  0.1229
  580SOL     OW 2317   0.867   2.859   3.072  0.1624 -0.0660  0.3784
  580SOL    HW1 2318   0.922   2.782   3.074  2.1671 -0.7331 -1.3839
  580SOL    HW2 2319   0.797   2.846   3.013  1.9324 -0.3798  2.6473
  580SOL     MW 2320   0.865   2.847   3.064  0.6604 -0.1954  0.4452
  581SOL     OW 2321   1.087   2.595   1.757  0.7928  0.0868 -0.6953
  581SOL    HW1 2322   1.161   2.639   1.803 -0.0294 -1.0720  0.2466
  581SOL    HW2 2323   1.108   2.494   1.763  1.1385 -1.0961 -0.7316
  581SOL     MW 2324   1.100   2.587   1.764  0.7299 -0.2221 -0.5758
  582SOL     OW 2325   3.082   2.879   2.626 -0.1876  0.0938 -0.0773
  582SOL    HW1 2326   3.106   2.954   2.683 -0.1934  0.4426  0.0205
  582SOL    HW2 2327   3.164   2.826   2.614 -2.3116  1.7667 -4.7954
  582SOL     MW 2328   3.096   2.882   2.632 -0.4686  0.3605 -0.6869
  583SOL     OW 2329   1.951   2.526   2.711  0.2737 -0.1582 -0.4887
  583SOL    HW1 2330   2.015   2.561   2.638  2.5828 -0.0067  0.5043
  583SOL    HW2 2331   1.959   2.433   2.696  1.6031  0.1868  0.6568
  583SOL     MW 2332   1.960   2.519   2.700  0.7538 -0.0927 -0.2065
  584SOL     OW 2333   0.166   1.842   2.105  0.1154  0.2515 -0.2939
  584SOL    HW1 2334   0.243   1.868   2.049  2.1932 -0.3841  2.4183
  584SOL    HW2 2335   0.181   1.900   2.182 -0.4269  0.9565 -0.0793
  584SOL     MW 2336   0.178   1.853   2.108  0.3180  0.2606  0.0923
  585SOL     OW 2337   1.435   2.563   0.043  0.4664  0.4102  0.0321
  585SOL    HW1 2338   1.404   2.593  -0.047 -1.4319  0.3887  3.2916
  585SOL    HW2 2339   1.411   2.625   0.105 -0.0229 -2.2866 -2.1979
  585SOL     MW 2340   1.428   2.575   0.040  0.1514  0.0516  0.1679
  586SOL     OW 2341   1.280   2.969   2.354  0.2669  0.2289  0.8627
  586SOL    HW1 2342   1.366   2.926   2.347  1.0779 -2.5001 -2.1278
  586SOL    HW2 2343   1.253   2.981   2.444 -0.1580 -1.1123 -0.0774
  586SOL     MW 2344   1.288   2.965   2.365  0.3178 -0.3081  0.3441
  587SOL     OW 2345   1.198   1.623   2.166 -0.3401  0.4363  0.3421
  587SOL    HW1 2346   1.182   1.541   2.214 -0.0580  1.1839 -1.1218
  587SOL    HW2 2347   1.198   1.593   2.068 -1.0715 -1.5228 -0.9354
  587SOL     MW 2348   1.196   1.609   2.160 -0.3994  0.2765 -0.0196
  588SOL     OW 2349   1.371   2.238   2.745  0.1844  0.6159 -0.7898
  588SOL    HW1 2350   1.441   2.181   2.766  0.3902  2.5156  0.7939
  588SOL    HW2 2351   1.298   2.190   2.805 -2.1592  0.0359  0.8056
  588SOL     MW 2352   1.371   2.224   2.756 -0.0977  0.7900 -0.3703
  589SOL     OW 2353   1.330   2.065   0.002  0.2794  0.0059  0.3862
  589SOL    HW1 2354   1.343   2.156   0.032  1.1679  0.1406 -0.7098
  589SOL    HW2 2355   1.311   2.002   0.070  0.2716 -2.4976 -0.0743
  589SOL     MW 2356   1.329   2.068   0.015  0.3956 -0.3066  0.1808
  590SOL     OW 2357   0.483   2.544   2.251  0.3153  0.1029 -0.1724
  590SOL    HW1 2358   0.436   2.581   2.175  0.9481 -0.5680  0.0719
  590SOL    HW2 2359   0.577   2.560   2.240  0.7710 -0.0371  0.7724
  590SOL     MW 2360   0.489   2.551   2.240  0.4589 -0.0041 -0.0155
  591SOL     OW 2361   2.203   0.694   3.029 -0.2467 -0.1243  0.6201
  591SOL    HW1 2362   2.106   0.720   3.027  0.5101 -1.3117  1.1445
  591SOL    HW2 2363   2.218   0.638   2.951 -1.5543  2.1048 -2.4063
  591SOL     MW 2364   2.192   0.690   3.019 -0.3193  0.0132  0.2900
  592SOL     OW 2365   1.810   2.896   0.835  0.0126  0.0343  0.6720
  592SOL    HW1 2366   1.831   2.966   0.768  1.9506  0.3705  1.2933
  592SOL    HW2 2367   1.885   2.832   0.825  0.5060 -1.2736  1.2027
  592SOL     MW 2368   1.822   2.897   0.825  0.3334 -0.0939  0.8240
  593SOL     OW 2369   1.921   0.826   0.918 -0.0084 -0.7348 -0.2603
  593SOL    HW1 2370   1.835   0.806   0.885 -0.7496  0.1454  2.6008
  593SOL    HW2 2371   1.954   0.734   0.913  1.2377 -0.7295 -1.9320
  593SOL     MW 2372   1.914   0.811   0.913  0.0582 -0.6180 -0.1034
  594SOL     OW 2373   2.760   1.127   1.406 -0.6860 -0.0766  0.2760
  594SOL    HW1 2374   2.832   1.188   1.424  2.1965 -0.7521  1.5519
  594SOL    HW2 2375   2.766   1.112   1.312  0.4060  0.7222 -1.0330
  594SOL     MW 2376   2.770   1.133   1.396 -0.1616 -0.0604  0.2717
  595SOL     OW 2377   0.428   0.984   0.755 -0.0624 -0.6662  0.5952
  595SOL    HW1 2378   0.497   1.039   0.700  2.9950  1.7381 -2.7671
  595SOL    HW2 2379   0.456   1.009   0.844  1.7826 -0.5379 -1.5289
  595SOL     MW 2380   0.440   0.995   0.759  0.5845 -0.3320 -0.1287
  596SOL     OW 2381   2.416   1.327   0.599  0.3260 -0.4433 -0.6228
  596SOL    HW1 2382   2.447   1.416   0.574  0.8583  1.8699  0.4692
  596SOL    HW2 2383   2.491   1.294   0.650  1.6994  2.6139 -1.1692
  596SOL     MW 2384   2.430   1.335   0.603  0.5774  0.2653 -0.5508
  597SOL     OW 2385   2.259   0.684   1.736 -0.4745 -0.3471  0.1623
  597SOL    HW1 2386   2.293   0.616   1.788 -2.7306  1.2180  2.7977
  597SOL    HW2 2387   2.250   0.647   1.650 -0.7570 -0.3350  1.3840
  597SOL     MW 2388   2.262   0.670   1.732 -0.8094 -0.1390  0.6712
  598SOL     OW 2389   2.630   1.012   2.850 -0.0986  0.1912  0.4463
  598SOL    HW1 2390   2.674   0.965   2.779 -0.5007  2.7378  1.2848
  598SOL    HW2 2391   2.701   1.039   2.906 -0.5523 -0.2578  1.9732
  598SOL     MW 2392   2.645   1.010   2.848 -0.2115  0.4679  0.7584
  599SOL     OW 2393   2.908   0.350   2.058  0.6166 -0.4997 -0.4271
  599SOL    HW1 2394   2.915   0.340   2.153 -0.5983  0.7020 -0.7880
  599SOL    HW2 2395   2.966   0.419   2.024 -0.6253  1.4725  2.4573
  599SOL     MW 2396   2.917   0.358   2.066  0.2924 -0.0810 -0.0942
  600SOL     OW 2397   1.845   1.644   0.887  0.0162  0.4016  0.8017
  600SOL    HW1 2398   1.898   1.678   0.955  0.3467  2.7926 -0.9590
  600SOL    HW2 2399   1.764   1.702   0.889 -0.9036  1.9855 -1.0684
  600SOL     MW 2400   1.842   1.656   0.896 -0.0615  0.9261  0.3226
  601SOL     OW 2401   2.472   0.749   0.892  0.7810  0.3546  0.0315
  601SOL    HW1 2402   2.500   0.770   0.981 -0.5983 -2.6266 -1.2866
  601SOL    HW2 2403   2.378   0.742   0.891 -1.3953 -0.0632 -1.1149
  601SOL     MW 2404   2.463   0.751   0.904  0.3119 -0.0939 -0.2936
  602SOL     OW 2405   2.269   1.933   0.697  0.2235  0.0500 -0.0142
  602SOL    HW1 2406   2.220   1.860   0.736 -0.2102 -0.2207 -1.8518
  602SOL    HW2 2407   2.208   1.972   0.629 -0.3282  0.4422 -0.5106
  602SOL     MW 2408   2.255   1.929   0.693  0.0935  0.0660 -0.3222
  603SOL     OW 2409   2.995   1.360   1.845  0.0080  0.7520  0.0863
  603SOL    HW1 2410   3.084   1.394   1.852 -0.8121  0.6167 -0.1095
  603SOL    HW2 2411   2.992   1.272   1.820 -2.1525  0.6810  0.7580
  603SOL     MW 2412   3.006   1.353   1.843 -0.3853  0.7248  0.1491
  604SOL     OW 2413   2.045   1.502   0.494  0.1113  0.3796 -0.0643
  604SOL    HW1 2414   2.087   1.445   0.557 -0.3218  2.4680 -0.1436
  604SOL    HW2 2415   1.979   1.550   0.535 -3.3991 -0.1237 -1.7037
  604SOL     MW 2416   2.042   1.501   0.508 -0.4090  0.5887 -0.2911
  605SOL     OW 2417   2.652   1.541   0.797 -0.0749 -0.0237  0.1785
  605SOL    HW1 2418   2.619   1.605   0.739  1.0590 -0.9222  1.8095
  605SOL    HW2 2419   2.592   1.514   0.869  1.1925  0.5056 -0.4704
  605SOL     MW 2420   2.640   1.546   0.799  0.2419 -0.0724  0.3081
  606SOL     OW 2421   2.537   1.818   1.902  0.1991  0.1745  0.4466
  606SOL    HW1 2422   2.441   1.800   1.925 -0.8506  3.0905 -0.2955
  606SOL    HW2 2423   2.588   1.736   1.881  2.4286  0.4860 -1.3708
  606SOL     MW 2424   2.531   1.805   1.902  0.3547  0.6003  0.1089
  607SOL     OW 2425   2.352   1.022   2.960 -0.5302 -0.4439 -0.3224
  607SOL    HW1 2426   2.436   1.007   2.926 -0.7450  0.6295 -2.8920
  607SOL    HW2 2427   2.364   1.038   3.051  2.5255  3.1387 -2.7613
  607SOL     MW 2428   2.364   1.022   2.968 -0.1554  0.1704 -0.9832
  608SOL     OW 2429   1.902   0.243   0.643 -0.5964  0.0709 -0.2387
  608SOL    HW1 2430   1.913   0.279   0.553  0.6292  3.9240 -0.9692
  608SOL    HW2 2431   1.892   0.147   0.642 -1.1840 -0.7810  0.9242
  608SOL     MW 2432   1.902   0.235   0.631 -0.5122  0.4669 -0.1816
  609SOL     OW 2433   2.117   1.928   3.010 -0.0442 -0.6105  0.3410
  609SOL    HW1 2434   2.031   1.893   3.020 -1.4822  0.1967 -0.1924
  609SOL    HW2 2435   2.156   1.919   3.097  0.4547  0.9625  1.5347
  609SOL     MW 2436   2.111   1.922   3.023 -0.1681 -0.2964  0.4281
  610SOL     OW 2437   1.831   1.084   1.352 -0.8054 -0.5688 -0.1517
  610SOL    HW1 2438   1.863   1.017   1.287 -0.2147  0.9627  1.2569
  610SOL    HW2 2439   1.768   1.035   1.415  1.9095 -1.4912  0.3903
  610SOL     MW 2440   1.827   1.069   1.352 -0.3692 -0.4885  0.1056
  611SOL     OW 2441   2.504   1.762   0.717 -0.2216 -0.4397 -0.2586
  611SOL    HW1 2442   2.418   1.812   0.717  0.6911 -1.3421  0.8850
  611SOL    HW2 2443   2.514   1.702   0.645 -1.6036  0.6434  0.9185
  611SOL     MW 2444   2.494   1.761   0.708 -0.2835 -0.4159  0.0476
  612SOL     OW 2445   2.782   2.768   0.425 -0.0737 -0.3706  0.2309
  612SOL    HW1 2446   2.820   2.847   0.477  0.0012  2.5580 -2.2511
  612SOL    HW2 2447   2.864   2.726   0.399 -0.0964  0.3759 -0.2502
  612SOL     MW 2448   2.798   2.773   0.428 -0.0668  0.1143 -0.1600
  613SOL     OW 2449   1.614   1.014   1.104 -0.1181 -0.2279  0.1277
  613SOL    HW1 2450   1.650   1.088   1.151  1.3601  2.3789 -0.7429
  613SOL    HW2 2451   1.690   0.956   1.094  1.0087  2.0739 -2.0004
  613SOL     MW 2452   1.628   1.016   1.109  0.2256  0.4197 -0.2680
  614SOL     OW 2453   1.977   0.535   1.541 -0.3255  0.5719  0.2616
  614SOL    HW1 2454   1.981   0.440   1.570 -1.3524  0.2204 -2.2694
  614SOL    HW2 2455   2.045   0.538   1.471 -0.9351 -2.6532  0.6198
  614SOL     MW 2456   1.987   0.523   1.535 -0.5414  0.1000 -0.0251
  615SOL     OW 2457   2.239   0.811   0.163  0.0019  0.6712 -0.0389
  615SOL    HW1 2458   2.302   0.769   0.228  0.4660 -1.0869  0.2200
  615SOL    HW2 2459   2.258   0.777   0.074  1.1110  2.5269  0.7872
  615SOL     MW 2460   2.250   0.801   0.160  0.2095  0.6841  0.1043
  616SOL     OW 2461   2.622   0.368   1.632 -0.1863  0.6618 -0.0554
  616SOL    HW1 2462   2.561   0.310   1.582  0.0718  0.9179 -2.7170
  616SOL    HW2 2463   2.590   0.456   1.626  0.3879 -0.3760  1.1768
  616SOL     MW 2464   2.610   0.372   1.624 -0.0765  0.5587 -0.2440
  617SOL     OW 2465   2.921   0.558   1.767 -0.4385 -0.2882 -0.0253
  617SOL    HW1 2466   2.834   0.583   1.812  0.2692  1.1288  1.4796
  617SOL    HW2 2467   2.905   0.477   1.717  1.9735 -0.5086 -0.3436
  617SOL     MW 2468   2.907   0.550   1.766 -0.0269 -0.1303  0.1312
  618SOL     OW 2469   2.667   0.361   1.936 -0.5609  0.0600  0.1564
  618SOL    HW1 2470   2.668   0.456   1.915  0.3541  0.0469 -0.3461
  618SOL    HW2 2471   2.740   0.353   1.997 -1.3376 -2.6178 -1.0606
  618SOL     MW 2472   2.676   0.373   1.941 -0.5426 -0.2950 -0.0705
  619SOL     OW 2473   2.588   0.858   0.138  0.0918  0.6944 -0.3629
  619SOL    HW1 2474   2.678   0.878   0.165 -0.7468  0.1423 -1.7586
  619SOL    HW2 2475   2.550   0.800   0.207 -0.2811  2.2231  0.5150
  619SOL     MW 2476   2.595   0.853   0.151 -0.0680  0.8233 -0.4312
  620SOL     OW 2477   2.296   1.129   0.928  0.0203 -0.5413 -0.2882
  620SOL    HW1 2478   2.372   1.144   0.875 -1.7849  0.6168  0.3153
  620SOL    HW2 2479   2.243   1.070   0.873  2.1903 -0.3712  1.4451
  620SOL     MW 2480   2.299   1.123   0.914  0.0684 -0.3661  0.0201
  621SOL     OW 2481   1.519   2.138   1.999 -0.0816 -0.2852 -0.0449
  621SOL    HW1 2482   1.438   2.155   2.048 -3.1323 -0.0341 -2.1508
  621SOL    HW2 2483   1.580   2.090   2.051  0.2886  1.0714  0.5712
  621SOL     MW 2484   1.517   2.134   2.012 -0.4352 -0.0731 -0.2415
  622SOL     OW 2485   2.629   0.216   0.130  0.1177 -0.4143  0.8187
  622SOL    HW1 2486   2.705   0.224   0.193 -1.6067 -0.1145  2.6712
  622SOL    HW2 2487   2.618   0.128   0.097 -2.3077 -0.0178 -1.6448
  622SOL     MW 2488   2.637   0.205   0.134 -0.4299 -0.3224  0.7381
  623SOL     OW 2489   2.392   2.765   0.822 -0.4464  0.0046  0.8831
  623SOL    HW1 2490   2.452   2.841   0.844 -0.9752  0.9452 -0.6375
  623SOL    HW2 2491   2.323   2.788   0.883 -0.4714 -0.5088 -2.3313
  623SOL     MW 2492   2.391   2.778   0.833 -0.5195  0.0610  0.2584
  624SOL     OW 2493   2.200   1.625   2.933  0.0288 -0.2308  0.7232
  624SOL    HW1 2494   2.125   1.576   2.968  1.2678  0.8480  1.3990
  624SOL    HW2 2495   2.186   1.719   2.941 -1.3608  1.0424 -1.4289
  624SOL     MW 2496   2.188   1.631   2.939  0.0089  0.0795  0.5284
  625SOL     OW 2497   2.194   1.922   1.073  0.2375 -0.0600 -0.4139
  625SOL    HW1 2498   2.263   1.895   1.132  0.8722 -0.4294 -0.5245
  625SOL    HW2 2499   2.235   1.964   0.999 -0.3869 -1.8529  0.6682
  625SOL     MW 2500   2.209   1.924   1.071  0.2389 -0.3453 -0.2857
  626SOL     OW 2501   0.135   1.584   2.397  0.4535  0.0665 -0.2040
  626SOL    HW1 2502   0.069   1.528   2.358  1.1919 -3.6144  1.5680
  626SOL    HW2 2503   0.101   1.595   2.482  2.1785  0.8233 -2.5363
  626SOL     MW 2504   0.122   1.578   2.403  0.7785 -0.3193 -0.2779
  627SOL     OW 2505   2.451   0.834   2.583 -0.3903 -0.0815 -0.3229
  627SOL    HW1 2506   2.386   0.910   2.572 -1.4742 -1.2825 -0.8768
  627SOL    HW2 2507   2.445   0.796   2.493 -1.6866 -0.9714  0.1207
  627SOL     MW 2508   2.441   0.839   2.569 -0.7044 -0.3574 -0.3374
  628SOL     OW 2509   2.338   1.362   1.380  0.0009  0.1130  0.7031
  628SOL    HW1 2510   2.304   1.302   1.306  2.1857  0.8763 -1.1136
  628SOL    HW2 2511   2.428   1.385   1.362 -1.0901 -0.2877  1.0867
  628SOL     MW 2512   2.346   1.357   1.368  0.1452  0.1608  0.5140
  629SOL     OW 2513   2.039   0.566   1.208 -0.4686  0.2484 -0.2537
  629SOL    HW1 2514   2.102   0.635   1.194 -2.1926 -1.5901 -0.5726
  629SOL    HW2 2515   1.964   0.609   1.252  0.3772  0.8536  1.5967
  629SOL     MW 2516   2.037   0.581   1.212 -0.5845  0.0857 -0.0516
  630SOL     OW 2517   2.484   1.809   3.085  0.1554 -0.3161  0.2111
  630SOL    HW1 2518   2.437   1.848   3.009  0.3022  1.6631 -0.1230
  630SOL    HW2 2519   2.428   1.751   3.138  1.5071  2.4950 -0.7941
  630SOL     MW 2520   2.470   1.807   3.082  0.3531  0.3160  0.0344
  631SOL     OW 2521   1.976   1.768   1.611  0.1958  0.8923 -0.0034
  631SOL    HW1 2522   1.989   1.681   1.661 -2.4679 -2.2726  0.5603
  631SOL    HW2 2523   1.956   1.739   1.525 -0.0795 -0.9817 -1.7932
  631SOL     MW 2524   1.975   1.753   1.606 -0.1920  0.2274 -0.1651
  632SOL     OW 2525   0.201   2.080   1.575  0.5179  0.2522 -0.2427
  632SOL    HW1 2526   0.139   2.106   1.642  3.3496 -1.6874 -0.8759
  632SOL    HW2 2527   0.159   1.998   1.541  1.9881  1.3687  1.6877
  632SOL     MW 2528   0.187   2.072   1.580  1.0854  0.1436 -0.0716
  633SOL     OW 2529   2.422   0.712   0.360  0.0994  0.3840  0.3515
  633SOL    HW1 2530   2.507   0.702   0.409  1.0771  0.3054  0.3166
  633SOL    HW2 2531   2.380   0.620   0.353  0.0038 -3.0140 -0.8470
  633SOL     MW 2532   2.428   0.698   0.366  0.2158 -0.0747  0.1888
  634SOL     OW 2533   2.637   3.079   0.598 -0.3182 -0.1530 -0.0465
  634SOL    HW1 2534   2.688   3.161   0.606 -0.3338  0.1436 -2.5323
  634SOL    HW2 2535   2.619   3.064   0.506 -0.4563 -0.6547  2.2856
  634SOL     MW 2536   2.641   3.088   0.587 -0.3385 -0.1801 -0.0668
  635SOL     OW 2537   2.609   0.116   1.842 -0.6058  0.1369 -0.0996
  635SOL    HW1 2538   2.677   0.085   1.782 -0.8226 -2.2261  0.6491
  635SOL    HW2 2539   2.647   0.201   1.865  0.5037  1.5490  2.0723
  635SOL     MW 2540   2.623   0.123   1.837 -0.4880  0.0114  0.2858
  636SOL     OW 2541   2.919   1.657   1.033 -0.1258 -0.5067  0.0605
  636SOL    HW1 2542   2.846   1.703   0.994  2.1826  0.1244 -0.6877
  636SOL    HW2 2543   2.947   1.714   1.110  1.5356  1.4576 -3.4656
  636SOL     MW 2544   2.913   1.671   1.038  0.3979 -0.1642 -0.5034
  637SOL     OW 2545   2.912   1.490   0.700 -0.4615  0.1505 -0.0157
  637SOL    HW1 2546   2.968   1.554   0.735 -0.1650  0.3160 -2.1656
  637SOL    HW2 2547   2.831   1.506   0.746 -0.7176 -0.5802  0.9260
  637SOL     MW 2548   2.909   1.501   0.711 -0.4562  0.0759 -0.1751
  638SOL     OW 2549   2.665   0.675   0.506 -0.5154  0.3385  0.5623
  638SOL    HW1 2550   2.751   0.651   0.468  0.9651 -2.6803  1.6694
  638SOL    HW2 2551   2.671   0.642   0.597 -1.0216 -0.6985  0.2168
  638SOL     MW 2552   2.677   0.668   0.513 -0.3868 -0.1967  0.6628
  639SOL     OW 2553   1.871   3.071   0.624 -0.7473 -0.3126 -0.3316
  639SOL    HW1 2554   1.787   3.104   0.587 -4.1620  1.7647  1.9508
  639SOL    HW2 2555   1.926   3.058   0.546  0.5460 -0.0377 -3.8224
  639SOL     MW 2556   1.867   3.074   0.609 -1.0272 -0.0023 -0.4910
  640SOL     OW 2557   0.389   1.370   0.100 -0.1268  0.1623 -0.2671
  640SOL    HW1 2558   0.428   1.407   0.019 -0.1492  1.3764  0.8992
  640SOL    HW2 2559   0.344   1.285   0.072  0.7867 -1.0236 -2.1575
  640SOL     MW 2560   0.388   1.364   0.085 -0.0093  0.1660 -0.3626
  641SOL     OW 2561   2.319   0.439   0.376 -0.1543 -0.1509  0.1311
  641SOL    HW1 2562   2.331   0.390   0.293 -0.8858 -4.7727  0.5939
  641SOL    HW2 2563   2.393   0.417   0.442  2.9705  0.6109 -0.5853
  641SOL     MW 2564   2.331   0.430   0.374  0.1614 -0.6602  0.0976
  642SOL     OW 2565   3.086   0.015   0.488  0.0256 -0.1858  0.2847
  642SOL    HW1 2566   3.058   0.106   0.494 -1.8806 -1.5536 -0.1127
  642SOL    HW2 2567   3.010  -0.036   0.514  0.5138 -0.4116  0.4654
  642SOL     MW 2568   3.072   0.020   0.492 -0.1615 -0.3960  0.2561
  643SOL     OW 2569   2.050   0.291   1.624 -0.5127  0.2119 -0.1650
  643SOL    HW1 2570   2.132   0.270   1.669 -0.6906  0.4964  0.4262
  643SOL    HW2 2571   2.056   0.231   1.553  1.3295 -0.3992  2.9665
  643SOL     MW 2572   2.062   0.280   1.621 -0.2931  0.1688  0.3261
  644SOL     OW 2573   2.712   1.856   0.923 -0.2532  0.3072  0.4979
  644SOL    HW1 2574   2.659   1.833   1.003  0.7947 -1.4600 -0.0384
  644SOL    HW2 2575   2.671   1.816   0.847 -0.3223  1.4094 -1.4235
  644SOL     MW 2576   2.700   1.847   0.923 -0.1241  0.2194  0.1736
  645SOL     OW 2577   2.750   0.920   0.629 -0.2101 -0.2377  0.0196
  645SOL    HW1 2578   2.807   0.898   0.703  1.3966  0.6894  0.7541
  645SOL    HW2 2579   2.720   0.839   0.588 -0.2572  1.2549  0.1065
  645SOL     MW 2580   2.753   0.906   0.633 -0.0044  0.0816  0.1280
  646SOL     OW 2581   0.125   2.310   0.879  0.6677 -0.0520 -0.2748
  646SOL    HW1 2582   0.167   2.224   0.860 -1.8759 -3.2675 -0.7132
  646SOL    HW2 2583   0.062   2.346   0.816  2.8571 -2.6568 -0.0335
  646SOL     MW 2584   0.122   2.304   0.868  0.6209 -0.8199 -0.3008
  647SOL     OW 2585   2.743   0.571   3.006 -0.0371 -0.1979  0.0244
  647SOL    HW1 2586   2.674   0.514   3.029  0.5301 -5.6254 -2.7786
  647SOL    HW2 2587   2.700   0.660   2.988 -4.7064 -0.6564  0.8500
  647SOL     MW 2588   2.728   0.575   3.006 -0.5783 -0.9745 -0.2365
  648SOL     OW 2589   2.220   0.735   1.099 -0.1316 -0.0416 -0.1756
  648SOL    HW1 2590   2.196   0.784   1.023 -1.9034  3.3032 -0.1354
  648SOL    HW2 2591   2.230   0.797   1.174  1.9191  0.3634 -0.5428
  648SOL     MW 2592   2.218   0.750   1.099 -0.0948  0.4532 -0.2188
  649SOL     OW 2593   2.366   2.682   1.197  0.3008  0.0007  0.0072
  649SOL    HW1 2594   2.445   2.729   1.223  0.8033  1.2546  0.4275
  649SOL    HW2 2595   2.391   2.589   1.206 -0.7886 -0.9736  0.2500
  649SOL     MW 2596   2.379   2.676   1.202  0.2234  0.0376  0.0946
  650SOL     OW 2597   2.764   0.247   0.627  0.5472  0.2115 -0.4334
  650SOL    HW1 2598   2.756   0.292   0.712  0.7547 -1.0993 -1.7794
  650SOL    HW2 2599   2.849   0.269   0.594 -0.5998  0.7030  0.1737
  650SOL     MW 2600   2.774   0.256   0.634  0.4232  0.1034 -0.5309
  651SOL     OW 2601   3.018   0.299   0.830 -1.0746 -0.0756  0.2047
  651SOL    HW1 2602   3.063   0.356   0.765 -1.6636  1.0514 -2.0845
  651SOL    HW2 2603   2.941   0.346   0.863  1.9910  1.7510  0.4309
  651SOL     MW 2604   3.014   0.313   0.826 -0.7478  0.3141 -0.0675
  652SOL     OW 2605   2.394   1.426   2.989 -0.0243 -0.1859  0.0327
  652SOL    HW1 2606   2.478   1.435   2.945 -0.7101 -0.3992 -3.6512
  652SOL    HW2 2607   2.345   1.506   2.964 -0.1130  1.7148  1.6634
  652SOL     MW 2608   2.399   1.438   2.980 -0.1265  0.0367 -0.2382
  653SOL     OW 2609   1.972   0.369   0.409 -0.0965 -0.3046 -0.4128
  653SOL    HW1 2610   1.959   0.299   0.344 -0.0687  1.1619  0.3351
  653SOL    HW2 2611   2.067   0.396   0.410  1.8995  1.2553 -3.5825
  653SOL     MW 2612   1.983   0.363   0.401  0.1705  0.0947 -0.7323
  654SOL     OW 2613   2.462   0.999   0.715  0.2022  0.6833 -0.5784
  654SOL    HW1 2614   2.377   0.991   0.672 -0.6009  2.1250  0.5962
  654SOL    HW2 2615   2.480   0.912   0.746 -0.2141  3.1180  1.9770
  654SOL     MW 2616   2.453   0.987   0.714  0.0413  1.1947 -0.0862
  655SOL     OW 2617   3.077   0.913   0.440 -0.2220 -0.1614  0.0291
  655SOL    HW1 2618   3.113   0.979   0.500  0.9931  1.5203 -0.2085
  655SOL    HW2 2619   3.083   0.835   0.488 -0.4105 -0.3349 -0.5780
  655SOL     MW 2620   3.083   0.911   0.454 -0.0865  0.0376 -0.0824
  656SOL     OW 2621   1.973   2.730   1.214 -0.2640  0.2869 -0.5053
  656SOL    HW1 2622   1.991   2.813   1.256  0.7129 -0.7949  2.9576
  656SOL    HW2 2623   2.005   2.667   1.278  3.6501  0.6389  0.6018
  656SOL     MW 2624   1.980   2.733   1.228  0.3813  0.1906  0.0976
  657SOL     OW 2625   0.196   1.592   1.264  0.1571 -0.5647 -0.1692
  657SOL    HW1 2626   0.111   1.570   1.302  0.8363  2.0723  0.0668
  657SOL    HW2 2627   0.179   1.612   1.169 -1.9795 -0.0241 -0.2702
  657SOL     MW 2628   0.183   1.591   1.257 -0.0352 -0.1454 -0.1514
  658SOL     OW 2629   2.689   1.356   0.243  0.0912  0.5009 -0.3323
  658SOL    HW1 2630   2.612   1.310   0.281  1.3457 -3.6497  0.3370
  658SOL    HW2 2631   2.720   1.429   0.302 -1.2845 -1.1084  0.0267
  658SOL     MW 2632   2.683   1.360   0.256  0.0752 -0.2590 -0.1967
  659SOL     OW 2633   2.202   1.569   1.008 -0.2748 -0.2789  0.4615
  659SOL    HW1 2634   2.290   1.538   0.994  2.2794  0.5429 -0.6717
  659SOL    HW2 2635   2.209   1.597   1.105  1.2895 -1.0811  1.3541
  659SOL     MW 2636   2.215   1.568   1.019  0.2686 -0.2763  0.4297
  660SOL     OW 2637   2.024   1.536   1.782 -0.1956 -0.7695 -0.5161
  660SOL    HW1 2638   2.056   1.549   1.873 -0.0432 -2.3612 -0.8159
  660SOL    HW2 2639   2.007   1.451   1.787  0.0185  2.0688 -0.8323
  660SOL     MW 2640   2.026   1.527   1.795 -0.1472 -0.6050 -0.5973
  661SOL     OW 2641   2.337   1.060   0.136  0.1318 -0.0600  0.2623
  661SOL    HW1 2642   2.417   1.059   0.190  2.1089 -0.9743  2.9092
  661SOL    HW2 2643   2.297   0.975   0.149 -1.9967 -0.0333 -2.4915
  661SOL     MW 2644   2.342   1.049   0.145  0.1118 -0.1771  0.2482
  662SOL     OW 2645   2.545   2.989   0.869 -0.5240 -0.0026  0.0364
  662SOL    HW1 2646   2.506   3.076   0.888  1.7092  3.4179 -0.0247
  662SOL    HW2 2647   2.578   3.004   0.779  1.0964  0.5856  1.3572
  662SOL     MW 2648   2.544   3.003   0.859 -0.0155  0.5263  0.2026
  663SOL     OW 2649   2.815   1.540   0.441 -0.0684  0.3253  0.7827
  663SOL    HW1 2650   2.895   1.568   0.396  3.2552  1.3375 -1.2137
  663SOL    HW2 2651   2.844   1.524   0.532  1.3409 -1.7590  2.0878
  663SOL     MW 2652   2.829   1.542   0.447  0.5561  0.1839  0.6915
  664SOL     OW 2653   2.456   1.593   1.625  0.2208 -0.2266 -0.5210
  664SOL    HW1 2654   2.450   1.691   1.612 -3.1091  1.1196 -0.0216
  664SOL    HW2 2655   2.375   1.555   1.651 -0.4151  0.7066  0.7039
  664SOL     MW 2656   2.444   1.601   1.627 -0.3025  0.0742 -0.2935
  665SOL     OW 2657   2.858   0.818   2.022  0.0839  0.2297 -0.4518
  665SOL    HW1 2658   2.827   0.857   1.938  0.7197 -2.6345 -2.2491
  665SOL    HW2 2659   2.946   0.794   2.001 -0.5176 -0.7836  2.7265
  665SOL     MW 2660   2.865   0.820   2.008  0.0884 -0.2819 -0.2696
  666SOL     OW 2661   2.810   3.010   1.693  0.3447 -0.4546  0.2622
  666SOL    HW1 2662   2.813   3.023   1.594 -0.1601 -4.1454 -0.6253
  666SOL    HW2 2663   2.752   2.934   1.716  0.7906  0.0156  1.3525
  666SOL     MW 2664   2.803   3.002   1.683  0.3369 -0.8795  0.2889
  667SOL     OW 2665   1.928   2.668   1.687  0.3699 -0.1457 -1.2285
  667SOL    HW1 2666   1.969   2.588   1.712 -0.4975  1.3448 -1.8569
  667SOL    HW2 2667   1.999   2.734   1.681 -1.2445 -0.5561 -2.7009
  667SOL     MW 2668   1.943   2.666   1.690  0.0425 -0.0032 -1.5057
  668SOL     OW 2669   2.698   0.641   0.783  0.0158  0.8044  0.2739
  668SOL    HW1 2670   2.777   0.653   0.833 -1.7971 -2.8148 -0.3250
  668SOL    HW2 2671   2.628   0.690   0.824  1.7198 -1.5062 -0.3169
  668SOL     MW 2672   2.699   0.649   0.795  0.0015  0.0220  0.1170
  669SOL     OW 2673   0.149   0.939   0.726  0.5136  0.1243 -0.3135
  669SOL    HW1 2674   0.083   1.003   0.770 -3.7864 -0.2831 -2.3352
  669SOL    HW2 2675   0.234   0.962   0.753 -0.3701  1.8121  2.2324
  669SOL     MW 2676   0.151   0.951   0.735 -0.1703  0.2932 -0.2443
  670SOL     OW 2677   2.862   0.300   0.248 -0.8032 -0.3673 -0.0364
  670SOL    HW1 2678   2.917   0.271   0.175  0.7450  1.4470  2.0121
  670SOL    HW2 2679   2.853   0.394   0.236  0.1482 -1.3916 -0.4772
  670SOL     MW 2680   2.868   0.309   0.237 -0.4734 -0.2631  0.1757
  671SOL     OW 2681   2.155   3.079   1.604  0.4070  0.3336  0.3808
  671SOL    HW1 2682   2.148   3.107   1.508 -3.4814 -3.7226  0.2949
  671SOL    HW2 2683   2.062   3.065   1.641  0.8153  4.1447 -2.4178
  671SOL     MW 2684   2.142   3.080   1.596 -0.0521  0.3013  0.0002
  672SOL     OW 2685   1.909   1.694   1.353 -0.1145  0.4287  0.0495
  672SOL    HW1 2686   1.822   1.732   1.359 -0.8045 -1.6289  0.4769
  672SOL    HW2 2687   1.933   1.713   1.260 -0.3626  0.4166 -2.9323
  672SOL     MW 2688   1.901   1.701   1.342 -0.2382  0.1556 -0.2875
  673SOL     OW 2689   2.773   1.142   0.483 -0.4205 -0.4644 -0.1617
  673SOL    HW1 2690   2.761   1.063   0.539  0.9486 -0.4891  3.4495
  673SOL    HW2 2691   2.847   1.172   0.534 -0.1027 -0.2180  2.2267
  673SOL     MW 2692   2.781   1.135   0.497 -0.1979 -0.4352  0.6299
  674SOL     OW 2693   2.401   0.041   1.290 -0.2439 -0.5826 -0.0201
  674SOL    HW1 2694   2.404   0.054   1.194  0.8630  2.0605  0.5789
  674SOL    HW2 2695   2.418  -0.057   1.301  2.3832 -1.1650 -0.4697
  674SOL     MW 2696   2.404   0.030   1.278  0.2487 -0.3107 -0.0004
  675SOL     OW 2697   2.953   0.988   1.099  0.1163  0.7290  0.4863
  675SOL    HW1 2698   3.021   0.947   1.149 -0.1785 -2.6405 -2.6118
  675SOL    HW2 2699   2.999   1.011   1.019  2.7082  2.2070 -1.8977
  675SOL     MW 2700   2.968   0.986   1.095  0.4194  0.4795 -0.2370
  676SOL     OW 2701   2.857   1.522   1.657 -0.2403 -0.7067 -0.6913
  676SOL    HW1 2702   2.802   1.448   1.640 -1.4870  0.9402 -0.2364
  676SOL    HW2 2703   2.915   1.486   1.720  2.7401  1.9663  0.8719
  676SOL     MW 2704   2.857   1.507   1.663 -0.0115 -0.1367 -0.4250
  677SOL     OW 2705   2.477   0.851   1.827 -0.3415  0.2700  0.0550
  677SOL    HW1 2706   2.419   0.812   1.768  0.7426  2.8633 -0.0954
  677SOL    HW2 2707   2.418   0.861   1.904  3.8930 -2.8350  1.7667
  677SOL     MW 2708   2.462   0.847   1.829  0.3602  0.2024  0.2610
  678SOL     OW 2709   2.516   1.580   0.516 -0.2825  0.7865 -0.8999
  678SOL    HW1 2710   2.449   1.613   0.457 -0.9245 -2.7267 -1.0378
  678SOL    HW2 2711   2.599   1.607   0.475  0.8463 -2.0544  1.0605
  678SOL     MW 2712   2.518   1.588   0.503 -0.2183 -0.0519 -0.6595
  679SOL     OW 2713   2.397   0.523   1.195  0.3140 -0.4752 -0.5795
  679SOL    HW1 2714   2.326   0.457   1.180  0.0791 -1.2063 -0.2201
  679SOL    HW2 2715   2.365   0.605   1.161 -0.4743 -0.1874  1.3456
  679SOL     MW 2716   2.383   0.525   1.188  0.1790 -0.5337 -0.2781
  680SOL     OW 2717   2.429   0.242   1.498 -0.3397  0.3491 -0.3936
  680SOL    HW1 2718   2.388   0.189   1.563  2.8445 -0.7193 -2.6174
  680SOL    HW2 2719   2.428   0.189   1.417  0.4067  2.6355  1.7628
  680SOL     MW 2720   2.423   0.228   1.496  0.1789  0.5098 -0.4025
  681SOL     OW 2721   0.278   0.497   1.544 -0.4704 -0.2822  0.4125
  681SOL    HW1 2722   0.282   0.408   1.593 -0.0367  0.5017  0.4829
  681SOL    HW2 2723   0.371   0.515   1.525  1.0956  0.6166  0.9493
  681SOL     MW 2724   0.291   0.487   1.548 -0.2066 -0.0602  0.4926
  682SOL     OW 2725   0.141   2.993   1.487 -1.1245  0.4350 -0.1455
  682SOL    HW1 2726   0.156   3.095   1.488  1.6178 -1.0180 -0.4676
  682SOL    HW2 2727   0.074   2.987   1.554 -0.6588  1.7655 -1.6465
  682SOL     MW 2728   0.134   3.006   1.496 -0.7012  0.4189 -0.3860
  683SOL     OW 2729   1.952   0.794   2.980  0.4840  0.2190 -0.7614
  683SOL    HW1 2730   1.871   0.755   2.934 -0.2798  0.2317  0.8595
  683SOL    HW2 2731   1.934   0.887   3.012  1.2253  2.0041  0.8030
  683SOL     MW 2732   1.939   0.801   2.978  0.4810  0.4562 -0.3411
  684SOL     OW 2733   2.108   1.730   0.803 -0.1245  0.2863 -0.5549
  684SOL    HW1 2734   2.016   1.710   0.800  1.4973  1.0584 -1.1589
  684SOL    HW2 2735   2.152   1.679   0.872  1.0691  0.2497 -0.3751
  684SOL     MW 2736   2.102   1.720   0.812  0.2470  0.3833 -0.6108
  685SOL     OW 2737   2.642   1.727   1.189  0.0007 -0.0955  0.0457
  685SOL    HW1 2738   2.722   1.745   1.244  0.0532 -1.8255  0.6715
  685SOL    HW2 2739   2.630   1.631   1.204 -1.1754 -0.5030  0.0193
  685SOL     MW 2740   2.651   1.717   1.198 -0.1475 -0.3775  0.1248
  686SOL     OW 2741   2.962   0.707   1.507  0.5372  0.1800 -0.0207
  686SOL    HW1 2742   2.995   0.677   1.590 -1.2682  0.2517 -1.9642
  686SOL    HW2 2743   3.028   0.664   1.454  0.6735  1.9414  0.8243
  686SOL     MW 2744   2.975   0.698   1.511  0.3170  0.4219 -0.1656
  687SOL     OW 2745   2.185   0.327   1.228 -0.3195  0.1981 -0.3669
  687SOL    HW1 2746   2.175   0.281   1.144 -0.5030 -0.4412 -2.1780
  687SOL    HW2 2747   2.112   0.387   1.233  0.8483 -1.2878  0.8225
  687SOL     MW 2748   2.174   0.328   1.217 -0.1897 -0.0823 -0.4489
  688SOL     OW 2749   2.360   0.521   1.486 -0.0196 -0.1269 -0.2210
  688SOL    HW1 2750   2.394   0.451   1.539  0.4534  2.1469 -0.5508
  688SOL    HW2 2751   2.357   0.489   1.397  0.4590  1.0204  1.2223
  688SOL     MW 2752   2.364   0.508   1.481  0.1060  0.3245 -0.0741
  689SOL     OW 2753   2.567   0.776   2.973 -0.2078 -0.3060  0.5043
  689SOL    HW1 2754   2.602   0.847   2.913 -0.0796 -3.7297 -1.2905
  689SOL    HW2 2755   2.568   0.820   3.058  1.7260  0.1921  0.5410
  689SOL     MW 2756   2.572   0.792   2.976  0.0643 -0.6920  0.2723
  690SOL     OW 2757   2.059   1.027   1.959  0.0054 -0.0434  0.6288
  690SOL    HW1 2758   2.011   0.951   1.980  0.1669  0.1825  0.2372
  690SOL    HW2 2759   2.096   1.007   1.873 -1.2544 -0.7729  2.9590
  690SOL     MW 2760   2.058   1.014   1.950 -0.1395 -0.1098  0.8846
  691SOL     OW 2761   2.444   0.361   0.859 -0.3777 -0.3699 -0.0252
  691SOL    HW1 2762   2.520   0.414   0.825  1.3518 -0.0072 -0.9978
  691SOL    HW2 2763   2.375   0.422   0.847 -1.6628 -2.1502 -0.6110
  691SOL     MW 2764   2.445   0.376   0.853 -0.3190 -0.5569 -0.2308
  692SOL     OW 2765   2.819   1.658   1.413 -0.5767  0.3295  0.5566
  692SOL    HW1 2766   2.804   1.619   1.497 -2.2570 -2.0785  2.7591
  692SOL    HW2 2767   2.840   1.752   1.429 -1.3091 -3.3792  0.2797
  692SOL     MW 2768   2.820   1.665   1.426 -0.8950 -0.4775  0.8106
  693SOL     OW 2769   2.321   0.453   0.087 -0.3350 -0.2789 -0.0780
  693SOL    HW1 2770   2.249   0.396   0.088  3.1404 -0.3646 -0.4361
  693SOL    HW2 2771   2.298   0.541   0.056 -0.9900 -0.4788 -0.1648
  693SOL     MW 2772   2.308   0.457   0.083  0.0371 -0.3165 -0.1367
  694SOL     OW 2773   1.971   1.276   1.209  0.3117  0.7934 -0.3398
  694SOL    HW1 2774   2.055   1.244   1.184  0.1255  0.5314  1.3704
  694SOL    HW2 2775   1.930   1.197   1.245  0.2423  1.0014  2.1469
  694SOL     MW 2776   1.977   1.262   1.210  0.2780  0.7862  0.2139
  695SOL     OW 2777   3.044   1.531   1.347  0.3045  0.1355 -0.5087
  695SOL    HW1 2778   3.031   1.496   1.257 -1.2709 -0.8122 -1.8276
  695SOL    HW2 2779   2.973   1.594   1.357 -0.6954 -0.2531 -0.5525
  695SOL     MW 2780   3.033   1.535   1.336 -0.0353 -0.0408 -0.6885
  696SOL     OW 2781   2.016   1.363   0.947 -0.0972  0.3561  0.1214
  696SOL    HW1 2782   2.085   1.432   0.960  2.1870 -0.7684 -1.7282
  696SOL    HW2 2783   1.984   1.351   1.036 -0.7849 -1.6412 -0.4294
  696SOL     MW 2784   2.021   1.371   0.961  0.1135 -0.0558 -0.1953
  697SOL     OW 2785   2.866   0.980   2.256  0.1073 -1.1333 -0.0405
  697SOL    HW1 2786   2.850   1.067   2.230 -0.6259 -1.0202 -0.7549
  697SOL    HW2 2787   2.901   0.931   2.177  2.3587  0.5678 -0.4904
  697SOL     MW 2788   2.869   0.985   2.242  0.3076 -0.8939 -0.1941
  698SOL     OW 2789   2.544   0.410   3.049  0.1607 -0.0364  0.7270
  698SOL    HW1 2790   2.462   0.442   3.085  1.2841 -1.1606 -1.3839
  698SOL    HW2 2791   2.570   0.336   3.103  0.6739 -1.6105  0.0355
  698SOL     MW 2792   2.536   0.404   3.061  0.3766 -0.3924  0.3573
  699SOL     OW 2793   1.835   1.621   2.050  0.2007 -0.3001  0.7050
  699SOL    HW1 2794   1.798   1.533   2.069 -1.1094  1.2577 -2.0791
  699SOL    HW2 2795   1.932   1.617   2.049  0.2435 -1.3827 -0.4750
  699SOL     MW 2796   1.843   1.609   2.053  0.0335 -0.2374  0.1820
  700SOL     OW 2797   2.719   0.885   1.552  0.5599  0.0031 -0.0887
  700SOL    HW1 2798   2.730   0.957   1.483 -1.1455  1.2261 -0.5892
  700SOL    HW2 2799   2.788   0.821   1.543  1.3461  0.3287 -0.0264
  700SOL     MW 2800   2.729   0.886   1.542  0.4386  0.2074 -0.1465
  701SOL     OW 2801   1.673   1.290   2.611 -0.0817 -0.2543  0.6305
  701SOL    HW1 2802   1.761   1.291   2.650 -1.3030 -2.8438  2.1916
  701SOL    HW2 2803   1.629   1.352   2.677  0.6148  1.0546  1.3013
  701SOL     MW 2804   1.679   1.299   2.625 -0.1509 -0.4232  0.9250
  702SOL     OW 2805   2.218   0.493   0.748 -0.1422 -0.4067 -0.3464
  702SOL    HW1 2806   2.214   0.414   0.705  0.7155  1.2653  2.5574
  702SOL    HW2 2807   2.234   0.569   0.689  1.0390  1.0055 -0.1826
  702SOL     MW 2808   2.220   0.493   0.734  0.1268  0.0002  0.0583
  703SOL     OW 2809   2.680   1.277   0.997 -0.4359 -0.0750 -0.1269
  703SOL    HW1 2810   2.698   1.240   0.906 -1.9742 -4.1990  0.0176
  703SOL    HW2 2811   2.675   1.196   1.049 -0.7934 -1.2628 -1.6521
  703SOL     MW 2812   2.681   1.261   0.992 -0.6860 -0.7758 -0.3091
  704SOL     OW 2813   0.011   1.304   0.242 -0.0723  0.1074  0.5184
  704SOL    HW1 2814  -0.066   1.261   0.210  0.2367 -1.0936  0.7709
  704SOL    HW2 2815   0.077   1.234   0.231  3.7028 -1.5028  0.5464
  704SOL     MW 2816   0.010   1.289   0.236  0.4665 -0.2635  0.5554
  705SOL     OW 2817   2.229   1.621   1.326 -0.1783 -0.5792  0.0998
  705SOL    HW1 2818   2.139   1.634   1.361 -1.5422  0.1550  1.3337
  705SOL    HW2 2819   2.262   1.539   1.344 -1.6773  1.5864 -1.7497
  705SOL     MW 2820   2.221   1.612   1.333 -0.5560 -0.1966  0.0185
  706SOL     OW 2821   2.994   1.235   0.641  0.3338 -0.3707 -0.0264
  706SOL    HW1 2822   3.074   1.218   0.596  0.9562 -2.8849  1.8922
  706SOL    HW2 2823   2.962   1.327   0.656  0.2414  2.6450  0.4136
  706SOL     MW 2824   3.000   1.245   0.637  0.4037 -0.3045  0.2848
  707SOL     OW 2825   2.461   0.115   1.015 -0.2090  0.2336  0.1066
  707SOL    HW1 2826   2.503   0.204   1.006  0.2071  1.2242  0.5821
  707SOL    HW2 2827   2.370   0.133   1.022 -0.1000 -0.8810  1.8848
  707SOL     MW 2828   2.455   0.129   1.015 -0.1397  0.2173  0.4039
  708SOL     OW 2829   2.551   1.531   0.090  0.0071 -0.0010 -0.4362
  708SOL    HW1 2830   2.608   1.468   0.139 -0.2543 -2.9308 -1.9716
  708SOL    HW2 2831   2.502   1.484   0.016 -1.7078 -1.0337 -4.0555
  708SOL     MW 2832   2.552   1.517   0.087 -0.2537 -0.5238 -1.1163
  709SOL     OW 2833   1.774   1.694   0.135 -0.1088  0.8154  0.2910
  709SOL    HW1 2834   1.789   1.606   0.091 -1.8781 -2.3017 -1.8085
  709SOL    HW2 2835   1.710   1.672   0.203  2.6054 -1.1424  0.6834
  709SOL     MW 2836   1.767   1.680   0.138  0.0159  0.1458  0.0658
  710SOL     OW 2837   2.234   1.190   1.203  0.0241  0.2207 -0.5737
  710SOL    HW1 2838   2.258   1.179   1.115  0.0892  1.7811  1.9209
  710SOL    HW2 2839   2.241   1.098   1.227  1.7911 -2.5430 -1.4344
  710SOL     MW 2840   2.238   1.176   1.195  0.2659  0.0620 -0.3581
  711SOL     OW 2841   2.334   0.147   1.750  0.4267  0.2694 -0.5413
  711SOL    HW1 2842   2.417   0.110   1.769 -0.9355  1.8026 -0.3457
  711SOL    HW2 2843   2.285   0.082   1.709  2.4704  0.2492  2.1661
  711SOL     MW 2844   2.339   0.133   1.747  0.5166  0.4690 -0.1583
  712SOL     OW 2845   1.599   0.641   3.072  0.0932 -0.5133  0.1572
  712SOL    HW1 2846   1.630   0.700   3.003 -0.8865  1.8250  0.6161
  712SOL    HW2 2847   1.513   0.675   3.105 -2.8376  0.8832 -2.2077
  712SOL     MW 2848   1.592   0.653   3.068 -0.4228 -0.0205 -0.0943
  713SOL     OW 2849   2.593   0.780   1.155  0.0519  0.4919 -0.0083
  713SOL    HW1 2850   2.608   0.678   1.142 -0.3073 -0.7583  1.7245
  713SOL    HW2 2851   2.560   0.789   1.247  2.5879 -2.6328 -0.3032
  713SOL     MW 2852   2.591   0.768   1.166  0.3391 -0.0853  0.1814
  714SOL     OW 2853   2.255   0.158   2.017  0.3171  0.7838 -0.1377
  714SOL    HW1 2854   2.340   0.144   2.057  0.1752 -0.8617 -0.2991
  714SOL    HW2 2855   2.283   0.167   1.920  1.5795 -1.3994  0.7271
  714SOL     MW 2856   2.270   0.158   2.009  0.4649  0.2787 -0.0449
  715SOL     OW 2857   1.760   1.943   1.730  0.4104  0.2969  0.5275
  715SOL    HW1 2858   1.840   1.917   1.678  0.1015  0.8181 -0.2649
  715SOL    HW2 2859   1.717   1.859   1.757 -0.1652 -2.9818 -0.7146
  715SOL     MW 2860   1.765   1.929   1.727  0.2937 -0.0670  0.2591
  716SOL     OW 2861   2.229   0.710   0.601  0.7884 -0.2581  0.6649
  716SOL    HW1 2862   2.282   0.737   0.530  1.4231  1.2182 -0.1209
  716SOL    HW2 2863   2.147   0.682   0.552  1.5850 -0.5872 -2.0800
  716SOL     MW 2864   2.225   0.710   0.585  0.9773 -0.1068  0.1991
  717SOL     OW 2865   2.879   1.428   2.954 -0.3499 -0.2208 -0.5473
  717SOL    HW1 2866   2.970   1.439   2.966  0.3548  0.1835 -0.7689
  717SOL    HW2 2867   2.841   1.495   3.013 -2.7575  1.7419 -1.1705
  717SOL     MW 2868   2.886   1.439   2.964 -0.5746  0.0915 -0.6588
  718SOL     OW 2869   2.568   1.486   1.289  0.3257 -0.2741  0.3493
  718SOL    HW1 2870   2.568   1.533   1.371  0.9200 -1.6954 -1.9994
  718SOL    HW2 2871   2.639   1.419   1.297 -1.7310  1.0200  2.0433
  718SOL     MW 2872   2.578   1.483   1.301  0.1328 -0.2909  0.2629
  719SOL     OW 2873   2.142   1.327   0.687 -0.4526 -0.3950  0.0078
  719SOL    HW1 2874   2.235   1.321   0.699 -0.6179 -2.8541  1.3653
  719SOL    HW2 2875   2.104   1.355   0.771  3.0611  2.7768  2.4991
  719SOL     MW 2876   2.149   1.330   0.700 -0.0108 -0.3010  0.5156
  720SOL     OW 2877   2.855   1.182   0.148  0.3684  0.1616  0.0310
  720SOL    HW1 2878   2.849   1.119   0.221 -0.2337  3.7199 -1.8245
  720SOL    HW2 2879   2.788   1.245   0.181 -0.2150  0.2352  2.1309
  720SOL     MW 2880   2.845   1.182   0.162  0.2120  0.6408  0.0632
  721SOL     OW 2881   2.469   0.778   1.395  0.4426 -0.0473 -0.1586
  721SOL    HW1 2882   2.461   0.694   1.439  1.0164  0.2467 -2.7580
  721SOL    HW2 2883   2.528   0.817   1.457 -3.3046  0.4259 -1.1100
  721SOL     MW 2884   2.476   0.772   1.409  0.0239  0.0539 -0.6271
  722SOL     OW 2885   2.509   1.174   0.357  0.3884  0.5909  0.2660
  722SOL    HW1 2886   2.462   1.214   0.433 -0.4076  0.3282  0.9004
  722SOL    HW2 2887   2.598   1.144   0.383  2.0248 -0.8958  1.1814
  722SOL     MW 2888   2.514   1.175   0.370  0.4993  0.3601  0.4705
  723SOL     OW 2889   2.251   1.386   1.629  0.1618  0.2043 -0.0842
  723SOL    HW1 2890   2.285   1.393   1.538  1.2221  1.3555 -0.6291
  723SOL    HW2 2891   2.162   1.421   1.629 -0.4425  0.3188 -0.3112
  723SOL     MW 2892   2.244   1.391   1.617  0.2220  0.3713 -0.1861
  724SOL     OW 2893   2.495   0.367   0.568 -0.0757  0.0357 -0.6425
  724SOL    HW1 2894   2.474   0.323   0.646  0.4053  0.6849  0.8840
  724SOL    HW2 2895   2.575   0.327   0.537  1.1533  2.2967 -1.3470
  724SOL     MW 2896   2.503   0.356   0.574  0.1499  0.4197 -0.5341
  725SOL     OW 2897   2.657   0.509   1.130  0.4687  0.2944 -0.1646
  725SOL    HW1 2898   2.711   0.490   1.211  2.4605  0.3117 -0.4294
  725SOL    HW2 2899   2.565   0.506   1.158 -0.6332 -1.4722  0.9500
  725SOL     MW 2900   2.652   0.506   1.145  0.5861  0.0636 -0.0525
  726SOL     OW 2901   2.568   2.394   0.555 -0.0126 -0.3009 -0.3389
  726SOL    HW1 2902   2.514   2.427   0.487 -2.2959  1.2518  4.3771
  726SOL    HW2 2903   2.533   2.429   0.634  1.4684 -2.4926 -1.0184
  726SOL     MW 2904   2.557   2.403   0.556 -0.1184 -0.3852  0.1937
  727SOL     OW 2905   2.893   0.288   1.662 -0.1235  0.3033  0.3685
  727SOL    HW1 2906   2.896   0.252   1.571  1.2705 -2.1397 -0.9474
  727SOL    HW2 2907   2.802   0.314   1.675  1.3530 -0.3266 -3.2072
  727SOL     MW 2908   2.882   0.287   1.652  0.2552 -0.1021 -0.2769
  728SOL     OW 2909   2.794   1.153   3.000  0.8893 -0.0138 -0.1898
  728SOL    HW1 2910   2.845   1.230   2.986  0.7295  1.0855  1.7650
  728SOL    HW2 2911   2.797   1.146   3.097  0.4903 -0.2111 -3.5510
  728SOL     MW 2912   2.801   1.163   3.011  0.8156  0.1053 -0.3753
  729SOL     OW 2913   2.468   1.462   1.010  0.0117  0.0732  0.6100
  729SOL    HW1 2914   2.503   1.476   1.102  1.2405  0.5995  2.6209
  729SOL    HW2 2915   2.513   1.383   0.994  0.0257  0.9451 -0.0251
  729SOL     MW 2916   2.479   1.453   1.020  0.1757  0.2577  0.7915
  730SOL     OW 2917   2.072   1.185   0.181  0.1609  0.1606  0.2692
  730SOL    HW1 2918   2.167   1.190   0.164  1.5091 -1.1151  1.5378
  730SOL    HW2 2919   2.048   1.274   0.208 -2.9643  0.8233 -0.7520
  730SOL     MW 2920   2.082   1.198   0.182 -0.0735  0.0798  0.3019
  731SOL     OW 2921   2.794   1.802   2.878 -0.1915 -0.2360  0.1589
  731SOL    HW1 2922   2.709   1.842   2.860 -0.8952 -1.3857 -0.1963
  731SOL    HW2 2923   2.831   1.888   2.903 -0.1072  0.7125  1.1448
  731SOL     MW 2924   2.788   1.818   2.879 -0.2732 -0.2625  0.2421
  732SOL     OW 2925   2.225   0.929   1.292 -0.1800  0.0360  0.3193
  732SOL    HW1 2926   2.151   0.916   1.347 -0.7027  1.4118  1.1400
  732SOL    HW2 2927   2.301   0.970   1.345 -0.2835 -2.4142  1.8010
  732SOL     MW 2928   2.225   0.933   1.306 -0.2626 -0.1058  0.6230
  733SOL     OW 2929   2.376   2.847   3.007 -0.1101  0.3902 -0.7836
  733SOL    HW1 2930   2.294   2.901   2.991 -1.7828  0.5532 -2.0575
  733SOL    HW2 2931   2.344   2.762   3.037  1.0381 -1.2233 -0.1570
  733SOL     MW 2932   2.361   2.843   3.009 -0.1793  0.1988 -0.8690
  734SOL     OW 2933   1.507   0.384   2.535  0.2271 -0.2748 -0.2362
  734SOL    HW1 2934   1.454   0.316   2.590 -2.1013  0.0811  1.4490
  734SOL    HW2 2935   1.568   0.337   2.486 -0.8498  0.6320  2.0957
  734SOL     MW 2936   1.508   0.369   2.536 -0.2222 -0.1082  0.2938
  735SOL     OW 2937   2.972   0.873   2.733 -0.2644 -0.3772 -0.8470
  735SOL    HW1 2938   2.876   0.865   2.720 -0.1498  1.1117  1.3697
  735SOL    HW2 2939   2.980   0.941   2.800 -1.8280 -2.9863 -0.7411
  735SOL     MW 2940   2.961   0.881   2.740 -0.4556 -0.5250 -0.5405
  736SOL     OW 2941   0.043   0.641   2.472  0.1634 -0.3851 -0.1092
  736SOL    HW1 2942   0.092   0.684   2.399  0.3101 -1.7506 -0.9134
  736SOL    HW2 2943   0.057   0.546   2.453  0.6791 -0.5599 -1.2351
  736SOL     MW 2944   0.051   0.634   2.460  0.2508 -0.5883 -0.3638
  737SOL     OW 2945   2.885   0.621   2.557  0.1812 -0.2097 -0.0020
  737SOL    HW1 2946   2.839   0.567   2.494  1.6851  0.6067  1.6803
  737SOL    HW2 2947   2.975   0.634   2.517  0.1138  0.3026 -0.8574
  737SOL     MW 2948   2.891   0.616   2.543  0.3707 -0.0344  0.1071
  738SOL     OW 2949   0.168   0.415   1.909 -0.1630  0.6220  0.4416
  738SOL    HW1 2950   0.255   0.439   1.910 -0.3383  0.2837  0.1348
  738SOL    HW2 2951   0.172   0.337   1.856  1.6373  2.2040 -0.0334
  738SOL     MW 2952   0.180   0.408   1.902  0.0514  0.7861  0.3384
  739SOL     OW 2953   2.558   1.029   2.206 -0.0854  0.2292  0.1733
  739SOL    HW1 2954   2.468   1.031   2.177 -0.5771 -3.1104 -1.0621
  739SOL    HW2 2955   2.611   1.045   2.125  0.7460 -1.2747 -0.4418
  739SOL     MW 2956   2.553   1.032   2.191 -0.0405 -0.4098 -0.0709
  740SOL     OW 2957   0.264   1.705   2.943 -0.4367  0.0494  0.4228
  740SOL    HW1 2958   0.267   1.616   2.911  0.2447 -1.0168  1.1201
  740SOL    HW2 2959   0.344   1.705   3.001 -0.9357  0.1339  1.1706
  740SOL     MW 2960   0.275   1.693   2.946 -0.4126 -0.0801  0.6134
  741SOL     OW 2961   2.222   1.274   2.681  0.2020  0.2398  0.9035
  741SOL    HW1 2962   2.240   1.354   2.631  1.1264  0.1120  2.6677
  741SOL    HW2 2963   2.189   1.308   2.768 -2.1558  1.5932  1.4307
  741SOL     MW 2964   2.220   1.289   2.686  0.0129  0.4015  1.2059
  742SOL     OW 2965   1.584   1.371   2.334  0.3546 -0.1087 -0.1367
  742SOL    HW1 2966   1.542   1.287   2.317  1.4555  1.7840  3.1831
  742SOL    HW2 2967   1.624   1.356   2.425  0.0483  0.9709 -0.2184
  742SOL     MW 2968   1.584   1.358   2.344  0.4594  0.2835  0.2906
  743SOL     OW 2969   2.488   1.207   2.699 -0.2597  0.1277  0.0506
  743SOL    HW1 2970   2.395   1.227   2.712  2.5979 -1.1172  3.0801
  743SOL    HW2 2971   2.506   1.125   2.736  0.8090 -0.8259 -0.1174
  743SOL     MW 2972   2.478   1.199   2.706  0.2583 -0.1624  0.4281
  744SOL     OW 2973   2.772   0.952   1.805  0.0668 -1.0433  0.0452
  744SOL    HW1 2974   2.712   1.019   1.847  1.4087  1.2811  2.0975
  744SOL    HW2 2975   2.715   0.933   1.728  0.1154 -1.6500 -0.1522
  744SOL     MW 2976   2.757   0.958   1.800  0.2503 -0.8167  0.2900
  745SOL     OW 2977   1.764   0.485   2.461 -0.5911  0.2293 -0.4466
  745SOL    HW1 2978   1.749   0.525   2.369 -0.9598  0.5503  3.7521
  745SOL    HW2 2979   1.670   0.488   2.493 -1.4277  1.5511 -3.0049
  745SOL     MW 2980   1.749   0.491   2.453 -0.7501  0.4461 -0.2302
  746SOL     OW 2981   1.584   1.438   1.720 -0.1810  0.2302 -0.5732
  746SOL    HW1 2982   1.627   1.518   1.745  0.5403  0.7525  2.5822
  746SOL    HW2 2983   1.547   1.413   1.802 -1.8829  1.1654  0.8905
  746SOL     MW 2984   1.585   1.445   1.734 -0.3104  0.4225  0.0362
  747SOL     OW 2985   2.611   1.131   1.911 -0.2232 -0.1280 -0.3495
  747SOL    HW1 2986   2.525   1.130   1.863 -2.0468  1.6371 -0.3897
  747SOL    HW2 2987   2.613   1.219   1.959 -2.1132  1.3120 -0.1338
  747SOL     MW 2988   2.600   1.143   1.911 -0.7131  0.2949 -0.3263
  748SOL     OW 2989   0.121   3.057   1.969 -0.3609  1.5944  0.0332
  748SOL    HW1 2990   0.216   3.072   1.944  2.0731 -1.5061 -2.7353
  748SOL    HW2 2991   0.086   3.131   2.015 -1.8562  1.6721  1.4708
  748SOL     MW 2992   0.129   3.068   1.972 -0.2370  1.1955 -0.1424
  749SOL     OW 2993   2.420   0.647   2.777  0.3031  0.6233 -0.6994
  749SOL    HW1 2994   2.409   0.719   2.718  0.8820 -2.7030  1.0110
  749SOL    HW2 2995   2.466   0.686   2.860  0.4056 -0.8825 -2.1213
  749SOL     MW 2996   2.425   0.662   2.780  0.3930 -0.0143 -0.6613
  750SOL     OW 2997   2.101   3.028   1.985  0.8162 -1.1716 -1.2105
  750SOL    HW1 2998   2.156   3.111   2.004  1.7002 -0.7928  0.2708
  750SOL    HW2 2999   2.154   2.962   1.946  0.2883  0.3784 -0.2292
  750SOL     MW 3000   2.115   3.030   1.983  0.8632 -0.9171 -0.8856
  751SOL     OW 3001   0.015   0.366   2.438 -0.2556 -0.0314 -0.0607
  751SOL    HW1 3002  -0.073   0.361   2.391 -0.9845 -0.6666 -1.2821
  751SOL    HW2 3003   0.082   0.352   2.369 -4.3155  0.3885 -1.2689
  751SOL     MW 3004   0.012   0.363   2.423 -0.8874 -0.0598 -0.3813
  752SOL     OW 3005   2.150   0.956   2.803 -0.1578 -0.3081  0.3885
  752SOL    HW1 3006   2.218   0.984   2.868 -1.4332  0.0215  3.7196
  752SOL    HW2 3007   2.108   0.883   2.849 -0.6788 -1.5509 -1.4263
  752SOL     MW 3008   2.154   0.950   2.817 -0.3948 -0.4286  0.5886
  753SOL     OW 3009   2.866   0.300   2.328  0.4202  0.1127 -0.0768
  753SOL    HW1 3010   2.815   0.214   2.325 -0.4094  1.0545 -1.5760
  753SOL    HW2 3011   2.799   0.365   2.338  2.2717 -1.7847 -0.3256
  753SOL     MW 3012   2.850   0.298   2.329  0.5550 -0.0134 -0.3074
  754SOL     OW 3013   2.259   3.010   2.613  0.3153 -0.2914  0.0406
  754SOL    HW1 3014   2.246   2.968   2.528 -0.9767 -1.1203  1.5596
  754SOL    HW2 3015   2.341   2.972   2.652  0.4794 -0.0263 -0.9037
  754SOL     MW 3016   2.268   2.999   2.607  0.1665 -0.3658  0.1164
  755SOL     OW 3017   2.760   1.614   2.390  0.1003  0.2947  0.4185
  755SOL    HW1 3018   2.722   1.522   2.389 -1.7072 -0.9454  2.0966
  755SOL    HW2 3019   2.778   1.629   2.484  1.2049 -0.7068 -2.2566
  755SOL     MW 3020   2.757   1.604   2.402  0.0075 -0.0011  0.2870
  756SOL     OW 3021   2.186   1.244   2.963 -0.4554  0.0989 -0.1774
  756SOL    HW1 3022   2.253   1.309   2.975 -0.8069  0.0374 -1.1592
  756SOL    HW2 3023   2.240   1.163   2.955 -2.5072 -0.0011  0.0164
  756SOL     MW 3024   2.202   1.242   2.964 -0.7725  0.0776 -0.2813
  757SOL     OW 3025   2.189   0.958   1.735  0.3726 -0.2894  0.9307
  757SOL    HW1 3026   2.201   0.862   1.726 -0.9701 -0.5920 -2.9695
  757SOL    HW2 3027   2.120   0.966   1.661  1.1583  0.3445 -0.3833
  757SOL     MW 3028   2.181   0.946   1.724  0.2991 -0.2457  0.2428
  758SOL     OW 3029   2.190   1.836   2.542  0.2599 -0.1123  0.7832
  758SOL    HW1 3030   2.191   1.900   2.464  2.5406 -2.2008 -0.3420
  758SOL    HW2 3031   2.279   1.796   2.536  0.0667  0.3742  1.8310
  758SOL     MW 3032   2.201   1.839   2.531  0.5353 -0.3236  0.7730
  759SOL     OW 3033   1.583   1.460   2.804 -0.1688 -0.1226 -0.3199
  759SOL    HW1 3034   1.601   1.536   2.736 -0.7371  1.3772 -1.8319
  759SOL    HW2 3035   1.643   1.486   2.875  1.2240 -0.4827  1.6298
  759SOL     MW 3036   1.593   1.474   2.804 -0.0600  0.0278 -0.2622
  760SOL     OW 3037   2.581   1.927   2.714  0.6050 -0.2773 -0.2953
  760SOL    HW1 3038   2.541   1.845   2.690  0.2275  0.5572 -2.4533
  760SOL    HW2 3039   2.649   1.942   2.651 -0.2208  1.3004  1.2933
  760SOL     MW 3040   2.585   1.918   2.703  0.4463  0.0410 -0.3704
  761SOL     OW 3041   2.302   0.441   2.403 -0.3200  0.1701  0.4430
  761SOL    HW1 3042   2.207   0.425   2.420  0.9164  1.5311  1.5783
  761SOL    HW2 3043   2.338   0.451   2.493 -3.9430  0.6490  0.0660
  761SOL     MW 3044   2.294   0.440   2.417 -0.6349  0.4128  0.5430
  762SOL     OW 3045   0.024   0.184   2.121  0.1428 -0.3151 -0.5419
  762SOL    HW1 3046  -0.019   0.146   2.201  0.3131  1.1944 -0.1051
  762SOL    HW2 3047  -0.044   0.229   2.072 -0.4964 -1.3739 -2.0924
  762SOL     MW 3048   0.009   0.185   2.125  0.0809 -0.2556 -0.6888
  763SOL     OW 3049   2.450   1.217   2.380 -0.0086  0.0763 -0.3769
  763SOL    HW1 3050   2.511   1.162   2.329 -1.2545 -0.9045 -0.3657
  763SOL    HW2 3051   2.509   1.275   2.418  2.0892 -0.7458 -2.8169
  763SOL     MW 3052   2.466   1.218   2.378  0.1038 -0.1616 -0.6973
  764SOL     OW 3053   0.386   0.047   2.802  0.0895  0.7741  0.3185
  764SOL    HW1 3054   0.345   0.119   2.767 -1.5505 -0.1686  2.0102
  764SOL    HW2 3055   0.407   0.076   2.894  0.1998 -0.9923  0.4387
  764SOL     MW 3056   0.383   0.060   2.809 -0.1123  0.4167  0.5576
  765SOL     OW 3057   2.767   0.012   2.328 -0.3147  0.1669 -0.3773
  765SOL    HW1 3058   2.728  -0.024   2.253 -1.2562  0.0007  0.6948
  765SOL    HW2 3059   2.829  -0.053   2.360  0.1922  0.7962 -2.0148
  765SOL     MW 3060   2.770  -0.001   2.322 -0.3720  0.2280 -0.4519
  766SOL     OW 3061   1.916   2.977   2.179 -0.4641 -0.3439 -0.4319
  766SOL    HW1 3062   1.968   3.021   2.119 -2.4922 -2.4031 -1.2875
  766SOL    HW2 3063   1.845   2.933   2.127 -0.4768  2.1671 -1.7243
  766SOL     MW 3064   1.913   2.977   2.164 -0.7334 -0.2843 -0.7153
  767SOL     OW 3065   2.659   0.636   1.883  0.4858  0.4081 -0.3631
  767SOL    HW1 3066   2.697   0.680   1.961  0.8361  1.8956  1.2908
  767SOL    HW2 3067   2.590   0.698   1.865 -0.1677 -1.4370 -1.0715
  767SOL     MW 3068   2.655   0.650   1.891  0.4458  0.3609 -0.2383
  768SOL     OW 3069   0.069   1.467   2.908 -0.0097 -0.2461  0.4531
  768SOL    HW1 3070   0.112   1.493   2.993 -2.8082  1.3220  5.8017
  768SOL    HW2 3071   0.098   1.377   2.897 -0.4893  0.6464  4.2467
  768SOL     MW 3072   0.079   1.459   2.918 -0.4422  0.0786  1.6593
  769SOL     OW 3073   2.393   0.704   2.330 -0.0804  0.0623 -0.3769
  769SOL    HW1 3074   2.377   0.614   2.366  1.4625  2.9002  1.9329
  769SOL    HW2 3075   2.456   0.687   2.252  0.2298 -0.4311 -0.2077
  769SOL     MW 3076   2.399   0.690   2.324  0.1641  0.3717 -0.0498
  770SOL     OW 3077   3.097   1.576   2.673  0.3080 -0.1208 -0.2636
  770SOL    HW1 3078   3.005   1.591   2.663 -0.4387  0.6510  0.4392
  770SOL    HW2 3079   3.120   1.554   2.765 -0.2113 -0.4439 -1.1543
  770SOL     MW 3080   3.088   1.575   2.683  0.1409 -0.0616 -0.2884
  771SOL     OW 3081   3.075   0.588   1.989  0.3411  0.2254 -0.2072
  771SOL    HW1 3082   3.027   0.604   1.905 -0.6427 -0.8809  1.2936
  771SOL    HW2 3083   3.150   0.521   1.967  0.3925  3.3429  0.7286
  771SOL     MW 3084   3.078   0.582   1.975  0.2181  0.4908  0.1143
  772SOL     OW 3085   3.093   0.017   2.343  0.6986  0.0759 -0.0765
  772SOL    HW1 3086   3.020  -0.043   2.355 -0.8629 -1.7807 -0.9893
  772SOL    HW2 3087   3.161  -0.029   2.290 -1.7365  1.2227 -0.8982
  772SOL     MW 3088   3.092   0.003   2.338  0.1713 -0.0178 -0.3053
  773SOL     OW 3089   2.468   2.927   2.755 -0.3125  0.6414 -0.0652
  773SOL    HW1 3090   2.517   2.844   2.740 -1.4217 -1.6062  1.5498
  773SOL    HW2 3091   2.427   2.900   2.841 -0.7670  2.2594  0.8342
  773SOL     MW 3092   2.469   2.912   2.764 -0.5188  0.5583  0.2666
  774SOL     OW 3093   2.379   1.158   1.747 -0.0203 -0.4670 -0.2275
  774SOL    HW1 3094   2.311   1.222   1.719 -1.9401 -0.1059 -2.3936
  774SOL    HW2 3095   2.331   1.081   1.726  0.9906  2.3235 -0.9919
  774SOL     MW 3096   2.364   1.156   1.740 -0.1403 -0.0512 -0.6142
  775SOL     OW 3097   2.328   2.876   2.385  0.1175 -0.5315  0.0889
  775SOL    HW1 3098   2.358   2.960   2.346 -0.5652  0.0827  0.8509
  775SOL    HW2 3099   2.406   2.826   2.360  2.0550 -1.0914 -2.9956
  775SOL     MW 3100   2.342   2.881   2.377  0.2831 -0.5243 -0.2175
  776SOL     OW 3101   0.140   1.499   0.086  0.0638 -0.3368  0.4162
  776SOL    HW1 3102   0.235   1.491   0.091  0.7219 -1.3570 -1.0268
  776SOL    HW2 3103   0.103   1.437   0.151  0.8015  0.9741  0.5042
  776SOL     MW 3104   0.147   1.490   0.095  0.2480 -0.2985  0.2374
  777SOL     OW 3105   2.958   1.116   1.706 -0.1497 -0.2693  0.3013
  777SOL    HW1 3106   2.889   1.175   1.673 -3.2825  3.5328 -2.3147
  777SOL    HW2 3107   2.909   1.040   1.728  1.1622  0.8287 -0.4321
  777SOL     MW 3108   2.942   1.114   1.705 -0.3900  0.3772 -0.1406
  778SOL     OW 3109   2.928   0.500   2.815  0.2164 -0.2819 -1.0728
  778SOL    HW1 3110   2.845   0.510   2.863  1.3450  0.1404  1.1131
  778SOL    HW2 3111   2.919   0.555   2.734 -1.1257 -0.4847 -2.2126
  778SOL     MW 3112   2.916   0.509   2.811  0.1882 -0.2529 -0.9348
  779SOL     OW 3113   2.221   0.518   2.112  0.0928 -0.5764 -0.0457
  779SOL    HW1 3114   2.151   0.574   2.156 -0.7232 -1.6118  0.2774
  779SOL    HW2 3115   2.244   0.461   2.187 -1.9016 -1.6006  3.9352
  779SOL     MW 3116   2.215   0.518   2.127 -0.2780 -0.8482  0.5222
  780SOL     OW 3117   0.211   0.259   2.705  0.0129 -0.2758 -0.5410
  780SOL    HW1 3118   0.117   0.286   2.701 -2.5436  4.1919  0.1042
  780SOL    HW2 3119   0.266   0.326   2.754  1.9993 -1.2341  1.0038
  780SOL     MW 3120   0.206   0.271   2.711 -0.0623  0.1872 -0.2520
  781SOL     OW 3121   0.018   1.221   2.422  0.2527  0.7212  0.4775
  781SOL    HW1 3122   0.051   1.251   2.331 -0.9681  0.6824 -1.0762
  781SOL    HW2 3123  -0.018   1.137   2.408  0.9951 -0.4611  2.7089
  781SOL     MW 3124   0.017   1.214   2.408  0.1896  0.5601  0.5669
  782SOL     OW 3125   0.724   1.496   0.046 -0.3449  0.0204 -0.0363
  782SOL    HW1 3126   0.656   1.564   0.014 -1.2055  2.1950 -1.2473
  782SOL    HW2 3127   0.726   1.521   0.140 -3.4796 -1.2258 -0.1056
  782SOL     MW 3128   0.715   1.508   0.055 -0.8720  0.1429 -0.2052
  783SOL     OW 3129   2.693   0.509   2.368 -0.2797 -0.2644  0.2230
  783SOL    HW1 3130   2.671   0.578   2.307 -0.1271 -2.5352  1.0039
  783SOL    HW2 3131   2.626   0.512   2.436  1.9905  1.3587  0.0837
  783SOL     MW 3132   2.681   0.519   2.369  0.0400 -0.3499  0.3077
  784SOL     OW 3133   0.166   0.805   2.814  0.6433  0.4007 -0.0018
  784SOL    HW1 3134   0.079   0.813   2.780  0.1707  1.0069 -0.8914
  784SOL    HW2 3135   0.202   0.889   2.792 -1.3928  1.0644  0.6751
  784SOL     MW 3136   0.159   0.817   2.807  0.3123  0.5682 -0.0299
  785SOL     OW 3137   0.435   0.421   2.161 -0.3662 -0.6702  0.0086
  785SOL    HW1 3138   0.421   0.455   2.071  0.0298 -2.3366  0.2488
  785SOL    HW2 3139   0.353   0.374   2.189 -1.7104 -1.0505 -1.8407
  785SOL     MW 3140   0.422   0.420   2.153 -0.4913 -0.9402 -0.2037
  786SOL     OW 3141   1.876   0.496   3.046  0.1953 -0.0368  0.7091
  786SOL    HW1 3142   1.897   0.563   3.109 -1.7971 -3.4558  1.0068
  786SOL    HW2 3143   1.782   0.521   3.031  0.2927 -2.5691  0.2662
  786SOL     MW 3144   1.866   0.508   3.052 -0.0547 -0.8220  0.6900
  787SOL     OW 3145   2.394   0.194   2.919  0.2466  0.0188  0.3423
  787SOL    HW1 3146   2.471   0.136   2.892  2.1413 -1.2120 -3.2381
  787SOL    HW2 3147   2.435   0.276   2.953  0.6291  1.2542  2.2924
  787SOL     MW 3148   2.410   0.197   2.920  0.5470  0.0194  0.1272
  788SOL     OW 3149   2.914   2.898   2.400 -0.1838  0.2231  0.5883
  788SOL    HW1 3150   2.982   2.859   2.460  0.4701 -0.4451  1.0491
  788SOL    HW2 3151   2.924   2.866   2.307  1.1023  1.2438  2.0065
  788SOL     MW 3152   2.925   2.889   2.396  0.0721  0.2696  0.8362
  789SOL     OW 3153   0.104   0.203   0.048 -0.2865 -0.1746 -0.4565
  789SOL    HW1 3154   0.017   0.160   0.074  1.1283 -0.5826  1.7252
  789SOL    HW2 3155   0.088   0.270  -0.021  1.4598 -0.8983 -0.1875
  789SOL     MW 3156   0.091   0.206   0.042  0.1306 -0.3239 -0.1332
  790SOL     OW 3157   3.034   0.963   2.473 -0.3163  0.2858  0.0483
  790SOL    HW1 3158   3.008   0.908   2.541  1.3742  1.6182 -2.6068
  790SOL    HW2 3159   2.972   0.961   2.394  0.6229 -0.4877  0.1803
  790SOL     MW 3160   3.022   0.955   2.472  0.0306  0.3595 -0.2846
  791SOL     OW 3161   2.533   0.496   2.579  0.1923 -0.4501 -0.1346
  791SOL    HW1 3162   2.513   0.549   2.663  1.1991 -2.4679  1.4736
  791SOL    HW2 3163   2.583   0.422   2.608  2.1017  1.8730  1.3925
  791SOL     MW 3164   2.537   0.493   2.594  0.5771 -0.4098  0.2791
  792SOL     OW 3165   2.474   0.215   2.451 -0.3668 -0.3885  0.1974
  792SOL    HW1 3166   2.418   0.291   2.426 -0.1289 -1.1023 -0.9639
  792SOL    HW2 3167   2.437   0.173   2.530 -1.6002 -0.2385  1.6672
  792SOL     MW 3168   2.462   0.219   2.458 -0.4982 -0.4629  0.2381
  793SOL     OW 3169   1.810   1.122   2.042 -0.5964 -0.3553 -0.3714
  793SOL    HW1 3170   1.769   1.112   1.959 -0.8832 -1.2949 -0.2198
  793SOL    HW2 3171   1.905   1.126   2.019 -2.4451  2.3377 -1.5610
  793SOL     MW 3172   1.817   1.121   2.028 -0.8782 -0.1239 -0.5084
  794SOL     OW 3173   1.373   2.310   0.110  0.3990  0.4236 -0.2593
  794SOL    HW1 3174   1.406   2.406   0.089 -1.7989  0.2467  0.3559
  794SOL    HW2 3175   1.420   2.277   0.185 -0.7610 -4.1167  1.7752
  794SOL     MW 3176   1.383   2.318   0.117 -0.0441 -0.1988  0.0903
  795SOL     OW 3177   2.282   1.052   2.512 -0.0595  0.4720  0.2103
  795SOL    HW1 3178   2.244   1.088   2.590 -0.3494  0.2754 -0.2555
  795SOL    HW2 3179   2.348   1.114   2.481  1.8031  4.0776 -0.7207
  795SOL     MW 3180   2.285   1.065   2.518  0.1480  0.9218  0.0260
  796SOL     OW 3181   0.246   0.595   2.683  0.0537 -0.1905 -0.0698
  796SOL    HW1 3182   0.224   0.676   2.729 -0.4415 -0.7063  0.2071
  796SOL    HW2 3183   0.204   0.600   2.596  1.3834  1.5446 -2.1746
  796SOL     MW 3184   0.238   0.607   2.677  0.1638 -0.0296 -0.3110
  797SOL     OW 3185   2.747   0.217   2.643 -0.5422 -0.2720 -0.8267
  797SOL    HW1 3186   2.721   0.190   2.560  0.6031  2.1321  1.2489
  797SOL    HW2 3187   2.839   0.203   2.659 -1.3941  2.6965  1.1700
  797SOL     MW 3188   2.755   0.212   2.634 -0.5035  0.4368 -0.2894
  798SOL     OW 3189   2.420   0.008   2.277  0.4692  0.3768 -0.1228
  798SOL    HW1 3190   2.453   0.076   2.344  1.3137 -0.1460 -1.5748
  798SOL    HW2 3191   2.483   0.012   2.206  1.1464  1.6347 -0.4617
  798SOL     MW 3192   2.432   0.017   2.277  0.6700  0.4738 -0.3591
  799SOL     OW 3193   2.567   3.042   0.084 -0.1359  0.5459  0.3157
  799SOL    HW1 3194   2.489   3.006   0.039 -2.6073  0.1252 -0.4482
  799SOL    HW2 3195   2.562   3.008   0.179 -1.1957 -2.8975 -0.6819
  799SOL     MW 3196   2.556   3.033   0.090 -0.6018  0.0361  0.0833
  800SOL     OW 3197   1.950   2.993   1.741 -0.2039 -0.0287  0.2075
  800SOL    HW1 3198   1.878   2.931   1.747 -0.0920 -0.9238  1.6497
  800SOL    HW2 3199   1.982   3.021   1.828 -0.4683 -2.1165  3.2687
  800SOL     MW 3200   1.945   2.989   1.753 -0.2240 -0.4223  0.8017
  801SOL     OW 3201   2.894   1.239   2.601  0.0359 -0.5249  0.1485
  801SOL    HW1 3202   2.934   1.153   2.625  0.6956 -1.3476  1.7705
  801SOL    HW2 3203   2.966   1.271   2.546  1.1073  0.7570  1.8510
  801SOL     MW 3204   2.909   1.232   2.597  0.2643 -0.4643  0.5871
  802SOL     OW 3205   2.641   1.425   2.817 -0.3622  0.5369 -0.3275
  802SOL    HW1 3206   2.586   1.351   2.771  2.3536  1.0020  0.2625
  802SOL    HW2 3207   2.721   1.374   2.852  0.6309 -3.2790  2.2476
  802SOL     MW 3208   2.644   1.408   2.815  0.1272  0.0948  0.0901
  803SOL     OW 3209   2.329   1.420   1.998 -0.3853  0.0293  0.2861
  803SOL    HW1 3210   2.294   1.357   2.056 -0.0570  1.0485 -1.0744
  803SOL    HW2 3211   2.297   1.398   1.911 -1.4988  1.6184  0.7499
  803SOL     MW 3212   2.320   1.409   1.994 -0.4889  0.3734  0.1677
  804SOL     OW 3213   2.260   0.133   0.046  0.5774  0.2397 -0.1391
  804SOL    HW1 3214   2.184   0.186   0.035  1.2313  2.8790 -0.3038
  804SOL    HW2 3215   2.314   0.160  -0.029 -1.6363 -0.0653  1.9346
  804SOL     MW 3216   2.257   0.143   0.034  0.3716  0.5477  0.1128
  805SOL     OW 3217   2.711   0.821   2.649  0.2136  0.6728  0.1345
  805SOL    HW1 3218   2.626   0.820   2.602  0.4232 -0.2081 -0.9618
  805SOL    HW2 3219   2.763   0.777   2.585  0.4556 -0.5537 -0.8246
  805SOL     MW 3220   2.706   0.815   2.634  0.2732  0.3947 -0.1367
  806SOL     OW 3221   2.677   0.731   2.197  0.0688 -0.2336  0.3552
  806SOL    HW1 3222   2.759   0.765   2.163  1.3607 -0.2198  1.2664
  806SOL    HW2 3223   2.637   0.814   2.216 -0.6358 -1.6286  1.2964
  806SOL     MW 3224   2.683   0.747   2.195  0.1463 -0.4158  0.5996
  807SOL     OW 3225   3.091   1.091   2.041  0.9029  0.6364  0.4221
  807SOL    HW1 3226   3.133   1.002   2.041 -0.3194 -0.6065 -0.7087
  807SOL    HW2 3227   3.002   1.071   2.004  4.5707  0.1641 -1.4763
  807SOL     MW 3228   3.085   1.076   2.036  1.2256  0.4101  0.0224
  808SOL     OW 3229   2.612   0.055   2.823 -0.5543 -0.3899 -0.3566
  808SOL    HW1 3230   2.575  -0.028   2.789  1.6936 -1.9138  1.6172
  808SOL    HW2 3231   2.651   0.097   2.751 -1.1290 -1.0822  4.1639
  808SOL     MW 3232   2.612   0.050   2.809 -0.3335 -0.6823  0.5003
  809SOL     OW 3233   2.681   1.355   2.427 -0.0106 -0.0859 -0.3136
  809SOL    HW1 3234   2.733   1.331   2.504 -1.6172 -0.4477 -2.1990
  809SOL    HW2 3235   2.712   1.301   2.352 -1.6498 -1.6304  1.3860
  809SOL     MW 3236   2.692   1.345   2.427 -0.4389 -0.3374 -0.3381
  810SOL     OW 3237   2.242   1.299   2.240  0.0222 -0.0453  0.5598
  810SOL    HW1 3238   2.322   1.265   2.281  0.9265  1.9991  0.0686
  810SOL    HW2 3239   2.183   1.224   2.242 -1.5374  0.6710  0.5044
  810SOL     MW 3240   2.244   1.285   2.246 -0.0643  0.3190  0.4877
  811SOL     OW 3241   1.628   0.187   2.273 -0.1753 -0.3262  0.6266
  811SOL    HW1 3242   1.725   0.162   2.292 -1.4340 -3.3003  0.4494
  811SOL    HW2 3243   1.613   0.194   2.173  1.0977  0.6069 -2.2237
  811SOL     MW 3244   1.639   0.184   2.262 -0.1734 -0.5955  0.2271
  812SOL     OW 3245   1.485   2.809   2.046 -0.0267  0.6396 -0.2707
  812SOL    HW1 3246   1.577   2.827   2.061 -0.9825 -0.2061 -0.4020
  812SOL    HW2 3247   1.466   2.764   2.130 -0.2348  0.7793  0.0627
  812SOL     MW 3248   1.495   2.805   2.059 -0.1802  0.5465 -0.2441
  813SOL     OW 3249   2.018   0.629   2.251  0.5630  0.0213  0.1089
  813SOL    HW1 3250   1.937   0.583   2.207 -1.3023  1.4590 -0.6527
  813SOL    HW2 3251   1.979   0.689   2.310  2.7279 -1.8340 -0.3479
  813SOL     MW 3252   2.002   0.631   2.253  0.6026 -0.0338 -0.0519
  814SOL     OW 3253   2.708   1.287   1.637 -0.0195 -0.2184 -0.0910
  814SOL    HW1 3254   2.663   1.293   1.722 -0.4906  1.3415  1.8053
  814SOL    HW2 3255   2.643   1.254   1.577  0.5173  3.2892 -2.9576
  814SOL     MW 3256   2.694   1.283   1.640 -0.0108  0.4502 -0.2190
  815SOL     OW 3257   2.535   1.763   2.391 -0.2782  0.3267  0.5728
  815SOL    HW1 3258   2.487   1.696   2.335 -2.1970 -2.2056  0.0667
  815SOL    HW2 3259   2.620   1.714   2.395 -0.2360 -0.7807 -0.4412
  815SOL     MW 3260   2.540   1.748   2.384 -0.5258 -0.1535  0.3722
  816SOL     OW 3261   0.720   0.686   2.800  0.1013 -0.6198  0.1234
  816SOL    HW1 3262   0.738   0.598   2.820  2.5619  2.9010  1.1839
  816SOL    HW2 3263   0.642   0.690   2.746  1.7484  2.4397  3.5997
  816SOL     MW 3264   0.712   0.675   2.796  0.6433  0.2484  0.7220
  817SOL     OW 3265   2.994   1.264   1.441  0.0331 -0.1835 -0.3472
  817SOL    HW1 3266   3.073   1.217   1.473 -1.8281 -0.7644  2.6103
  817SOL    HW2 3267   3.024   1.353   1.433 -0.8314  2.9178  3.7579
  817SOL     MW 3268   3.008   1.270   1.444 -0.3265  0.1490  0.5847
  818SOL     OW 3269   1.944   1.041   2.644  0.2287 -0.2356 -0.0140
  818SOL    HW1 3270   1.923   1.038   2.547  1.9741  0.0409  1.8271
  818SOL    HW2 3271   2.019   0.991   2.675 -3.2255 -0.6364  0.6893
  818SOL     MW 3272   1.951   1.034   2.635  0.0032 -0.2520  0.3218
  819SOL     OW 3273   2.022   0.346   2.434 -0.8396  0.4040  0.3014
  819SOL    HW1 3274   1.931   0.375   2.432 -0.6479 -0.2387  1.4284
  819SOL    HW2 3275   2.039   0.323   2.522  2.4829  2.6279 -2.0862
  819SOL     MW 3276   2.012   0.346   2.446 -0.3759  0.6126  0.1351
  820SOL     OW 3277   2.485   1.684   2.658 -0.0697 -0.0216  0.8418
  820SOL    HW1 3278   2.546   1.621   2.696  0.5304  0.6376  0.4334
  820SOL    HW2 3279   2.515   1.702   2.571 -0.5903  1.1815  1.3414
  820SOL     MW 3280   2.497   1.678   2.651 -0.0592  0.2241  0.8538
  821SOL     OW 3281   2.617   1.386   2.010 -0.1212  0.0261 -0.7415
  821SOL    HW1 3282   2.634   1.465   1.959 -0.2081  0.1423 -2.7919
  821SOL    HW2 3283   2.520   1.398   2.037 -1.1862  1.8167 -1.8388
  821SOL     MW 3284   2.606   1.398   2.007 -0.2732  0.2777 -1.1568
  822SOL     OW 3285   2.947   2.716   1.513 -0.1008  0.2690  0.2638
  822SOL    HW1 3286   2.935   2.705   1.612  1.3072  0.5721 -2.1764
  822SOL    HW2 3287   2.918   2.807   1.495  0.1383  1.5498  0.4933
  822SOL     MW 3288   2.942   2.726   1.524  0.1165  0.4780 -0.0279
  823SOL     OW 3289   2.374   0.465   1.866 -0.1634 -0.0097 -0.4707
  823SOL    HW1 3290   2.447   0.399   1.864 -1.4670  1.5450 -1.8251
  823SOL    HW2 3291   2.341   0.470   1.957 -1.2427  0.9133  1.1493
  823SOL     MW 3292   2.379   0.457   1.878 -0.4778  0.3172 -0.4356
  824SOL     OW 3293   2.274   1.509   2.537  0.2361 -0.6879  1.1193
  824SOL    HW1 3294   2.337   1.554   2.592  0.3646 -0.6829 -0.2436
  824SOL    HW2 3295   2.188   1.534   2.558  0.9166 -1.9775  0.0333
  824SOL     MW 3296   2.271   1.518   2.547  0.3428 -0.8574  0.7962
  825SOL     OW 3297   1.896   2.625   0.228 -0.6720 -0.4827 -0.2246
  825SOL    HW1 3298   1.855   2.577   0.298  0.9512 -0.0463  4.8647
  825SOL    HW2 3299   1.948   2.561   0.179  1.3910  4.5177  0.7508
  825SOL     MW 3300   1.897   2.610   0.231 -0.1857  0.2346  0.5756
  826SOL     OW 3301   1.838   2.317   0.437 -0.2415 -0.1966  0.5340
  826SOL    HW1 3302   1.787   2.272   0.506  1.0625 -1.6447 -1.5114
  826SOL    HW2 3303   1.893   2.371   0.496 -0.0243  0.8730  3.8942
  826SOL     MW 3304   1.838   2.318   0.454 -0.0408 -0.2465  0.7075
  827SOL     OW 3305   1.975   2.190   0.743 -0.0467  0.6795  0.8174
  827SOL    HW1 3306   1.886   2.198   0.699 -0.9325 -1.2710 -2.7497
  827SOL    HW2 3307   1.956   2.115   0.802 -2.0488  0.1716 -4.4427
  827SOL     MW 3308   1.961   2.181   0.745 -0.4277  0.3551 -0.3472
  828SOL     OW 3309   0.043   2.623   0.609  0.2073 -0.2377 -0.1175
  828SOL    HW1 3310   0.135   2.638   0.629  0.8240 -0.2952  0.4439
  828SOL    HW2 3311   0.026   2.658   0.520 -0.4151  1.1186  0.3307
  828SOL     MW 3312   0.053   2.630   0.600  0.2065 -0.0663  0.0157
  829SOL     OW 3313   2.986   2.976   1.179  0.3685 -0.1857 -0.1119
  829SOL    HW1 3314   2.934   2.985   1.104 -0.2786 -0.7159 -1.0457
  829SOL    HW2 3315   3.012   2.887   1.185  1.8607 -1.6300 -2.4207
  829SOL     MW 3316   2.982   2.965   1.170  0.4800 -0.4462 -0.5398
  830SOL     OW 3317   2.535   2.831   2.006 -0.0836 -0.1342  0.2451
  830SOL    HW1 3318   2.446   2.861   1.995 -0.3432 -0.1561 -0.6794
  830SOL    HW2 3319   2.575   2.802   1.920  1.2020 -0.2480  0.2040
  830SOL     MW 3320   2.528   2.831   1.994  0.0518 -0.1521  0.1177
  831SOL     OW 3321   2.414   2.409   1.229  0.0709 -0.0379  0.0348
  831SOL    HW1 3322   2.358   2.344   1.271 -2.9711 -0.2285 -1.3179
  831SOL    HW2 3323   2.503   2.385   1.241 -0.8541  0.8867 -1.3122
  831SOL     MW 3324   2.418   2.397   1.236 -0.4525  0.0589 -0.3214
  832SOL     OW 3325   2.310   2.184   1.826  0.8422  0.2569 -0.1252
  832SOL    HW1 3326   2.358   2.268   1.858 -0.8868  2.2278  0.7328
  832SOL    HW2 3327   2.391   2.135   1.803  1.1710 -2.2113  1.3326
  832SOL     MW 3328   2.327   2.189   1.827  0.6575  0.1913  0.1803
  833SOL     OW 3329   1.722   2.508   0.890  0.3754  0.0643  0.0445
  833SOL    HW1 3330   1.633   2.535   0.873 -0.7663 -0.8608  0.0628
  833SOL    HW2 3331   1.752   2.566   0.960 -2.8322 -0.4613 -4.1756
  833SOL     MW 3332   1.714   2.519   0.897 -0.1984 -0.1271 -0.5099
  834SOL     OW 3333   2.119   2.446   0.557 -0.3088 -0.0231  0.1391
  834SOL    HW1 3334   2.121   2.378   0.620 -0.7137  0.6527  0.0563
  834SOL    HW2 3335   2.151   2.407   0.472  1.1322  0.4252 -1.5323
  834SOL     MW 3336   2.124   2.432   0.554 -0.1721  0.1252 -0.0923
  835SOL     OW 3337   1.816   2.585   0.615 -0.4265  0.3838 -0.3431
  835SOL    HW1 3338   1.776   2.541   0.683  0.2143 -1.3740 -0.6427
  835SOL    HW2 3339   1.899   2.610   0.660 -1.8625 -0.8620 -1.3338
  835SOL     MW 3340   1.822   2.583   0.630 -0.5314 -0.0125 -0.5133
  836SOL     OW 3341   1.891   2.244   1.560 -0.5033  0.1692  0.0836
  836SOL    HW1 3342   1.979   2.239   1.591 -0.1993  1.5602  0.8071
  836SOL    HW2 3343   1.842   2.297   1.621 -0.1969 -1.3358 -1.2144
  836SOL     MW 3344   1.896   2.250   1.572 -0.4228  0.1541  0.0078
  837SOL     OW 3345   2.170   0.230   0.728  0.2270 -0.3727 -0.0503
  837SOL    HW1 3346   2.078   0.229   0.704 -1.4643 -0.4827  0.6304
  837SOL    HW2 3347   2.232   0.192   0.661 -1.3297  0.7427 -0.9838
  837SOL     MW 3348   2.166   0.225   0.716 -0.2016 -0.2400 -0.0836
  838SOL     OW 3349   2.933   2.073   0.945 -0.2136 -0.2978 -0.0887
  838SOL    HW1 3350   2.856   2.022   0.936  1.0001  0.6449  0.9477
  838SOL    HW2 3351   3.002   2.009   0.950 -4.0898 -1.7546  0.4771
  838SOL     MW 3352   2.932   2.058   0.945 -0.5649 -0.3656  0.1227
  839SOL     OW 3353   1.513   2.363   1.044 -0.3054 -0.0463 -0.1521
  839SOL    HW1 3354   1.566   2.428   1.086 -0.6302  0.3969 -0.9428
  839SOL    HW2 3355   1.530   2.279   1.085 -0.8802  2.7483 -0.0462
  839SOL     MW 3356   1.522   2.360   1.055 -0.4241  0.3809 -0.2425
  840SOL     OW 3357   2.383   2.251   2.418 -0.4175  0.0064 -0.1938
  840SOL    HW1 3358   2.340   2.325   2.384  0.6975 -0.9883  4.2770
  840SOL    HW2 3359   2.363   2.259   2.516 -0.7361  1.3821  2.0626
  840SOL     MW 3360   2.375   2.261   2.427 -0.3124  0.0567  0.6938
  841SOL     OW 3361   2.073   2.476   0.087 -0.1862 -0.7464 -0.3261
  841SOL    HW1 3362   2.149   2.513   0.037 -0.9437 -0.6416 -0.0263
  841SOL    HW2 3363   2.074   2.386   0.047 -0.9217 -0.9913  2.3572
  841SOL     MW 3364   2.083   2.469   0.075 -0.3832 -0.7649  0.0675
  842SOL     OW 3365   2.657   2.079   1.544 -0.2747 -0.4683 -0.1823
  842SOL    HW1 3366   2.597   2.058   1.617 -0.7744 -1.2308 -2.1737
  842SOL    HW2 3367   2.600   2.089   1.471  0.8337  2.8840 -0.2536
  842SOL     MW 3368   2.642   2.078   1.544 -0.1944 -0.1266 -0.4545
  843SOL     OW 3369   2.673   2.766   1.768 -0.0794  0.1068 -0.3748
  843SOL    HW1 3370   2.760   2.728   1.773  0.7501  1.6628  2.5663
  843SOL    HW2 3371   2.615   2.695   1.737  2.7278  0.8071  4.2154
  843SOL     MW 3372   2.677   2.752   1.765  0.4004  0.4045  0.6189
  844SOL     OW 3373   2.705   2.338   1.226 -0.5499  0.2588 -0.0234
  844SOL    HW1 3374   2.729   2.333   1.134 -1.7170 -0.0348 -1.6584
  844SOL    HW2 3375   2.750   2.417   1.274  2.7638  1.7483 -0.6098
  844SOL     MW 3376   2.714   2.347   1.220 -0.2666  0.4166 -0.3165
  845SOL     OW 3377   2.859   2.476   0.345 -0.1171  0.4868 -0.0758
  845SOL    HW1 3378   2.814   2.389   0.327 -0.5299  0.4653 -2.3868
  845SOL    HW2 3379   2.827   2.498   0.433  1.4015 -1.1983 -0.6373
  845SOL     MW 3380   2.849   2.467   0.354  0.0288  0.2616 -0.4548
  846SOL     OW 3381   1.530   2.880   0.746 -0.0811  0.0018 -0.2727
  846SOL    HW1 3382   1.597   2.926   0.804  4.3059  0.2561 -2.8054
  846SOL    HW2 3383   1.466   2.946   0.758  3.4861  1.4340  0.4906
  846SOL     MW 3384   1.530   2.895   0.756  0.9684  0.2244 -0.5061
  847SOL     OW 3385   2.622   1.997   0.185 -0.1605  0.0081 -0.1324
  847SOL    HW1 3386   2.690   1.952   0.235 -0.0473  0.9178  0.5640
  847SOL    HW2 3387   2.577   1.931   0.137 -3.1556 -1.9747 -0.1788
  847SOL     MW 3388   2.625   1.983   0.185 -0.5408 -0.1335 -0.0466
  848SOL     OW 3389   2.532   2.111   1.299  0.4644  0.5283  0.4315
  848SOL    HW1 3390   2.585   2.178   1.250 -0.5065  2.6643  0.4984
  848SOL    HW2 3391   2.545   2.035   1.246 -1.0708  3.3355  0.6169
  848SOL     MW 3392   2.540   2.110   1.286  0.1338  1.1805  0.4648
  849SOL     OW 3393   2.022   2.681   0.785 -0.3245 -0.1575  0.3776
  849SOL    HW1 3394   2.016   2.591   0.809 -1.2446  3.6702  0.8225
  849SOL    HW2 3395   2.089   2.681   0.713 -0.5022  2.1266  1.2096
  849SOL     MW 3396   2.030   2.669   0.779 -0.4694  0.6489  0.5460
  850SOL     OW 3397   2.202   1.916   1.709 -0.3701  0.0820 -0.3316
  850SOL    HW1 3398   2.125   1.862   1.687 -0.7046  2.2123 -2.5310
  850SOL    HW2 3399   2.174   2.004   1.681 -1.6682  1.3719  0.2880
  850SOL     MW 3400   2.188   1.921   1.703 -0.5855  0.5333 -0.5400
  851SOL     OW 3401   2.265   2.378   0.322 -0.5130 -0.1571  0.2643
  851SOL    HW1 3402   2.229   2.420   0.243 -2.7188  0.4543 -0.8356
  851SOL    HW2 3403   2.335   2.443   0.343  0.0306 -2.5608 -0.1382
  851SOL     MW 3404   2.269   2.392   0.314 -0.7323 -0.3935  0.0660
  852SOL     OW 3405   2.354   2.098   0.293  0.0219 -0.0441  0.2090
  852SOL    HW1 3406   2.329   2.192   0.308 -2.2617 -2.5129  0.7556
  852SOL    HW2 3407   2.416   2.107   0.220 -0.7178  2.0148 -0.5450
  852SOL     MW 3408   2.359   2.112   0.285 -0.3770 -0.0982  0.1817
  853SOL     OW 3409   2.438   2.422   1.893  0.3895 -0.4440  0.5927
  853SOL    HW1 3410   2.442   2.480   1.816 -1.7303  1.2266 -0.2857
  853SOL    HW2 3411   2.529   2.400   1.920 -1.7419 -1.4252  2.0880
  853SOL     MW 3412   2.451   2.426   1.886 -0.1714 -0.3531  0.6741
  854SOL     OW 3413   2.839   2.238   0.736  0.7133 -0.0432 -0.3814
  854SOL    HW1 3414   2.788   2.175   0.683  0.1054 -1.0011  0.8725
  854SOL    HW2 3415   2.902   2.182   0.787 -1.0318 -0.2907  1.6163
  854SOL     MW 3416   2.841   2.222   0.736  0.4028 -0.2023  0.0476
  855SOL     OW 3417   2.716   2.251   0.355 -0.2065 -0.0970 -0.2582
  855SOL    HW1 3418   2.652   2.227   0.415  2.0288  0.0612 -1.8143
  855SOL    HW2 3419   2.790   2.188   0.374  0.7115  0.1170 -1.2501
  855SOL     MW 3420   2.717   2.239   0.365  0.2095 -0.0479 -0.5944
  856SOL     OW 3421   2.202   1.886   0.177  0.1659  0.3058 -0.5505
  856SOL    HW1 3422   2.114   1.906   0.215  1.3572 -0.7194  0.3623
  856SOL    HW2 3423   2.261   1.945   0.227 -0.2762  1.2772  1.2407
  856SOL     MW 3424   2.198   1.897   0.189  0.2648  0.2987 -0.1937
  857SOL     OW 3425   2.471   1.900   0.445  0.5463 -0.0480  0.4655
  857SOL    HW1 3426   2.450   1.974   0.381 -0.9159  1.4585 -0.9792
  857SOL    HW2 3427   2.394   1.849   0.452  0.3006  0.7358  1.7133
  857SOL     MW 3428   2.458   1.903   0.438  0.3210  0.2542  0.4395
  858SOL     OW 3429   2.928   2.674   1.778 -0.2428 -0.5353 -0.2573
  858SOL    HW1 3430   3.027   2.679   1.795 -1.3844  0.2465  0.3664
  858SOL    HW2 3431   2.909   2.580   1.789  2.0099 -1.8456 -0.6802
  858SOL     MW 3432   2.938   2.662   1.782 -0.0962 -0.6050 -0.2308
  859SOL     OW 3433   2.075   2.416   0.892  0.3561  0.3079  0.3027
  859SOL    HW1 3434   2.055   2.336   0.843  1.8537  0.1834 -0.9489
  859SOL    HW2 3435   2.169   2.416   0.905 -2.2877 -0.2882 -1.8872
  859SOL     MW 3436   2.085   2.406   0.888  0.2049  0.2128 -0.1514
  860SOL     OW 3437   2.673   2.586   0.178  0.1674  0.6235  0.4172
  860SOL    HW1 3438   2.739   2.560   0.235 -1.4460 -0.0856  0.2442
  860SOL    HW2 3439   2.705   2.668   0.137 -0.3890 -1.5478 -0.2835
  860SOL     MW 3440   2.686   2.594   0.180 -0.1189  0.2434  0.3020
  861SOL     OW 3441   1.631   2.080   1.171 -0.3063 -0.2212 -0.7225
  861SOL    HW1 3442   1.715   2.081   1.228  1.0086 -1.4662 -1.0239
  861SOL    HW2 3443   1.571   2.028   1.232  1.5828 -0.5877  1.2593
  861SOL     MW 3444   1.634   2.073   1.187  0.1165 -0.4338 -0.5008
  862SOL     OW 3445   2.443   1.850   1.573 -0.3719  0.2196  0.2272
  862SOL    HW1 3446   2.362   1.869   1.627  0.9183 -1.7803  0.7811
  862SOL    HW2 3447   2.421   1.872   1.480 -0.2230  0.8687 -0.0777
  862SOL     MW 3448   2.429   1.855   1.568 -0.1821  0.0414  0.2601
  863SOL     OW 3449   3.009   1.798   1.235  0.3156 -0.6454 -0.2926
  863SOL    HW1 3450   3.068   1.741   1.284  1.4223  0.2279 -0.6986
  863SOL    HW2 3451   3.024   1.874   1.284 -0.4929 -1.0948 -0.1741
  863SOL     MW 3452   3.019   1.801   1.248  0.3549 -0.5895 -0.3305
  864SOL     OW 3453   0.065   1.877   0.920  0.1542  0.1571 -0.0635
  864SOL    HW1 3454   0.028   1.818   0.989  1.2756 -1.2655  1.7180
  864SOL    HW2 3455   0.064   1.818   0.847 -2.7498  0.6503 -1.5495
  864SOL     MW 3456   0.060   1.861   0.920 -0.0810  0.0345 -0.0245
  865SOL     OW 3457   2.477   2.178   0.041  0.3287 -0.4525 -0.3585
  865SOL    HW1 3458   2.536   2.133   0.096  0.0777  1.7935 -0.1262
  865SOL    HW2 3459   2.449   2.121  -0.028  1.0830  2.3756  1.2051
  865SOL     MW 3460   2.481   2.165   0.039  0.3951  0.2170 -0.1215
  866SOL     OW 3461   2.730   2.352   1.565  0.2628 -0.2607  0.7547
  866SOL    HW1 3462   2.726   2.255   1.567 -0.3562  0.3982 -0.0109
  866SOL    HW2 3463   2.780   2.376   1.492  0.9747  1.6328  1.6707
  866SOL     MW 3464   2.736   2.343   1.556  0.2750  0.0761  0.7745
  867SOL     OW 3465   0.097   2.715   1.856 -0.0828  0.0961  0.1389
  867SOL    HW1 3466   0.174   2.684   1.904  1.9057  0.9370 -0.8052
  867SOL    HW2 3467   0.136   2.774   1.795  0.5859  0.9440 -0.0817
  867SOL     MW 3468   0.113   2.718   1.854  0.2678  0.3189 -0.0148
  868SOL     OW 3469   2.782   2.561   0.584  0.4871 -0.4076 -0.5011
  868SOL    HW1 3470   2.699   2.517   0.592  0.6253  3.2641 -0.7420
  868SOL    HW2 3471   2.762   2.638   0.533  0.5760 -1.4676  0.9044
  868SOL     MW 3472   2.768   2.565   0.578  0.5170 -0.0630 -0.3475
  869SOL     OW 3473   1.895   2.326   1.103 -0.3292  0.5062 -0.0812
  869SOL    HW1 3474   1.960   2.383   1.066  2.0830 -2.1540 -0.6843
  869SOL    HW2 3475   1.817   2.323   1.043  0.9446  1.0916  1.9117
  869SOL     MW 3476   1.893   2.333   1.090  0.1571  0.2324  0.1022
  870SOL     OW 3477   2.321   0.112   0.538 -0.1012 -0.4588  0.0409
  870SOL    HW1 3478   2.341   0.148   0.450 -1.8848  0.5746 -0.6729
  870SOL    HW2 3479   2.379   0.040   0.561 -0.8144 -1.9963  0.8863
  870SOL     MW 3480   2.331   0.107   0.530 -0.4307 -0.5253  0.0582
  871SOL     OW 3481   2.460   2.143   0.798  0.1772 -0.7539  0.3460
  871SOL    HW1 3482   2.392   2.103   0.734 -0.2403 -1.0560 -1.3327
  871SOL    HW2 3483   2.414   2.208   0.850  0.4697  1.7849  0.4001
  871SOL     MW 3484   2.445   2.146   0.796  0.1607 -0.4588  0.1316
  872SOL     OW 3485   2.028   2.599   1.449 -0.7418  0.0300 -0.5441
  872SOL    HW1 3486   1.987   2.622   1.535  1.3907 -2.7872  1.1617
  872SOL    HW2 3487   1.973   2.527   1.411 -0.3803 -1.3422 -1.2303
  872SOL     MW 3488   2.016   2.593   1.455 -0.4127 -0.5227 -0.4096
  873SOL     OW 3489   2.838   2.047   1.892  0.0365  0.3466 -0.2025
  873SOL    HW1 3490   2.858   2.121   1.962  2.3276  0.0530  1.2390
  873SOL    HW2 3491   2.911   2.050   1.829 -0.0283 -2.4165  0.3427
  873SOL     MW 3492   2.850   2.057   1.893  0.3302 -0.0567  0.0596
  874SOL     OW 3493   2.446   1.528   2.274  0.1450 -0.5487  0.0873
  874SOL    HW1 3494   2.371   1.477   2.294 -1.2077 -0.4549  0.0777
  874SOL    HW2 3495   2.512   1.463   2.289  1.4253 -1.8816  0.0047
  874SOL     MW 3496   2.445   1.512   2.279  0.1354 -0.7122  0.0751
  875SOL     OW 3497   2.339   2.388   0.936 -0.2385 -0.4480 -0.2423
  875SOL    HW1 3498   2.400   2.435   0.869  0.7311  1.1626 -1.2578
  875SOL    HW2 3499   2.384   2.386   1.022  1.3949  0.4133  0.1281
  875SOL     MW 3500   2.353   2.394   0.938  0.1050 -0.1219 -0.3274
  876SOL     OW 3501   3.053   2.318   1.323 -0.3818  0.6013  0.5242
  876SOL    HW1 3502   3.116   2.326   1.248  2.1533 -1.5597 -1.5380
  876SOL    HW2 3503   3.096   2.377   1.387 -0.4053  0.9452  0.2566
  876SOL     MW 3504   3.067   2.327   1.321 -0.0504  0.3615  0.2168
  877SOL     OW 3505   3.081   2.790   0.388 -0.2581  0.1125 -0.5070
  877SOL    HW1 3506   3.041   2.869   0.347  1.0417  2.4398 -0.7476
  877SOL    HW2 3507   3.073   2.717   0.325 -2.6036  1.2430 -1.0156
  877SOL     MW 3508   3.075   2.791   0.374 -0.3960  0.5687 -0.6059
  878SOL     OW 3509   2.390   1.825   1.267 -0.5400  0.4985  0.5809
  878SOL    HW1 3510   2.343   1.744   1.296 -0.4777 -1.7091  1.4314
  878SOL    HW2 3511   2.476   1.805   1.238 -2.0341 -3.1228  0.1818
  878SOL     MW 3512   2.395   1.812   1.267 -0.7289 -0.2706  0.6405
  879SOL     OW 3513   2.701   2.396   0.959  0.6395 -0.1317 -0.5134
  879SOL    HW1 3514   2.769   2.465   0.960 -1.9516 -0.6162 -0.6555
  879SOL    HW2 3515   2.723   2.335   0.888  1.3055 -1.6909  1.2025
  879SOL     MW 3516   2.713   2.397   0.950  0.3855 -0.4014 -0.3058
  880SOL     OW 3517   2.670   2.003   0.633 -0.8565 -0.3158  0.5288
  880SOL    HW1 3518   2.622   2.047   0.701 -2.0293 -0.4460 -0.9099
  880SOL    HW2 3519   2.598   1.949   0.593 -0.6974  0.6124 -0.8678
  880SOL     MW 3520   2.654   2.001   0.637 -0.9902 -0.2105  0.1547
  881SOL     OW 3521   2.925   2.721   0.738  0.2959 -0.5498 -0.1800
  881SOL    HW1 3522   2.871   2.652   0.687 -1.4800 -3.5118 -0.8777
  881SOL    HW2 3523   3.016   2.705   0.706 -0.1589  0.6896  0.2213
  881SOL     MW 3524   2.930   2.710   0.727  0.0016 -0.7771 -0.2191
  882SOL     OW 3525   2.278   2.828   1.869 -0.2073 -0.0965 -0.0235
  882SOL    HW1 3526   2.257   2.811   1.777 -1.3116  2.6365 -0.9000
  882SOL    HW2 3527   2.233   2.759   1.914  0.4076 -1.5614 -2.4351
  882SOL     MW 3528   2.269   2.816   1.863 -0.2719  0.0708 -0.4573
  883SOL     OW 3529   2.284   2.217   1.368  0.5321  0.3024 -0.0917
  883SOL    HW1 3530   2.360   2.159   1.356 -0.3456  1.9814  0.3112
  883SOL    HW2 3531   2.211   2.177   1.326  1.5908 -1.3155 -3.2786
  883SOL     MW 3532   2.284   2.204   1.361  0.5560  0.3104 -0.4590
  884SOL     OW 3533   1.948   1.798   1.091 -1.0945  0.2883 -0.1127
  884SOL    HW1 3534   1.894   1.867   1.050  3.1811  0.0631  1.9616
  884SOL    HW2 3535   2.040   1.828   1.092 -0.7596 -0.8888 -0.5833
  884SOL     MW 3536   1.953   1.811   1.086 -0.4862  0.1032  0.0989
  885SOL     OW 3537   2.834   2.410   1.805 -0.8633  0.4568  0.4665
  885SOL    HW1 3538   2.916   2.350   1.808 -1.3495  3.2304 -0.0148
  885SOL    HW2 3539   2.792   2.382   1.723 -1.1221 -0.6198  3.5184
  885SOL     MW 3540   2.839   2.398   1.795 -0.9616  0.6807  0.8057
  886SOL     OW 3541   2.846   2.544   1.334 -0.0644 -0.5711 -0.0806
  886SOL    HW1 3542   2.924   2.488   1.331  1.1121  1.0100 -3.3192
  886SOL    HW2 3543   2.875   2.612   1.394 -1.8000  0.1078 -2.5330
  886SOL     MW 3544   2.860   2.545   1.341 -0.1382 -0.2729 -0.8314
  887SOL     OW 3545   2.295   2.620   1.452 -0.3114 -0.0756 -0.0638
  887SOL    HW1 3546   2.304   2.634   1.360  1.2272 -0.5218  1.7246
  887SOL    HW2 3547   2.198   2.616   1.461 -0.1173  2.0896  1.6532
  887SOL     MW 3548   2.284   2.621   1.441 -0.0828  0.1512  0.3987
  888SOL     OW 3549   1.836   2.046   1.349  0.1027  0.0467 -0.1716
  888SOL    HW1 3550   1.923   2.058   1.307 -1.1068  1.0408  1.0606
  888SOL    HW2 3551   1.839   2.118   1.417 -0.6032  2.2895 -0.9089
  888SOL     MW 3552   1.848   2.057   1.352 -0.1500  0.4738 -0.1063
  889SOL     OW 3553   2.282   2.084   2.097  0.2061 -0.0751 -0.0020
  889SOL    HW1 3554   2.367   2.062   2.138 -0.3588 -0.4138 -0.7886
  889SOL    HW2 3555   2.290   2.119   2.008  0.5493  2.1234  0.4248
  889SOL     MW 3556   2.294   2.086   2.091  0.1768  0.1703 -0.0495
  890SOL     OW 3557   0.100   2.312   0.073 -0.0557  0.0285 -0.0625
  890SOL    HW1 3558   0.038   2.381   0.051 -0.6327 -1.9934  1.2467
  890SOL    HW2 3559   0.095   2.299   0.167 -0.3662 -0.9487  0.5784
  890SOL     MW 3560   0.091   2.319   0.082 -0.1728 -0.3672  0.1948
  891SOL     OW 3561   3.037   2.059   1.350  0.0708  0.2817 -0.3570
  891SOL    HW1 3562   3.132   2.053   1.360 -1.1241  2.2239  0.4063
  891SOL    HW2 3563   3.034   2.161   1.327 -0.9958  1.0804  0.8748
  891SOL     MW 3564   3.049   2.072   1.348 -0.2276  0.6434 -0.0938
  892SOL     OW 3565   2.341   2.364   2.939 -0.0465  0.0307  0.2539
  892SOL    HW1 3566   2.348   2.283   2.990  1.2929 -1.5265  0.2070
  892SOL    HW2 3567   2.430   2.381   2.909 -0.8446  1.2647 -0.1280
  892SOL     MW 3568   2.354   2.356   2.942  0.0249 -0.0120  0.1973
  893SOL     OW 3569   1.607   2.501   1.259 -0.1503  0.0787 -0.3571
  893SOL    HW1 3570   1.523   2.498   1.306 -3.2835 -1.9202  1.2672
  893SOL    HW2 3571   1.678   2.474   1.316  2.2266  0.9082  0.0729
  893SOL     MW 3572   1.605   2.497   1.273 -0.2500 -0.0756 -0.0861
  894SOL     OW 3573   2.901   1.848   0.541  0.3544  0.4554 -0.7870
  894SOL    HW1 3574   2.818   1.897   0.568 -4.8669  2.0517  1.5924
  894SOL    HW2 3575   2.867   1.807   0.463 -0.6578  0.5841  4.9075
  894SOL     MW 3576   2.885   1.849   0.534 -0.4681  0.6830  0.2783
  895SOL     OW 3577   2.046   2.123   1.219 -0.4774 -0.2480 -0.3089
  895SOL    HW1 3578   1.985   2.177   1.168  0.8638  0.4626  1.6271
  895SOL    HW2 3579   2.089   2.060   1.160 -1.1241 -1.2503  0.5293
  895SOL     MW 3580   2.044   2.122   1.205 -0.3858 -0.2865  0.0571
  896SOL     OW 3581   2.200   2.803   1.012  0.2870 -0.0256 -0.0250
  896SOL    HW1 3582   2.263   2.773   1.079  0.2621  1.6645 -0.8684
  896SOL    HW2 3583   2.126   2.742   1.015 -3.9481  0.0100  1.5638
  896SOL     MW 3584   2.199   2.791   1.021 -0.2750  0.2021  0.0734
  897SOL     OW 3585   2.991   2.956   0.185  0.0556  0.1148 -0.4159
  897SOL    HW1 3586   3.069   2.911   0.155  1.1354  0.5785  1.0599
  897SOL    HW2 3587   2.919   2.903   0.137 -1.5785  0.5353  0.2161
  897SOL     MW 3588   2.992   2.943   0.174 -0.0175  0.2315 -0.1378
  898SOL     OW 3589   2.086   0.152   1.397 -0.2334  0.1433 -0.0581
  898SOL    HW1 3590   2.052   0.080   1.342 -4.0076  1.1638 -0.8941
  898SOL    HW2 3591   2.137   0.211   1.338  1.5501  0.7579 -0.1778
  898SOL     MW 3592   2.088   0.150   1.382 -0.4961  0.3590 -0.1842
  899SOL     OW 3593   2.882   2.955   0.591  0.9542  0.2931  0.5510
  899SOL    HW1 3594   2.905   2.894   0.663 -0.4001 -1.3525 -1.0219
  899SOL    HW2 3595   2.793   2.985   0.612  0.3746  1.0633 -1.4228
  899SOL     MW 3596   2.874   2.951   0.604  0.6990  0.1776  0.0830
  900SOL     OW 3597   0.122   2.404   1.143  0.3010 -0.5632 -0.2877
  900SOL    HW1 3598   0.129   2.494   1.113  0.8574  0.0138 -0.5322
  900SOL    HW2 3599   0.111   2.350   1.062  2.1350 -2.1804  1.2629
  900SOL     MW 3600   0.122   2.408   1.128  0.6164 -0.7004 -0.1154
  901SOL     OW 3601   1.732   2.830   1.792 -0.1783  0.1233  0.3172
  901SOL    HW1 3602   1.787   2.760   1.750  0.9778 -0.1692 -0.4975
  901SOL    HW2 3603   1.690   2.864   1.706 -0.2450  1.5991 -0.4261
  901SOL     MW 3604   1.734   2.825   1.775 -0.0346  0.2794  0.1116
  902SOL     OW 3605   2.573   2.080   1.819 -0.0666 -0.7060 -0.2001
  902SOL    HW1 3606   2.561   1.980   1.824 -2.5570 -1.2340  0.2376
  902SOL    HW2 3607   2.666   2.074   1.846 -0.6426 -0.2735  0.5474
  902SOL     MW 3608   2.584   2.066   1.823 -0.4712 -0.7186 -0.0437
  903SOL     OW 3609   1.660   2.785   0.528 -0.2099 -0.1513  0.2715
  903SOL    HW1 3610   1.698   2.700   0.557 -3.3214  2.5857 -2.3321
  903SOL    HW2 3611   1.617   2.823   0.606 -0.0857  1.3927  0.2641
  903SOL     MW 3612   1.659   2.779   0.542 -0.6040  0.4135 -0.0730
  904SOL     OW 3613   2.508   2.534   1.633 -0.2091 -0.0348  0.2369
  904SOL    HW1 3614   2.451   2.532   1.554 -0.2739 -3.3507 -2.5205
  904SOL    HW2 3615   2.584   2.480   1.601 -0.2082 -0.5104 -1.7450
  904SOL     MW 3616   2.510   2.527   1.619 -0.2175 -0.5351 -0.3884
  905SOL     OW 3617   2.379   2.569   2.118 -0.3190  0.2333  0.0296
  905SOL    HW1 3618   2.402   2.508   2.047  0.2141  0.2707  0.8082
  905SOL    HW2 3619   2.314   2.533   2.185 -2.3539  0.1695 -1.1019
  905SOL     MW 3620   2.373   2.556   2.117 -0.5171  0.2298 -0.0169
  906SOL     OW 3621   2.521   2.518   0.794 -0.1834  0.1586  0.7422
  906SOL    HW1 3622   2.574   2.482   0.867 -1.3800  2.5753  1.7018
  906SOL    HW2 3623   2.485   2.608   0.826 -0.2005  3.3739 -1.0240
  906SOL     MW 3624   2.523   2.525   0.808 -0.3435  0.9016  0.6358
  907SOL     OW 3625   2.563   2.869   1.277  0.1856 -0.7565  0.2901
  907SOL    HW1 3626   2.623   2.900   1.347 -1.1767  1.9762  0.5877
  907SOL    HW2 3627   2.617   2.865   1.199 -0.7885  0.3745  0.6545
  907SOL     MW 3628   2.578   2.873   1.276 -0.1227 -0.2468  0.3774
  908SOL     OW 3629   2.670   2.358   0.013 -0.0036 -0.0382 -0.1715
  908SOL    HW1 3630   2.595   2.307   0.034 -2.2538  2.3500  1.7994
  908SOL    HW2 3631   2.667   2.436   0.074  1.1075  3.1899  1.9059
  908SOL     MW 3632   2.659   2.362   0.024 -0.1539  0.7028  0.3626
  909SOL     OW 3633   1.721   0.201   1.032 -0.5707  0.6107 -0.1768
  909SOL    HW1 3634   1.695   0.289   0.996  0.4315  1.0359 -0.0359
  909SOL    HW2 3635   1.741   0.212   1.124 -1.3847  0.8449  0.4697
  909SOL     MW 3636   1.720   0.214   1.039 -0.5459  0.6977 -0.0729
  910SOL     OW 3637   2.277   1.693   0.411 -0.4261  0.1413 -0.0174
  910SOL    HW1 3638   2.198   1.644   0.447 -1.7975  0.2245 -0.5070
  910SOL    HW2 3639   2.243   1.747   0.338  0.9077 -0.6734 -2.0740
  910SOL     MW 3640   2.262   1.694   0.406 -0.4311  0.0448 -0.3533
  911SOL     OW 3641   2.153   2.181   1.603 -0.0370  0.4280 -0.3056
  911SOL    HW1 3642   2.211   2.199   1.676  0.7519 -0.5885 -0.6243
  911SOL    HW2 3643   2.201   2.203   1.525  1.9923 -0.0596  2.5404
  911SOL     MW 3644   2.167   2.186   1.602  0.3348  0.2296  0.0279
  912SOL     OW 3645   2.871   1.909   1.488  0.0476 -0.4246 -0.3361
  912SOL    HW1 3646   2.930   1.969   1.436 -0.2481  2.1976  0.3950
  912SOL    HW2 3647   2.796   1.972   1.511  1.4068  1.1737  0.7166
  912SOL     MW 3648   2.869   1.925   1.484  0.1879  0.1322 -0.1007
  913SOL     OW 3649   2.552   2.944   0.363  0.3094  0.1627  0.3625
  913SOL    HW1 3650   2.619   2.880   0.372  0.6475  1.7280  0.3955
  913SOL    HW2 3651   2.466   2.900   0.368  0.5255  1.3055  1.9113
  913SOL     MW 3652   2.549   2.930   0.365  0.3825  0.5200  0.5712
  914SOL     OW 3653   2.782   1.625   0.036  0.2195  0.1233 -0.2031
  914SOL    HW1 3654   2.779   1.683  -0.034 -0.6463 -1.5077  1.3714
  914SOL    HW2 3655   2.692   1.603   0.056 -0.6310  0.1777  2.0189
  914SOL     MW 3656   2.770   1.630   0.030 -0.0070 -0.0847  0.2978
  915SOL     OW 3657   1.870   0.170   0.215 -0.0240 -0.0981  0.0212
  915SOL    HW1 3658   1.908   0.096   0.260 -2.1293 -0.7414  0.0222
  915SOL    HW2 3659   1.773   0.166   0.234  0.2980  1.9130  2.0327
  915SOL     MW 3660   1.863   0.160   0.223 -0.2593  0.0823  0.2867
  916SOL     OW 3661   1.828   2.122   1.952 -0.7140  0.1785  0.0069
  916SOL    HW1 3662   1.815   2.218   1.933 -0.7714  2.6663 -1.6541
  916SOL    HW2 3663   1.834   2.071   1.871 -0.3085  1.8711 -1.1248
  916SOL     MW 3664   1.827   2.128   1.939 -0.6681  0.7301 -0.3615
  917SOL     OW 3665   2.248   2.337   2.677  0.7728  0.1995  0.0348
  917SOL    HW1 3666   2.306   2.319   2.755 -0.7652 -2.7193  1.1560
  917SOL    HW2 3667   2.275   2.428   2.652  0.4901  0.8729  0.3503
  917SOL     MW 3668   2.260   2.347   2.684  0.5326 -0.0968  0.2243
  918SOL     OW 3669   1.997   1.654   2.610  0.9243  0.0563  0.3390
  918SOL    HW1 3670   1.912   1.690   2.576 -1.6645 -1.0114  1.3831
  918SOL    HW2 3671   2.056   1.723   2.586  0.0083 -1.2617 -0.1968
  918SOL     MW 3672   1.994   1.668   2.603  0.4619 -0.2585  0.4061
  919SOL     OW 3673   3.024   2.387   2.276  0.2268  0.0108 -0.2023
  919SOL    HW1 3674   2.959   2.322   2.251  3.2514  3.0965  2.9776
  919SOL    HW2 3675   3.088   2.368   2.196 -2.3941 -0.2843 -0.3472
  919SOL     MW 3676   3.024   2.376   2.262  0.2800  0.3790  0.1981
  920SOL     OW 3677   2.769   2.824   0.032  0.0844  0.1031 -0.5551
  920SOL    HW1 3678   2.691   2.880   0.032  0.9153  2.8353 -1.0658
  920SOL    HW2 3679   2.755   2.762  -0.043 -0.7876  0.1006 -1.3722
  920SOL     MW 3680   2.757   2.823   0.022  0.0790  0.4632 -0.7303
  921SOL     OW 3681   2.547   2.671   2.687 -0.2187 -0.0149 -0.1656
  921SOL    HW1 3682   2.607   2.662   2.615 -1.2946  1.4285 -0.6289
  921SOL    HW2 3683   2.558   2.590   2.733 -2.9772 -2.0546  3.4670
  921SOL     MW 3684   2.556   2.659   2.684 -0.7246 -0.0936  0.2526
  922SOL     OW 3685   2.007   2.867   0.303 -0.3733  0.3914 -0.1320
  922SOL    HW1 3686   1.974   2.885   0.218  2.6314  0.8429 -0.1345
  922SOL    HW2 3687   1.979   2.778   0.314 -2.3989  0.2157  1.0425
  922SOL     MW 3688   1.999   2.857   0.293 -0.2441  0.4278  0.0227
  923SOL     OW 3689   2.172   2.817   1.598  0.1689  0.1324  0.0033
  923SOL    HW1 3690   2.231   2.769   1.539 -2.8962  2.5813 -1.7288
  923SOL    HW2 3691   2.185   2.915   1.586  1.6945  1.2613  1.6675
  923SOL     MW 3692   2.182   2.823   1.589 -0.0342  0.6045 -0.0056
  924SOL     OW 3693   1.161   2.743   2.459  0.2769 -0.0805 -0.1175
  924SOL    HW1 3694   1.212   2.800   2.402 -0.1215 -1.5070  0.2449
  924SOL    HW2 3695   1.219   2.717   2.530  0.2567  0.9078  0.0454
  924SOL     MW 3696   1.176   2.747   2.460  0.2217 -0.1383 -0.0482
  925SOL     OW 3697   3.029   0.272   2.693 -0.7331 -0.0777  0.5167
  925SOL    HW1 3698   3.040   0.299   2.605  1.1174 -0.6771  3.6279
  925SOL    HW2 3699   2.993   0.340   2.751  0.0141 -0.5528  1.2195
  925SOL     MW 3700   3.026   0.284   2.689 -0.3903 -0.2195  1.0199
  926SOL     OW 3701   2.678   2.401   2.019 -0.2258 -0.1800  0.1179
  926SOL    HW1 3702   2.699   2.469   2.083  0.3097  0.5199  1.4083
  926SOL    HW2 3703   2.746   2.401   1.946 -0.8366  0.6948  1.7286
  926SOL     MW 3704   2.690   2.410   2.018 -0.2358  0.0278  0.5006
  927SOL     OW 3705   2.402   0.157   0.280  0.5757 -0.0739  0.0440
  927SOL    HW1 3706   2.483   0.193   0.238 -0.0446 -0.4415 -1.7783
  927SOL    HW2 3707   2.341   0.125   0.206  3.0244  0.9563  1.9766
  927SOL     MW 3708   2.405   0.157   0.265  0.8169  0.0135  0.0585
  928SOL     OW 3709   2.045   2.448   1.841 -0.6559  0.4197 -0.2735
  928SOL    HW1 3710   2.125   2.400   1.837  2.5185 -0.0125 -0.5252
  928SOL    HW2 3711   2.058   2.527   1.899  1.1997  1.1408  1.5288
  928SOL     MW 3712   2.057   2.452   1.848  0.0077  0.4578 -0.0689
  929SOL     OW 3713   2.727   2.318   2.479 -0.0165  0.2238 -0.3971
  929SOL    HW1 3714   2.640   2.288   2.459  1.9483 -1.1544 -0.2472
  929SOL    HW2 3715   2.765   2.275   2.552  0.1217  2.8996 -2.6282
  929SOL     MW 3716   2.720   2.308   2.486  0.2610  0.3950 -0.6717
  930SOL     OW 3717   2.010   2.878   2.684 -0.1716 -0.2965 -0.4958
  930SOL    HW1 3718   2.011   2.835   2.769 -1.8031 -1.8449 -3.0894
  930SOL    HW2 3719   2.100   2.923   2.687  1.0707  2.4567  0.5934
  930SOL     MW 3720   2.022   2.878   2.696 -0.2230 -0.1375 -0.6943
  931SOL     OW 3721   2.943   2.823   2.145 -0.5289  0.2955  0.6984
  931SOL    HW1 3722   3.038   2.801   2.131  1.0713 -0.6480  0.7927
  931SOL    HW2 3723   2.911   2.867   2.068 -0.4440  1.3069 -0.6575
  931SOL     MW 3724   2.951   2.826   2.133 -0.3066  0.3045  0.5320
  932SOL     OW 3725   2.808   1.916   2.552 -0.3325 -0.2696 -0.0544
  932SOL    HW1 3726   2.883   1.973   2.569 -0.2825  0.6962 -0.9609
  932SOL    HW2 3727   2.785   1.943   2.461  0.2287 -0.5612  0.6138
  932SOL     MW 3728   2.815   1.927   2.542 -0.2519 -0.1807 -0.0859
  933SOL     OW 3729   2.094   2.803   2.269 -0.5159  0.0540  0.0775
  933SOL    HW1 3730   2.181   2.827   2.307 -1.7703 -1.3313 -0.9544
  933SOL    HW2 3731   2.047   2.875   2.225  1.5843 -1.0458 -0.8316
  933SOL     MW 3732   2.099   2.816   2.268 -0.4043 -0.2739 -0.1786
  934SOL     OW 3733   2.059   2.668   2.507 -1.3288 -0.1787 -0.3827
  934SOL    HW1 3734   2.047   2.751   2.555  0.6696  1.0084 -0.9621
  934SOL    HW2 3735   2.071   2.697   2.413 -0.3645 -2.3721 -4.5498
  934SOL     MW 3736   2.059   2.683   2.501 -0.9379 -0.3115 -1.0090
  935SOL     OW 3737   2.642   1.586   1.821 -0.5003  0.0098  0.4803
  935SOL    HW1 3738   2.726   1.588   1.774  0.1352 -1.1748 -1.9853
  935SOL    HW2 3739   2.568   1.576   1.756 -2.7247  2.0357 -2.2575
  935SOL     MW 3740   2.644   1.585   1.806 -0.7099  0.1208 -0.2063
  936SOL     OW 3741   2.904   2.202   0.004  0.9366  0.3427 -0.3778
  936SOL    HW1 3742   2.969   2.269   0.005 -0.5298  1.8096  2.0689
  936SOL    HW2 3743   2.827   2.259   0.011  2.1005 -0.5531  1.7966
  936SOL     MW 3744   2.903   2.218   0.005  0.8967  0.4180  0.2319
  937SOL     OW 3745   1.975   2.255   2.625 -0.2635  0.1462 -0.0873
  937SOL    HW1 3746   2.068   2.262   2.642  2.1962 -0.1794 -1.1028
  937SOL    HW2 3747   1.967   2.258   2.529  1.2477 -0.0244  0.7833
  937SOL     MW 3748   1.986   2.257   2.614  0.2604  0.0807 -0.1064
  938SOL     OW 3749   2.260   1.840   1.974 -0.4200  0.3432 -0.6097
  938SOL    HW1 3750   2.236   1.876   1.890  0.0427 -1.3273  1.4960
  938SOL    HW2 3751   2.279   1.913   2.039  2.9994 -1.8379 -0.7120
  938SOL     MW 3752   2.259   1.855   1.972  0.0922 -0.1650 -0.3454
  939SOL     OW 3753   2.781   2.035   2.253  0.4872 -0.7799 -0.2075
  939SOL    HW1 3754   2.794   1.953   2.210  0.7522  0.4083 -0.0793
  939SOL    HW2 3755   2.684   2.055   2.253 -2.4066  0.0695  0.9984
  939SOL     MW 3756   2.770   2.027   2.247  0.1404 -0.5110 -0.0315
  940SOL     OW 3757   2.295   0.175   2.657 -0.4392  0.1705  0.0310
  940SOL    HW1 3758   2.272   0.079   2.641  1.7862  2.8259 -0.2624
  940SOL    HW2 3759   2.330   0.180   2.750  0.3512 -0.4185  1.3378
  940SOL     MW 3760   2.297   0.163   2.667 -0.0413  0.4432  0.1647
  941SOL     OW 3761   0.082   2.348   2.051  0.4278 -0.0433 -0.8071
  941SOL    HW1 3762   0.149   2.289   2.041 -2.9355  2.2364 -2.1573
  941SOL    HW2 3763   0.011   2.314   1.996  1.0740  0.2293  1.5865
  941SOL     MW 3764   0.082   2.336   2.042  0.0693  0.2935 -0.6694
  942SOL     OW 3765   2.879   2.214   2.090 -0.1524  0.4567  0.2142
  942SOL    HW1 3766   2.815   2.280   2.077 -1.0965  0.6287  0.5474
  942SOL    HW2 3767   2.839   2.154   2.158 -0.3172 -0.8195 -1.0459
  942SOL     MW 3768   2.865   2.215   2.097 -0.2987  0.3110  0.0919
  943SOL     OW 3769   0.213   2.019   2.324  0.4460 -0.2366 -0.3576
  943SOL    HW1 3770   0.165   2.072   2.387 -2.2201  0.8386  0.3302
  943SOL    HW2 3771   0.287   1.975   2.368  1.3845  2.1907 -1.1345
  943SOL     MW 3772   0.217   2.020   2.338  0.2181  0.2255 -0.3693
  944SOL     OW 3773   2.145   2.656   2.040 -0.3057  0.2931  0.3950
  944SOL    HW1 3774   2.239   2.625   2.061 -0.4147 -1.8256 -1.9171
  944SOL    HW2 3775   2.116   2.708   2.115 -0.4590 -0.2290 -0.9718
  944SOL     MW 3776   2.154   2.659   2.052 -0.3403 -0.0553 -0.0904
  945SOL     OW 3777   2.772   2.631   2.930 -0.0464 -0.0182 -0.2433
  945SOL    HW1 3778   2.720   2.556   2.911  1.5740  1.9319 -3.0986
  945SOL    HW2 3779   2.817   2.661   2.851 -1.2077 -0.0576  3.0159
  945SOL     MW 3780   2.771   2.625   2.917  0.0142  0.2339 -0.1900
  946SOL     OW 3781   2.542   2.703   2.289 -0.3256  0.0602  0.0730
  946SOL    HW1 3782   2.573   2.746   2.206 -0.7090 -1.1271  0.5007
  946SOL    HW2 3783   2.475   2.644   2.251  1.8308  2.1188 -0.4740
  946SOL     MW 3784   2.537   2.701   2.273 -0.0917  0.1752  0.0572
  947SOL     OW 3785   2.064   0.041   0.417 -0.0030  0.4893 -0.2813
  947SOL    HW1 3786   2.076  -0.040   0.374  0.5509  3.3796  1.1885
  947SOL    HW2 3787   2.144   0.053   0.459 -2.9071 -2.0657 -1.8730
  947SOL     MW 3788   2.076   0.032   0.417 -0.3131  0.5335 -0.2974
  948SOL     OW 3789   1.821   3.100   2.650 -0.1746  0.1007  0.0391
  948SOL    HW1 3790   1.863   3.018   2.652 -0.5954 -1.1120 -2.9287
  948SOL    HW2 3791   1.840   3.122   2.561 -0.8244  1.7149  0.0518
  948SOL     MW 3792   1.829   3.092   2.639 -0.3158  0.1537 -0.3508
  949SOL     OW 3793   2.509   2.053   2.276  0.5904  0.6117  0.0010
  949SOL    HW1 3794   2.494   1.973   2.321 -0.0968 -0.5539  1.8122
  949SOL    HW2 3795   2.447   2.115   2.315  0.3034 -0.6688 -0.2339
  949SOL     MW 3796   2.498   2.051   2.287  0.4619  0.2890  0.2090
  950SOL     OW 3797   2.252   2.604   3.039 -0.3010  0.3128  0.7033
  950SOL    HW1 3798   2.274   2.522   2.993  0.2113  0.7142  0.9305
  950SOL    HW2 3799   2.179   2.635   2.974  1.0357  0.6295 -1.7677
  950SOL     MW 3800   2.245   2.598   3.025 -0.0570  0.4075  0.4073
  951SOL     OW 3801   2.864   2.056   2.885 -0.2281 -0.1287  0.1231
  951SOL    HW1 3802   2.890   2.102   2.966 -1.4862 -1.0899 -2.8587
  951SOL    HW2 3803   2.946   2.049   2.831 -0.3003  0.4334 -0.2485
  951SOL     MW 3804   2.878   2.061   2.889 -0.4036 -0.1813 -0.3193
  952SOL     OW 3805   3.036   1.665   2.056 -0.0150 -0.3092 -0.1811
  952SOL    HW1 3806   2.955   1.722   2.050 -1.8293 -1.2299  0.6447
  952SOL    HW2 3807   3.109   1.720   2.092  0.2070 -1.5113  0.0259
  952SOL     MW 3808   3.035   1.680   2.060 -0.2251 -0.5893 -0.0448
  953SOL     OW 3809   1.925   1.845   2.827 -0.0046  0.2764  0.5728
  953SOL    HW1 3810   1.835   1.819   2.851  0.7063 -1.3736 -1.3532
  953SOL    HW2 3811   1.956   1.772   2.781 -0.9798 -0.1749  0.2285
  953SOL     MW 3812   1.918   1.832   2.824 -0.0395 -0.0009  0.2733
  954SOL     OW 3813   2.422   2.025   2.912  0.2338  0.0087  0.7368
  954SOL    HW1 3814   2.347   2.020   2.845  1.2772 -0.6745  1.6689
  954SOL    HW2 3815   2.501   2.004   2.852 -0.4316 -0.7705 -0.4913
  954SOL     MW 3816   2.422   2.022   2.895  0.2837 -0.1842  0.6978
  955SOL     OW 3817   1.576   1.623   2.588 -0.2048  0.5038  0.4275
  955SOL    HW1 3818   1.529   1.606   2.506  0.4613  2.4793 -0.2599
  955SOL    HW2 3819   1.645   1.681   2.555 -2.2501  0.6368  1.7489
  955SOL     MW 3820   1.579   1.629   2.573 -0.3868  0.7820  0.5112
  956SOL     OW 3821   2.593   2.392   2.850 -0.3794  0.0248  0.1795
  956SOL    HW1 3822   2.627   2.368   2.938  2.6314 -1.9652  2.7922
  956SOL    HW2 3823   2.663   2.358   2.789 -0.9578  0.8555 -1.7299
  956SOL     MW 3824   2.607   2.384   2.853 -0.0584 -0.1282  0.2723
  957SOL     OW 3825   2.294   2.836   0.385 -0.7103  0.1482  0.2842
  957SOL    HW1 3826   2.207   2.843   0.336  1.1337  0.6300 -1.1656
  957SOL    HW2 3827   2.258   2.796   0.468 -3.1289 -0.9983 -1.5974
  957SOL     MW 3828   2.278   2.831   0.390 -0.7861  0.0605 -0.1553
  958SOL     OW 3829   2.040   2.687   2.902 -0.0206 -0.0776 -0.6782
  958SOL    HW1 3830   1.993   2.622   2.850 -1.3557 -1.0262  1.2008
  958SOL    HW2 3831   1.967   2.726   2.954  0.8722  0.8971  1.6073
  958SOL     MW 3832   2.024   2.684   2.902 -0.0790 -0.0742 -0.1287
  959SOL     OW 3833   2.455   2.587   0.358 -0.5539  0.3167  0.1243
  959SOL    HW1 3834   2.521   2.596   0.288  1.3498 -2.0341 -0.0618
  959SOL    HW2 3835   2.398   2.669   0.351 -0.4605  0.9070  0.7653
  959SOL     MW 3836   2.457   2.599   0.348 -0.2904  0.0844  0.1843
  960SOL     OW 3837   1.964   2.469   2.283 -0.0042  0.0596 -0.2456
  960SOL    HW1 3838   1.955   2.376   2.279  3.0265  1.9746 -0.7462
  960SOL    HW2 3839   1.913   2.494   2.358 -0.5209 -0.4821 -2.8885
  960SOL     MW 3840   1.956   2.460   2.292  0.3275  0.2408 -0.6604
  961SOL     OW 3841   2.249   2.456   2.323  0.1108 -0.2517  0.1462
  961SOL    HW1 3842   2.157   2.467   2.297 -1.2350  1.6644 -0.8972
  961SOL    HW2 3843   2.268   2.503   2.406 -1.8616  0.0846 -0.0623
  961SOL     MW 3844   2.240   2.464   2.330 -0.3270  0.0455 -0.0190
  962SOL     OW 3845   2.203   2.048   2.763 -0.2068  0.6034  0.1757
  962SOL    HW1 3846   2.151   2.002   2.831  0.2706 -1.8524  1.4193
  962SOL    HW2 3847   2.188   1.999   2.683  2.4764  0.2999 -2.2875
  962SOL     MW 3848   2.194   2.036   2.761  0.2102  0.2393  0.0148
  963SOL     OW 3849   1.738   2.515   2.157  0.2567  0.5747 -0.6515
  963SOL    HW1 3850   1.822   2.525   2.201  3.6960  0.0313  2.3413
  963SOL    HW2 3851   1.756   2.447   2.087  1.0364 -2.6336 -1.5747
  963SOL     MW 3852   1.752   2.507   2.153  0.8134  0.0797 -0.3785
  964SOL     OW 3853   1.823   2.011   2.618 -0.4262 -0.0643 -0.0411
  964SOL    HW1 3854   1.852   2.102   2.605  0.8159 -0.7261 -1.5776
  964SOL    HW2 3855   1.878   1.981   2.692 -2.1580 -2.0268 -4.2125
  964SOL     MW 3856   1.834   2.019   2.626 -0.4908 -0.4106 -0.7942
  965SOL     OW 3857   2.242   2.689   0.610 -0.5837 -0.5086  0.2459
  965SOL    HW1 3858   2.241   2.593   0.596  1.6673 -2.4591 -0.5044
  965SOL    HW2 3859   2.316   2.713   0.670  0.0755  0.5926 -4.8899
  965SOL     MW 3860   2.252   2.679   0.616 -0.1997 -0.6206 -0.5307
  966SOL     OW 3861   2.727   2.597   2.511  0.2905  0.1147  0.9221
  966SOL    HW1 3862   2.719   2.614   2.418 -1.4849 -0.2158  2.2659
  966SOL    HW2 3863   2.730   2.504   2.509  1.3625  0.6967 -0.6569
  966SOL     MW 3864   2.726   2.587   2.499  0.1977  0.1479  0.8911
  967SOL     OW 3865   2.828   3.057   2.955  0.8859 -0.6781 -0.4216
  967SOL    HW1 3866   2.820   2.992   3.024 -1.3566 -1.3204 -0.5184
  967SOL    HW2 3867   2.738   3.089   2.940  3.2771  2.5223  1.5457
  967SOL     MW 3868   2.815   3.053   2.962  0.9055 -0.3406 -0.1748
  968SOL     OW 3869   3.029   2.501   3.038  0.0307  0.6871 -0.2053
  968SOL    HW1 3870   2.956   2.553   3.016 -2.7847 -0.3293 -0.6993
  968SOL    HW2 3871   3.056   2.466   2.946  0.7557  2.5912 -0.0141
  968SOL     MW 3872   3.023   2.503   3.023 -0.2451  0.8042 -0.2453
  969SOL     OW 3873   1.542   2.131   1.715  0.2108  0.2884  0.2350
  969SOL    HW1 3874   1.612   2.063   1.698  3.3485 -1.2739  1.4900
  969SOL    HW2 3875   1.542   2.128   1.810  1.1813 -2.4984  1.0905
  969SOL     MW 3876   1.551   2.122   1.725  0.7528 -0.2855  0.5134
  970SOL     OW 3877   1.692   1.684   1.821  0.2673  0.3689 -0.1092
  970SOL    HW1 3878   1.755   1.658   1.887 -0.8287  0.1093  0.6444
  970SOL    HW2 3879   1.617   1.713   1.872  2.6585  0.9779  0.6142
  970SOL     MW 3880   1.690   1.684   1.837  0.4382  0.4150  0.0857
  971SOL     OW 3881   1.876   0.086   2.371 -0.4097  0.2130  0.4290
  971SOL    HW1 3882   1.893   0.009   2.310  0.0578 -2.9878 -0.9640
  971SOL    HW2 3883   1.958   0.133   2.381  1.0455  1.9919  2.6477
  971SOL     MW 3884   1.889   0.082   2.364 -0.1560  0.0254  0.5380
  972SOL     OW 3885   0.237   2.777   2.538  0.2256 -0.6220 -0.3867
  972SOL    HW1 3886   0.259   2.683   2.541  0.0155  2.2256  2.7767
  972SOL    HW2 3887   0.313   2.833   2.549  0.6219  0.1430 -0.4033
  972SOL     MW 3888   0.250   2.772   2.540  0.2501 -0.1454  0.0285
  973SOL     OW 3889   2.620   3.082   2.074 -0.5993  0.7462 -0.5681
  973SOL    HW1 3890   2.599   2.997   2.040  0.8912 -0.9865  3.4164
  973SOL    HW2 3891   2.610   3.131   1.989 -0.5780  1.1817 -0.5132
  973SOL     MW 3892   2.616   3.078   2.058 -0.3998  0.5750 -0.0351
  974SOL     OW 3893   2.036   0.316   2.706  0.3251 -0.0818  0.5188
  974SOL    HW1 3894   2.087   0.239   2.729  0.6746  0.9549 -0.2524
  974SOL    HW2 3895   1.960   0.309   2.757  0.7409  0.2915  1.3080
  974SOL     MW 3896   2.033   0.305   2.716  0.4260  0.1042  0.5212
  975SOL     OW 3897   2.313   2.588   2.572  0.3957 -0.3344 -0.0382
  975SOL    HW1 3898   2.402   2.629   2.584 -1.5284  0.3774 -0.4157
  975SOL    HW2 3899   2.243   2.653   2.579  1.2473 -0.2186  0.2739
  975SOL     MW 3900   2.316   2.602   2.574  0.2542 -0.2252 -0.0469
  976SOL     OW 3901   0.275   0.258   1.685 -0.2985 -0.0223 -0.4522
  976SOL    HW1 3902   0.329   0.208   1.751  0.1758  0.5295  3.2276
  976SOL    HW2 3903   0.186   0.216   1.686 -1.8529  0.9490  0.4700
  976SOL     MW 3904   0.270   0.246   1.694 -0.4410  0.1787  0.1550
  977SOL     OW 3905   1.693   2.790   2.493 -0.6353 -0.4525  0.6332
  977SOL    HW1 3906   1.723   2.699   2.489 -2.7507  1.9341 -0.8358
  977SOL    HW2 3907   1.763   2.829   2.441 -1.3148  1.1721 -0.5993
  977SOL     MW 3908   1.707   2.783   2.486 -1.0040  0.0767  0.2768
   3.10000   3.10000   3.10000
