977 TIP4P/2005f water molecules t=   0.67000 step= 670
 3908
    1SOL     OW    1   0.183   0.844   3.095  0.4745  0.6248 -0.6807
    1SOL    HW1    2   0.178   0.843   3.003  1.6436 -0.4031 -1.6727
    1SOL    HW2    3   0.171   0.749   3.099 -0.4772 -0.5706 -0.2597
    1SOL     MW    4   0.181   0.831   3.083  0.5032  0.3315 -0.7560
    2SOL     OW    5   0.222   3.001   1.191  0.0831 -0.5919 -0.4258
    2SOL    HW1    6   0.303   3.033   1.156  1.1596  0.8952  1.1934
    2SOL    HW2    7   0.156   3.063   1.157 -0.7483  1.1077  1.2247
    2SOL     MW    8   0.224   3.013   1.182  0.1155 -0.1714  0.0056
    3SOL     OW    9   2.672   0.401   0.928 -0.3667 -0.7065  0.1107
    3SOL    HW1   10   2.696   0.485   0.885  1.9611  2.8758 -0.0176
    3SOL    HW2   11   2.625   0.436   1.003  0.0597  0.0413 -2.9771
    3SOL     MW   12   2.669   0.417   0.932 -0.0033 -0.1352 -0.3137
    4SOL     OW   13   3.040   1.707   0.601  0.4127 -0.1335 -0.2430
    4SOL    HW1   14   2.958   1.743   0.562  2.3938 -1.2221  1.0187
    4SOL    HW2   15   3.089   1.670   0.529  1.7869 -0.2965  0.4397
    4SOL     MW   16   3.035   1.707   0.586  0.8554 -0.2986  0.0136
    5SOL     OW   17   1.717   1.494   0.524  0.1981 -0.0425 -0.4953
    5SOL    HW1   18   1.782   1.447   0.580 -1.1926  2.1309 -0.7086
    5SOL    HW2   19   1.629   1.468   0.555 -2.9358 -0.6485 -1.4350
    5SOL     MW   20   1.714   1.484   0.536 -0.3988  0.1643 -0.6474
    6SOL     OW   21   0.858   1.384   0.664 -0.3250  0.3013 -0.4841
    6SOL    HW1   22   0.769   1.407   0.690 -0.2300 -1.8768  0.3796
    6SOL    HW2   23   0.891   1.319   0.728  2.2031  2.1720 -1.6123
    6SOL     MW   24   0.850   1.379   0.676  0.0211  0.2607 -0.5190
    7SOL     OW   25   1.995   1.126   0.008 -0.1199 -0.3690  0.2242
    7SOL    HW1   26   2.016   1.177  -0.068 -1.4108  2.8578 -0.1232
    7SOL    HW2   27   2.064   1.142   0.074  1.2630  2.9786 -1.2470
    7SOL     MW   28   2.007   1.135   0.007 -0.1078  0.4985 -0.0158
    8SOL     OW   29   0.952   1.336   1.022 -0.1088 -0.1592  0.1389
    8SOL    HW1   30   1.037   1.323   0.994 -1.8779  1.3929  1.9366
    8SOL    HW2   31   0.928   1.255   1.072  0.4853  0.2671 -1.8174
    8SOL     MW   32   0.960   1.323   1.025 -0.2638  0.1018  0.1180
    9SOL     OW   33   1.052   0.456   1.351 -0.2690  0.3453 -0.1533
    9SOL    HW1   34   0.981   0.389   1.331 -0.1729 -1.5798  1.3492
    9SOL    HW2   35   1.107   0.411   1.415  0.0844 -1.1152  0.8598
    9SOL     MW   36   1.050   0.441   1.357 -0.2097 -0.1014  0.1786
   10SOL     OW   37   0.269   0.806   0.431  0.6574  0.1909  0.2312
   10SOL    HW1   38   0.359   0.794   0.406 -4.8269 -1.0442  0.3660
   10SOL    HW2   39   0.275   0.873   0.502  0.6831 -1.5839  3.1778
   10SOL     MW   40   0.281   0.813   0.437 -0.0628 -0.2062  0.6378
   11SOL     OW   41   0.780   1.162   1.694 -0.5925  0.7824 -0.3839
   11SOL    HW1   42   0.844   1.128   1.751 -0.5181  1.2967 -1.9021
   11SOL    HW2   43   0.777   1.083   1.626  2.5536  0.4708  2.4647
   11SOL     MW   44   0.788   1.147   1.692 -0.1676  0.8091 -0.2083
   12SOL     OW   45   3.088   1.070   0.884 -0.4041 -0.2604 -0.1779
   12SOL    HW1   46   3.112   1.148   0.934  3.7768  0.7863  0.1977
   12SOL    HW2   47   3.028   1.112   0.817  1.0819 -0.3589 -2.4995
   12SOL     MW   48   3.083   1.086   0.882  0.3436 -0.1353 -0.4346
   13SOL     OW   49   1.850   1.413   1.331  0.2272  0.0098  0.2685
   13SOL    HW1   50   1.898   1.390   1.245  0.8949 -0.8583  0.4930
   13SOL    HW2   51   1.854   1.509   1.346  0.5769 -1.3293 -0.8301
   13SOL     MW   52   1.857   1.423   1.321  0.3615 -0.2814  0.1531
   14SOL     OW   53   0.606   0.376   1.804  0.1823  0.3265  0.2173
   14SOL    HW1   54   0.549   0.297   1.804 -3.5433  2.5144  3.0480
   14SOL    HW2   55   0.687   0.357   1.853  0.6640 -1.6846  1.2308
   14SOL     MW   56   0.609   0.363   1.810 -0.2457  0.3498  0.7245
   15SOL     OW   57   1.945   0.486   0.951  0.5458 -0.3111 -0.1812
   15SOL    HW1   58   1.974   0.520   1.036  0.5289  0.5678  0.2087
   15SOL    HW2   59   2.029   0.445   0.929  1.4933  0.6444 -1.3619
   15SOL     MW   60   1.960   0.485   0.959  0.6686 -0.0691 -0.2855
   16SOL     OW   61   0.249   1.839   0.342 -0.0873  0.2849  0.0646
   16SOL    HW1   62   0.332   1.786   0.340  0.2576 -1.5976 -2.9129
   16SOL    HW2   63   0.253   1.927   0.386 -0.7560  2.4656  1.9363
   16SOL     MW   64   0.260   1.844   0.347 -0.1300  0.3242 -0.0813
   17SOL     OW   65   1.037   0.897   1.514  0.0513  0.5841  0.2682
   17SOL    HW1   66   1.086   0.867   1.589  1.8251  0.4233 -1.6233
   17SOL    HW2   67   0.946   0.886   1.529  0.3287 -0.9064  2.8380
   17SOL     MW   68   1.031   0.892   1.526  0.3219  0.3662  0.3577
   18SOL     OW   69   0.105   1.617   0.382 -0.0549  0.1001  0.2775
   18SOL    HW1   70   0.166   1.692   0.381 -1.5576  0.4325  0.5626
   18SOL    HW2   71   0.104   1.589   0.293 -0.0144  0.4966 -0.2631
   18SOL     MW   72   0.113   1.623   0.370 -0.2478  0.1963  0.2438
   19SOL     OW   73   0.097   1.306   0.975  0.6407  0.1561 -0.0357
   19SOL    HW1   74   0.138   1.369   0.912 -1.4569 -2.7606 -0.4998
   19SOL    HW2   75   0.029   1.359   1.010  0.3235  2.1721 -0.5224
   19SOL     MW   76   0.094   1.321   0.972  0.3221  0.0373 -0.1612
   20SOL     OW   77   0.407   2.136   1.212  0.1287 -0.0265 -0.3292
   20SOL    HW1   78   0.349   2.073   1.169 -1.1596  0.7777 -2.2579
   20SOL    HW2   79   0.356   2.170   1.282  1.1754 -1.2091  0.7047
   20SOL     MW   80   0.393   2.132   1.216  0.0969 -0.0764 -0.4472
   21SOL     OW   81   0.531   0.805   0.357 -0.0728  0.1933 -0.0627
   21SOL    HW1   82   0.618   0.807   0.400 -0.3684  1.4256  1.4329
   21SOL    HW2   83   0.553   0.806   0.262  1.4151 -0.4169  1.9358
   21SOL     MW   84   0.545   0.805   0.350  0.0845  0.2754  0.3983
   22SOL     OW   85   1.488   0.587   1.123 -0.3973  0.6231  0.3022
   22SOL    HW1   86   1.499   0.534   1.042 -2.2326  1.7951  2.2021
   22SOL    HW2   87   1.414   0.645   1.113  0.3786  1.2837  2.8170
   22SOL     MW   88   1.480   0.588   1.111 -0.5371  0.8649  0.8847
   23SOL     OW   89   0.008   0.776   0.652 -0.0786 -0.0395 -0.0497
   23SOL    HW1   90   0.047   0.707   0.709  1.6493  2.4032  1.2109
   23SOL    HW2   91   0.079   0.834   0.645 -0.4813  1.1583 -2.1248
   23SOL     MW   92   0.023   0.774   0.658  0.0962  0.4408 -0.1572
   24SOL     OW   93   2.018   2.225   0.104 -0.1708 -0.2131 -0.2515
   24SOL    HW1   94   2.027   2.168   0.181  0.9527  2.2700  1.4342
   24SOL    HW2   95   2.057   2.170   0.035 -1.7620  2.0187 -0.6740
   24SOL     MW   96   2.024   2.210   0.105 -0.2325  0.4090 -0.0848
   25SOL     OW   97   0.197   1.358   0.536 -0.1929  0.3208 -0.3306
   25SOL    HW1   98   0.148   1.424   0.489  0.1122 -0.2461 -0.7876
   25SOL    HW2   99   0.286   1.379   0.495 -0.7400 -1.5493 -0.1983
   25SOL     MW  100   0.203   1.369   0.524 -0.2248 -0.0007 -0.3734
   26SOL     OW  101   2.000   0.957   0.404  0.0292  0.6166 -0.7041
   26SOL    HW1  102   1.930   0.994   0.472 -0.9625  0.5859 -0.7899
   26SOL    HW2  103   2.039   1.037   0.358 -1.3615  2.9653  1.1806
   26SOL     MW  104   1.996   0.973   0.407 -0.2851  0.9224 -0.4667
   27SOL     OW  105   2.051   1.407   0.211  0.3109  0.2670 -0.4939
   27SOL    HW1  106   1.966   1.377   0.248 -0.9028  1.3875 -0.1171
   27SOL    HW2  107   2.079   1.472   0.278  0.4221 -0.4727  1.1598
   27SOL     MW  108   2.044   1.412   0.225  0.1655  0.3173 -0.2260
   28SOL     OW  109   0.393   1.076   2.009 -0.1894 -0.3702  0.5854
   28SOL    HW1  110   0.449   1.005   2.033 -0.0184 -1.2376 -1.5918
   28SOL    HW2  111   0.310   1.045   2.045 -2.0951  3.8836  1.2913
   28SOL     MW  112   0.390   1.062   2.017 -0.4183  0.0766  0.3913
   29SOL     OW  113   0.212   1.460   0.799 -0.2649  0.4591 -0.7433
   29SOL    HW1  114   0.245   1.549   0.786 -1.4539  0.8389 -0.6335
   29SOL    HW2  115   0.204   1.435   0.707 -0.6420 -0.9377 -2.0750
   29SOL     MW  116   0.215   1.469   0.785 -0.4715  0.3249 -0.9045
   30SOL     OW  117   0.819   1.183   1.212 -0.4633  0.3763 -0.3464
   30SOL    HW1  118   0.739   1.200   1.264  1.6164  2.0926  1.6859
   30SOL    HW2  119   0.892   1.178   1.278 -0.8956  1.3536 -1.2961
   30SOL     MW  120   0.818   1.185   1.228 -0.2459  0.7317 -0.2036
   31SOL     OW  121   0.403   0.180   0.166  0.9223 -0.1361  0.6212
   31SOL    HW1  122   0.414   0.121   0.240 -1.2131  1.0800  0.1012
   31SOL    HW2  123   0.403   0.118   0.095  1.7698 -2.2615  3.1887
   31SOL     MW  124   0.404   0.164   0.166  0.7524 -0.2561  0.8914
   32SOL     OW  125   2.789   1.001   1.132  0.2575 -0.2738  0.0119
   32SOL    HW1  126   2.726   0.939   1.088 -1.8319  0.0090 -0.2822
   32SOL    HW2  127   2.876   0.967   1.104 -0.2563  2.6719 -0.2432
   32SOL     MW  128   2.792   0.988   1.122 -0.0860  0.1522 -0.0605
   33SOL     OW  129   1.839   1.318   0.356 -0.0860 -0.1932  0.1906
   33SOL    HW1  130   1.826   1.242   0.412  0.0117 -0.7195 -1.5198
   33SOL    HW2  131   1.807   1.400   0.399  0.3246 -0.4642  0.9570
   33SOL     MW  132   1.833   1.319   0.369 -0.0189 -0.2984  0.0661
   34SOL     OW  133   1.242   1.870   1.086  0.0321  0.1307 -0.3601
   34SOL    HW1  134   1.153   1.906   1.101  2.3145 -0.8665 -0.1294
   34SOL    HW2  135   1.302   1.890   1.163  1.1948 -0.3870  1.8573
   34SOL     MW  136   1.238   1.878   1.098  0.4867 -0.0692 -0.0371
   35SOL     OW  137   0.390   0.161   1.856  0.5354  0.0298 -0.0884
   35SOL    HW1  138   0.389   0.127   1.944  1.8019  1.6222  0.5133
   35SOL    HW2  139   0.380   0.087   1.797  0.5377  2.3977  0.3926
   35SOL     MW  140   0.389   0.147   1.860  0.7028  0.5523  0.0544
   36SOL     OW  141   1.838   1.938   0.497  0.2728  0.1002 -0.0543
   36SOL    HW1  142   1.872   1.928   0.412 -0.9436  0.0695 -0.4569
   36SOL    HW2  143   1.871   1.855   0.538  0.3296  0.9172 -2.0138
   36SOL     MW  144   1.847   1.926   0.491  0.1198  0.2040 -0.3659
   37SOL     OW  145   1.763   1.980   1.048 -0.1945 -0.0569 -0.7206
   37SOL    HW1  146   1.707   1.948   0.973 -0.3866  0.1481 -1.3634
   37SOL    HW2  147   1.708   2.039   1.096  0.9570  0.5156 -2.7332
   37SOL     MW  148   1.748   1.984   1.044 -0.0679  0.0457 -1.0709
   38SOL     OW  149   2.812   0.897   0.160 -0.5519 -0.1771  0.0209
   38SOL    HW1  150   2.851   0.907   0.251 -0.7206  1.0038 -0.2911
   38SOL    HW2  151   2.878   0.855   0.109 -0.9430 -0.4947 -0.5546
   38SOL     MW  152   2.826   0.893   0.165 -0.6257 -0.0632 -0.0962
   39SOL     OW  153   1.405   0.645   0.777  0.1357 -0.1224 -0.0415
   39SOL    HW1  154   1.426   0.550   0.793 -0.3297 -0.3906 -2.4030
   39SOL    HW2  155   1.310   0.647   0.770  1.9183  2.9499 -0.6685
   39SOL     MW  156   1.396   0.633   0.779  0.3095  0.2475 -0.4358
   40SOL     OW  157   1.193   1.912   0.221 -0.1397  0.5031 -0.0680
   40SOL    HW1  158   1.234   1.849   0.282 -1.0682 -2.3032 -0.0664
   40SOL    HW2  159   1.167   1.988   0.280 -1.4788 -0.9746  1.3810
   40SOL     MW  160   1.195   1.914   0.237 -0.4389 -0.0621  0.1234
   41SOL     OW  161   0.623   0.490   1.566 -0.2668  0.6941 -0.0163
   41SOL    HW1  162   0.717   0.518   1.567 -0.1614  1.4320 -0.1060
   41SOL    HW2  163   0.619   0.434   1.651  0.5082  3.3739 -0.0920
   41SOL     MW  164   0.635   0.487   1.578 -0.1507  1.1450 -0.0381
   42SOL     OW  165   1.245   3.004   2.013 -0.4815  0.4144 -0.4025
   42SOL    HW1  166   1.154   2.999   2.044 -1.6404 -1.0418 -0.3471
   42SOL    HW2  167   1.280   2.918   2.016  0.1666  0.9816 -2.6540
   42SOL     MW  168   1.238   2.992   2.018 -0.5489  0.2971 -0.6923
   43SOL     OW  169   1.555   0.127   1.762 -0.2123  0.1208 -0.2715
   43SOL    HW1  170   1.611   0.092   1.691 -2.0487 -2.0977 -0.7020
   43SOL    HW2  171   1.473   0.077   1.744  2.2522 -0.8150 -0.4689
   43SOL     MW  172   1.551   0.116   1.750 -0.1294 -0.2954 -0.3544
   44SOL     OW  173   1.261   0.759   1.090 -0.0808 -0.0889 -0.8732
   44SOL    HW1  174   1.228   0.844   1.061 -0.2248 -2.2236 -0.7985
   44SOL    HW2  175   1.248   0.753   1.188 -2.5470  0.9978  0.0885
   44SOL     MW  176   1.255   0.769   1.099 -0.4252 -0.2271 -0.7365
   45SOL     OW  177   1.146   0.711   0.744  0.6225  0.6303 -0.6299
   45SOL    HW1  178   1.112   0.649   0.805  0.4130  0.9563 -2.0410
   45SOL    HW2  179   1.113   0.671   0.662  0.6925 -2.2239 -0.3561
   45SOL     MW  180   1.137   0.697   0.741  0.6041  0.2967 -0.7800
   46SOL     OW  181   0.556   1.176   0.558 -0.3221 -0.6876  0.3931
   46SOL    HW1  182   0.527   1.156   0.474  0.5440 -1.3355 -0.0180
   46SOL    HW2  183   0.650   1.155   0.552 -2.5738  2.9127 -0.8064
   46SOL     MW  184   0.565   1.171   0.546 -0.5050 -0.2980  0.1806
   47SOL     OW  185   0.163   1.917   1.780  0.3127 -0.1780  0.0292
   47SOL    HW1  186   0.232   1.858   1.751 -2.9376  1.5646  0.0479
   47SOL    HW2  187   0.150   1.899   1.877 -2.3312  0.8554 -0.1619
   47SOL     MW  188   0.171   1.907   1.789 -0.4650  0.1883  0.0065
   48SOL     OW  189   1.076   0.569   0.960  0.5288 -0.6813 -0.1400
   48SOL    HW1  190   0.994   0.525   0.981  2.4358  0.8298 -0.4523
   48SOL    HW2  191   1.103   0.638   1.020  1.0870  0.3297 -1.1900
   48SOL     MW  192   1.069   0.572   0.971  0.8541 -0.3485 -0.3197
   49SOL     OW  193   1.815   0.747   1.585 -0.0109 -0.2931  0.4577
   49SOL    HW1  194   1.773   0.730   1.671  1.9719  0.2370 -1.1719
   49SOL    HW2  195   1.860   0.661   1.559  0.9244 -1.5672  0.9877
   49SOL     MW  196   1.816   0.733   1.593  0.3741 -0.3912  0.3126
   50SOL     OW  197   1.177   1.069   0.524  0.3452  0.3647  0.2746
   50SOL    HW1  198   1.160   1.112   0.609  1.3004  0.1527 -1.5688
   50SOL    HW2  199   1.235   0.998   0.543 -0.8325  1.0014  0.4106
   50SOL     MW  200   1.182   1.065   0.538  0.3158  0.4207  0.0494
   51SOL     OW  201   0.311   2.887   0.935 -0.4909 -0.0272  0.3208
   51SOL    HW1  202   0.401   2.885   0.969  2.5350  0.9189 -0.7980
   51SOL    HW2  203   0.262   2.905   1.013 -1.8590  1.1020  1.8760
   51SOL     MW  204   0.316   2.889   0.950 -0.2722  0.2466  0.3784
   52SOL     OW  205   0.796   1.827   0.458  0.5774  0.5487 -0.3037
   52SOL    HW1  206   0.757   1.912   0.465  0.9686 -1.0903  2.0884
   52SOL    HW2  207   0.809   1.807   0.363  0.4256 -1.9564 -0.1254
   52SOL     MW  208   0.793   1.836   0.446  0.6090  0.0019  0.0354
   53SOL     OW  209   0.461   2.150   0.653 -0.4446  0.1572  0.2622
   53SOL    HW1  210   0.375   2.141   0.614  0.3630 -3.1175 -3.0921
   53SOL    HW2  211   0.483   2.248   0.648  0.9148 -1.2543 -3.6262
   53SOL     MW  212   0.453   2.162   0.648 -0.1587 -0.4611 -0.6934
   54SOL     OW  213   2.142   0.872   0.870 -0.6385  0.3225 -0.2585
   54SOL    HW1  214   2.191   0.855   0.792 -2.4455 -0.9295  0.4728
   54SOL    HW2  215   2.049   0.847   0.849 -1.0880 -1.6536 -0.0141
   54SOL     MW  216   2.136   0.867   0.857 -0.9362 -0.1034 -0.1297
   55SOL     OW  217   0.593   1.528   1.626 -0.2827 -0.0577  0.6094
   55SOL    HW1  218   0.533   1.560   1.559 -0.9834 -1.5094 -0.2313
   55SOL    HW2  219   0.662   1.480   1.584  1.6115 -1.5499  1.7008
   55SOL     MW  220   0.594   1.526   1.612 -0.1252 -0.4462  0.6425
   56SOL     OW  221   0.535   0.783   0.074  0.4471 -0.5290 -0.5058
   56SOL    HW1  222   0.557   0.871   0.041 -0.2973  1.2384  0.2124
   56SOL    HW2  223   0.461   0.748   0.019 -2.0018  1.2921 -0.4063
   56SOL     MW  224   0.528   0.790   0.062  0.0258 -0.0555 -0.3979
   57SOL     OW  225   1.222   1.216   1.120 -0.4680  0.1015 -0.6831
   57SOL    HW1  226   1.301   1.265   1.081  0.8586 -0.0456  1.5534
   57SOL    HW2  227   1.259   1.195   1.211  1.3111  0.8019  2.3326
   57SOL     MW  228   1.237   1.220   1.127 -0.0582  0.1745  0.0099
   58SOL     OW  229   0.534   1.177   1.302 -0.2262 -0.0927 -0.2191
   58SOL    HW1  230   0.502   1.266   1.268  0.1140  0.8623 -1.7321
   58SOL    HW2  231   0.565   1.193   1.396 -1.4622  0.2406 -0.9676
   58SOL     MW  232   0.534   1.191   1.310 -0.3444  0.0772 -0.5175
   59SOL     OW  233   1.535   1.685   0.328  0.2365  0.0558  0.0301
   59SOL    HW1  234   1.586   1.672   0.411 -0.4752 -0.9978 -1.0459
   59SOL    HW2  235   1.452   1.730   0.352 -0.1974  2.3324  0.1417
   59SOL     MW  236   1.531   1.689   0.342  0.0853  0.2171 -0.0971
   60SOL     OW  237   0.073   0.156   1.656  0.5269  0.3298 -1.2236
   60SOL    HW1  238  -0.011   0.183   1.624 -2.0847 -0.3393  1.8021
   60SOL    HW2  239   0.056   0.103   1.733  1.2958  1.0034  0.3337
   60SOL     MW  240   0.060   0.152   1.662  0.2838  0.3304 -0.6189
   61SOL     OW  241   2.062   1.461   3.040 -0.1224  0.0305  0.2570
   61SOL    HW1  242   2.065   1.417   3.128 -2.2419  1.1995  0.6604
   61SOL    HW2  243   2.108   1.396   2.988  0.7026  0.7904  0.7174
   61SOL     MW  244   2.068   1.446   3.044 -0.2932  0.2850  0.3710
   62SOL     OW  245   0.610   1.715   0.627 -0.8412  0.1410  0.3316
   62SOL    HW1  246   0.676   1.734   0.567  1.0231 -1.1787  0.3978
   62SOL    HW2  247   0.609   1.617   0.638 -1.0480 -0.2044  2.3292
   62SOL     MW  248   0.619   1.705   0.621 -0.6225 -0.0787  0.6039
   63SOL     OW  249   1.670   0.709   0.735  0.2462 -0.4851  0.2378
   63SOL    HW1  250   1.652   0.768   0.659  0.5314  2.1875  1.0392
   63SOL    HW2  251   1.582   0.699   0.771 -0.0214 -1.8488 -0.3792
   63SOL     MW  252   1.656   0.716   0.730  0.2485 -0.3124  0.2621
   64SOL     OW  253   0.273   1.715   0.738 -0.3542  0.1122  0.3149
   64SOL    HW1  254   0.350   1.774   0.724 -0.1186 -1.3888  1.7690
   64SOL    HW2  255   0.206   1.769   0.716 -0.6563 -0.3623 -0.8287
   64SOL     MW  256   0.274   1.730   0.733 -0.3630 -0.1484  0.3559
   65SOL     OW  257   1.547   2.353   0.398 -0.2608  0.2621  0.5953
   65SOL    HW1  258   1.639   2.352   0.371 -0.5456  0.1839  0.9417
   65SOL    HW2  259   1.534   2.395   0.481  1.6575 -3.6549 -0.7327
   65SOL     MW  260   1.557   2.359   0.405 -0.0453 -0.2650  0.4658
   66SOL     OW  261   0.295   0.550   0.577  0.2391 -0.2792  0.1458
   66SOL    HW1  262   0.343   0.490   0.521 -1.2461  1.5489 -2.4074
   66SOL    HW2  263   0.284   0.630   0.524  1.4487 -0.5390 -1.4505
   66SOL     MW  264   0.300   0.553   0.563  0.2027 -0.0723 -0.4017
   67SOL     OW  265   1.477   0.089   2.022  0.9786 -0.3172  0.2589
   67SOL    HW1  266   1.532   0.101   1.942  1.2091 -1.2585  0.6076
   67SOL    HW2  267   1.434   0.005   2.016  1.0481  1.0937 -1.6870
   67SOL     MW  268   1.479   0.079   2.011  1.0182 -0.2552  0.0482
   68SOL     OW  269   0.641   0.090   2.947  0.1336  0.5814 -0.0248
   68SOL    HW1  270   0.637   0.138   2.866 -1.2508 -0.9119 -0.2038
   68SOL    HW2  271   0.683   0.160   3.002 -0.6243  0.9956  1.9213
   68SOL     MW  272   0.646   0.106   2.944 -0.1491  0.4390  0.2083
   69SOL     OW  273   0.992   0.173   1.987 -0.3006 -0.0149  0.4586
   69SOL    HW1  274   1.079   0.208   2.015  3.7084  0.4394 -1.7738
   69SOL    HW2  275   0.980   0.089   2.034  1.3001 -1.7993  2.1094
   69SOL     MW  276   1.002   0.167   1.997  0.4396 -0.1904  0.3818
   70SOL     OW  277   0.522   1.715   1.125  0.3147 -0.0897 -0.4250
   70SOL    HW1  278   0.561   1.688   1.212  0.3535 -0.7204  1.6272
   70SOL    HW2  279   0.593   1.749   1.077 -0.0399 -3.1534  2.0232
   70SOL     MW  280   0.536   1.716   1.130  0.2730 -0.5771  0.1688
   71SOL     OW  281   1.635   0.547   1.324 -0.3468 -0.0429 -0.5205
   71SOL    HW1  282   1.616   0.630   1.367 -1.0479 -0.7881  0.7326
   71SOL    HW2  283   1.582   0.558   1.237  1.1168  1.6559 -1.2231
   71SOL     MW  284   1.625   0.559   1.318 -0.2462  0.0829 -0.4479
   72SOL     OW  285   0.777   1.771   0.980 -0.2118  0.2080  0.1802
   72SOL    HW1  286   0.788   1.790   0.889 -1.8672 -0.9388  0.4708
   72SOL    HW2  287   0.764   1.673   0.983 -2.1710 -1.0320 -0.9587
   72SOL     MW  288   0.777   1.761   0.968 -0.6887 -0.1069  0.0682
   73SOL     OW  289   1.177   0.704   1.361 -0.4504 -0.1936  0.2479
   73SOL    HW1  290   1.131   0.619   1.368 -3.8519  0.5163  0.2587
   73SOL    HW2  291   1.118   0.769   1.396  2.7796  0.6142  1.0107
   73SOL     MW  292   1.163   0.701   1.366 -0.4730  0.0067  0.3500
   74SOL     OW  293   2.820   0.180   0.946 -0.5971 -0.1291 -0.1886
   74SOL    HW1  294   2.823   0.159   0.855 -1.2780  1.2261  1.4491
   74SOL    HW2  295   2.763   0.260   0.944  0.1243  1.7444 -1.0809
   74SOL     MW  296   2.813   0.188   0.934 -0.5918  0.2969 -0.0903
   75SOL     OW  297   1.673   1.379   0.104 -0.1936 -0.2630 -0.5324
   75SOL    HW1  298   1.723   1.409   0.182  0.2735  1.7826 -1.9215
   75SOL    HW2  299   1.697   1.285   0.086  1.5844 -3.2824  1.2672
   75SOL     MW  300   1.683   1.371   0.112  0.1026 -0.3915 -0.4782
   76SOL     OW  301   3.003   0.621   0.425  0.4892 -0.2990  0.0394
   76SOL    HW1  302   3.055   0.651   0.503  2.5561  3.1885 -2.0612
   76SOL    HW2  303   3.049   0.547   0.393 -1.4616  0.2154  1.7657
   76SOL     MW  304   3.016   0.615   0.431  0.5045  0.2290 -0.0100
   77SOL     OW  305   0.830   0.544   0.417 -0.5278  0.3978 -0.3908
   77SOL    HW1  306   0.807   0.572   0.331 -1.3320  0.1820  1.6373
   77SOL    HW2  307   0.754   0.497   0.456 -1.3031 -0.6447  0.3165
   77SOL     MW  308   0.817   0.541   0.410 -0.7362  0.2318 -0.0299
   78SOL     OW  309   0.751   0.888   1.281 -0.1693  0.1726  0.1849
   78SOL    HW1  310   0.718   0.964   1.225  0.5714  1.6693  1.8487
   78SOL    HW2  311   0.801   0.841   1.212 -0.4870 -0.3018  0.3634
   78SOL     MW  312   0.753   0.892   1.265 -0.1135  0.3075  0.4280
   79SOL     OW  313   1.913   1.706   0.608  0.5224 -0.4881 -0.4041
   79SOL    HW1  314   1.828   1.657   0.591 -1.9053  1.4712 -0.0377
   79SOL    HW2  315   1.924   1.712   0.706 -1.9963 -0.5066 -4.2494
   79SOL     MW  316   1.903   1.700   0.619 -0.1302 -0.2320 -0.8631
   80SOL     OW  317   0.084   0.962   0.297 -0.7006 -0.9121 -0.0513
   80SOL    HW1  318  -0.002   0.918   0.328 -1.0644  1.4959  1.6320
   80SOL    HW2  319   0.148   0.908   0.348 -0.1355 -0.1848  0.2617
   80SOL     MW  320   0.081   0.949   0.308 -0.6740 -0.4985  0.2121
   81SOL     OW  321   1.906   1.909   0.239 -0.6008  0.0027  0.5008
   81SOL    HW1  322   1.854   1.831   0.206 -0.2162 -1.7662 -0.2355
   81SOL    HW2  323   1.844   1.976   0.219  1.9624 -0.8630  2.2479
   81SOL     MW  324   1.891   1.908   0.232 -0.2119 -0.3449  0.6342
   82SOL     OW  325   0.813   1.082   0.527  0.1748 -0.7623 -0.2163
   82SOL    HW1  326   0.857   1.118   0.451  0.2547  0.7537  0.3831
   82SOL    HW2  327   0.805   0.994   0.509  2.8749 -1.8739  0.4082
   82SOL     MW  328   0.818   1.075   0.515  0.5416 -0.7089 -0.0548
   83SOL     OW  329   0.150   0.586   1.335 -0.9056 -0.1504  0.2918
   83SOL    HW1  330   0.158   0.680   1.343 -0.9962 -2.4108 -2.5020
   83SOL    HW2  331   0.205   0.568   1.413 -0.9673  1.0537  1.3502
   83SOL     MW  332   0.158   0.596   1.347 -0.9257 -0.2898  0.0629
   84SOL     OW  333   0.076   0.237   0.914 -0.4081  0.5618  0.4790
   84SOL    HW1  334   0.007   0.281   0.860  0.3237  2.2878  0.0917
   84SOL    HW2  335   0.041   0.155   0.949 -0.7756  0.2157  0.2909
   84SOL     MW  336   0.063   0.232   0.912 -0.3600  0.7438  0.4031
   85SOL     OW  337   0.489   0.437   0.761 -0.4362 -0.1913 -0.4502
   85SOL    HW1  338   0.444   0.514   0.730 -0.1832 -3.2786  1.1348
   85SOL    HW2  339   0.424   0.371   0.756  0.2259  1.3647 -1.0464
   85SOL     MW  340   0.474   0.438   0.756 -0.3155 -0.3934 -0.3197
   86SOL     OW  341   1.220   0.352   1.083  0.0333 -0.2934 -0.3253
   86SOL    HW1  342   1.163   0.426   1.070  0.2416  0.0096  1.1155
   86SOL    HW2  343   1.257   0.363   1.174  0.9743 -0.2988  0.8137
   86SOL     MW  344   1.217   0.363   1.093  0.1850 -0.2542  0.0151
   87SOL     OW  345   1.141   1.440   1.278 -0.1381 -0.6441  1.0163
   87SOL    HW1  346   1.155   1.505   1.202 -1.2636  3.1261  2.3330
   87SOL    HW2  347   1.136   1.355   1.226 -0.5267 -0.1204 -0.7798
   87SOL     MW  348   1.142   1.438   1.261 -0.3379 -0.0776  0.9530
   88SOL     OW  349   1.207   0.998   0.965 -0.0856 -0.4601 -0.7493
   88SOL    HW1  350   1.304   0.996   0.951  2.4380  1.0212 -0.1339
   88SOL    HW2  351   1.187   1.062   1.038 -0.4549  1.4747 -2.5900
   88SOL     MW  352   1.217   1.006   0.973  0.1987 -0.0094 -0.9110
   89SOL     OW  353   1.759   0.675   0.327  0.2503 -0.1483  0.2871
   89SOL    HW1  354   1.793   0.586   0.357 -1.8372  0.8855  1.6013
   89SOL    HW2  355   1.841   0.717   0.297 -0.1861  1.8175  3.9432
   89SOL     MW  356   1.774   0.668   0.327 -0.0827  0.2475  0.9429
   90SOL     OW  357   0.679   1.164   2.801  0.5067  0.3846 -0.3056
   90SOL    HW1  358   0.729   1.082   2.839 -0.6294 -5.3923  0.0899
   90SOL    HW2  359   0.689   1.235   2.864 -0.9501 -1.0591 -1.0214
   90SOL     MW  360   0.687   1.162   2.814  0.1646 -0.5681 -0.3479
   91SOL     OW  361   2.196   0.641   0.528 -0.2015  0.0241  0.2509
   91SOL    HW1  362   2.228   0.706   0.470  1.2984  1.6834  2.6362
   91SOL    HW2  363   2.213   0.560   0.478  1.6044  0.9104  1.3539
   91SOL     MW  364   2.202   0.639   0.514  0.2347  0.3600  0.7112
   92SOL     OW  365   1.627   0.853   0.505 -0.0615 -0.5625  0.3655
   92SOL    HW1  366   1.528   0.863   0.514  0.1363 -0.3097  0.0301
   92SOL    HW2  367   1.637   0.779   0.442  0.5065 -1.6488  1.2295
   92SOL     MW  368   1.615   0.844   0.498  0.0395 -0.6725  0.4352
   93SOL     OW  369   1.011   0.319   0.385 -0.0834 -0.4598  0.3060
   93SOL    HW1  370   0.922   0.344   0.359 -1.0924 -2.1144 -0.3933
   93SOL    HW2  371   1.055   0.300   0.301  1.1445 -2.1304  0.3127
   93SOL     MW  372   1.005   0.319   0.370 -0.0545 -0.8985  0.2146
   94SOL     OW  373   1.873   1.386   1.621 -0.3006  1.1902  0.3399
   94SOL    HW1  374   1.889   1.384   1.527 -0.0668 -0.4438 -1.9294
   94SOL    HW2  375   1.838   1.302   1.647 -0.9292 -0.7922 -0.7934
   94SOL     MW  376   1.870   1.375   1.612 -0.3527  0.7130 -0.1090
   95SOL     OW  377   0.730   1.508   0.988  1.0320  0.0505  0.0573
   95SOL    HW1  378   0.806   1.447   0.987 -1.6149 -0.4171  0.1662
   95SOL    HW2  379   0.652   1.453   0.998  0.7555 -0.4620 -1.8688
   95SOL     MW  380   0.730   1.493   0.990  0.6463 -0.0788 -0.1825
   96SOL     OW  381   1.245   1.839   1.628 -0.2126  0.3802  1.0582
   96SOL    HW1  382   1.158   1.832   1.658  4.2752  0.3750  0.8802
   96SOL    HW2  383   1.250   1.785   1.546  2.0063 -1.6760 -2.2423
   96SOL     MW  384   1.234   1.831   1.621  0.6723  0.1082  0.5992
   97SOL     OW  385   1.272   1.445   0.818  0.0734 -0.4923 -0.4245
   97SOL    HW1  386   1.271   1.475   0.907 -0.9164  0.3882  2.0309
   97SOL    HW2  387   1.198   1.495   0.777  0.0977 -0.7859 -1.4152
   97SOL     MW  388   1.262   1.455   0.825 -0.0540 -0.4149 -0.2313
   98SOL     OW  389   1.473   1.304   1.054 -0.3230 -0.1234  0.0405
   98SOL    HW1  390   1.481   1.370   1.117  1.4187 -2.2940 -0.9374
   98SOL    HW2  391   1.521   1.334   0.978 -0.1397 -0.8525 -0.1552
   98SOL     MW  392   1.480   1.317   1.052 -0.0690 -0.5060 -0.1144
   99SOL     OW  393   1.375   0.380   1.343 -0.4967 -0.0288  0.6799
   99SOL    HW1  394   1.430   0.441   1.295 -0.3657 -1.9825  0.7705
   99SOL    HW2  395   1.422   0.378   1.426 -0.5216  0.2708 -1.2924
   99SOL     MW  396   1.389   0.388   1.348 -0.4827 -0.2470  0.4316
  100SOL     OW  397   1.034   1.152   1.388 -0.1811  0.2960 -0.5755
  100SOL    HW1  398   1.025   1.195   1.471 -2.1728  1.1007 -1.5298
  100SOL    HW2  399   1.044   1.057   1.415  1.8536 -0.8342  0.0051
  100SOL     MW  400   1.034   1.145   1.402 -0.1754  0.2531 -0.6248
  101SOL     OW  401   0.524   1.074   0.290 -0.5570 -0.0924  0.3013
  101SOL    HW1  402   0.518   0.980   0.294 -0.9278  1.4205  0.9552
  101SOL    HW2  403   0.506   1.101   0.203 -0.6906  2.1946  4.8297
  101SOL     MW  404   0.521   1.065   0.279 -0.6235  0.4089  0.9851
  102SOL     OW  405   2.943   0.608   0.986 -0.6029 -0.9911  0.3960
  102SOL    HW1  406   2.976   0.703   0.999 -0.1019 -0.4278  1.5360
  102SOL    HW2  407   2.993   0.563   1.058  1.1626 -1.0469 -2.5319
  102SOL     MW  408   2.954   0.614   0.997 -0.3038 -0.9241  0.1601
  103SOL     OW  409   1.762   0.376   1.834  0.2098 -0.2671 -0.1468
  103SOL    HW1  410   1.686   0.316   1.823 -1.7375 -1.7262 -1.6183
  103SOL    HW2  411   1.818   0.322   1.881 -2.1898  3.2707 -1.9117
  103SOL     MW  412   1.759   0.361   1.839 -0.3638  0.0072 -0.5738
  104SOL     OW  413   0.152   1.763   1.538 -0.3441 -0.1804  0.4428
  104SOL    HW1  414   0.135   1.705   1.619 -2.0810 -1.4060  3.5490
  104SOL    HW2  415   0.133   1.721   1.453 -2.3447  2.6762  0.8309
  104SOL     MW  416   0.147   1.750   1.537 -0.8372  0.0348  0.9038
  105SOL     OW  417   0.027   1.169   0.497 -0.2970 -0.0433  0.0211
  105SOL    HW1  418   0.062   1.096   0.447  0.4337 -0.2874  0.1922
  105SOL    HW2  419   0.106   1.211   0.532 -0.9381  1.9072  1.6205
  105SOL     MW  420   0.042   1.165   0.495 -0.2852  0.1818  0.2547
  106SOL     OW  421   0.873   0.377   1.038  0.1826 -0.5133  0.2906
  106SOL    HW1  422   0.788   0.403   1.003 -0.3643  1.5216 -2.2784
  106SOL    HW2  423   0.906   0.332   0.963 -0.7644 -0.9079  1.2449
  106SOL     MW  424   0.867   0.375   1.023 -0.0145 -0.2969  0.0776
  107SOL     OW  425   0.765   2.154   2.989 -0.6161 -0.2362 -0.7273
  107SOL    HW1  426   0.691   2.108   2.944  1.7063 -0.1834  1.8933
  107SOL    HW2  427   0.773   2.105   3.071  1.4677  2.5483  1.7655
  107SOL     MW  428   0.756   2.142   2.994 -0.0348  0.1381 -0.0527
  108SOL     OW  429   1.322   1.543   1.501 -0.4380  0.0676  0.1381
  108SOL    HW1  430   1.265   1.467   1.487 -3.8826 -1.7005  1.2226
  108SOL    HW2  431   1.392   1.514   1.565 -0.9123 -0.9789  1.9175
  108SOL     MW  432   1.324   1.529   1.507 -0.9551 -0.3037  0.5160
  109SOL     OW  433   1.998   0.760   0.180 -0.1468  0.1328  0.1463
  109SOL    HW1  434   2.001   0.781   0.087 -1.4640  1.2477 -2.3591
  109SOL    HW2  435   2.021   0.834   0.230 -0.2002  1.0565 -1.4439
  109SOL     MW  436   2.001   0.773   0.174 -0.3276  0.4018 -0.3941
  110SOL     OW  437   0.456   1.911   0.780  0.3810  0.0964 -0.3722
  110SOL    HW1  438   0.530   1.850   0.763 -1.5770 -1.4095  2.5643
  110SOL    HW2  439   0.481   1.993   0.729 -2.1031 -0.7778  0.9830
  110SOL     MW  440   0.469   1.914   0.771 -0.2051 -0.2176  0.1941
  111SOL     OW  441   0.758   0.941   1.538  0.0120 -0.3516  0.0086
  111SOL    HW1  442   0.746   0.916   1.443 -2.1206  0.3311 -0.2390
  111SOL    HW2  443   0.676   0.915   1.580  0.2120  1.0056 -0.6231
  111SOL     MW  444   0.745   0.934   1.531 -0.2430 -0.0825 -0.1074
  112SOL     OW  445   1.338   1.061   1.611  0.0330 -0.3444 -0.0278
  112SOL    HW1  446   1.275   1.133   1.629 -0.6018  1.2166 -1.1660
  112SOL    HW2  447   1.294   0.976   1.625 -0.2649 -2.2214  0.2850
  112SOL     MW  448   1.324   1.059   1.615 -0.0901 -0.3861 -0.1367
  113SOL     OW  449   1.281   0.033   1.744  0.6345  0.0350 -0.2482
  113SOL    HW1  450   1.282  -0.024   1.821  3.7076  0.3337  0.3880
  113SOL    HW2  451   1.296  -0.021   1.660 -1.7321 -0.1312  0.7346
  113SOL     MW  452   1.283   0.018   1.743  0.7277  0.0525 -0.0346
  114SOL     OW  453   0.387   2.850   1.942 -0.9383 -0.0617  0.3426
  114SOL    HW1  454   0.385   2.929   1.996  1.2908 -0.1645  0.7602
  114SOL    HW2  455   0.390   2.896   1.852 -2.8756  3.8733 -0.6183
  114SOL     MW  456   0.387   2.866   1.937 -0.8998  0.4440  0.2709
  115SOL     OW  457   0.493   0.821   1.112  0.7180  0.4525  1.0500
  115SOL    HW1  458   0.529   0.739   1.144  1.1719 -2.1062 -3.6813
  115SOL    HW2  459   0.437   0.840   1.184 -1.6652 -1.1242 -0.3483
  115SOL     MW  460   0.491   0.813   1.125  0.4635 -0.0931  0.2412
  116SOL     OW  461   0.782   1.006   1.012 -0.2565 -0.0741  0.6729
  116SOL    HW1  462   0.834   1.030   0.937  0.1813  0.3623 -0.1966
  116SOL    HW2  463   0.814   1.067   1.082 -1.2945  0.7453  4.0242
  116SOL     MW  464   0.793   1.018   1.011 -0.3357  0.0916  1.0004
  117SOL     OW  465   1.162   1.205   0.752 -0.7643  0.4486  0.3317
  117SOL    HW1  466   1.196   1.141   0.812 -2.6005 -1.0226 -0.3828
  117SOL    HW2  467   1.205   1.293   0.776  1.5067  1.8195  1.3186
  117SOL     MW  468   1.172   1.208   0.763 -0.7069  0.4354  0.3676
  118SOL     OW  469   3.031   2.917   1.697  0.3297  0.0163 -0.0113
  118SOL    HW1  470   3.073   2.968   1.767 -0.0359 -1.0800  1.2075
  118SOL    HW2  471   2.941   2.953   1.683  3.2382 -0.7068 -0.0859
  118SOL     MW  472   3.025   2.929   1.704  0.6652 -0.2237  0.1396
  119SOL     OW  473   0.451   1.412   1.217 -0.2941 -0.0410 -0.2516
  119SOL    HW1  474   0.452   1.442   1.127  0.1157  0.7261  2.1996
  119SOL    HW2  475   0.359   1.387   1.227  3.0358 -2.3751 -3.2717
  119SOL     MW  476   0.439   1.413   1.207  0.1993 -0.2478 -0.3266
  120SOL     OW  477   0.280   0.701   0.994  0.0778 -0.0587 -0.4321
  120SOL    HW1  478   0.276   0.622   1.043 -0.5351  1.8415 -0.6284
  120SOL    HW2  479   0.353   0.746   1.036 -0.3034 -0.2700 -0.5140
  120SOL     MW  480   0.289   0.697   1.006 -0.0534  0.1642 -0.4688
  121SOL     OW  481   1.804   1.148   1.714 -0.2062  0.5513  0.3905
  121SOL    HW1  482   1.720   1.113   1.739 -0.8164  1.0442  0.7631
  121SOL    HW2  483   1.839   1.093   1.640 -1.2144  0.3074 -0.5224
  121SOL     MW  484   1.798   1.136   1.708 -0.4197  0.5842  0.3192
  122SOL     OW  485   0.138   0.594   0.799 -0.3456 -0.5928  0.2355
  122SOL    HW1  486   0.188   0.583   0.717 -0.4189  1.4546  0.8966
  122SOL    HW2  487   0.195   0.646   0.856 -0.3967 -0.4017 -3.5311
  122SOL     MW  488   0.152   0.599   0.795 -0.3620 -0.2974 -0.1742
  123SOL     OW  489   1.806   1.085   0.576  0.0033 -0.3400  0.1160
  123SOL    HW1  490   1.736   1.020   0.573  0.2650  0.2934  2.5128
  123SOL    HW2  491   1.840   1.087   0.667  1.5188 -3.0389  2.3992
  123SOL     MW  492   1.801   1.077   0.587  0.2378 -0.6125  0.7335
  124SOL     OW  493   0.665   0.530   0.925  0.2725 -0.2658 -0.1938
  124SOL    HW1  494   0.599   0.487   0.867  0.3754 -0.8537 -1.1851
  124SOL    HW2  495   0.690   0.617   0.883 -0.2511  0.3002  1.1484
  124SOL     MW  496   0.659   0.536   0.912  0.2170 -0.2687 -0.1475
  125SOL     OW  497   0.699   1.753   1.705 -0.1296  0.3443  0.1419
  125SOL    HW1  498   0.638   1.678   1.681  0.6883 -1.9273 -0.4245
  125SOL    HW2  499   0.649   1.835   1.694  1.0580 -2.4944  2.5023
  125SOL     MW  500   0.684   1.754   1.700  0.1350 -0.3299  0.3786
  126SOL     OW  501   2.131   1.613   1.945  0.2821 -0.8013  0.1850
  126SOL    HW1  502   2.189   1.692   1.933 -0.0567 -0.5516 -2.5119
  126SOL    HW2  503   2.195   1.542   1.969  2.5194  0.1673  1.6763
  126SOL     MW  504   2.147   1.614   1.947  0.5326 -0.6405  0.0260
  127SOL     OW  505   0.690   0.765   1.870  0.2839  0.4198 -0.1219
  127SOL    HW1  506   0.768   0.702   1.879  0.5756  2.0887 -0.8335
  127SOL    HW2  507   0.705   0.830   1.937  0.2761  3.0553 -1.3747
  127SOL     MW  508   0.702   0.765   1.880  0.3214  0.9877 -0.3811
  128SOL     OW  509   1.837   0.781   2.896  0.2637 -0.7794  1.1493
  128SOL    HW1  510   1.844   0.760   2.802  0.0821  3.1878  1.2845
  128SOL    HW2  511   1.758   0.834   2.908  1.5959 -1.5057 -0.7414
  128SOL     MW  512   1.827   0.785   2.885  0.4155 -0.3518  0.9177
  129SOL     OW  513   1.627   0.932   0.174  0.8300  0.1840 -0.0042
  129SOL    HW1  514   1.555   0.872   0.174  0.3130  0.2467  0.8356
  129SOL    HW2  515   1.677   0.905   0.254  0.7563  0.7692  1.2315
  129SOL     MW  516   1.624   0.920   0.185  0.7521  0.2695  0.2697
  130SOL     OW  517   0.774   1.393   0.394 -0.8223 -0.4947 -0.4689
  130SOL    HW1  518   0.802   1.368   0.478  1.6900  0.1656  1.3248
  130SOL    HW2  519   0.844   1.443   0.359 -1.4149 -1.7377  2.3349
  130SOL     MW  520   0.787   1.396   0.401 -0.5690 -0.5716  0.1377
  131SOL     OW  521   3.011   0.837   3.053 -0.1732 -0.1006 -0.2527
  131SOL    HW1  522   2.999   0.903   2.986 -0.5581  1.4468  0.4202
  131SOL    HW2  523   3.098   0.859   3.096 -1.8473  2.6077 -1.3543
  131SOL     MW  524   3.021   0.849   3.050 -0.4449  0.4609 -0.3092
  132SOL     OW  525   2.759   0.144   1.210 -0.7892  0.4948 -0.2712
  132SOL    HW1  526   2.789   0.138   1.119  0.9185  2.5205  1.8509
  132SOL    HW2  527   2.663   0.129   1.222 -0.4337  1.1854  0.6247
  132SOL     MW  528   2.751   0.141   1.200 -0.5170  0.8532  0.1270
  133SOL     OW  529   1.034   0.167   1.723 -0.4460 -0.1575 -0.3544
  133SOL    HW1  530   1.117   0.118   1.731 -0.8625  0.4782  1.3517
  133SOL    HW2  531   1.011   0.180   1.817  0.0799  0.8245 -0.8251
  133SOL     MW  532   1.042   0.162   1.737 -0.4316  0.0559 -0.1914
  134SOL     OW  533   1.415   2.524   1.423 -0.0777 -0.3116 -0.0787
  134SOL    HW1  534   1.351   2.595   1.410 -1.4983  0.4956  0.0795
  134SOL    HW2  535   1.480   2.561   1.479  1.5935  0.6039 -0.7041
  134SOL     MW  536   1.415   2.538   1.429 -0.0447 -0.0843 -0.1404
  135SOL     OW  537   3.052   1.029   2.835  0.0779 -0.0595 -0.4324
  135SOL    HW1  538   3.116   1.089   2.881  4.7930 -0.3794  2.6915
  135SOL    HW2  539   2.970   1.079   2.848 -1.3360  1.6019  1.9574
  135SOL     MW  540   3.049   1.043   2.842  0.5134  0.1175  0.2951
  136SOL     OW  541   0.261   2.054   0.893 -0.2809  0.0252  0.6177
  136SOL    HW1  542   0.194   1.995   0.857  1.1190  3.2865  0.1714
  136SOL    HW2  543   0.340   2.013   0.850  0.5816 -0.7765 -1.5973
  136SOL     MW  544   0.263   2.041   0.883  0.0176  0.3497  0.2666
  137SOL     OW  545   0.699   2.075   0.530 -0.7123  0.0106  0.0208
  137SOL    HW1  546   0.735   2.032   0.611 -1.4743  2.1965 -0.0108
  137SOL    HW2  547   0.606   2.107   0.557  0.8125  0.6244  0.9790
  137SOL     MW  548   0.691   2.074   0.544 -0.6116  0.3800  0.1430
  138SOL     OW  549   0.507   0.530   1.143 -0.3639  0.3548 -0.6494
  138SOL    HW1  550   0.428   0.472   1.114  2.3219 -1.4211  1.0392
  138SOL    HW2  551   0.567   0.509   1.075 -0.3165  1.9286 -0.8934
  138SOL     MW  552   0.505   0.520   1.130 -0.0033  0.3282 -0.4588
  139SOL     OW  553   2.724   0.575   1.381  1.0524  0.1853 -0.1901
  139SOL    HW1  554   2.782   0.503   1.355 -2.3202  2.0556  2.2502
  139SOL    HW2  555   2.788   0.648   1.394  1.0685 -0.2945 -0.3744
  139SOL     MW  556   2.740   0.575   1.380  0.6096  0.3688  0.1075
  140SOL     OW  557   0.831   0.372   2.070 -0.8565 -0.1996  0.2236
  140SOL    HW1  558   0.897   0.307   2.046 -2.0643 -1.0052 -1.3922
  140SOL    HW2  559   0.862   0.401   2.158  1.1114  0.0921 -1.1433
  140SOL     MW  560   0.844   0.367   2.079 -0.7562 -0.2674 -0.1699
  141SOL     OW  561   1.091   0.559   1.790 -0.0175  0.3650 -0.1822
  141SOL    HW1  562   1.118   0.490   1.729  0.2756  2.6989  1.5762
  141SOL    HW2  563   1.127   0.639   1.749  0.5762 -2.8395 -0.2241
  141SOL     MW  564   1.099   0.561   1.776  0.0995  0.2501  0.0443
  142SOL     OW  565   0.890   1.130   0.796 -0.1074  0.2638 -0.7238
  142SOL    HW1  566   0.865   1.124   0.704  1.1580  1.3984 -0.5747
  142SOL    HW2  567   0.988   1.112   0.800  0.3057 -0.9801  1.1349
  142SOL     MW  568   0.900   1.127   0.785  0.1140  0.2494 -0.4589
  143SOL     OW  569   1.754   0.790   1.098 -0.3864 -0.0339 -0.2318
  143SOL    HW1  570   1.777   0.812   1.009  0.3214  1.0815  0.0664
  143SOL    HW2  571   1.661   0.794   1.104  2.7107 -0.7726  0.6428
  143SOL     MW  572   1.744   0.793   1.087  0.1156  0.0158 -0.0770
  144SOL     OW  573   0.206   1.240   1.523  0.5307  0.0510 -0.2435
  144SOL    HW1  574   0.292   1.203   1.530 -0.3103 -1.0184  0.4143
  144SOL    HW2  575   0.205   1.280   1.611  1.8951  0.7213 -1.5877
  144SOL     MW  576   0.218   1.240   1.535  0.5997 -0.0017 -0.3340
  145SOL     OW  577   0.286   0.397   1.063 -0.2844  0.3380  0.0292
  145SOL    HW1  578   0.289   0.341   1.146 -0.4652  0.0837 -0.1332
  145SOL    HW2  579   0.236   0.341   0.988 -0.6243 -2.0191 -0.3632
  145SOL     MW  580   0.279   0.382   1.064 -0.3531 -0.0066 -0.0440
  146SOL     OW  581   0.856   1.960   1.347 -0.1239 -0.1556 -0.0619
  146SOL    HW1  582   0.880   1.944   1.247  3.9372  0.0280  1.1456
  146SOL    HW2  583   0.759   1.945   1.348  2.3540 -0.8428 -0.1595
  146SOL     MW  584   0.846   1.956   1.334  0.7388 -0.2220  0.0845
  147SOL     OW  585   0.384   0.396   2.998  0.1355  0.0104  0.1473
  147SOL    HW1  586   0.336   0.399   3.082  0.3745 -0.6519  1.0339
  147SOL    HW2  587   0.336   0.458   2.942 -0.1530  0.2102  3.4333
  147SOL     MW  588   0.371   0.405   3.002  0.1290 -0.0506  0.6979
  148SOL     OW  589   0.096   0.893   1.312 -0.1403  0.1072 -0.1866
  148SOL    HW1  590   0.182   0.915   1.291  0.1581  0.2232 -1.5492
  148SOL    HW2  591   0.093   0.923   1.407 -0.1618  0.6154 -1.1750
  148SOL     MW  592   0.107   0.899   1.321 -0.1038  0.1896 -0.4968
  149SOL     OW  593   1.372   1.179   1.350 -0.3061  0.4764 -1.0017
  149SOL    HW1  594   1.372   1.124   1.431  0.2157  3.9122  0.2266
  149SOL    HW2  595   1.433   1.248   1.380  1.6483  0.9302 -1.2141
  149SOL     MW  596   1.380   1.181   1.365  0.0206  0.9896 -0.8676
  150SOL     OW  597   1.865   1.390   0.736  0.3225  0.6481  0.2346
  150SOL    HW1  598   1.858   1.294   0.738 -0.1485 -1.1279  1.3635
  150SOL    HW2  599   1.959   1.405   0.766  2.1179 -0.1584 -2.3684
  150SOL     MW  600   1.877   1.379   0.740  0.4972  0.3074  0.0401
  151SOL     OW  601   1.631   1.850   0.850  0.1437 -0.7719  0.4988
  151SOL    HW1  602   1.615   1.843   0.755 -0.8642  2.2501  0.3958
  151SOL    HW2  603   1.589   1.775   0.881 -3.2732  0.3980  1.5385
  151SOL     MW  604   1.624   1.839   0.841 -0.4401 -0.2188  0.6224
  152SOL     OW  605   0.732   1.345   1.486  0.1274  0.4561  0.8878
  152SOL    HW1  606   0.751   1.292   1.562  4.3617  1.5523  0.8668
  152SOL    HW2  607   0.814   1.395   1.479  0.4631 -1.2825 -0.0967
  152SOL     MW  608   0.745   1.344   1.495  0.7304  0.3713  0.7551
  153SOL     OW  609   2.633   1.256   0.755 -0.1157  0.1772  0.0559
  153SOL    HW1  610   2.675   1.188   0.690 -0.7267  2.9840 -1.9170
  153SOL    HW2  611   2.561   1.197   0.774 -0.6279  0.3085 -1.6406
  153SOL     MW  612   2.629   1.240   0.749 -0.2639  0.5649 -0.4282
  154SOL     OW  613   0.382   1.751   1.731 -0.4001  0.0740  0.1212
  154SOL    HW1  614   0.371   1.697   1.651  0.4563  0.5458 -1.5854
  154SOL    HW2  615   0.363   1.689   1.800  0.1247  0.5548 -2.2774
  154SOL     MW  616   0.378   1.736   1.730 -0.2179  0.1997 -0.4205
  155SOL     OW  617   1.178   0.702   0.300  0.7047  0.8318 -0.6218
  155SOL    HW1  618   1.133   0.659   0.377 -0.6137  0.7701  0.8446
  155SOL    HW2  619   1.138   0.786   0.300 -0.6610 -0.1228  0.0873
  155SOL     MW  620   1.167   0.707   0.310  0.3506  0.6977 -0.3347
  156SOL     OW  621   1.590   3.013   1.032 -0.2583  0.4733 -0.3605
  156SOL    HW1  622   1.608   3.098   1.073  0.2848 -2.6434 -0.1942
  156SOL    HW2  623   1.620   2.951   1.097  2.9055 -0.3708  0.5652
  156SOL     MW  624   1.596   3.016   1.046  0.2308 -0.0493 -0.2165
  157SOL     OW  625   1.427   1.140   0.124  0.3205 -0.0853  0.0113
  157SOL    HW1  626   1.470   1.065   0.151  2.9763 -0.2276 -2.9000
  157SOL    HW2  627   1.489   1.196   0.084  0.4185  0.5298  0.1856
  157SOL     MW  628   1.441   1.137   0.122  0.6838 -0.0229 -0.3498
  158SOL     OW  629   0.448   1.625   2.219  0.5436 -0.2685 -0.4403
  158SOL    HW1  630   0.431   1.686   2.150 -0.0042  1.9050 -0.0148
  158SOL    HW2  631   0.368   1.626   2.272  0.5134  2.0388  1.0996
  158SOL     MW  632   0.435   1.633   2.217  0.4673  0.3227 -0.1810
  159SOL     OW  633   1.262   1.731   0.415 -0.3125  0.2437 -0.5084
  159SOL    HW1  634   1.245   1.639   0.391 -1.7115 -1.8394  3.0597
  159SOL    HW2  635   1.189   1.757   0.481  0.1843 -0.6751 -0.0953
  159SOL     MW  636   1.250   1.722   0.421 -0.4315 -0.1524  0.0169
  160SOL     OW  637   0.484   1.152   1.595  0.5966  0.0290  0.4103
  160SOL    HW1  638   0.492   1.068   1.634  1.0252 -0.0661  1.7461
  160SOL    HW2  639   0.543   1.208   1.647  3.7076  2.3419 -0.1060
  160SOL     MW  640   0.493   1.149   1.607  1.0636  0.3216  0.5184
  161SOL     OW  641   0.512   2.170   2.561 -0.1360  0.0251 -0.7509
  161SOL    HW1  642   0.426   2.190   2.531 -0.1198  0.5137  1.3664
  161SOL    HW2  643   0.564   2.145   2.482 -0.5636 -3.3995 -0.0908
  161SOL     MW  644   0.508   2.170   2.547 -0.1903 -0.3623 -0.3845
  162SOL     OW  645   1.061   1.766   1.841 -0.1551 -0.5503  0.6661
  162SOL    HW1  646   1.067   1.855   1.869 -3.2285  1.5802  0.3155
  162SOL    HW2  647   0.974   1.735   1.866  2.6735  0.4033 -0.1265
  162SOL     MW  648   1.050   1.774   1.848 -0.1874 -0.1434  0.5153
  163SOL     OW  649   2.102   0.071   0.988 -0.0020 -0.2907  0.1782
  163SOL    HW1  650   2.099   0.095   0.899  0.0550  3.3308 -0.0240
  163SOL    HW2  651   2.038   0.006   1.010  2.5444 -0.3386  0.9836
  163SOL     MW  652   2.093   0.066   0.979  0.3415  0.1808  0.2578
  164SOL     OW  653   0.347   0.203   0.803  0.3141 -0.0801  0.7021
  164SOL    HW1  654   0.260   0.202   0.835  0.9799 -0.3402 -0.2422
  164SOL    HW2  655   0.356   0.136   0.734 -0.7780 -1.1925 -0.5709
  164SOL     MW  656   0.337   0.194   0.798  0.2579 -0.2612  0.4096
  165SOL     OW  657   1.329   1.240   0.361  0.1395 -0.2270  0.1137
  165SOL    HW1  658   1.285   1.181   0.419 -1.8640  3.3315 -0.8366
  165SOL    HW2  659   1.358   1.182   0.288 -1.1945 -2.3053 -2.5883
  165SOL     MW  660   1.327   1.224   0.359 -0.3009 -0.0317 -0.3681
  166SOL     OW  661   0.517   1.077   0.983  0.5898  0.2096 -0.0077
  166SOL    HW1  662   0.494   1.010   1.046 -0.8519  0.3254  1.7949
  166SOL    HW2  663   0.615   1.076   0.984  0.0476  1.6425 -0.6766
  166SOL     MW  664   0.527   1.068   0.992  0.3280  0.4140  0.1419
  167SOL     OW  665   0.805   1.072   0.239 -0.0238 -0.8806  0.2829
  167SOL    HW1  666   0.709   1.065   0.241  3.1466  0.2849 -0.2714
  167SOL    HW2  667   0.819   1.150   0.177 -0.7655  1.2902  1.8822
  167SOL     MW  668   0.794   1.081   0.231  0.2967 -0.4404  0.4208
  168SOL     OW  669   1.648   1.668   2.933  0.1460 -0.3803  0.2204
  168SOL    HW1  670   1.560   1.635   2.947  0.3385  1.2756  0.0155
  168SOL    HW2  671   1.710   1.589   2.950  0.4763  0.3805 -1.2625
  168SOL     MW  672   1.644   1.653   2.937  0.2150 -0.0614 -0.0022
  169SOL     OW  673   0.380   0.946   1.340  0.1715 -0.4731  0.3977
  169SOL    HW1  674   0.423   0.918   1.423 -0.3861 -1.6021  2.1794
  169SOL    HW2  675   0.421   1.037   1.324  1.7904 -0.2263  0.2852
  169SOL     MW  676   0.391   0.955   1.348  0.3115 -0.5895  0.6179
  170SOL     OW  677   0.983   1.449   1.490 -0.3727  0.3625 -0.5399
  170SOL    HW1  678   0.970   1.545   1.516 -1.4502 -0.0907  0.7726
  170SOL    HW2  679   1.044   1.452   1.403  0.3465  0.8633 -0.3169
  170SOL     MW  680   0.989   1.462   1.482 -0.4200  0.3688 -0.3373
  171SOL     OW  681   0.587   1.434   0.653 -0.1737 -0.2810  0.2596
  171SOL    HW1  682   0.536   1.423   0.737  0.8987 -0.2282 -0.0535
  171SOL    HW2  683   0.574   1.352   0.604 -0.2211  0.0986  0.8695
  171SOL     MW  684   0.579   1.422   0.657 -0.0385 -0.2239  0.2988
  172SOL     OW  685   0.833   0.303   1.293 -0.3312 -0.0306  0.4071
  172SOL    HW1  686   0.840   0.335   1.201  1.3218  1.4678 -0.5826
  172SOL    HW2  687   0.739   0.285   1.312  0.0103 -1.9974  0.8040
  172SOL     MW  688   0.822   0.304   1.284 -0.0680 -0.0924  0.3289
  173SOL     OW  689   0.454   1.654   0.376 -0.0863  0.2255 -0.3031
  173SOL    HW1  690   0.468   1.556   0.360 -2.7678  1.1037  1.7793
  173SOL    HW2  691   0.451   1.653   0.472 -2.9752  0.6589  0.1611
  173SOL     MW  692   0.455   1.641   0.387 -0.8212  0.3986  0.0329
  174SOL     OW  693   1.899   0.989   1.493 -0.5075  0.3097  0.3999
  174SOL    HW1  694   1.877   0.901   1.528  2.1233 -3.1560  2.7940
  174SOL    HW2  695   1.854   1.009   1.408  0.4159 -0.7464  1.1978
  174SOL     MW  696   1.890   0.980   1.487 -0.0385 -0.2869  0.8211
  175SOL     OW  697   0.472   1.381   0.348  0.3174  0.4039  0.4338
  175SOL    HW1  698   0.435   1.377   0.263 -0.9499  0.1809  0.5338
  175SOL    HW2  699   0.566   1.342   0.344  1.6611 -1.9782  1.9018
  175SOL     MW  700   0.480   1.376   0.336  0.3274  0.0602  0.6407
  176SOL     OW  701   0.199   1.362   1.233  0.0872 -0.0659 -0.2000
  176SOL    HW1  702   0.168   1.336   1.148  3.5780  1.2171 -1.3396
  176SOL    HW2  703   0.159   1.292   1.290  1.2080 -0.2994  1.2489
  176SOL     MW  704   0.190   1.349   1.229  0.6956  0.0726 -0.1592
  177SOL     OW  705   0.576   0.347   1.334  0.3519  0.3711  0.2635
  177SOL    HW1  706   0.562   0.428   1.272  0.7877  1.0094 -0.2403
  177SOL    HW2  707   0.593   0.394   1.417  1.6129  0.9529 -2.9622
  177SOL     MW  708   0.577   0.364   1.337  0.5758  0.5321 -0.2286
  178SOL     OW  709   3.068   0.401   2.890  1.0387  0.1133  0.6710
  178SOL    HW1  710   3.029   0.431   2.973 -0.8512  0.7233 -2.5421
  178SOL    HW2  711   2.987   0.394   2.832  0.5849  4.1292 -0.2961
  178SOL     MW  712   3.052   0.404   2.894  0.7295  0.7237  0.1194
  179SOL     OW  713   1.584   1.351   1.414  0.0525 -0.5089 -0.3406
  179SOL    HW1  714   1.577   1.387   1.503 -2.3814 -0.2874 -0.4352
  179SOL    HW2  715   1.676   1.354   1.393 -1.2140  1.0754  1.6288
  179SOL     MW  716   1.595   1.356   1.423 -0.4357 -0.2706 -0.0932
  180SOL     OW  717   2.991   0.194   0.463  0.9165 -0.0093  0.1196
  180SOL    HW1  718   2.955   0.232   0.377 -2.1279  2.2017  1.7034
  180SOL    HW2  719   3.048   0.269   0.490 -1.8110 -0.9230  2.3238
  180SOL     MW  720   2.993   0.209   0.455  0.1550  0.1619  0.6194
  181SOL     OW  721   1.164   1.345   3.048 -0.0656 -0.3176 -0.0657
  181SOL    HW1  722   1.239   1.408   3.067 -0.0689  1.4511  3.2215
  181SOL    HW2  723   1.204   1.262   3.015 -1.6849  0.8798 -0.4320
  181SOL     MW  724   1.179   1.342   3.046 -0.2797  0.0737  0.3196
  182SOL     OW  725   0.516   0.882   1.663  0.6941  0.3861 -0.3538
  182SOL    HW1  726   0.426   0.857   1.692  0.6207 -1.5666 -0.0018
  182SOL    HW2  727   0.579   0.845   1.723 -0.6681  2.5204  2.1288
  182SOL     MW  728   0.512   0.874   1.675  0.5047  0.4101  0.0202
  183SOL     OW  729   1.510   1.534   1.221  0.1030  0.7433 -0.4088
  183SOL    HW1  730   1.421   1.563   1.240 -0.5398  0.2742 -0.4746
  183SOL    HW2  731   1.532   1.485   1.307  0.5952  0.1035  2.6679
  183SOL     MW  732   1.501   1.531   1.235  0.0831  0.5970 -0.0116
  184SOL     OW  733   0.883   0.615   1.977  0.0173  0.0459  0.3267
  184SOL    HW1  734   0.963   0.591   1.930 -0.4066  0.9053 -1.0438
  184SOL    HW2  735   0.859   0.529   2.016  0.9193 -1.7471  2.8735
  184SOL     MW  736   0.890   0.601   1.976  0.0804 -0.0773  0.4819
  185SOL     OW  737   1.191   0.963   1.941  0.3932  0.5566 -0.0314
  185SOL    HW1  738   1.242   0.887   1.976 -1.0005 -1.8045  0.5248
  185SOL    HW2  739   1.249   1.042   1.933  3.8382  2.1587 -0.1387
  185SOL     MW  740   1.206   0.963   1.945  0.6639  0.4564  0.0278
  186SOL     OW  741   0.398   1.643   1.434 -0.3915  0.2179  0.4834
  186SOL    HW1  742   0.426   1.567   1.381 -1.7474 -1.7925  0.8120
  186SOL    HW2  743   0.337   1.690   1.376  2.4951 -0.5096  0.6946
  186SOL     MW  744   0.394   1.639   1.419 -0.1895 -0.1433  0.5546
  187SOL     OW  745   1.438   0.736   1.432  0.0871 -0.4677 -0.0384
  187SOL    HW1  746   1.449   0.693   1.517 -0.2656  0.4304 -0.2286
  187SOL    HW2  747   1.346   0.722   1.407  0.8405  0.3103  0.2393
  187SOL     MW  748   1.428   0.728   1.440  0.1400 -0.2465 -0.0268
  188SOL     OW  749   1.927   1.126   0.824  0.4870  0.1719  0.6305
  188SOL    HW1  750   1.916   1.150   0.913  0.5341  2.8436 -0.5124
  188SOL    HW2  751   2.001   1.066   0.818  1.3244  1.5458  0.5340
  188SOL     MW  752   1.935   1.121   0.835  0.6037  0.7057  0.4670
  189SOL     OW  753   0.722   0.796   0.797 -0.1017  0.4047 -0.0416
  189SOL    HW1  754   0.630   0.830   0.796 -0.2964 -1.1284  0.3719
  189SOL    HW2  755   0.770   0.850   0.856  2.8646  0.6109  0.3433
  189SOL     MW  756   0.716   0.808   0.804  0.2640  0.2296  0.0637
  190SOL     OW  757   1.859   0.219   2.025  0.1199  0.7794  0.2444
  190SOL    HW1  758   1.804   0.166   2.087  1.1601 -0.1042  1.0260
  190SOL    HW2  759   1.930   0.162   1.998  0.0711 -1.0567 -1.0123
  190SOL     MW  760   1.861   0.204   2.030  0.2507  0.4206  0.1817
  191SOL     OW  761   1.486   0.945   1.230  1.0643 -0.3289 -0.2027
  191SOL    HW1  762   1.462   1.038   1.239 -0.4011 -0.2360 -0.5229
  191SOL    HW2  763   1.443   0.900   1.302 -0.5300 -1.8719 -1.6256
  191SOL     MW  764   1.477   0.951   1.240  0.6606 -0.5202 -0.4327
  192SOL     OW  765   0.595   2.043   2.820 -0.2850  0.5034 -0.2770
  192SOL    HW1  766   0.549   2.073   2.749  0.5671  0.1608  2.3630
  192SOL    HW2  767   0.599   1.946   2.814  0.1900 -0.5564  0.5929
  192SOL     MW  768   0.589   2.034   2.810 -0.1099  0.3184  0.1861
  193SOL     OW  769   1.042   1.585   0.748  0.8413 -0.1009  0.7716
  193SOL    HW1  770   0.972   1.635   0.801 -2.7965 -1.2813  2.7420
  193SOL    HW2  771   0.984   1.515   0.707 -0.1928  1.1125  0.1278
  193SOL     MW  772   1.025   1.583   0.750  0.2249 -0.0966  0.9466
  194SOL     OW  773   0.490   1.356   0.916 -0.3531  0.0928 -0.0099
  194SOL    HW1  774   0.488   1.263   0.948 -4.4492  2.8512  0.6489
  194SOL    HW2  775   0.398   1.379   0.885 -0.1554  0.3421  1.5389
  194SOL     MW  776   0.477   1.347   0.916 -0.8674  0.4896  0.2814
  195SOL     OW  777   1.288   1.128   2.971 -0.6567  0.1458  0.7451
  195SOL    HW1  778   1.340   1.126   3.049 -1.1624  1.2447 -3.0043
  195SOL    HW2  779   1.209   1.080   3.008  0.4423 -4.2004  2.1336
  195SOL     MW  780   1.284   1.122   2.986 -0.5784 -0.2826  0.4336
  196SOL     OW  781   2.174   1.056   0.633 -0.2818  0.6432 -0.1867
  196SOL    HW1  782   2.122   1.025   0.559  2.3097 -1.5151 -0.8711
  196SOL    HW2  783   2.179   1.153   0.627  0.4205  0.4996  1.2978
  196SOL     MW  784   2.168   1.065   0.622  0.1528  0.3395 -0.0812
  197SOL     OW  785   0.695   1.262   2.018 -0.1465 -0.0643  0.0373
  197SOL    HW1  786   0.668   1.172   2.019 -2.3175 -2.7059  0.6073
  197SOL    HW2  787   0.648   1.298   1.943 -0.1790 -0.0086 -1.0452
  197SOL     MW  788   0.685   1.255   2.008 -0.4372 -0.4055 -0.0303
  198SOL     OW  789   2.967   1.424   1.070  0.3935 -0.4288  0.0873
  198SOL    HW1  790   2.964   1.520   1.070 -1.6340 -0.5765  0.6634
  198SOL    HW2  791   2.879   1.397   1.043 -1.3781  0.0056 -0.7656
  198SOL     MW  792   2.955   1.433   1.066 -0.1078 -0.3909  0.0508
  199SOL     OW  793   0.533   1.334   1.819 -0.4164  0.0619 -0.0206
  199SOL    HW1  794   0.443   1.299   1.802 -0.0511 -2.1044 -0.3693
  199SOL    HW2  795   0.542   1.411   1.760 -0.6504  0.9386  0.3341
  199SOL     MW  796   0.523   1.340   1.809 -0.3991 -0.1082 -0.0198
  200SOL     OW  797   1.883   3.086   1.340 -0.1868  0.4153  0.5692
  200SOL    HW1  798   1.883   3.062   1.245 -1.2511 -0.1872 -2.5175
  200SOL    HW2  799   1.805   3.141   1.350  1.3560  1.2209 -3.2541
  200SOL     MW  800   1.873   3.090   1.329 -0.1236  0.4421 -0.3425
  201SOL     OW  801   0.971   0.234   0.823 -0.5441 -0.1005 -0.2207
  201SOL    HW1  802   0.977   0.143   0.792 -0.2592  0.3377  1.4878
  201SOL    HW2  803   1.020   0.283   0.748  2.7711 -0.0314 -0.2981
  201SOL     MW  804   0.979   0.228   0.809 -0.0691 -0.0336 -0.0055
  202SOL     OW  805   1.519   1.630   0.961  0.5429 -0.3587 -0.5538
  202SOL    HW1  806   1.558   1.553   0.921  0.8952  2.1265 -2.3821
  202SOL    HW2  807   1.537   1.621   1.057 -1.5866  0.5986  0.7375
  202SOL     MW  808   1.527   1.618   0.968  0.3084  0.0955 -0.6246
  203SOL     OW  809   3.093   0.464   1.154 -0.0564  0.3517  0.3640
  203SOL    HW1  810   3.144   0.384   1.125 -0.8009 -0.1381  0.9260
  203SOL    HW2  811   3.150   0.513   1.215 -1.1268  0.5662 -0.2425
  203SOL     MW  812   3.107   0.460   1.158 -0.2958  0.3154  0.3582
  204SOL     OW  813   1.059   1.801   0.582 -0.3226  0.1784  0.1400
  204SOL    HW1  814   1.047   1.706   0.602 -0.6846 -2.0634 -0.3761
  204SOL    HW2  815   0.972   1.817   0.537 -2.2678  0.3293  1.5302
  204SOL     MW  816   1.046   1.790   0.579 -0.6270 -0.0975  0.2553
  205SOL     OW  817   1.351   0.106   1.344 -0.4905  0.1097  0.1668
  205SOL    HW1  818   1.297   0.087   1.265  3.7425  1.9048 -1.5063
  205SOL    HW2  819   1.352   0.206   1.347  0.0298 -0.5192  0.2656
  205SOL     MW  820   1.344   0.117   1.334  0.1367  0.2636 -0.0409
  206SOL     OW  821   0.420   3.057   1.402  0.1765 -0.4923 -0.2494
  206SOL    HW1  822   0.349   3.014   1.362  1.2292  0.6363  0.3592
  206SOL    HW2  823   0.498   2.996   1.380 -2.1075  1.3592  0.2796
  206SOL     MW  824   0.421   3.043   1.394  0.0141 -0.0991 -0.0993
  207SOL     OW  825   0.968   1.515   0.214  0.2588 -0.2235 -0.1885
  207SOL    HW1  826   0.938   1.604   0.218 -2.0228 -0.0691  0.4237
  207SOL    HW2  827   1.058   1.517   0.239  1.1098 -0.1529  2.4437
  207SOL     MW  828   0.976   1.527   0.217  0.0700 -0.1938  0.2395
  208SOL     OW  829   0.675   1.623   1.330  0.1916  0.1942 -0.2860
  208SOL    HW1  830   0.733   1.647   1.404  1.9943  0.7997 -3.0709
  208SOL    HW2  831   0.718   1.547   1.290 -0.5809 -1.0644 -0.9277
  208SOL     MW  832   0.688   1.616   1.334  0.3275  0.1081 -0.7381
  209SOL     OW  833   1.584   0.528   2.882  0.1093 -0.3353  0.2891
  209SOL    HW1  834   1.636   0.572   2.951  0.4815 -1.4932  1.9227
  209SOL    HW2  835   1.640   0.456   2.852 -3.0437  2.9401  0.3946
  209SOL     MW  836   1.599   0.524   2.887 -0.2576 -0.0559  0.5185
  210SOL     OW  837   1.589   1.394   0.829 -0.5567 -0.4770  0.0385
  210SOL    HW1  838   1.685   1.386   0.815  1.7642 -0.3505  2.3183
  210SOL    HW2  839   1.552   1.402   0.742 -0.1230  2.3765 -1.4458
  210SOL     MW  840   1.597   1.394   0.816 -0.1933 -0.0839  0.1434
  211SOL     OW  841   1.642   0.400   0.973  0.2042 -0.1518  0.0666
  211SOL    HW1  842   1.613   0.379   0.880 -2.4101 -1.2726 -1.1398
  211SOL    HW2  843   1.730   0.441   0.961 -1.9725  0.1192 -1.5887
  211SOL     MW  844   1.650   0.403   0.959 -0.4279 -0.2640 -0.3110
  212SOL     OW  845   0.216   1.122   0.109 -0.6116 -0.1550 -0.7422
  212SOL    HW1  846   0.168   1.078   0.182 -1.2330 -0.2421  0.8813
  212SOL    HW2  847   0.231   1.046   0.054 -0.3965 -1.2631  0.7972
  212SOL     MW  848   0.212   1.106   0.111 -0.6652 -0.3127 -0.3249
  213SOL     OW  849   0.430   1.714   3.027 -0.4121 -0.6780  0.2714
  213SOL    HW1  850   0.440   1.752   3.116 -0.7570 -0.0491 -0.2077
  213SOL    HW2  851   0.499   1.752   2.967  1.4876 -0.3869 -2.4385
  213SOL     MW  852   0.441   1.724   3.030 -0.2070 -0.5566 -0.1493
  214SOL     OW  853   0.602   0.290   2.223  0.1181 -0.3179  0.0744
  214SOL    HW1  854   0.536   0.358   2.205 -3.5971 -1.4110 -1.0863
  214SOL    HW2  855   0.682   0.298   2.158  2.9489  1.9580 -1.4871
  214SOL     MW  856   0.604   0.300   2.212  0.0014 -0.1619 -0.2847
  215SOL     OW  857   0.495   0.650   2.657  0.0604  0.0638  0.4706
  215SOL    HW1  858   0.498   0.632   2.565  4.0449  2.2634  0.6633
  215SOL    HW2  859   0.425   0.602   2.696  1.3340 -2.1498  1.0561
  215SOL     MW  860   0.486   0.641   2.650  0.7542  0.0620  0.5733
  216SOL     OW  861   3.005   3.083   2.655 -0.4922 -0.5634 -0.3854
  216SOL    HW1  862   2.960   3.057   2.737 -4.2660  0.1371 -0.7929
  216SOL    HW2  863   2.978   3.177   2.648 -3.5530  2.6326 -0.5758
  216SOL     MW  864   2.996   3.092   2.665 -1.3940 -0.0493 -0.4643
  217SOL     OW  865   0.907   1.223   0.037  0.0779 -0.1531  0.0522
  217SOL    HW1  866   0.950   1.143   0.011 -1.5682  0.1054  2.8955
  217SOL    HW2  867   0.972   1.289   0.036 -0.5027 -1.8347 -2.9393
  217SOL     MW  868   0.921   1.221   0.033 -0.2159 -0.3409  0.0327
  218SOL     OW  869   0.898   1.310   2.550  0.1871  0.3613 -0.1047
  218SOL    HW1  870   0.914   1.226   2.592  0.8704 -0.8246 -2.3481
  218SOL    HW2  871   0.984   1.350   2.560 -0.7529 -2.9647  1.9071
  218SOL     MW  872   0.911   1.304   2.557  0.1532 -0.2340 -0.1353
  219SOL     OW  873   1.087   0.488   2.588  0.2109  0.1030  0.4813
  219SOL    HW1  874   1.154   0.538   2.635 -1.4889  0.5728  3.1165
  219SOL    HW2  875   1.039   0.543   2.527 -0.8620  0.6095 -0.0950
  219SOL     MW  876   1.090   0.502   2.586 -0.1549  0.2318  0.7530
  220SOL     OW  877   1.801   0.431   2.211  0.2058  0.5241  0.0716
  220SOL    HW1  878   1.738   0.490   2.165 -1.1663  2.2507  3.9875
  220SOL    HW2  879   1.834   0.375   2.144 -1.1545  0.5088  1.0320
  220SOL     MW  880   1.797   0.431   2.196 -0.1547  0.7499  0.7150
  221SOL     OW  881   0.377   1.360   2.902 -0.3299  0.2419  0.1906
  221SOL    HW1  882   0.401   1.263   2.904 -0.4658 -0.5510 -2.6059
  221SOL    HW2  883   0.421   1.388   2.822  1.0951 -4.3673 -0.0929
  221SOL     MW  884   0.386   1.351   2.892 -0.1599 -0.4709 -0.2158
  222SOL     OW  885   0.325   0.902   2.658  0.3944  0.1821  0.5461
  222SOL    HW1  886   0.311   0.937   2.572  0.5653 -1.0392  2.9094
  222SOL    HW2  887   0.396   0.838   2.650  0.4294  1.1762 -1.1955
  222SOL     MW  888   0.332   0.898   2.645  0.4216  0.1521  0.6281
  223SOL     OW  889   0.042   2.071   2.617 -0.4826 -0.5457  0.3418
  223SOL    HW1  890   0.105   2.000   2.648  1.2525  1.5515  0.6183
  223SOL    HW2  891   0.109   2.126   2.578 -0.0567 -1.2686 -0.2719
  223SOL     MW  892   0.059   2.069   2.616 -0.1975 -0.3644  0.2973
  224SOL     OW  893   1.516   0.804   2.615  0.4986  0.5843 -0.1675
  224SOL    HW1  894   1.494   0.832   2.710 -3.1632 -1.7243  2.0300
  224SOL    HW2  895   1.510   0.884   2.565  0.9647  3.1226  1.6582
  224SOL     MW  896   1.512   0.819   2.621  0.0770  0.6146  0.3633
  225SOL     OW  897   2.976   1.512   2.318 -0.3376 -0.3968 -0.1721
  225SOL    HW1  898   3.030   1.577   2.275 -0.1589 -1.1405  0.1539
  225SOL    HW2  899   2.922   1.563   2.382  1.5428  1.0477 -0.2122
  225SOL     MW  900   2.976   1.527   2.321 -0.0659 -0.3043 -0.1344
  226SOL     OW  901   0.458   1.420   2.619  0.5798  0.2244  0.2601
  226SOL    HW1  902   0.554   1.430   2.597  4.3788 -0.2888  0.8572
  226SOL    HW2  903   0.417   1.507   2.604  1.1269 -0.5241  2.3632
  226SOL     MW  904   0.466   1.433   2.614  1.1532  0.0579  0.6164
  227SOL     OW  905   0.427   1.082   2.854 -0.3981  0.0722  0.4380
  227SOL    HW1  906   0.517   1.107   2.811  0.1961 -3.1819 -0.6905
  227SOL    HW2  907   0.394   1.015   2.801  1.1162  2.4927  1.1679
  227SOL     MW  908   0.434   1.076   2.842 -0.1199 -0.0378  0.3854
  228SOL     OW  909   0.731   0.983   2.051  0.5890 -0.0467  0.1532
  228SOL    HW1  910   0.809   1.012   2.009 -2.1801 -0.0551  1.0106
  228SOL    HW2  911   0.761   0.931   2.125  1.4410 -1.1481  0.1828
  228SOL     MW  912   0.745   0.980   2.055  0.3361 -0.1931  0.2702
  229SOL     OW  913   0.143   0.580   0.016 -0.0484 -0.6667  0.6266
  229SOL    HW1  914   0.069   0.561  -0.040  1.9401  2.8752  0.0773
  229SOL    HW2  915   0.155   0.504   0.071  0.7342  2.1495  1.0192
  229SOL     MW  916   0.135   0.567   0.016  0.3172  0.1722  0.6059
  230SOL     OW  917   1.761   1.401   2.026 -0.1435 -0.6542 -0.0614
  230SOL    HW1  918   1.733   1.380   2.115  1.8175 -1.1650  0.4179
  230SOL    HW2  919   1.831   1.343   1.998  0.4630 -0.3312  0.1253
  230SOL     MW  920   1.766   1.390   2.034  0.1952 -0.6790  0.0265
  231SOL     OW  921   2.759   1.334   2.234  0.3536 -0.2446 -0.0228
  231SOL    HW1  922   2.847   1.369   2.217 -1.6480  0.0922  0.0609
  231SOL    HW2  923   2.698   1.372   2.167 -2.1304  2.2173  0.1178
  231SOL     MW  924   2.763   1.343   2.223 -0.2382  0.1247  0.0068
  232SOL     OW  925   2.253   0.812   2.142 -0.3063 -0.3655 -0.8548
  232SOL    HW1  926   2.195   0.851   2.081  1.4395 -1.0788  1.2853
  232SOL    HW2  927   2.228   0.838   2.233 -0.0671  0.5440 -1.7490
  232SOL     MW  928   2.242   0.820   2.146 -0.0444 -0.3396 -0.6905
  233SOL     OW  929   2.056   0.497   1.969 -0.0776 -0.6101 -0.4794
  233SOL    HW1  930   2.082   0.404   1.952  1.7329 -0.6383  1.2860
  233SOL    HW2  931   2.115   0.508   2.043  0.4531 -1.4407 -2.6814
  233SOL     MW  932   2.067   0.486   1.976  0.2313 -0.7234 -0.5370
  234SOL     OW  933   0.273   1.003   2.389  0.1368 -0.1249  0.6995
  234SOL    HW1  934   0.193   1.053   2.369 -0.7603  2.4433  1.0356
  234SOL    HW2  935   0.341   1.076   2.390  0.9184  0.0832 -2.2228
  234SOL     MW  936   0.272   1.019   2.387  0.1216  0.2414  0.3583
  235SOL     OW  937   1.147   3.076   2.719  0.0076  0.0968  0.3507
  235SOL    HW1  938   1.197   3.025   2.784  5.1891 -1.5767 -0.7574
  235SOL    HW2  939   1.125   3.157   2.775  2.1890  0.3643  2.2016
  235SOL     MW  940   1.151   3.080   2.735  0.9791 -0.0887  0.4487
  236SOL     OW  941   2.941   0.517   0.007  0.4032  0.1014 -0.0020
  236SOL    HW1  942   2.847   0.513  -0.027 -0.6563 -0.9450 -1.5789
  236SOL    HW2  943   2.958   0.611   0.013 -0.4206 -0.5623 -0.7545
  236SOL     MW  944   2.931   0.529   0.003  0.1547 -0.1242 -0.3094
  237SOL     OW  945   1.924   1.021   2.185  0.1334  0.7281  0.5888
  237SOL    HW1  946   1.944   1.064   2.098  4.3517 -0.6779 -1.3124
  237SOL    HW2  947   1.873   1.073   2.247 -0.7171  1.9880  0.1335
  237SOL     MW  948   1.920   1.034   2.181  0.5778  0.7089  0.2779
  238SOL     OW  949   1.086   1.781   3.022  0.2191 -0.0804 -0.4822
  238SOL    HW1  950   1.039   1.695   2.996 -0.7345  0.0773 -0.3910
  238SOL    HW2  951   1.176   1.752   3.001  2.0050  1.3301  0.4453
  238SOL     MW  952   1.092   1.766   3.015  0.3289  0.1265 -0.3478
  239SOL     OW  953   1.271   1.371   2.356 -0.0328 -0.2351  0.0360
  239SOL    HW1  954   1.254   1.438   2.427 -0.9020 -0.0711  2.8530
  239SOL    HW2  955   1.254   1.286   2.410 -1.1358 -2.2991  1.8537
  239SOL     MW  956   1.267   1.369   2.372 -0.2930 -0.4858  0.6475
  240SOL     OW  957   0.735   0.815   2.263 -0.4705 -0.6385  0.0393
  240SOL    HW1  958   0.738   0.879   2.335 -1.8527 -0.5729 -0.8913
  240SOL    HW2  959   0.827   0.775   2.263  0.0843 -1.7778  1.3151
  240SOL     MW  960   0.747   0.818   2.272 -0.5797 -0.7802  0.0849
  241SOL     OW  961   0.662   0.359   0.015 -0.0283  0.2515  0.4514
  241SOL    HW1  962   0.685   0.445   0.049 -1.6654 -1.2122  1.8000
  241SOL    HW2  963   0.567   0.353  -0.001 -0.5897 -0.2746 -0.0879
  241SOL     MW  964   0.653   0.369   0.018 -0.3183 -0.0110  0.5582
  242SOL     OW  965   1.496   1.682   2.321 -0.4713  0.0443  0.3626
  242SOL    HW1  966   1.460   1.773   2.347 -1.0717  0.8325 -0.7240
  242SOL    HW2  967   1.422   1.648   2.264 -0.5090  3.2013  0.0070
  242SOL     MW  968   1.481   1.689   2.317 -0.5555  0.5648  0.1723
  243SOL     OW  969   1.030   0.246   2.431  0.1391 -0.1766  0.4413
  243SOL    HW1  970   1.113   0.230   2.389  0.2379  1.0748 -3.4144
  243SOL    HW2  971   1.047   0.320   2.489 -0.6354  1.8828 -2.2638
  243SOL     MW  972   1.043   0.254   2.433  0.0499  0.2602 -0.4243
  244SOL     OW  973   0.251   0.736   2.381 -0.2957 -0.3641 -0.5395
  244SOL    HW1  974   0.242   0.833   2.388  1.0355  0.2569  1.4940
  244SOL    HW2  975   0.345   0.717   2.373 -1.3519  2.4896 -2.1146
  244SOL     MW  976   0.262   0.747   2.381 -0.2594  0.0944 -0.4790
  245SOL     OW  977   1.288   0.239   2.324  0.1138  0.0715 -0.0654
  245SOL    HW1  978   1.342   0.165   2.317 -1.2196  0.7148  0.5520
  245SOL    HW2  979   1.338   0.300   2.374 -1.0929  1.0529  1.2447
  245SOL     MW  980   1.302   0.237   2.329 -0.2213  0.2859  0.1889
  246SOL     OW  981   1.179   1.229   2.141 -0.0337  0.3575 -0.4866
  246SOL    HW1  982   1.134   1.155   2.186 -0.1594  0.0927  1.7277
  246SOL    HW2  983   1.203   1.291   2.217 -2.4167  0.5522 -1.2894
  246SOL     MW  984   1.176   1.227   2.157 -0.3647  0.3483 -0.3003
  247SOL     OW  985   0.776   0.597   0.114  0.0887 -0.1633 -0.0134
  247SOL    HW1  986   0.723   0.675   0.090  0.2253  1.0075 -0.6126
  247SOL    HW2  987   0.869   0.605   0.094  2.0356  1.6130 -0.1905
  247SOL     MW  988   0.781   0.608   0.108  0.3636  0.2256 -0.1158
  248SOL     OW  989   0.471   1.199   2.444  0.1619  0.7094 -0.8474
  248SOL    HW1  990   0.470   1.258   2.368  0.8087 -1.6663  0.1959
  248SOL    HW2  991   0.447   1.259   2.515 -0.5345  0.0989 -0.0498
  248SOL     MW  992   0.467   1.215   2.443  0.1554  0.3154 -0.6045
  249SOL     OW  993   0.140   1.834   2.692 -0.7371  0.4781 -0.1875
  249SOL    HW1  994   0.091   1.753   2.651 -0.3622  1.3350  1.4198
  249SOL    HW2  995   0.135   1.818   2.790  0.9203  1.1158  1.8988
  249SOL     MW  996   0.133   1.821   2.700 -0.4690  0.6753  0.2999
  250SOL     OW  997   2.191   0.861   2.421 -0.0247 -0.3580 -0.3227
  250SOL    HW1  998   2.241   0.773   2.421  2.2346  0.0231 -1.7166
  250SOL    HW2  999   2.213   0.896   2.507  0.9846  0.2514  1.3487
  250SOL     MW 1000   2.200   0.854   2.432  0.4066 -0.2273 -0.2861
  251SOL     OW 1001   0.168   0.939   2.053 -0.3099  1.1170  0.3356
  251SOL    HW1 1002   0.144   0.863   2.106  1.4602 -0.0881 -4.5018
  251SOL    HW2 1003   0.168   0.905   1.960 -0.8268 -0.2260 -2.3911
  251SOL     MW 1004   0.165   0.925   2.048 -0.1445  0.7808 -0.6624
  252SOL     OW 1005   1.682   1.000   2.907  0.0560 -0.3885 -0.7628
  252SOL    HW1 1006   1.695   1.059   2.987  0.5884 -0.3032  0.4821
  252SOL    HW2 1007   1.750   1.021   2.842 -0.3925  2.3142 -0.1298
  252SOL     MW 1008   1.692   1.011   2.909  0.0671 -0.0207 -0.5150
  253SOL     OW 1009   1.172   1.775   2.563  0.2789  0.2545  0.0878
  253SOL    HW1 1010   1.165   1.761   2.468 -1.9230  0.1793 -1.7277
  253SOL    HW2 1011   1.101   1.827   2.586  2.7347  0.9775 -2.6764
  253SOL     MW 1012   1.162   1.780   2.553  0.3124  0.3400 -0.5165
  254SOL     OW 1013   1.028   1.047   2.263 -0.2867 -0.1027  0.5610
  254SOL    HW1 1014   1.017   0.951   2.241 -1.5639  0.2054 -0.8764
  254SOL    HW2 1015   0.943   1.096   2.265  2.0261 -1.7230 -0.1363
  254SOL     MW 1016   1.015   1.041   2.260 -0.1501 -0.2759  0.2794
  255SOL     OW 1017   0.833   2.550   2.200  0.0383  0.3334 -0.6728
  255SOL    HW1 1018   0.769   2.486   2.233  0.7150 -0.5053  0.2622
  255SOL    HW2 1019   0.912   2.540   2.251 -0.9550 -3.2542 -0.5443
  255SOL     MW 1020   0.835   2.540   2.211 -0.0035 -0.2506 -0.5325
  256SOL     OW 1021   1.215   2.819   2.830  0.3444 -0.6146 -0.2920
  256SOL    HW1 1022   1.171   2.737   2.797 -1.2029 -2.4355 -1.2959
  256SOL    HW2 1023   1.308   2.794   2.809  2.4124  0.8716  1.2614
  256SOL     MW 1024   1.222   2.805   2.823  0.4131 -0.6588 -0.2195
  257SOL     OW 1025   0.116   1.928   0.099  0.2176  0.3806  0.1005
  257SOL    HW1 1026   0.170   1.895   0.173 -2.7625 -2.6131 -1.2071
  257SOL    HW2 1027   0.126   1.858   0.034 -0.0762 -0.6550 -0.1342
  257SOL     MW 1028   0.124   1.915   0.100 -0.2144 -0.1510 -0.1030
  258SOL     OW 1029   0.717   1.016   2.445 -0.1704  0.5713  0.7725
  258SOL    HW1 1030   0.731   1.090   2.390 -0.6912  0.2802  0.8537
  258SOL    HW2 1031   0.623   1.024   2.454  2.8259 -1.2103 -0.8906
  258SOL     MW 1032   0.706   1.026   2.439  0.1562  0.2978  0.5638
  259SOL     OW 1033   0.737   0.493   2.346 -0.0520 -0.3703  0.4028
  259SOL    HW1 1034   0.665   0.555   2.363  1.4845 -0.9138 -1.2460
  259SOL    HW2 1035   0.686   0.418   2.313 -0.0547 -0.2265  2.2627
  259SOL     MW 1036   0.721   0.491   2.344  0.1504 -0.4231  0.4306
  260SOL     OW 1037   0.574   0.142   1.582 -0.6256 -0.4048  0.6050
  260SOL    HW1 1038   0.546   0.096   1.502 -0.4898 -0.5306  0.8247
  260SOL    HW2 1039   0.672   0.150   1.574  1.3665  0.5453 -1.0106
  260SOL     MW 1040   0.583   0.137   1.571 -0.3449 -0.2960  0.4208
  261SOL     OW 1041   1.261   0.719   2.014  0.5229  0.5345 -0.1698
  261SOL    HW1 1042   1.270   0.715   2.110  1.4873  0.7063 -1.2023
  261SOL    HW2 1043   1.282   0.625   1.986  1.0389  0.1002  1.4658
  261SOL     MW 1044   1.265   0.706   2.023  0.7182  0.4999 -0.0902
  262SOL     OW 1045   1.123   0.276   0.148 -0.6108  0.2719  0.1746
  262SOL    HW1 1046   1.211   0.249   0.124 -0.6980  1.1019 -0.4698
  262SOL    HW2 1047   1.067   0.219   0.105 -0.0749  1.2813  1.5429
  262SOL     MW 1048   1.127   0.265   0.139 -0.5516  0.5146  0.2701
  263SOL     OW 1049   0.438   3.038   2.526  0.5934 -0.4078  1.0042
  263SOL    HW1 1050   0.370   3.098   2.558 -0.1137 -2.0118  0.1560
  263SOL    HW2 1051   0.479   3.083   2.451  0.3733 -2.5484  1.0140
  263SOL     MW 1052   0.434   3.052   2.520  0.4711 -0.9018  0.8936
  264SOL     OW 1053   1.524   1.304   1.930  0.0594 -0.8234  0.6420
  264SOL    HW1 1054   1.471   1.327   2.009  1.3171  3.5132  0.7174
  264SOL    HW2 1055   1.613   1.324   1.962 -1.3023 -0.5576 -0.2325
  264SOL     MW 1056   1.529   1.310   1.945  0.0457 -0.2161  0.5366
  265SOL     OW 1057   0.683   2.776   2.251 -0.2779  0.2529  0.5148
  265SOL    HW1 1058   0.738   2.724   2.196  0.7957  0.6205 -1.0001
  265SOL    HW2 1059   0.726   2.760   2.337 -2.0473  1.8793 -1.9242
  265SOL     MW 1060   0.696   2.767   2.256 -0.3697  0.5160 -0.0069
  266SOL     OW 1061   0.996   0.779   2.200  0.6955 -0.6831  0.6526
  266SOL    HW1 1062   0.998   0.757   2.104  1.0608 -1.6112 -0.7851
  266SOL    HW2 1063   1.080   0.751   2.223  0.9328  0.1999 -1.9089
  266SOL     MW 1064   1.008   0.772   2.190  0.7750 -0.6890  0.1249
  267SOL     OW 1065   1.374   1.656   2.724  0.0226  0.2651  0.0679
  267SOL    HW1 1066   1.458   1.653   2.675 -0.1653 -0.1757  2.8726
  267SOL    HW2 1067   1.322   1.719   2.667 -0.4364  2.4258  1.5417
  267SOL     MW 1068   1.378   1.664   2.710 -0.0627  0.4920  0.6324
  268SOL     OW 1069   0.274   0.824   1.770  0.0639  0.5022 -0.7486
  268SOL    HW1 1070   0.194   0.844   1.711 -3.1995 -1.0429  1.0807
  268SOL    HW2 1071   0.286   0.729   1.772  0.9071 -0.6474 -0.6376
  268SOL     MW 1072   0.265   0.814   1.762 -0.2554  0.1466 -0.4926
  269SOL     OW 1073   1.396   1.938   2.364  0.3573 -0.0521  0.0759
  269SOL    HW1 1074   1.426   2.017   2.317 -1.6540 -0.0959 -2.2278
  269SOL    HW2 1075   1.342   1.973   2.427  0.3438  1.6157 -3.3242
  269SOL     MW 1076   1.393   1.953   2.366  0.0902  0.1622 -0.6767
  270SOL     OW 1077   1.184   0.378   1.603  0.3119  0.1250 -0.4809
  270SOL    HW1 1078   1.146   0.308   1.661  0.2428 -0.4448 -1.2797
  270SOL    HW2 1079   1.277   0.357   1.580 -0.5610 -1.0552  0.2411
  270SOL     MW 1080   1.191   0.366   1.608  0.1876 -0.1059 -0.4910
  271SOL     OW 1081   0.898   3.097   2.492 -0.2192  0.1407  0.1933
  271SOL    HW1 1082   0.975   3.038   2.501  1.8348  0.5125  0.4387
  271SOL    HW2 1083   0.947   3.184   2.485 -0.7629 -1.6761  1.9993
  271SOL     MW 1084   0.915   3.100   2.492 -0.0199 -0.0500  0.4640
  272SOL     OW 1085   1.472   2.883   2.781 -0.3482  0.0580  0.2654
  272SOL    HW1 1086   1.446   2.939   2.707 -0.4353 -2.6723  1.2141
  272SOL    HW2 1087   1.505   2.940   2.858 -0.7782  0.4970 -0.0984
  272SOL     MW 1088   1.473   2.898   2.781 -0.4164 -0.2443  0.3425
  273SOL     OW 1089   1.437   0.890   2.871  0.4969  0.3544 -0.3768
  273SOL    HW1 1090   1.525   0.919   2.891 -0.8211 -1.1199 -1.4536
  273SOL    HW2 1091   1.395   0.974   2.874  0.4532  1.0426  0.5764
  273SOL     MW 1092   1.443   0.905   2.874  0.3173  0.2507 -0.3931
  274SOL     OW 1093   1.426   0.757   0.204  0.0322 -0.2765 -0.0245
  274SOL    HW1 1094   1.470   0.671   0.202 -2.6198  0.9066 -0.1123
  274SOL    HW2 1095   1.334   0.741   0.242 -0.6722  0.9645  2.5815
  274SOL     MW 1096   1.420   0.743   0.209 -0.4107  0.0433  0.3077
  275SOL     OW 1097   1.689   0.642   1.783  0.1487 -0.0213  0.0102
  275SOL    HW1 1098   1.715   0.681   1.863  0.6120 -1.4874  1.4494
  275SOL    HW2 1099   1.723   0.549   1.789 -1.7009 -2.0405 -0.1334
  275SOL     MW 1100   1.697   0.635   1.794 -0.0342 -0.4811  0.1811
  276SOL     OW 1101   0.277   1.229   1.803  0.5237 -0.0177  0.1921
  276SOL    HW1 1102   0.301   1.173   1.879  1.1575 -0.2552 -0.9183
  276SOL    HW2 1103   0.210   1.286   1.844  1.3308 -1.8214  0.2710
  276SOL     MW 1104   0.271   1.229   1.819  0.7138 -0.2870  0.0560
  277SOL     OW 1105   1.876   1.280   2.494 -0.3868 -0.0311 -0.9097
  277SOL    HW1 1106   1.956   1.341   2.502  1.4876  1.5869 -0.4172
  277SOL    HW2 1107   1.878   1.222   2.569  0.3817  0.4768  0.0805
  277SOL     MW 1108   1.887   1.280   2.505 -0.0381  0.2494 -0.7141
  278SOL     OW 1109   1.433   0.631   1.711  0.2642 -0.2185 -0.3443
  278SOL    HW1 1110   1.409   0.590   1.798  0.4087 -1.1356  1.4845
  278SOL    HW2 1111   1.525   0.646   1.733  1.6133 -0.3788 -2.6175
  278SOL     MW 1112   1.442   0.628   1.725  0.4613 -0.3607 -0.4029
  279SOL     OW 1113   0.514   0.030   2.255  0.4551  0.1753 -0.3298
  279SOL    HW1 1114   0.609   0.011   2.256  1.3040 -0.0499  1.7174
  279SOL    HW2 1115   0.516   0.124   2.233  1.8020  2.1489  1.4440
  279SOL     MW 1116   0.527   0.040   2.252  0.7448  0.4060  0.1744
  280SOL     OW 1117   1.506   1.079   2.168 -0.6107 -0.2590  0.0928
  280SOL    HW1 1118   1.559   1.025   2.110 -0.9838 -0.7206  0.6986
  280SOL    HW2 1119   1.503   1.025   2.248 -0.7032 -0.7413  0.1730
  280SOL     MW 1120   1.512   1.065   2.171 -0.6722 -0.3835  0.1833
  281SOL     OW 1121   1.296   1.275   2.733 -0.2792  0.2066 -0.1604
  281SOL    HW1 1122   1.388   1.313   2.724 -1.2198 -1.6770  0.9608
  281SOL    HW2 1123   1.293   1.262   2.826 -1.5714  0.1566 -2.5272
  281SOL     MW 1124   1.308   1.278   2.744 -0.5738 -0.0485 -0.3248
  282SOL     OW 1125   1.128   1.295   1.666  0.1161 -0.1956 -0.4495
  282SOL    HW1 1126   1.089   1.341   1.591  2.6694 -0.8641  2.6166
  282SOL    HW2 1127   1.060   1.299   1.735  2.0042 -1.0069  2.2488
  282SOL     MW 1128   1.114   1.301   1.665  0.7021 -0.3909  0.3110
  283SOL     OW 1129   0.648   1.296   3.055  0.1865 -0.5180 -0.7386
  283SOL    HW1 1130   0.744   1.275   3.060  0.2477 -3.1735 -0.2447
  283SOL    HW2 1131   0.644   1.391   3.080 -0.6514  2.4042  2.5191
  283SOL     MW 1132   0.660   1.306   3.059  0.0840 -0.4829 -0.2436
  284SOL     OW 1133   0.538   0.663   2.368  0.4201  0.1418  0.2755
  284SOL    HW1 1134   0.607   0.722   2.327  1.7985 -0.1318 -1.5349
  284SOL    HW2 1135   0.497   0.600   2.299 -0.7860 -1.3067  0.0508
  284SOL     MW 1136   0.541   0.662   2.354  0.4428 -0.0855  0.0070
  285SOL     OW 1137   0.859   0.941   2.843 -0.1750 -0.2078 -0.4975
  285SOL    HW1 1138   0.870   0.980   2.750 -0.8831 -0.2194 -0.8657
  285SOL    HW2 1139   0.831   0.849   2.832 -0.9311  0.8037  1.2984
  285SOL     MW 1140   0.857   0.934   2.829 -0.3682 -0.0759 -0.3092
  286SOL     OW 1141   1.113   1.491   2.580  0.6637  0.2443 -0.2129
  286SOL    HW1 1142   1.165   1.442   2.648  4.0810  0.4170 -2.1901
  286SOL    HW2 1143   1.133   1.581   2.599  1.8613 -0.9450  0.0951
  286SOL     MW 1144   1.122   1.497   2.592  1.2726  0.1101 -0.4331
  287SOL     OW 1145   1.047   0.952   0.291  0.1765 -0.1686 -0.4193
  287SOL    HW1 1146   1.084   1.004   0.366  0.6508  1.0680 -1.0884
  287SOL    HW2 1147   0.966   0.998   0.267  2.3485  0.5331  0.6730
  287SOL     MW 1148   1.041   0.965   0.298  0.5256  0.0871 -0.3635
  288SOL     OW 1149   1.600   0.635   2.117 -0.0544 -0.1342 -0.2128
  288SOL    HW1 1150   1.553   0.642   2.202  0.6502  1.9283 -0.2673
  288SOL    HW2 1151   1.623   0.727   2.090 -1.9008  1.2893  0.4357
  288SOL     MW 1152   1.597   0.648   2.125 -0.2050  0.3257 -0.1344
  289SOL     OW 1153   0.963   1.025   2.597 -0.1326 -0.4284 -0.5757
  289SOL    HW1 1154   1.021   0.943   2.595 -4.4585 -0.8526 -0.8132
  289SOL    HW2 1155   0.887   1.001   2.544 -1.3276 -0.1400 -1.0549
  289SOL     MW 1156   0.960   1.011   2.590 -0.8611 -0.4463 -0.6703
  290SOL     OW 1157   0.881   0.547   1.576  0.2518  0.2712 -0.1234
  290SOL    HW1 1158   0.930   0.492   1.516  0.9400  0.0522 -0.6714
  290SOL    HW2 1159   0.928   0.555   1.656  0.3439 -0.2654  0.7752
  290SOL     MW 1160   0.893   0.541   1.578  0.3548  0.1715 -0.0771
  291SOL     OW 1161   0.165   0.338   0.146 -0.1784  0.2312 -0.3008
  291SOL    HW1 1162   0.236   0.274   0.158 -0.8032  2.5213 -0.2745
  291SOL    HW2 1163   0.102   0.279   0.095  1.1166  1.6780  2.2444
  291SOL     MW 1164   0.166   0.321   0.141 -0.0900  0.7243  0.0385
  292SOL     OW 1165   1.048   0.555   0.088 -0.2206 -0.1949  0.1921
  292SOL    HW1 1166   1.121   0.588   0.143  1.2298 -0.2100  1.2005
  292SOL    HW2 1167   1.075   0.460   0.092  0.3903  1.1869 -0.7627
  292SOL     MW 1168   1.061   0.547   0.096  0.0514 -0.0146  0.1992
  293SOL     OW 1169   0.243   0.146   2.444  0.1671  0.0498 -0.3181
  293SOL    HW1 1170   0.178   0.098   2.389  0.3733  0.3913 -1.9107
  293SOL    HW2 1171   0.188   0.197   2.501 -1.9435 -1.2011 -2.9401
  293SOL     MW 1172   0.228   0.146   2.444 -0.0842 -0.0702 -0.8742
  294SOL     OW 1173   1.501   0.619   2.397  0.1188 -0.6905  0.3130
  294SOL    HW1 1174   1.531   0.678   2.465 -2.9025  1.0407  1.0968
  294SOL    HW2 1175   1.488   0.534   2.434 -1.0568  3.5096 -1.9635
  294SOL     MW 1176   1.503   0.616   2.411 -0.4349  0.0921  0.1160
  295SOL     OW 1177   0.903   0.674   2.512 -0.4255 -0.4823  0.0139
  295SOL    HW1 1178   0.843   0.611   2.471  3.8463  2.7929 -0.1946
  295SOL    HW2 1179   0.893   0.647   2.605 -3.2003 -0.5821 -1.2127
  295SOL     MW 1180   0.894   0.662   2.519 -0.2280 -0.0633 -0.1755
  296SOL     OW 1181   1.262   0.286   2.061 -0.1390  0.3459  0.0302
  296SOL    HW1 1182   1.335   0.219   2.041  2.2958 -0.2881 -1.0071
  296SOL    HW2 1183   1.249   0.294   2.158  0.1599 -1.9502  0.0407
  296SOL     MW 1184   1.270   0.278   2.071  0.2217 -0.0407 -0.1053
  297SOL     OW 1185   1.481   0.351   1.602 -0.1699 -0.3588 -0.4775
  297SOL    HW1 1186   1.494   0.440   1.635 -1.4068 -0.5689  3.3069
  297SOL    HW2 1187   1.503   0.290   1.673  1.7501  1.1027 -1.1526
  297SOL     MW 1188   1.486   0.355   1.615 -0.0798 -0.1937 -0.0673
  298SOL     OW 1189   1.645   0.893   2.020  0.5183 -0.6909 -0.6791
  298SOL    HW1 1190   1.622   0.900   1.926 -0.8055  0.0260 -2.1926
  298SOL    HW2 1191   1.741   0.895   2.035  0.5381  0.6510  1.2338
  298SOL     MW 1192   1.655   0.894   2.010  0.3462 -0.4193 -0.6264
  299SOL     OW 1193   0.564   1.045   3.104  0.6322  0.6978 -0.1076
  299SOL    HW1 1194   0.613   1.128   3.108 -0.3644 -0.0548  0.1551
  299SOL    HW2 1195   0.513   1.048   3.024 -4.0927  1.0009  2.5125
  299SOL     MW 1196   0.564   1.057   3.094 -0.1227  0.6385  0.2727
  300SOL     OW 1197   1.188   1.158   2.504 -0.1853  0.0365  0.1187
  300SOL    HW1 1198   1.121   1.084   2.516 -0.2132 -0.2531  3.1305
  300SOL    HW2 1199   1.205   1.168   2.596 -1.1254 -1.6423 -2.3709
  300SOL     MW 1200   1.181   1.149   2.518 -0.3130 -0.2232  0.1876
  301SOL     OW 1201   1.377   0.914   0.659  0.1921 -0.0705  0.7882
  301SOL    HW1 1202   1.450   0.925   0.725  2.7370 -1.2487  1.4513
  301SOL    HW2 1203   1.324   0.836   0.688 -1.5516 -0.4549  2.3948
  301SOL     MW 1204   1.380   0.905   0.672  0.2978 -0.2766  1.0877
  302SOL     OW 1205   0.087   1.498   2.035  0.3188  0.0555 -0.2554
  302SOL    HW1 1206   0.087   1.434   2.112  0.8250  0.1893  0.3479
  302SOL    HW2 1207   0.053   1.580   2.076  2.2214 -0.3488  0.5734
  302SOL     MW 1208   0.083   1.501   2.050  0.6366  0.0198 -0.0664
  303SOL     OW 1209   0.373   1.684   2.611  0.6074  0.0776  0.5707
  303SOL    HW1 1210   0.391   1.714   2.522 -1.4254 -1.0212 -0.6703
  303SOL    HW2 1211   0.299   1.748   2.626 -1.0733 -0.7308 -0.4600
  303SOL     MW 1212   0.365   1.697   2.601  0.1174 -0.1740  0.2710
  304SOL     OW 1213   0.666   2.063   2.359 -0.8463  0.3719 -0.1159
  304SOL    HW1 1214   0.728   2.114   2.307  0.2808 -2.8758 -0.0011
  304SOL    HW2 1215   0.712   1.988   2.393 -2.3599 -1.0074 -0.1698
  304SOL     MW 1216   0.680   2.060   2.357 -0.8973 -0.2386 -0.1079
  305SOL     OW 1217   1.085   0.578   0.522  0.2395  0.0453  0.7535
  305SOL    HW1 1218   1.002   0.533   0.486  1.7252  0.9178 -0.0503
  305SOL    HW2 1219   1.131   0.499   0.563  1.7413  0.6012 -0.2324
  305SOL     MW 1220   1.080   0.561   0.523  0.6337  0.2337  0.5174
  306SOL     OW 1221   1.222   1.486   0.272 -0.0632 -0.1454 -0.6498
  306SOL    HW1 1222   1.241   1.404   0.310  0.3420  2.2443  1.2694
  306SOL    HW2 1223   1.281   1.483   0.195 -2.3836 -1.3067  1.0326
  306SOL     MW 1224   1.232   1.475   0.267 -0.3159  0.0167 -0.1746
  307SOL     OW 1225   1.389   0.486   1.934 -0.3137 -0.4214 -0.0665
  307SOL    HW1 1226   1.345   0.413   1.991  0.0986 -1.8362  2.6162
  307SOL    HW2 1227   1.452   0.522   2.001  2.5454  2.4317  1.4329
  307SOL     MW 1228   1.391   0.481   1.951  0.1179 -0.2316  0.4852
  308SOL     OW 1229   2.158   0.599   2.696 -0.7258  0.1019  0.1770
  308SOL    HW1 1230   2.251   0.564   2.710  1.9719 -0.9791 -2.0674
  308SOL    HW2 1231   2.169   0.696   2.689  0.5889 -2.4110  0.0949
  308SOL     MW 1232   2.171   0.607   2.697 -0.1964 -0.3723 -0.1300
  309SOL     OW 1233   0.412   0.374   0.404 -0.6459  0.1860  0.3257
  309SOL    HW1 1234   0.477   0.327   0.455  0.3198  0.7714  0.4910
  309SOL    HW2 1235   0.420   0.338   0.315 -1.1313  0.9340 -0.6197
  309SOL     MW 1236   0.422   0.363   0.399 -0.5825  0.3619  0.2228
  310SOL     OW 1237   0.486   0.594   1.918  0.1420 -0.3306 -0.1192
  310SOL    HW1 1238   0.524   0.522   1.864  0.1911 -0.6250  2.2192
  310SOL    HW2 1239   0.528   0.678   1.894  0.5988  1.4410 -1.7964
  310SOL     MW 1240   0.496   0.596   1.907  0.2088 -0.1357 -0.0320
  311SOL     OW 1241   1.890   0.738   1.973  0.1949 -0.0459 -0.0439
  311SOL    HW1 1242   1.895   0.731   2.070  0.5341 -0.0841  1.3348
  311SOL    HW2 1243   1.950   0.659   1.952  1.4646 -1.8050  1.2160
  311SOL     MW 1244   1.899   0.727   1.983  0.4072 -0.2831  0.3043
  312SOL     OW 1245   1.673   2.504   0.115 -0.2276  0.2437  0.3889
  312SOL    HW1 1246   1.747   2.534   0.172  3.4207 -1.3515 -1.5156
  312SOL    HW2 1247   1.604   2.567   0.122 -1.7304 -0.1137  1.1746
  312SOL     MW 1248   1.674   2.517   0.123  0.0554 -0.0139  0.2413
  313SOL     OW 1249   0.091   1.226   2.968  0.2339 -0.1557  0.0566
  313SOL    HW1 1250   0.119   1.220   3.060 -2.1536 -1.8930  1.4535
  313SOL    HW2 1251   0.161   1.261   2.922 -1.9258 -1.3589  2.3482
  313SOL     MW 1252   0.104   1.230   2.974 -0.3660 -0.5437  0.5432
  314SOL     OW 1253   2.130   2.971   3.012 -0.2845 -0.1795 -0.0538
  314SOL    HW1 1254   2.069   3.027   2.964 -2.6699 -2.5028  0.0343
  314SOL    HW2 1255   2.184   3.032   3.058 -2.5332  1.6576 -2.6911
  314SOL     MW 1256   2.129   2.986   3.012 -0.8959 -0.2437 -0.3901
  315SOL     OW 1257   1.508   1.889   0.048  0.6542  0.5431  0.3346
  315SOL    HW1 1258   1.428   1.945   0.074 -0.0650  1.6319  0.5640
  315SOL    HW2 1259   1.542   1.933  -0.034  0.3726  0.1810 -0.7045
  315SOL     MW 1260   1.502   1.902   0.040  0.5222  0.6390  0.2277
  316SOL     OW 1261   1.292   0.666   2.685  0.4403 -0.0923  0.1856
  316SOL    HW1 1262   1.379   0.692   2.647  1.4613 -1.3861  2.5475
  316SOL    HW2 1263   1.318   0.655   2.772  1.5965  2.3521 -0.4994
  316SOL     MW 1264   1.307   0.668   2.691  0.7276  0.0595  0.4069
  317SOL     OW 1265   0.704   1.497   2.538 -0.3257  0.3507  0.1532
  317SOL    HW1 1266   0.762   1.417   2.540 -0.2786  0.0993 -2.2597
  317SOL    HW2 1267   0.714   1.545   2.447 -1.7391  0.3382 -0.4388
  317SOL     MW 1268   0.713   1.493   2.526 -0.5060  0.3159 -0.2433
  318SOL     OW 1269   1.347   0.409   2.938 -0.0402 -0.3416 -0.0504
  318SOL    HW1 1270   1.264   0.455   2.913 -4.6719  0.5693  0.9616
  318SOL    HW2 1271   1.425   0.464   2.922  1.2382 -0.5253 -0.2704
  318SOL     MW 1272   1.346   0.422   2.933 -0.4826 -0.2457  0.0541
  319SOL     OW 1273   0.772   0.415   2.860 -0.3519  0.2851 -0.1836
  319SOL    HW1 1274   0.705   0.366   2.813  0.7686 -1.8378  1.8873
  319SOL    HW2 1275   0.747   0.411   2.955  0.7909  1.2157  1.8030
  319SOL     MW 1276   0.760   0.408   2.867 -0.0533  0.1278  0.3518
  320SOL     OW 1277   1.036   1.327   1.923  0.5587 -0.2875  0.2126
  320SOL    HW1 1278   1.089   1.279   1.990  1.9133  0.2133 -3.3883
  320SOL    HW2 1279   1.083   1.410   1.921  1.8677  0.0634 -0.7214
  320SOL     MW 1280   1.049   1.332   1.932  0.9102 -0.1751 -0.3857
  321SOL     OW 1281   1.031   0.994   3.046  0.3224  0.1982 -0.2517
  321SOL    HW1 1282   0.977   0.981   2.966  1.2064 -1.3370 -2.7870
  321SOL    HW2 1283   1.063   0.905   3.049  1.8353 -0.2011  2.5556
  321SOL     MW 1284   1.028   0.981   3.036  0.6386 -0.0570 -0.2158
  322SOL     OW 1285   1.193   0.794   1.720  0.5257 -0.5522 -0.0684
  322SOL    HW1 1286   1.280   0.757   1.709  3.1917 -0.1990  1.4768
  322SOL    HW2 1287   1.199   0.846   1.801 -0.8292  2.8650 -2.3766
  322SOL     MW 1288   1.205   0.796   1.729  0.6987 -0.0547 -0.1691
  323SOL     OW 1289   1.208   1.539   1.886  0.0348  0.4996  0.0844
  323SOL    HW1 1290   1.232   1.490   1.803 -0.3580  0.0207  0.3500
  323SOL    HW2 1291   1.159   1.619   1.862  0.2740 -1.5879 -2.6387
  323SOL     MW 1292   1.205   1.543   1.872  0.0145  0.1610 -0.2399
  324SOL     OW 1293   1.464   1.005   2.438  0.5125  0.0447 -0.2801
  324SOL    HW1 1294   1.365   1.036   2.431 -0.0367  0.6799 -2.0982
  324SOL    HW2 1295   1.513   1.081   2.464  0.1165 -3.7421  1.4367
  324SOL     MW 1296   1.458   1.019   2.441  0.3878 -0.3711 -0.2934
  325SOL     OW 1297   1.089   0.516   2.897 -0.2915 -0.2152  0.0564
  325SOL    HW1 1298   1.092   0.579   2.972  1.4278 -0.9015  1.5689
  325SOL    HW2 1299   1.002   0.512   2.867  3.0666  0.5625 -1.4029
  325SOL     MW 1300   1.078   0.524   2.903  0.3784 -0.2031  0.0634
  326SOL     OW 1301   0.480   1.362   2.216 -0.2488 -0.7054  0.1658
  326SOL    HW1 1302   0.523   1.336   2.136  2.0282 -0.1696 -0.6181
  326SOL    HW2 1303   0.486   1.461   2.212  0.3284 -1.5321  1.8667
  326SOL     MW 1304   0.487   1.371   2.205  0.1278 -0.7438  0.2868
  327SOL     OW 1305   1.887   0.871   2.463  0.5023 -0.4421 -0.0949
  327SOL    HW1 1306   1.904   0.785   2.515  0.0889 -0.4107 -0.8327
  327SOL    HW2 1307   1.963   0.881   2.400  1.3903  0.8236 -1.5882
  327SOL     MW 1308   1.899   0.861   2.461  0.5649 -0.2710 -0.3893
  328SOL     OW 1309   0.189   1.284   2.224  0.0953 -0.9426 -0.6541
  328SOL    HW1 1310   0.143   1.236   2.150  1.6502  3.2032 -2.4674
  328SOL    HW2 1311   0.280   1.288   2.208  0.7995  0.3733  1.6582
  328SOL     MW 1312   0.195   1.278   2.212  0.3934 -0.2220 -0.5882
  329SOL     OW 1313   0.132   0.094   1.392 -0.0741 -0.7121 -0.3482
  329SOL    HW1 1314   0.109   0.131   1.477  0.7275  3.2091  0.2683
  329SOL    HW2 1315   0.217   0.131   1.366  3.2642 -0.7471 -0.3198
  329SOL     MW 1316   0.140   0.104   1.400  0.4721 -0.1994 -0.2631
  330SOL     OW 1317   0.317   3.094   2.085 -0.5335 -0.0698 -0.4927
  330SOL    HW1 1318   0.384   3.084   2.159 -0.6428  1.2226  0.3885
  330SOL    HW2 1319   0.249   3.037   2.105  0.6058 -0.0810  4.8774
  330SOL     MW 1320   0.317   3.086   2.097 -0.3976  0.0992  0.3321
  331SOL     OW 1321   0.785   1.205   2.284  0.8994 -0.2668  0.0018
  331SOL    HW1 1322   0.756   1.238   2.198  1.5574 -0.1977  0.9586
  331SOL    HW2 1323   0.788   1.278   2.341 -2.2133 -1.3179  1.3986
  331SOL     MW 1324   0.782   1.219   2.280  0.5755 -0.3964  0.3123
  332SOL     OW 1325   1.352   1.688   2.994  0.1631 -0.1666  0.1147
  332SOL    HW1 1326   1.356   1.678   2.900 -0.2785 -0.4067  3.4617
  332SOL    HW2 1327   1.387   1.770   3.022 -0.9210  0.8741  0.6363
  332SOL     MW 1328   1.357   1.698   2.985 -0.0382 -0.0609  0.6251
  333SOL     OW 1329   1.802   1.455   2.973 -0.2402 -0.0118 -0.1063
  333SOL    HW1 1330   1.901   1.457   2.986  0.2886  0.1904  1.5849
  333SOL    HW2 1331   1.766   1.440   3.061  2.9353 -0.2130 -2.5638
  333SOL     MW 1332   1.810   1.453   2.986  0.2485 -0.0117 -0.2074
  334SOL     OW 1333   1.376   3.082   2.586  0.4528 -0.1637 -0.4066
  334SOL    HW1 1334   1.281   3.095   2.609  0.3112  1.5852 -1.0600
  334SOL    HW2 1335   1.419   3.160   2.624  3.2311  0.7920 -1.5544
  334SOL     MW 1336   1.369   3.094   2.594  0.8007  0.1932 -0.6443
  335SOL     OW 1337   1.252   0.777   3.028  0.2478 -0.2829 -0.8329
  335SOL    HW1 1338   1.300   0.788   3.111  0.5730  0.7679 -1.0168
  335SOL    HW2 1339   1.306   0.826   2.965 -1.2448  1.4660  2.8395
  335SOL     MW 1340   1.265   0.785   3.031  0.0938  0.0865 -0.3726
  336SOL     OW 1341   0.938   1.088   1.893  0.0845 -0.1137  0.2807
  336SOL    HW1 1342   0.964   1.179   1.910  1.2584  0.0400  1.7999
  336SOL    HW2 1343   1.011   1.041   1.927 -0.6896  1.1647  1.3523
  336SOL     MW 1344   0.951   1.094   1.900  0.1372  0.0752  0.6225
  337SOL     OW 1345   0.606   1.773   2.826  0.7272  0.2625  0.0275
  337SOL    HW1 1346   0.547   1.730   2.758  3.1815  1.5049 -2.0096
  337SOL    HW2 1347   0.696   1.753   2.792  1.2135  0.5992 -2.4345
  337SOL     MW 1348   0.610   1.765   2.812  1.1152  0.4709 -0.5661
  338SOL     OW 1349   1.136   0.839   2.533  0.1811  0.3963 -0.4648
  338SOL    HW1 1350   1.064   0.781   2.502 -1.1841  1.8294  0.9598
  338SOL    HW2 1351   1.184   0.785   2.597  0.5266  0.9649  1.8551
  338SOL     MW 1352   1.133   0.824   2.537  0.0466  0.6604  0.0292
  339SOL     OW 1353   1.548   1.039   1.789  0.2457  0.1742  0.2003
  339SOL    HW1 1354   1.483   1.051   1.717 -2.3597  1.5477 -1.7217
  339SOL    HW2 1355   1.528   1.107   1.856  0.7733 -1.3065  1.5001
  339SOL     MW 1356   1.537   1.049   1.789 -0.0284  0.1600  0.1182
  340SOL     OW 1357   1.392   1.476   0.058  0.3916 -0.0881 -0.2832
  340SOL    HW1 1358   1.389   1.553   0.006  0.0802 -0.8187  1.1473
  340SOL    HW2 1359   1.481   1.451   0.081  0.0013  0.2655  0.8082
  340SOL     MW 1360   1.404   1.483   0.054  0.2990 -0.1378  0.0496
  341SOL     OW 1361   0.107   1.397   2.684 -0.2873  0.4547 -0.1076
  341SOL    HW1 1362   0.196   1.372   2.653 -0.1641 -0.1773  0.3950
  341SOL    HW2 1363   0.046   1.377   2.612  1.2586  2.1065  2.0984
  341SOL     MW 1364   0.111   1.391   2.670 -0.0671  0.5892  0.2497
  342SOL     OW 1365   1.392   0.298   0.090 -0.3445  0.0633 -0.1266
  342SOL    HW1 1366   1.455   0.360   0.129 -2.5070  0.7625 -2.6865
  342SOL    HW2 1367   1.370   0.339   0.004 -0.8438 -0.4601 -1.0859
  342SOL     MW 1368   1.398   0.312   0.084 -0.6957  0.0865 -0.5909
  343SOL     OW 1369   0.211   0.311   2.221 -0.0925 -0.1202  0.2728
  343SOL    HW1 1370   0.235   0.241   2.289  1.6601  0.8977  1.5760
  343SOL    HW2 1371   0.146   0.266   2.164  0.7022 -1.8710  0.8134
  343SOL     MW 1372   0.205   0.296   2.223  0.2436 -0.2169  0.5160
  344SOL     OW 1373   1.676   2.067   0.194  0.2975 -0.3473 -0.2542
  344SOL    HW1 1374   1.687   2.118   0.111 -1.5672  0.5932 -1.1728
  344SOL    HW2 1375   1.617   2.000   0.176  2.2489 -0.3747 -2.3334
  344SOL     MW 1376   1.670   2.065   0.181  0.3089 -0.2268 -0.6497
  345SOL     OW 1377   0.738   1.629   2.318  0.3505  0.0267  0.0137
  345SOL    HW1 1378   0.650   1.614   2.275 -1.9482 -0.5506 -3.1458
  345SOL    HW2 1379   0.806   1.603   2.253 -1.4610  0.0405 -2.2003
  345SOL     MW 1380   0.735   1.624   2.304 -0.1918 -0.0477 -0.6953
  346SOL     OW 1381   1.736   1.119   0.040  0.3653  0.3929 -0.1208
  346SOL    HW1 1382   1.831   1.108   0.056  0.2278  0.0491 -0.1285
  346SOL    HW2 1383   1.694   1.069   0.108  0.7529  2.1748  0.5991
  346SOL     MW 1384   1.743   1.111   0.051  0.3983  0.5827 -0.0269
  347SOL     OW 1385   1.278   0.760   2.294 -0.0693  0.5723  0.1086
  347SOL    HW1 1386   1.343   0.700   2.330  0.1608 -0.1838 -0.4821
  347SOL    HW2 1387   1.273   0.833   2.350 -3.5514 -1.9502 -0.0945
  347SOL     MW 1388   1.286   0.762   2.306 -0.4984  0.1397  0.0038
  348SOL     OW 1389   1.325   2.593   1.862  0.7907  0.4573 -0.0722
  348SOL    HW1 1390   1.364   2.521   1.911 -2.3725  2.0982 -1.5893
  348SOL    HW2 1391   1.350   2.669   1.910 -0.5278 -0.0640  0.6753
  348SOL     MW 1392   1.333   2.594   1.875  0.1994  0.6050 -0.1737
  349SOL     OW 1393   1.412   0.257   2.701 -0.6416  0.0091  0.2390
  349SOL    HW1 1394   1.360   0.309   2.767 -0.3892  0.4388  1.0095
  349SOL    HW2 1395   1.494   0.236   2.742  1.8944  2.7751 -1.5597
  349SOL     MW 1396   1.416   0.261   2.715 -0.2737  0.4307  0.1033
  350SOL     OW 1397   1.884   0.646   2.608  0.2537 -0.3076 -0.0542
  350SOL    HW1 1398   1.849   0.560   2.570 -1.0317  0.0807  2.2601
  350SOL    HW2 1399   1.970   0.618   2.645  4.0447 -1.6611 -1.0247
  350SOL     MW 1400   1.891   0.631   2.608  0.5843 -0.4350  0.1231
  351SOL     OW 1401   0.113   0.934   1.593 -0.5044 -0.2763 -0.4333
  351SOL    HW1 1402   0.039   0.974   1.640 -0.2085  1.5527  0.4407
  351SOL    HW2 1403   0.179   1.005   1.614 -1.5260  1.7007 -1.9311
  351SOL     MW 1404   0.112   0.949   1.602 -0.6001  0.2258 -0.5156
  352SOL     OW 1405   0.845   1.658   2.726  0.2181  0.5610 -0.4430
  352SOL    HW1 1406   0.867   1.601   2.805 -0.5110  1.8351 -0.6194
  352SOL    HW2 1407   0.809   1.601   2.655  0.9364 -0.6366 -0.8328
  352SOL     MW 1408   0.843   1.643   2.727  0.2167  0.5711 -0.5177
  353SOL     OW 1409   3.049   2.459   2.717  0.2864 -0.5603  0.7962
  353SOL    HW1 1410   3.142   2.468   2.693  0.0447  1.7683  3.1372
  353SOL    HW2 1411   3.013   2.524   2.656 -2.6498  3.2535  2.1689
  353SOL     MW 1412   3.057   2.469   2.706 -0.1329  0.2502  1.2862
  354SOL     OW 1413   0.376   2.470   0.853 -0.3696  0.1607 -0.1172
  354SOL    HW1 1414   0.373   2.445   0.950 -1.3632 -1.4109 -0.2232
  354SOL    HW2 1415   0.315   2.401   0.808 -1.3070  0.3218  1.8571
  354SOL     MW 1416   0.367   2.458   0.860 -0.6244 -0.0254  0.1293
  355SOL     OW 1417   0.026   2.211   0.391 -0.0844  0.2437 -0.6737
  355SOL    HW1 1418  -0.046   2.144   0.398 -0.5070  1.3649 -0.5810
  355SOL    HW2 1419   0.011   2.247   0.477  0.6244  0.4428 -3.6116
  355SOL     MW 1420   0.014   2.207   0.404 -0.0467  0.4179 -1.0491
  356SOL     OW 1421   0.878   2.884   1.066 -0.3685 -0.0880  0.0066
  356SOL    HW1 1422   0.907   2.870   0.970  0.2749  0.7928 -1.8792
  356SOL    HW2 1423   0.795   2.848   1.061 -0.6365  2.5323 -0.6451
  356SOL     MW 1424   0.871   2.877   1.053 -0.3190  0.3739 -0.3282
  357SOL     OW 1425   1.784   2.940   0.383  0.7359  0.1615  0.4243
  357SOL    HW1 1426   1.723   2.908   0.453 -0.1246  0.2886  0.6916
  357SOL    HW2 1427   1.845   2.881   0.353 -2.0934  0.8783  3.8619
  357SOL     MW 1428   1.784   2.928   0.388  0.2491  0.2729  0.9131
  358SOL     OW 1429   0.440   0.072   1.071  0.9541 -0.1826  0.0202
  358SOL    HW1 1430   0.536   0.074   1.072  1.9306 -3.0306 -1.7650
  358SOL    HW2 1431   0.412   0.122   0.995  1.2524 -0.5638 -0.5519
  358SOL     MW 1432   0.449   0.079   1.061  1.1223 -0.6087 -0.2908
  359SOL     OW 1433   0.897   2.843   1.830 -0.2678 -0.7484  0.3423
  359SOL    HW1 1434   0.892   2.746   1.856 -1.4135  0.0692 -0.3770
  359SOL    HW2 1435   0.972   2.848   1.771  2.9779 -0.6739 -0.9693
  359SOL     MW 1436   0.906   2.831   1.825  0.0092 -0.6307  0.0743
  360SOL     OW 1437   0.586   2.793   1.017 -0.1505  0.0890 -0.1843
  360SOL    HW1 1438   0.606   2.772   0.922  0.9269  0.3999  0.6130
  360SOL    HW2 1439   0.579   2.712   1.071 -1.0377  0.8997 -0.8120
  360SOL     MW 1440   0.588   2.780   1.012 -0.1254  0.2370 -0.1619
  361SOL     OW 1441   0.189   2.712   1.333 -0.4327  0.2492  0.2043
  361SOL    HW1 1442   0.152   2.788   1.380 -0.7731 -0.5788 -4.3102
  361SOL    HW2 1443   0.276   2.711   1.365 -1.3361  0.9067  2.1262
  361SOL     MW 1444   0.196   2.722   1.343 -0.5968  0.2267 -0.1378
  362SOL     OW 1445   1.446   2.441   0.658  0.3024  0.2522 -0.2326
  362SOL    HW1 1446   1.478   2.368   0.708 -2.0295  2.3372 -1.0167
  362SOL    HW2 1447   1.488   2.517   0.703  0.9746 -0.1589 -0.2832
  362SOL     MW 1448   1.456   2.442   0.671  0.0834  0.4731 -0.3427
  363SOL     OW 1449   0.304   3.070   0.684 -0.3687  0.6158  0.5230
  363SOL    HW1 1450   0.322   3.021   0.769  1.0814  0.5254 -1.5754
  363SOL    HW2 1451   0.208   3.086   0.673  0.7397 -2.5592 -0.4341
  363SOL     MW 1452   0.294   3.065   0.694 -0.0311  0.1849  0.1199
  364SOL     OW 1453   0.723   0.221   0.230 -0.9033  0.1866 -0.4417
  364SOL    HW1 1454   0.642   0.170   0.215  0.9893  1.1487  0.6063
  364SOL    HW2 1455   0.707   0.289   0.164 -0.2474 -0.3996 -0.0743
  364SOL     MW 1456   0.711   0.224   0.219 -0.5671  0.2362 -0.2550
  365SOL     OW 1457   0.950   1.959   1.099  0.6870 -0.0049  0.1293
  365SOL    HW1 1458   0.914   2.049   1.060 -0.7642  1.0227 -1.4569
  365SOL    HW2 1459   0.902   1.887   1.050 -1.3794 -1.4257 -1.4588
  365SOL     MW 1460   0.939   1.962   1.087  0.2229 -0.0568 -0.2896
  366SOL     OW 1461   2.866   2.616   1.069 -0.4016 -0.0987  0.8153
  366SOL    HW1 1462   2.947   2.642   1.118 -0.2759  0.0932 -0.1397
  366SOL    HW2 1463   2.902   2.628   0.980 -0.9915  0.8221 -1.3960
  366SOL     MW 1464   2.881   2.621   1.064 -0.4629  0.0481  0.3975
  367SOL     OW 1465   1.238   2.846   0.900 -0.0743  0.2971  0.2678
  367SOL    HW1 1466   1.165   2.913   0.893  2.0791  4.3795 -0.4169
  367SOL    HW2 1467   1.228   2.792   0.822 -0.6256  0.1309  0.5684
  367SOL     MW 1468   1.227   2.848   0.889  0.1371  0.8138  0.2171
  368SOL     OW 1469   1.673   0.438   0.668  0.0846 -0.0699 -0.3147
  368SOL    HW1 1470   1.744   0.380   0.685 -2.8975 -1.6598  0.8958
  368SOL    HW2 1471   1.708   0.526   0.697  2.2493  0.6179  1.9842
  368SOL     MW 1472   1.687   0.442   0.674 -0.0232 -0.1889  0.1483
  369SOL     OW 1473   0.171   2.453   1.671 -0.0795  0.2573 -0.0818
  369SOL    HW1 1474   0.240   2.445   1.736 -2.0986  0.8088 -0.1840
  369SOL    HW2 1475   0.134   2.540   1.686 -0.5977  0.7169  0.1558
  369SOL     MW 1476   0.176   2.463   1.681 -0.4143  0.3907 -0.0640
  370SOL     OW 1477   0.754   0.067   1.007 -0.3815  0.0620  0.1096
  370SOL    HW1 1478   0.811   0.138   1.030  1.6093 -3.3706 -0.5955
  370SOL    HW2 1479   0.778  -0.013   1.056  1.6638  0.7102 -2.4548
  370SOL     MW 1480   0.765   0.066   1.017  0.1510 -0.3054 -0.3217
  371SOL     OW 1481   1.333   2.998   1.513  0.0961 -0.1144  0.2516
  371SOL    HW1 1482   1.265   2.931   1.492 -0.6349 -0.1798  0.5631
  371SOL    HW2 1483   1.331   3.056   1.438 -2.3548 -1.8812 -0.5605
  371SOL     MW 1484   1.324   2.997   1.501 -0.3237 -0.3561  0.1855
  372SOL     OW 1485   0.778   2.318   0.477  0.0029  0.2296 -0.6434
  372SOL    HW1 1486   0.750   2.226   0.510 -2.3499  1.7890  1.4491
  372SOL    HW2 1487   0.822   2.323   0.387 -1.7634 -0.9687 -0.5245
  372SOL     MW 1488   0.780   2.307   0.469 -0.5406  0.2773 -0.3517
  373SOL     OW 1489   2.798   3.027   1.376 -0.0765 -0.1842  0.0920
  373SOL    HW1 1490   2.861   2.983   1.315  3.9579  0.1945  2.5482
  373SOL    HW2 1491   2.793   3.115   1.331 -0.2902 -1.3162  0.4703
  373SOL     MW 1492   2.806   3.033   1.362  0.4276 -0.2836  0.4660
  374SOL     OW 1493   1.541   0.510   0.215 -0.3241 -0.7423  0.3816
  374SOL    HW1 1494   1.635   0.509   0.204  2.0972 -1.9100  1.3776
  374SOL    HW2 1495   1.529   0.491   0.308  3.8417  0.4389  0.2349
  374SOL     MW 1496   1.552   0.507   0.226  0.5450 -0.7405  0.4937
  375SOL     OW 1497   1.110   2.096   2.283 -0.2297  0.2788  0.1537
  375SOL    HW1 1498   1.153   2.093   2.364 -0.9812 -1.6103 -1.5678
  375SOL    HW2 1499   1.126   2.011   2.244 -1.3649  0.8432 -0.3805
  375SOL     MW 1500   1.117   2.084   2.289 -0.4786  0.1040 -0.1439
  376SOL     OW 1501   0.676   2.515   0.061 -0.4007 -0.0225  0.3448
  376SOL    HW1 1502   0.656   2.476   0.146 -2.1578  1.6153  3.0249
  376SOL    HW2 1503   0.631   2.452  -0.005 -0.8145 -0.7706  0.4481
  376SOL     MW 1504   0.668   2.501   0.064 -0.6872  0.0949  0.7121
  377SOL     OW 1505   1.328   1.984   0.859  0.5887 -0.0659  0.1593
  377SOL    HW1 1506   1.257   1.990   0.796  0.4451 -0.6297  0.6829
  377SOL    HW2 1507   1.294   1.943   0.942 -0.0659 -1.5863 -1.4265
  377SOL     MW 1508   1.314   1.979   0.862  0.4834 -0.3409  0.0192
  378SOL     OW 1509   1.030   2.831   1.562 -0.1374  0.1870  0.6380
  378SOL    HW1 1510   1.004   2.737   1.562  1.4388 -0.4582 -3.3404
  378SOL    HW2 1511   0.972   2.867   1.494  0.4592 -0.8487  0.6006
  378SOL     MW 1512   1.019   2.823   1.553  0.1493 -0.0348  0.1081
  379SOL     OW 1513   1.133   1.766   2.291  0.0611 -0.5072  0.2592
  379SOL    HW1 1514   1.042   1.796   2.303 -0.8167 -1.0752  2.3598
  379SOL    HW2 1515   1.127   1.691   2.229  0.1190  0.5903 -3.7982
  379SOL     MW 1516   1.120   1.760   2.284 -0.0471 -0.4373  0.0010
  380SOL     OW 1517   0.831   0.072   1.572 -0.5301 -0.0288  0.4580
  380SOL    HW1 1518   0.878   0.055   1.486  2.4228 -0.2866 -1.1155
  380SOL    HW2 1519   0.903   0.121   1.619 -0.2555  0.0001  1.8264
  380SOL     MW 1520   0.847   0.076   1.567 -0.1042 -0.0590  0.4309
  381SOL     OW 1521   0.813   2.002   0.774 -0.0294  0.1945  0.1527
  381SOL    HW1 1522   0.908   2.015   0.757 -0.9230  0.4469 -2.1050
  381SOL    HW2 1523   0.800   2.068   0.843  2.2653  1.0987  2.3491
  381SOL     MW 1524   0.824   2.012   0.781  0.1554  0.3471  0.1446
  382SOL     OW 1525   0.676   0.095   0.722 -0.4933  0.3746 -0.1928
  382SOL    HW1 1526   0.698   0.136   0.810 -0.7185  0.5408  1.7459
  382SOL    HW2 1527   0.655   0.003   0.733  0.4138  0.7782 -0.4764
  382SOL     MW 1528   0.676   0.088   0.735 -0.4033  0.4498  0.0256
  383SOL     OW 1529   0.493   0.023   0.363  0.4566  0.1481  0.2090
  383SOL    HW1 1530   0.525  -0.043   0.306 -1.5097  0.0501 -2.2027
  383SOL    HW2 1531   0.442  -0.023   0.431  1.8471 -2.2305 -0.3724
  383SOL     MW 1532   0.490   0.008   0.364  0.3807 -0.1787 -0.1859
  384SOL     OW 1533   0.645   2.913   0.647  0.2417 -0.0353  0.2970
  384SOL    HW1 1534   0.641   2.822   0.694 -2.3006  0.0736 -0.0490
  384SOL    HW2 1535   0.568   2.919   0.594  1.1693  0.3972 -0.0862
  384SOL     MW 1536   0.634   2.902   0.646  0.0287  0.0361  0.2008
  385SOL     OW 1537   1.344   2.068   1.510  0.3027  0.3104  0.1437
  385SOL    HW1 1538   1.422   2.086   1.567  0.6391 -0.0512 -0.4495
  385SOL    HW2 1539   1.281   2.001   1.557  2.7154  0.4550  2.5924
  385SOL     MW 1540   1.346   2.062   1.524  0.6654  0.2818  0.3885
  386SOL     OW 1541   1.350   0.375   0.846 -0.5586  0.4983  0.3724
  386SOL    HW1 1542   1.287   0.322   0.797 -5.1970 -0.6818  0.8746
  386SOL    HW2 1543   1.323   0.378   0.939  0.0785  0.0627 -1.0683
  386SOL     MW 1544   1.338   0.369   0.852 -1.0865  0.2851  0.2485
  387SOL     OW 1545   0.857   2.216   1.435  0.6919 -0.1248 -0.0573
  387SOL    HW1 1546   0.930   2.250   1.381  0.7915 -0.0653  0.1154
  387SOL    HW2 1547   0.853   2.120   1.409  0.8917 -0.3049 -0.6535
  387SOL     MW 1548   0.866   2.207   1.425  0.7314 -0.1407 -0.1132
  388SOL     OW 1549   1.561   2.761   1.228 -0.3283 -0.1824 -0.3326
  388SOL    HW1 1550   1.483   2.729   1.185  0.1689 -2.0773 -0.5389
  388SOL    HW2 1551   1.625   2.688   1.210 -0.0371 -0.6301 -0.6404
  388SOL     MW 1552   1.560   2.747   1.220 -0.2243 -0.4915 -0.4005
  389SOL     OW 1553   0.357   3.086   3.048  0.3004 -0.3092  0.3747
  389SOL    HW1 1554   0.436   3.049   3.020 -1.6612 -1.9347 -0.9770
  389SOL    HW2 1555   0.317   3.126   2.977  0.4836 -0.3091 -2.1568
  389SOL     MW 1556   0.362   3.087   3.035  0.0657 -0.5237 -0.1377
  390SOL     OW 1557   1.300   0.078   0.651  0.0723  0.3044 -0.0256
  390SOL    HW1 1558   1.388   0.084   0.611  0.7459  0.7431  1.0994
  390SOL    HW2 1559   1.321   0.018   0.720  2.3825  4.4437  1.1109
  390SOL     MW 1560   1.315   0.071   0.655  0.4660  0.9084  0.2728
  391SOL     OW 1561   0.274   2.245   1.416  0.3236  0.5136 -0.5106
  391SOL    HW1 1562   0.215   2.178   1.455  0.5167 -0.6446  1.3588
  391SOL    HW2 1563   0.221   2.329   1.402  0.5415 -1.1174 -2.9955
  391SOL     MW 1564   0.259   2.247   1.419  0.3778  0.1456 -0.5918
  392SOL     OW 1565   2.070   2.123   0.386 -0.0975 -0.4169  0.3843
  392SOL    HW1 1566   2.162   2.105   0.402  0.2272  0.3254 -1.2704
  392SOL    HW2 1567   2.024   2.163   0.459  2.8666  3.1394 -2.7004
  392SOL     MW 1568   2.076   2.126   0.397  0.3364  0.1503 -0.2410
  393SOL     OW 1569   0.181   3.023   2.723  0.3778 -0.4839 -0.6311
  393SOL    HW1 1570   0.241   3.094   2.759  0.2927  1.9992 -1.0584
  393SOL    HW2 1571   0.087   3.058   2.722 -0.3780 -0.0916  2.4528
  393SOL     MW 1572   0.176   3.037   2.728  0.2668 -0.1045 -0.2806
  394SOL     OW 1573   0.880   1.704   1.506  0.6375  0.5128 -0.0265
  394SOL    HW1 1574   0.816   1.732   1.572 -1.1421  2.3063  0.1125
  394SOL    HW2 1575   0.899   1.780   1.443 -2.4354  1.5848 -1.7958
  394SOL     MW 1576   0.874   1.718   1.507 -0.0027  0.8909 -0.2416
  395SOL     OW 1577   0.991   2.827   2.647  0.4377 -0.9469 -0.1362
  395SOL    HW1 1578   1.038   2.900   2.694  2.1684  0.0282 -0.1351
  395SOL    HW2 1579   1.063   2.764   2.617  0.0402  0.3334 -1.4804
  395SOL     MW 1580   1.006   2.828   2.649  0.6136 -0.6493 -0.3134
  396SOL     OW 1581   0.877   1.872   2.382 -0.1820  0.2258  0.2070
  396SOL    HW1 1582   0.897   1.880   2.477  0.4130 -1.1391 -0.4542
  396SOL    HW2 1583   0.830   1.785   2.370  2.3706  1.2063  2.3091
  396SOL     MW 1584   0.873   1.861   2.393  0.2333  0.1751  0.3971
  397SOL     OW 1585   1.047   2.357   1.311 -0.4265 -0.3900 -0.1860
  397SOL    HW1 1586   1.080   2.394   1.227 -1.6876 -1.6250 -2.7120
  397SOL    HW2 1587   1.126   2.331   1.368 -1.4872  0.8303  3.9986
  397SOL     MW 1588   1.062   2.359   1.307 -0.7328 -0.3919  0.0329
  398SOL     OW 1589   0.615   2.665   0.775 -0.2928  0.3462 -0.2298
  398SOL    HW1 1590   0.542   2.618   0.821 -4.3121  0.4361  1.1849
  398SOL    HW2 1591   0.675   2.598   0.740 -1.2301 -0.9560 -0.1285
  398SOL     MW 1592   0.614   2.650   0.776 -0.9467  0.1862 -0.0298
  399SOL     OW 1593   0.267   2.080   0.459 -0.2026  0.1261  0.0945
  399SOL    HW1 1594   0.186   2.133   0.433 -0.7561  2.7649  1.3167
  399SOL    HW2 1595   0.333   2.080   0.384  0.5716 -2.9673  0.0923
  399SOL     MW 1596   0.265   2.087   0.446 -0.1735  0.0661  0.2555
  400SOL     OW 1597   0.564   1.798   0.168 -0.0427  0.5305  0.6199
  400SOL    HW1 1598   0.558   1.894   0.172 -0.4870  1.4577  1.8860
  400SOL    HW2 1599   0.554   1.767   0.251  0.0301  1.2023 -3.4446
  400SOL     MW 1600   0.562   1.806   0.180 -0.0917  0.7415  0.2506
  401SOL     OW 1601   0.918   2.085   0.137 -0.1390 -0.2066 -0.1575
  401SOL    HW1 1602   0.919   1.988   0.144  0.0376 -0.5246 -0.9443
  401SOL    HW2 1603   0.961   2.116   0.223  1.1839 -0.3618  2.2981
  401SOL     MW 1604   0.923   2.076   0.150  0.0589 -0.2690  0.0626
  402SOL     OW 1605   0.679   2.953   1.683  0.0810  0.2616  0.1284
  402SOL    HW1 1606   0.735   2.893   1.737  1.2376 -0.0595 -0.5327
  402SOL    HW2 1607   0.743   3.021   1.656  1.1288  3.9858  2.4533
  402SOL     MW 1608   0.695   2.954   1.687  0.3719  0.7106  0.3479
  403SOL     OW 1609   0.085   0.417   0.404  0.2747  0.0637 -0.2220
  403SOL    HW1 1610   0.161   0.460   0.443  0.3233  0.9977  0.9062
  403SOL    HW2 1611   0.124   0.368   0.336  0.5649  0.6718  2.7871
  403SOL     MW 1612   0.100   0.416   0.401  0.3194  0.2671  0.3239
  404SOL     OW 1613   0.935   2.830   0.807 -0.8981  0.2407 -0.4339
  404SOL    HW1 1614   0.995   2.784   0.753  1.3616  1.4641  0.5839
  404SOL    HW2 1615   0.915   2.904   0.747  0.9077  1.4478  0.2456
  404SOL     MW 1616   0.940   2.834   0.792 -0.3617  0.5614 -0.2099
  405SOL     OW 1617   0.498   2.368   1.513 -0.9942 -0.8035 -0.4294
  405SOL    HW1 1618   0.477   2.459   1.492  0.5862  0.1199 -0.8801
  405SOL    HW2 1619   0.420   2.312   1.487  2.3450  1.9079  1.8466
  405SOL     MW 1620   0.485   2.373   1.507 -0.3451 -0.3239 -0.1885
  406SOL     OW 1621   0.342   2.396   1.096 -0.1571  0.4723  0.5074
  406SOL    HW1 1622   0.242   2.388   1.079 -1.8516  0.2874 -0.1502
  406SOL    HW2 1623   0.373   2.310   1.120  0.7139  0.7873 -2.1472
  406SOL     MW 1624   0.333   2.383   1.097 -0.2657  0.4895  0.0704
  407SOL     OW 1625   0.023   2.752   1.129 -0.2446 -0.3956 -0.0198
  407SOL    HW1 1626   0.099   2.769   1.181  1.8256  1.1368  0.9031
  407SOL    HW2 1627   0.053   2.705   1.051 -1.8004 -0.0144  3.2612
  407SOL     MW 1628   0.037   2.748   1.126 -0.1768 -0.1431  0.5348
  408SOL     OW 1629   2.077   2.051   0.721 -0.0297  0.1096  0.4629
  408SOL    HW1 1630   2.029   2.094   0.788  1.0777 -2.1004  1.1718
  408SOL    HW2 1631   2.009   2.000   0.670 -2.6813 -1.9839  1.6434
  408SOL     MW 1632   2.062   2.050   0.723 -0.2335 -0.4582  0.7122
  409SOL     OW 1633   1.371   0.005   0.924 -0.3670  0.5209  0.4592
  409SOL    HW1 1634   1.376   0.099   0.905 -0.0292  0.0794  0.4969
  409SOL    HW2 1635   1.448  -0.022   0.976  0.1865  1.9334  2.8149
  409SOL     MW 1636   1.382   0.014   0.929 -0.2494  0.6490  0.7750
  410SOL     OW 1637   1.120   2.418   1.069  0.2009  0.6241  0.2602
  410SOL    HW1 1638   1.050   2.410   1.000  0.8525 -1.1001 -1.7568
  410SOL    HW2 1639   1.181   2.354   1.040  0.3367  2.1636 -1.2373
  410SOL     MW 1640   1.119   2.409   1.056  0.3048  0.5997 -0.2035
  411SOL     OW 1641   1.962   0.030   2.864 -0.1887 -0.1199 -0.0892
  411SOL    HW1 1642   1.900   0.001   2.797  0.1984  0.3783  1.2454
  411SOL    HW2 1643   1.911   0.059   2.945 -0.4769  1.5546  1.0479
  411SOL     MW 1644   1.947   0.030   2.866 -0.1757  0.1668  0.2369
  412SOL     OW 1645   1.023   2.244   0.597 -0.9028  0.2141  0.0292
  412SOL    HW1 1646   1.089   2.319   0.624 -1.3002  2.0322 -1.7760
  412SOL    HW2 1647   0.949   2.301   0.568 -0.1769  2.3780 -1.4008
  412SOL     MW 1648   1.022   2.262   0.597 -0.8594  0.7395 -0.3976
  413SOL     OW 1649   0.558   2.745   0.025 -0.1792 -0.2033 -0.4644
  413SOL    HW1 1650   0.611   2.660   0.030 -1.1390 -1.0556 -0.3261
  413SOL    HW2 1651   0.588   2.776  -0.064  0.9969 -2.1765  3.3056
  413SOL     MW 1652   0.569   2.738   0.014 -0.1506 -0.5761  0.0513
  414SOL     OW 1653   1.901   2.994   1.079  0.7099  0.3652 -0.2447
  414SOL    HW1 1654   1.868   2.982   0.985  0.7015  0.8195 -0.4078
  414SOL    HW2 1655   1.969   2.930   1.088 -2.5843 -2.7491 -0.9231
  414SOL     MW 1656   1.906   2.984   1.068  0.2741  0.0143 -0.3557
  415SOL     OW 1657   1.725   2.573   1.127 -0.1152 -0.4686  0.0365
  415SOL    HW1 1658   1.714   2.499   1.186 -1.3697  1.6716 -1.4555
  415SOL    HW2 1659   1.806   2.613   1.165  0.4729  2.8893 -1.4953
  415SOL     MW 1660   1.734   2.569   1.140 -0.2031  0.2568 -0.3625
  416SOL     OW 1661   0.566   1.945   1.378 -0.7626  0.1217 -0.2631
  416SOL    HW1 1662   0.504   1.995   1.329  0.4975 -1.5004 -0.9947
  416SOL    HW2 1663   0.550   1.849   1.365 -0.5563  2.0369  1.6048
  416SOL     MW 1664   0.555   1.939   1.370 -0.5691  0.1604 -0.1132
  417SOL     OW 1665   0.955   3.005   2.037  0.0919  0.2456  0.7013
  417SOL    HW1 1666   0.881   2.999   2.097 -2.0070  0.3747  0.7122
  417SOL    HW2 1667   0.925   2.949   1.962  1.3576 -0.3565 -2.4016
  417SOL     MW 1668   0.941   2.997   2.035 -0.0181  0.1832  0.2933
  418SOL     OW 1669   0.604   2.951   0.176  0.3383 -0.5797 -0.1501
  418SOL    HW1 1670   0.674   2.985   0.112 -1.2842  0.4225 -0.8125
  418SOL    HW2 1671   0.574   2.872   0.121  1.0841  0.3468  2.5699
  418SOL     MW 1672   0.609   2.945   0.160  0.2226 -0.3252  0.1214
  419SOL     OW 1673   0.460   2.632   1.405  0.1285 -0.2960 -0.1355
  419SOL    HW1 1674   0.518   2.710   1.408 -1.2985  1.9432  1.6432
  419SOL    HW2 1675   0.508   2.587   1.335  0.3439 -3.6242  0.0630
  419SOL     MW 1676   0.474   2.636   1.396 -0.0313 -0.4397  0.1254
  420SOL     OW 1677   0.822   2.164   1.004  0.2981  0.0963  0.2887
  420SOL    HW1 1678   0.779   2.188   1.088 -0.0591  0.7150 -3.0719
  420SOL    HW2 1679   0.838   2.245   0.961 -0.6873 -1.0833  2.0858
  420SOL     MW 1680   0.818   2.178   1.010  0.1209  0.0223  0.0824
  421SOL     OW 1681   2.939   0.081   0.030  0.0701  0.3150 -0.5935
  421SOL    HW1 1682   2.904   0.050  -0.054 -0.2461 -0.7540 -1.0694
  421SOL    HW2 1683   2.967  -0.007   0.064 -0.9638 -1.6520  0.7932
  421SOL     MW 1684   2.938   0.065   0.023 -0.1080 -0.0856 -0.4733
  422SOL     OW 1685   0.888   2.420   0.919  0.3318  0.2533 -0.4207
  422SOL    HW1 1686   0.831   2.483   0.962  1.8666  1.9827 -1.2580
  422SOL    HW2 1687   0.894   2.445   0.831  0.8717  1.0839  1.1548
  422SOL     MW 1688   0.881   2.431   0.913  0.6055  0.5911 -0.3233
  423SOL     OW 1689   1.522   0.163   0.501 -0.0991  0.3548  0.2241
  423SOL    HW1 1690   1.526   0.136   0.410 -1.4706 -2.1925  2.2171
  423SOL    HW2 1691   1.481   0.249   0.511  2.3227 -1.1699 -3.2402
  423SOL     MW 1692   1.517   0.171   0.490  0.0395 -0.1825  0.0300
  424SOL     OW 1693   0.674   2.239   1.201  0.3845  0.2429 -0.8723
  424SOL    HW1 1694   0.595   2.194   1.230  0.4979 -1.9234  3.3365
  424SOL    HW2 1695   0.714   2.271   1.282  3.1870  0.6471  0.3778
  424SOL     MW 1696   0.669   2.237   1.216  0.7692  0.0104 -0.1521
  425SOL     OW 1697   1.711   2.849   1.952 -0.0406  0.4106  0.6173
  425SOL    HW1 1698   1.744   2.869   1.858  3.4977 -0.0992 -1.8889
  425SOL    HW2 1699   1.746   2.759   1.973  2.1782  0.4926  0.9284
  425SOL     MW 1700   1.720   2.840   1.942  0.7190  0.3542  0.3277
  426SOL     OW 1701   0.817   1.676   1.926  0.4853  0.7315  0.2184
  426SOL    HW1 1702   0.778   1.710   1.844 -0.3064  0.5396  0.4029
  426SOL    HW2 1703   0.782   1.728   1.999  2.3154 -1.7656 -1.6382
  426SOL     MW 1704   0.807   1.687   1.925  0.6223  0.3767 -0.0022
  427SOL     OW 1705   0.344   1.534   1.903 -0.2825  0.0603  0.1538
  427SOL    HW1 1706   0.415   1.475   1.901 -1.2464  1.8001  1.3730
  427SOL    HW2 1707   0.301   1.512   1.987  0.3765  1.0496 -2.1266
  427SOL     MW 1708   0.348   1.523   1.914 -0.3227  0.4204  0.0138
  428SOL     OW 1709   0.575   2.544   1.167  0.1638  0.3895  0.2591
  428SOL    HW1 1710   0.645   2.496   1.213 -1.0628 -0.6768  0.9364
  428SOL    HW2 1711   0.510   2.475   1.155  0.5329 -0.0309 -0.5081
  428SOL     MW 1712   0.575   2.528   1.172  0.0507  0.1933  0.2472
  429SOL     OW 1713   1.309   2.624   1.066  0.3673 -0.1831  0.2683
  429SOL    HW1 1714   1.234   2.564   1.065 -1.2452 -0.6012 -2.4764
  429SOL    HW2 1715   1.276   2.714   1.040  0.0779  1.4719 -0.2548
  429SOL     MW 1716   1.295   2.628   1.062  0.1164 -0.0199 -0.1629
  430SOL     OW 1717   1.161   2.709   0.665  0.4082  0.1136 -0.1543
  430SOL    HW1 1718   1.160   2.612   0.681 -0.5000 -0.3982 -1.3645
  430SOL    HW2 1719   1.097   2.722   0.598  0.8731 -2.0975 -0.2398
  430SOL     MW 1720   1.152   2.698   0.658  0.3497 -0.2457 -0.3252
  431SOL     OW 1721   0.287   1.887   1.127 -1.2551 -0.0149 -0.2490
  431SOL    HW1 1722   0.355   1.812   1.135  0.7305  1.7192  0.4944
  431SOL    HW2 1723   0.302   1.938   1.046 -0.8163  1.4191  1.8453
  431SOL     MW 1724   0.298   1.884   1.117 -0.9352  0.4031  0.1254
  432SOL     OW 1725   0.013   0.075   1.137 -0.0458 -0.7945 -0.3395
  432SOL    HW1 1726   0.034   0.101   1.232 -1.6021  2.2457  0.8833
  432SOL    HW2 1727  -0.072   0.031   1.144  2.4614 -2.5600 -2.5730
  432SOL     MW 1728   0.004   0.073   1.151  0.0796 -0.6263 -0.4728
  433SOL     OW 1729   0.619   2.848   1.417  0.5651 -0.1474 -0.1994
  433SOL    HW1 1730   0.622   2.897   1.504 -1.3160 -0.3066 -0.8069
  433SOL    HW2 1731   0.704   2.861   1.373  0.4274  1.1176 -0.4990
  433SOL     MW 1732   0.630   2.856   1.422  0.2987 -0.0015 -0.3191
  434SOL     OW 1733   1.585   2.844   1.487 -0.0099  0.5010 -0.4358
  434SOL    HW1 1734   1.494   2.881   1.488  0.8652  1.0576  0.2404
  434SOL    HW2 1735   1.588   2.836   1.394 -1.6208  0.7702 -2.3689
  434SOL     MW 1736   1.574   2.848   1.475 -0.1070  0.6100 -0.6016
  435SOL     OW 1737   2.821   1.786   0.182 -0.2018  0.6877  0.2155
  435SOL    HW1 1738   2.867   1.857   0.139 -0.4214  0.3567 -0.1207
  435SOL    HW2 1739   2.796   1.724   0.107 -2.2603 -0.3729 -0.8872
  435SOL     MW 1740   2.824   1.787   0.166 -0.5024  0.5041  0.0257
  436SOL     OW 1741   1.281   2.750   0.302 -0.6570  0.4707  0.3416
  436SOL    HW1 1742   1.342   2.723   0.369 -0.5916  0.6834 -0.3784
  436SOL    HW2 1743   1.251   2.836   0.334 -0.8124  3.1361 -1.4586
  436SOL     MW 1744   1.285   2.758   0.315 -0.6689  0.8504  0.0091
  437SOL     OW 1745   0.877   2.897   1.352 -0.4395  0.1026  0.1590
  437SOL    HW1 1746   0.888   2.976   1.299 -1.3817  0.3021  0.4819
  437SOL    HW2 1747   0.924   2.828   1.301  2.6124  0.4186  1.1319
  437SOL     MW 1748   0.884   2.899   1.339 -0.1611  0.1706  0.3300
  438SOL     OW 1749   0.890   2.612   1.957 -0.1663 -0.5737  0.7397
  438SOL    HW1 1750   0.863   2.566   2.032  0.7586 -0.2550  0.4120
  438SOL    HW2 1751   0.861   2.545   1.894 -0.0975 -0.7296  1.1604
  438SOL     MW 1752   0.883   2.597   1.959 -0.0352 -0.5522  0.7520
  439SOL     OW 1753   1.095   2.123   0.357 -0.1743  0.1665  0.0201
  439SOL    HW1 1754   1.036   2.130   0.429  0.1480 -1.0371 -1.8170
  439SOL    HW2 1755   1.122   2.210   0.325 -1.7306  1.5165 -0.0054
  439SOL     MW 1756   1.091   2.135   0.362 -0.3371  0.1858 -0.2257
  440SOL     OW 1757   1.649   2.903   3.042  0.4853  0.4275 -0.2325
  440SOL    HW1 1758   1.599   2.867   3.111  0.9571 -0.9471  0.9652
  440SOL    HW2 1759   1.712   2.833   3.015  1.5418  0.0948  0.9265
  440SOL     MW 1760   1.651   2.889   3.048  0.6869  0.2023  0.0784
  441SOL     OW 1761   0.347   2.615   0.525  0.2080  0.2184 -0.1030
  441SOL    HW1 1762   0.307   2.595   0.437 -0.1758  1.7103 -0.2428
  441SOL    HW2 1763   0.370   2.708   0.520  1.1813  2.9022 -0.0368
  441SOL     MW 1764   0.345   2.625   0.513  0.2858  0.7693 -0.1127
  442SOL     OW 1765   3.050   2.349   0.627 -0.0698  0.4456  0.4709
  442SOL    HW1 1766   3.069   2.443   0.602 -1.2025 -0.5127 -1.1833
  442SOL    HW2 1767   2.973   2.361   0.683 -0.0578  0.4256  0.1386
  442SOL     MW 1768   3.042   2.363   0.631 -0.2177  0.3166  0.2088
  443SOL     OW 1769   1.363   1.767   1.851 -0.8372 -0.3884  0.0168
  443SOL    HW1 1770   1.318   1.784   1.763 -3.5230 -2.7039  0.9861
  443SOL    HW2 1771   1.333   1.680   1.864  0.0852 -1.6326  1.8248
  443SOL     MW 1772   1.353   1.758   1.841 -1.0698 -0.8580  0.3832
  444SOL     OW 1773   0.919   2.573   1.545  0.1253 -0.1877 -0.1015
  444SOL    HW1 1774   0.976   2.510   1.590  2.2337  0.4755  3.4862
  444SOL    HW2 1775   0.852   2.599   1.610 -0.3916 -1.0233 -1.5574
  444SOL     MW 1776   0.918   2.568   1.559  0.3353 -0.2104  0.1798
  445SOL     OW 1777   0.945   0.057   1.263  0.5996 -0.6208 -0.4751
  445SOL    HW1 1778   0.909   0.145   1.255 -0.1524  1.5334 -2.6325
  445SOL    HW2 1779   1.002   0.048   1.185 -0.9681 -3.2164 -0.6748
  445SOL     MW 1780   0.948   0.067   1.251  0.2935 -0.6791 -0.7861
  446SOL     OW 1781   2.690   2.840   1.093  0.5776  0.4918  0.5595
  446SOL    HW1 1782   2.665   2.882   1.007  1.0726 -0.9524 -1.9893
  446SOL    HW2 1783   2.741   2.758   1.073 -2.3124 -1.5247  3.1217
  446SOL     MW 1784   2.694   2.835   1.079  0.2616  0.0352  0.5613
  447SOL     OW 1785   3.022   2.064   1.658  0.0794  0.0876 -0.7739
  447SOL    HW1 1786   3.075   1.996   1.701 -0.3456  0.1746 -0.6732
  447SOL    HW2 1787   2.963   2.006   1.613 -0.9165  1.4052  2.0102
  447SOL     MW 1788   3.021   2.048   1.658 -0.1081  0.2730 -0.3933
  448SOL     OW 1789   1.678   2.360   1.674 -0.0425 -0.5680 -0.3647
  448SOL    HW1 1790   1.616   2.283   1.679  0.8287 -0.6885  0.0123
  448SOL    HW2 1791   1.629   2.445   1.657 -0.7452 -4.9018  0.0781
  448SOL     MW 1792   1.663   2.361   1.673 -0.0202 -1.1557 -0.2565
  449SOL     OW 1793   0.769   2.874   0.384 -0.0694 -0.9513 -0.3208
  449SOL    HW1 1794   0.718   2.892   0.304  0.2940  0.7820  0.3555
  449SOL    HW2 1795   0.724   2.915   0.457 -0.4632 -0.6061 -4.1225
  449SOL     MW 1796   0.756   2.882   0.383 -0.0734 -0.6770 -0.7332
  450SOL     OW 1797   1.188   2.434   0.702 -0.0649  0.2562 -0.1415
  450SOL    HW1 1798   1.202   2.386   0.786  1.4127  0.0671 -1.9200
  450SOL    HW2 1799   1.279   2.435   0.656 -0.3348  0.3128  0.3169
  450SOL     MW 1800   1.202   2.428   0.707  0.0944  0.2387 -0.3157
  451SOL     OW 1801   0.603   2.017   1.631  0.4770  0.2005  0.1848
  451SOL    HW1 1802   0.654   2.096   1.642  1.5914  2.6843 -2.0078
  451SOL    HW2 1803   0.602   1.997   1.536  0.9294  1.2620 -0.5687
  451SOL     MW 1804   0.610   2.025   1.620  0.6837  0.6682 -0.2039
  452SOL     OW 1805   0.277   2.749   0.056  0.1351  0.2830 -0.1791
  452SOL    HW1 1806   0.364   2.731   0.030 -0.8298 -2.0853  2.9331
  452SOL    HW2 1807   0.221   2.771  -0.025 -2.0353  0.2883 -0.0431
  452SOL     MW 1808   0.281   2.750   0.042 -0.2786 -0.0288  0.2495
  453SOL     OW 1809   0.393   3.019   1.720 -0.4194  0.7482 -0.0615
  453SOL    HW1 1810   0.491   3.001   1.720  1.0653 -1.5329 -0.3003
  453SOL    HW2 1811   0.368   3.031   1.626 -1.1980 -1.7772 -0.7719
  453SOL     MW 1812   0.403   3.018   1.708 -0.3263  0.1140 -0.1868
  454SOL     OW 1813   1.025   2.694   1.223 -0.2674 -0.2834 -0.3533
  454SOL    HW1 1814   0.983   2.609   1.228 -1.3317 -0.9451 -0.1873
  454SOL    HW2 1815   0.994   2.728   1.140 -2.1139 -0.3283 -0.7938
  454SOL     MW 1816   1.015   2.687   1.213 -0.6514 -0.3766 -0.3895
  455SOL     OW 1817   1.520   2.928   0.195 -0.2313  0.3757 -0.2159
  455SOL    HW1 1818   1.591   2.917   0.258  1.9929 -0.1951 -0.2101
  455SOL    HW2 1819   1.453   2.862   0.225 -1.1512 -1.3895 -0.6525
  455SOL     MW 1820   1.521   2.917   0.208 -0.0592  0.0675 -0.2727
  456SOL     OW 1821   2.890   0.358   1.322  0.4276 -0.2357 -0.2784
  456SOL    HW1 1822   2.850   0.277   1.278 -0.2027 -0.4551 -1.7648
  456SOL    HW2 1823   2.966   0.395   1.276 -0.4643  1.9078  1.1106
  456SOL     MW 1824   2.894   0.352   1.310  0.2267  0.0182 -0.2912
  457SOL     OW 1825   0.929   1.568   3.001  0.2464 -0.5750 -0.0095
  457SOL    HW1 1826   0.839   1.566   3.032  0.2648 -2.2674 -2.2160
  457SOL    HW2 1827   0.978   1.493   3.039 -2.5331  1.8764  2.4433
  457SOL     MW 1828   0.924   1.558   3.010 -0.1179 -0.4748  0.0230
  458SOL     OW 1829   1.460   1.406   0.580 -0.3517 -0.5430 -0.9543
  458SOL    HW1 1830   1.394   1.431   0.648 -1.0101  1.0378 -0.9070
  458SOL    HW2 1831   1.421   1.340   0.520  0.1109  2.2760  0.4334
  458SOL     MW 1832   1.446   1.401   0.581 -0.3775  0.0375 -0.7650
  459SOL     OW 1833   1.561   0.111   0.227 -0.2279 -0.1775 -0.3618
  459SOL    HW1 1834   1.532   0.019   0.216  2.4799 -2.7674  0.9053
  459SOL    HW2 1835   1.490   0.158   0.178  0.6310  0.4109 -0.1215
  459SOL     MW 1836   1.548   0.105   0.219  0.2427 -0.4416 -0.1629
  460SOL     OW 1837   1.796   2.141   0.664 -0.2770 -0.4095  0.6160
  460SOL    HW1 1838   1.706   2.123   0.692  2.7043  2.7130 -0.9791
  460SOL    HW2 1839   1.806   2.090   0.583 -0.0365  0.9505 -1.6065
  460SOL     MW 1840   1.786   2.132   0.657  0.1481  0.1819  0.1123
  461SOL     OW 1841   0.500   2.425   0.621 -0.3624 -0.2270 -0.0711
  461SOL    HW1 1842   0.461   2.504   0.578  1.1386  0.0748  0.5214
  461SOL    HW2 1843   0.454   2.433   0.709  3.3974 -1.8863  1.6690
  461SOL     MW 1844   0.489   2.436   0.627  0.3317 -0.4061  0.2366
  462SOL     OW 1845   0.320   0.244   1.280 -0.1493  0.0382  0.4265
  462SOL    HW1 1846   0.345   0.168   1.208  0.8101 -2.3487 -1.1301
  462SOL    HW2 1847   0.405   0.275   1.309 -1.8886 -2.4805 -0.9912
  462SOL     MW 1848   0.335   0.238   1.274 -0.2522 -0.6090  0.0341
  463SOL     OW 1849   0.929   3.085   0.680 -0.8082 -0.2671  0.1524
  463SOL    HW1 1850   0.958   3.115   0.593  1.0701 -0.9250 -0.6217
  463SOL    HW2 1851   0.841   3.112   0.687  1.9332  0.1542 -0.1275
  463SOL     MW 1852   0.921   3.093   0.669 -0.1986 -0.2983  0.0133
  464SOL     OW 1853   0.772   3.043   2.234  0.1266  0.5440  0.0633
  464SOL    HW1 1854   0.745   2.943   2.248  1.3638 -3.8690  2.9788
  464SOL    HW2 1855   0.839   3.061   2.300  3.0479  2.3863  1.6967
  464SOL     MW 1856   0.778   3.032   2.245  0.6753  0.2048  0.6635
  465SOL     OW 1857   0.661   0.305   0.502 -0.4482  0.0839 -0.2403
  465SOL    HW1 1858   0.667   0.232   0.567  2.4950 -1.9470 -2.0047
  465SOL    HW2 1859   0.682   0.269   0.413 -1.8324 -0.2644 -2.3733
  465SOL     MW 1860   0.665   0.291   0.499 -0.2425 -0.2300 -0.7545
  466SOL     OW 1861   1.077   2.020   0.748 -0.2034 -0.1661  0.1162
  466SOL    HW1 1862   1.083   1.949   0.685  2.4960 -0.8755  1.0090
  466SOL    HW2 1863   1.069   2.106   0.701  1.0133  1.3786  0.2194
  466SOL     MW 1864   1.076   2.022   0.733  0.3133 -0.0559  0.2476
  467SOL     OW 1865   1.267   2.252   0.881 -0.1083 -0.1437 -0.2086
  467SOL    HW1 1866   1.358   2.278   0.911 -0.9550  1.7715  0.1653
  467SOL    HW2 1867   1.255   2.158   0.878  2.7168 -1.1497 -0.6644
  467SOL     MW 1868   1.277   2.243   0.884  0.1527 -0.0237 -0.2194
  468SOL     OW 1869   0.360   2.586   2.001  0.1024 -0.1228 -0.3942
  468SOL    HW1 1870   0.397   2.514   1.945 -0.2596 -0.3881  1.2149
  468SOL    HW2 1871   0.378   2.669   1.949 -3.0782  0.2864 -0.3908
  468SOL     MW 1872   0.367   2.588   1.987 -0.3650 -0.1038 -0.1814
  469SOL     OW 1873   0.380   2.132   1.773 -0.3155  0.1178 -0.0765
  469SOL    HW1 1874   0.301   2.073   1.778 -0.0068  1.7332 -0.9066
  469SOL    HW2 1875   0.453   2.081   1.741  0.2505 -0.4901  0.3681
  469SOL     MW 1876   0.380   2.118   1.769 -0.2001  0.2507 -0.1273
  470SOL     OW 1877   3.060   2.613   0.121 -0.2011 -0.6789 -0.9090
  470SOL    HW1 1878   2.982   2.575   0.159 -1.3424  0.8010 -3.9556
  470SOL    HW2 1879   3.046   2.613   0.026  0.2469  1.7102 -2.0170
  470SOL     MW 1880   3.048   2.608   0.114 -0.2926 -0.1684 -1.4571
  471SOL     OW 1881   1.231   2.722   1.393  0.5411  0.2542  0.4418
  471SOL    HW1 1882   1.164   2.765   1.446 -0.3659  1.1655  0.4043
  471SOL    HW2 1883   1.187   2.700   1.311  0.6425 -0.4764 -1.0820
  471SOL     MW 1884   1.216   2.725   1.389  0.4348  0.2781  0.2358
  472SOL     OW 1885   2.902   2.058   0.379  0.3941 -0.1032  0.0040
  472SOL    HW1 1886   2.919   2.047   0.278  0.5339  2.1025  0.6925
  472SOL    HW2 1887   2.883   1.965   0.393  1.1068 -1.0990  0.0740
  472SOL     MW 1888   2.901   2.044   0.368  0.5066  0.0564  0.1041
  473SOL     OW 1889   0.789   2.473   1.321  0.3042 -0.2742  0.9038
  473SOL    HW1 1890   0.873   2.427   1.345 -0.4656 -3.1803 -0.5262
  473SOL    HW2 1891   0.787   2.525   1.395  1.1531 -1.9230 -2.7248
  473SOL     MW 1892   0.800   2.474   1.334  0.3146 -0.8752  0.2364
  474SOL     OW 1893   0.771   2.271   1.693 -0.1824 -0.2172 -0.4589
  474SOL    HW1 1894   0.844   2.289   1.750 -1.0937  0.3447  0.9386
  474SOL    HW2 1895   0.799   2.278   1.607 -1.5577  3.0148  1.5806
  474SOL     MW 1896   0.785   2.274   1.689 -0.4841  0.2834 -0.0054
  475SOL     OW 1897   1.617   0.054   1.478  0.1923 -0.4679  0.4626
  475SOL    HW1 1898   1.532   0.075   1.434 -0.9359  2.8274 -1.9042
  475SOL    HW2 1899   1.623  -0.041   1.481 -0.1202 -1.5507  2.0602
  475SOL     MW 1900   1.607   0.045   1.473  0.0022 -0.1760  0.3611
  476SOL     OW 1901   1.498   2.626   0.863  0.0113 -0.3552  0.1470
  476SOL    HW1 1902   1.417   2.621   0.925 -2.8121  2.2661  0.3138
  476SOL    HW2 1903   1.523   2.719   0.844 -0.7105  1.2745 -1.5671
  476SOL     MW 1904   1.491   2.637   0.869 -0.4565  0.2057 -0.0571
  477SOL     OW 1905   0.815   2.508   0.669 -0.4191  0.0098  0.1466
  477SOL    HW1 1906   0.856   2.571   0.609  0.0810  1.7900 -2.2883
  477SOL    HW2 1907   0.780   2.430   0.624  0.1858 -0.6879 -0.0760
  477SOL     MW 1908   0.816   2.506   0.655 -0.2733  0.1526 -0.2040
  478SOL     OW 1909   0.171   2.655   0.893 -0.3135  0.5236  0.2383
  478SOL    HW1 1910   0.225   2.732   0.909  1.2879  1.5502 -2.1755
  478SOL    HW2 1911   0.244   2.602   0.889 -2.0523 -0.1301 -2.8519
  478SOL     MW 1912   0.188   2.658   0.895 -0.3316  0.5728 -0.4879
  479SOL     OW 1913   1.425   1.914   1.292 -0.2234 -0.1331 -0.2394
  479SOL    HW1 1914   1.396   1.963   1.368 -0.3474 -0.1378 -0.2407
  479SOL    HW2 1915   1.502   1.868   1.320 -2.6092 -1.3416 -3.0400
  479SOL     MW 1916   1.431   1.914   1.306 -0.5546 -0.2932 -0.6091
  480SOL     OW 1917   1.846   2.394   1.382  0.0733  0.3582 -0.1288
  480SOL    HW1 1918   1.857   2.302   1.414 -1.0093  0.3618 -0.1495
  480SOL    HW2 1919   1.873   2.386   1.294  0.6085  1.9959 -0.1348
  480SOL     MW 1920   1.851   2.381   1.375  0.0011  0.5747 -0.1323
  481SOL     OW 1921   1.176   0.077   1.109 -0.1237 -0.8280  0.4131
  481SOL    HW1 1922   1.236   0.035   1.052  0.0708  1.7759  0.1403
  481SOL    HW2 1923   1.187   0.170   1.084 -0.1882  0.5378 -1.4390
  481SOL     MW 1924   1.185   0.084   1.098 -0.1065 -0.3043  0.1327
  482SOL     OW 1925   0.966   0.013   0.404 -0.0401 -0.0667  0.0264
  482SOL    HW1 1926   0.902  -0.039   0.356 -1.1912 -1.1084 -0.6850
  482SOL    HW2 1927   0.939   0.102   0.395  0.2080 -0.3064  1.1676
  482SOL     MW 1928   0.954   0.018   0.396 -0.1593 -0.2357  0.0831
  483SOL     OW 1929   0.395   2.887   0.505 -0.6944  0.2538 -0.4116
  483SOL    HW1 1930   0.305   2.889   0.462 -1.1148  1.2662 -0.9600
  483SOL    HW2 1931   0.368   2.952   0.579 -1.1774  0.8215  0.0706
  483SOL     MW 1932   0.379   2.896   0.509 -0.8136  0.4623 -0.4203
  484SOL     OW 1933   1.678   1.870   1.403 -0.2132 -0.3862 -0.6457
  484SOL    HW1 1934   1.704   1.949   1.359  0.6368  0.2701  0.1565
  484SOL    HW2 1935   1.691   1.888   1.495 -0.9752 -1.6996 -1.5274
  484SOL     MW 1936   1.683   1.883   1.410 -0.2016 -0.4729 -0.6562
  485SOL     OW 1937   0.559   2.363   0.281 -0.1640  0.6874 -0.5500
  485SOL    HW1 1938   0.615   2.351   0.357  1.4371 -0.9243  2.3967
  485SOL    HW2 1939   0.476   2.416   0.283  0.9196  5.1591 -1.1942
  485SOL     MW 1940   0.555   2.368   0.291  0.1902  1.0648 -0.2462
  486SOL     OW 1941   0.112   2.465   1.393  0.6819  0.2864 -0.0540
  486SOL    HW1 1942   0.144   2.552   1.365  1.1028 -2.5119  1.2622
  486SOL    HW2 1943   0.135   2.455   1.483  0.3712 -3.6015 -0.5612
  486SOL     MW 1944   0.119   2.475   1.401  0.6965 -0.5957  0.0528
  487SOL     OW 1945   1.268   1.602   1.084  0.0870 -0.0367  0.7534
  487SOL    HW1 1946   1.246   1.699   1.071 -1.9077  0.7192  0.7917
  487SOL    HW2 1947   1.358   1.596   1.043  2.3278  2.1224 -1.8818
  487SOL     MW 1948   1.277   1.614   1.077  0.1195  0.3479  0.4108
  488SOL     OW 1949   1.593   1.858   0.576  1.1522  0.1446 -0.0689
  488SOL    HW1 1950   1.671   1.900   0.540 -1.1260  1.6526 -0.3889
  488SOL    HW2 1951   1.520   1.912   0.549 -1.2977 -2.4162 -0.5618
  488SOL     MW 1952   1.594   1.871   0.568  0.5284  0.0056 -0.1761
  489SOL     OW 1953   0.771   0.803   0.501 -0.0155  0.2424  0.6400
  489SOL    HW1 1954   0.807   0.720   0.465 -0.7820 -0.6663  0.0964
  489SOL    HW2 1955   0.777   0.799   0.596 -0.7808  0.5795  1.2047
  489SOL     MW 1956   0.776   0.792   0.509 -0.2176  0.1670  0.6428
  490SOL     OW 1957   1.408   2.109   0.429 -0.0837  0.0520  0.0116
  490SOL    HW1 1958   1.468   2.184   0.400  1.8903  1.7018  1.5087
  490SOL    HW2 1959   1.325   2.148   0.427  0.1147 -0.8695 -0.9106
  490SOL     MW 1960   1.405   2.124   0.425  0.2029  0.1481  0.0874
  491SOL     OW 1961   1.193   2.977   0.424 -0.2527  0.3999  0.4670
  491SOL    HW1 1962   1.221   3.020   0.502 -0.6835  0.0034 -0.6384
  491SOL    HW2 1963   1.111   3.009   0.396 -0.9829 -1.6914 -0.3555
  491SOL     MW 1964   1.186   2.987   0.431 -0.4059  0.0717  0.2127
  492SOL     OW 1965   1.516   2.135   0.703  1.0139  0.0555  0.6877
  492SOL    HW1 1966   1.456   2.144   0.624  1.6967 -1.4335 -2.3439
  492SOL    HW2 1967   1.464   2.077   0.762  0.6328 -0.8129  1.1379
  492SOL     MW 1968   1.501   2.129   0.700  1.0537 -0.2556  0.3471
  493SOL     OW 1969   0.147   2.916   0.412 -0.5221 -0.5129  0.4952
  493SOL    HW1 1970   0.104   2.988   0.458  0.3588 -0.6009 -0.9753
  493SOL    HW2 1971   0.156   2.951   0.321 -1.2461 -1.5161 -0.9704
  493SOL     MW 1972   0.143   2.930   0.406 -0.5014 -0.6569  0.1078
  494SOL     OW 1973   0.444   2.412   1.785 -0.0307  0.1302 -0.3502
  494SOL    HW1 1974   0.446   2.312   1.801  1.2728 -0.5928 -0.6180
  494SOL    HW2 1975   0.457   2.401   1.693  0.2958 -1.7204  2.2406
  494SOL     MW 1976   0.446   2.397   1.775  0.1844 -0.2093 -0.0437
  495SOL     OW 1977   2.913   1.648   2.715 -0.4804  0.3484 -0.1017
  495SOL    HW1 1978   2.894   1.727   2.766 -2.5768  0.4948 -0.3033
  495SOL    HW2 1979   2.905   1.586   2.786  1.4194  2.1303  1.7547
  495SOL     MW 1980   2.909   1.650   2.731 -0.5063  0.6028  0.1166
  496SOL     OW 1981   2.840   2.302   2.644  0.7813  0.4009 -0.2275
  496SOL    HW1 1982   2.858   2.232   2.708  0.2911  1.6724  2.9948
  496SOL    HW2 1983   2.924   2.346   2.637  1.9212 -0.0060 -0.2394
  496SOL     MW 1984   2.853   2.298   2.652  0.8670  0.5150  0.1961
  497SOL     OW 1985   1.495   2.303   2.497 -0.0449  0.0277  0.5394
  497SOL    HW1 1986   1.479   2.261   2.413 -0.4230 -0.1056  1.2777
  497SOL    HW2 1987   1.488   2.233   2.565  1.7104  0.5453 -2.0362
  497SOL     MW 1988   1.492   2.288   2.495  0.1368  0.0784  0.2970
  498SOL     OW 1989   1.598   2.740   2.239  0.0221 -0.4140  0.5545
  498SOL    HW1 1990   1.632   2.659   2.190  0.5378 -0.9150  0.8053
  498SOL    HW2 1991   1.639   2.728   2.325 -1.5582  1.8512 -1.4420
  498SOL     MW 1992   1.608   2.728   2.244 -0.1183 -0.1812  0.3242
  499SOL     OW 1993   0.928   0.147   0.003  0.0250 -0.0267 -0.2383
  499SOL    HW1 1994   0.871   0.205   0.056 -1.0991 -0.8593 -0.3464
  499SOL    HW2 1995   0.904   0.060   0.017  0.4156  1.8618  0.0387
  499SOL     MW 1996   0.917   0.143   0.012 -0.0718  0.1126 -0.2160
  500SOL     OW 1997   1.022   2.443   2.787 -0.6880 -0.1569 -0.2966
  500SOL    HW1 1998   1.062   2.419   2.870 -1.3740 -0.3965 -0.7574
  500SOL    HW2 1999   1.004   2.535   2.795  2.2320  0.2853  1.1054
  500SOL     MW 2000   1.025   2.452   2.799 -0.3932 -0.1302 -0.1724
  501SOL     OW 2001   1.737   2.223   3.070  0.3014  0.3476 -0.1897
  501SOL    HW1 2002   1.708   2.313   3.076  1.4076 -0.4376  0.8148
  501SOL    HW2 2003   1.829   2.229   3.097  0.6446 -2.5454 -1.3762
  501SOL     MW 2004   1.746   2.236   3.074  0.4926 -0.1377 -0.2137
  502SOL     OW 2005   0.125   2.790   2.927 -0.5180  0.2194  0.2500
  502SOL    HW1 2006   0.033   2.762   2.916 -1.0023 -0.9637 -0.9785
  502SOL    HW2 2007   0.148   2.855   2.859  1.5136  1.4769 -1.1872
  502SOL     MW 2008   0.116   2.795   2.917 -0.3139  0.2292 -0.1017
  503SOL     OW 2009   1.147   2.613   2.074 -0.4434  0.1045 -0.3642
  503SOL    HW1 2010   1.214   2.608   1.997 -1.1166  1.3975 -1.0796
  503SOL    HW2 2011   1.062   2.601   2.032  1.1382  0.1356 -3.0063
  503SOL     MW 2012   1.145   2.611   2.058 -0.3235  0.2792 -0.8072
  504SOL     OW 2013   0.088   2.648   2.060  0.0549  0.0588 -0.2665
  504SOL    HW1 2014   0.172   2.607   2.041  1.4506  0.7253 -0.2914
  504SOL    HW2 2015   0.039   2.579   2.107  1.5781 -1.6715 -1.8486
  504SOL     MW 2016   0.092   2.633   2.064  0.4400 -0.0815 -0.4785
  505SOL     OW 2017   1.638   2.680   2.732  0.0094  0.0669 -0.2843
  505SOL    HW1 2018   1.684   2.697   2.644  1.0728  0.4634  0.0014
  505SOL    HW2 2019   1.580   2.757   2.749 -0.7793 -0.8366 -1.0949
  505SOL     MW 2020   1.636   2.692   2.722  0.0456  0.0000 -0.3535
  506SOL     OW 2021   1.603   0.038   2.845  0.6458  0.0308  0.1246
  506SOL    HW1 2022   1.644   0.028   2.936  1.9314  0.9680  1.3811
  506SOL    HW2 2023   1.655  -0.015   2.781  1.3320 -2.5480 -0.2784
  506SOL     MW 2024   1.616   0.030   2.849  0.9060 -0.1858  0.2372
  507SOL     OW 2025   0.874   2.688   2.855  0.2034 -0.0229  0.3750
  507SOL    HW1 2026   0.899   2.740   2.780  1.8085 -1.1597  0.9559
  507SOL    HW2 2027   0.782   2.663   2.836  0.8490  2.1022 -2.6448
  507SOL     MW 2028   0.865   2.692   2.842  0.5004  0.1075  0.0532
  508SOL     OW 2029   1.252   2.118   2.528 -0.1187  0.3142  0.0188
  508SOL    HW1 2030   1.297   2.109   2.615  1.4862 -1.0378  0.9443
  508SOL    HW2 2031   1.186   2.176   2.556  1.7341 -2.3939 -0.1577
  508SOL     MW 2032   1.249   2.124   2.543  0.3375 -0.2215  0.1176
  509SOL     OW 2033   0.615   2.623   2.804  0.5620  0.0672 -0.5305
  509SOL    HW1 2034   0.612   2.573   2.727 -2.3623  0.9204  2.2235
  509SOL    HW2 2035   0.586   2.711   2.771  2.0287  2.4628  1.1263
  509SOL     MW 2036   0.611   2.628   2.789  0.3697  0.4958  0.0515
  510SOL     OW 2037   1.559   2.604   1.661  0.4877  0.2518 -0.3613
  510SOL    HW1 2038   1.552   2.702   1.640  0.5500 -2.1844 -1.3982
  510SOL    HW2 2039   1.495   2.582   1.737  0.3327  0.2001  3.6692
  510SOL     MW 2040   1.550   2.614   1.668  0.4755 -0.0765  0.0336
  511SOL     OW 2041   0.362   2.599   2.543  0.8194  0.5788 -0.2997
  511SOL    HW1 2042   0.450   2.584   2.575 -1.3647 -0.9180 -1.3701
  511SOL    HW2 2043   0.375   2.593   2.445  1.3514 -0.7849 -0.6087
  511SOL     MW 2044   0.376   2.596   2.534  0.6014  0.2013 -0.4817
  512SOL     OW 2045   1.015   2.029   2.888  0.0624  0.2074  0.1097
  512SOL    HW1 2046   0.941   2.081   2.922 -2.0654  1.3171 -1.8205
  512SOL    HW2 2047   1.032   1.975   2.965 -2.5181  1.0055  1.4038
  512SOL     MW 2048   1.008   2.029   2.902 -0.5588  0.4591  0.0258
  513SOL     OW 2049   1.700   2.460   2.203 -0.1084 -0.3642  0.3886
  513SOL    HW1 2050   1.786   2.512   2.181  2.0688  2.9278  0.6931
  513SOL    HW2 2051   1.716   2.448   2.300  0.0762 -1.2387  1.5042
  513SOL     MW 2052   1.714   2.465   2.213  0.2032 -0.0452  0.5760
  514SOL     OW 2053   0.229   2.383   2.659  0.5098  0.3610  0.3778
  514SOL    HW1 2054   0.273   2.470   2.631 -0.2949  1.5351 -1.6881
  514SOL    HW2 2055   0.264   2.348   2.741  1.6430 -0.5284  1.1471
  514SOL     MW 2056   0.239   2.390   2.666  0.5531  0.3986  0.2067
  515SOL     OW 2057   1.071   2.029   1.917  0.0465  1.0529  0.4694
  515SOL    HW1 2058   1.012   2.105   1.938 -1.5048  3.0811  0.1759
  515SOL    HW2 2059   1.145   2.033   1.973 -0.3395  0.4177 -2.5506
  515SOL     MW 2060   1.073   2.039   1.927 -0.2091  1.2367  0.0322
  516SOL     OW 2061   1.407   2.513   2.956  0.4432 -0.0549  0.2418
  516SOL    HW1 2062   1.415   2.493   2.861  0.4130  0.0330  0.0392
  516SOL    HW2 2063   1.326   2.479   2.987  0.4199 -2.3469 -1.5610
  516SOL     MW 2064   1.398   2.506   2.947  0.4361 -0.3457 -0.0228
  517SOL     OW 2065   0.609   2.385   2.267 -0.1998  0.7985  0.3569
  517SOL    HW1 2066   0.569   2.473   2.245 -1.8206  0.1889  0.9759
  517SOL    HW2 2067   0.553   2.324   2.208 -2.2630 -0.7791 -3.7272
  517SOL     MW 2068   0.596   2.389   2.256 -0.6858  0.5099 -0.1003
  518SOL     OW 2069   1.825   0.031   3.095  0.7455  0.3094  0.2635
  518SOL    HW1 2070   1.801   0.105   3.157  1.7639  2.9271  0.3443
  518SOL    HW2 2071   1.774  -0.048   3.117 -1.1757 -2.1800 -3.1464
  518SOL     MW 2072   1.815   0.030   3.106  0.6264  0.3263 -0.1758
  519SOL     OW 2073   0.711   2.540   1.731 -0.2965 -0.1688  0.1059
  519SOL    HW1 2074   0.701   2.446   1.698  2.2959 -2.2473 -2.1532
  519SOL    HW2 2075   0.626   2.580   1.739  0.9543 -0.5809 -2.0364
  519SOL     MW 2076   0.698   2.533   1.728  0.2106 -0.4974 -0.4748
  520SOL     OW 2077   1.209   2.196   2.952 -0.0237 -0.3552  0.1232
  520SOL    HW1 2078   1.149   2.131   2.901 -1.4655 -0.0872  0.2883
  520SOL    HW2 2079   1.240   2.144   3.034 -1.8199  0.1655  2.1011
  520SOL     MW 2080   1.205   2.181   2.956 -0.4509 -0.2511  0.4059
  521SOL     OW 2081   1.767   2.056   2.244 -0.2098 -0.4081 -0.2512
  521SOL    HW1 2082   1.797   2.056   2.151  1.4376  1.6727 -1.3291
  521SOL    HW2 2083   1.737   1.963   2.244  1.6926 -1.5360  0.5056
  521SOL     MW 2084   1.767   2.044   2.232  0.2586 -0.2824 -0.2936
  522SOL     OW 2085   2.906   2.521   2.269 -0.0125 -0.0688 -0.0146
  522SOL    HW1 2086   2.980   2.460   2.268  2.6976 -1.6150  0.1819
  522SOL    HW2 2087   2.935   2.609   2.280 -0.7407 -2.5989 -0.6190
  522SOL     MW 2088   2.920   2.525   2.270  0.2490 -0.6066 -0.0684
  523SOL     OW 2089   0.903   1.516   2.143 -0.1817 -0.1348  0.0693
  523SOL    HW1 2090   0.893   1.565   2.055  1.8513  0.6015 -0.1873
  523SOL    HW2 2091   0.886   1.422   2.129  1.5376 -0.3492 -1.5563
  523SOL     MW 2092   0.900   1.510   2.129  0.3134 -0.0659 -0.1791
  524SOL     OW 2093   0.604   2.388   2.938 -0.2531  0.4232 -0.1120
  524SOL    HW1 2094   0.620   2.470   2.889 -0.5560  1.0857 -0.9038
  524SOL    HW2 2095   0.683   2.336   2.948  0.1910 -3.1056  0.4526
  524SOL     MW 2096   0.617   2.392   2.933 -0.2345  0.0451 -0.1420
  525SOL     OW 2097   0.465   2.191   2.131 -0.0454  0.0025  0.3662
  525SOL    HW1 2098   0.433   2.104   2.174 -2.7279 -1.3566  1.2375
  525SOL    HW2 2099   0.538   2.160   2.073 -1.0075  0.8059 -0.0269
  525SOL     MW 2100   0.470   2.175   2.129 -0.5263 -0.0708  0.4293
  526SOL     OW 2101   0.691   2.133   1.988  0.0689 -0.3615  0.0085
  526SOL    HW1 2102   0.707   2.176   1.897 -0.4150 -1.0913  1.7251
  526SOL    HW2 2103   0.747   2.190   2.044 -1.4177 -4.2906  0.5292
  526SOL     MW 2104   0.701   2.146   1.983 -0.1911 -0.9762  0.3036
  527SOL     OW 2105   1.312   1.920   2.068  0.4418  0.5281  0.4506
  527SOL    HW1 2106   1.308   1.866   2.146  1.0721  1.9684 -1.3248
  527SOL    HW2 2107   1.315   1.856   2.001  0.0814 -0.2401  1.6563
  527SOL     MW 2108   1.312   1.904   2.069  0.4774  0.6168  0.3755
  528SOL     OW 2109   0.668   2.933   2.926  0.5527 -0.4011 -0.1495
  528SOL    HW1 2110   0.653   3.030   2.928  0.3371 -0.5465 -0.4847
  528SOL    HW2 2111   0.663   2.907   2.828  1.4871  0.3495 -1.5634
  528SOL     MW 2112   0.665   2.943   2.914  0.6476 -0.3213 -0.3802
  529SOL     OW 2113   0.937   2.316   1.895 -0.1082  0.5840  0.4423
  529SOL    HW1 2114   0.965   2.307   1.983 -2.0148  2.7875 -0.4064
  529SOL    HW2 2115   1.019   2.345   1.844 -0.6151 -0.0859 -2.1588
  529SOL     MW 2116   0.952   2.319   1.900 -0.4266  0.7863 -0.0128
  530SOL     OW 2117   1.135   2.452   3.051 -0.1319  0.1167  0.6902
  530SOL    HW1 2118   1.045   2.464   3.068 -1.2727 -0.8258  0.1957
  530SOL    HW2 2119   1.165   2.362   3.026  2.0213  2.3585  0.3581
  530SOL     MW 2120   1.127   2.442   3.050  0.0017  0.2881  0.5812
  531SOL     OW 2121   0.952   1.906   2.650  0.7341 -0.1650 -0.1613
  531SOL    HW1 2122   0.968   1.939   2.741  2.5729 -0.8155 -0.9126
  531SOL    HW2 2123   0.922   1.814   2.678 -1.1540 -1.2925  2.6941
  531SOL     MW 2124   0.950   1.898   2.666  0.7276 -0.3996  0.1163
  532SOL     OW 2125   1.700   0.279   2.833  0.0646  0.0093  0.4014
  532SOL    HW1 2126   1.678   0.189   2.848  0.6038  2.3625  0.3385
  532SOL    HW2 2127   1.798   0.296   2.860  0.9971  0.0148  0.4714
  532SOL     MW 2128   1.710   0.269   2.838  0.2587  0.3205  0.4024
  533SOL     OW 2129   1.806   2.645   2.989  0.1449 -0.3053 -0.1038
  533SOL    HW1 2130   1.738   2.601   3.043  1.5579 -2.3725  0.2628
  533SOL    HW2 2131   1.761   2.671   2.906 -1.2544  2.9364 -1.3862
  533SOL     MW 2132   1.791   2.643   2.985  0.1467 -0.1503 -0.2247
  534SOL     OW 2133   1.755   2.402   2.465  0.8174 -0.1243 -0.4149
  534SOL    HW1 2134   1.676   2.348   2.470 -0.6471 -0.3609  0.0662
  534SOL    HW2 2135   1.826   2.389   2.536 -2.6169 -0.2044  0.1651
  534SOL     MW 2136   1.754   2.393   2.475  0.1711 -0.1661 -0.2749
  535SOL     OW 2137   1.829   2.330   1.938 -0.2484 -0.3113  0.8556
  535SOL    HW1 2138   1.757   2.353   1.882  1.0574 -1.2518  0.3700
  535SOL    HW2 2139   1.916   2.353   1.897  1.5183  0.9589  0.8924
  535SOL     MW 2140   1.831   2.336   1.925  0.1570 -0.2678  0.7964
  536SOL     OW 2141   0.467   1.815   2.017  0.5568  0.6396  0.3980
  536SOL    HW1 2142   0.475   1.803   1.926 -2.6775  0.0849  1.0242
  536SOL    HW2 2143   0.553   1.850   2.044 -0.0017 -0.3668 -2.4950
  536SOL     MW 2144   0.480   1.818   2.009  0.0564  0.4336  0.0989
  537SOL     OW 2145   1.108   0.178   2.893  0.4086 -0.2004 -0.0480
  537SOL    HW1 2146   1.043   0.169   2.960  0.0327 -1.8378 -0.2353
  537SOL    HW2 2147   1.112   0.271   2.880  1.9358  2.6924 -0.5926
  537SOL     MW 2148   1.100   0.189   2.900  0.5605 -0.0347 -0.1445
  538SOL     OW 2149   1.327   0.029   2.974  0.3114  0.7749 -0.1373
  538SOL    HW1 2150   1.246   0.083   2.965 -0.4620  1.0819 -0.9839
  538SOL    HW2 2151   1.391   0.082   2.930  0.7939  1.8123 -0.4590
  538SOL     MW 2152   1.325   0.043   2.967  0.2730  0.9523 -0.2914
  539SOL     OW 2153   0.777   2.744   2.503 -0.1822  0.3610  0.0973
  539SOL    HW1 2154   0.850   2.784   2.550 -0.1844 -0.7954  0.7229
  539SOL    HW2 2155   0.801   2.653   2.505  1.5615 -1.0483  0.8544
  539SOL     MW 2156   0.790   2.737   2.509  0.0476  0.0225  0.2798
  540SOL     OW 2157   0.345   2.254   2.899  0.1057  0.3819  0.0852
  540SOL    HW1 2158   0.437   2.282   2.894 -0.4166  0.4640  1.8623
  540SOL    HW2 2159   0.333   2.231   2.990  1.9797 -1.9792 -1.6851
  540SOL     MW 2160   0.355   2.255   2.911  0.2841  0.0812  0.0861
  541SOL     OW 2161   0.144   2.907   2.203 -0.1450  0.1406  0.3483
  541SOL    HW1 2162   0.139   2.826   2.151  0.0423  0.2489  1.3870
  541SOL    HW2 2163   0.184   2.874   2.290  0.4208  0.7955  0.7651
  541SOL     MW 2164   0.148   2.892   2.208 -0.0456  0.2413  0.5403
  542SOL     OW 2165   0.997   2.243   2.614  0.6813  0.5406 -0.8532
  542SOL    HW1 2166   0.964   2.159   2.651  2.4315  2.2054 -2.1543
  542SOL    HW2 2167   1.014   2.303   2.689  1.6563  1.8832  0.2697
  542SOL     MW 2168   0.995   2.240   2.628  1.0409  0.9374 -0.8767
  543SOL     OW 2169   1.426   2.511   2.681 -0.4859  0.2471  0.2737
  543SOL    HW1 2170   1.446   2.443   2.614  0.1982 -2.5801 -2.0251
  543SOL    HW2 2171   1.507   2.565   2.683  0.9176  0.9174  0.0685
  543SOL     MW 2172   1.440   2.509   2.672 -0.2104 -0.0375 -0.0567
  544SOL     OW 2173   0.572   0.226   2.711  0.1328  0.3271 -0.7082
  544SOL    HW1 2174   0.477   0.212   2.753  2.4950 -0.5143  2.0442
  544SOL    HW2 2175   0.571   0.184   2.627 -1.5182 -0.1874  0.2174
  544SOL     MW 2176   0.559   0.219   2.705  0.2266  0.1482 -0.2229
  545SOL     OW 2177   1.507   2.164   2.258  0.0763  0.0973  0.2583
  545SOL    HW1 2178   1.481   2.189   2.170  0.9316 -1.7516 -0.2129
  545SOL    HW2 2179   1.607   2.152   2.248  1.1013 -0.1343 -1.5566
  545SOL     MW 2180   1.516   2.166   2.245  0.3244 -0.1772 -0.0434
  546SOL     OW 2181   2.966   2.030   0.121 -0.6017  0.2902  0.1663
  546SOL    HW1 2182   2.981   2.118   0.079  1.9552  1.9335 -1.5628
  546SOL    HW2 2183   3.055   1.992   0.111  1.6210  4.2087  2.8818
  546SOL     MW 2184   2.980   2.037   0.114  0.0289  1.0240  0.2964
  547SOL     OW 2185   0.211   3.000   0.153  0.7513 -0.1900 -1.0514
  547SOL    HW1 2186   0.245   3.056   0.089 -0.0653 -2.0923  0.5313
  547SOL    HW2 2187   0.253   2.914   0.127  3.0024 -1.2058 -1.6803
  547SOL     MW 2188   0.221   2.996   0.141  0.9406 -0.5750 -0.9256
  548SOL     OW 2189   0.310   2.535   0.267  0.0558 -0.0338 -0.5959
  548SOL    HW1 2190   0.315   2.598   0.198 -3.2778  0.1182  1.4978
  548SOL    HW2 2191   0.238   2.483   0.237  2.0540  1.3990  1.1706
  548SOL     MW 2192   0.301   2.537   0.254 -0.1204  0.1753 -0.0866
  549SOL     OW 2193   0.715   1.879   2.076  0.1451 -0.1999  0.0260
  549SOL    HW1 2194   0.728   1.961   2.031 -0.1076 -2.7009 -0.6312
  549SOL    HW2 2195   0.744   1.904   2.166  3.5423  2.1097 -0.1803
  549SOL     MW 2196   0.720   1.893   2.082  0.5599 -0.2252 -0.0879
  550SOL     OW 2197   1.830   1.759   2.524 -0.3158 -0.1197 -0.6389
  550SOL    HW1 2198   1.811   1.764   2.429  1.0222  1.9099  0.9326
  550SOL    HW2 2199   1.839   1.842   2.564 -1.8640 -3.7579 -0.2518
  550SOL     MW 2200   1.829   1.770   2.517 -0.3435 -0.3320 -0.3805
  551SOL     OW 2201   0.864   2.346   0.200 -0.0560  0.1900  0.5312
  551SOL    HW1 2202   0.953   2.367   0.191 -0.4821  0.4048 -0.5901
  551SOL    HW2 2203   0.855   2.275   0.135  1.3307  1.5350  0.0526
  551SOL     MW 2204   0.875   2.340   0.190  0.0708  0.3958  0.3201
  552SOL     OW 2205   1.738   1.760   2.243 -0.1310  0.3490 -0.2022
  552SOL    HW1 2206   1.641   1.741   2.253 -0.5273  0.1370  0.2613
  552SOL    HW2 2207   1.763   1.709   2.156  0.8272 -2.4737 -5.0324
  552SOL     MW 2208   1.728   1.751   2.233 -0.0569 -0.0514 -0.7783
  553SOL     OW 2209   1.239   2.323   1.499 -0.5175  0.1860 -0.1602
  553SOL    HW1 2210   1.276   2.232   1.499  0.7670 -0.4460 -0.4102
  553SOL    HW2 2211   1.310   2.384   1.468  3.4501 -1.5068 -0.2165
  553SOL     MW 2212   1.254   2.319   1.495  0.1754 -0.1207 -0.2006
  554SOL     OW 2213   0.584   2.867   2.676 -0.4084  0.4222  0.2226
  554SOL    HW1 2214   0.519   2.930   2.635  0.5358 -1.2852  0.2366
  554SOL    HW2 2215   0.654   2.865   2.608 -2.0966  1.1699 -1.3196
  554SOL     MW 2216   0.585   2.875   2.661 -0.5066  0.2956  0.0210
  555SOL     OW 2217   0.601   2.474   2.584  0.4762  0.2408 -0.2075
  555SOL    HW1 2218   0.555   2.386   2.573 -4.0517 -1.9140  1.8213
  555SOL    HW2 2219   0.685   2.466   2.528  4.9155 -0.2878 -1.2875
  555SOL     MW 2220   0.606   2.461   2.575  0.4645 -0.1133 -0.0824
  556SOL     OW 2221   0.932   1.792   0.169 -0.1384 -0.3059  0.2119
  556SOL    HW1 2222   0.946   1.741   0.087  0.1369 -1.5830 -0.4587
  556SOL    HW2 2223   1.026   1.816   0.183  1.3001 -0.5478  0.4707
  556SOL     MW 2224   0.946   1.788   0.160  0.0877 -0.5063  0.1576
  557SOL     OW 2225   0.926   2.702   0.505  0.8815  0.6021  0.0503
  557SOL    HW1 2226   0.957   2.655   0.428 -0.6693 -1.2374  0.3457
  557SOL    HW2 2227   0.859   2.758   0.465 -1.4599  2.4949 -2.4707
  557SOL     MW 2228   0.921   2.703   0.489  0.3680  0.6091 -0.2434
  558SOL     OW 2229   0.253   2.184   0.052 -0.0394 -0.7722 -0.0968
  558SOL    HW1 2230   0.195   2.111   0.048 -2.5043  0.7521  0.9498
  558SOL    HW2 2231   0.238   2.245   0.123  2.1131 -0.8113  0.7636
  558SOL     MW 2232   0.243   2.183   0.061 -0.0806 -0.5763  0.1548
  559SOL     OW 2233   1.132   2.299   2.103 -0.5335 -0.1090 -0.4649
  559SOL    HW1 2234   1.178   2.369   2.152 -0.6720  1.3357  2.0701
  559SOL    HW2 2235   1.132   2.226   2.170  1.7057 -1.2248  2.8888
  559SOL     MW 2236   1.138   2.299   2.119 -0.2563 -0.0656  0.3121
  560SOL     OW 2237   1.924   2.826   0.047 -0.1750  0.9305 -0.0569
  560SOL    HW1 2238   2.000   2.875   0.010  0.5506  2.2098 -2.9514
  560SOL    HW2 2239   1.900   2.777  -0.032  1.3088  0.0154 -0.0029
  560SOL     MW 2240   1.931   2.826   0.031  0.1165  0.9785 -0.4317
  561SOL     OW 2241   0.451   2.113   0.235  0.1830  0.6611 -0.2312
  561SOL    HW1 2242   0.392   2.147   0.165 -0.7484 -1.4250 -0.6584
  561SOL    HW2 2243   0.509   2.194   0.261 -1.7789 -2.8559 -1.7375
  561SOL     MW 2244   0.451   2.128   0.229 -0.1988 -0.0782 -0.4863
  562SOL     OW 2245   0.849   2.191   2.218  0.7263 -0.4540  0.0489
  562SOL    HW1 2246   0.840   2.277   2.257  0.8554  0.8674  1.4656
  562SOL    HW2 2247   0.929   2.156   2.264  0.9882 -0.2615  2.1150
  562SOL     MW 2248   0.858   2.198   2.229  0.7779 -0.2543  0.5084
  563SOL     OW 2249   1.150   0.319   0.613 -0.4645  0.0103  0.3971
  563SOL    HW1 2250   1.109   0.311   0.527 -2.1456 -0.8711  1.3698
  563SOL    HW2 2251   1.190   0.234   0.618 -0.6991  0.5422 -0.3428
  563SOL     MW 2252   1.150   0.307   0.602 -0.7173 -0.0358  0.4278
  564SOL     OW 2253   1.093   2.534   2.336 -0.2644 -0.0377 -0.0784
  564SOL    HW1 2254   1.127   2.572   2.248 -0.6514  0.6160 -0.8421
  564SOL    HW2 2255   1.144   2.588   2.402  0.5992 -1.3140 -0.1870
  564SOL     MW 2256   1.105   2.546   2.333 -0.2015 -0.1199 -0.1935
  565SOL     OW 2257   2.878   2.663   2.585  0.0393  0.3588  0.1943
  565SOL    HW1 2258   2.924   2.753   2.576 -2.6822  1.1301 -2.6575
  565SOL    HW2 2259   2.802   2.665   2.530  0.0218  2.2759  0.6360
  565SOL     MW 2260   2.874   2.675   2.577 -0.3221  0.7135 -0.1237
  566SOL     OW 2261   2.175   1.858   2.415 -0.4374 -0.7364  0.4959
  566SOL    HW1 2262   2.145   1.824   2.330  1.1697  0.2485 -0.8600
  566SOL    HW2 2263   2.237   1.931   2.389 -1.0167 -0.7924  1.6058
  566SOL     MW 2264   2.179   1.863   2.400 -0.3018 -0.6138  0.4634
  567SOL     OW 2265   1.136   2.952   3.060  0.0418  0.3754 -0.6897
  567SOL    HW1 2266   1.201   3.014   3.043  0.2592 -2.0666  1.9373
  567SOL    HW2 2267   1.164   2.889   2.992  0.7558 -0.6833 -0.0787
  567SOL     MW 2268   1.148   2.952   3.049  0.1647 -0.0865 -0.2625
  568SOL     OW 2269   1.589   2.027   2.929 -0.7096  0.5235  0.0757
  568SOL    HW1 2270   1.623   2.100   2.978 -0.5194 -1.4000  0.0064
  568SOL    HW2 2271   1.655   1.993   2.865  1.6097 -2.3788 -0.4336
  568SOL     MW 2272   1.602   2.032   2.927 -0.3785 -0.1132 -0.0006
  569SOL     OW 2273   0.217   2.231   2.442 -0.0434  0.3573  0.0270
  569SOL    HW1 2274   0.156   2.262   2.366 -1.8242  1.6001  1.6170
  569SOL    HW2 2275   0.208   2.292   2.519  0.0751 -0.6199  0.7650
  569SOL     MW 2276   0.207   2.243   2.442 -0.2627  0.3924  0.3341
  570SOL     OW 2277   1.485   0.428   0.479  0.0313 -0.2834 -0.3703
  570SOL    HW1 2278   1.432   0.498   0.511  1.1363  1.2533 -2.3655
  570SOL    HW2 2279   1.547   0.419   0.558  0.7659 -1.7836  0.7766
  570SOL     MW 2280   1.486   0.436   0.494  0.2740 -0.2786 -0.4823
  571SOL     OW 2281   1.493   2.423   2.001  0.1079 -0.3056  0.1053
  571SOL    HW1 2282   1.559   2.414   2.069  0.3464 -2.4375  1.1377
  571SOL    HW2 2283   1.468   2.338   1.976 -0.4887  2.7112 -0.8473
  571SOL     MW 2284   1.499   2.411   2.007  0.0607 -0.1888  0.1159
  572SOL     OW 2285   0.935   2.647   0.051  0.4038 -0.5911 -0.7970
  572SOL    HW1 2286   0.926   2.705  -0.024 -0.5769 -1.9923  0.0488
  572SOL    HW2 2287   0.850   2.604   0.061 -0.1887 -1.3424 -1.1535
  572SOL     MW 2288   0.922   2.649   0.042  0.1962 -0.8751 -0.7324
  573SOL     OW 2289   1.159   2.367   0.258  0.6231 -0.4608 -0.1067
  573SOL    HW1 2290   1.236   2.380   0.198 -1.6087 -1.5019  0.6039
  573SOL    HW2 2291   1.131   2.457   0.280 -1.9165  2.1316  0.5704
  573SOL     MW 2292   1.165   2.381   0.253 -0.0064 -0.2561  0.0764
  574SOL     OW 2293   1.047   2.614   0.290 -0.1676  0.4120 -0.0964
  574SOL    HW1 2294   1.137   2.659   0.296  1.2682  0.6847 -1.2493
  574SOL    HW2 2295   1.019   2.637   0.201  0.3967 -1.7669 -0.4256
  574SOL     MW 2296   1.055   2.623   0.279  0.0963  0.1605 -0.2919
  575SOL     OW 2297   3.076   2.312   1.796  0.3952  0.5465  0.0468
  575SOL    HW1 2298   3.049   2.240   1.737 -0.1214 -0.0200 -2.0928
  575SOL    HW2 2299   3.141   2.363   1.747 -2.1695  0.6573 -1.3376
  575SOL     MW 2300   3.081   2.309   1.782 -0.0113  0.4864 -0.4182
  576SOL     OW 2301   2.829   1.811   2.020  0.7595 -0.5673  0.3360
  576SOL    HW1 2302   2.880   1.880   1.974  3.2038 -0.6792 -1.0619
  576SOL    HW2 2303   2.738   1.811   1.985 -0.1031 -3.3268  0.5168
  576SOL     MW 2304   2.824   1.820   2.009  0.9682 -0.9461  0.1754
  577SOL     OW 2305   2.129   0.302   0.078  0.4527 -0.0692 -0.5339
  577SOL    HW1 2306   2.071   0.327   0.008  2.6187 -0.3447 -0.8371
  577SOL    HW2 2307   2.073   0.248   0.139  0.1068 -4.3301  2.2043
  577SOL     MW 2308   2.114   0.298   0.077  0.6929 -0.6677 -0.2126
  578SOL     OW 2309   1.946   2.031   2.460 -0.7311  0.4721 -0.4620
  578SOL    HW1 2310   1.885   2.038   2.387 -0.6464  0.4229  3.4451
  578SOL    HW2 2311   2.008   1.959   2.442 -1.4991  0.0883  1.0723
  578SOL     MW 2312   1.946   2.022   2.448 -0.8213  0.4149  0.2559
  579SOL     OW 2313   0.864   2.471   2.505 -0.6053 -0.0895  0.1124
  579SOL    HW1 2314   0.895   2.396   2.555  2.3158  1.1588  1.5492
  579SOL    HW2 2315   0.950   2.507   2.478 -0.5040  1.8643  2.7470
  579SOL     MW 2316   0.879   2.466   2.508 -0.2065  0.3330  0.6496
  580SOL     OW 2317   0.859   2.993   0.011 -0.4338  0.3786 -0.5143
  580SOL    HW1 2318   0.951   2.963   0.014 -0.6402  0.4081  1.3871
  580SOL    HW2 2319   0.810   2.965  -0.070  2.4219 -2.3911 -0.9304
  580SOL     MW 2320   0.864   2.985   0.001 -0.0843  0.0170 -0.3183
  581SOL     OW 2321   1.138   2.447   1.739  0.3749  0.2488 -0.7506
  581SOL    HW1 2322   1.207   2.511   1.771  0.8207 -1.3169 -1.4889
  581SOL    HW2 2323   1.189   2.379   1.698  0.7895  0.1112  0.9089
  581SOL     MW 2324   1.154   2.447   1.738  0.4885  0.0241 -0.6291
  582SOL     OW 2325  -0.001   2.861   2.516  0.0592  0.5838  0.0335
  582SOL    HW1 2326  -0.022   2.943   2.566 -1.5842 -0.4671 -2.3386
  582SOL    HW2 2327   0.091   2.877   2.500  0.7460  1.3887  2.2843
  582SOL     MW 2328   0.008   2.874   2.521 -0.0670  0.5514  0.0175
  583SOL     OW 2329   1.966   2.411   2.663  0.5010 -0.5008 -0.1810
  583SOL    HW1 2330   2.055   2.433   2.635  0.4724  2.0163  1.9555
  583SOL    HW2 2331   1.978   2.314   2.686 -0.8476 -0.3400 -0.6843
  583SOL     MW 2332   1.980   2.401   2.663  0.3193 -0.1475  0.0345
  584SOL     OW 2333   0.218   1.898   2.074 -0.0011 -0.1917  1.1115
  584SOL    HW1 2334   0.301   1.889   2.030  0.3544  1.7153 -1.1770
  584SOL    HW2 2335   0.234   1.952   2.154  0.3022  4.6415  0.4047
  584SOL     MW 2336   0.231   1.904   2.079  0.0859  0.6976  0.7163
  585SOL     OW 2337   1.451   2.663   0.078 -0.1338 -0.3260  0.2193
  585SOL    HW1 2338   1.419   2.629  -0.003 -3.1340 -1.1561 -0.4536
  585SOL    HW2 2339   1.375   2.681   0.127  1.0366 -0.5530 -0.9137
  585SOL     MW 2340   1.437   2.661   0.074 -0.3752 -0.4655 -0.0190
  586SOL     OW 2341   1.391   2.829   2.447  0.5783  0.0156  0.5596
  586SOL    HW1 2342   1.469   2.820   2.395 -0.8340 -1.4714  1.4372
  586SOL    HW2 2343   1.385   2.918   2.484 -0.7957  4.7707 -1.0029
  586SOL     MW 2344   1.401   2.840   2.445  0.2107  0.4468  0.4692
  587SOL     OW 2345   1.292   1.589   2.159  0.4010  0.1294  0.6531
  587SOL    HW1 2346   1.278   1.507   2.213  0.6889  1.5444  0.9041
  587SOL    HW2 2347   1.284   1.564   2.067 -1.4342  0.9265  2.7799
  587SOL     MW 2348   1.289   1.575   2.154  0.1968  0.4213  0.9668
  588SOL     OW 2349   1.407   2.151   2.759 -0.1076 -0.6738  0.0467
  588SOL    HW1 2350   1.470   2.091   2.804  2.9949  1.3445  1.4721
  588SOL    HW2 2351   1.339   2.176   2.822 -3.7965  2.9264 -0.3134
  588SOL     MW 2352   1.406   2.146   2.774 -0.1850  0.0675  0.1872
  589SOL     OW 2353   1.312   2.082   0.073 -0.6362 -0.4195 -0.0554
  589SOL    HW1 2354   1.343   2.145   0.138 -0.9010 -0.8895  1.3323
  589SOL    HW2 2355   1.255   2.013   0.117 -0.0601 -1.2371 -1.9075
  589SOL     MW 2356   1.308   2.081   0.087 -0.5952 -0.5894 -0.1167
  590SOL     OW 2357   0.426   2.590   2.271  0.3897  0.8291 -0.1989
  590SOL    HW1 2358   0.399   2.591   2.173 -0.1117  0.8791 -0.8878
  590SOL    HW2 2359   0.468   2.673   2.290 -0.5412  1.0197  0.4631
  590SOL     MW 2360   0.428   2.601   2.261  0.2007  0.8609 -0.2024
  591SOL     OW 2361   2.272   0.730   3.075  0.0864  0.5855 -0.4806
  591SOL    HW1 2362   2.227   0.818   3.083 -2.6791  1.4971 -1.9980
  591SOL    HW2 2363   2.352   0.747   3.032  0.9638 -3.2146  0.7234
  591SOL     MW 2364   2.277   0.744   3.071 -0.1627  0.2044 -0.5220
  592SOL     OW 2365   1.822   2.956   0.824 -0.9753 -0.6376  0.4055
  592SOL    HW1 2366   1.806   3.008   0.745  0.2501 -1.1700 -0.7324
  592SOL    HW2 2367   1.878   2.885   0.797 -1.8037  1.8416  0.2333
  592SOL     MW 2368   1.827   2.954   0.810 -0.9229 -0.3807  0.2326
  593SOL     OW 2369   1.894   0.734   0.860 -0.1970 -0.4817  0.4672
  593SOL    HW1 2370   1.813   0.713   0.813 -1.1746 -0.8189 -0.0852
  593SOL    HW2 2371   1.928   0.644   0.867 -1.1966 -0.5685 -2.7135
  593SOL     MW 2372   1.888   0.719   0.855 -0.4579 -0.5376 -0.0253
  594SOL     OW 2373   2.765   1.162   1.377  0.1757  0.0492 -0.7103
  594SOL    HW1 2374   2.854   1.193   1.389 -2.0568  2.2070 -1.3647
  594SOL    HW2 2375   2.776   1.107   1.300  2.2674  0.0741 -0.9736
  594SOL     MW 2376   2.778   1.159   1.368  0.1571  0.3372 -0.8314
  595SOL     OW 2377   0.511   0.940   0.745  0.1976  0.8081 -0.0247
  595SOL    HW1 2378   0.515   1.011   0.684  1.0016 -1.7526  0.4897
  595SOL    HW2 2379   0.510   0.989   0.830  1.2407  2.2939  0.1492
  595SOL     MW 2380   0.511   0.956   0.748  0.4413  0.6663  0.0661
  596SOL     OW 2381   2.506   1.345   0.510  0.5551 -0.0457  0.1099
  596SOL    HW1 2382   2.544   1.420   0.471  1.9259 -1.6306  3.6247
  596SOL    HW2 2383   2.570   1.323   0.576  0.4269  0.8141 -0.3454
  596SOL     MW 2384   2.519   1.352   0.514  0.7191 -0.1414  0.5136
  597SOL     OW 2385   2.177   0.686   1.606  0.2524  0.2645 -0.2075
  597SOL    HW1 2386   2.228   0.626   1.657 -2.0313  0.3593  0.0586
  597SOL    HW2 2387   2.093   0.639   1.584 -0.5670 -1.2239  0.4711
  597SOL     MW 2388   2.173   0.672   1.610 -0.1570  0.0806 -0.0829
  598SOL     OW 2389   2.592   0.985   2.894 -0.2204 -0.4372 -0.2860
  598SOL    HW1 2390   2.613   0.945   2.817 -0.9026  0.1218  2.0997
  598SOL    HW2 2391   2.674   1.027   2.914  0.7354  2.1264 -2.8080
  598SOL     MW 2392   2.606   0.985   2.886 -0.1843 -0.0252 -0.3040
  599SOL     OW 2393   2.913   0.407   2.083  0.1818  0.1425  0.1879
  599SOL    HW1 2394   2.892   0.401   2.177 -1.4697  0.6619 -0.7366
  599SOL    HW2 2395   2.953   0.499   2.061  0.2778  1.6993  0.2435
  599SOL     MW 2396   2.915   0.419   2.093 -0.0234  0.4164  0.0733
  600SOL     OW 2397   1.912   1.763   0.885  0.1170  0.1591  0.0685
  600SOL    HW1 2398   1.931   1.813   0.969  0.8196 -1.0368  0.9501
  600SOL    HW2 2399   1.828   1.800   0.858  1.8095 -3.7887  0.0666
  600SOL     MW 2400   1.904   1.774   0.893  0.4330 -0.5196  0.1846
  601SOL     OW 2401   2.510   0.809   0.834 -0.0453  0.1182 -0.4008
  601SOL    HW1 2402   2.508   0.812   0.932  0.1135 -2.2267  2.7914
  601SOL    HW2 2403   2.445   0.735   0.808 -1.6016  0.5909 -0.4171
  601SOL     MW 2404   2.501   0.799   0.843 -0.2297 -0.1288  0.0182
  602SOL     OW 2405   2.296   1.964   0.829 -0.3326 -0.3031 -0.2652
  602SOL    HW1 2406   2.254   1.886   0.872 -0.5247 -1.7906 -0.6281
  602SOL    HW2 2407   2.225   2.002   0.775 -2.7630 -0.2789 -0.9711
  602SOL     MW 2408   2.281   1.959   0.828 -0.6786 -0.4962 -0.4062
  603SOL     OW 2409   3.078   1.376   1.809 -0.2800 -0.0738  0.7970
  603SOL    HW1 2410   3.100   1.416   1.894  2.5490 -0.3723 -0.7883
  603SOL    HW2 2411   3.078   1.282   1.823 -2.5491 -2.7469 -1.0645
  603SOL     MW 2412   3.081   1.369   1.822 -0.2061 -0.4659  0.3422
  604SOL     OW 2413   2.115   1.549   0.466  0.2226  0.0942  0.5233
  604SOL    HW1 2414   2.125   1.468   0.513  0.5310  0.0727 -1.9552
  604SOL    HW2 2415   2.055   1.605   0.510  3.9887 -2.8014 -1.8195
  604SOL     MW 2416   2.109   1.546   0.478  0.7602 -0.2907 -0.1128
  605SOL     OW 2417   2.649   1.527   0.838  0.0994 -0.0558 -0.2422
  605SOL    HW1 2418   2.601   1.594   0.785  1.3987 -0.7779 -2.0543
  605SOL    HW2 2419   2.650   1.446   0.784 -3.0621  0.7076 -0.3087
  605SOL     MW 2420   2.643   1.525   0.824 -0.1463 -0.0504 -0.4901
  606SOL     OW 2421   2.577   1.858   1.903  0.1313  0.3820  0.1822
  606SOL    HW1 2422   2.491   1.821   1.915  0.6691  0.6237 -0.0324
  606SOL    HW2 2423   2.611   1.772   1.873  0.8657  0.4468 -0.7972
  606SOL     MW 2424   2.571   1.841   1.901  0.2991  0.4224  0.0247
  607SOL     OW 2425   2.353   1.039   3.043 -0.0485 -0.3131  0.1050
  607SOL    HW1 2426   2.438   1.021   3.000 -1.9596 -1.3864 -3.9686
  607SOL    HW2 2427   2.370   1.024   3.141 -0.5589  0.6059  2.0844
  607SOL     MW 2428   2.367   1.035   3.050 -0.3680 -0.3334 -0.1713
  608SOL     OW 2429   1.908   0.296   0.618 -0.5130 -0.2330  0.0369
  608SOL    HW1 2430   1.884   0.345   0.537  0.4609  0.5172  0.7445
  608SOL    HW2 2431   1.849   0.217   0.619  1.3381  0.2361  1.3464
  608SOL     MW 2432   1.897   0.292   0.607 -0.1403 -0.0721  0.3031
  609SOL     OW 2433   2.093   1.998   3.048  0.0453  0.6522  0.0167
  609SOL    HW1 2434   2.012   1.950   3.021 -0.5408 -0.4086  2.5602
  609SOL    HW2 2435   2.134   1.955   3.127  0.2112 -0.0101 -0.0601
  609SOL     MW 2436   2.088   1.986   3.055 -0.0102  0.4248  0.3421
  610SOL     OW 2437   1.778   1.016   1.252 -0.7342 -0.4227  0.4852
  610SOL    HW1 2438   1.782   0.934   1.201 -0.6200  2.3814 -2.1016
  610SOL    HW2 2439   1.685   1.034   1.259  2.4991 -0.2574 -0.6849
  610SOL     MW 2440   1.766   1.008   1.246 -0.2925 -0.0309 -0.0105
  611SOL     OW 2441   2.509   1.749   0.696  0.2620  0.2973 -0.3206
  611SOL    HW1 2442   2.448   1.803   0.745  2.2326 -0.5978  5.4500
  611SOL    HW2 2443   2.484   1.753   0.606  0.6086  1.2941 -2.0046
  611SOL     MW 2444   2.497   1.756   0.691  0.5677  0.3107  0.2186
  612SOL     OW 2445   2.810   2.838   0.391  0.0147 -0.0714 -0.3046
  612SOL    HW1 2446   2.851   2.862   0.476  2.4446 -0.3483 -1.2691
  612SOL    HW2 2447   2.890   2.815   0.342 -1.0818 -2.2885 -0.8386
  612SOL     MW 2448   2.826   2.838   0.396  0.1907 -0.4005 -0.5023
  613SOL     OW 2449   1.482   0.987   0.945 -0.0269  0.0617 -0.4853
  613SOL    HW1 2450   1.505   1.080   0.941 -1.2468  1.9751  1.1400
  613SOL    HW2 2451   1.471   0.962   1.040 -0.4744 -1.1318 -0.6567
  613SOL     MW 2452   1.484   0.996   0.957 -0.2469  0.1567 -0.2935
  614SOL     OW 2453   1.974   0.536   1.505  0.1022 -0.2289 -0.0303
  614SOL    HW1 2454   1.972   0.443   1.522 -0.8501  1.3013 -0.7106
  614SOL    HW2 2455   1.970   0.529   1.410 -0.3863 -0.6799 -0.3017
  614SOL     MW 2456   1.973   0.523   1.495 -0.0879 -0.0865 -0.1559
  615SOL     OW 2457   2.369   0.751   0.290  0.5432 -0.2322  0.1049
  615SOL    HW1 2458   2.446   0.700   0.314  0.4696 -0.8472  1.1331
  615SOL    HW2 2459   2.341   0.714   0.209  1.5334  0.8857  0.7962
  615SOL     MW 2460   2.376   0.740   0.282  0.6642 -0.1659  0.3317
  616SOL     OW 2461   2.524   0.416   1.592 -0.3248  0.5557  0.1232
  616SOL    HW1 2462   2.479   0.353   1.543  0.9135 -0.4982  0.9264
  616SOL    HW2 2463   2.569   0.479   1.537  0.1087  0.1343  1.5947
  616SOL     MW 2464   2.524   0.416   1.578 -0.1042  0.3611  0.4233
  617SOL     OW 2465   2.931   0.554   1.737 -0.3945 -0.3012  0.4847
  617SOL    HW1 2466   2.836   0.544   1.758 -0.5744 -0.6476 -1.0076
  617SOL    HW2 2467   2.961   0.464   1.717  1.2604 -1.5414 -0.7278
  617SOL     MW 2468   2.922   0.541   1.737 -0.1999 -0.5105  0.1278
  618SOL     OW 2469   2.688   0.323   1.959  0.4123  0.3881 -0.6973
  618SOL    HW1 2470   2.663   0.397   1.902  0.8214 -0.4617 -0.6115
  618SOL    HW2 2471   2.752   0.366   2.019 -1.5250  0.0162  0.1296
  618SOL     MW 2472   2.693   0.338   1.959  0.2107  0.2269 -0.5769
  619SOL     OW 2473   2.662   0.665   0.130  0.1346 -0.2781 -0.4806
  619SOL    HW1 2474   2.712   0.744   0.133 -2.7226 -0.0667  1.3368
  619SOL    HW2 2475   2.644   0.638   0.223 -1.5085 -2.9928 -1.3244
  619SOL     MW 2476   2.666   0.672   0.143 -0.4591 -0.6084 -0.3521
  620SOL     OW 2477   2.324   1.037   0.991 -0.6227  0.2292  0.7183
  620SOL    HW1 2478   2.366   1.028   0.906  2.2233  0.1585  2.4186
  620SOL    HW2 2479   2.245   0.979   0.995  0.4892  0.5740  0.0173
  620SOL     MW 2480   2.319   1.028   0.980 -0.1005  0.2654  0.8502
  621SOL     OW 2481   1.459   2.139   1.946  0.0968 -0.5113 -0.1268
  621SOL    HW1 2482   1.400   2.078   1.979 -1.0434  0.9621 -0.6889
  621SOL    HW2 2483   1.546   2.105   1.963  0.1839  0.6486 -1.1193
  621SOL     MW 2484   1.463   2.127   1.953 -0.0421 -0.1639 -0.3319
  622SOL     OW 2485   2.594   0.173   0.269  0.2200  0.3156 -0.1046
  622SOL    HW1 2486   2.683   0.210   0.254 -0.7716 -1.6525 -2.2834
  622SOL    HW2 2487   2.596   0.077   0.278 -4.1814  1.3798 -0.3390
  622SOL     MW 2488   2.606   0.165   0.268 -0.4915  0.1963 -0.4230
  623SOL     OW 2489   2.347   2.805   0.864  0.2595  0.5624 -0.1258
  623SOL    HW1 2490   2.423   2.866   0.880  0.2177  1.1811  0.1528
  623SOL    HW2 2491   2.278   2.822   0.925  0.4853 -3.6711  0.8595
  623SOL     MW 2492   2.348   2.815   0.874  0.2838  0.0855  0.0409
  624SOL     OW 2493   2.189   1.692   3.008 -0.2783  0.7075 -0.0153
  624SOL    HW1 2494   2.151   1.604   3.024 -0.7440  1.1642 -0.1218
  624SOL    HW2 2495   2.124   1.754   3.013 -1.6152 -1.8617  1.1617
  624SOL     MW 2496   2.175   1.688   3.011 -0.5162  0.4288  0.1259
  625SOL     OW 2497   2.195   2.033   1.131  0.4124 -0.5422 -0.2669
  625SOL    HW1 2498   2.284   2.010   1.144 -1.7353 -0.9069  1.1976
  625SOL    HW2 2499   2.208   2.070   1.045  0.5505  0.6931 -1.0118
  625SOL     MW 2500   2.209   2.035   1.122  0.1473 -0.4273 -0.1719
  626SOL     OW 2501   0.214   1.593   2.365 -0.1496  0.2544  0.4651
  626SOL    HW1 2502   0.179   1.513   2.331 -1.0480  3.2046 -0.5555
  626SOL    HW2 2503   0.146   1.614   2.434  0.1419  0.1890 -0.9199
  626SOL     MW 2504   0.201   1.585   2.369 -0.2297  0.6350  0.1477
  627SOL     OW 2505   2.448   0.784   2.635 -0.1066 -0.2530  0.1833
  627SOL    HW1 2506   2.430   0.878   2.624  0.6938  1.0718  1.3054
  627SOL    HW2 2507   2.445   0.758   2.541 -0.0109 -0.6493 -0.5065
  627SOL     MW 2508   2.446   0.793   2.621  0.0116 -0.1305  0.2403
  628SOL     OW 2509   2.255   1.351   1.363  0.9807 -0.3163 -0.3646
  628SOL    HW1 2510   2.212   1.284   1.303  0.5357  0.1701 -0.2039
  628SOL    HW2 2511   2.349   1.334   1.366 -1.6709  0.3133 -0.4807
  628SOL     MW 2512   2.261   1.340   1.355  0.5722 -0.1691 -0.3588
  629SOL     OW 2513   1.904   0.553   1.233 -1.1591  0.1625 -0.1825
  629SOL    HW1 2514   1.932   0.644   1.233 -1.2285 -0.2234  0.1818
  629SOL    HW2 2515   1.811   0.564   1.236 -1.8871  1.5774 -1.6994
  629SOL     MW 2516   1.896   0.567   1.233 -1.2643  0.2983 -0.3346
  630SOL     OW 2517   2.435   1.821   3.068 -0.0724 -0.1825 -0.5634
  630SOL    HW1 2518   2.424   1.853   2.983  1.3173  1.0817 -0.0685
  630SOL    HW2 2519   2.358   1.764   3.081 -1.2280 -1.3569 -1.2178
  630SOL     MW 2520   2.424   1.818   3.058 -0.0415 -0.1706 -0.5844
  631SOL     OW 2521   1.966   1.826   1.582  0.2283  0.0377 -0.0812
  631SOL    HW1 2522   1.991   1.742   1.634 -0.0873 -0.7558  1.4349
  631SOL    HW2 2523   1.946   1.792   1.497 -1.8896  0.5042  2.2295
  631SOL     MW 2524   1.967   1.810   1.577 -0.0928 -0.0054  0.4237
  632SOL     OW 2525   0.111   2.030   1.475  0.5087 -0.6943 -0.0244
  632SOL    HW1 2526   0.052   2.057   1.549 -1.2489  1.6275  1.2753
  632SOL    HW2 2527   0.150   1.943   1.503 -0.1034  2.3518 -0.2388
  632SOL     MW 2528   0.108   2.022   1.489  0.1961  0.0139  0.1188
  633SOL     OW 2529   2.571   0.592   0.384  0.5261 -0.4733 -0.2615
  633SOL    HW1 2530   2.638   0.576   0.450  1.9024 -0.8579  2.5625
  633SOL    HW2 2531   2.504   0.521   0.399 -2.6605 -0.0151 -2.3522
  633SOL     MW 2532   2.571   0.581   0.394  0.2873 -0.4636 -0.1648
  634SOL     OW 2533   2.674   3.043   0.618  0.2643  0.2114 -0.0106
  634SOL    HW1 2534   2.708   3.135   0.629  1.5339  2.7640 -1.0401
  634SOL    HW2 2535   2.640   3.046   0.530  1.0583 -2.3433 -0.9834
  634SOL     MW 2536   2.674   3.055   0.608  0.5365  0.2111 -0.2748
  635SOL     OW 2537   2.610   0.077   1.864 -0.1408  0.2781 -0.4066
  635SOL    HW1 2538   2.685   0.034   1.828  2.2150  0.3960 -0.0172
  635SOL    HW2 2539   2.634   0.175   1.881  1.7850  1.3788  3.5118
  635SOL     MW 2540   2.623   0.084   1.861  0.4241  0.4389  0.1617
  636SOL     OW 2541   2.955   1.680   1.102 -0.2075 -0.8387  0.1765
  636SOL    HW1 2542   2.869   1.692   1.144 -0.8320  0.1601  2.8290
  636SOL    HW2 2543   3.007   1.751   1.136  0.8977 -1.2496  1.6184
  636SOL     MW 2544   2.951   1.691   1.112 -0.1441 -0.7611  0.7167
  637SOL     OW 2545   2.885   1.488   0.649 -0.8556 -0.2114  0.5761
  637SOL    HW1 2546   2.955   1.553   0.659 -2.2438 -0.3865  0.0951
  637SOL    HW2 2547   2.812   1.527   0.701 -1.0914 -1.1382  1.3841
  637SOL     MW 2548   2.885   1.502   0.657 -1.0699 -0.3568  0.6193
  638SOL     OW 2549   2.785   0.498   0.548 -0.0976 -0.4154  0.2056
  638SOL    HW1 2550   2.853   0.532   0.493 -0.8536 -2.2086 -0.5018
  638SOL    HW2 2551   2.798   0.538   0.631 -1.1303  0.3799  1.2838
  638SOL     MW 2552   2.796   0.508   0.552 -0.3336 -0.5470  0.2545
  639SOL     OW 2553   1.769   0.064   0.562  0.4543  0.0575 -0.1502
  639SOL    HW1 2554   1.681   0.109   0.538 -0.1156  1.5623  0.0842
  639SOL    HW2 2555   1.776  -0.006   0.494 -2.9781 -2.0797  2.1787
  639SOL     MW 2556   1.759   0.060   0.550 -0.0738 -0.0259  0.1880
  640SOL     OW 2557   0.369   1.352   0.091 -0.3854 -0.2157  0.4689
  640SOL    HW1 2558   0.389   1.365  -0.001  1.7372  0.2253  1.1833
  640SOL    HW2 2559   0.315   1.269   0.089  0.2027 -0.8878  1.7325
  640SOL     MW 2560   0.364   1.343   0.078 -0.0278 -0.2462  0.7298
  641SOL     OW 2561   2.239   0.435   0.365 -0.0601 -0.2902 -0.4378
  641SOL    HW1 2562   2.251   0.455   0.271 -3.1678 -0.7343 -1.8165
  641SOL    HW2 2563   2.254   0.343   0.365 -2.4197  0.6531  1.1896
  641SOL     MW 2564   2.243   0.425   0.352 -0.7814 -0.2243 -0.4050
  642SOL     OW 2565   0.045   0.008   0.591  0.5548  0.2203 -0.1777
  642SOL    HW1 2566  -0.025   0.062   0.554 -0.7792 -2.9636 -1.6303
  642SOL    HW2 2567  -0.008  -0.066   0.626 -0.7545 -2.6945 -2.5356
  642SOL     MW 2568   0.029   0.005   0.591  0.2060 -0.5844 -0.6804
  643SOL     OW 2569   2.098   0.319   1.684 -0.3461  0.2360 -0.8377
  643SOL    HW1 2570   2.090   0.232   1.725 -0.0752 -3.0139 -2.2046
  643SOL    HW2 2571   2.111   0.312   1.589  0.7091 -0.5153 -1.5946
  643SOL     MW 2572   2.099   0.307   1.677 -0.1712 -0.2919 -1.1179
  644SOL     OW 2573   2.746   1.979   1.057 -0.0767  0.1665 -0.2409
  644SOL    HW1 2574   2.725   1.893   1.093  1.4227  2.1350 -0.2043
  644SOL    HW2 2575   2.664   2.007   1.010 -0.4309  0.4302  0.8552
  644SOL     MW 2576   2.733   1.971   1.055  0.0744  0.4610 -0.0914
  645SOL     OW 2577   2.857   0.861   0.673  0.6547 -0.2092 -0.2657
  645SOL    HW1 2578   2.946   0.835   0.674  0.6064  0.3492 -0.3577
  645SOL    HW2 2579   2.804   0.783   0.693  1.6368 -1.7396 -1.1886
  645SOL     MW 2580   2.861   0.847   0.676  0.7779 -0.3375 -0.3996
  646SOL     OW 2581   0.177   2.300   0.772  0.2200  0.3235 -0.0223
  646SOL    HW1 2582   0.202   2.208   0.792  1.3745 -4.5892  0.6215
  646SOL    HW2 2583   0.092   2.312   0.731  2.3447  0.0982 -0.0820
  646SOL     MW 2584   0.169   2.290   0.769  0.6526 -0.3544  0.0548
  647SOL     OW 2585   2.697   0.488   2.975 -0.4200 -0.3443 -0.2574
  647SOL    HW1 2586   2.675   0.434   3.054 -1.3556 -0.6537 -0.4796
  647SOL    HW2 2587   2.635   0.565   2.968  0.9866 -2.2551  0.4834
  647SOL     MW 2588   2.686   0.491   2.985 -0.3579 -0.6372 -0.1890
  648SOL     OW 2589   2.132   0.728   1.121  0.0524 -0.0756  0.9669
  648SOL    HW1 2590   2.119   0.752   1.029 -0.6627 -0.4311 -1.2656
  648SOL    HW2 2591   2.137   0.817   1.166 -2.1097  1.6206  2.1605
  648SOL     MW 2592   2.131   0.743   1.115 -0.3272  0.1013  0.8298
  649SOL     OW 2593   2.298   2.741   1.295 -0.5616 -0.0436 -0.0711
  649SOL    HW1 2594   2.370   2.803   1.321  1.5317 -1.6631  1.7650
  649SOL    HW2 2595   2.338   2.656   1.271  2.2322 -0.9973  0.5085
  649SOL     MW 2596   2.313   2.738   1.295  0.0832 -0.3831  0.2476
  650SOL     OW 2597   2.797   0.178   0.671 -0.3054  0.4993 -0.1444
  650SOL    HW1 2598   2.767   0.266   0.682 -0.7797  0.7002 -0.2823
  650SOL    HW2 2599   2.871   0.182   0.609  0.6229 -2.3830  0.4320
  650SOL     MW 2600   2.803   0.190   0.664 -0.2455  0.1456 -0.0866
  651SOL     OW 2601   2.988   0.411   0.758  0.1060 -0.1564  0.6539
  651SOL    HW1 2602   3.062   0.477   0.763  0.4187  2.5984  1.1356
  651SOL    HW2 2603   2.958   0.417   0.847  1.0442 -0.5875 -0.0705
  651SOL     MW 2604   2.994   0.421   0.770  0.2710  0.1502  0.6219
  652SOL     OW 2605   2.415   1.506   3.010  0.3640 -0.2606 -0.4981
  652SOL    HW1 2606   2.481   1.511   2.936  0.3520  0.2947 -1.3303
  652SOL    HW2 2607   2.367   1.583   3.003 -0.4061 -0.2029  0.1322
  652SOL     MW 2608   2.418   1.516   3.000  0.2608 -0.1797 -0.5247
  653SOL     OW 2609   1.906   0.445   0.355 -0.5422 -0.4398 -0.0949
  653SOL    HW1 2610   1.883   0.372   0.304  1.1683  0.0864  0.3771
  653SOL    HW2 2611   2.006   0.447   0.354  0.2337  0.2967  2.9058
  653SOL     MW 2612   1.916   0.436   0.348 -0.2142 -0.2732  0.3633
  654SOL     OW 2613   2.454   1.056   0.747 -0.3128 -0.4306 -0.3393
  654SOL    HW1 2614   2.365   1.048   0.713 -0.1371 -0.4558  1.5737
  654SOL    HW2 2615   2.480   0.963   0.777  0.6793 -0.4720 -0.0742
  654SOL     MW 2616   2.446   1.043   0.747 -0.1587 -0.4394 -0.0519
  655SOL     OW 2617   2.944   0.882   0.392 -0.1405 -0.0486 -0.1009
  655SOL    HW1 2618   2.949   0.920   0.479 -0.9039  2.4099 -2.2304
  655SOL    HW2 2619   2.963   0.785   0.401 -0.7961 -0.5657  1.6527
  655SOL     MW 2620   2.947   0.874   0.405 -0.3277  0.2075 -0.1505
  656SOL     OW 2621   1.912   2.749   1.278 -0.5402  0.2451  0.4073
  656SOL    HW1 2622   1.913   2.830   1.329 -0.8758 -1.6981  0.2906
  656SOL    HW2 2623   1.956   2.690   1.333 -1.8505 -0.8591 -0.3616
  656SOL     MW 2624   1.918   2.752   1.292 -0.7573 -0.1570  0.2904
  657SOL     OW 2625   0.160   1.643   1.285 -0.3013  0.5561 -0.6724
  657SOL    HW1 2626   0.138   1.678   1.202  2.3381  1.8573 -1.0590
  657SOL    HW2 2627   0.150   1.546   1.280  1.0019  0.0454  0.4609
  657SOL     MW 2628   0.156   1.635   1.273  0.2189  0.6604 -0.5739
  658SOL     OW 2629   2.699   1.300   0.213  0.2719 -0.1007  0.3784
  658SOL    HW1 2630   2.644   1.239   0.264  2.4153 -0.3915 -0.1536
  658SOL    HW2 2631   2.733   1.355   0.284 -0.9211  0.3312 -1.2849
  658SOL     MW 2632   2.696   1.299   0.229  0.3973 -0.0821  0.0888
  659SOL     OW 2633   2.274   1.485   1.074 -0.0601 -0.5710  0.2736
  659SOL    HW1 2634   2.363   1.511   1.064 -2.7545 -0.2238 -2.8973
  659SOL    HW2 2635   2.263   1.521   1.163  1.6428  2.5455 -0.3212
  659SOL     MW 2636   2.284   1.493   1.084 -0.1909 -0.1140 -0.2233
  660SOL     OW 2637   2.027   1.601   1.696 -0.3958  0.3212 -0.0693
  660SOL    HW1 2638   2.060   1.609   1.790 -1.3335 -2.1791 -0.6363
  660SOL    HW2 2639   1.976   1.516   1.696 -0.2676  0.9965  2.3139
  660SOL     MW 2640   2.024   1.591   1.708 -0.5026  0.0804  0.1704
  661SOL     OW 2641   2.378   1.006   0.225 -0.0648  0.2159  0.7696
  661SOL    HW1 2642   2.457   1.051   0.276  2.4473 -0.0433 -0.1069
  661SOL    HW2 2643   2.374   0.921   0.274 -0.3258 -1.3971 -2.0484
  661SOL     MW 2644   2.388   1.001   0.238  0.2322 -0.0311  0.2821
  662SOL     OW 2645   2.596   2.980   0.883 -0.0010  0.4309 -0.3609
  662SOL    HW1 2646   2.547   3.052   0.911  0.4432 -0.8949 -3.3405
  662SOL    HW2 2647   2.618   2.999   0.790 -1.4893 -0.0393 -1.2495
  662SOL     MW 2648   2.593   2.992   0.874 -0.1387  0.1940 -0.8713
  663SOL     OW 2649   2.768   1.496   0.389 -0.2437 -0.5502  0.8337
  663SOL    HW1 2650   2.752   1.591   0.369 -2.8837  2.5464  0.7375
  663SOL    HW2 2651   2.824   1.495   0.470 -1.1541 -0.9463  2.2075
  663SOL     MW 2652   2.774   1.509   0.397 -0.7121 -0.1939  1.0022
  664SOL     OW 2653   2.503   1.505   1.607 -0.1090  0.7023 -0.1993
  664SOL    HW1 2654   2.499   1.598   1.583 -1.2813 -1.6338 -1.6992
  664SOL    HW2 2655   2.415   1.487   1.645  1.1212 -1.6394  0.5538
  664SOL     MW 2656   2.491   1.515   1.609 -0.1014  0.0851 -0.2978
  665SOL     OW 2657   2.869   0.874   2.010 -0.4591  0.4945 -0.4554
  665SOL    HW1 2658   2.827   0.910   1.930  0.1866  0.6211  2.1560
  665SOL    HW2 2659   2.944   0.812   2.001 -0.5647  0.8020  1.2899
  665SOL     MW 2660   2.873   0.871   1.998 -0.3878  0.5518  0.1194
  666SOL     OW 2661   2.785   3.013   1.683 -0.2017  0.0963  0.5254
  666SOL    HW1 2662   2.778   3.038   1.590  1.6658  1.6048  0.8662
  666SOL    HW2 2663   2.735   2.933   1.715 -2.4093 -0.4159 -1.6808
  666SOL     MW 2664   2.778   3.006   1.675 -0.2466  0.2278  0.2793
  667SOL     OW 2665   1.980   2.638   1.710 -0.5695  0.2200 -0.0186
  667SOL    HW1 2666   2.020   2.573   1.770  1.3294  0.7317  0.2801
  667SOL    HW2 2667   2.057   2.694   1.701  0.9970 -1.1189  0.7884
  667SOL     MW 2668   1.995   2.637   1.717 -0.1123  0.1109  0.1273
  668SOL     OW 2669   2.733   0.627   0.783 -0.0748 -0.3306  0.1872
  668SOL    HW1 2670   2.800   0.630   0.849  1.9915  0.0424 -0.3032
  668SOL    HW2 2671   2.666   0.681   0.822  3.6485  1.5894 -2.8410
  668SOL     MW 2672   2.733   0.634   0.797  0.6891 -0.0280 -0.2770
  669SOL     OW 2673   0.243   0.934   0.671 -0.2728 -0.1019  0.1526
  669SOL    HW1 2674   0.198   1.002   0.734  1.3015  0.7772  0.4270
  669SOL    HW2 2675   0.335   0.934   0.704  2.1576  0.9471  1.3093
  669SOL     MW 2676   0.249   0.943   0.684  0.2556  0.1525  0.3414
  670SOL     OW 2677   2.842   0.252   0.225 -0.2766 -0.6933 -0.0701
  670SOL    HW1 2678   2.877   0.186   0.159 -2.5707 -0.8671  0.3741
  670SOL    HW2 2679   2.839   0.338   0.181 -1.1082  0.2702 -0.3612
  670SOL     MW 2680   2.846   0.255   0.211 -0.6890 -0.5891 -0.0499
  671SOL     OW 2681   2.088   2.935   1.497 -0.2461 -0.2511 -0.6092
  671SOL    HW1 2682   2.075   2.965   1.413  0.2330 -0.7941 -2.1661
  671SOL    HW2 2683   2.050   3.001   1.554  1.9658 -1.1047  1.3117
  671SOL     MW 2684   2.081   2.948   1.494  0.1090 -0.4354 -0.5611
  672SOL     OW 2685   1.888   1.691   1.362  0.3242 -0.7282  0.5239
  672SOL    HW1 2686   1.812   1.749   1.357 -0.7181  0.5957  1.4286
  672SOL    HW2 2687   1.941   1.733   1.289  0.4170 -0.0905  1.3526
  672SOL     MW 2688   1.885   1.704   1.351  0.1989 -0.4694  0.7526
  673SOL     OW 2689   2.750   1.093   0.580 -0.4033  0.1464 -0.1410
  673SOL    HW1 2690   2.778   1.009   0.617  0.4189 -0.6377  0.3708
  673SOL    HW2 2691   2.833   1.136   0.578 -0.7640 -3.8633  0.4986
  673SOL     MW 2692   2.765   1.088   0.585 -0.3424 -0.4861  0.0109
  674SOL     OW 2693   2.498   0.084   1.215 -0.9563 -0.0072  0.2818
  674SOL    HW1 2694   2.447   0.087   1.131 -1.4163 -2.0351  1.2814
  674SOL    HW2 2695   2.518  -0.010   1.231  1.9760 -0.8846  0.2733
  674SOL     MW 2696   2.494   0.072   1.206 -0.6301 -0.3905  0.4125
  675SOL     OW 2697   3.027   0.870   1.063  0.1535  0.4901 -0.0035
  675SOL    HW1 2698   3.080   0.881   1.139 -0.9028 -2.2124 -0.6230
  675SOL    HW2 2699   3.078   0.928   1.010 -0.3403 -0.8370  1.2152
  675SOL     MW 2700   3.041   0.879   1.066 -0.0510 -0.0416  0.0756
  676SOL     OW 2701   2.861   1.474   1.665 -0.6764 -0.4639  0.6203
  676SOL    HW1 2702   2.803   1.395   1.647  1.7687  1.4150 -3.4706
  676SOL    HW2 2703   2.940   1.431   1.703  1.2266  1.1238  0.4711
  676SOL     MW 2704   2.864   1.458   1.668 -0.1027 -0.0065  0.0609
  677SOL     OW 2705   2.410   0.652   1.971 -0.0336 -0.3548 -0.1127
  677SOL    HW1 2706   2.361   0.600   1.900  2.1800  1.7265 -3.4031
  677SOL    HW2 2707   2.359   0.719   2.019 -0.5337  2.3755  0.5408
  677SOL     MW 2708   2.397   0.654   1.968  0.1925  0.2800 -0.4606
  678SOL     OW 2709   2.532   1.644   0.390 -0.3886  0.0299 -0.0786
  678SOL    HW1 2710   2.444   1.696   0.387 -1.2619  3.2884  1.0610
  678SOL    HW2 2711   2.551   1.627   0.294 -1.5723 -0.2489 -3.4263
  678SOL     MW 2712   2.523   1.649   0.377 -0.6600  0.4231 -0.3699
  679SOL     OW 2713   2.271   0.474   1.167 -0.3317 -0.6178 -0.2721
  679SOL    HW1 2714   2.221   0.402   1.135 -1.9202  0.0080  1.1828
  679SOL    HW2 2715   2.212   0.546   1.156  0.8126 -0.1575 -0.5957
  679SOL     MW 2716   2.257   0.474   1.161 -0.3903 -0.4745 -0.1229
  680SOL     OW 2717   2.348   0.156   1.470 -0.1696 -0.5356  0.5229
  680SOL    HW1 2718   2.253   0.180   1.441 -1.6906 -1.0824 -1.2403
  680SOL    HW2 2719   2.384   0.148   1.379  2.6868 -1.2514 -0.9728
  680SOL     MW 2720   2.341   0.158   1.454  0.0066 -0.7022  0.0929
  681SOL     OW 2721   0.344   0.578   1.551 -0.0046 -0.4391  0.1711
  681SOL    HW1 2722   0.311   0.498   1.593  1.4882  0.2382 -0.4097
  681SOL    HW2 2723   0.437   0.564   1.529  1.7805  0.6277  4.4048
  681SOL     MW 2724   0.352   0.566   1.553  0.4279 -0.2090  0.6531
  682SOL     OW 2725   0.091   2.911   1.478 -0.3425 -0.0932  0.5472
  682SOL    HW1 2726   0.102   3.007   1.446 -3.1255  2.1154 -1.2364
  682SOL    HW2 2727   0.036   2.912   1.555 -1.9424 -1.2365 -2.1706
  682SOL     MW 2728   0.085   2.924   1.484 -0.9208  0.0474 -0.0467
  683SOL     OW 2729   2.062   0.898   3.025  0.1476 -0.0129 -0.4174
  683SOL    HW1 2730   1.983   0.868   2.981  2.2323 -1.1005  0.0260
  683SOL    HW2 2731   2.040   0.987   3.053  0.2090 -0.4942 -0.2478
  683SOL     MW 2732   2.049   0.906   3.023  0.4308 -0.2199 -0.3365
  684SOL     OW 2733   2.206   1.720   0.923  0.1364 -0.2834 -0.3694
  684SOL    HW1 2734   2.111   1.708   0.938  1.0451 -0.0492  1.4658
  684SOL    HW2 2735   2.231   1.638   0.953  1.8333  3.3250 -0.8919
  684SOL     MW 2736   2.197   1.708   0.929  0.4802  0.2236 -0.1962
  685SOL     OW 2737   2.678   1.740   1.233  0.0226  0.2949 -0.0812
  685SOL    HW1 2738   2.709   1.722   1.325  2.1349 -0.9165 -0.6129
  685SOL    HW2 2739   2.638   1.654   1.214  0.3447 -0.5428  0.0863
  685SOL     MW 2740   2.676   1.726   1.243  0.3438  0.0245 -0.1292
  686SOL     OW 2741   2.917   0.738   1.525  0.2181  0.0399  0.0700
  686SOL    HW1 2742   2.919   0.674   1.600  2.8104  0.5713 -1.6156
  686SOL    HW2 2743   3.010   0.743   1.498 -1.7602  1.7116  0.4641
  686SOL     MW 2744   2.929   0.730   1.531  0.2991  0.3306 -0.1004
  687SOL     OW 2745   2.072   0.287   1.124  0.1672 -0.6903 -0.3394
  687SOL    HW1 2746   2.079   0.218   1.058 -0.7282  0.8133  1.4354
  687SOL    HW2 2747   1.985   0.324   1.112  1.3725 -1.5961 -1.3030
  687SOL     MW 2748   2.062   0.283   1.114  0.2081 -0.6114 -0.2324
  688SOL     OW 2749   2.390   0.658   1.414  0.4858  0.4329 -0.6656
  688SOL    HW1 2750   2.344   0.587   1.370 -0.8846  1.4524  2.1748
  688SOL    HW2 2751   2.320   0.688   1.475  3.1491 -1.1712  0.3727
  688SOL     MW 2752   2.374   0.653   1.416  0.6564  0.3558 -0.1539
  689SOL     OW 2753   2.542   0.733   2.995  0.1620  0.5497  0.3336
  689SOL    HW1 2754   2.593   0.812   2.980 -2.2946 -0.4493 -2.2012
  689SOL    HW2 2755   2.561   0.698   3.084 -1.8405  0.8426  0.1876
  689SOL     MW 2756   2.551   0.738   3.005 -0.4263  0.4565 -0.0201
  690SOL     OW 2757   2.073   0.944   1.950  0.0733  0.0649  0.5040
  690SOL    HW1 2758   2.004   0.879   1.962 -0.0587  0.1082  0.5660
  690SOL    HW2 2759   2.106   0.935   1.860 -1.6823 -1.6444 -0.0402
  690SOL     MW 2760   2.068   0.934   1.940 -0.1758 -0.1549  0.4404
  691SOL     OW 2761   2.445   0.252   0.813 -0.4871  0.2799  0.5085
  691SOL    HW1 2762   2.524   0.299   0.839 -0.6007  2.0161  0.6867
  691SOL    HW2 2763   2.366   0.304   0.845  0.8139 -2.1564  1.4258
  691SOL     MW 2764   2.445   0.265   0.820 -0.3304  0.1875  0.6530
  692SOL     OW 2765   2.828   1.657   1.452  0.1098  0.0311  0.4515
  692SOL    HW1 2766   2.843   1.608   1.534 -0.8310  0.9086 -2.1932
  692SOL    HW2 2767   2.859   1.752   1.475  0.3607 -0.5024 -1.8496
  692SOL     MW 2768   2.834   1.663   1.466  0.0188  0.0765 -0.2011
  693SOL     OW 2769   2.329   0.483   0.086 -0.1289  0.7489 -0.5834
  693SOL    HW1 2770   2.252   0.429   0.085  0.4215  2.2758  0.0109
  693SOL    HW2 2771   2.310   0.559   0.035 -1.1377 -5.2363  0.0845
  693SOL     MW 2772   2.316   0.486   0.079 -0.1894  0.1607 -0.4169
  694SOL     OW 2773   1.918   1.216   1.095  0.2112 -0.0516 -0.5450
  694SOL    HW1 2774   2.007   1.191   1.130 -1.3123 -1.6928  0.2400
  694SOL    HW2 2775   1.861   1.150   1.137  1.0807  0.5987 -1.6026
  694SOL     MW 2776   1.922   1.204   1.105  0.1249 -0.1823 -0.5810
  695SOL     OW 2777   3.024   1.464   1.329 -0.0810  0.4994  0.7115
  695SOL    HW1 2778   3.012   1.434   1.238 -1.0645 -0.0619 -1.4698
  695SOL    HW2 2779   2.991   1.549   1.338 -0.1123 -3.1789  0.2641
  695SOL     MW 2780   3.018   1.471   1.318 -0.2149 -0.0599  0.3646
  696SOL     OW 2781   2.117   1.379   0.879  0.3301  0.0283  0.3697
  696SOL    HW1 2782   2.166   1.429   0.948 -4.1494 -0.6387 -0.6579
  696SOL    HW2 2783   2.054   1.332   0.933 -0.9100 -0.4948 -1.8760
  696SOL     MW 2784   2.115   1.380   0.895 -0.4245 -0.1287 -0.0622
  697SOL     OW 2785   2.925   1.100   2.163  0.0330  0.1382  0.1038
  697SOL    HW1 2786   2.847   1.146   2.178 -0.2104  1.6627  1.0327
  697SOL    HW2 2787   2.897   1.019   2.112 -0.8407  0.1602 -1.8191
  697SOL     MW 2788   2.911   1.096   2.158 -0.1144  0.3423 -0.0273
  698SOL     OW 2789   2.560   0.317   0.039 -0.1127 -0.2914 -0.2813
  698SOL    HW1 2790   2.491   0.383   0.063  0.2509  0.4127  1.0171
  698SOL    HW2 2791   2.585   0.276   0.119 -0.8028 -3.0046  1.7593
  698SOL     MW 2792   2.554   0.321   0.053 -0.1557 -0.5565  0.1593
  699SOL     OW 2793   1.819   1.667   1.997 -0.1051  0.1482 -0.5489
  699SOL    HW1 2794   1.803   1.575   2.004  2.5652 -0.3766  1.7650
  699SOL    HW2 2795   1.918   1.676   1.995  2.2807  0.2346 -0.3234
  699SOL     MW 2796   1.830   1.656   1.998  0.5620  0.0903 -0.2139
  700SOL     OW 2797   2.702   0.923   1.524 -0.3503  0.2458 -0.3592
  700SOL    HW1 2798   2.745   0.974   1.457  2.1579 -3.2503 -0.8635
  700SOL    HW2 2799   2.738   0.835   1.527 -2.8953  0.7833 -0.6344
  700SOL     MW 2800   2.712   0.918   1.516 -0.3551 -0.1445 -0.4620
  701SOL     OW 2801   1.592   1.249   2.520 -0.0767 -0.3114 -0.4937
  701SOL    HW1 2802   1.683   1.266   2.499  0.5118 -0.3432 -0.4036
  701SOL    HW2 2803   1.573   1.300   2.603 -1.6553 -3.9653  2.0330
  701SOL     MW 2804   1.601   1.258   2.528 -0.2073 -0.7977 -0.1484
  702SOL     OW 2805   2.204   0.382   0.868  0.1999 -0.1739  0.0774
  702SOL    HW1 2806   2.193   0.313   0.795 -0.3754  1.7203 -0.9509
  702SOL    HW2 2807   2.254   0.453   0.823  0.0586 -0.6880 -1.5575
  702SOL     MW 2808   2.209   0.382   0.852  0.1053  0.0082 -0.2740
  703SOL     OW 2809   2.750   1.258   1.024  0.0505 -0.6572 -0.5474
  703SOL    HW1 2810   2.704   1.255   0.945 -0.6694 -1.8676  2.2388
  703SOL    HW2 2811   2.760   1.171   1.062 -1.5611  2.8113  0.6059
  703SOL     MW 2812   2.745   1.247   1.019 -0.2571 -0.3593 -0.0276
  704SOL     OW 2813   0.025   1.314   0.249  0.3107 -0.2280  0.1828
  704SOL    HW1 2814  -0.046   1.274   0.201 -0.3150 -1.9650 -0.3346
  704SOL    HW2 2815   0.004   1.274   0.337  0.7998 -0.2101 -3.6833
  704SOL     MW 2816   0.013   1.304   0.254  0.2927 -0.4548 -0.3956
  705SOL     OW 2817   2.229   1.610   1.313 -0.4811  0.2069  0.7646
  705SOL    HW1 2818   2.152   1.617   1.359  3.9077  0.1537 -3.5977
  705SOL    HW2 2819   2.255   1.523   1.335 -0.0411  0.5468  0.8727
  705SOL     MW 2820   2.222   1.599   1.322  0.1560  0.2448  0.2033
  706SOL     OW 2821   2.954   1.226   0.698  0.4124 -0.1636 -0.0883
  706SOL    HW1 2822   3.019   1.198   0.638 -2.0753  0.3906  2.0504
  706SOL    HW2 2823   2.937   1.320   0.685 -0.4688 -1.5565 -0.0705
  706SOL     MW 2824   2.960   1.235   0.688 -0.0321 -0.2743  0.1962
  707SOL     OW 2825   2.390   0.061   0.977  0.0399 -0.6053  0.6390
  707SOL    HW1 2826   2.393   0.131   0.907  0.2616  2.2218 -1.5861
  707SOL    HW2 2827   2.301   0.032   0.993 -1.9012  1.7665  0.5592
  707SOL     MW 2828   2.379   0.066   0.970 -0.1870  0.0807  0.3349
  708SOL     OW 2829   2.573   1.546   0.137 -0.2233 -0.6198 -0.3683
  708SOL    HW1 2830   2.617   1.463   0.143  1.5010  0.0915 -0.4613
  708SOL    HW2 2831   2.534   1.531   0.050 -1.5228 -0.9866  1.6352
  708SOL     MW 2832   2.574   1.533   0.127 -0.1673 -0.5744 -0.1162
  709SOL     OW 2833   1.720   1.711   0.125  0.0894  0.2380 -0.4427
  709SOL    HW1 2834   1.663   1.755   0.059 -0.6354 -3.6077 -0.3894
  709SOL    HW2 2835   1.652   1.709   0.191 -2.0373  0.1331  0.6849
  709SOL     MW 2836   1.704   1.717   0.125 -0.2869 -0.2832 -0.2869
  710SOL     OW 2837   2.176   1.152   1.190  0.6476 -0.5215  0.3355
  710SOL    HW1 2838   2.245   1.140   1.123  1.1621 -0.2828  2.9930
  710SOL    HW2 2839   2.180   1.065   1.237 -1.2092 -1.3475  1.4131
  710SOL     MW 2840   2.186   1.139   1.187  0.4705 -0.5990  0.8283
  711SOL     OW 2841   2.345   0.135   1.748  0.5390 -0.0616  0.1676
  711SOL    HW1 2842   2.430   0.106   1.784 -2.8552 -1.0711  1.1028
  711SOL    HW2 2843   2.345   0.110   1.651  0.1143  1.3799 -0.5756
  711SOL     MW 2844   2.356   0.128   1.740  0.0351 -0.0046  0.1930
  712SOL     OW 2845   1.893   0.578   3.075  0.3756 -0.5361 -0.3213
  712SOL    HW1 2846   1.868   0.661   3.030 -0.8145 -0.6518 -1.0457
  712SOL    HW2 2847   1.920   0.602   3.159 -0.4707 -1.5691  1.8025
  712SOL     MW 2848   1.893   0.592   3.080  0.1069 -0.6877 -0.1366
  713SOL     OW 2849   2.561   0.811   1.099  0.1202  0.2012  0.4500
  713SOL    HW1 2850   2.554   0.718   1.128  2.7821  3.4326  3.6617
  713SOL    HW2 2851   2.533   0.861   1.181 -1.0719  1.3714 -0.7713
  713SOL     MW 2852   2.556   0.806   1.114  0.3141  0.7819  0.7126
  714SOL     OW 2853   2.162   0.207   1.967  0.5600  0.0393  0.0726
  714SOL    HW1 2854   2.217   0.205   2.054 -1.0395 -0.3975 -0.0450
  714SOL    HW2 2855   2.220   0.189   1.891 -1.8860 -1.7888 -1.0036
  714SOL     MW 2856   2.177   0.204   1.968  0.0263 -0.2596 -0.0849
  715SOL     OW 2857   1.722   1.909   1.679 -0.1103  0.2454  0.1175
  715SOL    HW1 2858   1.818   1.917   1.659 -3.5007  4.2435  0.4713
  715SOL    HW2 2859   1.707   1.816   1.699 -0.9192 -1.4702 -0.9163
  715SOL     MW 2860   1.733   1.897   1.679 -0.6644  0.5465  0.0278
  716SOL     OW 2861   2.363   0.587   0.748 -0.5480  0.4320 -0.6157
  716SOL    HW1 2862   2.425   0.536   0.697 -0.0525 -0.0986 -0.2669
  716SOL    HW2 2863   2.295   0.613   0.683 -1.3163  1.6172 -1.1744
  716SOL     MW 2864   2.362   0.584   0.733 -0.5840  0.5184 -0.6434
  717SOL     OW 2865   2.880   1.424   2.909  0.5007  0.4775 -0.0479
  717SOL    HW1 2866   2.975   1.441   2.905 -0.7366 -0.2576  2.4776
  717SOL    HW2 2867   2.853   1.473   2.986 -1.1765  0.3481  1.6246
  717SOL     MW 2868   2.889   1.433   2.919  0.1161  0.3634  0.5060
  718SOL     OW 2869   2.536   1.375   1.344  0.4864 -0.2324  0.4338
  718SOL    HW1 2870   2.558   1.410   1.433  1.3694  0.1328 -2.7106
  718SOL    HW2 2871   2.605   1.310   1.335 -1.2638  0.2410 -1.8329
  718SOL     MW 2872   2.548   1.371   1.354  0.3720 -0.1218 -0.2801
  719SOL     OW 2873   2.221   1.318   0.634  0.2326 -0.4922 -0.0054
  719SOL    HW1 2874   2.310   1.348   0.615  0.7599  2.3870  3.7650
  719SOL    HW2 2875   2.200   1.330   0.726 -1.6564 -1.1585 -1.6459
  719SOL     MW 2876   2.230   1.324   0.644  0.0530 -0.2002  0.2756
  720SOL     OW 2877   2.928   1.167   0.113  0.0445  0.0632 -0.1820
  720SOL    HW1 2878   2.931   1.074   0.122 -1.7244 -0.1917 -0.1507
  720SOL    HW2 2879   2.828   1.194   0.123 -1.3420  1.9724 -0.4585
  720SOL     MW 2880   2.915   1.158   0.116 -0.3718  0.2815 -0.2144
  721SOL     OW 2881   2.498   0.893   1.354 -0.4263 -0.4168 -0.0944
  721SOL    HW1 2882   2.477   0.800   1.373  1.2083  0.0096  2.4377
  721SOL    HW2 2883   2.579   0.901   1.414 -1.0736 -0.3391  0.7329
  721SOL     MW 2884   2.506   0.882   1.365 -0.2960 -0.3503  0.3489
  722SOL     OW 2885   2.558   1.121   0.368 -0.2091 -0.0532 -0.0286
  722SOL    HW1 2886   2.508   1.191   0.416  1.3756 -1.6498  0.9324
  722SOL    HW2 2887   2.630   1.100   0.432  2.9930 -2.3843  1.8284
  722SOL     MW 2888   2.561   1.128   0.383  0.4225 -0.5714  0.3432
  723SOL     OW 2889   2.224   1.403   1.666  0.3380 -0.0136 -0.0024
  723SOL    HW1 2890   2.240   1.372   1.579 -0.7285 -1.7431 -0.8080
  723SOL    HW2 2891   2.153   1.468   1.655  0.3734  0.4363  0.1656
  723SOL     MW 2892   2.217   1.408   1.653  0.2020 -0.1824 -0.0865
  724SOL     OW 2893   2.529   0.416   0.600 -0.1157  0.2786  0.3603
  724SOL    HW1 2894   2.520   0.352   0.674  0.1179  0.9385 -0.3414
  724SOL    HW2 2895   2.621   0.446   0.590  0.3357 -1.7784  0.8560
  724SOL     MW 2896   2.540   0.411   0.609 -0.0253  0.0943  0.3331
  725SOL     OW 2897   2.546   0.525   1.138 -0.4969 -0.2089  0.1034
  725SOL    HW1 2898   2.578   0.516   1.226 -1.8461 -1.5377  3.6373
  725SOL    HW2 2899   2.460   0.485   1.130  2.6821 -1.0034 -2.1572
  725SOL     MW 2900   2.539   0.518   1.148 -0.2555 -0.4890  0.2714
  726SOL     OW 2901   2.566   2.458   0.565  0.1014  0.3830 -0.0491
  726SOL    HW1 2902   2.484   2.481   0.518 -0.7212 -0.0961 -1.3630
  726SOL    HW2 2903   2.547   2.366   0.595 -1.2413 -2.7441  0.8107
  726SOL     MW 2904   2.553   2.449   0.563 -0.1843 -0.0928 -0.1090
  727SOL     OW 2905   2.933   0.261   1.565 -0.5908  0.3599  0.1759
  727SOL    HW1 2906   2.925   0.315   1.487  2.2110 -0.3499  2.5510
  727SOL    HW2 2907   2.846   0.266   1.605 -0.8732  1.2452 -1.0768
  727SOL     MW 2908   2.920   0.269   1.560 -0.2584  0.3830  0.3240
  728SOL     OW 2909   2.828   1.150   2.945  0.1288 -0.6196 -0.4849
  728SOL    HW1 2910   2.821   1.235   2.901  1.1556  0.9861 -1.4322
  728SOL    HW2 2911   2.876   1.166   3.027  0.9864 -0.7718 -0.5224
  728SOL     MW 2912   2.833   1.163   2.950  0.3774 -0.4278 -0.6148
  729SOL     OW 2913   2.551   1.538   1.106 -0.3076  0.1102 -0.8096
  729SOL    HW1 2914   2.562   1.456   1.150  1.2088  1.1373 -0.1767
  729SOL    HW2 2915   2.601   1.540   1.027 -2.2246 -0.4287  2.2914
  729SOL     MW 2916   2.559   1.528   1.101 -0.3604  0.1746 -0.3169
  730SOL     OW 2917   2.136   1.131   0.244  0.4432  0.1412 -0.7098
  730SOL    HW1 2918   2.227   1.104   0.249  0.2211 -0.8241  2.3621
  730SOL    HW2 2919   2.130   1.224   0.275 -2.8963  0.7251 -1.5032
  730SOL     MW 2920   2.147   1.140   0.249 -0.0267  0.0909 -0.4092
  731SOL     OW 2921   2.848   1.862   2.879  0.4115  0.2229 -0.1374
  731SOL    HW1 2922   2.789   1.920   2.821  1.9510 -2.4764  2.6627
  731SOL    HW2 2923   2.898   1.933   2.923 -1.1328  1.8214 -0.9979
  731SOL     MW 2924   2.847   1.879   2.877  0.4109  0.0776  0.1185
  732SOL     OW 2925   2.217   0.934   1.331 -0.3665  0.8911  0.0718
  732SOL    HW1 2926   2.223   0.969   1.422 -3.6316  0.6716  0.8742
  732SOL    HW2 2927   2.305   0.908   1.313 -2.4227 -0.6328 -1.6903
  732SOL     MW 2928   2.229   0.935   1.341 -1.0686  0.6611 -0.0548
  733SOL     OW 2929   2.345   2.806   3.009 -1.0403 -0.3818  0.0780
  733SOL    HW1 2930   2.259   2.851   2.993  0.0514  0.2901 -1.2551
  733SOL    HW2 2931   2.329   2.711   3.024 -0.1843 -1.5716  0.2686
  733SOL     MW 2932   2.332   2.800   3.009 -0.7833 -0.4501 -0.0728
  734SOL     OW 2933   1.494   0.352   2.471 -0.2671  0.2618 -0.7398
  734SOL    HW1 2934   1.456   0.324   2.555 -1.2989  0.3216  1.9189
  734SOL    HW2 2935   1.541   0.271   2.436  1.0143 -0.1930  1.0280
  734SOL     MW 2936   1.495   0.337   2.477 -0.2342  0.2097 -0.1558
  735SOL     OW 2937   2.981   0.946   2.574 -0.1879  0.4193  0.7014
  735SOL    HW1 2938   2.973   0.855   2.609 -0.9248  0.6761  1.2525
  735SOL    HW2 2939   3.032   0.987   2.641  1.9339 -3.6159 -0.4258
  735SOL     MW 2940   2.986   0.939   2.587 -0.0052 -0.0792  0.6254
  736SOL     OW 2941   0.088   0.620   2.564  0.5053 -0.0378  0.4975
  736SOL    HW1 2942   0.145   0.666   2.505  1.0582  0.2625 -0.9224
  736SOL    HW2 2943   0.068   0.537   2.514  2.6115  0.8287 -0.2934
  736SOL     MW 2944   0.093   0.615   2.550  0.8562  0.1162  0.2058
  737SOL     OW 2945   2.938   0.683   2.608  0.1094 -0.2909  0.2648
  737SOL    HW1 2946   2.881   0.665   2.531  0.5075  0.9802 -0.1846
  737SOL    HW2 2947   3.029   0.658   2.580 -0.1761  1.5333 -0.6824
  737SOL     MW 2948   2.943   0.677   2.594  0.1242  0.1175  0.0805
  738SOL     OW 2949   0.203   0.520   1.933  0.8845 -0.1964 -0.5281
  738SOL    HW1 2950   0.298   0.548   1.948 -0.4256  1.1261  0.7974
  738SOL    HW2 2951   0.209   0.444   1.873 -2.6102 -1.0009 -3.3364
  738SOL     MW 2952   0.216   0.514   1.927  0.2506 -0.1280 -0.7237
  739SOL     OW 2953   2.474   1.016   2.129 -0.3049  0.5643  0.0219
  739SOL    HW1 2954   2.389   0.976   2.107 -1.9971  2.8892 -0.3785
  739SOL    HW2 2955   2.506   1.056   2.048 -1.8438 -0.3050  0.0206
  739SOL     MW 2956   2.467   1.016   2.115 -0.7312  0.7563 -0.0311
  740SOL     OW 2957   0.166   1.764   2.961  0.8849  0.2428  0.3466
  740SOL    HW1 2958   0.123   1.678   2.968 -1.7096 -0.5791  0.6332
  740SOL    HW2 2959   0.262   1.756   2.965  1.5859  0.6541 -0.7779
  740SOL     MW 2960   0.173   1.751   2.963  0.6351  0.1887  0.2360
  741SOL     OW 2961   2.266   1.276   2.718  0.2173  0.2725  0.0263
  741SOL    HW1 2962   2.195   1.334   2.688  0.7541 -1.8213 -1.7868
  741SOL    HW2 2963   2.255   1.269   2.815  1.6623 -1.5844  0.0905
  741SOL     MW 2964   2.255   1.283   2.727  0.4788 -0.2488 -0.2044
  742SOL     OW 2965   1.583   1.335   2.225 -0.1464 -0.0838 -0.4302
  742SOL    HW1 2966   1.549   1.248   2.204 -0.6090 -0.0749  0.4242
  742SOL    HW2 2967   1.554   1.348   2.317 -0.0445 -0.9957 -1.3838
  742SOL     MW 2968   1.575   1.325   2.234 -0.1940 -0.2029 -0.4433
  743SOL     OW 2969   2.523   1.227   2.767  0.4579  0.0268  0.6234
  743SOL    HW1 2970   2.434   1.248   2.759 -2.3803  0.2291  1.0563
  743SOL    HW2 2971   2.534   1.141   2.819 -0.7102 -1.4365 -2.1023
  743SOL     MW 2972   2.513   1.218   2.772 -0.0707 -0.1396  0.3209
  744SOL     OW 2973   2.750   0.980   1.793  0.0196 -0.2124  0.0484
  744SOL    HW1 2974   2.673   1.014   1.840 -1.0980 -1.3103 -0.5909
  744SOL    HW2 2975   2.716   0.938   1.708  1.7138 -0.9646 -0.6824
  744SOL     MW 2976   2.735   0.979   1.788  0.0957 -0.4565 -0.1324
  745SOL     OW 2977   1.773   0.416   2.494  0.5935  0.3171  0.3560
  745SOL    HW1 2978   1.756   0.439   2.401  1.6659 -0.7092 -1.2942
  745SOL    HW2 2979   1.686   0.396   2.527 -0.6768 -0.7098  0.6848
  745SOL     MW 2980   1.759   0.416   2.486  0.5674  0.0462  0.1817
  746SOL     OW 2981   1.495   1.465   1.705  0.1889  0.2790  0.3493
  746SOL    HW1 2982   1.566   1.529   1.721 -0.1321  2.3609  0.1499
  746SOL    HW2 2983   1.489   1.419   1.790  2.7413  0.9427 -0.9338
  746SOL     MW 2984   1.504   1.468   1.718  0.4833  0.6413  0.1537
  747SOL     OW 2985   2.559   1.174   1.918 -0.4814  0.0061 -0.1709
  747SOL    HW1 2986   2.474   1.199   1.882  2.5472 -2.8807 -2.2944
  747SOL    HW2 2987   2.595   1.252   1.960 -0.7649 -0.2828  0.4188
  747SOL     MW 2988   2.552   1.188   1.919 -0.1192 -0.4129 -0.3733
  748SOL     OW 2989   0.087   3.081   1.849  0.2454  0.0218  0.2438
  748SOL    HW1 2990   0.172   3.111   1.879  1.1059  3.2083  0.5636
  748SOL    HW2 2991   0.027   3.132   1.907 -0.9549  1.4422  0.9208
  748SOL     MW 2992   0.090   3.092   1.860  0.2006  0.6296  0.3754
  749SOL     OW 2993   2.407   0.550   2.764 -0.3564 -0.3682 -0.2461
  749SOL    HW1 2994   2.422   0.639   2.728 -0.2985  1.7538 -1.6182
  749SOL    HW2 2995   2.406   0.555   2.866  0.2931 -1.0396  0.2982
  749SOL     MW 2996   2.409   0.563   2.773 -0.2631 -0.1768 -0.3553
  750SOL     OW 2997   2.056   3.071   1.953  0.1247  0.2718  0.5240
  750SOL    HW1 2998   2.102   3.157   1.952 -1.2867 -1.4549 -2.7257
  750SOL    HW2 2999   2.128   3.001   1.966  4.5928 -1.5740  0.5848
  750SOL     MW 3000   2.071   3.073   1.954  0.5280 -0.1996  0.1032
  751SOL     OW 3001   0.031   0.396   2.401  0.1295  0.4393 -0.9143
  751SOL    HW1 3002  -0.054   0.402   2.353 -4.5521 -3.7489  0.8827
  751SOL    HW2 3003   0.099   0.382   2.337  0.0053  1.0079 -0.6830
  751SOL     MW 3004   0.029   0.395   2.386 -0.5046 -0.0383 -0.6467
  752SOL     OW 3005   2.142   0.897   2.741 -0.2760 -0.2852  0.1926
  752SOL    HW1 3006   2.234   0.925   2.732  0.3214  0.7817  0.0305
  752SOL    HW2 3007   2.129   0.888   2.835 -0.9341 -0.2855  1.2035
  752SOL     MW 3008   2.153   0.900   2.752 -0.2840 -0.1445  0.3046
  753SOL     OW 3009   2.851   0.375   2.344  0.0812 -0.8084 -0.0979
  753SOL    HW1 3010   2.788   0.300   2.339 -3.0088  1.6276 -0.7376
  753SOL    HW2 3011   2.807   0.449   2.383 -1.1239 -2.2527 -2.3129
  753SOL     MW 3012   2.837   0.375   2.349 -0.4855 -0.6776 -0.4746
  754SOL     OW 3013   2.206   3.025   2.607 -0.1010 -0.0279  0.7050
  754SOL    HW1 3014   2.231   3.028   2.512 -1.6378 -0.1509  0.7657
  754SOL    HW2 3015   2.279   2.989   2.655 -0.4803 -2.6658 -0.8398
  754SOL     MW 3016   2.219   3.020   2.601 -0.3538 -0.3922  0.5092
  755SOL     OW 3017   2.778   1.585   2.494 -0.6894  0.6543 -0.0212
  755SOL    HW1 3018   2.711   1.530   2.532 -0.0014 -1.5885 -0.8486
  755SOL    HW2 3019   2.818   1.619   2.572 -2.5007 -0.6519 -0.4305
  755SOL     MW 3020   2.774   1.582   2.509 -0.8376  0.1860 -0.1844
  756SOL     OW 3021   2.223   1.260   2.981 -0.2547  0.4837  0.5030
  756SOL    HW1 3022   2.284   1.328   3.000 -0.8895 -2.0064  0.9929
  756SOL    HW2 3023   2.260   1.173   3.012  0.5995  2.3780  1.0412
  756SOL     MW 3024   2.236   1.258   2.987 -0.2258  0.4051  0.6386
  757SOL     OW 3025   2.145   0.971   1.632 -0.7270  0.0564 -0.1316
  757SOL    HW1 3026   2.159   0.876   1.638 -0.6644  0.9338  1.1192
  757SOL    HW2 3027   2.069   0.987   1.579 -0.4019  1.7069 -1.3592
  757SOL     MW 3028   2.137   0.960   1.626 -0.6758  0.3900 -0.1285
  758SOL     OW 3029   2.243   1.736   2.667 -0.4329  0.5282  0.0636
  758SOL    HW1 3030   2.246   1.772   2.582 -0.0324 -3.3004  0.8312
  758SOL    HW2 3031   2.340   1.730   2.679  0.6861 -0.0946 -2.0289
  758SOL     MW 3032   2.257   1.740   2.658 -0.2324 -0.0591 -0.1112
  759SOL     OW 3033   1.554   1.389   2.770  0.6854 -0.3254 -0.3724
  759SOL    HW1 3034   1.549   1.481   2.742 -0.9239  1.8807 -1.9778
  759SOL    HW2 3035   1.574   1.380   2.859 -3.9831  1.3839 -0.8576
  759SOL     MW 3036   1.556   1.400   2.778 -0.1429  0.1912 -0.6482
  760SOL     OW 3037   2.674   1.983   2.676  0.1335 -0.3853 -0.0547
  760SOL    HW1 3038   2.622   1.906   2.662 -2.8123 -0.1101  1.2361
  760SOL    HW2 3039   2.748   1.972   2.614 -0.1159  1.6874  1.4739
  760SOL     MW 3040   2.677   1.972   2.666 -0.2881 -0.0755  0.3173
  761SOL     OW 3041   2.116   0.403   2.461 -0.3186  0.5078 -0.3863
  761SOL    HW1 3042   2.045   0.339   2.441 -4.1347 -1.8687 -3.3802
  761SOL    HW2 3043   2.111   0.432   2.549  2.1443  2.2107 -1.1721
  761SOL     MW 3044   2.106   0.398   2.470 -0.4971  0.4189 -0.8850
  762SOL     OW 3045   0.018   0.162   2.067 -0.5694  0.0382 -0.1009
  762SOL    HW1 3046  -0.002   0.131   2.155 -0.2703 -1.4553  0.1649
  762SOL    HW2 3047  -0.041   0.236   2.043  1.8407  1.5614 -2.8317
  762SOL     MW 3048   0.008   0.168   2.075 -0.2119  0.0421 -0.4261
  763SOL     OW 3049   2.427   1.171   2.349  0.1691 -0.0662  0.0901
  763SOL    HW1 3050   2.453   1.135   2.260 -0.6576  0.3505  0.2572
  763SOL    HW2 3051   2.501   1.224   2.387  1.1634 -0.9054 -0.5856
  763SOL     MW 3052   2.440   1.173   2.342  0.1912 -0.1219  0.0230
  764SOL     OW 3053   0.320   0.172   2.812  0.3266  0.0441  0.2686
  764SOL    HW1 3054   0.242   0.204   2.757  1.2678  2.3220  1.3077
  764SOL    HW2 3055   0.302   0.220   2.892 -1.1753 -0.5036 -0.6151
  764SOL     MW 3056   0.307   0.183   2.815  0.2526  0.2724  0.2891
  765SOL     OW 3057   2.706   0.157   2.321 -0.4961  0.0421  0.3258
  765SOL    HW1 3058   2.630   0.122   2.281  0.5602 -0.4107 -0.3111
  765SOL    HW2 3059   2.773   0.090   2.306 -2.0006 -0.7965 -0.6118
  765SOL     MW 3060   2.705   0.144   2.314 -0.5552 -0.1282  0.1181
  766SOL     OW 3061   1.860   3.012   2.119 -0.4280 -0.1119  0.9858
  766SOL    HW1 3062   1.932   3.024   2.052 -1.3921 -1.1679 -1.0035
  766SOL    HW2 3063   1.803   2.954   2.063  0.2170  0.0880 -1.2610
  766SOL     MW 3064   1.862   3.006   2.103 -0.4701 -0.2249  0.4269
  767SOL     OW 3065   2.674   0.605   1.858  0.2762 -0.1280 -0.0737
  767SOL    HW1 3066   2.684   0.680   1.915 -0.3951  2.0899  0.5281
  767SOL    HW2 3067   2.577   0.594   1.859 -0.6023 -3.7767 -0.1003
  767SOL     MW 3068   2.662   0.613   1.866  0.0717 -0.3168  0.0022
  768SOL     OW 3069   0.038   1.529   2.910  0.3770 -0.2377 -0.0191
  768SOL    HW1 3070   0.078   1.509   2.995  0.2423 -0.0731  0.6756
  768SOL    HW2 3071   0.074   1.457   2.854  0.8286 -1.0399 -1.1625
  768SOL     MW 3072   0.048   1.516   2.914  0.4188 -0.3218 -0.0783
  769SOL     OW 3073   2.356   0.654   2.421 -0.1240  0.4216 -0.4108
  769SOL    HW1 3074   2.319   0.567   2.405 -0.8772 -2.4802 -0.7586
  769SOL    HW2 3075   2.418   0.661   2.345  1.1373  1.3451  0.6119
  769SOL     MW 3076   2.359   0.643   2.409 -0.0570  0.1605 -0.3218
  770SOL     OW 3077   0.041   1.623   2.570  0.0600 -0.0467 -0.0108
  770SOL    HW1 3078  -0.044   1.657   2.613 -2.3742 -0.3816 -2.9322
  770SOL    HW2 3079   0.061   1.546   2.624 -1.7099  0.5594 -0.3144
  770SOL     MW 3080   0.032   1.617   2.582 -0.4947 -0.0109 -0.4363
  771SOL     OW 3081   3.055   0.623   1.983  0.7045  0.0251  0.0159
  771SOL    HW1 3082   3.006   0.615   1.897  1.6355 -1.1640 -2.5358
  771SOL    HW2 3083   3.145   0.602   1.967 -2.8499  2.9767 -1.2846
  771SOL     MW 3084   3.060   0.619   1.970  0.3584  0.2577 -0.4924
  772SOL     OW 3085   0.016   0.017   2.335  0.1404  0.4655 -0.2988
  772SOL    HW1 3086  -0.074  -0.008   2.349  1.6125  0.9871 -2.7036
  772SOL    HW2 3087   0.068  -0.060   2.303  1.1662 -0.1029 -0.5869
  772SOL     MW 3088   0.011   0.004   2.333  0.4700  0.4593 -0.6541
  773SOL     OW 3089   2.420   2.901   2.758  0.0939  0.2939 -0.0339
  773SOL    HW1 3090   2.419   2.823   2.708 -0.4475 -1.4023 -0.0775
  773SOL    HW2 3091   2.391   2.867   2.841  0.3232 -0.0869 -1.8222
  773SOL     MW 3092   2.416   2.886   2.762  0.0528  0.0199 -0.2756
  774SOL     OW 3093   2.315   1.181   1.780  0.2122  0.2102  0.1296
  774SOL    HW1 3094   2.268   1.259   1.743  3.6585  1.0060 -1.8845
  774SOL    HW2 3095   2.257   1.108   1.756 -0.2037 -3.7620 -1.4918
  774SOL     MW 3096   2.301   1.182   1.772  0.6120 -0.2089 -0.3501
  775SOL     OW 3097   2.313   2.977   2.355 -0.4082  0.4476  0.0674
  775SOL    HW1 3098   2.339   3.056   2.314 -2.5335  1.0235  1.6999
  775SOL    HW2 3099   2.383   2.912   2.361 -0.7490 -0.2871  1.0051
  775SOL     MW 3100   2.326   2.979   2.350 -0.7335  0.4266  0.4065
  776SOL     OW 3101   0.135   1.495   0.091  0.4981 -0.4706 -0.0893
  776SOL    HW1 3102   0.215   1.445   0.078  0.9669  2.1360 -0.6562
  776SOL    HW2 3103   0.085   1.439   0.148 -1.4719  1.5906  1.6574
  776SOL     MW 3104   0.139   1.481   0.097  0.3000  0.1452  0.0664
  777SOL     OW 3105   3.010   1.104   1.722  0.0545 -0.2717 -0.0165
  777SOL    HW1 3106   3.001   1.158   1.641 -0.2978 -1.8052 -2.1702
  777SOL    HW2 3107   2.925   1.083   1.751 -1.5408  0.6647  1.2498
  777SOL     MW 3108   2.998   1.109   1.715 -0.2025 -0.3505 -0.1336
  778SOL     OW 3109   2.841   0.433   2.759 -0.4599 -0.3468  0.3137
  778SOL    HW1 3110   2.775   0.446   2.832 -1.1774 -1.7970 -0.7087
  778SOL    HW2 3111   2.874   0.524   2.742 -0.1169  3.0625  1.1364
  778SOL     MW 3112   2.837   0.447   2.767 -0.5093 -0.0883  0.2873
  779SOL     OW 3113   2.185   0.546   2.192 -1.1133 -0.2605  0.5333
  779SOL    HW1 3114   2.190   0.643   2.187 -0.3655  2.1542  1.6590
  779SOL    HW2 3115   2.118   0.523   2.257  0.6124  1.7573 -0.7245
  779SOL     MW 3116   2.176   0.556   2.200 -0.7869  0.3243  0.5158
  780SOL     OW 3117   0.112   0.293   2.666 -0.2910 -0.2722  0.2817
  780SOL    HW1 3118   0.096   0.355   2.734 -2.9852  0.2157 -0.3116
  780SOL    HW2 3119   0.028   0.277   2.626 -1.7097  0.2261  1.2097
  780SOL     MW 3120   0.099   0.299   2.670 -0.8336 -0.1421  0.3259
  781SOL     OW 3121   3.049   1.299   2.471  0.3662 -0.0188  0.4131
  781SOL    HW1 3122   3.026   1.376   2.417 -0.1884  0.6208  1.6271
  781SOL    HW2 3123   3.074   1.226   2.416  0.6245 -0.6291  0.0244
  781SOL     MW 3124   3.049   1.299   2.457  0.3271 -0.0149  0.5220
  782SOL     OW 3125   0.658   1.583   3.094  0.3813 -0.7195 -0.6895
  782SOL    HW1 3126   0.580   1.616   3.047  1.9286 -3.4325 -0.6223
  782SOL    HW2 3127   0.658   1.646   3.173  1.8004  0.5929 -0.5645
  782SOL     MW 3128   0.648   1.596   3.098  0.7727 -0.9043 -0.6642
  783SOL     OW 3129   2.721   0.604   2.427 -0.2149 -0.6507 -0.4270
  783SOL    HW1 3130   2.695   0.626   2.336  0.8966  0.5212 -0.9065
  783SOL    HW2 3131   2.648   0.558   2.474  1.5941 -1.4218 -0.3613
  783SOL     MW 3132   2.708   0.601   2.422  0.1705 -0.5978 -0.4816
  784SOL     OW 3133   0.124   0.820   2.818  0.5385  0.5018 -0.6413
  784SOL    HW1 3134   0.057   0.895   2.808 -2.2579 -0.9626 -0.9178
  784SOL    HW2 3135   0.198   0.847   2.760  1.1049  1.9389 -0.1075
  784SOL     MW 3136   0.125   0.834   2.809  0.2443  0.4982 -0.6073
  785SOL     OW 3137   0.415   0.495   2.179  0.2625  0.3888  0.0961
  785SOL    HW1 3138   0.438   0.541   2.093 -2.8054  2.4635  0.9415
  785SOL    HW2 3139   0.325   0.455   2.176  0.5709 -0.7578 -2.3222
  785SOL     MW 3140   0.406   0.496   2.167 -0.1016  0.5112 -0.1115
  786SOL     OW 3141   1.931   0.347   2.956  0.2459 -0.1264  0.2199
  786SOL    HW1 3142   1.910   0.423   3.009  0.5269 -1.8858 -2.4087
  786SOL    HW2 3143   1.999   0.380   2.890  2.4718  1.1466  2.6351
  786SOL     MW 3144   1.937   0.361   2.954  0.5767 -0.1906  0.1918
  787SOL     OW 3145   2.460   0.154   2.934 -0.3807  0.6987  0.1745
  787SOL    HW1 3146   2.530   0.087   2.918 -1.4714  2.0279  0.9638
  787SOL    HW2 3147   2.488   0.202   3.012  0.2531 -1.5142 -2.1905
  787SOL     MW 3148   2.473   0.151   2.942 -0.4410  0.5821 -0.0334
  788SOL     OW 3149   2.852   3.013   2.347 -0.8972 -0.1276 -0.4051
  788SOL    HW1 3150   2.854   3.002   2.445  2.4712 -0.6581 -0.9982
  788SOL    HW2 3151   2.871   2.924   2.316  0.0796 -2.5543 -0.8594
  788SOL     MW 3152   2.855   2.999   2.356 -0.3239 -0.5178 -0.5433
  789SOL     OW 3153   0.079   0.182   3.034  0.4173 -0.6655  0.2262
  789SOL    HW1 3154  -0.004   0.136   3.053 -1.7886  1.1857  4.7677
  789SOL    HW2 3155   0.051   0.258   2.981 -1.9874 -1.9780 -0.5048
  789SOL     MW 3156   0.064   0.186   3.029 -0.1910 -0.5944  0.7290
  790SOL     OW 3157   3.094   1.060   2.361  0.3183  0.5143  0.2261
  790SOL    HW1 3158   3.061   1.017   2.436  0.6990  0.0178 -1.4404
  790SOL    HW2 3159   3.022   1.068   2.298  0.8007  0.1396 -2.9722
  790SOL     MW 3160   3.080   1.055   2.362  0.4322  0.3993 -0.4158
  791SOL     OW 3161   2.596   0.404   2.605 -0.6963  0.1617  0.3404
  791SOL    HW1 3162   2.533   0.457   2.649  0.6294  0.2990  0.1492
  791SOL    HW2 3163   2.670   0.392   2.666  3.4894 -2.4615  2.0003
  791SOL     MW 3164   2.598   0.409   2.619  0.0309 -0.1663  0.5342
  792SOL     OW 3165   2.349   0.270   2.419  0.3447  0.5845 -0.1405
  792SOL    HW1 3166   2.265   0.317   2.442  1.0443 -0.6167  0.0484
  792SOL    HW2 3167   2.374   0.269   2.511 -0.2649  2.0884 -0.0074
  792SOL     MW 3168   2.341   0.276   2.434  0.3566  0.6244 -0.0980
  793SOL     OW 3169   1.949   1.187   1.930 -0.5742 -0.5542 -0.2735
  793SOL    HW1 3170   1.883   1.173   1.851 -1.7347  0.3502  0.1075
  793SOL    HW2 3171   2.013   1.117   1.922  0.5363  1.4856  1.3208
  793SOL     MW 3172   1.948   1.176   1.918 -0.5808 -0.1657 -0.0129
  794SOL     OW 3173   1.393   2.354   0.125 -0.4778 -0.4640  0.2035
  794SOL    HW1 3174   1.406   2.363   0.025 -0.3658 -1.1100  0.0454
  794SOL    HW2 3175   1.469   2.400   0.166 -0.0725 -1.6229 -0.4726
  794SOL     MW 3176   1.405   2.361   0.117 -0.4096 -0.7021  0.0934
  795SOL     OW 3177   2.334   1.044   2.605  0.4236  0.0084  0.6789
  795SOL    HW1 3178   2.310   1.137   2.640  1.2651  3.0428 -1.3195
  795SOL    HW2 3179   2.351   1.072   2.515 -0.6272  2.1640  0.8125
  795SOL     MW 3180   2.333   1.060   2.598  0.3960  0.6931  0.4329
  796SOL     OW 3181   0.260   0.554   2.785  0.4994  0.3988 -0.2103
  796SOL    HW1 3182   0.202   0.601   2.842  2.7610 -0.0827 -0.6394
  796SOL    HW2 3183   0.208   0.578   2.702 -0.9300 -1.3916 -0.9703
  796SOL     MW 3184   0.246   0.563   2.781  0.6092  0.0990 -0.3672
  797SOL     OW 3185   2.653   0.098   2.583  0.2870  0.2380 -0.5705
  797SOL    HW1 3186   2.609   0.182   2.589  1.2671 -2.1671  0.4864
  797SOL    HW2 3187   2.681   0.119   2.490  3.4488 -1.6336 -0.3657
  797SOL     MW 3188   2.651   0.112   2.572  0.8335 -0.3263 -0.4041
  798SOL     OW 3189   2.294   0.112   2.202 -0.6612  0.0950  0.5749
  798SOL    HW1 3190   2.306   0.171   2.277 -0.0293 -0.2980  2.5732
  798SOL    HW2 3191   2.385   0.095   2.172  2.0730  3.5183  2.5809
  798SOL     MW 3192   2.307   0.117   2.208 -0.2171  0.4948  1.1032
  799SOL     OW 3193   2.558   2.928   0.075  0.0915  0.1144 -0.7909
  799SOL    HW1 3194   2.473   2.902   0.035 -0.2924  2.5125 -1.2696
  799SOL    HW2 3195   2.554   2.949   0.167  1.1893 -2.0068 -2.4317
  799SOL     MW 3196   2.546   2.928   0.082  0.1857  0.1509 -1.0705
  800SOL     OW 3197   1.952   3.092   1.696 -0.0198  0.2762 -0.1537
  800SOL    HW1 3198   1.907   3.007   1.680  0.9089  1.1317 -2.7049
  800SOL    HW2 3199   1.990   3.083   1.785  0.3313  0.5905 -3.2149
  800SOL     MW 3200   1.952   3.079   1.706  0.1491  0.4306 -0.8942
  801SOL     OW 3201   2.810   1.280   2.618  0.1325  0.1657  0.7279
  801SOL    HW1 3202   2.780   1.191   2.632 -3.0788  0.6316  1.0560
  801SOL    HW2 3203   2.889   1.290   2.567 -0.4498  0.1151  0.6963
  801SOL     MW 3204   2.816   1.270   2.613 -0.3680  0.2205  0.7670
  802SOL     OW 3205   2.623   1.470   2.771 -0.0624  0.0779 -0.1871
  802SOL    HW1 3206   2.590   1.376   2.750 -2.5980  1.1625 -1.8786
  802SOL    HW2 3207   2.714   1.464   2.789  0.3589  1.3263  0.6186
  802SOL     MW 3208   2.630   1.457   2.771 -0.3414  0.3857 -0.3040
  803SOL     OW 3209   2.306   1.403   1.998 -0.1354 -0.0437 -0.5781
  803SOL    HW1 3210   2.260   1.373   2.080 -1.5514 -0.7202 -1.1153
  803SOL    HW2 3211   2.267   1.344   1.933 -3.0272 -0.9742  1.9578
  803SOL     MW 3212   2.295   1.391   2.001 -0.7038 -0.2558 -0.3144
  804SOL     OW 3213   2.275   0.069   0.042  0.7133 -0.0380 -0.1610
  804SOL    HW1 3214   2.209   0.135   0.059  3.4563 -0.3097 -0.9764
  804SOL    HW2 3215   2.350   0.105  -0.001 -0.9137  2.1251 -1.3355
  804SOL     MW 3216   2.276   0.082   0.039  0.8606  0.2116 -0.4236
  805SOL     OW 3217   2.716   1.025   2.559 -0.4128  0.2099 -0.2447
  805SOL    HW1 3218   2.676   1.018   2.473 -0.1249  0.0267 -0.5100
  805SOL    HW2 3219   2.795   0.965   2.562 -1.3628  0.2858  2.0784
  805SOL     MW 3220   2.721   1.016   2.548 -0.5001  0.1958  0.0268
  806SOL     OW 3221   2.561   0.601   2.198  0.0999 -0.7869 -0.1633
  806SOL    HW1 3222   2.589   0.519   2.167 -0.3494 -0.3534  2.7818
  806SOL    HW2 3223   2.506   0.623   2.123 -0.4827 -1.7130 -0.9788
  806SOL     MW 3224   2.558   0.593   2.184 -0.0363 -0.8519  0.1177
  807SOL     OW 3225   0.060   1.173   2.016 -0.2290  0.3733 -0.4639
  807SOL    HW1 3226   0.086   1.082   2.037 -1.4175 -1.3672 -1.9162
  807SOL    HW2 3227  -0.031   1.180   2.043 -5.2446 -1.4468 -0.3263
  807SOL     MW 3228   0.051   1.162   2.022 -1.0475 -0.0965 -0.6374
  808SOL     OW 3229   2.635   3.062   2.818 -0.1681 -0.0095  0.0709
  808SOL    HW1 3230   2.562   2.996   2.804  1.1521  0.6099  0.1258
  808SOL    HW2 3231   2.641   3.102   2.733 -1.8557  0.3610  2.1754
  808SOL     MW 3232   2.626   3.059   2.805 -0.2166  0.1211  0.3558
  809SOL     OW 3233   2.598   1.350   2.454 -0.0511 -0.7293 -0.9084
  809SOL    HW1 3234   2.649   1.310   2.521  1.4594 -3.4139 -2.8566
  809SOL    HW2 3235   2.670   1.366   2.397 -0.6982  1.2778 -0.4587
  809SOL     MW 3236   2.614   1.347   2.455  0.0628 -0.8187 -1.1061
  810SOL     OW 3237   2.216   1.299   2.237 -0.6044  0.0261 -0.5622
  810SOL    HW1 3238   2.271   1.244   2.293  0.3338  0.1864  0.6718
  810SOL    HW2 3239   2.135   1.300   2.284  1.0306 -1.8112 -2.4208
  810SOL     MW 3240   2.213   1.292   2.251 -0.2649 -0.1952 -0.6446
  811SOL     OW 3241   1.554   0.134   2.287  0.3456 -0.3173  0.2460
  811SOL    HW1 3242   1.623   0.071   2.325  0.0059 -0.3836 -0.2558
  811SOL    HW2 3243   1.526   0.094   2.206  1.5983  1.8646 -0.7672
  811SOL     MW 3244   1.560   0.121   2.282  0.4661 -0.0382  0.0461
  812SOL     OW 3245   1.441   2.812   1.977  0.1328  0.2979  0.0939
  812SOL    HW1 3246   1.531   2.833   1.955 -0.4498 -0.6130  1.1450
  812SOL    HW2 3247   1.450   2.786   2.071  2.4240 -0.2167  1.0832
  812SOL     MW 3248   1.454   2.811   1.986  0.3582  0.1098  0.3631
  813SOL     OW 3249   1.887   0.700   2.232 -0.5474 -0.0553 -0.0297
  813SOL    HW1 3250   1.837   0.616   2.246 -4.3778 -3.1390 -3.1907
  813SOL    HW2 3251   1.854   0.760   2.303 -0.2891  1.0261 -0.2879
  813SOL     MW 3252   1.876   0.697   2.244 -1.0187 -0.3195 -0.4808
  814SOL     OW 3253   2.687   1.238   1.636  0.2618  0.2591  0.1508
  814SOL    HW1 3254   2.696   1.156   1.691  1.8300  1.8514 -0.6632
  814SOL    HW2 3255   2.697   1.218   1.540  0.0789  1.2720 -3.3089
  814SOL     MW 3256   2.689   1.225   1.631  0.4446  0.6028 -0.4131
  815SOL     OW 3257   2.538   1.739   2.398  0.2600 -0.9184 -0.6371
  815SOL    HW1 3258   2.492   1.662   2.374 -1.0639  5.7065 -0.2666
  815SOL    HW2 3259   2.633   1.716   2.406  0.0616 -0.5225  1.1171
  815SOL     MW 3260   2.545   1.726   2.396  0.0592  0.0079 -0.3568
  816SOL     OW 3261   0.768   0.661   2.748  0.1312 -1.0521  0.1473
  816SOL    HW1 3262   0.777   0.583   2.800  1.9561  1.4676  0.4942
  816SOL    HW2 3263   0.677   0.677   2.708 -1.9127 -0.3665  2.6845
  816SOL     MW 3264   0.757   0.653   2.750  0.1023 -0.6292  0.5278
  817SOL     OW 3265   3.042   1.237   1.466  0.1151  0.1048  0.2166
  817SOL    HW1 3266   3.134   1.246   1.486  1.0815  0.4354  2.0670
  817SOL    HW2 3267   3.014   1.319   1.427 -1.9082  1.5936  0.1671
  817SOL     MW 3268   3.051   1.249   1.464 -0.0244  0.3448  0.4542
  818SOL     OW 3269   1.875   1.021   2.696  0.0855 -0.5339 -0.3411
  818SOL    HW1 3270   1.852   1.003   2.602  0.4262 -0.4138  1.8328
  818SOL    HW2 3271   1.950   0.963   2.707 -0.2321 -1.2420 -1.6730
  818SOL     MW 3272   1.882   1.011   2.685  0.0885 -0.6114 -0.2300
  819SOL     OW 3273   1.943   0.203   2.431 -0.3227  0.2885 -0.2506
  819SOL    HW1 3274   1.886   0.278   2.437  2.7110  1.0593  1.1396
  819SOL    HW2 3275   1.978   0.198   2.522  2.3326 -3.9923  1.5774
  819SOL     MW 3276   1.940   0.212   2.444  0.4279 -0.1746  0.1740
  820SOL     OW 3277   2.525   1.759   2.689 -0.2049 -0.1332 -0.2606
  820SOL    HW1 3278   2.582   1.689   2.732  0.2576 -0.9253  1.1343
  820SOL    HW2 3279   2.531   1.741   2.596  0.1472  3.1166  1.5009
  820SOL     MW 3280   2.533   1.747   2.682 -0.0974  0.1911  0.1558
  821SOL     OW 3281   2.558   1.413   2.059  0.1240  0.3078  0.0115
  821SOL    HW1 3282   2.604   1.461   1.991  1.8244  0.0680 -1.3626
  821SOL    HW2 3283   2.457   1.401   2.036 -2.0898 -0.5781  2.5402
  821SOL     MW 3284   2.551   1.417   2.047  0.0563  0.1593  0.1639
  822SOL     OW 3285   2.725   2.643   1.381 -0.6249  0.0309 -0.5637
  822SOL    HW1 3286   2.749   2.650   1.471  1.0226  0.5970 -2.8172
  822SOL    HW2 3287   2.659   2.705   1.364  0.4660  0.1744  2.0893
  822SOL     MW 3288   2.720   2.652   1.391 -0.2636  0.1245 -0.5110
  823SOL     OW 3289   2.308   0.465   1.779 -0.4125 -0.0603 -0.1648
  823SOL    HW1 3290   2.376   0.430   1.723  0.2648  3.5837 -1.9825
  823SOL    HW2 3291   2.234   0.402   1.772 -2.4851  3.2861 -0.7637
  823SOL     MW 3292   2.307   0.452   1.771 -0.5966  0.8620 -0.4836
  824SOL     OW 3293   2.121   1.460   2.526 -0.4681 -0.3180 -0.5168
  824SOL    HW1 3294   2.192   1.504   2.479 -0.1658 -0.6300 -1.4289
  824SOL    HW2 3295   2.080   1.523   2.588  0.8783 -0.6903 -1.0513
  824SOL     MW 3296   2.125   1.474   2.528 -0.2506 -0.4083 -0.7077
  825SOL     OW 3297   1.861   2.546   0.292  0.7873  0.3503  0.0479
  825SOL    HW1 3298   1.871   2.472   0.357 -0.0563 -0.4351 -1.6002
  825SOL    HW2 3299   1.926   2.528   0.222 -0.9701 -0.8954 -0.3210
  825SOL     MW 3300   1.871   2.534   0.291  0.4441  0.0824 -0.2182
  826SOL     OW 3301   1.882   2.362   0.533  0.2874  0.3303 -0.0007
  826SOL    HW1 3302   1.822   2.301   0.584 -1.5449  0.7794  1.6024
  826SOL    HW2 3303   1.863   2.444   0.578  1.9049 -1.3392  1.5547
  826SOL     MW 3304   1.871   2.365   0.546  0.2590  0.1693  0.4160
  827SOL     OW 3305   1.936   2.203   0.939 -0.5244  0.0546  0.0078
  827SOL    HW1 3306   1.879   2.270   0.903  2.3086 -1.9269  1.2343
  827SOL    HW2 3307   1.868   2.138   0.958 -1.3760 -0.2520  3.9959
  827SOL     MW 3308   1.920   2.203   0.937 -0.2629 -0.2473  0.6958
  828SOL     OW 3309   0.073   2.616   0.592  0.5782  0.2490  0.3535
  828SOL    HW1 3310   0.170   2.616   0.595 -0.1890 -3.3298  1.1260
  828SOL    HW2 3311   0.039   2.635   0.499 -1.7173 -0.9276 -1.3853
  828SOL     MW 3312   0.082   2.618   0.580  0.1741 -0.3784  0.2260
  829SOL     OW 3313   2.929   2.957   1.139 -0.7895 -0.1154  0.0172
  829SOL    HW1 3314   2.842   2.924   1.119 -0.0479  0.7640  1.1252
  829SOL    HW2 3315   2.993   2.884   1.139  0.1475 -1.2197  0.1715
  829SOL     MW 3316   2.926   2.943   1.137 -0.5681 -0.1451  0.1838
  830SOL     OW 3317   2.513   2.887   2.021  0.2178  0.1222  0.0024
  830SOL    HW1 3318   2.419   2.889   2.000  0.1227  2.3946 -0.0880
  830SOL    HW2 3319   2.552   2.848   1.944  2.2057 -2.0379  1.0409
  830SOL     MW 3320   2.506   2.882   2.008  0.4675  0.1370  0.1275
  831SOL     OW 3321   2.389   2.474   1.266  0.1179 -0.2052  0.5693
  831SOL    HW1 3322   2.359   2.437   1.356 -1.0489 -1.3705  2.3464
  831SOL    HW2 3323   2.478   2.431   1.254  0.1229  1.2481  2.3568
  831SOL     MW 3324   2.397   2.464   1.277 -0.0354 -0.1672  1.0396
  832SOL     OW 3325   2.401   2.182   1.920  0.3319 -0.0114  0.0417
  832SOL    HW1 3326   2.407   2.263   1.974  1.6734  0.4691 -0.9406
  832SOL    HW2 3327   2.487   2.180   1.874 -0.1576  2.4728  0.1326
  832SOL     MW 3328   2.413   2.192   1.921  0.4443  0.3797 -0.0759
  833SOL     OW 3329   1.765   2.405   0.860 -0.1911  0.2470 -0.2256
  833SOL    HW1 3330   1.671   2.402   0.869  4.0080 -1.4991  0.6553
  833SOL    HW2 3331   1.808   2.435   0.938  3.0028  1.3286  2.6493
  833SOL     MW 3332   1.758   2.409   0.872  0.7843  0.1593  0.2699
  834SOL     OW 3333   2.136   2.479   0.581 -0.1838 -0.3196 -0.0243
  834SOL    HW1 3334   2.064   2.418   0.580  1.7567 -1.4968 -3.1522
  834SOL    HW2 3335   2.181   2.474   0.502  0.7787 -0.8385 -2.8067
  834SOL     MW 3336   2.133   2.470   0.571  0.1992 -0.5434 -0.8041
  835SOL     OW 3337   1.789   2.600   0.665 -0.0223 -0.5209 -0.3543
  835SOL    HW1 3338   1.774   2.547   0.746  0.1310 -0.1527 -2.7541
  835SOL    HW2 3339   1.865   2.650   0.685 -1.1207 -0.3243  2.7525
  835SOL     MW 3340   1.797   2.600   0.678 -0.1470 -0.4464 -0.2610
  836SOL     OW 3341   1.900   2.203   1.617  0.1582  0.2362  0.1342
  836SOL    HW1 3342   1.975   2.242   1.662  1.3704  0.3315 -0.9354
  836SOL    HW2 3343   1.824   2.257   1.640 -1.4991 -0.9133 -1.3494
  836SOL     MW 3344   1.900   2.215   1.626  0.0995  0.0971 -0.2027
  837SOL     OW 3345   2.133   0.175   0.721  0.4456  0.5090  0.1512
  837SOL    HW1 3346   2.042   0.209   0.703  0.0454  2.7058  1.1163
  837SOL    HW2 3347   2.158   0.157   0.625  2.3479  2.1826 -1.3527
  837SOL     MW 3348   2.124   0.177   0.706  0.6438  1.0196  0.0801
  838SOL     OW 3349   2.953   2.123   0.934  0.1744  0.6485 -0.1236
  838SOL    HW1 3350   2.902   2.072   0.998  0.2032  0.4500  1.7291
  838SOL    HW2 3351   2.997   2.061   0.880 -1.7920  0.8807 -1.7194
  838SOL     MW 3352   2.952   2.108   0.935 -0.0812  0.6529 -0.0897
  839SOL     OW 3353   1.513   2.354   0.958  0.4189 -0.2017  0.3072
  839SOL    HW1 3354   1.523   2.438   1.001  1.0096  0.8049 -0.7449
  839SOL    HW2 3355   1.523   2.277   1.018  0.9719 -1.2813  0.6013
  839SOL     MW 3356   1.516   2.355   0.971  0.5698 -0.2113  0.2072
  840SOL     OW 3357   2.349   2.091   2.414 -0.1920 -0.1066 -0.4179
  840SOL    HW1 3358   2.316   2.164   2.366  1.9311 -2.0560  3.9749
  840SOL    HW2 3359   2.381   2.132   2.496 -0.1501  2.3690 -1.8757
  840SOL     MW 3360   2.349   2.106   2.418  0.0937 -0.0372 -0.0306
  841SOL     OW 3361   2.077   2.479   0.137 -0.0115 -0.1075 -0.0213
  841SOL    HW1 3362   2.133   2.511   0.063 -0.3854 -1.3726 -0.5701
  841SOL    HW2 3363   2.042   2.388   0.112 -0.1475 -2.6345  0.2356
  841SOL     MW 3364   2.080   2.471   0.124 -0.0788 -0.6078 -0.0598
  842SOL     OW 3365   2.599   1.981   1.562  0.3723 -0.7151  0.2974
  842SOL    HW1 3366   2.554   1.903   1.577  2.0865 -2.2490 -0.8564
  842SOL    HW2 3367   2.558   2.024   1.489 -0.6927  1.4911  0.2585
  842SOL     MW 3368   2.588   1.976   1.554  0.4579 -0.6264  0.1401
  843SOL     OW 3369   2.618   2.764   1.804 -0.7293 -0.2425  0.2452
  843SOL    HW1 3370   2.701   2.732   1.758  2.0187 -2.4698 -3.2689
  843SOL    HW2 3371   2.563   2.696   1.773  1.2206  2.7302  1.5846
  843SOL     MW 3372   2.622   2.751   1.794 -0.1094 -0.1442 -0.0417
  844SOL     OW 3373   2.599   2.308   1.189 -0.0522 -0.4589  0.4371
  844SOL    HW1 3374   2.634   2.329   1.104  0.8310  1.1264  3.4780
  844SOL    HW2 3375   2.668   2.313   1.263  2.8327  1.6499 -0.3135
  844SOL     MW 3376   2.613   2.311   1.187  0.4450  0.0285  0.7393
  845SOL     OW 3377   2.846   2.490   0.267  0.1656  0.0421  0.0140
  845SOL    HW1 3378   2.806   2.404   0.272 -1.5296  1.4669 -1.1762
  845SOL    HW2 3379   2.859   2.507   0.360 -0.7019  1.6955 -1.2362
  845SOL     MW 3380   2.843   2.481   0.280 -0.1725  0.4482 -0.3080
  846SOL     OW 3381   1.534   2.898   0.766  0.8267 -0.5229 -0.0990
  846SOL    HW1 3382   1.595   2.928   0.838  0.1148 -0.0507  3.1581
  846SOL    HW2 3383   1.451   2.934   0.802 -2.2625  0.0039  0.4304
  846SOL     MW 3384   1.531   2.907   0.781  0.3252 -0.3911  0.4006
  847SOL     OW 3385   2.578   1.924   0.169  0.0690 -0.1503  0.6379
  847SOL    HW1 3386   2.659   1.864   0.180  0.1457 -1.1198  1.1355
  847SOL    HW2 3387   2.525   1.896   0.088 -0.1288  0.8225 -1.1823
  847SOL     MW 3388   2.582   1.913   0.160  0.0530 -0.1498  0.4634
  848SOL     OW 3389   2.497   2.117   1.353  0.4501  0.0956  1.1211
  848SOL    HW1 3390   2.538   2.170   1.283  2.3391 -0.9667  0.5340
  848SOL    HW2 3391   2.471   2.036   1.309  0.1649 -1.3689  1.0621
  848SOL     MW 3392   2.499   2.113   1.338  0.6617 -0.2378  1.0358
  849SOL     OW 3393   2.000   2.743   0.747  0.6328 -0.0454  0.2217
  849SOL    HW1 3394   2.037   2.671   0.799 -2.9010  1.5205 -1.2616
  849SOL    HW2 3395   2.078   2.782   0.698  1.8786  1.7457 -1.4800
  849SOL     MW 3396   2.015   2.739   0.747  0.3309  0.3975 -0.1985
  850SOL     OW 3397   2.186   1.948   1.659  0.3427 -0.1365 -0.5485
  850SOL    HW1 3398   2.100   1.915   1.634  1.0701 -4.9130 -2.4687
  850SOL    HW2 3399   2.191   2.041   1.628 -2.1102 -0.5993 -1.5558
  850SOL     MW 3400   2.175   1.956   1.651  0.1150 -0.8278 -0.9347
  851SOL     OW 3401   2.256   2.420   0.338  0.3769  0.0999 -0.1603
  851SOL    HW1 3402   2.200   2.429   0.258  0.6012 -0.3031  0.6534
  851SOL    HW2 3403   2.327   2.484   0.315  0.7243  0.5684  0.8626
  851SOL     MW 3404   2.258   2.430   0.325  0.4523  0.1085  0.0821
  852SOL     OW 3405   2.360   2.164   0.240  0.1709 -0.2520  0.1785
  852SOL    HW1 3406   2.329   2.235   0.297 -0.0395 -1.8235  2.5060
  852SOL    HW2 3407   2.463   2.168   0.236  1.2734  0.9555  0.3495
  852SOL     MW 3408   2.370   2.174   0.247  0.2886 -0.3000  0.5082
  853SOL     OW 3409   2.489   2.427   2.016 -0.3170 -0.3812  0.1458
  853SOL    HW1 3410   2.493   2.472   1.934  0.6424  0.8564 -0.6450
  853SOL    HW2 3411   2.575   2.430   2.052 -1.0550  0.2725 -0.0734
  853SOL     MW 3412   2.501   2.433   2.010 -0.2878 -0.1316  0.0126
  854SOL     OW 3413   2.796   2.267   0.766 -0.3219 -0.0330 -0.4273
  854SOL    HW1 3414   2.726   2.213   0.728  1.2691 -1.6288  0.1580
  854SOL    HW2 3415   2.859   2.211   0.816  0.6848  0.0939 -1.4677
  854SOL     MW 3416   2.796   2.253   0.768  0.0208 -0.2268 -0.4873
  855SOL     OW 3417   2.699   2.259   0.356 -0.0100 -0.0413  0.0435
  855SOL    HW1 3418   2.698   2.320   0.425  0.5820 -0.8158 -1.4288
  855SOL    HW2 3419   2.761   2.195   0.388  2.3291 -1.6728 -0.5984
  855SOL     MW 3420   2.707   2.259   0.370  0.3767 -0.3587 -0.2354
  856SOL     OW 3421   2.210   1.920   0.199 -0.0608  0.3469  0.0726
  856SOL    HW1 3422   2.126   1.951   0.241  0.5287  0.1200  0.2751
  856SOL    HW2 3423   2.262   2.002   0.204 -0.1673  1.8485  0.7244
  856SOL     MW 3424   2.206   1.935   0.205  0.0029  0.5151  0.1853
  857SOL     OW 3425   2.576   1.964   0.443  0.1225 -0.1099  0.0306
  857SOL    HW1 3426   2.603   2.051   0.443 -0.9083 -2.1186  0.5233
  857SOL    HW2 3427   2.567   1.949   0.343 -0.4657  2.6546 -4.0220
  857SOL     MW 3428   2.579   1.973   0.430 -0.0911 -0.0101 -0.4391
  858SOL     OW 3429   2.826   2.666   1.655  0.0550  0.4412  0.3684
  858SOL    HW1 3430   2.912   2.685   1.689 -0.4480 -1.4593 -0.1390
  858SOL    HW2 3431   2.794   2.596   1.706 -0.7772 -0.2363  2.7731
  858SOL     MW 3432   2.833   2.660   1.666 -0.1212  0.1011  0.6187
  859SOL     OW 3433   2.125   2.535   0.894  0.2313 -0.1047  0.3430
  859SOL    HW1 3434   2.109   2.456   0.842  1.3976 -2.4375  0.0207
  859SOL    HW2 3435   2.221   2.525   0.917  0.3249  1.7830 -1.6120
  859SOL     MW 3436   2.135   2.523   0.890  0.3976 -0.1635  0.0425
  860SOL     OW 3437   2.616   2.589   0.156 -0.1626 -0.1591  0.8690
  860SOL    HW1 3438   2.676   2.548   0.214 -0.2368 -0.0390 -0.6206
  860SOL    HW2 3439   2.670   2.661   0.127  2.1709 -0.3214 -0.1440
  860SOL     MW 3440   2.631   2.593   0.160  0.1355 -0.1647  0.5388
  861SOL     OW 3441   1.547   2.134   1.117  0.0564  0.2164 -0.4045
  861SOL    HW1 3442   1.563   2.211   1.186  2.6869  1.5207 -0.5063
  861SOL    HW2 3443   1.504   2.078   1.173 -1.9894  0.5219  0.3951
  861SOL     MW 3444   1.543   2.137   1.133  0.1335  0.4288 -0.3124
  862SOL     OW 3445   2.412   1.768   1.558 -0.3353 -0.3930  0.0071
  862SOL    HW1 3446   2.326   1.810   1.565  1.6764  2.3166 -1.1568
  862SOL    HW2 3447   2.433   1.761   1.461 -1.6332  2.0701 -1.8744
  862SOL     MW 3448   2.403   1.772   1.546 -0.2411  0.2894 -0.3947
  863SOL     OW 3449   0.007   1.912   1.115 -0.5288  0.1732 -0.3487
  863SOL    HW1 3450   0.097   1.900   1.145  2.5477 -1.8016 -1.0224
  863SOL    HW2 3451  -0.027   1.974   1.186  1.5177 -0.0407  2.7134
  863SOL     MW 3452   0.014   1.919   1.129  0.1471 -0.1156 -0.0335
  864SOL     OW 3453   0.029   1.921   0.846  0.1193  0.3166 -0.5186
  864SOL    HW1 3454   0.010   1.912   0.942 -1.3383  0.6867 -2.0053
  864SOL    HW2 3455  -0.017   1.856   0.793 -1.2431 -3.4814 -0.6630
  864SOL     MW 3456   0.020   1.911   0.851 -0.2528 -0.1357 -0.7338
  865SOL     OW 3457   2.611   2.139   3.098 -0.0930 -0.3558 -0.3302
  865SOL    HW1 3458   2.618   2.061   3.157  1.1798 -0.5053  0.4680
  865SOL    HW2 3459   2.562   2.114   3.019 -1.3426 -0.3007 -0.5935
  865SOL     MW 3460   2.605   2.125   3.096 -0.0899 -0.3683 -0.2596
  866SOL     OW 3461   2.688   2.310   1.599 -0.0772  0.0052 -0.1299
  866SOL    HW1 3462   2.679   2.215   1.600 -1.0389 -0.8903 -1.1236
  866SOL    HW2 3463   2.744   2.339   1.523  2.6663 -2.0385  3.6604
  866SOL     MW 3464   2.694   2.301   1.589  0.1579 -0.3826  0.2391
  867SOL     OW 3465   0.002   2.659   1.784  0.2968 -0.4296 -0.1570
  867SOL    HW1 3466   0.042   2.649   1.868 -2.7848  2.4354 -0.7754
  867SOL    HW2 3467  -0.002   2.754   1.771 -2.5612  1.3093 -0.4624
  867SOL     MW 3468   0.007   2.670   1.793 -0.4869  0.1779 -0.2789
  868SOL     OW 3469   2.823   2.582   0.534 -0.2851  0.1091  0.0512
  868SOL    HW1 3470   2.731   2.563   0.553  0.8946 -2.1748  0.2536
  868SOL    HW2 3471   2.824   2.663   0.481  0.6416  0.2260 -3.0121
  868SOL     MW 3472   2.811   2.590   0.529 -0.0072 -0.1768 -0.3263
  869SOL     OW 3473   1.993   2.384   1.147 -0.1685 -0.0561  0.9751
  869SOL    HW1 3474   2.072   2.425   1.114  0.4185 -1.1559  1.3906
  869SOL    HW2 3475   1.970   2.316   1.078 -2.2030 -0.9131 -1.4179
  869SOL     MW 3476   2.000   2.380   1.133 -0.3595 -0.3143  0.7142
  870SOL     OW 3477   2.160   0.047   0.483  0.2279 -0.3058 -0.0044
  870SOL    HW1 3478   2.236   0.087   0.425 -0.0376  1.8666 -1.8949
  870SOL    HW2 3479   2.187  -0.048   0.484  0.8789  1.0091  1.1280
  870SOL     MW 3480   2.174   0.040   0.475  0.2788  0.1543 -0.1044
  871SOL     OW 3481   2.474   2.124   0.954  0.2826  0.0051  0.0935
  871SOL    HW1 3482   2.406   2.069   0.911  0.5574  1.9894  0.5550
  871SOL    HW2 3483   2.433   2.209   0.972  1.2169 -1.0209  1.4136
  871SOL     MW 3484   2.460   2.128   0.951  0.4421  0.1315  0.3285
  872SOL     OW 3485   2.036   2.557   1.457  0.0979  0.4456  0.8272
  872SOL    HW1 3486   1.988   2.585   1.538 -1.5105 -2.3826  0.6700
  872SOL    HW2 3487   1.977   2.485   1.430  0.7857 -0.7202  0.9817
  872SOL     MW 3488   2.022   2.551   1.464 -0.0236 -0.0814  0.8268
  873SOL     OW 3489   2.916   2.078   1.923  0.0098 -0.0066 -0.4877
  873SOL    HW1 3490   2.945   2.146   1.985 -1.0648  0.7893  1.0853
  873SOL    HW2 3491   2.944   2.122   1.842 -0.0661 -2.0390 -0.7008
  873SOL     MW 3492   2.924   2.093   1.920 -0.1420 -0.1697 -0.3083
  874SOL     OW 3493   2.394   1.519   2.374 -0.3820  0.5627 -0.0528
  874SOL    HW1 3494   2.355   1.473   2.306  1.5957  1.1580  0.3100
  874SOL    HW2 3495   2.469   1.459   2.384 -0.4570 -0.4097  1.8734
  874SOL     MW 3496   2.399   1.505   2.366 -0.1309  0.5129  0.2492
  875SOL     OW 3497   2.281   2.339   1.070  0.0416  0.4208 -0.4306
  875SOL    HW1 3498   2.335   2.385   1.005  1.2725  0.2076  2.1926
  875SOL    HW2 3499   2.326   2.374   1.152 -1.6974  1.1306 -0.6720
  875SOL     MW 3500   2.294   2.350   1.072 -0.0254  0.4863 -0.1163
  876SOL     OW 3501   3.048   2.317   1.239 -0.5920  0.0682 -0.0849
  876SOL    HW1 3502   3.067   2.321   1.143  0.1495  0.5235  0.6209
  876SOL    HW2 3503   3.110   2.384   1.279  2.3400 -0.2135  1.4923
  876SOL     MW 3504   3.058   2.327   1.232 -0.1073  0.0911  0.2163
  877SOL     OW 3505   3.085   2.719   0.369 -0.3362  0.3984 -0.2328
  877SOL    HW1 3506   3.150   2.789   0.367  0.2018  1.6140  0.3946
  877SOL    HW2 3507   3.094   2.676   0.286 -0.5190 -1.8053  0.5729
  877SOL     MW 3508   3.095   2.722   0.358 -0.2893  0.2680 -0.0437
  878SOL     OW 3509   2.423   1.859   1.282  0.3986  0.5204  0.4466
  878SOL    HW1 3510   2.356   1.799   1.248 -0.3456 -1.2092  1.7036
  878SOL    HW2 3511   2.505   1.831   1.247  1.0474 -0.3575 -2.2177
  878SOL     MW 3512   2.425   1.847   1.273  0.3860  0.1763  0.2609
  879SOL     OW 3513   2.673   2.428   0.959  0.0330  0.1247  0.0199
  879SOL    HW1 3514   2.733   2.487   1.004  0.4199  0.7102  1.1114
  879SOL    HW2 3515   2.733   2.389   0.890  0.9276  1.8011 -1.6637
  879SOL     MW 3516   2.689   2.430   0.956  0.2021  0.4232 -0.0582
  880SOL     OW 3517   2.526   2.168   0.678  0.5525  0.4366 -0.2843
  880SOL    HW1 3518   2.524   2.154   0.773  0.2086 -3.3025  3.5064
  880SOL    HW2 3519   2.501   2.083   0.644 -2.2065  2.1710  0.8465
  880SOL     MW 3520   2.523   2.155   0.686  0.1431  0.1721  0.3651
  881SOL     OW 3521   2.965   2.652   0.771  0.2140 -0.0806  0.2344
  881SOL    HW1 3522   2.927   2.631   0.685 -2.0410  0.8096 -1.3174
  881SOL    HW2 3523   3.061   2.642   0.763  0.9184  0.6212  0.4193
  881SOL     MW 3524   2.973   2.648   0.759  0.0094  0.1294  0.0541
  882SOL     OW 3525   2.235   2.887   1.960 -0.1913  0.2173 -0.2286
  882SOL    HW1 3526   2.247   2.860   1.870  0.8686  0.4016 -1.2247
  882SOL    HW2 3527   2.196   2.807   2.003 -2.6801  1.3827 -0.8687
  882SOL     MW 3528   2.232   2.873   1.954 -0.3798  0.3954 -0.4445
  883SOL     OW 3529   2.312   2.295   1.461  0.4679 -0.3437  0.6766
  883SOL    HW1 3530   2.382   2.224   1.450  2.1768 -3.9360  1.1867
  883SOL    HW2 3531   2.235   2.267   1.405 -0.5494  0.3262 -1.2547
  883SOL     MW 3532   2.311   2.282   1.452  0.5592 -0.7293  0.4891
  884SOL     OW 3533   1.966   1.849   1.154 -0.5121 -0.0767  0.1711
  884SOL    HW1 3534   1.884   1.894   1.139  0.1687  1.0355  1.8074
  884SOL    HW2 3535   2.029   1.915   1.136 -0.4925  0.1040 -2.7487
  884SOL     MW 3536   1.964   1.864   1.150 -0.4197  0.0939  0.0018
  885SOL     OW 3537   2.832   2.424   1.799  0.3538 -0.0914  0.5045
  885SOL    HW1 3538   2.924   2.386   1.796 -0.0997 -2.5506 -0.4361
  885SOL    HW2 3539   2.780   2.365   1.736 -1.6062 -1.2895  0.1591
  885SOL     MW 3540   2.837   2.411   1.791  0.0354 -0.5739  0.3348
  886SOL     OW 3541   2.793   2.388   1.364 -0.1815 -0.1301 -0.1465
  886SOL    HW1 3542   2.873   2.371   1.314  1.7108  0.8520 -1.0611
  886SOL    HW2 3543   2.765   2.483   1.352  2.1754  2.1574  2.2518
  886SOL     MW 3544   2.800   2.398   1.356  0.3792  0.3013  0.0493
  887SOL     OW 3545   2.306   2.602   1.528  0.3752 -0.1326  0.0216
  887SOL    HW1 3546   2.314   2.646   1.437  2.1489 -0.7005 -0.9850
  887SOL    HW2 3547   2.214   2.567   1.516 -0.3096 -0.4844 -0.4886
  887SOL     MW 3548   2.295   2.603   1.514  0.5188 -0.2539 -0.1785
  888SOL     OW 3549   1.839   2.121   1.348 -0.0646  0.0619 -0.3482
  888SOL    HW1 3550   1.913   2.114   1.292  0.1254 -1.6784 -1.3017
  888SOL    HW2 3551   1.884   2.107   1.429  1.4613 -0.4380 -0.6329
  888SOL     MW 3552   1.854   2.118   1.351  0.1618 -0.2336 -0.5116
  889SOL     OW 3553   2.336   1.978   2.105  0.0574  0.6455  0.3498
  889SOL    HW1 3554   2.415   1.973   2.160 -0.9694  0.5355 -0.2619
  889SOL    HW2 3555   2.360   2.055   2.051  1.8613  0.0084 -0.4139
  889SOL     MW 3556   2.350   1.988   2.105  0.1600  0.5469  0.1683
  890SOL     OW 3557   0.102   2.390   0.176 -0.2239  0.0012 -0.2991
  890SOL    HW1 3558   0.054   2.465   0.144 -0.2420 -1.3180 -1.8904
  890SOL    HW2 3559   0.053   2.337   0.236  0.8819 -1.5697 -2.2776
  890SOL     MW 3560   0.089   2.393   0.180 -0.0804 -0.3802 -0.7701
  891SOL     OW 3561   2.998   2.044   1.326  0.2317  0.0188 -0.0973
  891SOL    HW1 3562   3.084   2.026   1.374 -0.5640  0.4713  1.6486
  891SOL    HW2 3563   2.993   2.136   1.302  1.1662  0.0296 -0.2932
  891SOL     MW 3564   3.008   2.054   1.329  0.2500  0.0800  0.1072
  892SOL     OW 3565   2.437   2.359   2.849  0.2358  0.0363 -0.1131
  892SOL    HW1 3566   2.442   2.263   2.867  1.2760 -0.6339  0.6457
  892SOL    HW2 3567   2.531   2.375   2.859 -1.5117 -1.1101  1.6629
  892SOL     MW 3568   2.450   2.349   2.853  0.1425 -0.2034  0.2213
  893SOL     OW 3569   1.605   2.333   1.297 -0.1414 -0.2050  0.3311
  893SOL    HW1 3570   1.543   2.391   1.349 -0.9948  0.3812 -0.6255
  893SOL    HW2 3571   1.692   2.347   1.332 -1.6037 -1.1375  0.5707
  893SOL     MW 3572   1.608   2.343   1.308 -0.4469 -0.2507  0.2365
  894SOL     OW 3573   2.805   1.789   0.460  0.3682 -0.3794  0.1999
  894SOL    HW1 3574   2.702   1.790   0.462 -3.4515  0.0502  2.4526
  894SOL    HW2 3575   2.817   1.790   0.369 -3.4186 -0.4620  3.2292
  894SOL     MW 3576   2.793   1.789   0.448 -0.6354 -0.3336  0.8968
  895SOL     OW 3577   2.116   2.198   1.313 -0.2492 -0.3590  0.1741
  895SOL    HW1 3578   2.081   2.260   1.253  2.1273  1.6531  1.0440
  895SOL    HW2 3579   2.155   2.123   1.252 -1.0316  1.2101 -0.8617
  895SOL     MW 3580   2.117   2.196   1.297 -0.0389  0.1135  0.1522
  896SOL     OW 3581   2.142   2.812   1.086 -0.3858 -0.0821 -0.1901
  896SOL    HW1 3582   2.185   2.796   1.171  0.9398 -0.5832  0.8002
  896SOL    HW2 3583   2.075   2.751   1.078  3.8621  0.0474 -0.3291
  896SOL     MW 3584   2.139   2.802   1.096  0.3496 -0.1311 -0.0778
  897SOL     OW 3585   3.014   2.907   0.106 -0.1106 -0.1573  0.0357
  897SOL    HW1 3586   3.079   2.849   0.143  1.3396 -1.4779  1.1836
  897SOL    HW2 3587   2.945   2.840   0.097 -3.5553 -2.2653  2.3433
  897SOL     MW 3588   3.014   2.890   0.110 -0.3737 -0.6096  0.4916
  898SOL     OW 3589   2.066   0.254   1.402 -0.1949 -0.2457  0.3483
  898SOL    HW1 3590   1.994   0.191   1.406  0.5267  1.0170  1.4829
  898SOL    HW2 3591   2.078   0.272   1.310 -1.8115 -1.2235 -1.4255
  898SOL     MW 3592   2.058   0.248   1.390 -0.3130 -0.2081  0.2640
  899SOL     OW 3593   2.923   2.903   0.638  0.2808  0.5064  0.1636
  899SOL    HW1 3594   2.932   2.826   0.696 -0.8591  1.0695 -1.3597
  899SOL    HW2 3595   2.836   2.940   0.659  1.6931  0.5361  0.3340
  899SOL     MW 3596   2.912   2.898   0.649  0.3168  0.5846 -0.0149
  900SOL     OW 3597   0.078   2.411   0.995 -0.3713  0.3679 -0.0052
  900SOL    HW1 3598   0.094   2.495   0.948 -0.6875  2.4535 -0.2192
  900SOL    HW2 3599   0.088   2.343   0.928  0.5877  0.7524 -3.0564
  900SOL     MW 3600   0.081   2.413   0.980 -0.2865  0.6938 -0.4360
  901SOL     OW 3601   1.817   2.854   1.685 -0.2968 -0.3997  0.1563
  901SOL    HW1 3602   1.870   2.777   1.695  0.3750 -0.9478 -2.5884
  901SOL    HW2 3603   1.767   2.834   1.606  0.6331 -0.8616  0.0728
  901SOL     MW 3604   1.817   2.841   1.676 -0.0855 -0.5330 -0.2168
  902SOL     OW 3605   2.645   2.128   1.852 -0.0394  0.4199 -0.2535
  902SOL    HW1 3606   2.604   2.039   1.848  2.1235 -3.0627  0.2420
  902SOL    HW2 3607   2.723   2.119   1.904 -0.6709 -1.4194 -0.6739
  902SOL     MW 3608   2.650   2.115   1.859  0.1627 -0.2823 -0.2436
  903SOL     OW 3609   1.599   2.788   0.532 -0.0466  0.0426  0.0626
  903SOL    HW1 3610   1.651   2.715   0.569 -1.1523 -0.3956 -0.0094
  903SOL    HW2 3611   1.569   2.840   0.610 -1.4169  2.7799  0.2076
  903SOL     MW 3612   1.602   2.785   0.547 -0.3732  0.3459  0.0722
  904SOL     OW 3613   2.512   2.502   1.717  0.0622 -0.3382 -0.0491
  904SOL    HW1 3614   2.446   2.528   1.656  0.5140 -0.5212  1.1208
  904SOL    HW2 3615   2.552   2.428   1.677 -1.6235 -0.0580 -0.5095
  904SOL     MW 3616   2.509   2.495   1.704 -0.1006 -0.3254  0.0445
  905SOL     OW 3617   2.306   2.541   2.183 -0.0092  0.3101 -0.6425
  905SOL    HW1 3618   2.381   2.512   2.123  2.5836 -1.9025  0.5354
  905SOL    HW2 3619   2.285   2.453   2.236  0.8582 -0.2506  1.5549
  905SOL     MW 3620   2.313   2.526   2.182  0.4473 -0.0558 -0.1971
  906SOL     OW 3621   2.408   2.512   0.926  0.1374  0.3075  0.3664
  906SOL    HW1 3622   2.503   2.494   0.912  1.0562  2.5365 -0.2212
  906SOL    HW2 3623   2.413   2.607   0.898 -0.3209  0.2545 -1.0312
  906SOL     MW 3624   2.421   2.522   0.921  0.1981  0.5946  0.1045
  907SOL     OW 3625   2.561   2.877   1.330  0.3502 -0.4372  0.2627
  907SOL    HW1 3626   2.632   2.926   1.371  1.0130 -1.0383 -1.7960
  907SOL    HW2 3627   2.590   2.866   1.233  0.7667 -1.4792 -0.9904
  907SOL     MW 3628   2.574   2.882   1.323  0.4926 -0.6540 -0.1742
  908SOL     OW 3629   2.777   2.377   0.011  0.1037  0.4929 -0.0995
  908SOL    HW1 3630   2.737   2.290   0.005  0.3072 -3.4029  1.3598
  908SOL    HW2 3631   2.726   2.437   0.067 -0.2123 -1.9067  1.1872
  908SOL     MW 3632   2.765   2.374   0.018  0.0889 -0.3377  0.2628
  909SOL     OW 3633   1.620   0.176   1.173  0.7461 -0.2171 -0.0129
  909SOL    HW1 3634   1.642   0.243   1.107 -0.9147  2.1727 -0.3515
  909SOL    HW2 3635   1.598   0.224   1.256 -0.1234  1.1901  2.0218
  909SOL     MW 3636   1.620   0.191   1.175  0.4123  0.2838  0.2109
  910SOL     OW 3637   2.311   1.803   0.436 -0.4100  0.0902 -0.4265
  910SOL    HW1 3638   2.245   1.730   0.444 -1.8436  0.7907  0.0157
  910SOL    HW2 3639   2.285   1.840   0.350 -1.8499  1.7237  0.2947
  910SOL     MW 3640   2.299   1.798   0.425 -0.7891  0.3981 -0.2730
  911SOL     OW 3641   2.212   2.237   1.705 -0.0869 -0.3152  0.3072
  911SOL    HW1 3642   2.291   2.206   1.753  0.1204 -0.9165 -0.5378
  911SOL    HW2 3643   2.244   2.273   1.616 -0.3552 -0.0105 -0.6971
  911SOL     MW 3644   2.227   2.238   1.699 -0.0949 -0.3543  0.0632
  912SOL     OW 3645   2.843   1.907   1.496  0.2504 -0.5184  0.3429
  912SOL    HW1 3646   2.892   1.955   1.423  1.0696  1.2736 -2.1654
  912SOL    HW2 3647   2.751   1.932   1.505  0.1808 -0.4856  1.4225
  912SOL     MW 3648   2.837   1.916   1.488  0.3493 -0.2777  0.1544
  913SOL     OW 3649   2.581   3.005   0.361  0.0399  0.3067  0.0632
  913SOL    HW1 3650   2.658   2.947   0.355  0.0567 -0.8127 -1.1502
  913SOL    HW2 3651   2.511   2.962   0.411  0.4147  0.8094 -1.0383
  913SOL     MW 3652   2.582   2.992   0.367  0.0915  0.2253 -0.2422
  914SOL     OW 3653   2.753   1.662   3.046 -0.0555  0.4260  0.1938
  914SOL    HW1 3654   2.773   1.739   2.996  1.8279  2.0729 -1.3008
  914SOL    HW2 3655   2.668   1.686   3.079  1.3800 -0.1987 -1.7295
  914SOL     MW 3656   2.744   1.675   3.044  0.3824  0.5609 -0.2572
  915SOL     OW 3657   1.789   0.249   0.208 -0.8104  0.0032  0.7121
  915SOL    HW1 3658   1.849   0.184   0.236 -1.5436  0.8291 -0.0544
  915SOL    HW2 3659   1.699   0.213   0.207 -0.1771 -1.1992 -0.4573
  915SOL     MW 3660   1.785   0.236   0.211 -0.8236 -0.0465  0.4567
  916SOL     OW 3661   1.720   2.059   1.944  0.2990  0.0065  0.3757
  916SOL    HW1 3662   1.793   2.122   1.936  2.2426 -3.2836 -1.0465
  916SOL    HW2 3663   1.723   2.004   1.864  2.3030  0.8352  0.4365
  916SOL     MW 3664   1.730   2.060   1.933  0.8198 -0.3183  0.1961
  917SOL     OW 3665   2.422   2.322   2.558 -0.0408 -0.1143 -0.3285
  917SOL    HW1 3666   2.444   2.359   2.644 -1.4386  1.4801 -1.8033
  917SOL    HW2 3667   2.480   2.361   2.492 -0.3046 -0.9999 -1.0133
  917SOL     MW 3668   2.432   2.332   2.561 -0.2600 -0.0208 -0.6134
  918SOL     OW 3669   1.999   1.644   2.717 -0.3296  0.1873  0.3206
  918SOL    HW1 3670   1.941   1.663   2.638 -0.9432 -0.7485  0.7090
  918SOL    HW2 3671   2.089   1.679   2.704  1.7731 -1.0385  0.7236
  918SOL     MW 3672   2.003   1.651   2.705 -0.1331 -0.0979  0.4250
  919SOL     OW 3673   0.047   2.354   2.239 -0.2422  0.3815  0.3049
  919SOL    HW1 3674  -0.034   2.305   2.216 -2.4164  0.3503 -2.5331
  919SOL    HW2 3675   0.113   2.340   2.172 -0.6155 -1.0982 -0.4710
  919SOL     MW 3676   0.045   2.346   2.227 -0.5783  0.1822 -0.1719
  920SOL     OW 3677   2.778   2.783   0.020  0.5922  0.0118  0.0324
  920SOL    HW1 3678   2.699   2.834   0.050 -0.7032  0.3672  2.3214
  920SOL    HW2 3679   2.768   2.781  -0.079 -0.4636  0.5746  0.4089
  920SOL     MW 3680   2.766   2.790   0.011  0.2820  0.1329  0.3841
  921SOL     OW 3681   2.396   2.638   2.674 -0.3339 -0.0748 -0.1673
  921SOL    HW1 3682   2.477   2.638   2.626 -1.9034 -2.1989 -5.6715
  921SOL    HW2 3683   2.412   2.611   2.761 -1.0581  1.1114 -2.1904
  921SOL     MW 3684   2.409   2.634   2.679 -0.6365 -0.1986 -1.1604
  922SOL     OW 3685   2.006   2.780   0.302  0.0125  0.5166  0.2985
  922SOL    HW1 3686   1.969   2.778   0.212  1.2841 -0.3523  2.1611
  922SOL    HW2 3687   1.982   2.694   0.337  0.3443 -3.0770  0.4778
  922SOL     MW 3688   1.998   2.768   0.295  0.2240 -0.0722  0.5679
  923SOL     OW 3689   2.207   2.793   1.689 -0.0907  0.2759 -0.3847
  923SOL    HW1 3690   2.269   2.741   1.634  1.2527  0.6615  0.7397
  923SOL    HW2 3691   2.171   2.846   1.618  0.1751 -3.4121 -1.6466
  923SOL     MW 3692   2.211   2.793   1.672  0.1216 -0.1598 -0.4028
  924SOL     OW 3693   1.197   2.669   2.563 -0.1232 -0.8906  0.0385
  924SOL    HW1 3694   1.260   2.737   2.531  3.8129  0.0557  1.3273
  924SOL    HW2 3695   1.262   2.597   2.574  0.6743  2.0028  0.2436
  924SOL     MW 3696   1.214   2.669   2.560  0.5014 -0.3840  0.2356
  925SOL     OW 3697   2.937   0.243   2.595 -0.7361  0.6041 -0.0060
  925SOL    HW1 3698   2.889   0.264   2.521  2.3595  0.5004  0.7225
  925SOL    HW2 3699   2.898   0.312   2.657 -0.2611  0.4944 -1.0323
  925SOL     MW 3700   2.925   0.255   2.593 -0.2650  0.5760 -0.0453
  926SOL     OW 3701   2.742   2.414   2.097  0.2618  0.4083 -0.1242
  926SOL    HW1 3702   2.792   2.471   2.159 -0.3806 -0.3422  2.6904
  926SOL    HW2 3703   2.766   2.427   2.004  0.5386 -1.4569 -1.5111
  926SOL     MW 3704   2.752   2.423   2.093  0.2136  0.0632  0.0642
  927SOL     OW 3705   2.325   0.167   0.307 -0.2123 -0.6802  0.2502
  927SOL    HW1 3706   2.421   0.181   0.311  2.8037 -1.4936  2.7383
  927SOL    HW2 3707   2.317   0.127   0.215  0.6939 -0.7563 -2.6153
  927SOL     MW 3708   2.337   0.163   0.296  0.3052 -0.7975  0.2004
  928SOL     OW 3709   2.077   2.438   1.867  0.1601 -0.4481  0.1726
  928SOL    HW1 3710   2.144   2.384   1.823  0.8210 -0.7143 -1.1814
  928SOL    HW2 3711   2.117   2.474   1.943  0.8041 -0.4647  0.8510
  928SOL     MW 3712   2.091   2.436   1.871  0.3323 -0.4854  0.0835
  929SOL     OW 3713   2.658   2.371   2.412  0.0778 -0.1044  0.0208
  929SOL    HW1 3714   2.712   2.357   2.333  0.2850  0.0169 -2.5604
  929SOL    HW2 3715   2.707   2.339   2.487 -2.0358  1.2264 -1.0312
  929SOL     MW 3716   2.671   2.365   2.411 -0.1737  0.0872 -0.4585
  930SOL     OW 3717   2.002   2.844   2.679 -0.1757 -0.4352  0.2869
  930SOL    HW1 3718   2.034   2.766   2.732  0.9659  0.7042 -2.5274
  930SOL    HW2 3719   2.073   2.905   2.666 -1.4715  2.3593  1.6738
  930SOL     MW 3720   2.016   2.842   2.684 -0.1961  0.0838  0.0986
  931SOL     OW 3721   2.981   2.773   2.275  0.5981  0.1192  0.5412
  931SOL    HW1 3722   3.030   2.807   2.352  0.9940 -0.5070  0.9914
  931SOL    HW2 3723   3.043   2.776   2.200  2.3417 -1.2239 -2.5468
  931SOL     MW 3724   2.996   2.778   2.275  0.8804 -0.1406  0.1932
  932SOL     OW 3725   2.904   1.982   2.498 -0.3729  0.3025  0.4251
  932SOL    HW1 3726   2.996   2.001   2.518 -0.6951 -0.9780 -2.6370
  932SOL    HW2 3727   2.897   1.996   2.403 -0.0883 -0.3570  1.1743
  932SOL     MW 3728   2.915   1.987   2.488 -0.3778  0.0465  0.1200
  933SOL     OW 3729   2.074   2.881   2.246 -0.2902 -0.2286  0.1619
  933SOL    HW1 3730   2.159   2.922   2.264  0.7585 -1.1893 -1.5993
  933SOL    HW2 3731   2.013   2.955   2.231  1.3447  1.7047 -2.4268
  933SOL     MW 3732   2.077   2.896   2.246  0.0639 -0.1002 -0.4120
  934SOL     OW 3733   2.011   2.711   2.451  0.5028 -0.2207  0.5056
  934SOL    HW1 3734   2.011   2.759   2.535  0.0349 -0.4267 -0.6416
  934SOL    HW2 3735   2.031   2.774   2.383  1.5672 -1.5796 -1.5777
  934SOL     MW 3736   2.014   2.726   2.453  0.5815 -0.4272  0.0794
  935SOL     OW 3737   2.651   1.591   1.829  0.8612  0.2928  0.2967
  935SOL    HW1 3738   2.737   1.575   1.794 -1.0487  1.0229  0.3980
  935SOL    HW2 3739   2.602   1.550   1.756 -0.4021 -0.8028 -3.1920
  935SOL     MW 3740   2.656   1.584   1.814  0.4425  0.2446 -0.1502
  936SOL     OW 3741   3.025   2.275   3.070 -0.1288  0.1674  0.1453
  936SOL    HW1 3742   3.094   2.311   3.128  0.1411  0.6022  0.1367
  936SOL    HW2 3743   2.953   2.332   3.092  0.6601 -0.3592 -1.5247
  936SOL     MW 3744   3.025   2.287   3.080  0.0109  0.1553 -0.0762
  937SOL     OW 3745   2.002   2.155   2.708 -0.2683 -0.4328  0.0969
  937SOL    HW1 3746   2.091   2.110   2.729  2.1016 -4.6366  0.5769
  937SOL    HW2 3747   1.969   2.137   2.621 -0.9796  1.8719 -1.9526
  937SOL     MW 3748   2.009   2.146   2.700 -0.0494 -0.6834 -0.1102
  938SOL     OW 3749   2.313   1.810   1.895 -0.4009  0.2285 -0.3895
  938SOL    HW1 3750   2.276   1.867   1.822 -0.7956 -2.0246 -2.3134
  938SOL    HW2 3751   2.339   1.871   1.962 -0.1473 -2.1022 -0.9275
  938SOL     MW 3752   2.312   1.825   1.894 -0.4195 -0.3763 -0.7143
  939SOL     OW 3753   2.809   1.989   2.224 -0.6235  0.3424 -0.2679
  939SOL    HW1 3754   2.814   1.914   2.162  2.8001 -0.0114 -3.3540
  939SOL    HW2 3755   2.717   1.989   2.246 -0.3946  0.5120 -0.2441
  939SOL     MW 3756   2.797   1.979   2.219 -0.1416  0.3181 -0.6720
  940SOL     OW 3757   2.329   0.164   2.704  0.0274  0.3389  0.1369
  940SOL    HW1 3758   2.302   0.076   2.671 -0.6847 -1.4675 -0.0636
  940SOL    HW2 3759   2.376   0.154   2.784  1.0950  0.3854 -3.8478
  940SOL     MW 3760   2.331   0.151   2.710  0.0743  0.1067 -0.4153
  941SOL     OW 3761   0.191   2.263   2.036  0.1621 -0.2597 -0.5524
  941SOL    HW1 3762   0.282   2.239   2.022 -2.8714 -0.1921  0.8308
  941SOL    HW2 3763   0.150   2.286   1.944 -1.0120  1.5281 -1.6947
  941SOL     MW 3764   0.198   2.263   2.022 -0.3931 -0.0149 -0.5206
  942SOL     OW 3765   2.933   2.221   2.137  0.1851 -0.7206  0.2952
  942SOL    HW1 3766   2.857   2.271   2.098 -1.8660  1.0734 -0.0332
  942SOL    HW2 3767   2.894   2.138   2.171  0.3027  0.1885 -1.9363
  942SOL     MW 3768   2.918   2.217   2.137 -0.0700 -0.3639 -0.0426
  943SOL     OW 3769   0.364   2.014   2.319  0.2475  0.0941 -0.4605
  943SOL    HW1 3770   0.306   2.084   2.350 -3.2735 -0.4872 -0.0810
  943SOL    HW2 3771   0.444   2.009   2.366 -0.0133 -1.9632  0.5894
  943SOL     MW 3772   0.367   2.022   2.329 -0.2515 -0.2541 -0.2719
  944SOL     OW 3773   2.112   2.685   2.066  0.2215  0.3755 -0.0128
  944SOL    HW1 3774   2.163   2.615   2.111  2.6023 -0.0462 -0.8800
  944SOL    HW2 3775   2.084   2.746   2.135 -2.6120  0.4465 -0.0523
  944SOL     MW 3776   2.115   2.683   2.081  0.1617  0.3292 -0.1324
  945SOL     OW 3777   2.742   2.702   2.829  0.0666 -0.2596 -0.1253
  945SOL    HW1 3778   2.721   2.607   2.846 -0.3182 -1.3285  2.4248
  945SOL    HW2 3779   2.785   2.695   2.742 -2.2192 -3.1784 -0.5790
  945SOL     MW 3780   2.745   2.689   2.820 -0.2858 -0.7857  0.1513
  946SOL     OW 3781   2.487   2.744   2.252  0.1733 -0.3812  0.1201
  946SOL    HW1 3782   2.521   2.787   2.172  1.5380  3.2852  2.6843
  946SOL    HW2 3783   2.425   2.672   2.236  2.4860 -0.4089  2.5336
  946SOL     MW 3784   2.483   2.740   2.240  0.6585  0.0989  0.7769
  947SOL     OW 3785   2.010   0.107   0.240 -0.4037 -0.0433  0.5965
  947SOL    HW1 3786   1.981   0.022   0.193  0.2402 -3.6442 -1.5671
  947SOL    HW2 3787   2.048   0.077   0.327 -0.4220 -0.2098 -1.2821
  947SOL     MW 3788   2.011   0.092   0.246 -0.3212 -0.5403  0.0631
  948SOL     OW 3789   1.781   3.017   2.673 -0.0519 -0.4533 -0.0593
  948SOL    HW1 3790   1.846   2.943   2.677 -1.5619  1.3300 -1.8311
  948SOL    HW2 3791   1.770   3.033   2.572 -0.7834  0.5871  0.0285
  948SOL     MW 3792   1.788   3.009   2.660 -0.3476 -0.0807 -0.2815
  949SOL     OW 3793   2.548   1.971   2.263 -0.0720  0.1816  0.2904
  949SOL    HW1 3794   2.550   1.887   2.308 -0.1973 -1.2412 -0.8723
  949SOL    HW2 3795   2.487   2.027   2.314  2.3898 -0.5884  0.0915
  949SOL     MW 3796   2.540   1.967   2.275  0.2363 -0.1077  0.1108
  950SOL     OW 3797   2.242   2.538   2.999  1.3700 -0.1381  0.4541
  950SOL    HW1 3798   2.294   2.474   2.955  0.9698 -0.2406  0.0067
  950SOL    HW2 3799   2.165   2.551   2.935 -1.1407  3.1044 -0.6422
  950SOL     MW 3800   2.239   2.531   2.985  0.9859  0.2762  0.2504
  951SOL     OW 3801   2.951   2.130   2.826  0.6104  0.2540  0.1090
  951SOL    HW1 3802   2.987   2.193   2.890 -0.9863 -1.0710 -1.6714
  951SOL    HW2 3803   3.025   2.091   2.776 -1.5237 -0.2839 -1.9900
  951SOL     MW 3804   2.966   2.133   2.828  0.1182  0.0082 -0.4028
  952SOL     OW 3805   3.090   1.727   2.169 -0.1777 -0.8096 -0.4479
  952SOL    HW1 3806   3.008   1.773   2.153  1.2825  2.9622 -0.8116
  952SOL    HW2 3807   3.148   1.801   2.148 -0.2664  1.6102  2.9100
  952SOL     MW 3808   3.087   1.743   2.164  0.0032  0.0073 -0.0528
  953SOL     OW 3809   1.908   1.790   2.931 -0.7814 -0.4546 -0.1791
  953SOL    HW1 3810   1.822   1.744   2.956  1.9577  1.8928  1.1900
  953SOL    HW2 3811   1.938   1.731   2.869 -1.3745  0.5544 -0.3352
  953SOL     MW 3812   1.901   1.776   2.926 -0.4983 -0.0117 -0.0191
  954SOL     OW 3813   2.491   2.053   2.870 -0.3663  0.1491 -0.5798
  954SOL    HW1 3814   2.408   2.030   2.822 -0.6571  1.2413  1.7500
  954SOL    HW2 3815   2.567   2.038   2.806  0.7519 -1.7280  2.9483
  954SOL     MW 3816   2.490   2.048   2.855 -0.2571  0.0455  0.1931
  955SOL     OW 3817   1.600   1.615   2.575 -0.0852 -0.5551  0.9698
  955SOL    HW1 3818   1.563   1.638   2.478  0.6018  0.0694  2.1394
  955SOL    HW2 3819   1.679   1.667   2.574  0.1579 -0.7184  0.8017
  955SOL     MW 3820   1.606   1.625   2.562  0.0375 -0.4943  1.1019
  956SOL     OW 3821   2.711   2.429   2.854  0.0657 -0.0668  0.0713
  956SOL    HW1 3822   2.747   2.415   2.943  1.6210  0.4721  0.9238
  956SOL    HW2 3823   2.754   2.371   2.795 -0.3047 -3.0318 -0.0204
  956SOL     MW 3824   2.721   2.420   2.858  0.2221 -0.3869  0.1717
  957SOL     OW 3825   2.276   2.883   0.393  0.6177 -0.0868 -0.3781
  957SOL    HW1 3826   2.195   2.851   0.352 -0.8904  0.4903  1.8540
  957SOL    HW2 3827   2.278   2.823   0.469 -1.0971  1.6788 -0.2558
  957SOL     MW 3828   2.265   2.870   0.398  0.1925  0.2223 -0.0675
  958SOL     OW 3829   2.028   2.590   2.836 -0.6737  0.0403 -0.1550
  958SOL    HW1 3830   2.007   2.515   2.780 -1.1741 -0.4121 -0.6421
  958SOL    HW2 3831   1.955   2.613   2.901  2.3549  2.6568  3.0824
  958SOL     MW 3832   2.015   2.583   2.837 -0.3402  0.3259  0.2079
  959SOL     OW 3833   2.439   2.633   0.373 -0.2794 -0.1181  0.2138
  959SOL    HW1 3834   2.499   2.631   0.295  3.4766  0.9098 -2.3838
  959SOL    HW2 3835   2.382   2.711   0.356 -1.5711  0.5089 -1.5011
  959SOL     MW 3836   2.439   2.643   0.360  0.0458  0.1002 -0.3552
  960SOL     OW 3837   1.962   2.311   2.259 -0.1370 -0.2333  0.3815
  960SOL    HW1 3838   1.885   2.282   2.208  0.8016 -0.6197 -2.7605
  960SOL    HW2 3839   1.931   2.346   2.340  0.7254 -0.4686 -0.0763
  960SOL     MW 3840   1.948   2.312   2.263  0.1006 -0.3153 -0.0935
  961SOL     OW 3841   2.229   2.315   2.301  0.7354  0.3391 -0.4947
  961SOL    HW1 3842   2.135   2.300   2.288  0.0969  0.7189  2.4375
  961SOL    HW2 3843   2.228   2.363   2.387  1.2131 -0.6058 -2.1934
  961SOL     MW 3844   2.217   2.320   2.310  0.7142  0.2646 -0.3319
  962SOL     OW 3845   2.237   2.023   2.799  0.2580  0.1453  0.3422
  962SOL    HW1 3846   2.191   2.020   2.883 -1.7436  2.1344 -1.7555
  962SOL    HW2 3847   2.212   1.944   2.750  2.8495 -1.4674  0.5706
  962SOL     MW 3848   2.228   2.012   2.804  0.3358  0.1950  0.0955
  963SOL     OW 3849   1.841   2.610   2.013 -0.6473  0.3296  0.3611
  963SOL    HW1 3850   1.940   2.632   2.010  2.3925  0.1617  2.4038
  963SOL    HW2 3851   1.830   2.515   1.981 -0.3068 -1.4609 -2.8523
  963SOL     MW 3852   1.853   2.600   2.008 -0.2013  0.0712  0.2066
  964SOL     OW 3853   1.801   1.968   2.749 -0.5740 -0.1663 -0.0017
  964SOL    HW1 3854   1.876   2.038   2.748  0.5931  0.3511  2.8131
  964SOL    HW2 3855   1.832   1.894   2.803 -1.0854 -3.8462 -0.8513
  964SOL     MW 3856   1.815   1.968   2.756 -0.4875 -0.5836  0.2576
  965SOL     OW 3857   2.247   2.755   0.614 -0.3736  0.3287  0.1156
  965SOL    HW1 3858   2.201   2.669   0.604  0.9702  0.5710  3.5019
  965SOL    HW2 3859   2.302   2.756   0.694  0.1780 -0.7189 -0.3732
  965SOL     MW 3860   2.248   2.744   0.623 -0.1235  0.2224  0.4979
  966SOL     OW 3861   2.613   2.621   2.488  0.1214  0.1327  0.8610
  966SOL    HW1 3862   2.572   2.673   2.421 -0.0499  1.4770  0.2032
  966SOL    HW2 3863   2.633   2.527   2.449  0.6207 -2.4254 -2.7654
  966SOL     MW 3864   2.610   2.616   2.474  0.1647 -0.0275  0.2958
  967SOL     OW 3865   2.893   3.009   2.900 -0.7676  0.1210  0.2278
  967SOL    HW1 3866   2.907   2.938   2.964 -0.4047 -0.8218  0.9475
  967SOL    HW2 3867   2.799   3.007   2.882 -1.5756  1.2098  0.5125
  967SOL     MW 3868   2.882   3.000   2.906 -0.8263  0.1403  0.3603
  968SOL     OW 3869   2.999   2.601   2.936  0.2055  0.5392 -0.4441
  968SOL    HW1 3870   2.914   2.636   2.914  0.3023 -4.1344 -0.3313
  968SOL    HW2 3871   3.026   2.533   2.866 -0.0431 -2.7172 -0.5401
  968SOL     MW 3872   2.991   2.597   2.924  0.1855 -0.5071 -0.4419
  969SOL     OW 3873   1.531   2.123   1.687 -0.0296  0.5334 -0.4899
  969SOL    HW1 3874   1.583   2.050   1.707  0.1883  0.1704  0.1427
  969SOL    HW2 3875   1.483   2.143   1.768  0.7308 -3.9560 -2.4526
  969SOL     MW 3876   1.531   2.116   1.701  0.0995 -0.1068 -0.6654
  970SOL     OW 3877   1.658   1.672   1.790 -0.3519  0.1561 -0.5778
  970SOL    HW1 3878   1.728   1.685   1.851  1.2498  1.2138 -0.4136
  970SOL    HW2 3879   1.588   1.725   1.824  2.3160  0.0201 -0.6727
  970SOL     MW 3880   1.658   1.680   1.802  0.2114  0.2777 -0.5687
  971SOL     OW 3881   1.784   3.090   2.385 -0.7009 -0.7998 -0.2261
  971SOL    HW1 3882   1.815   3.019   2.339  1.1671  0.4948  2.5714
  971SOL    HW2 3883   1.855   3.163   2.389  3.3381 -0.6844  1.0326
  971SOL     MW 3884   1.797   3.091   2.380  0.0785 -0.6138  0.3090
  972SOL     OW 3885   0.261   2.840   2.438 -0.3700  0.1791 -0.3246
  972SOL    HW1 3886   0.300   2.769   2.489  0.2035  2.7182  0.4501
  972SOL    HW2 3887   0.301   2.923   2.470 -2.1929 -2.1209 -0.0730
  972SOL     MW 3888   0.271   2.842   2.449 -0.5349  0.2106 -0.1892
  973SOL     OW 3889   2.546   0.030   2.137 -0.0489 -0.2888 -0.2809
  973SOL    HW1 3890   2.548  -0.060   2.106  1.7164 -0.2758 -0.6222
  973SOL    HW2 3891   2.583   0.081   2.068  2.6519  1.7690  0.5469
  973SOL     MW 3892   2.551   0.025   2.124  0.5403 -0.0156 -0.2167
  974SOL     OW 3893   2.058   0.242   2.696 -0.4287 -0.6295 -0.2110
  974SOL    HW1 3894   2.152   0.220   2.682  3.2295 -0.7895  0.5445
  974SOL    HW2 3895   2.022   0.167   2.749  0.4386 -0.6415 -0.1612
  974SOL     MW 3896   2.066   0.229   2.702  0.1684 -0.6522 -0.1047
  975SOL     OW 3897   2.176   2.509   2.529 -0.2889 -0.6738 -0.2437
  975SOL    HW1 3898   2.255   2.541   2.585  1.4122  3.4201 -2.3871
  975SOL    HW2 3899   2.133   2.588   2.494 -2.3344 -1.2171 -2.0641
  975SOL     MW 3900   2.181   2.523   2.532 -0.3344 -0.2054 -0.7667
  976SOL     OW 3901   0.267   0.345   1.723 -0.4827 -0.4871  0.2010
  976SOL    HW1 3902   0.330   0.275   1.760  2.6218 -0.7460  1.9125
  976SOL    HW2 3903   0.200   0.288   1.680 -1.6395 -0.4600 -3.0001
  976SOL     MW 3904   0.266   0.329   1.722 -0.2257 -0.5177  0.0045
  977SOL     OW 3905   1.740   2.684   2.465  0.0057 -0.8376  0.0032
  977SOL    HW1 3906   1.750   2.588   2.463 -1.1283 -1.6935 -2.3072
  977SOL    HW2 3907   1.832   2.703   2.466  0.2663 -2.1506  0.2208
  977SOL     MW 3908   1.753   2.674   2.465 -0.1095 -1.1238 -0.2729
   3.10000   3.10000   3.10000
