977 TIP4P/2005f water molecules t=   1.64000 step= 1640
 3908
    1SOL     OW    1   0.395   0.800   0.108 -0.1543 -0.3106 -0.0841
    1SOL    HW1    2   0.356   0.738   0.046 -2.2361 -3.0573  0.0937
    1SOL    HW2    3   0.420   0.729   0.165  2.1851  2.2376  2.0548
    1SOL     MW    4   0.393   0.782   0.107 -0.1203 -0.3368  0.2215
    2SOL     OW    5   0.322   3.003   1.076 -0.2517  0.0285  0.5086
    2SOL    HW1    6   0.367   3.089   1.056  2.4642 -1.9171  0.0416
    2SOL    HW2    7   0.235   3.033   1.108 -0.3830 -0.3489  0.3963
    2SOL     MW    8   0.316   3.018   1.078  0.0893 -0.2780  0.4321
    3SOL     OW    9   2.638   0.359   0.979  0.8833  0.3762  0.4637
    3SOL    HW1   10   2.699   0.416   0.942 -2.6161 -0.9565 -0.2387
    3SOL    HW2   11   2.615   0.389   1.070 -0.7766 -1.3108 -0.6091
    3SOL     MW   12   2.643   0.371   0.986  0.2026 -0.0222  0.2295
    4SOL     OW   13   2.995   1.687   0.534 -0.4564  0.2997  0.3569
    4SOL    HW1   14   2.934   1.757   0.509 -0.4867  1.7603 -1.1410
    4SOL    HW2   15   3.055   1.671   0.457  1.3661 -0.7284  1.1806
    4SOL     MW   16   2.995   1.694   0.520 -0.2199  0.3567  0.2679
    5SOL     OW   17   1.617   1.415   0.639 -0.3531  0.2765 -0.0970
    5SOL    HW1   18   1.659   1.399   0.719  0.2279 -2.0022 -0.4398
    5SOL    HW2   19   1.532   1.450   0.657  0.1807 -0.9872 -3.0785
    5SOL     MW   20   1.611   1.418   0.652 -0.2060 -0.1909 -0.5356
    6SOL     OW   21   0.800   1.432   0.601 -0.1493  0.3079  0.8949
    6SOL    HW1   22   0.703   1.419   0.584  1.1362 -0.0100 -0.0674
    6SOL    HW2   23   0.823   1.374   0.671 -0.7406  0.0944 -0.0176
    6SOL     MW   24   0.790   1.422   0.608 -0.0577  0.2378  0.6475
    7SOL     OW   25   1.922   1.062   0.023  0.1168  0.4075 -0.3121
    7SOL    HW1   26   2.003   1.107   0.001  2.2355  0.5928 -2.6821
    7SOL    HW2   27   1.918   1.069   0.125 -2.2724  0.9886  0.6223
    7SOL     MW   28   1.932   1.069   0.034  0.0811  0.5086 -0.5015
    8SOL     OW   29   0.791   1.469   1.097  0.1467 -0.2004 -0.3291
    8SOL    HW1   30   0.879   1.495   1.116 -0.1427  1.0500 -0.8728
    8SOL    HW2   31   0.801   1.383   1.137 -0.4457 -0.2326  0.4836
    8SOL     MW   32   0.804   1.461   1.105  0.0303 -0.0397 -0.2936
    9SOL     OW   33   0.951   0.457   1.354 -0.3677  0.0204 -0.0244
    9SOL    HW1   34   0.870   0.396   1.327 -0.1304 -2.4746 -1.0642
    9SOL    HW2   35   1.013   0.414   1.412 -0.2544  3.4219 -1.0780
    9SOL     MW   36   0.948   0.443   1.358 -0.3214  0.1400 -0.3006
   10SOL     OW   37   0.296   0.868   0.472  0.3372 -0.1821 -0.0334
   10SOL    HW1   38   0.390   0.896   0.478  0.4777  0.5476 -1.2370
   10SOL    HW2   39   0.263   0.910   0.552 -0.5775  1.2669  0.1011
   10SOL     MW   40   0.304   0.878   0.483  0.2350  0.1053 -0.1744
   11SOL     OW   41   0.771   1.112   1.481  0.1140 -0.3553 -0.3606
   11SOL    HW1   42   0.848   1.128   1.538  1.6864 -4.5617 -0.7881
   11SOL    HW2   43   0.797   1.030   1.435  4.0949  0.0427  0.2305
   11SOL     MW   44   0.784   1.103   1.483  0.8467 -0.8577 -0.3391
   12SOL     OW   45   3.095   1.075   0.867  0.7893 -0.3013 -0.1483
   12SOL    HW1   46   3.097   1.157   0.917 -2.3269 -1.1211  1.1336
   12SOL    HW2   47   3.026   1.094   0.803  1.4806 -2.8573  2.9117
   12SOL     MW   48   3.086   1.089   0.865  0.4694 -0.7467  0.4246
   13SOL     OW   49   1.816   1.413   1.289  0.0573  0.0122  0.7153
   13SOL    HW1   50   1.835   1.342   1.232 -0.6274  2.2903  0.6404
   13SOL    HW2   51   1.844   1.492   1.245 -1.0488 -2.0980  2.0410
   13SOL     MW   52   1.822   1.414   1.276 -0.1790  0.0344  0.8804
   14SOL     OW   53   0.533   0.347   1.763  0.4346 -0.4969 -0.7376
   14SOL    HW1   54   0.484   0.268   1.754 -1.2414  0.1386  0.6266
   14SOL    HW2   55   0.600   0.337   1.699  2.1616  0.9256 -0.0378
   14SOL     MW   56   0.536   0.335   1.753  0.4413 -0.2254 -0.4652
   15SOL     OW   57   2.017   0.418   1.009  0.1903 -0.0870 -0.1527
   15SOL    HW1   58   1.983   0.500   1.037  0.3544 -1.0919  0.2948
   15SOL    HW2   59   2.059   0.414   0.918  1.5602  0.7627 -0.9024
   15SOL     MW   60   2.018   0.428   1.000  0.3927 -0.1075 -0.1926
   16SOL     OW   61   0.308   1.826   0.293 -0.5530  0.2529  0.1195
   16SOL    HW1   62   0.397   1.800   0.328  0.4021 -1.5338  0.9918
   16SOL    HW2   63   0.298   1.921   0.290 -0.1958 -0.9829 -1.5272
   16SOL     MW   64   0.318   1.835   0.297 -0.3799 -0.1459  0.0173
   17SOL     OW   65   1.110   0.874   1.432 -0.2206  0.1816 -0.2512
   17SOL    HW1   66   1.146   0.849   1.521  0.9979 -0.6417  0.5494
   17SOL    HW2   67   1.018   0.876   1.432  1.7455  1.0339  1.0229
   17SOL     MW   68   1.103   0.871   1.443  0.1995  0.1854  0.0225
   18SOL     OW   69   0.072   1.655   0.339 -0.1678 -0.0756 -0.6078
   18SOL    HW1   70   0.142   1.721   0.323 -0.7029  3.7369  0.0061
   18SOL    HW2   71   0.048   1.632   0.249 -1.0361 -0.6720 -4.8329
   18SOL     MW   72   0.078   1.661   0.325 -0.3530  0.3488 -1.0843
   19SOL     OW   73   0.084   1.327   0.983  0.6033 -0.2019  0.3102
   19SOL    HW1   74   0.118   1.326   0.895 -1.9482  1.2437  2.4372
   19SOL    HW2   75  -0.004   1.354   0.966  1.3844  0.3919 -3.2516
   19SOL     MW   76   0.077   1.330   0.969  0.3697  0.0672  0.1209
   20SOL     OW   77   0.445   2.122   1.269 -0.2584  0.0587 -0.3451
   20SOL    HW1   78   0.395   2.051   1.220  0.2127 -0.7212  0.6569
   20SOL    HW2   79   0.402   2.117   1.358  0.0411  1.4831 -0.3603
   20SOL     MW   80   0.432   2.112   1.274 -0.1567  0.1438 -0.2149
   21SOL     OW   81   0.561   0.862   0.419 -0.1660  0.2788 -0.4117
   21SOL    HW1   82   0.624   0.831   0.494 -2.0299 -3.6667 -0.6352
   21SOL    HW2   83   0.617   0.866   0.344 -0.6888  2.9779  2.0837
   21SOL     MW   84   0.577   0.858   0.419 -0.4809  0.1144 -0.1119
   22SOL     OW   85   1.528   0.709   1.031  0.1692 -0.2526  0.4476
   22SOL    HW1   86   1.541   0.684   0.941  0.8788 -1.5955  0.5796
   22SOL    HW2   87   1.444   0.751   1.030 -0.9118  0.1801 -2.0633
   22SOL     MW   88   1.519   0.711   1.019  0.1202 -0.3727  0.1338
   23SOL     OW   89   3.079   0.814   0.731 -0.6326  0.3698 -0.1143
   23SOL    HW1   90   3.128   0.743   0.780  0.0011  2.3384  0.3175
   23SOL    HW2   91   3.140   0.888   0.744  0.6538 -0.5815  1.8387
   23SOL     MW   92   3.093   0.814   0.739 -0.3792  0.5040  0.2004
   24SOL     OW   93   2.077   2.213   0.054 -0.3422 -0.3151  0.2835
   24SOL    HW1   94   2.066   2.212   0.151  2.0259  2.9574  0.0241
   24SOL    HW2   95   2.096   2.124   0.026 -2.9296  1.1015 -2.0104
   24SOL     MW   96   2.078   2.201   0.063 -0.3711  0.3036 -0.0534
   25SOL     OW   97   0.179   1.409   0.432  0.1628  0.6427 -0.1454
   25SOL    HW1   98   0.142   1.488   0.394  1.5769 -2.4308  1.4975
   25SOL    HW2   99   0.248   1.391   0.365  2.2206  1.2733 -0.2482
   25SOL     MW  100   0.183   1.417   0.418  0.6209  0.3204  0.0578
   26SOL     OW  101   1.971   1.028   0.282 -0.1238  0.3210 -0.0087
   26SOL    HW1  102   1.950   1.032   0.378  0.7671  0.4296  0.0433
   26SOL    HW2  103   2.059   1.066   0.264  0.2590 -1.6087 -1.3393
   26SOL     MW  104   1.980   1.033   0.293  0.0443  0.0807 -0.1774
   27SOL     OW  105   1.860   1.381   0.165 -0.1638  0.2701  0.4948
   27SOL    HW1  106   1.826   1.471   0.175 -0.0577  0.7063  0.3699
   27SOL    HW2  107   1.931   1.369   0.232  0.4523  0.0836  1.9771
   27SOL     MW  108   1.865   1.391   0.176 -0.0685  0.3030  0.6739
   28SOL     OW  109   0.420   0.941   1.993  0.1189 -0.0268 -0.0806
   28SOL    HW1  110   0.477   0.920   2.065 -2.2876  2.6621  1.4928
   28SOL    HW2  111   0.331   0.926   2.020 -3.5401  2.1035  0.5599
   28SOL     MW  112   0.416   0.936   2.006 -0.6814  0.6090  0.2115
   29SOL     OW  113   0.217   1.392   0.732 -0.4701  0.6083  0.1255
   29SOL    HW1  114   0.221   1.491   0.719  1.1865 -1.2488  0.1644
   29SOL    HW2  115   0.224   1.370   0.639 -0.1648 -1.3444  0.5400
   29SOL     MW  116   0.219   1.402   0.718 -0.2112  0.1057  0.1854
   30SOL     OW  117   0.744   1.211   1.215 -0.8543  0.6889 -0.3007
   30SOL    HW1  118   0.655   1.233   1.241 -0.7882 -1.5653 -0.8425
   30SOL    HW2  119   0.789   1.170   1.292  2.4744 -1.9961 -0.1758
   30SOL     MW  120   0.738   1.209   1.229 -0.4064  0.0372 -0.3557
   31SOL     OW  121   0.501   0.295   0.195  0.4361 -0.5947  0.1934
   31SOL    HW1  122   0.521   0.218   0.249  3.3198 -0.4327  1.7497
   31SOL    HW2  123   0.511   0.247   0.110  0.5463 -0.8738  3.3913
   31SOL     MW  124   0.505   0.279   0.191  0.8311 -0.6102  0.8207
   32SOL     OW  125   2.726   0.958   1.092 -0.1623 -0.6580 -0.1777
   32SOL    HW1  126   2.648   0.900   1.109  0.8441  2.8213 -0.0857
   32SOL    HW2  127   2.802   0.911   1.123 -2.5284  0.5060 -0.6791
   32SOL     MW  128   2.726   0.944   1.098 -0.3417 -0.0454 -0.2317
   33SOL     OW  129   1.649   1.243   0.382 -0.4023 -0.2113  0.3183
   33SOL    HW1  130   1.745   1.235   0.398  1.4082 -1.2525  0.3979
   33SOL    HW2  131   1.624   1.276   0.466  0.7662  1.3010 -1.8357
   33SOL     MW  132   1.659   1.246   0.395 -0.0093 -0.1491  0.0446
   34SOL     OW  133   1.154   1.957   1.132  0.2050  0.4182 -0.3228
   34SOL    HW1  134   1.069   1.987   1.174 -0.6645 -0.5586 -2.6415
   34SOL    HW2  135   1.231   1.972   1.199 -1.3897  0.6775  0.9743
   34SOL     MW  136   1.153   1.963   1.146 -0.1201  0.3236 -0.4576
   35SOL     OW  137   0.318   0.148   1.801  0.2979  0.2662 -0.3801
   35SOL    HW1  138   0.357   0.094   1.875  0.5358 -2.0541 -1.2307
   35SOL    HW2  139   0.316   0.092   1.726 -0.2540 -0.9224  1.4846
   35SOL     MW  140   0.323   0.133   1.801  0.2565 -0.1968 -0.2463
   36SOL     OW  141   1.926   1.991   0.597  0.2065  0.2365  0.4680
   36SOL    HW1  142   1.880   1.949   0.522 -0.4713 -1.1020 -0.4445
   36SOL    HW2  143   1.964   1.912   0.629 -2.8634  0.3000 -1.2879
   36SOL     MW  144   1.925   1.975   0.591 -0.2880  0.0683  0.1159
   37SOL     OW  145   1.812   2.061   0.996  0.2561  0.3003  0.0540
   37SOL    HW1  146   1.772   2.026   0.916  0.2432  3.9862 -0.2610
   37SOL    HW2  147   1.745   2.087   1.057  1.5221  1.9167  2.2645
   37SOL     MW  148   1.798   2.060   0.993  0.4215  0.9999  0.3041
   38SOL     OW  149   2.839   0.958   0.115 -0.7164  0.0837 -0.7168
   38SOL    HW1  150   2.879   0.947   0.203 -0.1599  1.6691 -1.5758
   38SOL    HW2  151   2.908   0.965   0.048  0.3361 -1.0126 -3.2375
   38SOL     MW  152   2.853   0.957   0.118 -0.5041  0.1482 -1.1627
   39SOL     OW  153   1.489   0.656   0.764 -0.0506  0.3527  0.6151
   39SOL    HW1  154   1.451   0.570   0.763 -1.2313  1.8859 -2.4793
   39SOL    HW2  155   1.420   0.716   0.747 -0.1277 -1.2726  1.5669
   39SOL     MW  156   1.475   0.653   0.761 -0.2166  0.3405  0.3324
   40SOL     OW  157   1.272   1.864   0.252  0.0939  0.4797 -0.1845
   40SOL    HW1  158   1.317   1.789   0.291  1.0762 -0.5021  0.6926
   40SOL    HW2  159   1.259   1.928   0.324 -0.7200  2.3808 -1.1124
   40SOL     MW  160   1.276   1.862   0.266  0.1161  0.6010 -0.1912
   41SOL     OW  161   0.526   0.574   1.543  0.3867 -0.1339 -1.0021
   41SOL    HW1  162   0.606   0.606   1.509  1.2975 -1.4721 -0.9173
   41SOL    HW2  163   0.454   0.605   1.482 -4.0339 -0.9521 -1.3129
   41SOL     MW  164   0.527   0.582   1.530 -0.0764 -0.4184 -1.0319
   42SOL     OW  165   1.239   2.984   1.975 -0.2545 -0.4495  0.4604
   42SOL    HW1  166   1.198   3.040   2.042  2.1444  0.2610 -1.6708
   42SOL    HW2  167   1.273   2.915   2.028 -0.9535  2.4368  2.5831
   42SOL     MW  168   1.238   2.982   1.991 -0.0302  0.0251  0.4593
   43SOL     OW  169   1.451   0.094   1.732 -0.2083 -0.2713 -0.3404
   43SOL    HW1  170   1.524   0.058   1.676  1.3870  1.5616  0.8017
   43SOL    HW2  171   1.363   0.070   1.694 -2.5515 -2.5125  2.0799
   43SOL     MW  172   1.449   0.086   1.720 -0.3069 -0.3252  0.1297
   44SOL     OW  173   1.270   0.797   1.038 -0.0274  0.0790 -0.3799
   44SOL    HW1  174   1.252   0.890   1.028  0.6122 -0.9958 -0.5293
   44SOL    HW2  175   1.214   0.775   1.114 -0.3955  0.3167 -0.5064
   44SOL     MW  176   1.261   0.806   1.047  0.0084 -0.0314 -0.4163
   45SOL     OW  177   1.293   0.840   0.745  0.2177  0.1853 -0.3038
   45SOL    HW1  178   1.250   0.817   0.826  0.6646 -0.1815 -1.0732
   45SOL    HW2  179   1.231   0.801   0.689  0.8150 -0.1368  1.5247
   45SOL     MW  180   1.279   0.832   0.748  0.3555  0.0944 -0.1640
   46SOL     OW  181   0.449   1.115   0.661 -0.4200  0.6466 -0.0941
   46SOL    HW1  182   0.485   1.145   0.576 -1.8112  1.4863 -1.7014
   46SOL    HW2  183   0.448   1.195   0.716  1.8577 -2.9023  1.1524
   46SOL     MW  184   0.453   1.130   0.657 -0.3030  0.2892 -0.1417
   47SOL     OW  185   0.091   2.060   1.883 -0.1671 -0.3703  0.2255
   47SOL    HW1  186   0.092   1.966   1.850 -3.6008 -0.6757  1.9351
   47SOL    HW2  187   0.093   2.046   1.972 -0.7687  2.3083 -0.3846
   47SOL     MW  188   0.091   2.046   1.890 -0.6995 -0.0572  0.3706
   48SOL     OW  189   1.204   0.508   1.021  0.0924 -0.0842 -0.1496
   48SOL    HW1  190   1.173   0.452   0.952  0.6661 -1.9084  3.9857
   48SOL    HW2  191   1.213   0.596   0.988  1.4105 -0.1914 -0.1222
   48SOL     MW  192   1.201   0.512   1.007  0.3420 -0.3391  0.3996
   49SOL     OW  193   1.677   0.680   1.553  0.1722  0.0006  0.3515
   49SOL    HW1  194   1.722   0.639   1.630  2.1479  0.5624  0.2354
   49SOL    HW2  195   1.713   0.634   1.474  1.9580  0.5018 -0.1294
   49SOL     MW  196   1.688   0.668   1.553  0.6685  0.1408  0.2727
   50SOL     OW  197   1.299   1.259   0.610  0.4484 -0.2438  0.9225
   50SOL    HW1  198   1.241   1.272   0.684  4.7407 -1.3139 -3.4101
   50SOL    HW2  199   1.365   1.191   0.643  0.7201 -0.6573  0.6542
   50SOL     MW  200   1.300   1.252   0.624  1.0506 -0.4396  0.3154
   51SOL     OW  201   0.311   2.882   0.825  0.2104 -0.6685  0.4212
   51SOL    HW1  202   0.400   2.853   0.838 -1.9924 -2.5492 -1.6647
   51SOL    HW2  203   0.296   2.915   0.911 -0.5813 -2.8869 -3.3012
   51SOL     MW  204   0.321   2.883   0.838 -0.1847 -1.2093 -0.3451
   52SOL     OW  205   0.799   1.804   0.468 -0.4405  0.2823 -0.0038
   52SOL    HW1  206   0.787   1.897   0.498  0.8213  2.3688 -1.0839
   52SOL    HW2  207   0.836   1.816   0.379  0.2315 -1.5593 -0.5104
   52SOL     MW  208   0.802   1.818   0.460 -0.1853  0.3146 -0.2132
   53SOL     OW  209   0.488   2.157   0.540  0.1230  0.7118  1.0621
   53SOL    HW1  210   0.431   2.149   0.464 -0.8159 -0.6034  0.7308
   53SOL    HW2  211   0.480   2.242   0.578  1.5508  0.7843 -1.8969
   53SOL     MW  212   0.479   2.167   0.535  0.1875  0.5479  0.6280
   54SOL     OW  213   2.031   0.980   0.724  0.3727  0.5173  0.1135
   54SOL    HW1  214   2.114   0.981   0.679 -0.2140 -0.2644  1.6285
   54SOL    HW2  215   2.004   0.887   0.742  0.3522  1.4525  2.8221
   54SOL     MW  216   2.038   0.968   0.721  0.2926  0.5376  0.6708
   55SOL     OW  217   0.447   1.522   1.682 -0.0408  0.0632  0.0713
   55SOL    HW1  218   0.390   1.550   1.613  1.3157 -0.1373  0.8128
   55SOL    HW2  219   0.523   1.473   1.641 -0.4208 -0.9479 -0.9281
   55SOL     MW  220   0.450   1.519   1.668  0.0881 -0.0966  0.0372
   56SOL     OW  221   0.670   0.911   0.150  0.3861  0.2983  0.1918
   56SOL    HW1  222   0.678   1.007   0.137 -0.4177 -0.4623 -3.7574
   56SOL    HW2  223   0.578   0.903   0.125 -1.4531 -0.1847  2.0011
   56SOL     MW  224   0.659   0.923   0.145  0.0373  0.1342 -0.0905
   57SOL     OW  225   1.111   1.276   1.147 -0.2086 -0.3126  0.5158
   57SOL    HW1  226   1.201   1.312   1.153 -0.4810  0.9967 -1.6155
   57SOL    HW2  227   1.091   1.228   1.227  1.8031 -2.0991 -1.0971
   57SOL     MW  228   1.121   1.274   1.158  0.0209 -0.3755  0.0218
   58SOL     OW  229   0.424   1.283   1.290  0.4169  0.7036 -0.0588
   58SOL    HW1  230   0.402   1.373   1.271 -0.8800  1.3165  0.2079
   58SOL    HW2  231   0.464   1.271   1.375 -2.0122 -0.9727 -2.7544
   58SOL     MW  232   0.426   1.293   1.298 -0.0747  0.5633 -0.3793
   59SOL     OW  233   1.422   1.692   0.387  0.5348 -0.2442 -0.1802
   59SOL    HW1  234   1.492   1.700   0.451  0.0482 -1.5179 -1.0487
   59SOL    HW2  235   1.356   1.652   0.439 -3.5679 -0.0389 -1.2644
   59SOL     MW  236   1.423   1.688   0.403 -0.0707 -0.3851 -0.4378
   60SOL     OW  237   3.084   0.167   1.647  0.4722  0.0352 -0.7118
   60SOL    HW1  238   3.019   0.227   1.686 -1.4508 -1.6419 -1.7704
   60SOL    HW2  239   3.132   0.142   1.726 -0.5126 -2.1643  3.7198
   60SOL     MW  240   3.082   0.171   1.662  0.0886 -0.4763 -0.2667
   61SOL     OW  241   1.951   1.371   2.982  0.1908 -0.2924 -0.3336
   61SOL    HW1  242   1.923   1.382   3.071  1.1046 -0.0119 -1.5414
   61SOL    HW2  243   2.006   1.294   2.977  0.0219 -0.6879 -0.7776
   61SOL     MW  244   1.955   1.362   2.993  0.2891 -0.3076 -0.5515
   62SOL     OW  245   0.591   1.718   0.642 -0.4149  0.4771  0.7995
   62SOL    HW1  246   0.669   1.735   0.589  1.5046 -0.1095  1.7977
   62SOL    HW2  247   0.566   1.627   0.622  1.5024 -1.3686  2.7070
   62SOL     MW  248   0.598   1.708   0.632  0.0913  0.1562  1.1829
   63SOL     OW  249   1.754   0.717   0.638  0.5740  0.2339 -0.2965
   63SOL    HW1  250   1.708   0.786   0.591 -1.1031 -0.2059  0.5523
   63SOL    HW2  251   1.678   0.670   0.684 -0.0206  1.1923 -0.8515
   63SOL     MW  252   1.738   0.720   0.638  0.2743  0.3023 -0.2577
   64SOL     OW  253   0.259   1.682   0.731  0.5462 -0.2285 -0.4259
   64SOL    HW1  254   0.331   1.741   0.707 -0.3524  4.3484  0.1408
   64SOL    HW2  255   0.175   1.733   0.739 -1.1350  3.6677  1.8357
   64SOL     MW  256   0.257   1.697   0.729  0.2058  0.8895 -0.0528
   65SOL     OW  257   1.474   2.312   0.387  0.3682 -0.5176  0.2632
   65SOL    HW1  258   1.562   2.335   0.405 -2.8092  1.0215  1.7170
   65SOL    HW2  259   1.429   2.362   0.460  0.0464  1.6735  0.2067
   65SOL     MW  260   1.480   2.322   0.399 -0.0935 -0.0255  0.4476
   66SOL     OW  261   0.377   0.581   0.478  0.6909 -0.0324  0.3378
   66SOL    HW1  262   0.430   0.557   0.398  0.2156 -0.1787 -3.4494
   66SOL    HW2  263   0.351   0.674   0.466  0.5231 -1.3860 -0.4512
   66SOL     MW  264   0.380   0.590   0.466  0.6060 -0.2303 -0.2660
   67SOL     OW  265   1.448   0.036   1.980 -0.3902  0.1780 -0.2753
   67SOL    HW1  266   1.443   0.073   1.888  1.1589 -0.9684  0.2168
   67SOL    HW2  267   1.387  -0.038   1.974 -3.4049 -1.2271 -0.1247
   67SOL     MW  268   1.439   0.031   1.967 -0.5836 -0.1587 -0.1905
   68SOL     OW  269   0.763   0.048   2.947 -0.2412  0.4424 -0.0266
   68SOL    HW1  270   0.783   0.097   2.865 -1.1363  1.3117  0.8067
   68SOL    HW2  271   0.846   0.069   2.988 -3.6158  3.0930 -1.6973
   68SOL     MW  272   0.777   0.057   2.942 -0.8045  0.9068 -0.1371
   69SOL     OW  273   1.046   0.211   1.925  0.4278 -0.1036 -0.4104
   69SOL    HW1  274   1.122   0.239   1.974  1.3614 -2.6192  0.8087
   69SOL    HW2  275   1.018   0.127   1.971  0.5393 -1.5954 -1.8781
   69SOL     MW  276   1.052   0.204   1.937  0.5657 -0.6324 -0.4432
   70SOL     OW  277   0.502   1.749   1.077 -0.1166 -0.0417  0.3883
   70SOL    HW1  278   0.597   1.774   1.074  0.3185 -0.5381  1.5020
   70SOL    HW2  279   0.489   1.685   1.008  0.8322 -0.5439 -1.6844
   70SOL     MW  280   0.513   1.744   1.068  0.0660 -0.1735  0.2618
   71SOL     OW  281   1.532   0.559   1.258  0.4808  0.3097 -0.2735
   71SOL    HW1  282   1.477   0.619   1.318 -2.4215  1.1853 -0.5862
   71SOL    HW2  283   1.526   0.605   1.174 -2.0372 -0.3547  0.6676
   71SOL     MW  284   1.524   0.573   1.255 -0.2343  0.3376 -0.1906
   72SOL     OW  285   0.787   1.825   1.011  0.8811  0.3147  0.2023
   72SOL    HW1  286   0.788   1.876   0.927 -0.9545  0.3050 -1.6397
   72SOL    HW2  287   0.812   1.743   0.970  1.2211  1.5163  1.3236
   72SOL     MW  288   0.790   1.821   0.994  0.6838  0.4719  0.1072
   73SOL     OW  289   1.144   0.673   1.275 -0.5653 -0.2277 -0.4357
   73SOL    HW1  290   1.065   0.612   1.303 -1.2869  0.4969 -2.3547
   73SOL    HW2  291   1.129   0.741   1.341 -0.7996 -0.0084 -0.8664
   73SOL     MW  292   1.132   0.674   1.288 -0.6914 -0.1032 -0.7457
   74SOL     OW  293   2.806   0.100   0.978 -0.6206 -0.1528 -0.2362
   74SOL    HW1  294   2.881   0.067   0.933 -2.6320 -0.9397 -0.1746
   74SOL    HW2  295   2.792   0.195   0.958  2.4557 -0.0611 -1.8844
   74SOL     MW  296   2.814   0.108   0.969 -0.4801 -0.2445 -0.4455
   75SOL     OW  297   1.551   1.341   0.150 -0.5329  0.2821 -0.5006
   75SOL    HW1  298   1.608   1.297   0.088 -1.2493  0.7610 -0.5971
   75SOL    HW2  299   1.591   1.312   0.237 -0.9902 -1.6318  3.1604
   75SOL     MW  300   1.564   1.331   0.153 -0.6878  0.0928 -0.0303
   76SOL     OW  301   3.004   0.660   0.490  0.7900  0.4562  0.4553
   76SOL    HW1  302   3.026   0.695   0.581  0.2413  0.4575  2.0160
   76SOL    HW2  303   3.079   0.606   0.453 -0.9963  0.4203  1.3142
   76SOL     MW  304   3.017   0.657   0.497  0.4819  0.4517  0.7746
   77SOL     OW  305   0.848   0.624   0.434 -0.5691  0.3404  0.3628
   77SOL    HW1  306   0.855   0.645   0.340  0.7354 -3.2738 -0.7298
   77SOL    HW2  307   0.828   0.527   0.430  1.6808 -1.0948 -0.5052
   77SOL     MW  308   0.846   0.614   0.421 -0.1001 -0.3258  0.1041
   78SOL     OW  309   0.758   0.884   1.109  0.1927  0.6877 -0.5293
   78SOL    HW1  310   0.742   0.946   1.040 -0.8931 -0.7854  1.3654
   78SOL    HW2  311   0.664   0.868   1.139 -1.9194 -1.1407 -0.5935
   78SOL     MW  312   0.744   0.890   1.104 -0.2293  0.2521 -0.2878
   79SOL     OW  313   1.869   1.522   0.570 -0.3620 -0.5711 -0.1843
   79SOL    HW1  314   1.783   1.485   0.590 -2.3546 -1.4909 -0.2497
   79SOL    HW2  315   1.913   1.554   0.648  0.3056  1.0275  1.3592
   79SOL     MW  316   1.863   1.522   0.583 -0.5368 -0.4815  0.0107
   80SOL     OW  317   0.107   1.011   0.316  0.6403  0.1567 -0.2489
   80SOL    HW1  318   0.052   0.948   0.271  0.6025  4.0762  1.1602
   80SOL    HW2  319   0.176   0.964   0.367 -2.0708 -2.2116  1.2053
   80SOL     MW  320   0.109   0.997   0.317  0.2776  0.3613  0.1288
   81SOL     OW  321   1.787   1.874   0.343 -0.3002 -0.1490  0.5294
   81SOL    HW1  322   1.783   1.785   0.320 -0.5913 -0.1993  2.5774
   81SOL    HW2  323   1.726   1.917   0.272  0.5596 -0.0759  0.3289
   81SOL     MW  324   1.778   1.868   0.331 -0.2252 -0.1460  0.7731
   82SOL     OW  325   0.937   1.048   0.518  0.7128 -0.1490  0.4679
   82SOL    HW1  326   0.905   1.102   0.448  0.6391 -0.9009  0.4393
   82SOL    HW2  327   0.879   0.977   0.539  2.0893  0.5146  1.7022
   82SOL     MW  328   0.925   1.045   0.512  0.8847 -0.1606  0.6270
   83SOL     OW  329   0.029   0.773   1.557  0.4564 -0.5973  0.1738
   83SOL    HW1  330   0.022   0.815   1.467  2.9590 -1.5982  3.2330
   83SOL    HW2  331   0.108   0.729   1.534 -1.3423 -1.6659 -1.2589
   83SOL     MW  332   0.038   0.773   1.542  0.5492 -0.8703  0.3884
   84SOL     OW  333   0.044   0.187   0.921 -0.0460 -0.1167  0.2308
   84SOL    HW1  334   0.026   0.275   0.953  0.2948 -0.6282  1.3420
   84SOL    HW2  335   0.059   0.145   1.007  0.0725 -1.0786  0.4230
   84SOL     MW  336   0.044   0.193   0.936  0.0146 -0.3111  0.4028
   85SOL     OW  337   0.367   0.481   0.744 -0.9953  0.3124 -0.0025
   85SOL    HW1  338   0.405   0.497   0.655  2.9206 -0.2987  2.0168
   85SOL    HW2  339   0.341   0.389   0.751 -0.4375  1.9974  2.2997
   85SOL     MW  340   0.368   0.471   0.733 -0.4051  0.4541  0.5677
   86SOL     OW  341   1.233   0.273   1.178 -0.4053  0.1200 -0.3577
   86SOL    HW1  342   1.196   0.361   1.162  0.7035 -0.8260 -1.2026
   86SOL    HW2  343   1.324   0.281   1.150  0.9081  0.5689  0.9810
   86SOL     MW  344   1.240   0.286   1.172 -0.0857  0.0544 -0.2925
   87SOL     OW  345   1.048   1.538   1.199  0.0300  0.2669 -0.2794
   87SOL    HW1  346   1.113   1.595   1.161 -0.2584  2.0570  0.9466
   87SOL    HW2  347   1.067   1.448   1.173 -3.4715 -2.0952 -1.8007
   87SOL     MW  348   1.059   1.534   1.191 -0.4700  0.1915 -0.3183
   88SOL     OW  349   1.234   1.076   1.011 -0.5525  0.3279 -0.3478
   88SOL    HW1  350   1.326   1.091   1.039  0.7610 -0.4739  0.2408
   88SOL    HW2  351   1.180   1.127   1.072 -1.1938  0.8721  0.9060
   88SOL     MW  352   1.239   1.084   1.023 -0.4638  0.2940 -0.1047
   89SOL     OW  353   1.767   0.700   0.253  0.2982 -0.2576 -0.4063
   89SOL    HW1  354   1.726   0.638   0.312  3.3805  0.3672  0.3539
   89SOL    HW2  355   1.852   0.717   0.293  0.8572  2.0619 -1.9737
   89SOL     MW  356   1.773   0.694   0.266  0.7786  0.1309 -0.5128
   90SOL     OW  357   0.819   1.233   2.893 -0.4591  0.4247 -0.3526
   90SOL    HW1  358   0.882   1.166   2.911 -1.1206 -1.2035  1.2454
   90SOL    HW2  359   0.822   1.284   2.972 -1.1579  1.6886 -2.1731
   90SOL     MW  360   0.828   1.231   2.906 -0.6386  0.3767 -0.3820
   91SOL     OW  361   2.189   0.617   0.460  0.3323 -0.3352  0.1805
   91SOL    HW1  362   2.261   0.648   0.410  0.7403 -0.4605  0.6884
   91SOL    HW2  363   2.193   0.524   0.446  0.8420  1.6795 -2.2560
   91SOL     MW  364   2.199   0.609   0.451  0.4534 -0.0860 -0.0739
   92SOL     OW  365   1.632   0.959   0.549 -0.1544 -0.2909 -0.0798
   92SOL    HW1  366   1.585   0.988   0.625  0.1212  0.9541 -0.8234
   92SOL    HW2  367   1.587   0.981   0.466 -0.0459  3.3654 -1.0360
   92SOL     MW  368   1.620   0.966   0.548 -0.1037  0.3558 -0.3041
   93SOL     OW  369   1.052   0.278   0.346 -0.2896  0.5072  0.0908
   93SOL    HW1  370   0.955   0.278   0.345  0.3551 -1.2349 -0.0180
   93SOL    HW2  371   1.089   0.326   0.266 -1.1010  0.9545 -2.3425
   93SOL     MW  372   1.044   0.285   0.335 -0.3116  0.3364 -0.2446
   94SOL     OW  373   1.861   1.389   1.586 -0.1366  0.0843 -0.3768
   94SOL    HW1  374   1.856   1.394   1.488  3.3064 -1.0591  0.8528
   94SOL    HW2  375   1.850   1.294   1.610 -0.3721 -1.4881 -1.5737
   94SOL     MW  376   1.859   1.377   1.576  0.2866 -0.2740 -0.3725
   95SOL     OW  377   0.587   1.554   0.905 -0.0504 -0.3096  0.0760
   95SOL    HW1  378   0.641   1.532   0.982 -0.6910 -0.4296 -4.7457
   95SOL    HW2  379   0.547   1.471   0.875 -3.0008  2.4638 -0.0881
   95SOL     MW  380   0.589   1.540   0.911 -0.5242  0.0405 -0.5818
   96SOL     OW  381   1.329   1.846   1.650  0.8174  0.1142  0.1028
   96SOL    HW1  382   1.238   1.855   1.676  0.4451 -0.1483  3.4089
   96SOL    HW2  383   1.345   1.753   1.624 -2.3938 -1.1163  0.8506
   96SOL     MW  384   1.319   1.835   1.650  0.3446 -0.0828  0.6377
   97SOL     OW  385   1.080   1.528   0.865  0.2891  0.4970 -0.9809
   97SOL    HW1  386   1.115   1.598   0.925 -0.1867  1.4794  0.4150
   97SOL    HW2  387   0.987   1.553   0.853  0.4181 -0.6227  2.9038
   97SOL     MW  388   1.072   1.540   0.872  0.2433  0.4789 -0.2842
   98SOL     OW  389   1.335   1.398   1.179  0.2494  0.3222 -0.2926
   98SOL    HW1  390   1.397   1.421   1.252 -0.5935  2.1051  2.9920
   98SOL    HW2  391   1.379   1.440   1.102  2.3727  2.0514  0.4719
   98SOL     MW  392   1.349   1.407   1.178  0.4183  0.7856  0.2416
   99SOL     OW  393   1.491   0.295   1.313  0.0647  0.5372  0.5046
   99SOL    HW1  394   1.479   0.398   1.305 -0.2623 -0.7618  3.1569
   99SOL    HW2  395   1.454   0.266   1.392  0.5202 -3.1105  0.5106
   99SOL     MW  396   1.484   0.305   1.322  0.0817 -0.1155  0.8553
  100SOL     OW  397   1.073   1.154   1.374 -0.1040 -0.2360  0.0219
  100SOL    HW1  398   1.133   1.196   1.435 -1.9763  0.1933  0.4797
  100SOL    HW2  399   1.094   1.058   1.381  2.3080 -1.0325  3.2551
  100SOL     MW  400   1.084   1.147   1.383 -0.0328 -0.2845  0.5089
  101SOL     OW  401   0.550   1.210   0.418  0.2705  0.0512  0.2325
  101SOL    HW1  402   0.497   1.188   0.335  1.0984 -0.9145 -1.3717
  101SOL    HW2  403   0.638   1.182   0.384 -1.9627 -0.6692 -1.3793
  101SOL     MW  404   0.555   1.203   0.403  0.0851 -0.1713 -0.1918
  102SOL     OW  405   2.922   0.643   1.092  0.8448  0.0571 -0.4675
  102SOL    HW1  406   2.965   0.726   1.103  0.5884 -0.1416  2.4675
  102SOL    HW2  407   2.893   0.618   1.182 -3.6866 -0.7742  1.4625
  102SOL     MW  408   2.924   0.651   1.105  0.2131 -0.0788  0.1744
  103SOL     OW  409   1.860   0.252   1.813 -0.2890  0.2661 -0.4339
  103SOL    HW1  410   1.872   0.160   1.786  1.1271  2.6431  0.7500
  103SOL    HW2  411   1.863   0.257   1.912  0.3120  1.3172 -0.4665
  103SOL     MW  412   1.862   0.241   1.822 -0.0229  0.7184 -0.2820
  104SOL     OW  413   0.081   1.512   1.656 -0.8726  0.3809 -0.1196
  104SOL    HW1  414   0.130   1.436   1.710  0.2961 -1.9675 -0.1416
  104SOL    HW2  415  -0.008   1.480   1.659  1.7459  2.8050 -0.4459
  104SOL     MW  416   0.076   1.498   1.664 -0.3729  0.3909 -0.1656
  105SOL     OW  417   3.079   1.236   0.404  0.5090 -0.2144 -0.0164
  105SOL    HW1  418   3.102   1.145   0.395 -2.5930 -0.3240 -1.1844
  105SOL    HW2  419   3.157   1.291   0.404 -0.6231 -2.3551  1.4816
  105SOL     MW  420   3.092   1.231   0.403 -0.0497 -0.5113  0.0272
  106SOL     OW  421   0.795   0.349   0.833 -0.1939 -0.9626 -0.3830
  106SOL    HW1  422   0.708   0.366   0.870 -0.8638  0.1621 -0.2320
  106SOL    HW2  423   0.850   0.408   0.886  0.2783  0.0896  1.9336
  106SOL     MW  424   0.791   0.359   0.845 -0.2200 -0.6754 -0.0574
  107SOL     OW  425   0.805   2.180   2.886  0.5276  0.7748 -0.4480
  107SOL    HW1  426   0.710   2.192   2.882  3.3851  0.7178  0.2326
  107SOL    HW2  427   0.811   2.164   2.985  1.7677 -1.7461  0.1692
  107SOL     MW  428   0.793   2.180   2.899  1.0683  0.4347 -0.2767
  108SOL     OW  429   1.375   1.582   1.646 -0.0818  0.7194  0.2571
  108SOL    HW1  430   1.305   1.557   1.577  1.8611  0.0004 -0.8929
  108SOL    HW2  431   1.451   1.526   1.641  1.8828 -2.0300 -2.7519
  108SOL     MW  432   1.376   1.571   1.637  0.4337  0.2618 -0.2916
  109SOL     OW  433   2.040   0.766   0.281 -0.7044 -0.0461  0.9501
  109SOL    HW1  434   2.015   0.863   0.296 -1.0237  1.9326  3.6342
  109SOL    HW2  435   2.081   0.728   0.361  1.3173 -1.6438  0.1504
  109SOL     MW  436   2.042   0.774   0.293 -0.4798  0.0042  1.1987
  110SOL     OW  437   0.430   1.927   0.733  0.2439 -1.1858 -0.0292
  110SOL    HW1  438   0.491   1.873   0.684  2.8241 -0.8342 -0.0337
  110SOL    HW2  439   0.444   2.017   0.697  1.0040  2.6084  0.8819
  110SOL     MW  440   0.440   1.932   0.722  0.6846 -0.6388  0.0904
  111SOL     OW  441   0.847   0.890   1.368  0.0620  0.0041  0.5494
  111SOL    HW1  442   0.846   0.898   1.272  0.9297  0.7791  0.6022
  111SOL    HW2  443   0.800   0.810   1.397 -3.4149 -1.9157 -0.7717
  111SOL     MW  444   0.841   0.881   1.359 -0.2823 -0.1469  0.3820
  112SOL     OW  445   1.397   1.091   1.577  0.6586  0.5178 -0.1905
  112SOL    HW1  446   1.317   1.147   1.591 -0.1804 -0.2194 -0.8213
  112SOL    HW2  447   1.376   1.000   1.586  0.1265  1.1005 -3.4333
  112SOL     MW  448   1.384   1.086   1.580  0.4777  0.4974 -0.7016
  113SOL     OW  449   1.211   3.025   1.686 -0.5726 -0.1848  0.1615
  113SOL    HW1  450   1.222   2.986   1.773  2.0369  0.4947  0.9116
  113SOL    HW2  451   1.216   2.963   1.616 -1.1624  1.0546  0.1551
  113SOL     MW  452   1.213   3.012   1.688 -0.3061  0.0684  0.2596
  114SOL     OW  453   0.260   2.879   1.828 -0.0042 -0.6542 -1.3473
  114SOL    HW1  454   0.350   2.914   1.852  2.7827  1.8859  0.1471
  114SOL    HW2  455   0.200   2.949   1.858  0.6772 -1.4667 -0.6066
  114SOL     MW  456   0.264   2.893   1.835  0.4534 -0.4262 -1.0524
  115SOL     OW  457   0.512   0.829   1.179  0.6058  0.1108  0.1787
  115SOL    HW1  458   0.502   0.737   1.200  0.5191  0.8421 -0.5209
  115SOL    HW2  459   0.467   0.880   1.255 -2.1319  3.2326  1.8608
  115SOL     MW  460   0.504   0.824   1.192  0.2331  0.6192  0.3084
  116SOL     OW  461   0.746   1.116   0.968 -0.7532 -0.2368 -0.0163
  116SOL    HW1  462   0.775   1.161   0.881  0.5785  4.8771  0.3674
  116SOL    HW2  463   0.772   1.163   1.047 -5.1103 -0.7770 -1.4021
  116SOL     MW  464   0.753   1.128   0.967 -1.1524  0.3666 -0.1485
  117SOL     OW  465   1.120   1.254   0.821 -0.1650  0.2117 -0.3008
  117SOL    HW1  466   1.165   1.207   0.884 -2.4643  1.6280 -0.7649
  117SOL    HW2  467   1.123   1.341   0.867  0.8440  0.1761  0.0118
  117SOL     MW  468   1.126   1.259   0.835 -0.3352  0.3939 -0.3208
  118SOL     OW  469   3.019   2.952   1.765 -0.5975 -0.1075  0.9537
  118SOL    HW1  470   3.065   3.036   1.788  1.3014 -1.5403 -1.4660
  118SOL    HW2  471   2.931   2.977   1.730 -3.2730 -1.4178 -2.0244
  118SOL     MW  472   3.013   2.966   1.763 -0.7000 -0.4694  0.2415
  119SOL     OW  473   0.376   1.542   1.250 -0.2599 -0.7177 -0.1701
  119SOL    HW1  474   0.416   1.618   1.202 -4.3811  0.2475 -0.9100
  119SOL    HW2  475   0.286   1.536   1.220  0.9649  0.1781 -0.3433
  119SOL     MW  476   0.370   1.551   1.240 -0.6420 -0.4722 -0.2906
  120SOL     OW  477   0.254   0.795   0.988  0.3091  0.4260  0.0532
  120SOL    HW1  478   0.335   0.824   1.028  0.5192 -1.5639 -0.1972
  120SOL    HW2  479   0.267   0.831   0.902 -1.3885  1.4181  0.7693
  120SOL     MW  480   0.266   0.804   0.982  0.1128  0.2943  0.1146
  121SOL     OW  481   1.781   1.124   1.620 -0.4392  0.2514  0.0541
  121SOL    HW1  482   1.700   1.147   1.579  0.1416 -1.5430 -3.7271
  121SOL    HW2  483   1.825   1.067   1.556  1.0903  4.2699  0.7427
  121SOL     MW  484   1.776   1.119   1.606 -0.1608  0.5448 -0.3539
  122SOL     OW  485   0.125   0.624   0.849 -0.3591  0.4023 -0.0517
  122SOL    HW1  486   0.188   0.579   0.798  1.2772 -3.6961  1.8272
  122SOL    HW2  487   0.178   0.676   0.908  0.8284  0.7739 -1.5026
  122SOL     MW  488   0.140   0.625   0.850  0.0135 -0.0894  0.0047
  123SOL     OW  489   1.877   1.104   0.543 -0.1421 -0.1742 -0.2006
  123SOL    HW1  490   1.809   1.037   0.550  0.1714  0.6587  1.3342
  123SOL    HW2  491   1.928   1.099   0.625  2.1358 -2.2223  0.1667
  123SOL     MW  492   1.875   1.095   0.555  0.1998 -0.3345  0.0504
  124SOL     OW  493   0.554   0.460   0.965  0.6656 -0.6990  0.2186
  124SOL    HW1  494   0.491   0.470   0.893  0.7551 -0.0993  1.1769
  124SOL    HW2  495   0.607   0.539   0.952  3.7970 -2.0430 -0.0525
  124SOL     MW  496   0.553   0.471   0.954  1.0906 -0.7972  0.3093
  125SOL     OW  497   0.682   1.734   1.804 -0.2231  0.3106 -0.6088
  125SOL    HW1  498   0.673   1.690   1.719  1.3602 -1.8694  0.8785
  125SOL    HW2  499   0.632   1.820   1.798  0.1071 -0.0669  0.9967
  125SOL     MW  500   0.674   1.739   1.792  0.0293 -0.0268 -0.2007
  126SOL     OW  501   2.159   1.514   1.921 -0.5200 -0.0179 -0.5984
  126SOL    HW1  502   2.237   1.566   1.905 -0.6662 -2.0541  2.3429
  126SOL    HW2  503   2.196   1.424   1.936 -0.6558 -0.1404  0.2301
  126SOL     MW  504   2.174   1.509   1.921 -0.5572 -0.3027 -0.1010
  127SOL     OW  505   0.541   0.790   1.796  0.1805 -0.3325  0.4620
  127SOL    HW1  506   0.635   0.789   1.780  2.9521 -0.3051 -1.7342
  127SOL    HW2  507   0.519   0.853   1.864 -0.7018 -1.1742 -0.1532
  127SOL     MW  508   0.551   0.798   1.802  0.4298 -0.4399  0.0911
  128SOL     OW  509   1.751   0.722   2.890  0.1653  0.0969  0.7795
  128SOL    HW1  510   1.777   0.701   2.799 -0.3609 -1.8133 -4.2314
  128SOL    HW2  511   1.728   0.813   2.878  1.6884  0.7165 -0.7483
  128SOL     MW  512   1.751   0.731   2.876  0.2969 -0.0734 -0.0832
  129SOL     OW  513   1.579   0.919   0.188 -0.0026 -0.5779 -0.3527
  129SOL    HW1  514   1.522   0.842   0.181  1.2347  0.0465  2.0878
  129SOL    HW2  515   1.661   0.873   0.208 -1.6347  2.5315  1.8993
  129SOL     MW  516   1.583   0.902   0.190 -0.0547 -0.0853  0.2664
  130SOL     OW  517   0.826   1.434   0.325 -0.3617  0.0516 -0.4969
  130SOL    HW1  518   0.828   1.449   0.426  0.8902 -3.2686 -0.0453
  130SOL    HW2  519   0.917   1.448   0.292  3.3116 -0.3301 -1.0112
  130SOL     MW  520   0.838   1.438   0.334  0.2881 -0.4368 -0.5052
  131SOL     OW  521   0.040   0.779   0.065  0.7666  0.2730  0.3847
  131SOL    HW1  522   0.009   0.785  -0.028 -1.6881  0.7750 -0.1459
  131SOL    HW2  523   0.132   0.799   0.069 -1.1696 -2.0629  0.1226
  131SOL     MW  524   0.048   0.782   0.053  0.1872  0.0310  0.2801
  132SOL     OW  525   2.738   0.097   1.259  0.3466 -0.1464  0.1465
  132SOL    HW1  526   2.772   0.105   1.169  1.5861 -1.7987 -3.9634
  132SOL    HW2  527   2.649   0.061   1.238 -2.8725  0.9453 -0.0017
  132SOL     MW  528   2.731   0.093   1.244  0.0854 -0.2204 -0.4153
  133SOL     OW  529   1.059   0.133   1.669  0.0424 -0.0942  0.8307
  133SOL    HW1  530   1.113   0.050   1.684  1.4219 -1.4595  1.0343
  133SOL    HW2  531   1.049   0.167   1.759  1.4594  0.5411  0.5105
  133SOL     MW  532   1.065   0.127   1.683  0.4114 -0.1905  0.8153
  134SOL     OW  533   1.412   2.429   1.491  0.1175  0.3584 -0.0930
  134SOL    HW1  534   1.393   2.501   1.433  0.8417 -0.0016  2.3216
  134SOL    HW2  535   1.446   2.480   1.568 -0.7110 -2.8700 -0.0346
  134SOL     MW  536   1.414   2.445   1.494  0.1037 -0.1150  0.2333
  135SOL     OW  537   2.994   0.996   2.982  0.4814  0.1523 -0.1142
  135SOL    HW1  538   3.089   1.017   2.998  1.1019 -3.3362  1.4226
  135SOL    HW2  539   2.944   1.078   2.957  0.7407  0.8845 -0.4197
  135SOL     MW  540   3.000   1.009   2.981  0.5975 -0.2114  0.0483
  136SOL     OW  541   0.186   1.968   0.868 -0.3288 -0.2958 -0.2013
  136SOL    HW1  542   0.124   1.931   0.804  0.0738  0.7686  2.6219
  136SOL    HW2  543   0.272   1.958   0.827 -1.3442 -0.9584  1.5703
  136SOL     MW  544   0.189   1.962   0.854 -0.4097 -0.2428  0.4049
  137SOL     OW  545   0.735   2.049   0.561  0.7374  0.7918  0.4515
  137SOL    HW1  546   0.748   2.044   0.659  0.9182 -2.6657  1.0450
  137SOL    HW2  547   0.638   2.073   0.550  2.4689  0.9669 -1.3736
  137SOL     MW  548   0.724   2.052   0.572  0.9897  0.3587  0.2890
  138SOL     OW  549   0.467   0.556   1.230  0.2299  0.6254 -0.3716
  138SOL    HW1  550   0.370   0.532   1.231 -0.9636 -1.2974  0.0902
  138SOL    HW2  551   0.496   0.511   1.149  1.9621 -1.2440 -0.0458
  138SOL     MW  552   0.458   0.547   1.219  0.3010  0.1251 -0.2677
  139SOL     OW  553   2.847   0.556   1.352  0.3295 -0.5003  0.2128
  139SOL    HW1  554   2.907   0.480   1.345  1.8273  1.9023  1.2511
  139SOL    HW2  555   2.854   0.586   1.444 -2.2151 -0.3790 -1.1013
  139SOL     MW  556   2.856   0.550   1.363  0.1914 -0.1673  0.1764
  140SOL     OW  557   0.879   0.448   1.968 -0.3643 -0.1596  0.4637
  140SOL    HW1  558   0.923   0.366   1.947  0.6180 -1.0405  0.0304
  140SOL    HW2  559   0.872   0.444   2.062 -2.4912 -1.4337 -0.8358
  140SOL     MW  560   0.884   0.437   1.978 -0.5153 -0.4439  0.2350
  141SOL     OW  561   1.023   0.613   1.623  0.1873 -0.7807 -0.0759
  141SOL    HW1  562   1.038   0.524   1.589  1.1241  0.1407 -0.4260
  141SOL    HW2  563   1.104   0.637   1.667  3.8090 -0.6518 -0.6048
  141SOL     MW  564   1.035   0.604   1.624  0.7888 -0.6421 -0.1918
  142SOL     OW  565   0.871   1.212   0.737  0.1388 -0.2674  0.1586
  142SOL    HW1  566   0.892   1.170   0.652  0.3419  0.3366  0.4893
  142SOL    HW2  567   0.951   1.235   0.784  0.0629  3.0249  0.5665
  142SOL     MW  568   0.885   1.210   0.732  0.1556  0.2466  0.2560
  143SOL     OW  569   1.829   0.673   1.041 -0.2585  0.5180 -0.3906
  143SOL    HW1  570   1.890   0.697   0.973 -2.8223  4.3204  1.1804
  143SOL    HW2  571   1.742   0.711   1.023  0.7781 -0.1520 -2.6001
  143SOL     MW  572   1.825   0.681   1.030 -0.4600  0.9313 -0.4748
  144SOL     OW  573   0.255   1.318   1.739 -0.3022 -0.3152 -0.4035
  144SOL    HW1  574   0.342   1.359   1.722 -0.5211 -0.2419  1.3881
  144SOL    HW2  575   0.287   1.259   1.812  0.8944  0.0671 -2.8791
  144SOL     MW  576   0.271   1.316   1.746 -0.1732 -0.2551 -0.4937
  145SOL     OW  577   0.154   0.451   1.246  0.0834  0.0927  0.1794
  145SOL    HW1  578   0.199   0.364   1.266 -0.6048  1.6616 -0.6554
  145SOL    HW2  579   0.115   0.447   1.155  3.9455 -1.4825 -2.7488
  145SOL     MW  580   0.155   0.439   1.236  0.5022  0.0919 -0.3171
  146SOL     OW  581   0.814   1.919   1.437 -0.4087  0.3617  0.2481
  146SOL    HW1  582   0.832   1.945   1.342  0.0731 -0.5823  1.1100
  146SOL    HW2  583   0.740   1.861   1.439 -2.4407  0.4594  0.9705
  146SOL     MW  584   0.807   1.915   1.424 -0.6132  0.2500  0.4572
  147SOL     OW  585   0.443   0.480   2.918  0.2993  0.5972 -0.2195
  147SOL    HW1  586   0.383   0.493   2.991  1.0360 -2.3705  0.7214
  147SOL    HW2  587   0.411   0.550   2.864 -2.0525 -0.2899  1.2794
  147SOL     MW  588   0.431   0.491   2.921  0.0862  0.0886  0.1024
  148SOL     OW  589   0.075   0.906   1.315 -0.2056  0.1570 -0.0731
  148SOL    HW1  590   0.167   0.927   1.319  2.8105  0.3113  0.2886
  148SOL    HW2  591   0.033   0.980   1.357 -0.3906 -2.8532  1.7122
  148SOL     MW  592   0.082   0.919   1.321  0.1680 -0.2198  0.2102
  149SOL     OW  593   1.583   1.156   1.413  0.2835  0.1058 -0.4863
  149SOL    HW1  594   1.510   1.129   1.466 -1.6473  0.0134  0.6754
  149SOL    HW2  595   1.552   1.243   1.392  0.1249 -0.0178  0.7966
  149SOL     MW  596   1.569   1.164   1.417  0.0078  0.0773 -0.1638
  150SOL     OW  597   1.726   1.434   0.895 -0.0368  0.9410 -0.0114
  150SOL    HW1  598   1.785   1.357   0.894 -2.4959 -0.7459  1.3316
  150SOL    HW2  599   1.774   1.516   0.879 -2.3172  1.8575 -0.8625
  150SOL     MW  600   1.740   1.435   0.893 -0.6621  0.8394  0.0535
  151SOL     OW  601   1.672   1.902   0.822 -0.4598 -0.0333 -0.1139
  151SOL    HW1  602   1.646   1.889   0.727  0.9644 -0.9556  1.7195
  151SOL    HW2  603   1.603   1.859   0.872  1.3068 -2.5782 -0.5572
  151SOL     MW  604   1.659   1.895   0.816 -0.0388 -0.4908  0.0695
  152SOL     OW  605   0.667   1.395   1.565 -0.1496  0.3025 -0.2753
  152SOL    HW1  606   0.746   1.417   1.512 -3.4517  1.7103 -0.2019
  152SOL    HW2  607   0.617   1.321   1.530 -5.4362  0.0263  2.6241
  152SOL     MW  608   0.671   1.388   1.554 -1.2828  0.4518  0.1169
  153SOL     OW  609   2.578   1.215   0.710  0.9236  0.0679 -0.1294
  153SOL    HW1  610   2.658   1.180   0.671 -1.2965  1.4348 -1.1732
  153SOL    HW2  611   2.529   1.139   0.755 -1.8741 -0.7672  1.1129
  153SOL     MW  612   2.582   1.200   0.711  0.2615  0.1380 -0.1032
  154SOL     OW  613   0.116   1.774   1.781  0.4936  0.1480  0.3784
  154SOL    HW1  614   0.083   1.682   1.754  2.0307 -2.4686  0.2093
  154SOL    HW2  615   0.200   1.750   1.813 -1.9194  0.3530 -1.8622
  154SOL     MW  616   0.123   1.758   1.782  0.3781 -0.1702  0.0604
  155SOL     OW  617   1.221   0.736   0.276 -0.1638 -0.2812 -0.4937
  155SOL    HW1  618   1.194   0.694   0.367  1.5934 -0.6471 -0.3029
  155SOL    HW2  619   1.215   0.834   0.294  1.4753  0.7016 -0.0001
  155SOL     MW  620   1.216   0.743   0.291  0.2843 -0.1998 -0.4034
  156SOL     OW  621   1.541   3.093   1.083  0.3566  0.6251 -0.0461
  156SOL    HW1  622   1.592   3.147   1.140 -0.9009 -0.9313  2.6875
  156SOL    HW2  623   1.588   3.011   1.079 -1.9831 -1.2185  0.6481
  156SOL     MW  624   1.554   3.089   1.090 -0.1180  0.1765  0.4061
  157SOL     OW  625   1.331   1.172   0.151 -0.3968  0.1917  1.0837
  157SOL    HW1  626   1.396   1.114   0.179 -1.3866 -1.0138 -0.6268
  157SOL    HW2  627   1.380   1.254   0.152  0.9034 -2.6241 -1.4884
  157SOL     MW  628   1.346   1.175   0.154 -0.3559 -0.3389  0.5186
  158SOL     OW  629   0.428   1.659   2.254 -0.2741 -0.1397 -0.1618
  158SOL    HW1  630   0.494   1.697   2.195  0.2467  0.5807 -1.1431
  158SOL    HW2  631   0.357   1.720   2.256 -0.9596 -1.7245 -2.1730
  158SOL     MW  632   0.427   1.672   2.246 -0.2958 -0.2537 -0.5567
  159SOL     OW  633   1.184   1.631   0.529  0.3735 -0.2440  0.7975
  159SOL    HW1  634   1.134   1.584   0.459 -0.4767 -1.3994  1.1137
  159SOL    HW2  635   1.126   1.701   0.565 -2.1623  0.6913 -0.3467
  159SOL     MW  636   1.169   1.634   0.524 -0.0732 -0.2730  0.6883
  160SOL     OW  637   0.516   1.182   1.558 -0.0579 -0.2711 -0.1657
  160SOL    HW1  638   0.453   1.109   1.589 -0.5489  0.6424 -1.0841
  160SOL    HW2  639   0.594   1.130   1.530 -0.0061  0.1257  0.8143
  160SOL     MW  640   0.518   1.166   1.558 -0.1158 -0.0982 -0.1576
  161SOL     OW  641   0.419   2.238   2.648  0.2674 -0.5215  0.1967
  161SOL    HW1  642   0.371   2.317   2.621 -1.7506  3.0996 -0.6279
  161SOL    HW2  643   0.415   2.175   2.572 -0.2429 -0.1264  0.3602
  161SOL     MW  644   0.412   2.240   2.635 -0.0662  0.0084  0.1094
  162SOL     OW  645   1.068   1.818   1.781 -0.4983  0.3726  0.7042
  162SOL    HW1  646   1.058   1.909   1.804  1.8605 -1.4461  1.1890
  162SOL    HW2  647   1.014   1.782   1.849 -0.4404 -1.1565 -1.1426
  162SOL     MW  648   1.059   1.825   1.793 -0.1794 -0.0691  0.5245
  163SOL     OW  649   2.115   3.095   0.845 -0.2435  0.3367 -0.4131
  163SOL    HW1  650   2.099   3.161   0.780 -0.9866 -0.0216  0.1830
  163SOL    HW2  651   2.090   3.005   0.802  0.7246 -2.1148 -0.1850
  163SOL     MW  652   2.109   3.092   0.831 -0.2138 -0.0340 -0.3043
  164SOL     OW  653   0.298   0.215   0.803 -0.4745  0.1766 -0.0044
  164SOL    HW1  654   0.207   0.204   0.831  0.6015 -2.1105  0.6614
  164SOL    HW2  655   0.314   0.151   0.736  0.0292  1.6354  0.7425
  164SOL     MW  656   0.288   0.205   0.798 -0.2661  0.0673  0.1820
  165SOL     OW  657   1.217   1.292   0.353  0.0933  0.0732  0.3804
  165SOL    HW1  658   1.252   1.258   0.441 -0.0576  0.4297  0.4354
  165SOL    HW2  659   1.263   1.235   0.285 -1.4473  1.6074  0.3544
  165SOL     MW  660   1.228   1.280   0.355 -0.1299  0.3227  0.3842
  166SOL     OW  661   0.478   1.146   1.032  0.2309  1.2914 -0.2741
  166SOL    HW1  662   0.455   1.167   1.128 -1.8877 -1.0133  1.7621
  166SOL    HW2  663   0.575   1.158   1.031 -0.3304  0.6175  1.7027
  166SOL     MW  664   0.488   1.151   1.045 -0.1227  0.8984  0.2553
  167SOL     OW  665   0.808   1.173   0.298 -0.2525  0.4925  0.2706
  167SOL    HW1  666   0.805   1.272   0.311  2.6357  1.5657  2.1451
  167SOL    HW2  667   0.877   1.145   0.229  1.7642 -0.6304 -1.2537
  167SOL     MW  668   0.817   1.183   0.291  0.3947  0.4859  0.3168
  168SOL     OW  669   1.722   1.619   3.043 -0.1540  0.1170 -0.2359
  168SOL    HW1  670   1.658   1.688   3.017 -1.6814  0.7800  1.5204
  168SOL    HW2  671   1.689   1.534   3.019  1.6415 -0.7232  0.0688
  168SOL     MW  672   1.709   1.617   3.037 -0.1186  0.0936  0.0361
  169SOL     OW  673   0.327   1.016   1.337 -0.2723 -0.5024 -0.4089
  169SOL    HW1  674   0.324   0.993   1.429 -0.9079 -1.1429 -2.8855
  169SOL    HW2  675   0.335   1.113   1.341  2.1085  0.5165 -1.6848
  169SOL     MW  676   0.327   1.026   1.349 -0.0420 -0.4525 -0.9040
  170SOL     OW  677   1.144   1.507   1.465 -0.5918  0.1009 -0.3638
  170SOL    HW1  678   1.079   1.558   1.515 -0.0986  0.1164  1.3384
  170SOL    HW2  679   1.116   1.534   1.377 -1.7189  2.3202  1.2881
  170SOL     MW  680   1.132   1.517   1.460 -0.6755  0.3957  0.0787
  171SOL     OW  681   0.510   1.459   0.540 -0.4785 -0.1172  0.8983
  171SOL    HW1  682   0.430   1.505   0.514  3.3708 -1.6806 -0.4029
  171SOL    HW2  683   0.491   1.368   0.494 -1.0469 -2.7287 -2.3514
  171SOL     MW  684   0.497   1.453   0.530 -0.0456 -0.6681  0.2979
  172SOL     OW  685   0.764   0.299   1.273  0.2920  0.1312 -0.3251
  172SOL    HW1  686   0.731   0.274   1.186  1.0992  0.2406  1.2389
  172SOL    HW2  687   0.809   0.221   1.314  1.7468 -2.4530  0.9556
  172SOL     MW  688   0.765   0.285   1.267  0.5904 -0.1953  0.0502
  173SOL     OW  689   0.557   1.726   0.319  0.2900 -1.0944  0.4045
  173SOL    HW1  690   0.570   1.641   0.293 -0.2045  3.1057 -0.0849
  173SOL    HW2  691   0.640   1.748   0.368  1.6595  1.6524 -2.2180
  173SOL     MW  692   0.570   1.718   0.322  0.4055 -0.1779 -0.0061
  174SOL     OW  693   1.885   0.863   1.494  0.8996  0.2941  0.0393
  174SOL    HW1  694   1.822   0.810   1.549 -1.4481  3.0944  0.4660
  174SOL    HW2  695   1.846   0.860   1.404  1.0255  1.9881  0.2239
  174SOL     MW  696   1.871   0.855   1.489  0.6064  0.8871  0.1199
  175SOL     OW  697   0.570   1.484   0.155  0.2448 -0.1137  0.1814
  175SOL    HW1  698   0.555   1.393   0.133 -0.8558  0.0910  0.7947
  175SOL    HW2  699   0.665   1.485   0.179 -2.5966 -1.3247  1.7852
  175SOL     MW  700   0.581   1.472   0.156 -0.2753 -0.2464  0.4739
  176SOL     OW  701   0.112   1.491   1.193 -0.0996  0.2543  0.1562
  176SOL    HW1  702   0.105   1.447   1.103 -2.2902 -0.6886 -3.0725
  176SOL    HW2  703   0.035   1.453   1.235  0.3237  1.2964  0.6484
  176SOL     MW  704   0.101   1.480   1.187 -0.3328  0.2674 -0.2049
  177SOL     OW  705   0.507   0.329   1.420 -0.6437 -0.0608  0.0208
  177SOL    HW1  706   0.580   0.333   1.357 -2.9355  1.5407 -3.7597
  177SOL    HW2  707   0.501   0.421   1.444  0.0535 -2.2859  1.4596
  177SOL     MW  708   0.516   0.341   1.415 -0.8541 -0.1431 -0.2882
  178SOL     OW  709   3.070   0.494   3.017 -0.1586  0.5232  0.7033
  178SOL    HW1  710   3.011   0.541   3.069 -1.2177 -1.7694 -3.9915
  178SOL    HW2  711   3.041   0.508   2.926 -3.2132  0.1000 -2.0010
  178SOL     MW  712   3.058   0.502   3.011 -0.7014  0.1649 -0.2729
  179SOL     OW  713   1.536   1.469   1.332 -0.3870  0.0588  0.3277
  179SOL    HW1  714   1.530   1.473   1.424  1.0915 -0.8527 -1.6794
  179SOL    HW2  715   1.633   1.459   1.315 -1.7035 -0.4826  0.9063
  179SOL     MW  716   1.548   1.468   1.342 -0.3656 -0.1329  0.1392
  180SOL     OW  717   0.005   0.283   0.436  0.5375 -0.1498 -0.5495
  180SOL    HW1  718  -0.060   0.288   0.367 -4.2749 -0.0274  1.5621
  180SOL    HW2  719   0.048   0.371   0.440  0.7755  2.2053  0.8348
  180SOL     MW  720   0.002   0.295   0.427 -0.0660  0.1771 -0.0883
  181SOL     OW  721   1.090   1.292   3.088 -0.6611  0.4125  0.1182
  181SOL    HW1  722   1.147   1.365   3.111 -0.1834 -2.8650 -0.6735
  181SOL    HW2  723   1.164   1.226   3.073  1.0361  1.1460 -1.9140
  181SOL     MW  724   1.107   1.293   3.089 -0.3741  0.0768 -0.2544
  182SOL     OW  725   0.374   0.962   1.635  0.0744 -0.4692 -0.1286
  182SOL    HW1  726   0.300   0.955   1.700  0.4908 -0.6437 -3.7406
  182SOL    HW2  727   0.430   0.885   1.643  0.1923 -0.0146 -3.4670
  182SOL     MW  728   0.371   0.951   1.645  0.1449 -0.4322 -1.0456
  183SOL     OW  729   1.576   1.756   1.292 -0.0136  0.2308  0.0700
  183SOL    HW1  730   1.677   1.750   1.294 -0.4758  1.1519 -0.5589
  183SOL    HW2  731   1.548   1.672   1.325 -0.6182  3.0508  1.1213
  183SOL     MW  732   1.586   1.744   1.296 -0.1543  0.7244  0.1257
  184SOL     OW  733   0.806   0.716   1.777  0.1026 -0.2796 -0.1148
  184SOL    HW1  734   0.896   0.733   1.752  0.9605  1.2030  0.3262
  184SOL    HW2  735   0.806   0.624   1.805  1.0339 -2.6375  0.0255
  184SOL     MW  736   0.818   0.707   1.777  0.3387 -0.3951 -0.0381
  185SOL     OW  737   1.124   0.960   1.859  0.5715 -0.2478  0.4735
  185SOL    HW1  738   1.089   0.877   1.895 -1.2043 -0.1044 -2.1307
  185SOL    HW2  739   1.167   1.010   1.934  2.7773  1.5985 -1.0537
  185SOL     MW  740   1.125   0.956   1.873  0.6282  0.0147 -0.0716
  186SOL     OW  741   0.281   1.614   1.488 -0.3169 -0.0856  0.6393
  186SOL    HW1  742   0.291   1.578   1.402 -2.1715  4.1880 -0.4765
  186SOL    HW2  743   0.217   1.563   1.542 -0.4625 -0.9502  2.1183
  186SOL     MW  744   0.274   1.603   1.484 -0.5808  0.3642  0.6872
  187SOL     OW  745   1.421   0.757   1.385 -0.4661 -0.0748 -0.1551
  187SOL    HW1  746   1.438   0.742   1.477 -1.2557  0.4062  0.4135
  187SOL    HW2  747   1.325   0.747   1.387 -1.6887  2.2453  1.1592
  187SOL     MW  748   1.411   0.754   1.397 -0.7316  0.2948  0.0934
  188SOL     OW  749   1.902   1.196   0.861  0.2046  0.0663  0.5674
  188SOL    HW1  750   1.902   1.216   0.958 -0.8286  0.4305  3.1507
  188SOL    HW2  751   1.916   1.100   0.847 -1.5878 -1.3359  1.3853
  188SOL     MW  752   1.904   1.186   0.872 -0.1682 -0.0707  1.0161
  189SOL     OW  753   0.684   0.718   0.866  0.0222 -0.1426  0.2734
  189SOL    HW1  754   0.607   0.775   0.854  2.4494 -1.1095 -1.8711
  189SOL    HW2  755   0.717   0.766   0.944  3.1815 -1.6760 -0.8465
  189SOL     MW  756   0.678   0.732   0.875  0.7593 -0.4725 -0.1573
  190SOL     OW  757   1.867   0.303   2.088 -0.3839  0.3928 -0.4889
  190SOL    HW1  758   1.857   0.282   2.187 -0.9328 -2.7867  2.2257
  190SOL    HW2  759   1.964   0.333   2.075  2.0405 -2.3505 -1.3365
  190SOL     MW  760   1.879   0.304   2.099 -0.1364 -0.3886 -0.2425
  191SOL     OW  761   1.552   0.970   1.228  0.5768 -0.3111 -0.2983
  191SOL    HW1  762   1.563   1.036   1.294 -1.3923  1.1432 -1.4953
  191SOL    HW2  763   1.506   0.896   1.272 -0.6289 -1.0586 -1.4922
  191SOL     MW  764   1.547   0.969   1.243  0.1579 -0.2178 -0.6138
  192SOL     OW  765   0.531   2.191   2.897 -0.8355  0.0629  0.8030
  192SOL    HW1  766   0.479   2.243   2.838 -0.4366  0.0420 -1.9780
  192SOL    HW2  767   0.538   2.102   2.865  0.4468  1.8966 -0.0839
  192SOL     MW  768   0.525   2.186   2.885 -0.6137  0.3021  0.3191
  193SOL     OW  769   0.821   1.647   0.806 -0.4075 -0.0167 -0.5169
  193SOL    HW1  770   0.724   1.624   0.839 -2.4925 -3.3274  1.2642
  193SOL    HW2  771   0.821   1.584   0.732 -2.0385  3.2004  1.1051
  193SOL     MW  772   0.808   1.635   0.801 -0.8978 -0.0290 -0.0679
  194SOL     OW  773   0.467   1.327   0.824 -0.1985 -0.0533  0.8052
  194SOL    HW1  774   0.468   1.260   0.899 -1.6909  1.0365  0.1519
  194SOL    HW2  775   0.373   1.347   0.806 -0.2892 -2.9099  0.1113
  194SOL     MW  776   0.455   1.321   0.832 -0.4074 -0.2864  0.6275
  195SOL     OW  777   1.269   1.087   2.991 -0.8740 -0.1661  0.4107
  195SOL    HW1  778   1.313   1.091   3.073 -0.7416 -0.9702 -0.9475
  195SOL    HW2  779   1.211   1.013   2.999  0.6077 -1.2433  0.6857
  195SOL     MW  780   1.267   1.078   3.003 -0.6611 -0.4144  0.2678
  196SOL     OW  781   2.262   1.022   0.580 -0.4802 -0.4058 -0.9273
  196SOL    HW1  782   2.261   1.006   0.486 -0.9737  2.0708  2.0241
  196SOL    HW2  783   2.229   1.113   0.593  0.2295 -0.7129  2.0000
  196SOL     MW  784   2.258   1.032   0.569 -0.4517 -0.1196 -0.1517
  197SOL     OW  785   0.623   1.357   2.190 -0.7964 -0.0733 -0.6035
  197SOL    HW1  786   0.635   1.276   2.141 -0.5259 -1.3786  0.4057
  197SOL    HW2  787   0.688   1.420   2.153 -0.8260 -1.1980  1.9316
  197SOL     MW  788   0.633   1.354   2.178 -0.7646 -0.3939 -0.1359
  198SOL     OW  789   2.936   1.433   0.976 -0.2387 -0.0114  0.1388
  198SOL    HW1  790   2.942   1.525   0.961  0.6719  0.2883  1.6448
  198SOL    HW2  791   2.855   1.403   0.939  1.8004 -1.7191 -1.2351
  198SOL     MW  792   2.926   1.441   0.969  0.1505 -0.1972  0.1562
  199SOL     OW  793   0.673   1.300   1.822 -0.5617 -0.5470  0.4434
  199SOL    HW1  794   0.578   1.279   1.836 -2.0018 -1.7092  0.5227
  199SOL    HW2  795   0.680   1.337   1.730 -2.0754 -1.1537 -1.1683
  199SOL     MW  796   0.662   1.302   1.812 -0.9514 -0.7804  0.2412
  200SOL     OW  797   1.837   2.928   1.317 -0.2609  0.6227 -0.4880
  200SOL    HW1  798   1.888   2.956   1.238  0.8555 -0.6487 -3.8925
  200SOL    HW2  799   1.762   3.002   1.320 -1.1934  0.0674 -2.1512
  200SOL     MW  800   1.834   2.941   1.307 -0.2366  0.3817 -1.1566
  201SOL     OW  801   1.180   0.327   0.810  0.4271 -0.5375  0.2528
  201SOL    HW1  802   1.136   0.239   0.820 -0.8085  0.7571 -1.4546
  201SOL    HW2  803   1.272   0.317   0.842  0.7775  2.4997  1.1409
  201SOL     MW  804   1.186   0.314   0.815  0.3103  0.0341  0.1447
  202SOL     OW  805   1.503   1.739   0.981 -0.0270 -1.0718  0.1357
  202SOL    HW1  806   1.490   1.648   0.955  0.0685  1.9665 -0.2590
  202SOL    HW2  807   1.557   1.733   1.054 -0.2437 -0.0641 -2.0460
  202SOL     MW  808   1.509   1.726   0.987 -0.0430 -0.5380 -0.2042
  203SOL     OW  809   3.013   0.348   1.308 -0.0090 -0.1403  0.0361
  203SOL    HW1  810   3.039   0.259   1.293  2.1086 -2.2314 -1.4692
  203SOL    HW2  811   3.091   0.404   1.293  0.0455  1.4761 -3.5873
  203SOL     MW  812   3.027   0.344   1.304  0.2776 -0.2029 -0.6406
  204SOL     OW  813   1.018   1.795   0.656 -0.4410  0.7167  0.4206
  204SOL    HW1  814   0.972   1.743   0.722  0.4362 -1.3221  1.9688
  204SOL    HW2  815   0.956   1.791   0.585  0.9531 -2.1839  1.2784
  204SOL     MW  816   1.004   1.788   0.655 -0.1413  0.0650  0.7380
  205SOL     OW  817   1.394   3.034   1.316  0.2928 -0.3668 -0.0277
  205SOL    HW1  818   1.414   3.038   1.221  2.4384 -0.9331 -0.7820
  205SOL    HW2  819   1.321   3.095   1.332  1.6146  0.9536 -1.7273
  205SOL     MW  820   1.387   3.042   1.305  0.7503 -0.2673 -0.3515
  206SOL     OW  821   0.395   2.956   1.348 -0.1705 -0.7682 -0.0565
  206SOL    HW1  822   0.370   2.942   1.256 -1.4379  3.3698 -0.7043
  206SOL    HW2  823   0.487   2.978   1.340  1.3797 -1.5655  0.1420
  206SOL     MW  824   0.404   2.957   1.335 -0.1331 -0.3274 -0.1157
  207SOL     OW  825   0.867   1.777   0.202  0.0901 -0.4873  0.1047
  207SOL    HW1  826   0.925   1.833   0.151 -0.5042  0.4501  1.7340
  207SOL    HW2  827   0.920   1.697   0.207  0.5062  2.0485 -3.4040
  207SOL     MW  828   0.882   1.774   0.196  0.0666 -0.0291 -0.1433
  208SOL     OW  829   0.782   1.564   1.375  0.2952 -0.3390 -1.1133
  208SOL    HW1  830   0.872   1.603   1.357  0.9342  0.3927  0.3281
  208SOL    HW2  831   0.740   1.544   1.298 -1.0743  1.7210  0.3113
  208SOL     MW  832   0.788   1.567   1.362  0.1989  0.0293 -0.7352
  209SOL     OW  833   1.550   0.513   2.846  0.7528 -0.3720 -0.1802
  209SOL    HW1  834   1.615   0.572   2.882  1.1602  1.3448 -1.7083
  209SOL    HW2  835   1.603   0.431   2.831  0.9521 -0.3887 -0.4623
  209SOL     MW  836   1.565   0.510   2.849  0.8328 -0.1476 -0.4190
  210SOL     OW  837   1.463   1.463   0.954 -0.3321 -0.2117  0.4511
  210SOL    HW1  838   1.556   1.450   0.929  1.8467  2.9956 -1.0251
  210SOL    HW2  839   1.417   1.466   0.867  2.6665 -1.5853 -1.8650
  210SOL     MW  840   1.469   1.462   0.939  0.3510  0.0302 -0.0493
  211SOL     OW  841   1.723   0.365   0.942 -0.0857  0.5483 -0.6573
  211SOL    HW1  842   1.730   0.402   0.850  0.7426  2.2753  0.0676
  211SOL    HW2  843   1.815   0.377   0.960 -2.9429  1.0034 -2.1643
  211SOL     MW  844   1.736   0.372   0.932 -0.3534  0.8362 -0.7605
  212SOL     OW  845   0.337   1.148   0.232  0.6444  0.0764 -0.1107
  212SOL    HW1  846   0.253   1.102   0.252  1.4260 -0.3253 -2.0614
  212SOL    HW2  847   0.383   1.101   0.159 -0.2995 -0.4734 -2.4850
  212SOL     MW  848   0.332   1.136   0.225  0.6230 -0.0491 -0.6813
  213SOL     OW  849   0.368   1.870   3.021 -0.1958  0.0628 -0.0523
  213SOL    HW1  850   0.415   1.902   3.095 -0.1380 -0.1211 -3.3782
  213SOL    HW2  851   0.435   1.888   2.947  1.8256 -1.7258 -1.4477
  213SOL     MW  852   0.383   1.877   3.021  0.0785 -0.1974 -0.6752
  214SOL     OW  853   0.587   0.300   2.122 -0.0799  0.1797  0.2750
  214SOL    HW1  854   0.524   0.366   2.110 -1.4883  2.6350 -2.3734
  214SOL    HW2  855   0.636   0.321   2.040 -0.7090  0.7588 -1.5325
  214SOL     MW  856   0.585   0.312   2.110 -0.3488  0.5801 -0.3129
  215SOL     OW  857   0.500   0.546   2.537 -0.1620 -0.1838  0.1811
  215SOL    HW1  858   0.464   0.602   2.472  1.2651  0.1941 -1.2008
  215SOL    HW2  859   0.450   0.465   2.550  1.6923 -1.8947 -3.3391
  215SOL     MW  860   0.489   0.543   2.530  0.2710 -0.3597 -0.4657
  216SOL     OW  861   2.917   3.084   2.720 -0.2503 -0.1283  0.2360
  216SOL    HW1  862   2.886   3.087   2.813 -0.3986 -1.7917  1.0204
  216SOL    HW2  863   2.940   3.184   2.702  0.4418  1.8598 -1.3568
  216SOL     MW  864   2.916   3.098   2.730 -0.1786 -0.0855  0.1294
  217SOL     OW  865   1.008   1.077   0.160 -0.2731  0.0331  0.1058
  217SOL    HW1  866   1.007   1.008   0.094  1.7359  1.6614  1.3725
  217SOL    HW2  867   1.060   1.158   0.130  0.5958  0.9894  1.0875
  217SOL     MW  868   1.015   1.078   0.147  0.1066  0.3741  0.4025
  218SOL     OW  869   0.849   1.380   2.644 -0.3296  0.2295  0.0102
  218SOL    HW1  870   0.852   1.305   2.707 -1.7047 -1.2405 -1.6107
  218SOL    HW2  871   0.944   1.392   2.624 -0.3730 -1.5449  0.9376
  218SOL     MW  872   0.862   1.371   2.650 -0.5167 -0.1985 -0.0813
  219SOL     OW  873   1.043   0.408   2.616 -0.1230  0.4027 -0.0039
  219SOL    HW1  874   1.105   0.458   2.667  0.7739 -1.0755 -1.4690
  219SOL    HW2  875   0.965   0.466   2.618  1.3234  0.2821 -0.4339
  219SOL     MW  876   1.041   0.422   2.623  0.1862  0.1917 -0.2539
  220SOL     OW  877   1.738   0.530   2.172 -0.0294  0.4319 -0.1805
  220SOL    HW1  878   1.641   0.548   2.173  0.0966  0.2678  0.3421
  220SOL    HW2  879   1.763   0.452   2.122 -0.2741  0.2652  0.3072
  220SOL     MW  880   1.729   0.522   2.166 -0.0451  0.3882 -0.0472
  221SOL     OW  881   0.367   1.340   2.929  0.4339  0.4425 -0.0739
  221SOL    HW1  882   0.436   1.276   2.931  1.7663  4.2238 -1.9916
  221SOL    HW2  883   0.402   1.403   2.872 -0.1430  0.5001  3.5285
  221SOL     MW  884   0.380   1.339   2.922  0.5336  0.9490  0.1484
  222SOL     OW  885   0.504   0.955   2.697 -0.0332 -0.4255  0.6100
  222SOL    HW1  886   0.424   0.946   2.649 -0.5572 -1.8201  1.5789
  222SOL    HW2  887   0.516   0.867   2.726 -0.6473  1.9605 -0.8573
  222SOL     MW  888   0.495   0.942   2.695 -0.1833 -0.2947  0.5442
  223SOL     OW  889   0.005   2.039   2.521 -0.5089 -0.4036  0.0790
  223SOL    HW1  890   0.054   2.009   2.599 -1.4544 -0.2582  0.2799
  223SOL    HW2  891   0.029   2.135   2.502  1.7398 -0.4018 -4.2945
  223SOL     MW  892   0.015   2.048   2.529 -0.3370 -0.3842 -0.4715
  224SOL     OW  893   1.447   0.709   2.457 -0.1934 -0.2118 -0.1616
  224SOL    HW1  894   1.521   0.665   2.504  3.8668 -0.4524 -1.2539
  224SOL    HW2  895   1.440   0.802   2.468  0.6525 -1.0998 -0.5077
  224SOL     MW  896   1.456   0.715   2.464  0.4539 -0.3607 -0.3514
  225SOL     OW  897   2.919   1.464   2.312  0.3974  0.2026 -0.2810
  225SOL    HW1  898   2.958   1.545   2.283 -1.6596  0.1857  1.1632
  225SOL    HW2  899   2.840   1.494   2.361  0.7303  1.1362 -2.3846
  225SOL     MW  900   2.914   1.479   2.315  0.1699  0.3235 -0.3680
  226SOL     OW  901   0.426   1.491   2.710  0.1177  0.4372 -0.5258
  226SOL    HW1  902   0.514   1.505   2.674 -0.1368 -1.1011  0.5135
  226SOL    HW2  903   0.380   1.574   2.695 -3.1350  2.6262  1.2370
  226SOL     MW  904   0.432   1.504   2.703 -0.3451  0.5231 -0.1561
  227SOL     OW  905   0.545   1.142   2.918  0.0691 -0.4956 -0.4564
  227SOL    HW1  906   0.622   1.167   2.875 -1.3398 -1.5441  3.0565
  227SOL    HW2  907   0.514   1.072   2.857  1.0476  0.4283 -1.3668
  227SOL     MW  908   0.551   1.136   2.904  0.0123 -0.5121 -0.1131
  228SOL     OW  909   0.740   1.139   2.041 -0.3736  0.4249 -0.2461
  228SOL    HW1  910   0.714   1.193   1.968 -0.1926 -1.3959  1.5273
  228SOL    HW2  911   0.821   1.170   2.083  0.2762 -0.8507 -0.7641
  228SOL     MW  912   0.747   1.150   2.037 -0.2640  0.0163 -0.0804
  229SOL     OW  913   0.253   0.549   3.087 -0.4011 -0.2255  0.2085
  229SOL    HW1  914   0.172   0.551   3.030  1.9303 -0.6359  1.0625
  229SOL    HW2  915   0.248   0.469   3.151 -0.0749 -2.1562  0.2254
  229SOL     MW  916   0.241   0.539   3.088 -0.0504 -0.5344  0.3234
  230SOL     OW  917   1.789   1.359   2.022 -0.3109 -0.5745  0.4401
  230SOL    HW1  918   1.751   1.305   2.089  1.9186  0.3812 -1.0706
  230SOL    HW2  919   1.857   1.302   1.993 -3.4486  0.3562 -1.4994
  230SOL     MW  920   1.793   1.344   2.027 -0.4307 -0.3256 -0.0152
  231SOL     OW  921   2.707   1.227   2.267 -0.0523  0.1908 -0.1529
  231SOL    HW1  922   2.767   1.301   2.285  1.0754 -0.7387 -2.6061
  231SOL    HW2  923   2.645   1.258   2.203 -2.0215 -4.2243 -2.9130
  231SOL     MW  924   2.707   1.241   2.261 -0.1633 -0.5144 -0.8408
  232SOL     OW  925   2.291   0.851   1.931 -0.2386  0.7569 -0.1782
  232SOL    HW1  926   2.194   0.841   1.907  0.7747  0.9748 -2.5854
  232SOL    HW2  927   2.283   0.835   2.023 -0.1800  1.4708 -0.4659
  232SOL     MW  928   2.277   0.848   1.940 -0.0972  0.8798 -0.5338
  233SOL     OW  929   2.101   0.422   2.085  0.0777  0.0672  0.1013
  233SOL    HW1  930   2.146   0.349   2.042  0.6809 -0.3901 -0.9020
  233SOL    HW2  931   2.155   0.447   2.158  2.5544  1.1922  2.6533
  233SOL     MW  932   2.114   0.416   2.089  0.4841  0.1553  0.3057
  234SOL     OW  933   0.221   1.044   2.654  0.0818  0.6777 -0.1748
  234SOL    HW1  934   0.168   1.026   2.575 -2.1787 -0.5548 -0.8048
  234SOL    HW2  935   0.264   1.132   2.634  1.6777  0.2665  1.1115
  234SOL     MW  936   0.220   1.053   2.641 -0.0059  0.4609 -0.0882
  235SOL     OW  937   1.134   3.016   2.821  0.7577  0.2758 -0.1173
  235SOL    HW1  938   1.190   3.010   2.897  1.0621 -0.5187 -1.4151
  235SOL    HW2  939   1.135   3.108   2.785 -0.6031 -1.1592 -0.0021
  235SOL     MW  940   1.142   3.028   2.826  0.6183 -0.0183 -0.2733
  236SOL     OW  941   2.953   0.622   0.219 -0.2976  0.1167 -0.0684
  236SOL    HW1  942   2.955   0.641   0.312  0.5271 -0.0839 -0.1987
  236SOL    HW2  943   3.032   0.665   0.198 -0.7597  0.1510 -1.2320
  236SOL     MW  944   2.963   0.630   0.229 -0.2498  0.0947 -0.2391
  237SOL     OW  945   1.919   1.091   2.162 -0.3670  0.7865  0.6754
  237SOL    HW1  946   1.824   1.115   2.165 -1.7201  1.8085  2.2982
  237SOL    HW2  947   1.933   1.041   2.080  0.2069 -0.6729 -2.5188
  237SOL     MW  948   1.908   1.088   2.152 -0.4698  0.7288  0.4681
  238SOL     OW  949   1.077   1.733   2.940 -0.2702  0.0373 -0.1492
  238SOL    HW1  950   1.001   1.686   2.907 -2.3881 -0.1475 -1.8256
  238SOL    HW2  951   1.156   1.678   2.945 -1.4243 -0.7254 -0.3841
  238SOL     MW  952   1.078   1.720   2.936 -0.7019 -0.0877 -0.4014
  239SOL     OW  953   1.181   1.290   2.323  0.0772 -0.1155  0.8279
  239SOL    HW1  954   1.098   1.282   2.278 -0.3103  2.5235 -0.2290
  239SOL    HW2  955   1.176   1.232   2.402  0.9612  0.4237 -1.9314
  239SOL     MW  956   1.170   1.282   2.327  0.1427  0.3039  0.3244
  240SOL     OW  957   0.582   0.871   2.239 -0.3440 -0.6345  0.5851
  240SOL    HW1  958   0.598   0.931   2.322 -0.4488  2.8080  3.6812
  240SOL    HW2  959   0.667   0.879   2.194  0.2697 -1.5791  3.1546
  240SOL     MW  960   0.595   0.880   2.244 -0.2768 -0.3049  1.3326
  241SOL     OW  961   0.669   0.445   3.066  0.2412 -0.0242  0.3466
  241SOL    HW1  962   0.685   0.515   3.127  0.1366 -1.3724 -1.0360
  241SOL    HW2  963   0.588   0.467   3.013  1.2097  1.1563 -1.4732
  241SOL     MW  964   0.660   0.457   3.067  0.3552 -0.0463 -0.0759
  242SOL     OW  965   1.512   1.669   2.314 -0.0746 -0.4456 -0.4398
  242SOL    HW1  966   1.462   1.750   2.325 -2.5207  2.5154  1.5387
  242SOL    HW2  967   1.456   1.610   2.258 -1.1769 -0.0074  1.3139
  242SOL     MW  968   1.498   1.672   2.308 -0.5428  0.0029  0.0526
  243SOL     OW  969   1.035   0.321   2.358 -0.0980 -0.4266  0.2522
  243SOL    HW1  970   1.110   0.259   2.370  0.2074  2.1234  0.1896
  243SOL    HW2  971   1.039   0.357   2.446  3.3596  1.1228  0.7670
  243SOL     MW  972   1.046   0.317   2.372  0.3985  0.1143  0.3119
  244SOL     OW  973   0.131   0.742   2.378  0.3780 -0.0832 -0.1202
  244SOL    HW1  974   0.098   0.830   2.351 -0.3351  1.3667 -0.9699
  244SOL    HW2  975   0.217   0.726   2.344  0.9552 -0.6797 -0.7719
  244SOL     MW  976   0.138   0.752   2.370  0.3601  0.0294 -0.3183
  245SOL     OW  977   1.279   0.177   2.407 -0.8254  0.7496 -0.0511
  245SOL    HW1  978   1.339   0.120   2.354 -1.4434 -4.1195 -0.1957
  245SOL    HW2  979   1.289   0.131   2.497 -1.7488  0.9331  1.1978
  245SOL     MW  980   1.288   0.164   2.412 -1.0288  0.1314  0.0946
  246SOL     OW  981   1.236   1.103   2.092 -0.1993  0.3301 -0.3464
  246SOL    HW1  982   1.171   1.105   2.164 -1.7933 -2.8256  1.7499
  246SOL    HW2  983   1.319   1.108   2.147  0.6700  2.2208  1.1163
  246SOL     MW  984   1.238   1.104   2.109 -0.2949  0.1632  0.1232
  247SOL     OW  985   0.759   0.652   0.134 -0.3862 -0.0467  0.2310
  247SOL    HW1  986   0.767   0.747   0.115  1.0283  1.1017  1.2643
  247SOL    HW2  987   0.852   0.621   0.114 -1.6928 -0.4859  0.8514
  247SOL     MW  988   0.772   0.660   0.129 -0.3719  0.0469  0.4492
  248SOL     OW  989   0.291   1.292   2.539 -0.3839  0.3364  0.4619
  248SOL    HW1  990   0.298   1.321   2.443  1.6785  1.4692  0.9739
  248SOL    HW2  991   0.349   1.353   2.585  0.8112 -2.9853 -2.1529
  248SOL     MW  992   0.300   1.304   2.533  0.0459  0.0476  0.1845
  249SOL     OW  993   2.969   1.937   2.783 -0.0841  0.2341 -0.1775
  249SOL    HW1  994   2.917   1.859   2.765 -1.4996  0.5267 -0.1288
  249SOL    HW2  995   3.041   1.908   2.838 -2.0954 -0.9083  0.0537
  249SOL     MW  996   2.972   1.923   2.788 -0.5362  0.1220 -0.1406
  250SOL     OW  997   2.217   0.815   2.196  0.9381  0.5008 -0.0148
  250SOL    HW1  998   2.180   0.726   2.215 -2.7569 -4.9087  0.2910
  250SOL    HW2  999   2.137   0.863   2.186 -2.2098 -2.4829 -2.0861
  250SOL     MW 1000   2.202   0.809   2.197  0.0353 -0.6066 -0.2477
  251SOL     OW 1001   0.127   0.878   2.055  0.1036  0.2048  0.0561
  251SOL    HW1 1002   0.077   0.798   2.085 -1.6572 -2.0130  2.2851
  251SOL    HW2 1003   0.131   0.866   1.961  0.5407 -0.1514  2.1292
  251SOL     MW 1004   0.121   0.866   2.047 -0.0711 -0.1348  0.6237
  252SOL     OW 1005   1.681   0.970   2.850 -0.0073  0.2190  0.2985
  252SOL    HW1 1006   1.701   0.991   2.944  3.2025 -0.8848  0.6441
  252SOL    HW2 1007   1.768   0.979   2.796  1.7188 -3.0065  0.2003
  252SOL     MW 1008   1.695   0.974   2.855  0.6440 -0.3522  0.3311
  253SOL     OW 1009   1.177   1.723   2.465 -0.6035  0.1315  0.7839
  253SOL    HW1 1010   1.160   1.675   2.381  3.3871  0.6606 -1.5196
  253SOL    HW2 1011   1.103   1.784   2.490  3.9246  1.7413 -2.0999
  253SOL     MW 1012   1.165   1.725   2.458  0.5205  0.4137  0.0995
  254SOL     OW 1013   0.956   1.130   2.224 -0.0271  0.4707  0.2727
  254SOL    HW1 1014   0.934   1.033   2.234  2.4203 -1.5533 -2.1148
  254SOL    HW2 1015   0.902   1.184   2.288 -1.6126  1.7498 -0.1312
  254SOL     MW 1016   0.946   1.124   2.234  0.0867  0.3725 -0.0956
  255SOL     OW 1017   0.841   2.568   2.116  0.2934  0.1689  0.1424
  255SOL    HW1 1018   0.775   2.501   2.120  2.6722  1.1239  0.0399
  255SOL    HW2 1019   0.903   2.501   2.137 -3.5977  2.1734 -2.3472
  255SOL     MW 1020   0.840   2.550   2.119  0.0939  0.5594 -0.1996
  256SOL     OW 1021   1.240   2.762   2.995  0.9034 -0.0489  0.0129
  256SOL    HW1 1022   1.252   2.675   3.036  0.0811 -0.2394 -0.3616
  256SOL    HW2 1023   1.304   2.766   2.920  1.6477 -0.8661 -1.8057
  256SOL     MW 1024   1.250   2.751   2.991  0.8931 -0.1819 -0.2765
  257SOL     OW 1025   0.023   1.877   0.116  0.3662 -0.1468  0.4425
  257SOL    HW1 1026   0.111   1.896   0.144 -1.6387  1.5190 -3.1090
  257SOL    HW2 1027   0.041   1.870   0.021 -0.1062 -0.5501 -1.1576
  257SOL     MW 1028   0.037   1.878   0.107  0.0394  0.0198 -0.2372
  258SOL     OW 1029   0.659   1.002   2.470  0.8020  0.1523  0.5876
  258SOL    HW1 1030   0.680   1.093   2.465 -3.8213 -1.9608 -2.9596
  258SOL    HW2 1031   0.603   0.997   2.545 -0.1979 -0.8048  0.2526
  258SOL     MW 1032   0.654   1.013   2.479  0.0601 -0.2528  0.0754
  259SOL     OW 1033   0.841   0.490   2.254  0.1648 -0.6345 -0.3262
  259SOL    HW1 1034   0.766   0.436   2.237 -1.4473 -0.8807 -2.3671
  259SOL    HW2 1035   0.907   0.433   2.293  2.0401  0.3474 -1.9885
  259SOL     MW 1036   0.840   0.475   2.257  0.1996 -0.5374 -0.8148
  260SOL     OW 1037   0.653   0.140   1.583 -0.0538  0.4948  0.4034
  260SOL    HW1 1038   0.598   0.186   1.527 -0.5858  0.0346  2.1413
  260SOL    HW2 1039   0.726   0.115   1.529 -0.9545  0.7672 -0.7371
  260SOL     MW 1040   0.656   0.143   1.568 -0.2428  0.4700  0.4822
  261SOL     OW 1041   1.044   0.710   1.991  0.3587  0.7214 -0.2474
  261SOL    HW1 1042   1.083   0.693   2.074 -1.0321 -1.3106 -2.4031
  261SOL    HW2 1043   0.990   0.635   1.976  1.1696 -0.5041 -1.5771
  261SOL     MW 1044   1.042   0.698   2.000  0.2822  0.2916 -0.7072
  262SOL     OW 1045   1.142   0.391   0.101 -0.1657 -0.4607  0.0119
  262SOL    HW1 1046   1.238   0.405   0.118  1.3766  1.6098  0.1333
  262SOL    HW2 1047   1.132   0.311   0.044 -0.1386 -2.1147  1.4112
  262SOL     MW 1048   1.154   0.382   0.096  0.0413 -0.4057  0.2126
  263SOL     OW 1049   0.381   0.021   2.539  0.2427  0.2152  0.5883
  263SOL    HW1 1050   0.300   0.068   2.547  3.3453 -0.8751  0.4055
  263SOL    HW2 1051   0.420   0.069   2.465 -1.4583 -1.3526  0.7473
  263SOL     MW 1052   0.375   0.033   2.531  0.4276 -0.1355  0.5852
  264SOL     OW 1053   1.525   1.461   1.926  0.0604  0.5032 -0.6599
  264SOL    HW1 1054   1.483   1.374   1.922  2.1322 -0.6689  0.8616
  264SOL    HW2 1055   1.613   1.437   1.945 -2.1747  4.9912  2.7104
  264SOL     MW 1056   1.531   1.447   1.928  0.0389  0.9407 -0.0145
  265SOL     OW 1057   0.725   2.833   2.278 -0.3906  0.5323  0.1531
  265SOL    HW1 1058   0.779   2.757   2.249  0.0166  1.5456  0.0293
  265SOL    HW2 1059   0.714   2.814   2.373  3.2660 -1.9512  0.7774
  265SOL     MW 1060   0.730   2.820   2.286  0.1456  0.3383  0.2192
  266SOL     OW 1061   0.835   0.884   2.156 -0.6642  0.0004  0.1934
  266SOL    HW1 1062   0.799   0.953   2.099 -1.2020 -0.1472 -0.6701
  266SOL    HW2 1063   0.877   0.820   2.108  1.3115 -2.9280  1.0488
  266SOL     MW 1064   0.836   0.885   2.142 -0.4745 -0.4054  0.1923
  267SOL     OW 1065   1.369   1.674   2.667 -0.0638  0.0026  0.1260
  267SOL    HW1 1066   1.451   1.653   2.628  1.2201  1.5425 -1.4447
  267SOL    HW2 1067   1.304   1.679   2.597  0.2654 -0.5679  2.2408
  267SOL     MW 1068   1.372   1.672   2.653  0.1490  0.1305  0.1978
  268SOL     OW 1069   0.138   0.897   1.769 -0.4990  0.1701  0.2157
  268SOL    HW1 1070   0.112   0.986   1.739 -4.4062  0.3567 -2.1228
  268SOL    HW2 1071   0.096   0.837   1.705 -3.0393  1.4692 -0.3881
  268SOL     MW 1072   0.129   0.901   1.756 -1.3497  0.3661 -0.1725
  269SOL     OW 1073   1.305   1.895   2.295  0.5103  0.3420 -0.3332
  269SOL    HW1 1074   1.327   1.981   2.328 -1.0817 -0.3153 -0.4455
  269SOL    HW2 1075   1.241   1.848   2.354 -0.1164  0.8834 -0.2217
  269SOL     MW 1076   1.300   1.900   2.307  0.2175  0.3267 -0.3333
  270SOL     OW 1077   1.107   0.364   1.546 -0.7991  0.3351 -0.5536
  270SOL    HW1 1078   1.086   0.289   1.601  0.4057  0.3951  1.5331
  270SOL    HW2 1079   1.203   0.373   1.563 -1.8201  1.9420 -2.9361
  270SOL     MW 1080   1.117   0.355   1.555 -0.7749  0.5550 -0.5926
  271SOL     OW 1081   0.902   0.133   2.487  0.4169 -0.1355 -0.3369
  271SOL    HW1 1082   0.967   0.080   2.529  0.3706  0.4143 -0.0639
  271SOL    HW2 1083   0.945   0.191   2.421 -2.3802 -0.4228  1.5826
  271SOL     MW 1084   0.916   0.134   2.484  0.0418 -0.1009 -0.0476
  272SOL     OW 1085   1.475   2.784   2.817  0.4110  0.1596  0.0244
  272SOL    HW1 1086   1.428   2.800   2.737  0.6171  1.3535  2.1040
  272SOL    HW2 1087   1.523   2.865   2.832 -0.8595 -1.5195 -0.2896
  272SOL     MW 1088   1.475   2.797   2.808  0.2706  0.0956  0.2573
  273SOL     OW 1089   1.426   0.817   2.778  0.3630  0.2876  0.5265
  273SOL    HW1 1090   1.513   0.776   2.784  1.8693 -0.4605  1.3332
  273SOL    HW2 1091   1.444   0.905   2.805 -1.2668 -2.5575  2.1753
  273SOL     MW 1092   1.440   0.823   2.782  0.3467 -0.1865  0.8504
  274SOL     OW 1093   1.447   0.655   0.138 -0.2855 -0.5103 -0.4185
  274SOL    HW1 1094   1.493   0.601   0.203 -0.5470  0.5304  0.4498
  274SOL    HW2 1095   1.359   0.671   0.177  0.5932 -1.3120  0.3386
  274SOL     MW 1096   1.442   0.650   0.152 -0.2040 -0.4787 -0.2040
  275SOL     OW 1097   1.811   0.540   1.742  0.2653 -0.2800 -0.0754
  275SOL    HW1 1098   1.866   0.566   1.820  1.4014  0.3131  1.2513
  275SOL    HW2 1099   1.806   0.443   1.744 -0.4474 -1.9958 -0.6562
  275SOL     MW 1100   1.818   0.531   1.752  0.3212 -0.4281  0.0230
  276SOL     OW 1101   0.430   1.200   1.929 -0.2859  0.1353  0.7181
  276SOL    HW1 1102   0.440   1.102   1.953 -0.9961 -2.7126 -1.7028
  276SOL    HW2 1103   0.352   1.239   1.984 -2.3459  2.0740 -0.9576
  276SOL     MW 1104   0.421   1.192   1.939 -0.6514  0.0153  0.1776
  277SOL     OW 1105   1.968   1.120   2.439 -0.3986  0.6602 -0.1858
  277SOL    HW1 1106   2.010   1.206   2.437  2.0647  0.4145  1.4803
  277SOL    HW2 1107   1.926   1.109   2.356 -0.6442  2.6124  0.5010
  277SOL     MW 1108   1.968   1.130   2.428 -0.1060  0.8854  0.1246
  278SOL     OW 1109   1.407   0.626   1.698 -0.6919  0.0579 -0.7458
  278SOL    HW1 1110   1.411   0.580   1.784 -1.2723  0.1291  3.4393
  278SOL    HW2 1111   1.497   0.623   1.680 -1.3842 -0.7517  0.4948
  278SOL     MW 1112   1.419   0.619   1.707 -0.8598 -0.0395 -0.0300
  279SOL     OW 1113   0.514   0.099   2.277 -0.3053  0.4834 -0.5155
  279SOL    HW1 1114   0.601   0.052   2.273  1.4091  0.2815 -0.5960
  279SOL    HW2 1115   0.519   0.171   2.214  2.3116 -0.3536 -1.9243
  279SOL     MW 1116   0.526   0.102   2.268  0.2661  0.3464 -0.7120
  280SOL     OW 1117   1.463   1.072   2.220 -0.3628 -0.5080  0.2775
  280SOL    HW1 1118   1.499   0.995   2.182  0.9733  1.9858  0.5179
  280SOL    HW2 1119   1.443   1.044   2.312 -0.0687  0.9450  0.9013
  280SOL     MW 1120   1.465   1.058   2.227 -0.1477  0.0127  0.3915
  281SOL     OW 1121   1.324   1.153   2.733 -0.2151 -0.1089  0.2719
  281SOL    HW1 1122   1.416   1.182   2.729 -1.3993 -0.3701 -2.6810
  281SOL    HW2 1123   1.300   1.153   2.825 -0.4627  0.7934  1.2350
  281SOL     MW 1124   1.333   1.157   2.745 -0.4040 -0.0243  0.0094
  282SOL     OW 1125   1.184   1.258   1.593 -0.1778 -0.3710  0.0353
  282SOL    HW1 1126   1.172   1.342   1.557  3.2620 -0.8619  2.5702
  282SOL    HW2 1127   1.107   1.244   1.659 -2.0062  2.3838  3.8276
  282SOL     MW 1128   1.172   1.267   1.597  0.0348 -0.0723  0.8701
  283SOL     OW 1129   0.812   1.394   3.099 -0.3857 -0.4167 -0.2567
  283SOL    HW1 1130   0.908   1.381   3.093  0.7779  1.9997 -0.6718
  283SOL    HW2 1131   0.793   1.485   3.086  1.2816 -0.9262  2.2641
  283SOL     MW 1132   0.823   1.404   3.096 -0.0122 -0.1651  0.0211
  284SOL     OW 1133   0.386   0.700   2.312 -0.0928  0.1966 -0.2998
  284SOL    HW1 1134   0.457   0.765   2.275 -0.9053  1.4040 -1.9522
  284SOL    HW2 1135   0.379   0.616   2.255 -0.5655 -3.8768  1.5750
  284SOL     MW 1136   0.394   0.697   2.300 -0.2624 -0.1816 -0.2705
  285SOL     OW 1137   0.885   0.823   2.874 -0.1978 -0.3566 -0.4789
  285SOL    HW1 1138   0.877   0.853   2.784  0.2790  0.8028 -1.0219
  285SOL    HW2 1139   0.808   0.774   2.879  0.0668  2.1010  1.2949
  285SOL     MW 1140   0.874   0.820   2.863 -0.1000  0.1206 -0.3165
  286SOL     OW 1141   1.108   1.462   2.641 -0.2795  0.3562  0.9842
  286SOL    HW1 1142   1.179   1.409   2.611  1.4854  0.4433 -1.0895
  286SOL    HW2 1143   1.113   1.545   2.594 -2.2148 -2.7525  0.1425
  286SOL     MW 1144   1.118   1.466   2.631 -0.3020 -0.0425  0.5996
  287SOL     OW 1145   1.172   0.974   0.363 -0.4729 -0.6957 -0.3994
  287SOL    HW1 1146   1.123   0.988   0.440 -1.3145  1.3225 -1.8056
  287SOL    HW2 1147   1.122   1.033   0.297 -1.2795  1.6063  1.3901
  287SOL     MW 1148   1.159   0.984   0.364 -0.6904 -0.1257 -0.3488
  288SOL     OW 1149   1.471   0.614   2.143  0.3997 -0.2732  0.4045
  288SOL    HW1 1150   1.445   0.592   2.239  1.7381  1.9238  2.1153
  288SOL    HW2 1151   1.478   0.705   2.149  0.3966 -1.4606 -1.4071
  288SOL     MW 1152   1.469   0.623   2.156  0.5759 -0.1400  0.3912
  289SOL     OW 1153   0.904   0.952   2.603 -0.7668  0.0056  0.1310
  289SOL    HW1 1154   0.947   0.883   2.563  0.1277 -0.3417  1.7003
  289SOL    HW2 1155   0.817   0.957   2.564  2.5890  0.3477 -0.1431
  289SOL     MW 1156   0.899   0.944   2.593 -0.2060  0.0049  0.3019
  290SOL     OW 1157   0.764   0.653   1.473 -0.6186 -0.0942  0.3591
  290SOL    HW1 1158   0.811   0.592   1.416  1.6613  1.2860  0.3864
  290SOL    HW2 1159   0.822   0.657   1.551 -1.7823 -0.4098  1.1970
  290SOL     MW 1160   0.778   0.645   1.476 -0.4714  0.0463  0.4732
  291SOL     OW 1161   0.242   0.333   0.137 -0.0705  0.1819 -0.0982
  291SOL    HW1 1162   0.337   0.321   0.162 -0.0290  0.2285 -0.4596
  291SOL    HW2 1163   0.209   0.251   0.100  0.1311 -0.5881  0.6260
  291SOL     MW 1164   0.250   0.320   0.135 -0.0384  0.0864 -0.0503
  292SOL     OW 1165   1.027   0.625   0.109  0.0836  0.1158  0.1712
  292SOL    HW1 1166   1.076   0.677   0.172 -1.0222  2.4898 -0.5290
  292SOL    HW2 1167   1.058   0.532   0.124 -0.3448  0.6325  0.7311
  292SOL     MW 1168   1.038   0.620   0.119 -0.1188  0.4972  0.1527
  293SOL     OW 1169   0.100   0.079   2.569  0.2943 -0.6641  0.4578
  293SOL    HW1 1170   0.077   0.031   2.489  0.6731  0.8220  1.8777
  293SOL    HW2 1171   0.018   0.110   2.611 -1.1778  0.3635  0.1778
  293SOL     MW 1172   0.086   0.076   2.564  0.1500 -0.3324  0.6082
  294SOL     OW 1173   1.350   0.463   2.342  0.4292 -0.4635 -0.0282
  294SOL    HW1 1174   1.362   0.544   2.390  0.4598  2.0607 -0.9950
  294SOL    HW2 1175   1.284   0.414   2.385 -0.1822  1.7784 -0.1373
  294SOL     MW 1176   1.343   0.467   2.354  0.3526  0.1653 -0.1702
  295SOL     OW 1177   0.840   0.609   2.547 -0.3894 -0.3196  0.1200
  295SOL    HW1 1178   0.809   0.573   2.461 -0.1031 -1.5480 -1.8760
  295SOL    HW2 1179   0.757   0.652   2.578  1.5152  2.1919 -1.5155
  295SOL     MW 1180   0.825   0.610   2.539 -0.1004 -0.1503 -0.3592
  296SOL     OW 1181   1.296   0.285   2.059  0.6915  0.5254  0.0988
  296SOL    HW1 1182   1.373   0.229   2.066  0.8400 -0.3775 -0.1460
  296SOL    HW2 1183   1.288   0.335   2.144  0.3470  1.7558 -0.1161
  296SOL     MW 1184   1.305   0.284   2.071  0.6656  0.5687  0.0381
  297SOL     OW 1185   1.361   0.374   1.608  0.0684 -0.3190 -0.1049
  297SOL    HW1 1186   1.388   0.461   1.625 -0.2536 -0.1292  1.9175
  297SOL    HW2 1187   1.413   0.316   1.665 -1.3352 -0.0049  1.9383
  297SOL     MW 1188   1.372   0.378   1.618 -0.1593 -0.2525  0.4315
  298SOL     OW 1189   1.586   0.870   2.077  0.0606 -0.1392 -0.6553
  298SOL    HW1 1190   1.625   0.915   1.998  0.0770  0.3328 -0.6586
  298SOL    HW2 1191   1.667   0.841   2.122 -1.4881  0.0682 -2.3446
  298SOL     MW 1192   1.602   0.872   2.072 -0.1415 -0.0496 -0.8787
  299SOL     OW 1193   0.591   1.189   0.101  0.4856  0.3227  0.2250
  299SOL    HW1 1194   0.574   1.166   0.008 -1.0651 -0.2466 -0.8536
  299SOL    HW2 1195   0.672   1.240   0.112 -0.6950  0.1663  3.2266
  299SOL     MW 1196   0.600   1.192   0.090  0.1253  0.2270  0.4787
  300SOL     OW 1197   1.096   1.154   2.548  0.2505 -0.3879 -0.0860
  300SOL    HW1 1198   1.024   1.098   2.573 -0.0612  0.6684  0.7060
  300SOL    HW2 1199   1.159   1.149   2.626  0.6322  0.3571  0.1118
  300SOL     MW 1200   1.095   1.146   2.561  0.2597 -0.1502  0.0446
  301SOL     OW 1201   1.469   1.069   0.743  0.3542  0.1622 -0.4536
  301SOL    HW1 1202   1.484   1.105   0.830 -0.7685 -0.7508  0.0009
  301SOL    HW2 1203   1.388   1.011   0.758 -1.6570  0.3961 -0.1007
  301SOL     MW 1204   1.460   1.066   0.756 -0.0593  0.0726 -0.3471
  302SOL     OW 1205   0.167   1.594   2.033 -0.0907 -0.0727  0.1314
  302SOL    HW1 1206   0.173   1.500   2.046  0.5822  2.6311  0.8348
  302SOL    HW2 1207   0.080   1.634   2.056 -0.6095  1.9834 -2.8530
  302SOL     MW 1208   0.156   1.587   2.038 -0.0703  0.5553 -0.1695
  303SOL     OW 1209   0.322   1.776   2.666 -0.2874 -0.0344  0.7490
  303SOL    HW1 1210   0.284   1.786   2.580  1.7948  2.8930 -1.8336
  303SOL    HW2 1211   0.249   1.788   2.725  1.5805 -1.8679  1.0156
  303SOL     MW 1212   0.308   1.779   2.662  0.2338  0.1099  0.4434
  304SOL     OW 1213   0.503   2.054   2.480  0.0129  0.0262  0.5155
  304SOL    HW1 1214   0.584   2.091   2.435  3.2685  3.0426  1.6512
  304SOL    HW2 1215   0.522   1.961   2.473  1.0288  0.5202  1.6448
  304SOL     MW 1216   0.517   2.047   2.473  0.5765  0.4894  0.8143
  305SOL     OW 1217   1.139   0.660   0.543  0.2942 -0.0785  0.1457
  305SOL    HW1 1218   1.047   0.663   0.539  0.3622 -2.2310  2.0360
  305SOL    HW2 1219   1.165   0.566   0.538 -1.4210 -2.6425  0.1492
  305SOL     MW 1220   1.130   0.648   0.542  0.0769 -0.7008  0.3955
  306SOL     OW 1221   1.093   1.524   0.292 -0.2716  0.1310  0.6556
  306SOL    HW1 1222   1.131   1.439   0.316  2.5210  2.7702  0.3159
  306SOL    HW2 1223   1.159   1.541   0.222 -0.0472 -0.7651  0.4940
  306SOL     MW 1224   1.107   1.515   0.286  0.1265  0.3610  0.5895
  307SOL     OW 1225   1.415   0.481   1.919  0.4671  0.2507  0.3696
  307SOL    HW1 1226   1.373   0.408   1.967  0.7684 -0.0240 -0.0594
  307SOL    HW2 1227   1.454   0.537   1.986  2.7523 -1.2543  1.1158
  307SOL     MW 1228   1.414   0.479   1.934  0.8084  0.0159  0.4114
  308SOL     OW 1229   2.206   0.507   2.703  0.1433  0.0780  0.5958
  308SOL    HW1 1230   2.299   0.532   2.700 -2.3684  4.2943  0.3053
  308SOL    HW2 1231   2.163   0.594   2.702  0.9116 -2.3773 -1.0926
  308SOL     MW 1232   2.212   0.522   2.703 -0.0867  0.3103  0.3347
  309SOL     OW 1233   0.508   0.567   0.243  0.1248 -0.0704 -0.0002
  309SOL    HW1 1234   0.595   0.606   0.242 -0.7561 -0.2846  0.0310
  309SOL    HW2 1235   0.527   0.478   0.216  0.9620  2.7672 -0.6513
  309SOL     MW 1236   0.522   0.560   0.239  0.1190  0.2757 -0.0820
  310SOL     OW 1237   0.419   0.577   1.885 -0.5919 -0.6360 -0.0215
  310SOL    HW1 1238   0.464   0.498   1.846  0.9197 -0.9064  0.9121
  310SOL    HW2 1239   0.469   0.654   1.847  0.6697  2.1967  0.0036
  310SOL     MW 1240   0.431   0.577   1.875 -0.2260 -0.2980  0.1050
  311SOL     OW 1241   1.969   0.627   1.957 -0.3355  0.4921 -0.0601
  311SOL    HW1 1242   1.914   0.665   2.025  2.2760  0.4743 -1.2023
  311SOL    HW2 1243   2.038   0.569   2.000  2.2622  0.0747 -0.0232
  311SOL     MW 1244   1.971   0.624   1.971  0.3518  0.4347 -0.2059
  312SOL     OW 1245   1.731   2.440   0.110 -0.2148  0.1143  0.3296
  312SOL    HW1 1246   1.724   2.382   0.187 -1.4343  0.4011  0.7580
  312SOL    HW2 1247   1.662   2.510   0.113  0.8740  0.9199  2.3464
  312SOL     MW 1248   1.721   2.442   0.120 -0.2320  0.2585  0.6522
  313SOL     OW 1249   0.139   1.122   3.033  0.0222  0.1756 -0.0459
  313SOL    HW1 1250   0.081   1.153   3.109 -0.1225  1.0890  0.1403
  313SOL    HW2 1251   0.156   1.198   2.981 -1.3954 -2.1924  1.2543
  313SOL     MW 1252   0.133   1.136   3.036 -0.1840 -0.0163  0.1502
  314SOL     OW 1253   2.158   2.953   0.023  0.0061  0.3658 -0.0889
  314SOL    HW1 1254   2.098   2.972  -0.053 -1.3861 -2.1033  4.0484
  314SOL    HW2 1255   2.230   3.030   0.025  1.3539  2.5913  2.1616
  314SOL     MW 1256   2.160   2.966   0.014  0.0002  0.3337  0.7539
  315SOL     OW 1257   1.537   1.843   2.965 -0.0585  0.1492  0.2591
  315SOL    HW1 1258   1.529   1.867   3.057  0.0874  0.3223 -1.8690
  315SOL    HW2 1259   1.581   1.913   2.910  0.0248  0.6601  0.1572
  315SOL     MW 1260   1.542   1.856   2.970 -0.0283  0.2394 -0.0352
  316SOL     OW 1261   1.202   0.644   2.709  0.3300  0.0922  0.0977
  316SOL    HW1 1262   1.274   0.705   2.741 -1.7169 -0.2221  1.3548
  316SOL    HW2 1263   1.150   0.620   2.794 -0.3741 -0.6245 -0.5259
  316SOL     MW 1264   1.205   0.649   2.724 -0.0330 -0.0438  0.1812
  317SOL     OW 1265   0.689   1.571   2.638  0.4845  0.0462  0.1739
  317SOL    HW1 1266   0.743   1.491   2.633 -0.3311 -4.3741 -3.6330
  317SOL    HW2 1267   0.691   1.602   2.544  2.7839  0.3393  1.4923
  317SOL     MW 1268   0.696   1.565   2.625  0.6802 -0.4983 -0.1544
  318SOL     OW 1269   1.344   0.375   2.947  0.1677 -0.3648 -0.3993
  318SOL    HW1 1270   1.268   0.417   2.977  1.3229  1.7704 -0.0271
  318SOL    HW2 1271   1.403   0.443   2.899  1.7040  0.9694  0.1136
  318SOL     MW 1272   1.342   0.390   2.945  0.5228  0.0929 -0.2826
  319SOL     OW 1273   0.787   0.431   2.829 -0.0766  0.1853  0.6309
  319SOL    HW1 1274   0.775   0.361   2.767 -0.2512 -0.2939 -0.8283
  319SOL    HW2 1275   0.736   0.410   2.906  0.8105  2.1789 -3.8507
  319SOL     MW 1276   0.779   0.419   2.831  0.0174  0.3851 -0.1529
  320SOL     OW 1277   1.057   1.351   1.963 -0.0698 -0.3079  0.2910
  320SOL    HW1 1278   1.111   1.284   2.011 -0.1493 -3.6968 -1.7004
  320SOL    HW2 1279   1.114   1.428   1.947 -1.2308 -0.5508 -1.6954
  320SOL     MW 1280   1.071   1.353   1.967 -0.2335 -0.7871 -0.2338
  321SOL     OW 1281   1.079   0.903   3.051 -0.1557 -0.2959  0.0639
  321SOL    HW1 1282   1.008   0.880   2.986  0.4534 -4.1453 -0.1982
  321SOL    HW2 1283   1.142   0.828   3.038 -1.8022  0.4843 -0.6480
  321SOL     MW 1284   1.078   0.890   3.041 -0.2926 -0.7009 -0.0646
  322SOL     OW 1285   1.255   0.841   1.664  0.2325 -0.1359  0.3142
  322SOL    HW1 1286   1.304   0.772   1.705 -2.9253 -2.1518 -0.8758
  322SOL    HW2 1287   1.204   0.890   1.729 -0.3234 -0.7133 -0.9127
  322SOL     MW 1288   1.255   0.839   1.678 -0.2575 -0.4781 -0.0047
  323SOL     OW 1289   1.237   1.550   1.907 -0.0972 -0.2826  0.3397
  323SOL    HW1 1290   1.276   1.532   1.822  0.1294 -3.0744  0.1249
  323SOL    HW2 1291   1.200   1.637   1.899 -2.1822 -2.1391 -1.7746
  323SOL     MW 1292   1.237   1.559   1.895 -0.3424 -0.8959  0.0324
  324SOL     OW 1293   1.453   1.010   2.486 -0.4810  0.0551  0.6118
  324SOL    HW1 1294   1.391   1.065   2.551 -0.6270 -0.2973  1.9572
  324SOL    HW2 1295   1.538   1.047   2.514  1.8307 -2.8227  0.6648
  324SOL     MW 1296   1.456   1.022   2.498 -0.1952 -0.3711  0.7963
  325SOL     OW 1297   1.040   0.537   2.901 -0.2841 -0.1503 -0.1811
  325SOL    HW1 1298   1.046   0.581   2.990  1.3432  1.1191  0.8613
  325SOL    HW2 1299   0.954   0.495   2.889 -2.5471  1.1853 -0.1996
  325SOL     MW 1300   1.030   0.537   2.911 -0.3680  0.1934 -0.0460
  326SOL     OW 1301   0.357   1.402   2.287  0.7451 -0.1556 -0.0385
  326SOL    HW1 1302   0.445   1.389   2.245  0.5699 -0.7748 -3.0958
  326SOL    HW2 1303   0.356   1.497   2.289 -2.0768  2.5476 -0.3636
  326SOL     MW 1304   0.369   1.413   2.282  0.3497  0.1193 -0.4848
  327SOL     OW 1305   1.969   0.807   2.416  0.4160 -0.4031  0.1283
  327SOL    HW1 1306   1.953   0.770   2.506  0.8447 -0.7617  0.7604
  327SOL    HW2 1307   1.976   0.899   2.438  1.5969  2.1215 -2.4424
  327SOL     MW 1308   1.967   0.814   2.431  0.6284 -0.1173 -0.1275
  328SOL     OW 1309   0.222   1.298   2.062  0.7344  0.1094  0.5295
  328SOL    HW1 1310   0.142   1.248   2.073 -0.1914 -2.0542  1.6963
  328SOL    HW2 1311   0.246   1.319   2.151 -1.3306 -1.3525  2.8318
  328SOL     MW 1312   0.215   1.294   2.075  0.3398 -0.3690  0.9872
  329SOL     OW 1313   0.034   0.115   1.384  0.4219  0.1565 -0.5245
  329SOL    HW1 1314   0.008   0.112   1.475 -0.2856 -1.3269  1.0359
  329SOL    HW2 1315   0.128   0.138   1.389 -2.4829  0.2159 -2.4784
  329SOL     MW 1316   0.043   0.118   1.396 -0.0547 -0.0314 -0.5764
  330SOL     OW 1317   0.388   0.008   2.040 -0.1624  0.2761 -0.0616
  330SOL    HW1 1318   0.447   0.015   2.116 -1.4990  1.0144  0.5081
  330SOL    HW2 1319   0.327  -0.066   2.062  0.4251 -0.8165 -2.6808
  330SOL     MW 1320   0.388  -0.001   2.053 -0.2613  0.2294 -0.3320
  331SOL     OW 1321   0.785   1.245   2.395  0.0727  0.4454 -0.7060
  331SOL    HW1 1322   0.730   1.299   2.339  1.4682 -2.5530 -0.0115
  331SOL    HW2 1323   0.789   1.298   2.477  1.8301 -1.0985  0.2553
  331SOL     MW 1324   0.778   1.259   2.399  0.4887 -0.1539 -0.4875
  332SOL     OW 1325   1.355   1.634   2.937  0.4280  0.3860 -0.0576
  332SOL    HW1 1326   1.369   1.633   2.840  3.0482 -0.5368 -1.4440
  332SOL    HW2 1327   1.410   1.712   2.962  1.1871 -0.7139 -0.1797
  332SOL     MW 1328   1.364   1.644   2.927  0.8739  0.1191 -0.2567
  333SOL     OW 1329   1.671   1.326   2.938 -0.2809  0.0973 -0.3662
  333SOL    HW1 1330   1.769   1.318   2.930  1.0217 -1.9464 -2.8700
  333SOL    HW2 1331   1.650   1.258   2.999 -2.6833  4.0681 -1.4830
  333SOL     MW 1332   1.681   1.316   2.945 -0.4260  0.3516 -0.8439
  334SOL     OW 1333   1.312   0.018   2.601  0.4270 -0.1958  0.2941
  334SOL    HW1 1334   1.238  -0.009   2.660  0.7626  0.0567  1.1755
  334SOL    HW2 1335   1.377   0.045   2.668 -0.5026 -1.6586 -1.3173
  334SOL     MW 1336   1.311   0.018   2.617  0.3487 -0.3555  0.1978
  335SOL     OW 1337   1.305   0.702   3.012 -0.0404  0.6836 -0.7088
  335SOL    HW1 1338   1.375   0.679   3.065  0.8837 -1.9408 -1.4917
  335SOL    HW2 1339   1.352   0.755   2.949  1.3312 -2.3996  3.9373
  335SOL     MW 1340   1.320   0.706   3.010  0.2625 -0.0695 -0.1991
  336SOL     OW 1341   0.959   1.167   1.716 -0.3464  0.4880  0.0073
  336SOL    HW1 1342   0.911   1.222   1.781 -0.1528 -2.4151 -2.3432
  336SOL    HW2 1343   0.992   1.098   1.777 -0.2943 -0.1519  2.5383
  336SOL     MW 1344   0.957   1.165   1.733 -0.3140  0.0205  0.0311
  337SOL     OW 1345   0.539   1.928   2.812 -0.9513  0.5216 -0.6863
  337SOL    HW1 1346   0.487   1.900   2.735 -1.1009 -0.6146 -0.9321
  337SOL    HW2 1347   0.632   1.892   2.799  0.8644  0.7384 -1.1665
  337SOL     MW 1348   0.545   1.920   2.800 -0.7315  0.4003 -0.7821
  338SOL     OW 1349   1.065   0.758   2.467  0.2786  0.7542 -0.9528
  338SOL    HW1 1350   0.985   0.705   2.492 -0.4858  0.3573 -0.2732
  338SOL    HW2 1351   1.140   0.738   2.530 -0.2772  0.3504 -1.1514
  338SOL     MW 1352   1.065   0.749   2.478  0.1044  0.6486 -0.8893
  339SOL     OW 1353   1.431   1.212   1.872 -0.5429  0.5113  0.5306
  339SOL    HW1 1354   1.397   1.195   1.784  0.5594 -1.2463  1.2404
  339SOL    HW2 1355   1.369   1.176   1.934  2.2061 -0.4130  1.7824
  339SOL     MW 1356   1.418   1.205   1.869 -0.0347  0.1575  0.7894
  340SOL     OW 1357   1.267   1.512   0.068  0.6912 -0.1704 -0.0281
  340SOL    HW1 1358   1.270   1.553  -0.020  1.6647 -0.4401 -2.2720
  340SOL    HW2 1359   1.349   1.458   0.068 -1.6358 -0.0387  1.4043
  340SOL     MW 1360   1.278   1.510   0.057  0.5126 -0.1886 -0.1351
  341SOL     OW 1361   0.123   1.378   2.810  0.3406 -0.1427 -0.5920
  341SOL    HW1 1362   0.209   1.366   2.858  0.2794 -1.2589 -2.9726
  341SOL    HW2 1363   0.132   1.337   2.727  0.9308  1.8603  1.7839
  341SOL     MW 1364   0.136   1.371   2.805  0.4104 -0.0257 -0.5926
  342SOL     OW 1365   1.437   0.307   0.094  0.1414  0.2622 -0.3981
  342SOL    HW1 1366   1.504   0.355   0.145  2.3239  4.0897 -1.9638
  342SOL    HW2 1367   1.437   0.349   0.008 -0.2233  1.2024  0.9064
  342SOL     MW 1368   1.446   0.319   0.089  0.3812  0.8913 -0.4325
  343SOL     OW 1369   0.223   0.272   2.161  0.0701 -0.0465 -0.3179
  343SOL    HW1 1370   0.268   0.189   2.174  0.0739  2.1495 -2.0972
  343SOL    HW2 1371   0.144   0.250   2.118  2.3707 -1.5910 -1.4001
  343SOL     MW 1372   0.219   0.258   2.157  0.3741  0.0395 -0.6954
  344SOL     OW 1373   1.691   1.978   0.119  0.0592 -0.3239  0.1322
  344SOL    HW1 1374   1.720   2.069   0.090 -0.6320  1.8073 -2.2581
  344SOL    HW2 1375   1.605   1.981   0.096  1.2433  0.7960  0.5503
  344SOL     MW 1376   1.683   1.990   0.112  0.1242  0.1050 -0.1280
  345SOL     OW 1377   0.689   1.608   2.362  0.1376  0.6813  0.4056
  345SOL    HW1 1378   0.596   1.581   2.353  0.5768  0.6603 -1.5240
  345SOL    HW2 1379   0.737   1.567   2.291  0.7829  2.0332  2.4140
  345SOL     MW 1380   0.683   1.599   2.351  0.2807  0.8569  0.4160
  346SOL     OW 1381   1.647   1.120   0.007 -0.3322 -0.4388  0.6348
  346SOL    HW1 1382   1.741   1.121   0.024 -3.6059  0.7595  0.6791
  346SOL    HW2 1383   1.616   1.065   0.077  3.2686 -1.1265  4.2042
  346SOL     MW 1384   1.656   1.113   0.018 -0.2890 -0.3714  1.1116
  347SOL     OW 1385   1.148   0.651   2.233  0.2185 -0.7510  0.0919
  347SOL    HW1 1386   1.220   0.601   2.254 -0.4202  0.4564  0.4976
  347SOL    HW2 1387   1.119   0.686   2.319 -0.5641  1.4359  0.1322
  347SOL     MW 1388   1.154   0.649   2.247  0.0310 -0.3031  0.1507
  348SOL     OW 1389   1.338   2.548   1.909  0.0529  0.0543  0.3633
  348SOL    HW1 1390   1.346   2.488   1.985 -0.5142  1.6949 -0.7649
  348SOL    HW2 1391   1.322   2.633   1.961 -2.5088 -1.6522  0.0107
  348SOL     MW 1392   1.337   2.551   1.926 -0.3599  0.0456  0.1679
  349SOL     OW 1393   1.468   0.160   2.785  0.4300 -0.1264  0.3522
  349SOL    HW1 1394   1.426   0.184   2.868  2.7885  2.2110 -0.9638
  349SOL    HW2 1395   1.527   0.091   2.824  0.8040 -3.1943  0.1349
  349SOL     MW 1396   1.470   0.154   2.801  0.7905 -0.2228  0.1499
  350SOL     OW 1397   1.842   0.667   2.631 -0.5376 -0.0158 -0.1095
  350SOL    HW1 1398   1.783   0.612   2.572 -0.5865 -0.4077  0.2816
  350SOL    HW2 1399   1.895   0.600   2.663 -0.4799 -0.3488  0.1251
  350SOL     MW 1400   1.842   0.651   2.627 -0.5364 -0.1115 -0.0269
  351SOL     OW 1401   0.102   1.129   1.625 -0.2347  0.5004 -0.1992
  351SOL    HW1 1402   0.022   1.110   1.680  2.0921 -1.5650  2.2833
  351SOL    HW2 1403   0.156   1.189   1.673 -0.4054 -1.1712 -1.0505
  351SOL     MW 1404   0.099   1.135   1.639  0.0497  0.0073  0.0160
  352SOL     OW 1405   0.768   1.795   2.797 -0.6825  0.2564 -0.2315
  352SOL    HW1 1406   0.785   1.762   2.890  0.9423  0.7198 -0.0199
  352SOL    HW2 1407   0.737   1.714   2.755  0.5723 -3.1148 -0.2096
  352SOL     MW 1408   0.767   1.780   2.804 -0.3026 -0.1272 -0.2007
  353SOL     OW 1409   0.014   2.567   2.673  0.1105  0.1171 -0.6088
  353SOL    HW1 1410   0.102   2.531   2.678 -0.0568  2.5072  0.2978
  353SOL    HW2 1411   0.028   2.643   2.616  1.7034 -0.4895 -0.8771
  353SOL     MW 1412   0.027   2.572   2.666  0.2986  0.3524 -0.5246
  354SOL     OW 1413   0.357   2.441   0.890  0.6402 -0.3619 -0.0233
  354SOL    HW1 1414   0.400   2.416   0.969 -0.4236  0.4831 -1.0556
  354SOL    HW2 1415   0.294   2.373   0.888 -0.4608 -4.2190 -2.3249
  354SOL     MW 1416   0.354   2.429   0.900  0.3545 -0.7593 -0.4632
  355SOL     OW 1417   0.014   2.174   0.393  1.0098  0.0574  0.3500
  355SOL    HW1 1418  -0.072   2.133   0.387 -2.3063  0.6176  0.1829
  355SOL    HW2 1419   0.024   2.227   0.475  1.4450  1.1235  0.1479
  355SOL     MW 1420   0.004   2.176   0.403  0.6297  0.2720  0.3013
  356SOL     OW 1421   0.773   2.918   1.062 -0.6468  0.8818  0.3439
  356SOL    HW1 1422   0.840   2.936   0.995  2.5720 -0.3182  0.2733
  356SOL    HW2 1423   0.695   2.886   1.017  1.9379  0.0182 -1.9759
  356SOL     MW 1424   0.772   2.916   1.047  0.1189  0.6095  0.0285
  357SOL     OW 1425   1.843   2.821   0.483  0.1379  0.0238 -0.1090
  357SOL    HW1 1426   1.784   2.748   0.503 -0.6970  0.3142 -0.4740
  357SOL    HW2 1427   1.933   2.782   0.466  0.2597  0.8527 -1.3157
  357SOL     MW 1428   1.847   2.806   0.484  0.0438  0.1715 -0.3163
  358SOL     OW 1429   0.416   0.166   1.050  0.1510 -0.3491  0.4096
  358SOL    HW1 1430   0.506   0.195   1.026  1.6440  2.9897  1.6720
  358SOL    HW2 1431   0.362   0.199   0.977 -0.1856 -0.0022  0.8876
  358SOL     MW 1432   0.421   0.174   1.037  0.3036  0.1372  0.6392
  359SOL     OW 1433   0.904   2.991   1.849  0.1475  0.2019  0.1198
  359SOL    HW1 1434   0.880   2.907   1.883 -1.1665 -1.6095  2.2760
  359SOL    HW2 1435   0.919   2.972   1.761  0.6476  0.0571 -0.5036
  359SOL     MW 1436   0.903   2.977   1.842  0.0401 -0.0562  0.3220
  360SOL     OW 1437   0.549   2.791   0.891 -0.1075  0.2001  0.5109
  360SOL    HW1 1438   0.594   2.748   0.817 -1.3556 -0.3252  1.9241
  360SOL    HW2 1439   0.540   2.720   0.956 -0.0992 -0.1421  1.0891
  360SOL     MW 1440   0.554   2.776   0.890 -0.2711  0.0856  0.7737
  361SOL     OW 1441   0.249   2.683   1.377  0.0357  1.0151 -0.2094
  361SOL    HW1 1442   0.214   2.760   1.422  0.0210 -1.6339 -0.6312
  361SOL    HW2 1443   0.340   2.692   1.361  1.4266  0.1406 -0.6540
  361SOL     MW 1444   0.257   2.694   1.381  0.2173  0.5502 -0.3237
  362SOL     OW 1445   1.374   2.417   0.603 -0.2700  0.4697 -0.1539
  362SOL    HW1 1446   1.413   2.366   0.670 -2.7211 -0.6793  0.0377
  362SOL    HW2 1447   1.412   2.508   0.596  1.3084 -0.1743  0.5732
  362SOL     MW 1448   1.384   2.422   0.611 -0.3852  0.2331 -0.0327
  363SOL     OW 1449   0.349   3.092   0.662  0.3693  0.3829  0.0402
  363SOL    HW1 1450   0.348   3.028   0.737 -3.2581 -0.3173  1.6553
  363SOL    HW2 1451   0.255   3.105   0.641 -1.1827 -2.3602  1.7229
  363SOL     MW 1452   0.337   3.085   0.669 -0.3141 -0.0714  0.4753
  364SOL     OW 1453   0.797   0.237   0.137  0.0131 -0.5342 -0.1026
  364SOL    HW1 1454   0.729   0.179   0.114  2.3174  0.3973  1.4972
  364SOL    HW2 1455   0.771   0.311   0.081 -0.3494 -2.8819 -1.5647
  364SOL     MW 1456   0.785   0.239   0.127  0.2693 -0.7211 -0.0844
  365SOL     OW 1457   0.893   2.003   1.201 -0.5175 -0.6468 -0.0405
  365SOL    HW1 1458   0.872   2.099   1.184 -0.1949 -0.0541  1.7894
  365SOL    HW2 1459   0.851   1.956   1.129 -1.4178  1.4194  4.7020
  365SOL     MW 1460   0.884   2.010   1.189 -0.5937 -0.2960  0.8267
  366SOL     OW 1461   2.937   2.639   0.965 -0.3587 -0.2262 -0.1525
  366SOL    HW1 1462   3.001   2.635   1.038  2.4214  1.5314 -0.5223
  366SOL    HW2 1463   3.000   2.642   0.890 -0.3282 -0.6998  1.2335
  366SOL     MW 1464   2.954   2.639   0.965  0.0122 -0.0568 -0.0184
  367SOL     OW 1465   1.187   2.957   0.961  0.2979  0.4356  0.5338
  367SOL    HW1 1466   1.243   2.988   0.886  1.8267  0.6627 -0.7816
  367SOL    HW2 1467   1.105   2.924   0.931 -1.9985 -0.4827  2.7313
  367SOL     MW 1468   1.183   2.957   0.947  0.1966  0.3444  0.6502
  368SOL     OW 1469   1.742   0.420   0.662 -0.4600  0.1473 -0.3332
  368SOL    HW1 1470   1.786   0.355   0.610 -0.9848 -0.6784 -2.1467
  368SOL    HW2 1471   1.768   0.504   0.626  0.6270 -1.4652 -2.7986
  368SOL     MW 1472   1.751   0.423   0.650 -0.3858 -0.1744 -0.8978
  369SOL     OW 1473   0.144   2.377   1.774 -0.2009 -0.1215  0.1454
  369SOL    HW1 1474   0.242   2.362   1.786  3.7076  0.9490 -0.5864
  369SOL    HW2 1475   0.128   2.476   1.771 -1.1516 -1.4234 -1.5617
  369SOL     MW 1476   0.155   2.388   1.775  0.1893 -0.1520 -0.1764
  370SOL     OW 1477   0.735   0.141   1.029 -0.1438  0.6381  0.6947
  370SOL    HW1 1478   0.773   0.180   0.951  1.9415 -1.8463 -0.5184
  370SOL    HW2 1479   0.802   0.074   1.049  1.5816 -2.9310  1.5027
  370SOL     MW 1480   0.749   0.137   1.021  0.3589 -0.1606  0.6413
  371SOL     OW 1481   1.209   2.852   1.485 -1.0410  0.7806 -0.0824
  371SOL    HW1 1482   1.200   2.758   1.481 -0.7214  0.8815 -2.0322
  371SOL    HW2 1483   1.167   2.883   1.404  1.4221 -0.7811 -3.0066
  371SOL     MW 1484   1.202   2.844   1.474 -0.6739  0.5878 -0.7255
  372SOL     OW 1485   0.789   2.322   0.505  0.1493 -0.3047 -0.4514
  372SOL    HW1 1486   0.747   2.237   0.524  2.1316 -0.4271  2.4907
  372SOL    HW2 1487   0.802   2.318   0.412  0.5155  1.0501  0.1280
  372SOL     MW 1488   0.785   2.310   0.495  0.4592 -0.1421  0.0132
  373SOL     OW 1489   2.843   2.998   1.428  0.0017 -0.2296  0.1101
  373SOL    HW1 1490   2.920   2.976   1.382 -0.1399  0.3614 -0.8941
  373SOL    HW2 1491   2.817   3.080   1.388  1.4093 -0.9780 -1.9032
  373SOL     MW 1492   2.849   3.006   1.416  0.1688 -0.2503 -0.2880
  374SOL     OW 1493   1.590   0.465   0.288 -0.2105 -0.0144  0.0869
  374SOL    HW1 1494   1.675   0.422   0.285  0.6673 -3.0733 -3.3364
  374SOL    HW2 1495   1.548   0.422   0.364 -1.4340 -2.1750 -0.0840
  374SOL     MW 1496   1.595   0.454   0.298 -0.2561 -0.7030 -0.3874
  375SOL     OW 1497   0.995   2.148   2.290  0.9714 -0.6968 -0.5235
  375SOL    HW1 1498   1.062   2.117   2.352 -0.8884  1.7240 -1.5759
  375SOL    HW2 1499   0.971   2.075   2.237 -0.7368  0.6494  2.2916
  375SOL     MW 1500   1.000   2.135   2.292  0.5007 -0.1998 -0.2909
  376SOL     OW 1501   0.763   2.502   0.076  0.3291 -0.4170  0.9391
  376SOL    HW1 1502   0.756   2.441   0.143  0.4785  1.7179  0.0872
  376SOL    HW2 1503   0.782   2.463  -0.009  0.0381 -0.4002  1.3029
  376SOL     MW 1504   0.764   2.489   0.074  0.3104 -0.1331  0.8747
  377SOL     OW 1505   1.313   2.044   0.921  0.4030 -0.2210  0.2907
  377SOL    HW1 1506   1.234   2.054   0.876  2.1971 -0.0167  0.5845
  377SOL    HW2 1507   1.281   1.996   0.999 -0.7937  1.4010  2.5755
  377SOL     MW 1508   1.299   2.039   0.926  0.4818  0.0200  0.6309
  378SOL     OW 1509   0.911   2.858   1.534 -0.3473 -0.4651 -0.3178
  378SOL    HW1 1510   0.947   2.784   1.594  0.7611  2.7976  1.4450
  378SOL    HW2 1511   0.915   2.824   1.443  0.0589  2.1412  0.6641
  378SOL     MW 1512   0.916   2.844   1.530 -0.1474  0.3093  0.0444
  379SOL     OW 1513   1.120   1.624   2.223 -0.5255 -0.3122  0.0315
  379SOL    HW1 1514   1.036   1.638   2.176 -1.6340 -1.6738  0.2039
  379SOL    HW2 1515   1.190   1.599   2.164  0.4130  1.7128  2.3834
  379SOL     MW 1516   1.118   1.622   2.209 -0.5479 -0.2246  0.3646
  380SOL     OW 1517   0.872   0.099   1.424 -0.1914  0.2921 -0.1457
  380SOL    HW1 1518   0.915   0.023   1.380 -1.0137  1.4823  1.2464
  380SOL    HW2 1519   0.933   0.117   1.497  2.3139  0.6018  0.5219
  380SOL     MW 1520   0.885   0.091   1.428  0.0306  0.4900  0.1260
  381SOL     OW 1521   0.829   2.048   0.826 -0.3941  0.0707  0.0872
  381SOL    HW1 1522   0.924   2.042   0.813  0.8003 -2.4267 -1.5175
  381SOL    HW2 1523   0.823   2.114   0.900 -0.3640 -0.5168 -2.0013
  381SOL     MW 1524   0.841   2.056   0.834 -0.2325 -0.3363 -0.4001
  382SOL     OW 1525   0.827   0.148   0.623  0.2525  0.1957 -0.4979
  382SOL    HW1 1526   0.823   0.220   0.689 -0.4452  0.8737  0.3675
  382SOL    HW2 1527   0.752   0.087   0.643 -0.3281 -1.4397  1.5572
  382SOL     MW 1528   0.817   0.149   0.634  0.0838  0.0694 -0.1125
  383SOL     OW 1529   0.602   0.069   0.319  0.1208  0.0450  0.0842
  383SOL    HW1 1530   0.659  -0.001   0.284  1.3327 -0.5215  0.5778
  383SOL    HW2 1531   0.534   0.009   0.354  0.1512  0.1107  1.2724
  383SOL     MW 1532   0.601   0.052   0.319  0.2847 -0.0210  0.3061
  384SOL     OW 1533   0.743   2.969   0.665 -0.2053  0.4017 -0.2493
  384SOL    HW1 1534   0.810   2.923   0.726 -0.3431 -0.1647 -0.6241
  384SOL    HW2 1535   0.675   2.904   0.656  2.3287 -0.5658 -1.2971
  384SOL     MW 1536   0.743   2.955   0.672  0.1109  0.1993 -0.4370
  385SOL     OW 1537   1.388   2.088   1.541 -0.3634 -0.4790  0.0867
  385SOL    HW1 1538   1.458   2.124   1.595 -0.8215 -1.6725 -1.7969
  385SOL    HW2 1539   1.381   1.996   1.568 -2.0035  0.9241 -3.3203
  385SOL     MW 1540   1.396   2.080   1.552 -0.6403 -0.4513 -0.6113
  386SOL     OW 1541   1.433   0.392   0.900  0.7633  0.5878  0.1131
  386SOL    HW1 1542   1.407   0.459   0.963 -2.7601 -1.7885  0.2986
  386SOL    HW2 1543   1.525   0.362   0.911  1.4543  1.7730  1.8577
  386SOL     MW 1544   1.442   0.396   0.910  0.3896  0.4307  0.3678
  387SOL     OW 1545   0.812   2.165   1.561  0.3050  1.2188  0.0177
  387SOL    HW1 1546   0.865   2.207   1.496 -2.1927  0.4352  0.6897
  387SOL    HW2 1547   0.812   2.070   1.534 -3.7255 -0.4355  0.8148
  387SOL     MW 1548   0.819   2.158   1.549 -0.5564  0.8972  0.2116
  388SOL     OW 1549   1.470   2.775   1.338 -0.0020 -0.3153  0.4587
  388SOL    HW1 1550   1.398   2.845   1.345 -0.5286  1.1690  3.8888
  388SOL    HW2 1551   1.438   2.714   1.264  1.6822  0.5873 -0.4418
  388SOL     MW 1552   1.456   2.776   1.329  0.1507 -0.0004  0.7925
  389SOL     OW 1553   0.526   0.147   3.071 -0.1908  0.1476  0.2804
  389SOL    HW1 1554   0.594   0.116   3.012  0.9678  0.2464 -0.4655
  389SOL    HW2 1555   0.475   0.196   3.014 -1.0996 -2.6168  1.0094
  389SOL     MW 1556   0.528   0.149   3.056 -0.1579 -0.2041  0.2782
  390SOL     OW 1557   1.374   0.037   0.749 -0.0291 -0.0346 -0.1416
  390SOL    HW1 1558   1.398   0.029   0.661  1.9023 -0.2747  1.6169
  390SOL    HW2 1559   1.441   0.084   0.795 -0.1444 -0.4773  1.6761
  390SOL     MW 1560   1.386   0.043   0.743  0.2105 -0.1247  0.3302
  391SOL     OW 1561   0.355   2.192   1.524 -0.0804 -0.3806  0.0055
  391SOL    HW1 1562   0.308   2.125   1.564 -0.7489  1.6164 -0.3840
  391SOL    HW2 1563   0.297   2.269   1.512  2.0626  2.2834  0.3716
  391SOL     MW 1564   0.341   2.193   1.528  0.1141  0.2344  0.0024
  392SOL     OW 1565   2.002   2.232   0.306 -0.9761  0.2015  0.2094
  392SOL    HW1 1566   2.068   2.295   0.336 -2.2391 -0.2308  1.9122
  392SOL    HW2 1567   1.914   2.265   0.335 -1.7063 -2.0094 -0.4556
  392SOL     MW 1568   1.999   2.244   0.314 -1.2391 -0.1472  0.3463
  393SOL     OW 1569   0.251   2.970   2.879  0.0761  0.0991 -0.0125
  393SOL    HW1 1570   0.325   2.926   2.837 -2.4924 -1.4599  0.7448
  393SOL    HW2 1571   0.276   3.065   2.857  1.1704  1.3825  1.3247
  393SOL     MW 1572   0.264   2.977   2.871 -0.1184  0.0627  0.2638
  394SOL     OW 1573   1.035   1.767   1.511  0.6818 -0.0731 -0.5738
  394SOL    HW1 1574   1.042   1.804   1.595 -0.5189  1.1523  0.2572
  394SOL    HW2 1575   0.955   1.815   1.483  0.8330 -1.3073  0.5024
  394SOL     MW 1576   1.025   1.778   1.518  0.5433 -0.0742 -0.3222
  395SOL     OW 1577   0.924   2.962   2.633 -0.4303 -0.3343  0.8327
  395SOL    HW1 1578   0.967   3.003   2.710  3.2147  0.4122  3.1907
  395SOL    HW2 1579   0.986   2.887   2.613 -1.7625 -0.9884  0.5421
  395SOL     MW 1580   0.938   2.958   2.640 -0.1251 -0.3221  1.1054
  396SOL     OW 1581   0.734   1.903   2.418  0.6112  0.0850 -0.7884
  396SOL    HW1 1582   0.793   1.883   2.488 -1.7032 -2.0599  1.5114
  396SOL    HW2 1583   0.710   1.816   2.389 -3.4731  0.4638  1.0868
  396SOL     MW 1584   0.739   1.889   2.423 -0.2331 -0.1480 -0.2376
  397SOL     OW 1585   0.963   2.300   1.378 -0.4461 -0.0604  0.1273
  397SOL    HW1 1586   1.002   2.325   1.295 -1.0963 -1.3961  1.8472
  397SOL    HW2 1587   1.037   2.274   1.430  4.7469 -0.8028 -2.1152
  397SOL     MW 1588   0.978   2.300   1.374  0.1533 -0.3346  0.0583
  398SOL     OW 1589   0.613   2.725   0.628  0.4894 -0.3454 -0.0769
  398SOL    HW1 1590   0.544   2.699   0.560 -3.6026  0.1151  2.1498
  398SOL    HW2 1591   0.690   2.667   0.614  0.7105  0.1626 -1.3015
  398SOL     MW 1592   0.614   2.714   0.617 -0.0213 -0.2176  0.0553
  399SOL     OW 1593   0.283   2.099   0.320  0.6528 -0.1325 -0.1409
  399SOL    HW1 1594   0.189   2.122   0.308 -1.5480 -1.1140 -0.7414
  399SOL    HW2 1595   0.331   2.129   0.245  0.1395  0.0308  2.3785
  399SOL     MW 1596   0.277   2.106   0.309  0.2947 -0.2405  0.1123
  400SOL     OW 1597   0.604   1.891   0.108  0.4330  0.2889 -0.7663
  400SOL    HW1 1598   0.562   1.970   0.130  1.5127 -1.0076 -2.7141
  400SOL    HW2 1599   0.582   1.835   0.183  0.0359  1.4300  0.7110
  400SOL     MW 1600   0.595   1.894   0.121  0.5230  0.2684 -0.8284
  401SOL     OW 1601   0.798   2.071   0.035  0.2908 -0.1394  0.4351
  401SOL    HW1 1602   0.888   2.031   0.042  1.0079  1.0575 -0.7077
  401SOL    HW2 1603   0.737   1.998   0.040  0.3780 -1.3878  0.8334
  401SOL     MW 1604   0.802   2.056   0.036  0.3969 -0.1462  0.3368
  402SOL     OW 1605   0.541   3.012   1.721  0.3743  0.0583  0.4259
  402SOL    HW1 1606   0.607   2.967   1.768  0.3256 -2.8514 -1.2474
  402SOL    HW2 1607   0.577   3.100   1.711 -2.3682 -0.3282  1.5714
  402SOL     MW 1608   0.554   3.018   1.726  0.0061 -0.3766  0.3563
  403SOL     OW 1609   0.124   0.519   0.401 -0.2617 -0.1306  0.2414
  403SOL    HW1 1610   0.212   0.544   0.441  1.7830  0.9049  0.7690
  403SOL    HW2 1611   0.154   0.474   0.316  0.1373 -1.7153 -3.2605
  403SOL     MW 1612   0.139   0.516   0.395  0.0607 -0.2031 -0.1511
  404SOL     OW 1613   0.958   2.914   0.837 -0.4776 -0.1094  0.3694
  404SOL    HW1 1614   0.997   2.845   0.788  1.8774 -0.1080  0.2627
  404SOL    HW2 1615   0.994   2.996   0.806  0.4692  2.3891  2.3257
  404SOL     MW 1616   0.968   2.916   0.826 -0.0420  0.2205  0.6134
  405SOL     OW 1617   0.471   2.468   1.499  0.9531 -0.1242 -0.1214
  405SOL    HW1 1618   0.494   2.528   1.427  3.0256  0.2139  1.3850
  405SOL    HW2 1619   0.496   2.383   1.475 -1.5644 -1.2627 -3.6312
  405SOL     MW 1620   0.478   2.465   1.486  0.8944 -0.2298 -0.3857
  406SOL     OW 1621   0.403   2.364   1.159  0.3136 -0.3673 -0.2977
  406SOL    HW1 1622   0.312   2.380   1.151  0.5752 -1.3189 -1.0190
  406SOL    HW2 1623   0.413   2.276   1.205  0.4799  0.9941  0.0397
  406SOL     MW 1624   0.392   2.354   1.164  0.3700 -0.3132 -0.3484
  407SOL     OW 1625   0.044   2.654   1.152 -0.1533 -0.0740 -0.1128
  407SOL    HW1 1626   0.092   2.657   1.232 -0.0651  2.9967 -1.9795
  407SOL    HW2 1627   0.104   2.675   1.076  0.6827  0.7300  1.2123
  407SOL     MW 1628   0.058   2.657   1.152 -0.0313  0.4372 -0.1843
  408SOL     OW 1629   2.114   2.127   0.750 -0.4569 -0.0313  0.1300
  408SOL    HW1 1630   2.078   2.193   0.822  4.6515  1.6294  0.0626
  408SOL    HW2 1631   2.037   2.087   0.699 -1.2182 -1.6900 -0.9832
  408SOL     MW 1632   2.099   2.130   0.753  0.1167 -0.0310 -0.0258
  409SOL     OW 1633   1.595   0.143   0.869  0.6940  0.3851 -0.3485
  409SOL    HW1 1634   1.657   0.203   0.905 -0.1466  0.3793 -2.3793
  409SOL    HW2 1635   1.565   0.094   0.945 -0.4403 -0.6765 -1.8630
  409SOL     MW 1636   1.599   0.144   0.884  0.4334  0.2443 -0.8162
  410SOL     OW 1637   1.078   2.409   1.160  0.2724 -0.3112 -0.3481
  410SOL    HW1 1638   1.015   2.451   1.100  2.8384  1.3235  0.4777
  410SOL    HW2 1639   1.141   2.367   1.099  0.4525 -0.1212  0.4862
  410SOL     MW 1640   1.078   2.409   1.144  0.6347 -0.0704 -0.1290
  411SOL     OW 1641   2.018   2.965   2.913 -0.1169 -0.4637  0.7400
  411SOL    HW1 1642   2.003   2.924   2.829 -1.0737 -2.4058  0.8920
  411SOL    HW2 1643   1.990   3.057   2.903  1.8946 -0.4843 -0.9003
  411SOL     MW 1644   2.012   2.972   2.901  0.0222 -0.7227  0.5436
  412SOL     OW 1645   1.037   2.231   0.605 -0.3072 -0.3573  0.0121
  412SOL    HW1 1646   1.072   2.301   0.658  1.4392 -2.2613  0.9749
  412SOL    HW2 1647   0.944   2.250   0.589 -1.0604 -2.5913 -0.0752
  412SOL     MW 1648   1.029   2.243   0.610 -0.1762 -0.9033  0.1276
  413SOL     OW 1649   0.585   2.744   0.109 -0.0583 -0.2948  0.1498
  413SOL    HW1 1650   0.664   2.682   0.113  0.7908 -3.9666  0.1183
  413SOL    HW2 1651   0.579   2.767   0.012 -1.0480 -2.4022  1.8889
  413SOL     MW 1652   0.594   2.739   0.097 -0.0768 -1.0573  0.3751
  414SOL     OW 1653   1.991   3.045   1.112 -0.1664 -0.2597 -0.4536
  414SOL    HW1 1654   2.037   3.129   1.131 -2.9071  3.7432 -0.4739
  414SOL    HW2 1655   1.990   3.057   1.019  2.2118 -0.1340  0.0733
  414SOL     MW 1656   1.997   3.058   1.102 -0.2142  0.2850 -0.3867
  415SOL     OW 1657   1.632   2.839   1.125  0.0292 -0.1318  0.1108
  415SOL    HW1 1658   1.583   2.813   1.204  1.5890  1.1303  0.9275
  415SOL    HW2 1659   1.723   2.822   1.148  1.1526 -0.8921 -1.6636
  415SOL     MW 1660   1.637   2.833   1.138  0.3832 -0.0656 -0.0156
  416SOL     OW 1661   0.599   1.721   1.508 -0.1957 -0.8407  0.0430
  416SOL    HW1 1662   0.506   1.715   1.480  2.5001  0.3274  0.3539
  416SOL    HW2 1663   0.655   1.656   1.465  0.6178  0.6420  2.5949
  416SOL     MW 1664   0.594   1.712   1.498  0.2673 -0.4910  0.4207
  417SOL     OW 1665   0.995   3.098   2.070  0.2465  0.8752 -0.0918
  417SOL    HW1 1666   0.920   3.097   2.127  0.3246  0.7833 -1.9134
  417SOL    HW2 1667   0.965   3.061   1.984  1.3102 -0.2943 -1.6174
  417SOL     MW 1668   0.981   3.093   2.066  0.3971  0.7087 -0.5335
  418SOL     OW 1669   0.762   2.984   0.151  0.0474 -0.2876 -0.7083
  418SOL    HW1 1670   0.834   2.939   0.104  1.0035 -0.7620  0.3599
  418SOL    HW2 1671   0.688   2.931   0.118 -1.0667 -2.0021  0.7457
  418SOL     MW 1672   0.762   2.971   0.141  0.0266 -0.5764 -0.3755
  419SOL     OW 1673   0.555   2.683   1.343  0.1756 -0.0630  0.3224
  419SOL    HW1 1674   0.580   2.770   1.383  1.4110  1.5322 -0.3835
  419SOL    HW2 1675   0.636   2.629   1.347  2.1664 -0.9425 -3.0752
  419SOL     MW 1676   0.569   2.687   1.349  0.6013  0.0315 -0.2190
  420SOL     OW 1677   0.778   2.244   1.033  0.3256  0.5411  0.0323
  420SOL    HW1 1678   0.691   2.244   1.073  0.2495  0.9790 -1.5177
  420SOL    HW2 1679   0.788   2.335   0.997  1.7273 -1.2636  1.5892
  420SOL     MW 1680   0.768   2.256   1.033  0.5005  0.3608  0.0332
  421SOL     OW 1681   2.913   0.149   0.022 -0.4870 -0.0568  0.4254
  421SOL    HW1 1682   2.859   0.081  -0.021  0.7026  0.2299 -3.5188
  421SOL    HW2 1683   2.986   0.094   0.058 -0.8924 -1.1367 -0.2008
  421SOL     MW 1684   2.915   0.133   0.021 -0.3835 -0.1615 -0.1776
  422SOL     OW 1685   0.844   2.525   0.982  0.3993 -0.5864  0.1117
  422SOL    HW1 1686   0.784   2.591   1.020  0.3057  0.8958 -0.0222
  422SOL    HW2 1687   0.877   2.562   0.898 -0.3222 -0.1644 -1.8628
  422SOL     MW 1688   0.841   2.538   0.976  0.2918 -0.3351 -0.1665
  423SOL     OW 1689   1.457   0.068   0.481  0.1234  0.1388 -0.3795
  423SOL    HW1 1690   1.499   0.039   0.392 -1.7979  1.3104  0.8205
  423SOL    HW2 1691   1.478   0.161   0.503 -2.6874 -2.2057 -1.1884
  423SOL     MW 1692   1.465   0.076   0.473 -0.5010 -0.0160 -0.3279
  424SOL     OW 1693   0.635   2.278   1.372  0.0038 -0.4818  0.4126
  424SOL    HW1 1694   0.571   2.219   1.326  1.0517  1.0945 -0.8240
  424SOL    HW2 1695   0.669   2.224   1.444 -2.8801 -0.2873  0.0957
  424SOL     MW 1696   0.631   2.264   1.375 -0.2385 -0.2482  0.2076
  425SOL     OW 1697   1.671   2.797   2.055 -0.0013  0.0347 -0.1147
  425SOL    HW1 1698   1.707   2.813   1.965  0.3246  2.4489 -2.5439
  425SOL    HW2 1699   1.710   2.710   2.075  1.3528  1.6610  0.3372
  425SOL     MW 1700   1.681   2.788   2.046  0.2204  0.5678 -0.3756
  426SOL     OW 1701   0.897   1.724   1.982 -0.2304 -0.1704 -0.5060
  426SOL    HW1 1702   0.814   1.715   1.924 -2.0904  0.5095 -0.9977
  426SOL    HW2 1703   0.893   1.811   2.023  0.2121 -1.3031 -4.2570
  426SOL     MW 1704   0.886   1.735   1.979 -0.4174 -0.2301 -1.0658
  427SOL     OW 1705   0.362   1.698   1.879  0.6515  0.4170 -0.2162
  427SOL    HW1 1706   0.401   1.636   1.815 -0.7676  1.4818  2.0751
  427SOL    HW2 1707   0.316   1.645   1.939  1.1675 -1.9322  2.5473
  427SOL     MW 1708   0.361   1.683   1.879  0.5323  0.2475  0.4507
  428SOL     OW 1709   0.577   2.587   1.092 -0.1248 -0.0245  0.0787
  428SOL    HW1 1710   0.540   2.500   1.100  1.3436  2.3333 -2.0861
  428SOL    HW2 1711   0.564   2.629   1.181  0.9682 -0.8983 -2.1055
  428SOL     MW 1712   0.571   2.581   1.105  0.2132  0.1713 -0.4951
  429SOL     OW 1713   1.189   2.726   1.107 -0.1116 -0.4554  0.0014
  429SOL    HW1 1714   1.093   2.713   1.123  0.0246 -3.1873 -0.3240
  429SOL    HW2 1715   1.195   2.811   1.061  0.0435  0.2489 -0.5258
  429SOL     MW 1716   1.177   2.735   1.103 -0.0732 -0.7229 -0.1111
  430SOL     OW 1717   1.160   2.772   0.721  0.0629  0.1377  0.8653
  430SOL    HW1 1718   1.153   2.680   0.756  0.1945 -0.9039  1.8678
  430SOL    HW2 1719   1.127   2.757   0.623 -1.0018  2.5710  0.1640
  430SOL     MW 1720   1.155   2.758   0.713 -0.0602  0.3213  0.9051
  431SOL     OW 1721   0.296   1.931   1.115  0.2180  0.4078  0.1454
  431SOL    HW1 1722   0.374   1.869   1.115  3.5388 -2.2155 -2.0982
  431SOL    HW2 1723   0.268   1.923   1.021  1.4534 -0.3806 -1.4559
  431SOL     MW 1724   0.303   1.921   1.102  0.8192 -0.0423 -0.3619
  432SOL     OW 1725   0.077   0.003   1.141 -0.6725 -0.6345  0.2197
  432SOL    HW1 1726   0.060   0.052   1.223  1.0704  0.8076  1.0416
  432SOL    HW2 1727   0.003  -0.055   1.145  1.5497  1.3777 -2.6260
  432SOL     MW 1728   0.065   0.002   1.152 -0.1493 -0.1788 -0.0473
  433SOL     OW 1729   0.653   2.923   1.464 -0.5456 -0.3528  0.0597
  433SOL    HW1 1730   0.607   2.946   1.544  1.5399  3.5577 -0.5617
  433SOL    HW2 1731   0.754   2.906   1.487 -1.7240 -0.9450 -2.8461
  433SOL     MW 1732   0.660   2.924   1.478 -0.4259  0.0850 -0.4057
  434SOL     OW 1733   1.504   2.826   1.618  0.5168 -0.4796  0.9355
  434SOL    HW1 1734   1.416   2.851   1.634  1.9219  2.3293  0.3012
  434SOL    HW2 1735   1.501   2.798   1.523 -0.1672 -1.3663  0.2542
  434SOL     MW 1736   1.492   2.826   1.608  0.6119 -0.2260  0.7619
  435SOL     OW 1737   2.754   1.773   0.213 -0.1682 -0.2936  0.0930
  435SOL    HW1 1738   2.789   1.823   0.147 -2.4328  0.7024 -0.9247
  435SOL    HW2 1739   2.663   1.795   0.208 -0.5461 -0.0332  3.0084
  435SOL     MW 1740   2.747   1.782   0.204 -0.5168 -0.1278  0.3434
  436SOL     OW 1741   1.361   2.696   0.332 -0.0960  0.2199  0.1869
  436SOL    HW1 1742   1.429   2.697   0.400 -0.5154 -3.2503  0.2790
  436SOL    HW2 1743   1.315   2.777   0.356  0.9567  0.8915 -1.1642
  436SOL     MW 1744   1.364   2.707   0.344 -0.0124 -0.1494  0.0208
  437SOL     OW 1745   1.058   2.986   1.295 -0.4542  0.4081 -0.0188
  437SOL    HW1 1746   1.060   3.044   1.221  0.9750 -2.0008 -0.6018
  437SOL    HW2 1747   1.031   2.902   1.265  0.9992  1.1639  0.6644
  437SOL     MW 1748   1.055   2.983   1.281 -0.0739  0.1900 -0.0056
  438SOL     OW 1749   0.906   2.717   1.909  0.1740 -0.4337 -0.0649
  438SOL    HW1 1750   0.890   2.645   1.974 -2.8813  0.8162 -0.7042
  438SOL    HW2 1751   0.853   2.688   1.839 -0.2980 -1.5838  2.1652
  438SOL     MW 1752   0.897   2.704   1.908 -0.2914 -0.4206  0.1450
  439SOL     OW 1753   1.224   2.080   0.417  0.7777 -0.0519  0.2691
  439SOL    HW1 1754   1.170   2.112   0.489 -2.7137 -2.0945  0.0430
  439SOL    HW2 1755   1.190   2.141   0.345 -0.6052 -0.3846  0.3102
  439SOL     MW 1756   1.213   2.092   0.417  0.1346 -0.3653  0.2447
  440SOL     OW 1757   1.782   2.965   3.036 -0.1207 -0.4871 -0.6303
  440SOL    HW1 1758   1.788   2.968   3.131 -1.1968  1.0436 -0.0398
  440SOL    HW2 1759   1.868   2.945   3.001  2.8218 -0.7432 -0.4689
  440SOL     MW 1760   1.794   2.963   3.044  0.1255 -0.3189 -0.5311
  441SOL     OW 1761   0.395   2.657   0.422  0.9194 -0.4840 -0.2939
  441SOL    HW1 1762   0.368   2.603   0.353  2.8175  1.9146  1.2423
  441SOL    HW2 1763   0.364   2.745   0.396  2.1539 -0.2144  1.3203
  441SOL     MW 1764   0.387   2.662   0.409  1.3327 -0.1320  0.1218
  442SOL     OW 1765   0.022   2.314   0.626  0.5242  0.3865  0.3775
  442SOL    HW1 1766   0.009   2.403   0.595  0.8417  4.9411  2.5726
  442SOL    HW2 1767  -0.065   2.284   0.655 -0.8044  0.0090 -0.2854
  442SOL     MW 1768   0.009   2.322   0.626  0.3908  0.9376  0.5796
  443SOL     OW 1769   1.489   1.791   1.895 -0.4687 -0.1431 -0.4231
  443SOL    HW1 1770   1.434   1.804   1.821  1.4427 -0.2113  0.7722
  443SOL    HW2 1771   1.483   1.694   1.904  1.8834 -1.0266 -1.5873
  443SOL     MW 1772   1.481   1.780   1.886  0.0938 -0.2687 -0.4190
  444SOL     OW 1773   0.991   2.612   1.642 -0.0745  0.1456 -0.2497
  444SOL    HW1 1774   1.043   2.547   1.690  0.0424 -0.2895  0.7346
  444SOL    HW2 1775   0.909   2.589   1.683 -0.0963 -1.7650  0.4640
  444SOL     MW 1776   0.987   2.600   1.654 -0.0620 -0.1639 -0.0256
  445SOL     OW 1777   1.254   0.147   1.408  0.0471  0.3052  0.1528
  445SOL    HW1 1778   1.183   0.171   1.466  0.4603  1.3264 -1.5169
  445SOL    HW2 1779   1.246   0.211   1.335  1.8219  0.6007 -1.6162
  445SOL     MW 1780   1.244   0.159   1.406  0.3358  0.4790 -0.3009
  446SOL     OW 1781   2.785   2.839   1.049 -0.0497  0.1032 -0.1617
  446SOL    HW1 1782   2.724   2.867   0.985 -1.7130  0.3620  1.1331
  446SOL    HW2 1783   2.828   2.767   1.010 -1.5255  1.1513  1.8610
  446SOL     MW 1784   2.783   2.834   1.036 -0.4638  0.2757  0.2760
  447SOL     OW 1785   0.019   1.942   1.553  0.5930 -0.1270 -0.1717
  447SOL    HW1 1786   0.014   1.861   1.608  1.9194 -2.8576 -0.6509
  447SOL    HW2 1787  -0.051   1.920   1.485 -2.0509 -0.0050 -2.4716
  447SOL     MW 1788   0.009   1.928   1.551  0.4192 -0.4712 -0.5384
  448SOL     OW 1789   1.772   2.402   1.670 -0.4882 -0.1528 -0.0180
  448SOL    HW1 1790   1.714   2.327   1.678 -0.6067  2.0057 -1.0777
  448SOL    HW2 1791   1.713   2.471   1.676 -0.6771 -2.0721  0.7623
  448SOL     MW 1792   1.757   2.401   1.672 -0.5288 -0.1212 -0.0549
  449SOL     OW 1793   0.880   2.928   0.394 -0.0925  0.0969  0.5247
  449SOL    HW1 1794   0.820   2.940   0.317 -0.3158 -1.3938  0.9860
  449SOL    HW2 1795   0.830   2.959   0.469  0.5079  0.3575 -1.7004
  449SOL     MW 1796   0.865   2.934   0.394 -0.0427 -0.0654  0.2920
  450SOL     OW 1797   1.184   2.488   0.775 -0.5135  0.3455 -0.3356
  450SOL    HW1 1798   1.228   2.448   0.853  2.2048 -0.9626  1.4599
  450SOL    HW2 1799   1.245   2.463   0.703  1.0942  0.0137  1.3691
  450SOL     MW 1800   1.198   2.479   0.776  0.0573  0.1291  0.1262
  451SOL     OW 1801   0.524   1.944   1.699  0.2341 -0.5074 -0.0162
  451SOL    HW1 1802   0.573   1.909   1.622 -0.5660 -2.1390  1.7046
  451SOL    HW2 1803   0.431   1.922   1.680 -1.9357 -0.2043  0.9642
  451SOL     MW 1804   0.518   1.936   1.687 -0.1577 -0.6827  0.3402
  452SOL     OW 1805   0.350   2.607   0.026 -0.1102 -0.0870 -0.3975
  452SOL    HW1 1806   0.438   2.635   0.049  0.6348 -0.1094 -0.1460
  452SOL    HW2 1807   0.285   2.677   0.039 -3.0402  1.0362 -0.1552
  452SOL     MW 1808   0.353   2.620   0.031 -0.3985  0.0582 -0.3324
  453SOL     OW 1809   0.298   3.074   1.569 -0.1896 -0.3670 -0.4927
  453SOL    HW1 1810   0.348   3.008   1.618 -0.5885 -1.3630  0.8821
  453SOL    HW2 1811   0.337   3.064   1.479  1.2711 -0.9556 -1.4233
  453SOL     MW 1812   0.310   3.064   1.564 -0.0495 -0.5760 -0.4341
  454SOL     OW 1813   0.914   2.765   1.238  0.3382 -0.1048  0.0715
  454SOL    HW1 1814   0.873   2.682   1.283  0.7098 -1.9376  2.0771
  454SOL    HW2 1815   0.858   2.819   1.178  0.0603  0.6304  0.7905
  454SOL     MW 1816   0.902   2.761   1.236  0.3506 -0.2496  0.4310
  455SOL     OW 1817   1.727   2.885   0.222  0.6208 -0.0592 -0.6468
  455SOL    HW1 1818   1.789   2.854   0.292 -0.3148  2.2062 -1.4199
  455SOL    HW2 1819   1.674   2.808   0.191 -1.8197  1.9532  0.0808
  455SOL     MW 1820   1.728   2.871   0.227  0.1754  0.5052 -0.6528
  456SOL     OW 1821   2.752   0.279   1.465  0.1949 -0.1220 -0.1695
  456SOL    HW1 1822   2.751   0.209   1.393  0.4407 -0.0569 -3.4090
  456SOL    HW2 1823   2.827   0.335   1.439 -2.2668  0.3264  0.8137
  456SOL     MW 1824   2.762   0.277   1.452 -0.0975 -0.0543 -0.4672
  457SOL     OW 1825   0.792   1.696   3.059 -0.0247  0.5541  0.0930
  457SOL    HW1 1826   0.699   1.677   3.043 -0.7332  0.2379 -3.2566
  457SOL    HW2 1827   0.800   1.718   3.150 -0.0137 -2.1700 -0.7636
  457SOL     MW 1828   0.781   1.697   3.069 -0.1168  0.1530 -0.4619
  458SOL     OW 1829   1.366   1.478   0.701 -0.6860  0.1804 -0.0450
  458SOL    HW1 1830   1.296   1.534   0.672  1.5104 -3.0337 -0.0610
  458SOL    HW2 1831   1.353   1.398   0.649  1.5757 -2.3285 -0.9018
  458SOL     MW 1832   1.355   1.475   0.690 -0.0978 -0.5747 -0.1601
  459SOL     OW 1833   1.579   3.102   0.253  0.2864 -0.5822  0.1622
  459SOL    HW1 1834   1.628   3.018   0.247  1.3631 -0.2093  1.1913
  459SOL    HW2 1835   1.526   3.109   0.167  2.3878 -0.7876 -0.6237
  459SOL     MW 1836   1.578   3.092   0.241  0.7057 -0.5601  0.1943
  460SOL     OW 1837   1.792   2.231   0.643 -0.0838  0.0370  0.2465
  460SOL    HW1 1838   1.709   2.226   0.686  1.6472 -1.3700 -0.0647
  460SOL    HW2 1839   1.831   2.140   0.633  0.5496 -0.3438 -2.4173
  460SOL     MW 1840   1.787   2.218   0.647  0.2282 -0.1989 -0.1460
  461SOL     OW 1841   0.444   2.434   0.619 -0.3174 -0.4309 -0.5921
  461SOL    HW1 1842   0.421   2.505   0.565 -0.6682 -0.7883 -1.1802
  461SOL    HW2 1843   0.404   2.442   0.708  0.5105  2.0816  1.2454
  461SOL     MW 1844   0.436   2.445   0.624 -0.2545 -0.1466 -0.4273
  462SOL     OW 1845   0.291   0.223   1.311 -0.0107  0.5624 -0.2975
  462SOL    HW1 1846   0.358   0.186   1.258  0.7963 -0.4529  0.0044
  462SOL    HW2 1847   0.353   0.264   1.371 -1.7605  1.2306  1.7063
  462SOL     MW 1848   0.308   0.223   1.312 -0.1351  0.5166  0.0067
  463SOL     OW 1849   1.062   0.064   0.740  0.3742  0.1984  0.4994
  463SOL    HW1 1850   1.125   0.033   0.680 -1.5215  2.7572 -1.3933
  463SOL    HW2 1851   0.995   0.117   0.695  0.1774 -1.2035  1.3568
  463SOL     MW 1852   1.062   0.067   0.726  0.0981  0.3510  0.3628
  464SOL     OW 1853   0.780   3.103   2.278 -0.2269 -0.3047  0.4608
  464SOL    HW1 1854   0.764   3.010   2.270  0.4966  2.0078 -1.0882
  464SOL    HW2 1855   0.820   3.118   2.363 -1.5981 -1.2715 -2.1779
  464SOL     MW 1856   0.783   3.092   2.288 -0.3123 -0.1271 -0.0917
  465SOL     OW 1857   0.781   0.320   0.412 -0.1096  0.1755 -0.2807
  465SOL    HW1 1858   0.766   0.247   0.482  0.0745  3.2480  3.8911
  465SOL    HW2 1859   0.740   0.282   0.336  0.6496  2.3118  0.9461
  465SOL     MW 1860   0.774   0.305   0.411  0.0149  0.8627  0.4316
  466SOL     OW 1861   1.087   2.027   0.776  0.1758  0.1518  0.3922
  466SOL    HW1 1862   1.068   1.951   0.725  0.8156  1.5332 -0.1293
  466SOL    HW2 1863   1.071   2.107   0.716  0.9775  0.3082 -0.7937
  466SOL     MW 1864   1.082   2.027   0.761  0.3660  0.3547  0.1670
  467SOL     OW 1865   1.267   2.318   0.993 -0.0096  0.0799 -0.2470
  467SOL    HW1 1866   1.357   2.351   1.005  1.8209 -2.7055 -0.0914
  467SOL    HW2 1867   1.269   2.222   0.980  0.0663 -0.5184 -2.1462
  467SOL     MW 1868   1.279   2.310   0.993  0.2420 -0.3666 -0.4771
  468SOL     OW 1869   0.503   2.663   1.892  0.4290  0.1082 -0.3613
  468SOL    HW1 1870   0.495   2.569   1.870  0.3182 -0.4448 -1.9047
  468SOL    HW2 1871   0.427   2.696   1.860  1.0285 -2.4738  0.0345
  468SOL     MW 1872   0.492   2.655   1.885  0.4934 -0.3054 -0.5127
  469SOL     OW 1873   0.391   2.117   1.858 -0.2097 -0.4685 -0.6352
  469SOL    HW1 1874   0.298   2.084   1.839 -0.3607  0.1155  2.8939
  469SOL    HW2 1875   0.450   2.060   1.809  1.4897 -1.5603  1.7312
  469SOL     MW 1876   0.386   2.105   1.849 -0.0054 -0.5355  0.1427
  470SOL     OW 1877   3.054   2.612   0.113 -0.2378  0.0999 -0.4319
  470SOL    HW1 1878   2.964   2.615   0.155 -0.8585  0.8309  0.4279
  470SOL    HW2 1879   3.049   2.637   0.016  0.0082  2.6499 -2.1766
  470SOL     MW 1880   3.041   2.616   0.106 -0.2873  0.5328 -0.5487
  471SOL     OW 1881   1.175   2.586   1.411  0.0217  1.0149 -0.8786
  471SOL    HW1 1882   1.103   2.584   1.470 -0.1962 -0.3227  1.4888
  471SOL    HW2 1883   1.154   2.528   1.341  0.2626 -0.6105  2.3610
  471SOL     MW 1884   1.163   2.578   1.409  0.0248  0.6239 -0.1388
  472SOL     OW 1885   2.837   2.106   0.355  0.3267  0.4174 -0.0779
  472SOL    HW1 1886   2.812   2.093   0.265 -1.4625  0.8632  1.6144
  472SOL    HW2 1887   2.817   2.028   0.401  4.1442 -0.5433 -1.7573
  472SOL     MW 1888   2.831   2.094   0.349  0.5943  0.3494 -0.0762
  473SOL     OW 1889   0.814   2.557   1.401  0.0779  0.2415  0.2444
  473SOL    HW1 1890   0.831   2.461   1.393 -1.4798  0.4626 -2.1328
  473SOL    HW2 1891   0.827   2.579   1.493  0.4074 -0.3179  3.0831
  473SOL     MW 1892   0.818   2.547   1.412 -0.0842  0.1969  0.3053
  474SOL     OW 1893   0.675   2.310   1.774 -0.4508  0.2092  0.8734
  474SOL    HW1 1894   0.753   2.310   1.834  2.0267 -0.1781  0.1342
  474SOL    HW2 1895   0.708   2.276   1.691 -0.4503  3.5542  2.4066
  474SOL     MW 1896   0.689   2.305   1.771 -0.1238  0.5995  0.9782
  475SOL     OW 1897   1.613   3.088   1.515  0.0567 -0.3052  0.4627
  475SOL    HW1 1898   1.541   3.092   1.451 -2.4406 -1.9236  2.0562
  475SOL    HW2 1899   1.588   3.001   1.554 -1.5594 -1.1201  0.0695
  475SOL     MW 1900   1.600   3.077   1.512 -0.4860 -0.6263  0.6210
  476SOL     OW 1901   1.415   2.595   1.105 -0.2693  0.5262  0.6457
  476SOL    HW1 1902   1.321   2.629   1.091  0.7320  0.3367  1.6854
  476SOL    HW2 1903   1.480   2.645   1.061  0.5969 -0.5194 -0.9898
  476SOL     MW 1904   1.411   2.606   1.097 -0.0229  0.3633  0.5671
  477SOL     OW 1905   0.846   2.568   0.648  0.2616  0.0269 -0.4237
  477SOL    HW1 1906   0.912   2.615   0.598  0.0185 -1.1370  0.3151
  477SOL    HW2 1907   0.822   2.499   0.594 -0.3617  2.0437 -0.2139
  477SOL     MW 1908   0.852   2.565   0.634  0.1473  0.1394 -0.2986
  478SOL     OW 1909   0.192   2.651   0.941  0.1881  0.5158  0.4297
  478SOL    HW1 1910   0.229   2.731   0.900 -0.8348  3.0085  2.1597
  478SOL    HW2 1911   0.261   2.581   0.938  1.1349 -0.0928  1.6140
  478SOL     MW 1912   0.206   2.653   0.935  0.1780  0.7644  0.8142
  479SOL     OW 1913   1.423   1.987   1.287 -0.2556  0.0996 -0.0602
  479SOL    HW1 1914   1.425   2.029   1.370 -0.2447  0.7275 -1.2686
  479SOL    HW2 1915   1.470   1.901   1.299 -1.0051  0.8887  0.1549
  479SOL     MW 1916   1.429   1.981   1.299 -0.3530  0.2866 -0.1912
  480SOL     OW 1917   2.014   2.447   1.312 -0.1292  0.6142  0.3795
  480SOL    HW1 1918   1.979   2.356   1.324 -0.4422 -1.9676  1.1810
  480SOL    HW2 1919   2.034   2.461   1.219  2.0820  1.4760 -0.3093
  480SOL     MW 1920   2.012   2.437   1.301  0.1212  0.3873  0.3944
  481SOL     OW 1921   1.032   0.061   1.052  0.0447  0.8849  0.1008
  481SOL    HW1 1922   1.106   0.008   1.017 -0.3086 -2.4521  0.7037
  481SOL    HW2 1923   1.080   0.131   1.091 -0.9965 -0.1813 -0.3191
  481SOL     MW 1924   1.048   0.063   1.053 -0.1393  0.3040  0.1249
  482SOL     OW 1925   1.101   3.074   0.287  0.3760  0.0919  0.2360
  482SOL    HW1 1926   1.015   3.042   0.326 -3.2120  1.5084 -1.7142
  482SOL    HW2 1927   1.099   3.166   0.309  0.9528 -1.5000 -1.0983
  482SOL     MW 1928   1.090   3.082   0.295 -0.0213  0.0687 -0.1973
  483SOL     OW 1929   0.414   2.975   0.426 -0.1369  0.4423  0.4647
  483SOL    HW1 1930   0.322   2.986   0.389 -3.7780  1.5287  0.9735
  483SOL    HW2 1931   0.409   3.014   0.514 -0.2654  2.5334  1.1189
  483SOL     MW 1932   0.401   2.981   0.433 -0.6343  0.8615  0.6182
  484SOL     OW 1933   1.872   1.937   1.505  0.1656 -0.0013  0.3795
  484SOL    HW1 1934   1.936   2.012   1.491 -1.9236  2.4457 -3.8496
  484SOL    HW2 1935   1.830   1.957   1.587 -0.2401  2.5176 -0.7270
  484SOL     MW 1936   1.875   1.949   1.514 -0.1636  0.6539 -0.3245
  485SOL     OW 1937   0.570   2.350   0.245 -0.3405  1.2546 -0.4203
  485SOL    HW1 1938   0.602   2.317   0.331  1.9737 -0.1465  0.7883
  485SOL    HW2 1939   0.474   2.360   0.255  1.3970 -0.6875  0.8261
  485SOL     MW 1940   0.562   2.347   0.258  0.1941  0.8135 -0.0964
  486SOL     OW 1941   0.172   2.404   1.487  0.0291  0.3562 -0.1202
  486SOL    HW1 1942   0.222   2.469   1.440  0.3725 -0.0327  2.3103
  486SOL    HW2 1943   0.139   2.443   1.571 -0.0584  1.7070  1.8378
  486SOL     MW 1944   0.174   2.418   1.492  0.0628  0.4831  0.4588
  487SOL     OW 1945   1.214   1.708   1.050 -0.1975  0.5038 -0.3044
  487SOL    HW1 1946   1.201   1.801   1.070 -0.3810  2.2870  2.9496
  487SOL    HW2 1947   1.300   1.706   1.007  0.4597 -2.6260  0.1575
  487SOL     MW 1948   1.224   1.720   1.047 -0.1350  0.3261  0.1859
  488SOL     OW 1949   1.612   1.832   0.573  0.1205 -0.0368 -0.1761
  488SOL    HW1 1950   1.680   1.826   0.507  0.3961 -1.2658 -1.4631
  488SOL    HW2 1951   1.551   1.907   0.547  2.5183  0.9828  0.0867
  488SOL     MW 1952   1.613   1.841   0.561  0.4732 -0.0644 -0.3112
  489SOL     OW 1953   0.768   0.842   0.627  0.3622  0.1678 -0.0693
  489SOL    HW1 1954   0.808   0.773   0.571  1.6480  1.2741  0.2368
  489SOL    HW2 1955   0.745   0.799   0.709 -0.9869  1.0998 -2.2447
  489SOL     MW 1956   0.770   0.827   0.630  0.3538  0.4367 -0.3160
  490SOL     OW 1957   1.485   2.048   0.495 -0.1849  0.0960  0.6579
  490SOL    HW1 1958   1.488   2.137   0.459 -0.8249  1.7940 -1.5002
  490SOL    HW2 1959   1.386   2.033   0.497  1.8802  0.2072  1.8775
  490SOL     MW 1960   1.472   2.057   0.490  0.0031  0.3347  0.5341
  491SOL     OW 1961   1.304   2.952   0.437 -0.4740  0.5252 -0.1829
  491SOL    HW1 1962   1.353   3.027   0.471  0.7787  3.0623  0.5119
  491SOL    HW2 1963   1.230   2.993   0.386  1.7391  2.7442  1.0445
  491SOL     MW 1964   1.301   2.967   0.435 -0.0167  1.1527  0.0707
  492SOL     OW 1965   1.492   2.187   0.735  0.4823 -0.0226 -0.2683
  492SOL    HW1 1966   1.470   2.130   0.663 -1.0413 -1.0088 -0.8615
  492SOL    HW2 1967   1.465   2.128   0.809  3.0594 -1.2778 -0.3112
  492SOL     MW 1968   1.485   2.172   0.735  0.6213 -0.3183 -0.3522
  493SOL     OW 1969   0.165   3.020   0.337 -0.3565 -0.8925 -0.6410
  493SOL    HW1 1970   0.117   3.071   0.407  0.5886 -1.6823  2.7178
  493SOL    HW2 1971   0.179   3.079   0.266  1.7377 -1.4648  1.0751
  493SOL     MW 1972   0.160   3.034   0.337  0.0445 -1.0722  0.0286
  494SOL     OW 1973   0.429   2.410   1.772 -0.0041  0.5596 -0.1196
  494SOL    HW1 1974   0.502   2.345   1.785  2.1023  2.0728  0.3805
  494SOL    HW2 1975   0.434   2.441   1.680 -2.2681 -0.0494 -1.3269
  494SOL     MW 1976   0.439   2.405   1.762 -0.0249  0.6789 -0.2129
  495SOL     OW 1977   2.873   1.693   2.593 -0.3723  0.4703  0.2477
  495SOL    HW1 1978   2.871   1.784   2.570 -1.8389  1.6791 -1.2924
  495SOL    HW2 1979   2.833   1.679   2.680  1.6978  1.5266 -0.7946
  495SOL     MW 1980   2.868   1.703   2.601 -0.2927  0.7691 -0.0930
  496SOL     OW 1981   2.926   2.372   2.708  0.2483 -0.3367 -0.5365
  496SOL    HW1 1982   2.974   2.301   2.765 -1.2245  1.3193  1.5239
  496SOL    HW2 1983   2.994   2.432   2.679  0.8412 -1.8509 -0.5370
  496SOL     MW 1984   2.941   2.371   2.711  0.1322 -0.3180 -0.2647
  497SOL     OW 1985   1.619   2.196   2.622 -0.5509  0.2278 -0.2520
  497SOL    HW1 1986   1.541   2.150   2.590 -0.1188  2.1821 -0.5129
  497SOL    HW2 1987   1.642   2.152   2.703  0.8699 -0.9093 -0.3054
  497SOL     MW 1988   1.612   2.184   2.628 -0.3064  0.3356 -0.2934
  498SOL     OW 1989   1.449   2.704   2.345  0.4244 -0.6410  0.3390
  498SOL    HW1 1990   1.423   2.614   2.355 -1.8691  0.3857  0.1828
  498SOL    HW2 1991   1.541   2.706   2.382 -1.5791 -0.8688  0.8077
  498SOL     MW 1992   1.458   2.692   2.351 -0.1425 -0.5356  0.3803
  499SOL     OW 1993   1.006   0.139   3.076  0.1328  0.3743 -0.3917
  499SOL    HW1 1994   0.938   0.147   3.144 -3.0072  0.3706  3.2508
  499SOL    HW2 1995   1.067   0.072   3.112  2.4957 -3.1613 -0.7501
  499SOL     MW 1996   1.005   0.131   3.090  0.0303 -0.0927  0.0416
  500SOL     OW 1997   1.121   2.506   2.754  0.3239 -0.4550  0.0315
  500SOL    HW1 1998   1.197   2.518   2.809 -1.1138 -0.2833  1.0923
  500SOL    HW2 1999   1.053   2.501   2.820  0.1606 -1.1165 -1.1905
  500SOL     MW 2000   1.122   2.507   2.770  0.1127 -0.5196  0.0102
  501SOL     OW 2001   1.813   2.216   3.089  0.6226 -0.1930  0.1765
  501SOL    HW1 2002   1.798   2.308   3.119  0.6812 -2.5027  0.1573
  501SOL    HW2 2003   1.910   2.211   3.096 -1.0740  1.0466  2.8158
  501SOL     MW 2004   1.824   2.227   3.094  0.4065 -0.3342  0.5222
  502SOL     OW 2005   0.153   2.832   3.083  0.2639  0.3567 -0.4476
  502SOL    HW1 2006   0.108   2.765   3.030  0.2521  2.0047  2.2775
  502SOL    HW2 2007   0.188   2.898   3.017 -1.2317 -0.3075  2.7038
  502SOL     MW 2008   0.152   2.832   3.067  0.0650  0.4865  0.3277
  503SOL     OW 2009   1.020   2.827   2.177 -0.3283  0.6396 -0.0920
  503SOL    HW1 2010   1.010   2.763   2.108  1.1359 -0.2948 -2.5739
  503SOL    HW2 2011   1.037   2.918   2.155 -1.1264 -0.2535 -0.9088
  503SOL     MW 2012   1.021   2.831   2.165 -0.2404  0.3985 -0.5272
  504SOL     OW 2013   0.054   2.691   2.109 -0.2697 -0.3212  0.3584
  504SOL    HW1 2014   0.095   2.616   2.067 -1.0235  2.1812 -1.3287
  504SOL    HW2 2015   0.050   2.666   2.204 -0.7682  1.5934 -0.7286
  504SOL     MW 2016   0.059   2.677   2.116 -0.4350  0.2616 -0.0076
  505SOL     OW 2017   1.686   2.690   2.687 -0.2975 -0.1273  0.1879
  505SOL    HW1 2018   1.697   2.733   2.603  2.2375  0.0056 -2.1111
  505SOL    HW2 2019   1.608   2.732   2.730  0.1248 -0.3038  1.7163
  505SOL     MW 2020   1.677   2.701   2.681  0.0927 -0.1330  0.0862
  506SOL     OW 2021   1.614   3.028   2.839 -0.3569 -0.3741 -0.2557
  506SOL    HW1 2022   1.672   3.019   2.917 -0.3533 -1.5609 -0.0397
  506SOL    HW2 2023   1.680   3.023   2.768 -1.7151 -1.8642  0.3064
  506SOL     MW 2024   1.630   3.026   2.840 -0.5356 -0.7273 -0.1531
  507SOL     OW 2025   0.875   2.728   2.852 -0.2024 -0.1690 -0.3210
  507SOL    HW1 2026   0.947   2.791   2.817  0.0321  1.8390 -0.5478
  507SOL    HW2 2027   0.789   2.764   2.851 -1.5708 -0.5153  2.7014
  507SOL     MW 2028   0.873   2.741   2.847 -0.3520  0.0503  0.0479
  508SOL     OW 2029   1.137   2.080   2.521 -0.0247 -0.5660 -0.3402
  508SOL    HW1 2030   1.221   2.045   2.559  0.4487 -0.0482  2.5236
  508SOL    HW2 2031   1.082   2.134   2.585  0.8728 -0.6819  0.2306
  508SOL     MW 2032   1.141   2.083   2.535  0.1562 -0.5130  0.1130
  509SOL     OW 2033   0.605   2.553   2.899  0.5519  0.5786  0.7826
  509SOL    HW1 2034   0.613   2.526   2.809 -2.4570 -3.4681 -0.5709
  509SOL    HW2 2035   0.511   2.531   2.916 -1.3937 -0.6647  1.4907
  509SOL     MW 2036   0.593   2.547   2.889 -0.1018 -0.1194  0.6974
  510SOL     OW 2037   1.508   2.575   1.699 -0.1103  0.6856 -0.5066
  510SOL    HW1 2038   1.525   2.661   1.670  2.2817 -1.4640 -0.3470
  510SOL    HW2 2039   1.451   2.574   1.777  3.3532  3.1029 -0.6189
  510SOL     MW 2040   1.503   2.586   1.705  0.6623  0.7209 -0.5004
  511SOL     OW 2041   0.418   2.618   2.434 -0.4189 -0.2832 -0.0634
  511SOL    HW1 2042   0.486   2.566   2.479 -1.6291 -1.8918 -3.4314
  511SOL    HW2 2043   0.424   2.587   2.348  2.6701 -0.7606 -0.7386
  511SOL     MW 2044   0.428   2.607   2.429 -0.1710 -0.5584 -0.5969
  512SOL     OW 2045   1.033   1.995   2.851 -0.6570 -0.7056 -0.3172
  512SOL    HW1 2046   0.941   2.025   2.857  0.6108  1.6043  0.2361
  512SOL    HW2 2047   1.029   1.900   2.861 -1.5067 -0.6724 -2.4773
  512SOL     MW 2048   1.020   1.986   2.853 -0.6018 -0.3964 -0.5292
  513SOL     OW 2049   1.485   2.420   2.389 -0.2277 -0.2630  0.4177
  513SOL    HW1 2050   1.576   2.452   2.395 -2.3796 -0.2699 -1.3554
  513SOL    HW2 2051   1.481   2.330   2.422 -1.7801  0.0081  1.7130
  513SOL     MW 2052   1.496   2.413   2.394 -0.7164 -0.2281  0.3547
  514SOL     OW 2053   0.278   2.466   2.622  0.0021 -0.0109  0.9298
  514SOL    HW1 2054   0.333   2.522   2.572 -1.6762 -4.3492  0.1292
  514SOL    HW2 2055   0.293   2.488   2.712 -0.7617 -0.6240 -0.0031
  514SOL     MW 2056   0.287   2.476   2.627 -0.3201 -0.6642  0.7011
  515SOL     OW 2057   1.043   2.064   1.885 -0.0500 -0.3177  1.1712
  515SOL    HW1 2058   0.992   2.147   1.880  0.7429 -1.4258  2.2426
  515SOL    HW2 2059   1.134   2.089   1.919  1.7428  1.4136  0.8575
  515SOL     MW 2060   1.049   2.078   1.889  0.2912 -0.2355  1.2712
  516SOL     OW 2061   1.476   2.499   3.030 -0.7734  0.1505  0.8526
  516SOL    HW1 2062   1.523   2.470   2.945  1.9100  0.9945 -1.7279
  516SOL    HW2 2063   1.385   2.465   3.023 -1.5617  0.8928  1.8149
  516SOL     MW 2064   1.470   2.491   3.018 -0.5234  0.3598  0.6391
  517SOL     OW 2065   0.582   2.403   2.134 -0.4276 -0.4495  0.1416
  517SOL    HW1 2066   0.560   2.494   2.140 -0.6875 -0.2153  0.6606
  517SOL    HW2 2067   0.503   2.372   2.095  0.0842  0.1361 -2.2067
  517SOL     MW 2068   0.569   2.411   2.130 -0.3944 -0.3414 -0.0997
  518SOL     OW 2069   1.907   0.139   2.934 -0.3669 -0.3352 -0.2142
  518SOL    HW1 2070   1.854   0.193   2.872 -0.0766 -0.7440 -1.6211
  518SOL    HW2 2071   1.859   0.143   3.015  0.4370 -1.8169  0.0471
  518SOL     MW 2072   1.894   0.146   2.936 -0.2226 -0.5846 -0.3654
  519SOL     OW 2073   0.741   2.587   1.735 -0.1731  0.1027  0.4832
  519SOL    HW1 2074   0.721   2.495   1.749 -2.5347 -2.8715  0.5508
  519SOL    HW2 2075   0.653   2.633   1.740 -2.1818  0.0233  1.3529
  519SOL     MW 2076   0.727   2.581   1.738 -0.7497 -0.3002  0.6069
  520SOL     OW 2077   1.268   2.125   2.951  0.1801 -0.4786  0.4389
  520SOL    HW1 2078   1.198   2.069   2.913  3.9278 -1.5109 -2.1026
  520SOL    HW2 2079   1.322   2.080   3.020 -0.0203  0.1324 -0.8735
  520SOL     MW 2080   1.266   2.111   2.955  0.6481 -0.5342 -0.0696
  521SOL     OW 2081   1.727   2.073   2.253  0.4530  0.2157 -0.9533
  521SOL    HW1 2082   1.772   2.100   2.175 -0.7710 -0.8276 -1.3941
  521SOL    HW2 2083   1.723   1.979   2.235 -0.0700 -0.8194  1.2855
  521SOL     MW 2084   1.733   2.064   2.241  0.2225 -0.0585 -0.7160
  522SOL     OW 2085   2.832   2.569   2.182 -0.0068 -0.1005  0.4191
  522SOL    HW1 2086   2.901   2.510   2.215 -2.7843  0.1982 -2.0515
  522SOL    HW2 2087   2.779   2.590   2.259  1.1091  0.7868  0.6330
  522SOL     MW 2088   2.834   2.564   2.197 -0.2260  0.0560  0.1214
  523SOL     OW 2089   0.846   1.508   2.129  0.0394 -0.0411 -0.4298
  523SOL    HW1 2090   0.856   1.575   2.059  1.3664  0.5111  1.5684
  523SOL    HW2 2091   0.914   1.446   2.106  3.2762  0.5241  0.2291
  523SOL     MW 2092   0.856   1.509   2.117  0.6416  0.1064 -0.0792
  524SOL     OW 2093   0.892   2.452   2.931  0.1354  0.4311  0.3624
  524SOL    HW1 2094   0.842   2.523   2.896 -1.4813 -1.1525  0.9254
  524SOL    HW2 2095   0.856   2.371   2.899  1.5344  0.0072 -0.0758
  524SOL     MW 2096   0.880   2.451   2.922  0.1066  0.1663  0.3789
  525SOL     OW 2097   0.355   2.278   2.086  0.2620  0.1134 -0.3746
  525SOL    HW1 2098   0.338   2.224   2.165 -1.6928  0.6851  1.6744
  525SOL    HW2 2099   0.364   2.219   2.006  0.7081  0.9227 -0.3002
  525SOL     MW 2100   0.354   2.263   2.086  0.0630  0.2956 -0.0945
  526SOL     OW 2101   0.698   2.101   1.981 -0.8333 -0.1654  0.0067
  526SOL    HW1 2102   0.662   2.133   1.898 -0.3935  0.6271 -0.9605
  526SOL    HW2 2103   0.691   2.169   2.050  3.1930  2.8839  1.2911
  526SOL     MW 2104   0.692   2.115   1.979 -0.2441  0.3415  0.0486
  527SOL     OW 2105   1.342   1.972   2.038  0.1206  0.5652  0.4442
  527SOL    HW1 2106   1.311   1.944   2.125  0.5760 -2.4755  1.1532
  527SOL    HW2 2107   1.389   1.904   1.990  2.4719  0.2168  0.3994
  527SOL     MW 2108   1.344   1.959   2.043  0.4909  0.1181  0.5318
  528SOL     OW 2109   0.638   2.888   2.941  0.2956  0.4083 -0.4931
  528SOL    HW1 2110   0.673   2.975   2.930  0.4423  0.5272 -0.0419
  528SOL    HW2 2111   0.559   2.887   2.892  2.7124  0.4910 -0.0670
  528SOL     MW 2112   0.632   2.899   2.933  0.6338  0.4349 -0.3774
  529SOL     OW 2113   0.920   2.300   1.903  0.3694 -0.7899 -0.3694
  529SOL    HW1 2114   0.963   2.312   1.987 -1.2263  3.1019 -0.0544
  529SOL    HW2 2115   0.979   2.351   1.842 -2.8250  1.6984  2.1410
  529SOL     MW 2116   0.933   2.309   1.906 -0.2626  0.0519  0.0034
  530SOL     OW 2117   1.226   2.413   3.002  0.2075  0.5749 -0.4457
  530SOL    HW1 2118   1.138   2.418   3.051 -1.8753  0.6061 -0.6729
  530SOL    HW2 2119   1.223   2.317   2.982 -1.7812  0.6078 -1.5014
  530SOL     MW 2120   1.214   2.401   3.006 -0.3297  0.5834 -0.6150
  531SOL     OW 2121   0.956   1.858   2.568  0.1047  0.1436 -0.5331
  531SOL    HW1 2122   1.013   1.931   2.563 -1.9679 -0.8100  1.8893
  531SOL    HW2 2123   0.921   1.853   2.661 -1.1952 -0.8819  4.7035
  531SOL     MW 2124   0.959   1.867   2.580 -0.3403 -0.1175  0.4774
  532SOL     OW 2125   1.740   0.301   2.781 -0.2066 -0.4577 -0.6575
  532SOL    HW1 2126   1.744   0.282   2.689 -2.2950 -1.0630  0.4144
  532SOL    HW2 2127   1.812   0.357   2.798 -2.3740  0.4717 -3.1592
  532SOL     MW 2128   1.750   0.306   2.771 -0.7681 -0.4150 -0.8462
  533SOL     OW 2129   1.820   2.684   3.045  0.1064 -0.1281  0.4241
  533SOL    HW1 2130   1.787   2.596   3.044  1.3534  2.1895  0.9777
  533SOL    HW2 2131   1.756   2.747   3.007  0.7189 -1.2565  1.3230
  533SOL     MW 2132   1.807   2.680   3.040  0.3517  0.0288  0.6157
  534SOL     OW 2133   1.747   2.409   2.487 -0.4257 -0.3588 -0.1144
  534SOL    HW1 2134   1.688   2.340   2.528 -1.5364 -0.6505  0.7499
  534SOL    HW2 2135   1.797   2.453   2.558  1.9446  0.4949  1.2445
  534SOL     MW 2136   1.745   2.406   2.502 -0.2595 -0.2846  0.1789
  535SOL     OW 2137   1.890   2.395   1.901 -0.3769  0.2291  0.2989
  535SOL    HW1 2138   1.840   2.407   1.813 -2.7885  0.8395 -1.5277
  535SOL    HW2 2139   1.985   2.403   1.881 -0.1554 -1.3037 -0.3898
  535SOL     MW 2140   1.896   2.397   1.887 -0.6658  0.1074 -0.0330
  536SOL     OW 2141   0.583   1.817   2.057 -0.4982  0.0943  0.5454
  536SOL    HW1 2142   0.516   1.780   1.998  0.1409  1.4635 -1.1046
  536SOL    HW2 2143   0.605   1.901   2.011  1.2371  2.3535 -0.3717
  536SOL     MW 2144   0.577   1.824   2.043 -0.1849  0.5731  0.2067
  537SOL     OW 2145   1.086   0.184   2.769 -0.0261  0.5927 -0.1689
  537SOL    HW1 2146   1.096   0.224   2.851 -0.4154  0.7324  0.4499
  537SOL    HW2 2147   1.063   0.253   2.705  1.4296  0.9180 -2.0019
  537SOL     MW 2148   1.084   0.198   2.771  0.1146  0.6540 -0.3291
  538SOL     OW 2149   1.469   0.058   0.012 -0.0450  0.2166  0.8165
  538SOL    HW1 2150   1.455   0.150   0.039 -1.2070  1.3555  0.0683
  538SOL    HW2 2151   1.379   0.020   0.004  2.8458 -2.1362  3.1659
  538SOL     MW 2152   1.456   0.065   0.014  0.1831  0.0565  1.0278
  539SOL     OW 2153   0.704   2.803   2.578 -0.2393 -0.3083 -0.1751
  539SOL    HW1 2154   0.779   2.861   2.599  0.2128  2.1629 -2.0922
  539SOL    HW2 2155   0.730   2.736   2.642  0.7356  1.4236 -0.1772
  539SOL     MW 2156   0.717   2.802   2.589 -0.0510  0.2463 -0.4283
  540SOL     OW 2157   0.271   2.466   2.893 -0.7383 -0.8330  0.0928
  540SOL    HW1 2158   0.289   2.519   2.970 -4.4158  0.6255 -0.5211
  540SOL    HW2 2159   0.236   2.378   2.923 -0.9119  1.4427 -0.9959
  540SOL     MW 2160   0.269   2.462   2.907 -1.2464 -0.3403 -0.1318
  541SOL     OW 2161   0.204   2.929   2.139  0.4935  0.8282 -0.6855
  541SOL    HW1 2162   0.184   2.839   2.107  1.5932 -0.2080 -1.0056
  541SOL    HW2 2163   0.244   2.909   2.223 -2.0511 -0.6339  0.8066
  541SOL     MW 2164   0.207   2.914   2.146  0.3028  0.4985 -0.5309
  542SOL     OW 2165   0.994   2.257   2.678 -0.4428 -0.1813 -0.0496
  542SOL    HW1 2166   0.927   2.229   2.740 -0.1786  0.5529  1.1832
  542SOL    HW2 2167   1.064   2.308   2.729  0.3087  0.0528  0.3938
  542SOL     MW 2168   0.995   2.260   2.693 -0.3088 -0.0536  0.1715
  543SOL     OW 2169   1.644   2.447   2.835 -0.1224  0.2899 -1.0946
  543SOL    HW1 2170   1.667   2.356   2.812  1.3215  2.4463  0.4601
  543SOL    HW2 2171   1.688   2.517   2.777  2.2179  0.1084 -0.8009
  543SOL     MW 2172   1.653   2.444   2.825  0.3768  0.5505 -0.8507
  544SOL     OW 2173   0.775   0.171   2.718 -0.5839  0.9377 -0.3375
  544SOL    HW1 2174   0.679   0.176   2.700 -1.1013 -1.3471 -1.4498
  544SOL    HW2 2175   0.816   0.156   2.629 -0.1831  1.9578 -1.0477
  544SOL     MW 2176   0.768   0.170   2.704 -0.5993  0.7708 -0.5779
  545SOL     OW 2177   1.460   2.121   2.312  0.3536 -0.1663 -0.0775
  545SOL    HW1 2178   1.428   2.131   2.221 -0.0439 -0.5831 -0.5268
  545SOL    HW2 2179   1.559   2.092   2.300  1.3695 -1.8661  0.5691
  545SOL     MW 2180   1.469   2.119   2.299  0.4352 -0.4455 -0.0515
  546SOL     OW 2181   2.888   1.994   0.099 -0.3870 -0.0952 -0.3401
  546SOL    HW1 2182   2.906   2.080   0.060 -0.2642 -1.7231  0.0354
  546SOL    HW2 2183   2.976   1.952   0.127 -1.5135  0.8692 -1.6578
  546SOL     MW 2184   2.902   2.000   0.098 -0.5194 -0.1827 -0.4644
  547SOL     OW 2185   0.221   0.048   0.103  0.0710 -0.0741 -0.2369
  547SOL    HW1 2186   0.308   0.032   0.064  2.6950 -0.1661 -2.3745
  547SOL    HW2 2187   0.161   0.047   0.033 -0.7693 -0.6168  1.1792
  547SOL     MW 2188   0.225   0.046   0.089  0.3064 -0.1578 -0.3321
  548SOL     OW 2189   0.305   2.422   0.226  0.1089 -0.0331 -0.2744
  548SOL    HW1 2190   0.313   2.489   0.156 -0.0741 -1.1400  1.3618
  548SOL    HW2 2191   0.222   2.365   0.199 -1.4409 -0.6345 -2.0367
  548SOL     MW 2192   0.295   2.423   0.213 -0.1197 -0.2585 -0.2911
  549SOL     OW 2193   0.868   1.949   2.146  0.6525 -0.1948 -0.1953
  549SOL    HW1 2194   0.831   2.016   2.084  0.0964  0.9998 -0.1596
  549SOL    HW2 2195   0.792   1.945   2.213 -1.2860  1.8272  0.6347
  549SOL     MW 2196   0.853   1.958   2.146  0.3234  0.2296 -0.0811
  550SOL     OW 2197   1.884   1.765   2.537  0.1874  0.2376 -0.2305
  550SOL    HW1 2198   1.829   1.787   2.456  0.3001  0.2034 -0.5394
  550SOL    HW2 2199   1.835   1.811   2.608 -0.3629  0.9198 -0.9366
  550SOL     MW 2200   1.870   1.774   2.535  0.1296  0.3231 -0.3644
  551SOL     OW 2201   0.860   2.215   0.264 -0.0446 -0.3370 -0.1017
  551SOL    HW1 2202   0.957   2.219   0.278  1.5160  1.4953  0.2032
  551SOL    HW2 2203   0.836   2.185   0.180 -1.0023  2.4751  4.3359
  551SOL     MW 2204   0.870   2.212   0.255  0.0349  0.2758  0.5240
  552SOL     OW 2205   1.761   1.779   2.274  0.3129  0.0265  0.7061
  552SOL    HW1 2206   1.673   1.740   2.259 -4.6763  3.5101  1.0790
  552SOL    HW2 2207   1.821   1.723   2.209  1.4994 -0.4909 -1.5522
  552SOL     MW 2208   1.757   1.766   2.264 -0.1888  0.4179  0.4573
  553SOL     OW 2209   1.188   2.295   1.535  0.1095  0.6897  0.0706
  553SOL    HW1 2210   1.233   2.208   1.559  0.7934 -1.3811  1.0002
  553SOL    HW2 2211   1.264   2.355   1.512  1.4178  0.8609 -0.2396
  553SOL     MW 2212   1.204   2.291   1.535  0.3723  0.4391  0.1523
  554SOL     OW 2213   0.466   2.913   2.690  0.1358  0.0899  0.2505
  554SOL    HW1 2214   0.428   2.993   2.645 -2.9859 -1.1558 -1.3781
  554SOL    HW2 2215   0.545   2.894   2.641 -0.8845 -0.1537 -0.1982
  554SOL     MW 2216   0.471   2.921   2.678 -0.4107 -0.1066 -0.0236
  555SOL     OW 2217   0.608   2.454   2.568  0.1399  0.4432 -0.1149
  555SOL    HW1 2218   0.595   2.368   2.606  0.6469 -0.5733 -2.6818
  555SOL    HW2 2219   0.704   2.448   2.543 -0.9289 -1.3512  1.4856
  555SOL     MW 2220   0.619   2.442   2.570  0.0658  0.0723 -0.2424
  556SOL     OW 2221   1.035   1.925   0.064 -0.2152  0.1287 -0.4622
  556SOL    HW1 2222   1.047   1.874  -0.011 -0.4203 -0.8803  1.4464
  556SOL    HW2 2223   1.116   1.914   0.114 -2.7862 -1.4753  0.0613
  556SOL     MW 2224   1.047   1.917   0.061 -0.5814 -0.2161 -0.1413
  557SOL     OW 2225   1.031   2.714   0.464 -0.4535 -0.1610  0.3755
  557SOL    HW1 2226   1.058   2.642   0.396  2.3108 -2.1712  1.8249
  557SOL    HW2 2227   0.966   2.776   0.423  2.1329  2.0958  0.8774
  557SOL     MW 2228   1.026   2.713   0.450  0.2525 -0.1285  0.6330
  558SOL     OW 2229   0.174   2.251   3.019 -0.1288  0.3979 -0.2428
  558SOL    HW1 2230   0.105   2.215   2.968 -0.2278 -0.6766  1.0156
  558SOL    HW2 2231   0.138   2.305   3.093 -1.4002 -1.8082  0.8224
  558SOL     MW 2232   0.160   2.253   3.022 -0.3096 -0.0349  0.0638
  559SOL     OW 2233   1.029   2.365   2.124  0.1464 -0.7612 -0.1627
  559SOL    HW1 2234   1.125   2.387   2.135  0.7414  0.1584 -1.4883
  559SOL    HW2 2235   1.006   2.305   2.196  0.3099  0.1879  0.9072
  559SOL     MW 2236   1.039   2.360   2.135  0.2465 -0.5147 -0.1964
  560SOL     OW 2237   2.033   2.717   0.141  0.9388 -0.5770 -0.2291
  560SOL    HW1 2238   2.084   2.767   0.079  0.6251 -1.6122  0.9345
  560SOL    HW2 2239   1.962   2.684   0.087  0.3458 -1.7860 -0.4366
  560SOL     MW 2240   2.031   2.719   0.125  0.8192 -0.8731 -0.1029
  561SOL     OW 2241   0.469   2.126   0.109  0.4242 -0.0853  0.1033
  561SOL    HW1 2242   0.457   2.170   0.028  2.6155 -1.8491  0.7713
  561SOL    HW2 2243   0.517   2.200   0.156  0.0710  1.3203 -0.1112
  561SOL     MW 2244   0.474   2.141   0.105  0.6667 -0.1326  0.1631
  562SOL     OW 2245   0.678   2.191   2.309 -0.0477  0.2793  0.4243
  562SOL    HW1 2246   0.663   2.266   2.258  0.6956  1.6661 -1.0251
  562SOL    HW2 2247   0.775   2.203   2.329  0.7780  1.5420  0.3723
  562SOL     MW 2248   0.689   2.202   2.305  0.1593  0.6288  0.2262
  563SOL     OW 2249   1.226   0.405   0.556  0.2821 -0.3293  0.2706
  563SOL    HW1 2250   1.148   0.360   0.515 -0.5431  1.0002  1.9038
  563SOL    HW2 2251   1.204   0.383   0.659 -3.6612 -0.1354 -0.6995
  563SOL     MW 2252   1.213   0.396   0.564 -0.3470 -0.1283  0.3581
  564SOL     OW 2253   1.045   2.621   2.374 -0.0323  0.4275 -0.1017
  564SOL    HW1 2254   1.062   2.691   2.312 -0.7052 -2.2518  1.7552
  564SOL    HW2 2255   1.068   2.663   2.462  1.4099  1.7098  0.9911
  564SOL     MW 2256   1.050   2.636   2.377  0.0692  0.2432  0.2875
  565SOL     OW 2257   2.768   2.836   2.558 -0.1276  0.0734 -0.2254
  565SOL    HW1 2258   2.763   2.915   2.505  1.1777 -0.0515 -0.8381
  565SOL    HW2 2259   2.752   2.772   2.491  0.7607  0.9772 -1.9321
  565SOL     MW 2260   2.765   2.838   2.542  0.1618  0.1761 -0.5315
  566SOL     OW 2261   2.187   1.948   2.320 -0.2042  0.3355  0.5932
  566SOL    HW1 2262   2.183   1.921   2.226 -0.3296 -0.0142 -1.4289
  566SOL    HW2 2263   2.269   2.004   2.329  2.5639 -1.3000  0.8460
  566SOL     MW 2264   2.197   1.952   2.308  0.1445  0.0736  0.3598
  567SOL     OW 2265   1.215   3.028   0.005  0.0144  0.0073  0.3779
  567SOL    HW1 2266   1.177   3.026   0.097 -0.4854  1.6585  1.5453
  567SOL    HW2 2267   1.246   2.940  -0.014  1.1414 -1.1074 -0.6773
  567SOL     MW 2268   1.214   3.016   0.014  0.0972  0.0781  0.3927
  568SOL     OW 2269   1.668   2.082   2.879  0.2603 -0.8283  0.4189
  568SOL    HW1 2270   1.718   2.120   2.955  0.0825  2.7031  0.6491
  568SOL    HW2 2271   1.722   2.014   2.833 -2.4131 -0.0217 -1.5181
  568SOL     MW 2272   1.682   2.078   2.883 -0.1159 -0.2559  0.1937
  569SOL     OW 2273   0.106   2.293   2.470  0.2932  0.0270  0.2004
  569SOL    HW1 2274   0.097   2.333   2.381 -3.0497  1.6394  0.2881
  569SOL    HW2 2275   0.157   2.367   2.509 -0.8214  0.7344 -1.0816
  569SOL     MW 2276   0.112   2.308   2.463 -0.2949  0.3331  0.0428
  570SOL     OW 2277   1.514   0.322   0.525  0.5638 -0.1544 -0.3739
  570SOL    HW1 2278   1.426   0.348   0.551  0.6069  1.9640  1.1824
  570SOL    HW2 2279   1.568   0.346   0.599 -0.9511 -0.0686 -0.9978
  570SOL     MW 2280   1.509   0.329   0.538  0.3696  0.1364 -0.2509
  571SOL     OW 2281   1.347   2.364   2.128  0.0889  0.1175 -0.1123
  571SOL    HW1 2282   1.382   2.382   2.213 -0.0442  0.1096  1.0714
  571SOL    HW2 2283   1.414   2.318   2.085  0.2463  1.8569  0.6398
  571SOL     MW 2284   1.361   2.360   2.133  0.0921  0.3460  0.1431
  572SOL     OW 2285   1.034   2.571   0.072  0.4052  0.1334 -0.4609
  572SOL    HW1 2286   1.014   2.665   0.049 -1.7251  4.5338 -0.1522
  572SOL    HW2 2287   0.939   2.539   0.083 -0.4249  1.5969 -0.6495
  572SOL     MW 2288   1.019   2.579   0.070  0.0146  0.9071 -0.4451
  573SOL     OW 2289   1.161   2.262   0.223 -0.3549 -0.5607 -0.5356
  573SOL    HW1 2290   1.244   2.248   0.171  0.1853 -2.4557 -0.7568
  573SOL    HW2 2291   1.166   2.350   0.259  2.5931 -1.4759  1.6528
  573SOL     MW 2292   1.173   2.272   0.220  0.1053 -0.9315 -0.2760
  574SOL     OW 2293   1.133   2.532   0.314 -0.4454 -0.3507  0.4847
  574SOL    HW1 2294   1.211   2.580   0.328 -0.4007  1.2442 -2.5157
  574SOL    HW2 2295   1.095   2.539   0.222 -1.5444  1.0508  4.0755
  574SOL     MW 2296   1.139   2.539   0.304 -0.5845  0.0446  0.5626
  575SOL     OW 2297   3.062   2.203   1.652  0.3081 -0.1886 -0.4046
  575SOL    HW1 2298   3.071   2.109   1.634  0.0361  0.4381  0.8122
  575SOL    HW2 2299   3.137   2.237   1.704  0.3547 -3.2875 -1.7609
  575SOL     MW 2300   3.073   2.195   1.657  0.2784 -0.5148 -0.4230
  576SOL     OW 2301   2.840   1.870   1.992  0.6430  0.7124 -0.2453
  576SOL    HW1 2302   2.853   1.956   1.939 -0.1493  0.9356 -0.6214
  576SOL    HW2 2303   2.752   1.839   1.965 -2.1964  0.8930 -1.7333
  576SOL     MW 2304   2.830   1.877   1.982  0.1638  0.7657 -0.4912
  577SOL     OW 2305   2.127   0.233   0.019  0.1575 -0.0504 -0.2644
  577SOL    HW1 2306   2.067   0.214  -0.053  2.1716 -1.0036  2.5131
  577SOL    HW2 2307   2.093   0.172   0.087 -3.1333 -1.2536 -0.4829
  577SOL     MW 2308   2.115   0.222   0.018 -0.0110 -0.3349  0.0732
  578SOL     OW 2309   1.977   2.111   2.402 -0.5001  0.0454 -0.4692
  578SOL    HW1 2310   1.889   2.077   2.386  0.4349 -2.4838 -0.3097
  578SOL    HW2 2311   2.042   2.048   2.366 -2.7730  0.0861 -1.9523
  578SOL     MW 2312   1.974   2.098   2.395 -0.6766 -0.2830 -0.6438
  579SOL     OW 2313   0.857   2.435   2.499 -0.7720  0.1556  0.0013
  579SOL    HW1 2314   0.916   2.384   2.562 -1.3207  0.0130  0.2035
  579SOL    HW2 2315   0.929   2.482   2.451 -1.2725  3.1304 -2.1302
  579SOL     MW 2316   0.874   2.434   2.501 -0.9105  0.5293 -0.2532
  580SOL     OW 2317   0.957   2.822   3.104 -0.0580 -0.2883  0.3276
  580SOL    HW1 2318   1.045   2.845   3.077 -1.3917 -0.4392 -1.5059
  580SOL    HW2 2319   0.924   2.787   3.021  0.8316 -0.6004  0.9061
  580SOL     MW 2320   0.964   2.820   3.089 -0.1166 -0.3494  0.1620
  581SOL     OW 2321   1.139   2.412   1.786 -0.3896 -0.2952  0.5800
  581SOL    HW1 2322   1.215   2.458   1.819 -2.1704 -1.9652 -0.3479
  581SOL    HW2 2323   1.165   2.357   1.705 -0.6361 -0.9248 -2.4758
  581SOL     MW 2324   1.153   2.411   1.780 -0.6571 -0.5986  0.0544
  582SOL     OW 2325   0.005   2.872   2.711 -0.4129  0.3057 -0.6351
  582SOL    HW1 2326  -0.080   2.927   2.718  0.0572  0.6822  2.9196
  582SOL    HW2 2327   0.073   2.933   2.737 -0.9187 -0.1188  1.6404
  582SOL     MW 2328   0.003   2.887   2.716 -0.4176  0.2994  0.1341
  583SOL     OW 2329   1.981   2.426   2.667 -0.3209 -0.6001 -0.9383
  583SOL    HW1 2330   2.070   2.439   2.630  2.6269  0.1535 -1.5593
  583SOL    HW2 2331   1.969   2.334   2.679 -2.6457  0.8818  1.4071
  583SOL     MW 2332   1.991   2.416   2.664 -0.2387 -0.3051 -0.7108
  584SOL     OW 2333   0.127   1.908   2.208  0.6161  0.2593  0.4790
  584SOL    HW1 2334   0.129   1.860   2.295  0.4728  2.1105 -0.5008
  584SOL    HW2 2335   0.185   1.984   2.228 -0.2737 -0.3383 -3.1308
  584SOL     MW 2336   0.135   1.912   2.222  0.4798  0.4247 -0.1266
  585SOL     OW 2337   1.549   2.663   0.137  0.0366  0.5744  0.0232
  585SOL    HW1 2338   1.512   2.632   0.053  1.3292  1.2800  2.1574
  585SOL    HW2 2339   1.478   2.667   0.200 -0.1374  1.8700  1.3758
  585SOL     MW 2340   1.535   2.659   0.134  0.1842  0.8384  0.4833
  586SOL     OW 2341   1.333   2.817   2.588 -0.1605  0.3371  0.0139
  586SOL    HW1 2342   1.375   2.777   2.503  2.6798 -1.1380 -1.5706
  586SOL    HW2 2343   1.321   2.912   2.569  2.5871  3.6635 -1.3560
  586SOL     MW 2344   1.337   2.824   2.575  0.5768  0.5814 -0.3759
  587SOL     OW 2345   1.358   1.490   2.160  0.0916 -0.4124 -0.0587
  587SOL    HW1 2346   1.330   1.411   2.209  1.3099 -0.3313 -2.2897
  587SOL    HW2 2347   1.355   1.477   2.062  0.0486 -0.2829  0.1542
  587SOL     MW 2348   1.354   1.478   2.153  0.2466 -0.3846 -0.3250
  588SOL     OW 2349   1.377   1.985   2.635 -0.3890  0.1580  0.3434
  588SOL    HW1 2350   1.373   1.893   2.655  2.7579  2.3537 -1.1834
  588SOL    HW2 2351   1.386   2.025   2.721  0.0973 -1.4920  1.1603
  588SOL     MW 2352   1.378   1.978   2.649  0.0904  0.2300  0.2497
  589SOL     OW 2353   1.425   2.007   0.075 -0.5562  0.7148  0.2439
  589SOL    HW1 2354   1.439   2.100   0.097  0.8670 -0.4999 -1.4564
  589SOL    HW2 2355   1.363   1.970   0.136  1.9924  0.9859 -0.0331
  589SOL     MW 2356   1.419   2.014   0.086 -0.0321  0.5903 -0.0170
  590SOL     OW 2357   0.520   2.664   2.170  0.1144  0.0167  0.3669
  590SOL    HW1 2358   0.498   2.676   2.075  1.8750 -0.9833  0.5204
  590SOL    HW2 2359   0.597   2.721   2.180  3.8102 -2.5484  3.5926
  590SOL     MW 2360   0.527   2.673   2.159  0.8343 -0.4537  0.8127
  591SOL     OW 2361   2.240   0.681   0.106 -0.2636  0.4191  0.0707
  591SOL    HW1 2362   2.171   0.704   0.160  1.6337  1.7201 -2.4080
  591SOL    HW2 2363   2.243   0.752   0.039 -0.7582  1.4007 -1.4705
  591SOL     MW 2364   2.231   0.694   0.104 -0.0785  0.7202 -0.4597
  592SOL     OW 2365   1.690   2.976   0.820 -0.1002 -0.1436  0.3214
  592SOL    HW1 2366   1.692   3.058   0.766 -1.1992  0.4166 -0.0296
  592SOL    HW2 2367   1.768   2.923   0.794  1.3779  0.5119  1.4767
  592SOL     MW 2368   1.701   2.980   0.809 -0.0502  0.0168  0.4275
  593SOL     OW 2369   1.981   0.706   0.777 -0.5247 -0.4638  0.0865
  593SOL    HW1 2370   1.908   0.706   0.710 -2.1349  0.6945  1.9523
  593SOL    HW2 2371   2.045   0.638   0.755  0.0441 -0.3305  0.8823
  593SOL     MW 2372   1.980   0.697   0.765 -0.6621 -0.2934  0.4377
  594SOL     OW 2373   2.709   1.033   1.396  0.0068 -0.1155 -0.0827
  594SOL    HW1 2374   2.793   1.058   1.355  4.0072 -3.6143  0.5898
  594SOL    HW2 2375   2.644   1.065   1.337  0.3238 -1.6173  1.6959
  594SOL     MW 2376   2.712   1.040   1.383  0.5764 -0.7753  0.2407
  595SOL     OW 2377   0.491   0.908   0.855  0.0010  0.0440 -0.2004
  595SOL    HW1 2378   0.485   0.960   0.777  0.1594 -1.6701  0.8585
  595SOL    HW2 2379   0.463   0.974   0.925 -0.4529 -1.7068 -0.8881
  595SOL     MW 2380   0.487   0.924   0.854 -0.0380 -0.4132 -0.1515
  596SOL     OW 2381   2.458   1.344   0.512 -0.0991 -0.0792 -0.9955
  596SOL    HW1 2382   2.513   1.415   0.483 -0.6603  1.5270  1.9066
  596SOL    HW2 2383   2.512   1.307   0.583 -0.7007  0.2921 -0.4300
  596SOL     MW 2384   2.472   1.349   0.518 -0.2526  0.1817 -0.5380
  597SOL     OW 2385   2.201   0.628   1.555 -0.5028 -0.4742 -0.2846
  597SOL    HW1 2386   2.227   0.559   1.618  1.9592  1.4248 -2.0249
  597SOL    HW2 2387   2.127   0.582   1.496 -2.1340  1.4749 -1.3215
  597SOL     MW 2388   2.195   0.613   1.555 -0.3931  0.0335 -0.6510
  598SOL     OW 2389   2.596   1.062   2.868 -0.0652 -0.2268  0.1323
  598SOL    HW1 2390   2.580   0.971   2.849 -0.0691 -0.2903  2.7469
  598SOL    HW2 2391   2.695   1.074   2.860  0.0096  3.1356  2.0894
  598SOL     MW 2392   2.607   1.051   2.865 -0.0559  0.2085  0.7355
  599SOL     OW 2393   3.070   0.404   2.249  0.4202 -0.3149  0.4675
  599SOL    HW1 2394   3.072   0.430   2.338  0.9529 -0.0678  4.1778
  599SOL    HW2 2395   3.091   0.478   2.191  0.2553 -2.4135  0.5868
  599SOL     MW 2396   3.073   0.417   2.253  0.4687 -0.5592  0.9728
  600SOL     OW 2397   1.847   1.673   0.836  0.0850  0.5095 -0.3727
  600SOL    HW1 2398   1.898   1.720   0.901 -2.8668  0.6419 -0.8814
  600SOL    HW2 2399   1.804   1.745   0.792  0.1714 -0.0228  0.2160
  600SOL     MW 2400   1.848   1.689   0.839 -0.2930  0.4567 -0.3622
  601SOL     OW 2401   2.548   0.719   0.814  0.0749  0.0758  0.0649
  601SOL    HW1 2402   2.541   0.693   0.907  0.2760 -1.6687 -1.7513
  601SOL    HW2 2403   2.477   0.672   0.759  1.0659 -0.0075 -0.3646
  601SOL     MW 2404   2.538   0.709   0.819  0.2322 -0.1653 -0.2314
  602SOL     OW 2405   2.291   1.894   0.744  0.0522  0.0132  0.0632
  602SOL    HW1 2406   2.227   1.816   0.716 -2.1060 -0.2550  2.2328
  602SOL    HW2 2407   2.235   1.977   0.739  0.0950 -0.5576  2.2744
  602SOL     MW 2408   2.275   1.895   0.740 -0.2269 -0.0975  0.6412
  603SOL     OW 2409   2.960   1.382   1.980 -0.3375  0.4678 -0.3152
  603SOL    HW1 2410   2.962   1.389   2.077  1.4078 -2.1055 -1.1730
  603SOL    HW2 2411   2.996   1.287   1.977  3.3204 -0.5003  0.4865
  603SOL     MW 2412   2.965   1.371   1.993  0.3754  0.0005 -0.3226
  604SOL     OW 2413   2.020   1.394   0.390 -0.5639  0.0459 -0.9357
  604SOL    HW1 2414   2.077   1.338   0.447  2.8300  0.7832 -1.1599
  604SOL    HW2 2415   1.963   1.442   0.451 -0.5095  1.5063 -1.1732
  604SOL     MW 2416   2.020   1.393   0.406 -0.1089  0.3358 -0.9966
  605SOL     OW 2417   2.416   1.463   0.845 -0.3037 -0.1536 -0.4289
  605SOL    HW1 2418   2.465   1.525   0.788 -1.6526 -1.0431 -2.0984
  605SOL    HW2 2419   2.444   1.373   0.818  0.3512 -0.4251  0.5490
  605SOL     MW 2420   2.426   1.459   0.834 -0.3952 -0.3068 -0.5201
  606SOL     OW 2421   2.622   1.793   1.840  0.5588 -0.1541 -0.8545
  606SOL    HW1 2422   2.526   1.778   1.844  0.1639  2.0485  1.6396
  606SOL    HW2 2423   2.661   1.712   1.810  0.4043 -5.0250 -0.6095
  606SOL     MW 2424   2.615   1.780   1.836  0.4863 -0.5061 -0.4931
  607SOL     OW 2425   2.387   1.009   3.063 -0.4306  0.2566 -0.1123
  607SOL    HW1 2426   2.468   1.038   3.018 -0.8132 -2.3794 -1.7062
  607SOL    HW2 2427   2.401   1.005   3.158  0.3689 -3.8831  1.1620
  607SOL     MW 2428   2.399   1.013   3.070 -0.3756 -0.6374 -0.1545
  608SOL     OW 2429   1.861   0.206   0.528 -0.5124  0.1639 -0.5373
  608SOL    HW1 2430   1.857   0.228   0.439  1.5825 -0.0697 -0.5309
  608SOL    HW2 2431   1.789   0.132   0.532 -2.8365  1.0299  0.9541
  608SOL     MW 2432   1.851   0.199   0.517 -0.5426  0.2474 -0.3397
  609SOL     OW 2433   2.132   1.891   3.084  0.1437  0.0052 -0.0142
  609SOL    HW1 2434   2.088   1.814   3.042 -0.8003  0.6886 -1.1317
  609SOL    HW2 2435   2.116   1.888   3.177  1.7635  1.3941  1.0871
  609SOL     MW 2436   2.124   1.881   3.091  0.2328  0.2786 -0.0163
  610SOL     OW 2437   1.829   0.915   1.214  0.2944  0.1255 -0.5094
  610SOL    HW1 2438   1.817   0.841   1.156 -0.3204  3.4148 -1.2757
  610SOL    HW2 2439   1.737   0.937   1.240 -0.9264 -1.1860  0.8380
  610SOL     MW 2440   1.815   0.908   1.210  0.0522  0.3864 -0.4327
  611SOL     OW 2441   2.495   1.645   0.619 -0.0714  0.2914 -0.1812
  611SOL    HW1 2442   2.563   1.613   0.561 -1.1575  0.2150 -1.2603
  611SOL    HW2 2443   2.430   1.660   0.546 -0.3690  0.1610 -3.7117
  611SOL     MW 2444   2.495   1.642   0.602 -0.2540  0.2641 -0.7894
  612SOL     OW 2445   2.940   2.975   0.327  0.0143 -0.2197  0.5739
  612SOL    HW1 2446   2.921   2.995   0.416 -0.8966  1.3207  1.2304
  612SOL    HW2 2447   2.986   2.899   0.325  0.4849  2.8267  1.3333
  612SOL     MW 2448   2.944   2.967   0.338 -0.0438  0.3855  0.7607
  613SOL     OW 2449   1.498   1.156   1.014 -0.7194 -0.1467  0.3545
  613SOL    HW1 2450   1.505   1.250   1.039  0.4230  0.5888  0.1207
  613SOL    HW2 2451   1.530   1.097   1.079  1.3546 -0.2763 -2.9235
  613SOL     MW 2452   1.503   1.161   1.026 -0.2951 -0.0667 -0.1088
  614SOL     OW 2453   2.022   0.475   1.409  0.6110 -0.1858  0.6551
  614SOL    HW1 2454   2.008   0.408   1.481  0.6299 -3.5516  0.2995
  614SOL    HW2 2455   1.932   0.509   1.395  1.8911  1.2630  2.9799
  614SOL     MW 2456   2.008   0.470   1.417  0.7824 -0.4387  0.9149
  615SOL     OW 2457   2.401   0.704   0.314 -0.2114 -0.4568  0.0940
  615SOL    HW1 2458   2.475   0.654   0.349 -0.5024  2.2705  1.4085
  615SOL    HW2 2459   2.376   0.670   0.223  0.7532 -0.7830 -3.8764
  615SOL     MW 2460   2.407   0.693   0.306 -0.1225 -0.1400 -0.2564
  616SOL     OW 2461   2.546   0.400   1.616  0.3323  0.1676 -0.1264
  616SOL    HW1 2462   2.612   0.349   1.567  2.4304 -0.4089  1.1497
  616SOL    HW2 2463   2.505   0.464   1.557  0.6246 -1.7887  1.4697
  616SOL     MW 2464   2.549   0.402   1.601  0.6477 -0.1666  0.2526
  617SOL     OW 2465   2.896   0.544   1.858 -0.1425 -0.4435 -0.0913
  617SOL    HW1 2466   2.812   0.549   1.902 -0.8392  1.5320  0.2762
  617SOL    HW2 2467   2.899   0.456   1.829  2.4207  1.4763  2.2819
  617SOL     MW 2468   2.885   0.533   1.860  0.1038  0.0704  0.2703
  618SOL     OW 2469   2.769   0.251   2.000  0.1954 -0.2961  0.4075
  618SOL    HW1 2470   2.712   0.286   2.069  1.1027  0.4124 -2.9036
  618SOL    HW2 2471   2.848   0.219   2.046  1.8167 -2.2424  2.1735
  618SOL     MW 2472   2.772   0.251   2.015  0.5290 -0.4594  0.2036
  619SOL     OW 2473   2.706   0.729   0.096  0.6929 -0.1654  0.4999
  619SOL    HW1 2474   2.747   0.813   0.103 -0.9179 -1.1229 -0.0636
  619SOL    HW2 2475   2.756   0.679   0.157  2.1369 -0.6790  1.2472
  619SOL     MW 2476   2.718   0.733   0.105  0.6709 -0.3595  0.5241
  620SOL     OW 2477   2.215   1.055   0.920 -0.3586  0.0182  0.5568
  620SOL    HW1 2478   2.302   1.030   0.887  1.7197  0.2463  3.5065
  620SOL    HW2 2479   2.143   1.020   0.863  3.2567 -0.1128 -2.9432
  620SOL     MW 2480   2.217   1.047   0.908  0.3926  0.0310  0.4842
  621SOL     OW 2481   1.481   2.192   1.970  0.2007 -0.2274  0.6249
  621SOL    HW1 2482   1.436   2.107   1.976  1.7288 -1.3883 -0.2516
  621SOL    HW2 2483   1.570   2.184   2.009  0.7386  0.1607  2.4659
  621SOL     MW 2484   1.487   2.180   1.976  0.4733 -0.3294  0.7521
  622SOL     OW 2485   2.649   0.246   0.259 -0.1944  0.5532 -0.4767
  622SOL    HW1 2486   2.744   0.281   0.260  1.0139  1.3043 -0.0245
  622SOL    HW2 2487   2.675   0.155   0.247 -0.7285  2.4760 -1.7964
  622SOL     MW 2488   2.665   0.238   0.258 -0.1054  0.9060 -0.5912
  623SOL     OW 2489   2.400   2.751   0.865  0.0998 -0.1177 -0.5420
  623SOL    HW1 2490   2.462   2.823   0.868  1.2458  2.2069 -2.0684
  623SOL    HW2 2491   2.343   2.756   0.948  0.2781  2.2275  0.3791
  623SOL     MW 2492   2.401   2.761   0.877  0.2745  0.4985 -0.6219
  624SOL     OW 2493   2.143   1.542   3.064 -0.1418 -0.4796  0.2155
  624SOL    HW1 2494   2.095   1.461   3.034  1.2799  0.5967 -0.3278
  624SOL    HW2 2495   2.091   1.615   3.016 -1.2950  0.0948  1.6614
  624SOL     MW 2496   2.130   1.541   3.054 -0.1063 -0.2618  0.3346
  625SOL     OW 2497   2.205   1.877   1.008 -0.4281 -0.0695 -0.3873
  625SOL    HW1 2498   2.234   1.809   1.069 -2.0011 -1.2277 -2.1840
  625SOL    HW2 2499   2.236   1.852   0.920  0.4250 -1.5435 -0.3510
  625SOL     MW 2500   2.213   1.864   1.004 -0.5231 -0.4168 -0.6196
  626SOL     OW 2501   0.152   1.820   2.458  0.2715  0.0354 -0.0841
  626SOL    HW1 2502   0.101   1.757   2.503  2.9105  0.1802  1.9016
  626SOL    HW2 2503   0.117   1.905   2.472  1.2721  0.0777 -1.5787
  626SOL     MW 2504   0.141   1.823   2.465  0.7517  0.0601 -0.0193
  627SOL     OW 2505   2.548   0.851   2.556  0.4077  0.0660  0.2750
  627SOL    HW1 2506   2.486   0.912   2.589  2.0005  1.2318  1.4779
  627SOL    HW2 2507   2.503   0.811   2.481 -0.8397  1.2033  0.1001
  627SOL     MW 2508   2.534   0.854   2.551  0.4533  0.3698  0.4106
  628SOL     OW 2509   2.317   1.361   1.305  0.1860 -0.1107 -0.4157
  628SOL    HW1 2510   2.253   1.301   1.272  2.3665  2.1712 -0.5339
  628SOL    HW2 2511   2.401   1.328   1.274  0.3821  0.6009  0.1704
  628SOL     MW 2512   2.320   1.349   1.296  0.4996  0.2842 -0.3539
  629SOL     OW 2513   1.793   0.591   1.313  0.2024  0.2931 -0.1981
  629SOL    HW1 2514   1.827   0.611   1.224  1.3535 -0.0016 -0.7578
  629SOL    HW2 2515   1.704   0.557   1.289  0.9007  1.8796 -0.9291
  629SOL     MW 2516   1.786   0.589   1.298  0.4464  0.4635 -0.3684
  630SOL     OW 2517   2.433   1.890   3.044 -0.1580  0.2056 -0.2126
  630SOL    HW1 2518   2.427   1.983   3.009 -3.0987 -1.7009  0.4775
  630SOL    HW2 2519   2.340   1.874   3.060  1.2929 -0.5261 -1.5260
  630SOL     MW 2520   2.420   1.900   3.042 -0.3546 -0.1425 -0.2948
  631SOL     OW 2521   2.108   1.779   1.507 -0.2499  0.2984  0.0934
  631SOL    HW1 2522   2.108   1.715   1.577 -0.3725 -1.3311  1.2437
  631SOL    HW2 2523   2.027   1.832   1.515 -2.0502  0.3221  4.4021
  631SOL     MW 2524   2.097   1.778   1.517 -0.5036  0.0865  0.8137
  632SOL     OW 2525   0.304   1.883   1.551 -0.5696 -0.3122  0.0021
  632SOL    HW1 2526   0.217   1.916   1.552  4.1358 -1.4686 -0.4854
  632SOL    HW2 2527   0.298   1.789   1.550  1.4566  2.4092  1.7988
  632SOL     MW 2528   0.292   1.875   1.551  0.3185 -0.1057  0.1748
  633SOL     OW 2529   2.605   0.538   0.405 -0.5134 -0.1195 -0.1806
  633SOL    HW1 2530   2.666   0.535   0.481  0.9311 -0.9663 -0.7222
  633SOL    HW2 2531   2.598   0.450   0.383 -1.7028 -0.0965  1.2869
  633SOL     MW 2532   2.612   0.526   0.412 -0.4798 -0.2282 -0.0585
  634SOL     OW 2533   2.617   0.002   0.637  0.0199 -0.0639 -0.4330
  634SOL    HW1 2534   2.641   0.097   0.635 -0.4358 -0.3285  0.1488
  634SOL    HW2 2535   2.563  -0.013   0.561 -1.1916  1.8350 -0.3251
  634SOL     MW 2536   2.613   0.013   0.627 -0.2001  0.1517 -0.3420
  635SOL     OW 2537   2.624   0.053   1.873 -0.3007 -0.1064 -0.1410
  635SOL    HW1 2538   2.676   0.022   1.792 -0.9954  1.7749  1.5412
  635SOL    HW2 2539   2.680   0.120   1.912 -1.3779  0.1655 -0.8851
  635SOL     MW 2540   2.638   0.058   1.868 -0.5344  0.1777 -0.0172
  636SOL     OW 2541   2.713   1.712   0.783 -0.2885  0.3768 -0.4367
  636SOL    HW1 2542   2.651   1.736   0.713  0.6742  0.5016  0.0642
  636SOL    HW2 2543   2.711   1.776   0.856  0.0620  1.6542  0.0146
  636SOL     MW 2544   2.704   1.723   0.784 -0.1152  0.5618 -0.3111
  637SOL     OW 2545   2.861   1.510   0.666 -0.0335 -0.4353  0.2916
  637SOL    HW1 2546   2.922   1.574   0.622  0.5992 -0.3294  0.8445
  637SOL    HW2 2547   2.801   1.570   0.714 -1.7498  0.4199  1.8107
  637SOL     MW 2548   2.861   1.526   0.666 -0.1765 -0.3085  0.5650
  638SOL     OW 2549   2.789   0.526   0.614  0.2423  0.1777 -0.2129
  638SOL    HW1 2550   2.864   0.561   0.563 -2.8992  2.1579  0.9272
  638SOL    HW2 2551   2.802   0.531   0.709 -0.9772  0.9355 -0.0050
  638SOL     MW 2552   2.801   0.531   0.620 -0.3331  0.5390 -0.0351
  639SOL     OW 2553   1.703   3.081   0.540  0.7226  0.1738 -0.2203
  639SOL    HW1 2554   1.608   3.092   0.516 -0.3692  4.1043  0.3864
  639SOL    HW2 2555   1.737   2.994   0.508  0.6089 -4.4001 -0.7668
  639SOL     MW 2556   1.695   3.071   0.533  0.5635  0.0889 -0.2123
  640SOL     OW 2557   0.295   1.373   0.114 -0.4362  0.5318  0.0796
  640SOL    HW1 2558   0.342   1.396   0.028 -0.4340 -0.0265 -1.3591
  640SOL    HW2 2559   0.327   1.286   0.143  0.5760  3.3201 -0.6248
  640SOL     MW 2560   0.306   1.365   0.107 -0.3024  0.8260 -0.2032
  641SOL     OW 2561   2.198   0.329   0.404  1.3001 -0.0504 -0.2653
  641SOL    HW1 2562   2.236   0.270   0.335  2.6754  1.2719  0.7665
  641SOL    HW2 2563   2.199   0.282   0.485 -2.3662 -0.1357  1.0210
  641SOL     MW 2564   2.203   0.315   0.406  0.9978  0.1128  0.0405
  642SOL     OW 2565   0.043   0.057   0.561  0.2607 -0.1171 -0.1565
  642SOL    HW1 2566   0.040   0.142   0.500  0.0692 -1.1912  0.0286
  642SOL    HW2 2567  -0.046   0.023   0.580 -0.8434 -0.1776 -0.3367
  642SOL     MW 2568   0.031   0.064   0.555  0.0897 -0.2668 -0.1558
  643SOL     OW 2569   2.076   0.322   1.639  0.1870  0.7074 -0.5372
  643SOL    HW1 2570   2.009   0.295   1.703 -0.6838  1.3216  0.4889
  643SOL    HW2 2571   2.104   0.243   1.594  0.4020 -0.8698  0.1388
  643SOL     MW 2572   2.071   0.308   1.642  0.1005  0.5803 -0.3126
  644SOL     OW 2573   2.663   1.897   0.988 -0.8035 -0.6045 -0.3743
  644SOL    HW1 2574   2.663   1.825   1.055 -0.6339 -1.9951 -0.4928
  644SOL    HW2 2575   2.579   1.939   0.982  1.4643  3.2004  1.2075
  644SOL     MW 2576   2.652   1.893   0.996 -0.4819 -0.2860 -0.1813
  645SOL     OW 2577   2.767   0.880   0.718 -0.0134 -0.0576  0.5582
  645SOL    HW1 2578   2.833   0.860   0.784  2.0531  0.3931 -0.0200
  645SOL    HW2 2579   2.681   0.846   0.749  1.3721  2.0694 -2.4818
  645SOL     MW 2580   2.765   0.873   0.731  0.4421  0.2825  0.0808
  646SOL     OW 2581   0.177   2.243   0.853 -0.3438 -0.0133  0.2584
  646SOL    HW1 2582   0.177   2.141   0.851  1.2506 -0.3990 -1.5237
  646SOL    HW2 2583   0.128   2.272   0.776  0.3282  0.7956  0.8195
  646SOL     MW 2584   0.170   2.233   0.842 -0.0448  0.0426  0.0973
  647SOL     OW 2585   2.752   0.511   3.018  0.7215  0.4823 -0.2903
  647SOL    HW1 2586   2.689   0.439   3.033 -1.2288 -1.4115 -0.5329
  647SOL    HW2 2587   2.701   0.585   3.059 -0.9637  1.5968 -1.0681
  647SOL     MW 2588   2.737   0.511   3.025  0.2418  0.3795 -0.4249
  648SOL     OW 2589   2.253   0.663   1.126 -0.4780 -0.4706  0.2523
  648SOL    HW1 2590   2.233   0.581   1.164  0.3799  2.5164  0.0048
  648SOL    HW2 2591   2.184   0.719   1.152 -0.6138 -0.4830 -0.3622
  648SOL     MW 2592   2.241   0.660   1.134 -0.3827 -0.0781  0.1386
  649SOL     OW 2593   2.435   2.712   1.257 -0.4236  0.0134 -0.0741
  649SOL    HW1 2594   2.513   2.771   1.245 -1.6761 -0.1159 -0.2775
  649SOL    HW2 2595   2.452   2.627   1.219 -2.2115 -1.6857  4.4463
  649SOL     MW 2596   2.448   2.708   1.251 -0.8247 -0.2278  0.4955
  650SOL     OW 2597   2.779   0.226   0.578  0.1017  0.1068 -0.9508
  650SOL    HW1 2598   2.790   0.320   0.570 -1.5270 -0.1126 -0.4010
  650SOL    HW2 2599   2.866   0.196   0.600 -1.3843  1.2365  2.6425
  650SOL     MW 2600   2.792   0.234   0.580 -0.3093  0.2269 -0.4042
  651SOL     OW 2601   0.001   0.447   1.023  0.7436 -0.6042  0.5892
  651SOL    HW1 2602   0.045   0.509   0.957 -0.7458  0.6395  0.6644
  651SOL    HW2 2603  -0.067   0.508   1.049 -0.2559  1.4081  0.0121
  651SOL     MW 2604  -0.002   0.463   1.018  0.4152 -0.1746  0.5230
  652SOL     OW 2605   2.401   1.414   3.008 -0.0579 -0.1127  0.2615
  652SOL    HW1 2606   2.454   1.439   2.929  0.5883 -0.8569  0.4771
  652SOL    HW2 2607   2.328   1.477   3.012  0.6917  0.9615 -0.9408
  652SOL     MW 2608   2.399   1.426   2.998  0.1263 -0.0691  0.1313
  653SOL     OW 2609   1.845   0.331   0.275 -0.3363 -0.3500  0.1411
  653SOL    HW1 2610   1.838   0.268   0.199 -1.4062 -1.3930  0.9308
  653SOL    HW2 2611   1.938   0.355   0.277 -0.5416 -0.2682  1.3674
  653SOL     MW 2612   1.856   0.326   0.265 -0.5046 -0.4768  0.4071
  654SOL     OW 2613   2.429   0.975   0.781 -0.5668  0.4132  0.1450
  654SOL    HW1 2614   2.374   0.978   0.701  0.0183  0.0634  0.4787
  654SOL    HW2 2615   2.451   0.882   0.796  0.0837 -2.7056  3.1887
  654SOL     MW 2616   2.424   0.963   0.772 -0.4038 -0.0445  0.5906
  655SOL     OW 2617   2.906   0.923   0.378 -0.4609 -0.3982 -1.0818
  655SOL    HW1 2618   2.875   0.996   0.435  1.8902 -0.1675  1.4646
  655SOL    HW2 2619   2.880   0.843   0.426 -0.1337  0.6069 -0.7496
  655SOL     MW 2620   2.898   0.922   0.392 -0.1075 -0.2352 -0.7020
  656SOL     OW 2621   1.831   2.655   1.407  0.0808 -0.2855  0.2182
  656SOL    HW1 2622   1.824   2.742   1.369 -0.6950 -1.1247 -2.0444
  656SOL    HW2 2623   1.881   2.602   1.345 -0.8568 -1.8579 -0.8237
  656SOL     MW 2624   1.837   2.659   1.394 -0.1453 -0.6037 -0.2178
  657SOL     OW 2625   0.059   1.816   1.200 -0.0905 -0.0108 -0.5087
  657SOL    HW1 2626   0.144   1.861   1.197  0.5731  0.7715 -1.6459
  657SOL    HW2 2627   0.085   1.722   1.190 -1.4512 -0.7529 -4.6972
  657SOL     MW 2628   0.074   1.809   1.198 -0.1825 -0.0055 -1.2114
  658SOL     OW 2629   2.723   1.345   0.240 -0.5605 -0.2616 -0.0287
  658SOL    HW1 2630   2.695   1.259   0.290 -1.0343 -2.4276  0.7485
  658SOL    HW2 2631   2.733   1.405   0.310 -1.3592  1.3598 -2.0780
  658SOL     MW 2632   2.720   1.341   0.256 -0.7284 -0.3335 -0.1965
  659SOL     OW 2633   2.162   1.470   1.023 -0.4669 -0.2804  0.1369
  659SOL    HW1 2634   2.250   1.450   1.007 -1.7582  1.2014 -0.6331
  659SOL    HW2 2635   2.151   1.466   1.121  0.6057 -1.9384  0.0728
  659SOL     MW 2636   2.172   1.467   1.034 -0.4958 -0.3037  0.0269
  660SOL     OW 2637   2.095   1.538   1.659  0.2989  1.3259 -0.4347
  660SOL    HW1 2638   2.109   1.520   1.754  0.3708  3.3358  1.6116
  660SOL    HW2 2639   2.018   1.486   1.643  1.1308 -0.7435  2.2901
  660SOL     MW 2640   2.087   1.529   1.669  0.4182  1.3181  0.1948
  661SOL     OW 2641   2.420   0.980   0.258  0.0221  0.2726  0.1551
  661SOL    HW1 2642   2.498   1.026   0.302 -0.1153 -0.0258 -1.9319
  661SOL    HW2 2643   2.419   0.879   0.284  1.2457 -0.7052  2.8562
  661SOL     MW 2644   2.430   0.973   0.268  0.1654  0.1042  0.2362
  662SOL     OW 2645   2.569   2.959   0.875 -0.1809 -0.4543 -0.0215
  662SOL    HW1 2646   2.501   3.023   0.908 -1.4187 -3.0555 -0.2366
  662SOL    HW2 2647   2.603   3.014   0.797 -0.1864  0.1707 -0.1883
  662SOL     MW 2648   2.565   2.975   0.869 -0.3450 -0.7150 -0.0719
  663SOL     OW 2649   2.701   1.561   0.442  0.0221  1.0211 -0.0239
  663SOL    HW1 2650   2.720   1.646   0.412  0.7059 -0.9210 -0.1478
  663SOL    HW2 2651   2.756   1.547   0.524 -2.7644  1.4229 -1.2131
  663SOL     MW 2652   2.711   1.571   0.449 -0.2553  0.8179 -0.1972
  664SOL     OW 2653   2.525   1.475   1.512 -0.2337 -0.3702 -0.4162
  664SOL    HW1 2654   2.520   1.569   1.500 -2.4000 -0.6715  0.0729
  664SOL    HW2 2655   2.429   1.461   1.532 -0.0140  0.8369 -0.7381
  664SOL     MW 2656   2.511   1.486   1.513 -0.4905 -0.2507 -0.3941
  665SOL     OW 2657   2.858   0.828   2.116  0.2604  0.3654  0.2312
  665SOL    HW1 2658   2.838   0.892   2.045 -2.1821 -0.1947 -0.0459
  665SOL    HW2 2659   2.931   0.774   2.087 -1.2580 -1.3453  0.4359
  665SOL     MW 2660   2.865   0.829   2.103 -0.2622  0.0658  0.2217
  666SOL     OW 2661   2.767   3.020   1.691  0.4804 -0.0281  0.5154
  666SOL    HW1 2662   2.800   3.015   1.602  0.0639 -1.5013  1.1107
  666SOL    HW2 2663   2.703   2.948   1.692 -1.3539  1.2585  0.0751
  666SOL     MW 2664   2.763   3.010   1.680  0.1834 -0.0527  0.5359
  667SOL     OW 2665   1.979   2.727   1.732  0.4329  0.2591  0.2342
  667SOL    HW1 2666   2.008   2.675   1.807 -0.6723  2.0507  1.4779
  667SOL    HW2 2667   2.053   2.779   1.703  0.6864 -2.0954  0.7111
  667SOL     MW 2668   1.992   2.727   1.738  0.3205  0.1849  0.4612
  668SOL     OW 2669   2.784   0.560   0.895 -0.1699 -0.3355 -0.5840
  668SOL    HW1 2670   2.835   0.603   0.976 -0.1516  0.4637  1.7555
  668SOL    HW2 2671   2.712   0.614   0.878  0.3153 -2.0681  1.8626
  668SOL     MW 2672   2.781   0.573   0.904 -0.1035 -0.4587  0.0475
  669SOL     OW 2673   0.215   0.998   0.725 -0.1009 -0.0171 -0.1545
  669SOL    HW1 2674   0.161   1.060   0.773  2.7326  0.6770 -1.9178
  669SOL    HW2 2675   0.297   1.053   0.719 -2.5893  1.5876  0.3206
  669SOL     MW 2676   0.219   1.014   0.731 -0.0554  0.2862 -0.3245
  670SOL     OW 2677   2.902   0.337   0.238 -0.4129 -0.2399  0.8657
  670SOL    HW1 2678   2.918   0.296   0.150 -0.5657  0.0218 -0.4905
  670SOL    HW2 2679   2.906   0.427   0.218  1.9798 -1.2561 -0.3096
  670SOL     MW 2680   2.905   0.343   0.223 -0.1173 -0.3395  0.5317
  671SOL     OW 2681   1.998   3.024   1.529  0.2340  0.4527 -0.0165
  671SOL    HW1 2682   1.935   2.979   1.471 -1.4397  0.2173  0.5015
  671SOL    HW2 2683   1.947   3.054   1.609 -2.1510 -1.0775 -1.6944
  671SOL     MW 2684   1.983   3.022   1.532 -0.3015  0.2197 -0.1696
  672SOL     OW 2685   1.843   1.738   1.309  0.9014  0.3107  0.4740
  672SOL    HW1 2686   1.857   1.805   1.382  1.5948  0.1108 -2.3914
  672SOL    HW2 2687   1.872   1.789   1.227  0.8744 -0.6410  0.6448
  672SOL     MW 2688   1.849   1.753   1.308  0.9894  0.1587  0.1185
  673SOL     OW 2689   2.787   1.084   0.574  0.0395 -0.3544  0.3877
  673SOL    HW1 2690   2.779   0.994   0.625  1.2208  2.1798  1.6241
  673SOL    HW2 2691   2.873   1.118   0.599  1.3775 -1.5936  1.1301
  673SOL     MW 2692   2.797   1.077   0.584  0.3719 -0.1836  0.6488
  674SOL     OW 2693   2.503   3.089   1.245 -0.5843  0.0937  0.6720
  674SOL    HW1 2694   2.472   3.096   1.159  0.7549 -0.5931 -0.4808
  674SOL    HW2 2695   2.545   3.003   1.247 -2.1898 -0.3874  1.2349
  674SOL     MW 2696   2.505   3.079   1.234 -0.6195 -0.0604  0.5942
  675SOL     OW 2697   3.021   0.900   1.099  0.7023  0.0645  0.8392
  675SOL    HW1 2698   3.081   0.919   1.176  1.4361 -2.4699  1.5072
  675SOL    HW2 2699   3.048   0.954   1.022 -1.0984 -0.3694 -3.5966
  675SOL     MW 2700   3.032   0.910   1.099  0.5615 -0.3271  0.3421
  676SOL     OW 2701   2.903   1.467   1.702 -0.1897 -0.0302 -0.4432
  676SOL    HW1 2702   2.873   1.379   1.680  0.5788  0.7676  2.4487
  676SOL    HW2 2703   2.931   1.451   1.802 -1.8738 -1.8683  2.8572
  676SOL     MW 2704   2.903   1.453   1.713 -0.3105 -0.1675  0.3738
  677SOL     OW 2705   2.426   0.568   1.980  0.6990  0.5057 -0.5853
  677SOL    HW1 2706   2.377   0.522   1.904 -0.6203 -4.1937 -0.8866
  677SOL    HW2 2707   2.396   0.659   1.970 -2.0170 -2.1362  1.2216
  677SOL     MW 2708   2.415   0.574   1.969  0.1666 -0.4629 -0.3866
  678SOL     OW 2709   2.384   1.631   0.312  0.4735 -0.2919  0.5389
  678SOL    HW1 2710   2.295   1.653   0.336  0.6591 -2.4623 -0.6535
  678SOL    HW2 2711   2.380   1.562   0.244  0.2278  2.7432 -0.7741
  678SOL     MW 2712   2.372   1.625   0.306  0.4656 -0.1778  0.2083
  679SOL     OW 2713   2.266   0.423   1.261 -0.1265 -0.0089 -0.0551
  679SOL    HW1 2714   2.223   0.348   1.221  0.9499 -0.1551  1.5276
  679SOL    HW2 2715   2.207   0.435   1.334  4.5899 -1.1705  0.2011
  679SOL     MW 2716   2.253   0.414   1.265  0.6378 -0.1814  0.1875
  680SOL     OW 2717   2.424   0.104   1.501  0.8743  0.0522  0.0689
  680SOL    HW1 2718   2.324   0.109   1.503 -2.6305 -3.7248  3.4196
  680SOL    HW2 2719   2.435   0.081   1.410 -2.4295  1.8022  2.1397
  680SOL     MW 2720   2.412   0.101   1.489 -0.0240 -0.2152  0.7842
  681SOL     OW 2721   0.256   0.603   1.486 -0.1868  0.5861 -0.1438
  681SOL    HW1 2722   0.262   0.539   1.560 -2.5673 -1.0485 -4.1740
  681SOL    HW2 2723   0.224   0.546   1.411  0.8358  0.0359 -2.4534
  681SOL     MW 2724   0.253   0.587   1.486 -0.3660  0.2979 -0.9802
  682SOL     OW 2725   0.082   2.870   1.541  0.4361 -1.1129  0.1908
  682SOL    HW1 2726   0.127   2.950   1.536 -1.3543  0.8805 -1.3713
  682SOL    HW2 2727   0.011   2.898   1.594  0.5171 -3.6564 -0.6647
  682SOL     MW 2728   0.079   2.884   1.547  0.2106 -1.1855 -0.1282
  683SOL     OW 2729   2.076   0.811   3.001  0.0293 -0.4527  0.3072
  683SOL    HW1 2730   2.031   0.745   3.051  3.4580 -1.8580 -1.2395
  683SOL    HW2 2731   2.033   0.894   3.018  0.8945 -2.1121 -0.3108
  683SOL     MW 2732   2.064   0.813   3.010  0.5959 -0.8571  0.0216
  684SOL     OW 2733   2.097   1.738   0.633 -0.8111 -0.2359 -0.5643
  684SOL    HW1 2734   2.088   1.689   0.546  0.2500 -0.4608  1.0328
  684SOL    HW2 2735   2.078   1.676   0.707 -0.4097  0.0337  1.2082
  684SOL     MW 2736   2.094   1.723   0.631 -0.6181 -0.2300 -0.1197
  685SOL     OW 2737   2.682   1.692   1.172  0.0109  0.4079  0.0598
  685SOL    HW1 2738   2.733   1.671   1.249  1.2218  0.3869  1.6534
  685SOL    HW2 2739   2.604   1.635   1.161  1.1348 -0.8920  1.5675
  685SOL     MW 2740   2.678   1.682   1.181  0.3190  0.2336  0.4690
  686SOL     OW 2741   2.897   0.639   1.601 -0.2479  0.4011  0.7845
  686SOL    HW1 2742   2.907   0.606   1.686 -0.5838  0.6422 -2.0562
  686SOL    HW2 2743   2.976   0.690   1.579 -0.7102 -0.5878 -2.6894
  686SOL     MW 2744   2.909   0.641   1.609 -0.3532  0.3025 -0.0487
  687SOL     OW 2745   2.134   0.189   1.116 -0.6224  0.4210  0.1342
  687SOL    HW1 2746   2.200   0.141   1.061  1.2530  0.9428  1.1923
  687SOL    HW2 2747   2.100   0.264   1.065 -0.2636 -0.5570  1.4992
  687SOL     MW 2748   2.138   0.192   1.102 -0.3276  0.3608  0.4539
  688SOL     OW 2749   2.427   0.591   1.396  0.7515 -0.2364 -0.0781
  688SOL    HW1 2750   2.394   0.525   1.331 -0.3065  0.7954 -0.3042
  688SOL    HW2 2751   2.348   0.605   1.459 -0.6490 -2.1227  0.0417
  688SOL     MW 2752   2.412   0.585   1.396  0.4271 -0.3492 -0.0921
  689SOL     OW 2753   2.507   0.766   2.984  0.0356 -0.6618 -0.0379
  689SOL    HW1 2754   2.444   0.829   3.014 -0.4687  0.5024  0.1384
  689SOL    HW2 2755   2.570   0.756   3.053 -1.4363  0.4692 -1.2695
  689SOL     MW 2756   2.507   0.773   2.997 -0.2252 -0.3590 -0.1771
  690SOL     OW 2757   2.036   0.863   1.839 -0.6497  0.0882 -0.1458
  690SOL    HW1 2758   2.000   0.779   1.858  0.0223 -0.2626  0.8866
  690SOL    HW2 2759   2.084   0.861   1.752 -1.7320  2.0053 -0.1898
  690SOL     MW 2760   2.038   0.852   1.830 -0.7038  0.2948 -0.0154
  691SOL     OW 2761   2.400   0.295   0.874  0.2061  0.0599 -0.0436
  691SOL    HW1 2762   2.492   0.314   0.889  1.2107  0.8896  0.6433
  691SOL    HW2 2763   2.346   0.368   0.906 -0.9844  0.7227  1.7209
  691SOL     MW 2764   2.405   0.307   0.880  0.1816  0.2569  0.2799
  692SOL     OW 2765   2.877   1.594   1.439 -0.3928  0.0598  0.0991
  692SOL    HW1 2766   2.897   1.577   1.533  1.9005 -0.0594  1.5010
  692SOL    HW2 2767   2.894   1.689   1.428 -0.2982 -1.2873 -2.1152
  692SOL     MW 2768   2.882   1.604   1.450 -0.0778 -0.1337 -0.0080
  693SOL     OW 2769   2.352   0.411   0.049  0.2225 -0.6397 -0.4483
  693SOL    HW1 2770   2.273   0.378  -0.002 -1.4559 -0.7977 -0.0954
  693SOL    HW2 2771   2.323   0.502   0.075 -0.2528 -3.1340  1.5141
  693SOL     MW 2772   2.338   0.418   0.046 -0.0616 -0.9896 -0.1428
  694SOL     OW 2773   1.882   1.204   1.152  0.5403 -0.3362  0.4833
  694SOL    HW1 2774   1.979   1.195   1.176  4.2647 -2.6649  0.5043
  694SOL    HW2 2775   1.846   1.123   1.177  2.9017  1.3001 -1.2183
  694SOL     MW 2776   1.890   1.192   1.159  1.3433 -0.4275  0.2616
  695SOL     OW 2777   2.971   1.403   1.267  0.1376  0.1153  0.2364
  695SOL    HW1 2778   2.961   1.443   1.178 -1.3956  2.9296 -3.2698
  695SOL    HW2 2779   2.957   1.478   1.330 -2.0255 -2.2196 -0.1483
  695SOL     MW 2780   2.968   1.418   1.264 -0.3501  0.1785 -0.2770
  696SOL     OW 2781   2.058   1.446   0.778 -0.5828 -0.0134  0.3956
  696SOL    HW1 2782   2.098   1.437   0.862 -2.9355 -1.7928 -0.0489
  696SOL    HW2 2783   1.988   1.379   0.780 -0.8707 -1.2183  0.7647
  696SOL     MW 2784   2.054   1.436   0.789 -0.9312 -0.4072  0.3856
  697SOL     OW 2785   2.924   1.072   2.236  0.3625 -0.3809 -0.2788
  697SOL    HW1 2786   2.834   1.109   2.245 -3.4035  1.6584  2.0638
  697SOL    HW2 2787   2.916   0.979   2.216  0.1095  0.3426 -0.7453
  697SOL     MW 2788   2.911   1.065   2.234 -0.1678 -0.0164 -0.0313
  698SOL     OW 2789   2.572   0.308   3.041  0.2410  0.4225 -0.1877
  698SOL    HW1 2790   2.504   0.350   3.094 -1.3266 -0.1895 -0.1082
  698SOL    HW2 2791   2.618   0.249   3.103  2.3747 -1.0958  0.9838
  698SOL     MW 2792   2.569   0.306   3.056  0.3157  0.1414 -0.0227
  699SOL     OW 2793   1.890   1.625   2.086  0.1071  0.1737  0.1720
  699SOL    HW1 2794   1.837   1.543   2.074  3.4140 -1.1126 -3.0076
  699SOL    HW2 2795   1.979   1.601   2.068 -0.5847  0.3676 -1.1031
  699SOL     MW 2796   1.895   1.611   2.082  0.4522  0.0296 -0.4157
  700SOL     OW 2797   2.685   0.824   1.573  0.0188 -0.1157  0.5857
  700SOL    HW1 2798   2.719   0.882   1.507 -2.3765  1.7840  0.3394
  700SOL    HW2 2799   2.741   0.749   1.584 -0.6179  1.1181 -2.8731
  700SOL     MW 2800   2.697   0.822   1.566 -0.3812  0.2977  0.0968
  701SOL     OW 2801   1.691   1.136   2.497  0.7443  0.0470 -0.0259
  701SOL    HW1 2802   1.779   1.101   2.521 -1.4584 -2.8313  0.0788
  701SOL    HW2 2803   1.669   1.209   2.550  2.1772 -1.3363 -1.0824
  701SOL     MW 2804   1.699   1.141   2.508  0.6428 -0.5153 -0.1515
  702SOL     OW 2805   2.132   0.438   0.764 -0.9118  0.3351 -0.7227
  702SOL    HW1 2806   2.130   0.348   0.736 -1.4988  0.0384  0.4050
  702SOL    HW2 2807   2.220   0.475   0.737 -0.4367  2.1266  0.5389
  702SOL     MW 2808   2.143   0.431   0.757 -0.9266  0.5324 -0.4075
  703SOL     OW 2809   2.725   1.230   0.953 -0.1723  0.5118 -0.1997
  703SOL    HW1 2810   2.680   1.197   0.878  1.6350  0.2172  1.1051
  703SOL    HW2 2811   2.748   1.145   0.992 -1.3989 -0.5587  0.5437
  703SOL     MW 2812   2.722   1.214   0.948 -0.0957  0.3317  0.0706
  704SOL     OW 2813   3.073   1.225   0.138  0.3698  0.0380  0.2371
  704SOL    HW1 2814   2.982   1.246   0.102 -0.0875  1.8163  0.6834
  704SOL    HW2 2815   3.077   1.234   0.233 -1.1673  2.4407 -2.2059
  704SOL     MW 2816   3.061   1.229   0.146  0.1067  0.5897 -0.0263
  705SOL     OW 2817   2.068   1.560   1.305 -0.4609 -0.5198 -0.1729
  705SOL    HW1 2818   2.001   1.622   1.315  0.3662 -1.1758 -2.7651
  705SOL    HW2 2819   2.095   1.540   1.395  1.9494  1.0869  0.8284
  705SOL     MW 2820   2.063   1.565   1.319 -0.0338 -0.3944 -0.3828
  706SOL     OW 2821   2.995   1.237   0.647  0.2256 -0.3770 -0.2674
  706SOL    HW1 2822   3.044   1.242   0.558  1.8242 -0.9626 -1.1122
  706SOL    HW2 2823   2.952   1.322   0.657  0.2949 -0.7145  1.0557
  706SOL     MW 2824   2.996   1.249   0.636  0.4457 -0.4988 -0.2043
  707SOL     OW 2825   2.388   0.037   0.963  0.3964 -0.0425 -0.1242
  707SOL    HW1 2826   2.397   0.130   0.943 -1.0083  2.0137 -0.3602
  707SOL    HW2 2827   2.307   0.011   0.911 -1.6454 -0.6800 -2.2224
  707SOL     MW 2828   2.378   0.046   0.954 -0.0583  0.1447 -0.4321
  708SOL     OW 2829   2.423   1.382   0.179 -0.3308 -0.1783  0.1752
  708SOL    HW1 2830   2.503   1.343   0.212 -1.1317 -0.2629 -0.4746
  708SOL    HW2 2831   2.422   1.396   0.081 -0.9422  0.1800  0.7244
  708SOL     MW 2832   2.433   1.379   0.170 -0.5171 -0.1422  0.1619
  709SOL     OW 2833   1.750   1.609   0.232  0.6771  0.6497  0.2806
  709SOL    HW1 2834   1.741   1.620   0.137 -0.8859  1.0568  0.5870
  709SOL    HW2 2835   1.689   1.541   0.249 -0.4402 -1.2563 -1.8027
  709SOL     MW 2836   1.741   1.602   0.222  0.3235  0.4520  0.0461
  710SOL     OW 2837   2.153   1.155   1.179  0.0025 -0.4074 -0.3287
  710SOL    HW1 2838   2.192   1.129   1.096  1.5399  1.9166  3.6347
  710SOL    HW2 2839   2.175   1.088   1.247 -2.5005  1.1895  0.1597
  710SOL     MW 2840   2.161   1.142   1.177 -0.1249  0.1100  0.2587
  711SOL     OW 2841   2.413   0.172   1.769  0.2497 -0.3510  0.1391
  711SOL    HW1 2842   2.484   0.110   1.803  0.9026  0.8710  1.2633
  711SOL    HW2 2843   2.409   0.146   1.672  0.3679 -1.3290 -1.1378
  711SOL     MW 2844   2.421   0.160   1.760  0.3515 -0.3188  0.1189
  712SOL     OW 2845   1.904   0.609   0.017 -0.3648 -0.0231 -0.6152
  712SOL    HW1 2846   1.858   0.653  -0.053  0.3209  1.2168  1.8961
  712SOL    HW2 2847   1.848   0.613   0.091  3.2564  2.8207  1.8831
  712SOL     MW 2848   1.891   0.615   0.018  0.2035  0.5157  0.0458
  713SOL     OW 2849   2.520   0.693   1.087  0.1468 -0.0110 -0.1454
  713SOL    HW1 2850   2.558   0.691   1.170  1.1075 -0.2764 -1.9611
  713SOL    HW2 2851   2.421   0.700   1.103 -1.2155  1.4099  1.8167
  713SOL     MW 2852   2.512   0.694   1.100  0.0938  0.1414 -0.1261
  714SOL     OW 2853   2.225   0.200   1.978  0.0180 -0.4389 -0.5116
  714SOL    HW1 2854   2.276   0.166   2.049  3.2485  0.3282 -1.4256
  714SOL    HW2 2855   2.283   0.189   1.901 -0.6692 -1.4992 -0.8189
  714SOL     MW 2856   2.239   0.194   1.977  0.3535 -0.4776 -0.6728
  715SOL     OW 2857   1.808   2.042   1.769 -0.0391 -0.2900 -0.3593
  715SOL    HW1 2858   1.898   2.070   1.760 -0.0717 -0.5505 -0.0107
  715SOL    HW2 2859   1.822   1.955   1.817  2.7283 -1.1638  1.2464
  715SOL     MW 2860   1.822   2.034   1.774  0.3217 -0.4396 -0.1015
  716SOL     OW 2861   2.352   0.554   0.667  0.9032  0.8086 -0.1378
  716SOL    HW1 2862   2.409   0.495   0.614  2.0344 -0.2131  0.3457
  716SOL    HW2 2863   2.290   0.593   0.595 -0.0829 -3.5819  1.5825
  716SOL     MW 2864   2.351   0.552   0.650  0.9223  0.0945  0.1529
  717SOL     OW 2865   2.829   1.572   2.855  0.2553  0.2712 -0.4406
  717SOL    HW1 2866   2.921   1.566   2.865 -3.3918  1.3501 -1.8065
  717SOL    HW2 2867   2.797   1.646   2.897  0.6437  0.4396 -3.4371
  717SOL     MW 2868   2.837   1.581   2.862 -0.1747  0.4358 -1.0162
  718SOL     OW 2869   2.654   1.346   1.314 -0.2396 -0.2437 -0.2627
  718SOL    HW1 2870   2.617   1.375   1.397  2.2510  2.3581 -0.0271
  718SOL    HW2 2871   2.749   1.365   1.315  0.2868  1.0766 -0.7318
  718SOL     MW 2872   2.661   1.353   1.325  0.1585  0.2738 -0.2935
  719SOL     OW 2873   2.194   1.285   0.589  0.4877  0.5382  0.0154
  719SOL    HW1 2874   2.264   1.326   0.551  0.6534 -0.3037  2.1076
  719SOL    HW2 2875   2.148   1.331   0.660 -0.0452 -1.1060  1.5701
  719SOL     MW 2876   2.197   1.296   0.593  0.4392  0.2102  0.4966
  720SOL     OW 2877   2.812   1.215   0.021  0.4611  0.1356 -0.0736
  720SOL    HW1 2878   2.802   1.127   0.061 -0.2428  0.6644  0.5674
  720SOL    HW2 2879   2.773   1.280   0.082 -1.5668 -0.5129  0.4289
  720SOL     MW 2880   2.806   1.212   0.034  0.1006  0.1198  0.0772
  721SOL     OW 2881   2.470   0.861   1.351  0.2738  0.6814  0.1365
  721SOL    HW1 2882   2.461   0.767   1.361 -2.3397  0.5018  1.6579
  721SOL    HW2 2883   2.510   0.877   1.430 -2.3026 -2.8921  0.1880
  721SOL     MW 2884   2.474   0.851   1.363 -0.4110  0.1862  0.3440
  722SOL     OW 2885   2.611   1.140   0.364 -0.0581  0.1484  0.0567
  722SOL    HW1 2886   2.546   1.194   0.412  1.6440 -0.9585 -0.3159
  722SOL    HW2 2887   2.678   1.111   0.433 -1.4885  5.0049  0.4551
  722SOL     MW 2888   2.612   1.143   0.380 -0.0222  0.6431  0.0601
  723SOL     OW 2889   2.286   1.371   1.570  0.0863 -0.1104 -0.3723
  723SOL    HW1 2890   2.293   1.381   1.471  3.1665 -0.4231 -0.6017
  723SOL    HW2 2891   2.241   1.450   1.597 -0.5396  3.1596 -0.0704
  723SOL     MW 2892   2.281   1.383   1.561  0.4102  0.2798 -0.3627
  724SOL     OW 2893   2.493   0.300   0.606 -0.0500  0.1550 -0.0290
  724SOL    HW1 2894   2.448   0.308   0.691  0.7809 -0.9160  0.3411
  724SOL    HW2 2895   2.589   0.295   0.622  0.0875 -1.6009 -0.8581
  724SOL     MW 2896   2.499   0.300   0.619  0.0778 -0.2180 -0.0896
  725SOL     OW 2897   2.633   0.407   1.235  0.0544  0.0801  0.0560
  725SOL    HW1 2898   2.688   0.471   1.287 -0.1020 -0.8697 -0.0987
  725SOL    HW2 2899   2.631   0.325   1.286 -0.8089 -2.3068 -0.7660
  725SOL     MW 2900   2.640   0.405   1.248 -0.0802 -0.3601 -0.0728
  726SOL     OW 2901   2.515   2.487   0.474 -0.0566 -0.0789 -0.5898
  726SOL    HW1 2902   2.506   2.557   0.409 -1.7197 -0.7397 -0.6283
  726SOL    HW2 2903   2.510   2.521   0.562 -1.6773  0.0612  0.4670
  726SOL     MW 2904   2.513   2.500   0.477 -0.4899 -0.1476 -0.4554
  727SOL     OW 2905   2.867   0.303   1.732 -0.3196  0.2182 -0.4914
  727SOL    HW1 2906   2.809   0.291   1.660  1.6596 -0.6712  0.1776
  727SOL    HW2 2907   2.823   0.260   1.810  0.0742 -0.7836  2.4192
  727SOL     MW 2908   2.853   0.296   1.733 -0.0065 -0.0313 -0.0191
  728SOL     OW 2909   2.844   1.189   2.855  0.2790 -0.0423  0.0695
  728SOL    HW1 2910   2.811   1.244   2.785 -0.5113  1.5157 -1.4433
  728SOL    HW2 2911   2.813   1.222   2.940  0.0170 -2.5329 -1.4959
  728SOL     MW 2912   2.836   1.201   2.857  0.1401 -0.1654 -0.3366
  729SOL     OW 2913   2.496   1.493   1.091 -0.2092  0.1040  0.2069
  729SOL    HW1 2914   2.575   1.441   1.104  1.2651 -0.5877  0.7391
  729SOL    HW2 2915   2.476   1.485   0.995  0.4423 -1.0606 -0.2011
  729SOL     MW 2916   2.504   1.485   1.080  0.0713 -0.1409  0.2233
  730SOL     OW 2917   2.202   1.186   0.190  0.3495  0.0724 -0.7431
  730SOL    HW1 2918   2.267   1.116   0.182 -1.1059  2.1931 -0.1514
  730SOL    HW2 2919   2.254   1.263   0.183  0.7385 -1.2472 -1.1224
  730SOL     MW 2920   2.217   1.187   0.188  0.2088  0.1781 -0.7151
  731SOL     OW 2921   2.742   2.090   2.867 -0.0001 -0.7305 -0.3569
  731SOL    HW1 2922   2.666   2.064   2.806 -1.7160  0.6144  2.3028
  731SOL    HW2 2923   2.820   2.071   2.815  0.0529  1.5611 -0.4961
  731SOL     MW 2924   2.742   2.084   2.852 -0.2195 -0.2507 -0.0243
  732SOL     OW 2925   2.227   0.993   1.360  0.7628  0.0721 -0.0436
  732SOL    HW1 2926   2.221   0.955   1.450  2.5163 -3.4043  0.5564
  732SOL    HW2 2927   2.318   0.969   1.346 -1.8603  0.8858 -1.2528
  732SOL     MW 2928   2.238   0.985   1.370  0.6481 -0.2792 -0.1239
  733SOL     OW 2929   2.370   2.831   3.026 -0.2514 -0.2406 -0.0937
  733SOL    HW1 2930   2.284   2.870   3.059  0.5509  0.0623 -0.9020
  733SOL    HW2 2931   2.355   2.734   3.019 -0.5454  0.6205  0.2747
  733SOL     MW 2932   2.357   2.823   3.030 -0.1843 -0.0870 -0.1518
  734SOL     OW 2933   1.598   0.255   2.547  0.2120  0.1833  0.3302
  734SOL    HW1 2934   1.548   0.234   2.627  0.1952 -2.2752  1.0328
  734SOL    HW2 2935   1.562   0.196   2.484 -0.5519  1.6579 -0.2608
  734SOL     MW 2936   1.587   0.245   2.549  0.1090  0.0535  0.3449
  735SOL     OW 2937   3.001   0.942   2.680 -0.4314 -0.2510 -0.3416
  735SOL    HW1 2938   2.985   0.844   2.660  0.7082 -0.3707 -1.9809
  735SOL    HW2 2939   2.994   0.958   2.776 -0.7153  0.1205  1.1623
  735SOL     MW 2940   2.998   0.931   2.690 -0.3185 -0.2177 -0.3595
  736SOL     OW 2941   0.133   0.575   2.599  0.2442 -0.5109 -0.3953
  736SOL    HW1 2942   0.150   0.629   2.521  1.5727 -1.2231 -0.3797
  736SOL    HW2 2943   0.134   0.482   2.564 -0.2597 -0.7759  0.8509
  736SOL     MW 2944   0.135   0.570   2.584  0.3530 -0.6398 -0.2288
  737SOL     OW 2945   2.977   0.691   2.619  0.3991  0.4231  0.4276
  737SOL    HW1 2946   2.925   0.653   2.539 -3.2554 -0.4330  0.0190
  737SOL    HW2 2947   3.062   0.653   2.615 -1.4258  0.2178 -0.3066
  737SOL     MW 2948   2.981   0.681   2.608 -0.3239  0.2831  0.2768
  738SOL     OW 2949   0.153   0.512   1.881 -0.4136 -0.6013 -0.2586
  738SOL    HW1 2950   0.248   0.545   1.868  1.1350 -0.9621  1.1026
  738SOL    HW2 2951   0.121   0.503   1.791  0.7712  0.9584  0.1801
  738SOL     MW 2952   0.161   0.515   1.868 -0.0529 -0.4431 -0.0211
  739SOL     OW 2953   2.481   1.012   2.070  0.0628  0.1012  0.0851
  739SOL    HW1 2954   2.429   0.975   1.994  1.8169 -2.5268  1.7803
  739SOL    HW2 2955   2.565   0.970   2.075 -1.4712  0.3042  2.2847
  739SOL     MW 2956   2.485   1.002   2.061  0.0918 -0.2188  0.5990
  740SOL     OW 2957   0.097   1.857   2.926  0.2554 -0.4562  0.1540
  740SOL    HW1 2958   0.081   1.763   2.923 -0.4260  0.5548 -0.6328
  740SOL    HW2 2959   0.187   1.869   2.963  0.7685 -2.7149 -2.9602
  740SOL     MW 2960   0.107   1.846   2.930  0.2332 -0.6208 -0.3607
  741SOL     OW 2961   2.253   1.173   2.739 -0.2593  0.0296  0.2489
  741SOL    HW1 2962   2.215   1.232   2.680  0.3506 -0.8850 -1.4670
  741SOL    HW2 2963   2.211   1.207   2.820 -2.1096  1.9590  1.4801
  741SOL     MW 2964   2.243   1.186   2.742 -0.4229  0.1635  0.1849
  742SOL     OW 2965   1.694   1.212   2.243  0.1212 -0.1919  0.1232
  742SOL    HW1 2966   1.610   1.163   2.233  2.1973 -3.4164  0.2776
  742SOL    HW2 2967   1.714   1.198   2.338 -1.2344 -1.9881 -0.0647
  742SOL     MW 2968   1.686   1.204   2.254  0.2162 -0.8543  0.1187
  743SOL     OW 2969   2.506   1.242   2.684 -1.0253 -0.4686  0.2499
  743SOL    HW1 2970   2.423   1.218   2.720  0.8594  0.0754  1.6358
  743SOL    HW2 2971   2.568   1.204   2.741 -2.0456  1.3050 -1.6850
  743SOL     MW 2972   2.503   1.234   2.696 -0.9113 -0.1628  0.1775
  744SOL     OW 2973   2.747   0.916   1.860 -0.8825 -0.6827 -0.2076
  744SOL    HW1 2974   2.690   0.993   1.857  0.7028  0.2344  1.3800
  744SOL    HW2 2975   2.743   0.864   1.779 -1.5513 -0.0004 -0.2294
  744SOL     MW 2976   2.739   0.919   1.849 -0.7616 -0.4717 -0.0010
  745SOL     OW 2977   1.687   0.506   2.449 -0.0730 -0.0620 -0.0479
  745SOL    HW1 2978   1.692   0.496   2.351  0.8402 -4.0598 -0.3309
  745SOL    HW2 2979   1.646   0.424   2.482  1.4413  0.5953 -0.1707
  745SOL     MW 2980   1.682   0.494   2.441  0.2473 -0.5028 -0.1015
  746SOL     OW 2981   1.603   1.422   1.644  0.4226 -0.2599  0.3232
  746SOL    HW1 2982   1.694   1.433   1.625 -0.5543 -1.9618  1.4984
  746SOL    HW2 2983   1.601   1.433   1.737  2.2874  1.0932 -1.7685
  746SOL     MW 2984   1.614   1.425   1.654  0.5397 -0.3059  0.2023
  747SOL     OW 2985   2.599   1.154   1.820  0.0561 -0.5609 -0.2300
  747SOL    HW1 2986   2.507   1.130   1.785 -2.4124  1.6359  1.0802
  747SOL    HW2 2987   2.586   1.223   1.888  0.9506 -1.4091  1.4170
  747SOL     MW 2988   2.585   1.160   1.825 -0.1516 -0.3829  0.1602
  748SOL     OW 2989   0.078   0.073   1.866 -0.3444  0.3283  0.6741
  748SOL    HW1 2990   0.175   0.103   1.856 -1.8515  2.4436  1.9764
  748SOL    HW2 2991   0.043   0.121   1.949 -2.5288  0.7274  1.4192
  748SOL     MW 2992   0.086   0.083   1.875 -0.8315  0.6601  0.9442
  749SOL     OW 2993   2.473   0.601   2.732  0.2494  0.0058  0.0298
  749SOL    HW1 2994   2.510   0.642   2.651  1.3656 -3.0207 -0.8097
  749SOL    HW2 2995   2.503   0.655   2.810  3.9897 -0.3042  0.8006
  749SOL     MW 2996   2.482   0.614   2.731  0.8902 -0.4344  0.0207
  750SOL     OW 2997   2.062   3.055   1.986  0.3144 -0.5019  0.2623
  750SOL    HW1 2998   2.104   3.134   2.018  1.9720 -0.1185 -0.4604
  750SOL    HW2 2999   2.127   2.982   1.968 -1.1081 -1.0410 -1.7915
  750SOL     MW 3000   2.076   3.056   1.988  0.3454 -0.5225 -0.1040
  751SOL     OW 3001   0.139   0.342   2.476  0.6982  0.1057  0.0564
  751SOL    HW1 3002   0.116   0.255   2.505 -0.9823  0.2150  0.3309
  751SOL    HW2 3003   0.166   0.324   2.382 -1.5114  0.1154 -0.8055
  751SOL     MW 3004   0.140   0.328   2.467  0.1849  0.1214 -0.0211
  752SOL     OW 3005   2.102   0.754   2.735  0.5980  0.3411  0.2582
  752SOL    HW1 3006   2.180   0.802   2.701  1.8683  1.1653  0.6802
  752SOL    HW2 3007   2.105   0.776   2.830  2.3805  1.5406  1.5580
  752SOL     MW 3008   2.113   0.764   2.743  1.0008  0.6081  0.4854
  753SOL     OW 3009   2.901   0.213   2.394  0.2079 -0.0579 -0.0360
  753SOL    HW1 3010   2.843   0.147   2.363  0.6215  1.4181 -0.9263
  753SOL    HW2 3011   2.874   0.294   2.344 -2.1746 -0.6824 -0.9556
  753SOL     MW 3012   2.890   0.215   2.383 -0.0519  0.0545 -0.2748
  754SOL     OW 3013   2.218   2.983   2.590 -0.1855  0.4323  0.4925
  754SOL    HW1 3014   2.254   2.968   2.501  1.3337 -1.5964  0.0200
  754SOL    HW2 3015   2.276   2.927   2.655  1.2984  1.5942  0.0591
  754SOL     MW 3016   2.231   2.974   2.587  0.2107  0.3179  0.3729
  755SOL     OW 3017   2.695   1.515   2.437 -0.2289  0.0364  0.1448
  755SOL    HW1 3018   2.733   1.442   2.485  0.1011  1.6857  0.5077
  755SOL    HW2 3019   2.737   1.593   2.483  0.6051 -2.1992  0.1201
  755SOL     MW 3020   2.705   1.515   2.450 -0.0753 -0.0409  0.1894
  756SOL     OW 3021   2.190   1.220   2.995  1.0365  0.0998 -0.5553
  756SOL    HW1 3022   2.245   1.296   3.017 -0.2545 -2.4609  0.5893
  756SOL    HW2 3023   2.258   1.146   2.998 -0.7146 -0.1603 -0.2825
  756SOL     MW 3024   2.206   1.220   2.998  0.6351 -0.2724 -0.3683
  757SOL     OW 3025   2.157   0.887   1.604  0.1488 -0.0926 -0.3855
  757SOL    HW1 3026   2.181   0.795   1.581 -1.5771  1.1913  0.4945
  757SOL    HW2 3027   2.066   0.896   1.559  0.7599  1.4896 -1.6537
  757SOL     MW 3028   2.148   0.876   1.595  0.0017  0.2856 -0.4367
  758SOL     OW 3029   2.227   1.849   2.637  0.3153 -0.3864 -0.1683
  758SOL    HW1 3030   2.203   1.879   2.546  1.4854 -2.4490  2.3646
  758SOL    HW2 3031   2.307   1.796   2.622 -0.4817 -1.7112 -3.4013
  758SOL     MW 3032   2.234   1.846   2.623  0.3645 -0.8333 -0.2607
  759SOL     OW 3033   1.546   1.281   2.691 -0.0855 -0.8963  0.0761
  759SOL    HW1 3034   1.530   1.376   2.667 -1.7145  1.0380  0.7271
  759SOL    HW2 3035   1.599   1.285   2.772  2.2161 -1.2415 -1.7031
  759SOL     MW 3036   1.551   1.294   2.699  0.0033 -0.6866 -0.0727
  760SOL     OW 3037   2.535   1.988   2.717 -0.2175 -0.1344 -0.0343
  760SOL    HW1 3038   2.539   1.906   2.664  1.8026 -2.8017  2.5252
  760SOL    HW2 3039   2.527   2.063   2.656  0.4261 -0.1495  3.8291
  760SOL     MW 3040   2.534   1.987   2.702  0.1339 -0.4883  0.8131
  761SOL     OW 3041   2.145   0.353   2.493  0.4002  0.2644  0.7211
  761SOL    HW1 3042   2.086   0.288   2.532  2.2319  1.6535 -0.4188
  761SOL    HW2 3043   2.179   0.394   2.575  0.6346  0.1978 -0.4934
  761SOL     MW 3044   2.142   0.350   2.509  0.6728  0.4389  0.4104
  762SOL     OW 3045   3.083   0.168   2.104 -0.7599  0.3291 -0.3031
  762SOL    HW1 3046   3.091   0.096   2.173 -1.3318  2.7913  1.9671
  762SOL    HW2 3047   3.070   0.232   2.175 -0.8436 -3.5441 -0.4740
  762SOL     MW 3048   3.082   0.167   2.123 -0.8464  0.1429 -0.0261
  763SOL     OW 3049   2.332   1.037   2.345 -0.5149  0.1682 -0.1970
  763SOL    HW1 3050   2.348   0.988   2.264  0.1235 -0.8415 -0.2623
  763SOL    HW2 3051   2.409   1.096   2.360  4.1795 -0.1225  0.1333
  763SOL     MW 3052   2.344   1.039   2.336  0.1887 -0.0034 -0.1620
  764SOL     OW 3053   0.510   0.236   2.800 -0.3358 -0.0219  0.0700
  764SOL    HW1 3054   0.421   0.193   2.787 -2.3066 -1.4373 -0.9423
  764SOL    HW2 3055   0.503   0.326   2.831  0.9112  1.2205 -2.0838
  764SOL     MW 3056   0.497   0.242   2.802 -0.4313 -0.0447 -0.3477
  765SOL     OW 3057   2.735   3.078   2.346 -0.5818 -0.3283 -0.2076
  765SOL    HW1 3058   2.661   3.058   2.285  2.2682 -0.6667 -0.0487
  765SOL    HW2 3059   2.809   3.024   2.310 -0.9646 -0.5906  0.7483
  765SOL     MW 3060   2.735   3.068   2.333 -0.2563 -0.4075 -0.0605
  766SOL     OW 3061   1.851   2.967   2.165  0.1016 -0.2149 -0.0167
  766SOL    HW1 3062   1.901   3.012   2.093  0.7933  0.8592 -1.8303
  766SOL    HW2 3063   1.774   2.920   2.123  0.3632 -0.6269  0.4636
  766SOL     MW 3064   1.847   2.967   2.150  0.2274 -0.1276 -0.1926
  767SOL     OW 3065   2.689   0.601   2.090  0.1448  0.5809  0.1695
  767SOL    HW1 3066   2.718   0.691   2.106 -0.3974  0.8755  0.4790
  767SOL    HW2 3067   2.597   0.603   2.049 -0.0797 -1.9743  0.5676
  767SOL     MW 3068   2.681   0.613   2.086  0.0437  0.2827  0.2629
  768SOL     OW 3069   0.001   1.588   2.921  0.1324 -0.2677  0.3920
  768SOL    HW1 3070   0.000   1.573   3.019  2.6192  0.7286 -0.3542
  768SOL    HW2 3071   0.029   1.510   2.876 -3.0715  5.1532  0.9838
  768SOL     MW 3072   0.005   1.576   2.928  0.0378  0.5790  0.3717
  769SOL     OW 3073   2.445   0.690   2.340  0.1000 -0.2139 -0.0451
  769SOL    HW1 3074   2.437   0.593   2.342  0.7663  0.6019  2.4491
  769SOL    HW2 3075   2.373   0.730   2.292 -1.1767 -2.4830 -0.1312
  769SOL     MW 3076   2.434   0.683   2.334  0.0195 -0.4056  0.2726
  770SOL     OW 3077   0.034   1.608   2.606 -0.4762  0.7063 -0.3203
  770SOL    HW1 3078  -0.062   1.616   2.600  3.0223 -3.0026  1.6886
  770SOL    HW2 3079   0.057   1.522   2.627  0.8398  2.5658 -4.4492
  770SOL     MW 3080   0.025   1.597   2.608  0.1590  0.4623 -0.6000
  771SOL     OW 3081   3.067   0.641   2.052 -0.5075 -0.2202  0.5993
  771SOL    HW1 3082   3.001   0.604   1.992 -0.9167 -0.0174 -0.9775
  771SOL    HW2 3083   3.145   0.607   1.998  0.4424 -3.3559 -1.9916
  771SOL     MW 3084   3.069   0.632   2.037 -0.4362 -0.6072  0.0494
  772SOL     OW 3085   0.068   3.090   2.318  0.1992  0.0529 -0.1478
  772SOL    HW1 3086  -0.018   3.059   2.301 -1.5209  0.1533  0.7663
  772SOL    HW2 3087   0.123   3.029   2.274 -0.0972 -1.2544  0.7296
  772SOL     MW 3088   0.064   3.078   2.310 -0.0668 -0.1064  0.0886
  773SOL     OW 3089   2.389   2.866   2.754 -0.0280 -0.1141 -0.2970
  773SOL    HW1 3090   2.412   2.774   2.722  1.1553 -2.0832  1.9575
  773SOL    HW2 3091   2.368   2.855   2.845 -0.2587  0.7264 -0.4407
  773SOL     MW 3092   2.389   2.852   2.762  0.0977 -0.2630 -0.0185
  774SOL     OW 3093   2.346   1.105   1.741  0.5970  0.4825  0.2754
  774SOL    HW1 3094   2.334   1.161   1.662 -0.4614  3.1644  0.3632
  774SOL    HW2 3095   2.303   1.022   1.708  0.2017 -0.9895 -1.4697
  774SOL     MW 3096   2.339   1.102   1.726  0.4052  0.6422  0.0567
  775SOL     OW 3097   2.311   2.888   2.333  0.1717 -0.5271 -0.3508
  775SOL    HW1 3098   2.331   2.969   2.290  1.4007 -0.9159  1.3176
  775SOL    HW2 3099   2.377   2.829   2.296  0.6885 -1.3169 -1.5760
  775SOL     MW 3100   2.323   2.891   2.323  0.4021 -0.6826 -0.2924
  776SOL     OW 3101   0.048   1.491   0.105 -0.4436  0.0350  0.2672
  776SOL    HW1 3102   0.135   1.456   0.116 -0.6440  2.2328 -2.8142
  776SOL    HW2 3103  -0.004   1.407   0.122 -1.9074  1.2904  1.3814
  776SOL     MW 3104   0.053   1.475   0.109 -0.6632  0.4907  0.0077
  777SOL     OW 3105   2.968   1.082   1.748  0.6970 -0.5785 -0.2781
  777SOL    HW1 3106   2.901   1.120   1.693  0.4259 -0.9748 -1.0659
  777SOL    HW2 3107   2.912   1.021   1.797 -2.6890  1.9015  0.7940
  777SOL     MW 3108   2.952   1.079   1.747  0.2145 -0.3036 -0.2406
  778SOL     OW 3109   2.888   0.495   2.781 -0.1056 -0.6692 -0.3954
  778SOL    HW1 3110   2.835   0.528   2.859  1.3716 -0.2866 -0.5904
  778SOL    HW2 3111   2.908   0.571   2.725  0.6168 -0.6832  1.3880
  778SOL     MW 3112   2.884   0.509   2.784  0.1846 -0.6206 -0.1858
  779SOL     OW 3113   2.156   0.576   2.334 -0.5655 -0.1486 -0.3012
  779SOL    HW1 3114   2.115   0.632   2.393  1.0144 -4.1098 -0.7700
  779SOL    HW2 3115   2.145   0.490   2.371 -0.3375  1.7317 -1.4555
  779SOL     MW 3116   2.149   0.572   2.347 -0.3270 -0.4232 -0.5153
  780SOL     OW 3117   0.254   0.136   2.796 -0.3722  0.1363  0.4772
  780SOL    HW1 3118   0.188   0.182   2.851 -2.3392 -0.8908 -1.1904
  780SOL    HW2 3119   0.207   0.120   2.715 -1.4122 -0.1863 -0.1398
  780SOL     MW 3120   0.239   0.140   2.793 -0.7689 -0.0418  0.1758
  781SOL     OW 3121   3.061   1.295   2.519  0.1348  0.2612  0.0142
  781SOL    HW1 3122   3.053   1.356   2.445 -1.7472 -0.1902  0.8624
  781SOL    HW2 3123   3.100   1.216   2.481 -0.9771  0.8949  1.6666
  781SOL     MW 3124   3.065   1.293   2.504 -0.2602  0.2852  0.3442
  782SOL     OW 3125   0.524   1.633   3.027  0.2327  0.1368  0.3155
  782SOL    HW1 3126   0.476   1.718   3.046  0.7052  2.7182  1.0007
  782SOL    HW2 3127   0.521   1.572   3.107 -1.1459 -1.1408  5.0167
  782SOL     MW 3128   0.517   1.636   3.040  0.1131  0.3088  1.0262
  783SOL     OW 3129   2.796   0.541   2.468 -0.0927  0.0999  0.0094
  783SOL    HW1 3130   2.763   0.509   2.383 -0.7434  2.8371  1.0251
  783SOL    HW2 3131   2.758   0.482   2.535  1.0763  2.6215  0.8201
  783SOL     MW 3132   2.787   0.529   2.466 -0.0243  0.7938  0.2504
  784SOL     OW 3133   0.271   0.905   2.888  0.4494 -0.4074  0.7514
  784SOL    HW1 3134   0.254   0.968   2.959  0.2390 -3.1240 -2.7468
  784SOL    HW2 3135   0.262   0.953   2.800 -0.8347  0.9235 -0.0780
  784SOL     MW 3136   0.268   0.920   2.886  0.2522 -0.5902  0.1804
  785SOL     OW 3137   0.390   0.484   2.137 -0.6389 -0.2514  0.0563
  785SOL    HW1 3138   0.376   0.530   2.054 -1.6796 -0.1599 -0.1424
  785SOL    HW2 3139   0.323   0.417   2.125 -0.1320 -2.6863  1.2750
  785SOL     MW 3140   0.379   0.481   2.124 -0.7093 -0.5606  0.1909
  786SOL     OW 3141   1.984   0.455   2.856  0.3945  0.5169  0.3339
  786SOL    HW1 3142   2.016   0.489   2.943 -0.1661 -2.1593  1.5206
  786SOL    HW2 3143   2.051   0.451   2.789  1.8107  0.2711 -1.7090
  786SOL     MW 3144   1.997   0.459   2.859  0.5074  0.1314  0.2210
  787SOL     OW 3145   2.402   0.150   2.885 -0.3169  0.4733  0.0044
  787SOL    HW1 3146   2.458   0.070   2.850  0.6201 -1.7558 -1.0109
  787SOL    HW2 3147   2.471   0.212   2.920 -1.5581 -0.3024 -0.5744
  787SOL     MW 3148   2.418   0.148   2.885 -0.3570  0.0768 -0.2059
  788SOL     OW 3149   2.947   2.928   2.262  0.2051  0.2936 -0.3060
  788SOL    HW1 3150   2.950   2.866   2.195  2.1324  0.4186  0.6141
  788SOL    HW2 3151   2.995   2.886   2.334 -0.2166  1.7132  1.8768
  788SOL     MW 3152   2.954   2.915   2.262  0.4037  0.4974  0.1034
  789SOL     OW 3153   0.062   0.232   2.987  0.2299 -0.2107 -0.0115
  789SOL    HW1 3154  -0.018   0.194   3.014  0.0712  2.0104 -1.4044
  789SOL    HW2 3155   0.031   0.325   2.971 -1.3119  1.0150 -1.5744
  789SOL     MW 3156   0.048   0.239   2.988  0.0056  0.2440 -0.4015
  790SOL     OW 3157   0.024   1.028   2.463 -0.5565  0.1322  0.2291
  790SOL    HW1 3158  -0.013   0.979   2.534  2.5238 -0.0583 -0.9588
  790SOL    HW2 3159  -0.045   1.035   2.401  0.1985 -0.6616 -0.2833
  790SOL     MW 3160   0.010   1.022   2.464 -0.0505  0.0023  0.0048
  791SOL     OW 3161   2.655   0.373   2.658 -0.8334 -0.0055 -0.2783
  791SOL    HW1 3162   2.589   0.428   2.687  0.5726 -1.4530  0.2625
  791SOL    HW2 3163   2.721   0.384   2.724 -2.0117  1.6650 -1.0370
  791SOL     MW 3164   2.655   0.382   2.671 -0.8034  0.0240 -0.3071
  792SOL     OW 3165   2.386   0.241   2.396 -0.9975 -0.0001  0.0645
  792SOL    HW1 3166   2.297   0.262   2.436  0.2869  2.1932 -1.0461
  792SOL    HW2 3167   2.433   0.214   2.481 -0.3327  2.9696  3.0691
  792SOL     MW 3168   2.380   0.240   2.412 -0.7403  0.6811  0.3144
  793SOL     OW 3169   1.771   1.003   1.884  0.0754 -0.2266 -0.3628
  793SOL    HW1 3170   1.728   1.044   1.809  4.6174 -2.1946  0.9628
  793SOL    HW2 3171   1.837   0.945   1.850  0.1274  0.0591  0.9391
  793SOL     MW 3172   1.774   1.001   1.870  0.6815 -0.4486 -0.0161
  794SOL     OW 3173   1.430   2.282   0.120  0.2743 -0.1193  0.2948
  794SOL    HW1 3174   1.479   2.345   0.068 -2.0709  1.1307 -1.6002
  794SOL    HW2 3175   1.443   2.294   0.212 -0.1706 -0.6714 -0.4494
  794SOL     MW 3176   1.439   2.292   0.125 -0.0938 -0.0272 -0.0534
  795SOL     OW 3177   2.280   0.926   2.611  0.7178 -0.4722  0.1462
  795SOL    HW1 3178   2.252   1.007   2.652  0.8250 -0.5018 -0.0911
  795SOL    HW2 3179   2.275   0.939   2.515  2.5781  1.3352 -1.9102
  795SOL     MW 3180   2.275   0.938   2.604  0.9774 -0.2376 -0.1564
  796SOL     OW 3181   0.344   0.687   2.751 -0.4337  0.0433  0.4814
  796SOL    HW1 3182   0.311   0.769   2.792 -3.0362 -0.2432 -1.0713
  796SOL    HW2 3183   0.274   0.647   2.696  0.6506  0.4722  2.3012
  796SOL     MW 3184   0.330   0.693   2.749 -0.6340  0.0621  0.5166
  797SOL     OW 3185   2.589   0.126   2.554  0.2516 -0.0874 -0.0576
  797SOL    HW1 3186   2.636   0.210   2.582  2.6820  2.2215  3.4247
  797SOL    HW2 3187   2.658   0.072   2.515  1.5881  0.7519  0.0321
  797SOL     MW 3188   2.604   0.130   2.552  0.7486  0.3280  0.4137
  798SOL     OW 3189   2.339   0.042   2.207 -0.2456  0.6846 -0.1031
  798SOL    HW1 3190   2.376   0.095   2.282  1.3148 -0.9922 -0.4284
  798SOL    HW2 3191   2.416   0.002   2.164  2.8853 -0.8198  0.9408
  798SOL     MW 3192   2.354   0.044   2.211  0.3734  0.2649 -0.0083
  799SOL     OW 3193   2.485   2.919   0.196  0.0459  0.3779  0.2578
  799SOL    HW1 3194   2.478   2.835   0.148  2.0146  0.8947 -0.1152
  799SOL    HW2 3195   2.461   2.987   0.130 -0.9436  0.2044 -2.1134
  799SOL     MW 3196   2.481   2.917   0.181  0.1751  0.4232 -0.1043
  800SOL     OW 3197   1.897   3.092   1.766  0.3520  0.1729 -0.3473
  800SOL    HW1 3198   1.834   3.022   1.770 -1.6347  1.5004  0.8462
  800SOL    HW2 3199   1.960   3.077   1.840  1.0324  0.4153  0.4230
  800SOL     MW 3200   1.897   3.081   1.776  0.1797  0.3800 -0.0882
  801SOL     OW 3201   2.805   1.299   2.583 -0.0303 -0.2169 -0.9273
  801SOL    HW1 3202   2.774   1.205   2.570  0.8591  0.5450 -1.6394
  801SOL    HW2 3203   2.901   1.295   2.582  0.5882 -2.1133  1.3113
  801SOL     MW 3204   2.814   1.286   2.581  0.1687 -0.3666 -0.7259
  802SOL     OW 3205   2.558   1.494   2.786 -0.0529  0.7446 -0.8303
  802SOL    HW1 3206   2.555   1.410   2.739  2.0470  1.2071 -0.6091
  802SOL    HW2 3207   2.644   1.515   2.831  1.5870 -0.6612  3.2904
  802SOL     MW 3208   2.569   1.486   2.786  0.4405  0.6201 -0.2575
  803SOL     OW 3209   2.305   1.301   1.967 -0.1056  0.2003  0.1427
  803SOL    HW1 3210   2.261   1.258   2.038 -0.3860  0.8051 -1.3406
  803SOL    HW2 3211   2.293   1.249   1.886  0.8505 -0.2109 -2.7461
  803SOL     MW 3212   2.297   1.288   1.965 -0.0165  0.2258 -0.4341
  804SOL     OW 3213   2.339   0.064   0.034  0.4078 -0.4685 -0.0217
  804SOL    HW1 3214   2.270   0.137   0.035  0.6668 -1.0184  0.5949
  804SOL    HW2 3215   2.384   0.085  -0.051  0.1416 -0.6935 -1.7858
  804SOL     MW 3216   2.336   0.076   0.023  0.4069 -0.5707 -0.1731
  805SOL     OW 3217   2.752   1.041   2.542  0.6340 -0.1182  0.1323
  805SOL    HW1 3218   2.680   0.975   2.550 -0.7715  1.0750 -0.2808
  805SOL    HW2 3219   2.837   0.997   2.571  0.7066 -0.0372 -0.0481
  805SOL     MW 3220   2.754   1.027   2.547  0.4581  0.0499  0.0540
  806SOL     OW 3221   2.654   0.378   2.284  0.4843 -0.9207 -0.2143
  806SOL    HW1 3222   2.575   0.339   2.320 -0.1881  1.3904 -1.3143
  806SOL    HW2 3223   2.634   0.465   2.241 -1.5030  0.6846  1.3829
  806SOL     MW 3224   2.641   0.385   2.283  0.1334 -0.4040 -0.1487
  807SOL     OW 3225   3.077   1.127   2.032  0.4522  0.1329 -0.5182
  807SOL    HW1 3226   3.130   1.050   2.009  1.1609 -1.3389  1.6735
  807SOL    HW2 3227   3.023   1.105   2.111  1.9019  1.5617  1.5147
  807SOL     MW 3228   3.077   1.114   2.040  0.7370  0.1273  0.0392
  808SOL     OW 3229   2.575   3.062   2.793 -0.0023  0.7311  0.3332
  808SOL    HW1 3230   2.524   2.986   2.760  0.5917 -2.3861  0.4741
  808SOL    HW2 3231   2.580   3.129   2.723 -3.5370 -1.2560  0.5021
  808SOL     MW 3232   2.569   3.061   2.780 -0.3903  0.0577  0.3741
  809SOL     OW 3233   2.485   1.251   2.416 -0.4528  0.5169 -0.2230
  809SOL    HW1 3234   2.511   1.254   2.514 -2.0640 -2.4870  1.7195
  809SOL    HW2 3235   2.568   1.231   2.373  1.7157  3.2130  0.9056
  809SOL     MW 3236   2.499   1.249   2.423 -0.3793  0.4763  0.1822
  810SOL     OW 3237   2.191   1.203   2.175 -0.5638 -0.2657  0.1556
  810SOL    HW1 3238   2.224   1.128   2.233 -0.5166 -2.2329 -2.5680
  810SOL    HW2 3239   2.096   1.198   2.185 -1.4270 -0.1286  0.4307
  810SOL     MW 3240   2.183   1.193   2.184 -0.6715 -0.5071 -0.1674
  811SOL     OW 3241   1.489   0.095   2.245  0.4050  0.1888  0.0910
  811SOL    HW1 3242   1.562   0.058   2.297  0.0755 -2.8454 -4.7447
  811SOL    HW2 3243   1.478   0.041   2.161 -0.4783 -3.7885 -0.5935
  811SOL     MW 3244   1.497   0.083   2.241  0.2450 -0.7363 -0.6373
  812SOL     OW 3245   1.388   2.751   2.073 -0.1003 -0.4327 -0.0182
  812SOL    HW1 3246   1.470   2.790   2.036  0.8616  2.7424 -0.1468
  812SOL    HW2 3247   1.408   2.740   2.167  0.3275  2.2810  0.1247
  812SOL     MW 3248   1.401   2.755   2.081  0.0830  0.3443 -0.0163
  813SOL     OW 3249   1.822   0.771   2.185  0.4996 -0.9539  0.0367
  813SOL    HW1 3250   1.788   0.679   2.171  0.1305 -2.9012  1.3763
  813SOL    HW2 3251   1.837   0.782   2.277 -4.2420 -2.2637 -2.3929
  813SOL     MW 3252   1.820   0.760   2.195 -0.1747 -1.3837 -0.1071
  814SOL     OW 3253   2.778   1.209   1.609  0.8147 -0.3177  0.3825
  814SOL    HW1 3254   2.708   1.198   1.680  0.3807  0.2092 -0.1815
  814SOL    HW2 3255   2.744   1.143   1.544 -0.1919  1.6712 -2.5267
  814SOL     MW 3256   2.765   1.199   1.610  0.6246  0.0142 -0.0758
  815SOL     OW 3257   2.458   1.618   2.370  0.5279  0.3180 -0.0682
  815SOL    HW1 3258   2.380   1.564   2.352  3.0347  0.3943  3.9947
  815SOL    HW2 3259   2.537   1.564   2.353 -2.1376 -0.6100  2.0415
  815SOL     MW 3260   2.458   1.604   2.365  0.5069  0.2056  0.7462
  816SOL     OW 3261   0.638   0.673   2.725  0.8264  0.7049 -0.5757
  816SOL    HW1 3262   0.667   0.589   2.763 -1.1321  2.9298 -0.7672
  816SOL    HW2 3263   0.565   0.634   2.664 -1.4974  0.8381  0.2235
  816SOL     MW 3264   0.632   0.657   2.722  0.2614  1.0160 -0.4955
  817SOL     OW 3265   3.033   1.157   1.391 -0.1263  0.0915 -0.2936
  817SOL    HW1 3266   3.081   1.166   1.475 -1.3503  3.7836 -1.1033
  817SOL    HW2 3267   3.013   1.243   1.357  1.5105  0.0064  1.5053
  817SOL     MW 3268   3.037   1.169   1.397 -0.0718  0.5674 -0.1631
  818SOL     OW 3269   1.937   0.988   2.687 -0.1738 -0.1087 -0.3652
  818SOL    HW1 3270   1.970   1.033   2.607 -2.0127 -0.9578  0.2784
  818SOL    HW2 3271   1.986   0.907   2.701 -0.5770  0.6838  0.9376
  818SOL     MW 3272   1.948   0.983   2.679 -0.4696 -0.1162 -0.1084
  819SOL     OW 3273   1.822   0.255   2.381 -0.3027  0.6012  0.3085
  819SOL    HW1 3274   1.807   0.350   2.393  2.3573 -0.4484 -0.5934
  819SOL    HW2 3275   1.896   0.241   2.443  1.8444  0.5286 -0.1918
  819SOL     MW 3276   1.830   0.266   2.391  0.3315  0.4532  0.1235
  820SOL     OW 3277   2.465   1.714   2.626 -0.4590  0.4160 -0.2766
  820SOL    HW1 3278   2.491   1.637   2.679 -3.0540 -0.1080  1.9099
  820SOL    HW2 3279   2.460   1.684   2.527 -2.5055 -2.9254 -2.1643
  820SOL     MW 3280   2.468   1.700   2.620 -1.0714 -0.0940 -0.2372
  821SOL     OW 3281   2.583   1.337   2.038 -0.0193 -0.0293  0.3879
  821SOL    HW1 3282   2.602   1.407   1.977  0.8366 -0.0526 -0.8165
  821SOL    HW2 3283   2.493   1.311   2.023  0.9511  0.2378  1.5744
  821SOL     MW 3284   2.574   1.342   2.028  0.2217  0.0029  0.3855
  822SOL     OW 3285   2.885   2.685   1.388  0.7720 -0.2635 -0.2846
  822SOL    HW1 3286   2.805   2.740   1.392 -1.3741 -0.7468 -1.6588
  822SOL    HW2 3287   2.954   2.746   1.382  0.3423  1.7902  1.6073
  822SOL     MW 3288   2.884   2.701   1.388  0.4321 -0.0563 -0.2163
  823SOL     OW 3289   2.294   0.457   1.773  0.4162 -0.7806  0.1361
  823SOL    HW1 3290   2.374   0.415   1.733  2.2700  2.9502  0.5113
  823SOL    HW2 3291   2.217   0.403   1.758 -0.7195  0.5777  0.0047
  823SOL     MW 3292   2.294   0.444   1.766  0.5109 -0.1091  0.1683
  824SOL     OW 3293   2.116   1.324   2.552  0.3642 -0.4220  0.3904
  824SOL    HW1 3294   2.180   1.348   2.476 -1.1035 -2.2654 -1.3104
  824SOL    HW2 3295   2.098   1.411   2.590 -1.4880  2.0431  0.4099
  824SOL     MW 3296   2.122   1.338   2.547 -0.0738 -0.3400  0.1686
  825SOL     OW 3297   2.197   2.399   0.398 -0.1230 -0.3543  0.0211
  825SOL    HW1 3298   2.277   2.373   0.350 -4.7687 -2.2093 -0.4672
  825SOL    HW2 3299   2.232   2.377   0.483 -1.0726  2.7166  0.5745
  825SOL     MW 3300   2.212   2.393   0.403 -0.8613 -0.1939  0.0297
  826SOL     OW 3301   1.741   2.335   0.400  0.1858  0.2286 -0.0442
  826SOL    HW1 3302   1.755   2.271   0.476 -1.3536 -0.8300  1.7047
  826SOL    HW2 3303   1.757   2.418   0.437 -0.9545  1.9011 -1.8853
  826SOL     MW 3304   1.745   2.337   0.415 -0.1678  0.3096 -0.0564
  827SOL     OW 3305   1.929   2.287   0.897 -0.4512 -0.2059 -0.5203
  827SOL    HW1 3306   1.873   2.286   0.817  1.4302  2.4706 -1.4218
  827SOL    HW2 3307   1.902   2.213   0.958  1.8386 -0.5382  1.6686
  827SOL     MW 3308   1.918   2.277   0.895  0.0992  0.1034 -0.3504
  828SOL     OW 3309   0.056   2.612   0.566 -0.5364 -0.2405 -0.3153
  828SOL    HW1 3310   0.149   2.622   0.593 -1.3327 -0.2133  3.2653
  828SOL    HW2 3311   0.059   2.645   0.472  1.2403 -1.2627 -1.0432
  828SOL     MW 3312   0.069   2.618   0.557 -0.4070 -0.3718  0.0611
  829SOL     OW 3313   3.009   2.894   1.197  0.1856 -0.1689  0.3215
  829SOL    HW1 3314   2.935   2.890   1.139  3.0139  3.3934  2.1304
  829SOL    HW2 3315   3.061   2.819   1.174 -1.4797 -1.9172 -0.5595
  829SOL     MW 3316   3.006   2.884   1.187  0.3390  0.0704  0.4439
  830SOL     OW 3317   2.522   2.781   2.002 -0.9959 -0.0296 -0.2688
  830SOL    HW1 3318   2.424   2.814   1.985  0.5076 -1.7303  0.4207
  830SOL    HW2 3319   2.568   2.789   1.914 -0.9433  0.0315  0.4459
  830SOL     MW 3320   2.515   2.786   1.988 -0.7906 -0.2459 -0.0835
  831SOL     OW 3321   2.476   2.432   1.174 -0.2886  0.0837 -0.1027
  831SOL    HW1 3322   2.456   2.366   1.239 -0.0242 -3.4745  0.4482
  831SOL    HW2 3323   2.567   2.397   1.143  0.2607  1.3027 -1.0379
  831SOL     MW 3324   2.486   2.419   1.179 -0.1812 -0.2249 -0.1534
  832SOL     OW 3325   2.415   2.132   1.882  0.0567 -0.1347  0.5637
  832SOL    HW1 3326   2.447   2.218   1.899 -1.1853 -0.0982  2.0928
  832SOL    HW2 3327   2.488   2.091   1.842 -2.2752 -1.9109  1.4434
  832SOL     MW 3328   2.429   2.138   1.879 -0.4149 -0.3643  0.8815
  833SOL     OW 3329   1.654   2.592   0.878 -0.4683 -0.5702 -0.9042
  833SOL    HW1 3330   1.630   2.508   0.927 -0.0605  2.9507 -0.3396
  833SOL    HW2 3331   1.585   2.658   0.893 -2.0315 -3.0594 -0.9235
  833SOL     MW 3332   1.642   2.590   0.886 -0.6208 -0.4341 -0.8323
  834SOL     OW 3333   2.259   2.348   0.682 -0.2852  0.0174 -0.9069
  834SOL    HW1 3334   2.209   2.272   0.702  4.5161 -0.4268  0.2537
  834SOL    HW2 3335   2.353   2.319   0.676  1.0321  2.5456  1.1128
  834SOL     MW 3336   2.265   2.334   0.684  0.5221  0.2924 -0.4873
  835SOL     OW 3337   1.729   2.545   0.612  0.2177  0.0179  0.2851
  835SOL    HW1 3338   1.705   2.540   0.705 -3.4212  0.0454 -1.2756
  835SOL    HW2 3339   1.812   2.503   0.618 -1.2268 -0.3555 -2.1697
  835SOL     MW 3340   1.737   2.539   0.625 -0.4530 -0.0278 -0.2447
  836SOL     OW 3341   2.056   2.108   1.674  0.4846 -0.4173  0.0016
  836SOL    HW1 3342   2.136   2.058   1.666  1.6484 -0.9755  1.9347
  836SOL    HW2 3343   2.085   2.193   1.711  1.5106 -1.3418  1.6478
  836SOL     MW 3344   2.070   2.112   1.677  0.7735 -0.6129  0.4739
  837SOL     OW 3345   2.101   0.193   0.632  0.2805 -0.5752  0.1569
  837SOL    HW1 3346   2.013   0.183   0.596 -3.3005  0.6667  0.6929
  837SOL    HW2 3347   2.161   0.126   0.584  2.4031 -2.3090 -0.5603
  837SOL     MW 3348   2.097   0.182   0.621  0.0881 -0.6401  0.1330
  838SOL     OW 3349   2.870   2.065   0.904  0.4699 -0.1158 -0.2296
  838SOL    HW1 3350   2.791   2.005   0.903  1.7475 -2.1901 -1.2064
  838SOL    HW2 3351   2.921   2.046   0.986  1.0301 -0.7208  1.2715
  838SOL     MW 3352   2.866   2.054   0.915  0.7124 -0.4693 -0.1605
  839SOL     OW 3353   1.577   2.376   1.046 -0.2198  0.6080  0.1073
  839SOL    HW1 3354   1.512   2.431   1.096  3.4236  0.0489 -0.5618
  839SOL    HW2 3355   1.595   2.288   1.098 -0.0537 -3.5532  2.7528
  839SOL     MW 3356   1.571   2.372   1.059  0.2828 -0.0148  0.3681
  840SOL     OW 3357   2.416   2.098   2.380  0.2866 -0.0514 -0.8144
  840SOL    HW1 3358   2.358   2.173   2.353  0.5451  3.4565 -0.5811
  840SOL    HW2 3359   2.458   2.140   2.454  1.7950  1.5772 -3.3952
  840SOL     MW 3360   2.414   2.114   2.386  0.5197  0.6263 -1.1241
  841SOL     OW 3361   2.314   2.322   0.091  0.1262 -0.7934  0.5071
  841SOL    HW1 3362   2.348   2.399   0.047 -0.7306 -2.9025 -1.4429
  841SOL    HW2 3363   2.223   2.305   0.059  0.0694 -0.1409 -0.3719
  841SOL     MW 3364   2.306   2.330   0.081  0.0056 -0.9856  0.1339
  842SOL     OW 3365   2.662   1.919   1.412 -0.2428 -0.2900 -0.0896
  842SOL    HW1 3366   2.591   1.866   1.384 -0.2923 -0.9059  0.4683
  842SOL    HW2 3367   2.664   1.995   1.353 -0.8150  0.0579 -0.4919
  842SOL     MW 3368   2.653   1.922   1.401 -0.3248 -0.3253 -0.0690
  843SOL     OW 3369   2.647   2.783   1.736  0.0725 -0.1171 -0.0956
  843SOL    HW1 3370   2.736   2.744   1.757  0.3161  3.6187  2.6108
  843SOL    HW2 3371   2.589   2.709   1.708 -2.2183 -0.4088 -2.6396
  843SOL     MW 3372   2.651   2.768   1.735 -0.1976  0.3373 -0.0742
  844SOL     OW 3373   2.709   2.331   1.112 -0.2051 -0.5062  0.2839
  844SOL    HW1 3374   2.739   2.380   1.033 -2.4645  0.2202  1.5560
  844SOL    HW2 3375   2.777   2.348   1.178  1.3358  0.6087 -2.2988
  844SOL     MW 3376   2.722   2.340   1.110 -0.2999 -0.2632  0.1110
  845SOL     OW 3377   2.837   2.577   0.298 -0.0881  0.5839  0.2335
  845SOL    HW1 3378   2.820   2.502   0.349  1.6720  0.7688 -0.6196
  845SOL    HW2 3379   2.831   2.638   0.373  0.5723  0.4808  0.5753
  845SOL     MW 3380   2.834   2.575   0.315  0.2312  0.5947  0.1660
  846SOL     OW 3381   1.461   2.787   0.784  0.2762 -0.5706  0.4627
  846SOL    HW1 3382   1.507   2.873   0.793  0.4579 -0.4888 -1.2106
  846SOL    HW2 3383   1.364   2.805   0.771 -0.6600 -0.9562 -0.4455
  846SOL     MW 3384   1.454   2.800   0.783  0.1766 -0.6107  0.1221
  847SOL     OW 3385   2.495   1.863   0.196  0.2448 -0.6980  0.4844
  847SOL    HW1 3386   2.451   1.783   0.223  0.3265  2.0232  0.3374
  847SOL    HW2 3387   2.481   1.869   0.092  0.2441 -1.4760 -0.6127
  847SOL     MW 3388   2.487   1.853   0.186  0.2555 -0.4416  0.3202
  848SOL     OW 3389   2.662   2.087   1.200  0.6563  0.0246  0.4365
  848SOL    HW1 3390   2.681   2.169   1.156  1.0750 -4.9279 -0.8385
  848SOL    HW2 3391   2.687   2.024   1.127  0.3890 -0.0160 -1.1110
  848SOL     MW 3392   2.668   2.089   1.184  0.6763 -0.6342  0.0641
  849SOL     OW 3393   1.977   2.860   0.785 -0.0442  0.0359 -0.2447
  849SOL    HW1 3394   1.958   2.815   0.868 -0.7967  1.5518  1.2616
  849SOL    HW2 3395   2.034   2.796   0.745 -1.6645 -0.6899 -0.3066
  849SOL     MW 3396   1.982   2.846   0.790 -0.3573  0.1401 -0.0541
  850SOL     OW 3397   2.334   1.861   1.620 -0.0936  0.6771 -0.3742
  850SOL    HW1 3398   2.248   1.833   1.584 -1.2489  1.4854 -3.0295
  850SOL    HW2 3399   2.330   1.963   1.619 -1.1813  2.5533 -1.9123
  850SOL     MW 3400   2.322   1.871   1.615 -0.3896  1.0313 -0.9275
  851SOL     OW 3401   2.422   2.262   0.357  0.8535 -0.8767  0.6157
  851SOL    HW1 3402   2.425   2.264   0.263  0.6126  0.2151  1.4239
  851SOL    HW2 3403   2.482   2.336   0.392  0.1418  2.6690  0.4345
  851SOL     MW 3404   2.431   2.272   0.349  0.7278 -0.2648  0.6985
  852SOL     OW 3405   2.317   2.002   0.356 -0.0116  0.3461  0.4905
  852SOL    HW1 3406   2.327   2.095   0.350 -0.5285 -0.2960  1.8410
  852SOL    HW2 3407   2.375   1.962   0.284 -0.0539  2.8364  1.2832
  852SOL     MW 3408   2.326   2.009   0.346 -0.0854  0.5900  0.7733
  853SOL     OW 3409   2.513   2.379   1.925 -0.0157 -0.1502  0.0779
  853SOL    HW1 3410   2.503   2.440   1.851  1.3794  0.9581 -1.6106
  853SOL    HW2 3411   2.611   2.379   1.927  0.0844  0.0649 -0.4990
  853SOL     MW 3412   2.525   2.387   1.916  0.1816  0.0244 -0.2210
  854SOL     OW 3413   2.862   2.266   0.722  0.3752  0.5918  0.1637
  854SOL    HW1 3414   2.770   2.260   0.686 -0.8274 -2.0052  0.5719
  854SOL    HW2 3415   2.867   2.188   0.782  1.5029 -0.6378 -0.0827
  854SOL     MW 3416   2.850   2.255   0.725  0.3653  0.0869  0.1850
  855SOL     OW 3417   2.765   2.366   0.444  0.1079 -0.2193 -0.1450
  855SOL    HW1 3418   2.698   2.335   0.504 -1.9623 -1.0589 -0.3690
  855SOL    HW2 3419   2.798   2.282   0.404 -0.0081  0.3403 -0.6997
  855SOL     MW 3420   2.760   2.351   0.446 -0.1805 -0.2563 -0.2477
  856SOL     OW 3421   2.061   1.887   0.262 -0.0896 -0.7021 -0.4512
  856SOL    HW1 3422   1.968   1.903   0.289 -0.7122  1.1517  0.6828
  856SOL    HW2 3423   2.122   1.949   0.303 -1.6905 -0.3730  0.3060
  856SOL     MW 3424   2.057   1.897   0.271 -0.3830 -0.4141 -0.2017
  857SOL     OW 3425   2.492   1.945   0.556 -0.9028  0.1798  0.2926
  857SOL    HW1 3426   2.427   1.975   0.489 -0.2878  0.7860 -0.7491
  857SOL    HW2 3427   2.449   1.894   0.627  0.9864 -0.5146  3.8436
  857SOL     MW 3428   2.478   1.942   0.557 -0.5724  0.1681  0.6237
  858SOL     OW 3429   2.882   2.684   1.782  0.4693  0.2677 -0.1740
  858SOL    HW1 3430   2.955   2.725   1.826  0.1875 -0.5547  2.9038
  858SOL    HW2 3431   2.920   2.605   1.736 -0.2534  0.1926 -2.1931
  858SOL     MW 3432   2.897   2.679   1.781  0.3367  0.1493 -0.0343
  859SOL     OW 3433   1.869   2.699   1.013 -0.5656 -0.5351  0.0967
  859SOL    HW1 3434   1.799   2.646   0.976 -2.2954 -0.2389 -2.9991
  859SOL    HW2 3435   1.926   2.629   1.030  1.0165  0.1751 -1.0350
  859SOL     MW 3436   1.867   2.683   1.011 -0.5851 -0.4023 -0.4611
  860SOL     OW 3437   2.606   2.623   0.177  0.3171 -0.9516  0.1848
  860SOL    HW1 3438   2.691   2.609   0.228  0.5593  1.3708 -1.0797
  860SOL    HW2 3439   2.635   2.666   0.100 -1.0500 -1.0425  1.9032
  860SOL     MW 3440   2.621   2.627   0.173  0.1687 -0.6572  0.2447
  861SOL     OW 3441   1.640   2.149   1.200 -0.1260 -0.3606 -0.0436
  861SOL    HW1 3442   1.693   2.167   1.274 -0.4611 -0.7643  0.1972
  861SOL    HW2 3443   1.573   2.085   1.225 -2.0154  0.4793  1.5260
  861SOL     MW 3444   1.638   2.143   1.213 -0.4195 -0.3030  0.1953
  862SOL     OW 3445   2.452   1.748   1.423 -0.8869  0.0961 -0.0388
  862SOL    HW1 3446   2.402   1.810   1.477 -0.6982 -3.4894  3.2628
  862SOL    HW2 3447   2.392   1.716   1.355  1.4440 -1.2757  1.2622
  862SOL     MW 3448   2.437   1.752   1.421 -0.5545 -0.5580  0.5685
  863SOL     OW 3449   3.008   1.692   0.978 -0.0204 -0.1962  0.4648
  863SOL    HW1 3450   3.080   1.751   1.003 -0.4246  1.2420  1.2267
  863SOL    HW2 3451   2.943   1.728   1.038 -2.3765 -1.1792  0.2169
  863SOL     MW 3452   3.009   1.704   0.989 -0.3846 -0.1361  0.5326
  864SOL     OW 3453   0.020   1.810   0.743 -0.0951 -0.2995 -0.5237
  864SOL    HW1 3454  -0.037   1.760   0.799  1.6782 -1.8124 -0.8568
  864SOL    HW2 3455  -0.008   1.788   0.655  1.1132  0.3452  0.3016
  864SOL     MW 3456   0.009   1.800   0.739  0.2983 -0.4141 -0.4587
  865SOL     OW 3457   2.585   2.170   0.098 -0.5388 -0.1582  0.1586
  865SOL    HW1 3458   2.544   2.096   0.138  0.7315  0.6330 -0.9094
  865SOL    HW2 3459   2.542   2.200   0.018 -3.8199 -1.5147  0.1674
  865SOL     MW 3460   2.574   2.164   0.093 -0.8041 -0.2328  0.0189
  866SOL     OW 3461   2.661   2.393   1.542 -0.0746  0.0303  0.3077
  866SOL    HW1 3462   2.665   2.298   1.552  0.5399 -0.6934  1.9278
  866SOL    HW2 3463   2.707   2.402   1.464  0.8420 -1.8079  1.9931
  866SOL     MW 3464   2.667   2.381   1.533  0.1274 -0.3077  0.7438
  867SOL     OW 3465   0.108   2.660   1.747 -0.1615  0.5105 -0.2844
  867SOL    HW1 3466   0.141   2.742   1.780  1.4120 -1.3827  0.8430
  867SOL    HW2 3467   0.074   2.691   1.666 -1.0000  1.0666 -2.0944
  867SOL     MW 3468   0.108   2.675   1.741 -0.0645  0.3341 -0.3745
  868SOL     OW 3469   2.762   2.704   0.516  0.0242 -0.3897 -0.0724
  868SOL    HW1 3470   2.730   2.619   0.522  4.1223  2.6020  3.9661
  868SOL    HW2 3471   2.682   2.748   0.490 -1.7005  0.1157  2.3649
  868SOL     MW 3472   2.747   2.699   0.513  0.3373  0.0717  0.7820
  869SOL     OW 3473   2.057   2.507   1.051 -0.5856 -0.3367  0.3809
  869SOL    HW1 3474   2.128   2.547   1.000 -0.9852 -0.0074 -1.3785
  869SOL    HW2 3475   2.015   2.447   0.989  0.4899 -0.2158 -3.8999
  869SOL     MW 3476   2.061   2.504   1.036 -0.4965 -0.2773 -0.4160
  870SOL     OW 3477   2.218   0.002   0.476  0.6850 -0.5147  0.2058
  870SOL    HW1 3478   2.292   0.047   0.429 -0.7439 -0.7691 -2.6990
  870SOL    HW2 3479   2.246  -0.080   0.506 -1.5667  1.5958  1.7717
  870SOL     MW 3480   2.231  -0.003   0.474  0.1994 -0.2698  0.0292
  871SOL     OW 3481   2.468   2.115   0.877  0.1025  0.0888  0.5204
  871SOL    HW1 3482   2.407   2.053   0.838 -2.4885  4.4439 -1.9418
  871SOL    HW2 3483   2.432   2.204   0.885  2.4526  0.0817 -1.6052
  871SOL     MW 3484   2.455   2.118   0.873  0.0707  0.6625 -0.0849
  872SOL     OW 3485   2.134   2.560   1.540  0.3782 -0.3375  0.0762
  872SOL    HW1 3486   2.067   2.620   1.579 -1.1160 -0.8018  0.3178
  872SOL    HW2 3487   2.090   2.527   1.459 -3.1233 -2.0218 -0.3633
  872SOL     MW 3488   2.120   2.564   1.534 -0.2809 -0.6210  0.0501
  873SOL     OW 3489   2.855   2.093   1.833  0.2778  0.1871  0.2668
  873SOL    HW1 3490   2.829   2.176   1.873 -2.0370  1.1525  0.2821
  873SOL    HW2 3491   2.950   2.104   1.809  0.0247 -1.2502 -0.9844
  873SOL     MW 3492   2.864   2.106   1.835 -0.0610  0.1248  0.1038
  874SOL     OW 3493   2.284   1.408   2.327 -0.4689 -0.3817  0.1099
  874SOL    HW1 3494   2.239   1.356   2.256 -0.8551 -3.5755 -0.4958
  874SOL    HW2 3495   2.365   1.353   2.345  0.8880 -5.2049  1.0716
  874SOL     MW 3496   2.289   1.394   2.320 -0.3408 -1.4395  0.1568
  875SOL     OW 3497   2.364   2.360   0.944  0.2520  0.1005 -0.1179
  875SOL    HW1 3498   2.389   2.415   0.865  1.5986  2.8897  0.2730
  875SOL    HW2 3499   2.400   2.407   1.026  2.2473  0.4304  0.0221
  875SOL     MW 3500   2.372   2.373   0.944  0.6929  0.5120 -0.0479
  876SOL     OW 3501   0.002   2.258   1.343  0.1270 -0.1850 -0.6389
  876SOL    HW1 3502   0.046   2.290   1.263  0.7576  1.0975  0.3903
  876SOL    HW2 3503   0.050   2.304   1.418 -0.4125 -0.7730 -0.5128
  876SOL     MW 3504   0.014   2.269   1.343  0.1390 -0.0934 -0.4865
  877SOL     OW 3505   0.059   2.757   0.335 -0.1016  0.0029 -0.1837
  877SOL    HW1 3506   0.098   2.844   0.342  0.1247  0.8277  1.3582
  877SOL    HW2 3507   0.053   2.750   0.244 -0.2678  1.5263  0.7528
  877SOL     MW 3508   0.063   2.768   0.324 -0.0937  0.3128  0.1433
  878SOL     OW 3509   2.303   1.712   1.215 -0.4755  0.0264 -0.2793
  878SOL    HW1 3510   2.219   1.660   1.250  0.2649 -0.5697 -0.3892
  878SOL    HW2 3511   2.355   1.637   1.179 -0.8534  1.4606  2.6703
  878SOL     MW 3512   2.299   1.696   1.215 -0.4276  0.1370  0.0953
  879SOL     OW 3513   2.748   2.473   0.895  0.1870  0.4478 -0.7705
  879SOL    HW1 3514   2.817   2.534   0.923 -2.6680 -0.3755 -0.3346
  879SOL    HW2 3515   2.779   2.412   0.829 -0.0252  0.9603  1.9945
  879SOL     MW 3516   2.761   2.473   0.890 -0.2177  0.4068 -0.3481
  880SOL     OW 3517   2.586   2.230   0.635 -0.2839 -0.0680  0.1457
  880SOL    HW1 3518   2.554   2.186   0.717 -2.2096 -0.0686  0.0081
  880SOL    HW2 3519   2.572   2.151   0.577  3.0148  1.7560  1.0968
  880SOL     MW 3520   2.580   2.214   0.638 -0.1027  0.1726  0.2530
  881SOL     OW 3521   2.961   2.761   0.692  0.6178  0.0908 -0.2878
  881SOL    HW1 3522   2.886   2.736   0.640  3.4904 -1.1531 -1.1796
  881SOL    HW2 3523   3.023   2.717   0.635 -3.5371  0.1816 -0.6336
  881SOL     MW 3524   2.959   2.752   0.678  0.4486 -0.0613 -0.4511
  882SOL     OW 3525   2.261   2.881   1.941 -0.4790  0.2800  0.0642
  882SOL    HW1 3526   2.255   2.902   1.845 -2.6163  1.7830  2.2400
  882SOL    HW2 3527   2.212   2.796   1.946  1.8495  0.0153 -0.3886
  882SOL     MW 3528   2.254   2.873   1.929 -0.4538  0.4434  0.2915
  883SOL     OW 3529   2.433   2.201   1.320  0.0425 -0.8058 -0.1563
  883SOL    HW1 3530   2.505   2.154   1.278 -1.1495  0.8941  2.4904
  883SOL    HW2 3531   2.360   2.190   1.252  0.2759 -1.0107  0.7117
  883SOL     MW 3532   2.433   2.193   1.305 -0.0840 -0.6086  0.3074
  884SOL     OW 3533   1.937   1.829   1.068  0.0984  0.3686 -0.4548
  884SOL    HW1 3534   1.898   1.919   1.058 -2.1442 -0.0907 -0.8778
  884SOL    HW2 3535   2.030   1.839   1.054 -0.9180  0.8965  1.1696
  884SOL     MW 3536   1.944   1.842   1.065 -0.3316  0.3776 -0.2963
  885SOL     OW 3537   2.891   2.397   1.698  0.0701  0.4750 -0.0253
  885SOL    HW1 3538   2.943   2.317   1.668  1.9591  2.2313  1.6406
  885SOL    HW2 3539   2.823   2.407   1.633 -1.3534  2.2904  0.1932
  885SOL     MW 3540   2.889   2.388   1.686  0.1315  0.9462  0.2233
  886SOL     OW 3541   2.873   2.423   1.319  0.0510  0.6506 -0.9203
  886SOL    HW1 3542   2.954   2.370   1.311 -0.8196  2.7585 -2.0680
  886SOL    HW2 3543   2.892   2.525   1.338  3.0947  1.0588 -2.0474
  886SOL     MW 3544   2.886   2.429   1.321  0.3378  0.9825 -1.2204
  887SOL     OW 3545   2.362   2.698   1.520 -0.2522  0.0581  0.1722
  887SOL    HW1 3546   2.399   2.717   1.435 -2.6246  1.5069  0.4627
  887SOL    HW2 3547   2.279   2.651   1.496  0.3501  0.8948  0.8396
  887SOL     MW 3548   2.356   2.694   1.506 -0.4857  0.3596  0.2986
  888SOL     OW 3549   2.058   2.166   1.381  0.1685 -0.2653  0.5304
  888SOL    HW1 3550   2.099   2.185   1.297  0.3472 -0.3698  0.8733
  888SOL    HW2 3551   2.119   2.188   1.453 -0.8840 -0.0792 -1.2500
  888SOL     MW 3552   2.072   2.171   1.380  0.0532 -0.2545  0.3407
  889SOL     OW 3553   2.270   1.919   2.024 -0.0855  0.2341 -0.1553
  889SOL    HW1 3554   2.349   1.898   2.078 -1.1097 -0.1599  0.3579
  889SOL    HW2 3555   2.309   1.995   1.974  1.4187  1.1749  0.6188
  889SOL     MW 3556   2.285   1.926   2.025 -0.0222  0.3063  0.0145
  890SOL     OW 3557   0.048   2.342   0.155  0.4168  0.0149 -0.1849
  890SOL    HW1 3558   0.006   2.430   0.150  1.6932  1.0131 -2.2686
  890SOL    HW2 3559   0.028   2.303   0.243 -0.3724 -2.9456  2.6812
  890SOL     MW 3560   0.040   2.348   0.166  0.4811 -0.2440 -0.0816
  891SOL     OW 3561   3.008   2.036   1.151  0.2874 -0.3348 -0.2093
  891SOL    HW1 3562   3.060   1.967   1.184 -1.4614  0.9234 -0.9709
  891SOL    HW2 3563   3.041   2.111   1.203  3.4118 -1.9209  2.3650
  891SOL     MW 3564   3.019   2.037   1.163  0.4689 -0.3781  0.0299
  892SOL     OW 3565   2.490   2.398   2.820 -0.5336 -0.2708 -0.6939
  892SOL    HW1 3566   2.483   2.316   2.870  1.3581  0.1829  1.8992
  892SOL    HW2 3567   2.577   2.442   2.853  1.8210 -1.3813  0.4304
  892SOL     MW 3568   2.501   2.393   2.831  0.0266 -0.3575 -0.2034
  893SOL     OW 3569   1.666   2.367   1.390 -0.3189 -0.3840  0.0504
  893SOL    HW1 3570   1.588   2.391   1.444 -1.8858  0.8861  1.2525
  893SOL    HW2 3571   1.733   2.433   1.397  0.9353 -1.3144 -1.1189
  893SOL     MW 3572   1.664   2.379   1.398 -0.3602 -0.3392  0.0547
  894SOL     OW 3573   2.752   1.870   0.456 -0.0529 -0.2164 -0.3443
  894SOL    HW1 3574   2.662   1.901   0.489 -3.4806  1.6940  0.1154
  894SOL    HW2 3575   2.754   1.856   0.362  2.0286  1.2529 -0.3644
  894SOL     MW 3576   2.741   1.872   0.448 -0.2305  0.2296 -0.2863
  895SOL     OW 3577   2.221   2.175   1.103  0.5698 -0.5189 -0.0712
  895SOL    HW1 3578   2.250   2.240   1.041  2.5782 -0.5632  1.6726
  895SOL    HW2 3579   2.226   2.090   1.065 -0.1578 -1.8462 -0.2375
  895SOL     MW 3580   2.225   2.173   1.090  0.7388 -0.6998  0.1370
  896SOL     OW 3581   2.201   2.755   1.077 -0.1028  0.3457 -0.1209
  896SOL    HW1 3582   2.278   2.755   1.140  0.0878 -1.7607 -0.9586
  896SOL    HW2 3583   2.138   2.802   1.129  1.9238  0.3822  0.4633
  896SOL     MW 3584   2.203   2.761   1.092  0.1897  0.0726 -0.1544
  897SOL     OW 3585   3.054   3.025   0.003  0.1006  0.2167  0.0288
  897SOL    HW1 3586   3.109   2.946   0.009  1.5025 -2.5042  0.3829
  897SOL    HW2 3587   2.966   2.993  -0.028  0.6254 -0.8592  0.7064
  897SOL     MW 3588   3.050   3.010  -0.000  0.3548 -0.2843  0.1650
  898SOL     OW 3589   2.153   0.136   1.455  1.0967 -0.2396  0.0423
  898SOL    HW1 3590   2.100   0.055   1.476 -1.5564  1.2518 -0.8456
  898SOL    HW2 3591   2.135   0.151   1.366  2.0543  2.5721  0.0327
  898SOL     MW 3592   2.144   0.127   1.446  0.8730  0.3282 -0.0761
  899SOL     OW 3593   2.886   3.034   0.598  0.3967 -0.2771 -0.2257
  899SOL    HW1 3594   2.918   2.971   0.666 -0.9719  1.8448  1.3967
  899SOL    HW2 3595   2.793   3.052   0.612 -0.5497  0.0117  0.9244
  899SOL     MW 3596   2.878   3.028   0.609  0.0913  0.0410  0.1401
  900SOL     OW 3597   0.095   2.344   1.086  0.0581 -0.1865  0.3761
  900SOL    HW1 3598   0.066   2.431   1.059  3.2719  0.5055  0.1498
  900SOL    HW2 3599   0.120   2.292   1.008 -1.6835 -0.7337 -0.2346
  900SOL     MW 3600   0.095   2.349   1.072  0.2524 -0.1674  0.2656
  901SOL     OW 3601   1.749   2.858   1.793 -0.4069  0.3334 -0.3795
  901SOL    HW1 3602   1.822   2.817   1.750  0.9190 -0.8370  2.1705
  901SOL    HW2 3603   1.685   2.843   1.724 -0.9380  0.6358 -0.6069
  901SOL     MW 3604   1.750   2.851   1.778 -0.3020  0.2189 -0.0731
  902SOL     OW 3605   2.638   2.117   1.604 -0.0104 -0.0425  0.7077
  902SOL    HW1 3606   2.633   2.032   1.555 -0.1445 -1.7304 -0.0061
  902SOL    HW2 3607   2.706   2.105   1.668 -0.3533 -0.2847  0.2388
  902SOL     MW 3608   2.646   2.104   1.606 -0.0733 -0.2971  0.5517
  903SOL     OW 3609   1.501   2.658   0.551  0.2414 -0.2188 -0.7017
  903SOL    HW1 3610   1.595   2.621   0.558  0.2109 -2.6030 -5.3795
  903SOL    HW2 3611   1.499   2.733   0.623  0.2380  2.1990  1.3200
  903SOL     MW 3612   1.513   2.663   0.562  0.2369 -0.2144 -1.0521
  904SOL     OW 3613   2.499   2.534   1.697  0.8066 -0.4189 -0.0157
  904SOL    HW1 3614   2.437   2.595   1.645 -0.8632  1.8694  0.9905
  904SOL    HW2 3615   2.544   2.487   1.627 -0.0212 -1.6372  0.5942
  904SOL     MW 3616   2.497   2.536   1.681  0.4771 -0.2777  0.1976
  905SOL     OW 3617   2.294   2.453   2.091  0.1614  0.2070 -0.0135
  905SOL    HW1 3618   2.372   2.423   2.045  0.3542  0.0639  0.6423
  905SOL    HW2 3619   2.264   2.387   2.170 -0.5039  0.7961  0.0606
  905SOL     MW 3620   2.300   2.440   2.095  0.0990  0.2658  0.0828
  906SOL     OW 3621   2.491   2.524   0.759 -0.1929  0.2358  0.1200
  906SOL    HW1 3622   2.582   2.517   0.780  1.9591  0.3671 -0.8682
  906SOL    HW2 3623   2.466   2.601   0.808 -0.6200  0.7854  0.4736
  906SOL     MW 3624   2.499   2.533   0.768  0.0346  0.3256  0.0363
  907SOL     OW 3625   2.650   2.884   1.266  0.5697 -0.1301 -0.0292
  907SOL    HW1 3626   2.712   2.921   1.335  2.5232 -0.4218  1.2591
  907SOL    HW2 3627   2.703   2.853   1.199 -3.9740 -3.4598  0.3889
  907SOL     MW 3628   2.665   2.885   1.267  0.2280 -0.6079  0.1959
  908SOL     OW 3629   2.725   2.415   0.027  0.0155 -0.6989 -0.3327
  908SOL    HW1 3630   2.697   2.325   0.047  4.0846 -0.8566 -0.2831
  908SOL    HW2 3631   2.668   2.480   0.071 -2.3114  0.6963  0.7556
  908SOL     MW 3632   2.714   2.411   0.035  0.2454 -0.5356 -0.1826
  909SOL     OW 3633   1.699   0.108   1.287 -0.0919 -0.7511  0.2273
  909SOL    HW1 3634   1.658   0.192   1.299 -1.3464 -1.0873  2.4010
  909SOL    HW2 3635   1.684   0.075   1.375 -0.2453  1.2006 -0.7603
  909SOL     MW 3636   1.692   0.115   1.300 -0.2777 -0.5380  0.3838
  910SOL     OW 3637   2.135   1.632   0.394 -0.6392  0.0718 -0.0140
  910SOL    HW1 3638   2.116   1.535   0.375 -0.2129 -0.0217  2.0468
  910SOL    HW2 3639   2.098   1.696   0.332  1.4579 -0.0820  1.1980
  910SOL     MW 3640   2.127   1.628   0.383 -0.3063  0.0392  0.4178
  911SOL     OW 3641   2.339   2.127   1.585  0.1837  0.0003  0.1292
  911SOL    HW1 3642   2.424   2.156   1.630 -0.7507 -0.1137 -0.5691
  911SOL    HW2 3643   2.357   2.135   1.489 -0.0927 -0.3430  0.4654
  911SOL     MW 3644   2.353   2.132   1.578  0.0239 -0.0600  0.0814
  912SOL     OW 3645   2.916   1.871   1.402 -0.3850  0.0053 -0.2813
  912SOL    HW1 3646   2.939   1.902   1.323 -0.7581  1.0960  1.8406
  912SOL    HW2 3647   2.824   1.890   1.414  1.6416 -1.0477  1.6468
  912SOL     MW 3648   2.907   1.877   1.393 -0.1669  0.0103  0.2531
  913SOL     OW 3649   2.705   3.079   0.262 -0.0279  0.0970 -0.0993
  913SOL    HW1 3650   2.794   3.036   0.262 -1.0136 -1.3542 -2.4956
  913SOL    HW2 3651   2.640   3.003   0.259 -3.4562  1.2279  1.1936
  913SOL     MW 3652   2.708   3.063   0.262 -0.6103  0.0547 -0.2449
  914SOL     OW 3653   2.710   1.813   2.930 -0.0630 -0.0060  0.0637
  914SOL    HW1 3654   2.724   1.910   2.936 -1.7893 -1.9782  0.5150
  914SOL    HW2 3655   2.622   1.804   2.956  2.5887 -0.7931 -0.3184
  914SOL     MW 3656   2.700   1.824   2.934  0.0591 -0.3701  0.0728
  915SOL     OW 3657   1.814   0.120   0.103  0.0987  0.1786  0.3005
  915SOL    HW1 3658   1.881   0.063   0.142  2.7269 -0.4818 -0.1873
  915SOL    HW2 3659   1.726   0.087   0.131  1.5035 -0.1812 -2.5798
  915SOL     MW 3660   1.811   0.108   0.112  0.6308  0.0440 -0.1439
  916SOL     OW 3661   1.754   2.176   2.013  0.2599 -0.1032  0.1696
  916SOL    HW1 3662   1.800   2.259   1.997 -0.9370 -1.3129 -0.0684
  916SOL    HW2 3663   1.771   2.117   1.941 -0.9359 -2.1314  2.4527
  916SOL     MW 3664   1.762   2.179   2.002 -0.0558 -0.5304  0.4394
  917SOL     OW 3665   2.528   2.223   2.592  0.4959 -0.1070 -0.0337
  917SOL    HW1 3666   2.489   2.289   2.655 -0.6486 -0.1409  0.9622
  917SOL    HW2 3667   2.612   2.257   2.569  3.1813 -1.5639  0.2070
  917SOL     MW 3668   2.534   2.236   2.597  0.6992 -0.3037  0.1295
  918SOL     OW 3669   2.090   1.620   2.629  0.1578  0.4066  0.4613
  918SOL    HW1 3670   2.010   1.660   2.598 -0.9151  1.6348 -1.8364
  918SOL    HW2 3671   2.150   1.698   2.637 -0.3192  0.0409  0.2260
  918SOL     MW 3672   2.087   1.635   2.626 -0.0467  0.5204  0.1271
  919SOL     OW 3673   3.089   2.415   2.239 -0.0516  0.1991 -0.5282
  919SOL    HW1 3674   3.034   2.339   2.242  0.0768 -2.0079  3.7779
  919SOL    HW2 3675   3.139   2.421   2.157 -1.2961  1.6019 -0.2613
  919SOL     MW 3676   3.088   2.406   2.228 -0.1989  0.0930  0.0752
  920SOL     OW 3677   2.659   2.760   3.039 -0.3830  0.2932  0.0260
  920SOL    HW1 3678   2.575   2.793   3.025  1.7802  0.2217  1.3019
  920SOL    HW2 3679   2.710   2.756   2.954  0.9620 -0.1749  2.2847
  920SOL     MW 3680   2.655   2.763   3.026  0.0799  0.2220  0.4923
  921SOL     OW 3681   2.483   2.632   2.635 -0.1679 -0.1254  0.1249
  921SOL    HW1 3682   2.563   2.659   2.587  1.2625 -0.2977  1.8511
  921SOL    HW2 3683   2.503   2.556   2.688 -1.7737  0.2775  1.9664
  921SOL     MW 3684   2.496   2.625   2.635 -0.1911 -0.0949  0.5956
  922SOL     OW 3685   2.088   2.683   0.412 -0.1437 -0.7568  0.1745
  922SOL    HW1 3686   2.073   2.688   0.318 -2.5248 -2.0071  2.7664
  922SOL    HW2 3687   2.130   2.593   0.421  2.0282  2.7865  0.5236
  922SOL     MW 3688   2.092   2.672   0.401 -0.1713 -0.4542  0.5625
  923SOL     OW 3689   2.197   2.899   1.676  0.0480  0.3737  0.3747
  923SOL    HW1 3690   2.264   2.848   1.625  1.5885  2.1143 -0.6967
  923SOL    HW2 3691   2.149   2.942   1.605 -0.9101 -0.0088  0.8118
  923SOL     MW 3692   2.200   2.898   1.660  0.1249  0.5529  0.2910
  924SOL     OW 3693   1.070   2.740   2.605 -0.4599  0.0739  0.1928
  924SOL    HW1 3694   1.169   2.761   2.612 -0.5027  0.3603  0.9677
  924SOL    HW2 3695   1.054   2.664   2.657 -1.1321 -1.9167 -0.1364
  924SOL     MW 3696   1.081   2.733   2.613 -0.5542 -0.1510  0.2516
  925SOL     OW 3697   2.983   0.239   2.660  0.1918 -0.0456 -0.5676
  925SOL    HW1 3698   2.953   0.240   2.565 -0.5277  0.6367 -0.0948
  925SOL    HW2 3699   2.957   0.318   2.700  0.6518  0.5442 -1.4044
  925SOL     MW 3700   2.975   0.249   2.652  0.1576  0.1223 -0.6156
  926SOL     OW 3701   2.806   2.359   1.953  0.0881  0.4310 -0.5185
  926SOL    HW1 3702   2.831   2.441   1.999 -1.0143 -2.3939 -1.5908
  926SOL    HW2 3703   2.833   2.380   1.861  1.8314  0.4885  0.3417
  926SOL     MW 3704   2.813   2.373   1.947  0.1727  0.0659 -0.5465
  927SOL     OW 3705   2.372   0.155   0.287 -0.0422  0.1225  0.1726
  927SOL    HW1 3706   2.462   0.188   0.303  1.2083 -0.2908  3.1219
  927SOL    HW2 3707   2.366   0.126   0.196 -2.0286 -1.1629 -2.3723
  927SOL     MW 3708   2.383   0.156   0.277 -0.1393 -0.1016  0.2260
  928SOL     OW 3709   2.135   2.354   1.783  0.5386 -0.7535  0.7718
  928SOL    HW1 3710   2.154   2.413   1.711 -0.0790  1.2594  1.5754
  928SOL    HW2 3711   2.222   2.333   1.819  1.0620  3.2930 -1.9138
  928SOL     MW 3712   2.149   2.359   1.778  0.5261  0.0460  0.5235
  929SOL     OW 3713   2.766   2.351   2.489 -0.3887 -0.1032  0.1633
  929SOL    HW1 3714   2.821   2.323   2.413 -0.3050  0.1934 -6.2382
  929SOL    HW2 3715   2.820   2.334   2.567  0.1358 -0.9123  0.7224
  929SOL     MW 3716   2.780   2.345   2.489 -0.3085 -0.1708 -0.6075
  930SOL     OW 3717   2.042   2.800   2.672 -0.3161 -0.0668 -0.2696
  930SOL    HW1 3718   2.080   2.745   2.737 -3.9773 -0.2211  0.2988
  930SOL    HW2 3719   2.113   2.853   2.641  2.2824  0.7119  2.0692
  930SOL     MW 3720   2.056   2.800   2.676 -0.4563  0.0156  0.1140
  931SOL     OW 3721   0.041   2.776   2.462  0.2653  0.0793 -0.1432
  931SOL    HW1 3722   0.016   2.822   2.548  0.0455  0.4146 -3.9959
  931SOL    HW2 3723   0.126   2.819   2.433 -1.2777  1.2246 -2.9446
  931SOL     MW 3724   0.049   2.788   2.470  0.0327  0.2747 -1.0211
  932SOL     OW 3725   2.837   1.966   2.527 -0.1018  0.6925  0.1839
  932SOL    HW1 3726   2.929   1.997   2.527  1.6782 -1.7391 -0.2788
  932SOL    HW2 3727   2.815   1.960   2.432 -1.7706  0.2718  1.1878
  932SOL     MW 3728   2.846   1.969   2.515 -0.0871  0.3162  0.2553
  933SOL     OW 3729   2.081   2.802   2.209  0.2221  0.2720 -0.1414
  933SOL    HW1 3730   2.166   2.834   2.242  3.5929  0.9489  0.9105
  933SOL    HW2 3731   2.031   2.875   2.197  0.8344 -1.3207  0.5742
  933SOL     MW 3732   2.086   2.816   2.212  0.7476  0.1512  0.0918
  934SOL     OW 3733   2.017   2.649   2.429  0.0419  0.3132  0.2136
  934SOL    HW1 3734   2.050   2.707   2.496 -0.4674 -1.1834 -2.8214
  934SOL    HW2 3735   2.063   2.683   2.343  0.3851  0.3090  0.8913
  934SOL     MW 3736   2.027   2.661   2.427  0.0200  0.1152 -0.0974
  935SOL     OW 3737   2.641   1.480   1.768  0.2439 -0.5906 -0.1754
  935SOL    HW1 3738   2.736   1.488   1.753  0.8768  0.5820  1.4938
  935SOL    HW2 3739   2.587   1.466   1.686 -2.5559  2.3131  0.2676
  935SOL     MW 3740   2.647   1.479   1.755 -0.0420 -0.0528  0.1033
  936SOL     OW 3741   2.940   2.248   0.011 -0.3584  0.1975  0.6714
  936SOL    HW1 3742   3.017   2.279   0.059 -1.4911 -0.4634 -0.1677
  936SOL    HW2 3743   2.865   2.303   0.033  1.7651 -0.9553 -1.3320
  936SOL     MW 3744   2.940   2.260   0.020 -0.2276 -0.0418  0.2964
  937SOL     OW 3745   1.982   2.124   2.673 -0.0708 -0.6977  0.2179
  937SOL    HW1 3746   2.069   2.100   2.702  0.2881 -1.0726 -1.7006
  937SOL    HW2 3747   1.982   2.134   2.579 -0.3185 -0.1207  1.7076
  937SOL     MW 3748   1.994   2.122   2.664 -0.0561 -0.6710  0.1613
  938SOL     OW 3749   2.358   1.709   1.858 -0.8118 -0.5836 -0.7665
  938SOL    HW1 3750   2.348   1.764   1.776 -0.5649  4.2084  0.0627
  938SOL    HW2 3751   2.328   1.785   1.919  0.3638  0.7377 -0.7666
  938SOL     MW 3752   2.353   1.727   1.855 -0.6241  0.2230 -0.6571
  939SOL     OW 3753   2.779   1.941   2.261  0.2376 -0.0211 -0.1345
  939SOL    HW1 3754   2.806   1.923   2.169 -1.2357  0.5857 -0.7941
  939SOL    HW2 3755   2.682   1.930   2.256 -1.4974 -2.9024  0.6715
  939SOL     MW 3756   2.770   1.937   2.248 -0.1857 -0.3212 -0.1152
  940SOL     OW 3757   2.192   0.128   2.701 -0.2837 -0.2119  0.6239
  940SOL    HW1 3758   2.220   0.043   2.666 -0.2993 -2.3281  0.3484
  940SOL    HW2 3759   2.264   0.149   2.762  0.3438  2.0532  1.2169
  940SOL     MW 3760   2.205   0.119   2.704 -0.2029 -0.1923  0.6658
  941SOL     OW 3761   0.159   2.444   2.044 -1.1374  0.3758  0.3811
  941SOL    HW1 3762   0.222   2.380   2.067 -4.6272  1.3947 -1.5002
  941SOL    HW2 3763   0.149   2.410   1.955  1.6382  1.0804 -0.5192
  941SOL     MW 3764   0.166   2.431   2.036 -1.2316  0.6032  0.0141
  942SOL     OW 3765   2.886   2.241   2.203  0.2664  0.1126 -0.0251
  942SOL    HW1 3766   2.836   2.261   2.120 -1.9811  2.3633 -0.7295
  942SOL    HW2 3767   2.843   2.162   2.227 -1.8531 -0.2644 -0.9302
  942SOL     MW 3768   2.874   2.233   2.195 -0.3098  0.3598 -0.2375
  943SOL     OW 3769   0.282   2.111   2.302  0.1866 -0.5332  0.4601
  943SOL    HW1 3770   0.228   2.155   2.373  0.7583  0.2105 -2.4760
  943SOL    HW2 3771   0.364   2.090   2.351 -1.5051  0.7695  1.4666
  943SOL     MW 3772   0.286   2.114   2.318  0.0388 -0.2632  0.2055
  944SOL     OW 3773   2.157   2.635   1.972  0.1347  0.0395 -0.5561
  944SOL    HW1 3774   2.208   2.562   2.011  1.8194  0.6362  1.9383
  944SOL    HW2 3775   2.087   2.636   2.031 -1.3220  0.7935  0.9883
  944SOL     MW 3776   2.155   2.626   1.985  0.1648  0.2177 -0.0232
  945SOL     OW 3777   2.820   2.783   2.821 -0.0044  0.0827 -0.0656
  945SOL    HW1 3778   2.827   2.691   2.815  1.7082  3.2122  3.9352
  945SOL    HW2 3779   2.787   2.809   2.729  1.6885  0.2138  1.3211
  945SOL     MW 3780   2.817   2.774   2.808  0.4450  0.5129  0.6453
  946SOL     OW 3781   2.470   2.650   2.234 -0.2146 -0.1539  0.0691
  946SOL    HW1 3782   2.503   2.672   2.145  3.5983  2.4289 -2.3780
  946SOL    HW2 3783   2.384   2.607   2.223  0.1639  2.2660 -0.4189
  946SOL     MW 3784   2.463   2.647   2.221  0.3384  0.5062 -0.3181
  947SOL     OW 3785   2.050   0.022   0.206  0.0881 -0.7269 -0.5497
  947SOL    HW1 3786   2.071  -0.063   0.165  1.7857  3.9112 -0.4165
  947SOL    HW2 3787   2.070   0.004   0.295 -1.7169 -2.5542 -2.1620
  947SOL     MW 3788   2.055   0.008   0.213  0.0739 -0.3561 -0.7448
  948SOL     OW 3789   1.784   3.000   2.611 -0.1819 -0.1318  0.0165
  948SOL    HW1 3790   1.831   2.924   2.584  1.7379 -0.5224 -0.0683
  948SOL    HW2 3791   1.759   3.034   2.523 -0.2037  0.3754  0.6850
  948SOL     MW 3792   1.787   2.995   2.596  0.0686 -0.1164  0.0935
  949SOL     OW 3793   2.484   1.892   2.203  0.1695 -0.2587 -0.0219
  949SOL    HW1 3794   2.494   1.813   2.253  1.1248  1.4983 -2.3365
  949SOL    HW2 3795   2.452   1.958   2.270 -1.3159 -0.9609 -0.9465
  949SOL     MW 3796   2.481   1.891   2.219  0.0996 -0.1196 -0.4493
  950SOL     OW 3797   2.330   2.555   2.997  0.5110 -0.2025  0.1061
  950SOL    HW1 3798   2.393   2.515   2.937 -0.2354 -0.9034 -1.4562
  950SOL    HW2 3799   2.249   2.567   2.960 -0.0667 -0.4835  1.1611
  950SOL     MW 3800   2.328   2.552   2.985  0.3363 -0.3321  0.0392
  951SOL     OW 3801   3.053   2.204   2.855  0.3539 -0.2067  0.2555
  951SOL    HW1 3802   3.016   2.217   2.944 -0.2793  3.4364  2.3855
  951SOL    HW2 3803   3.029   2.121   2.811  0.0006  0.7934 -0.9075
  951SOL     MW 3804   3.045   2.195   2.861  0.2237  0.4059  0.3831
  952SOL     OW 3805   3.039   1.696   2.129 -0.2749 -0.1927  0.3126
  952SOL    HW1 3806   2.959   1.734   2.094  2.5334  2.8841 -1.5662
  952SOL    HW2 3807   3.079   1.781   2.161  0.8761  2.1991 -1.4032
  952SOL     MW 3808   3.034   1.713   2.129  0.2475  0.5288 -0.1617
  953SOL     OW 3809   1.959   1.709   2.927 -0.1490 -0.4630  0.2391
  953SOL    HW1 3810   1.887   1.688   2.987 -0.5135  2.4746 -0.0065
  953SOL    HW2 3811   1.976   1.637   2.866  0.4823  1.8739 -0.6036
  953SOL     MW 3812   1.951   1.697   2.927 -0.1138  0.2329  0.0955
  954SOL     OW 3813   2.423   2.143   2.921 -0.3460  0.4798  0.1936
  954SOL    HW1 3814   2.338   2.146   2.881  0.9936 -0.6286  0.4971
  954SOL    HW2 3815   2.458   2.079   2.856 -1.7941  1.2198 -5.8899
  954SOL     MW 3816   2.417   2.135   2.907 -0.3603  0.4312 -0.5690
  955SOL     OW 3817   1.591   1.523   2.535  0.0351 -0.5077  0.4054
  955SOL    HW1 3818   1.559   1.577   2.455  0.3104  0.7244 -2.0315
  955SOL    HW2 3819   1.687   1.529   2.529  3.1180 -1.1694  0.2620
  955SOL     MW 3820   1.600   1.531   2.523  0.4782 -0.4324  0.0649
  956SOL     OW 3821   2.737   2.503   2.854  0.0278 -0.2260  0.0267
  956SOL    HW1 3822   2.755   2.481   2.942 -0.9047  0.4616  1.2346
  956SOL    HW2 3823   2.798   2.448   2.803 -1.1041 -2.6549  0.6201
  956SOL     MW 3824   2.748   2.493   2.859 -0.2446 -0.4557  0.2644
  957SOL     OW 3825   2.278   2.844   0.579  0.3336 -0.3123  0.5262
  957SOL    HW1 3826   2.205   2.794   0.529 -0.3106  1.4024  0.4668
  957SOL    HW2 3827   2.296   2.787   0.647 -1.0394  0.0321 -1.2893
  957SOL     MW 3828   2.271   2.830   0.582  0.0674 -0.0406  0.2789
  958SOL     OW 3829   2.063   2.586   2.875  0.0880 -0.4044  0.4829
  958SOL    HW1 3830   2.030   2.503   2.846  2.0824  0.2732 -0.2002
  958SOL    HW2 3831   1.988   2.629   2.906  0.7946 -1.4224  2.6189
  958SOL     MW 3832   2.049   2.580   2.875  0.4443 -0.4493  0.6746
  959SOL     OW 3833   2.522   2.811   0.456 -0.4594  0.2094  0.0412
  959SOL    HW1 3834   2.517   2.863   0.376 -0.4350 -0.9788  0.2977
  959SOL    HW2 3835   2.432   2.816   0.490 -0.0361  0.1568 -0.8331
  959SOL     MW 3836   2.510   2.818   0.450 -0.4004  0.0457 -0.0403
  960SOL     OW 3837   1.919   2.356   2.272  0.0546  0.4690 -0.4068
  960SOL    HW1 3838   1.918   2.263   2.291  0.6889  1.2211 -1.9683
  960SOL    HW2 3839   1.872   2.391   2.349 -0.2071 -0.7620 -0.1677
  960SOL     MW 3840   1.912   2.349   2.285  0.1038  0.4058 -0.5813
  961SOL     OW 3841   2.248   2.297   2.296  0.1668 -0.1498  0.1104
  961SOL    HW1 3842   2.151   2.298   2.297  0.8684  1.6936 -1.9736
  961SOL    HW2 3843   2.270   2.347   2.372  0.4254  2.0142 -2.4485
  961SOL     MW 3844   2.238   2.304   2.306  0.2935  0.3789 -0.5021
  962SOL     OW 3845   2.175   2.022   2.820 -1.0910 -0.3352  0.3423
  962SOL    HW1 3846   2.173   1.972   2.900  0.6867 -0.8940 -0.5712
  962SOL    HW2 3847   2.199   1.963   2.756 -1.4288  1.8870 -0.3638
  962SOL     MW 3848   2.178   2.007   2.822 -0.9010 -0.1157  0.1286
  963SOL     OW 3849   1.876   2.594   2.094  0.5454  0.5123 -0.2449
  963SOL    HW1 3850   1.877   2.525   2.161 -0.6684 -2.5436 -0.9314
  963SOL    HW2 3851   1.872   2.540   2.006  0.4741 -0.6029 -1.2514
  963SOL     MW 3852   1.876   2.578   2.091  0.3758 -0.0380 -0.4683
  964SOL     OW 3853   1.824   1.906   2.766  0.3299 -0.3243 -0.6020
  964SOL    HW1 3854   1.893   1.972   2.739 -1.3842  1.9862 -1.8569
  964SOL    HW2 3855   1.882   1.849   2.816 -1.3733  3.1978 -1.3012
  964SOL     MW 3856   1.841   1.907   2.769 -0.1209  0.4453 -0.8598
  965SOL     OW 3857   2.168   2.621   0.784 -1.0891 -0.0007  0.7081
  965SOL    HW1 3858   2.216   2.546   0.754 -1.5324  0.7077 -0.6366
  965SOL    HW2 3859   2.226   2.681   0.827  0.8451 -1.2873  2.0488
  965SOL     MW 3860   2.182   2.619   0.785 -0.8924 -0.0770  0.7076
  966SOL     OW 3861   2.666   2.603   2.421  0.0323 -0.2508 -0.2159
  966SOL    HW1 3862   2.583   2.607   2.366  2.4356  3.1652 -0.0406
  966SOL    HW2 3863   2.690   2.509   2.435  1.1110  1.7465  2.5840
  966SOL     MW 3864   2.658   2.591   2.416  0.4917  0.4635  0.1767
  967SOL     OW 3865   2.763   3.034   2.986 -0.3706  0.6517  0.5413
  967SOL    HW1 3866   2.744   2.958   3.040 -0.5177 -2.1444  2.6467
  967SOL    HW2 3867   2.699   3.035   2.911 -2.5813 -1.9354  1.0538
  967SOL     MW 3868   2.752   3.024   2.983 -0.6817 -0.0586  0.8867
  968SOL     OW 3869   3.049   2.668   2.934  0.0589  0.3336 -0.3839
  968SOL    HW1 3870   2.983   2.729   2.902 -3.1108 -0.2057 -0.0835
  968SOL    HW2 3871   3.080   2.627   2.851 -0.9910 -1.1843 -2.1803
  968SOL     MW 3872   3.044   2.671   2.919 -0.4978  0.0622 -0.5813
  969SOL     OW 3873   1.571   2.206   1.723 -0.6173 -0.1997 -0.4140
  969SOL    HW1 3874   1.642   2.142   1.731  0.0914  0.2910 -1.2818
  969SOL    HW2 3875   1.532   2.208   1.810 -3.2968 -0.8810  2.0300
  969SOL     MW 3876   1.575   2.198   1.735 -0.8773 -0.2248 -0.2060
  970SOL     OW 3877   1.771   1.820   1.923 -0.6876 -0.2923 -0.0478
  970SOL    HW1 3878   1.808   1.739   1.953 -1.2860  0.8372 -0.2618
  970SOL    HW2 3879   1.687   1.822   1.968  0.8420 -2.7034 -0.5693
  970SOL     MW 3880   1.765   1.810   1.933 -0.5647 -0.4614 -0.1448
  971SOL     OW 3881   1.722   3.094   2.370 -0.4342  0.3211 -0.6010
  971SOL    HW1 3882   1.773   3.060   2.290 -1.1454  2.6378  0.0884
  971SOL    HW2 3883   1.759   3.180   2.381 -1.5142  0.3141 -1.9668
  971SOL     MW 3884   1.733   3.101   2.361 -0.6705  0.6258 -0.6903
  972SOL     OW 3885   0.313   2.906   2.381  0.0093  0.4350  0.1380
  972SOL    HW1 3886   0.358   2.822   2.405  0.0607 -1.0888  0.4748
  972SOL    HW2 3887   0.337   2.977   2.440  0.6825 -1.7115  0.2141
  972SOL     MW 3888   0.322   2.904   2.392  0.1049 -0.0493  0.1925
  973SOL     OW 3889   2.586   3.007   2.129  0.6181 -0.0516  0.2052
  973SOL    HW1 3890   2.565   2.917   2.097 -1.2441  0.6104 -1.8704
  973SOL    HW2 3891   2.605   3.054   2.046  4.0557 -0.7973 -4.3339
  973SOL     MW 3892   2.586   3.001   2.114  0.8259 -0.0626 -0.6675
  974SOL     OW 3893   1.957   0.166   2.588 -0.0352  0.1254  0.0856
  974SOL    HW1 3894   2.042   0.132   2.614  0.3806  1.8515 -0.5028
  974SOL    HW2 3895   1.894   0.101   2.625  1.1322 -1.2835  0.3787
  974SOL     MW 3896   1.960   0.153   2.597  0.1737  0.1673  0.0467
  975SOL     OW 3897   2.222   2.487   2.505 -0.0322  0.0729  0.4436
  975SOL    HW1 3898   2.293   2.547   2.519 -1.4896  2.2152  2.9036
  975SOL    HW2 3899   2.137   2.539   2.484 -2.8843  2.0107 -2.0488
  975SOL     MW 3900   2.220   2.502   2.504 -0.6008  0.6112  0.4393
  976SOL     OW 3901   0.217   0.347   1.641  0.1346 -0.1219 -0.3913
  976SOL    HW1 3902   0.269   0.319   1.712  0.5608 -0.7882 -1.1291
  976SOL    HW2 3903   0.145   0.288   1.629  0.8665 -0.1063  0.0140
  976SOL     MW 3904   0.214   0.336   1.649  0.2874 -0.2077 -0.4352
  977SOL     OW 3905   1.749   2.765   2.380  0.3128  0.2084 -0.0720
  977SOL    HW1 3906   1.843   2.741   2.390  0.6551 -0.2806 -1.2710
  977SOL    HW2 3907   1.733   2.823   2.309  2.1523 -0.6504 -0.7104
  977SOL     MW 3908   1.759   2.770   2.372  0.6006  0.0306 -0.3144
   3.10000   3.10000   3.10000
