977 TIP4P/2005f water molecules t=   1.55000 step= 1550
 3908
    1SOL     OW    1   0.389   0.830   0.089  0.8174 -0.1132  0.4039
    1SOL    HW1    2   0.341   0.819   0.003  0.5434 -2.8727  0.9157
    1SOL    HW2    3   0.375   0.747   0.137 -2.0431 -0.8878 -1.1209
    1SOL     MW    4   0.381   0.817   0.084  0.4038 -0.5795  0.2703
    2SOL     OW    5   0.316   3.024   1.085  0.3818 -0.1306 -0.3289
    2SOL    HW1    6   0.370   3.104   1.066  0.3876  1.4367  1.4556
    2SOL    HW2    7   0.231   3.056   1.114  0.9359  2.0007 -2.9631
    2SOL     MW    8   0.312   3.039   1.086  0.4557  0.3574 -0.4410
    3SOL     OW    9   2.633   0.331   0.971  0.0044  0.2496 -0.2066
    3SOL    HW1   10   2.660   0.412   0.930 -1.6890 -4.0426  2.3308
    3SOL    HW2   11   2.642   0.353   1.062  3.2851  0.7664 -0.9443
    3SOL     MW   12   2.638   0.345   0.977  0.2138 -0.2485  0.0309
    4SOL     OW   13   3.007   1.717   0.527 -0.6555  0.0174 -0.0774
    4SOL    HW1   14   2.932   1.770   0.503 -0.9949 -0.6709  1.9180
    4SOL    HW2   15   3.066   1.722   0.453 -0.7582  3.1772 -2.2364
    4SOL     MW   16   3.005   1.724   0.514 -0.7138  0.3435 -0.0990
    5SOL     OW   17   1.646   1.418   0.629  0.4450 -0.8489 -0.5469
    5SOL    HW1   18   1.651   1.408   0.720 -0.1987 -0.8741  0.6829
    5SOL    HW2   19   1.559   1.464   0.627  0.1128 -0.4003 -0.2303
    5SOL     MW   20   1.635   1.423   0.641  0.3162 -0.7930 -0.3429
    6SOL     OW   21   0.783   1.439   0.598  0.2970  0.3435  0.4200
    6SOL    HW1   22   0.692   1.425   0.563 -1.1643 -1.2019 -1.2732
    6SOL    HW2   23   0.808   1.359   0.638  1.5152  2.7521  2.2026
    6SOL     MW   24   0.774   1.427   0.598  0.2649  0.4574  0.4318
    7SOL     OW   25   1.944   1.039   0.036 -0.7801 -0.2020 -0.2269
    7SOL    HW1   26   2.017   1.102   0.009 -2.1776  1.2097 -1.3641
    7SOL    HW2   27   1.960   1.030   0.131  4.0044  0.5066 -0.3148
    7SOL     MW   28   1.956   1.046   0.045 -0.3332  0.0777 -0.3885
    8SOL     OW   29   0.779   1.484   1.147  0.2446 -0.1803 -0.3929
    8SOL    HW1   30   0.867   1.521   1.164  0.8855 -3.9876  2.0568
    8SOL    HW2   31   0.775   1.389   1.164 -1.0168 -0.5682 -0.0143
    8SOL     MW   32   0.790   1.477   1.152  0.1627 -0.7338 -0.0198
    9SOL     OW   33   1.001   0.481   1.321 -0.4038  0.0291  0.6911
    9SOL    HW1   34   0.953   0.414   1.278 -1.7295 -1.4627  1.2298
    9SOL    HW2   35   1.025   0.430   1.401 -1.8505  0.1024 -1.2685
    9SOL     MW   36   0.998   0.465   1.326 -0.7696 -0.1581  0.5037
   10SOL     OW   37   0.281   0.867   0.495  0.0066 -0.2732 -0.1976
   10SOL    HW1   38   0.373   0.880   0.459 -0.1117  1.1315  0.0871
   10SOL    HW2   39   0.273   0.894   0.585  0.4080 -0.1529 -1.4512
   10SOL     MW   40   0.292   0.872   0.502  0.0440 -0.0720 -0.3254
   11SOL     OW   41   0.780   1.128   1.545  0.4850 -0.0825 -0.4381
   11SOL    HW1   42   0.860   1.135   1.602 -0.3262  1.7373 -4.1875
   11SOL    HW2   43   0.789   1.038   1.501 -4.2617  1.1607  0.5892
   11SOL     MW   44   0.792   1.117   1.547 -0.2483  0.3216 -0.7972
   12SOL     OW   45   3.068   1.105   0.867 -0.5962 -0.3301  0.4037
   12SOL    HW1   46   3.114   1.174   0.912 -0.5211 -2.2219  1.8924
   12SOL    HW2   47   3.029   1.165   0.794  0.3522  0.3524  0.1288
   12SOL     MW   48   3.069   1.122   0.863 -0.4611 -0.4897  0.5638
   13SOL     OW   49   1.837   1.431   1.277 -0.1822 -0.0580 -0.4921
   13SOL    HW1   50   1.848   1.387   1.193 -0.8722 -0.8235  2.1694
   13SOL    HW2   51   1.890   1.510   1.274 -1.4018  3.7909 -0.9918
   13SOL     MW   52   1.845   1.436   1.265 -0.4342  0.3488 -0.2069
   14SOL     OW   53   0.526   0.366   1.827 -0.7995 -0.0907 -0.6071
   14SOL    HW1   54   0.470   0.289   1.842  2.4175 -0.2312 -3.5633
   14SOL    HW2   55   0.594   0.340   1.763 -1.8698  0.0945 -1.5464
   14SOL     MW   56   0.528   0.353   1.821 -0.5163 -0.0848 -1.1211
   15SOL     OW   57   1.996   0.393   1.058 -0.2683  0.2111 -0.5799
   15SOL    HW1   58   1.949   0.478   1.055 -0.8752  0.2448 -1.4358
   15SOL    HW2   59   2.069   0.420   1.005  0.0893  1.2480 -2.2332
   15SOL     MW   60   1.999   0.408   1.051 -0.3012  0.3523 -0.9109
   16SOL     OW   61   0.282   1.838   0.262 -0.0472 -0.3410  0.6173
   16SOL    HW1   62   0.368   1.808   0.285  0.8231  1.2161 -1.1865
   16SOL    HW2   63   0.279   1.929   0.301 -0.7381 -1.6903  2.0609
   16SOL     MW   64   0.293   1.846   0.270 -0.0235 -0.3136  0.5698
   17SOL     OW   65   1.109   0.903   1.414  0.0035  0.1911  0.5192
   17SOL    HW1   66   1.140   0.896   1.500 -0.0830  1.0195  0.7183
   17SOL    HW2   67   1.015   0.890   1.423  0.1904 -0.5542 -1.1525
   17SOL     MW   68   1.101   0.901   1.426  0.0167  0.2021  0.3249
   18SOL     OW   69   0.122   1.613   0.329  0.2953  0.2634  0.6106
   18SOL    HW1   70   0.185   1.690   0.308 -1.0831  4.3234 -1.3138
   18SOL    HW2   71   0.094   1.583   0.244 -2.0497  1.7195 -1.9609
   18SOL     MW   72   0.126   1.619   0.315 -0.1960  0.9912  0.0174
   19SOL     OW   73   0.099   1.345   0.947 -0.1083 -0.3291 -0.1544
   19SOL    HW1   74   0.138   1.348   0.855  0.2857 -1.0801  1.8149
   19SOL    HW2   75   0.012   1.375   0.952 -0.0231 -1.3657  3.5405
   19SOL     MW   76   0.093   1.350   0.935 -0.0451 -0.5649  0.5929
   20SOL     OW   77   0.448   2.124   1.258 -0.1980 -0.7017  0.7275
   20SOL    HW1   78   0.403   2.047   1.213 -1.2792 -1.9806 -1.0212
   20SOL    HW2   79   0.421   2.140   1.349  0.7235  0.8270 -0.9095
   20SOL     MW   80   0.438   2.116   1.264 -0.2191 -0.6688  0.2808
   21SOL     OW   81   0.549   0.865   0.430  0.5873 -0.3431  0.0039
   21SOL    HW1   82   0.623   0.849   0.491  1.5734 -1.8998  2.2719
   21SOL    HW2   83   0.569   0.851   0.331 -1.5608  1.3506 -2.3807
   21SOL     MW   84   0.561   0.861   0.425  0.4340 -0.3250 -0.0115
   22SOL     OW   85   1.546   0.699   1.000 -0.3950  0.3766  0.2335
   22SOL    HW1   86   1.516   0.667   0.918 -1.2738  0.6240  0.8552
   22SOL    HW2   87   1.478   0.758   1.026  1.8775 -1.0167  1.2864
   22SOL     MW   88   1.533   0.702   0.993 -0.2111  0.2254  0.4545
   23SOL     OW   89   3.093   0.767   0.699 -0.2921  0.5588 -0.5480
   23SOL    HW1   90   3.151   0.693   0.727 -2.1004 -1.4120  0.2655
   23SOL    HW2   91   3.145   0.847   0.697 -1.8269 -0.1468 -1.2436
   23SOL     MW   92   3.107   0.767   0.702 -0.7332  0.2057 -0.5325
   24SOL     OW   93   2.090   2.177   0.015  0.0530  0.5610 -0.0031
   24SOL    HW1   94   2.046   2.203   0.098  1.0049 -3.3283 -1.0016
   24SOL    HW2   95   2.121   2.088   0.030 -1.0182 -0.6348  1.7269
   24SOL     MW   96   2.088   2.169   0.028  0.0372 -0.1099  0.0934
   25SOL     OW   97   0.195   1.374   0.440 -0.4061  0.8763 -0.4102
   25SOL    HW1   98   0.174   1.466   0.420  1.0850  1.1439 -0.1157
   25SOL    HW2   99   0.283   1.351   0.408 -0.5220  0.9836  1.8482
   25SOL     MW  100   0.204   1.384   0.433 -0.2247  0.9258 -0.0734
   26SOL     OW  101   2.001   1.007   0.302 -0.3206  0.8774  0.2668
   26SOL    HW1  102   1.952   1.035   0.383 -0.5963 -3.8467  1.0158
   26SOL    HW2  103   2.068   1.072   0.283 -0.5915 -3.0816  0.2516
   26SOL     MW  104   2.003   1.019   0.310 -0.3927 -0.2682  0.3636
   27SOL     OW  105   1.889   1.337   0.179  0.3017  0.2933  0.2009
   27SOL    HW1  106   1.824   1.402   0.192  0.9745  0.5283  1.9816
   27SOL    HW2  107   1.942   1.351   0.258  1.6531  0.4385  0.5540
   27SOL     MW  108   1.888   1.348   0.191  0.5688  0.3434  0.4825
   28SOL     OW  109   0.417   0.925   1.997  0.0654 -0.3829  0.3457
   28SOL    HW1  110   0.463   0.910   2.077 -0.6859  1.4013  0.5959
   28SOL    HW2  111   0.329   0.908   2.023  2.2929 -0.3639 -2.1821
   28SOL     MW  112   0.411   0.921   2.011  0.2602 -0.1450  0.0452
   29SOL     OW  113   0.235   1.381   0.709 -0.4782  0.3163  0.4204
   29SOL    HW1  114   0.234   1.475   0.724  2.1769 -1.5203 -1.5766
   29SOL    HW2  115   0.180   1.364   0.635  0.9937  1.1147 -0.4787
   29SOL     MW  116   0.227   1.391   0.701  0.0663  0.1793  0.0383
   30SOL     OW  117   0.788   1.239   1.252 -0.4805 -0.2824 -0.3246
   30SOL    HW1  118   0.730   1.223   1.326  1.8334 -1.2658  0.6183
   30SOL    HW2  119   0.872   1.217   1.288 -3.6231 -0.5365  1.8116
   30SOL     MW  120   0.791   1.234   1.267 -0.5898 -0.4457  0.0817
   31SOL     OW  121   0.484   0.288   0.180  0.5485  0.0961  0.3703
   31SOL    HW1  122   0.507   0.215   0.236 -0.0610 -1.3897 -0.6997
   31SOL    HW2  123   0.488   0.262   0.086  0.5999  1.1696  0.2148
   31SOL     MW  124   0.488   0.275   0.175  0.4749  0.0417  0.2086
   32SOL     OW  125   2.721   0.999   1.108  0.7387 -0.4408 -0.4247
   32SOL    HW1  126   2.667   0.928   1.097 -0.8839  3.3047 -0.6546
   32SOL    HW2  127   2.808   0.976   1.065 -1.1579 -1.1942 -1.3235
   32SOL     MW  128   2.726   0.987   1.101  0.2744 -0.0460 -0.5737
   33SOL     OW  129   1.665   1.281   0.400  0.2442 -0.4557  0.6125
   33SOL    HW1  130   1.725   1.211   0.416  0.0716  2.0244  0.9578
   33SOL    HW2  131   1.653   1.337   0.480 -1.2449  1.5444 -0.0076
   33SOL     MW  132   1.672   1.279   0.413  0.0249  0.1354  0.5762
   34SOL     OW  133   1.206   1.919   1.166 -0.8055 -0.0336 -0.2805
   34SOL    HW1  134   1.137   1.986   1.185 -2.2509  1.1147  2.9036
   34SOL    HW2  135   1.283   1.951   1.221  2.0112  2.4061 -0.4624
   34SOL     MW  136   1.207   1.932   1.176 -0.6246  0.4398  0.1156
   35SOL     OW  137   0.355   0.144   1.822  0.2318  0.0821 -0.3492
   35SOL    HW1  138   0.371   0.078   1.891  1.9066  3.1188  1.4494
   35SOL    HW2  139   0.333   0.099   1.743 -0.6798  1.3751  0.3218
   35SOL     MW  140   0.354   0.129   1.821  0.3325  0.6534 -0.0234
   36SOL     OW  141   1.928   1.955   0.571 -0.2423  0.1718 -0.1979
   36SOL    HW1  142   1.890   1.941   0.487 -1.4529  1.2370  2.8737
   36SOL    HW2  143   1.990   1.885   0.596  2.7356  0.4395 -0.3090
   36SOL     MW  144   1.931   1.944   0.563 -0.0091  0.3477  0.1927
   37SOL     OW  145   1.829   2.052   1.029 -0.2214  0.0250 -0.5189
   37SOL    HW1  146   1.769   2.038   0.957 -0.3403  0.8033  0.5090
   37SOL    HW2  147   1.770   2.083   1.097 -4.3372  1.0062 -0.9120
   37SOL     MW  148   1.813   2.054   1.028 -0.7801  0.2572 -0.4352
   38SOL     OW  149   2.861   0.952   0.166  0.1892  0.4498 -0.3263
   38SOL    HW1  150   2.890   0.936   0.257  0.1998 -0.1219  0.2616
   38SOL    HW2  151   2.943   0.945   0.112 -2.4309  0.2529 -0.7870
   38SOL     MW  152   2.876   0.949   0.171 -0.1551  0.3484 -0.3095
   39SOL     OW  153   1.475   0.602   0.756  0.1584  0.3749 -0.1597
   39SOL    HW1  154   1.457   0.512   0.789  1.5870  0.4956 -0.9408
   39SOL    HW2  155   1.397   0.648   0.752  3.4376  1.6415 -2.1148
   39SOL     MW  156   1.462   0.596   0.760  0.7795  0.5580 -0.5207
   40SOL     OW  157   1.263   1.870   0.264 -0.6449 -0.3861 -0.7331
   40SOL    HW1  158   1.322   1.812   0.315  0.5202  1.5080  2.4192
   40SOL    HW2  159   1.210   1.918   0.327 -0.4214  0.6409 -0.9134
   40SOL     MW  160   1.263   1.868   0.279 -0.4617 -0.0007 -0.3410
   41SOL     OW  161   0.541   0.552   1.608 -0.4208  0.6073 -0.4229
   41SOL    HW1  162   0.599   0.627   1.584 -1.9208  0.6920 -0.0092
   41SOL    HW2  163   0.453   0.574   1.582  3.5811  0.4801  0.1598
   41SOL     MW  164   0.537   0.565   1.601 -0.0907  0.6017 -0.2915
   42SOL     OW  165   1.240   2.970   1.945 -0.0727 -0.3811 -0.0910
   42SOL    HW1  166   1.168   3.000   1.998  1.6261  3.5595  2.2628
   42SOL    HW2  167   1.280   2.892   1.985 -0.1700 -0.0993  0.5790
   42SOL     MW  168   1.236   2.964   1.957  0.1386  0.1760  0.3079
   43SOL     OW  169   1.475   0.135   1.688 -0.4931  0.4419  0.0540
   43SOL    HW1  170   1.516   0.083   1.618  0.4779 -4.3175  2.5789
   43SOL    HW2  171   1.397   0.082   1.691  0.5247  0.7832 -0.7549
   43SOL     MW  172   1.470   0.121   1.679 -0.2307 -0.1410  0.2804
   44SOL     OW  173   1.252   0.785   1.063 -0.0866  0.2973  0.2504
   44SOL    HW1  174   1.252   0.881   1.048  0.8968  0.8030  0.3266
   44SOL    HW2  175   1.221   0.760   1.152 -1.7750 -0.0522  0.3385
   44SOL     MW  176   1.248   0.794   1.073 -0.1796  0.3179  0.2721
   45SOL     OW  177   1.280   0.801   0.762  0.1637  0.6731 -0.0980
   45SOL    HW1  178   1.248   0.809   0.851 -2.4569  0.2208 -0.1845
   45SOL    HW2  179   1.211   0.789   0.692 -0.4734 -0.4342  0.2165
   45SOL     MW  180   1.266   0.800   0.765 -0.2662  0.4674 -0.0679
   46SOL     OW  181   0.491   1.074   0.647  0.0575  0.5370 -0.0327
   46SOL    HW1  182   0.500   1.090   0.553 -3.6905 -1.5069  1.1822
   46SOL    HW2  183   0.479   1.166   0.678 -4.2920 -2.1146  0.9320
   46SOL     MW  184   0.491   1.089   0.638 -1.0109 -0.0825  0.2548
   47SOL     OW  185   0.140   2.026   1.889 -0.1605  1.0189 -0.8604
   47SOL    HW1  186   0.148   1.943   1.844 -0.3136  1.2319  1.1789
   47SOL    HW2  187   0.128   2.002   1.985  0.3472 -0.0024  3.0799
   47SOL     MW  188   0.140   2.012   1.896 -0.1137  0.9122 -0.0714
   48SOL     OW  189   1.177   0.509   1.028  0.2986 -0.0822  0.0535
   48SOL    HW1  190   1.081   0.504   1.015 -2.1199  1.6984 -1.7328
   48SOL    HW2  191   1.190   0.603   1.051 -0.1850 -0.0963 -1.4085
   48SOL     MW  192   1.166   0.520   1.029 -0.0843  0.1509 -0.3751
   49SOL     OW  193   1.682   0.657   1.547 -0.6504 -0.1339  0.1890
   49SOL    HW1  194   1.712   0.594   1.614 -0.6349  0.0274 -1.1976
   49SOL    HW2  195   1.703   0.614   1.464 -1.2551  0.9245 -1.2172
   49SOL     MW  196   1.689   0.643   1.545 -0.7281  0.0270 -0.1795
   50SOL     OW  197   1.266   1.229   0.600 -0.3121  0.0059  0.0938
   50SOL    HW1  198   1.205   1.242   0.665 -0.0947  0.9659  0.0549
   50SOL    HW2  199   1.327   1.165   0.637  2.6375 -0.7607  1.5529
   50SOL     MW  200   1.266   1.222   0.613  0.1057  0.0314  0.2811
   51SOL     OW  201   0.314   2.882   0.841 -0.3854 -0.0921 -0.3225
   51SOL    HW1  202   0.401   2.841   0.854 -1.2312  0.6644  3.3265
   51SOL    HW2  203   0.295   2.946   0.907  1.7848  0.4371  0.4192
   51SOL     MW  204   0.323   2.885   0.851 -0.2107  0.0775  0.2568
   52SOL     OW  205   0.815   1.799   0.466  0.0634 -0.3506  0.1492
   52SOL    HW1  206   0.784   1.890   0.487  1.1326 -0.9144  1.1953
   52SOL    HW2  207   0.811   1.788   0.369 -1.5930 -1.6071 -0.1400
   52SOL     MW  208   0.810   1.810   0.456 -0.0140 -0.5908  0.2491
   53SOL     OW  209   0.446   2.156   0.509  0.1455 -0.7357 -0.0663
   53SOL    HW1  210   0.393   2.148   0.427 -1.2454 -3.4169 -1.0211
   53SOL    HW2  211   0.439   2.253   0.530  1.1512  0.0682 -1.2732
   53SOL     MW  212   0.438   2.168   0.501  0.0947 -0.9834 -0.3515
   54SOL     OW  213   2.032   0.974   0.718 -0.1397  0.0284  0.0142
   54SOL    HW1  214   2.116   0.988   0.670 -2.0391  0.7948 -0.3821
   54SOL    HW2  215   2.030   0.879   0.720  1.8803 -0.3336 -0.4340
   54SOL     MW  216   2.043   0.963   0.712 -0.1238  0.0818 -0.0972
   55SOL     OW  217   0.459   1.510   1.677 -0.5892 -0.4528 -0.0304
   55SOL    HW1  218   0.405   1.545   1.610 -0.9231 -1.1378  2.1093
   55SOL    HW2  219   0.544   1.492   1.643 -0.2443  2.0406 -0.3496
   55SOL     MW  220   0.463   1.512   1.664 -0.5878 -0.2142  0.2098
   56SOL     OW  221   0.642   0.896   0.172 -0.0216  0.2519 -0.3219
   56SOL    HW1  222   0.655   0.984   0.202  1.7584 -0.3704 -2.1774
   56SOL    HW2  223   0.574   0.895   0.104 -1.1183 -2.2094 -1.3329
   56SOL     MW  224   0.634   0.907   0.167  0.0686 -0.1550 -0.7001
   57SOL     OW  225   1.100   1.260   1.122 -0.8280  0.0677 -0.4410
   57SOL    HW1  226   1.194   1.296   1.134 -0.5339  2.0688  1.5872
   57SOL    HW2  227   1.092   1.216   1.211 -0.3280  2.6623  1.5669
   57SOL     MW  228   1.111   1.259   1.135 -0.7232  0.6741  0.0915
   58SOL     OW  229   0.462   1.248   1.273 -0.7510  0.0847  0.8088
   58SOL    HW1  230   0.446   1.341   1.272 -0.2000 -1.8698  2.0394
   58SOL    HW2  231   0.474   1.243   1.365  2.0068  0.9173 -0.0332
   58SOL     MW  232   0.462   1.260   1.285 -0.3145 -0.0634  0.8601
   59SOL     OW  233   1.438   1.698   0.378  0.1807 -0.0211  0.8707
   59SOL    HW1  234   1.502   1.753   0.430 -0.6485  2.8887  0.2694
   59SOL    HW2  235   1.373   1.656   0.436 -2.1987  0.8408  2.9675
   59SOL     MW  236   1.438   1.699   0.392 -0.2426  0.4765  1.0680
   60SOL     OW  237   3.075   0.196   1.668  0.4911  0.0279 -0.5841
   60SOL    HW1  238   2.999   0.260   1.686 -2.9643 -0.6686 -0.5253
   60SOL    HW2  239   3.064   0.127   1.725  1.8630  3.3185 -1.8666
   60SOL     MW  240   3.064   0.195   1.678  0.2162  0.3701 -0.7455
   61SOL     OW  241   1.969   1.393   2.992 -0.3813 -0.5612 -0.2782
   61SOL    HW1  242   1.921   1.372   3.076  0.3618 -0.0729  2.1299
   61SOL    HW2  243   2.023   1.318   2.998 -0.5870  2.5474  1.2209
   61SOL     MW  244   1.970   1.381   3.004 -0.3104 -0.0866  0.2373
   62SOL     OW  245   0.586   1.720   0.594  0.6235 -0.1255 -0.1807
   62SOL    HW1  246   0.677   1.751   0.582  1.0870  0.6477  0.5166
   62SOL    HW2  247   0.582   1.626   0.562  0.3589 -1.6651 -1.0955
   62SOL     MW  248   0.598   1.711   0.588  0.6498 -0.2266 -0.2094
   63SOL     OW  249   1.738   0.685   0.649 -0.1705  0.5796  0.0388
   63SOL    HW1  250   1.735   0.770   0.601  0.6374 -0.8994 -0.0861
   63SOL    HW2  251   1.643   0.669   0.670  0.5960 -1.0899 -0.2410
   63SOL     MW  252   1.725   0.694   0.645  0.0373  0.1642 -0.0146
   64SOL     OW  253   0.228   1.652   0.761  0.0031  0.0911 -0.2948
   64SOL    HW1  254   0.295   1.693   0.702  3.4938 -2.3851  0.1025
   64SOL    HW2  255   0.156   1.712   0.759 -1.0067 -1.7517  0.6968
   64SOL     MW  256   0.228   1.665   0.753  0.3304 -0.4788 -0.1116
   65SOL     OW  257   1.497   2.317   0.354 -0.3490 -0.0409  0.1316
   65SOL    HW1  258   1.583   2.339   0.383  0.7524 -1.7831 -0.7665
   65SOL    HW2  259   1.432   2.355   0.417 -2.7047  0.9535  2.1875
   65SOL     MW  260   1.500   2.325   0.366 -0.5145 -0.1396  0.2844
   66SOL     OW  261   0.349   0.606   0.486  0.1256  0.7786  0.5479
   66SOL    HW1  262   0.411   0.622   0.418 -0.5553 -1.6123 -0.6037
   66SOL    HW2  263   0.330   0.702   0.506  1.9696 -0.4037 -1.6397
   66SOL     MW  264   0.355   0.621   0.480  0.2790  0.3071  0.1073
   67SOL     OW  265   1.481   0.058   1.988 -0.1282 -0.5391  0.5005
   67SOL    HW1  266   1.510   0.082   1.899  2.4997  1.8850 -0.8943
   67SOL    HW2  267   1.412  -0.004   1.974  2.2279  0.2401  0.1531
   67SOL     MW  268   1.476   0.053   1.975  0.5294 -0.1165  0.2706
   68SOL     OW  269   0.796   3.081   2.992 -0.5724 -0.0951 -0.1690
   68SOL    HW1  270   0.810   3.111   2.902  1.5368  0.4923  1.4791
   68SOL    HW2  271   0.884   3.100   3.031  1.0127  0.5110  2.1778
   68SOL     MW  272   0.810   3.088   2.985 -0.0850  0.0624  0.3581
   69SOL     OW  273   0.990   0.223   1.946  0.6893  0.3537 -0.1795
   69SOL    HW1  274   1.083   0.234   1.962  0.9506 -0.9252  0.5741
   69SOL    HW2  275   0.962   0.171   2.017  2.0158  0.3263 -1.5002
   69SOL     MW  276   0.999   0.217   1.958  0.8988  0.1813 -0.2544
   70SOL     OW  277   0.494   1.758   1.071 -0.0620 -0.1078  0.0676
   70SOL    HW1  278   0.577   1.807   1.057  1.0720  1.8591 -0.0034
   70SOL    HW2  279   0.500   1.684   1.011 -4.3254 -0.8250  2.5037
   70SOL     MW  280   0.505   1.755   1.061 -0.4749  0.0571  0.3797
   71SOL     OW  281   1.492   0.540   1.209  0.5893  0.1406  0.8372
   71SOL    HW1  282   1.467   0.619   1.259 -0.3566  1.5893  0.0534
   71SOL    HW2  283   1.490   0.580   1.121  1.4013 -1.2592  1.1955
   71SOL     MW  284   1.488   0.556   1.204  0.5717  0.1471  0.7810
   72SOL     OW  285   0.750   1.854   1.020  0.4725  0.1701 -0.6565
   72SOL    HW1  286   0.760   1.923   0.950 -0.5376 -0.8461 -3.0690
   72SOL    HW2  287   0.770   1.773   0.982 -0.3370 -0.9978  0.9507
   72SOL     MW  288   0.754   1.853   1.006  0.2324 -0.1181 -0.7628
   73SOL     OW  289   1.210   0.670   1.320 -0.1291 -0.1158 -0.7662
   73SOL    HW1  290   1.131   0.604   1.309 -2.9523 -2.8171 -3.0996
   73SOL    HW2  291   1.178   0.757   1.358  0.0504  0.6575 -1.3304
   73SOL     MW  292   1.195   0.673   1.324 -0.4779 -0.3702 -1.1485
   74SOL     OW  293   2.861   0.147   1.022 -0.7431 -0.6638 -0.4143
   74SOL    HW1  294   2.921   0.119   0.958 -0.3319 -0.8039 -0.1732
   74SOL    HW2  295   2.834   0.232   0.996 -1.6718 -1.2169  0.6683
   74SOL     MW  296   2.866   0.155   1.010 -0.8114 -0.7553 -0.2396
   75SOL     OW  297   1.576   1.346   0.156 -0.4938  0.0786 -0.1057
   75SOL    HW1  298   1.641   1.313   0.095  0.4188 -0.0282 -0.4171
   75SOL    HW2  299   1.603   1.306   0.248  0.7969 -0.8217 -0.1806
   75SOL     MW  300   1.588   1.336   0.160 -0.2031 -0.0543 -0.1567
   76SOL     OW  301   2.989   0.640   0.486  0.1366  0.7909  0.7051
   76SOL    HW1  302   3.024   0.683   0.569 -1.4011 -2.0910  3.5131
   76SOL    HW2  303   3.073   0.604   0.448 -0.2640  0.3924  1.4850
   76SOL     MW  304   3.004   0.641   0.492 -0.1192  0.3581  1.1785
   77SOL     OW  305   0.875   0.601   0.421  0.0494  0.0680 -0.0286
   77SOL    HW1  306   0.854   0.624   0.331  0.6087  2.0633  0.9686
   77SOL    HW2  307   0.856   0.510   0.432 -1.2728  1.1270  1.5925
   77SOL     MW  308   0.870   0.592   0.411 -0.0512  0.4710  0.3169
   78SOL     OW  309   0.739   0.845   1.107  0.2977 -0.2219 -0.7404
   78SOL    HW1  310   0.762   0.928   1.057  2.7385 -1.7219  2.3888
   78SOL    HW2  311   0.646   0.828   1.116 -1.3172  0.4265 -1.5525
   78SOL     MW  312   0.730   0.854   1.102  0.4066 -0.3343 -0.4347
   79SOL     OW  313   1.859   1.573   0.571  0.2321 -0.3517  0.0704
   79SOL    HW1  314   1.784   1.517   0.590 -1.6235 -4.1571 -0.2607
   79SOL    HW2  315   1.886   1.606   0.660  0.1213 -0.4906  0.9267
   79SOL     MW  316   1.853   1.570   0.585 -0.0273 -0.8721  0.1397
   80SOL     OW  317   0.085   0.975   0.346 -0.1413 -0.0980 -0.4493
   80SOL    HW1  318  -0.003   0.937   0.374 -1.7569  0.7344  1.4666
   80SOL    HW2  319   0.142   0.920   0.399 -3.7750 -0.4596  0.5648
   80SOL     MW  320   0.081   0.963   0.357 -0.8339 -0.0359 -0.0627
   81SOL     OW  321   1.816   1.850   0.337 -0.1218  0.3111 -0.0154
   81SOL    HW1  322   1.786   1.765   0.311 -0.4402  3.2941  1.7606
   81SOL    HW2  323   1.783   1.905   0.263  0.0665  0.6041  1.7055
   81SOL     MW  324   1.807   1.846   0.324 -0.1389  0.7433  0.4460
   82SOL     OW  325   0.890   1.027   0.519  0.0993  0.4135 -0.0615
   82SOL    HW1  326   0.837   1.048   0.444  3.1217  0.9393 -0.5972
   82SOL    HW2  327   0.863   0.936   0.534  0.0093  1.2597  0.9462
   82SOL     MW  328   0.879   1.018   0.511  0.4862  0.5945  0.0007
   83SOL     OW  329   0.045   0.769   1.539  0.1514 -0.0809  0.2588
   83SOL    HW1  330   0.066   0.828   1.464  0.4848  2.6750  1.4097
   83SOL    HW2  331   0.095   0.689   1.526 -0.1395 -2.1292 -1.7726
   83SOL     MW  332   0.055   0.766   1.527  0.1570  0.0125  0.1426
   84SOL     OW  333   0.050   0.209   0.913 -0.0907  0.0450 -0.2416
   84SOL    HW1  334   0.020   0.291   0.956  0.5250  0.4708  0.7976
   84SOL    HW2  335   0.058   0.137   0.977  0.7765 -0.8055  1.3193
   84SOL     MW  336   0.047   0.210   0.927  0.1050 -0.0110  0.1015
   85SOL     OW  337   0.396   0.461   0.716  0.0164 -0.1593  0.0783
   85SOL    HW1  338   0.396   0.499   0.628 -1.0588 -1.3168 -0.7372
   85SOL    HW2  339   0.343   0.383   0.710 -0.3138  2.2432  1.1284
   85SOL     MW  340   0.389   0.455   0.703 -0.1690  0.0050  0.1092
   86SOL     OW  341   1.210   0.254   1.149  0.7272  0.7980  0.5169
   86SOL    HW1  342   1.202   0.343   1.110  1.9178  1.9225  0.5790
   86SOL    HW2  343   1.298   0.244   1.183 -1.6536 -2.4584 -0.8162
   86SOL     MW  344   1.220   0.265   1.148  0.5702  0.5167  0.3492
   87SOL     OW  345   1.049   1.517   1.215  0.0309  0.4489  0.6273
   87SOL    HW1  346   1.104   1.574   1.159 -0.4307 -1.8755  0.9521
   87SOL    HW2  347   1.055   1.431   1.168  1.9793 -0.7852 -0.8636
   87SOL     MW  348   1.057   1.513   1.201  0.2271 -0.0206  0.4734
   88SOL     OW  349   1.258   1.066   1.031  0.0851  0.0133 -0.0885
   88SOL    HW1  350   1.346   1.103   1.028  2.7345  0.6716  0.8668
   88SOL    HW2  351   1.199   1.129   1.073 -1.3271  0.5060  0.2884
   88SOL     MW  352   1.262   1.079   1.036  0.2483  0.1652  0.0873
   89SOL     OW  353   1.737   0.729   0.287 -0.1334 -0.2089 -0.2907
   89SOL    HW1  354   1.707   0.642   0.313  0.0798 -2.1669 -2.4555
   89SOL    HW2  355   1.834   0.729   0.277  0.2424  0.2333  1.4690
   89SOL     MW  356   1.746   0.718   0.289 -0.0557 -0.4089 -0.3442
   90SOL     OW  357   0.845   1.211   2.902  0.1771  0.3996 -0.1494
   90SOL    HW1  358   0.862   1.115   2.905 -2.1548 -1.7925  2.8655
   90SOL    HW2  359   0.835   1.251   2.989 -0.8958 -1.3066 -0.6829
   90SOL     MW  360   0.846   1.203   2.914 -0.2721 -0.1147  0.1780
   91SOL     OW  361   2.187   0.633   0.442 -0.4479 -0.7019  0.0083
   91SOL    HW1  362   2.283   0.652   0.417  3.7694 -0.0151  1.8173
   91SOL    HW2  363   2.166   0.544   0.419  0.5453  0.7050 -0.5816
   91SOL     MW  364   2.197   0.624   0.436  0.2396 -0.4257  0.1692
   92SOL     OW  365   1.639   0.955   0.573  0.0442  0.3552 -0.4992
   92SOL    HW1  366   1.576   0.990   0.636  4.0943 -0.2643  2.3921
   92SOL    HW2  367   1.598   0.983   0.489 -1.4557  1.3264  0.6249
   92SOL     MW  368   1.625   0.963   0.570  0.3806  0.4016  0.0306
   93SOL     OW  369   1.089   0.231   0.361 -0.2206  0.3162 -0.2721
   93SOL    HW1  370   1.002   0.274   0.373  1.6329  1.0819 -1.3064
   93SOL    HW2  371   1.108   0.276   0.270 -1.7712  0.8395 -1.7872
   93SOL     MW  372   1.080   0.242   0.351 -0.1807  0.4863 -0.6085
   94SOL     OW  373   1.824   1.362   1.556 -0.0543  0.2380  0.8654
   94SOL    HW1  374   1.845   1.362   1.462 -0.9512 -1.0387 -1.8283
   94SOL    HW2  375   1.840   1.269   1.584 -0.4285 -0.4138  2.9349
   94SOL     MW  376   1.829   1.350   1.547 -0.2220 -0.0164  0.7830
   95SOL     OW  377   0.624   1.545   0.925 -0.8659  0.0510 -0.2074
   95SOL    HW1  378   0.680   1.523   1.007 -2.2861  3.6457 -0.9920
   95SOL    HW2  379   0.581   1.462   0.894  3.0643 -0.2051  0.3144
   95SOL     MW  380   0.626   1.531   0.932 -0.5347  0.4915 -0.2420
   96SOL     OW  381   1.339   1.850   1.670 -0.5821  0.0439 -0.9013
   96SOL    HW1  382   1.242   1.856   1.676  0.9772  0.2219 -0.3071
   96SOL    HW2  383   1.350   1.765   1.626  0.8088 -1.9625  1.3746
   96SOL     MW  384   1.328   1.840   1.665 -0.1928 -0.1974 -0.5226
   97SOL     OW  385   1.071   1.474   0.936  0.0095  0.3185  0.0396
   97SOL    HW1  386   1.149   1.528   0.949 -0.1212  0.8994  2.7863
   97SOL    HW2  387   1.017   1.520   0.868  0.3211 -0.5492 -3.4861
   97SOL     MW  388   1.074   1.487   0.928  0.0334  0.2807 -0.0631
   98SOL     OW  389   1.360   1.368   1.172 -0.2308  0.2124  0.5114
   98SOL    HW1  390   1.414   1.390   1.245  1.2809  2.8087 -2.8877
   98SOL    HW2  391   1.399   1.419   1.099 -0.7727  2.6072  0.0928
   98SOL     MW  392   1.372   1.378   1.172 -0.1029  0.8709  0.0077
   99SOL     OW  393   1.461   0.270   1.277  0.4237 -0.0932  0.0840
   99SOL    HW1  394   1.470   0.355   1.226  0.3740 -2.9650  0.6542
   99SOL    HW2  395   1.416   0.297   1.361  1.5172  1.3790  0.6535
   99SOL     MW  396   1.456   0.284   1.281  0.5614 -0.2779  0.2343
  100SOL     OW  397   1.055   1.169   1.357  0.4285 -0.4434 -0.1859
  100SOL    HW1  398   1.104   1.218   1.427  2.9253  0.1000 -1.0772
  100SOL    HW2  399   1.066   1.077   1.385 -0.5445 -2.1509 -0.0049
  100SOL     MW  400   1.063   1.164   1.370  0.6295 -0.5970 -0.2796
  101SOL     OW  401   0.526   1.201   0.394  0.0793  0.0185  0.3356
  101SOL    HW1  402   0.447   1.160   0.348 -2.7428  0.9544  1.8497
  101SOL    HW2  403   0.609   1.182   0.343  3.1376  0.5108  0.7328
  101SOL     MW  404   0.527   1.193   0.381  0.1105  0.2069  0.5878
  102SOL     OW  405   2.907   0.659   1.080  0.5141 -0.0350  0.4883
  102SOL    HW1  406   2.938   0.753   1.067  1.8996  0.6844  1.1774
  102SOL    HW2  407   2.894   0.654   1.175 -1.8083 -0.9794  3.6965
  102SOL     MW  408   2.909   0.671   1.091  0.3905 -0.0647  1.0025
  103SOL     OW  409   1.852   0.251   1.826  0.5702  0.0811  0.6177
  103SOL    HW1  410   1.812   0.161   1.824 -0.7842 -0.6486  1.5950
  103SOL    HW2  411   1.852   0.266   1.923 -0.6053 -0.7534  0.1500
  103SOL     MW  412   1.847   0.241   1.839  0.2364 -0.1253  0.6849
  104SOL     OW  413   0.076   1.526   1.649  0.1939 -0.2149  0.1861
  104SOL    HW1  414   0.145   1.460   1.684  1.4009  0.8900  0.8880
  104SOL    HW2  415  -0.018   1.496   1.679  2.9936  0.7447  0.6140
  104SOL     MW  416   0.072   1.513   1.657  0.7226  0.0575  0.3352
  105SOL     OW  417   3.058   1.226   0.406 -0.1122  0.0582 -0.3222
  105SOL    HW1  418   3.100   1.140   0.410 -0.6210  2.6654  2.6848
  105SOL    HW2  419   3.131   1.284   0.404 -1.6461  0.5589  0.0439
  105SOL     MW  420   3.073   1.223   0.406 -0.3817  0.4682  0.1228
  106SOL     OW  421   0.777   0.389   0.870  0.4653 -0.5363 -0.1106
  106SOL    HW1  422   0.695   0.414   0.911  0.2603 -1.9672 -1.8320
  106SOL    HW2  423   0.799   0.456   0.805  0.9330  0.3054 -1.5310
  106SOL     MW  424   0.769   0.401   0.867  0.5000 -0.6141 -0.5251
  107SOL     OW  425   0.828   2.163   2.879 -0.0872  0.0578 -0.4208
  107SOL    HW1  426   0.734   2.179   2.867  2.8306  0.6006 -2.2740
  107SOL    HW2  427   0.841   2.132   2.972  1.4627 -2.0211 -0.7317
  107SOL     MW  428   0.818   2.161   2.889  0.5023 -0.1449 -0.7064
  108SOL     OW  429   1.350   1.586   1.643 -0.4416 -0.7073 -0.1356
  108SOL    HW1  430   1.290   1.548   1.579  0.9140  1.8002  5.2659
  108SOL    HW2  431   1.425   1.532   1.636  1.2872  2.4948 -1.4468
  108SOL     MW  432   1.352   1.574   1.634 -0.0347  0.0460  0.4041
  109SOL     OW  433   2.025   0.749   0.244  0.7133  0.4990 -0.1823
  109SOL    HW1  434   2.018   0.849   0.260  0.8912  2.8208 -1.4446
  109SOL    HW2  435   2.079   0.712   0.319  1.8563 -0.5800  1.3686
  109SOL     MW  436   2.031   0.757   0.256  0.8876  0.6630 -0.1442
  110SOL     OW  437   0.425   1.982   0.703  0.1488  0.2230  0.0616
  110SOL    HW1  438   0.454   1.897   0.665 -0.0681 -1.3670  1.9920
  110SOL    HW2  439   0.417   2.049   0.635 -2.9359  1.8453 -2.3083
  110SOL     MW  440   0.428   1.979   0.689 -0.2868  0.2273  0.0036
  111SOL     OW  441   0.835   0.906   1.372  0.3929 -0.0438 -0.3193
  111SOL    HW1  442   0.818   0.890   1.279  0.3239  0.0862 -0.4122
  111SOL    HW2  443   0.812   0.817   1.416  2.0278 -0.4946 -1.0285
  111SOL     MW  444   0.830   0.892   1.366  0.5995 -0.0862 -0.4251
  112SOL     OW  445   1.379   1.073   1.600  0.1229  0.0755  0.4487
  112SOL    HW1  446   1.294   1.125   1.606  0.1819 -1.2944 -1.4889
  112SOL    HW2  447   1.343   0.986   1.616 -0.8158  1.6495  0.0143
  112SOL     MW  448   1.363   1.068   1.603  0.0068  0.1024  0.1357
  113SOL     OW  449   1.262   3.052   1.684 -0.3968 -0.6132  0.1432
  113SOL    HW1  450   1.255   3.019   1.775  0.6804 -0.5299  1.4210
  113SOL    HW2  451   1.265   2.969   1.636  0.8203 -0.2008  0.4680
  113SOL     MW  452   1.262   3.037   1.690 -0.0941 -0.5478  0.3547
  114SOL     OW  453   0.269   2.886   1.890  0.1065  0.7573  0.0344
  114SOL    HW1  454   0.348   2.920   1.938 -4.2053 -1.3734  2.9908
  114SOL    HW2  455   0.214   2.960   1.887  1.1801 -1.0380 -1.2166
  114SOL     MW  456   0.272   2.901   1.896 -0.3207  0.2393  0.2594
  115SOL     OW  457   0.454   0.814   1.196 -0.0537 -0.0747 -0.2314
  115SOL    HW1  458   0.453   0.716   1.210 -1.9148  0.7548  0.2931
  115SOL    HW2  459   0.406   0.852   1.267  2.1327 -1.5906  2.3751
  115SOL     MW  460   0.447   0.806   1.207 -0.0108 -0.1652  0.1817
  116SOL     OW  461   0.780   1.094   0.977  0.1067  0.3797 -0.6971
  116SOL    HW1  462   0.797   1.118   0.880 -1.7540 -1.5444 -1.8140
  116SOL    HW2  463   0.822   1.162   1.037 -0.5056  1.4631  2.7307
  116SOL     MW  464   0.788   1.106   0.972 -0.2196  0.2688 -0.3922
  117SOL     OW  465   1.124   1.228   0.826  0.0082  0.1551  0.0330
  117SOL    HW1  466   1.178   1.155   0.866  3.1437  0.5370 -2.1741
  117SOL    HW2  467   1.123   1.312   0.882 -0.1389  3.7601 -0.4149
  117SOL     MW  468   1.131   1.229   0.839  0.4025  0.6812 -0.3173
  118SOL     OW  469   3.010   2.947   1.722  0.3913  0.2166  0.2187
  118SOL    HW1  470   3.042   2.980   1.809 -0.6266  2.7409  2.1087
  118SOL    HW2  471   2.917   2.963   1.720 -1.0090  1.4770  0.8779
  118SOL     MW  472   3.002   2.953   1.733  0.0723  0.7160  0.5550
  119SOL     OW  473   0.407   1.541   1.232 -0.4105  0.5146 -0.6049
  119SOL    HW1  474   0.440   1.614   1.179  3.2251  0.9593  0.6661
  119SOL    HW2  475   0.328   1.507   1.192  0.8929  0.9760  0.2806
  119SOL     MW  476   0.401   1.546   1.220  0.2412  0.6342 -0.3204
  120SOL     OW  477   0.252   0.793   0.992  0.3727  0.6045  0.2389
  120SOL    HW1  478   0.322   0.786   1.060  4.6799  1.7296 -2.2662
  120SOL    HW2  479   0.290   0.801   0.901  0.6471  1.0382 -1.0715
  120SOL     MW  480   0.266   0.793   0.989  0.9772  0.8102 -0.2645
  121SOL     OW  481   1.797   1.108   1.618  0.3328  0.0939 -0.6784
  121SOL    HW1  482   1.715   1.140   1.569  1.3272  2.0382  5.0269
  121SOL    HW2  483   1.812   1.015   1.588 -1.9416 -1.2269 -1.6575
  121SOL     MW  484   1.788   1.100   1.608  0.1639  0.1761 -0.0548
  122SOL     OW  485   0.177   0.576   0.825 -0.3636 -0.1129 -0.1011
  122SOL    HW1  486   0.260   0.535   0.794 -2.9888  1.7002 -1.1800
  122SOL    HW2  487   0.196   0.632   0.898 -0.9252 -0.0016  2.1707
  122SOL     MW  488   0.190   0.578   0.830 -0.7840  0.1410  0.0563
  123SOL     OW  489   1.859   1.112   0.514 -0.2759  0.0306  0.0568
  123SOL    HW1  490   1.802   1.052   0.565  1.7458 -2.4501  0.1249
  123SOL    HW2  491   1.885   1.181   0.578  1.8823 -0.5668 -0.3003
  123SOL     MW  492   1.855   1.113   0.529  0.2756 -0.3755  0.0187
  124SOL     OW  493   0.530   0.542   0.963  0.4025 -0.0367 -0.1216
  124SOL    HW1  494   0.481   0.520   0.882 -0.8701 -1.5301  0.5769
  124SOL    HW2  495   0.585   0.617   0.935 -1.2779  0.6750 -4.1289
  124SOL     MW  496   0.531   0.549   0.949  0.0128 -0.1399 -0.5582
  125SOL     OW  497   0.716   1.728   1.777 -0.3820 -0.0172  0.5681
  125SOL    HW1  498   0.663   1.650   1.773  0.4823 -0.3121 -1.0789
  125SOL    HW2  499   0.659   1.780   1.728 -1.9243 -1.7713 -0.8030
  125SOL     MW  500   0.701   1.724   1.770 -0.4714 -0.2875  0.1699
  126SOL     OW  501   2.147   1.522   1.954  0.8214  0.6661 -0.3833
  126SOL    HW1  502   2.205   1.594   1.967 -1.8193 -0.5619 -0.2715
  126SOL    HW2  503   2.207   1.451   1.954  2.5853  1.3334  0.0803
  126SOL     MW  504   2.162   1.522   1.955  0.7057  0.5921 -0.3074
  127SOL     OW  505   0.558   0.843   1.772 -0.2168 -0.4603 -0.1065
  127SOL    HW1  506   0.647   0.802   1.780  1.8258 -0.6448  2.2452
  127SOL    HW2  507   0.541   0.889   1.858 -0.6585 -2.0739  1.0470
  127SOL     MW  508   0.567   0.844   1.784 -0.0056 -0.6976  0.3560
  128SOL     OW  509   1.736   0.702   2.874 -0.0657 -0.5179 -0.1512
  128SOL    HW1  510   1.788   0.700   2.783  5.1531 -3.0709 -0.4331
  128SOL    HW2  511   1.704   0.790   2.893  1.0478  0.1372 -0.2409
  128SOL     MW  512   1.738   0.713   2.864  0.7698 -0.7683 -0.2002
  129SOL     OW  513   1.574   0.944   0.193 -0.4643  0.2925 -0.4302
  129SOL    HW1  514   1.507   0.875   0.176 -0.0114  1.1486  0.3597
  129SOL    HW2  515   1.639   0.883   0.231  0.8724 -1.8804 -1.8648
  129SOL     MW  516   1.574   0.927   0.196 -0.2282  0.1187 -0.5152
  130SOL     OW  517   0.816   1.423   0.322  0.6985  0.8115 -0.3283
  130SOL    HW1  518   0.825   1.439   0.424  2.0707 -1.1188  0.4322
  130SOL    HW2  519   0.898   1.449   0.286  2.6390  0.9125  0.2960
  130SOL     MW  520   0.828   1.429   0.330  1.1356  0.5701 -0.1456
  131SOL     OW  521   3.096   0.788   0.041  0.1957 -0.2483  0.5845
  131SOL    HW1  522   3.068   0.832  -0.041  0.0406 -1.9986  0.5659
  131SOL    HW2  523   3.177   0.752   0.012  0.0081 -3.8385  0.9381
  131SOL     MW  524   3.103   0.789   0.027  0.1505 -0.9529  0.6287
  132SOL     OW  525   2.742   0.127   1.266  0.3946 -0.3258 -0.1840
  132SOL    HW1  526   2.790   0.144   1.183  4.6044 -0.4850 -0.0723
  132SOL    HW2  527   2.648   0.089   1.242 -2.4002 -0.2834  0.5381
  132SOL     MW  528   2.736   0.125   1.252  0.5813 -0.3412 -0.0740
  133SOL     OW  529   1.013   0.102   1.670  0.0018  0.2948 -0.5206
  133SOL    HW1  530   1.100   0.052   1.673  2.1461 -1.4719 -0.1317
  133SOL    HW2  531   0.967   0.086   1.754 -0.2413 -1.6071 -0.4268
  133SOL     MW  532   1.018   0.094   1.682  0.2527 -0.1892 -0.4569
  134SOL     OW  533   1.420   2.422   1.476 -0.0635  0.2695  0.1982
  134SOL    HW1  534   1.333   2.467   1.454 -1.9340  0.0023 -0.2086
  134SOL    HW2  535   1.473   2.463   1.548  0.4257  0.6297 -0.6959
  134SOL     MW  536   1.415   2.434   1.482 -0.2458  0.2817  0.0265
  135SOL     OW  537   3.008   0.984   2.952 -0.3658  0.1385  0.3799
  135SOL    HW1  538   3.082   1.040   2.985  0.8544  1.6759 -0.2964
  135SOL    HW2  539   2.945   1.057   2.937 -3.0448  1.1217  3.7283
  135SOL     MW  540   3.010   1.001   2.955 -0.5583  0.4711  0.7325
  136SOL     OW  541   0.211   1.997   0.883 -0.1196 -0.2911 -0.1937
  136SOL    HW1  542   0.143   1.944   0.836  1.6591 -0.7250  3.2948
  136SOL    HW2  543   0.288   1.978   0.833 -0.8186  0.0687 -1.2783
  136SOL     MW  544   0.212   1.988   0.870  0.0229 -0.3008  0.1235
  137SOL     OW  545   0.700   2.038   0.570 -0.1020 -0.7698 -0.1389
  137SOL    HW1  546   0.724   2.024   0.662  1.1814  2.3924 -0.1445
  137SOL    HW2  547   0.604   2.067   0.574  1.6655  1.3610 -0.4236
  137SOL     MW  548   0.691   2.040   0.582  0.3005 -0.0715 -0.1772
  138SOL     OW  549   0.430   0.540   1.215  0.1496  0.2664  0.4919
  138SOL    HW1  550   0.337   0.520   1.210  3.5993 -2.5737 -0.5535
  138SOL    HW2  551   0.467   0.538   1.127 -1.0338  1.0468 -0.3430
  138SOL     MW  552   0.423   0.537   1.203  0.4487 -0.0054  0.2438
  139SOL     OW  553   2.812   0.571   1.353  0.0846  0.0617 -0.0356
  139SOL    HW1  554   2.862   0.488   1.333  1.1358  1.1060 -0.7161
  139SOL    HW2  555   2.836   0.580   1.447  0.5855 -0.5342 -0.6135
  139SOL     MW  556   2.822   0.562   1.363  0.2894  0.1208 -0.2017
  140SOL     OW  557   0.887   0.485   1.968  0.5393 -0.0568 -0.2550
  140SOL    HW1  558   0.920   0.397   1.956  0.7550 -1.3163 -0.8904
  140SOL    HW2  559   0.860   0.497   2.060  0.2249 -1.9454  0.6413
  140SOL     MW  560   0.888   0.475   1.979  0.5263 -0.4721 -0.2205
  141SOL     OW  561   1.014   0.675   1.653  0.2953 -0.2329 -0.4627
  141SOL    HW1  562   1.037   0.583   1.650 -3.2752 -1.9860  0.4927
  141SOL    HW2  563   1.097   0.722   1.673 -0.6893 -1.5478 -2.5063
  141SOL     MW  564   1.028   0.669   1.655 -0.3057 -0.6377 -0.6063
  142SOL     OW  565   0.878   1.214   0.719 -0.0077 -0.2401 -0.2380
  142SOL    HW1  566   0.892   1.146   0.648  0.8052 -2.9846  0.9569
  142SOL    HW2  567   0.960   1.210   0.771  1.0465  2.3752  0.0390
  142SOL     MW  568   0.891   1.204   0.717  0.2386 -0.2571 -0.0438
  143SOL     OW  569   1.860   0.666   1.062 -0.0914 -0.1390 -0.0002
  143SOL    HW1  570   1.930   0.700   0.999  1.1682  0.2583  0.6053
  143SOL    HW2  571   1.770   0.676   1.027 -2.1362 -3.0629  1.9313
  143SOL     MW  572   1.857   0.671   1.049 -0.1950 -0.4723  0.3345
  144SOL     OW  573   0.270   1.317   1.734  0.5768  0.5852  0.6311
  144SOL    HW1  574   0.349   1.359   1.702 -3.5761 -0.5743 -1.0078
  144SOL    HW2  575   0.307   1.249   1.796 -1.2599 -2.8571  0.8967
  144SOL     MW  576   0.285   1.313   1.738 -0.2134 -0.0220  0.4499
  145SOL     OW  577   0.180   0.444   1.258 -0.2637  0.2287  0.0494
  145SOL    HW1  578   0.210   0.345   1.262 -1.2993 -2.1717 -0.4674
  145SOL    HW2  579   0.116   0.449   1.189  0.4833  2.8899  0.2278
  145SOL     MW  580   0.176   0.431   1.249 -0.3018  0.2631  0.0047
  146SOL     OW  581   0.835   1.891   1.385 -0.5471  0.7450  0.9279
  146SOL    HW1  582   0.840   1.917   1.291 -3.0497 -1.5858 -0.0622
  146SOL    HW2  583   0.752   1.850   1.403 -0.9726 -0.5980  2.0546
  146SOL     MW  584   0.825   1.889   1.375 -0.9334  0.2603  0.9459
  147SOL     OW  585   0.434   0.482   2.908  0.2479 -0.5580 -0.3908
  147SOL    HW1  586   0.361   0.486   2.969  2.8805  1.0626  1.3612
  147SOL    HW2  587   0.429   0.561   2.854  0.0372 -1.4068  1.0197
  147SOL     MW  588   0.424   0.493   2.909  0.5674 -0.4562  0.0265
  148SOL     OW  589   0.065   0.932   1.282  0.1700  0.4099  0.8819
  148SOL    HW1  590   0.150   0.953   1.306 -0.1658 -3.7464  0.1240
  148SOL    HW2  591   0.016   1.003   1.317 -0.0684  0.5357 -0.4186
  148SOL     MW  592   0.070   0.944   1.290  0.0942 -0.1219  0.6103
  149SOL     OW  593   1.578   1.176   1.462  0.1964  0.0890 -0.5193
  149SOL    HW1  594   1.505   1.128   1.520 -0.7130 -1.2225  1.8882
  149SOL    HW2  595   1.548   1.267   1.449  2.3705  0.3888 -0.2203
  149SOL     MW  596   1.564   1.182   1.468  0.3633 -0.0445 -0.1622
  150SOL     OW  597   1.721   1.397   0.890 -0.0058  0.2165  0.3279
  150SOL    HW1  598   1.768   1.315   0.866  1.7916 -0.1913 -0.3932
  150SOL    HW2  599   1.789   1.461   0.877  0.8303 -2.9836 -1.2062
  150SOL     MW  600   1.736   1.395   0.885  0.3417 -0.2596  0.0304
  151SOL     OW  601   1.678   1.849   0.816 -0.3529  0.7478  0.0441
  151SOL    HW1  602   1.651   1.840   0.724  0.8619  0.5206  0.5067
  151SOL    HW2  603   1.600   1.850   0.865  0.7774  2.8482 -1.8147
  151SOL     MW  604   1.664   1.848   0.811 -0.0434  0.9950 -0.1401
  152SOL     OW  605   0.717   1.435   1.602 -0.7242 -0.4886 -0.5674
  152SOL    HW1  606   0.753   1.489   1.525 -0.2046 -0.2796 -0.7810
  152SOL    HW2  607   0.731   1.339   1.573  0.4141  0.1171 -3.0047
  152SOL     MW  608   0.724   1.430   1.588 -0.5054 -0.3811 -0.9172
  153SOL     OW  609   2.573   1.220   0.749 -0.0281 -0.5981 -0.1455
  153SOL    HW1  610   2.647   1.177   0.704 -0.9493  0.6277  0.1847
  153SOL    HW2  611   2.519   1.142   0.775  1.7538 -0.2145 -2.5202
  153SOL     MW  612   2.576   1.204   0.747  0.0854 -0.3857 -0.4152
  154SOL     OW  613   0.098   1.762   1.772 -0.0768  0.2479 -0.4452
  154SOL    HW1  614   0.070   1.688   1.724 -1.9101  1.5773 -0.3267
  154SOL    HW2  615   0.193   1.736   1.783 -2.2236  1.1183 -0.9603
  154SOL     MW  616   0.107   1.749   1.767 -0.6019  0.5381 -0.4975
  155SOL     OW  617   1.219   0.759   0.303  0.5294 -0.5632 -0.2076
  155SOL    HW1  618   1.186   0.713   0.387 -0.2192 -1.0087 -0.9211
  155SOL    HW2  619   1.203   0.852   0.325 -1.7631 -2.2789 -0.9200
  155SOL     MW  620   1.212   0.765   0.317  0.1282 -0.8484 -0.3957
  156SOL     OW  621   1.547   3.089   1.108 -0.7239  0.1397 -0.0030
  156SOL    HW1  622   1.623   3.127   1.150 -0.8153 -1.4842 -0.9625
  156SOL    HW2  623   1.567   2.999   1.083  2.8173 -0.4317  0.8638
  156SOL     MW  624   1.560   3.082   1.110 -0.2688 -0.1499 -0.0153
  157SOL     OW  625   1.415   1.131   0.124 -0.0045  0.0081  0.0517
  157SOL    HW1  626   1.445   1.053   0.180 -1.4925  1.1647  2.4376
  157SOL    HW2  627   1.473   1.205   0.135 -2.6460 -0.6498 -0.3701
  157SOL     MW  628   1.426   1.131   0.133 -0.5493  0.0739  0.3108
  158SOL     OW  629   0.443   1.692   2.278 -0.0928 -0.2972 -0.3531
  158SOL    HW1  630   0.507   1.728   2.215  2.6661 -0.8152  1.0419
  158SOL    HW2  631   0.368   1.739   2.249  1.7319  1.3364 -0.6424
  158SOL     MW  632   0.442   1.703   2.266  0.5119 -0.1500 -0.2072
  159SOL     OW  633   1.197   1.614   0.496  0.1755  0.0887  0.0479
  159SOL    HW1  634   1.166   1.603   0.404  1.3015 -0.0860 -1.5783
  159SOL    HW2  635   1.126   1.667   0.543 -1.2565 -0.8994  0.5226
  159SOL     MW  636   1.184   1.620   0.490  0.1352 -0.0647 -0.1041
  160SOL     OW  637   0.505   1.213   1.543 -0.4718 -0.7710 -0.1420
  160SOL    HW1  638   0.443   1.150   1.589 -0.6065 -0.2620 -0.3810
  160SOL    HW2  639   0.592   1.174   1.563 -0.6374 -0.7954 -2.0175
  160SOL     MW  640   0.508   1.199   1.552 -0.5114 -0.7070 -0.4210
  161SOL     OW  641   0.435   2.253   2.613 -0.7004  0.5028  1.0424
  161SOL    HW1  642   0.345   2.257   2.586  2.9859 -0.2416  3.1336
  161SOL    HW2  643   0.481   2.184   2.551 -0.2777 -3.3757 -1.2905
  161SOL     MW  644   0.429   2.244   2.601 -0.1582 -0.1072  1.0105
  162SOL     OW  645   1.076   1.808   1.803 -0.0895 -0.4132 -0.4553
  162SOL    HW1  646   1.051   1.895   1.782 -0.4453  0.4092  2.7361
  162SOL    HW2  647   1.006   1.783   1.863  2.4165  2.5135  2.6249
  162SOL     MW  648   1.064   1.816   1.808  0.1942  0.0815  0.3722
  163SOL     OW  649   2.122   3.082   0.851  0.9238  0.6720  0.1794
  163SOL    HW1  650   2.105   3.151   0.777 -0.5614 -0.5819  0.9751
  163SOL    HW2  651   2.081   2.997   0.822 -2.4433  0.1627 -1.1137
  163SOL     MW  652   2.114   3.080   0.837  0.2836  0.4394  0.1138
  164SOL     OW  653   0.296   0.203   0.786  0.3536  0.2430 -0.0096
  164SOL    HW1  654   0.209   0.194   0.825  0.1223 -0.6034  0.3367
  164SOL    HW2  655   0.295   0.137   0.722 -0.7526  2.1172  0.7179
  164SOL     MW  656   0.284   0.193   0.783  0.1771  0.3786  0.1321
  165SOL     OW  657   1.189   1.307   0.323  0.0203 -0.2528 -0.1820
  165SOL    HW1  658   1.229   1.290   0.413  0.2765 -0.0743  1.2889
  165SOL    HW2  659   1.238   1.248   0.271  0.9195 -1.0969  2.1302
  165SOL     MW  660   1.200   1.297   0.328  0.1728 -0.3407  0.3171
  166SOL     OW  661   0.512   1.127   1.036 -0.9261 -0.6210  0.2938
  166SOL    HW1  662   0.501   1.176   1.114 -0.2016 -1.8478 -1.0816
  166SOL    HW2  663   0.611   1.121   1.011  0.5821  0.1801  1.5215
  166SOL     MW  664   0.523   1.133   1.043 -0.6315 -0.6772  0.2743
  167SOL     OW  665   0.789   1.163   0.265 -0.2239  0.0093  0.7786
  167SOL    HW1  666   0.830   1.250   0.296  1.3836 -0.6138 -0.2790
  167SOL    HW2  667   0.870   1.116   0.231  0.5696 -1.2576 -0.8312
  167SOL     MW  668   0.805   1.168   0.265  0.0929 -0.2401  0.4267
  168SOL     OW  669   1.725   1.633   3.041 -0.2750 -0.7059 -0.0392
  168SOL    HW1  670   1.655   1.697   3.025 -2.1264  0.0491  0.5761
  168SOL    HW2  671   1.683   1.553   3.005 -1.0667 -1.1699  1.6917
  168SOL     MW  672   1.710   1.631   3.034 -0.6237 -0.6675  0.2703
  169SOL     OW  673   0.326   0.958   1.366  0.5533  0.9308  0.1151
  169SOL    HW1  674   0.358   0.968   1.463 -1.7333 -0.2070  1.2609
  169SOL    HW2  675   0.356   1.034   1.317 -1.5865  3.4934  4.4746
  169SOL     MW  676   0.334   0.970   1.372 -0.0307  1.1188  0.8415
  170SOL     OW  677   1.172   1.513   1.447 -0.6404  0.7718  0.5234
  170SOL    HW1  678   1.114   1.589   1.456 -1.5120  1.0313 -3.2668
  170SOL    HW2  679   1.134   1.484   1.363  1.4944  1.5530 -1.4959
  170SOL     MW  680   1.159   1.520   1.437 -0.4737  0.9091 -0.2431
  171SOL     OW  681   0.530   1.461   0.482 -0.1476  1.0118 -0.0448
  171SOL    HW1  682   0.494   1.437   0.562 -0.4699 -1.7688  0.9331
  171SOL    HW2  683   0.543   1.380   0.432 -1.3349 -0.3401 -1.7028
  171SOL     MW  684   0.527   1.447   0.486 -0.3467  0.4666 -0.1345
  172SOL     OW  685   0.769   0.241   1.248 -0.6803  0.6080  0.6449
  172SOL    HW1  686   0.762   0.204   1.155 -2.1225  2.3867 -3.8312
  172SOL    HW2  687   0.817   0.174   1.299  1.0890 -0.4382 -0.6774
  172SOL     MW  688   0.775   0.227   1.242 -0.6371  0.7046 -0.1202
  173SOL     OW  689   0.538   1.736   0.321  0.7588 -0.9180  0.8168
  173SOL    HW1  690   0.523   1.641   0.288  1.3031  1.7374  0.9421
  173SOL    HW2  691   0.577   1.731   0.406  0.9564 -2.1943  1.1667
  173SOL     MW  692   0.541   1.722   0.328  0.8567 -0.7360  0.8795
  174SOL     OW  693   1.864   0.867   1.511  0.4733  0.3408  0.3804
  174SOL    HW1  694   1.792   0.800   1.526  0.9513 -1.1493  1.4695
  174SOL    HW2  695   1.845   0.913   1.424  1.6978 -0.1066 -1.0987
  174SOL     MW  696   1.852   0.864   1.502  0.6979  0.0851  0.3289
  175SOL     OW  697   0.558   1.511   0.143  0.4050 -0.1588 -0.0860
  175SOL    HW1  698   0.503   1.432   0.120 -0.0884  1.3390  0.3529
  175SOL    HW2  699   0.648   1.486   0.142  0.7256 -2.5542 -0.5156
  175SOL     MW  700   0.563   1.497   0.140  0.3822 -0.2772 -0.0848
  176SOL     OW  701   0.153   1.476   1.171 -0.2132  0.5764  0.6704
  176SOL    HW1  702   0.149   1.438   1.080  0.4679 -1.9832 -2.7349
  176SOL    HW2  703   0.091   1.427   1.221 -1.0814 -1.1513  0.6939
  176SOL     MW  704   0.144   1.465   1.165 -0.2379  0.0107  0.2242
  177SOL     OW  705   0.533   0.331   1.459  0.3985 -0.1738 -0.2419
  177SOL    HW1  706   0.584   0.349   1.384 -0.2626  0.8756 -0.2696
  177SOL    HW2  707   0.555   0.400   1.524  1.6895  0.1872  0.0384
  177SOL     MW  708   0.542   0.342   1.458  0.4816  0.0123 -0.2086
  178SOL     OW  709   0.008   0.488   2.990 -0.2868  0.1737 -0.1916
  178SOL    HW1  710  -0.041   0.505   3.071 -0.3376  1.4447  4.7379
  178SOL    HW2  711  -0.064   0.482   2.928  1.4898 -0.8328 -1.1878
  178SOL     MW  712  -0.008   0.489   2.992 -0.0591  0.2086  0.3273
  179SOL     OW  713   1.556   1.450   1.381  0.2631  0.3837 -0.4037
  179SOL    HW1  714   1.559   1.453   1.480 -1.3583  1.4477 -1.1331
  179SOL    HW2  715   1.641   1.452   1.344 -1.0043  0.7869 -0.2998
  179SOL     MW  716   1.568   1.451   1.389 -0.1181  0.5773 -0.4862
  180SOL     OW  717   3.028   0.298   0.458  0.7985  0.1837 -0.7378
  180SOL    HW1  718   2.978   0.295   0.379  2.8293  0.9899  0.6604
  180SOL    HW2  719   3.063   0.382   0.458  0.0300 -0.5959 -0.3872
  180SOL     MW  720   3.026   0.309   0.447  0.9651  0.1872 -0.5070
  181SOL     OW  721   1.119   1.280   3.092 -0.0272 -0.0651 -0.0294
  181SOL    HW1  722   1.166   1.361   3.126 -5.0499  1.7318 -0.5990
  181SOL    HW2  723   1.165   1.227   3.033  0.2395 -0.3773  3.2213
  181SOL     MW  724   1.131   1.283   3.089 -0.6547  0.1308  0.3244
  182SOL     OW  725   0.371   0.982   1.628 -0.1111  0.0054  0.1740
  182SOL    HW1  726   0.286   0.931   1.641  0.7263 -0.0937  0.7787
  182SOL    HW2  727   0.432   0.926   1.675 -0.1439 -2.9256 -0.9084
  182SOL     MW  728   0.368   0.968   1.636 -0.0050 -0.3944  0.1109
  183SOL     OW  729   1.531   1.718   1.254  0.1485  0.3358 -0.1153
  183SOL    HW1  730   1.624   1.733   1.258 -2.9767  0.4399 -0.6261
  183SOL    HW2  731   1.512   1.633   1.297  2.0665 -1.8061 -2.1572
  183SOL     MW  732   1.541   1.708   1.260 -0.0108  0.0669 -0.4521
  184SOL     OW  733   0.788   0.719   1.815 -0.3001  0.2838 -0.7712
  184SOL    HW1  734   0.874   0.727   1.777 -2.0485  1.9384 -0.9148
  184SOL    HW2  735   0.787   0.630   1.856  1.5374  2.0599  1.6791
  184SOL     MW  736   0.799   0.709   1.815 -0.2883  0.7365 -0.4669
  185SOL     OW  737   1.069   0.945   1.882  0.2701  0.3831  0.0703
  185SOL    HW1  738   1.055   0.862   1.930  1.0237  2.4529  1.0027
  185SOL    HW2  739   1.128   0.983   1.949  0.2484 -2.5914  1.8232
  185SOL     MW  740   1.075   0.939   1.897  0.3666  0.2637  0.4246
  186SOL     OW  741   0.312   1.646   1.487 -0.1730 -0.1045  0.2816
  186SOL    HW1  742   0.340   1.603   1.406 -3.0916 -1.4772  1.2895
  186SOL    HW2  743   0.231   1.608   1.517  0.6660 -1.9239 -2.4322
  186SOL     MW  744   0.305   1.635   1.480 -0.4474 -0.5257  0.0565
  187SOL     OW  745   1.456   0.771   1.386 -0.7230 -0.0156  0.0442
  187SOL    HW1  746   1.505   0.741   1.464  0.4132  2.0121  0.6683
  187SOL    HW2  747   1.371   0.727   1.373 -0.4963 -0.0461  1.0887
  187SOL     MW  748   1.452   0.761   1.395 -0.5432  0.2479  0.2644
  188SOL     OW  749   1.935   1.207   0.832 -0.6373  0.0035 -0.0907
  188SOL    HW1  750   1.908   1.185   0.926 -1.3013 -0.3344  1.7741
  188SOL    HW2  751   1.968   1.125   0.804 -1.7022 -1.0461  0.1334
  188SOL     MW  752   1.936   1.193   0.841 -0.8654 -0.1796  0.1849
  189SOL     OW  753   0.684   0.736   0.858 -0.5908 -0.3560  1.3122
  189SOL    HW1  754   0.606   0.786   0.849 -0.8379  0.4797 -0.7854
  189SOL    HW2  755   0.737   0.769   0.934 -0.0737  0.9222  1.0044
  189SOL     MW  756   0.681   0.747   0.867 -0.5552 -0.0771  0.9949
  190SOL     OW  757   1.873   0.287   2.093 -0.3125 -0.4256 -0.5204
  190SOL    HW1  758   1.865   0.242   2.181  1.4955  2.3656  0.5515
  190SOL    HW2  759   1.959   0.330   2.113 -2.0651 -1.4258  2.6419
  190SOL     MW  760   1.883   0.287   2.107 -0.3052 -0.1893  0.0382
  191SOL     OW  761   1.527   0.993   1.245 -0.1203 -0.4274 -0.6071
  191SOL    HW1  762   1.550   1.065   1.307 -1.0164 -0.8618  1.6908
  191SOL    HW2  763   1.489   0.921   1.298  0.7362 -1.0337  0.7695
  191SOL     MW  764   1.525   0.993   1.260 -0.1256 -0.5647 -0.1223
  192SOL     OW  765   0.519   2.165   2.880  0.0552  0.3239 -0.0598
  192SOL    HW1  766   0.474   2.171   2.798 -0.1075  3.6558 -1.0315
  192SOL    HW2  767   0.528   2.071   2.886 -0.1664 -0.2547 -1.0323
  192SOL     MW  768   0.514   2.153   2.870  0.0045  0.6872 -0.3163
  193SOL     OW  769   0.866   1.607   0.788 -0.6476  0.0320 -0.4876
  193SOL    HW1  770   0.819   1.591   0.864  2.0181  3.2440  0.2861
  193SOL    HW2  771   0.832   1.551   0.716  1.1231  2.2545  1.2389
  193SOL     MW  772   0.855   1.597   0.789 -0.0622  0.7490 -0.1577
  194SOL     OW  773   0.498   1.312   0.812 -0.2075  0.3905 -0.3248
  194SOL    HW1  774   0.496   1.248   0.886  0.2664 -0.7481  0.7031
  194SOL    HW2  775   0.408   1.340   0.802  2.1485  1.6393 -0.3657
  194SOL     MW  776   0.486   1.307   0.820  0.1659  0.4051 -0.1946
  195SOL     OW  777   1.302   1.099   2.943  0.0148  0.0549  0.5922
  195SOL    HW1  778   1.360   1.091   3.015  0.8031 -0.3416 -1.3260
  195SOL    HW2  779   1.235   1.032   2.951  1.1130 -0.9887  0.5016
  195SOL     MW  780   1.301   1.089   2.954  0.2637 -0.1351  0.3272
  196SOL     OW  781   2.269   0.994   0.572 -0.0949  0.3786  0.3609
  196SOL    HW1  782   2.244   0.943   0.501  1.7997  0.9413 -0.3189
  196SOL    HW2  783   2.259   1.087   0.540  0.0409  2.5837  1.3655
  196SOL     MW  784   2.264   1.000   0.558  0.1730  0.7438  0.4038
  197SOL     OW  785   0.621   1.291   2.215  0.5666  0.5308 -0.0937
  197SOL    HW1  786   0.626   1.221   2.153  1.5006  3.0588  1.2437
  197SOL    HW2  787   0.681   1.349   2.168 -0.0794  1.3185 -1.4553
  197SOL     MW  788   0.630   1.290   2.201  0.6046  0.9683 -0.0969
  198SOL     OW  789   2.905   1.415   1.007 -0.1334 -0.0751 -0.5870
  198SOL    HW1  790   2.893   1.510   0.990 -1.3899 -0.3422 -2.2758
  198SOL    HW2  791   2.833   1.363   0.962 -0.3195  0.6391 -1.5622
  198SOL     MW  792   2.894   1.421   0.999 -0.3237 -0.0161 -0.9385
  199SOL     OW  793   0.741   1.313   1.860 -0.4723 -0.2650  0.1858
  199SOL    HW1  794   0.651   1.281   1.869 -1.2451 -1.5305 -0.2600
  199SOL    HW2  795   0.732   1.378   1.791  1.6979 -0.1438 -0.4032
  199SOL     MW  796   0.728   1.317   1.852 -0.2879 -0.4160  0.0493
  200SOL     OW  797   1.841   2.922   1.352  0.2133  0.0991 -0.4088
  200SOL    HW1  798   1.905   2.950   1.278 -0.6782  0.9555 -1.6707
  200SOL    HW2  799   1.788   2.990   1.362  1.6781 -1.4566 -2.3913
  200SOL     MW  800   1.843   2.934   1.344  0.2889  0.0068 -0.8368
  201SOL     OW  801   1.125   0.333   0.770  0.8945  0.1864  0.9419
  201SOL    HW1  802   1.076   0.253   0.754  2.1217 -0.5080  0.7972
  201SOL    HW2  803   1.206   0.311   0.819 -1.4451 -0.0446  1.7248
  201SOL     MW  804   1.129   0.319   0.774  0.7477  0.0643  1.0261
  202SOL     OW  805   1.488   1.773   1.002  0.4453  0.0979  0.4780
  202SOL    HW1  806   1.501   1.676   0.984  1.9331  0.1535 -0.5564
  202SOL    HW2  807   1.511   1.770   1.093  0.2627 -0.4603 -2.8264
  202SOL     MW  808   1.493   1.760   1.012  0.6175  0.0316 -0.0944
  203SOL     OW  809   2.985   0.353   1.350  0.1484 -0.3082 -0.2658
  203SOL    HW1  810   3.036   0.277   1.378 -1.0593  0.0204 -1.2506
  203SOL    HW2  811   3.063   0.408   1.347 -0.9859 -0.4847 -4.9494
  203SOL     MW  812   3.002   0.350   1.353 -0.1606 -0.2881 -1.0137
  204SOL     OW  813   1.036   1.782   0.627 -0.7822  0.1949  0.2187
  204SOL    HW1  814   0.983   1.732   0.687 -1.9245  0.6034  0.0073
  204SOL    HW2  815   0.974   1.806   0.558  0.4711  0.4815 -0.6045
  204SOL     MW  816   1.021   1.778   0.626 -0.7675  0.2866  0.0822
  205SOL     OW  817   1.380   3.028   1.331  1.0603  0.1967  0.0173
  205SOL    HW1  818   1.437   3.043   1.255  1.0795 -0.7023 -2.3704
  205SOL    HW2  819   1.311   3.096   1.332  0.6358 -0.2842  0.1413
  205SOL     MW  820   1.378   3.039   1.321  1.0069  0.0146 -0.2814
  206SOL     OW  821   0.413   3.021   1.351 -0.2225 -0.6294 -0.4557
  206SOL    HW1  822   0.370   3.018   1.267 -0.4223 -3.6780  0.0066
  206SOL    HW2  823   0.509   3.014   1.335 -0.7536 -2.7833  0.3087
  206SOL     MW  824   0.420   3.019   1.338 -0.3190 -1.3158 -0.2938
  207SOL     OW  825   0.888   1.748   0.195 -0.4475  0.9229  0.9321
  207SOL    HW1  826   0.957   1.809   0.176  0.1426 -1.8856 -2.3458
  207SOL    HW2  827   0.922   1.673   0.241 -0.5314 -0.4712  0.1742
  207SOL     MW  828   0.902   1.746   0.199 -0.3807  0.3684  0.3996
  208SOL     OW  829   0.794   1.602   1.391  0.6479  0.0567  0.2130
  208SOL    HW1  830   0.875   1.643   1.407 -1.5239  0.9984 -3.7704
  208SOL    HW2  831   0.813   1.535   1.320  1.4398 -0.9177  1.1614
  208SOL     MW  832   0.807   1.599   1.384  0.4658  0.0524 -0.1875
  209SOL     OW  833   1.528   0.517   2.851  0.4732  0.4919  0.0775
  209SOL    HW1  834   1.580   0.602   2.861  1.2598 -0.7633 -0.8976
  209SOL    HW2  835   1.598   0.449   2.846  0.3497 -1.2673 -2.2794
  209SOL     MW  836   1.544   0.519   2.852  0.5607  0.0942 -0.3622
  210SOL     OW  837   1.491   1.508   0.962  0.1242 -0.8544  0.0630
  210SOL    HW1  838   1.580   1.476   0.957 -0.7378 -2.4299  0.4821
  210SOL    HW2  839   1.461   1.512   0.868 -1.8006 -0.1029 -0.1982
  210SOL     MW  840   1.499   1.504   0.949 -0.2435 -0.9631  0.0838
  211SOL     OW  841   1.745   0.326   0.973  0.5142  0.4899 -0.2439
  211SOL    HW1  842   1.742   0.365   0.887 -1.1320  1.4132  0.1266
  211SOL    HW2  843   1.839   0.300   0.987 -0.1105  0.3229  1.5281
  211SOL     MW  844   1.757   0.328   0.964  0.2146  0.5897  0.0388
  212SOL     OW  845   0.312   1.111   0.268  0.2996  0.1883  0.1597
  212SOL    HW1  846   0.229   1.075   0.308 -1.3671  1.6139 -0.6186
  212SOL    HW2  847   0.345   1.030   0.228 -1.2127  1.5558  2.1135
  212SOL     MW  848   0.306   1.095   0.268 -0.1198  0.5568  0.3148
  213SOL     OW  849   0.372   1.837   3.030 -0.6756  0.7524  0.0739
  213SOL    HW1  850   0.427   1.856   3.114 -0.5189  1.8015  2.2997
  213SOL    HW2  851   0.434   1.861   2.954 -0.2328  0.1852 -0.5757
  213SOL     MW  852   0.387   1.843   3.031 -0.5965  0.8160  0.2819
  214SOL     OW  853   0.608   0.300   2.123 -0.1884 -0.0474 -0.3492
  214SOL    HW1  854   0.545   0.377   2.157 -0.4820 -1.7560  2.3851
  214SOL    HW2  855   0.628   0.312   2.029 -0.7203 -1.6889  1.4382
  214SOL     MW  856   0.602   0.311   2.115 -0.2973 -0.4894  0.2474
  215SOL     OW  857   0.492   0.554   2.545 -0.1181 -0.2181 -0.9099
  215SOL    HW1  858   0.469   0.597   2.462 -1.3926 -0.6144  2.0578
  215SOL    HW2  859   0.432   0.602   2.601  2.5776 -1.6452  2.0809
  215SOL     MW  860   0.481   0.566   2.542  0.0694 -0.4587 -0.1237
  216SOL     OW  861   2.941   3.062   2.721 -0.4036 -0.3010  0.2845
  216SOL    HW1  862   2.892   3.047   2.803 -0.3863  0.0508  0.2808
  216SOL    HW2  863   2.947   3.162   2.705 -1.5746  3.1138  0.8195
  216SOL     MW  864   2.936   3.073   2.730 -0.5558  0.1960  0.3546
  217SOL     OW  865   1.036   1.074   0.146  0.1641 -0.2973  0.1265
  217SOL    HW1  866   1.074   1.006   0.088  0.7566  2.9439  2.2237
  217SOL    HW2  867   1.073   1.155   0.104  1.0451  0.7867 -1.2953
  217SOL     MW  868   1.046   1.075   0.133  0.3585  0.2734  0.2156
  218SOL     OW  869   0.855   1.377   2.668  0.3904 -0.4065 -0.4304
  218SOL    HW1  870   0.836   1.325   2.746 -2.1350 -1.2892 -0.7950
  218SOL    HW2  871   0.952   1.391   2.659  1.1794 -1.7519 -2.7935
  218SOL     MW  872   0.866   1.372   2.677  0.1613 -0.7005 -0.7903
  219SOL     OW  873   1.044   0.412   2.617  0.0166  0.0739  0.0799
  219SOL    HW1  874   1.108   0.478   2.656 -1.5235 -0.0262 -0.0132
  219SOL    HW2  875   0.960   0.459   2.618 -1.7019  1.3687  2.7440
  219SOL     MW  876   1.042   0.427   2.622 -0.4133  0.2316  0.4191
  220SOL     OW  877   1.711   0.527   2.191  0.4725 -0.4655 -0.1617
  220SOL    HW1  878   1.636   0.534   2.129 -0.9821  0.9343 -1.2014
  220SOL    HW2  879   1.754   0.445   2.158  0.0483 -1.8702 -0.4915
  220SOL     MW  880   1.707   0.517   2.178  0.2246 -0.4662 -0.3424
  221SOL     OW  881   0.345   1.314   2.934  0.1910  0.4200  0.3524
  221SOL    HW1  882   0.404   1.241   2.918 -3.1698 -0.3142  2.7955
  221SOL    HW2  883   0.374   1.376   2.872  0.3465 -0.9975  0.1654
  221SOL     MW  884   0.356   1.312   2.924 -0.2319  0.1361  0.6501
  222SOL     OW  885   0.504   0.974   2.688 -0.3565  0.1642 -0.2399
  222SOL    HW1  886   0.415   1.004   2.682  0.9899  0.5162  1.1661
  222SOL    HW2  887   0.508   0.883   2.710  1.7529 -1.6082  1.7281
  222SOL     MW  888   0.493   0.966   2.690  0.0995 -0.0232  0.2052
  223SOL     OW  889   0.005   2.037   2.568  0.4520  0.0333 -0.3006
  223SOL    HW1  890   0.038   2.033   2.656 -2.8284  2.9071 -0.4953
  223SOL    HW2  891   0.037   2.120   2.540  0.6255  1.8229 -2.9925
  223SOL     MW  892   0.013   2.047   2.576  0.0421  0.6486 -0.6815
  224SOL     OW  893   1.437   0.709   2.464 -0.1327  0.1949 -0.2431
  224SOL    HW1  894   1.491   0.687   2.545  0.8235 -3.5866  0.2672
  224SOL    HW2  895   1.430   0.808   2.472  0.0035  2.2782  0.1654
  224SOL     MW  896   1.443   0.720   2.476  0.0115 -0.0292 -0.1219
  225SOL     OW  897   2.957   1.446   2.271 -0.3783  0.0636  0.5301
  225SOL    HW1  898   2.994   1.535   2.252  0.7645 -0.4344 -0.1629
  225SOL    HW2  899   2.877   1.462   2.326 -0.6537 -1.6209 -1.8920
  225SOL     MW  900   2.951   1.460   2.276 -0.2639 -0.2243  0.1191
  226SOL     OW  901   0.404   1.488   2.711  0.1712 -0.4666  0.0349
  226SOL    HW1  902   0.499   1.501   2.695  1.2195  1.2088  1.5837
  226SOL    HW2  903   0.361   1.576   2.706  1.6343 -2.3828 -2.4684
  226SOL     MW  904   0.411   1.501   2.708  0.5025 -0.4984 -0.0911
  227SOL     OW  905   0.579   1.125   2.894 -0.3376  0.1690  0.6435
  227SOL    HW1  906   0.673   1.155   2.889 -1.4052 -0.5473 -1.3144
  227SOL    HW2  907   0.552   1.081   2.814 -2.2291  0.4497  0.4240
  227SOL     MW  908   0.588   1.123   2.883 -0.7281  0.1116  0.3562
  228SOL     OW  909   0.764   1.129   2.046 -0.3702  0.5619 -0.3318
  228SOL    HW1  910   0.776   1.204   1.986 -0.3982 -2.1156 -1.5939
  228SOL    HW2  911   0.838   1.145   2.109  0.7184 -0.3770 -1.5977
  228SOL     MW  912   0.776   1.141   2.046 -0.2303  0.0847 -0.6653
  229SOL     OW  913   0.234   0.586   3.090  0.1732 -0.1951 -0.4291
  229SOL    HW1  914   0.147   0.547   3.048 -2.6254 -0.4632  2.7232
  229SOL    HW2  915   0.236   0.530   3.169 -0.4540 -1.4980  0.9094
  229SOL     MW  916   0.223   0.574   3.095 -0.2788 -0.4024  0.1634
  230SOL     OW  917   1.802   1.369   1.998 -0.3209  0.2436  0.5806
  230SOL    HW1  918   1.797   1.339   2.089  1.3647 -1.2039  3.1566
  230SOL    HW2  919   1.798   1.300   1.937  0.4285 -0.0974  2.0468
  230SOL     MW  920   1.801   1.356   2.002  0.0004  0.0076  1.1139
  231SOL     OW  921   2.731   1.272   2.241 -0.2258 -0.6922  0.7087
  231SOL    HW1  922   2.803   1.327   2.260 -1.9466  1.6333 -1.1904
  231SOL    HW2  923   2.688   1.315   2.167 -0.2839 -0.3163  3.4282
  231SOL     MW  924   2.735   1.285   2.234 -0.4605 -0.3358  0.8170
  232SOL     OW  925   2.302   0.812   1.969  0.3313 -0.5449 -0.2867
  232SOL    HW1  926   2.234   0.837   1.906 -1.1651  2.3671 -1.2591
  232SOL    HW2  927   2.260   0.803   2.057  1.7939  2.1678  0.4375
  232SOL     MW  928   2.288   0.815   1.972  0.3269  0.1972 -0.3194
  233SOL     OW  929   2.113   0.440   2.094 -0.0463  0.1318 -0.1542
  233SOL    HW1  930   2.168   0.368   2.061  0.6915 -1.1646  0.3759
  233SOL    HW2  931   2.176   0.504   2.141 -0.2080 -2.4696  1.6186
  233SOL     MW  932   2.128   0.439   2.096  0.0297 -0.3825  0.1496
  234SOL     OW  933   0.251   1.034   2.611 -0.2583  0.3464  0.2736
  234SOL    HW1  934   0.226   1.013   2.521  1.4912  1.8621  1.5224
  234SOL    HW2  935   0.269   1.128   2.595 -0.1843 -1.2801 -0.3932
  234SOL     MW  936   0.250   1.044   2.597 -0.0177  0.3318  0.3504
  235SOL     OW  937   1.055   3.002   2.815  0.7262 -0.3960  0.1807
  235SOL    HW1  938   1.105   2.970   2.886 -0.9994  0.5121  2.0142
  235SOL    HW2  939   1.070   3.098   2.829  3.1903 -0.4929 -1.8482
  235SOL     MW  940   1.063   3.010   2.826  0.8236 -0.2889  0.1549
  236SOL     OW  941   2.944   0.610   0.172  0.3932  0.1212  0.4691
  236SOL    HW1  942   2.939   0.625   0.266  0.6829 -0.8809 -0.6687
  236SOL    HW2  943   2.997   0.677   0.127  1.2571  1.5262  2.5552
  236SOL     MW  944   2.950   0.621   0.179  0.5454  0.1744  0.5942
  237SOL     OW  945   1.959   1.058   2.147  0.0559  0.1634 -0.3138
  237SOL    HW1  946   1.877   1.053   2.106  2.3083  0.9308 -0.4898
  237SOL    HW2  947   1.996   0.976   2.127 -2.7156  2.2791  1.7165
  237SOL     MW  948   1.953   1.046   2.139 -0.0126  0.5438 -0.0691
  238SOL     OW  949   1.092   1.766   2.974  0.3920  0.1008  0.0813
  238SOL    HW1  950   1.015   1.739   2.916 -1.3622 -0.5776  1.5142
  238SOL    HW2  951   1.168   1.738   2.920 -0.2281  0.2837 -2.0935
  238SOL     MW  952   1.092   1.759   2.959  0.0788  0.0354 -0.0166
  239SOL     OW  953   1.177   1.298   2.266 -0.4437 -0.2426  0.1730
  239SOL    HW1  954   1.092   1.252   2.253  0.3988 -0.5423  0.2319
  239SOL    HW2  955   1.187   1.273   2.355  0.6702 -1.9795  0.9070
  239SOL     MW  956   1.167   1.288   2.276 -0.1856 -0.5113  0.2776
  240SOL     OW  957   0.600   0.879   2.208 -0.3215  0.4443  0.3683
  240SOL    HW1  958   0.628   0.907   2.303 -2.1526  0.3003 -0.2806
  240SOL    HW2  959   0.687   0.875   2.160  0.1060  1.2305 -1.5463
  240SOL     MW  960   0.615   0.882   2.214 -0.5067  0.5290  0.0300
  241SOL     OW  961   0.687   0.453   3.052 -0.3859 -0.0796  0.4957
  241SOL    HW1  962   0.712   0.533   3.092  0.9765 -2.6144  0.3119
  241SOL    HW2  963   0.604   0.469   3.013 -0.4632  1.2061  0.0259
  241SOL     MW  964   0.679   0.465   3.052 -0.2164 -0.2444  0.4095
  242SOL     OW  965   1.499   1.695   2.306 -0.3779 -0.0861  0.2022
  242SOL    HW1  966   1.432   1.762   2.296 -0.6014  1.8853 -2.1620
  242SOL    HW2  967   1.456   1.613   2.270 -0.3519  1.3432  1.7163
  242SOL     MW  968   1.485   1.693   2.300 -0.4039  0.3626  0.0901
  243SOL     OW  969   1.032   0.336   2.359  0.7821 -0.2638 -0.4393
  243SOL    HW1  970   1.112   0.278   2.350  1.3180 -2.2504  1.9102
  243SOL    HW2  971   1.039   0.376   2.442 -0.6432  2.5784 -0.1038
  243SOL     MW  972   1.043   0.334   2.369  0.6648 -0.1509 -0.0850
  244SOL     OW  973   0.117   0.762   2.383 -0.3581 -0.3822  0.2388
  244SOL    HW1  974   0.095   0.852   2.400 -1.0841  2.1171  0.2306
  244SOL    HW2  975   0.204   0.764   2.346 -0.7919 -0.2727  0.5890
  244SOL     MW  976   0.125   0.774   2.381 -0.5111 -0.0380  0.2839
  245SOL     OW  977   1.285   0.213   2.365 -0.1293  0.2795  0.2175
  245SOL    HW1  978   1.373   0.179   2.332 -1.0691 -2.2441 -1.6466
  245SOL    HW2  979   1.250   0.141   2.417  0.6158 -1.4473  2.6446
  245SOL     MW  980   1.292   0.199   2.367 -0.1550 -0.2813  0.2918
  246SOL     OW  981   1.229   1.090   2.040 -0.2275 -0.2273  0.5168
  246SOL    HW1  982   1.160   1.095   2.111  0.1494 -0.7393  1.0029
  246SOL    HW2  983   1.313   1.129   2.081  1.6853  0.1409  0.7755
  246SOL     MW  984   1.231   1.096   2.055  0.0746 -0.2463  0.6151
  247SOL     OW  985   0.771   0.650   0.144 -0.5355 -0.3059 -0.5756
  247SOL    HW1  986   0.728   0.737   0.148 -2.1693  0.8182  0.9665
  247SOL    HW2  987   0.858   0.665   0.103 -1.6021  1.3833  1.3761
  247SOL     MW  988   0.777   0.663   0.139 -0.8918  0.0653 -0.1146
  248SOL     OW  989   0.326   1.285   2.552 -0.5502 -0.2404  0.0863
  248SOL    HW1  990   0.334   1.313   2.461  1.4099 -4.3254 -2.4464
  248SOL    HW2  991   0.327   1.367   2.613  0.1892 -0.5465  0.0310
  248SOL     MW  992   0.327   1.300   2.548 -0.1941 -0.8198 -0.2552
  249SOL     OW  993   2.986   1.929   2.816 -0.1837  0.3751 -0.3623
  249SOL    HW1  994   2.966   1.870   2.742 -0.2351  0.0808 -0.9315
  249SOL    HW2  995   3.050   1.884   2.869  1.3806  2.3123 -0.3468
  249SOL     MW  996   2.992   1.915   2.813  0.0159  0.5919 -0.4353
  250SOL     OW  997   2.175   0.825   2.199  0.7538 -0.6050 -0.0773
  250SOL    HW1  998   2.190   0.745   2.243  0.0500 -4.0714 -1.2611
  250SOL    HW2  999   2.227   0.890   2.249 -2.6712  4.0132  0.5397
  250SOL     MW 1000   2.184   0.823   2.211  0.2090 -0.4530 -0.1521
  251SOL     OW 1001   0.143   0.899   2.037 -0.1477 -0.1748  0.1103
  251SOL    HW1 1002   0.090   0.839   2.082 -2.1766  0.5919 -2.6320
  251SOL    HW2 1003   0.128   0.888   1.943 -0.7474 -0.5049 -0.2861
  251SOL     MW 1004   0.134   0.890   2.031 -0.4945 -0.1172 -0.3038
  252SOL     OW 1005   1.669   0.970   2.816  0.1507  0.6135  0.2381
  252SOL    HW1 1006   1.670   1.032   2.888  0.9490  0.8694  1.1759
  252SOL    HW2 1007   1.765   0.969   2.789  2.4288 -2.6101 -2.2945
  252SOL     MW 1008   1.682   0.978   2.822  0.5566  0.2219  0.0277
  253SOL     OW 1009   1.153   1.698   2.457  0.5346  0.3879  1.0023
  253SOL    HW1 1010   1.122   1.679   2.370 -1.7193 -0.0544  0.0418
  253SOL    HW2 1011   1.086   1.751   2.493 -0.1312 -1.5694 -2.8377
  253SOL     MW 1012   1.140   1.702   2.450  0.1494  0.0713  0.3689
  254SOL     OW 1013   0.951   1.137   2.234  0.3612  0.0970 -0.3817
  254SOL    HW1 1014   0.939   1.043   2.218 -0.1073 -2.7476  1.9731
  254SOL    HW2 1015   0.892   1.147   2.308  0.0886 -0.5576  0.1603
  254SOL     MW 1016   0.942   1.126   2.242  0.2634 -0.3647  0.0005
  255SOL     OW 1017   0.846   2.569   2.139 -0.5243 -0.0799 -0.5555
  255SOL    HW1 1018   0.764   2.515   2.139 -3.3367 -1.5654 -3.5682
  255SOL    HW2 1019   0.916   2.511   2.158  1.7869 -0.9606 -2.1164
  255SOL     MW 1020   0.844   2.554   2.142 -0.5904 -0.3921 -1.1589
  256SOL     OW 1021   1.218   2.760   3.004 -0.4157  0.0525  0.3755
  256SOL    HW1 1022   1.171   2.706   2.945 -0.4187  1.1603  0.8190
  256SOL    HW2 1023   1.302   2.776   2.961  1.8372  0.8222 -0.7898
  256SOL     MW 1024   1.223   2.755   2.991 -0.1188  0.3002  0.2802
  257SOL     OW 1025   0.053   1.875   0.107 -0.1841 -0.4510 -0.2163
  257SOL    HW1 1026   0.120   1.881   0.169  1.8459  2.3118 -0.8718
  257SOL    HW2 1027   0.089   1.861   0.021 -1.6475  1.3618 -1.4089
  257SOL     MW 1028   0.067   1.874   0.104 -0.1094  0.1527 -0.4601
  258SOL     OW 1029   0.649   0.996   2.449 -0.3179  0.4429 -0.5687
  258SOL    HW1 1030   0.687   1.080   2.456  0.5139 -2.7945 -1.6802
  258SOL    HW2 1031   0.583   0.989   2.512  2.4920 -0.7420  0.2633
  258SOL     MW 1032   0.646   1.006   2.458  0.1626 -0.1406 -0.6056
  259SOL     OW 1033   0.815   0.499   2.279  0.2647  0.7520  0.1213
  259SOL    HW1 1034   0.746   0.429   2.264  1.5990 -1.8574  0.5425
  259SOL    HW2 1035   0.889   0.443   2.302 -0.0468  0.9028  0.0328
  259SOL     MW 1036   0.815   0.482   2.280  0.3997  0.4276  0.1652
  260SOL     OW 1037   0.649   0.099   1.551 -0.1409  0.0829  0.2375
  260SOL    HW1 1038   0.614   0.181   1.524 -1.4859 -0.9259  2.4875
  260SOL    HW2 1039   0.724   0.082   1.494 -2.1229  3.4181 -0.1029
  260SOL     MW 1040   0.655   0.108   1.540 -0.5798  0.3898  0.4894
  261SOL     OW 1041   1.040   0.712   1.995 -1.2520  0.3333 -0.2477
  261SOL    HW1 1042   1.066   0.683   2.087 -1.0004 -0.5886  3.5382
  261SOL    HW2 1043   0.988   0.636   1.963 -2.5600 -0.5498 -1.7774
  261SOL     MW 1044   1.036   0.698   2.003 -1.3914  0.0951  0.0500
  262SOL     OW 1045   1.137   0.340   0.130  0.6811  0.5587 -0.6339
  262SOL    HW1 1046   1.232   0.317   0.123  2.4475  1.9964  0.8139
  262SOL    HW2 1047   1.087   0.303   0.060 -0.1107 -4.2090  1.1749
  262SOL     MW 1048   1.143   0.332   0.120  0.8097  0.1194 -0.2042
  263SOL     OW 1049   0.366  -0.003   2.497 -0.0364  0.5526 -0.0483
  263SOL    HW1 1050   0.275   0.029   2.516 -2.2790  1.3950 -0.4867
  263SOL    HW2 1051   0.408   0.038   2.420  0.8121 -2.0324  0.2333
  263SOL     MW 1052   0.359   0.007   2.489 -0.2204  0.3227 -0.0690
  264SOL     OW 1053   1.540   1.404   1.920  0.2396  0.3477  0.4774
  264SOL    HW1 1054   1.522   1.312   1.911  0.8406  0.6536  1.2917
  264SOL    HW2 1055   1.622   1.407   1.973 -0.7986  0.3016  0.7661
  264SOL     MW 1056   1.548   1.392   1.926  0.1819  0.3820  0.6230
  265SOL     OW 1057   0.737   2.807   2.293 -0.0244 -0.0509 -0.0884
  265SOL    HW1 1058   0.787   2.736   2.257  0.6235  1.4649 -3.6507
  265SOL    HW2 1059   0.731   2.793   2.388 -1.0724  0.5002 -0.0329
  265SOL     MW 1060   0.743   2.796   2.301 -0.0772  0.2218 -0.5511
  266SOL     OW 1061   0.875   0.897   2.113  0.3920 -0.5592 -0.0770
  266SOL    HW1 1062   0.843   0.963   2.052  3.8555  0.8031 -0.4508
  266SOL    HW2 1063   0.908   0.826   2.059  2.2647 -1.6605 -3.5850
  266SOL     MW 1064   0.876   0.896   2.098  1.0960 -0.5247 -0.5891
  267SOL     OW 1065   1.373   1.695   2.651  0.1857 -0.8530 -0.1327
  267SOL    HW1 1066   1.456   1.658   2.629 -1.6012  0.6395  3.1470
  267SOL    HW2 1067   1.315   1.646   2.594  0.5994  0.2986 -2.0936
  267SOL     MW 1068   1.376   1.684   2.640  0.0045 -0.5041  0.0413
  268SOL     OW 1069   0.146   0.895   1.750  0.5169 -0.1603  0.1686
  268SOL    HW1 1070   0.130   0.986   1.718  1.1372  0.4358  3.0290
  268SOL    HW2 1071   0.106   0.842   1.679  2.4561 -1.0377  1.7142
  268SOL     MW 1072   0.139   0.900   1.737  0.8546 -0.1974  0.7500
  269SOL     OW 1073   1.331   1.902   2.292 -0.2675 -0.7324 -0.0424
  269SOL    HW1 1074   1.367   1.977   2.350  2.5907  0.3367 -0.3687
  269SOL    HW2 1075   1.266   1.853   2.344 -0.9045 -3.7181  1.9509
  269SOL     MW 1076   1.327   1.906   2.307  0.0256 -0.9853  0.1776
  270SOL     OW 1077   1.122   0.399   1.574 -0.0220 -0.6320 -0.4598
  270SOL    HW1 1078   1.096   0.319   1.614  0.1956 -0.0528  0.3249
  270SOL    HW2 1079   1.217   0.402   1.583 -0.3855 -1.4168 -0.4979
  270SOL     MW 1080   1.131   0.389   1.581 -0.0412 -0.6591 -0.3613
  271SOL     OW 1081   0.871   0.117   2.466  0.5599 -0.2032  0.1394
  271SOL    HW1 1082   0.910   0.040   2.503  0.2014  0.4799  1.9771
  271SOL    HW2 1083   0.938   0.187   2.452 -0.3468 -0.2467 -1.6604
  271SOL     MW 1084   0.885   0.116   2.469  0.3929 -0.1188  0.1444
  272SOL     OW 1085   1.444   2.819   2.833  0.4374 -0.4137 -0.3993
  272SOL    HW1 1086   1.410   2.801   2.748 -1.5415 -0.4620  1.2676
  272SOL    HW2 1087   1.497   2.902   2.829 -0.3873 -1.6052  1.1488
  272SOL     MW 1088   1.446   2.828   2.822  0.0675 -0.5773  0.0249
  273SOL     OW 1089   1.411   0.807   2.758 -0.1784 -0.5119 -0.3125
  273SOL    HW1 1090   1.468   0.887   2.741  0.5963  0.7388  0.5690
  273SOL    HW2 1091   1.323   0.832   2.743  1.0239  1.3386 -0.2086
  273SOL     MW 1092   1.407   0.821   2.754  0.0824 -0.1027 -0.1825
  274SOL     OW 1093   1.444   0.710   0.168  0.2290 -0.3815  0.3469
  274SOL    HW1 1094   1.511   0.654   0.203  2.0870  1.7480 -1.4871
  274SOL    HW2 1095   1.370   0.715   0.230  0.0162 -1.0429 -1.2170
  274SOL     MW 1096   1.443   0.703   0.181  0.4460 -0.1878 -0.1014
  275SOL     OW 1097   1.787   0.524   1.751  0.2887  0.6003 -0.2847
  275SOL    HW1 1098   1.835   0.579   1.814  0.6250  1.4068  1.2207
  275SOL    HW2 1099   1.811   0.438   1.784 -0.2863  2.2651 -0.2228
  275SOL     MW 1100   1.796   0.520   1.764  0.2572  0.9264 -0.0780
  276SOL     OW 1101   0.469   1.206   1.918  0.0351  0.1341 -0.4211
  276SOL    HW1 1102   0.451   1.114   1.913 -1.3271  0.3324  2.9956
  276SOL    HW2 1103   0.400   1.234   1.977 -3.6278 -2.1717 -2.6389
  276SOL     MW 1104   0.457   1.198   1.925 -0.6279 -0.1440 -0.2629
  277SOL     OW 1105   2.003   1.086   2.435 -0.1273 -0.2533 -0.2308
  277SOL    HW1 1106   2.054   1.168   2.451 -3.1100  0.8694  0.1240
  277SOL    HW2 1107   1.946   1.105   2.360 -2.2203 -0.9375  0.8937
  277SOL     MW 1108   2.002   1.100   2.427 -0.7970 -0.1954 -0.0356
  278SOL     OW 1109   1.445   0.665   1.716  0.5991 -0.4790 -0.6682
  278SOL    HW1 1110   1.431   0.641   1.814 -0.2116  0.3296  3.4309
  278SOL    HW2 1111   1.539   0.681   1.698 -1.7657  1.7592 -1.8294
  278SOL     MW 1112   1.456   0.664   1.726  0.1801 -0.0770 -0.2806
  279SOL     OW 1113   0.535   0.079   2.270  0.4715 -0.2881  0.8238
  279SOL    HW1 1114   0.617   0.026   2.264 -0.0088 -1.5001 -1.8931
  279SOL    HW2 1115   0.565   0.165   2.227 -4.1604  2.3039  1.8247
  279SOL     MW 1116   0.550   0.083   2.264 -0.2030 -0.1061  0.5974
  280SOL     OW 1117   1.455   1.116   2.201  0.2550 -0.3710  0.2023
  280SOL    HW1 1118   1.500   1.044   2.154  0.5832 -0.8122 -2.6250
  280SOL    HW2 1119   1.439   1.084   2.295 -0.5090 -2.4274  0.5551
  280SOL     MW 1120   1.459   1.102   2.207  0.1975 -0.7006 -0.1242
  281SOL     OW 1121   1.356   1.131   2.670 -1.1613  0.0185  0.2946
  281SOL    HW1 1122   1.400   1.224   2.673  1.2483  0.5938  1.6329
  281SOL    HW2 1123   1.346   1.117   2.764  0.2036  1.2709  0.3191
  281SOL     MW 1124   1.361   1.142   2.683 -0.6633  0.2596  0.4744
  282SOL     OW 1125   1.183   1.269   1.586  0.1955  0.2720  0.3680
  282SOL    HW1 1126   1.167   1.358   1.551  0.2718 -2.9108 -1.3013
  282SOL    HW2 1127   1.108   1.248   1.652 -0.3835 -0.8097  2.1337
  282SOL     MW 1128   1.171   1.278   1.590  0.1292 -0.2907  0.3807
  283SOL     OW 1129   0.849   1.383   0.018 -0.3981  0.9364  0.0793
  283SOL    HW1 1130   0.938   1.372  -0.019 -0.8539 -0.5325  0.3669
  283SOL    HW2 1131   0.833   1.474  -0.019 -0.2283  1.7209  2.6029
  283SOL     MW 1132   0.859   1.393   0.008 -0.4359  0.8461  0.4502
  284SOL     OW 1133   0.402   0.719   2.313 -0.3703 -0.7820  0.3329
  284SOL    HW1 1134   0.469   0.780   2.275  3.3339 -0.7010  0.3618
  284SOL    HW2 1135   0.426   0.641   2.255  3.1353  1.2525 -1.3581
  284SOL     MW 1136   0.414   0.716   2.300  0.5810 -0.5028  0.1136
  285SOL     OW 1137   0.884   0.861   2.863  0.1211 -0.4543  0.3285
  285SOL    HW1 1138   0.905   0.882   2.769 -1.7245 -4.2127 -0.3712
  285SOL    HW2 1139   0.812   0.803   2.866 -1.1645  0.4591  1.3340
  285SOL     MW 1140   0.878   0.856   2.851 -0.2920 -0.8297  0.3688
  286SOL     OW 1141   1.133   1.445   2.586  0.1468 -0.5161 -0.1229
  286SOL    HW1 1142   1.127   1.359   2.543 -1.1019  1.7051  1.5456
  286SOL    HW2 1143   1.129   1.513   2.524 -3.0700  0.3782  2.0722
  286SOL     MW 1144   1.132   1.443   2.572 -0.4424 -0.1050  0.3869
  287SOL     OW 1145   1.195   1.017   0.362 -0.5322  0.3227 -0.0362
  287SOL    HW1 1146   1.152   1.047   0.443  0.6501  0.0121  3.4874
  287SOL    HW2 1147   1.146   1.041   0.281  3.0005  1.4249 -1.4518
  287SOL     MW 1148   1.183   1.024   0.362  0.0899  0.4272  0.2419
  288SOL     OW 1149   1.468   0.624   2.107 -0.3987 -0.3320  0.3760
  288SOL    HW1 1150   1.430   0.606   2.187 -1.9666  1.3911  1.2653
  288SOL    HW2 1151   1.484   0.724   2.087 -0.5172 -0.5022 -1.1442
  288SOL     MW 1152   1.465   0.635   2.115 -0.6212 -0.1271  0.2928
  289SOL     OW 1153   0.938   0.963   2.603  0.0323 -0.3790 -0.1164
  289SOL    HW1 1154   0.987   0.895   2.553  0.5399 -2.8681 -2.7757
  289SOL    HW2 1155   0.851   0.961   2.569 -1.3783 -0.4655 -0.1905
  289SOL     MW 1156   0.933   0.954   2.592 -0.0868 -0.7188 -0.4771
  290SOL     OW 1157   0.812   0.639   1.458 -0.1769 -0.0586 -0.0105
  290SOL    HW1 1158   0.857   0.582   1.396  0.7073  2.2445 -0.3076
  290SOL    HW2 1159   0.863   0.638   1.539 -1.7684  0.5501  1.0326
  290SOL     MW 1160   0.825   0.631   1.461 -0.2702  0.3256  0.0879
  291SOL     OW 1161   0.198   0.368   0.163  0.0367 -0.3765 -0.2029
  291SOL    HW1 1162   0.284   0.327   0.192  1.4808 -0.2475  0.0266
  291SOL    HW2 1163   0.141   0.291   0.158  1.5150 -1.2402 -0.7186
  291SOL     MW 1164   0.202   0.352   0.166  0.4223 -0.4735 -0.2407
  292SOL     OW 1165   1.050   0.638   0.099  0.2959  0.4565 -0.2726
  292SOL    HW1 1166   1.122   0.685   0.144 -2.2579 -0.6700  0.5493
  292SOL    HW2 1167   1.058   0.546   0.131 -1.5136 -1.3896 -0.9126
  292SOL     MW 1168   1.061   0.632   0.109 -0.2798  0.0643 -0.2486
  293SOL     OW 1169   0.096   0.123   2.555 -0.0459 -0.6587  0.2054
  293SOL    HW1 1170   0.051   0.068   2.490  0.5147 -0.9623 -0.2320
  293SOL    HW2 1171   0.026   0.167   2.597 -0.0603 -0.1156  0.3812
  293SOL     MW 1172   0.081   0.122   2.552  0.0262 -0.6271  0.1709
  294SOL     OW 1173   1.310   0.508   2.349  0.3932 -0.3112  0.2694
  294SOL    HW1 1174   1.353   0.580   2.395  0.4149 -2.3377  1.7996
  294SOL    HW2 1175   1.260   0.461   2.414 -2.3451 -2.7180 -0.8339
  294SOL     MW 1176   1.310   0.512   2.364  0.0348 -0.8961  0.3257
  295SOL     OW 1177   0.825   0.577   2.537  0.1259  0.5549  0.3872
  295SOL    HW1 1178   0.800   0.562   2.445 -1.3106  0.5971  0.8140
  295SOL    HW2 1179   0.747   0.588   2.587 -2.4305 -0.9714 -0.2015
  295SOL     MW 1180   0.811   0.576   2.532 -0.4010  0.3591  0.3658
  296SOL     OW 1181   1.261   0.221   2.049 -0.0473  0.7578  0.2811
  296SOL    HW1 1182   1.350   0.194   2.070  0.0843 -0.0734  0.4714
  296SOL    HW2 1183   1.226   0.253   2.132  1.0911  0.3077 -1.2992
  296SOL     MW 1184   1.268   0.222   2.063  0.1202  0.5888  0.0977
  297SOL     OW 1185   1.425   0.378   1.579 -0.3259 -0.3101  1.0809
  297SOL    HW1 1186   1.431   0.442   1.653 -0.5676  0.9742 -1.2583
  297SOL    HW2 1187   1.446   0.294   1.622  4.4530 -0.8574  0.9658
  297SOL     MW 1188   1.428   0.375   1.594  0.2727 -0.2129  0.7571
  298SOL     OW 1189   1.582   0.877   2.078  0.2533  0.0168  0.5169
  298SOL    HW1 1190   1.634   0.909   2.005 -0.2164 -1.5722 -0.8127
  298SOL    HW2 1191   1.649   0.871   2.148 -1.5003  1.4414  0.3538
  298SOL     MW 1192   1.598   0.881   2.078 -0.0401 -0.0049  0.3200
  299SOL     OW 1193   0.571   1.172   0.084 -0.1341  0.4202 -0.0510
  299SOL    HW1 1194   0.594   1.144   0.001  1.7093  1.8873  1.7478
  299SOL    HW2 1195   0.654   1.191   0.128  0.5492 -4.4766 -0.7596
  299SOL     MW 1196   0.585   1.171   0.079  0.1993 -0.0323  0.0928
  300SOL     OW 1197   1.108   1.190   2.549 -0.1167  0.3496  0.5364
  300SOL    HW1 1198   1.030   1.145   2.587  0.5446  0.1227  1.2865
  300SOL    HW2 1199   1.182   1.156   2.605  1.3185  2.0888  2.8006
  300SOL     MW 1200   1.107   1.179   2.562  0.1599  0.5491  0.9341
  301SOL     OW 1201   1.435   1.050   0.732  0.3767  0.4093  0.1413
  301SOL    HW1 1202   1.470   1.067   0.821  0.9980  2.1498  0.1504
  301SOL    HW2 1203   1.389   0.966   0.729 -0.6852 -1.6546  0.3725
  301SOL     MW 1204   1.434   1.041   0.743  0.3186  0.3666  0.1730
  302SOL     OW 1205   0.172   1.562   2.037 -0.0028 -0.2306 -0.0683
  302SOL    HW1 1206   0.158   1.466   2.017 -4.3036  0.2026  1.1501
  302SOL    HW2 1207   0.083   1.582   2.066  0.6785  1.0482  0.1075
  302SOL     MW 1208   0.159   1.552   2.038 -0.4803 -0.0048  0.1157
  303SOL     OW 1209   0.355   1.769   2.663 -0.2593  0.3382 -0.3179
  303SOL    HW1 1210   0.329   1.762   2.573 -1.5934 -2.3986  3.1276
  303SOL    HW2 1211   0.275   1.782   2.707  1.1344 -1.0567 -2.5992
  303SOL     MW 1212   0.341   1.770   2.657 -0.2514 -0.2069 -0.1643
  304SOL     OW 1213   0.487   2.057   2.412 -0.0537  0.0943  0.4136
  304SOL    HW1 1214   0.547   2.091   2.338  1.4454 -3.4731 -0.2806
  304SOL    HW2 1215   0.522   1.970   2.431 -0.3599 -0.4807 -0.8756
  304SOL     MW 1216   0.499   2.050   2.405  0.1037 -0.4522  0.1519
  305SOL     OW 1217   1.109   0.669   0.550 -0.1101  0.1212 -0.4995
  305SOL    HW1 1218   1.020   0.641   0.528  2.1294  1.6147 -1.2110
  305SOL    HW2 1219   1.148   0.585   0.561  0.4400  2.6334  0.8847
  305SOL     MW 1220   1.103   0.654   0.549  0.2580  0.6497 -0.4107
  306SOL     OW 1221   1.073   1.544   0.253 -0.0267 -0.7480  0.3760
  306SOL    HW1 1222   1.107   1.460   0.294 -1.9567 -2.4217  2.6212
  306SOL    HW2 1223   1.137   1.568   0.182 -0.4593  0.6174 -1.1298
  306SOL     MW 1224   1.086   1.536   0.249 -0.3384 -0.7887  0.4736
  307SOL     OW 1225   1.372   0.451   1.908  0.4061  0.3865  0.1677
  307SOL    HW1 1226   1.347   0.366   1.940 -0.5019  0.2438  1.0922
  307SOL    HW2 1227   1.420   0.492   1.981  1.1483 -0.2508 -0.7416
  307SOL     MW 1228   1.375   0.445   1.922  0.3843  0.2836  0.1697
  308SOL     OW 1229   2.214   0.496   2.670 -0.2572 -0.0555  0.2637
  308SOL    HW1 1230   2.311   0.505   2.682  0.5861 -1.7153  0.8721
  308SOL    HW2 1231   2.185   0.588   2.693 -1.3274 -1.3960  0.9794
  308SOL     MW 1232   2.223   0.509   2.675 -0.2871 -0.4514  0.4384
  309SOL     OW 1233   0.501   0.588   0.243  0.5276 -0.1421 -0.4241
  309SOL    HW1 1234   0.596   0.587   0.245  1.2446  0.5381  3.0031
  309SOL    HW2 1235   0.475   0.497   0.220  0.4406  0.5460  0.3032
  309SOL     MW 1236   0.510   0.576   0.240  0.6108  0.0384  0.1241
  310SOL     OW 1237   0.448   0.620   1.895 -0.4319 -0.9450 -0.4653
  310SOL    HW1 1238   0.494   0.544   1.859 -0.8694  3.0795  0.8127
  310SOL    HW2 1239   0.482   0.692   1.836 -0.2048 -0.6738 -3.1464
  310SOL     MW 1240   0.459   0.619   1.883 -0.4597 -0.3782 -0.6504
  311SOL     OW 1241   1.948   0.631   1.953  0.0612 -0.3348 -0.5568
  311SOL    HW1 1242   1.925   0.685   2.028  1.3010  0.6139  1.8199
  311SOL    HW2 1243   2.006   0.564   1.999  1.5452 -0.5899  1.8497
  311SOL     MW 1244   1.953   0.630   1.969  0.4206 -0.2433  0.0743
  312SOL     OW 1245   1.753   2.444   0.110 -0.5138 -0.0631 -0.0723
  312SOL    HW1 1246   1.748   2.383   0.184  1.0775  0.6808 -0.2491
  312SOL    HW2 1247   1.695   2.518   0.135 -2.3600 -0.0754 -1.0628
  312SOL     MW 1248   1.744   2.446   0.123 -0.5475  0.0334 -0.2264
  313SOL     OW 1249   0.123   1.126   3.039  0.1879 -0.2437  0.1248
  313SOL    HW1 1250   0.066   1.157   3.113 -1.1365 -2.3902 -1.6483
  313SOL    HW2 1251   0.162   1.203   3.000 -0.0437  1.1946 -0.9935
  313SOL     MW 1252   0.120   1.141   3.044 -0.0174 -0.3371 -0.2567
  314SOL     OW 1253   2.158   2.947   3.103  0.2284  0.3534  0.7541
  314SOL    HW1 1254   2.120   2.949   3.023  3.5107  0.7421  3.2598
  314SOL    HW2 1255   2.203   3.032   3.111 -0.4732  0.6012 -1.2805
  314SOL     MW 1256   2.159   2.958   3.094  0.5689  0.4374  0.8163
  315SOL     OW 1257   1.539   1.812   2.971 -0.0085  0.1274 -0.2821
  315SOL    HW1 1258   1.477   1.861   3.037 -0.8805 -0.2529 -0.2178
  315SOL    HW2 1259   1.564   1.889   2.921  1.0620 -1.4661  0.0872
  315SOL     MW 1260   1.534   1.829   2.973  0.0177 -0.1330 -0.2249
  316SOL     OW 1261   1.206   0.599   2.719 -0.2265  0.9340 -0.3528
  316SOL    HW1 1262   1.296   0.633   2.746  0.5980  0.8191 -1.1296
  316SOL    HW2 1263   1.165   0.566   2.808  0.5879  1.6248  1.0846
  316SOL     MW 1264   1.212   0.599   2.735 -0.0103  1.0100 -0.2656
  317SOL     OW 1265   0.671   1.595   2.652 -0.4041  0.2830 -0.5345
  317SOL    HW1 1266   0.729   1.529   2.677 -4.0076  1.3903  1.0745
  317SOL    HW2 1267   0.687   1.610   2.555 -0.3010  0.7674 -2.1329
  317SOL     MW 1268   0.681   1.588   2.642 -0.8660  0.4930 -0.5331
  318SOL     OW 1269   1.321   0.390   2.969 -0.2610  0.1689 -0.0588
  318SOL    HW1 1270   1.247   0.443   2.930 -0.9459 -0.2744 -1.6096
  318SOL    HW2 1271   1.403   0.431   2.922  0.4415  1.1156  0.4964
  318SOL     MW 1272   1.322   0.403   2.957 -0.2587  0.2353 -0.1901
  319SOL     OW 1273   0.838   0.400   2.841 -1.1942  0.4099 -0.9449
  319SOL    HW1 1274   0.829   0.310   2.817  0.9944  2.1248  0.5200
  319SOL    HW2 1275   0.781   0.408   2.912 -0.2956  2.5339 -1.4675
  319SOL     MW 1276   0.830   0.389   2.847 -0.7868  0.9164 -0.8206
  320SOL     OW 1277   1.055   1.389   1.969 -0.2358 -0.5679 -0.0678
  320SOL    HW1 1278   1.112   1.319   1.934  0.7764  0.7593  0.2565
  320SOL    HW2 1279   1.107   1.463   1.935  0.0612 -1.9932 -1.0333
  320SOL     MW 1280   1.070   1.390   1.960 -0.0631 -0.5808 -0.1524
  321SOL     OW 1281   1.119   0.904   3.027 -0.3730 -0.4695  0.4092
  321SOL    HW1 1282   1.049   0.884   2.965  1.0326  0.3914  0.9805
  321SOL    HW2 1283   1.184   0.827   3.024  1.1982  0.6328  1.4547
  321SOL     MW 1284   1.118   0.891   3.018  0.0197 -0.2105  0.6225
  322SOL     OW 1285   1.225   0.820   1.689  0.2761  0.3544 -0.2718
  322SOL    HW1 1286   1.296   0.760   1.709  0.5994 -0.0954 -1.7488
  322SOL    HW2 1287   1.186   0.841   1.771  2.4587 -1.5144  0.5831
  322SOL     MW 1288   1.229   0.815   1.703  0.6067  0.0485 -0.3538
  323SOL     OW 1289   1.231   1.601   1.891  0.5145 -0.2934 -0.4259
  323SOL    HW1 1290   1.267   1.593   1.804  0.2286 -0.6882 -0.0789
  323SOL    HW2 1291   1.186   1.686   1.885 -2.5088 -1.0461 -0.7605
  323SOL     MW 1292   1.229   1.611   1.879  0.0779 -0.4448 -0.4243
  324SOL     OW 1293   1.444   0.993   2.462 -0.0264 -0.3859 -0.1731
  324SOL    HW1 1294   1.401   1.042   2.530 -0.9594  0.9599  2.4208
  324SOL    HW2 1295   1.535   1.028   2.481 -1.0674  0.6591  4.2188
  324SOL     MW 1296   1.450   1.004   2.473 -0.2868 -0.0704  0.7486
  325SOL     OW 1297   1.071   0.514   2.937 -0.6119  0.3701 -0.3534
  325SOL    HW1 1298   1.044   0.559   3.013  0.2345  0.0508 -2.5955
  325SOL    HW2 1299   0.993   0.481   2.896  0.5442  1.1107 -0.1967
  325SOL     MW 1300   1.057   0.516   2.942 -0.3477  0.4257 -0.6286
  326SOL     OW 1301   0.327   1.377   2.262 -0.1961  0.3767  0.2221
  326SOL    HW1 1302   0.418   1.365   2.253 -0.1950  3.1281  1.5563
  326SOL    HW2 1303   0.317   1.467   2.229  0.5054 -1.2631  0.7245
  326SOL     MW 1304   0.337   1.388   2.257 -0.1034  0.5234  0.4644
  327SOL     OW 1305   1.961   0.801   2.434 -0.2373  0.5818 -0.3044
  327SOL    HW1 1306   1.916   0.761   2.514  1.8771  0.6083  1.1175
  327SOL    HW2 1307   1.986   0.894   2.444 -3.0281 -0.7734  1.9216
  327SOL     MW 1308   1.958   0.808   2.446 -0.3266  0.4065  0.1769
  328SOL     OW 1309   0.198   1.277   2.048 -0.5073  0.7571 -0.0479
  328SOL    HW1 1310   0.124   1.222   2.064 -0.5875 -0.1575 -2.2475
  328SOL    HW2 1311   0.230   1.312   2.129 -1.4526  1.1249  0.3010
  328SOL     MW 1312   0.192   1.275   2.061 -0.6426  0.6850 -0.2921
  329SOL     OW 1313   0.047   0.125   1.379 -0.3529 -0.3827  0.3877
  329SOL    HW1 1314   0.037   0.084   1.462  1.2171  0.5521  1.3743
  329SOL    HW2 1315   0.147   0.153   1.373  0.6340 -2.4461  0.0376
  329SOL     MW 1316   0.059   0.124   1.389 -0.0156 -0.5316  0.4717
  330SOL     OW 1317   0.394   3.082   2.059 -0.2212 -0.0435 -0.6655
  330SOL    HW1 1318   0.457   3.113   2.127 -0.1071 -1.9807  1.1208
  330SOL    HW2 1319   0.317   3.038   2.105 -0.9998  0.4435 -0.8519
  330SOL     MW 1320   0.392   3.080   2.074 -0.3089 -0.2349 -0.4544
  331SOL     OW 1321   0.786   1.222   2.437 -0.3963  0.1952 -0.1969
  331SOL    HW1 1322   0.750   1.296   2.386 -0.8740 -1.3391  1.9664
  331SOL    HW2 1323   0.816   1.261   2.519 -1.2166 -0.0500 -0.7180
  331SOL     MW 1324   0.785   1.237   2.441 -0.5675 -0.0396  0.0198
  332SOL     OW 1325   1.338   1.643   2.913 -0.1839  0.0142  0.4085
  332SOL    HW1 1326   1.340   1.638   2.818  0.3455 -0.9271 -0.6301
  332SOL    HW2 1327   1.423   1.696   2.922  2.5514 -1.3885  1.7768
  332SOL     MW 1328   1.350   1.649   2.901  0.2468 -0.2950  0.4520
  333SOL     OW 1329   1.691   1.396   2.931 -0.3674 -0.3754  0.0251
  333SOL    HW1 1330   1.791   1.414   2.921  1.2054 -0.1166 -0.7151
  333SOL    HW2 1331   1.674   1.302   2.959  0.7315 -0.4020 -1.2421
  333SOL     MW 1332   1.702   1.386   2.933 -0.0149 -0.3448 -0.2397
  334SOL     OW 1333   1.282   3.055   2.652  0.3476 -0.2136 -0.6883
  334SOL    HW1 1334   1.204   3.043   2.701  2.2400 -0.3002 -1.3133
  334SOL    HW2 1335   1.334   3.136   2.681  0.9326 -0.9109 -0.6105
  334SOL     MW 1336   1.279   3.064   2.662  0.6745 -0.3170 -0.7605
  335SOL     OW 1337   1.288   0.702   3.031 -0.7676 -0.1675  0.5648
  335SOL    HW1 1338   1.341   0.697   3.104  0.7961  1.4825 -4.6669
  335SOL    HW2 1339   1.333   0.722   2.950 -1.3775 -0.1410 -3.6184
  335SOL     MW 1340   1.301   0.704   3.030 -0.6418  0.0537 -0.6774
  336SOL     OW 1341   0.971   1.154   1.725  0.1273 -0.3099 -0.5741
  336SOL    HW1 1342   0.917   1.207   1.790 -3.7925  2.0966  0.7111
  336SOL    HW2 1343   0.991   1.069   1.762  1.7901  0.6916 -2.3749
  336SOL     MW 1344   0.967   1.150   1.738 -0.1705  0.1398 -0.6422
  337SOL     OW 1345   0.562   1.884   2.840 -0.0507  0.6101  0.5068
  337SOL    HW1 1346   0.521   1.852   2.760 -1.0188  0.9088  0.6752
  337SOL    HW2 1347   0.657   1.863   2.833  2.3247  1.2632 -0.3654
  337SOL     MW 1348   0.569   1.877   2.829  0.1350  0.7357  0.4139
  338SOL     OW 1349   1.058   0.744   2.499  0.4070  0.0639  0.2652
  338SOL    HW1 1350   0.980   0.682   2.501  0.4504  0.3065 -0.7766
  338SOL    HW2 1351   1.122   0.700   2.561 -2.2522  0.3353 -1.3863
  338SOL     MW 1352   1.056   0.730   2.508  0.0619  0.1317 -0.0901
  339SOL     OW 1353   1.437   1.170   1.851  0.1214  0.5405 -0.7867
  339SOL    HW1 1354   1.429   1.124   1.768 -1.9733  0.6456 -0.8672
  339SOL    HW2 1355   1.363   1.136   1.902 -0.8226 -1.2975 -0.9878
  339SOL     MW 1356   1.426   1.159   1.847 -0.2796  0.3118 -0.8238
  340SOL     OW 1357   1.270   1.506   0.054 -0.5027 -0.1847  0.4754
  340SOL    HW1 1358   1.268   1.571  -0.016 -0.5903  0.8694  1.7198
  340SOL    HW2 1359   1.345   1.457   0.043 -0.6924  0.3868  0.8233
  340SOL     MW 1360   1.279   1.508   0.043 -0.5393  0.0298  0.6855
  341SOL     OW 1361   0.067   1.357   2.800  0.6221  0.3672  0.4146
  341SOL    HW1 1362   0.162   1.349   2.812  1.6029  1.1035  2.6400
  341SOL    HW2 1363   0.044   1.291   2.732  0.8328 -2.8903 -1.3748
  341SOL     MW 1364   0.077   1.347   2.793  0.7793  0.0346  0.4721
  342SOL     OW 1365   1.409   0.304   0.118  0.1738 -0.2290  0.2629
  342SOL    HW1 1366   1.472   0.350   0.173 -1.3160 -3.0364  0.4611
  342SOL    HW2 1367   1.388   0.355   0.038 -0.6388 -0.6578  0.9154
  342SOL     MW 1368   1.414   0.317   0.115 -0.1300 -0.6560  0.3752
  343SOL     OW 1369   0.283   0.280   2.223 -0.5321 -0.2894 -0.5076
  343SOL    HW1 1370   0.331   0.204   2.204  0.6745  2.7459 -0.7369
  343SOL    HW2 1371   0.209   0.271   2.158 -2.2186  0.5224  0.8172
  343SOL     MW 1372   0.279   0.269   2.212 -0.5954  0.2182 -0.3631
  344SOL     OW 1373   1.716   2.003   0.135 -0.5218 -0.0206 -0.7350
  344SOL    HW1 1374   1.752   2.067   0.073  1.8630  1.4818 -2.0709
  344SOL    HW2 1375   1.623   2.009   0.112  2.4479 -1.3321  1.3879
  344SOL     MW 1376   1.708   2.012   0.124  0.1847  0.0046 -0.6312
  345SOL     OW 1377   0.692   1.597   2.369  0.0036  0.4415 -0.0089
  345SOL    HW1 1378   0.608   1.638   2.342  0.9684  0.3907  1.0352
  345SOL    HW2 1379   0.723   1.555   2.286 -1.3857 -1.3552 -0.9296
  345SOL     MW 1380   0.685   1.597   2.354 -0.0524  0.1978  0.0074
  346SOL     OW 1381   1.677   1.089   3.078 -0.2043 -0.0768  0.7487
  346SOL    HW1 1382   1.768   1.077   3.091 -1.1895  1.0565  1.3985
  346SOL    HW2 1383   1.646   1.028   3.140 -0.6919  1.0649 -2.5957
  346SOL     MW 1384   1.685   1.080   3.088 -0.3986  0.2234  0.3932
  347SOL     OW 1385   1.145   0.695   2.249  0.1807 -0.3937  0.1346
  347SOL    HW1 1386   1.205   0.629   2.293  0.8582 -0.0035 -0.0222
  347SOL    HW2 1387   1.111   0.754   2.313  0.7568 -2.2894  0.1438
  347SOL     MW 1388   1.148   0.695   2.263  0.3461 -0.5924  0.1151
  348SOL     OW 1389   1.344   2.544   1.932 -0.1751 -0.5186  0.3011
  348SOL    HW1 1390   1.337   2.483   2.004 -0.8837 -0.5328 -2.0609
  348SOL    HW2 1391   1.357   2.634   1.972  1.0428  0.7623 -0.0657
  348SOL     MW 1392   1.345   2.547   1.946 -0.1079 -0.3514 -0.0590
  349SOL     OW 1393   1.418   0.185   2.757  0.5793 -0.0537 -0.1077
  349SOL    HW1 1394   1.375   0.241   2.822 -0.4857 -0.0914  3.5841
  349SOL    HW2 1395   1.458   0.108   2.799  1.7582 -0.4958  1.5462
  349SOL     MW 1396   1.417   0.182   2.771  0.5943 -0.1170  0.5976
  350SOL     OW 1397   1.835   0.668   2.629  0.3550  0.2203 -0.2041
  350SOL    HW1 1398   1.771   0.603   2.587 -0.3943 -0.1149  1.1173
  350SOL    HW2 1399   1.917   0.618   2.665  0.1585 -1.1514 -0.4743
  350SOL     MW 1400   1.838   0.653   2.628  0.2302 -0.0049 -0.0654
  351SOL     OW 1401   0.090   1.137   1.639  0.1442 -0.3834 -0.1826
  351SOL    HW1 1402   0.014   1.146   1.699 -0.4462  0.3143  0.1392
  351SOL    HW2 1403   0.152   1.191   1.690 -2.9105 -3.2447  1.8968
  351SOL     MW 1404   0.088   1.145   1.654 -0.3368 -0.6689  0.1342
  352SOL     OW 1405   0.834   1.766   2.799 -0.4035  0.3308 -0.2221
  352SOL    HW1 1406   0.801   1.704   2.876 -0.2513 -1.9214  0.7558
  352SOL    HW2 1407   0.813   1.715   2.720  0.8400  0.5264 -2.5594
  352SOL     MW 1408   0.827   1.751   2.799 -0.2194  0.0595 -0.4014
  353SOL     OW 1409   0.026   2.579   2.721  0.1976 -0.5303 -0.7539
  353SOL    HW1 1410   0.100   2.550   2.669 -1.1919 -3.6087 -1.1375
  353SOL    HW2 1411   0.020   2.676   2.728  1.7947 -0.5520 -0.6520
  353SOL     MW 1412   0.035   2.588   2.715  0.2250 -0.9393 -0.7911
  354SOL     OW 1413   0.355   2.436   0.885  0.2468 -0.0877  0.2994
  354SOL    HW1 1414   0.368   2.421   0.981  0.7797  1.7602  1.6584
  354SOL    HW2 1415   0.294   2.361   0.841 -1.6401  0.8795 -2.6073
  354SOL     MW 1416   0.348   2.424   0.892  0.0681  0.2837  0.0952
  355SOL     OW 1417   3.069   2.180   0.367  0.2535  0.1343 -0.2672
  355SOL    HW1 1418   2.986   2.136   0.368 -1.1613 -1.0172 -0.7164
  355SOL    HW2 1419   3.074   2.214   0.465  0.2605 -0.7931  0.1374
  355SOL     MW 1420   3.058   2.178   0.380  0.0678 -0.1400 -0.2731
  356SOL     OW 1421   0.789   2.854   0.998 -0.5092  0.5902  0.5847
  356SOL    HW1 1422   0.844   2.868   0.920 -1.1450  2.0826  2.7355
  356SOL    HW2 1423   0.702   2.834   0.959 -1.6491  0.0997  0.2693
  356SOL     MW 1424   0.785   2.854   0.982 -0.7435  0.7224  0.8268
  357SOL     OW 1425   1.825   2.806   0.484 -0.0085  0.2261 -0.0201
  357SOL    HW1 1426   1.807   2.724   0.529 -0.5012  1.1464  2.0412
  357SOL    HW2 1427   1.913   2.785   0.452  0.4136 -1.6788 -0.2548
  357SOL     MW 1428   1.834   2.792   0.485 -0.0178  0.0962  0.2209
  358SOL     OW 1429   0.442   0.182   1.046 -0.3982 -0.3359  0.0692
  358SOL    HW1 1430   0.528   0.145   1.034 -3.3216 -1.2445 -0.6937
  358SOL    HW2 1431   0.408   0.194   0.956 -2.7787 -0.6074 -0.1366
  358SOL     MW 1432   0.449   0.179   1.032 -1.0980 -0.4916 -0.0587
  359SOL     OW 1433   0.878   2.989   1.823  0.2466  0.4516  0.0735
  359SOL    HW1 1434   0.877   2.894   1.836  1.1994 -2.3887  1.4102
  359SOL    HW2 1435   0.915   3.009   1.732  1.6980  0.5762 -2.0891
  359SOL     MW 1436   0.883   2.979   1.813  0.5638  0.0933 -0.0355
  360SOL     OW 1437   0.558   2.767   0.890  0.5192  0.2165  0.4166
  360SOL    HW1 1438   0.564   2.756   0.792 -2.0039 -0.3368 -0.9227
  360SOL    HW2 1439   0.560   2.680   0.928  0.3602  1.7677  0.1135
  360SOL     MW 1440   0.559   2.754   0.882  0.1653  0.3482  0.1999
  361SOL     OW 1441   0.222   2.643   1.391  0.5041 -0.2646 -0.0986
  361SOL    HW1 1442   0.208   2.732   1.419 -1.2970  0.1969  1.2586
  361SOL    HW2 1443   0.321   2.635   1.402 -0.5428  0.9474 -3.4330
  361SOL     MW 1444   0.234   2.653   1.396  0.1284 -0.0438 -0.3595
  362SOL     OW 1445   1.388   2.400   0.607  0.1731 -0.0029  0.4413
  362SOL    HW1 1446   1.445   2.343   0.654  1.6615  0.4815  1.5656
  362SOL    HW2 1447   1.424   2.490   0.628 -1.7367  0.0550 -0.7142
  362SOL     MW 1448   1.400   2.405   0.616  0.1175  0.0686  0.4372
  363SOL     OW 1449   0.312   3.087   0.618 -0.2750  0.3034 -0.0556
  363SOL    HW1 1450   0.295   3.012   0.678  2.5866 -0.6915 -1.4369
  363SOL    HW2 1451   0.228   3.116   0.583  3.0790  1.8126 -1.3975
  363SOL     MW 1452   0.299   3.081   0.621  0.5451  0.3713 -0.4149
  364SOL     OW 1453   0.785   0.260   0.125  0.1904  0.2167 -0.0075
  364SOL    HW1 1454   0.713   0.205   0.151  0.2334 -2.3540  0.7811
  364SOL    HW2 1455   0.753   0.331   0.065  0.7676  0.2452 -0.1411
  364SOL     MW 1456   0.772   0.262   0.120  0.2722 -0.1187  0.0789
  365SOL     OW 1457   0.906   2.026   1.150 -0.2324  0.0810  0.3226
  365SOL    HW1 1458   0.866   2.101   1.110 -1.4094 -1.5575  0.8237
  365SOL    HW2 1459   0.856   1.947   1.111  1.4493  3.1776  2.0118
  365SOL     MW 1460   0.894   2.025   1.140 -0.1658  0.2734  0.6116
  366SOL     OW 1461   2.950   2.631   0.936  0.2682  0.0057  0.4256
  366SOL    HW1 1462   3.036   2.633   0.980 -1.8140 -0.0192  0.9110
  366SOL    HW2 1463   2.960   2.682   0.851  1.6524  1.8943 -1.2639
  366SOL     MW 1464   2.963   2.638   0.931  0.1761  0.2516  0.2667
  367SOL     OW 1465   1.221   2.980   0.923  0.0897 -0.3199 -0.0168
  367SOL    HW1 1466   1.261   3.030   0.847 -1.7424  0.8702 -2.8704
  367SOL    HW2 1467   1.151   2.929   0.885 -1.9927 -0.4377 -1.7593
  367SOL     MW 1468   1.217   2.980   0.908 -0.4268 -0.1784 -0.6232
  368SOL     OW 1469   1.749   0.406   0.716  0.1761  0.1170 -0.6531
  368SOL    HW1 1470   1.770   0.350   0.644 -1.8893 -0.3660  3.1027
  368SOL    HW2 1471   1.734   0.493   0.683 -0.0388  0.7880  0.7020
  368SOL     MW 1472   1.750   0.410   0.702 -0.1248  0.1419  0.0212
  369SOL     OW 1473   0.137   2.395   1.770  0.6244 -0.1679 -0.4210
  369SOL    HW1 1474   0.236   2.408   1.759 -0.6816  0.5011 -0.6634
  369SOL    HW2 1475   0.112   2.485   1.762 -0.4115 -3.0074  0.3976
  369SOL     MW 1476   0.147   2.408   1.768  0.3154 -0.4543 -0.3450
  370SOL     OW 1477   0.730   0.159   0.996  0.4387 -0.2428 -0.0300
  370SOL    HW1 1478   0.760   0.237   0.949  0.7396  0.3082 -1.1562
  370SOL    HW2 1479   0.800   0.092   0.994 -3.4215 -0.4685  0.3715
  370SOL     MW 1480   0.743   0.160   0.989 -0.0309 -0.1999 -0.1256
  371SOL     OW 1481   1.223   2.805   1.505  0.2553 -0.1629 -0.2277
  371SOL    HW1 1482   1.213   2.716   1.472  0.9805  0.6080 -1.3094
  371SOL    HW2 1483   1.182   2.860   1.441  2.2198 -0.3205  0.3274
  371SOL     MW 1484   1.216   2.800   1.492  0.6102 -0.0820 -0.2971
  372SOL     OW 1485   0.802   2.309   0.511 -0.2940  0.3793  0.0853
  372SOL    HW1 1486   0.766   2.223   0.525 -1.3235  1.7103 -0.7188
  372SOL    HW2 1487   0.828   2.297   0.422 -4.4040  0.3478 -1.0938
  372SOL     MW 1488   0.800   2.296   0.501 -0.9721  0.5507 -0.1764
  373SOL     OW 1489   2.860   3.016   1.406 -0.4228  0.1615  0.1068
  373SOL    HW1 1490   2.931   2.989   1.342 -1.3011 -2.2221  0.2261
  373SOL    HW2 1491   2.831   3.101   1.371  0.0573 -0.3340 -1.3081
  373SOL     MW 1492   2.866   3.024   1.393 -0.4754 -0.2184 -0.0641
  374SOL     OW 1493   1.608   0.448   0.296  0.2452  0.2092 -0.1401
  374SOL    HW1 1494   1.697   0.416   0.284 -0.5503 -3.4151  0.6745
  374SOL    HW2 1495   1.572   0.414   0.378 -0.8073  0.9421  2.5635
  374SOL     MW 1496   1.615   0.439   0.305  0.0014 -0.1723  0.3241
  375SOL     OW 1497   0.929   2.168   2.328 -0.1130 -0.1047 -0.4860
  375SOL    HW1 1498   0.994   2.166   2.404  2.4321  0.4012 -1.4997
  375SOL    HW2 1499   0.935   2.090   2.271  0.0904  3.9316 -1.3941
  375SOL     MW 1500   0.938   2.157   2.331  0.2496  0.4946 -0.7396
  376SOL     OW 1501   0.713   2.527   0.043  0.8220  0.1371 -0.2630
  376SOL    HW1 1502   0.692   2.457   0.109 -1.1816 -0.6644  2.9247
  376SOL    HW2 1503   0.680   2.491  -0.042  0.2762 -1.3083 -0.2792
  376SOL     MW 1504   0.706   2.513   0.041  0.4856 -0.1594  0.1555
  377SOL     OW 1505   1.287   2.082   0.912  0.4467 -0.2614 -0.0409
  377SOL    HW1 1506   1.207   2.068   0.863 -0.5495  0.1405  0.5975
  377SOL    HW2 1507   1.299   2.007   0.970  1.0376  0.2597 -0.1958
  377SOL     MW 1508   1.278   2.070   0.913  0.3932 -0.1396  0.0229
  378SOL     OW 1509   0.941   2.881   1.561 -0.3910 -0.5915 -0.6928
  378SOL    HW1 1510   0.964   2.786   1.579  2.7800  0.0563 -1.5960
  378SOL    HW2 1511   1.033   2.902   1.554  1.0874 -1.7068  1.3738
  378SOL     MW 1512   0.956   2.871   1.563  0.2224 -0.6531 -0.5393
  379SOL     OW 1513   1.122   1.655   2.194  0.2162 -0.1002  0.0097
  379SOL    HW1 1514   1.042   1.610   2.170  1.6141 -0.3196  1.3486
  379SOL    HW2 1515   1.189   1.604   2.144 -0.7985 -1.2936 -0.5276
  379SOL     MW 1516   1.120   1.642   2.185  0.2668 -0.2866  0.1154
  380SOL     OW 1517   0.894   0.067   1.408  0.0772 -0.0110  0.4075
  380SOL    HW1 1518   0.967   0.012   1.369  0.6626 -1.0413 -3.1777
  380SOL    HW2 1519   0.931   0.093   1.494 -0.6439  0.9947  0.8460
  380SOL     MW 1520   0.909   0.063   1.414  0.0593 -0.0142 -0.0077
  381SOL     OW 1521   0.785   2.041   0.826  0.4839 -0.5312  0.8436
  381SOL    HW1 1522   0.878   2.038   0.804  0.2135  0.2209  1.6486
  381SOL    HW2 1523   0.771   2.117   0.892 -0.2947 -1.0092 -0.4530
  381SOL     MW 1524   0.796   2.051   0.832  0.3455 -0.4951  0.7787
  382SOL     OW 1525   0.794   0.136   0.652  0.2899 -0.0157 -0.0144
  382SOL    HW1 1526   0.735   0.187   0.703  1.6466  0.4960 -1.3259
  382SOL    HW2 1527   0.763   0.045   0.659  0.2884 -0.3948 -0.1456
  382SOL     MW 1528   0.782   0.131   0.660  0.4687  0.0018 -0.2047
  383SOL     OW 1529   0.580   0.064   0.290 -0.0554  0.2845  0.3088
  383SOL    HW1 1530   0.622   0.006   0.226  2.2798  0.8553 -0.7594
  383SOL    HW2 1531   0.536  -0.000   0.347  1.6459 -2.1675  1.6081
  383SOL     MW 1532   0.580   0.048   0.289  0.4772  0.0363  0.3393
  384SOL     OW 1533   0.746   2.970   0.616  0.1744  0.0758  0.8960
  384SOL    HW1 1534   0.830   2.930   0.655  0.1452  0.9759  0.0843
  384SOL    HW2 1535   0.689   2.890   0.596  0.3492  1.7855 -0.4875
  384SOL     MW 1536   0.749   2.954   0.619  0.1936  0.4201  0.6064
  385SOL     OW 1537   1.428   2.072   1.545 -0.3584  0.6809 -0.0266
  385SOL    HW1 1538   1.506   2.118   1.586 -1.2325  1.5501 -0.2592
  385SOL    HW2 1539   1.405   1.992   1.600 -0.6912  3.9894  2.6664
  385SOL     MW 1540   1.435   2.068   1.558 -0.5177  1.2321  0.2980
  386SOL     OW 1541   1.396   0.374   0.854  0.8817 -0.1901  0.4552
  386SOL    HW1 1542   1.373   0.403   0.941 -0.1128 -1.6432  0.7629
  386SOL    HW2 1543   1.443   0.292   0.868  2.3415 -0.1259 -1.2005
  386SOL     MW 1544   1.399   0.367   0.867  0.9431 -0.3734  0.2773
  387SOL     OW 1545   0.805   2.126   1.521  0.1245 -0.3091  0.8488
  387SOL    HW1 1546   0.881   2.178   1.479 -0.5221 -2.5306 -0.4788
  387SOL    HW2 1547   0.803   2.038   1.478 -0.1019 -1.8117  1.0294
  387SOL     MW 1548   0.815   2.121   1.510  0.0093 -0.8004  0.6975
  388SOL     OW 1549   1.463   2.765   1.303 -0.1707  0.2623  0.3141
  388SOL    HW1 1550   1.392   2.830   1.291  1.0860 -1.3916  0.3251
  388SOL    HW2 1551   1.433   2.697   1.248 -2.8763  2.9503  1.2852
  388SOL     MW 1552   1.450   2.764   1.294 -0.3619  0.3987  0.4437
  389SOL     OW 1553   0.555   0.137   3.051 -0.3139  0.0021 -0.0322
  389SOL    HW1 1554   0.628   0.074   3.062 -2.0583  1.9768 -0.6803
  389SOL    HW2 1555   0.550   0.156   2.956 -0.9010 -0.8352  1.8686
  389SOL     MW 1556   0.564   0.131   3.040 -0.6215  0.1522  0.1331
  390SOL     OW 1557   1.341   0.026   0.739  0.1024 -0.4248  0.8299
  390SOL    HW1 1558   1.379   0.013   0.649 -2.8330  0.2923 -0.8905
  390SOL    HW2 1559   1.414   0.066   0.778 -1.9449  2.7043  0.0111
  390SOL     MW 1560   1.356   0.030   0.733 -0.5550  0.0827  0.4949
  391SOL     OW 1561   0.361   2.170   1.519 -0.1823  0.0562 -0.0355
  391SOL    HW1 1562   0.330   2.075   1.527  0.6436 -0.4990 -0.4392
  391SOL    HW2 1563   0.279   2.216   1.510  0.1876 -0.1429  1.8207
  391SOL     MW 1564   0.346   2.163   1.519 -0.0245 -0.0433  0.1562
  392SOL     OW 1565   2.050   2.227   0.302 -0.3083  0.0873  0.3077
  392SOL    HW1 1566   2.117   2.282   0.342 -3.0685  0.8797  0.2908
  392SOL    HW2 1567   1.978   2.237   0.361  1.8042 -2.4023 -0.6070
  392SOL     MW 1568   2.050   2.235   0.315 -0.3937 -0.1367  0.1848
  393SOL     OW 1569   0.256   2.953   2.861 -0.0913  0.1001 -0.0834
  393SOL    HW1 1570   0.330   2.924   2.801 -0.6489 -0.0590 -2.0967
  393SOL    HW2 1571   0.252   3.050   2.859  1.5121  1.9610  1.7540
  393SOL     MW 1572   0.265   2.962   2.853  0.0466  0.3247 -0.1066
  394SOL     OW 1573   0.995   1.706   1.531  0.5084 -0.3900 -0.4239
  394SOL    HW1 1574   0.970   1.694   1.617  2.3636  0.2482 -2.0652
  394SOL    HW2 1575   0.970   1.795   1.502 -1.1574  0.0487 -3.3361
  394SOL     MW 1576   0.989   1.716   1.538  0.5334 -0.2479 -1.0247
  395SOL     OW 1577   0.958   2.975   2.562 -0.5028  0.4404  0.6208
  395SOL    HW1 1578   0.978   2.996   2.649  2.7149  0.3158 -1.7089
  395SOL    HW2 1579   1.012   2.896   2.543 -0.1347 -1.6642 -0.0658
  395SOL     MW 1580   0.968   2.967   2.571 -0.0297  0.1463  0.2229
  396SOL     OW 1581   0.717   1.848   2.434  0.0553 -0.2274 -0.0374
  396SOL    HW1 1582   0.789   1.876   2.492 -1.2070  0.2144  0.5329
  396SOL    HW2 1583   0.729   1.752   2.424 -2.8027 -0.7920 -0.2671
  396SOL     MW 1584   0.728   1.839   2.440 -0.4883 -0.2436  0.0076
  397SOL     OW 1585   0.961   2.306   1.411 -0.2418  0.2015 -0.5309
  397SOL    HW1 1586   1.010   2.357   1.339 -0.7887  0.0682 -1.6162
  397SOL    HW2 1587   1.043   2.281   1.459  0.4401 -2.7111  1.1703
  397SOL     MW 1588   0.979   2.309   1.408 -0.2240 -0.2004 -0.4496
  398SOL     OW 1589   0.596   2.730   0.594  0.1043 -0.1669  0.1800
  398SOL    HW1 1590   0.533   2.676   0.547  2.0150  0.8938  0.5542
  398SOL    HW2 1591   0.668   2.669   0.618 -1.0876 -1.7807  1.6090
  398SOL     MW 1592   0.597   2.714   0.591  0.1992 -0.2399  0.4179
  399SOL     OW 1593   0.227   2.093   0.326  0.8452  0.0561  0.3457
  399SOL    HW1 1594   0.135   2.108   0.332  3.1526  1.3467 -1.8159
  399SOL    HW2 1595   0.247   2.086   0.228  0.1495 -0.4475 -0.0567
  399SOL     MW 1596   0.217   2.094   0.314  1.0579  0.1599  0.0074
  400SOL     OW 1597   0.568   1.926   0.096  0.1184 -0.3909 -0.2499
  400SOL    HW1 1598   0.519   2.006   0.112  0.4711  0.6091  1.6096
  400SOL    HW2 1599   0.584   1.876   0.171 -0.9553  0.5001 -0.0151
  400SOL     MW 1600   0.564   1.930   0.108  0.0233 -0.1414  0.0264
  401SOL     OW 1601   0.818   2.059   0.049 -0.3745  0.0438  0.0308
  401SOL    HW1 1602   0.873   1.983   0.032 -3.3617 -2.0183 -0.4566
  401SOL    HW2 1603   0.728   2.029   0.054 -0.1155 -1.3162  0.9484
  401SOL     MW 1604   0.814   2.045   0.047 -0.7345 -0.4077  0.0876
  402SOL     OW 1605   0.541   2.999   1.714 -0.6333  0.6198 -0.3096
  402SOL    HW1 1606   0.618   2.953   1.746  2.2621  0.2938 -1.2925
  402SOL    HW2 1607   0.573   3.081   1.673  0.8810  0.7362 -2.8271
  402SOL     MW 1608   0.555   3.004   1.713 -0.0515  0.5921 -0.7714
  403SOL     OW 1609   0.101   0.512   0.357  0.2321 -0.1477 -0.0266
  403SOL    HW1 1610   0.193   0.549   0.376  2.7896  0.5002 -1.3267
  403SOL    HW2 1611   0.115   0.458   0.285 -1.0603 -0.1815  2.2133
  403SOL     MW 1612   0.115   0.509   0.350  0.3990 -0.0667  0.0974
  404SOL     OW 1613   0.980   2.897   0.781 -0.1923  0.2065  0.2780
  404SOL    HW1 1614   1.043   2.829   0.752  0.8107  1.6654  1.4948
  404SOL    HW2 1615   1.012   2.989   0.760  0.2674 -2.5044  0.3836
  404SOL     MW 1616   0.993   2.900   0.775  0.0007  0.0413  0.4525
  405SOL     OW 1617   0.458   2.481   1.522 -0.4524 -0.2218  0.0514
  405SOL    HW1 1618   0.506   2.558   1.505 -3.6000 -0.1118  0.5658
  405SOL    HW2 1619   0.519   2.405   1.500 -1.5719  1.2761 -1.1265
  405SOL     MW 1620   0.473   2.481   1.517 -1.0154 -0.0096 -0.0361
  406SOL     OW 1621   0.360   2.392   1.161  0.4110  0.0539 -0.0020
  406SOL    HW1 1622   0.262   2.390   1.135  0.0943  1.8838  0.6943
  406SOL    HW2 1623   0.374   2.303   1.196 -1.4554 -0.0886  2.1186
  406SOL     MW 1624   0.349   2.380   1.162  0.1229  0.2765  0.3697
  407SOL     OW 1625   0.075   2.660   1.167 -0.2290 -0.1301  0.1475
  407SOL    HW1 1626   0.129   2.675   1.249 -1.6495 -0.2699  1.3504
  407SOL    HW2 1627   0.117   2.714   1.097 -1.2868  2.4932 -0.7222
  407SOL     MW 1628   0.088   2.669   1.168 -0.5560  0.1976  0.1915
  408SOL     OW 1629   2.106   2.110   0.750  0.3129 -0.2351  0.2915
  408SOL    HW1 1630   2.049   2.161   0.807  0.1087 -0.7631 -0.8432
  408SOL    HW2 1631   2.045   2.079   0.685 -0.3544  3.6387  4.3169
  408SOL     MW 1632   2.091   2.112   0.749  0.1979  0.2063  0.6729
  409SOL     OW 1633   1.550   0.142   0.891  0.2736  0.2682 -0.3477
  409SOL    HW1 1634   1.607   0.220   0.904 -0.4974 -0.4962  0.9518
  409SOL    HW2 1635   1.566   0.082   0.968  2.3987 -0.3622  1.4177
  409SOL     MW 1636   1.559   0.144   0.903  0.4523  0.0842  0.0566
  410SOL     OW 1637   1.044   2.456   1.163  0.2760 -0.3738 -0.1685
  410SOL    HW1 1638   0.964   2.448   1.114 -1.3118  1.7916  1.0848
  410SOL    HW2 1639   1.121   2.421   1.113 -0.7567  0.2622 -1.9772
  410SOL     MW 1640   1.044   2.451   1.150 -0.0698 -0.0042 -0.2418
  411SOL     OW 1641   2.014   3.004   2.878  0.0200 -0.6484 -0.9624
  411SOL    HW1 1642   1.963   2.995   2.799  1.6171  0.9106 -0.5103
  411SOL    HW2 1643   2.010   3.096   2.896 -1.7182  0.1190  1.3478
  411SOL     MW 1644   2.006   3.015   2.870  0.0014 -0.3415 -0.5979
  412SOL     OW 1645   1.066   2.279   0.616 -0.1724 -0.1559 -0.0969
  412SOL    HW1 1646   1.092   2.365   0.651  0.4672 -1.3384 -0.2195
  412SOL    HW2 1647   0.981   2.302   0.573  0.4524  2.6791  1.8414
  412SOL     MW 1648   1.058   2.294   0.615 -0.0055  0.0621  0.1426
  413SOL     OW 1649   0.599   2.763   0.077  0.0361  0.4751  0.1082
  413SOL    HW1 1650   0.637   2.674   0.060  1.3900 -3.6124  1.5002
  413SOL    HW2 1651   0.605   2.804  -0.009 -0.4018 -1.9842  1.5280
  413SOL     MW 1652   0.605   2.757   0.063  0.1569 -0.3887  0.4792
  414SOL     OW 1653   2.009   3.040   1.164 -0.3938  0.0500 -0.2380
  414SOL    HW1 1654   2.051   3.123   1.149 -2.5754 -0.4266  0.1857
  414SOL    HW2 1655   1.964   3.010   1.088 -2.3417  1.0720  0.0653
  414SOL     MW 1656   2.009   3.047   1.152 -0.9387  0.1220 -0.1421
  415SOL     OW 1657   1.639   2.800   1.093 -0.0257  0.3711  0.4283
  415SOL    HW1 1658   1.599   2.779   1.179 -0.8646  0.5480 -0.7372
  415SOL    HW2 1659   1.734   2.809   1.100 -0.4420 -1.2683 -0.1742
  415SOL     MW 1660   1.646   2.798   1.105 -0.1913  0.1781  0.1950
  416SOL     OW 1661   0.597   1.776   1.472  0.3966 -0.1787  0.3332
  416SOL    HW1 1662   0.518   1.768   1.424  2.5449 -1.4915  3.6041
  416SOL    HW2 1663   0.643   1.699   1.443 -1.6317 -1.3599  0.5843
  416SOL     MW 1664   0.592   1.765   1.462  0.4124 -0.5078  0.7979
  417SOL     OW 1665   0.987   3.037   2.075  0.0549  0.2224  0.9886
  417SOL    HW1 1666   0.907   3.036   2.128 -2.2519  1.2555 -0.6283
  417SOL    HW2 1667   0.952   3.016   1.982 -1.2711  0.1798 -1.2899
  417SOL     MW 1668   0.972   3.035   2.070 -0.4244  0.3530  0.4747
  418SOL     OW 1669   0.730   2.977   0.160  0.2249  0.5574  0.0136
  418SOL    HW1 1670   0.793   2.941   0.098 -1.4201  0.6193 -1.3844
  418SOL    HW2 1671   0.664   2.907   0.156  1.6324 -1.5415 -1.5193
  418SOL     MW 1672   0.730   2.963   0.151  0.1936  0.2887 -0.3731
  419SOL     OW 1673   0.552   2.695   1.349 -0.1402  0.4087  0.0137
  419SOL    HW1 1674   0.579   2.780   1.380 -0.3859  1.1915 -1.2919
  419SOL    HW2 1675   0.631   2.647   1.360 -0.9153  0.1767 -2.4552
  419SOL     MW 1676   0.566   2.700   1.354 -0.2749  0.4814 -0.4843
  420SOL     OW 1677   0.763   2.248   1.053  0.0173 -0.5801 -0.2938
  420SOL    HW1 1678   0.698   2.253   1.122 -1.0036 -0.2075 -1.6824
  420SOL    HW2 1679   0.784   2.345   1.029  1.6945  0.9866  1.6079
  420SOL     MW 1680   0.757   2.262   1.059  0.1039 -0.3243 -0.2261
  421SOL     OW 1681   2.935   0.161   3.088 -0.1244  0.2280  0.5479
  421SOL    HW1 1682   2.871   0.116   3.029  1.8703  1.0947 -1.9698
  421SOL    HW2 1683   2.953   0.099   3.158 -0.6181 -0.8314  1.5223
  421SOL     MW 1684   2.929   0.147   3.090  0.0737  0.2026  0.3442
  422SOL     OW 1685   0.820   2.502   0.978  0.0217  0.9279  0.1494
  422SOL    HW1 1686   0.732   2.534   0.996  0.7911 -0.1632  0.8563
  422SOL    HW2 1687   0.852   2.554   0.905 -0.8422 -1.1309 -0.2893
  422SOL     MW 1688   0.813   2.513   0.971  0.0092  0.5123  0.1848
  423SOL     OW 1689   1.448   0.063   0.473 -0.2416  0.1158  0.2132
  423SOL    HW1 1690   1.466   0.071   0.384 -1.1689  0.5840  1.4605
  423SOL    HW2 1691   1.460   0.153   0.491  0.5903 -2.2842  0.1519
  423SOL     MW 1692   1.452   0.076   0.463 -0.2542 -0.1391  0.3697
  424SOL     OW 1693   0.648   2.297   1.351  0.3834  0.1162  0.1605
  424SOL    HW1 1694   0.587   2.235   1.304 -2.0675 -0.6434  0.5080
  424SOL    HW2 1695   0.699   2.240   1.412 -1.4188  0.7793  3.7080
  424SOL     MW 1696   0.647   2.282   1.353 -0.1778  0.1035  0.6744
  425SOL     OW 1697   1.683   2.774   2.064 -0.1110 -0.1443  0.1786
  425SOL    HW1 1698   1.697   2.787   1.967 -1.1035  0.7568 -1.5280
  425SOL    HW2 1699   1.721   2.688   2.098 -1.7014  0.5611 -1.6944
  425SOL     MW 1700   1.690   2.764   2.055 -0.4518  0.0677 -0.2937
  426SOL     OW 1701   0.902   1.749   1.991  0.7041 -0.3338  0.1308
  426SOL    HW1 1702   0.818   1.761   1.944 -0.7391  3.2381  0.6472
  426SOL    HW2 1703   0.889   1.807   2.067  1.0780 -0.9570 -2.3870
  426SOL     MW 1704   0.889   1.758   1.995  0.5630  0.0553 -0.1333
  427SOL     OW 1705   0.349   1.707   1.870  0.0713  0.0278  0.0653
  427SOL    HW1 1706   0.392   1.632   1.816  0.3038 -0.0465 -2.5177
  427SOL    HW2 1707   0.282   1.663   1.936  0.5446 -1.2170  3.3508
  427SOL     MW 1708   0.346   1.691   1.871  0.1644 -0.1462  0.1580
  428SOL     OW 1709   0.572   2.584   1.084  0.3733  0.0655 -0.4570
  428SOL    HW1 1710   0.505   2.530   1.134  0.2235 -2.4100  0.1607
  428SOL    HW2 1711   0.573   2.657   1.155  0.0652 -0.7175  0.1320
  428SOL     MW 1712   0.564   2.587   1.100  0.3129 -0.3644 -0.2978
  429SOL     OW 1713   1.187   2.744   1.139 -0.2355 -0.2558 -0.5354
  429SOL    HW1 1714   1.099   2.743   1.178 -1.2661  0.5363  0.3342
  429SOL    HW2 1715   1.180   2.816   1.078 -0.3567  2.3026  0.4132
  429SOL     MW 1716   1.174   2.754   1.136 -0.3875  0.1863 -0.2955
  430SOL     OW 1717   1.167   2.734   0.706 -0.3095  0.7128 -0.6727
  430SOL    HW1 1718   1.161   2.641   0.731 -0.4550 -0.4658 -0.6945
  430SOL    HW2 1719   1.136   2.729   0.614  0.4913  0.2472  3.7806
  430SOL     MW 1720   1.162   2.721   0.697 -0.2230  0.4959 -0.0880
  431SOL     OW 1721   0.294   1.923   1.143 -0.1572 -0.2571 -0.3213
  431SOL    HW1 1722   0.358   1.857   1.097  1.9313 -1.1632  0.8195
  431SOL    HW2 1723   0.246   1.962   1.066 -0.0980  1.8058 -0.1032
  431SOL     MW 1724   0.296   1.920   1.127  0.1262 -0.1044 -0.1420
  432SOL     OW 1725   0.059   0.028   1.124  0.7182 -0.2339  0.4759
  432SOL    HW1 1726   0.054   0.071   1.211 -0.7737  1.2775 -1.1435
  432SOL    HW2 1727   0.018  -0.061   1.139 -1.2391  0.8138 -0.2024
  432SOL     MW 1728   0.053   0.022   1.138  0.2631  0.1038  0.1727
  433SOL     OW 1729   0.659   2.903   1.467  0.0236  0.6023  0.2522
  433SOL    HW1 1730   0.622   2.923   1.556  1.9539  1.2849 -0.7849
  433SOL    HW2 1731   0.758   2.879   1.484 -0.4676 -0.7722  0.0453
  433SOL     MW 1732   0.667   2.902   1.481  0.2135  0.5110  0.0881
  434SOL     OW 1733   1.527   2.835   1.576 -0.7996  0.9011 -0.3196
  434SOL    HW1 1734   1.430   2.837   1.572 -1.7087 -1.1099  1.0217
  434SOL    HW2 1735   1.549   2.783   1.498 -0.7643  2.5011 -2.2636
  434SOL     MW 1736   1.517   2.828   1.565 -0.9149  0.8469 -0.3992
  435SOL     OW 1737   2.752   1.778   0.223  0.1414  0.3593 -0.3206
  435SOL    HW1 1738   2.823   1.830   0.192 -3.9279 -2.0151  1.6095
  435SOL    HW2 1739   2.674   1.821   0.191 -0.6672  0.9569 -0.0508
  435SOL     MW 1740   2.751   1.791   0.215 -0.5022  0.1249 -0.0304
  436SOL     OW 1741   1.396   2.697   0.330 -0.5349 -0.4267 -1.0228
  436SOL    HW1 1742   1.421   2.662   0.419  0.2062  2.0366 -0.4125
  436SOL    HW2 1743   1.350   2.782   0.348 -0.8136 -0.6522  1.0560
  436SOL     MW 1744   1.393   2.703   0.344 -0.4739 -0.1314 -0.6680
  437SOL     OW 1745   1.058   2.982   1.315 -0.2042  0.1290 -0.5907
  437SOL    HW1 1746   1.048   3.039   1.235  0.4443 -1.0980  0.2754
  437SOL    HW2 1747   0.985   2.922   1.299 -0.2232  2.4676  1.2233
  437SOL     MW 1748   1.047   2.982   1.302 -0.1211  0.2756 -0.2371
  438SOL     OW 1749   0.884   2.730   1.926  0.2310 -0.2022  0.3195
  438SOL    HW1 1750   0.865   2.694   2.016 -0.6165  1.4851  0.2439
  438SOL    HW2 1751   0.884   2.650   1.877  0.8200 -1.1547 -1.7294
  438SOL     MW 1752   0.881   2.715   1.931  0.1969 -0.1053  0.0392
  439SOL     OW 1753   1.170   2.079   0.417  0.4058  0.2567 -0.1580
  439SOL    HW1 1754   1.162   2.149   0.483 -0.8268 -1.5700  0.1087
  439SOL    HW2 1755   1.172   2.122   0.329  1.7185 -1.4687  1.4864
  439SOL     MW 1756   1.169   2.094   0.414  0.4163 -0.2119  0.0941
  440SOL     OW 1757   1.772   2.958   3.079  0.2763  0.1388  0.0338
  440SOL    HW1 1758   1.764   2.942   3.173  1.7981  2.8711  0.4989
  440SOL    HW2 1759   1.864   2.945   3.058 -1.8457  2.0762 -1.4357
  440SOL     MW 1760   1.783   2.954   3.088  0.1971  0.7549 -0.0987
  441SOL     OW 1761   0.340   2.662   0.472 -0.2451  0.1845 -0.6635
  441SOL    HW1 1762   0.304   2.609   0.392 -0.7177 -1.2916 -1.9757
  441SOL    HW2 1763   0.365   2.751   0.444 -0.2428 -0.4552 -1.5573
  441SOL     MW 1764   0.338   2.667   0.458 -0.3072 -0.0947 -0.9546
  442SOL     OW 1765   3.088   2.291   0.605  0.0880 -0.1968  0.6041
  442SOL    HW1 1766   3.103   2.384   0.573 -1.1711 -2.8713 -0.7683
  442SOL    HW2 1767   2.995   2.283   0.633  0.5505  0.7824  1.6406
  442SOL     MW 1768   3.078   2.302   0.604 -0.0171 -0.4205  0.5598
  443SOL     OW 1769   1.501   1.768   1.893  0.3453  0.1614  0.3096
  443SOL    HW1 1770   1.470   1.798   1.804 -1.8185 -1.2931 -1.8683
  443SOL    HW2 1771   1.435   1.703   1.916 -0.4690  2.1384 -1.2642
  443SOL     MW 1772   1.488   1.764   1.884 -0.0477  0.2304 -0.1854
  444SOL     OW 1773   0.976   2.612   1.611  1.0659  0.0453  0.2689
  444SOL    HW1 1774   1.041   2.555   1.658  3.6229 -0.6426 -1.1690
  444SOL    HW2 1775   0.894   2.602   1.657  1.1023  0.8104  0.7755
  444SOL     MW 1776   0.974   2.603   1.623  1.4081  0.0555  0.1460
  445SOL     OW 1777   1.213   0.146   1.433  0.1921 -0.1581  0.0576
  445SOL    HW1 1778   1.263   0.218   1.461 -1.2433  0.6969 -1.1423
  445SOL    HW2 1779   1.155   0.185   1.370  1.6280  0.0833  0.8289
  445SOL     MW 1780   1.212   0.161   1.429  0.1922 -0.0134  0.0011
  446SOL     OW 1781   2.787   2.854   1.032 -0.5287 -0.1929 -0.0312
  446SOL    HW1 1782   2.733   2.917   0.983  2.3914 -1.4904 -1.0076
  446SOL    HW2 1783   2.800   2.775   0.984  0.9827  3.0612 -1.2785
  446SOL     MW 1784   2.782   2.852   1.019  0.0560  0.0652 -0.3246
  447SOL     OW 1785   0.019   1.960   1.579  0.7145  0.0000  0.2196
  447SOL    HW1 1786   0.017   1.906   1.658  1.6404 -0.6577  1.1241
  447SOL    HW2 1787  -0.059   1.933   1.516 -1.8670 -1.5208 -1.2112
  447SOL     MW 1788   0.008   1.949   1.581  0.4961 -0.2874  0.1502
  448SOL     OW 1789   1.787   2.436   1.670 -0.1037 -0.5368 -0.2680
  448SOL    HW1 1790   1.747   2.347   1.667  1.3225  1.5278  0.4197
  448SOL    HW2 1791   1.710   2.498   1.680 -1.1696  0.4770  0.7129
  448SOL     MW 1792   1.771   2.433   1.671 -0.0562 -0.1307 -0.0478
  449SOL     OW 1793   0.889   2.947   0.399 -0.4568 -0.2606  0.3491
  449SOL    HW1 1794   0.820   2.952   0.331  2.0591 -0.3930  0.2018
  449SOL    HW2 1795   0.845   2.974   0.482  0.2247 -1.7293 -0.3970
  449SOL     MW 1796   0.874   2.951   0.401 -0.0349 -0.4718  0.2312
  450SOL     OW 1797   1.179   2.466   0.769  0.0552  0.2156  0.2963
  450SOL    HW1 1798   1.190   2.430   0.854 -0.9412  0.6429 -0.2587
  450SOL    HW2 1799   1.263   2.446   0.725  0.2555  2.9100  0.5022
  450SOL     MW 1800   1.192   2.459   0.775 -0.0498  0.6275  0.2502
  451SOL     OW 1801   0.553   1.999   1.718 -0.4772 -0.3502 -0.3438
  451SOL    HW1 1802   0.580   2.054   1.650 -1.1866 -0.4231  2.3185
  451SOL    HW2 1803   0.494   1.943   1.673 -0.7195  0.6962  1.6332
  451SOL     MW 1804   0.548   1.999   1.703 -0.6028 -0.2218  0.2683
  452SOL     OW 1805   0.359   2.647   0.048 -0.1095 -0.5143 -0.1144
  452SOL    HW1 1806   0.438   2.704   0.056  1.7724  2.3404  0.0750
  452SOL    HW2 1807   0.286   2.713   0.040 -4.1721  1.6012 -0.8307
  452SOL     MW 1808   0.360   2.663   0.048 -0.3972  0.1415 -0.1839
  453SOL     OW 1809   0.295   3.089   1.595 -0.1372  0.1891  0.4371
  453SOL    HW1 1810   0.360   3.032   1.638  1.0674 -1.7868  0.9320
  453SOL    HW2 1811   0.328   3.091   1.505  1.6132 -0.1117 -1.4334
  453SOL     MW 1812   0.308   3.082   1.589  0.2527 -0.1113  0.2556
  454SOL     OW 1813   0.935   2.751   1.241 -0.0744  0.3980  0.4422
  454SOL    HW1 1814   0.873   2.684   1.279 -3.3052 -1.6947 -0.1111
  454SOL    HW2 1815   0.891   2.761   1.157 -1.4764 -0.1388  0.5769
  454SOL     MW 1816   0.921   2.744   1.235 -0.6857  0.0511  0.3870
  455SOL     OW 1817   1.670   2.878   0.245  0.6640 -0.4875 -0.2521
  455SOL    HW1 1818   1.717   2.841   0.324 -0.9609 -2.2565  0.7587
  455SOL    HW2 1819   1.645   2.793   0.204  1.9484 -2.3652  1.2081
  455SOL     MW 1820   1.673   2.862   0.250  0.6191 -0.9687  0.0739
  456SOL     OW 1821   2.750   0.288   1.496  0.3964 -0.0502 -0.0367
  456SOL    HW1 1822   2.748   0.225   1.423  0.3155 -0.2248 -1.7049
  456SOL    HW2 1823   2.829   0.334   1.480  1.4130  2.1258  0.9132
  456SOL     MW 1824   2.760   0.286   1.484  0.5198  0.2139 -0.1314
  457SOL     OW 1825   0.783   1.649   3.038 -0.0861  0.1769  0.2950
  457SOL    HW1 1826   0.687   1.667   3.050  0.5855  0.6274 -0.7899
  457SOL    HW2 1827   0.821   1.688   3.120 -2.5865 -0.1136 -0.5342
  457SOL     MW 1828   0.775   1.657   3.051 -0.3274  0.1980  0.0424
  458SOL     OW 1829   1.376   1.511   0.680 -0.0773  0.5109  0.4081
  458SOL    HW1 1830   1.312   1.566   0.620 -3.5825  0.8499 -0.4703
  458SOL    HW2 1831   1.351   1.428   0.655 -0.9564  1.5702 -1.6587
  458SOL     MW 1832   1.364   1.507   0.668 -0.6558  0.6954  0.0195
  459SOL     OW 1833   1.558   0.023   0.213 -0.1101  0.1592  0.2447
  459SOL    HW1 1834   1.589  -0.067   0.225  1.2795  2.8134 -0.4623
  459SOL    HW2 1835   1.527   0.022   0.119  1.2232  0.6869  0.6551
  459SOL     MW 1836   1.558   0.011   0.202  0.2491  0.5790  0.2056
  460SOL     OW 1837   1.772   2.197   0.675  0.0773  0.4972 -0.4465
  460SOL    HW1 1838   1.681   2.194   0.720  1.1377  0.6978  1.7053
  460SOL    HW2 1839   1.792   2.105   0.664  0.7406  0.5247 -0.5183
  460SOL     MW 1840   1.762   2.185   0.680  0.3047  0.5273 -0.1720
  461SOL     OW 1841   0.473   2.421   0.626  0.0552  0.4691  0.5503
  461SOL    HW1 1842   0.392   2.468   0.599 -2.1646  0.7656 -0.2533
  461SOL    HW2 1843   0.460   2.421   0.719 -1.1835  0.9187  0.3043
  461SOL     MW 1844   0.461   2.427   0.635 -0.4011  0.5675  0.4118
  462SOL     OW 1845   0.300   0.202   1.301 -0.6242 -0.5386  0.3845
  462SOL    HW1 1846   0.334   0.176   1.214  0.4669  0.5590  0.8204
  462SOL    HW2 1847   0.374   0.226   1.361  1.7277 -0.6987 -2.9747
  462SOL     MW 1848   0.314   0.202   1.298 -0.1699 -0.4149 -0.0012
  463SOL     OW 1849   1.052   0.060   0.717  0.3758 -0.2641 -0.0031
  463SOL    HW1 1850   1.139   0.066   0.673  3.2943 -1.0432  0.8088
  463SOL    HW2 1851   0.978   0.098   0.658 -0.4462 -2.4455  1.3076
  463SOL     MW 1852   1.054   0.066   0.703  0.6524 -0.6547  0.2769
  464SOL     OW 1853   0.776   3.075   2.255  0.0444  0.9532  0.1962
  464SOL    HW1 1854   0.760   2.984   2.283 -2.0646  3.1379 -0.5100
  464SOL    HW2 1855   0.806   3.121   2.333  0.1055  2.5307  2.5934
  464SOL     MW 1856   0.778   3.069   2.269 -0.2258  1.4495  0.4193
  465SOL     OW 1857   0.834   0.337   0.405 -0.9402 -0.1536 -0.0482
  465SOL    HW1 1858   0.807   0.283   0.481 -0.5088 -4.3067 -0.8380
  465SOL    HW2 1859   0.807   0.279   0.324 -4.7506  0.3825  0.1554
  465SOL     MW 1860   0.827   0.322   0.404 -1.3861 -0.6308 -0.1255
  466SOL     OW 1861   1.069   2.035   0.735  0.5242 -0.5135  0.0603
  466SOL    HW1 1862   1.064   1.954   0.684  0.0159 -1.8234 -0.9386
  466SOL    HW2 1863   1.063   2.115   0.671  0.9119  0.9322 -2.1041
  466SOL     MW 1864   1.067   2.035   0.720  0.5083 -0.4956 -0.3571
  467SOL     OW 1865   1.270   2.336   1.006  0.1917 -0.3303 -0.0757
  467SOL    HW1 1866   1.363   2.357   1.009  0.5113 -0.2176  0.9153
  467SOL    HW2 1867   1.270   2.241   0.984 -1.4724 -2.0242  0.6551
  467SOL     MW 1868   1.282   2.326   1.004  0.0143 -0.5389  0.1515
  468SOL     OW 1869   0.447   2.667   1.870  0.2789 -0.4369  0.0478
  468SOL    HW1 1870   0.439   2.581   1.831  3.1415 -0.2349  1.2040
  468SOL    HW2 1871   0.364   2.718   1.846 -2.1580  0.4716 -1.6949
  468SOL     MW 1872   0.435   2.662   1.862  0.3350 -0.2904 -0.0296
  469SOL     OW 1873   0.388   2.137   1.873 -0.0657 -0.2913 -0.2426
  469SOL    HW1 1874   0.292   2.108   1.866 -0.1942 -1.5618  1.7819
  469SOL    HW2 1875   0.434   2.069   1.821 -2.3791 -3.0132  3.2554
  469SOL     MW 1876   0.381   2.124   1.865 -0.3879 -0.8181  0.4861
  470SOL     OW 1877   3.079   2.595   0.147 -0.3158 -0.0518  0.2689
  470SOL    HW1 1878   2.991   2.594   0.193 -0.5045  0.6286 -2.0224
  470SOL    HW2 1879   3.055   2.610   0.058  0.2058 -0.1311 -1.9892
  470SOL     MW 1880   3.064   2.597   0.141 -0.2719  0.0275 -0.3313
  471SOL     OW 1881   1.178   2.531   1.417 -0.2806 -0.0065  0.9634
  471SOL    HW1 1882   1.100   2.522   1.467 -0.0031  0.0781 -0.3666
  471SOL    HW2 1883   1.137   2.569   1.336  0.5951  1.4118 -0.8364
  471SOL     MW 1884   1.163   2.535   1.413 -0.1285  0.1918  0.5505
  472SOL     OW 1885   2.800   2.095   0.367  0.5409  0.3823 -0.1865
  472SOL    HW1 1886   2.817   2.061   0.279 -0.5804 -1.4444 -1.0417
  472SOL    HW2 1887   2.795   2.012   0.416 -0.3651  1.3507 -0.5181
  472SOL     MW 1888   2.802   2.079   0.362  0.2734  0.2691 -0.3431
  473SOL     OW 1889   0.785   2.559   1.371  1.0120 -0.0708  0.3160
  473SOL    HW1 1890   0.756   2.469   1.360 -0.4816 -0.7057  0.7171
  473SOL    HW2 1891   0.831   2.552   1.458  1.2257 -1.0870  2.5130
  473SOL     MW 1892   0.787   2.546   1.381  0.8432 -0.2886  0.6588
  474SOL     OW 1893   0.717   2.284   1.731  0.0215 -0.2612 -0.5070
  474SOL    HW1 1894   0.803   2.298   1.775  1.1252 -1.5386  0.6781
  474SOL    HW2 1895   0.740   2.229   1.655 -0.9400  2.9133  0.6062
  474SOL     MW 1896   0.731   2.278   1.726  0.0403 -0.0109 -0.2038
  475SOL     OW 1897   1.599   3.092   1.479 -0.5903 -0.1613  0.2118
  475SOL    HW1 1898   1.519   3.078   1.423 -0.8724 -1.0467 -0.9049
  475SOL    HW2 1899   1.631   3.007   1.503 -0.7287 -0.6362  1.0356
  475SOL     MW 1900   1.592   3.079   1.475 -0.6458 -0.3408  0.1732
  476SOL     OW 1901   1.430   2.601   1.083  0.0163 -0.4344  0.2954
  476SOL    HW1 1902   1.338   2.622   1.058  0.2322  1.5919  0.2385
  476SOL    HW2 1903   1.477   2.679   1.042 -1.4594  0.5185  0.5970
  476SOL     MW 1904   1.424   2.614   1.074 -0.1499 -0.0413  0.3277
  477SOL     OW 1905   0.814   2.568   0.654  0.2912  0.0888  0.0902
  477SOL    HW1 1906   0.879   2.613   0.601  1.3634  0.0376  1.6817
  477SOL    HW2 1907   0.790   2.486   0.615  1.8602  3.5054  0.6095
  477SOL     MW 1908   0.819   2.563   0.642  0.6397  0.5328  0.3687
  478SOL     OW 1909   0.145   2.681   0.901  0.2157 -0.4095  0.3644
  478SOL    HW1 1910   0.194   2.757   0.874  0.1883 -1.2104 -1.7765
  478SOL    HW2 1911   0.208   2.611   0.880  3.3723  0.9622 -1.4728
  478SOL     MW 1912   0.160   2.681   0.894  0.6286 -0.3342 -0.1605
  479SOL     OW 1913   1.440   1.998   1.293 -0.2633 -0.2146  0.0465
  479SOL    HW1 1914   1.438   2.026   1.382 -0.7915 -0.1236 -0.2492
  479SOL    HW2 1915   1.476   1.907   1.290  1.2015 -1.5126  0.9953
  479SOL     MW 1916   1.444   1.990   1.305 -0.1397 -0.3738  0.1327
  480SOL     OW 1917   2.012   2.451   1.308  0.4432  0.1955  0.7057
  480SOL    HW1 1918   1.992   2.358   1.310  0.7683 -1.4403  1.2278
  480SOL    HW2 1919   2.042   2.467   1.219  1.7037 -1.8416 -0.1702
  480SOL     MW 1920   2.013   2.441   1.296  0.6524 -0.2891  0.6590
  481SOL     OW 1921   1.045   0.038   1.089 -0.7691 -0.1437 -0.1734
  481SOL    HW1 1922   1.109  -0.006   1.030  1.8039  1.6444 -1.0671
  481SOL    HW2 1923   1.084   0.128   1.105  1.6769  0.3169  1.9847
  481SOL     MW 1924   1.059   0.044   1.083 -0.1069  0.1530 -0.0066
  482SOL     OW 1925   1.101   3.075   0.271  0.2130  0.1204  0.4264
  482SOL    HW1 1926   1.022   3.033   0.306 -0.3132 -0.6939 -0.2679
  482SOL    HW2 1927   1.100   3.166   0.315 -1.4887 -1.1659 -0.9813
  482SOL     MW 1928   1.091   3.081   0.281 -0.0810 -0.1568  0.1491
  483SOL     OW 1929   0.429   2.932   0.395  0.4196  0.3798 -0.0321
  483SOL    HW1 1930   0.339   2.964   0.365 -2.9095  0.0257 -0.6885
  483SOL    HW2 1931   0.428   2.952   0.488 -0.6984  1.1326 -0.3487
  483SOL     MW 1932   0.417   2.939   0.403 -0.1672  0.4324 -0.1605
  484SOL     OW 1933   1.888   1.934   1.483 -0.4616 -0.5445  0.1474
  484SOL    HW1 1934   1.905   2.017   1.445 -0.1765 -1.7566  0.3990
  484SOL    HW2 1935   1.878   1.960   1.574  1.5320  1.8641  1.2251
  484SOL     MW 1936   1.889   1.948   1.490 -0.1610 -0.3867  0.3228
  485SOL     OW 1937   0.558   2.298   0.262  0.2601 -0.2750  0.1586
  485SOL    HW1 1938   0.603   2.286   0.352  1.5657 -0.0299  0.3330
  485SOL    HW2 1939   0.485   2.363   0.279  0.3481  0.6231  1.8318
  485SOL     MW 1940   0.554   2.305   0.276  0.4440 -0.1241  0.4024
  486SOL     OW 1941   0.151   2.361   1.493  0.1701  0.8397  0.4634
  486SOL    HW1 1942   0.200   2.439   1.459  0.3475  2.5124  0.9839
  486SOL    HW2 1943   0.166   2.362   1.588  1.4228 -1.2140  1.3650
  486SOL     MW 1944   0.160   2.371   1.501  0.3588  0.7894  0.6510
  487SOL     OW 1945   1.231   1.677   1.055 -0.0476 -0.0474 -0.1995
  487SOL    HW1 1946   1.195   1.766   1.080  1.7068 -0.1660 -1.4307
  487SOL    HW2 1947   1.326   1.696   1.044 -1.9590  3.6206 -0.1732
  487SOL     MW 1948   1.239   1.692   1.057 -0.0683  0.4209 -0.3585
  488SOL     OW 1949   1.611   1.839   0.543 -0.2612 -0.7865  0.2458
  488SOL    HW1 1950   1.683   1.854   0.479 -1.6337 -1.5077  2.1404
  488SOL    HW2 1951   1.564   1.922   0.528  1.3407 -1.2321  0.1103
  488SOL     MW 1952   1.614   1.852   0.533 -0.2310 -0.9404  0.4779
  489SOL     OW 1953   0.766   0.795   0.603 -0.2555  0.9348  0.6667
  489SOL    HW1 1954   0.800   0.713   0.566  1.3480  1.2949 -0.3314
  489SOL    HW2 1955   0.743   0.773   0.697  2.9388 -0.2116 -0.4930
  489SOL     MW 1956   0.768   0.781   0.611  0.3776  0.8311  0.3820
  490SOL     OW 1957   1.447   2.072   0.465  0.5198  0.0344 -0.3130
  490SOL    HW1 1958   1.482   2.144   0.416  0.9702 -2.4422  1.5483
  490SOL    HW2 1959   1.348   2.082   0.457 -1.5368 -1.4202 -1.9046
  490SOL     MW 1960   1.439   2.083   0.458  0.3078 -0.4843 -0.2775
  491SOL     OW 1961   1.272   2.930   0.408  0.5060 -0.1384  0.6706
  491SOL    HW1 1962   1.344   2.992   0.435  0.2657 -1.1853  1.0496
  491SOL    HW2 1963   1.201   2.987   0.369 -1.6666 -1.7070 -0.9029
  491SOL     MW 1964   1.272   2.946   0.407  0.1876 -0.4835  0.5130
  492SOL     OW 1965   1.509   2.174   0.725 -0.6876  0.5530  0.2477
  492SOL    HW1 1966   1.472   2.121   0.654  0.7190  1.8108  0.5555
  492SOL    HW2 1967   1.457   2.164   0.804 -2.5965  1.9951  1.2452
  492SOL     MW 1968   1.497   2.166   0.726 -0.7539  0.9092  0.4199
  493SOL     OW 1969   0.190   3.037   0.345 -0.0349  0.3781  0.8921
  493SOL    HW1 1970   0.134   3.083   0.408 -0.3196  1.9876  0.6650
  493SOL    HW2 1971   0.210   3.096   0.268 -2.8629 -0.6831  0.8765
  493SOL     MW 1972   0.186   3.051   0.343 -0.4456  0.4505  0.8601
  494SOL     OW 1973   0.413   2.407   1.783 -0.1226  0.2500 -0.2114
  494SOL    HW1 1974   0.464   2.327   1.794 -0.1383  0.2656  0.3442
  494SOL    HW2 1975   0.422   2.430   1.687 -1.2884  1.3659  0.6205
  494SOL     MW 1976   0.421   2.400   1.772 -0.2785  0.3993 -0.0283
  495SOL     OW 1977   2.881   1.650   2.615 -0.4573  0.2090 -0.6715
  495SOL    HW1 1978   2.860   1.740   2.595 -1.3416  1.4152 -2.7445
  495SOL    HW2 1979   2.848   1.619   2.702 -0.9931 -1.6826 -1.0692
  495SOL     MW 1980   2.874   1.658   2.624 -0.6447  0.1186 -0.9975
  496SOL     OW 1981   2.913   2.383   2.706  0.0699  0.2653  0.1447
  496SOL    HW1 1982   2.957   2.297   2.740  0.9292 -0.2363  0.1971
  496SOL    HW2 1983   2.985   2.444   2.704 -0.2910  0.5524  1.0782
  496SOL     MW 1984   2.928   2.380   2.710  0.1357  0.2370  0.2748
  497SOL     OW 1985   1.644   2.209   2.603  0.1944 -0.1804  0.1164
  497SOL    HW1 1986   1.561   2.191   2.562 -1.0557 -1.4220  2.0267
  497SOL    HW2 1987   1.638   2.154   2.680  0.5172 -0.3396  1.5234
  497SOL     MW 1988   1.632   2.199   2.607  0.0721 -0.3652  0.5541
  498SOL     OW 1989   1.445   2.715   2.333  0.0437  0.0260  0.9310
  498SOL    HW1 1990   1.436   2.617   2.346  0.1769  2.3702  0.3065
  498SOL    HW2 1991   1.544   2.726   2.333  0.5571  0.9579 -0.8400
  498SOL     MW 1992   1.457   2.704   2.335  0.1290  0.4582  0.6149
  499SOL     OW 1993   0.996   0.148   3.080  0.1965 -0.4035 -0.2423
  499SOL    HW1 1994   0.913   0.196   3.122 -0.4074  1.2802  3.3216
  499SOL    HW2 1995   1.022   0.084   3.149  0.4316  3.8986  0.8618
  499SOL     MW 1996   0.988   0.146   3.095  0.1478  0.3862  0.3736
  500SOL     OW 1997   1.097   2.520   2.794 -0.0500 -0.2810 -1.0003
  500SOL    HW1 1998   1.136   2.478   2.876  0.6836  0.5002  0.4776
  500SOL    HW2 1999   1.001   2.519   2.814  0.3464 -0.2553 -1.1274
  500SOL     MW 2000   1.089   2.514   2.807  0.0991 -0.1745 -0.8220
  501SOL     OW 2001   1.806   2.218   3.067 -0.5726 -0.1208  0.3192
  501SOL    HW1 2002   1.782   2.301   3.114 -1.2510 -1.6430 -2.5695
  501SOL    HW2 2003   1.903   2.215   3.052  0.9713 -0.9828  0.0889
  501SOL     MW 2004   1.816   2.229   3.071 -0.4584 -0.4354 -0.0923
  502SOL     OW 2005   0.159   2.803   3.078 -0.0415 -0.3564  0.3212
  502SOL    HW1 2006   0.099   2.737   3.046  0.1160 -0.7519  0.1226
  502SOL    HW2 2007   0.187   2.835   2.990 -3.1300 -0.8789  1.8654
  502SOL     MW 2008   0.155   2.799   3.062 -0.4282 -0.4775  0.4988
  503SOL     OW 2009   1.050   2.784   2.173 -0.4474  0.3730  0.3644
  503SOL    HW1 2010   1.034   2.724   2.095  2.1387 -1.4399  0.1648
  503SOL    HW2 2011   1.015   2.862   2.129 -2.8501  2.1205 -0.6060
  503SOL     MW 2012   1.043   2.786   2.157 -0.4232  0.3644  0.2100
  504SOL     OW 2013   0.075   2.674   2.111 -0.1981 -0.1369 -0.0699
  504SOL    HW1 2014   0.129   2.597   2.082  0.0044 -0.9145  2.1311
  504SOL    HW2 2015   0.059   2.643   2.198 -0.1433  1.0573 -3.0721
  504SOL     MW 2016   0.080   2.660   2.119 -0.1642 -0.0820 -0.1756
  505SOL     OW 2017   1.697   2.691   2.691  0.1968  0.1047 -0.3519
  505SOL    HW1 2018   1.685   2.678   2.593 -1.2845  1.3970 -0.4961
  505SOL    HW2 2019   1.613   2.706   2.734 -0.5307 -3.8946 -1.1298
  505SOL     MW 2020   1.684   2.691   2.684 -0.0946 -0.2524 -0.4736
  506SOL     OW 2021   1.600   3.045   2.834  0.6412 -0.0738 -0.1752
  506SOL    HW1 2022   1.616   3.052   2.928  0.9594  1.0405 -0.1345
  506SOL    HW2 2023   1.685   3.030   2.786  1.8686 -0.6375  1.2786
  506SOL     MW 2024   1.614   3.044   2.840  0.8452 -0.0011  0.0220
  507SOL     OW 2025   0.866   2.740   2.857  0.4335 -0.2564  0.0302
  507SOL    HW1 2026   0.901   2.821   2.845 -1.2781 -4.0658 -0.2606
  507SOL    HW2 2027   0.782   2.754   2.904 -0.0743 -2.1367  0.7831
  507SOL     MW 2028   0.860   2.753   2.862  0.1407 -1.0071  0.0911
  508SOL     OW 2029   1.130   2.081   2.519  0.0158  0.2755  0.0810
  508SOL    HW1 2030   1.219   2.072   2.549 -1.0015 -2.0386  0.2033
  508SOL    HW2 2031   1.095   2.141   2.591 -0.8333 -0.0121 -1.4702
  508SOL     MW 2032   1.137   2.088   2.532 -0.2305 -0.0677 -0.1075
  509SOL     OW 2033   0.617   2.516   2.824 -1.1450  0.0644 -0.1265
  509SOL    HW1 2034   0.620   2.510   2.729  0.6145  1.1168 -1.0254
  509SOL    HW2 2035   0.534   2.493   2.854  0.7613 -0.9564  0.0049
  509SOL     MW 2036   0.606   2.512   2.815 -0.6613  0.0686 -0.2278
  510SOL     OW 2037   1.535   2.556   1.704 -0.2778 -0.2306  0.3210
  510SOL    HW1 2038   1.536   2.655   1.695 -0.7714 -0.3742 -0.6231
  510SOL    HW2 2039   1.490   2.552   1.789  1.2515 -0.8943 -1.6760
  510SOL     MW 2040   1.529   2.568   1.714 -0.1411 -0.3372 -0.0670
  511SOL     OW 2041   0.476   2.642   2.449 -0.4793  0.2257 -0.3826
  511SOL    HW1 2042   0.540   2.575   2.486 -3.8797 -0.0665  3.0280
  511SOL    HW2 2043   0.494   2.633   2.357  0.2572  0.2025  4.0491
  511SOL     MW 2044   0.487   2.632   2.442 -0.8308  0.1841  0.6521
  512SOL     OW 2045   1.049   2.010   2.856 -0.4864  0.2711  0.5038
  512SOL    HW1 2046   0.965   2.056   2.863 -0.9107 -0.0450  1.9533
  512SOL    HW2 2047   1.041   1.922   2.895 -0.6148 -0.0124 -0.5569
  512SOL     MW 2048   1.037   2.005   2.862 -0.5594  0.1920  0.5551
  513SOL     OW 2049   1.516   2.440   2.328 -0.4076 -0.4353  0.5357
  513SOL    HW1 2050   1.588   2.456   2.387  1.0250  1.2318  0.8770
  513SOL    HW2 2051   1.483   2.363   2.373  1.8109  1.7929  2.5727
  513SOL     MW 2052   1.521   2.432   2.342  0.0741  0.0787  0.8495
  514SOL     OW 2053   0.256   2.510   2.585 -0.4191 -0.6005 -0.1432
  514SOL    HW1 2054   0.322   2.561   2.537 -0.5954 -3.0156  1.6136
  514SOL    HW2 2055   0.277   2.512   2.679  1.5329  0.0874 -1.3881
  514SOL     MW 2056   0.268   2.517   2.591 -0.1848 -0.8284 -0.0757
  515SOL     OW 2057   1.064   2.085   1.795 -0.6136 -0.1441  0.6424
  515SOL    HW1 2058   1.009   2.159   1.794  1.2497  1.3030 -0.0702
  515SOL    HW2 2059   1.137   2.100   1.857 -1.2577 -1.7977 -0.7020
  515SOL     MW 2060   1.066   2.097   1.803 -0.4528 -0.1714  0.3710
  516SOL     OW 2061   1.460   2.487   3.038 -0.3096  0.3366 -0.0530
  516SOL    HW1 2062   1.501   2.460   2.951 -0.3801 -0.6241 -2.0948
  516SOL    HW2 2063   1.370   2.459   3.030  2.0947 -1.7851 -1.9742
  516SOL     MW 2064   1.454   2.480   3.025 -0.0017 -0.0701 -0.5759
  517SOL     OW 2065   0.613   2.428   2.153 -0.1908 -0.9679 -0.3063
  517SOL    HW1 2066   0.575   2.514   2.169  2.0658  1.8679 -0.2252
  517SOL    HW2 2067   0.535   2.381   2.119 -2.7443 -4.1059  1.2398
  517SOL     MW 2068   0.598   2.433   2.151 -0.2300 -1.0078 -0.0916
  518SOL     OW 2069   1.914   0.158   2.978  0.5728 -0.3616 -0.4278
  518SOL    HW1 2070   1.870   0.217   2.918 -0.3483  1.7233  1.1214
  518SOL    HW2 2071   1.847   0.134   3.043 -0.2203  1.8756 -2.3827
  518SOL     MW 2072   1.899   0.163   2.979  0.3466  0.2086 -0.4813
  519SOL     OW 2073   0.724   2.563   1.696 -0.0996  0.3441  0.4537
  519SOL    HW1 2074   0.700   2.476   1.707  0.3476  1.2019 -0.6327
  519SOL    HW2 2075   0.667   2.612   1.752  3.3984  1.8794 -1.4211
  519SOL     MW 2076   0.713   2.558   1.705  0.4210  0.6598  0.0630
  520SOL     OW 2077   1.282   2.148   2.934 -0.3664 -0.0405  0.1224
  520SOL    HW1 2078   1.225   2.106   2.868  0.3684 -0.8423  0.8985
  520SOL    HW2 2079   1.322   2.074   2.972 -0.1717  2.5515  2.0891
  520SOL     MW 2080   1.280   2.133   2.930 -0.2437  0.1957  0.4843
  521SOL     OW 2081   1.725   2.060   2.316  0.2744 -0.3596 -0.0220
  521SOL    HW1 2082   1.729   2.105   2.229 -1.8890 -0.2528  0.2344
  521SOL    HW2 2083   1.733   1.964   2.303 -0.1616  0.7255 -2.0863
  521SOL     MW 2084   1.726   2.053   2.303 -0.0686 -0.2023 -0.2605
  522SOL     OW 2085   2.850   2.548   2.163 -0.2086  0.1095 -0.2740
  522SOL    HW1 2086   2.929   2.515   2.208  0.9960 -0.6608  2.1733
  522SOL    HW2 2087   2.786   2.574   2.231 -1.4057  1.7424 -0.2759
  522SOL     MW 2088   2.852   2.547   2.178 -0.2076  0.2233  0.0486
  523SOL     OW 2089   0.863   1.513   2.127 -0.2852  0.0494 -0.0480
  523SOL    HW1 2090   0.859   1.601   2.094  0.5939 -2.0110 -1.2884
  523SOL    HW2 2091   0.932   1.472   2.074 -2.4006 -0.1508  1.9021
  523SOL     MW 2092   0.872   1.519   2.116 -0.4484 -0.2489  0.0457
  524SOL     OW 2093   0.845   2.429   2.892  1.1609  0.3603  0.0508
  524SOL    HW1 2094   0.759   2.464   2.860  1.4107 -0.8577  1.6309
  524SOL    HW2 2095   0.836   2.335   2.906  1.9413  1.7271  2.7051
  524SOL     MW 2096   0.832   2.421   2.889  1.2968  0.3799  0.6095
  525SOL     OW 2097   0.414   2.260   2.118  0.4649  0.1589 -0.3320
  525SOL    HW1 2098   0.344   2.229   2.172 -1.6315  0.8862 -0.6991
  525SOL    HW2 2099   0.425   2.196   2.043  1.2138 -0.8518  1.9178
  525SOL     MW 2100   0.406   2.248   2.115  0.2871  0.1215 -0.0836
  526SOL     OW 2101   0.697   2.088   1.989  0.2437  0.5251 -0.5204
  526SOL    HW1 2102   0.676   2.131   1.907  2.7964 -0.1216  0.9459
  526SOL    HW2 2103   0.685   2.161   2.053  1.3437 -0.6409 -0.2252
  526SOL     MW 2104   0.693   2.103   1.987  0.7256  0.2859 -0.2880
  527SOL     OW 2105   1.313   1.972   2.014 -0.1056 -0.1537  0.3197
  527SOL    HW1 2106   1.297   1.931   2.100  0.3700  0.4827  2.0569
  527SOL    HW2 2107   1.343   1.895   1.970  2.3615 -0.1920 -1.1825
  527SOL     MW 2108   1.315   1.956   2.019  0.2826 -0.0747  0.3507
  528SOL     OW 2109   0.627   2.870   2.916 -0.1712  0.4576  0.4913
  528SOL    HW1 2110   0.669   2.950   2.939 -0.3608 -1.7991  2.3046
  528SOL    HW2 2111   0.576   2.896   2.836  0.0361  2.6989 -0.1885
  528SOL     MW 2112   0.626   2.884   2.908 -0.1689  0.4556  0.6409
  529SOL     OW 2113   0.938   2.361   1.887 -0.4140 -0.2502 -0.3946
  529SOL    HW1 2114   0.991   2.360   1.972  0.7196  0.7743 -1.8783
  529SOL    HW2 2115   1.010   2.377   1.826 -1.7894 -3.8002  1.4692
  529SOL     MW 2116   0.955   2.363   1.890 -0.4459 -0.5834 -0.3444
  530SOL     OW 2117   1.196   2.412   3.009  0.7239 -0.3760  0.6381
  530SOL    HW1 2118   1.138   2.436   3.075  2.5813 -1.8849 -0.1852
  530SOL    HW2 2119   1.200   2.315   2.991 -0.2595 -0.4876 -1.8301
  530SOL     MW 2120   1.189   2.402   3.016  0.8392 -0.5898  0.2038
  531SOL     OW 2121   0.979   1.861   2.579  0.3240 -0.1065  0.1738
  531SOL    HW1 2122   1.037   1.940   2.567  0.1005 -0.7937 -0.9969
  531SOL    HW2 2123   0.960   1.855   2.666 -2.7803 -0.0685  1.1085
  531SOL     MW 2124   0.984   1.871   2.589 -0.1151 -0.1922  0.1426
  532SOL     OW 2125   1.726   0.329   2.829  0.2014  0.0929 -0.0637
  532SOL    HW1 2126   1.699   0.315   2.737  0.0556 -3.0146 -1.7487
  532SOL    HW2 2127   1.804   0.381   2.829  0.3517  3.9262 -0.4794
  532SOL     MW 2128   1.732   0.334   2.817  0.2020  0.1887 -0.3409
  533SOL     OW 2129   1.843   2.674   3.010 -0.0506  0.2857 -0.5444
  533SOL    HW1 2130   1.803   2.593   3.038 -2.1006 -1.3800  3.0050
  533SOL    HW2 2131   1.772   2.724   2.980  1.3933  0.6378  0.2996
  533SOL     MW 2132   1.829   2.670   3.010 -0.1306  0.1124  0.0352
  534SOL     OW 2133   1.766   2.432   2.514 -0.2309 -0.1484 -0.0665
  534SOL    HW1 2134   1.733   2.341   2.539  1.1395 -3.7467 -0.8938
  534SOL    HW2 2135   1.824   2.450   2.584 -2.7287 -0.9232  0.0307
  534SOL     MW 2136   1.769   2.422   2.526 -0.3797 -0.7254 -0.1628
  535SOL     OW 2137   1.912   2.399   1.910 -0.0108 -0.1143  0.3572
  535SOL    HW1 2138   1.863   2.425   1.828  1.2788  0.3238  1.0469
  535SOL    HW2 2139   2.001   2.381   1.876  0.0078 -0.8727  0.5141
  535SOL     MW 2140   1.917   2.400   1.895  0.1618 -0.1566  0.4689
  536SOL     OW 2141   0.563   1.808   2.057  0.4104 -0.1897  0.2483
  536SOL    HW1 2142   0.494   1.787   1.997  0.1117 -1.4165  1.5176
  536SOL    HW2 2143   0.603   1.893   2.026 -0.8675 -0.7649  0.4187
  536SOL     MW 2144   0.559   1.817   2.045  0.2024 -0.4275  0.4382
  537SOL     OW 2145   1.086   0.192   2.807  0.1913 -0.1466 -0.6587
  537SOL    HW1 2146   1.053   0.220   2.893 -2.3754 -1.0503 -0.2826
  537SOL    HW2 2147   1.065   0.267   2.752 -1.0147 -3.2789 -0.5010
  537SOL     MW 2148   1.079   0.205   2.811 -0.3065 -0.6791 -0.5883
  538SOL     OW 2149   1.440   0.053   3.065  0.5200 -0.3364  0.1244
  538SOL    HW1 2150   1.433   0.147   3.086  0.1984 -1.8242 -1.8119
  538SOL    HW2 2151   1.353   0.011   3.095 -1.4349  0.4437  0.2366
  538SOL     MW 2152   1.428   0.060   3.072  0.2196 -0.4298 -0.1163
  539SOL     OW 2153   0.723   2.808   2.570 -0.6692 -0.0833  0.1161
  539SOL    HW1 2154   0.809   2.851   2.561  2.2017 -0.9581  2.2740
  539SOL    HW2 2155   0.734   2.749   2.641  0.2035  2.1450 -0.4707
  539SOL     MW 2156   0.736   2.806   2.578 -0.1752  0.0953  0.3234
  540SOL     OW 2157   0.345   2.501   2.897 -0.0466  0.2670 -0.4145
  540SOL    HW1 2158   0.357   2.543   2.983 -2.0383 -0.9173  1.8870
  540SOL    HW2 2159   0.338   2.409   2.931 -1.4244 -1.9321  0.9951
  540SOL     MW 2160   0.346   2.494   2.913 -0.4912 -0.1794  0.0752
  541SOL     OW 2161   0.211   2.934   2.183 -0.2847 -0.4191 -0.2782
  541SOL    HW1 2162   0.207   2.866   2.114 -1.0355  1.3186 -4.2788
  541SOL    HW2 2163   0.229   2.887   2.269  0.6769 -1.4104  1.2747
  541SOL     MW 2164   0.213   2.919   2.185 -0.2569 -0.3206 -0.6012
  542SOL     OW 2165   1.036   2.273   2.689 -0.4720  0.0304  0.1740
  542SOL    HW1 2166   0.982   2.236   2.761 -2.7136 -0.0123 -0.6575
  542SOL    HW2 2167   1.083   2.350   2.728  0.1317 -0.5775  0.9786
  542SOL     MW 2168   1.035   2.278   2.704 -0.6881 -0.0554  0.1704
  543SOL     OW 2169   1.707   2.420   2.826 -0.4003 -0.2966  0.2675
  543SOL    HW1 2170   1.703   2.349   2.768 -0.4464 -0.3676  2.5571
  543SOL    HW2 2171   1.702   2.498   2.774 -0.3832  1.1380 -1.0553
  543SOL     MW 2172   1.706   2.421   2.811 -0.4042 -0.1167  0.3951
  544SOL     OW 2173   0.773   0.146   2.756  0.0540  0.3232 -0.4446
  544SOL    HW1 2174   0.682   0.188   2.747 -1.2853  1.5824  2.5395
  544SOL    HW2 2175   0.810   0.127   2.671 -0.0141 -0.0373 -1.0051
  544SOL     MW 2176   0.766   0.149   2.743 -0.1317  0.4418 -0.1248
  545SOL     OW 2177   1.442   2.172   2.346 -0.3733 -0.2487 -0.7511
  545SOL    HW1 2178   1.391   2.168   2.264  1.4309  0.5680 -1.2264
  545SOL    HW2 2179   1.527   2.120   2.333  1.3511 -3.6636  0.6900
  545SOL     MW 2180   1.446   2.165   2.334  0.0923 -0.5915 -0.6237
  546SOL     OW 2181   2.900   2.016   0.118 -0.2344  0.1078  0.0606
  546SOL    HW1 2182   2.883   2.087   0.059 -0.9811 -0.6243  1.8322
  546SOL    HW2 2183   2.993   1.995   0.100 -1.7490  0.4791 -0.9272
  546SOL     MW 2184   2.910   2.022   0.108 -0.5328  0.0602  0.1640
  547SOL     OW 2185   0.193   0.071   0.093  0.7806  0.0147  0.0727
  547SOL    HW1 2186   0.263   0.095   0.024 -0.5043 -1.2896 -1.5835
  547SOL    HW2 2187   0.130   0.014   0.049 -0.3243 -0.0149  1.2828
  547SOL     MW 2188   0.194   0.067   0.078  0.4653 -0.1613  0.0139
  548SOL     OW 2189   0.317   2.466   0.258 -0.1404 -0.6874 -0.6996
  548SOL    HW1 2190   0.313   2.534   0.187  0.1185 -0.6646  1.7847
  548SOL    HW2 2191   0.239   2.421   0.247 -0.8657  0.0876  0.7643
  548SOL     MW 2192   0.306   2.469   0.247 -0.2019 -0.5822 -0.1787
  549SOL     OW 2193   0.850   1.946   2.197 -0.1252  0.3447 -0.4578
  549SOL    HW1 2194   0.796   1.985   2.126  0.3309 -1.1851 -3.8338
  549SOL    HW2 2195   0.797   1.927   2.268  1.6764  1.8523  1.8728
  549SOL     MW 2196   0.836   1.949   2.197  0.1726  0.3418 -0.5957
  550SOL     OW 2197   1.819   1.721   2.544  0.9678  0.1907  0.0771
  550SOL    HW1 2198   1.829   1.753   2.455 -2.8127  2.1509 -2.0437
  550SOL    HW2 2199   1.809   1.796   2.602  1.8399  1.6862  0.7918
  550SOL     MW 2200   1.819   1.735   2.540  0.5841  0.6466 -0.1084
  551SOL     OW 2201   0.900   2.253   0.263 -0.3000 -0.4134  0.0666
  551SOL    HW1 2202   0.988   2.219   0.256 -3.1330  0.2575  1.0095
  551SOL    HW2 2203   0.858   2.182   0.206  0.2488 -1.9881 -1.1628
  551SOL     MW 2204   0.906   2.239   0.255 -0.6014 -0.5327  0.0288
  552SOL     OW 2205   1.757   1.791   2.268 -0.1172  0.3453 -0.0256
  552SOL    HW1 2206   1.667   1.757   2.260  2.7442 -2.0016 -1.5468
  552SOL    HW2 2207   1.806   1.757   2.186 -0.2176  0.2637 -4.1503
  552SOL     MW 2208   1.752   1.782   2.256  0.2471  0.0249 -0.7705
  553SOL     OW 2209   1.201   2.240   1.547 -0.7162  0.1004 -0.0056
  553SOL    HW1 2210   1.238   2.155   1.541  0.1801 -0.9879  0.3230
  553SOL    HW2 2211   1.280   2.295   1.527  1.4120  1.4891 -0.2243
  553SOL     MW 2212   1.217   2.236   1.544 -0.3172  0.1400  0.0089
  554SOL     OW 2213   0.484   2.918   2.706 -0.1575 -0.3766  0.4509
  554SOL    HW1 2214   0.469   2.990   2.647  1.9548 -2.2492  0.8417
  554SOL    HW2 2215   0.549   2.864   2.655 -1.4799  0.5553 -0.6547
  554SOL     MW 2216   0.490   2.920   2.692 -0.0532 -0.5007  0.3566
  555SOL     OW 2217   0.620   2.459   2.564 -0.3406  0.1736  1.2370
  555SOL    HW1 2218   0.561   2.388   2.583 -2.6100  1.5265 -0.9786
  555SOL    HW2 2219   0.715   2.438   2.543 -2.0266 -1.6838  1.6113
  555SOL     MW 2220   0.625   2.447   2.563 -0.8625  0.1070  0.9940
  556SOL     OW 2221   1.055   1.923   0.084  0.3693 -0.2192 -0.5550
  556SOL    HW1 2222   1.071   1.880   0.003  2.1333 -0.5035  2.6700
  556SOL    HW2 2223   1.145   1.928   0.120  1.8340  0.6136 -0.8943
  556SOL     MW 2224   1.069   1.918   0.078  0.7953 -0.1468 -0.1743
  557SOL     OW 2225   1.001   2.694   0.472  1.0629  0.6020 -0.3771
  557SOL    HW1 2226   1.058   2.636   0.416 -1.1422  1.6843 -1.8957
  557SOL    HW2 2227   0.988   2.777   0.419  0.2129 -2.8286 -1.2407
  557SOL     MW 2228   1.007   2.698   0.458  0.6598  0.2922 -0.6914
  558SOL     OW 2229   0.207   2.255   3.003 -0.6087 -0.4976  0.5263
  558SOL    HW1 2230   0.129   2.252   2.942 -1.0187  0.2402 -0.5993
  558SOL    HW2 2231   0.164   2.306   3.068  2.1730 -1.0639  0.4640
  558SOL     MW 2232   0.191   2.261   3.003 -0.2958 -0.4750  0.3695
  559SOL     OW 2233   1.055   2.376   2.181  0.0402  0.5742  0.2661
  559SOL    HW1 2234   1.146   2.396   2.184 -0.5756  0.6078  0.3709
  559SOL    HW2 2235   1.036   2.323   2.255  3.0460 -0.8813 -0.2831
  559SOL     MW 2236   1.065   2.372   2.191  0.3555  0.3866  0.2075
  560SOL     OW 2237   1.959   2.789   0.150  0.5030 -0.8489  0.1443
  560SOL    HW1 2238   2.025   2.841   0.107 -0.8190 -0.4565 -1.5137
  560SOL    HW2 2239   1.931   2.724   0.083  0.7741 -0.9200  1.0390
  560SOL     MW 2240   1.964   2.787   0.135  0.3643 -0.8065  0.0436
  561SOL     OW 2241   0.394   2.143   0.095  1.2212 -0.3419  0.0433
  561SOL    HW1 2242   0.345   2.167   0.012  0.6646 -1.1270 -1.9239
  561SOL    HW2 2243   0.453   2.215   0.123 -0.0237  1.4722  1.5571
  561SOL     MW 2244   0.395   2.156   0.087  0.9835 -0.2062 -0.0165
  562SOL     OW 2245   0.663   2.195   2.259 -0.0380  0.1186  0.3694
  562SOL    HW1 2246   0.648   2.284   2.231 -2.5743 -3.4167 -0.2996
  562SOL    HW2 2247   0.753   2.194   2.292  2.6845 -0.8838  1.2493
  562SOL     MW 2248   0.673   2.206   2.259 -0.0135 -0.4801  0.3972
  563SOL     OW 2249   1.211   0.416   0.521  0.2508 -0.3350  0.3099
  563SOL    HW1 2250   1.186   0.358   0.448  1.2413  1.9555 -1.2937
  563SOL    HW2 2251   1.188   0.379   0.607  0.5247  2.5265 -2.6443
  563SOL     MW 2252   1.205   0.404   0.523  0.4176  0.3447 -0.2915
  564SOL     OW 2253   1.056   2.605   2.382 -0.2132 -0.3344 -0.5704
  564SOL    HW1 2254   1.080   2.668   2.306  0.1817 -0.4262 -0.5619
  564SOL    HW2 2255   1.070   2.653   2.463 -2.3814  0.3552 -0.7634
  564SOL     MW 2256   1.061   2.619   2.383 -0.4471 -0.2555 -0.5948
  565SOL     OW 2257   2.757   2.830   2.549  0.1491 -0.0905 -0.3067
  565SOL    HW1 2258   2.796   2.903   2.504 -2.0288  1.4398  1.4822
  565SOL    HW2 2259   2.738   2.756   2.489  2.5732  2.4532 -0.2583
  565SOL     MW 2260   2.759   2.830   2.535  0.1816  0.4471 -0.0643
  566SOL     OW 2261   2.169   1.915   2.309  0.1530  0.3085 -0.5032
  566SOL    HW1 2262   2.195   1.918   2.218  0.8882  1.1418 -0.6430
  566SOL    HW2 2263   2.227   1.978   2.353  2.2448  0.8422  0.7195
  566SOL     MW 2264   2.180   1.924   2.303  0.5260  0.4889 -0.3603
  567SOL     OW 2265   1.205   3.021   0.021  0.2918  0.0300 -0.6855
  567SOL    HW1 2266   1.177   3.038   0.110 -1.6429 -3.6361 -0.9973
  567SOL    HW2 2267   1.233   2.929   0.018 -0.1370  1.3318  1.9791
  567SOL     MW 2268   1.205   3.011   0.033 -0.0201 -0.2819 -0.3751
  568SOL     OW 2269   1.633   2.087   2.862  0.2169  0.7724  0.2802
  568SOL    HW1 2270   1.676   2.147   2.919  1.5121 -1.9761  0.2647
  568SOL    HW2 2271   1.705   2.028   2.845 -1.2132  2.6878  1.8117
  568SOL     MW 2272   1.648   2.087   2.868  0.1991  0.6625  0.4802
  569SOL     OW 2273   0.122   2.301   2.452  0.2363 -0.2829 -0.0831
  569SOL    HW1 2274   0.051   2.338   2.401 -0.8959  0.2602 -0.1565
  569SOL    HW2 2275   0.176   2.377   2.483  0.5918 -1.7275  2.6301
  569SOL     MW 2276   0.120   2.316   2.450  0.1338 -0.4018  0.2652
  570SOL     OW 2277   1.488   0.363   0.531  0.2163  0.0034  0.1210
  570SOL    HW1 2278   1.397   0.377   0.516 -0.6480 -3.8908  0.1142
  570SOL    HW2 2279   1.507   0.403   0.614 -0.4955 -2.0132  1.6523
  570SOL     MW 2280   1.478   0.370   0.540  0.0083 -0.7765  0.3222
  571SOL     OW 2281   1.330   2.361   2.139 -0.1294  0.4088 -0.4188
  571SOL    HW1 2282   1.397   2.404   2.191 -1.2910  0.5063 -0.6451
  571SOL    HW2 2283   1.386   2.300   2.083  2.6571 -2.1409  0.3895
  571SOL     MW 2284   1.346   2.359   2.139  0.0850  0.0852 -0.3420
  572SOL     OW 2285   0.999   2.571   0.060  0.1929  0.0841  0.0341
  572SOL    HW1 2286   0.996   2.660   0.034  3.4088 -3.5408 -0.1527
  572SOL    HW2 2287   0.910   2.534   0.048 -0.6913 -2.6208 -0.2064
  572SOL     MW 2288   0.987   2.578   0.055  0.5005 -0.7511 -0.0223
  573SOL     OW 2289   1.171   2.272   0.219  0.0135 -0.0902  0.4144
  573SOL    HW1 2290   1.246   2.267   0.158  1.9153  3.1816 -0.5709
  573SOL    HW2 2291   1.171   2.359   0.255 -0.4994  0.3146 -1.0912
  573SOL     MW 2292   1.181   2.283   0.216  0.1968  0.3949  0.0857
  574SOL     OW 2293   1.151   2.541   0.305 -0.0289  0.0023  0.3441
  574SOL    HW1 2294   1.242   2.574   0.306  3.3382  2.3184  2.6649
  574SOL    HW2 2295   1.131   2.554   0.210  3.8652  0.8052  0.2363
  574SOL     MW 2296   1.161   2.547   0.293  0.9291  0.4138  0.6361
  575SOL     OW 2297   3.039   2.204   1.689  0.4270 -0.4486 -0.4696
  575SOL    HW1 2298   3.079   2.118   1.657  1.6961  0.6861  0.4462
  575SOL    HW2 2299   3.125   2.248   1.712  0.3785  0.1726 -2.2186
  575SOL     MW 2300   3.056   2.198   1.688  0.5880 -0.2169 -0.5796
  576SOL     OW 2301   2.841   1.840   2.020 -0.0969 -0.1469 -0.0471
  576SOL    HW1 2302   2.897   1.873   1.954  0.4960 -0.0398 -1.0682
  576SOL    HW2 2303   2.751   1.837   1.978 -2.6353 -0.1340  3.2696
  576SOL     MW 2304   2.837   1.844   2.006 -0.3536 -0.1310  0.2558
  577SOL     OW 2305   2.099   0.251   0.058 -0.1846 -0.7583 -0.6597
  577SOL    HW1 2306   2.042   0.229  -0.014  1.2302  0.8782  0.0970
  577SOL    HW2 2307   2.085   0.190   0.125 -0.8496  2.1604 -0.4614
  577SOL     MW 2308   2.090   0.240   0.057 -0.0857 -0.1573 -0.5337
  578SOL     OW 2309   1.976   2.084   2.409  0.4341  0.3793 -0.6003
  578SOL    HW1 2310   1.886   2.075   2.381  1.6637  0.8332  1.7389
  578SOL    HW2 2311   2.024   2.010   2.364  2.9213  4.3510 -0.2769
  578SOL     MW 2312   1.971   2.073   2.399  0.9245  0.9633 -0.2490
  579SOL     OW 2313   0.870   2.427   2.495  0.3996  0.0510 -0.3063
  579SOL    HW1 2314   0.922   2.398   2.574  3.3333 -0.0836  3.1202
  579SOL    HW2 2315   0.928   2.483   2.433  2.1277 -0.6224  0.1559
  579SOL     MW 2316   0.885   2.431   2.498  1.0146 -0.0556  0.2068
  580SOL     OW 2317   0.965   2.847   0.007  0.0875  0.0479 -0.2900
  580SOL    HW1 2318   1.053   2.857  -0.028  1.1647 -0.0509 -1.4028
  580SOL    HW2 2319   0.909   2.823  -0.068 -2.0333 -0.7152  0.7589
  580SOL     MW 2320   0.969   2.845  -0.008 -0.0502 -0.0658 -0.2984
  581SOL     OW 2321   1.153   2.431   1.744 -0.5799 -0.0854  0.5066
  581SOL    HW1 2322   1.231   2.461   1.792 -4.3027 -0.4746  0.9086
  581SOL    HW2 2323   1.179   2.346   1.704  1.2387 -1.7452 -1.9885
  581SOL     MW 2324   1.167   2.423   1.745 -0.8311 -0.3558  0.2305
  582SOL     OW 2325   0.028   2.871   2.737 -0.1289  0.5753  0.3354
  582SOL    HW1 2326  -0.019   2.958   2.722 -1.5217 -0.3180 -1.5777
  582SOL    HW2 2327   0.115   2.893   2.779  0.7506  1.1078 -1.7330
  582SOL     MW 2328   0.034   2.885   2.740 -0.1966  0.5277 -0.1899
  583SOL     OW 2329   2.006   2.435   2.678 -0.4818 -0.5948 -0.0537
  583SOL    HW1 2330   2.080   2.455   2.623 -1.6392  0.2062  2.9453
  583SOL    HW2 2331   2.013   2.342   2.690  1.5091 -0.2237  0.7207
  583SOL     MW 2332   2.017   2.425   2.672 -0.3718 -0.4402  0.4442
  584SOL     OW 2333   0.094   1.911   2.189  0.2388  0.0030 -0.1847
  584SOL    HW1 2334   0.093   1.846   2.266  0.3583 -0.4646  1.8709
  584SOL    HW2 2335   0.117   1.993   2.241 -0.2379  1.0037  0.8303
  584SOL     MW 2336   0.097   1.913   2.206  0.1917  0.0734  0.2205
  585SOL     OW 2337   1.575   2.654   0.140 -0.2323  0.1308  0.1909
  585SOL    HW1 2338   1.536   2.601   0.070 -1.2808  0.1606  3.6820
  585SOL    HW2 2339   1.513   2.667   0.213 -1.4553 -0.0212  1.5319
  585SOL     MW 2340   1.561   2.649   0.140 -0.5320  0.1147  0.8285
  586SOL     OW 2341   1.356   2.817   2.568 -0.2229  0.6046 -0.1639
  586SOL    HW1 2342   1.399   2.800   2.478 -0.6025 -0.2451  1.2608
  586SOL    HW2 2343   1.356   2.910   2.573  3.2320  1.2335 -0.1118
  586SOL     MW 2344   1.362   2.827   2.557  0.1829  0.5755  0.0309
  587SOL     OW 2345   1.362   1.475   2.189  0.0679  0.5387 -0.0569
  587SOL    HW1 2346   1.297   1.404   2.222 -0.2462  1.3425  1.7351
  587SOL    HW2 2347   1.416   1.436   2.122 -1.1975  0.7993 -0.4749
  587SOL     MW 2348   1.360   1.460   2.185 -0.1405  0.6792  0.1244
  588SOL     OW 2349   1.384   1.976   2.629  0.2346  0.3190 -0.0219
  588SOL    HW1 2350   1.381   1.878   2.644 -0.8200 -1.9491 -1.4799
  588SOL    HW2 2351   1.383   2.021   2.713  0.0800 -1.7197  1.4592
  588SOL     MW 2352   1.384   1.969   2.642  0.0750 -0.2493 -0.0188
  589SOL     OW 2353   1.416   1.984   0.043  0.1163  0.3390  0.4185
  589SOL    HW1 2354   1.415   2.080   0.058 -1.6213  1.2392  1.2328
  589SOL    HW2 2355   1.376   1.941   0.120  0.7388  0.0322 -0.7768
  589SOL     MW 2356   1.411   1.991   0.055 -0.0308  0.4173  0.3682
  590SOL     OW 2357   0.497   2.673   2.174  0.0771 -0.0241 -0.0178
  590SOL    HW1 2358   0.484   2.698   2.081 -0.2900  0.1541  0.1082
  590SOL    HW2 2359   0.556   2.738   2.214 -2.0064  1.8201 -2.0874
  590SOL     MW 2360   0.503   2.685   2.167 -0.2463  0.2428 -0.2743
  591SOL     OW 2361   2.274   0.700   0.063 -0.7915 -0.5723  0.3107
  591SOL    HW1 2362   2.191   0.684   0.104  2.3620 -1.2077  0.2261
  591SOL    HW2 2363   2.259   0.776   0.006  0.8263 -1.1849  1.4506
  591SOL     MW 2364   2.261   0.708   0.061 -0.1619 -0.7370  0.4499
  592SOL     OW 2365   1.711   2.936   0.803 -0.5455  0.5035  0.2432
  592SOL    HW1 2366   1.724   3.013   0.746 -0.0918  1.0381 -3.8739
  592SOL    HW2 2367   1.798   2.898   0.800 -1.8140  0.9244  0.0249
  592SOL     MW 2368   1.724   2.941   0.795 -0.6530  0.6296 -0.3288
  593SOL     OW 2369   1.979   0.675   0.794  0.3503  0.4167 -0.5440
  593SOL    HW1 2370   1.899   0.673   0.739  2.2567 -0.9685 -1.5456
  593SOL    HW2 2371   2.025   0.599   0.759  2.0130  1.3723 -0.9112
  593SOL     MW 2372   1.975   0.665   0.782  0.8212  0.3600 -0.7246
  594SOL     OW 2373   2.730   1.069   1.390 -0.9486 -0.1438  0.0216
  594SOL    HW1 2374   2.819   1.104   1.368 -0.2235 -3.8382 -1.0624
  594SOL    HW2 2375   2.703   1.051   1.301 -1.0500  2.5276 -0.3976
  594SOL     MW 2376   2.738   1.071   1.375 -0.8663 -0.2787 -0.1768
  595SOL     OW 2377   0.465   0.898   0.851  0.3500  0.0615  0.4443
  595SOL    HW1 2378   0.491   0.965   0.787 -1.9724 -0.2976  2.3502
  595SOL    HW2 2379   0.458   0.949   0.936 -0.3368 -1.5418  0.9197
  595SOL     MW 2380   0.468   0.914   0.854 -0.0470 -0.1975  0.7585
  596SOL     OW 2381   2.457   1.324   0.521 -0.1518  0.2463  0.0823
  596SOL    HW1 2382   2.508   1.397   0.483 -1.9793  2.4440  1.6884
  596SOL    HW2 2383   2.501   1.298   0.602  0.2517  1.6914  1.4991
  596SOL     MW 2384   2.470   1.330   0.527 -0.3397  0.7269  0.4812
  597SOL     OW 2385   2.195   0.645   1.572  0.6250  0.3247  0.0969
  597SOL    HW1 2386   2.217   0.596   1.650  0.8017 -1.1839  2.1621
  597SOL    HW2 2387   2.126   0.590   1.517 -3.6659 -2.3095 -0.0248
  597SOL     MW 2388   2.189   0.631   1.575  0.0822 -0.2219  0.3533
  598SOL     OW 2389   2.601   1.035   2.866 -0.1743  0.9423 -0.0958
  598SOL    HW1 2390   2.586   0.941   2.876  1.6347 -0.3425 -0.1929
  598SOL    HW2 2391   2.694   1.042   2.839 -0.2663 -0.5746 -1.6098
  598SOL     MW 2392   2.611   1.024   2.864  0.0523  0.5727 -0.3084
  599SOL     OW 2393   3.009   0.427   2.171  0.6000  0.0227  0.8001
  599SOL    HW1 2394   3.004   0.455   2.267 -0.1368  0.4205 -0.8411
  599SOL    HW2 2395   3.024   0.511   2.129  4.3927  1.2025  1.4032
  599SOL     MW 2396   3.010   0.442   2.178  1.0032  0.2308  0.6631
  600SOL     OW 2397   1.844   1.641   0.891  0.2763  0.2642 -0.5083
  600SOL    HW1 2398   1.908   1.692   0.944 -0.9963  1.3520  1.4330
  600SOL    HW2 2399   1.779   1.700   0.854  0.4664 -0.9355 -1.0271
  600SOL     MW 2400   1.844   1.656   0.893  0.1334  0.2494 -0.3206
  601SOL     OW 2401   2.531   0.694   0.813  0.3796  0.6640  0.1451
  601SOL    HW1 2402   2.507   0.674   0.904  0.5357  1.9637  1.5543
  601SOL    HW2 2403   2.461   0.643   0.759 -0.9134 -4.3433 -0.3533
  601SOL     MW 2404   2.519   0.685   0.818  0.2296  0.1748  0.2653
  602SOL     OW 2405   2.306   1.930   0.758  0.0110  0.1664  0.0159
  602SOL    HW1 2406   2.241   1.861   0.727 -3.0514  3.9658 -1.0420
  602SOL    HW2 2407   2.250   2.004   0.737  3.2401 -0.8040 -1.3254
  602SOL     MW 2408   2.290   1.931   0.751  0.0330  0.5396 -0.3007
  603SOL     OW 2409   2.956   1.374   1.976  0.1894  0.3733  0.1004
  603SOL    HW1 2410   2.977   1.422   2.054  0.0494  0.3578 -2.3442
  603SOL    HW2 2411   2.974   1.284   1.976 -2.3979 -0.2709 -2.4684
  603SOL     MW 2412   2.961   1.369   1.986 -0.1704  0.2863 -0.5611
  604SOL     OW 2413   2.006   1.403   0.407 -0.2552 -0.8514 -1.0316
  604SOL    HW1 2414   2.083   1.388   0.462 -0.3442 -0.9797  2.3475
  604SOL    HW2 2415   1.940   1.446   0.464 -0.9173 -0.2629  0.1659
  604SOL     MW 2416   2.008   1.407   0.421 -0.3543 -0.7907 -0.4278
  605SOL     OW 2417   2.459   1.440   0.838 -0.5789  0.5239 -0.5236
  605SOL    HW1 2418   2.445   1.511   0.778 -0.5870  2.0879 -1.5081
  605SOL    HW2 2419   2.515   1.375   0.796 -0.2839  1.2104  1.6127
  605SOL     MW 2420   2.465   1.441   0.825 -0.5411  0.8208 -0.3716
  606SOL     OW 2421   2.599   1.808   1.877  0.0363  0.2146 -0.2938
  606SOL    HW1 2422   2.515   1.774   1.912  0.1856 -1.8109  1.1578
  606SOL    HW2 2423   2.632   1.718   1.844 -0.5294  0.9764  0.8586
  606SOL     MW 2424   2.593   1.791   1.877 -0.0186  0.0479  0.0498
  607SOL     OW 2425   2.407   1.033   3.063  0.3769 -0.3412  0.3704
  607SOL    HW1 2426   2.466   1.100   3.033 -0.7705  1.5504  0.3150
  607SOL    HW2 2427   2.408   1.034   3.156  2.6216  0.8835 -1.8731
  607SOL     MW 2428   2.415   1.042   3.071  0.5217  0.0699  0.0671
  608SOL     OW 2429   1.857   0.228   0.529  0.0678 -0.6142 -0.2769
  608SOL    HW1 2430   1.839   0.265   0.437 -3.1563 -0.1938  2.4096
  608SOL    HW2 2431   1.799   0.141   0.534 -2.1801  0.8573  1.8781
  608SOL     MW 2432   1.847   0.221   0.518 -0.6542 -0.3646  0.3619
  609SOL     OW 2433   2.129   1.915   3.072 -0.0595 -0.4333  0.7553
  609SOL    HW1 2434   2.075   1.859   3.019  1.4652 -0.1651  1.6890
  609SOL    HW2 2435   2.110   1.882   3.158 -3.3652 -1.7433 -0.3591
  609SOL     MW 2436   2.119   1.903   3.076 -0.2945 -0.5707  0.7314
  610SOL     OW 2437   1.788   0.919   1.233  0.4454 -0.2346 -0.0162
  610SOL    HW1 2438   1.800   0.839   1.182 -0.2963 -0.5352 -1.4794
  610SOL    HW2 2439   1.692   0.929   1.250  1.7712  2.3115  2.4594
  610SOL     MW 2440   1.777   0.910   1.228  0.5225  0.0616  0.1174
  611SOL     OW 2441   2.507   1.633   0.627  0.0432 -0.3241  0.1232
  611SOL    HW1 2442   2.571   1.587   0.571 -2.6675 -2.2301 -0.8640
  611SOL    HW2 2443   2.453   1.695   0.573 -0.0440 -0.9427  0.3490
  611SOL     MW 2444   2.508   1.635   0.613 -0.3259 -0.6572  0.0228
  612SOL     OW 2445   2.952   2.966   0.326  0.5420 -0.0221 -0.1078
  612SOL    HW1 2446   2.952   2.975   0.423  1.2827 -2.5317 -4.1365
  612SOL    HW2 2447   3.021   2.898   0.316  0.3774 -0.1522 -0.8748
  612SOL     MW 2448   2.961   2.958   0.338  0.6180 -0.3704 -0.7406
  613SOL     OW 2449   1.526   1.132   1.008 -0.0191  0.5344  0.2170
  613SOL    HW1 2450   1.563   1.213   1.043 -1.1868 -0.0146  0.3047
  613SOL    HW2 2451   1.523   1.083   1.092  0.0877 -1.0327 -0.6454
  613SOL     MW 2452   1.530   1.136   1.024 -0.1591  0.2552  0.1148
  614SOL     OW 2453   2.035   0.480   1.417 -0.3926  0.0179 -0.7053
  614SOL    HW1 2454   2.045   0.423   1.492  1.0072  0.8510 -2.7456
  614SOL    HW2 2455   1.942   0.476   1.388 -0.8029 -2.5084 -1.6921
  614SOL     MW 2456   2.024   0.472   1.423 -0.2621 -0.2055 -1.1047
  615SOL     OW 2457   2.415   0.718   0.338 -0.2853  0.0383  0.4093
  615SOL    HW1 2458   2.490   0.653   0.348  0.3987  3.4426 -1.1710
  615SOL    HW2 2459   2.398   0.714   0.242 -0.8519 -2.1794 -3.2605
  615SOL     MW 2460   2.423   0.709   0.327 -0.2698  0.1949 -0.2834
  616SOL     OW 2461   2.498   0.431   1.604 -0.0605  0.1532 -0.1750
  616SOL    HW1 2462   2.590   0.412   1.583  0.0905 -0.6654 -1.7661
  616SOL    HW2 2463   2.473   0.496   1.534  3.2146  1.5703 -0.3830
  616SOL     MW 2464   2.507   0.437   1.592  0.3915  0.2322 -0.4124
  617SOL     OW 2465   2.870   0.574   1.866  0.0506 -0.2419  0.5289
  617SOL    HW1 2466   2.790   0.572   1.914  0.4952 -2.0871  0.6928
  617SOL    HW2 2467   2.878   0.490   1.826 -1.5203 -0.1950  0.8695
  617SOL     MW 2468   2.861   0.563   1.867 -0.0980 -0.4792  0.5954
  618SOL     OW 2469   2.762   0.282   2.013  0.1222 -0.3938 -0.4342
  618SOL    HW1 2470   2.741   0.375   2.014 -1.6179  1.6694  1.2423
  618SOL    HW2 2471   2.804   0.271   2.102  0.4153 -0.8369  0.2504
  618SOL     MW 2472   2.765   0.293   2.025 -0.0687 -0.1800 -0.1227
  619SOL     OW 2473   2.670   0.736   0.083  0.2517  0.2298 -0.3071
  619SOL    HW1 2474   2.726   0.812   0.109  0.5525 -2.1126 -0.2336
  619SOL    HW2 2475   2.657   0.684   0.165 -0.5858 -0.8682  0.3432
  619SOL     MW 2476   2.676   0.739   0.097  0.1809 -0.2241 -0.2116
  620SOL     OW 2477   2.223   1.071   0.926 -0.3334 -0.2268  0.1407
  620SOL    HW1 2478   2.294   1.021   0.883 -1.3922  0.2777 -1.7154
  620SOL    HW2 2479   2.147   1.035   0.887 -1.8227  2.2440  1.9376
  620SOL     MW 2480   2.222   1.060   0.915 -0.6696  0.1658  0.1329
  621SOL     OW 2481   1.465   2.205   1.958  0.0425  0.0250  0.1344
  621SOL    HW1 2482   1.420   2.118   1.980 -0.1554 -1.8127 -1.3687
  621SOL    HW2 2483   1.562   2.202   1.989  0.9983  0.6770  0.2539
  621SOL     MW 2484   1.472   2.193   1.965  0.1425 -0.1314 -0.0481
  622SOL     OW 2485   2.665   0.249   0.274 -0.0724 -0.1265 -0.0263
  622SOL    HW1 2486   2.756   0.286   0.272  3.3324 -0.3468  3.3184
  622SOL    HW2 2487   2.672   0.153   0.273 -0.4236  0.5865 -0.2028
  622SOL     MW 2488   2.678   0.241   0.273  0.3305 -0.0615  0.3917
  623SOL     OW 2489   2.415   2.754   0.883 -0.1004  0.1486  0.2074
  623SOL    HW1 2490   2.476   2.825   0.887 -1.5841 -1.1694  0.0881
  623SOL    HW2 2491   2.353   2.778   0.960 -1.2682  2.2713 -0.6841
  623SOL     MW 2492   2.415   2.767   0.894 -0.4503  0.2547  0.0740
  624SOL     OW 2493   2.155   1.586   3.040  0.4114 -0.1999 -0.0391
  624SOL    HW1 2494   2.083   1.517   3.042 -1.5107 -2.5491 -1.3030
  624SOL    HW2 2495   2.118   1.646   2.981 -1.2519 -1.4436  2.7161
  624SOL     MW 2496   2.141   1.585   3.032 -0.0616 -0.6740  0.1576
  625SOL     OW 2497   2.225   1.919   1.056 -0.3603 -0.7363 -0.4498
  625SOL    HW1 2498   2.254   1.836   1.091 -0.7444  2.1516 -0.9458
  625SOL    HW2 2499   2.239   1.912   0.963  0.7757  1.6124  0.7995
  625SOL     MW 2500   2.231   1.907   1.049 -0.2611 -0.0454 -0.3504
  626SOL     OW 2501   0.120   1.788   2.444  0.0512 -0.0080  0.3626
  626SOL    HW1 2502   0.120   1.712   2.494 -1.7043  0.0688  1.0551
  626SOL    HW2 2503   0.066   1.851   2.489  1.2951 -1.0715 -0.0896
  626SOL     MW 2504   0.112   1.786   2.457 -0.0163 -0.1382  0.3943
  627SOL     OW 2505   2.508   0.828   2.576  0.2724 -0.0655 -0.5408
  627SOL    HW1 2506   2.427   0.881   2.596  1.4705  2.3939  2.4002
  627SOL    HW2 2507   2.498   0.805   2.483 -0.9321  1.7747 -0.3698
  627SOL     MW 2508   2.496   0.832   2.567  0.2716  0.5018 -0.1302
  628SOL     OW 2509   2.268   1.367   1.320  0.5834 -0.2261 -0.4000
  628SOL    HW1 2510   2.241   1.298   1.264  0.8735  1.7212  1.9003
  628SOL    HW2 2511   2.359   1.385   1.302  0.5061 -2.0850  0.3365
  628SOL     MW 2512   2.276   1.361   1.310  0.6115 -0.2144  0.0007
  629SOL     OW 2513   1.767   0.566   1.312  0.1434  0.4753  0.0951
  629SOL    HW1 2514   1.808   0.591   1.232 -2.4980 -0.1634 -0.7704
  629SOL    HW2 2515   1.674   0.541   1.295  0.5234 -0.3042  3.2518
  629SOL     MW 2516   1.760   0.566   1.299 -0.1550  0.2882  0.3974
  630SOL     OW 2517   2.412   1.869   3.017  0.0628  0.3639 -0.0737
  630SOL    HW1 2518   2.436   1.953   2.975  0.6584 -0.0268  1.5631
  630SOL    HW2 2519   2.318   1.865   3.040  0.0892 -1.2017  1.2746
  630SOL     MW 2520   2.403   1.880   3.015  0.1449  0.1058  0.3202
  631SOL     OW 2521   2.101   1.738   1.525  0.2444  0.9343 -0.2632
  631SOL    HW1 2522   2.082   1.675   1.593  1.4843  1.8702 -1.2279
  631SOL    HW2 2523   2.023   1.788   1.515 -0.6644 -0.8938 -2.6127
  631SOL     MW 2524   2.088   1.736   1.533  0.2881  0.8166 -0.7005
  632SOL     OW 2525   0.279   1.924   1.525 -0.4571 -0.2448  0.4613
  632SOL    HW1 2526   0.187   1.937   1.546  3.3209 -4.2814  0.1866
  632SOL    HW2 2527   0.277   1.830   1.502  1.2566  1.4915 -0.0069
  632SOL     MW 2528   0.266   1.913   1.524  0.2675 -0.5483  0.3633
  633SOL     OW 2529   2.627   0.540   0.377  0.0374  0.0578  0.7768
  633SOL    HW1 2530   2.684   0.562   0.449  1.3739 -0.7715 -1.6782
  633SOL    HW2 2531   2.623   0.442   0.371 -1.6110 -2.3385  0.3234
  633SOL     MW 2532   2.634   0.530   0.386 -0.0037 -0.3678  0.3931
  634SOL     OW 2533   2.644   3.088   0.639 -0.6795  0.6321  0.2121
  634SOL    HW1 2534   2.668   3.184   0.645  0.6535  0.5316 -0.0436
  634SOL    HW2 2535   2.578   3.082   0.569  0.0781 -1.4636 -1.1166
  634SOL     MW 2536   2.638   3.100   0.630 -0.4036  0.3423  0.0031
  635SOL     OW 2537   2.626   0.062   1.894  0.3476 -0.5627  0.5298
  635SOL    HW1 2538   2.673   0.031   1.811 -1.3737 -0.7494  1.0703
  635SOL    HW2 2539   2.671   0.138   1.932 -1.3446 -2.7255 -0.2935
  635SOL     MW 2540   2.638   0.068   1.888 -0.1028 -0.8727  0.4925
  636SOL     OW 2541   2.725   1.657   0.830  0.0162  0.7614 -0.6778
  636SOL    HW1 2542   2.650   1.684   0.783 -0.0463  1.1465 -1.6788
  636SOL    HW2 2543   2.724   1.712   0.910  2.3875 -0.1122 -0.3411
  636SOL     MW 2544   2.715   1.668   0.834  0.3208  0.6970 -0.7655
  637SOL     OW 2545   2.864   1.519   0.656 -0.1694 -0.7331  0.2192
  637SOL    HW1 2546   2.926   1.579   0.607  1.4344 -1.8176 -0.1797
  637SOL    HW2 2547   2.824   1.576   0.728 -1.8157  0.8894  1.1129
  637SOL     MW 2548   2.867   1.535   0.659 -0.1750 -0.6622  0.2845
  638SOL     OW 2549   2.795   0.487   0.608 -0.1385 -0.0674  0.6021
  638SOL    HW1 2550   2.869   0.535   0.568 -0.7422  0.0919  1.2494
  638SOL    HW2 2551   2.799   0.515   0.695  2.2231  0.4270 -0.9383
  638SOL     MW 2552   2.805   0.497   0.614  0.0934  0.0189  0.4843
  639SOL     OW 2553   1.735   3.079   0.557 -0.3766 -0.1327  0.1132
  639SOL    HW1 2554   1.643   3.057   0.555 -0.9555 -1.0442  2.2760
  639SOL    HW2 2555   1.779   3.000   0.534 -0.7518  1.6899 -1.5467
  639SOL     MW 2556   1.729   3.066   0.554 -0.5025 -0.0125  0.1795
  640SOL     OW 2557   0.333   1.373   0.109 -0.2838 -0.1411 -0.2938
  640SOL    HW1 2558   0.336   1.350   0.012 -0.8364 -0.1964 -2.5566
  640SOL    HW2 2559   0.334   1.283   0.155 -0.5392  1.8829  0.7664
  640SOL     MW 2560   0.333   1.358   0.102 -0.3904  0.1187 -0.4525
  641SOL     OW 2561   2.107   0.386   0.388  0.8679 -0.3567  0.2945
  641SOL    HW1 2562   2.166   0.322   0.356 -1.3093 -1.0172  2.2571
  641SOL    HW2 2563   2.028   0.334   0.415 -0.2756 -0.0157  1.4733
  641SOL     MW 2564   2.104   0.371   0.387  0.4297 -0.3988  0.7090
  642SOL     OW 2565   0.052   0.046   0.580  0.1221 -0.4841  0.1648
  642SOL    HW1 2566   0.012   0.137   0.563 -0.8606  1.0541  1.9228
  642SOL    HW2 2567  -0.032  -0.001   0.578  0.2311  2.1633 -3.8591
  642SOL     MW 2568   0.036   0.052   0.578  0.0068  0.0682 -0.1341
  643SOL     OW 2569   2.064   0.317   1.666  0.1459 -0.1335  0.3045
  643SOL    HW1 2570   1.986   0.291   1.715 -0.6574 -0.2303  1.4632
  643SOL    HW2 2571   2.079   0.249   1.603 -0.2206  1.5200 -0.4562
  643SOL     MW 2572   2.056   0.305   1.664 -0.0084  0.0719  0.3570
  644SOL     OW 2573   2.673   1.899   1.002  0.2861 -0.1430  0.0556
  644SOL    HW1 2574   2.673   1.843   1.081  1.1280  0.6390 -0.6433
  644SOL    HW2 2575   2.579   1.901   0.974 -2.9230  1.2405  2.7694
  644SOL     MW 2576   2.660   1.892   1.008 -0.0262  0.1427  0.3214
  645SOL     OW 2577   2.791   0.862   0.687 -0.5396  0.1318  0.3239
  645SOL    HW1 2578   2.865   0.816   0.737 -1.4101 -1.9581 -0.0626
  645SOL    HW2 2579   2.717   0.815   0.726 -1.9496 -0.7983  2.9180
  645SOL     MW 2580   2.791   0.849   0.699 -0.8405 -0.2666  0.6152
  646SOL     OW 2581   0.156   2.270   0.817  0.6307 -0.4369  0.1268
  646SOL    HW1 2582   0.161   2.171   0.820 -1.6011 -1.0333 -2.7505
  646SOL    HW2 2583   0.092   2.283   0.745  1.4580 -0.2983  0.3391
  646SOL     MW 2584   0.149   2.259   0.808  0.4454 -0.4973 -0.2248
  647SOL     OW 2585   2.725   0.505   3.029  0.4040 -0.0307 -0.2559
  647SOL    HW1 2586   2.669   0.432   3.061 -2.9395 -0.6302  1.1006
  647SOL    HW2 2587   2.719   0.580   3.085 -1.3966  1.1489  0.4435
  647SOL     MW 2588   2.717   0.505   3.041 -0.2747  0.0458  0.0154
  648SOL     OW 2589   2.257   0.675   1.113  0.0605 -0.1335 -0.0756
  648SOL    HW1 2590   2.267   0.588   1.161  1.0664  1.4614 -1.8366
  648SOL    HW2 2591   2.185   0.717   1.158  1.0797  0.9735  2.0980
  648SOL     MW 2592   2.249   0.669   1.125  0.3277  0.2230 -0.0211
  649SOL     OW 2593   2.430   2.710   1.248  0.1002 -0.3814  0.3643
  649SOL    HW1 2594   2.511   2.763   1.264  1.4210 -1.3886 -0.1735
  649SOL    HW2 2595   2.455   2.621   1.233 -0.1214  1.0876  1.6475
  649SOL     MW 2596   2.444   2.705   1.248  0.2452 -0.3205  0.4626
  650SOL     OW 2597   2.762   0.228   0.641  0.1946  0.1637 -0.3561
  650SOL    HW1 2598   2.787   0.317   0.610 -0.2143 -0.3607 -0.5861
  650SOL    HW2 2599   2.843   0.182   0.638  1.2694  1.7655 -2.1163
  650SOL     MW 2600   2.776   0.234   0.637  0.2825  0.3059 -0.6187
  651SOL     OW 2601   3.071   0.451   1.004 -0.3868  0.3575  0.1175
  651SOL    HW1 2602   3.128   0.485   0.930  1.3401 -0.8693 -1.1634
  651SOL    HW2 2603   3.011   0.521   1.023 -2.4807 -3.6105 -1.2487
  651SOL     MW 2604   3.071   0.465   0.997 -0.4353 -0.3279 -0.2318
  652SOL     OW 2605   2.363   1.395   3.014 -0.1822  0.1648 -0.2653
  652SOL    HW1 2606   2.438   1.441   2.969 -0.6907  2.9528  0.8879
  652SOL    HW2 2607   2.295   1.463   3.005  1.1755 -0.4987  2.8424
  652SOL     MW 2608   2.364   1.410   3.007 -0.0702  0.4451  0.2969
  653SOL     OW 2609   1.859   0.359   0.282  0.1143 -0.4941 -0.3914
  653SOL    HW1 2610   1.839   0.293   0.210  1.2664 -0.2663  0.0498
  653SOL    HW2 2611   1.947   0.389   0.260 -1.2288 -1.1723 -1.0320
  653SOL     MW 2612   1.868   0.354   0.269  0.0891 -0.5535 -0.4177
  654SOL     OW 2613   2.465   0.953   0.780  0.5830 -0.0483  0.1441
  654SOL    HW1 2614   2.407   0.975   0.702  0.8645 -1.5695 -1.2189
  654SOL    HW2 2615   2.474   0.858   0.787  0.0891 -1.5012 -0.8836
  654SOL     MW 2616   2.458   0.943   0.771  0.5550 -0.4407 -0.1713
  655SOL     OW 2617   2.934   0.917   0.439  0.8754  0.1368 -0.7189
  655SOL    HW1 2618   2.904   0.978   0.504  0.6903  2.0814 -1.7401
  655SOL    HW2 2619   2.938   0.833   0.486 -1.2627  0.0406  1.3452
  655SOL     MW 2620   2.931   0.914   0.453  0.5689  0.3807 -0.5813
  656SOL     OW 2621   1.818   2.634   1.413  0.1830  0.1284 -0.2421
  656SOL    HW1 2622   1.838   2.721   1.378  1.2985  1.9961  1.6457
  656SOL    HW2 2623   1.880   2.571   1.372 -0.2036  0.7328 -0.0768
  656SOL     MW 2624   1.829   2.637   1.403  0.2791  0.4545  0.0288
  657SOL     OW 2625   0.072   1.814   1.247 -0.3474 -0.3678 -0.0835
  657SOL    HW1 2626   0.157   1.857   1.233  1.2357 -2.5762  0.3289
  657SOL    HW2 2627   0.075   1.776   1.336  0.5906  2.8712  0.7659
  657SOL     MW 2628   0.083   1.815   1.257 -0.0148 -0.2318  0.0830
  658SOL     OW 2629   2.722   1.341   0.244  0.4279  0.6029  0.3323
  658SOL    HW1 2630   2.660   1.277   0.290 -0.7704 -1.7712 -0.5303
  658SOL    HW2 2631   2.758   1.395   0.315  0.0799  0.3868 -2.2544
  658SOL     MW 2632   2.719   1.340   0.260  0.2239  0.2611 -0.1228
  659SOL     OW 2633   2.182   1.503   1.022  0.4253  0.0135  0.7165
  659SOL    HW1 2634   2.226   1.432   1.057 -0.8429 -1.5994  0.5149
  659SOL    HW2 2635   2.143   1.546   1.096 -3.3071 -2.1444 -1.9941
  659SOL     MW 2636   2.183   1.500   1.037 -0.2345 -0.4840  0.3322
  660SOL     OW 2637   2.085   1.505   1.676 -0.3376 -0.0341 -0.0586
  660SOL    HW1 2638   2.121   1.521   1.763  1.0024 -0.1191  1.4987
  660SOL    HW2 2639   1.997   1.469   1.690 -1.1359 -1.5108 -1.2779
  660SOL     MW 2640   2.078   1.502   1.689 -0.2661 -0.2402 -0.0140
  661SOL     OW 2641   2.403   0.986   0.236 -0.4989  0.3676 -0.0955
  661SOL    HW1 2642   2.467   1.053   0.261 -3.2409 -1.9897 -1.5017
  661SOL    HW2 2643   2.425   0.907   0.294  1.4429 -2.0376 -0.4517
  661SOL     MW 2644   2.415   0.984   0.247 -0.6045 -0.2608 -0.3280
  662SOL     OW 2645   2.573   2.975   0.898  0.2487 -0.4261  0.0084
  662SOL    HW1 2646   2.496   3.029   0.938  0.1984  3.1945  0.3918
  662SOL    HW2 2647   2.602   3.025   0.815  2.3286 -0.0133 -0.4849
  662SOL     MW 2648   2.567   2.989   0.892  0.5165  0.1061 -0.0061
  663SOL     OW 2649   2.675   1.511   0.466  0.3262 -0.3500 -0.2865
  663SOL    HW1 2650   2.679   1.587   0.402  1.0876  0.8556 -0.2103
  663SOL    HW2 2651   2.747   1.510   0.525 -1.2269 -0.2649  0.4389
  663SOL     MW 2652   2.685   1.521   0.465  0.2217 -0.1797 -0.1807
  664SOL     OW 2653   2.552   1.485   1.558 -0.3900  0.1603 -0.6085
  664SOL    HW1 2654   2.529   1.550   1.495  2.8631  1.8048 -2.5752
  664SOL    HW2 2655   2.480   1.438   1.596 -2.1317  0.1030 -0.5237
  664SOL     MW 2656   2.539   1.488   1.555 -0.1906  0.3697 -0.8568
  665SOL     OW 2657   2.839   0.802   2.099  0.3411  0.2108  0.0829
  665SOL    HW1 2658   2.805   0.856   2.025  1.3854  1.4786  0.1922
  665SOL    HW2 2659   2.926   0.770   2.069  0.0596  1.9651 -1.2512
  665SOL     MW 2660   2.846   0.805   2.085  0.4418  0.6096 -0.0787
  666SOL     OW 2661   2.757   3.020   1.680  0.1281 -0.0388 -0.1602
  666SOL    HW1 2662   2.774   3.040   1.590  1.1292  0.7750 -0.1622
  666SOL    HW2 2663   2.704   2.942   1.691 -0.8092 -0.1469 -1.8972
  666SOL     MW 2664   2.752   3.012   1.669  0.1365  0.0543 -0.3897
  667SOL     OW 2665   1.985   2.698   1.740  0.2775  0.2101 -0.0929
  667SOL    HW1 2666   2.015   2.658   1.824  1.1103 -3.9908 -1.6451
  667SOL    HW2 2667   2.063   2.755   1.716 -1.7359  1.5320 -0.9206
  667SOL     MW 2668   1.999   2.700   1.748  0.1217 -0.1698 -0.4069
  668SOL     OW 2669   2.760   0.574   0.867 -0.1069  0.2921 -0.2223
  668SOL    HW1 2670   2.796   0.601   0.956 -1.8821 -0.6598  4.6349
  668SOL    HW2 2671   2.684   0.629   0.854  2.6259  0.0526 -0.5963
  668SOL     MW 2672   2.755   0.584   0.877  0.0194  0.1349  0.3692
  669SOL     OW 2673   0.172   0.977   0.720  0.7985  0.0257  0.1821
  669SOL    HW1 2674   0.098   1.021   0.766  1.0522  0.0081 -0.8607
  669SOL    HW2 2675   0.258   0.985   0.760  2.0589  0.6483 -2.9108
  669SOL     MW 2676   0.174   0.984   0.731  0.9983  0.1055 -0.3635
  670SOL     OW 2677   2.910   0.339   0.221  0.1713  0.3662 -0.1271
  670SOL    HW1 2678   2.920   0.293   0.137 -1.1309 -0.0889 -1.8381
  670SOL    HW2 2679   2.927   0.432   0.204  2.2371 -0.5760  3.5969
  670SOL     MW 2680   2.914   0.345   0.208  0.2721  0.1819  0.1385
  671SOL     OW 2681   2.024   3.007   1.548 -0.4537 -0.3662 -0.2477
  671SOL    HW1 2682   1.979   2.974   1.470  2.0657  0.1555  0.0396
  671SOL    HW2 2683   1.953   3.041   1.607  0.8579 -1.3841  0.4458
  671SOL     MW 2684   2.008   3.007   1.546  0.0517 -0.4317 -0.1183
  672SOL     OW 2685   1.816   1.730   1.306  0.8128  0.2413  0.3544
  672SOL    HW1 2686   1.830   1.812   1.358 -3.2291 -0.5593 -0.9585
  672SOL    HW2 2687   1.861   1.736   1.222  0.2115  0.3457  2.0052
  672SOL     MW 2688   1.824   1.742   1.302  0.2002  0.1494  0.3990
  673SOL     OW 2689   2.754   1.110   0.596  0.3723  0.3672 -0.3722
  673SOL    HW1 2690   2.754   1.021   0.629  0.1486 -2.6152 -0.1678
  673SOL    HW2 2691   2.834   1.156   0.639  0.4211  4.4913  0.7145
  673SOL     MW 2692   2.765   1.104   0.606  0.3492  0.5178 -0.2019
  674SOL     OW 2693   2.490   0.031   1.218 -0.6741 -0.5524 -0.7657
  674SOL    HW1 2694   2.456   0.010   1.133  1.1171  0.1462  0.7441
  674SOL    HW2 2695   2.495  -0.050   1.264  0.9690 -0.0700 -1.2706
  674SOL     MW 2696   2.486   0.018   1.213 -0.2210 -0.3966 -0.6331
  675SOL     OW 2697   2.986   0.926   1.042 -0.1736 -0.1348 -0.3205
  675SOL    HW1 2698   3.061   0.926   1.100 -0.4970  1.6350  0.4514
  675SOL    HW2 2699   3.012   0.987   0.976  2.8836  1.8447  3.0100
  675SOL     MW 2700   2.999   0.934   1.041  0.1871  0.3599  0.2208
  676SOL     OW 2701   2.921   1.438   1.717  0.0195 -0.6704  0.3407
  676SOL    HW1 2702   2.860   1.378   1.671 -0.4986  3.1561  1.3277
  676SOL    HW2 2703   2.952   1.410   1.805  2.0236  1.5733  0.7752
  676SOL     MW 2704   2.917   1.426   1.723  0.2156  0.1305  0.5283
  677SOL     OW 2705   2.408   0.561   2.034 -0.0166  0.5950 -0.5020
  677SOL    HW1 2706   2.379   0.499   1.971  0.8262  2.7714  0.1331
  677SOL    HW2 2707   2.374   0.643   1.989 -1.9197  0.2715  1.6849
  677SOL     MW 2708   2.399   0.564   2.020 -0.1565  0.8395 -0.1296
  678SOL     OW 2709   2.413   1.634   0.266 -0.1845  0.1054 -0.1729
  678SOL    HW1 2710   2.316   1.635   0.262  0.4634  1.0524  1.0034
  678SOL    HW2 2711   2.434   1.559   0.201  0.7894 -0.5301  0.7393
  678SOL     MW 2712   2.403   1.624   0.257  0.0295  0.1465  0.1027
  679SOL     OW 2713   2.235   0.428   1.238 -0.2387 -0.5016  0.3882
  679SOL    HW1 2714   2.227   0.349   1.182 -0.4002 -0.3490 -0.9329
  679SOL    HW2 2715   2.159   0.430   1.297  1.1114  0.5707 -1.5766
  679SOL     MW 2716   2.224   0.418   1.238 -0.0818 -0.3400 -0.0454
  680SOL     OW 2717   2.371   0.115   1.472  0.7800 -0.4232  0.1842
  680SOL    HW1 2718   2.276   0.117   1.454  2.1080 -1.2499  1.8239
  680SOL    HW2 2719   2.415   0.117   1.394  0.5365  2.3716 -0.2572
  680SOL     MW 2720   2.364   0.115   1.460  0.9231 -0.1635  0.3423
  681SOL     OW 2721   0.214   0.583   1.503  0.0082  0.9125 -0.0273
  681SOL    HW1 2722   0.209   0.523   1.580 -1.5417 -2.6810  2.0822
  681SOL    HW2 2723   0.199   0.529   1.425  0.5051  4.3625 -0.8177
  681SOL     MW 2724   0.211   0.568   1.503 -0.1308  0.8935  0.1467
  682SOL     OW 2725   0.108   2.919   1.500 -0.5632  0.3431  0.4939
  682SOL    HW1 2726   0.181   2.971   1.541 -1.5875  0.4833 -0.4825
  682SOL    HW2 2727   0.032   2.919   1.552 -0.1881  1.7841 -0.7246
  682SOL     MW 2728   0.108   2.926   1.513 -0.6489  0.5517  0.2043
  683SOL     OW 2729   2.048   0.828   2.984  0.0054 -0.1693  0.5544
  683SOL    HW1 2730   2.008   0.764   3.044 -0.7201  3.4711 -1.2786
  683SOL    HW2 2731   2.005   0.906   3.022 -0.9391 -0.5671  0.4021
  683SOL     MW 2732   2.037   0.830   2.997 -0.2149  0.2585  0.2925
  684SOL     OW 2733   2.127   1.729   0.665 -0.4639 -0.0769 -0.4577
  684SOL    HW1 2734   2.126   1.711   0.571 -0.3325  0.1448  2.7147
  684SOL    HW2 2735   2.137   1.638   0.692  3.0125  2.1277 -0.6285
  684SOL     MW 2736   2.128   1.715   0.656  0.0121  0.2432 -0.0616
  685SOL     OW 2737   2.698   1.680   1.168 -0.3767  0.2846 -0.1946
  685SOL    HW1 2738   2.753   1.630   1.232 -0.3190  0.1244  1.3389
  685SOL    HW2 2739   2.639   1.608   1.138 -1.3702 -1.2644 -1.4343
  685SOL     MW 2740   2.698   1.664   1.172 -0.5002  0.0591 -0.1558
  686SOL     OW 2741   2.909   0.640   1.601 -0.2930 -0.3646  0.0515
  686SOL    HW1 2742   2.914   0.622   1.695  1.7687 -2.2141 -3.7012
  686SOL    HW2 2743   2.984   0.695   1.583  3.9149 -2.1133  0.0998
  686SOL     MW 2744   2.920   0.645   1.611  0.5342 -0.8393 -0.4372
  687SOL     OW 2745   2.166   0.171   1.141  0.2534  0.3310 -0.6979
  687SOL    HW1 2746   2.209   0.120   1.072  1.6341 -0.8818  1.7120
  687SOL    HW2 2747   2.076   0.198   1.108 -1.7554  1.2473 -2.2450
  687SOL     MW 2748   2.160   0.168   1.128  0.1705  0.2919 -0.5840
  688SOL     OW 2749   2.414   0.577   1.400  0.3768 -0.2563  0.8058
  688SOL    HW1 2750   2.384   0.502   1.348 -1.0048  0.6023 -0.8089
  688SOL    HW2 2751   2.338   0.614   1.452  3.2881  2.1571 -1.1102
  688SOL     MW 2752   2.400   0.572   1.400  0.5787  0.1754  0.3400
  689SOL     OW 2753   2.484   0.786   2.949  0.4063 -0.2001  0.6616
  689SOL    HW1 2754   2.459   0.860   3.000 -0.1342 -1.1504  0.4755
  689SOL    HW2 2755   2.541   0.732   3.004  0.7033  0.1522  0.1872
  689SOL     MW 2756   2.488   0.789   2.963  0.3742 -0.2790  0.5745
  690SOL     OW 2757   2.036   0.882   1.886  0.2612 -0.7511 -0.2246
  690SOL    HW1 2758   2.004   0.797   1.907  1.9173  0.2479 -1.3417
  690SOL    HW2 2759   2.057   0.876   1.793 -0.3373  0.1581  1.4782
  690SOL     MW 2760   2.035   0.870   1.877  0.4008 -0.4994 -0.1473
  691SOL     OW 2761   2.373   0.254   0.856 -0.6161  0.1582  0.2414
  691SOL    HW1 2762   2.462   0.281   0.900  2.5291  2.3791  1.5312
  691SOL    HW2 2763   2.314   0.328   0.866 -2.6633 -1.0489  0.0776
  691SOL     MW 2764   2.377   0.267   0.863 -0.4712  0.2920  0.3900
  692SOL     OW 2765   2.890   1.593   1.425 -0.0040  0.2554  0.1995
  692SOL    HW1 2766   2.892   1.557   1.516  1.1610 -0.3488 -0.1535
  692SOL    HW2 2767   2.914   1.684   1.435  1.4396 -0.3609  0.4281
  692SOL     MW 2768   2.894   1.600   1.439  0.3402  0.0943  0.1831
  693SOL     OW 2769   2.330   0.409   0.073  0.7572  0.0887 -0.4195
  693SOL    HW1 2770   2.244   0.385   0.040  3.2890  0.7887 -2.0396
  693SOL    HW2 2771   2.325   0.508   0.070  0.3346  0.9400  0.6984
  693SOL     MW 2772   2.318   0.419   0.068  1.0355  0.2934 -0.4858
  694SOL     OW 2773   1.877   1.150   1.094 -0.3173  0.7883  0.7278
  694SOL    HW1 2774   1.977   1.162   1.097  2.7130  1.3155  0.0980
  694SOL    HW2 2775   1.849   1.053   1.120 -2.6321 -1.2524 -1.3773
  694SOL     MW 2776   1.886   1.139   1.098 -0.2229  0.5886  0.3670
  695SOL     OW 2777   2.963   1.373   1.275 -0.0311  0.4622  0.0320
  695SOL    HW1 2778   2.938   1.371   1.187  2.7708 -0.4039 -0.6734
  695SOL    HW2 2779   2.965   1.466   1.307 -2.3801  0.7647 -0.3832
  695SOL     MW 2780   2.960   1.385   1.267  0.0286  0.3878 -0.1159
  696SOL     OW 2781   2.104   1.443   0.771 -0.3924  0.1274 -0.1814
  696SOL    HW1 2782   2.123   1.478   0.858 -0.5279  0.0024 -1.5972
  696SOL    HW2 2783   2.055   1.364   0.789  0.2402  0.5851 -1.9596
  696SOL     MW 2784   2.100   1.437   0.785 -0.3268  0.1713 -0.6028
  697SOL     OW 2785   2.911   1.015   2.275  0.8910  0.6978  0.3928
  697SOL    HW1 2786   2.849   1.087   2.266 -2.6300  2.7956 -1.7320
  697SOL    HW2 2787   2.880   0.947   2.209 -1.2622 -0.1964  1.5362
  697SOL     MW 2788   2.899   1.016   2.265  0.1423  0.8566  0.2633
  698SOL     OW 2789   2.558   0.283   3.094 -0.5496  0.4017 -0.5830
  698SOL    HW1 2790   2.473   0.321   3.123  0.3445  1.2325  1.0641
  698SOL    HW2 2791   2.613   0.253   3.170 -2.0421 -1.9066 -1.7284
  698SOL     MW 2792   2.554   0.284   3.108 -0.6285  0.2068 -0.5168
  699SOL     OW 2793   1.919   1.628   2.078 -0.6183 -0.2609  0.1514
  699SOL    HW1 2794   1.868   1.545   2.047 -4.4869  1.7178 -1.5160
  699SOL    HW2 2795   2.009   1.597   2.047  0.6089 -0.0803  0.2785
  699SOL     MW 2796   1.924   1.613   2.070 -0.9669  0.0240 -0.0518
  700SOL     OW 2797   2.705   0.836   1.569 -0.0670 -0.6049 -0.0786
  700SOL    HW1 2798   2.737   0.898   1.498  0.0591 -0.4484  0.1984
  700SOL    HW2 2799   2.746   0.753   1.546 -0.2460 -0.5592 -0.2771
  700SOL     MW 2800   2.715   0.833   1.556 -0.0740 -0.5782 -0.0683
  701SOL     OW 2801   1.677   1.170   2.516  0.1395 -0.1680  0.0433
  701SOL    HW1 2802   1.745   1.135   2.571 -0.8027  1.6919 -0.6542
  701SOL    HW2 2803   1.638   1.228   2.579  0.1977 -2.2290 -1.4700
  701SOL     MW 2804   1.681   1.173   2.531  0.0228 -0.1946 -0.2484
  702SOL     OW 2805   2.162   0.428   0.825 -0.1472 -0.3988 -0.1475
  702SOL    HW1 2806   2.140   0.358   0.764  1.5549  0.2758 -0.4193
  702SOL    HW2 2807   2.219   0.484   0.773 -0.9808 -1.2958 -0.3134
  702SOL     MW 2808   2.167   0.427   0.810 -0.0326 -0.4282 -0.2052
  703SOL     OW 2809   2.735   1.227   0.966  0.1781 -0.2073 -0.0892
  703SOL    HW1 2810   2.690   1.221   0.881 -1.2818  1.3255 -0.8168
  703SOL    HW2 2811   2.720   1.148   1.016 -0.1371 -0.9662 -0.3720
  703SOL     MW 2812   2.727   1.216   0.962 -0.0561 -0.1052 -0.2225
  704SOL     OW 2813   3.051   1.246   0.105 -0.1420 -0.7141 -0.4301
  704SOL    HW1 2814   2.956   1.236   0.073  0.4515 -0.1026  1.0232
  704SOL    HW2 2815   3.037   1.239   0.203  0.7033 -0.6708  0.2878
  704SOL     MW 2816   3.036   1.244   0.114  0.0478 -0.6277 -0.1437
  705SOL     OW 2817   2.110   1.577   1.272 -0.5485  0.0822  0.2181
  705SOL    HW1 2818   2.078   1.608   1.360  1.1773 -2.4061 -1.6169
  705SOL    HW2 2819   2.159   1.497   1.288 -2.2514  0.7547 -0.6974
  705SOL     MW 2820   2.112   1.570   1.286 -0.5455 -0.1574 -0.1448
  706SOL     OW 2821   2.961   1.261   0.675 -0.2221  0.3587  0.2178
  706SOL    HW1 2822   3.003   1.268   0.586  2.1587  1.1879 -0.7466
  706SOL    HW2 2823   2.921   1.349   0.686  2.5362 -1.0543  1.2063
  706SOL     MW 2824   2.961   1.273   0.665  0.4559  0.2817  0.2210
  707SOL     OW 2825   2.357   0.020   0.975  0.0190  0.8185 -0.2616
  707SOL    HW1 2826   2.380   0.108   0.930 -1.2502  1.7002  0.0534
  707SOL    HW2 2827   2.277  -0.014   0.921 -1.0841 -2.6644  2.7886
  707SOL     MW 2828   2.349   0.027   0.962 -0.2940  0.4753  0.1824
  708SOL     OW 2829   2.473   1.394   0.172 -0.5049  0.0671  0.1693
  708SOL    HW1 2830   2.565   1.367   0.173 -1.0890 -1.0958  0.3635
  708SOL    HW2 2831   2.436   1.359   0.089  1.2000 -0.4984 -1.4454
  708SOL     MW 2832   2.480   1.386   0.161 -0.3570 -0.1610 -0.0181
  709SOL     OW 2833   1.704   1.616   0.220  0.0494 -0.3605 -0.1955
  709SOL    HW1 2834   1.701   1.619   0.126  0.3030 -0.9292  0.0889
  709SOL    HW2 2835   1.632   1.557   0.258  0.4486 -1.6300  2.4298
  709SOL     MW 2836   1.694   1.609   0.213  0.1355 -0.6030  0.1884
  710SOL     OW 2837   2.136   1.187   1.151 -0.1936  0.0304 -0.3896
  710SOL    HW1 2838   2.166   1.141   1.071  1.9033  2.1619  1.1925
  710SOL    HW2 2839   2.148   1.115   1.209  0.8409  0.7564 -0.9486
  710SOL     MW 2840   2.141   1.171   1.148  0.2196  0.4074 -0.2546
  711SOL     OW 2841   2.374   0.167   1.790 -0.0550  0.5838 -0.4937
  711SOL    HW1 2842   2.457   0.124   1.807  0.1208 -0.8376  1.3989
  711SOL    HW2 2843   2.373   0.187   1.699  0.4223  3.6982  0.4716
  711SOL     MW 2844   2.385   0.164   1.780  0.0312  0.8072 -0.1166
  712SOL     OW 2845   1.910   0.632   3.085  0.0739 -0.0809  0.2778
  712SOL    HW1 2846   1.842   0.628   3.015 -2.2380 -0.7054  2.2994
  712SOL    HW2 2847   1.853   0.647   3.165  0.3945 -0.1643  2.5426
  712SOL     MW 2848   1.893   0.633   3.086 -0.1889 -0.1743  0.8433
  713SOL     OW 2849   2.541   0.705   1.077 -0.6238 -0.2403  0.0319
  713SOL    HW1 2850   2.569   0.640   1.139  4.5662  0.6274  1.1710
  713SOL    HW2 2851   2.456   0.737   1.113 -1.7461  0.5348  1.6401
  713SOL     MW 2852   2.534   0.701   1.090 -0.0871 -0.0235  0.3944
  714SOL     OW 2853   2.224   0.199   2.017  0.5678 -0.4695  0.2805
  714SOL    HW1 2854   2.272   0.138   2.071 -2.1173 -2.2606 -0.8801
  714SOL    HW2 2855   2.277   0.195   1.933  1.1980 -0.2848 -0.4816
  714SOL     MW 2856   2.238   0.191   2.013  0.2966 -0.6815  0.0268
  715SOL     OW 2857   1.813   2.048   1.760 -0.3008 -0.2747  0.5812
  715SOL    HW1 2858   1.899   2.080   1.738 -0.6808  3.3106 -0.2000
  715SOL    HW2 2859   1.819   1.959   1.805  0.3527 -0.3146 -2.1395
  715SOL     MW 2860   1.825   2.040   1.763 -0.2647  0.1931  0.1191
  716SOL     OW 2861   2.362   0.550   0.664  0.0637 -0.5818 -0.2835
  716SOL    HW1 2862   2.412   0.475   0.630  0.2493  0.5796 -0.5506
  716SOL    HW2 2863   2.294   0.577   0.592  1.6279  2.6064 -0.7127
  716SOL     MW 2864   2.360   0.544   0.650  0.2946 -0.0079 -0.3754
  717SOL     OW 2865   2.821   1.595   2.870 -0.2823 -0.9014 -0.0994
  717SOL    HW1 2866   2.889   1.606   2.939  1.4402 -1.2524 -1.5406
  717SOL    HW2 2867   2.770   1.670   2.905 -2.3433  0.3421  1.4284
  717SOL     MW 2868   2.823   1.607   2.884 -0.3269 -0.7837 -0.0880
  718SOL     OW 2869   2.655   1.366   1.306  0.1527 -0.2817  0.0151
  718SOL    HW1 2870   2.641   1.401   1.394 -0.3088  1.5913 -1.5133
  718SOL    HW2 2871   2.748   1.342   1.305 -1.8805 -2.3595  1.1315
  718SOL     MW 2872   2.666   1.367   1.318 -0.1764 -0.3087 -0.0393
  719SOL     OW 2873   2.214   1.270   0.584 -0.0172 -0.0566 -0.0419
  719SOL    HW1 2874   2.305   1.301   0.567  2.2621  0.0214 -1.6435
  719SOL    HW2 2875   2.192   1.338   0.658 -0.6462  3.3839  1.2611
  719SOL     MW 2876   2.223   1.283   0.591  0.2005  0.4076 -0.0813
  720SOL     OW 2877   2.794   1.198   0.032  0.5741  0.3242  0.2142
  720SOL    HW1 2878   2.752   1.116   0.063 -1.8878  1.2563 -0.1332
  720SOL    HW2 2879   2.768   1.255   0.106 -0.5201  0.0291 -1.2775
  720SOL     MW 2880   2.785   1.195   0.046  0.1049  0.4082 -0.0285
  721SOL     OW 2881   2.475   0.847   1.365 -0.2416 -0.0506 -0.4667
  721SOL    HW1 2882   2.469   0.756   1.373 -0.3833  2.1514 -1.6528
  721SOL    HW2 2883   2.549   0.877   1.426  1.7727  1.1828  0.8647
  721SOL     MW 2884   2.484   0.839   1.374  0.0055  0.4027 -0.4475
  722SOL     OW 2885   2.573   1.161   0.359  0.3970  0.0603  0.2339
  722SOL    HW1 2886   2.520   1.223   0.414 -0.2680 -2.4823 -2.8227
  722SOL    HW2 2887   2.640   1.117   0.418 -1.9986  0.0424 -1.9824
  722SOL     MW 2888   2.575   1.163   0.374 -0.0068 -0.2776 -0.4618
  723SOL     OW 2889   2.312   1.322   1.597 -0.2093 -0.0340  0.2520
  723SOL    HW1 2890   2.270   1.309   1.508  0.9316 -1.7006 -1.6030
  723SOL    HW2 2891   2.259   1.387   1.640  0.2603  0.7776  2.6686
  723SOL     MW 2892   2.300   1.329   1.591  0.0032 -0.1468  0.3261
  724SOL     OW 2893   2.486   0.314   0.605  0.1451  0.2585  0.1735
  724SOL    HW1 2894   2.434   0.259   0.667 -2.2965  0.4316  0.4938
  724SOL    HW2 2895   2.574   0.281   0.610 -1.6609 -1.8833  0.5789
  724SOL     MW 2896   2.491   0.302   0.614 -0.4153 -0.0012  0.2693
  725SOL     OW 2897   2.611   0.412   1.233  0.3647  0.0809  0.3030
  725SOL    HW1 2898   2.669   0.473   1.281  2.3847 -0.0631  1.7849
  725SOL    HW2 2899   2.604   0.340   1.296  0.3890 -0.8279  1.5184
  725SOL     MW 2900   2.618   0.411   1.247  0.6344 -0.0580  0.6589
  726SOL     OW 2901   2.527   2.520   0.499 -0.2119 -0.4851 -0.1649
  726SOL    HW1 2902   2.502   2.609   0.469  3.2503  0.3324 -1.1567
  726SOL    HW2 2903   2.511   2.524   0.592  0.1457  2.2029  0.5747
  726SOL     MW 2904   2.521   2.532   0.507  0.2921 -0.0226 -0.1982
  727SOL     OW 2905   2.838   0.328   1.749 -0.0084 -0.3838 -0.4718
  727SOL    HW1 2906   2.773   0.315   1.674 -1.0186 -1.0929  0.1501
  727SOL    HW2 2907   2.796   0.296   1.826 -0.0114  0.2885  0.7736
  727SOL     MW 2908   2.824   0.322   1.750 -0.1421 -0.3886 -0.2254
  728SOL     OW 2909   2.834   1.181   2.863 -0.2395  0.1472 -0.2832
  728SOL    HW1 2910   2.840   1.254   2.807  0.9555 -1.6483 -0.8695
  728SOL    HW2 2911   2.797   1.212   2.950 -1.5788  1.1233  0.3804
  728SOL     MW 2912   2.830   1.195   2.867 -0.2585  0.0391 -0.2730
  729SOL     OW 2913   2.493   1.475   1.135  0.3587  0.6278 -0.3954
  729SOL    HW1 2914   2.566   1.437   1.185 -2.3234 -0.9276  2.0185
  729SOL    HW2 2915   2.503   1.451   1.040  1.2196 -1.3304 -0.0103
  729SOL     MW 2916   2.504   1.467   1.129  0.1184  0.1642 -0.0261
  730SOL     OW 2917   2.209   1.173   0.262 -0.1269 -0.6791 -0.8482
  730SOL    HW1 2918   2.276   1.100   0.274 -0.3980  0.1057  1.9666
  730SOL    HW2 2919   2.253   1.257   0.271 -0.8096  2.2348  0.2492
  730SOL     MW 2920   2.224   1.174   0.265 -0.2527 -0.1911 -0.3320
  731SOL     OW 2921   2.760   2.096   2.866 -0.4424  0.5950  0.3218
  731SOL    HW1 2922   2.726   2.064   2.780 -0.4850 -0.5088  0.5788
  731SOL    HW2 2923   2.837   2.040   2.866 -1.2862 -1.1398 -1.4555
  731SOL     MW 2924   2.765   2.084   2.855 -0.5593  0.2205  0.1212
  732SOL     OW 2925   2.215   0.975   1.344  0.1274  0.0883  0.7535
  732SOL    HW1 2926   2.163   0.971   1.419 -1.0931  0.3659 -1.3102
  732SOL    HW2 2927   2.303   0.932   1.357 -0.6608 -5.1792  0.6300
  732SOL     MW 2928   2.220   0.969   1.355 -0.1376 -0.5700  0.4649
  733SOL     OW 2929   2.402   2.806   3.028  0.3417 -0.1462  0.3643
  733SOL    HW1 2930   2.323   2.852   3.060  0.3250  0.5687 -0.0823
  733SOL    HW2 2931   2.361   2.717   3.017 -1.3240  0.2283 -2.8996
  733SOL     MW 2932   2.386   2.800   3.031  0.1197 -0.0025 -0.1253
  734SOL     OW 2933   1.557   0.256   2.526  0.3958 -0.1958  0.2042
  734SOL    HW1 2934   1.505   0.231   2.604  1.8462 -0.1461  1.5077
  734SOL    HW2 2935   1.533   0.204   2.449 -0.4118 -0.8778  0.0229
  734SOL     MW 2936   1.547   0.246   2.526  0.4806 -0.2792  0.3523
  735SOL     OW 2937   2.993   0.949   2.676  0.3758  0.2890  0.8149
  735SOL    HW1 2938   2.974   0.852   2.656  2.2219 -1.1127  0.3138
  735SOL    HW2 2939   3.004   0.950   2.771 -0.8025 -0.7084  0.4105
  735SOL     MW 2940   2.992   0.936   2.686  0.4639 -0.0276  0.6954
  736SOL     OW 2941   0.114   0.601   2.602  0.6098  0.2215  0.3987
  736SOL    HW1 2942   0.113   0.662   2.524 -0.5354  0.9357 -0.2541
  736SOL    HW2 2943   0.134   0.514   2.562  0.3415 -1.0151  0.4131
  736SOL     MW 2944   0.117   0.598   2.586  0.4233  0.1526  0.3145
  737SOL     OW 2945   2.941   0.694   2.619  0.7000  0.2218 -0.4320
  737SOL    HW1 2946   2.893   0.648   2.547  1.2945 -1.6807 -2.2853
  737SOL    HW2 2947   3.029   0.656   2.616 -2.6365 -1.3329  0.7086
  737SOL     MW 2948   2.946   0.683   2.609  0.3382 -0.2343 -0.5261
  738SOL     OW 2949   0.186   0.552   1.880 -0.0447 -0.3276 -0.2247
  738SOL    HW1 2950   0.284   0.577   1.878  0.4871 -1.9930  0.9465
  738SOL    HW2 2951   0.174   0.499   1.800  0.5141 -1.7766 -0.0536
  738SOL     MW 2952   0.198   0.548   1.869  0.0992 -0.7385 -0.0476
  739SOL     OW 2953   2.459   0.999   2.091  0.2388 -0.1355 -0.4079
  739SOL    HW1 2954   2.390   0.961   2.033 -3.1806 -0.0315 -0.8935
  739SOL    HW2 2955   2.446   1.092   2.089  3.2543  0.5167  0.9628
  739SOL     MW 2956   2.448   1.006   2.083  0.1855 -0.0358 -0.2911
  740SOL     OW 2957   0.123   1.838   2.943  0.2693  0.5559  0.4201
  740SOL    HW1 2958   0.086   1.751   2.964  0.4890 -0.1038  1.3440
  740SOL    HW2 2959   0.213   1.842   2.981 -0.8146  2.8104 -0.5463
  740SOL     MW 2960   0.130   1.827   2.951  0.1553  0.7663  0.4145
  741SOL     OW 2961   2.252   1.205   2.708  0.8835 -0.4025  0.3537
  741SOL    HW1 2962   2.207   1.262   2.647 -1.1306 -1.0966  1.6016
  741SOL    HW2 2963   2.237   1.230   2.796 -1.1996 -0.8564 -1.5879
  741SOL     MW 2964   2.244   1.216   2.712  0.3429 -0.5539  0.2622
  742SOL     OW 2965   1.710   1.255   2.224 -0.1440 -0.0178 -0.5686
  742SOL    HW1 2966   1.621   1.221   2.204 -0.9434 -1.1490  1.1995
  742SOL    HW2 2967   1.719   1.222   2.311  1.8802  1.5999  0.3155
  742SOL     MW 2968   1.699   1.246   2.233  0.0176  0.0464 -0.2187
  743SOL     OW 2969   2.514   1.245   2.686  0.4427 -0.2917 -0.1465
  743SOL    HW1 2970   2.419   1.223   2.690  0.4549 -0.8244  0.3103
  743SOL    HW2 2971   2.533   1.157   2.720  1.7312  1.6661 -0.6905
  743SOL     MW 2972   2.504   1.230   2.691  0.6143 -0.1037 -0.1580
  744SOL     OW 2973   2.792   0.952   1.864 -0.1926 -0.1259 -0.0742
  744SOL    HW1 2974   2.706   1.002   1.858 -0.6143  2.0688 -0.7358
  744SOL    HW2 2975   2.766   0.884   1.803 -0.9122 -1.9382  2.2926
  744SOL     MW 2976   2.777   0.950   1.855 -0.3432 -0.0754  0.1508
  745SOL     OW 2977   1.698   0.476   2.476 -0.2774  0.6677 -0.4123
  745SOL    HW1 2978   1.708   0.504   2.384 -0.0615  1.5129  0.2270
  745SOL    HW2 2979   1.629   0.403   2.487 -0.1667  1.0684  1.1078
  745SOL     MW 2980   1.690   0.470   2.465 -0.2343  0.8321 -0.1274
  746SOL     OW 2981   1.580   1.440   1.645  0.4771 -0.3663 -0.6925
  746SOL    HW1 2982   1.663   1.402   1.628 -1.5409 -0.6204 -0.7200
  746SOL    HW2 2983   1.566   1.432   1.741  0.0499  0.6715 -0.8623
  746SOL     MW 2984   1.589   1.434   1.656  0.1544 -0.2629 -0.7185
  747SOL     OW 2985   2.591   1.138   1.821  0.3921  0.4724  0.2595
  747SOL    HW1 2986   2.499   1.113   1.812 -1.1035  3.7221 -1.1058
  747SOL    HW2 2987   2.606   1.172   1.910  0.8769  0.8936  0.1711
  747SOL     MW 2988   2.581   1.139   1.832  0.2587  0.9567  0.0677
  748SOL     OW 2989   0.084   0.014   1.908 -0.1883 -0.0962 -0.5882
  748SOL    HW1 2990   0.160   0.065   1.864  2.6553 -2.1421 -1.1975
  748SOL    HW2 2991   0.050   0.071   1.983 -0.2187  1.7525  0.6538
  748SOL     MW 2992   0.089   0.028   1.912  0.1829 -0.1222 -0.5047
  749SOL     OW 2993   2.473   0.610   2.733 -0.1159  0.1238  0.0770
  749SOL    HW1 2994   2.488   0.691   2.682 -2.0090  1.3413 -2.6364
  749SOL    HW2 2995   2.469   0.654   2.814 -2.0327  0.6022 -0.1851
  749SOL     MW 2996   2.475   0.626   2.737 -0.6186  0.3476 -0.3156
  750SOL     OW 2997   2.051   3.091   1.986  0.0052  0.0676  0.2239
  750SOL    HW1 2998   2.093   3.174   1.985  0.7657 -1.5902 -1.8180
  750SOL    HW2 2999   2.124   3.040   1.960  0.3275  0.9851  0.7517
  750SOL     MW 3000   2.066   3.095   1.983  0.1481 -0.0301  0.0241
  751SOL     OW 3001   0.113   0.397   2.421  0.2530 -0.9918  0.5166
  751SOL    HW1 3002   0.110   0.311   2.458 -0.2280 -1.3070  1.2531
  751SOL    HW2 3003   0.153   0.388   2.340 -0.8507 -0.0086  1.4332
  751SOL     MW 3004   0.118   0.385   2.415  0.0439 -0.9036  0.7347
  752SOL     OW 3005   2.100   0.747   2.734 -0.5653  0.1987 -0.0773
  752SOL    HW1 3006   2.160   0.812   2.693 -0.7849  1.5330 -1.4155
  752SOL    HW2 3007   2.098   0.769   2.827 -2.5304 -1.0731  0.1679
  752SOL     MW 3008   2.107   0.758   2.740 -0.8535  0.2070 -0.2215
  753SOL     OW 3009   2.898   0.228   2.431  0.0238 -0.2941 -0.4324
  753SOL    HW1 3010   2.848   0.150   2.401  1.1780  0.1462  1.6878
  753SOL    HW2 3011   2.861   0.310   2.407  1.2534 -2.4471  0.9538
  753SOL     MW 3012   2.886   0.228   2.424  0.3383 -0.5201  0.0302
  754SOL     OW 3013   2.236   2.988   2.591  0.1199  0.2268  0.0641
  754SOL    HW1 3014   2.269   2.951   2.509 -0.9053 -0.7131 -0.9149
  754SOL    HW2 3015   2.300   2.937   2.648 -3.2504 -1.0474 -2.4361
  754SOL     MW 3016   2.249   2.976   2.588 -0.4600 -0.0653 -0.3949
  755SOL     OW 3017   2.693   1.521   2.464  0.3545 -0.1524  0.3405
  755SOL    HW1 3018   2.682   1.441   2.513  0.7472  2.8766 -1.7550
  755SOL    HW2 3019   2.761   1.574   2.513 -0.7106  0.0831 -0.8229
  755SOL     MW 3020   2.701   1.518   2.477  0.2658  0.2783 -0.0895
  756SOL     OW 3021   2.163   1.211   3.006 -0.4289  0.8201  0.2204
  756SOL    HW1 3022   2.215   1.284   3.052  1.2804 -0.6874  0.9969
  756SOL    HW2 3023   2.229   1.146   3.000 -0.1415  0.7416  0.8575
  756SOL     MW 3024   2.178   1.212   3.011 -0.1655  0.6108  0.4069
  757SOL     OW 3025   2.097   0.895   1.611  0.4069 -0.5316 -0.5050
  757SOL    HW1 3026   2.141   0.809   1.601  1.5319 -1.6364 -0.0733
  757SOL    HW2 3027   2.008   0.886   1.561 -0.9042 -0.6513  1.4583
  757SOL     MW 3028   2.091   0.883   1.603  0.3823 -0.6932 -0.1890
  758SOL     OW 3029   2.238   1.827   2.605 -0.1702  0.5706  0.3640
  758SOL    HW1 3030   2.242   1.851   2.514 -0.6596  2.8258 -3.3588
  758SOL    HW2 3031   2.317   1.779   2.638 -0.8710 -1.5656 -0.6057
  758SOL     MW 3032   2.249   1.824   2.597 -0.3272  0.5863 -0.2551
  759SOL     OW 3033   1.564   1.350   2.690  0.2883 -0.2737  0.6470
  759SOL    HW1 3034   1.592   1.415   2.625  0.1180 -0.2052 -1.0299
  759SOL    HW2 3035   1.616   1.363   2.772  1.3719  0.2756 -0.4604
  759SOL     MW 3036   1.575   1.361   2.692  0.4088 -0.1922  0.2796
  760SOL     OW 3037   2.572   1.986   2.714 -0.2814 -0.0189  0.2807
  760SOL    HW1 3038   2.549   1.894   2.695 -2.6886  2.4160 -1.3975
  760SOL    HW2 3039   2.561   2.018   2.623 -1.7296 -0.9660 -3.4271
  760SOL     MW 3040   2.568   1.978   2.699 -0.7901  0.1774 -0.4299
  761SOL     OW 3041   2.154   0.330   2.441 -0.8964  0.2583  0.4577
  761SOL    HW1 3042   2.104   0.257   2.464  1.3085 -0.5139 -0.6350
  761SOL    HW2 3043   2.177   0.381   2.519 -2.6564  0.2215 -1.2522
  761SOL     MW 3044   2.151   0.328   2.455 -0.8377  0.1515  0.0879
  762SOL     OW 3045   3.099   0.181   2.107 -0.3678 -0.2276  0.0222
  762SOL    HW1 3046   3.107   0.119   2.182 -1.4717 -3.8678  1.6523
  762SOL    HW2 3047   3.081   0.267   2.137  1.8995 -2.1358 -0.6886
  762SOL     MW 3048   3.098   0.184   2.121 -0.2143 -0.9596  0.1435
  763SOL     OW 3049   2.348   1.005   2.328  0.0627  0.1353  0.3178
  763SOL    HW1 3050   2.399   0.968   2.249 -1.7304  2.9595 -1.5100
  763SOL    HW2 3051   2.399   1.086   2.361  0.2509  0.8035  1.2292
  763SOL     MW 3052   2.362   1.011   2.322 -0.1490  0.5961  0.1969
  764SOL     OW 3053   0.510   0.226   2.786  0.9591  0.3184  0.0779
  764SOL    HW1 3054   0.427   0.183   2.765 -2.0795 -0.6401  0.8478
  764SOL    HW2 3055   0.481   0.309   2.816 -0.1171  0.1528 -2.5885
  764SOL     MW 3056   0.495   0.231   2.787  0.4161  0.1701 -0.1723
  765SOL     OW 3057   2.743   3.088   2.357  0.2137 -0.0292  0.1723
  765SOL    HW1 3058   2.692   3.066   2.273  0.0601  3.3732 -0.5398
  765SOL    HW2 3059   2.806   3.014   2.353  0.0997  1.3374 -1.0272
  765SOL     MW 3060   2.745   3.075   2.345  0.1784  0.6001 -0.0799
  766SOL     OW 3061   1.863   2.964   2.162 -0.0200 -0.0247  0.2107
  766SOL    HW1 3062   1.923   3.007   2.107 -1.3328  1.5483 -0.1990
  766SOL    HW2 3063   1.801   2.916   2.105  0.6596 -0.1792  0.3239
  766SOL     MW 3064   1.863   2.964   2.148 -0.1036  0.1625  0.1716
  767SOL     OW 3065   2.671   0.559   2.034  0.6624 -0.0058  0.5437
  767SOL    HW1 3066   2.690   0.645   2.073 -0.4304 -1.1476  2.3716
  767SOL    HW2 3067   2.576   0.577   2.009  0.9441  1.0746  0.4931
  767SOL     MW 3068   2.661   0.573   2.036  0.5554 -0.0139  0.7782
  768SOL     OW 3069   3.093   1.611   2.972  0.0179 -0.0607 -0.7159
  768SOL    HW1 3070   3.125   1.560   3.054  0.5720 -0.7474  2.2710
  768SOL    HW2 3071   3.100   1.550   2.909  0.7671  1.7710 -0.8828
  768SOL     MW 3072   3.098   1.596   2.975  0.1899  0.0904 -0.3438
  769SOL     OW 3073   2.435   0.710   2.315  0.2774  0.1440  0.4463
  769SOL    HW1 3074   2.384   0.649   2.366 -0.0662  0.7088 -1.4512
  769SOL    HW2 3075   2.487   0.646   2.273 -1.2849  1.0244 -2.0466
  769SOL     MW 3076   2.435   0.693   2.316  0.0260  0.3347 -0.1330
  770SOL     OW 3077   0.056   1.579   2.616 -0.1811  0.2453 -0.1157
  770SOL    HW1 3078  -0.038   1.611   2.604  2.2333  0.9654  0.4678
  770SOL    HW2 3079   0.048   1.485   2.604 -0.0676 -1.9426  0.0187
  770SOL     MW 3080   0.042   1.571   2.613  0.1525  0.0516 -0.0210
  771SOL     OW 3081   3.079   0.651   2.027 -0.0308 -0.2751  0.2684
  771SOL    HW1 3082   3.008   0.650   1.965 -0.4100  1.6226  0.2646
  771SOL    HW2 3083   3.157   0.611   1.974  0.2538 -0.5568  3.1551
  771SOL     MW 3084   3.080   0.646   2.012 -0.0433 -0.0618  0.6488
  772SOL     OW 3085   0.015   3.087   2.313  0.8135 -0.0210 -0.2190
  772SOL    HW1 3086  -0.051   3.021   2.322  0.4593  0.3664 -2.3352
  772SOL    HW2 3087   0.087   3.047   2.258  1.3008 -3.7435 -0.2560
  772SOL     MW 3088   0.016   3.073   2.307  0.8311 -0.4610 -0.5031
  773SOL     OW 3089   2.404   2.855   2.751 -0.5686  0.1171  0.0823
  773SOL    HW1 3090   2.426   2.766   2.715  1.1874 -0.4989 -1.1018
  773SOL    HW2 3091   2.389   2.852   2.845  0.8995  2.4663 -1.8603
  773SOL     MW 3092   2.405   2.843   2.759 -0.1432  0.3458 -0.3303
  774SOL     OW 3093   2.311   1.102   1.725  0.1713  0.1194  0.0945
  774SOL    HW1 3094   2.314   1.180   1.659 -0.1399  1.6016  0.3100
  774SOL    HW2 3095   2.233   1.049   1.710  1.4135  2.8025  1.0934
  774SOL     MW 3096   2.301   1.105   1.714  0.2941  0.6690  0.2547
  775SOL     OW 3097   2.281   2.883   2.306  0.0740  0.1513  0.5409
  775SOL    HW1 3098   2.302   2.976   2.277 -0.4481  0.9136  0.8040
  775SOL    HW2 3099   2.342   2.816   2.272  0.7826  1.6556 -1.5805
  775SOL     MW 3100   2.292   2.887   2.298  0.0986  0.4504  0.2957
  776SOL     OW 3101   0.076   1.495   0.093 -0.2071  0.2382 -0.1921
  776SOL    HW1 3102   0.174   1.482   0.092 -1.9796 -0.3987 -0.5435
  776SOL    HW2 3103   0.035   1.410   0.117 -0.1577 -1.9927  2.8192
  776SOL     MW 3104   0.083   1.482   0.096 -0.4345 -0.1401  0.1589
  777SOL     OW 3105   2.943   1.156   1.735  0.4291 -0.7224 -0.1539
  777SOL    HW1 3106   2.871   1.185   1.678  1.7860  0.8127  1.2764
  777SOL    HW2 3107   2.906   1.085   1.785  0.2876  1.3526  0.7176
  777SOL     MW 3108   2.928   1.150   1.734  0.5894 -0.2461  0.1498
  778SOL     OW 3109   2.899   0.485   2.822  0.1420  0.3461  0.0274
  778SOL    HW1 3110   2.843   0.499   2.899  1.4773 -0.0100 -0.6452
  778SOL    HW2 3111   2.922   0.568   2.780 -3.6230 -0.3865  0.4192
  778SOL     MW 3112   2.895   0.498   2.827 -0.1786  0.2025 -0.0097
  779SOL     OW 3113   2.155   0.595   2.354  0.2302 -0.5752 -0.1706
  779SOL    HW1 3114   2.093   0.640   2.417 -2.1367 -0.0726  3.1092
  779SOL    HW2 3115   2.142   0.502   2.351  1.2892  2.4792 -2.6974
  779SOL     MW 3116   2.145   0.589   2.362  0.0576 -0.1059 -0.0713
  780SOL     OW 3117   0.255   0.128   2.800 -0.3286  0.3623  0.1401
  780SOL    HW1 3118   0.181   0.160   2.858  2.3283  0.1533  1.4584
  780SOL    HW2 3119   0.217   0.134   2.712  1.3308  2.4651 -0.6537
  780SOL     MW 3120   0.240   0.133   2.796  0.2409  0.6122  0.2093
  781SOL     OW 3121   3.058   1.288   2.516 -0.2506  0.1176  0.2222
  781SOL    HW1 3122   3.073   1.331   2.432  0.1900  1.0681  0.1395
  781SOL    HW2 3123   3.101   1.201   2.512  1.2115 -1.1424 -0.6683
  781SOL     MW 3124   3.066   1.282   2.505  0.0005  0.0767  0.0938
  782SOL     OW 3125   0.516   1.606   2.996  0.1735  0.6208  0.2580
  782SOL    HW1 3126   0.446   1.672   3.003  0.3053  1.1493 -2.2127
  782SOL    HW2 3127   0.505   1.548   3.078 -0.9148 -3.1597  1.8882
  782SOL     MW 3128   0.505   1.607   3.008  0.0473  0.1917  0.1471
  783SOL     OW 3129   2.808   0.494   2.460 -0.3517  0.5913  0.2659
  783SOL    HW1 3130   2.742   0.474   2.386  0.2990  0.5153  1.5224
  783SOL    HW2 3131   2.770   0.459   2.542  0.0839 -1.5362 -2.6271
  783SOL     MW 3132   2.794   0.487   2.461 -0.2084  0.3006  0.0500
  784SOL     OW 3133   0.241   0.907   2.900  0.0506  0.5767  0.1523
  784SOL    HW1 3134   0.192   0.975   2.960  0.4440 -0.1574 -2.1730
  784SOL    HW2 3135   0.240   0.951   2.816  0.2000  0.4569 -0.2295
  784SOL     MW 3136   0.234   0.922   2.897  0.1222  0.4640 -0.2049
  785SOL     OW 3137   0.442   0.510   2.146 -0.4099 -0.4324 -0.2062
  785SOL    HW1 3138   0.435   0.553   2.054 -0.8172 -0.1131  0.2747
  785SOL    HW2 3139   0.362   0.459   2.163 -1.2008  2.1915  0.5421
  785SOL     MW 3140   0.430   0.509   2.136 -0.5680 -0.0441 -0.0440
  786SOL     OW 3141   2.001   0.474   2.855 -0.1588 -0.3019 -0.2070
  786SOL    HW1 3142   2.021   0.541   2.911  0.7156 -3.0011 -1.1180
  786SOL    HW2 3143   2.073   0.478   2.798 -1.1696 -1.2998  2.2897
  786SOL     MW 3144   2.013   0.483   2.855 -0.1768 -0.7897  0.0022
  787SOL     OW 3145   2.432   0.116   2.888 -0.0065  0.1668 -0.2438
  787SOL    HW1 3146   2.496   0.056   2.841  0.2004  2.1554 -0.5715
  787SOL    HW2 3147   2.485   0.182   2.942 -2.0305  0.1540 -1.8411
  787SOL     MW 3148   2.447   0.117   2.889 -0.2462  0.4275 -0.4978
  788SOL     OW 3149   2.941   2.876   2.311  0.1265  0.7121 -0.6309
  788SOL    HW1 3150   2.951   2.832   2.226  2.4611 -2.2037 -2.3670
  788SOL    HW2 3151   3.011   2.837   2.366  0.3049  0.9113  2.6108
  788SOL     MW 3152   2.951   2.865   2.307  0.4581  0.3537 -0.4323
  789SOL     OW 3153   0.077   0.218   2.968 -0.0924 -0.2265  0.1799
  789SOL    HW1 3154   0.001   0.173   3.017  0.0892 -2.4293  0.6467
  789SOL    HW2 3155   0.058   0.308   2.986 -1.2496  0.5646 -0.4333
  789SOL     MW 3156   0.064   0.224   2.977 -0.2211 -0.4127  0.1606
  790SOL     OW 3157   0.023   1.004   2.442  0.0246  0.1287 -0.4688
  790SOL    HW1 3158  -0.023   0.988   2.524  1.3703 -3.4684 -0.8472
  790SOL    HW2 3159  -0.059   1.014   2.388 -0.5415  0.1144 -1.8141
  790SOL     MW 3160   0.006   1.003   2.446  0.1275 -0.3478 -0.6962
  791SOL     OW 3161   2.679   0.392   2.687  0.7136 -0.0658 -0.3576
  791SOL    HW1 3162   2.610   0.459   2.714  0.5296 -1.2130  0.6066
  791SOL    HW2 3163   2.753   0.409   2.745 -1.2957 -1.5791 -0.7569
  791SOL     MW 3164   2.680   0.404   2.698  0.4242 -0.4168 -0.2830
  792SOL     OW 3165   2.424   0.243   2.353  0.2059 -0.5317  0.1525
  792SOL    HW1 3166   2.349   0.296   2.382 -1.2723  0.9019  0.5470
  792SOL    HW2 3167   2.458   0.186   2.432  0.2956 -1.0294  0.8100
  792SOL     MW 3168   2.419   0.242   2.367  0.0227 -0.4082  0.2913
  793SOL     OW 3169   1.764   1.005   1.911 -0.5551  0.1501  0.0995
  793SOL    HW1 3170   1.743   1.029   1.821 -0.4209 -2.0787 -3.8764
  793SOL    HW2 3171   1.860   0.979   1.909  1.0999  0.9748  2.4117
  793SOL     MW 3172   1.774   1.005   1.899 -0.3190 -0.0352 -0.1200
  794SOL     OW 3173   1.412   2.243   0.090 -0.2734  0.1777  0.0105
  794SOL    HW1 3174   1.456   2.300   0.025  1.3874 -0.2373  1.3375
  794SOL    HW2 3175   1.454   2.268   0.171  1.1890  2.2863  0.9688
  794SOL     MW 3176   1.423   2.254   0.092  0.1386  0.4011  0.3120
  795SOL     OW 3177   2.228   0.943   2.577  0.0108 -0.3273  0.2620
  795SOL    HW1 3178   2.234   1.029   2.618  0.9034  1.0737 -0.1506
  795SOL    HW2 3179   2.253   0.951   2.487  1.0041 -1.3079  1.2222
  795SOL     MW 3180   2.232   0.955   2.570  0.2596 -0.2719  0.3342
  796SOL     OW 3181   0.341   0.695   2.735 -0.1494 -0.4085 -0.6636
  796SOL    HW1 3182   0.293   0.747   2.803  2.3223  0.1140  0.6513
  796SOL    HW2 3183   0.264   0.661   2.691  1.5287  1.3252  1.7830
  796SOL     MW 3184   0.325   0.697   2.738  0.3981 -0.1108 -0.1673
  797SOL     OW 3185   2.597   0.115   2.559 -0.4251 -0.4187  0.4697
  797SOL    HW1 3186   2.630   0.194   2.591 -1.0307  1.1046 -3.7306
  797SOL    HW2 3187   2.654   0.080   2.487 -0.5072 -1.8903  1.5369
  797SOL     MW 3188   2.609   0.121   2.553 -0.5158 -0.4119  0.0563
  798SOL     OW 3189   2.330   0.044   2.208  0.0684  0.5860 -0.1086
  798SOL    HW1 3190   2.354   0.128   2.259 -3.2094 -1.8452 -1.5405
  798SOL    HW2 3191   2.416   0.026   2.161  0.0512  1.6412 -1.1523
  798SOL     MW 3192   2.345   0.053   2.209 -0.3663  0.4044 -0.4352
  799SOL     OW 3193   2.459   2.927   0.193  0.4105 -0.3502 -0.1939
  799SOL    HW1 3194   2.464   2.837   0.169  2.4450  0.0760  0.5552
  799SOL    HW2 3195   2.395   2.971   0.136 -1.3138 -0.6854  0.2534
  799SOL     MW 3196   2.451   2.921   0.182  0.4515 -0.3382 -0.0361
  800SOL     OW 3197   1.866   3.065   1.773  0.0928  0.1892 -0.1645
  800SOL    HW1 3198   1.836   2.976   1.777  2.0546 -0.0957  0.8799
  800SOL    HW2 3199   1.926   3.072   1.847 -0.5637 -1.9329  1.1422
  800SOL     MW 3200   1.870   3.055   1.783  0.2650 -0.1284  0.1457
  801SOL     OW 3201   2.817   1.323   2.622  0.0502  0.1788 -0.1012
  801SOL    HW1 3202   2.780   1.230   2.616 -2.2292 -0.3337 -0.8151
  801SOL    HW2 3203   2.903   1.314   2.578  0.6519  1.7205  0.6917
  801SOL     MW 3204   2.824   1.310   2.616 -0.1712  0.3146 -0.0908
  802SOL     OW 3205   2.563   1.503   2.830  0.1294 -0.1387 -0.0375
  802SOL    HW1 3206   2.565   1.431   2.763  0.5476 -2.4825  0.1851
  802SOL    HW2 3207   2.663   1.522   2.842  4.8655  1.2706 -2.5485
  802SOL     MW 3208   2.576   1.496   2.822  0.8095 -0.2620 -0.3394
  803SOL     OW 3209   2.326   1.263   1.944  0.4145  0.1051 -0.4616
  803SOL    HW1 3210   2.250   1.238   1.996  1.4010  0.2901 -0.1408
  803SOL    HW2 3211   2.318   1.218   1.860 -0.4346  0.6376 -3.2206
  803SOL     MW 3212   2.315   1.253   1.940  0.4326  0.1998 -0.7833
  804SOL     OW 3213   2.301   0.069   0.024 -0.0442 -0.3420  0.0242
  804SOL    HW1 3214   2.241   0.140   0.035  0.8540 -0.3912 -1.5724
  804SOL    HW2 3215   2.343   0.076  -0.061  1.0484 -0.9870  1.1808
  804SOL     MW 3216   2.299   0.079   0.014  0.2185 -0.4336 -0.0338
  805SOL     OW 3217   2.719   1.044   2.572 -0.0047  0.0656 -0.5902
  805SOL    HW1 3218   2.666   0.964   2.562  1.2987 -2.7807 -1.1119
  805SOL    HW2 3219   2.803   1.012   2.599 -0.6229 -0.0861 -0.9731
  805SOL     MW 3220   2.723   1.030   2.574  0.0857 -0.3300 -0.7096
  806SOL     OW 3221   2.632   0.406   2.271  0.0917  0.1362 -0.2652
  806SOL    HW1 3222   2.545   0.357   2.285 -0.8420  0.3769  2.1691
  806SOL    HW2 3223   2.625   0.456   2.186  1.6727  1.7997  1.6297
  806SOL     MW 3224   2.619   0.406   2.262  0.1771  0.3874  0.3060
  807SOL     OW 3225   3.094   1.117   2.073  0.0080  0.6287 -0.8617
  807SOL    HW1 3226   3.152   1.041   2.055  1.3569  0.1634  0.2971
  807SOL    HW2 3227   3.036   1.078   2.141  1.6597 -2.3203  0.2939
  807SOL     MW 3228   3.094   1.101   2.080  0.4039  0.1782 -0.5563
  808SOL     OW 3229   2.608   3.038   2.771 -0.5454  0.5195 -0.3478
  808SOL    HW1 3230   2.559   2.959   2.756 -0.8736  0.5163 -0.5928
  808SOL    HW2 3231   2.612   3.081   2.686 -0.2616 -1.2048  2.8322
  808SOL     MW 3232   2.602   3.033   2.758 -0.5513  0.2916  0.0395
  809SOL     OW 3233   2.484   1.237   2.416 -0.1717  0.0600  0.0181
  809SOL    HW1 3234   2.524   1.218   2.510 -2.4147  0.7808  1.8076
  809SOL    HW2 3235   2.554   1.249   2.352  0.8133  0.1327  1.0840
  809SOL     MW 3236   2.498   1.236   2.420 -0.3377  0.1647  0.3948
  810SOL     OW 3237   2.191   1.191   2.187 -0.5479 -0.1896  0.2009
  810SOL    HW1 3238   2.241   1.127   2.245  1.4304 -0.3417  2.3377
  810SOL    HW2 3239   2.101   1.157   2.173 -0.2504  0.8277 -4.4308
  810SOL     MW 3240   2.185   1.178   2.193 -0.2477 -0.0754 -0.1283
  811SOL     OW 3241   1.522   0.104   2.282  0.4729 -0.6450 -0.2741
  811SOL    HW1 3242   1.584   0.040   2.314 -2.3649  2.7757 -0.2234
  811SOL    HW2 3243   1.545   0.089   2.183 -0.0232 -0.8825 -0.5007
  811SOL     MW 3244   1.533   0.094   2.273  0.0330 -0.2250 -0.2973
  812SOL     OW 3245   1.397   2.790   2.062 -0.6955  0.0494 -0.1110
  812SOL    HW1 3246   1.489   2.798   2.080  1.1094  1.9816 -2.9147
  812SOL    HW2 3247   1.375   2.751   2.147  2.7995  0.0649  1.2666
  812SOL     MW 3248   1.407   2.786   2.075  0.0038  0.3064 -0.2991
  813SOL     OW 3249   1.840   0.787   2.187 -0.2703  1.0401  0.3371
  813SOL    HW1 3250   1.821   0.700   2.215  0.3018  1.0894 -3.5903
  813SOL    HW2 3251   1.885   0.818   2.269 -0.9372 -0.0435 -0.0733
  813SOL     MW 3252   1.843   0.779   2.201 -0.2828  0.9036 -0.2352
  814SOL     OW 3253   2.743   1.266   1.597 -0.0058 -0.5985  0.2417
  814SOL    HW1 3254   2.668   1.240   1.659 -1.5736 -0.4979 -1.7138
  814SOL    HW2 3255   2.735   1.213   1.519  0.8262 -0.7031 -0.4796
  814SOL     MW 3256   2.732   1.256   1.595 -0.1029 -0.5991 -0.1115
  815SOL     OW 3257   2.475   1.683   2.368 -0.6519  0.0010 -0.6969
  815SOL    HW1 3258   2.400   1.620   2.359 -0.0830  1.4284  1.3944
  815SOL    HW2 3259   2.548   1.618   2.379 -2.0737 -0.1403  0.9655
  815SOL     MW 3260   2.475   1.666   2.368 -0.7644  0.1707 -0.2016
  816SOL     OW 3261   0.664   0.618   2.762 -0.3495 -0.2404  0.2593
  816SOL    HW1 3262   0.716   0.537   2.767  1.4898  2.0844  1.5695
  816SOL    HW2 3263   0.598   0.625   2.691 -0.6583 -0.3782 -2.5737
  816SOL     MW 3264   0.662   0.608   2.754 -0.1476  0.0482  0.0584
  817SOL     OW 3265   3.025   1.144   1.414  0.8407 -0.2379 -0.2528
  817SOL    HW1 3266   3.079   1.159   1.494 -0.7018 -1.6515 -0.5439
  817SOL    HW2 3267   3.022   1.231   1.365 -2.8435 -1.7669 -1.1239
  817SOL     MW 3268   3.032   1.158   1.418  0.1510 -0.6261 -0.4061
  818SOL     OW 3269   1.923   1.001   2.738  0.1887 -0.1727 -0.2707
  818SOL    HW1 3270   1.976   1.031   2.667 -0.9703 -1.0275 -1.8665
  818SOL    HW2 3271   1.948   0.907   2.743  2.7929 -1.8014  1.1768
  818SOL     MW 3272   1.933   0.992   2.729  0.3794 -0.5004 -0.2903
  819SOL     OW 3273   1.832   0.237   2.378 -0.2723 -0.2426 -0.6715
  819SOL    HW1 3274   1.804   0.325   2.391 -0.2289  1.5136 -3.2811
  819SOL    HW2 3275   1.873   0.204   2.461  0.2724 -1.8459  1.3129
  819SOL     MW 3276   1.834   0.244   2.391 -0.1947 -0.2224 -0.7540
  820SOL     OW 3277   2.498   1.719   2.649 -0.1025 -0.0408 -0.4050
  820SOL    HW1 3278   2.513   1.649   2.712  0.1808 -1.9103 -0.7814
  820SOL    HW2 3279   2.513   1.673   2.572  0.1427 -2.3782  0.0132
  820SOL     MW 3280   2.502   1.704   2.647 -0.0328 -0.5958 -0.3995
  821SOL     OW 3281   2.589   1.365   2.000 -0.1702 -0.1848 -0.0252
  821SOL    HW1 3282   2.617   1.418   1.928 -0.0965 -0.6959  0.3638
  821SOL    HW2 3283   2.499   1.342   1.985 -0.2959  1.1108 -1.4411
  821SOL     MW 3284   2.581   1.369   1.989 -0.1771 -0.0813 -0.1607
  822SOL     OW 3285   2.859   2.667   1.405  0.0120  0.0973 -0.3161
  822SOL    HW1 3286   2.838   2.660   1.502 -2.6304  1.1941 -0.1649
  822SOL    HW2 3287   2.813   2.743   1.370  2.1631  2.9167 -0.8667
  822SOL     MW 3288   2.850   2.676   1.413 -0.0528  0.6140 -0.3688
  823SOL     OW 3289   2.282   0.461   1.772 -0.2392 -0.0055 -0.5141
  823SOL    HW1 3290   2.358   0.435   1.718 -0.6278 -4.2278  0.2614
  823SOL    HW2 3291   2.216   0.406   1.735  0.5468 -0.0099 -2.2258
  823SOL     MW 3292   2.283   0.450   1.760 -0.1868 -0.5632 -0.6376
  824SOL     OW 3293   2.113   1.334   2.520  0.4548  0.3786 -0.0988
  824SOL    HW1 3294   2.184   1.362   2.451 -2.9085  1.1299  0.2097
  824SOL    HW2 3295   2.090   1.419   2.554  0.5303  1.5727 -1.7144
  824SOL     MW 3296   2.119   1.349   2.515  0.0210  0.6353 -0.2713
  825SOL     OW 3297   2.166   2.469   0.428  0.3923 -0.7436  0.4445
  825SOL    HW1 3298   2.249   2.466   0.371  2.8816 -0.5802  0.1295
  825SOL    HW2 3299   2.191   2.463   0.522  2.5726  0.8286 -0.5820
  825SOL     MW 3300   2.180   2.468   0.433  1.0084 -0.5146  0.2675
  826SOL     OW 3301   1.767   2.360   0.420 -0.5237 -0.4393 -0.9712
  826SOL    HW1 3302   1.774   2.293   0.485 -0.3371 -0.9238  0.6904
  826SOL    HW2 3303   1.782   2.442   0.473  0.0263 -0.2491  0.6577
  826SOL     MW 3304   1.770   2.362   0.436 -0.4265 -0.4781 -0.5371
  827SOL     OW 3305   1.955   2.263   0.899  0.0761  0.8152  0.4225
  827SOL    HW1 3306   1.895   2.241   0.829  0.9468 -2.0204  2.2933
  827SOL    HW2 3307   1.925   2.199   0.960  1.2067 -1.1742 -2.4728
  827SOL     MW 3308   1.943   2.252   0.898  0.3402  0.1786  0.2873
  828SOL     OW 3309   0.082   2.632   0.578  0.4781 -0.5467  0.0131
  828SOL    HW1 3310   0.175   2.650   0.556 -0.9142  2.8931  1.6410
  828SOL    HW2 3311   0.038   2.685   0.514 -0.1407  0.5811 -1.1039
  828SOL     MW 3312   0.089   2.642   0.567  0.2128  0.0560  0.0805
  829SOL     OW 3313   3.018   2.902   1.184  0.0232 -0.0959 -0.0134
  829SOL    HW1 3314   2.948   2.891   1.126  1.7048  0.8959  1.4872
  829SOL    HW2 3315   3.058   2.820   1.189 -2.2096  2.0935  0.4622
  829SOL     MW 3316   3.014   2.889   1.177 -0.0496  0.3238  0.2474
  830SOL     OW 3317   2.546   2.788   2.019 -0.0459 -0.3616 -0.5235
  830SOL    HW1 3318   2.475   2.808   1.967  1.2782  0.8666  1.6698
  830SOL    HW2 3319   2.606   2.761   1.948 -0.9694  1.0161 -3.6031
  830SOL     MW 3320   2.545   2.787   2.003  0.0069 -0.0178 -0.6404
  831SOL     OW 3321   2.499   2.447   1.177 -0.2823  0.2613 -0.4055
  831SOL    HW1 3322   2.460   2.382   1.229 -0.5190  0.7144  1.4283
  831SOL    HW2 3323   2.596   2.426   1.168  0.0439  0.9138  1.9966
  831SOL     MW 3324   2.507   2.436   1.182 -0.2705  0.4072  0.1534
  832SOL     OW 3325   2.427   2.117   1.820 -0.5027  0.2146  0.6383
  832SOL    HW1 3326   2.455   2.204   1.860  0.4995 -0.6433 -1.9433
  832SOL    HW2 3327   2.503   2.093   1.766  1.9190  0.3246  1.4443
  832SOL     MW 3328   2.441   2.125   1.818 -0.0509  0.1159  0.4040
  833SOL     OW 3329   1.704   2.603   0.899 -0.9328  0.2190  0.5923
  833SOL    HW1 3330   1.650   2.517   0.920  2.8890  1.3046 -1.7479
  833SOL    HW2 3331   1.656   2.677   0.938 -2.7721  1.2185 -3.4064
  833SOL     MW 3332   1.691   2.601   0.907 -0.6713  0.4941 -0.2440
  834SOL     OW 3333   2.272   2.359   0.650 -0.4718  0.1005  0.4026
  834SOL    HW1 3334   2.235   2.283   0.698 -1.7331  0.1556 -3.4030
  834SOL    HW2 3335   2.352   2.325   0.618 -1.6804  2.9455  0.5443
  834SOL     MW 3336   2.278   2.345   0.652 -0.7977  0.4832 -0.0808
  835SOL     OW 3337   1.794   2.562   0.651 -0.6479 -0.4018 -0.6789
  835SOL    HW1 3338   1.783   2.598   0.743 -2.9156  0.5406 -2.4467
  835SOL    HW2 3339   1.801   2.470   0.656 -0.1744  0.1451  1.7034
  835SOL     MW 3340   1.793   2.555   0.664 -0.8846 -0.2053 -0.5978
  836SOL     OW 3341   2.044   2.147   1.661 -0.2313 -0.3103  0.0023
  836SOL    HW1 3342   2.130   2.106   1.632 -1.1537 -3.0445  0.5932
  836SOL    HW2 3343   2.070   2.238   1.676  0.3878  0.0371  1.0090
  836SOL     MW 3344   2.059   2.154   1.659 -0.2713 -0.6252  0.2131
  837SOL     OW 3345   2.115   0.179   0.673  0.4041  0.1010 -0.1850
  837SOL    HW1 3346   2.029   0.201   0.641  3.3683  0.7834 -2.6852
  837SOL    HW2 3347   2.150   0.138   0.591 -2.9390  0.9769 -0.5853
  837SOL     MW 3348   2.108   0.177   0.658  0.3541  0.3066 -0.5677
  838SOL     OW 3349   2.869   2.095   0.937 -0.0481 -0.2830 -0.4461
  838SOL    HW1 3350   2.807   2.023   0.940 -1.8017 -0.0991  0.7479
  838SOL    HW2 3351   2.919   2.076   1.015  0.4984 -0.6186  0.0223
  838SOL     MW 3352   2.867   2.083   0.947 -0.2074 -0.3030 -0.2267
  839SOL     OW 3353   1.560   2.364   1.000  0.5428 -0.4866  0.4831
  839SOL    HW1 3354   1.529   2.436   1.069 -1.9339 -1.4629 -2.5129
  839SOL    HW2 3355   1.594   2.295   1.056  1.1683 -1.5075  3.7954
  839SOL     MW 3356   1.560   2.364   1.017  0.2985 -0.7501  0.5249
  840SOL     OW 3357   2.368   2.086   2.417  0.5028 -0.2819 -0.4355
  840SOL    HW1 3358   2.312   2.152   2.366 -1.4157  0.1265 -0.8636
  840SOL    HW2 3359   2.401   2.136   2.493  2.1805 -0.6967  1.0635
  840SOL     MW 3360   2.365   2.101   2.420  0.4710 -0.2828 -0.2942
  841SOL     OW 3361   2.320   2.398   0.067  0.3366 -0.1827  0.0285
  841SOL    HW1 3362   2.302   2.460  -0.010  0.6981  1.6809 -0.2386
  841SOL    HW2 3363   2.253   2.331   0.059  0.4665 -0.3698  1.6116
  841SOL     MW 3364   2.309   2.397   0.056  0.4014  0.0385  0.2021
  842SOL     OW 3365   2.692   1.966   1.403 -0.2007 -0.6089  0.1166
  842SOL    HW1 3366   2.642   1.889   1.428 -0.6327 -0.5427  0.6600
  842SOL    HW2 3367   2.656   2.004   1.316 -2.2421  1.0175 -1.7665
  842SOL     MW 3368   2.681   1.961   1.395 -0.5271 -0.3856 -0.0602
  843SOL     OW 3369   2.645   2.767   1.750 -0.4508  0.0131  0.0158
  843SOL    HW1 3370   2.735   2.734   1.765 -2.2747 -2.5544 -0.9179
  843SOL    HW2 3371   2.586   2.699   1.723 -0.7673  2.1810 -1.5859
  843SOL     MW 3372   2.649   2.754   1.748 -0.7332 -0.0396 -0.3187
  844SOL     OW 3373   2.742   2.338   1.150 -0.0590  0.2911 -0.2271
  844SOL    HW1 3374   2.755   2.369   1.061 -0.2116 -0.6059  1.4271
  844SOL    HW2 3375   2.792   2.383   1.212  0.7607 -2.3285 -0.2872
  844SOL     MW 3376   2.750   2.348   1.147  0.0290 -0.1728 -0.0168
  845SOL     OW 3377   2.834   2.574   0.284  0.4519 -0.4999 -0.2433
  845SOL    HW1 3378   2.805   2.485   0.318 -3.1386 -2.0177  0.6684
  845SOL    HW2 3379   2.837   2.636   0.360 -1.8901  0.1683 -1.5082
  845SOL     MW 3380   2.830   2.570   0.299 -0.3309 -0.6120 -0.2899
  846SOL     OW 3381   1.451   2.835   0.803 -0.5122  0.0729 -0.2622
  846SOL    HW1 3382   1.529   2.895   0.800  0.7192  1.5249 -0.9192
  846SOL    HW2 3383   1.395   2.873   0.869  0.2518  0.6235 -1.2907
  846SOL     MW 3384   1.454   2.848   0.812 -0.2489  0.3372 -0.4846
  847SOL     OW 3385   2.511   1.881   0.180  0.1167 -0.1628  0.4617
  847SOL    HW1 3386   2.498   1.787   0.219 -0.1210 -3.3137  2.6382
  847SOL    HW2 3387   2.500   1.874   0.084  0.1924 -0.5988  1.8467
  847SOL     MW 3388   2.508   1.868   0.173  0.0954 -0.6361  0.9316
  848SOL     OW 3389   2.590   2.101   1.186  0.4669 -0.0977  0.1079
  848SOL    HW1 3390   2.650   2.170   1.179  0.4364  0.1209  1.0815
  848SOL    HW2 3391   2.611   2.054   1.106  0.3321 -2.8327  0.8629
  848SOL     MW 3392   2.601   2.104   1.175  0.4451 -0.4297  0.3360
  849SOL     OW 3393   2.002   2.851   0.791 -0.3199  0.0084  0.4800
  849SOL    HW1 3394   1.974   2.802   0.873 -1.2661  0.4413 -0.0839
  849SOL    HW2 3395   2.071   2.801   0.750 -1.3383 -0.2524 -1.9020
  849SOL     MW 3396   2.007   2.838   0.796 -0.5791  0.0311  0.0913
  850SOL     OW 3397   2.346   1.828   1.647 -0.0213  0.5765  0.4124
  850SOL    HW1 3398   2.254   1.809   1.622 -0.8840 -2.1052 -2.7559
  850SOL    HW2 3399   2.356   1.920   1.664  0.2028  0.5765  1.6373
  850SOL     MW 3400   2.336   1.838   1.646 -0.1056  0.2227  0.1560
  851SOL     OW 3401   2.391   2.291   0.296  0.4654 -0.5099  0.0127
  851SOL    HW1 3402   2.390   2.333   0.211 -0.3656  0.5300  0.7466
  851SOL    HW2 3403   2.465   2.325   0.340 -1.8656 -0.8405 -0.6942
  851SOL     MW 3404   2.401   2.301   0.291  0.0482 -0.4163  0.0163
  852SOL     OW 3405   2.320   2.031   0.352 -0.1700 -0.4111 -0.0042
  852SOL    HW1 3406   2.347   2.123   0.345  0.0410 -1.0176 -2.1666
  852SOL    HW2 3407   2.372   1.998   0.281 -2.0296 -1.9182  1.9580
  852SOL     MW 3408   2.330   2.039   0.341 -0.3875 -0.6899 -0.0306
  853SOL     OW 3409   2.522   2.377   1.918  0.2231  0.4965  0.3244
  853SOL    HW1 3410   2.518   2.449   1.857  0.2584 -0.0967 -3.2925
  853SOL    HW2 3411   2.614   2.370   1.950  1.5619 -0.3753  1.1437
  853SOL     MW 3412   2.534   2.386   1.914  0.4044  0.3032 -0.0447
  854SOL     OW 3413   2.848   2.250   0.711  0.0565  0.8695  0.3642
  854SOL    HW1 3414   2.761   2.220   0.682 -0.4921  1.2228  0.2885
  854SOL    HW2 3415   2.866   2.196   0.791  0.7940  2.0558 -0.7275
  854SOL     MW 3416   2.839   2.239   0.718  0.0815  1.0726  0.2102
  855SOL     OW 3417   2.773   2.361   0.433  0.1979  0.1148  0.2893
  855SOL    HW1 3418   2.715   2.344   0.509  0.1209  0.0136 -0.1682
  855SOL    HW2 3419   2.786   2.272   0.395  1.6865 -1.7454  0.4124
  855SOL     MW 3420   2.767   2.347   0.438  0.3841 -0.1440  0.2452
  856SOL     OW 3421   2.094   1.883   0.239 -0.4406  0.5360  0.5512
  856SOL    HW1 3422   2.006   1.885   0.272  1.0758 -1.7633 -0.6238
  856SOL    HW2 3423   2.144   1.955   0.279  2.9962 -1.3537 -0.3804
  856SOL     MW 3424   2.089   1.893   0.249  0.2129 -0.0167  0.2732
  857SOL     OW 3425   2.516   1.958   0.520  0.3123  0.2265  0.1156
  857SOL    HW1 3426   2.445   1.973   0.457 -1.7251 -3.3921  1.1402
  857SOL    HW2 3427   2.456   1.925   0.592  0.9863  2.3840  0.7111
  857SOL     MW 3428   2.499   1.955   0.521  0.1324  0.0337  0.3294
  858SOL     OW 3429   2.884   2.660   1.790 -0.0533  0.0541 -0.1334
  858SOL    HW1 3430   2.970   2.670   1.828  0.4638 -2.5426  0.4842
  858SOL    HW2 3431   2.875   2.568   1.764  1.1071 -1.4474  1.9720
  858SOL     MW 3432   2.894   2.649   1.792  0.1680 -0.4866  0.2259
  859SOL     OW 3433   1.918   2.738   1.042 -0.1752  0.1918 -0.7873
  859SOL    HW1 3434   1.861   2.668   1.009  0.6718 -3.1611 -0.7584
  859SOL    HW2 3435   1.993   2.699   1.088  0.7777 -2.1005  0.3126
  859SOL     MW 3436   1.920   2.724   1.043  0.0623 -0.5530 -0.6384
  860SOL     OW 3437   2.613   2.642   0.158 -0.4303 -0.0272  0.2000
  860SOL    HW1 3438   2.707   2.621   0.201  1.8324  1.0546  2.6141
  860SOL    HW2 3439   2.636   2.699   0.088 -1.3207  1.5059  0.5879
  860SOL     MW 3440   2.629   2.647   0.154 -0.2492  0.3178  0.5697
  861SOL     OW 3441   1.648   2.164   1.204  0.1548  0.3195  0.1387
  861SOL    HW1 3442   1.684   2.215   1.281 -1.0703  0.2979  1.4671
  861SOL    HW2 3443   1.570   2.127   1.242  0.6781 -1.4561 -0.1108
  861SOL     MW 3444   1.642   2.165   1.219  0.0622  0.0824  0.2810
  862SOL     OW 3445   2.519   1.733   1.427 -0.1328 -0.1751 -0.4277
  862SOL    HW1 3446   2.461   1.752   1.502  0.8561 -0.1557  0.5408
  862SOL    HW2 3447   2.462   1.756   1.354 -1.7788 -4.4852  2.6255
  862SOL     MW 3448   2.504   1.738   1.428 -0.2195 -0.7412  0.1029
  863SOL     OW 3449   3.003   1.725   0.983 -0.0045 -0.5753 -0.5309
  863SOL    HW1 3450   3.078   1.698   1.036 -1.8718  0.3175  0.5410
  863SOL    HW2 3451   2.963   1.792   1.039  3.2165  0.8904  0.3549
  863SOL     MW 3452   3.008   1.731   0.998  0.1741 -0.2641 -0.2726
  864SOL     OW 3453   0.028   1.836   0.744 -0.6441 -0.1749 -0.1876
  864SOL    HW1 3454  -0.017   1.789   0.812  1.2566 -0.9867 -1.1640
  864SOL    HW2 3455  -0.015   1.810   0.661 -0.7538 -0.1362 -0.0350
  864SOL     MW 3456   0.017   1.826   0.742 -0.4078 -0.2769 -0.2963
  865SOL     OW 3457   2.633   2.194   0.070 -0.5340  0.0815  0.1429
  865SOL    HW1 3458   2.598   2.115   0.104  3.8283  1.0253  3.3319
  865SOL    HW2 3459   2.603   2.197  -0.023 -0.5575  1.7705  0.0377
  865SOL     MW 3460   2.625   2.184   0.062  0.0385  0.4289  0.5497
  866SOL     OW 3461   2.629   2.399   1.547  0.4708  0.0000 -0.4572
  866SOL    HW1 3462   2.606   2.303   1.571 -1.6941 -2.1767  0.2784
  866SOL    HW2 3463   2.694   2.404   1.482  0.1481  0.6839  1.8839
  866SOL     MW 3464   2.634   2.387   1.542  0.1426 -0.1969 -0.0513
  867SOL     OW 3465   0.120   2.676   1.761  0.1241 -0.8736 -0.3003
  867SOL    HW1 3466   0.146   2.727   1.838 -2.7442 -0.4530  1.0159
  867SOL    HW2 3467   0.088   2.746   1.697  1.9099  1.9002  0.0892
  867SOL     MW 3468   0.119   2.692   1.763 -0.0187 -0.4521 -0.0752
  868SOL     OW 3469   2.771   2.677   0.521  0.2501  0.5263 -0.1199
  868SOL    HW1 3470   2.711   2.597   0.497 -2.2610 -0.8758 -1.7606
  868SOL    HW2 3471   2.706   2.746   0.515 -0.6889 -3.1408 -1.5033
  868SOL     MW 3472   2.754   2.675   0.517 -0.2051 -0.1426 -0.5189
  869SOL     OW 3473   2.062   2.481   1.033  0.0102  0.3955 -0.1577
  869SOL    HW1 3474   2.155   2.464   1.020  0.1616  0.9723  1.3395
  869SOL    HW2 3475   2.016   2.424   0.975 -1.8460  3.6174 -0.9812
  869SOL     MW 3476   2.068   2.472   1.024 -0.2148  0.8967 -0.0688
  870SOL     OW 3477   2.201   0.032   0.454 -0.1402 -0.4984 -0.1108
  870SOL    HW1 3478   2.291   0.048   0.421  1.7371 -1.0265 -0.7848
  870SOL    HW2 3479   2.205  -0.060   0.474 -1.9846  4.0112 -0.4907
  870SOL     MW 3480   2.214   0.022   0.452 -0.1359  0.0269 -0.2499
  871SOL     OW 3481   2.498   2.093   0.865 -0.8382 -0.1611 -0.8232
  871SOL    HW1 3482   2.423   2.038   0.833  2.2213 -0.2729 -1.6644
  871SOL    HW2 3483   2.457   2.163   0.919 -0.7496  1.2758 -0.8492
  871SOL     MW 3484   2.482   2.095   0.868 -0.4228  0.0137 -0.9376
  872SOL     OW 3485   2.113   2.566   1.518  0.0934 -0.3628  0.3298
  872SOL    HW1 3486   2.049   2.616   1.570  1.1283  0.3423  2.1371
  872SOL    HW2 3487   2.066   2.519   1.443 -0.5282 -1.4205 -1.0719
  872SOL     MW 3488   2.098   2.566   1.515  0.1479 -0.4094  0.3833
  873SOL     OW 3489   2.834   2.087   1.819  0.1966 -0.1600 -0.0687
  873SOL    HW1 3490   2.828   2.154   1.891  3.0612  1.2231 -0.4143
  873SOL    HW2 3491   2.922   2.114   1.786 -0.4099  1.6960 -0.5036
  873SOL     MW 3492   2.845   2.099   1.824  0.4945  0.2674 -0.1717
  874SOL     OW 3493   2.301   1.411   2.332 -0.4128  0.0105  0.2396
  874SOL    HW1 3494   2.253   1.358   2.268 -1.9199 -0.3725  2.9512
  874SOL    HW2 3495   2.364   1.351   2.377  3.7398  1.2240  0.6345
  874SOL     MW 3496   2.303   1.396   2.330 -0.0638  0.1200  0.6495
  875SOL     OW 3497   2.345   2.339   0.984  0.0325  0.2189  0.0752
  875SOL    HW1 3498   2.388   2.375   0.908 -0.9006 -2.1360  0.1974
  875SOL    HW2 3499   2.386   2.385   1.061 -1.2384 -0.1246 -0.8366
  875SOL     MW 3500   2.356   2.350   0.984 -0.2583 -0.1371 -0.0290
  876SOL     OW 3501   3.078   2.247   1.315  0.1882 -0.1625  0.3524
  876SOL    HW1 3502   3.113   2.266   1.226 -0.7274  4.0505  0.0012
  876SOL    HW2 3503   3.152   2.281   1.373  1.4787 -2.3150 -0.4781
  876SOL     MW 3504   3.093   2.254   1.311  0.2376  0.1094  0.1965
  877SOL     OW 3505   0.051   2.786   0.333  0.0368 -0.2037 -0.2875
  877SOL    HW1 3506   0.098   2.869   0.324 -3.6333 -1.5564 -1.3877
  877SOL    HW2 3507   0.051   2.732   0.255 -0.5486  0.8436  1.3290
  877SOL     MW 3508   0.057   2.790   0.321 -0.5246 -0.2440 -0.2194
  878SOL     OW 3509   2.341   1.698   1.196 -0.7148 -0.4094  0.0667
  878SOL    HW1 3510   2.255   1.659   1.231 -2.6732  0.8345 -1.6376
  878SOL    HW2 3511   2.397   1.618   1.172 -1.0420 -2.6140 -0.6624
  878SOL     MW 3512   2.337   1.682   1.197 -1.0164 -0.5362 -0.2544
  879SOL     OW 3513   2.766   2.462   0.868 -0.2677 -0.3253 -0.2878
  879SOL    HW1 3514   2.852   2.500   0.888 -1.6178  0.9278 -1.9815
  879SOL    HW2 3515   2.801   2.390   0.814  0.6845 -1.5927 -1.3351
  879SOL     MW 3516   2.782   2.458   0.863 -0.3202 -0.3272 -0.6495
  880SOL     OW 3517   2.580   2.196   0.627 -0.1275  0.1189  0.3549
  880SOL    HW1 3518   2.568   2.189   0.725  1.9180  0.5380  1.3537
  880SOL    HW2 3519   2.566   2.105   0.581 -2.2460 -4.2275 -2.7730
  880SOL     MW 3520   2.576   2.183   0.634 -0.1371 -0.3993  0.0740
  881SOL     OW 3521   2.954   2.767   0.711 -0.6061  0.2866  0.1712
  881SOL    HW1 3522   2.893   2.734   0.651 -0.9628  0.5810  1.7557
  881SOL    HW2 3523   3.039   2.715   0.699 -0.7770 -0.0696  1.8356
  881SOL     MW 3524   2.957   2.756   0.701 -0.6757  0.2785  0.5998
  882SOL     OW 3525   2.302   2.852   1.930  0.3047  0.2896  0.2252
  882SOL    HW1 3526   2.281   2.846   1.834  0.0845  0.2169 -0.0442
  882SOL    HW2 3527   2.239   2.794   1.969  0.8373 -0.3449 -0.7526
  882SOL     MW 3528   2.291   2.843   1.922  0.3459  0.1963  0.0606
  883SOL     OW 3529   2.381   2.238   1.316  0.9450 -0.5628 -0.0379
  883SOL    HW1 3530   2.458   2.190   1.278 -1.2841 -0.5779 -1.1913
  883SOL    HW2 3531   2.303   2.227   1.255 -0.2025  3.4181 -4.1369
  883SOL     MW 3532   2.381   2.230   1.303  0.4995 -0.0395 -0.7309
  884SOL     OW 3533   1.967   1.814   1.069 -0.4249 -0.1159 -0.0007
  884SOL    HW1 3534   1.921   1.891   1.036  2.1508  2.7444  0.5548
  884SOL    HW2 3535   2.059   1.842   1.064 -1.3681 -2.7687 -1.7510
  884SOL     MW 3536   1.973   1.828   1.064 -0.2095 -0.0885 -0.1584
  885SOL     OW 3537   2.833   2.401   1.729  0.6455  0.3044 -0.3773
  885SOL    HW1 3538   2.897   2.334   1.695  0.0689  1.8121 -1.1147
  885SOL    HW2 3539   2.758   2.401   1.670  0.7586 -0.2715 -1.4349
  885SOL     MW 3540   2.831   2.392   1.717  0.5843  0.4274 -0.6142
  886SOL     OW 3541   2.867   2.407   1.381 -0.1494  0.0426 -0.4552
  886SOL    HW1 3542   2.954   2.363   1.367 -2.4795 -0.2818 -2.1690
  886SOL    HW2 3543   2.901   2.503   1.373  0.8926 -1.5572 -0.3100
  886SOL     MW 3544   2.883   2.414   1.378 -0.3194 -0.2113 -0.6621
  887SOL     OW 3545   2.343   2.694   1.500  0.2409  0.6301 -0.3276
  887SOL    HW1 3546   2.363   2.723   1.413 -2.1695  1.1045  1.4434
  887SOL    HW2 3547   2.266   2.638   1.486  3.6898 -1.0089  1.4626
  887SOL     MW 3548   2.335   2.691   1.487  0.3780  0.4765  0.1422
  888SOL     OW 3549   2.013   2.163   1.353  1.3287  0.3722 -0.4588
  888SOL    HW1 3550   2.069   2.153   1.274 -0.1173  1.5285 -2.3263
  888SOL    HW2 3551   2.070   2.180   1.424  1.3160 -2.4627 -1.5415
  888SOL     MW 3552   2.028   2.164   1.352  1.1362  0.1507 -0.8481
  889SOL     OW 3553   2.300   1.942   2.067 -0.4697 -0.6948 -0.4573
  889SOL    HW1 3554   2.372   1.933   2.129 -2.2036  0.0407  0.1905
  889SOL    HW2 3555   2.319   2.009   2.003 -0.5337 -0.2517  2.2337
  889SOL     MW 3556   2.312   1.950   2.067 -0.7069 -0.5393 -0.0168
  890SOL     OW 3557   0.061   2.331   0.151 -0.5363  0.3897  0.5791
  890SOL    HW1 3558   0.020   2.417   0.157 -3.0372 -3.2894  1.6153
  890SOL    HW2 3559   0.025   2.287   0.232 -3.8261  1.0493  1.5946
  890SOL     MW 3560   0.051   2.337   0.162 -1.3003 -0.0087  0.8498
  891SOL     OW 3561   2.980   2.043   1.182 -0.1579  0.7202 -0.1435
  891SOL    HW1 3562   3.071   2.012   1.170  0.8834 -0.8921 -0.0641
  891SOL    HW2 3563   2.980   2.114   1.243 -1.0633  0.3505 -3.0744
  891SOL     MW 3564   2.992   2.048   1.188 -0.1400  0.4587 -0.5197
  892SOL     OW 3565   2.471   2.400   2.842  1.0852  0.1661  0.2585
  892SOL    HW1 3566   2.472   2.316   2.887 -2.9001  0.5972 -0.3289
  892SOL    HW2 3567   2.555   2.440   2.847 -3.4689  0.5529 -1.2563
  892SOL     MW 3568   2.482   2.394   2.848 -0.0415  0.2740 -0.0189
  893SOL     OW 3569   1.672   2.380   1.353  0.1674  0.0022  0.0529
  893SOL    HW1 3570   1.585   2.381   1.386  1.6369 -0.9644 -0.4603
  893SOL    HW2 3571   1.711   2.443   1.412  1.0275 -2.9250  2.9616
  893SOL     MW 3572   1.666   2.388   1.365  0.4747 -0.5115  0.3689
  894SOL     OW 3573   2.775   1.837   0.471  0.6450  0.0498  0.0760
  894SOL    HW1 3574   2.685   1.859   0.515 -3.4455 -0.6838  0.6831
  894SOL    HW2 3575   2.750   1.800   0.379  0.0649 -0.2925 -0.8421
  894SOL     MW 3576   2.760   1.835   0.464  0.0287 -0.0922  0.0350
  895SOL     OW 3577   2.195   2.177   1.136 -0.1329  0.4450  0.2226
  895SOL    HW1 3578   2.238   2.217   1.061 -1.0566  0.1249  0.6580
  895SOL    HW2 3579   2.211   2.084   1.108  1.8505  2.1433  1.1287
  895SOL     MW 3580   2.202   2.170   1.122  0.0069  0.6269  0.3996
  896SOL     OW 3581   2.220   2.773   1.097 -0.1514 -0.5241 -0.4176
  896SOL    HW1 3582   2.276   2.724   1.159  0.5420 -1.6887 -0.4563
  896SOL    HW2 3583   2.180   2.844   1.142 -0.6992 -1.3495  2.3156
  896SOL     MW 3584   2.222   2.776   1.111 -0.1321 -0.7866 -0.0621
  897SOL     OW 3585   3.077   3.007   3.087 -0.5190 -0.1473  0.0159
  897SOL    HW1 3586   3.137   2.938   3.081 -1.8849 -0.5956  1.5323
  897SOL    HW2 3587   3.002   2.985   3.040  0.9769  0.8389  0.1949
  897SOL     MW 3588   3.075   2.995   3.080 -0.5018 -0.0763  0.2396
  898SOL     OW 3589   2.064   0.154   1.416  0.7684  0.0130  0.1866
  898SOL    HW1 3590   2.040   0.071   1.459  0.3092 -0.0295  0.2611
  898SOL    HW2 3591   2.062   0.140   1.321 -1.0293 -2.0431 -2.1054
  898SOL     MW 3592   2.061   0.141   1.409  0.4706 -0.2639 -0.1060
  899SOL     OW 3593   2.918   3.003   0.603 -0.4556  0.5091  0.1653
  899SOL    HW1 3594   2.923   2.907   0.617 -1.7066 -2.3627 -0.3181
  899SOL    HW2 3595   2.822   3.023   0.599  0.3840  0.6026  2.2519
  899SOL     MW 3596   2.906   2.993   0.604 -0.5099  0.1426  0.3768
  900SOL     OW 3597   0.094   2.362   1.097 -0.1733 -0.7737 -0.0976
  900SOL    HW1 3598   0.054   2.449   1.097  2.8205  0.3565  0.6470
  900SOL    HW2 3599   0.091   2.327   1.008 -2.2966 -1.0677  1.2733
  900SOL     MW 3600   0.088   2.369   1.085 -0.0585 -0.6634  0.1815
  901SOL     OW 3601   1.728   2.807   1.792  0.2754  0.8864  0.8070
  901SOL    HW1 3602   1.814   2.757   1.763  1.0779 -1.8599 -3.6201
  901SOL    HW2 3603   1.667   2.821   1.719 -0.6375  0.2143  0.6255
  901SOL     MW 3604   1.732   2.802   1.779  0.2608  0.4354  0.1990
  902SOL     OW 3605   2.652   2.139   1.624 -0.2381  0.2831 -0.5919
  902SOL    HW1 3606   2.662   2.074   1.547 -0.6097 -0.7332 -2.2354
  902SOL    HW2 3607   2.732   2.117   1.679  1.5296  1.2900 -2.1600
  902SOL     MW 3608   2.664   2.128   1.621 -0.0539  0.2818 -1.0157
  903SOL     OW 3609   1.492   2.647   0.582 -0.1648 -0.1586 -0.4088
  903SOL    HW1 3610   1.574   2.621   0.625  0.3759  2.1580  0.5905
  903SOL    HW2 3611   1.474   2.731   0.636  0.3678 -1.5372 -0.1116
  903SOL     MW 3612   1.501   2.655   0.595 -0.0232 -0.0349 -0.2377
  904SOL     OW 3613   2.480   2.543   1.693  0.3344 -0.3089  0.3426
  904SOL    HW1 3614   2.417   2.587   1.626  1.6525  0.3633 -1.4127
  904SOL    HW2 3615   2.534   2.480   1.638 -0.3860  0.7937  1.1895
  904SOL     MW 3616   2.479   2.540   1.677  0.4133 -0.0747  0.2227
  905SOL     OW 3617   2.316   2.455   2.102  0.2197 -0.1248  0.1012
  905SOL    HW1 3618   2.373   2.407   2.043  0.5624  1.7076 -0.7680
  905SOL    HW2 3619   2.281   2.371   2.146 -0.8391 -3.4747 -1.8117
  905SOL     MW 3620   2.319   2.437   2.100  0.1252 -0.3250 -0.2659
  906SOL     OW 3621   2.509   2.519   0.791  0.1784 -0.0211 -0.3146
  906SOL    HW1 3622   2.604   2.506   0.798  2.8347 -2.2535 -3.7369
  906SOL    HW2 3623   2.487   2.605   0.830  0.8099  1.1317 -0.1357
  906SOL     MW 3624   2.519   2.529   0.797  0.6122 -0.1635 -0.7425
  907SOL     OW 3625   2.661   2.867   1.273 -0.1920  0.0427 -0.0408
  907SOL    HW1 3626   2.728   2.929   1.309  2.9921 -0.3509  5.7033
  907SOL    HW2 3627   2.699   2.844   1.190  2.3042 -2.6084  0.1577
  907SOL     MW 3628   2.675   2.872   1.267  0.5575 -0.3590  0.7432
  908SOL     OW 3629   2.715   2.435   0.026 -0.0160 -0.1729 -0.5221
  908SOL    HW1 3630   2.675   2.350   0.055  0.0323  0.7056  2.0760
  908SOL    HW2 3631   2.669   2.502   0.074 -1.2843  0.7587  0.7716
  908SOL     MW 3632   2.704   2.433   0.036 -0.1770  0.0659 -0.0086
  909SOL     OW 3633   1.722   0.138   1.241 -0.4434  0.3202  0.3796
  909SOL    HW1 3634   1.676   0.215   1.214  1.5633 -2.7541  0.8436
  909SOL    HW2 3635   1.696   0.120   1.331  1.1489 -0.0566  1.5791
  909SOL     MW 3636   1.712   0.146   1.250  0.0314 -0.1351  0.5991
  910SOL     OW 3637   2.142   1.671   0.390 -0.4405 -0.1788  0.1014
  910SOL    HW1 3638   2.074   1.606   0.370 -0.4030 -1.1039 -1.5046
  910SOL    HW2 3639   2.120   1.737   0.323 -0.4436 -0.5789  0.1912
  910SOL     MW 3640   2.130   1.671   0.379 -0.4359 -0.3536 -0.0986
  911SOL     OW 3641   2.304   2.113   1.566  0.5550  0.4274  0.0870
  911SOL    HW1 3642   2.348   2.150   1.646  2.5020  1.0560  1.8920
  911SOL    HW2 3643   2.345   2.160   1.486  0.8048  1.0630 -0.8010
  911SOL     MW 3644   2.315   2.124   1.566  0.8449  0.5942  0.2080
  912SOL     OW 3645   2.943   1.867   1.406  0.1882 -0.2308 -0.8676
  912SOL    HW1 3646   2.988   1.912   1.325  0.0455 -0.9039  0.6818
  912SOL    HW2 3647   2.853   1.893   1.391 -1.7082  1.7987 -0.1747
  912SOL     MW 3648   2.937   1.877   1.393 -0.0808 -0.0519 -0.5718
  913SOL     OW 3649   2.695   3.060   0.270  0.0939 -0.0625 -0.1389
  913SOL    HW1 3650   2.773   3.003   0.281  0.5371 -1.4441 -2.0548
  913SOL    HW2 3651   2.633   3.015   0.219  1.6268 -0.5840  0.7852
  913SOL     MW 3652   2.697   3.047   0.265  0.3546 -0.3136 -0.2698
  914SOL     OW 3653   2.692   1.817   2.950  0.5909 -0.0933 -0.4210
  914SOL    HW1 3654   2.721   1.898   2.911  2.0304 -0.3370 -0.8642
  914SOL    HW2 3655   2.593   1.811   2.938 -2.7006  1.1641 -0.9110
  914SOL     MW 3656   2.683   1.827   2.943  0.3466  0.0404 -0.5441
  915SOL     OW 3657   1.797   0.152   0.135  0.5470 -0.1638 -0.3273
  915SOL    HW1 3658   1.873   0.120   0.179 -2.6151  0.4580 -0.5255
  915SOL    HW2 3659   1.725   0.090   0.161 -0.4914 -0.4025  2.3032
  915SOL     MW 3660   1.797   0.139   0.144 -0.0072 -0.1132 -0.0064
  916SOL     OW 3661   1.729   2.191   2.023  0.2994 -0.0046 -0.5624
  916SOL    HW1 3662   1.767   2.280   2.012 -0.4735  0.0718 -1.4121
  916SOL    HW2 3663   1.776   2.148   1.953  0.3790  1.2625  0.5955
  916SOL     MW 3664   1.740   2.197   2.013  0.2079  0.1726 -0.5218
  917SOL     OW 3665   2.521   2.276   2.591 -0.0215 -0.0982  0.2600
  917SOL    HW1 3666   2.531   2.328   2.666  1.2569  0.9513 -1.3397
  917SOL    HW2 3667   2.598   2.290   2.543 -0.5574 -0.0899  2.1601
  917SOL     MW 3668   2.533   2.285   2.595  0.0764  0.0414  0.2997
  918SOL     OW 3669   2.049   1.604   2.650  0.7310 -0.5615 -0.7267
  918SOL    HW1 3670   1.975   1.648   2.607 -0.6939  0.3997  0.6437
  918SOL    HW2 3671   2.121   1.666   2.645  2.8981  0.0766  0.4463
  918SOL     MW 3672   2.048   1.618   2.643  0.8289 -0.3505 -0.3912
  919SOL     OW 3673   3.073   2.419   2.235  0.1159  0.4293  0.3509
  919SOL    HW1 3674   3.023   2.341   2.232  2.9090 -1.3408  1.0747
  919SOL    HW2 3675   3.133   2.404   2.161  1.4346 -0.4872 -0.5964
  919SOL     MW 3676   3.075   2.406   2.225  0.6584  0.0748  0.3214
  920SOL     OW 3677   2.679   2.807   3.039 -0.6282 -0.7758 -0.1363
  920SOL    HW1 3678   2.587   2.798   3.015  1.6295 -1.7901 -2.5863
  920SOL    HW2 3679   2.718   2.785   2.959 -0.6707  2.6045 -1.8171
  920SOL     MW 3680   2.672   2.803   3.025 -0.3359 -0.4636 -0.6813
  921SOL     OW 3681   2.460   2.623   2.632  0.3906  0.3247  0.2484
  921SOL    HW1 3682   2.520   2.625   2.558 -1.5184  2.6846 -0.7384
  921SOL    HW2 3683   2.483   2.544   2.681  2.2822 -0.1673 -1.0815
  921SOL     MW 3684   2.471   2.613   2.629  0.3883  0.5712 -0.0573
  922SOL     OW 3685   2.082   2.729   0.383  0.7444 -0.5580  0.2579
  922SOL    HW1 3686   2.036   2.744   0.300  1.5333 -0.3021  3.2631
  922SOL    HW2 3687   2.124   2.636   0.388 -2.3932 -4.1627  3.0710
  922SOL     MW 3688   2.082   2.719   0.372  0.4345 -0.9998  1.0255
  923SOL     OW 3689   2.206   2.846   1.672 -0.0455  0.1387 -0.6913
  923SOL    HW1 3690   2.280   2.823   1.620  1.2482 -1.2471 -0.0835
  923SOL    HW2 3691   2.156   2.917   1.630 -0.0525 -1.0684 -2.7735
  923SOL     MW 3692   2.209   2.852   1.659  0.1243 -0.2034 -0.8858
  924SOL     OW 3693   1.084   2.733   2.604 -0.0946  0.1175 -0.0094
  924SOL    HW1 3694   1.182   2.754   2.592 -3.2683 -0.2441 -0.0243
  924SOL    HW2 3695   1.080   2.670   2.674 -0.8106 -0.4306  1.5851
  924SOL     MW 3696   1.097   2.728   2.611 -0.6078 -0.0025  0.1990
  925SOL     OW 3697   2.975   0.240   2.683 -0.1973  0.5503 -0.6731
  925SOL    HW1 3698   2.941   0.254   2.592 -0.2580 -0.1152  1.3095
  925SOL    HW2 3699   2.955   0.325   2.734 -2.7424  0.2301  2.1893
  925SOL     MW 3700   2.968   0.253   2.677 -0.5411  0.4202 -0.0338
  926SOL     OW 3701   2.778   2.356   1.993  0.2059  0.4129 -0.4312
  926SOL    HW1 3702   2.803   2.427   2.054  1.1919 -4.2691 -0.0161
  926SOL    HW2 3703   2.813   2.390   1.912 -0.0118  1.0265  1.4453
  926SOL     MW 3704   2.786   2.370   1.990  0.3073 -0.1239 -0.1289
  927SOL     OW 3705   2.382   0.154   0.304 -0.2399 -0.1641 -0.0749
  927SOL    HW1 3706   2.449   0.221   0.307  0.3340 -0.6011 -2.0740
  927SOL    HW2 3707   2.381   0.120   0.217  1.4249  2.2480  1.5129
  927SOL     MW 3708   2.390   0.159   0.293  0.0555  0.0965 -0.1292
  928SOL     OW 3709   2.146   2.400   1.720 -0.3340 -0.1269  0.0842
  928SOL    HW1 3710   2.104   2.446   1.644 -2.8358 -2.4553  0.5289
  928SOL    HW2 3711   2.229   2.441   1.736 -1.4862  0.4687 -2.2196
  928SOL     MW 3712   2.152   2.411   1.712 -0.8161 -0.3555 -0.1611
  929SOL     OW 3713   2.747   2.349   2.463  0.1442  0.0830  0.0311
  929SOL    HW1 3714   2.789   2.312   2.388  2.1625  2.8016  5.0221
  929SOL    HW2 3715   2.810   2.346   2.532  0.5402 -0.3546  0.9002
  929SOL     MW 3716   2.761   2.344   2.462  0.4627  0.3839  0.8043
  930SOL     OW 3717   2.014   2.804   2.650  0.5313 -0.5516  0.6344
  930SOL    HW1 3718   2.029   2.776   2.743  2.6641  0.2029  0.1423
  930SOL    HW2 3719   2.094   2.843   2.620  1.0118  1.5311 -0.7151
  930SOL     MW 3720   2.027   2.806   2.659  0.8761 -0.1772  0.3914
  931SOL     OW 3721   0.027   2.789   2.472  0.0070 -0.2741  0.0812
  931SOL    HW1 3722   0.027   2.825   2.558 -1.3637 -1.4081 -3.4132
  931SOL    HW2 3723   0.118   2.784   2.462 -0.3591 -1.5350  0.5378
  931SOL     MW 3724   0.039   2.793   2.482 -0.2222 -0.5901 -0.3196
  932SOL     OW 3725   2.858   1.896   2.506 -0.3847  0.4436  0.5588
  932SOL    HW1 3726   2.928   1.961   2.519 -1.4293  2.0449 -1.3867
  932SOL    HW2 3727   2.818   1.914   2.418 -0.5916  0.3313 -0.4897
  932SOL     MW 3728   2.862   1.907   2.496 -0.5498  0.6401  0.1638
  933SOL     OW 3729   2.056   2.789   2.221  0.0468  0.3610 -0.1368
  933SOL    HW1 3730   2.141   2.839   2.240  3.9563  3.6007 -1.4367
  933SOL    HW2 3731   1.982   2.851   2.214  1.2065  0.1369 -0.5685
  933SOL     MW 3732   2.058   2.804   2.222  0.7156  0.7589 -0.3652
  934SOL     OW 3733   2.002   2.637   2.448  0.1517  0.5184  0.1867
  934SOL    HW1 3734   1.990   2.677   2.531  3.4288 -3.3084 -1.7584
  934SOL    HW2 3735   2.007   2.697   2.372  0.1161 -0.5481  2.0917
  934SOL     MW 3736   2.001   2.650   2.449  0.5794 -0.1272  0.1814
  935SOL     OW 3737   2.666   1.546   1.810 -0.7938 -1.0707 -0.0405
  935SOL    HW1 3738   2.751   1.523   1.778 -4.9627 -0.0026 -1.0663
  935SOL    HW2 3739   2.624   1.534   1.727 -0.0451 -2.9354 -1.8211
  935SOL     MW 3740   2.671   1.541   1.795 -1.2451 -1.1758 -0.4108
  936SOL     OW 3741   2.947   2.259   3.090  0.0272 -0.5002 -0.1150
  936SOL    HW1 3742   3.008   2.286   3.158 -0.8582  0.1428 -2.2298
  936SOL    HW2 3743   2.866   2.317   3.097 -1.9866 -1.2198  1.7816
  936SOL     MW 3744   2.944   2.271   3.100 -0.3553 -0.5103 -0.1438
  937SOL     OW 3745   1.984   2.146   2.716 -0.4104  0.2326 -0.7079
  937SOL    HW1 3746   2.066   2.146   2.768 -1.6744  0.2748  2.1402
  937SOL    HW2 3747   2.000   2.141   2.623  0.3399 -0.1695  1.3870
  937SOL     MW 3748   1.997   2.145   2.710 -0.4781  0.1851 -0.0557
  938SOL     OW 3749   2.354   1.716   1.917  0.5287 -0.2747 -0.3807
  938SOL    HW1 3750   2.337   1.745   1.827 -2.2441 -3.3180 -1.0092
  938SOL    HW2 3751   2.328   1.788   1.978 -0.2557 -1.0649 -1.4050
  938SOL     MW 3752   2.349   1.730   1.913  0.0594 -0.7805 -0.5988
  939SOL     OW 3753   2.751   1.975   2.246 -0.2737 -0.2461 -0.3151
  939SOL    HW1 3754   2.794   1.924   2.172  2.4010 -0.8719  1.1027
  939SOL    HW2 3755   2.661   1.947   2.245  1.2813 -2.1373  2.6876
  939SOL     MW 3756   2.745   1.965   2.236  0.2844 -0.5782  0.2681
  940SOL     OW 3757   2.230   0.145   2.666 -0.1870 -0.1826  0.2583
  940SOL    HW1 3758   2.237   0.061   2.621  0.0742 -1.3449  0.3068
  940SOL    HW2 3759   2.292   0.148   2.737  0.3245 -2.9857 -0.2372
  940SOL     MW 3760   2.239   0.134   2.670 -0.0851 -0.7058  0.1993
  941SOL     OW 3761   0.188   2.433   2.038 -0.0213  0.5193 -0.5156
  941SOL    HW1 3762   0.271   2.405   2.054 -2.0297  2.4869  2.1243
  941SOL    HW2 3763   0.171   2.422   1.947  0.3504 -0.0778 -0.9818
  941SOL     MW 3764   0.197   2.428   2.028 -0.2372  0.7001 -0.2288
  942SOL     OW 3765   2.871   2.215   2.243 -0.1805 -0.0503 -0.5935
  942SOL    HW1 3766   2.834   2.251   2.169  1.8039 -1.6094 -1.5281
  942SOL    HW2 3767   2.837   2.125   2.240  2.8855 -1.7635 -0.6593
  942SOL     MW 3768   2.862   2.208   2.232  0.4859 -0.4820 -0.7255
  943SOL     OW 3769   0.237   2.104   2.300  0.4915  0.5894  0.4212
  943SOL    HW1 3770   0.188   2.176   2.353 -2.8075 -2.2180  3.4348
  943SOL    HW2 3771   0.326   2.100   2.341 -1.6678  0.2693 -0.1635
  943SOL     MW 3772   0.242   2.113   2.312 -0.2287  0.1768  0.7416
  944SOL     OW 3773   2.099   2.665   1.981  0.0502 -0.2076 -0.5143
  944SOL    HW1 3774   2.151   2.600   2.020  0.0553  1.1916 -1.8957
  944SOL    HW2 3775   2.063   2.715   2.051  0.5077 -1.8264  0.3890
  944SOL     MW 3776   2.101   2.663   1.995  0.1113 -0.2365 -0.5774
  945SOL     OW 3777   2.839   2.744   2.804 -0.6661  0.3943  0.1301
  945SOL    HW1 3778   2.815   2.657   2.808  2.2721  0.1285  0.6911
  945SOL    HW2 3779   2.805   2.777   2.718 -0.2512 -2.4832 -0.1278
  945SOL     MW 3780   2.831   2.737   2.793 -0.2237 -0.0204  0.1701
  946SOL     OW 3781   2.447   2.649   2.231 -0.0369 -0.4677  0.2543
  946SOL    HW1 3782   2.482   2.695   2.158 -1.8290  1.1300 -3.3782
  946SOL    HW2 3783   2.418   2.570   2.179 -0.3402 -1.3934 -1.4665
  946SOL     MW 3784   2.448   2.644   2.214 -0.3134 -0.3791 -0.4520
  947SOL     OW 3785   2.032   0.067   0.242  0.4566  0.2222  0.2317
  947SOL    HW1 3786   2.028  -0.013   0.194  0.6005 -2.2147 -2.1544
  947SOL    HW2 3787   2.083   0.057   0.322  0.5985 -0.5936 -1.2343
  947SOL     MW 3788   2.038   0.055   0.247  0.4943 -0.2069 -0.2766
  948SOL     OW 3789   1.820   2.996   2.657 -0.3635  0.4559 -0.1185
  948SOL    HW1 3790   1.874   2.912   2.659 -1.5810  0.3346 -0.1105
  948SOL    HW2 3791   1.791   3.014   2.567 -0.5265 -0.5901 -0.3933
  948SOL     MW 3792   1.823   2.988   2.646 -0.5456  0.3019 -0.1537
  949SOL     OW 3793   2.502   1.913   2.245 -0.1324 -0.9602 -0.3659
  949SOL    HW1 3794   2.514   1.825   2.283  1.5027  2.0888 -0.1245
  949SOL    HW2 3795   2.468   1.968   2.319 -1.0265 -0.4530 -0.1546
  949SOL     MW 3796   2.499   1.908   2.260 -0.0347 -0.4910 -0.3062
  950SOL     OW 3797   2.298   2.568   2.967  0.1612  0.0390  0.9649
  950SOL    HW1 3798   2.345   2.517   2.901 -1.5064 -2.3329  0.3161
  950SOL    HW2 3799   2.216   2.597   2.914 -3.6634  0.0145 -1.0496
  950SOL     MW 3800   2.293   2.565   2.951 -0.5635 -0.2772  0.6135
  951SOL     OW 3801   3.068   2.196   2.841 -0.4176 -0.5114 -0.2907
  951SOL    HW1 3802   3.011   2.231   2.915  1.1273 -2.0399  4.2361
  951SOL    HW2 3803   3.057   2.100   2.843  0.1130 -0.2320  0.4961
  951SOL     MW 3804   3.059   2.188   2.851 -0.1438 -0.6762  0.4104
  952SOL     OW 3805   3.025   1.669   2.142 -0.1937  0.8607 -0.0464
  952SOL    HW1 3806   2.945   1.687   2.090 -1.5584 -1.1849  0.2461
  952SOL    HW2 3807   3.081   1.744   2.135  2.5759 -3.0061 -3.2420
  952SOL     MW 3808   3.022   1.681   2.135 -0.0083  0.0806 -0.4294
  953SOL     OW 3809   1.975   1.721   2.901  0.1077 -0.1508  0.3320
  953SOL    HW1 3810   1.900   1.679   2.934  0.6107 -0.8869  0.4174
  953SOL    HW2 3811   1.970   1.674   2.818 -1.4679 -2.6584  0.0707
  953SOL     MW 3812   1.965   1.709   2.895 -0.0338 -0.5788  0.3088
  954SOL     OW 3813   2.473   2.143   2.938 -0.1894 -0.3262 -0.5849
  954SOL    HW1 3814   2.384   2.141   2.904 -0.5342  1.3379  2.6240
  954SOL    HW2 3815   2.530   2.119   2.873  1.1997 -0.3706  1.3457
  954SOL     MW 3816   2.469   2.140   2.925 -0.0516 -0.1125  0.0932
  955SOL     OW 3817   1.596   1.590   2.538 -0.2209 -0.9268  0.0810
  955SOL    HW1 3818   1.549   1.633   2.458 -2.4855  0.2190  0.4765
  955SOL    HW2 3819   1.688   1.631   2.531 -1.5281 -2.0664 -0.4011
  955SOL     MW 3820   1.602   1.601   2.526 -0.6922 -0.9260  0.0696
  956SOL     OW 3821   2.713   2.502   2.879  0.1467  0.6266  0.2029
  956SOL    HW1 3822   2.715   2.482   2.978 -1.5250 -0.4973  3.5203
  956SOL    HW2 3823   2.778   2.445   2.840  2.5081 -0.7387  2.3547
  956SOL     MW 3824   2.722   2.492   2.887  0.2377  0.2982  0.9245
  957SOL     OW 3825   2.256   2.873   0.531  0.2290 -0.0514  0.2115
  957SOL    HW1 3826   2.198   2.828   0.465  1.0853  0.3421 -0.2773
  957SOL    HW2 3827   2.243   2.826   0.618  0.5581 -4.0236  1.3399
  957SOL     MW 3828   2.247   2.861   0.534  0.3854 -0.5236  0.2959
  958SOL     OW 3829   2.057   2.648   2.866  0.1682 -0.1909  0.7207
  958SOL    HW1 3830   2.039   2.566   2.825  0.3547 -1.3227  0.7346
  958SOL    HW2 3831   1.986   2.667   2.931  0.7111 -0.9961 -0.8226
  958SOL     MW 3832   2.045   2.640   2.869  0.2644 -0.4465  0.5189
  959SOL     OW 3833   2.516   2.808   0.445 -0.1133  0.3434  0.0116
  959SOL    HW1 3834   2.530   2.852   0.359 -2.3925 -1.5892 -1.9577
  959SOL    HW2 3835   2.428   2.841   0.476  1.5045  2.2237  1.0725
  959SOL     MW 3836   2.506   2.818   0.438 -0.2006  0.3365 -0.1083
  960SOL     OW 3837   1.939   2.338   2.305 -0.2906 -0.1150 -0.3028
  960SOL    HW1 3838   1.915   2.247   2.326  1.1369 -0.9704 -1.3199
  960SOL    HW2 3839   1.894   2.394   2.370  0.3623 -0.9653  2.3145
  960SOL     MW 3840   1.930   2.333   2.316 -0.0161 -0.3400 -0.0917
  961SOL     OW 3841   2.211   2.279   2.298  0.2046  0.1286  0.1658
  961SOL    HW1 3842   2.118   2.259   2.288  0.1231 -1.6309  1.2933
  961SOL    HW2 3843   2.218   2.350   2.362  1.5445 -4.4111  0.2131
  961SOL     MW 3844   2.199   2.286   2.305  0.3707 -0.7025  0.3208
  962SOL     OW 3845   2.216   2.069   2.835 -0.1164  0.0355  0.1922
  962SOL    HW1 3846   2.168   2.029   2.907 -0.6333 -0.2244  1.5025
  962SOL    HW2 3847   2.225   2.006   2.763  2.0380 -2.9767 -3.9577
  962SOL     MW 3848   2.211   2.055   2.835  0.0996 -0.3962 -0.1825
  963SOL     OW 3849   1.824   2.544   2.141  0.6523  0.9269 -0.7332
  963SOL    HW1 3850   1.872   2.494   2.210 -1.5338  0.1154 -2.0217
  963SOL    HW2 3851   1.876   2.523   2.058 -1.5171  1.1221 -2.1161
  963SOL     MW 3852   1.837   2.535   2.139  0.0776  0.8456 -1.0856
  964SOL     OW 3853   1.842   1.942   2.775  0.0831 -0.5235  0.4536
  964SOL    HW1 3854   1.881   2.030   2.746  0.7655  1.7707  0.1668
  964SOL    HW2 3855   1.909   1.887   2.823  0.2020 -0.7812 -0.3504
  964SOL     MW 3856   1.856   1.946   2.777  0.1888 -0.2548  0.3097
  965SOL     OW 3857   2.212   2.643   0.706 -0.0354 -1.2347  0.7765
  965SOL    HW1 3858   2.215   2.556   0.671 -0.6086 -0.1244  0.1167
  965SOL    HW2 3859   2.281   2.636   0.774 -2.2206 -0.0391  0.7830
  965SOL     MW 3860   2.222   2.631   0.710 -0.3993 -0.9305  0.6903
  966SOL     OW 3861   2.673   2.605   2.398 -0.0938 -0.1767  0.8805
  966SOL    HW1 3862   2.590   2.613   2.352  3.4833 -0.5803  0.9420
  966SOL    HW2 3863   2.696   2.514   2.408 -0.7509  1.1836  1.4035
  966SOL     MW 3864   2.665   2.594   2.393  0.2914 -0.0505  0.9576
  967SOL     OW 3865   2.810   3.020   2.953 -0.5029 -0.6112  0.2746
  967SOL    HW1 3866   2.754   2.962   3.004  1.3465  1.3777 -0.4221
  967SOL    HW2 3867   2.753   3.021   2.872  0.0705  0.3489 -2.6898
  967SOL     MW 3868   2.795   3.013   2.949 -0.1832 -0.2221 -0.2085
  968SOL     OW 3869   3.050   2.637   2.971  0.3795  0.5275 -0.3342
  968SOL    HW1 3870   2.987   2.695   2.930  2.1886 -0.0728  0.0254
  968SOL    HW2 3871   3.087   2.585   2.903 -1.4574 -0.1553 -0.0838
  968SOL     MW 3872   3.046   2.638   2.957  0.3758  0.3582 -0.2537
  969SOL     OW 3873   1.607   2.223   1.683 -0.1219 -0.0706  0.3017
  969SOL    HW1 3874   1.672   2.152   1.703 -0.6228 -0.5723  0.9209
  969SOL    HW2 3875   1.556   2.235   1.759  1.4769 -0.1634  0.1104
  969SOL     MW 3876   1.609   2.215   1.695  0.0230 -0.1490  0.3582
  970SOL     OW 3877   1.807   1.823   1.927 -0.0010  0.0150  0.0653
  970SOL    HW1 3878   1.868   1.751   1.957  0.0430 -0.0429 -3.3625
  970SOL    HW2 3879   1.714   1.805   1.948 -0.4680  2.9508  2.8636
  970SOL     MW 3880   1.803   1.811   1.934 -0.0568  0.3947 -0.0177
  971SOL     OW 3881   1.745   3.067   2.382 -0.7423  0.8926 -1.0476
  971SOL    HW1 3882   1.794   3.038   2.304 -1.4270  2.5459  1.0940
  971SOL    HW2 3883   1.758   3.160   2.390  0.5835  3.4807  0.2425
  971SOL     MW 3884   1.753   3.076   2.373 -0.6577  1.4522 -0.5948
  972SOL     OW 3885   0.290   2.848   2.416  0.8244  0.7997 -0.7612
  972SOL    HW1 3886   0.362   2.790   2.442  2.6340 -0.4430  0.6085
  972SOL    HW2 3887   0.316   2.934   2.454  0.7596 -0.1715 -0.0227
  972SOL     MW 3888   0.303   2.851   2.424  1.0546  0.5076 -0.4831
  973SOL     OW 3889   2.575   3.041   2.138 -0.4828 -0.1106 -0.6222
  973SOL    HW1 3890   2.567   2.949   2.103  0.5122  0.3440  1.6807
  973SOL    HW2 3891   2.604   3.092   2.058  0.5125  1.9763 -0.9411
  973SOL     MW 3892   2.578   3.035   2.123 -0.2202  0.2247 -0.3604
  974SOL     OW 3893   1.943   0.135   2.611 -0.1696  0.2262 -0.3348
  974SOL    HW1 3894   2.033   0.136   2.649 -0.2586 -1.5397 -1.3135
  974SOL    HW2 3895   1.906   0.049   2.627 -2.8165 -0.3469 -1.0067
  974SOL     MW 3896   1.950   0.124   2.618 -0.5306 -0.0824 -0.5526
  975SOL     OW 3897   2.221   2.487   2.501  0.2473  0.1008 -0.1285
  975SOL    HW1 3898   2.300   2.544   2.503  1.9307 -0.1405 -0.7690
  975SOL    HW2 3899   2.146   2.543   2.464 -1.5323 -2.2088 -1.6193
  975SOL     MW 3900   2.222   2.502   2.497  0.2346 -0.2358 -0.4097
  976SOL     OW 3901   0.169   0.373   1.684  0.0438 -0.3658 -0.4390
  976SOL    HW1 3902   0.222   0.311   1.740  1.1699 -1.4397  1.0942
  976SOL    HW2 3903   0.086   0.320   1.679  1.7812 -0.6372 -0.9221
  976SOL     MW 3904   0.165   0.358   1.691  0.4216 -0.5433 -0.3005
  977SOL     OW 3905   1.702   2.727   2.411  0.1795  0.8332 -0.8143
  977SOL    HW1 3906   1.762   2.651   2.402 -4.0498 -2.1383 -0.3596
  977SOL    HW2 3907   1.752   2.804   2.396  1.4304  0.7482  2.1388
  977SOL     MW 3908   1.717   2.727   2.408 -0.2135  0.4300 -0.3647
   3.10000   3.10000   3.10000
