977 TIP4P/2005f water molecules t=   0.00000 step= 0
 3908
    1SOL     OW    1   0.212   0.766   0.008 -0.3925 -0.5912 -0.6647
    1SOL    HW1    2   0.179   0.793  -0.080 -1.7174  0.9078  0.4768
    1SOL    HW2    3   0.226   0.670   0.002  3.7145  0.9600  0.8379
    1SOL     MW    4   0.209   0.757  -0.004 -0.0255 -0.1888 -0.3159
    2SOL     OW    5   0.317   3.047   1.109  0.6182 -0.5461 -0.0635
    2SOL    HW1    6   0.381   3.114   1.083 -0.6064 -0.7577 -1.1402
    2SOL    HW2    7   0.234   3.090   1.132  2.4406  1.8313  1.6578
    2SOL     MW    8   0.314   3.062   1.109  0.6971 -0.2604  0.0215
    3SOL     OW    9   2.790   0.366   0.882 -0.7928 -0.0527  0.1574
    3SOL    HW1   10   2.738   0.438   0.842  1.9337  0.2411 -0.1777
    3SOL    HW2   11   2.765   0.353   0.970  0.3638  0.1330  3.1555
    3SOL     MW   12   2.780   0.374   0.888 -0.2804  0.0106  0.5088
    4SOL     OW   13   3.079   1.669   0.721  0.3476  0.1726  0.2182
    4SOL    HW1   14   3.041   1.727   0.649 -2.0546 -1.9152  0.0024
    4SOL    HW2   15   3.148   1.612   0.689  1.7087  0.8811  4.9178
    4SOL     MW   16   3.083   1.669   0.707  0.2103 -0.0094  0.8098
    5SOL     OW   17   1.659   1.434   0.548 -0.0629 -0.1475  0.0215
    5SOL    HW1   18   1.725   1.391   0.607  1.6193 -1.2019 -0.6192
    5SOL    HW2   19   1.574   1.406   0.579  3.6849  2.4113 -1.1910
    5SOL     MW   20   1.656   1.425   0.560  0.6536  0.0510 -0.2230
    6SOL     OW   21   0.828   1.377   0.585 -0.6598 -0.4279 -0.3754
    6SOL    HW1   22   0.744   1.378   0.637  1.6386  0.4330 -1.9766
    6SOL    HW2   23   0.890   1.313   0.628 -0.5458 -1.9849 -1.1706
    6SOL     MW   24   0.825   1.369   0.598 -0.3415 -0.5197 -0.6916
    7SOL     OW   25   1.979   1.078   2.997  0.2285 -0.8463  0.5014
    7SOL    HW1   26   2.041   1.101   2.929  0.9311  1.7907  0.1125
    7SOL    HW2   27   2.013   1.106   3.086 -1.5868  2.3047  4.2768
    7SOL     MW   28   1.992   1.085   3.000  0.0817 -0.0826  0.9482
    8SOL     OW   29   0.994   1.292   1.065  0.4978  0.6894 -0.1669
    8SOL    HW1   30   1.084   1.282   1.082 -3.6479 -1.5778  1.1222
    8SOL    HW2   31   0.951   1.209   1.094  1.3156  0.7980 -2.6937
    8SOL     MW   32   1.000   1.280   1.071  0.0587  0.4046 -0.3302
    9SOL     OW   33   0.997   0.465   1.461 -0.0523  0.7211  0.5903
    9SOL    HW1   34   0.963   0.374   1.459  0.3308 -0.8767 -1.2616
    9SOL    HW2   35   1.064   0.450   1.526 -1.7044  0.4333  0.9412
    9SOL     MW   36   1.001   0.451   1.469 -0.2197  0.4723  0.3922
   10SOL     OW   37   0.301   0.877   0.455 -0.2064 -0.4949 -0.5679
   10SOL    HW1   38   0.387   0.876   0.403 -0.6085  0.7703  0.6432
   10SOL    HW2   39   0.331   0.922   0.534  1.2587 -1.6047 -0.6918
   10SOL     MW   40   0.316   0.883   0.459 -0.0661 -0.4744 -0.4245
   11SOL     OW   41   0.917   1.060   1.590  0.4584  0.3144  0.0104
   11SOL    HW1   42   0.914   1.089   1.683 -0.1681  1.1310  2.0578
   11SOL    HW2   43   0.829   1.023   1.574 -0.9682 -2.1802 -2.6804
   11SOL     MW   44   0.905   1.059   1.600  0.1875  0.0930 -0.0745
   12SOL     OW   45   3.059   1.032   0.859 -0.4634  0.1450  0.0869
   12SOL    HW1   46   3.066   1.070   0.942 -0.8675  0.0021  0.3726
   12SOL    HW2   47   3.008   1.090   0.810 -2.1351  1.3793  0.6566
   12SOL     MW   48   3.053   1.045   0.863 -0.7373  0.2890  0.1998
   13SOL     OW   49   1.914   1.379   1.438  0.3285  0.0821 -0.2170
   13SOL    HW1   50   1.949   1.333   1.361 -1.4151 -1.9950 -0.1081
   13SOL    HW2   51   1.927   1.476   1.410  2.7974  0.7507  1.1447
   13SOL     MW   52   1.920   1.386   1.424  0.4242 -0.1037 -0.0230
   14SOL     OW   53   0.612   0.373   1.776  0.2409 -0.3064  0.0380
   14SOL    HW1   54   0.606   0.304   1.711  0.8253 -1.2113  0.0286
   14SOL    HW2   55   0.698   0.366   1.815  1.2025 -0.9282  1.8241
   14SOL     MW   56   0.623   0.363   1.773  0.4449 -0.5079  0.2725
   15SOL     OW   57   1.997   0.594   0.974 -0.1625  0.1783 -0.3089
   15SOL    HW1   58   2.010   0.570   1.066  2.1034 -0.0626  0.1208
   15SOL    HW2   59   2.074   0.556   0.935 -0.4430 -0.4357  0.5367
   15SOL     MW   60   2.009   0.586   0.981  0.0994  0.0655 -0.1407
   16SOL     OW   61   0.140   1.750   0.308  0.4028 -0.0350 -0.1006
   16SOL    HW1   62   0.229   1.716   0.320  2.9204 -0.5086  0.0560
   16SOL    HW2   63   0.154   1.838   0.345  0.1912 -1.0008  0.2943
   16SOL     MW   64   0.154   1.757   0.314  0.7071 -0.2249 -0.0279
   17SOL     OW   65   1.135   0.805   1.444  0.4143 -0.1527 -0.3501
   17SOL    HW1   66   1.173   0.836   1.524  1.0328  2.2277 -0.2694
   17SOL    HW2   67   1.064   0.750   1.471  4.4932 -2.5932 -0.0494
   17SOL     MW   68   1.131   0.802   1.458  1.0341 -0.1606 -0.2998
   18SOL     OW   69   3.077   1.524   0.369  0.2704  0.0629  0.1903
   18SOL    HW1   70   3.106   1.603   0.324  0.7969  1.4242 -0.2957
   18SOL    HW2   71   3.093   1.455   0.303 -0.6418  2.2950 -0.8769
   18SOL     MW   72   3.083   1.525   0.354  0.2195  0.5370 -0.0147
   19SOL     OW   73   0.030   1.304   1.023  0.4491 -0.4879  0.1732
   19SOL    HW1   74   0.073   1.370   0.970 -0.8313 -2.6251 -0.2674
   19SOL    HW2   75  -0.065   1.325   1.016 -0.1766  2.6241  1.6312
   19SOL     MW   76   0.023   1.315   1.015  0.1976 -0.3593  0.3075
   20SOL     OW   77   0.460   2.180   1.259  0.0587 -0.3839  0.5652
   20SOL    HW1   78   0.423   2.119   1.186 -0.5156  0.4446 -0.4684
   20SOL    HW2   79   0.391   2.181   1.327 -1.7533  0.4484  1.3633
   20SOL     MW   80   0.446   2.172   1.258 -0.2561 -0.1648  0.5342
   21SOL     OW   81   0.560   0.874   0.343  0.6928  0.1873  0.6887
   21SOL    HW1   82   0.610   0.808   0.382 -1.2211  1.4202 -1.5690
   21SOL    HW2   83   0.542   0.840   0.250  0.9236  0.3608  0.6369
   21SOL     MW   84   0.564   0.861   0.336  0.4707  0.3728  0.3840
   22SOL     OW   85   1.600   0.617   1.135 -0.0572  0.5082  0.1597
   22SOL    HW1   86   1.656   0.563   1.072  0.4623  2.0751  1.2691
   22SOL    HW2   87   1.543   0.668   1.086  0.2894 -0.3682 -0.0395
   22SOL     MW   88   1.600   0.617   1.120  0.0571  0.5993  0.2798
   23SOL     OW   89   3.083   0.684   0.656 -0.0165  0.0314  0.1226
   23SOL    HW1   90   3.143   0.617   0.649  2.6631  0.7426  0.4806
   23SOL    HW2   91   3.138   0.747   0.700 -0.4158 -0.6474 -3.2003
   23SOL     MW   92   3.098   0.683   0.661  0.2844  0.0357 -0.2686
   24SOL     OW   93   2.023   2.222   3.065  0.1228  0.1634  0.0596
   24SOL    HW1   94   2.028   2.211   3.160  2.6091  0.4207 -0.1467
   24SOL    HW2   95   2.055   2.141   3.034 -0.4432  0.0551 -1.4993
   24SOL     MW   96   2.028   2.210   3.073  0.3761  0.1830 -0.1733
   25SOL     OW   97   0.170   1.508   0.581 -0.2533 -0.5409 -0.3045
   25SOL    HW1   98   0.109   1.516   0.507  1.8173 -1.3161 -2.0812
   25SOL    HW2   99   0.257   1.544   0.555  3.0656  0.3325 -0.1028
   25SOL     MW  100   0.173   1.514   0.568  0.4578 -0.5280 -0.5123
   26SOL     OW  101   1.994   1.035   0.393  0.1023  0.2135  0.0042
   26SOL    HW1  102   1.902   1.059   0.427 -0.6211 -2.8154 -1.2780
   26SOL    HW2  103   2.005   1.053   0.298  1.1355  0.2794  1.5490
   26SOL     MW  104   1.983   1.041   0.385  0.1432 -0.1774  0.0389
   27SOL     OW  105   2.016   1.373   0.255 -0.0761  0.4889 -0.0343
   27SOL    HW1  106   1.936   1.366   0.306  0.9464 -0.1216 -0.5256
   27SOL    HW2  107   2.070   1.431   0.310  2.3211  1.5477  0.5821
   27SOL     MW  108   2.013   1.380   0.269  0.3751  0.5480 -0.0178
   28SOL     OW  109   0.251   0.969   1.935  0.5687 -0.1036 -0.4656
   28SOL    HW1  110   0.188   0.902   1.975  2.6157  1.9562 -1.2583
   28SOL    HW2  111   0.298   0.921   1.871  0.3972  1.1303 -1.0243
   28SOL     MW  112   0.249   0.954   1.932  0.8161  0.3310 -0.6439
   29SOL     OW  113   0.228   1.409   0.862  0.4867  0.2386  0.8161
   29SOL    HW1  114   0.222   1.505   0.886 -1.1454 -1.4198 -0.4132
   29SOL    HW2  115   0.199   1.411   0.770  0.0432 -2.1946 -1.6336
   29SOL     MW  116   0.223   1.422   0.853  0.2129 -0.3013  0.3307
   30SOL     OW  117   0.896   1.064   1.160 -0.4985 -0.2960  0.0562
   30SOL    HW1  118   0.810   1.079   1.199 -0.9089 -0.4814  5.3110
   30SOL    HW2  119   0.954   1.071   1.238 -1.1485 -3.5660 -0.2047
   30SOL     MW  120   0.892   1.067   1.175 -0.6384 -0.7519  0.7151
   31SOL     OW  121   0.504   0.220   0.153  0.0582  0.4728  0.0797
   31SOL    HW1  122   0.497   0.161   0.234  2.2619  2.1748 -1.0423
   31SOL    HW2  123   0.488   0.156   0.077  0.2119  2.0883 -1.7827
   31SOL     MW  124   0.501   0.204   0.154  0.3692  0.9105 -0.3141
   32SOL     OW  125   2.703   1.020   1.147 -0.2166  0.6740 -0.0564
   32SOL    HW1  126   2.638   0.944   1.137 -1.8260  0.5446 -0.9248
   32SOL    HW2  127   2.789   0.968   1.139 -0.6815  0.0847 -0.7105
   32SOL     MW  128   2.706   1.003   1.145 -0.4903  0.5792 -0.2572
   33SOL     OW  129   1.754   1.289   0.338  0.7783 -0.1474  0.0262
   33SOL    HW1  130   1.743   1.207   0.379  0.8292  1.0216 -0.1986
   33SOL    HW2  131   1.706   1.347   0.405  1.6932 -0.7309  0.6906
   33SOL     MW  132   1.746   1.286   0.352  0.9057 -0.0701  0.0842
   34SOL     OW  133   1.270   1.854   1.121  0.2226 -0.4281 -0.7209
   34SOL    HW1  134   1.196   1.902   1.149 -0.5237 -1.9796  2.1091
   34SOL    HW2  135   1.338   1.880   1.182 -2.0907 -0.6036 -0.9516
   34SOL     MW  136   1.269   1.864   1.133 -0.1811 -0.6559 -0.3780
   35SOL     OW  137   0.335   0.096   1.903  0.5560 -0.2318 -0.2482
   35SOL    HW1  138   0.364   0.054   1.978 -0.3450 -1.5537  0.2094
   35SOL    HW2  139   0.363   0.044   1.828  0.1220 -0.2234 -0.6525
   35SOL     MW  140   0.343   0.084   1.903  0.3798 -0.4051 -0.2411
   36SOL     OW  141   1.822   1.925   0.466 -0.3620  0.4868  0.3002
   36SOL    HW1  142   1.824   1.909   0.372  2.2167 -2.4855  0.3049
   36SOL    HW2  143   1.847   1.832   0.489  0.7330  0.9400 -0.3467
   36SOL     MW  144   1.826   1.911   0.457  0.1227  0.1544  0.2155
   37SOL     OW  145   1.825   1.959   0.971  0.1419  0.4529 -0.8849
   37SOL    HW1  146   1.749   1.921   0.918  2.3658 -0.0277  2.0477
   37SOL    HW2  147   1.775   2.010   1.027 -0.5755 -0.4415 -0.1112
   37SOL     MW  148   1.808   1.961   0.971  0.3406  0.2715 -0.3959
   38SOL     OW  149   2.809   0.896   0.296  0.1302  0.2998  0.5593
   38SOL    HW1  150   2.875   0.901   0.374  0.8554 -0.5015  0.8326
   38SOL    HW2  151   2.866   0.891   0.216 -1.3096 -2.1223 -0.8781
   38SOL     MW  152   2.825   0.896   0.296  0.0359 -0.1255  0.4057
   39SOL     OW  153   1.422   0.625   0.816  0.3688  0.1958  0.0013
   39SOL    HW1  154   1.394   0.541   0.857  0.2493  0.6911 -1.4737
   39SOL    HW2  155   1.390   0.676   0.891 -1.2055 -2.5453 -1.0402
   39SOL     MW  156   1.414   0.621   0.831  0.1453 -0.1005 -0.3307
   40SOL     OW  157   1.303   1.887   0.216  0.0911  0.3035  0.4309
   40SOL    HW1  158   1.301   1.806   0.272  1.4711  2.5865  2.1794
   40SOL    HW2  159   1.309   1.951   0.282 -3.4422  1.6565 -2.3525
   40SOL     MW  160   1.304   1.885   0.232 -0.1930  0.7832  0.2944
   41SOL     OW  161   0.598   0.575   1.562 -0.5686  0.0997  0.0924
   41SOL    HW1  162   0.685   0.599   1.560  0.3012  2.1867 -0.5515
   41SOL    HW2  163   0.593   0.525   1.643  1.4711  0.2902 -2.2542
   41SOL     MW  164   0.609   0.572   1.572 -0.1847  0.4002 -0.3022
   42SOL     OW  165   1.363   3.067   1.996  0.6084 -0.1603  0.0658
   42SOL    HW1  166   1.280   3.063   2.052 -0.8125  1.1778  2.0228
   42SOL    HW2  167   1.411   2.985   2.023  2.0695  1.4848 -0.0463
   42SOL     MW  168   1.358   3.056   2.007  0.6137  0.2333  0.3092
   43SOL     OW  169   1.591   0.184   1.576 -0.3009 -0.2382  0.5758
   43SOL    HW1  170   1.644   0.142   1.504  0.8554 -0.6230 -1.5953
   43SOL    HW2  171   1.521   0.126   1.584  0.9202 -1.7259 -3.0618
   43SOL     MW  172   1.589   0.171   1.568  0.0128 -0.4853 -0.1906
   44SOL     OW  173   1.358   0.743   1.042 -0.2981  0.1632  0.3578
   44SOL    HW1  174   1.367   0.840   1.040  2.2720  1.1163  1.7077
   44SOL    HW2  175   1.348   0.710   1.134 -1.2734  1.9916  2.1725
   44SOL     MW  176   1.358   0.751   1.054 -0.0877  0.5302  0.7753
   45SOL     OW  177   0.999   0.852   0.807 -0.0567 -0.3579 -0.6502
   45SOL    HW1  178   1.036   0.765   0.836  1.6251  0.4539 -1.3383
   45SOL    HW2  179   1.004   0.858   0.704 -2.4839 -1.1993  2.0222
   45SOL     MW  180   1.005   0.841   0.797 -0.1551 -0.3618 -0.3884
   46SOL     OW  181   0.659   1.089   0.646 -1.0009  0.0382 -0.7111
   46SOL    HW1  182   0.702   1.096   0.564 -4.2112  0.9685  1.8068
   46SOL    HW2  183   0.719   1.131   0.708  1.2106  1.0181  0.0511
   46SOL     MW  184   0.673   1.095   0.643 -1.1327  0.2902 -0.2783
   47SOL     OW  185   0.050   1.775   1.815  0.1726  1.0211  0.4136
   47SOL    HW1  186   0.143   1.764   1.827  1.3883  0.7971  2.0228
   47SOL    HW2  187   0.010   1.736   1.893 -0.5396 -1.7822  0.6353
   47SOL     MW  188   0.057   1.768   1.827  0.2390  0.6217  0.6551
   48SOL     OW  189   1.056   0.638   0.962 -0.3428 -0.3941  0.6143
   48SOL    HW1  190   0.984   0.670   1.024  0.9082  0.1966 -0.0943
   48SOL    HW2  191   1.135   0.662   1.005  1.8590 -0.7632  0.7324
   48SOL     MW  192   1.057   0.645   0.976  0.1128 -0.3649  0.5364
   49SOL     OW  193   1.894   0.689   1.583 -0.2379  0.9855  0.2421
   49SOL    HW1  194   1.820   0.674   1.640  1.0520 -0.9758 -0.7172
   49SOL    HW2  195   1.950   0.608   1.578  1.5935 -0.1622 -0.1018
   49SOL     MW  196   1.892   0.676   1.590  0.1739  0.5753  0.0701
   50SOL     OW  197   1.297   1.028   0.565 -0.1069  0.1880  0.2782
   50SOL    HW1  198   1.265   1.057   0.651  0.6608  2.3998 -1.8928
   50SOL    HW2  199   1.337   0.943   0.590 -1.9791  2.7950 -2.5039
   50SOL     MW  200   1.298   1.021   0.580 -0.2526  0.8238 -0.3753
   51SOL     OW  201   0.310   2.909   0.872 -0.2083  0.0037  0.2580
   51SOL    HW1  202   0.399   2.869   0.878 -1.9296 -1.3330 -0.9659
   51SOL    HW2  203   0.316   2.967   0.950  1.1938 -1.7408 -1.2159
   51SOL     MW  204   0.323   2.911   0.883 -0.2504 -0.4028 -0.0979
   52SOL     OW  205   0.810   1.867   0.469  0.0552  0.6229  0.5861
   52SOL    HW1  206   0.785   1.955   0.502 -0.1270  2.5949 -0.5425
   52SOL    HW2  207   0.731   1.825   0.431  0.0905  1.1848 -1.5249
   52SOL     MW  208   0.796   1.873   0.468  0.0358  0.9572  0.1587
   53SOL     OW  209   0.389   2.054   0.649  0.4100  0.0040 -0.0505
   53SOL    HW1  210   0.314   2.029   0.587 -0.3370  1.7295 -0.6333
   53SOL    HW2  211   0.375   2.143   0.660 -0.0239  1.4494  1.8464
   53SOL     MW  212   0.377   2.062   0.642  0.2542  0.4224  0.1228
   54SOL     OW  213   2.180   0.855   0.848  0.3785 -0.3109 -0.0170
   54SOL    HW1  214   2.199   0.829   0.758  0.3358  0.9383  1.3261
   54SOL    HW2  215   2.090   0.840   0.857  0.3748 -0.8651  0.3661
   54SOL     MW  216   2.171   0.850   0.837  0.3724 -0.2192  0.2107
   55SOL     OW  217   0.502   1.457   1.543  0.2887  0.0085 -0.2658
   55SOL    HW1  218   0.457   1.517   1.486  2.2020  0.5264 -1.1744
   55SOL    HW2  219   0.571   1.415   1.484 -0.2176 -1.1820 -0.0298
   55SOL     MW  220   0.505   1.459   1.528  0.4743 -0.0803 -0.3546
   56SOL     OW  221   0.475   0.823   0.092  0.3070 -0.2809  0.5058
   56SOL    HW1  222   0.512   0.878   0.024  0.5876  3.0902  0.4336
   56SOL    HW2  223   0.381   0.817   0.070 -0.2849 -1.0942  1.4514
   56SOL     MW  224   0.467   0.829   0.080  0.2659  0.0565  0.6210
   57SOL     OW  225   1.241   1.208   1.182  0.3310  0.4898 -0.1283
   57SOL    HW1  226   1.331   1.222   1.215  0.0767  0.1705 -1.4678
   57SOL    HW2  227   1.216   1.138   1.243  1.6259 -1.4022  0.6768
   57SOL     MW  228   1.250   1.201   1.194  0.4683  0.1980 -0.1988
   58SOL     OW  229   0.663   1.107   1.294  0.6249 -0.4623 -0.6727
   58SOL    HW1  230   0.576   1.158   1.282  0.6907  0.5341 -0.4484
   58SOL    HW2  231   0.633   1.023   1.333 -1.7144  0.6595  0.5170
   58SOL     MW  232   0.648   1.103   1.298  0.3250 -0.1828 -0.4861
   59SOL     OW  233   1.573   1.612   0.348  0.1981 -0.5153 -0.3496
   59SOL    HW1  234   1.586   1.546   0.422 -0.8316 -0.2288 -0.2755
   59SOL    HW2  235   1.514   1.678   0.388 -1.4830  2.4301 -3.8918
   59SOL     MW  236   1.567   1.612   0.363 -0.1596 -0.0889 -0.8072
   60SOL     OW  237   0.028   0.151   1.695  0.1947 -0.6607 -0.3985
   60SOL    HW1  238  -0.053   0.204   1.712  0.1519  1.1033 -0.8868
   60SOL    HW2  239   0.003   0.059   1.710 -0.0711 -0.0120  0.2508
   60SOL     MW  240   0.014   0.146   1.699  0.1540 -0.3424 -0.3772
   61SOL     OW  241   2.045   1.468   3.026 -0.2414  0.3625 -0.1768
   61SOL    HW1  242   2.062   1.437   3.117 -1.3900 -0.6371  1.7907
   61SOL    HW2  243   2.084   1.396   2.975 -1.2392  3.1963  1.8956
   61SOL     MW  244   2.052   1.454   3.031 -0.5246  0.6045  0.3563
   62SOL     OW  245   0.576   1.625   0.545  0.6276  0.0402 -0.2745
   62SOL    HW1  246   0.641   1.613   0.469 -1.6987  1.0017 -0.6623
   62SOL    HW2  247   0.562   1.539   0.590 -0.8714 -2.6280  1.0504
   62SOL     MW  248   0.583   1.612   0.541  0.1229 -0.1850 -0.1508
   63SOL     OW  249   1.673   0.774   0.734  1.0286  0.3120  0.1835
   63SOL    HW1  250   1.653   0.804   0.643 -1.1113 -0.3953 -0.3631
   63SOL    HW2  251   1.608   0.713   0.769 -1.6037  1.8101 -0.3673
   63SOL     MW  252   1.662   0.770   0.727  0.3990  0.4163  0.0387
   64SOL     OW  253   0.239   1.691   0.959  0.1462  0.1616 -0.3346
   64SOL    HW1  254   0.297   1.738   0.905 -1.6403  1.1107 -0.9084
   64SOL    HW2  255   0.160   1.742   0.965 -1.2597 -1.8557  4.4010
   64SOL     MW  256   0.236   1.704   0.953 -0.2750  0.0207  0.2145
   65SOL     OW  257   1.623   2.289   0.292 -0.7955 -0.6644  0.8307
   65SOL    HW1  258   1.662   2.240   0.212  2.4241 -0.1286 -1.2706
   65SOL    HW2  259   1.628   2.377   0.271 -0.9791  1.3543  0.1460
   65SOL     MW  260   1.629   2.294   0.279 -0.3949 -0.3273  0.4631
   66SOL     OW  261   0.342   0.588   0.520 -0.5006  0.3883  0.1527
   66SOL    HW1  262   0.394   0.530   0.455 -2.8370  0.1311  0.2682
   66SOL    HW2  263   0.328   0.684   0.494 -2.1620 -0.6342 -0.1436
   66SOL     MW  264   0.347   0.593   0.508 -1.0281  0.2194  0.1289
   67SOL     OW  265   1.526   0.195   2.005 -0.4874  0.5192 -0.0428
   67SOL    HW1  266   1.568   0.214   1.920 -0.8083  0.0961  1.5950
   67SOL    HW2  267   1.493   0.110   1.984 -0.4558  0.5621  0.5803
   67SOL     MW  268   1.527   0.186   1.991 -0.5256  0.4690  0.2555
   68SOL     OW  269   0.767   0.086   2.985 -0.6003  0.0843  0.6746
   68SOL    HW1  270   0.757   0.074   2.889  2.4810 -4.4030  0.0863
   68SOL    HW2  271   0.738   0.178   3.002  1.9409 -2.0565  0.4748
   68SOL     MW  272   0.762   0.097   2.975  0.1415 -0.7902  0.5706
   69SOL     OW  273   1.030   0.160   1.960  0.0848  0.4666  0.4052
   69SOL    HW1  274   1.119   0.185   1.992 -1.6478  1.8595 -2.1286
   69SOL    HW2  275   1.016   0.065   1.981 -4.3858  1.6295  2.8997
   69SOL     MW  276   1.040   0.151   1.967 -0.7336  0.8038  0.4000
   70SOL     OW  277   0.578   1.815   1.125  0.1856  0.3115  0.4759
   70SOL    HW1  278   0.586   1.746   1.193 -0.3368 -1.5397 -1.8043
   70SOL    HW2  279   0.669   1.828   1.087 -2.2281  0.7488  0.2879
   70SOL     MW  280   0.591   1.808   1.129 -0.2018  0.1249  0.1502
   71SOL     OW  281   1.820   0.632   1.312  0.0319 -0.1086  0.2624
   71SOL    HW1  282   1.822   0.661   1.400  1.7937 -1.0038  1.1726
   71SOL    HW2  283   1.728   0.634   1.284  0.9816  1.8523  0.4695
   71SOL     MW  284   1.808   0.636   1.320  0.3897  0.0320  0.4098
   72SOL     OW  285   0.832   1.835   1.033  0.1019 -0.0390 -0.2284
   72SOL    HW1  286   0.823   1.885   0.952 -1.4322  0.4724 -0.9447
   72SOL    HW2  287   0.875   1.747   1.012 -1.0241 -1.7289  0.9098
   72SOL     MW  288   0.836   1.830   1.020 -0.2491 -0.1945 -0.1727
   73SOL     OW  289   1.291   0.632   1.322  0.4392 -0.6811  0.3569
   73SOL    HW1  290   1.233   0.560   1.291  1.8789 -0.6632 -1.6661
   73SOL    HW2  291   1.236   0.689   1.379  0.0263 -1.1143  0.7289
   73SOL     MW  292   1.276   0.630   1.325  0.5746 -0.7359  0.1391
   74SOL     OW  293   2.791   0.078   1.033  0.1805  0.1831  0.1591
   74SOL    HW1  294   2.727   0.029   0.974  1.1168  1.1238 -0.7710
   74SOL    HW2  295   2.876   0.040   1.018  0.3224  1.2269 -1.1926
   74SOL     MW  296   2.794   0.067   1.023  0.3228  0.4450 -0.1420
   75SOL     OW  297   1.620   1.257   0.083  0.7410  0.6964 -0.0460
   75SOL    HW1  298   1.666   1.269   0.173  0.3690 -2.0861 -0.4115
   75SOL    HW2  299   1.664   1.174   0.045 -2.8579 -0.9902 -0.2280
   75SOL     MW  300   1.632   1.248   0.090  0.2171  0.1068 -0.1182
   76SOL     OW  301   2.932   0.622   0.407  0.5092  0.1975  0.6841
   76SOL    HW1  302   2.986   0.656   0.484 -1.4910  1.7238  1.1450
   76SOL    HW2  303   2.987   0.606   0.329 -0.9624 -2.3629 -0.2128
   76SOL     MW  304   2.946   0.624   0.407  0.0511  0.0611  0.6266
   77SOL     OW  305   0.917   0.492   0.518  0.4504  0.0516 -0.0895
   77SOL    HW1  306   0.859   0.561   0.545 -4.6573 -2.6309  0.2346
   77SOL    HW2  307   0.845   0.431   0.493 -0.2805 -0.6379 -2.3467
   77SOL     MW  308   0.900   0.493   0.518 -0.3199 -0.3933 -0.3446
   78SOL     OW  309   0.935   0.742   1.216 -0.6102  0.0368  0.1318
   78SOL    HW1  310   0.853   0.723   1.255 -0.9977 -0.7436  0.9161
   78SOL    HW2  311   0.931   0.824   1.166 -0.9403  1.1335  2.2958
   78SOL     MW  312   0.924   0.750   1.215 -0.7048  0.0785  0.5208
   79SOL     OW  313   1.860   1.665   0.548  0.0084 -0.1041  0.3270
   79SOL    HW1  314   1.794   1.606   0.521 -0.5830 -1.0976 -0.7514
   79SOL    HW2  315   1.863   1.661   0.641 -0.4226 -2.7133  0.9878
   79SOL     MW  316   1.852   1.657   0.557 -0.1265 -0.5794  0.2719
   80SOL     OW  317   0.160   1.090   0.296 -0.1098 -0.1159 -0.1723
   80SOL    HW1  318   0.077   1.061   0.321 -1.6914  2.0774  1.1700
   80SOL    HW2  319   0.223   1.029   0.332 -1.3853  0.9386  0.5372
   80SOL     MW  320   0.157   1.078   0.304 -0.4868  0.3126  0.0984
   81SOL     OW  321   1.883   1.904   0.198  0.1961 -0.2640  0.3581
   81SOL    HW1  322   1.841   1.835   0.146  1.7257  0.2732 -1.0501
   81SOL    HW2  323   1.836   1.990   0.174  0.6796 -0.0059 -0.4585
   81SOL     MW  324   1.871   1.906   0.188  0.4617 -0.1591  0.0645
   82SOL     OW  325   0.924   0.858   0.552 -0.3481  0.2777 -0.4098
   82SOL    HW1  326   0.992   0.875   0.484  2.4462  0.2583  2.7799
   82SOL    HW2  327   0.869   0.797   0.505  0.4570 -0.3557 -0.4330
   82SOL     MW  328   0.926   0.852   0.537  0.1268  0.1916  0.0080
   83SOL     OW  329   0.058   0.583   1.356  0.2802 -0.3451  0.3262
   83SOL    HW1  330   0.090   0.664   1.310 -1.2835  1.9495 -1.6852
   83SOL    HW2  331   0.145   0.554   1.384 -0.1367  1.4151  0.2016
   83SOL     MW  332   0.074   0.590   1.354  0.0189  0.1899  0.0444
   84SOL     OW  333   0.070   0.287   1.043 -0.1342  0.3987  0.2722
   84SOL    HW1  334   0.018   0.271   0.962  1.0358 -1.7497  1.9207
   84SOL    HW2  335   0.075   0.204   1.088  1.3834  1.6628 -1.3711
   84SOL     MW  336   0.064   0.274   1.038  0.2204  0.2820  0.2728
   85SOL     OW  337   0.495   0.418   0.693 -0.4152 -0.3566  0.2752
   85SOL    HW1  338   0.446   0.478   0.643  2.0970  2.4152 -0.1380
   85SOL    HW2  339   0.430   0.356   0.731 -1.9860 -1.6312  2.3470
   85SOL     MW  340   0.480   0.418   0.691 -0.2910 -0.1590  0.4941
   86SOL     OW  341   1.118   0.460   1.191  0.4829  0.0979  0.2473
   86SOL    HW1  342   1.058   0.491   1.120 -2.1607  1.1470 -0.6525
   86SOL    HW2  343   1.063   0.456   1.270  1.3490 -0.4997  1.5529
   86SOL     MW  344   1.103   0.464   1.192  0.2484  0.1575  0.3008
   87SOL     OW  345   1.239   1.481   1.358  0.0687 -0.7208  0.5127
   87SOL    HW1  346   1.229   1.534   1.275  1.2814 -0.9597 -1.4951
   87SOL    HW2  347   1.257   1.398   1.320  1.9641 -0.0021  0.7208
   87SOL     MW  348   1.240   1.477   1.342  0.4788 -0.6575  0.2752
   88SOL     OW  349   1.343   1.012   0.993  0.0094 -0.2647 -0.0195
   88SOL    HW1  350   1.434   1.034   0.991 -2.0665 -1.1333 -0.1596
   88SOL    HW2  351   1.322   1.070   1.067 -2.6504 -0.1432 -2.2757
   88SOL     MW  352   1.352   1.023   1.002 -0.6155 -0.3633 -0.3357
   89SOL     OW  353   1.809   0.598   0.342  0.3112 -0.4252 -0.6159
   89SOL    HW1  354   1.871   0.524   0.360  1.4978 -0.3667 -0.9182
   89SOL    HW2  355   1.838   0.645   0.259 -2.3252 -0.4314 -3.2504
   89SOL     MW  356   1.821   0.594   0.333  0.1199 -0.4183 -1.0034
   90SOL     OW  357   0.810   1.221   2.842 -1.0790 -0.1374 -0.0113
   90SOL    HW1  358   0.837   1.144   2.883  1.0775  3.1458 -1.8747
   90SOL    HW2  359   0.850   1.297   2.891 -0.8339 -2.6318 -0.5758
   90SOL     MW  360   0.819   1.221   2.854 -0.7621 -0.0333 -0.3316
   91SOL     OW  361   1.930   0.788   0.500 -0.2145 -0.0370 -0.8580
   91SOL    HW1  362   1.920   0.868   0.442 -0.6616 -0.1556  0.0715
   91SOL    HW2  363   1.894   0.724   0.443 -2.6089  2.0959 -0.9251
   91SOL     MW  364   1.924   0.790   0.485 -0.5894  0.2287 -0.7442
   92SOL     OW  365   1.620   0.785   0.461  0.2878 -0.5686 -0.3044
   92SOL    HW1  366   1.527   0.757   0.488 -0.2176 -1.5545  1.5950
   92SOL    HW2  367   1.669   0.706   0.461  2.4638  1.6148  3.7365
   92SOL     MW  368   1.614   0.771   0.465  0.5082 -0.4106  0.4793
   93SOL     OW  369   1.007   0.247   0.381 -0.1829 -0.1403  0.4977
   93SOL    HW1  370   1.002   0.340   0.409 -2.2620 -0.3307  1.4543
   93SOL    HW2  371   0.938   0.221   0.319 -0.5412 -2.2577 -0.2204
   93SOL     MW  372   0.997   0.256   0.377 -0.5045 -0.4448  0.5291
   94SOL     OW  373   1.985   1.304   1.698 -0.4260  0.0648  0.2416
   94SOL    HW1  374   1.976   1.323   1.606  1.9256 -0.3699 -3.2327
   94SOL    HW2  375   1.941   1.216   1.702 -1.1060  0.0672 -2.0887
   94SOL     MW  376   1.978   1.295   1.686 -0.2054  0.0078 -0.5243
   95SOL     OW  377   0.942   1.566   1.015 -0.4625  0.0628 -0.1716
   95SOL    HW1  378   0.927   1.474   1.021  1.9568 -1.1314  0.7275
   95SOL    HW2  379   1.014   1.579   1.083 -1.8119  0.4037  0.1640
   95SOL     MW  380   0.950   1.556   1.025 -0.3214 -0.0498 -0.0087
   96SOL     OW  381   1.332   1.815   1.707 -0.2718  0.1351 -0.0988
   96SOL    HW1  382   1.248   1.845   1.730  0.4010  1.9943  1.2495
   96SOL    HW2  383   1.324   1.724   1.668 -0.9161 -0.0668  0.4596
   96SOL     MW  384   1.320   1.807   1.705 -0.2680  0.3538  0.1528
   97SOL     OW  385   1.231   1.426   0.861 -0.0257  0.4127  0.5659
   97SOL    HW1  386   1.232   1.467   0.953 -1.4267 -0.9872 -0.0642
   97SOL    HW2  387   1.162   1.476   0.812 -3.4218  1.0781 -0.5042
   97SOL     MW  388   1.222   1.438   0.867 -0.6587  0.3158  0.3416
   98SOL     OW  389   1.552   1.272   1.122 -0.2371 -0.2499  0.5921
   98SOL    HW1  390   1.580   1.340   1.181  2.1862 -0.8163  0.6474
   98SOL    HW2  391   1.571   1.307   1.034  2.4728 -1.8107  1.4981
   98SOL     MW  392   1.558   1.286   1.118  0.4402 -0.5305  0.7190
   99SOL     OW  393   1.429   0.376   1.203  0.2956 -0.8051  0.1171
   99SOL    HW1  394   1.506   0.422   1.171 -1.7148 -1.5374 -1.5400
   99SOL    HW2  395   1.415   0.423   1.280 -1.8355 -1.3548 -0.3980
   99SOL     MW  396   1.437   0.388   1.209 -0.2508 -0.9742 -0.1695
  100SOL     OW  397   1.068   1.046   1.364  0.3253 -0.1642  0.1273
  100SOL    HW1  398   1.011   1.063   1.446 -0.0525  0.3154 -1.7193
  100SOL    HW2  399   1.087   0.954   1.381 -1.1284  1.7656  0.6322
  100SOL     MW  400   1.063   1.036   1.377  0.0837  0.1537 -0.0497
  101SOL     OW  401   0.628   1.140   0.353  0.6737  0.1249 -0.0888
  101SOL    HW1  402   0.580   1.051   0.350  0.4802 -1.6300  0.4450
  101SOL    HW2  403   0.662   1.163   0.264 -0.1493 -0.0532  1.0613
  101SOL     MW  404   0.626   1.131   0.341  0.5396 -0.1302  0.1334
  102SOL     OW  405   2.883   0.684   0.930  0.5752 -0.7045 -0.1800
  102SOL    HW1  406   2.958   0.649   0.885 -0.2564  0.2632  2.2085
  102SOL    HW2  407   2.872   0.631   1.006  2.0537  3.9746  4.4619
  102SOL     MW  408   2.891   0.672   0.934  0.6606  0.0405  0.7476
  103SOL     OW  409   1.712   0.336   1.768  0.2987  0.1555 -0.1890
  103SOL    HW1  410   1.694   0.263   1.704 -0.4677  1.7251  0.0877
  103SOL    HW2  411   1.787   0.312   1.833 -2.7395 -0.0866  1.2063
  103SOL     MW  412   1.720   0.323   1.768 -0.2033  0.3306  0.0316
  104SOL     OW  413   0.082   1.801   1.475  0.4899  0.4352  0.2010
  104SOL    HW1  414   0.155   1.756   1.432 -1.9184  0.2293  0.7725
  104SOL    HW2  415   0.082   1.769   1.568 -1.3431  1.1379 -3.1103
  104SOL     MW  416   0.092   1.791   1.482 -0.0697  0.5008 -0.1605
  105SOL     OW  417   0.124   1.243   0.536  0.0840 -0.7901 -0.1700
  105SOL    HW1  418   0.138   1.185   0.460  1.5875 -0.3624  1.6934
  105SOL    HW2  419   0.188   1.314   0.534  0.8579 -0.4885  3.2532
  105SOL     MW  420   0.134   1.245   0.526  0.3845 -0.6939  0.5275
  106SOL     OW  421   0.815   0.335   0.905  0.5401 -0.5259  0.7175
  106SOL    HW1  422   0.760   0.411   0.900 -1.1864  2.7305  1.0949
  106SOL    HW2  423   0.893   0.353   0.857  1.1137 -1.5565  2.3014
  106SOL     MW  424   0.818   0.347   0.898  0.3880 -0.2322  0.9763
  107SOL     OW  425   0.797   2.211   3.060 -0.1221 -0.1196 -0.4780
  107SOL    HW1  426   0.772   2.154   2.986 -0.9273 -0.2683  2.6502
  107SOL    HW2  427   0.861   2.172   3.118  1.3724 -1.5093  2.6279
  107SOL     MW  428   0.802   2.198   3.058 -0.0312 -0.3226  0.3445
  108SOL     OW  429   1.374   1.562   1.598  0.4109 -0.0839 -0.5536
  108SOL    HW1  430   1.344   1.533   1.518 -0.5115 -1.2328  2.4349
  108SOL    HW2  431   1.423   1.493   1.643 -0.1073 -0.7784 -2.4805
  108SOL     MW  432   1.377   1.549   1.593  0.2209 -0.3271 -0.4136
  109SOL     OW  433   1.957   0.744   0.160 -0.0723  0.4440  0.6715
  109SOL    HW1  434   1.953   0.738   0.065  2.7267 -1.8196 -1.2208
  109SOL    HW2  435   2.044   0.789   0.167  0.1936 -1.9659  1.1079
  109SOL     MW  436   1.968   0.749   0.148  0.3321 -0.1726  0.4794
  110SOL     OW  437   0.458   1.800   0.759 -0.1126  0.0595 -0.3911
  110SOL    HW1  438   0.518   1.756   0.704  2.5517 -0.7231 -1.2747
  110SOL    HW2  439   0.435   1.885   0.720  1.3735 -0.2288 -0.0353
  110SOL     MW  440   0.463   1.805   0.747  0.4350 -0.0818 -0.4607
  111SOL     OW  441   0.697   0.902   1.514  0.0131  0.3680 -0.6615
  111SOL    HW1  442   0.768   0.832   1.528  0.9125  0.0961 -2.8323
  111SOL    HW2  443   0.623   0.879   1.572 -1.8068  0.3050 -0.4110
  111SOL     MW  444   0.697   0.890   1.523 -0.1084  0.3238 -0.9149
  112SOL     OW  445   1.316   1.140   1.626 -0.4970  0.2343 -0.5969
  112SOL    HW1  446   1.281   1.224   1.667  0.7958  0.0357  1.4466
  112SOL    HW2  447   1.262   1.066   1.657 -0.8161  3.1458 -2.4822
  112SOL     MW  448   1.304   1.141   1.635 -0.3685  0.5922 -0.5760
  113SOL     OW  449   1.328   0.025   1.678  0.6544  0.1079  0.2226
  113SOL    HW1  450   1.327  -0.022   1.762  0.8748 -0.5893 -0.8617
  113SOL    HW2  451   1.357  -0.029   1.602  0.2668 -0.7927  3.1294
  113SOL     MW  452   1.332   0.012   1.679  0.6323 -0.1029  0.4631
  114SOL     OW  453   0.454   2.780   1.851 -0.5588 -0.1414  0.0343
  114SOL    HW1  454   0.486   2.839   1.918 -1.3494  1.1132 -0.2449
  114SOL    HW2  455   0.434   2.829   1.772  2.3105  0.0495 -0.1964
  114SOL     MW  456   0.456   2.794   1.849 -0.2845  0.0493 -0.0330
  115SOL     OW  457   0.365   0.826   1.059  0.2215  0.4419 -0.3448
  115SOL    HW1  458   0.408   0.746   1.089 -0.7563 -1.4065 -2.8432
  115SOL    HW2  459   0.364   0.888   1.138  2.4703 -0.3996  0.2555
  115SOL     MW  460   0.371   0.824   1.073  0.3892  0.0870 -0.5952
  116SOL     OW  461   0.779   0.966   0.908 -0.1396  0.1578 -0.2257
  116SOL    HW1  462   0.858   0.920   0.874  1.8731  0.8956  1.7207
  116SOL    HW2  463   0.817   1.000   0.986  2.4549  0.2969 -0.8480
  116SOL     MW  464   0.794   0.964   0.914  0.4682  0.2735 -0.0510
  117SOL     OW  465   1.207   1.157   0.814  0.1603  0.6516 -0.2599
  117SOL    HW1  466   1.244   1.095   0.878  2.5660 -0.9858  1.5361
  117SOL    HW2  467   1.224   1.241   0.859  1.2956  2.5557 -0.0370
  117SOL     MW  468   1.214   1.160   0.828  0.6275  0.6868  0.0064
  118SOL     OW  469   3.084   2.981   1.718  0.5220 -0.0198 -0.1036
  118SOL    HW1  470   3.131   2.963   1.807  3.1378  0.2078  0.2513
  118SOL    HW2  471   2.985   2.980   1.739 -1.9775  1.4995 -1.3831
  118SOL     MW  472   3.077   2.978   1.733  0.5373  0.2107 -0.2256
  119SOL     OW  473   0.499   1.315   1.222  0.0797 -0.4506 -0.2017
  119SOL    HW1  474   0.523   1.324   1.122  1.8452 -2.5542  0.2958
  119SOL    HW2  475   0.404   1.331   1.221 -2.1412 -3.0502 -0.7347
  119SOL     MW  476   0.490   1.318   1.209  0.0196 -1.0711 -0.2064
  120SOL     OW  477   0.192   0.612   0.967 -0.1628 -0.3923 -0.1877
  120SOL    HW1  478   0.180   0.554   1.044  0.8231 -1.3326  2.2597
  120SOL    HW2  479   0.264   0.677   0.989 -0.4359  2.5856 -0.5029
  120SOL     MW  480   0.200   0.613   0.980 -0.0688 -0.1234  0.0936
  121SOL     OW  481   1.780   1.047   1.798  0.2707 -0.7532 -0.2110
  121SOL    HW1  482   1.711   1.030   1.735  3.1447  4.4001 -1.2185
  121SOL    HW2  483   1.808   0.963   1.828  0.5378 -1.7106  2.4589
  121SOL     MW  484   1.775   1.034   1.794  0.6852 -0.1996  0.0083
  122SOL     OW  485   0.147   0.474   0.724 -0.2794  0.0882  0.0576
  122SOL    HW1  486   0.216   0.515   0.670 -0.0437  1.4282 -1.8466
  122SOL    HW2  487   0.157   0.529   0.807  0.7717 -0.0956  0.3875
  122SOL     MW  488   0.157   0.487   0.728 -0.1096  0.2407 -0.1501
  123SOL     OW  489   1.723   1.051   0.475 -0.1892 -0.0051 -0.1199
  123SOL    HW1  490   1.685   0.966   0.450  0.7717  0.6663 -0.4909
  123SOL    HW2  491   1.746   1.054   0.570  0.6034 -2.2678  0.5094
  123SOL     MW  492   1.721   1.040   0.484  0.0422 -0.2151 -0.0858
  124SOL     OW  493   0.616   0.539   0.917  0.0457 -0.0095  0.3231
  124SOL    HW1  494   0.564   0.480   0.860  1.9317 -2.2345 -0.9679
  124SOL    HW2  495   0.624   0.614   0.858  1.0745  0.3944 -1.7932
  124SOL     MW  496   0.610   0.541   0.902  0.4302 -0.2497 -0.1265
  125SOL     OW  497   0.664   1.636   1.690 -0.7613  0.1795  0.0951
  125SOL    HW1  498   0.609   1.572   1.643  1.2301  0.6863  0.9041
  125SOL    HW2  499   0.622   1.725   1.670 -1.7488  0.6921 -0.4492
  125SOL     MW  500   0.651   1.639   1.681 -0.6288  0.3140  0.1300
  126SOL     OW  501   2.115   1.598   2.053  0.4594 -0.0809  0.0401
  126SOL    HW1  502   2.167   1.671   2.033  0.5235 -0.3821  2.0561
  126SOL    HW2  503   2.183   1.544   2.090 -0.6566  1.4931 -0.3100
  126SOL     MW  504   2.131   1.601   2.055  0.3206  0.0870  0.2599
  127SOL     OW  505   0.643   0.684   1.845 -0.0560 -0.3792  0.3141
  127SOL    HW1  506   0.691   0.612   1.874 -0.6762 -0.4992  1.1976
  127SOL    HW2  507   0.673   0.763   1.894  2.1906  2.4451 -0.5072
  127SOL     MW  508   0.653   0.685   1.855  0.1586 -0.0224  0.3223
  128SOL     OW  509   1.739   0.735   2.810 -0.0696 -0.1653 -0.0166
  128SOL    HW1  510   1.791   0.699   2.736  0.7293  0.1495  4.5302
  128SOL    HW2  511   1.739   0.829   2.790 -1.8556  0.3018 -0.6441
  128SOL     MW  512   1.746   0.743   2.798 -0.1998 -0.0621  0.5005
  129SOL     OW  513   1.626   0.855   0.171 -0.0306 -0.3384  0.6968
  129SOL    HW1  514   1.534   0.842   0.144  2.5988 -0.3684  0.7074
  129SOL    HW2  515   1.633   0.822   0.259 -0.7435 -5.0579 -1.4295
  129SOL     MW  516   1.615   0.849   0.179  0.2223 -0.9651  0.4176
  130SOL     OW  517   0.749   1.499   0.357  0.1963  0.6388 -0.1544
  130SOL    HW1  518   0.793   1.454   0.433  0.6692  0.9196 -0.9142
  130SOL    HW2  519   0.826   1.535   0.320  0.3581 -1.1436  1.1927
  130SOL     MW  520   0.765   1.498   0.362  0.2801  0.4407 -0.0769
  131SOL     OW  521   3.038   0.866   0.106 -0.3481 -0.4193 -0.4930
  131SOL    HW1  522   3.017   0.933   0.030 -0.5196  1.3047 -2.8996
  131SOL    HW2  523   3.128   0.836   0.080 -1.5888 -3.6967 -4.5929
  131SOL     MW  524   3.047   0.871   0.093 -0.5345 -0.6243 -1.3515
  132SOL     OW  525   2.724   0.095   1.302 -0.3518  0.4721 -0.2158
  132SOL    HW1  526   2.763   0.068   1.216  0.0398  0.8423 -0.2471
  132SOL    HW2  527   2.626   0.084   1.293 -1.0713  2.0820 -1.0552
  132SOL     MW  528   2.716   0.090   1.289 -0.3950  0.7334 -0.3307
  133SOL     OW  529   1.106   0.214   1.698 -0.6658  0.6171 -0.2557
  133SOL    HW1  530   1.174   0.143   1.696 -1.1504 -0.1588  2.1806
  133SOL    HW2  531   1.068   0.203   1.781 -1.3910 -0.6075 -1.3074
  133SOL     MW  532   1.110   0.203   1.709 -0.8254  0.3531 -0.0730
  134SOL     OW  533   1.372   2.539   1.496  0.1206  0.0900 -0.5967
  134SOL    HW1  534   1.308   2.609   1.478 -0.4384 -3.3221  1.3254
  134SOL    HW2  535   1.421   2.573   1.573 -0.5734 -1.3840  1.4993
  134SOL     MW  536   1.370   2.553   1.504 -0.0447 -0.5547 -0.0665
  135SOL     OW  537   2.996   1.040   2.992 -0.0062 -0.3940  0.7327
  135SOL    HW1  538   3.063   1.100   2.961 -2.4030 -0.9199 -1.5211
  135SOL    HW2  539   2.923   1.099   2.988 -0.7552 -1.2285  2.8530
  135SOL     MW  540   2.995   1.056   2.987 -0.4213 -0.5735  0.7151
  136SOL     OW  541   0.174   2.091   0.841  0.8754 -0.0816  0.7890
  136SOL    HW1  542   0.141   2.005   0.869  4.0035 -0.3893  0.2980
  136SOL    HW2  543   0.216   2.084   0.749 -0.2721  1.9677 -1.5754
  136SOL     MW  544   0.175   2.079   0.833  1.1367  0.1482  0.4122
  137SOL     OW  545   0.670   2.072   0.592  0.4397 -0.6239  0.8626
  137SOL    HW1  546   0.708   2.043   0.675  0.0578  4.1282  1.4707
  137SOL    HW2  547   0.577   2.082   0.600 -1.7192 -1.4322 -0.9650
  137SOL     MW  548   0.663   2.069   0.604  0.1045 -0.1036  0.7017
  138SOL     OW  549   0.464   0.594   1.126  0.5226  0.1417  0.0399
  138SOL    HW1  550   0.398   0.524   1.137 -1.4111 -3.1974  0.6222
  138SOL    HW2  551   0.512   0.564   1.049 -1.4348 -1.7632 -1.2013
  138SOL     MW  552   0.462   0.581   1.117  0.0092 -0.5502 -0.0471
  139SOL     OW  553   2.672   0.527   1.375  0.8643  0.1918  0.3089
  139SOL    HW1  554   2.713   0.441   1.396  2.4218  3.0853 -0.4002
  139SOL    HW2  555   2.733   0.596   1.395 -1.0116  0.9779  0.1999
  139SOL     MW  556   2.685   0.525   1.380  0.8223  0.6773  0.2010
  140SOL     OW  557   0.877   0.273   2.156  0.3336 -0.0737  0.4279
  140SOL    HW1  558   0.944   0.227   2.094  0.9562 -0.2981 -3.0587
  140SOL    HW2  559   0.929   0.280   2.239 -3.5101  0.8107  1.1554
  140SOL     MW  560   0.893   0.268   2.159 -0.0914  0.0133  0.0638
  141SOL     OW  561   1.045   0.686   1.769  0.2365  0.3374 -0.1918
  141SOL    HW1  562   1.096   0.612   1.736  2.3274 -0.8860  0.7986
  141SOL    HW2  563   1.105   0.761   1.758  0.3034  1.9438 -0.8815
  141SOL     MW  564   1.060   0.686   1.763  0.5212  0.3880 -0.1521
  142SOL     OW  565   0.932   1.147   0.722  0.1121 -0.3496  0.3312
  142SOL    HW1  566   0.953   1.060   0.724  0.8855 -0.3851 -2.2429
  142SOL    HW2  567   1.009   1.174   0.772  1.4936 -0.4470  1.0486
  142SOL     MW  568   0.945   1.139   0.729  0.3964 -0.3672  0.0862
  143SOL     OW  569   1.877   0.890   1.177  0.5739  0.5976  0.7034
  143SOL    HW1  570   1.918   0.907   1.092  2.9217 -2.2196 -0.8463
  143SOL    HW2  571   1.855   0.799   1.178 -0.5181 -0.6003  0.5073
  143SOL     MW  572   1.880   0.880   1.166  0.7396  0.0679  0.4730
  144SOL     OW  573   0.180   1.277   1.559  0.0304 -0.2629 -0.4303
  144SOL    HW1  574   0.251   1.219   1.534  2.4525  0.9400 -0.2277
  144SOL    HW2  575   0.154   1.262   1.651  0.2320 -1.1424 -0.3556
  144SOL     MW  576   0.186   1.267   1.568  0.3765 -0.2202 -0.3938
  145SOL     OW  577   0.309   0.374   1.160 -0.5149  0.1835 -0.2955
  145SOL    HW1  578   0.315   0.339   1.247  0.5455  0.3630 -1.2844
  145SOL    HW2  579   0.226   0.342   1.129  0.2073 -0.0328 -0.0232
  145SOL     MW  580   0.299   0.365   1.167 -0.2797  0.1786 -0.3900
  146SOL     OW  581   0.882   1.951   1.371 -0.3461 -0.2158 -0.0802
  146SOL    HW1  582   0.924   1.968   1.287 -0.0336  1.5091 -2.5436
  146SOL    HW2  583   0.784   1.948   1.359  1.8262  1.3495 -3.4093
  146SOL     MW  584   0.875   1.953   1.358 -0.0182  0.2183 -0.8445
  147SOL     OW  585   0.488   0.458   2.849 -0.2992 -0.8328 -0.2640
  147SOL    HW1  586   0.414   0.472   2.909  2.9554  2.0474  0.8477
  147SOL    HW2  587   0.514   0.550   2.828  3.0168  0.2509  2.1292
  147SOL     MW  588   0.482   0.472   2.854  0.5678 -0.3098  0.1984
  148SOL     OW  589   0.085   0.841   1.275 -0.0430  0.9161  0.6723
  148SOL    HW1  590   0.147   0.891   1.226  0.0151  0.4726  0.3746
  148SOL    HW2  591   0.063   0.893   1.354  1.8614  0.5256 -1.1942
  148SOL     MW  592   0.090   0.854   1.279  0.2160  0.8061  0.3867
  149SOL     OW  593   1.448   1.153   1.388 -0.5853 -0.3475 -0.5552
  149SOL    HW1  594   1.395   1.154   1.467 -0.7631 -3.2964 -0.2250
  149SOL    HW2  595   1.526   1.203   1.413  0.6031 -0.1005 -1.3807
  149SOL     MW  596   1.451   1.160   1.402 -0.4519 -0.7040 -0.6206
  150SOL     OW  597   1.841   1.317   0.744  0.5150  0.4143 -0.6296
  150SOL    HW1  598   1.854   1.229   0.716  1.2621  0.3627 -0.0225
  150SOL    HW2  599   1.917   1.334   0.805  1.2252 -1.2387 -0.8612
  150SOL     MW  600   1.853   1.308   0.748  0.7073  0.1894 -0.5800
  151SOL     OW  601   1.621   1.796   0.849 -0.1716  0.0858 -0.1954
  151SOL    HW1  602   1.571   1.796   0.764 -2.0591  1.4931 -2.6081
  151SOL    HW2  603   1.572   1.727   0.895  1.3407 -0.5237 -1.5478
  151SOL     MW  604   1.608   1.787   0.844 -0.2211  0.1911 -0.6922
  152SOL     OW  605   0.727   1.322   1.422  0.5492 -0.2711  0.0103
  152SOL    HW1  606   0.705   1.233   1.381 -1.4921 -1.6691  1.1738
  152SOL    HW2  607   0.820   1.328   1.432 -2.4956  0.0573  0.2648
  152SOL     MW  608   0.736   1.311   1.418 -0.1219 -0.4122  0.1974
  153SOL     OW  609   2.634   1.183   0.740 -0.5829 -0.0671  0.0290
  153SOL    HW1  610   2.664   1.168   0.650  1.6157  0.4187 -1.5077
  153SOL    HW2  611   2.573   1.107   0.737 -1.2152  3.9746  1.4879
  153SOL     MW  612   2.630   1.171   0.728 -0.3762  0.5302  0.0187
  154SOL     OW  613   0.323   1.761   1.743 -0.0033 -0.2102 -0.5786
  154SOL    HW1  614   0.357   1.772   1.658 -0.0961  0.4207 -0.9790
  154SOL    HW2  615   0.387   1.728   1.801  1.9931 -1.6848  0.1857
  154SOL     MW  616   0.336   1.758   1.739  0.2478 -0.3215 -0.5306
  155SOL     OW  617   1.105   0.693   0.216  0.0677  0.2446  0.5091
  155SOL    HW1  618   1.123   0.641   0.294 -1.4955  0.9348  0.3460
  155SOL    HW2  619   1.108   0.784   0.240 -0.1260 -0.0607  0.2559
  155SOL     MW  620   1.108   0.698   0.229 -0.1641  0.2954  0.4542
  156SOL     OW  621   1.616   3.042   0.984 -0.5189 -0.4099  0.3319
  156SOL    HW1  622   1.680   3.112   0.994  0.3554 -0.7929  1.4134
  156SOL    HW2  623   1.628   2.997   1.065  0.7223  0.5348  1.8720
  156SOL     MW  624   1.626   3.045   0.996 -0.2398 -0.3358  0.6778
  157SOL     OW  625   1.330   1.211   0.090  0.5771  0.1811  0.3014
  157SOL    HW1  626   1.313   1.211   0.181  0.6447 -2.0907 -1.4146
  157SOL    HW2  627   1.427   1.227   0.085  1.2321  2.4230  2.4548
  157SOL     MW  628   1.341   1.213   0.101  0.6725  0.1772  0.3591
  158SOL     OW  629   0.371   1.568   2.217 -0.1016 -0.1221 -0.3602
  158SOL    HW1  630   0.353   1.597   2.130  0.8411  2.4051 -0.5477
  158SOL    HW2  631   0.305   1.591   2.279  2.7985  2.4021 -0.0034
  158SOL     MW  632   0.360   1.575   2.214  0.4055  0.5444 -0.3378
  159SOL     OW  633   1.275   1.701   0.413 -0.4438  0.3397 -0.3780
  159SOL    HW1  634   1.238   1.615   0.377 -2.1939 -2.2157  2.8592
  159SOL    HW2  635   1.196   1.751   0.446 -2.1769  1.8634 -2.4172
  159SOL     MW  636   1.260   1.696   0.413 -0.9034  0.2036 -0.2200
  160SOL     OW  637   0.391   1.102   1.522 -0.1805 -0.1389  0.0624
  160SOL    HW1  638   0.400   1.034   1.589  0.7747 -2.0548 -2.1976
  160SOL    HW2  639   0.441   1.180   1.547  1.9115  1.0085 -0.5585
  160SOL     MW  640   0.399   1.103   1.534  0.2215 -0.2403 -0.3177
  161SOL     OW  641   0.517   2.154   2.660  0.4552 -0.3007 -0.4255
  161SOL    HW1  642   0.440   2.186   2.718  0.0282 -0.6164  0.7013
  161SOL    HW2  643   0.478   2.081   2.600 -1.9482  0.2161 -0.5039
  161SOL     MW  644   0.502   2.149   2.660  0.0818 -0.2742 -0.2872
  162SOL     OW  645   1.033   1.754   1.838 -0.2450  0.0735  0.1145
  162SOL    HW1  646   1.051   1.844   1.853 -1.8722  3.4272 -0.4265
  162SOL    HW2  647   0.944   1.738   1.860  0.1799  1.6099 -0.8202
  162SOL     MW  648   1.024   1.764   1.843 -0.4036  0.7187 -0.0802
  163SOL     OW  649   2.145   0.143   0.981  0.5472 -0.0487  0.4612
  163SOL    HW1  650   2.152   0.198   0.896 -1.5784  1.8503 -0.8738
  163SOL    HW2  651   2.088   0.072   0.960 -0.9941  0.4830  5.0973
  163SOL     MW  652   2.138   0.141   0.967  0.0634  0.2720  0.8968
  164SOL     OW  653   0.307   0.256   0.840 -0.1129 -0.0267  0.4724
  164SOL    HW1  654   0.238   0.308   0.882  1.4101 -3.7504  0.1921
  164SOL    HW2  655   0.258   0.182   0.805  1.7915 -3.2493  1.5813
  164SOL     MW  656   0.291   0.253   0.841  0.3393 -0.9432  0.5817
  165SOL     OW  657   1.406   1.193   0.382 -0.3000 -0.5305  0.0240
  165SOL    HW1  658   1.371   1.119   0.431  1.1005  1.1999  1.8769
  165SOL    HW2  659   1.459   1.151   0.317 -1.2385  1.2613  1.2170
  165SOL     MW  660   1.408   1.178   0.380 -0.2390 -0.0658  0.4259
  166SOL     OW  661   0.504   1.031   0.940  0.0427  0.0853  0.4445
  166SOL    HW1  662   0.465   0.951   0.980 -0.6956  1.0073  0.6640
  166SOL    HW2  663   0.597   1.018   0.951  1.4600  2.8834  1.7783
  166SOL     MW  664   0.511   1.019   0.947  0.1323  0.5762  0.6495
  167SOL     OW  665   0.960   1.200   0.357 -0.2757 -0.1042  0.0646
  167SOL    HW1  666   0.900   1.261   0.400  2.0277 -1.4527 -1.0704
  167SOL    HW2  667   0.939   1.192   0.268 -3.0185 -4.4512 -1.8117
  167SOL     MW  668   0.949   1.207   0.351 -0.3337 -0.8557 -0.3327
  168SOL     OW  669   1.685   1.743   2.916  0.1119 -0.2739  0.2302
  168SOL    HW1  670   1.636   1.822   2.945 -1.7337  1.4369 -3.6257
  168SOL    HW2  671   1.673   1.676   2.987  1.0239  0.1422  1.4894
  168SOL     MW  672   1.677   1.745   2.929 -0.0113  0.0067 -0.1124
  169SOL     OW  673   0.336   1.005   1.263  0.2517  0.0654  0.8896
  169SOL    HW1  674   0.337   1.025   1.360  0.4947 -2.5932 -1.0061
  169SOL    HW2  675   0.311   1.087   1.223 -1.4036  0.5484 -0.3281
  169SOL     MW  676   0.333   1.018   1.271  0.0654 -0.2216  0.4788
  170SOL     OW  677   1.027   1.464   1.532  0.0080  0.4155 -0.0318
  170SOL    HW1  678   0.957   1.524   1.508 -1.0728  0.4998  0.9078
  170SOL    HW2  679   1.113   1.489   1.493 -1.6867 -0.8097  1.0918
  170SOL     MW  680   1.029   1.475   1.524 -0.3582  0.2650  0.2404
  171SOL     OW  681   0.591   1.357   0.682 -0.1569  0.2629  0.2219
  171SOL    HW1  682   0.572   1.369   0.781 -2.5855 -2.1997 -0.6067
  171SOL    HW2  683   0.586   1.265   0.660  0.2847 -0.2416 -0.9144
  171SOL     MW  684   0.588   1.346   0.692 -0.4191 -0.1286 -0.0373
  172SOL     OW  685   0.827   0.291   1.174  0.1568  0.1584 -0.2888
  172SOL    HW1  686   0.817   0.323   1.086  0.6136 -0.3791 -0.1816
  172SOL    HW2  687   0.757   0.325   1.226  0.9156 -1.0594 -1.5058
  172SOL     MW  688   0.816   0.300   1.169  0.3172 -0.0732 -0.4352
  173SOL     OW  689   0.370   1.648   0.364 -0.1922 -0.1267 -0.4235
  173SOL    HW1  690   0.356   1.554   0.347 -0.6148  0.4696  0.5901
  173SOL    HW2  691   0.435   1.657   0.436 -0.0139 -1.1546  0.2670
  173SOL     MW  692   0.377   1.637   0.371 -0.2244 -0.1837 -0.1987
  174SOL     OW  693   2.040   0.906   1.482  0.1466  0.6967 -0.4525
  174SOL    HW1  694   1.977   0.837   1.523  1.0699 -2.8260  1.0186
  174SOL    HW2  695   1.984   0.977   1.463  0.8954 -0.3247 -1.3098
  174SOL     MW  696   2.024   0.906   1.485  0.3672  0.0972 -0.3715
  175SOL     OW  697   0.381   1.354   0.391 -0.2819  0.4450  0.3170
  175SOL    HW1  698   0.389   1.358   0.295  0.1135 -0.9618  2.0544
  175SOL    HW2  699   0.470   1.319   0.416 -1.2694 -0.3176 -0.1825
  175SOL     MW  700   0.394   1.350   0.382 -0.3600  0.1588  0.4803
  176SOL     OW  701   0.197   1.267   1.241 -0.1356 -0.3093 -0.1155
  176SOL    HW1  702   0.135   1.269   1.170  1.5310 -0.6371  2.0206
  176SOL    HW2  703   0.156   1.335   1.302  1.7823 -1.6014  0.4588
  176SOL     MW  704   0.183   1.276   1.240  0.3373 -0.5230  0.2421
  177SOL     OW  705   0.608   0.435   1.297 -0.3339 -0.0503 -0.7060
  177SOL    HW1  706   0.567   0.506   1.247 -0.3170 -1.5116 -0.0790
  177SOL    HW2  707   0.618   0.471   1.386  1.4656  0.6318 -0.5515
  177SOL     MW  708   0.604   0.449   1.302 -0.0942 -0.1531 -0.6029
  178SOL     OW  709   3.105   0.433   3.046  0.1504  0.1598 -0.1407
  178SOL    HW1  710   3.053   0.487   3.108  0.6655 -1.6378 -1.4902
  178SOL    HW2  711   3.063   0.442   2.960  2.8956  0.9282  2.8779
  178SOL     MW  712   3.093   0.441   3.043  0.5806  0.0240  0.0795
  179SOL     OW  713   1.637   1.321   1.479 -0.2733 -0.0702 -0.2994
  179SOL    HW1  714   1.610   1.334   1.572 -2.3166  2.0192  0.4674
  179SOL    HW2  715   1.738   1.315   1.481  0.8971  1.1558  1.2971
  179SOL     MW  716   1.647   1.322   1.492 -0.3885  0.3673  0.0124
  180SOL     OW  717   2.955   0.285   0.494  0.0368 -0.0124  0.0397
  180SOL    HW1  718   2.930   0.313   0.408  1.3341  1.1048  2.2143
  180SOL    HW2  719   2.978   0.366   0.544  0.3661  1.0441  2.9168
  180SOL     MW  720   2.955   0.299   0.489  0.2514  0.2744  0.7062
  181SOL     OW  721   1.147   1.355   3.049 -0.2804 -0.1221  0.1203
  181SOL    HW1  722   1.234   1.362   3.092 -0.4546 -2.9470 -0.5052
  181SOL    HW2  723   1.157   1.293   2.977 -1.9271 -0.8840 -0.5067
  181SOL     MW  724   1.160   1.348   3.045 -0.5207 -0.5954 -0.0450
  182SOL     OW  725   0.445   0.895   1.720 -0.0721 -0.3979  0.2256
  182SOL    HW1  726   0.363   0.845   1.717  0.7400 -2.2170 -0.2023
  182SOL    HW2  727   0.514   0.844   1.767 -3.3430 -0.8784  0.2508
  182SOL     MW  728   0.443   0.882   1.726 -0.3965 -0.7013  0.1724
  183SOL     OW  729   1.589   1.538   1.312 -0.2847 -0.6488  0.2364
  183SOL    HW1  730   1.569   1.610   1.376 -0.5427  0.2159 -0.1404
  183SOL    HW2  731   1.623   1.458   1.365  0.0939  0.7143  0.5457
  183SOL     MW  732   1.591   1.537   1.327 -0.2688 -0.3548  0.2275
  184SOL     OW  733   0.848   0.461   1.924 -0.6857  0.0418  0.0293
  184SOL    HW1  734   0.932   0.504   1.951 -0.9601 -1.4590  1.2187
  184SOL    HW2  735   0.844   0.393   1.993  1.2452  3.0473 -1.4139
  184SOL     MW  736   0.859   0.458   1.937 -0.4672  0.2403 -0.0042
  185SOL     OW  737   1.079   0.957   1.980  0.5368 -0.2270 -0.3502
  185SOL    HW1  738   1.080   0.861   2.004  1.1393 -0.5449 -0.2280
  185SOL    HW2  739   1.110   1.008   2.054  1.9145  1.0910  1.4001
  185SOL     MW  740   1.083   0.951   1.993  0.7981 -0.0950 -0.1031
  186SOL     OW  741   0.383   1.789   1.466 -0.5756 -0.2078 -0.0808
  186SOL    HW1  742   0.449   1.857   1.452 -2.3742 -1.3773 -2.4863
  186SOL    HW2  743   0.363   1.750   1.383  2.8031  2.2743 -2.1262
  186SOL     MW  744   0.389   1.793   1.453 -0.3671 -0.0346 -0.6681
  187SOL     OW  745   1.507   0.735   1.487  0.0961  0.3172 -0.0573
  187SOL    HW1  746   1.466   0.710   1.566  0.9807  0.6344 -0.3977
  187SOL    HW2  747   1.446   0.688   1.430  3.0546 -1.2197  2.0146
  187SOL     MW  748   1.494   0.726   1.490  0.6031  0.1562  0.1712
  188SOL     OW  749   1.912   1.049   0.692  0.0292  0.7484  0.1527
  188SOL    HW1  750   1.905   0.987   0.765  2.5377 -1.1364 -0.2272
  188SOL    HW2  751   1.998   1.026   0.649 -0.7484  2.6396  0.7922
  188SOL     MW  752   1.922   1.038   0.696  0.2576  0.7493  0.1869
  189SOL     OW  753   0.625   0.784   0.711  0.2635 -0.1245  0.1505
  189SOL    HW1  754   0.532   0.802   0.683  0.9942  2.4340 -0.8693
  189SOL    HW2  755   0.670   0.863   0.725 -0.4756  0.3872  1.8171
  189SOL     MW  756   0.619   0.797   0.709  0.2624  0.2806  0.2358
  190SOL     OW  757   1.943   0.335   1.934 -1.3955  0.3220  0.4896
  190SOL    HW1  758   2.012   0.280   1.888 -1.9903 -1.6031 -0.9990
  190SOL    HW2  759   1.972   0.427   1.929 -0.6416  1.3463 -1.0884
  190SOL     MW  760   1.956   0.340   1.927 -1.3745  0.2032  0.0850
  191SOL     OW  761   1.626   0.986   1.524 -0.0091 -0.0591 -0.6270
  191SOL    HW1  762   1.564   1.034   1.480  2.0261 -2.0309 -0.9793
  191SOL    HW2  763   1.605   0.893   1.510 -0.7696  0.2225  0.8432
  191SOL     MW  764   1.615   0.980   1.516  0.1591 -0.2821 -0.4795
  192SOL     OW  765   0.669   2.054   2.867 -0.1411 -0.2971 -0.1857
  192SOL    HW1  766   0.617   2.087   2.791  1.0325  1.7684 -0.9964
  192SOL    HW2  767   0.647   1.961   2.880  1.1801 -1.9628  0.7652
  192SOL     MW  768   0.659   2.046   2.859  0.1881 -0.2444 -0.1672
  193SOL     OW  769   0.983   1.568   0.730 -0.0001 -0.3371  0.6442
  193SOL    HW1  770   0.952   1.569   0.819  1.8590 -1.1136  0.2968
  193SOL    HW2  771   0.916   1.516   0.683 -2.0278 -1.1524 -0.8324
  193SOL     MW  772   0.970   1.561   0.736 -0.0224 -0.5471  0.4035
  194SOL     OW  773   0.522   1.322   0.958 -0.1034  1.1005  0.6297
  194SOL    HW1  774   0.522   1.228   0.941  3.4381 -1.3667  2.0195
  194SOL    HW2  775   0.434   1.349   0.934  0.9071  2.1242 -0.2601
  194SOL     MW  776   0.510   1.313   0.953  0.4971  0.9100  0.6956
  195SOL     OW  777   1.263   1.126   2.927  0.4663  0.2565 -0.3060
  195SOL    HW1  778   1.272   1.128   3.024  0.7832 -1.2592 -1.0915
  195SOL    HW2  779   1.189   1.065   2.916  1.0644  1.4579  0.2867
  195SOL     MW  780   1.254   1.118   2.938  0.5870  0.2150 -0.3314
  196SOL     OW  781   2.168   1.064   0.585  0.3870  0.0865 -0.3351
  196SOL    HW1  782   2.131   1.055   0.495 -0.0981  0.3253 -2.6643
  196SOL    HW2  783   2.155   1.159   0.599 -1.6009  0.3040 -1.3047
  196SOL     MW  784   2.161   1.075   0.575  0.0608  0.1467 -0.7704
  197SOL     OW  785   0.553   1.164   1.971 -0.4590 -0.1098  0.2440
  197SOL    HW1  786   0.571   1.070   1.949  0.1218  1.7875  0.5674
  197SOL    HW2  787   0.500   1.193   1.896  1.7683 -2.4964  3.3698
  197SOL     MW  788   0.548   1.155   1.958 -0.0885 -0.1743  0.6991
  198SOL     OW  789   2.883   1.427   1.083  0.8734  0.1535  0.6465
  198SOL    HW1  790   2.891   1.511   1.040 -0.8400 -2.7991 -0.7057
  198SOL    HW2  791   2.818   1.378   1.033  3.8617  4.2311 -0.2795
  198SOL     MW  792   2.875   1.432   1.071  1.0416  0.3019  0.3459
  199SOL     OW  793   0.418   1.302   1.757 -0.1154 -0.2306 -0.7973
  199SOL    HW1  794   0.329   1.281   1.734  0.5857  1.8332  0.8653
  199SOL    HW2  795   0.432   1.371   1.690 -1.3313 -4.9841  0.4497
  199SOL     MW  796   0.408   1.308   1.745 -0.1833 -0.5855 -0.4134
  200SOL     OW  797   1.948   3.009   1.242 -0.8966 -0.3912  0.3316
  200SOL    HW1  798   1.970   3.012   1.149  2.0577  3.2287  0.5283
  200SOL    HW2  799   1.865   3.053   1.257  0.0280  0.5812 -1.0044
  200SOL     MW  800   1.940   3.015   1.232 -0.3848  0.2147  0.1813
  201SOL     OW  801   1.044   0.305   0.735 -0.1131  0.0409 -0.0737
  201SOL    HW1  802   1.024   0.209   0.726  2.9791  0.0626 -0.6610
  201SOL    HW2  803   1.036   0.335   0.646  0.7241 -2.0031  2.8830
  201SOL     MW  804   1.040   0.296   0.722  0.4054 -0.2259  0.2389
  202SOL     OW  805   1.512   1.593   1.011  0.6268 -0.1752 -0.5907
  202SOL    HW1  806   1.545   1.523   0.950  0.3108 -1.4413  1.9166
  202SOL    HW2  807   1.563   1.578   1.091  1.2581  2.6405  0.3180
  202SOL     MW  808   1.523   1.582   1.014  0.6684  0.0292 -0.1400
  203SOL     OW  809   2.958   0.442   1.157  0.2062  0.1499  0.5901
  203SOL    HW1  810   3.041   0.397   1.143  4.0919 -0.1454  0.0213
  203SOL    HW2  811   2.964   0.499   1.229 -5.0521 -3.0722  1.3141
  203SOL     MW  812   2.970   0.444   1.165  0.0251 -0.3142  0.6106
  204SOL     OW  813   1.056   1.770   0.568  0.2763  0.7043  0.3094
  204SOL    HW1  814   1.037   1.694   0.624  0.5689 -1.6891  0.0826
  204SOL    HW2  815   0.971   1.794   0.530  0.7425  0.7944 -1.1434
  204SOL     MW  816   1.042   1.763   0.570  0.3764  0.4004  0.0878
  205SOL     OW  817   1.466   0.110   1.235  0.0901  0.2708 -0.4734
  205SOL    HW1  818   1.460   0.083   1.142 -1.9669  0.9542 -2.6348
  205SOL    HW2  819   1.409   0.188   1.235  1.3204 -1.0356 -2.9286
  205SOL     MW  820   1.458   0.117   1.223 -0.0190  0.1886 -1.0825
  206SOL     OW  821   0.423   3.059   1.344  0.2505 -0.1695 -0.1487
  206SOL    HW1  822   0.384   3.038   1.256  3.0065  1.2746  0.4634
  206SOL    HW2  823   0.495   2.996   1.354  1.8485 -0.5465  0.9849
  206SOL     MW  824   0.427   3.048   1.334  0.8250 -0.0287  0.0816
  207SOL     OW  825   0.971   1.590   0.252  0.2557  0.0621 -0.0254
  207SOL    HW1  826   0.984   1.679   0.208 -1.1922 -2.2119 -0.9380
  207SOL    HW2  827   1.053   1.550   0.245 -1.6841 -0.7566  1.2964
  207SOL     MW  828   0.984   1.596   0.245 -0.1913 -0.3459  0.0286
  208SOL     OW  829   0.595   1.600   1.303  0.2003 -0.1284  0.5705
  208SOL    HW1  830   0.678   1.616   1.350 -2.2831 -0.3055 -0.7145
  208SOL    HW2  831   0.596   1.507   1.268 -1.5227 -1.2413 -1.6431
  208SOL     MW  832   0.606   1.590   1.305 -0.3547 -0.2986  0.1089
  209SOL     OW  833   1.507   0.569   2.786  0.0433 -0.3043 -0.0103
  209SOL    HW1  834   1.578   0.637   2.791 -2.4131  1.5642 -0.2517
  209SOL    HW2  835   1.565   0.488   2.769  1.6481 -0.4890  1.0489
  209SOL     MW  836   1.524   0.567   2.784 -0.0691 -0.0822  0.0976
  210SOL     OW  837   1.605   1.387   0.874 -0.2620 -0.1682 -0.3823
  210SOL    HW1  838   1.694   1.382   0.836 -0.3350 -0.9484 -0.6573
  210SOL    HW2  839   1.538   1.361   0.807  1.0137 -0.2585 -0.9641
  210SOL     MW  840   1.608   1.383   0.860 -0.1033 -0.2831 -0.4954
  211SOL     OW  841   1.750   0.454   0.958  0.2372  0.7975 -0.0691
  211SOL    HW1  842   1.722   0.448   0.859 -0.0867  3.0551 -1.5027
  211SOL    HW2  843   1.842   0.482   0.954 -0.6384  0.9345 -2.0858
  211SOL     MW  844   1.758   0.457   0.944  0.0789  1.1134 -0.5243
  212SOL     OW  845   0.322   1.140   0.042 -0.1775 -0.2583 -0.1178
  212SOL    HW1  846   0.274   1.100   0.112  1.2868 -1.6374  2.1590
  212SOL    HW2  847   0.399   1.083   0.038  2.8433 -0.2710  3.0813
  212SOL     MW  848   0.326   1.127   0.051  0.4143 -0.4420  0.6047
  213SOL     OW  849   0.534   1.663   3.092  0.2121  0.4595 -0.2574
  213SOL    HW1  850   0.522   1.733   3.164 -1.4936  0.2078 -2.0411
  213SOL    HW2  851   0.583   1.707   3.021 -0.6148  1.6062 -1.3156
  213SOL     MW  852   0.539   1.678   3.092 -0.1221  0.5776 -0.6323
  214SOL     OW  853   0.651   0.233   2.292 -0.4563  0.1907 -0.2977
  214SOL    HW1  854   0.594   0.296   2.237 -0.7863  2.1344  0.7074
  214SOL    HW2  855   0.738   0.227   2.245  1.8039 -1.9324  1.7313
  214SOL     MW  856   0.655   0.241   2.279 -0.2016  0.1671  0.1026
  215SOL     OW  857   0.466   0.679   2.626  0.1638  0.0429 -0.2618
  215SOL    HW1  858   0.479   0.655   2.536  0.1995  0.9934 -0.1830
  215SOL    HW2  859   0.384   0.638   2.649 -0.5659  0.6924  0.8337
  215SOL     MW  860   0.457   0.670   2.617  0.0722  0.2540 -0.1069
  216SOL     OW  861   3.026   3.095   2.824  0.1746  0.1935  0.5011
  216SOL    HW1  862   2.967   3.064   2.895  2.9791 -0.3018  1.4113
  216SOL    HW2  863   3.015   3.184   2.796 -0.4289  0.9653 -1.9814
  216SOL     MW  864   3.017   3.103   2.830  0.4650  0.2300  0.2937
  217SOL     OW  865   0.984   1.174   0.072  0.1235  0.3422  0.1795
  217SOL    HW1  866   0.996   1.095   0.018  0.5943  1.3903 -0.8744
  217SOL    HW2  867   1.050   1.235   0.042  2.8969  0.3727 -0.1217
  217SOL     MW  868   0.994   1.172   0.061  0.5515  0.4845  0.0007
  218SOL     OW  869   0.916   1.297   2.503  0.3390  0.3526 -0.0929
  218SOL    HW1  870   0.950   1.211   2.473  0.7495  2.5710 -0.6756
  218SOL    HW2  871   0.990   1.356   2.532  0.2163  2.0564  3.0653
  218SOL     MW  872   0.930   1.293   2.503  0.3770  0.8701  0.2469
  219SOL     OW  873   1.033   0.379   2.643 -0.2066  0.0721 -0.8148
  219SOL    HW1  874   1.066   0.467   2.664 -1.0286  1.5905 -2.8957
  219SOL    HW2  875   0.942   0.378   2.680 -3.6376 -1.4198 -0.7995
  219SOL     MW  876   1.025   0.390   2.651 -0.7678  0.0756 -1.0873
  220SOL     OW  877   1.723   0.543   2.193 -0.7481  0.4432 -0.5907
  220SOL    HW1  878   1.649   0.603   2.162  4.7903  0.7980  1.5384
  220SOL    HW2  879   1.694   0.457   2.157 -0.5727 -1.0067 -0.7724
  220SOL     MW  880   1.709   0.540   2.184  0.0058  0.2987 -0.3338
  221SOL     OW  881   0.390   1.382   2.910 -0.2281  0.3625 -0.1931
  221SOL    HW1  882   0.451   1.305   2.899 -2.6654 -1.7695 -0.1268
  221SOL    HW2  883   0.433   1.439   2.845  0.6568  2.2710  2.4951
  221SOL     MW  884   0.404   1.379   2.900 -0.4329  0.3330  0.1704
  222SOL     OW  885   0.350   0.959   2.734  0.5759  0.0936 -0.8723
  222SOL    HW1  886   0.321   0.974   2.647  2.9458 -1.5181  0.3746
  222SOL    HW2  887   0.404   0.878   2.714  0.3284  0.5927  1.1960
  222SOL     MW  888   0.353   0.950   2.720  0.8559 -0.0532 -0.4349
  223SOL     OW  889   3.047   2.024   2.661  0.1162  0.0824 -0.1257
  223SOL    HW1  890   3.113   1.964   2.689 -1.9008  0.0713  0.1125
  223SOL    HW2  891   3.091   2.088   2.598  1.8300  0.7575 -0.8480
  223SOL     MW  892   3.062   2.025   2.656  0.0762  0.1700 -0.1896
  224SOL     OW  893   1.551   0.804   2.509  0.0835  0.2029  0.7635
  224SOL    HW1  894   1.518   0.825   2.599 -1.4133 -1.2863 -1.3532
  224SOL    HW2  895   1.542   0.891   2.476 -0.1175 -2.0353  1.2960
  224SOL     MW  896   1.545   0.818   2.517 -0.1405 -0.2889  0.5545
  225SOL     OW  897   2.994   1.539   2.275  0.4084 -0.5181  0.0983
  225SOL    HW1  898   2.999   1.603   2.200  2.2559 -1.1264 -3.2366
  225SOL    HW2  899   2.923   1.569   2.328 -0.3983 -2.1883  0.3403
  225SOL     MW  900   2.985   1.551   2.272  0.5457 -0.8187 -0.3098
  226SOL     OW  901   0.425   1.513   2.669 -0.6229  0.3218  0.0567
  226SOL    HW1  902   0.507   1.466   2.637 -0.9571  1.3620 -0.9493
  226SOL    HW2  903   0.433   1.606   2.663  0.5176 -2.2099  0.9449
  226SOL     MW  904   0.437   1.519   2.664 -0.5165  0.1250  0.0411
  227SOL     OW  905   0.533   1.158   2.806 -0.7011  0.1729 -0.1619
  227SOL    HW1  906   0.565   1.201   2.728 -1.2741 -0.5951 -0.1577
  227SOL    HW2  907   0.463   1.102   2.792  3.2805  1.0441 -1.1016
  227SOL     MW  908   0.528   1.156   2.794 -0.2514  0.1865 -0.2853
  228SOL     OW  909   0.671   0.916   1.984 -0.1925  0.1225  0.3759
  228SOL    HW1  910   0.754   0.963   2.012 -1.2382  0.8176  1.1662
  228SOL    HW2  911   0.633   0.874   2.067 -0.3638  0.2002 -2.2991
  228SOL     MW  912   0.677   0.917   1.999 -0.3530  0.2245  0.1272
  229SOL     OW  913   0.272   0.512   3.065 -1.0840  0.2502 -0.0527
  229SOL    HW1  914   0.176   0.490   3.036  0.7701 -0.7006  0.6021
  229SOL    HW2  915   0.284   0.468   3.149  1.9378 -0.3599 -0.1986
  229SOL     MW  916   0.261   0.503   3.072 -0.4407  0.0442  0.0144
  230SOL     OW  917   1.701   1.407   2.111  0.1049 -0.2064 -0.0513
  230SOL    HW1  918   1.666   1.392   2.197 -2.3772  0.2590  0.9661
  230SOL    HW2  919   1.760   1.329   2.092  1.8380 -1.4538  0.5930
  230SOL     MW  920   1.704   1.395   2.120  0.0061 -0.3096  0.1680
  231SOL     OW  921   2.842   1.316   2.197 -0.0135 -0.2175  0.4067
  231SOL    HW1  922   2.903   1.390   2.202 -2.3476  1.2437  0.9987
  231SOL    HW2  923   2.778   1.331   2.130 -1.0829  4.5908 -2.2716
  231SOL     MW  924   2.842   1.328   2.189 -0.4626  0.6097  0.1315
  232SOL     OW  925   2.256   1.018   2.138  1.0391  0.9765 -0.1305
  232SOL    HW1  926   2.213   0.981   2.067  1.6860 -1.8987 -0.4940
  232SOL    HW2  927   2.223   0.977   2.223 -1.5413  0.7578  0.7777
  232SOL     MW  928   2.246   1.008   2.140  0.7840  0.5683 -0.0586
  233SOL     OW  929   2.028   0.602   1.881  0.0078  0.1498 -0.1990
  233SOL    HW1  930   2.095   0.584   1.819  0.1816 -2.4529 -0.5665
  233SOL    HW2  931   2.068   0.602   1.969 -2.5510 -2.5167  0.6638
  233SOL     MW  932   2.042   0.600   1.884 -0.3068 -0.5454 -0.1337
  234SOL     OW  933   0.213   0.948   2.487  0.0515 -0.5940  0.3351
  234SOL    HW1  934   0.118   0.946   2.498 -0.3066  1.3146 -0.0688
  234SOL    HW2  935   0.224   1.034   2.445 -3.7134  2.3089 -0.9548
  234SOL     MW  936   0.202   0.959   2.483 -0.4925  0.0408  0.1116
  235SOL     OW  937   0.995   3.049   2.783 -0.6944 -0.4503 -0.3351
  235SOL    HW1  938   1.040   2.980   2.832  1.1531  1.0913  0.7633
  235SOL    HW2  939   1.006   3.126   2.843  0.1456  2.2703 -2.2825
  235SOL     MW  940   1.002   3.050   2.797 -0.3398  0.1121 -0.4472
  236SOL     OW  941   2.934   0.578   0.123  0.2527  0.0855  0.5382
  236SOL    HW1  942   2.871   0.579   0.047 -2.1412 -0.2134 -2.1443
  236SOL    HW2  943   2.964   0.668   0.118 -1.4502 -4.0006  1.8161
  236SOL     MW  944   2.930   0.590   0.112 -0.2878 -0.4930  0.3529
  237SOL     OW  945   1.783   0.945   2.176 -0.4029 -0.3635  0.4795
  237SOL    HW1  946   1.815   1.028   2.133  0.2256 -2.1765 -0.6378
  237SOL    HW2  947   1.832   0.952   2.255 -0.6608 -0.4495 -0.6302
  237SOL     MW  948   1.794   0.957   2.181 -0.3540 -0.6141  0.1857
  238SOL     OW  949   1.035   1.774   2.949 -0.0704  0.1794  0.2577
  238SOL    HW1  950   0.998   1.690   2.966  0.0246  0.1284 -1.6213
  238SOL    HW2  951   1.130   1.754   2.950 -0.7335 -0.9487 -0.2856
  238SOL     MW  952   1.043   1.760   2.951 -0.1454  0.0238 -0.0619
  239SOL     OW  953   1.279   1.449   2.363  0.5210  0.1263 -0.3471
  239SOL    HW1  954   1.228   1.414   2.432  1.2721  1.7379 -0.3291
  239SOL    HW2  955   1.373   1.455   2.390  1.0063 -3.0690  1.1643
  239SOL     MW  956   1.285   1.445   2.376  0.6841 -0.0826 -0.1453
  240SOL     OW  957   0.599   0.828   2.213 -0.2552 -0.4348  0.5827
  240SOL    HW1  958   0.579   0.909   2.258 -0.1474 -1.8215  1.5396
  240SOL    HW2  959   0.698   0.815   2.225  0.7947  0.9118 -0.1745
  240SOL     MW  960   0.609   0.837   2.221 -0.1025 -0.4401  0.6090
  241SOL     OW  961   0.665   0.324   3.018 -0.1412 -0.0298 -0.0183
  241SOL    HW1  962   0.636   0.344   3.106 -0.7037 -3.5845  1.7788
  241SOL    HW2  963   0.588   0.347   2.966 -2.4383  0.1014  1.5758
  241SOL     MW  964   0.651   0.330   3.023 -0.5185 -0.4815  0.4291
  242SOL     OW  965   1.447   1.758   2.269  0.2734 -0.9673 -0.1780
  242SOL    HW1  966   1.413   1.825   2.335 -0.1017  2.2389 -1.0345
  242SOL    HW2  967   1.374   1.714   2.226  0.9597 -0.2543  0.8586
  242SOL     MW  968   1.433   1.761   2.272  0.3145 -0.4502 -0.1542
  243SOL     OW  969   1.073   0.232   2.371  0.0490 -0.3799 -0.2776
  243SOL    HW1  970   1.168   0.221   2.383 -1.7201 -1.2839  2.6250
  243SOL    HW2  971   1.046   0.288   2.440  0.8104  0.0692 -0.6132
  243SOL     MW  972   1.082   0.238   2.382 -0.0839 -0.4400  0.0611
  244SOL     OW  973   0.210   0.740   2.310  0.1185  0.2893 -0.2748
  244SOL    HW1  974   0.206   0.805   2.379 -0.8492  2.1949 -0.1331
  244SOL    HW2  975   0.304   0.701   2.313 -0.2928  2.0780  1.9535
  244SOL     MW  976   0.222   0.743   2.319 -0.0635  0.7767  0.0379
  245SOL     OW  977   1.328   0.133   2.306  0.5662 -0.0142  0.1421
  245SOL    HW1  978   1.341   0.042   2.291 -2.3961  1.1325  1.0402
  245SOL    HW2  979   1.410   0.176   2.295 -0.0508 -0.0476  1.6486
  245SOL     MW  980   1.341   0.127   2.303  0.0939  0.1327  0.4594
  246SOL     OW  981   1.164   1.132   2.171 -0.5073  0.1464  0.0025
  246SOL    HW1  982   1.117   1.087   2.243  0.7301  1.6891 -2.0422
  246SOL    HW2  983   1.252   1.138   2.207  0.1318 -1.0240 -0.0472
  246SOL     MW  984   1.169   1.127   2.185 -0.2597  0.1955 -0.2738
  247SOL     OW  985   0.611   0.557   0.126 -0.0067  0.6470  0.1868
  247SOL    HW1  986   0.567   0.636   0.095  0.6211 -1.9844 -3.6634
  247SOL    HW2  987   0.702   0.559   0.105 -0.4291  1.5348  2.4223
  247SOL     MW  988   0.617   0.568   0.119  0.0204  0.4169 -0.0263
  248SOL     OW  989   0.310   1.213   2.392  0.4973  0.4979  0.2660
  248SOL    HW1  990   0.350   1.262   2.319  0.3840 -2.4997 -0.8860
  248SOL    HW2  991   0.289   1.280   2.456  2.5960 -0.7921 -1.8043
  248SOL     MW  992   0.313   1.228   2.391  0.7593 -0.0678 -0.1591
  249SOL     OW  993   0.177   1.852   2.706 -1.0055 -0.4104 -0.2257
  249SOL    HW1  994   0.098   1.788   2.689 -0.5445 -1.7918  0.5129
  249SOL    HW2  995   0.224   1.810   2.779 -2.3520 -0.3451  2.3190
  249SOL     MW  996   0.173   1.838   2.713 -1.1223 -0.5841  0.2075
  250SOL     OW  997   2.169   0.845   2.317  0.2257  0.0906 -0.3350
  250SOL    HW1  998   2.240   0.782   2.296 -0.3271  0.9386  0.6582
  250SOL    HW2  999   2.200   0.891   2.399  0.4800  0.9296 -3.6529
  250SOL     MW 1000   2.182   0.843   2.325  0.1863  0.3132 -0.6417
  251SOL     OW 1001   0.056   0.802   2.082  0.7654 -0.2197  0.7490
  251SOL    HW1 1002   0.105   0.794   2.165  0.0340  2.8031 -1.3047
  251SOL    HW2 1003   0.068   0.711   2.044 -1.2240  2.0535 -0.3115
  251SOL     MW 1004   0.064   0.789   2.088  0.4064  0.4791  0.3381
  252SOL     OW 1005   1.690   1.001   2.810  0.5986  0.0286  0.0196
  252SOL    HW1 1006   1.715   1.031   2.898  1.0197  0.2046 -0.7932
  252SOL    HW2 1007   1.749   1.043   2.746 -0.0198 -1.7154 -0.0102
  252SOL     MW 1008   1.701   1.010   2.813  0.5725 -0.1783 -0.0916
  253SOL     OW 1009   1.154   1.738   2.527 -0.2091  0.0744  0.3022
  253SOL    HW1 1010   1.154   1.786   2.442  1.8276 -1.8337 -0.3897
  253SOL    HW2 1011   1.068   1.760   2.569  0.1383 -0.6948  0.7294
  253SOL     MW 1012   1.143   1.747   2.521  0.1054 -0.2788  0.2673
  254SOL     OW 1013   0.968   1.021   2.348  0.1542  0.6256 -0.0868
  254SOL    HW1 1014   0.958   0.927   2.340  0.2727 -1.6370  2.7444
  254SOL    HW2 1015   0.912   1.051   2.273 -0.2608  0.3807 -0.7879
  254SOL     MW 1016   0.959   1.013   2.337  0.1151  0.2948  0.1943
  255SOL     OW 1017   0.718   2.255   2.334 -0.2610  0.4654 -0.4322
  255SOL    HW1 1018   0.623   2.255   2.327  0.1500  0.1488  2.3007
  255SOL    HW2 1019   0.749   2.307   2.408 -2.8456 -0.6619 -1.0285
  255SOL     MW 1020   0.710   2.262   2.343 -0.5478  0.2749 -0.1503
  256SOL     OW 1021   1.211   2.853   2.989 -0.0749  0.2307 -0.3116
  256SOL    HW1 1022   1.229   2.762   2.968  0.2134 -0.1990 -1.7777
  256SOL    HW2 1023   1.278   2.891   2.928 -0.1998  0.9767 -1.5568
  256SOL     MW 1024   1.222   2.846   2.978 -0.0533  0.2724 -0.6693
  257SOL     OW 1025   0.143   1.865   0.028 -0.1636 -0.0934 -0.7037
  257SOL    HW1 1026   0.172   1.823   0.102  0.4663  1.7269  0.0705
  257SOL    HW2 1027   0.180   1.818  -0.049  2.7214  0.8423  1.3580
  257SOL     MW 1028   0.152   1.853   0.028  0.3001  0.2702 -0.3295
  258SOL     OW 1029   0.566   1.064   2.348 -0.4025 -0.4197  0.2239
  258SOL    HW1 1030   0.626   1.131   2.315 -0.5489 -1.6586 -1.3088
  258SOL    HW2 1031   0.478   1.108   2.360 -1.4610  1.4587  0.8684
  258SOL     MW 1032   0.562   1.079   2.345 -0.5614 -0.3353  0.1067
  259SOL     OW 1033   0.612   0.388   2.522 -0.5195  0.0473  0.0537
  259SOL    HW1 1034   0.555   0.330   2.563 -1.2778 -2.5739  3.2047
  259SOL    HW2 1035   0.641   0.342   2.440  1.1231 -1.2325  0.2948
  259SOL     MW 1036   0.608   0.374   2.517 -0.4028 -0.4674  0.5012
  260SOL     OW 1037   0.594   0.158   1.604 -0.2953  0.0074  0.5777
  260SOL    HW1 1038   0.540   0.177   1.519  2.5705  0.5118 -2.2730
  260SOL    HW2 1039   0.683   0.166   1.577 -0.8678  2.0435 -0.4127
  260SOL     MW 1040   0.599   0.162   1.589  0.0072  0.3426  0.0709
  261SOL     OW 1041   1.047   0.659   2.077 -0.1932 -0.2104  0.6410
  261SOL    HW1 1042   1.087   0.666   2.169 -0.8291 -0.7143  1.7029
  261SOL    HW2 1043   1.117   0.617   2.024 -0.1878  1.4706 -2.1950
  261SOL     MW 1044   1.062   0.654   2.082 -0.2764 -0.0551  0.4070
  262SOL     OW 1045   1.160   0.400   0.125 -0.2139  0.0818  0.1584
  262SOL    HW1 1046   1.235   0.347   0.148 -0.1574  0.8701  0.3373
  262SOL    HW2 1047   1.189   0.439   0.045  1.0191 -0.5966 -0.8243
  262SOL     MW 1048   1.174   0.398   0.117 -0.0437  0.0963  0.0524
  263SOL     OW 1049   0.420   3.036   2.446 -0.0989 -0.4661 -0.0251
  263SOL    HW1 1050   0.357   3.109   2.441 -1.0107  0.4797 -0.3713
  263SOL    HW2 1051   0.482   3.042   2.372 -1.4539  0.4127  1.4338
  263SOL     MW 1052   0.420   3.046   2.436 -0.3979 -0.2254  0.1217
  264SOL     OW 1053   1.429   1.354   1.980  0.4552 -0.3240 -0.0679
  264SOL    HW1 1054   1.355   1.389   2.033 -1.0494 -0.1534  0.2739
  264SOL    HW2 1055   1.498   1.382   2.036 -0.3172  0.8370  1.1662
  264SOL     MW 1056   1.428   1.362   1.994  0.1548 -0.1483  0.1400
  265SOL     OW 1057   0.764   2.732   2.200 -0.5153  0.7204 -0.0153
  265SOL    HW1 1058   0.786   2.634   2.186 -1.4752 -1.3309 -1.8136
  265SOL    HW2 1059   0.714   2.740   2.284  2.8361  2.4926  3.0591
  265SOL     MW 1060   0.760   2.720   2.209 -0.1998  0.6836  0.1530
  266SOL     OW 1061   0.849   0.786   2.249  0.1720  0.0267  0.9641
  266SOL    HW1 1062   0.885   0.736   2.173 -0.9542  1.4075  2.8716
  266SOL    HW2 1063   0.830   0.720   2.319  0.1568 -2.7185 -0.0191
  266SOL     MW 1064   0.851   0.771   2.248  0.0214 -0.1533  1.0861
  267SOL     OW 1065   1.376   1.774   2.692  0.0069  0.8045  0.3299
  267SOL    HW1 1066   1.442   1.710   2.670  0.1101 -0.8122 -2.4756
  267SOL    HW2 1067   1.295   1.759   2.645  2.1584 -1.9999 -1.8481
  267SOL     MW 1068   1.374   1.764   2.683  0.3044  0.2212 -0.3276
  268SOL     OW 1069   0.218   0.759   1.686 -0.5059  0.5793  0.1095
  268SOL    HW1 1070   0.161   0.820   1.632 -1.2594  3.6303 -0.4270
  268SOL    HW2 1071   0.221   0.675   1.641  1.2449 -2.1135 -1.9443
  268SOL     MW 1072   0.211   0.756   1.673 -0.3743  0.6266 -0.2322
  269SOL     OW 1073   1.342   1.954   2.459 -0.0514 -0.1994  0.0104
  269SOL    HW1 1074   1.354   1.897   2.536 -0.8136  1.3765  0.8057
  269SOL    HW2 1075   1.286   2.025   2.492 -0.1034  0.1418 -1.1563
  269SOL     MW 1076   1.336   1.956   2.474 -0.1588  0.0536 -0.0386
  270SOL     OW 1077   1.190   0.467   1.646  0.2402  0.4032  0.0363
  270SOL    HW1 1078   1.179   0.380   1.678 -0.7945 -0.3744 -1.0847
  270SOL    HW2 1079   1.283   0.460   1.605  0.0086  0.9796  2.0869
  270SOL     MW 1080   1.201   0.455   1.645  0.0731  0.3767  0.1589
  271SOL     OW 1081   0.920   0.022   2.520  0.1347 -0.2549 -0.6264
  271SOL    HW1 1082   0.912   0.048   2.614 -0.2172 -1.5009 -1.6527
  271SOL    HW2 1083   0.991   0.077   2.480 -0.1049 -1.4304 -1.5253
  271SOL     MW 1084   0.928   0.033   2.527  0.0567 -0.5744 -0.8804
  272SOL     OW 1085   1.364   2.977   2.790 -0.3880  0.2820 -0.5941
  272SOL    HW1 1086   1.315   3.012   2.711  1.3296 -2.2855  2.4239
  272SOL    HW2 1087   1.348   3.057   2.848 -3.2759  0.1175 -2.6906
  272SOL     MW 1088   1.355   2.992   2.787 -0.5424 -0.0785 -0.4725
  273SOL     OW 1089   1.421   0.928   2.825 -0.2611  0.0103 -0.5350
  273SOL    HW1 1090   1.514   0.947   2.815 -0.8621  0.3824 -1.1149
  273SOL    HW2 1091   1.371   1.013   2.844  2.9377 -1.6271  0.2997
  273SOL     MW 1092   1.427   0.942   2.826  0.0816 -0.1566 -0.5014
  274SOL     OW 1093   1.355   0.716   0.118 -0.4229  0.0533  0.2323
  274SOL    HW1 1094   1.395   0.633   0.148  0.2024  2.2853 -0.3762
  274SOL    HW2 1095   1.266   0.703   0.161  0.3358 -0.8422  1.1621
  274SOL     MW 1096   1.349   0.703   0.128 -0.2403  0.2297  0.2747
  275SOL     OW 1097   1.665   0.611   1.759  0.2853 -0.1665  0.4064
  275SOL    HW1 1098   1.687   0.662   1.837 -0.2625  1.0160  1.7724
  275SOL    HW2 1099   1.669   0.514   1.782  0.7953  0.0132 -3.0478
  275SOL     MW 1100   1.668   0.605   1.772  0.2803  0.0132  0.1309
  276SOL     OW 1101   0.145   1.186   1.829 -0.3331 -0.3584 -0.1942
  276SOL    HW1 1102   0.195   1.106   1.861 -0.0772  0.6589 -1.1516
  276SOL    HW2 1103   0.047   1.160   1.831 -1.5812  0.0701  2.5138
  276SOL     MW 1104   0.139   1.172   1.833 -0.4640 -0.1676  0.0368
  277SOL     OW 1105   1.914   1.356   2.702 -0.4482 -0.1628  0.4617
  277SOL    HW1 1106   1.962   1.421   2.646 -1.4318  0.3782  2.2247
  277SOL    HW2 1107   1.939   1.263   2.679  3.0927  3.5539  0.4558
  277SOL     MW 1108   1.924   1.352   2.692 -0.1108  0.3990  0.6935
  278SOL     OW 1109   1.392   0.705   1.752  0.1453  0.5534  0.5321
  278SOL    HW1 1110   1.341   0.640   1.805 -3.4218  2.3861 -0.9073
  278SOL    HW2 1111   1.487   0.699   1.782 -0.1625 -0.7307 -2.0829
  278SOL     MW 1112   1.398   0.696   1.763 -0.3660  0.6257 -0.0029
  279SOL     OW 1113   0.604   3.048   2.250 -0.0432 -1.4882  0.2612
  279SOL    HW1 1114   0.688   3.003   2.244  1.9040  2.5939 -0.7371
  279SOL    HW2 1115   0.631   3.143   2.261 -2.7852  0.8569  1.9739
  279SOL     MW 1116   0.619   3.055   2.251 -0.1481 -0.6402  0.3554
  280SOL     OW 1117   1.409   1.143   2.308  0.5667 -0.0092  0.2963
  280SOL    HW1 1118   1.435   1.080   2.242 -0.6219  2.3475  0.0868
  280SOL    HW2 1119   1.447   1.112   2.396  1.9256 -2.0559  0.7397
  280SOL     MW 1120   1.417   1.131   2.311  0.5892  0.0317  0.3271
  281SOL     OW 1121   1.322   1.351   2.701 -0.3042  0.4124  0.4875
  281SOL    HW1 1122   1.406   1.385   2.733  0.4595 -0.5170  1.3524
  281SOL    HW2 1123   1.308   1.278   2.757  1.7901 -1.0085 -0.6703
  281SOL     MW 1124   1.331   1.346   2.713  0.0729  0.1023  0.4489
  282SOL     OW 1125   1.156   1.338   1.730  0.1520 -0.8259  0.1123
  282SOL    HW1 1126   1.102   1.383   1.671 -2.0339  0.0745  0.8270
  282SOL    HW2 1127   1.093   1.274   1.769 -1.7800  1.2322 -0.9831
  282SOL     MW 1128   1.141   1.335   1.727 -0.3913 -0.4355  0.0621
  283SOL     OW 1129   0.715   1.212   0.086 -0.2464  0.1132 -0.4782
  283SOL    HW1 1130   0.815   1.196   0.087  2.1498 -1.0579 -0.4175
  283SOL    HW2 1131   0.713   1.310   0.082 -0.4410 -0.6547 -0.5654
  283SOL     MW 1132   0.728   1.223   0.086  0.0441 -0.1427 -0.4817
  284SOL     OW 1133   0.469   0.633   2.340  0.2668  0.2541  0.2776
  284SOL    HW1 1134   0.531   0.701   2.302 -0.6104  0.1374  0.4920
  284SOL    HW2 1135   0.480   0.543   2.307  2.5456  2.7009 -0.8982
  284SOL     MW 1136   0.479   0.630   2.331  0.4517  0.5615  0.1508
  285SOL     OW 1137   0.832   0.937   2.796  0.3749 -0.0528 -0.0231
  285SOL    HW1 1138   0.797   0.958   2.710  0.3666 -2.7313  0.3509
  285SOL    HW2 1139   0.760   0.873   2.824  1.4574  3.5450 -1.7946
  285SOL     MW 1140   0.818   0.931   2.788  0.5167  0.0685 -0.2075
  286SOL     OW 1141   1.117   1.470   2.588  0.6420  0.1956 -0.2906
  286SOL    HW1 1142   1.199   1.442   2.640 -1.6058 -1.6548  0.1648
  286SOL    HW2 1143   1.139   1.558   2.539  0.1454 -1.5192  0.1441
  286SOL     MW 1144   1.131   1.478   2.588  0.2799 -0.2748 -0.1732
  287SOL     OW 1145   1.099   0.942   0.374 -0.4289 -0.3285  0.6485
  287SOL    HW1 1146   1.151   0.967   0.452 -0.3522 -0.1853 -0.3491
  287SOL    HW2 1147   1.042   1.023   0.370 -0.0862 -1.0513  1.8642
  287SOL     MW 1148   1.098   0.956   0.384 -0.3736 -0.4050  0.6773
  288SOL     OW 1149   1.467   0.632   2.115  0.2128 -0.3592  0.4087
  288SOL    HW1 1150   1.441   0.594   2.203 -0.0302 -0.3001  0.3970
  288SOL    HW2 1151   1.466   0.728   2.132  2.3599  1.2440 -1.8066
  288SOL     MW 1152   1.463   0.640   2.129  0.4640 -0.1399  0.1149
  289SOL     OW 1153   0.737   0.929   2.541  0.9515  0.3540  0.4786
  289SOL    HW1 1154   0.798   0.990   2.506 -0.9551  0.9084 -3.0325
  289SOL    HW2 1155   0.660   0.939   2.491  0.9898  5.3829 -2.1191
  289SOL     MW 1156   0.735   0.938   2.530  0.7050  1.0907 -0.3274
  290SOL     OW 1157   0.859   0.673   1.570 -0.2136  0.2121  0.1159
  290SOL    HW1 1158   0.908   0.597   1.533  2.4501  0.6852 -1.4880
  290SOL    HW2 1159   0.907   0.682   1.655  2.7951  0.7421 -1.2510
  290SOL     MW 1160   0.872   0.664   1.576  0.5348  0.3444 -0.2760
  291SOL     OW 1161   0.270   0.356   0.220 -0.2499  0.2398  0.3690
  291SOL    HW1 1162   0.358   0.307   0.214 -1.3341 -0.6878 -0.2694
  291SOL    HW2 1163   0.206   0.297   0.183 -0.3061  0.6025  1.9989
  291SOL     MW 1164   0.273   0.342   0.214 -0.4004  0.1653  0.4998
  292SOL     OW 1165   0.912   0.531   0.077  0.0433 -0.0319 -0.0018
  292SOL    HW1 1166   0.959   0.612   0.103  1.3812 -0.4918 -0.8122
  292SOL    HW2 1167   0.969   0.472   0.129 -0.0374  0.9946 -2.7936
  292SOL     MW 1168   0.926   0.534   0.087  0.2092  0.0429 -0.4771
  293SOL     OW 1169   0.224   0.128   2.438  0.2090 -0.6063  0.1484
  293SOL    HW1 1170   0.147   0.072   2.415  1.4985 -3.0963 -0.3350
  293SOL    HW2 1171   0.204   0.166   2.522 -0.9971  3.1529 -3.9381
  293SOL     MW 1172   0.211   0.126   2.446  0.2200 -0.4389 -0.4545
  294SOL     OW 1173   1.419   0.588   2.387  0.3809  0.3809  0.2979
  294SOL    HW1 1174   1.474   0.656   2.432  0.3098 -0.8271  0.6123
  294SOL    HW2 1175   1.431   0.495   2.427  1.8062  1.2016  1.8059
  294SOL     MW 1176   1.428   0.585   2.398  0.5596  0.3298  0.5383
  295SOL     OW 1177   0.814   0.590   2.440 -0.2157 -0.1699 -0.2155
  295SOL    HW1 1178   0.746   0.521   2.446  2.2842  0.7415 -1.5264
  295SOL    HW2 1179   0.799   0.652   2.521  1.7358  0.7496 -0.9507
  295SOL     MW 1180   0.803   0.589   2.451  0.3716  0.0716 -0.4855
  296SOL     OW 1181   1.267   0.274   2.051  0.1782 -0.1682 -0.2237
  296SOL    HW1 1182   1.354   0.252   2.025 -0.3076  3.1458  0.5139
  296SOL    HW2 1183   1.267   0.294   2.145  3.6097  0.1573 -1.9714
  296SOL     MW 1184   1.278   0.274   2.060  0.5669  0.3120 -0.3569
  297SOL     OW 1185   1.461   0.427   1.553 -0.5710  0.5682 -0.4259
  297SOL    HW1 1186   1.527   0.491   1.587  1.6519  0.1851 -0.7433
  297SOL    HW2 1187   1.502   0.332   1.560 -1.3771 -0.1337  0.0487
  297SOL     MW 1188   1.475   0.423   1.558 -0.3841  0.4251 -0.4052
  298SOL     OW 1189   1.494   0.932   2.120  0.1916  0.7449 -0.5017
  298SOL    HW1 1190   1.453   0.968   2.039 -0.2265  1.3324 -1.1930
  298SOL    HW2 1191   1.586   0.949   2.118  0.0221  1.8403  0.5829
  298SOL     MW 1192   1.501   0.939   2.109  0.1141  0.9669 -0.4498
  299SOL     OW 1193   0.598   1.021   3.052 -0.7636 -0.7595 -0.6745
  299SOL    HW1 1194   0.631   1.079   3.120  0.4140 -1.6234  3.2373
  299SOL    HW2 1195   0.606   1.074   2.967  2.2160 -0.9819  1.6304
  299SOL     MW 1196   0.603   1.036   3.050 -0.2151 -0.9028  0.1457
  300SOL     OW 1197   1.197   1.031   2.553 -0.3481  0.1391  0.1286
  300SOL    HW1 1198   1.205   1.046   2.462  0.4957  1.3207 -2.4625
  300SOL    HW2 1199   1.161   0.946   2.578 -1.4428  0.6460 -3.1272
  300SOL     MW 1200   1.193   1.022   2.544 -0.3812  0.3619 -0.6429
  301SOL     OW 1201   1.374   0.732   0.538  0.1032 -0.3141 -1.0371
  301SOL    HW1 1202   1.384   0.703   0.628  0.2572 -1.1562 -1.0118
  301SOL    HW2 1203   1.302   0.673   0.497  1.3410 -0.1517  2.6366
  301SOL     MW 1204   1.366   0.720   0.544  0.2868 -0.4038 -0.5491
  302SOL     OW 1205   0.122   1.460   2.020  0.1574 -0.2283 -0.5200
  302SOL    HW1 1206   0.126   1.372   2.064 -2.5911 -0.4415 -0.5461
  302SOL    HW2 1207   0.083   1.515   2.086 -1.7782  0.1902 -0.0928
  302SOL     MW 1208   0.117   1.456   2.035 -0.4606 -0.2012 -0.4670
  303SOL     OW 1209   0.462   1.792   2.662  0.3736  0.4419  0.2845
  303SOL    HW1 1210   0.474   1.848   2.581  1.1635 -0.4493 -4.2078
  303SOL    HW2 1211   0.372   1.826   2.678 -1.2342  1.2529  1.1564
  303SOL     MW 1212   0.452   1.804   2.653  0.2657  0.4313 -0.1932
  304SOL     OW 1213   0.480   1.954   2.434  0.4282 -0.1025 -0.2360
  304SOL    HW1 1214   0.509   2.044   2.427  0.4391  0.1649  1.7335
  304SOL    HW2 1215   0.550   1.897   2.396 -2.0378 -1.1820  2.4060
  304SOL     MW 1216   0.493   1.958   2.428  0.1042 -0.2097  0.3724
  305SOL     OW 1217   1.168   0.562   0.457  0.2736  0.0563  0.2125
  305SOL    HW1 1218   1.091   0.545   0.503 -1.1851 -0.4008  2.0054
  305SOL    HW2 1219   1.200   0.470   0.446 -0.7200 -1.1096 -0.0778
  305SOL     MW 1220   1.162   0.548   0.462 -0.0500 -0.1579  0.4108
  306SOL     OW 1221   1.240   1.468   0.265 -0.5550 -0.6963  0.0019
  306SOL    HW1 1222   1.268   1.385   0.299  1.0781  2.2555  0.4525
  306SOL    HW2 1223   1.288   1.488   0.178 -0.4901 -2.2624  0.4100
  306SOL     MW 1224   1.250   1.460   0.258 -0.3310 -0.5134  0.1152
  307SOL     OW 1225   1.278   0.536   1.938  0.8117 -0.2084 -0.0302
  307SOL    HW1 1226   1.277   0.441   1.937  4.3302 -1.2522  1.1159
  307SOL    HW2 1227   1.336   0.564   2.010  1.5891 -0.0469 -0.4927
  307SOL     MW 1228   1.286   0.527   1.947  1.3785 -0.3248  0.0600
  308SOL     OW 1229   2.099   0.557   2.760  0.2585  0.3385 -0.1718
  308SOL    HW1 1230   2.056   0.461   2.736 -0.9882  2.8758 -3.8080
  308SOL    HW2 1231   2.194   0.554   2.755  2.3754 -0.8122 -1.0435
  308SOL     MW 1232   2.106   0.544   2.756  0.3733  0.5214 -0.7666
  309SOL     OW 1233   0.525   0.502   0.372  0.3665 -0.2995  0.2650
  309SOL    HW1 1234   0.574   0.424   0.403 -1.2530 -1.5459 -1.3094
  309SOL    HW2 1235   0.543   0.504   0.280  1.6902  0.0321  0.5316
  309SOL     MW 1236   0.534   0.492   0.364  0.3275 -0.4202  0.0925
  310SOL     OW 1237   0.414   0.508   1.898 -0.6042  0.4222  0.0906
  310SOL    HW1 1238   0.473   0.462   1.841  2.3911  0.7407 -1.4237
  310SOL    HW2 1239   0.466   0.589   1.903 -2.4657 -0.0900 -0.9635
  310SOL     MW 1240   0.429   0.513   1.891 -0.4546  0.3967 -0.2482
  311SOL     OW 1241   1.852   0.814   1.926 -0.8873 -0.3224  0.0762
  311SOL    HW1 1242   1.867   0.830   2.019 -0.0459  0.6297  0.3108
  311SOL    HW2 1243   1.912   0.749   1.902  1.1871  0.0522 -2.5515
  311SOL     MW 1244   1.862   0.808   1.935 -0.5026 -0.1474 -0.2396
  312SOL     OW 1245   1.735   2.647   0.025  0.5862  0.4180 -0.6125
  312SOL    HW1 1246   1.781   2.639   0.106 -1.9399 -0.7667 -0.5233
  312SOL    HW2 1247   1.640   2.616   0.046  0.6086  0.2220  1.0020
  312SOL     MW 1248   1.729   2.642   0.038  0.2559  0.2358 -0.3877
  313SOL     OW 1249   0.149   1.161   2.873  0.1464  0.1364  0.3091
  313SOL    HW1 1250   0.210   1.109   2.928  2.4992 -1.1622  2.2951
  313SOL    HW2 1251   0.194   1.198   2.797  0.9496  1.5037 -0.7604
  313SOL     MW 1252   0.163   1.159   2.870  0.5628  0.1454  0.4300
  314SOL     OW 1253   2.127   3.010   3.002  0.1398 -0.5524 -0.3826
  314SOL    HW1 1254   2.068   3.062   2.939  0.9931  1.2559 -0.7190
  314SOL    HW2 1255   2.158   3.096   3.058  1.1234  1.5064 -1.1340
  314SOL     MW 1256   2.123   3.028   3.001  0.3821 -0.0422 -0.5261
  315SOL     OW 1257   1.580   1.987   3.011 -0.1000  0.0549 -0.0719
  315SOL    HW1 1258   1.482   1.992   3.033 -1.2906  1.6615  1.7164
  315SOL    HW2 1259   1.609   2.040   2.935 -1.8063  0.3409  1.9001
  315SOL     MW 1260   1.571   1.995   3.004 -0.4823  0.3046  0.4242
  316SOL     OW 1261   1.211   0.586   2.750 -0.2633  0.3751 -0.8806
  316SOL    HW1 1262   1.304   0.587   2.727  0.9415  0.0030  2.1590
  316SOL    HW2 1263   1.206   0.635   2.832 -1.2554  0.5869  0.0267
  316SOL     MW 1264   1.223   0.593   2.758 -0.2352  0.3540 -0.3598
  317SOL     OW 1265   0.677   1.375   2.655  0.3637  0.1037 -0.6349
  317SOL    HW1 1266   0.706   1.322   2.728  1.3351  1.2673 -1.7808
  317SOL    HW2 1267   0.730   1.337   2.581 -0.0947 -3.4276 -2.8359
  317SOL     MW 1268   0.688   1.363   2.655  0.4314 -0.2087 -1.0765
  318SOL     OW 1269   1.316   0.456   2.989  0.2662 -0.3938 -0.2028
  318SOL    HW1 1270   1.231   0.460   2.937 -0.7370 -0.0084  1.5237
  318SOL    HW2 1271   1.375   0.509   2.934 -1.9456  1.2332 -2.2730
  318SOL     MW 1272   1.313   0.464   2.975 -0.1580 -0.1282 -0.2481
  319SOL     OW 1273   0.794   0.395   2.766  0.1085  0.3999 -0.4424
  319SOL    HW1 1274   0.719   0.399   2.708  0.4534  2.3600  1.0321
  319SOL    HW2 1275   0.751   0.351   2.841  0.4789  0.4431  0.0749
  319SOL     MW 1276   0.778   0.390   2.768  0.2029  0.6642 -0.1796
  320SOL     OW 1277   1.005   1.351   2.059  0.0080 -0.1559 -0.1671
  320SOL    HW1 1278   1.074   1.294   2.084 -0.2027 -2.8838  0.0620
  320SOL    HW2 1279   1.050   1.420   2.008  1.8244  0.1262  1.0665
  320SOL     MW 1280   1.020   1.353   2.056  0.2199 -0.4786  0.0259
  321SOL     OW 1281   1.039   0.980   2.956 -0.2357  0.1482 -0.2262
  321SOL    HW1 1282   0.962   0.969   2.893  3.7033 -0.9770  1.3998
  321SOL    HW2 1283   1.073   0.892   2.948 -1.7057  0.6977 -1.2192
  321SOL     MW 1284   1.033   0.967   2.947  0.0901  0.0722 -0.1427
  322SOL     OW 1285   1.195   0.895   1.715 -0.0671  0.1983 -0.2260
  322SOL    HW1 1286   1.277   0.836   1.732  1.1737  1.7706  0.4619
  322SOL    HW2 1287   1.153   0.926   1.796  0.0369 -1.5483  1.1287
  322SOL     MW 1288   1.200   0.891   1.728  0.1103  0.1753  0.0435
  323SOL     OW 1289   1.152   1.529   1.921  0.2362 -0.5382  0.1274
  323SOL    HW1 1290   1.174   1.461   1.853 -0.4073  0.5387  1.3678
  323SOL    HW2 1291   1.100   1.608   1.888 -0.8658 -0.1396 -2.5201
  323SOL     MW 1292   1.148   1.530   1.908  0.0059 -0.3435 -0.0582
  324SOL     OW 1293   1.473   1.073   2.541 -0.5588  0.2570 -0.3797
  324SOL    HW1 1294   1.381   1.071   2.566  3.0766  0.4612 -2.2832
  324SOL    HW2 1295   1.501   1.156   2.578  1.2929 -3.3602  4.7196
  324SOL     MW 1296   1.465   1.084   2.549  0.1652 -0.1933  0.0419
  325SOL     OW 1297   1.020   0.429   2.958 -0.7905  0.1018 -0.2920
  325SOL    HW1 1298   0.962   0.465   3.036 -1.0810  0.9982 -1.5238
  325SOL    HW2 1299   0.969   0.448   2.880 -2.6584  0.1956 -0.4724
  325SOL     MW 1300   1.006   0.436   2.958 -1.0753  0.2324 -0.4783
  326SOL     OW 1301   0.426   1.291   2.180  0.1737  0.9416 -0.3798
  326SOL    HW1 1302   0.463   1.255   2.103  0.1960 -0.3319 -0.6054
  326SOL    HW2 1303   0.419   1.379   2.144  3.7988 -0.4865 -1.0540
  326SOL     MW 1304   0.430   1.298   2.165  0.6549  0.5851 -0.4985
  327SOL     OW 1305   1.936   0.919   2.417 -0.4441 -0.7357  0.1081
  327SOL    HW1 1306   1.914   0.840   2.469 -2.6174  1.3758 -0.1730
  327SOL    HW2 1307   2.022   0.895   2.371  1.2681  0.3379  0.1203
  327SOL     MW 1308   1.944   0.905   2.418 -0.5050 -0.3155  0.0727
  328SOL     OW 1309   0.116   1.217   2.129 -0.1057  0.7816  0.5131
  328SOL    HW1 1310   0.137   1.196   2.035 -0.0966  3.5816 -0.8578
  328SOL    HW2 1311   0.196   1.211   2.184  2.2013 -0.8433  0.5933
  328SOL     MW 1312   0.129   1.213   2.124  0.1999  0.9367  0.3428
  329SOL     OW 1313   0.145   0.140   1.441 -1.1969  0.6982  0.5725
  329SOL    HW1 1314   0.099   0.135   1.530  2.7395 -0.9843  3.5081
  329SOL    HW2 1315   0.240   0.165   1.463  1.5939 -0.4241 -0.1579
  329SOL     MW 1316   0.151   0.143   1.456 -0.3093  0.3281  0.8635
  330SOL     OW 1317   0.426   2.971   2.067 -0.3361  0.3048 -0.4061
  330SOL    HW1 1318   0.503   2.985   2.132 -1.0098  0.5205 -0.5256
  330SOL    HW2 1319   0.358   2.940   2.125 -0.6075 -1.8937  0.7709
  330SOL     MW 1320   0.427   2.969   2.083 -0.4608  0.0432 -0.2665
  331SOL     OW 1321   0.723   1.198   2.186 -0.2186 -0.1361  0.1423
  331SOL    HW1 1322   0.668   1.162   2.116 -1.9028 -1.5300  1.0264
  331SOL    HW2 1323   0.733   1.293   2.169  0.3281  0.1330  2.0427
  331SOL     MW 1324   0.717   1.206   2.175 -0.3687 -0.2845  0.5097
  332SOL     OW 1325   1.325   1.754   2.992  0.9546  0.0181 -0.0750
  332SOL    HW1 1326   1.337   1.767   2.900  1.4278  2.2970 -2.4118
  332SOL    HW2 1327   1.333   1.844   3.019 -1.4898  0.3179 -1.1290
  332SOL     MW 1328   1.328   1.768   2.983  0.6945  0.3583 -0.5224
  333SOL     OW 1329   1.754   1.486   3.032 -0.3247 -0.0257  0.3670
  333SOL    HW1 1330   1.841   1.472   2.999  0.9749  2.5792 -0.9027
  333SOL    HW2 1331   1.716   1.402   3.056  0.3795 -0.3299  0.7192
  333SOL     MW 1332   1.760   1.473   3.031 -0.0603  0.2778  0.2460
  334SOL     OW 1333   1.214   0.027   2.610 -0.5342  0.0180 -0.0927
  334SOL    HW1 1334   1.136  -0.002   2.654  1.4947  0.4122  2.3175
  334SOL    HW2 1335   1.227   0.120   2.634 -1.0443 -0.1325 -1.8567
  334SOL     MW 1336   1.205   0.035   2.619 -0.3338  0.0501 -0.0074
  335SOL     OW 1337   1.234   0.771   2.961  0.6348  0.4032 -0.7862
  335SOL    HW1 1338   1.279   0.747   3.048  0.3474  2.7156  2.4565
  335SOL    HW2 1339   1.307   0.807   2.905  1.2564 -0.4465 -0.3725
  335SOL     MW 1340   1.250   0.773   2.965  0.6789  0.5962 -0.3038
  336SOL     OW 1341   0.994   1.171   1.843  0.0685 -0.9024 -0.4390
  336SOL    HW1 1342   0.963   1.237   1.903  0.6371 -0.6608  1.2954
  336SOL    HW2 1343   1.030   1.098   1.896 -3.0873  2.4372 -1.0866
  336SOL     MW 1344   0.995   1.170   1.858 -0.2729 -0.4299 -0.2956
  337SOL     OW 1345   0.662   1.784   2.848  0.0838 -0.1955 -0.1295
  337SOL    HW1 1346   0.595   1.783   2.775 -0.6187  0.5794 -1.3176
  337SOL    HW2 1347   0.736   1.731   2.822 -1.6914  3.2747  2.3014
  337SOL     MW 1348   0.663   1.777   2.835 -0.2431  0.3646  0.0345
  338SOL     OW 1349   1.056   0.781   2.628  0.1166  0.4300 -0.1321
  338SOL    HW1 1350   0.990   0.809   2.684 -1.3400  1.2496  0.7416
  338SOL    HW2 1351   1.120   0.730   2.683  0.3010 -1.6465 -3.0873
  338SOL     MW 1352   1.056   0.778   2.643 -0.0513  0.2642 -0.4067
  339SOL     OW 1353   1.412   1.075   1.889 -0.1242 -0.2084 -0.2706
  339SOL    HW1 1354   1.392   1.067   1.794 -1.6671  1.8360 -0.5618
  339SOL    HW2 1355   1.422   1.164   1.894  0.4240  0.1998  2.3339
  339SOL     MW 1356   1.411   1.086   1.877 -0.2554  0.1152  0.0346
  340SOL     OW 1357   1.404   1.515   0.044 -0.0845 -0.1937  0.2628
  340SOL    HW1 1358   1.394   1.600  -0.006 -0.3167 -2.1099  0.0841
  340SOL    HW2 1359   1.493   1.517   0.076 -1.3585 -0.2186  1.1082
  340SOL     MW 1360   1.414   1.526   0.042 -0.2832 -0.4498  0.3507
  341SOL     OW 1361   0.217   1.348   2.657  0.6337 -0.6548  0.3251
  341SOL    HW1 1362   0.272   1.424   2.648 -1.9633 -2.3097  2.8372
  341SOL    HW2 1363   0.131   1.357   2.614  0.9796  0.7323 -2.0812
  341SOL     MW 1364   0.213   1.359   2.650  0.3367 -0.6901  0.3391
  342SOL     OW 1365   1.412   0.276   0.056 -0.3379 -0.2374 -0.0337
  342SOL    HW1 1366   1.451   0.343   0.116  1.5492  1.2864 -0.5320
  342SOL    HW2 1367   1.389   0.337  -0.010  0.6334  0.3578  0.8871
  342SOL     MW 1368   1.414   0.293   0.055  0.0392  0.0422  0.0221
  343SOL     OW 1369   0.245   0.316   2.212 -0.1363 -0.5191  0.7057
  343SOL    HW1 1370   0.236   0.241   2.267  1.1961  1.6917 -0.3268
  343SOL    HW2 1371   0.199   0.295   2.134  0.9957  0.1551 -0.4476
  343SOL     MW 1372   0.238   0.303   2.209  0.1889 -0.1385  0.4173
  344SOL     OW 1373   1.712   2.164   0.080 -0.4170  0.5758 -0.4945
  344SOL    HW1 1374   1.766   2.229   0.022  1.0268 -0.3485 -1.0213
  344SOL    HW2 1375   1.654   2.117   0.022 -1.0054 -0.2944  3.6245
  344SOL     MW 1376   1.711   2.166   0.065 -0.3041  0.3390 -0.0205
  345SOL     OW 1377   0.619   1.562   2.340  0.8451 -0.0457 -0.2355
  345SOL    HW1 1378   0.530   1.568   2.301 -0.6914  1.3786 -0.1268
  345SOL    HW2 1379   0.678   1.525   2.267  1.7353  0.6145  0.5581
  345SOL     MW 1380   0.615   1.558   2.325  0.7598  0.2294 -0.1165
  346SOL     OW 1381   1.720   1.028   3.073 -0.9470 -0.6250  0.2402
  346SOL    HW1 1382   1.814   1.042   3.083 -0.1401 -0.3418 -1.2026
  346SOL    HW2 1383   1.694   0.965   3.139 -1.1660  1.5905 -0.9987
  346SOL     MW 1384   1.729   1.022   3.083 -0.8694 -0.2953 -0.1137
  347SOL     OW 1385   1.139   0.679   2.347 -0.2781 -0.2102 -0.3023
  347SOL    HW1 1386   1.228   0.682   2.379 -0.8501 -1.2256 -0.5828
  347SOL    HW2 1387   1.085   0.651   2.412  0.3698  2.3461 -2.7913
  347SOL     MW 1388   1.144   0.676   2.360 -0.2681 -0.0069 -0.6677
  348SOL     OW 1389   1.308   2.625   1.864  0.2628  0.3661 -0.1045
  348SOL    HW1 1390   1.364   2.537   1.885  1.2986 -0.1080 -0.6127
  348SOL    HW2 1391   1.349   2.695   1.915 -0.9548 -1.8780  2.0048
  348SOL     MW 1392   1.321   2.623   1.873  0.2388  0.0074  0.1068
  349SOL     OW 1393   1.323   0.275   2.694  0.0153 -0.2525 -0.0351
  349SOL    HW1 1394   1.251   0.323   2.732  0.1186 -2.2820  1.2778
  349SOL    HW2 1395   1.377   0.236   2.762  3.4509  1.2318  0.6152
  349SOL     MW 1396   1.321   0.276   2.708  0.4822 -0.3244  0.2239
  350SOL     OW 1397   1.932   0.689   2.598  0.1474 -0.4789  0.5632
  350SOL    HW1 1398   1.885   0.625   2.538 -1.9225  0.2639  0.9391
  350SOL    HW2 1399   1.994   0.628   2.639 -0.2233  0.0675  1.4192
  350SOL     MW 1400   1.934   0.673   2.595 -0.1746 -0.3088  0.7258
  351SOL     OW 1401   0.099   0.963   1.526 -0.5513  0.2025 -0.0469
  351SOL    HW1 1402   0.030   1.007   1.586  1.3841  1.4927 -1.4989
  351SOL    HW2 1403   0.148   1.033   1.487  3.2345  0.9325  2.2698
  351SOL     MW 1404   0.096   0.978   1.529  0.2036  0.4691  0.0672
  352SOL     OW 1405   0.809   1.592   2.706  0.0347 -0.4712 -0.3058
  352SOL    HW1 1406   0.885   1.552   2.748 -0.4203  1.1328  0.5101
  352SOL    HW2 1407   0.759   1.514   2.688  0.8178 -0.9056  1.8701
  352SOL     MW 1408   0.812   1.576   2.709  0.0780 -0.3169  0.0889
  353SOL     OW 1409   3.062   2.449   2.791 -0.0445  0.1152 -0.1021
  353SOL    HW1 1410   3.151   2.432   2.749 -3.3521 -0.2063  0.6941
  353SOL    HW2 1411   3.020   2.515   2.739 -0.8258 -1.6502 -2.0863
  353SOL     MW 1412   3.068   2.455   2.779 -0.5840 -0.1602 -0.2589
  354SOL     OW 1413   0.280   2.477   0.847  0.2971 -0.4203  0.5929
  354SOL    HW1 1414   0.335   2.455   0.918  0.9725 -0.7970  2.0054
  354SOL    HW2 1415   0.211   2.407   0.841  1.5042  0.4348  3.6728
  354SOL     MW 1416   0.278   2.465   0.856  0.5455 -0.3572  1.1856
  355SOL     OW 1417   0.040   2.224   0.362  0.0444  0.0200 -0.4343
  355SOL    HW1 1418  -0.023   2.153   0.384  0.6298 -3.4744 -1.3026
  355SOL    HW2 1419   0.034   2.283   0.439  0.8267  2.6318 -3.0027
  355SOL     MW 1420   0.031   2.222   0.375  0.2249 -0.0965 -0.8877
  356SOL     OW 1421   0.730   2.921   1.032 -0.0843  0.0183 -0.1376
  356SOL    HW1 1422   0.801   2.890   0.973  1.2505  1.4369 -0.9167
  356SOL    HW2 1423   0.650   2.878   0.993 -2.5308  0.7774 -2.5776
  356SOL     MW 1424   0.729   2.911   1.019 -0.2310  0.3057 -0.5623
  357SOL     OW 1425   1.788   2.990   0.389 -0.1602  0.5569 -0.2208
  357SOL    HW1 1426   1.756   2.905   0.425 -1.7031 -2.3837 -0.9245
  357SOL    HW2 1427   1.877   2.970   0.355 -2.4038  1.7072  0.8752
  357SOL     MW 1428   1.796   2.976   0.389 -0.6598  0.3207 -0.1691
  358SOL     OW 1429   0.496   0.145   1.016  0.1442 -0.0020 -0.5632
  358SOL    HW1 1430   0.568   0.116   0.962 -0.9412  2.6108  0.9964
  358SOL    HW2 1431   0.439   0.196   0.957 -0.7101  3.2934  0.9516
  358SOL     MW 1432   0.498   0.148   1.001 -0.1117  0.7775 -0.1576
  359SOL     OW 1433   0.899   2.769   1.935 -0.2467 -0.4777 -0.2445
  359SOL    HW1 1434   0.843   2.740   2.000  1.0454 -2.6156  0.4834
  359SOL    HW2 1435   0.937   2.684   1.899 -2.4479  0.0350 -0.2277
  359SOL     MW 1436   0.897   2.754   1.939 -0.3667 -0.6921 -0.1462
  360SOL     OW 1437   0.537   2.776   0.930 -0.3123 -0.3029  0.0498
  360SOL    HW1 1438   0.537   2.721   0.852  0.3254 -0.8458  3.7444
  360SOL    HW2 1439   0.538   2.706   0.996  0.1583  1.2447  0.5421
  360SOL     MW 1440   0.537   2.760   0.928 -0.1661 -0.1704  0.6022
  361SOL     OW 1441   0.180   2.714   1.364 -0.1901  0.1153  0.3110
  361SOL    HW1 1442   0.146   2.778   1.420  0.2975 -1.9339 -3.9171
  361SOL    HW2 1443   0.268   2.741   1.358 -0.4382 -2.6976  1.2413
  361SOL     MW 1444   0.187   2.726   1.371 -0.1585 -0.5262 -0.1242
  362SOL     OW 1445   1.455   2.454   0.621  0.3986 -0.5334 -0.0265
  362SOL    HW1 1446   1.494   2.371   0.634 -1.4573  0.5644 -0.4752
  362SOL    HW2 1447   1.453   2.507   0.702 -2.0546 -1.5416 -0.4461
  362SOL     MW 1448   1.460   2.450   0.633 -0.1699 -0.5216 -0.1410
  363SOL     OW 1449   0.272   0.025   0.675  0.3064 -0.6595  0.5526
  363SOL    HW1 1450   0.269  -0.050   0.743 -0.7775 -0.4410  2.2882
  363SOL    HW2 1451   0.192   0.032   0.621  2.2013  1.0005 -3.0310
  363SOL     MW 1452   0.261   0.016   0.677  0.4134 -0.4117  0.3088
  364SOL     OW 1453   0.766   0.172   0.243 -0.5632  0.2495 -0.1359
  364SOL    HW1 1454   0.744   0.086   0.283 -2.7352  0.2000  1.1020
  364SOL    HW2 1455   0.687   0.196   0.194  0.4456  0.2686  2.2698
  364SOL     MW 1456   0.753   0.164   0.242 -0.7166  0.2455  0.3448
  365SOL     OW 1457   1.030   1.985   1.144 -0.1104  0.5159 -0.3684
  365SOL    HW1 1458   1.002   2.077   1.118  2.4501  2.3906  3.8427
  365SOL    HW2 1459   0.967   1.925   1.093  0.8052 -2.4142 -1.0324
  365SOL     MW 1460   1.018   1.989   1.134  0.3482  0.3767  0.0996
  366SOL     OW 1461   2.870   2.634   1.011  0.0182 -0.4206 -0.0768
  366SOL    HW1 1462   2.943   2.644   1.077 -0.5854  0.1396 -4.2418
  366SOL    HW2 1463   2.902   2.660   0.925 -1.1672  2.2342  0.3353
  366SOL     MW 1464   2.884   2.639   1.008 -0.2178  0.0036 -0.5719
  367SOL     OW 1465   1.254   2.926   0.779 -0.2872  0.1459  0.3787
  367SOL    HW1 1466   1.193   2.994   0.814  1.0980 -1.0135  3.2817
  367SOL    HW2 1467   1.211   2.866   0.715  0.4245  1.4769  1.7774
  367SOL     MW 1468   1.240   2.927   0.775 -0.0105  0.1685  0.9462
  368SOL     OW 1469   1.712   0.490   0.689  0.5143 -0.1676 -0.2627
  368SOL    HW1 1470   1.775   0.420   0.699  1.0790 -1.2705  0.8044
  368SOL    HW2 1471   1.770   0.567   0.668  0.1089 -3.3398  0.4158
  368SOL     MW 1472   1.728   0.491   0.688  0.5353 -0.7316 -0.0324
  369SOL     OW 1473   0.122   2.458   1.730  0.9940  0.2009 -0.2233
  369SOL    HW1 1474   0.218   2.444   1.740 -0.3748  0.3528  0.2314
  369SOL    HW2 1475   0.112   2.554   1.757 -1.0841 -1.1483  3.1108
  369SOL     MW 1476   0.133   2.469   1.735  0.5392  0.0429  0.2766
  370SOL     OW 1477   0.712   0.052   0.882  0.4986  0.3699 -0.3632
  370SOL    HW1 1478   0.766   0.118   0.926  0.2808  0.4164  1.5738
  370SOL    HW2 1479   0.720  -0.030   0.944  0.3093  1.2586  1.3647
  370SOL     MW 1480   0.720   0.050   0.896  0.4449  0.4933  0.1203
  371SOL     OW 1481   1.380   2.997   1.443  0.4877 -0.2964  0.1573
  371SOL    HW1 1482   1.314   2.933   1.413 -0.3455 -1.5537 -2.0766
  371SOL    HW2 1483   1.397   3.050   1.363 -5.4662 -0.9638 -3.4576
  371SOL     MW 1484   1.374   2.996   1.428 -0.4078 -0.5504 -0.6144
  372SOL     OW 1485   0.774   2.313   0.485 -0.0261  0.1165  0.0201
  372SOL    HW1 1486   0.725   2.233   0.514  4.3832 -0.7127 -2.4512
  372SOL    HW2 1487   0.779   2.326   0.388 -2.0473 -1.2722 -0.5526
  372SOL     MW 1488   0.768   2.304   0.476  0.2890 -0.1761 -0.3815
  373SOL     OW 1489   2.825   2.979   1.423  0.2704 -0.5643  0.2097
  373SOL    HW1 1490   2.891   2.959   1.352  3.3889  0.1121  0.2212
  373SOL    HW2 1491   2.790   3.062   1.378 -1.4039 -0.7103 -0.6655
  373SOL     MW 1492   2.829   2.987   1.408  0.4609 -0.4943  0.0958
  374SOL     OW 1493   1.541   0.462   0.182 -0.4489 -0.1279 -0.3696
  374SOL    HW1 1494   1.599   0.509   0.129 -2.0924 -0.8592 -0.1103
  374SOL    HW2 1495   1.583   0.429   0.258 -0.2814 -4.1239  1.6607
  374SOL     MW 1496   1.554   0.464   0.185 -0.6436 -0.7516 -0.0675
  375SOL     OW 1497   1.102   2.111   2.270  0.2023 -0.1423 -0.6185
  375SOL    HW1 1498   1.132   2.155   2.350 -0.7357 -1.1897  1.2920
  375SOL    HW2 1499   1.091   2.017   2.290 -2.9104 -1.2632  0.1183
  375SOL     MW 1500   1.105   2.104   2.283 -0.3321 -0.4284 -0.2692
  376SOL     OW 1501   0.668   2.569   0.113  0.0064 -0.7317  0.7063
  376SOL    HW1 1502   0.730   2.533   0.176  0.0645 -2.3389 -0.8662
  376SOL    HW2 1503   0.621   2.499   0.074  0.4628  0.2868 -2.5427
  376SOL     MW 1504   0.670   2.555   0.116  0.0743 -0.8094  0.0702
  377SOL     OW 1505   1.296   2.034   0.889  0.1683  0.0306  0.6428
  377SOL    HW1 1506   1.215   2.018   0.844 -0.6786 -2.2209 -0.0838
  377SOL    HW2 1507   1.297   1.960   0.949  0.6743  0.3288 -1.6018
  377SOL     MW 1508   1.285   2.022   0.891  0.1233 -0.2271  0.2508
  378SOL     OW 1509   0.980   2.865   1.487 -0.5547  0.1299 -0.0967
  378SOL    HW1 1510   0.946   2.774   1.507  1.2285 -1.6738  1.0989
  378SOL    HW2 1511   0.964   2.864   1.393 -0.1564 -1.7867 -0.6339
  378SOL     MW 1512   0.973   2.853   1.477 -0.2669 -0.3609 -0.0098
  379SOL     OW 1513   1.075   1.841   2.282  0.3154 -0.1916 -0.6287
  379SOL    HW1 1514   0.982   1.823   2.282 -1.1605  0.9507  0.7206
  379SOL    HW2 1515   1.111   1.750   2.259 -0.8361  1.6926 -3.2892
  379SOL     MW 1516   1.067   1.827   2.279 -0.0313  0.2077 -0.8017
  380SOL     OW 1517   0.922   0.198   1.483  0.1368  0.3410 -0.3206
  380SOL    HW1 1518   0.948   0.142   1.406  1.2367  0.7605  0.4852
  380SOL    HW2 1519   0.980   0.180   1.554  1.9888  0.8902 -0.9273
  380SOL     MW 1520   0.933   0.188   1.482  0.5262  0.4688 -0.2943
  381SOL     OW 1521   0.812   2.003   0.803 -0.2404 -0.3009 -0.3905
  381SOL    HW1 1522   0.905   2.007   0.769  0.4881 -1.5296  1.0784
  381SOL    HW2 1523   0.826   2.085   0.860  0.1206  0.3565  0.6680
  381SOL     MW 1524   0.826   2.014   0.806 -0.0966 -0.3763 -0.0570
  382SOL     OW 1525   0.660   0.022   0.618 -0.3094  0.3445  0.0494
  382SOL    HW1 1526   0.676   0.054   0.702 -1.6147 -0.2151 -0.2623
  382SOL    HW2 1527   0.673  -0.073   0.620 -0.3905 -0.6135  2.6833
  382SOL     MW 1528   0.664   0.014   0.629 -0.4923  0.1443  0.3558
  383SOL     OW 1529   0.506   0.081   0.378  0.2000 -0.5088 -0.0279
  383SOL    HW1 1530   0.543   0.060   0.466  1.7371  3.1423  0.6564
  383SOL    HW2 1531   0.436   0.025   0.363  0.0151 -3.3557 -0.1171
  383SOL     MW 1532   0.502   0.071   0.388  0.3784 -0.4027  0.0506
  384SOL     OW 1533   0.652   2.857   0.556  0.3469 -0.2970 -0.2516
  384SOL    HW1 1534   0.655   2.784   0.618 -0.7133 -1.4821 -0.8180
  384SOL    HW2 1535   0.558   2.877   0.561 -2.9620 -1.1118 -1.6448
  384SOL     MW 1536   0.640   2.850   0.565 -0.2295 -0.5609 -0.5101
  385SOL     OW 1537   1.373   2.026   1.555 -1.0815 -0.3756  0.3144
  385SOL    HW1 1538   1.432   2.082   1.609 -0.8933 -0.3988 -3.0355
  385SOL    HW2 1539   1.357   1.940   1.605 -2.6949  1.0987  0.4241
  385SOL     MW 1540   1.379   2.022   1.569 -1.2695 -0.1841 -0.1132
  386SOL     OW 1541   1.288   0.405   0.891 -0.4689  0.0062  0.4965
  386SOL    HW1 1542   1.197   0.421   0.874 -3.6445  0.6221  2.1044
  386SOL    HW2 1543   1.292   0.410   0.989  1.2731 -1.3093  1.5825
  386SOL     MW 1544   1.277   0.408   0.902 -0.6580 -0.0861  0.8519
  387SOL     OW 1545   0.868   2.188   1.486 -0.1995  0.8716  0.0743
  387SOL    HW1 1546   0.938   2.249   1.464 -1.4465 -2.1123  0.0717
  387SOL    HW2 1547   0.879   2.106   1.428 -1.2058  1.5789 -1.4478
  387SOL     MW 1548   0.879   2.185   1.475 -0.4968  0.5712 -0.1269
  388SOL     OW 1549   1.617   2.859   1.237 -0.5309 -0.5718  0.3557
  388SOL    HW1 1550   1.529   2.831   1.209 -0.3626  0.8159 -2.1894
  388SOL    HW2 1551   1.673   2.797   1.186 -1.0761  2.5433  2.9491
  388SOL     MW 1552   1.613   2.847   1.227 -0.5806  0.0223  0.3621
  389SOL     OW 1553   0.503   0.042   3.034 -0.1536  0.3151 -0.3305
  389SOL    HW1 1554   0.601   0.066   3.026 -0.9647  0.2646  0.4366
  389SOL    HW2 1555   0.510  -0.055   3.033  0.0255 -2.6367  0.0504
  389SOL     MW 1556   0.517   0.032   3.033 -0.2370 -0.0810 -0.1790
  390SOL     OW 1557   1.397   0.117   0.661 -0.2140  0.0971 -0.0969
  390SOL    HW1 1558   1.481   0.099   0.618  1.7419 -0.6873  1.4610
  390SOL    HW2 1559   1.403   0.110   0.757 -0.2475 -2.8344  0.2104
  390SOL     MW 1560   1.409   0.114   0.668  0.0396 -0.3932  0.1492
  391SOL     OW 1561   0.309   2.254   1.468 -0.2525  0.0232  0.0645
  391SOL    HW1 1562   0.260   2.197   1.529 -0.2748  2.1679 -1.0456
  391SOL    HW2 1563   0.256   2.332   1.464  3.0050 -1.4798 -1.2467
  391SOL     MW 1564   0.296   2.257   1.476  0.1744  0.1079 -0.2549
  392SOL     OW 1565   2.046   2.226   0.234  0.3524 -0.4122  0.2863
  392SOL    HW1 1566   1.994   2.257   0.312  2.5360 -1.4847  1.1406
  392SOL    HW2 1567   2.109   2.159   0.272 -1.2691 -0.3988 -0.1511
  392SOL     MW 1568   2.047   2.221   0.249  0.4266 -0.5519  0.3413
  393SOL     OW 1569   0.206   2.970   2.905 -0.1896  0.1462  0.5621
  393SOL    HW1 1570   0.269   3.015   2.846 -2.4288 -0.0866  1.5742
  393SOL    HW2 1571   0.130   3.026   2.889  2.1282 -2.1715  2.5828
  393SOL     MW 1572   0.204   2.983   2.895 -0.1793 -0.1903  0.9622
  394SOL     OW 1573   0.843   1.678   1.492  0.5548 -0.4267  0.1895
  394SOL    HW1 1574   0.791   1.678   1.571 -2.1614 -1.7093  2.5112
  394SOL    HW2 1575   0.883   1.773   1.481  1.9693 -0.2034 -0.8809
  394SOL     MW 1576   0.841   1.691   1.501  0.3831 -0.5664  0.3546
  395SOL     OW 1577   0.900   2.837   2.633 -0.2928 -0.6075 -0.6398
  395SOL    HW1 1578   0.912   2.932   2.636  0.7121 -1.6014  2.6721
  395SOL    HW2 1579   0.973   2.804   2.570 -2.6504  0.0595 -0.1239
  395SOL     MW 1580   0.911   2.845   2.625 -0.4713 -0.6506 -0.1347
  396SOL     OW 1581   0.747   1.794   2.370 -0.0054 -0.0400 -0.1111
  396SOL    HW1 1582   0.815   1.804   2.441  3.0878 -0.2256  1.3154
  396SOL    HW2 1583   0.718   1.703   2.376  0.0028  0.2610  1.5865
  396SOL     MW 1584   0.752   1.783   2.380  0.4038 -0.0248  0.3011
  397SOL     OW 1585   1.065   2.333   1.274 -0.2769  0.4599 -0.1187
  397SOL    HW1 1586   1.088   2.384   1.197  0.1641 -1.4231 -0.1640
  397SOL    HW2 1587   1.139   2.331   1.333 -2.6155  1.5133 -1.9315
  397SOL     MW 1588   1.078   2.339   1.272 -0.5273  0.3504 -0.3639
  398SOL     OW 1589   0.554   2.635   0.711  0.0705 -0.7317 -0.1721
  398SOL    HW1 1590   0.484   2.628   0.640  2.9073 -0.3441 -0.0950
  398SOL    HW2 1591   0.635   2.589   0.679  0.5940 -1.5358 -1.4563
  398SOL     MW 1592   0.555   2.628   0.697  0.5138 -0.7867 -0.3313
  399SOL     OW 1593   0.203   2.001   0.399  0.0187  0.3890 -1.0719
  399SOL    HW1 1594   0.138   2.073   0.381  1.2291 -2.1458 -0.3160
  399SOL    HW2 1595   0.278   2.023   0.331 -0.1340 -1.3548 -0.3197
  399SOL     MW 1596   0.204   2.013   0.388  0.1582 -0.1755 -0.8729
  400SOL     OW 1597   0.548   1.821   0.231  0.3893 -0.2364  0.1416
  400SOL    HW1 1598   0.506   1.906   0.243  0.3195  0.1053 -0.7252
  400SOL    HW2 1599   0.502   1.752   0.282  0.4696 -0.0583 -2.2232
  400SOL     MW 1600   0.536   1.823   0.239  0.3907 -0.1678 -0.2848
  401SOL     OW 1601   0.990   2.103   0.135  0.3200  0.3974 -0.2468
  401SOL    HW1 1602   0.970   2.008   0.144  1.9846  0.1668  0.7101
  401SOL    HW2 1603   1.043   2.130   0.214 -0.2247  0.3223 -1.4350
  401SOL     MW 1604   0.994   2.094   0.147  0.4678  0.3571 -0.2773
  402SOL     OW 1605   0.707   2.663   1.763  0.1366  0.2096 -0.1636
  402SOL    HW1 1606   0.621   2.694   1.793 -0.6127 -0.6104  2.6512
  402SOL    HW2 1607   0.770   2.710   1.818 -1.2382 -4.6631 -0.6766
  402SOL     MW 1608   0.704   2.673   1.774 -0.1437 -0.5415  0.1401
  403SOL     OW 1609   0.093   0.534   0.334 -0.2676  0.2100 -0.0335
  403SOL    HW1 1610   0.144   0.613   0.352  1.0307  1.3467 -0.3377
  403SOL    HW2 1611   0.158   0.467   0.294  0.1517  0.9586 -2.0294
  403SOL     MW 1612   0.108   0.536   0.331 -0.0409  0.4588 -0.3370
  404SOL     OW 1613   0.941   2.857   0.856  0.7841  0.1725  0.0024
  404SOL    HW1 1614   0.980   2.780   0.809  2.2493  0.0932  0.0192
  404SOL    HW2 1615   0.964   2.931   0.802 -0.1049 -0.2462  0.4788
  404SOL     MW 1616   0.949   2.857   0.843  0.8601  0.1068  0.0674
  405SOL     OW 1617   0.449   2.502   1.580 -0.0360 -0.8093  0.2770
  405SOL    HW1 1618   0.454   2.575   1.516  1.8361  1.0097 -0.7661
  405SOL    HW2 1619   0.458   2.419   1.527  0.0527  2.8683  1.5869
  405SOL     MW 1620   0.451   2.501   1.565  0.2227 -0.0841  0.3122
  406SOL     OW 1621   0.384   2.392   1.114 -0.1369 -0.4881  0.6111
  406SOL    HW1 1622   0.294   2.421   1.137  0.4820 -1.0183  2.5930
  406SOL    HW2 1623   0.413   2.317   1.164  0.3232  2.7241 -0.1263
  406SOL     MW 1624   0.376   2.386   1.124  0.0055 -0.1342  0.7753
  407SOL     OW 1625   3.074   2.745   1.166 -0.5754  0.0821 -0.1239
  407SOL    HW1 1626   3.125   2.712   1.240  0.8880 -0.8803  2.5044
  407SOL    HW2 1627   3.137   2.745   1.092 -0.7007 -0.9125 -1.1199
  407SOL     MW 1628   3.089   2.741   1.166 -0.3988 -0.1761  0.0915
  408SOL     OW 1629   2.090   2.002   0.460  0.1794  0.2342  0.3428
  408SOL    HW1 1630   2.086   2.049   0.541 -0.3536 -0.3699  0.3813
  408SOL    HW2 1631   2.006   1.968   0.442  4.8934 -0.9426  0.2268
  408SOL     MW 1632   2.078   2.004   0.468  0.7311 -0.0008  0.3326
  409SOL     OW 1633   1.405   0.146   0.943  0.3229  0.5815  0.3573
  409SOL    HW1 1634   1.414   0.239   0.914  1.3372  1.2453  2.5215
  409SOL    HW2 1635   1.486   0.103   0.954  0.7931  2.9306  0.1290
  409SOL     MW 1636   1.417   0.153   0.941  0.5187  0.9790  0.6128
  410SOL     OW 1637   1.085   2.507   1.058 -0.3962  0.3264 -0.1715
  410SOL    HW1 1638   1.003   2.488   1.003 -0.5217  0.1895 -0.9005
  410SOL    HW2 1639   1.153   2.462   1.014 -1.1504  1.9656  2.6107
  410SOL     MW 1640   1.083   2.499   1.045 -0.5123  0.5246  0.0994
  411SOL     OW 1641   1.956   0.092   2.840 -0.4562 -0.2458  0.5872
  411SOL    HW1 1642   1.889   0.063   2.778  0.4293  0.2225  2.0800
  411SOL    HW2 1643   1.911   0.142   2.905 -3.5632 -0.7938 -1.2962
  411SOL     MW 1644   1.941   0.095   2.840 -0.7493 -0.2563  0.5357
  412SOL     OW 1645   0.998   2.237   0.612  0.3061 -0.2444 -0.0472
  412SOL    HW1 1646   1.042   2.314   0.644 -0.5330 -1.8145 -1.2013
  412SOL    HW2 1647   0.926   2.271   0.560 -1.1945  1.1701 -0.5453
  412SOL     MW 1648   0.994   2.252   0.609 -0.0026 -0.2649 -0.2652
  413SOL     OW 1649   0.515   2.809   0.067 -0.0985  0.1606 -0.5251
  413SOL    HW1 1650   0.557   2.730   0.100 -0.0488 -0.7269  1.6391
  413SOL    HW2 1651   0.549   2.808  -0.024 -0.5081  1.3638  1.4955
  413SOL     MW 1652   0.525   2.798   0.059 -0.1460  0.2022  0.0270
  414SOL     OW 1653   2.038   3.015   0.986 -0.4672  0.1595 -0.0678
  414SOL    HW1 1654   1.973   2.968   0.927  1.2210  1.1316 -1.1827
  414SOL    HW2 1655   2.116   2.957   0.983  2.4662 -0.7382  0.3626
  414SOL     MW 1656   2.040   3.001   0.978  0.1426  0.1693 -0.1581
  415SOL     OW 1657   1.740   2.636   1.115  0.0668  0.6669 -0.2483
  415SOL    HW1 1658   1.688   2.588   1.179 -1.2431 -0.5201 -0.9256
  415SOL    HW2 1659   1.827   2.653   1.151 -3.0096  0.1325  0.8981
  415SOL     MW 1660   1.745   2.632   1.128 -0.5119  0.4398 -0.1864
  416SOL     OW 1661   0.602   1.959   1.377 -0.5505 -0.0200  0.1413
  416SOL    HW1 1662   0.573   2.052   1.361  1.6552  0.4917 -0.1962
  416SOL    HW2 1663   0.582   1.918   1.296  0.0706 -0.9528  0.1421
  416SOL     MW 1664   0.596   1.966   1.364 -0.1775 -0.0756  0.0969
  417SOL     OW 1665   1.037   2.986   2.034 -0.1368 -0.6042  0.2370
  417SOL    HW1 1666   1.004   2.972   2.127  1.3118  0.1182  1.2645
  417SOL    HW2 1667   0.998   2.909   1.988 -0.6221  0.3142  1.5678
  417SOL     MW 1668   1.028   2.974   2.040 -0.0097 -0.3877  0.5482
  418SOL     OW 1669   0.718   2.979   0.145  0.0647 -0.0093  0.2840
  418SOL    HW1 1670   0.770   2.940   0.074  0.4268  0.5356  0.7227
  418SOL    HW2 1671   0.629   2.943   0.129 -1.2159  2.5172 -0.6260
  418SOL     MW 1672   0.713   2.969   0.134 -0.0565  0.3960  0.2218
  419SOL     OW 1673   0.474   2.710   1.394 -0.1480  0.1154  0.2690
  419SOL    HW1 1674   0.540   2.780   1.420 -1.4260 -2.8538  1.2102
  419SOL    HW2 1675   0.511   2.656   1.322 -2.1725  0.7640  0.0880
  419SOL     MW 1676   0.488   2.712   1.388 -0.5838 -0.1907  0.3693
  420SOL     OW 1677   0.882   2.228   0.952  0.7028 -0.1001  0.2051
  420SOL    HW1 1678   0.823   2.202   1.030  0.1768  0.5562 -4.1450
  420SOL    HW2 1679   0.872   2.325   0.935 -2.8579 -0.1097  0.2746
  420SOL     MW 1680   0.873   2.237   0.960  0.1636 -0.0148 -0.3597
  421SOL     OW 1681   2.959   0.070   0.145  0.1141  0.0380 -0.6904
  421SOL    HW1 1682   2.907   0.041   0.076 -1.0065  3.7163  1.1710
  421SOL    HW2 1683   2.991  -0.012   0.179 -0.4708  0.1598 -0.1772
  421SOL     MW 1684   2.956   0.055   0.140 -0.1109  0.5394 -0.3771
  422SOL     OW 1685   0.830   2.489   0.926 -0.1685  0.0604  0.1574
  422SOL    HW1 1686   0.762   2.548   0.950 -2.4383 -0.9869 -0.0572
  422SOL    HW2 1687   0.825   2.484   0.830  2.4164  1.8417 -3.7951
  422SOL     MW 1688   0.820   2.496   0.917 -0.1269  0.1572 -0.3924
  423SOL     OW 1689   1.628   0.076   0.533 -0.4829  0.0155  0.0651
  423SOL    HW1 1690   1.652   0.020   0.459  0.6929  2.8448 -0.3199
  423SOL    HW2 1691   1.611   0.162   0.490 -0.4718 -1.0982 -1.7422
  423SOL     MW 1692   1.629   0.080   0.518 -0.3263  0.2418 -0.2242
  424SOL     OW 1693   0.757   2.188   1.187  0.1486 -0.3930 -0.8056
  424SOL    HW1 1694   0.665   2.204   1.179 -1.2744  1.3081 -2.4057
  424SOL    HW2 1695   0.792   2.235   1.263 -0.6397  1.8228  2.9261
  424SOL     MW 1696   0.749   2.196   1.196 -0.1432  0.1238 -0.5244
  425SOL     OW 1697   1.750   2.802   2.065  0.2751 -0.2912 -0.0356
  425SOL    HW1 1698   1.773   2.822   1.971  1.5543 -0.6429  0.3165
  425SOL    HW2 1699   1.752   2.704   2.066 -0.6148 -0.3001 -0.9136
  425SOL     MW 1700   1.753   2.792   2.053  0.3265 -0.3388 -0.1050
  426SOL     OW 1701   0.792   1.670   1.936 -0.2927 -1.0455 -0.5259
  426SOL    HW1 1702   0.758   1.644   1.845 -1.6201  0.1245  1.4378
  426SOL    HW2 1703   0.724   1.728   1.975  1.4593  1.2197  0.1006
  426SOL     MW 1704   0.779   1.674   1.929 -0.2367 -0.5923 -0.1841
  427SOL     OW 1705   0.390   1.524   1.964 -0.0989  0.4999  0.0694
  427SOL    HW1 1706   0.429   1.460   1.909  4.1715 -1.9111 -0.4742
  427SOL    HW2 1707   0.295   1.507   1.970  0.7881  0.0709 -1.0378
  427SOL     MW 1708   0.383   1.513   1.958  0.5816  0.1252 -0.1484
  428SOL     OW 1709   0.589   2.589   1.162  0.0961  0.0586  0.0669
  428SOL    HW1 1710   0.677   2.562   1.197  0.3116  1.0330 -0.6565
  428SOL    HW2 1711   0.534   2.512   1.154  1.9065  1.2773 -1.5921
  428SOL     MW 1712   0.593   2.575   1.166  0.3634  0.3480 -0.2474
  429SOL     OW 1713   1.374   2.852   1.041  0.3879 -0.1660 -0.2133
  429SOL    HW1 1714   1.284   2.841   1.082  0.5010  0.4307 -0.1550
  429SOL    HW2 1715   1.350   2.898   0.959  0.1131 -0.4101  0.3850
  429SOL     MW 1716   1.359   2.857   1.036  0.3666 -0.1194 -0.1267
  430SOL     OW 1717   1.097   2.706   0.695 -0.0839 -0.2289 -0.0020
  430SOL    HW1 1718   1.131   2.618   0.709 -1.0524  1.0109  0.3998
  430SOL    HW2 1719   1.053   2.680   0.608  5.3160  0.9084 -0.5957
  430SOL     MW 1720   1.096   2.691   0.685  0.5008  0.0847 -0.0273
  431SOL     OW 1721   0.399   2.016   1.055  0.0482  0.2535  0.4318
  431SOL    HW1 1722   0.467   1.950   1.064  2.9749 -0.2580 -0.8119
  431SOL    HW2 1723   0.369   2.038   0.965 -1.8110 -0.0932  2.5521
  431SOL     MW 1724   0.404   2.010   1.044  0.1890  0.1403  0.5475
  432SOL     OW 1725   0.061   0.045   1.205 -0.4806 -0.2166  0.1598
  432SOL    HW1 1726   0.085   0.076   1.298  0.3279 -1.7037 -2.9022
  432SOL    HW2 1727  -0.020  -0.012   1.212  2.1498  0.7851 -0.3553
  432SOL     MW 1728   0.053   0.042   1.218 -0.0269 -0.2806 -0.3122
  433SOL     OW 1729   0.674   2.903   1.425  0.2437  0.1183  0.4001
  433SOL    HW1 1730   0.722   2.960   1.492  0.8098  2.0418  1.0875
  433SOL    HW2 1731   0.730   2.881   1.349 -0.8531 -1.1464  1.8143
  433SOL     MW 1732   0.688   2.908   1.424  0.1737  0.2052  0.6774
  434SOL     OW 1733   1.629   2.882   1.520 -0.1328 -0.3188  0.0872
  434SOL    HW1 1734   1.546   2.933   1.510 -0.3410  0.2063  0.4397
  434SOL    HW2 1735   1.645   2.845   1.433  0.8954  0.3028 -2.4625
  434SOL     MW 1736   1.620   2.884   1.507 -0.0246 -0.1675 -0.2027
  435SOL     OW 1737   2.816   1.788   0.295 -0.1980  0.3062 -0.0085
  435SOL    HW1 1738   2.889   1.823   0.245 -0.6190  0.9557  0.9781
  435SOL    HW2 1739   2.813   1.698   0.272  2.1517 -0.2582 -1.0112
  435SOL     MW 1740   2.825   1.781   0.285  0.0564  0.3174 -0.0106
  436SOL     OW 1741   1.475   2.786   0.339  0.4819 -0.2552 -0.3699
  436SOL    HW1 1742   1.533   2.762   0.413  0.7519  1.8953  1.5893
  436SOL    HW2 1743   1.451   2.882   0.362 -2.5308  0.5454 -3.0857
  436SOL     MW 1744   1.479   2.795   0.352  0.1201  0.1342 -0.4697
  437SOL     OW 1745   0.893   2.870   1.235 -0.9813  0.3465  0.0207
  437SOL    HW1 1746   0.928   2.966   1.225  0.4298 -3.2011 -0.3752
  437SOL    HW2 1747   0.834   2.869   1.159 -0.1257 -2.2365 -3.2504
  437SOL     MW 1748   0.890   2.883   1.224 -0.6823 -0.4623 -0.4631
  438SOL     OW 1749   0.824   2.478   2.125 -0.3340  0.0857 -1.1342
  438SOL    HW1 1750   0.828   2.422   2.201 -1.1749 -1.2612  1.2611
  438SOL    HW2 1751   0.741   2.443   2.094  1.3084 -0.3632 -2.0185
  438SOL     MW 1752   0.814   2.466   2.131 -0.2283 -0.1512 -0.9349
  439SOL     OW 1753   1.134   2.182   0.379 -0.4891  0.1015 -0.1897
  439SOL    HW1 1754   1.096   2.201   0.468 -0.9994  0.4169 -1.7618
  439SOL    HW2 1755   1.145   2.262   0.329  0.2628  1.1784 -1.5885
  439SOL     MW 1756   1.130   2.195   0.384 -0.4573  0.2852 -0.5817
  440SOL     OW 1757   1.620   3.081   2.973  0.2036 -0.3084 -0.3864
  440SOL    HW1 1758   1.566   3.030   3.035  1.0475 -0.9193  1.5998
  440SOL    HW2 1759   1.689   3.020   2.950  0.7110 -0.3470  0.3671
  440SOL     MW 1760   1.622   3.066   2.978  0.3819 -0.3941 -0.0249
  441SOL     OW 1761   0.365   2.655   0.513  0.2337 -0.1164 -0.5059
  441SOL    HW1 1762   0.331   2.632   0.423 -0.3435  2.7555  0.0020
  441SOL    HW2 1763   0.366   2.745   0.512 -1.0167 -1.5628  0.8690
  441SOL     MW 1764   0.361   2.664   0.501 -0.0074  0.0717 -0.2575
  442SOL     OW 1765   3.084   2.392   0.630  0.5107 -0.5441  0.0163
  442SOL    HW1 1766   3.102   2.486   0.639  0.8894  0.8115  1.0192
  442SOL    HW2 1767   2.996   2.371   0.662  0.6052 -0.1388  0.3244
  442SOL     MW 1768   3.075   2.402   0.635  0.5731 -0.3118  0.1893
  443SOL     OW 1769   1.379   1.679   1.938  0.3178 -0.0608 -0.0201
  443SOL    HW1 1770   1.377   1.724   1.854 -1.2994  3.0837 -2.1304
  443SOL    HW2 1771   1.305   1.623   1.941  3.5508  2.1679 -1.6548
  443SOL     MW 1772   1.369   1.678   1.927  0.5310  0.6481 -0.5142
  444SOL     OW 1773   0.887   2.621   1.550  0.2289  0.1543 -0.2265
  444SOL    HW1 1774   0.948   2.570   1.593 -0.7552  2.6347  2.5070
  444SOL    HW2 1775   0.821   2.627   1.615  2.8943 -0.3958 -2.9299
  444SOL     MW 1776   0.886   2.615   1.564  0.4508  0.4090 -0.2226
  445SOL     OW 1777   0.972   0.024   1.223 -0.1098  0.4164  0.2829
  445SOL    HW1 1778   0.895   0.087   1.203 -0.1112  0.3909 -1.1878
  445SOL    HW2 1779   1.042   0.044   1.164 -3.3637 -1.3378 -1.4013
  445SOL     MW 1780   0.971   0.035   1.213 -0.5393  0.1816 -0.1334
  446SOL     OW 1781   2.724   2.865   1.070  0.3626 -0.2124 -0.3810
  446SOL    HW1 1782   2.682   2.900   0.989 -0.9959 -1.3430 -0.2439
  446SOL    HW2 1783   2.760   2.777   1.045 -0.4685 -0.0331 -1.6144
  446SOL     MW 1784   2.723   2.858   1.056  0.0737 -0.3379 -0.5256
  447SOL     OW 1785   3.027   2.014   1.718 -0.2884  0.0607 -0.5371
  447SOL    HW1 1786   3.059   1.929   1.744  0.7161  0.8848  0.3920
  447SOL    HW2 1787   2.973   2.000   1.641 -0.3873 -1.4941 -0.2940
  447SOL     MW 1788   3.024   2.001   1.711 -0.1689 -0.0358 -0.3825
  448SOL     OW 1789   1.691   2.386   1.690 -0.4878 -0.5168 -0.4831
  448SOL    HW1 1790   1.635   2.307   1.705  0.2540 -0.3196 -1.1731
  448SOL    HW2 1791   1.635   2.461   1.697  1.2604 -1.2064  0.1370
  448SOL     MW 1792   1.676   2.385   1.693 -0.1593 -0.5818 -0.4923
  449SOL     OW 1793   0.858   2.850   0.356  0.2296 -0.4289  0.8166
  449SOL    HW1 1794   0.819   2.919   0.303  1.8442  0.7818 -2.5132
  449SOL    HW2 1795   0.790   2.830   0.421 -0.5199  0.4222  0.1312
  449SOL     MW 1796   0.844   2.856   0.358  0.3437 -0.1569  0.2868
  450SOL     OW 1797   1.147   2.450   0.685 -0.0170  0.8730 -0.9585
  450SOL    HW1 1798   1.180   2.410   0.765  1.8951 -2.1518  0.9702
  450SOL    HW2 1799   1.227   2.456   0.639 -0.0355 -2.2274 -1.8457
  450SOL     MW 1800   1.162   2.446   0.689  0.2328  0.0648 -0.8211
  451SOL     OW 1801   0.617   1.900   1.663  0.8406 -0.1631  0.4765
  451SOL    HW1 1802   0.703   1.941   1.683 -2.5290 -0.4402 -0.4489
  451SOL    HW2 1803   0.591   1.930   1.575  0.7950  1.4245 -0.0167
  451SOL     MW 1804   0.625   1.909   1.654  0.3900  0.0098  0.2893
  452SOL     OW 1805   0.288   2.636   3.098  0.7546 -0.3923  0.0995
  452SOL    HW1 1806   0.354   2.711   3.110 -0.2348  0.8409 -1.1664
  452SOL    HW2 1807   0.253   2.646   3.009  0.7225  1.3993 -0.9714
  452SOL     MW 1808   0.292   2.647   3.088  0.6198  0.0068 -0.2088
  453SOL     OW 1809   0.445   3.045   1.685 -0.8660 -0.0087 -0.4245
  453SOL    HW1 1810   0.515   3.107   1.661  2.0684  0.2235  0.5516
  453SOL    HW2 1811   0.390   3.023   1.609 -0.5317 -0.7296  0.4023
  453SOL     MW 1812   0.447   3.050   1.672 -0.4348 -0.0732 -0.1866
  454SOL     OW 1813   1.136   2.763   1.153  0.7917  0.0290  0.3934
  454SOL    HW1 1814   1.107   2.680   1.110 -1.5920 -0.0782  1.5889
  454SOL    HW2 1815   1.050   2.813   1.161  1.9185  1.7990  1.1918
  454SOL     MW 1816   1.121   2.759   1.148  0.6259  0.2484  0.6565
  455SOL     OW 1817   1.594   2.943   0.112  0.1663 -0.4290 -0.0352
  455SOL    HW1 1818   1.684   2.954   0.141 -0.3068  0.1961  1.1630
  455SOL    HW2 1819   1.568   2.873   0.165  1.1408  1.7242 -1.3831
  455SOL     MW 1820   1.602   2.935   0.123  0.2324 -0.0625 -0.0549
  456SOL     OW 1821   2.852   0.318   1.400 -0.6090  0.0890 -0.4442
  456SOL    HW1 1822   2.802   0.241   1.383 -2.7043  1.9991 -0.2982
  456SOL    HW2 1823   2.890   0.334   1.307 -0.4647  1.1993 -0.0339
  456SOL     MW 1824   2.850   0.310   1.385 -0.8664  0.4875 -0.3708
  457SOL     OW 1825   0.905   1.476   2.959  0.5006  0.3252 -0.4765
  457SOL    HW1 1826   0.837   1.479   3.032 -1.3892  1.3335  1.5901
  457SOL    HW2 1827   0.986   1.450   2.996 -2.5169 -1.2142  1.3668
  457SOL     MW 1828   0.907   1.473   2.974 -0.1469  0.2551  0.0393
  458SOL     OW 1829   1.433   1.320   0.660  0.0866  0.0058  0.4794
  458SOL    HW1 1830   1.351   1.328   0.702 -2.5519 -0.5452  1.3563
  458SOL    HW2 1831   1.423   1.256   0.590  1.9196  1.4476  0.1843
  458SOL     MW 1832   1.421   1.313   0.656 -0.0197  0.1233  0.5561
  459SOL     OW 1833   1.644   0.122   0.184 -0.6790  0.0956  0.4102
  459SOL    HW1 1834   1.608   0.030   0.182 -2.3266 -1.4915 -1.4914
  459SOL    HW2 1835   1.582   0.174   0.133  1.4752  0.5528  0.2815
  459SOL     MW 1836   1.631   0.117   0.177 -0.6121 -0.0534  0.1424
  460SOL     OW 1837   1.766   2.147   0.615 -0.1985 -0.1043 -0.2753
  460SOL    HW1 1838   1.681   2.147   0.662 -1.6299  0.4212  2.0086
  460SOL    HW2 1839   1.791   2.072   0.557 -0.2689 -3.4532 -1.8443
  460SOL     MW 1840   1.758   2.137   0.614 -0.3966 -0.4769 -0.1810
  461SOL     OW 1841   0.347   2.326   0.625  0.0412 -0.4009 -0.0464
  461SOL    HW1 1842   0.358   2.335   0.526  1.1715  2.3403  1.1275
  461SOL    HW2 1843   0.356   2.410   0.668 -1.9322 -1.1935 -1.5552
  461SOL     MW 1844   0.350   2.338   0.618 -0.0700 -0.1438 -0.0906
  462SOL     OW 1845   0.432   0.234   1.363 -0.2242  0.5860 -0.2286
  462SOL    HW1 1846   0.453   0.144   1.332 -0.8723  3.9468  1.6519
  462SOL    HW2 1847   0.501   0.298   1.326  1.1897  1.2447 -3.0555
  462SOL     MW 1848   0.444   0.231   1.354 -0.1231  1.1163 -0.3535
  463SOL     OW 1849   0.992   0.010   0.714 -0.4309 -0.5362 -0.4289
  463SOL    HW1 1850   1.013   0.002   0.620  0.8632  0.2954 -2.2730
  463SOL    HW2 1851   0.901   0.028   0.712 -0.6611 -0.5048  1.5353
  463SOL     MW 1852   0.983   0.011   0.701 -0.2905 -0.4223 -0.4131
  464SOL     OW 1853   0.878   3.004   2.253 -0.1217  0.1966 -0.1661
  464SOL    HW1 1854   0.846   2.918   2.230 -2.5281 -2.5022  0.9580
  464SOL    HW2 1855   0.895   3.007   2.348 -1.4699  1.7339 -0.2373
  464SOL     MW 1856   0.876   2.993   2.262 -0.6171  0.0434 -0.0272
  465SOL     OW 1857   0.704   0.330   0.487  0.2347  0.3612 -0.5522
  465SOL    HW1 1858   0.650   0.300   0.558  0.7319  1.0005 -0.7123
  465SOL    HW2 1859   0.715   0.265   0.416 -0.1097 -1.8518 -1.2480
  465SOL     MW 1860   0.698   0.317   0.487  0.2549  0.1536 -0.6651
  466SOL     OW 1861   1.084   1.993   0.715 -0.0279  0.0203 -0.2260
  466SOL    HW1 1862   1.073   1.916   0.659 -1.2408 -0.0503 -1.0649
  466SOL    HW2 1863   1.062   2.070   0.665  0.4524  2.4719 -1.9158
  466SOL     MW 1864   1.080   1.993   0.701 -0.1246  0.3344 -0.5597
  467SOL     OW 1865   1.242   2.318   0.914 -0.2795  0.3610 -0.7541
  467SOL    HW1 1866   1.327   2.349   0.946  2.2064 -0.3070 -1.8272
  467SOL    HW2 1867   1.253   2.219   0.922  1.1845  3.0676  3.4255
  467SOL     MW 1868   1.255   2.309   0.919  0.2417  0.6300 -0.3442
  468SOL     OW 1869   0.325   2.581   1.984 -0.2210  0.5300 -0.0049
  468SOL    HW1 1870   0.341   2.505   1.928  1.2386  1.5091 -0.7290
  468SOL    HW2 1871   0.367   2.646   1.927  3.2743 -2.5613 -1.1465
  468SOL     MW 1872   0.333   2.580   1.969  0.4327  0.2513 -0.2510
  469SOL     OW 1873   0.384   2.103   1.745  0.2422 -0.1272 -0.3174
  469SOL    HW1 1874   0.310   2.045   1.720  0.1116  0.3809 -0.6103
  469SOL    HW2 1875   0.457   2.047   1.723 -2.1546 -1.6099 -1.3207
  469SOL     MW 1876   0.384   2.088   1.739 -0.0913 -0.2558 -0.4885
  470SOL     OW 1877   3.093   2.568   0.236  0.3797  0.0692 -0.5397
  470SOL    HW1 1878   3.029   2.528   0.294  1.1361 -1.6573 -2.7412
  470SOL    HW2 1879   3.040   2.556   0.158  2.4695  0.6916  1.0145
  470SOL     MW 1880   3.078   2.561   0.233  0.7552 -0.0765 -0.6251
  471SOL     OW 1881   1.233   2.761   1.406  0.3461 -0.5710 -0.0000
  471SOL    HW1 1882   1.158   2.803   1.452  0.1451  2.4499  1.3745
  471SOL    HW2 1883   1.201   2.757   1.314 -0.1401 -1.4523 -2.3799
  471SOL     MW 1884   1.219   2.766   1.400  0.2555 -0.2887 -0.1327
  472SOL     OW 1885   2.961   2.041   0.425 -0.0674  0.7733 -0.4251
  472SOL    HW1 1886   2.979   2.008   0.333  1.7887  1.3893 -0.3118
  472SOL    HW2 1887   2.941   1.973   0.490 -0.6182 -0.2435  0.4271
  472SOL     MW 1888   2.961   2.028   0.421  0.1048  0.7204 -0.2977
  473SOL     OW 1889   0.820   2.519   1.286  0.4223 -0.1638  0.0597
  473SOL    HW1 1890   0.895   2.470   1.264  0.1627  0.0340  0.0800
  473SOL    HW2 1891   0.831   2.549   1.374 -1.0896 -3.1095  0.8939
  473SOL     MW 1892   0.831   2.516   1.295  0.1886 -0.5263  0.1725
  474SOL     OW 1893   0.840   2.054   1.720 -0.1187  0.6811  0.0888
  474SOL    HW1 1894   0.933   2.050   1.756 -1.0636 -1.1550  0.2555
  474SOL    HW2 1895   0.849   2.119   1.651  1.2554  1.6870 -0.0378
  474SOL     MW 1896   0.853   2.062   1.716 -0.0621  0.5715  0.0941
  475SOL     OW 1897   1.718   0.033   1.303 -0.0344 -0.3725  0.0094
  475SOL    HW1 1898   1.635   0.067   1.264  1.1919 -0.7727 -1.1994
  475SOL    HW2 1899   1.687  -0.054   1.333 -1.6370  1.1448 -0.2346
  475SOL     MW 1900   1.703   0.026   1.302 -0.0841 -0.2251 -0.1823
  476SOL     OW 1901   1.418   2.619   0.855  0.3111  0.2201  0.1669
  476SOL    HW1 1902   1.360   2.674   0.908  0.8120 -3.1700 -0.8750
  476SOL    HW2 1903   1.484   2.679   0.832 -0.1041  0.1031 -1.6831
  476SOL     MW 1904   1.419   2.634   0.859  0.3224 -0.2427 -0.2146
  477SOL     OW 1905   0.796   2.522   0.643  0.1752  0.2865 -0.6315
  477SOL    HW1 1906   0.872   2.561   0.603 -2.0591 -1.8595 -0.7691
  477SOL    HW2 1907   0.776   2.439   0.589  2.4574 -0.7014  0.7391
  477SOL     MW 1908   0.803   2.516   0.631  0.1815 -0.1270 -0.4688
  478SOL     OW 1909   0.128   2.709   0.941  0.2224 -0.2710  0.0762
  478SOL    HW1 1910   0.183   2.781   0.922  2.7299 -0.3213  3.1467
  478SOL    HW2 1911   0.166   2.632   0.894  1.7001 -0.7318 -0.6756
  478SOL     MW 1912   0.140   2.708   0.932  0.7482 -0.3384  0.3821
  479SOL     OW 1913   1.467   1.943   1.318 -0.1784  0.0501  0.2945
  479SOL    HW1 1914   1.428   1.985   1.398  0.4025 -1.5699 -0.5047
  479SOL    HW2 1915   1.546   1.906   1.362  2.5119  1.2719  0.2672
  479SOL     MW 1916   1.472   1.944   1.334  0.2532 -0.0024  0.1855
  480SOL     OW 1917   1.845   2.407   1.325  0.1983  0.1403  0.2996
  480SOL    HW1 1918   1.854   2.334   1.389  1.0120  2.5198 -0.2045
  480SOL    HW2 1919   1.865   2.373   1.235 -1.1375  0.6831  0.7117
  480SOL     MW 1920   1.849   2.393   1.322  0.1294  0.5259  0.2875
  481SOL     OW 1921   1.169   0.175   1.104  0.0050 -0.2384 -0.3709
  481SOL    HW1 1922   1.233   0.180   1.032 -0.0699  0.8107 -1.1293
  481SOL    HW2 1923   1.152   0.260   1.137  2.0017 -1.3713  1.4815
  481SOL     MW 1924   1.175   0.187   1.099  0.2585 -0.2495 -0.2266
  482SOL     OW 1925   1.062   3.054   0.412  0.0890 -0.2880 -0.1202
  482SOL    HW1 1926   0.985   3.004   0.387 -0.5584 -0.5403  4.4010
  482SOL    HW2 1927   1.051   3.139   0.370 -0.7767 -0.0420 -2.0190
  482SOL     MW 1928   1.050   3.059   0.403 -0.1106 -0.2888  0.2258
  483SOL     OW 1929   0.374   2.936   0.495  0.5117 -0.4166  0.2001
  483SOL    HW1 1930   0.307   2.946   0.428 -3.9226 -0.5370 -0.6331
  483SOL    HW2 1931   0.359   3.015   0.553  2.2952 -0.1454 -2.1262
  483SOL     MW 1932   0.363   2.948   0.494  0.1619 -0.3967 -0.2167
  484SOL     OW 1933   1.701   1.790   1.416  0.2537  0.1337  0.3647
  484SOL    HW1 1934   1.760   1.854   1.375 -1.4440 -0.2112 -0.4371
  484SOL    HW2 1935   1.710   1.818   1.511  1.0666  1.0381  0.9138
  484SOL     MW 1936   1.710   1.802   1.423  0.1370  0.2075  0.3314
  485SOL     OW 1937   0.366   2.302   0.353  0.0459  0.2571 -0.3412
  485SOL    HW1 1938   0.453   2.319   0.320 -0.9917  1.9735  0.4864
  485SOL    HW2 1939   0.309   2.379   0.335  3.7070 -1.9076 -0.8229
  485SOL     MW 1940   0.370   2.314   0.346  0.3920  0.1979 -0.2956
  486SOL     OW 1941   0.118   2.469   1.452 -0.2528  0.2717  0.1411
  486SOL    HW1 1942   0.145   2.557   1.422 -1.5668  0.7815 -1.1088
  486SOL    HW2 1943   0.128   2.474   1.552 -3.0775 -2.1808  3.3536
  486SOL     MW 1944   0.123   2.481   1.461 -0.7988  0.0154  0.4001
  487SOL     OW 1945   1.256   1.594   1.100  0.5821 -0.4687  0.2058
  487SOL    HW1 1946   1.254   1.690   1.088  3.0750 -0.9902 -1.6238
  487SOL    HW2 1947   1.351   1.582   1.076  1.2831 -3.2572 -2.1370
  487SOL     MW 1948   1.268   1.605   1.095  1.0035 -0.9054 -0.3447
  488SOL     OW 1949   1.478   1.782   0.600 -0.8089 -0.2387 -0.1141
  488SOL    HW1 1950   1.468   1.870   0.563 -0.7500  0.0626  1.1325
  488SOL    HW2 1951   1.400   1.727   0.577 -0.2792  0.4285  0.6364
  488SOL     MW 1952   1.466   1.786   0.592 -0.7312 -0.1109  0.1494
  489SOL     OW 1953   0.707   0.680   0.479  0.1655 -0.2182 -0.2206
  489SOL    HW1 1954   0.634   0.624   0.449 -0.2878 -1.1705  0.6813
  489SOL    HW2 1955   0.678   0.705   0.571 -1.6461 -1.6291 -1.0318
  489SOL     MW 1956   0.694   0.676   0.487 -0.1334 -0.5300 -0.2086
  490SOL     OW 1957   1.388   2.068   0.429 -0.2821 -0.1389 -0.1214
  490SOL    HW1 1958   1.444   2.144   0.429 -0.4967 -1.0930  0.2650
  490SOL    HW2 1959   1.297   2.100   0.426  0.0260 -2.8002 -0.7541
  490SOL     MW 1960   1.383   2.082   0.429 -0.2698 -0.6159 -0.1539
  491SOL     OW 1961   1.362   3.020   0.437 -0.3993  0.0698 -0.2543
  491SOL    HW1 1962   1.382   3.068   0.516 -0.2120  4.2140 -0.2982
  491SOL    HW2 1963   1.272   3.022   0.448 -1.8045 -3.2162  1.3612
  491SOL     MW 1964   1.353   3.027   0.449 -0.5600  0.1831 -0.0470
  492SOL     OW 1965   1.442   2.152   0.681 -0.1251 -0.1729  0.1322
  492SOL    HW1 1966   1.416   2.097   0.607 -2.0546  0.6913  1.0595
  492SOL    HW2 1967   1.406   2.115   0.755  3.6130 -0.6804  2.9464
  492SOL     MW 1968   1.434   2.140   0.681  0.1135 -0.1258  0.6259
  493SOL     OW 1969   0.185   3.003   0.304 -0.1187  0.3317  0.0308
  493SOL    HW1 1970   0.108   3.048   0.337  2.8629 -1.5990 -1.4146
  493SOL    HW2 1971   0.175   2.963   0.221  0.3636  0.5077 -0.8288
  493SOL     MW 1972   0.174   3.004   0.297  0.3383  0.1002 -0.2733
  494SOL     OW 1973   0.367   2.389   1.812 -0.5283  0.4417  0.5005
  494SOL    HW1 1974   0.402   2.296   1.806  0.0830 -0.9245 -0.8727
  494SOL    HW2 1975   0.410   2.436   1.732 -4.5564 -0.2973  0.2638
  494SOL     MW 1976   0.377   2.383   1.801 -0.9791  0.1640  0.2881
  495SOL     OW 1977   2.816   1.625   2.696  0.4217 -0.0048 -0.6575
  495SOL    HW1 1978   2.822   1.693   2.762  0.5465 -0.4239  0.1113
  495SOL    HW2 1979   2.745   1.567   2.735  0.1157 -1.8145 -2.8753
  495SOL     MW 1980   2.807   1.626   2.710  0.3978 -0.2988 -0.8487
  496SOL     OW 1981   2.811   2.297   2.740  0.3425 -0.1149  0.1330
  496SOL    HW1 1982   2.830   2.215   2.776  2.1384 -0.3876 -0.8750
  496SOL    HW2 1983   2.895   2.340   2.744  1.7764  1.8677  0.6725
  496SOL     MW 1984   2.825   2.292   2.745  0.7686  0.1107  0.0712
  497SOL     OW 1985   1.500   2.416   2.587 -0.8640  0.3220  0.4497
  497SOL    HW1 1986   1.502   2.350   2.520 -0.3773 -2.6503  0.8806
  497SOL    HW2 1987   1.474   2.359   2.663 -0.2179 -0.3364 -0.2537
  497SOL     MW 1988   1.497   2.400   2.588 -0.7146 -0.1570  0.4137
  498SOL     OW 1989   1.482   2.731   2.333  0.2200 -0.2540 -0.2075
  498SOL    HW1 1990   1.453   2.699   2.419 -0.7492 -3.0169 -1.1443
  498SOL    HW2 1991   1.570   2.764   2.352 -0.6648 -1.5479 -0.7888
  498SOL     MW 1992   1.490   2.731   2.347 -0.0246 -0.7892 -0.4078
  499SOL     OW 1993   0.990   0.018   0.087 -0.5342  0.2973  0.1854
  499SOL    HW1 1994   0.909   0.071   0.086 -1.0461 -0.0815  1.4269
  499SOL    HW2 1995   0.974  -0.052   0.024 -1.4133  0.4734  2.1964
  499SOL     MW 1996   0.977   0.016   0.079 -0.7177  0.2706  0.6145
  500SOL     OW 1997   1.011   2.545   2.721  0.2149 -0.2278 -0.0499
  500SOL    HW1 1998   1.071   2.544   2.798  2.6995  2.2290  1.2314
  500SOL    HW2 1999   0.944   2.612   2.732  1.4054  0.3784  0.6685
  500SOL     MW 2000   1.010   2.554   2.733  0.6998  0.1763  0.2139
  501SOL     OW 2001   1.806   2.335   2.977  0.4200 -0.6306 -0.0641
  501SOL    HW1 2002   1.814   2.423   2.945 -0.5835 -0.8685 -0.2989
  501SOL    HW2 2003   1.896   2.308   3.001 -0.0057  1.0971  0.0982
  501SOL     MW 2004   1.819   2.343   2.976  0.2314 -0.4341 -0.0737
  502SOL     OW 2005   0.300   2.738   2.806  0.4373  0.0786  0.4423
  502SOL    HW1 2006   0.344   2.789   2.742  0.1386 -0.0939  1.7221
  502SOL    HW2 2007   0.249   2.800   2.857  0.4137 -1.3247  2.2143
  502SOL     MW 2008   0.299   2.753   2.804  0.3948 -0.1293  0.8449
  503SOL     OW 2009   1.101   2.476   2.071 -0.1168  0.2040  0.2031
  503SOL    HW1 2010   1.147   2.526   2.003  1.6473 -3.0198  1.0977
  503SOL    HW2 2011   1.010   2.476   2.046  0.8478  1.3411  1.1538
  503SOL     MW 2012   1.095   2.483   2.059  0.2433 -0.0713  0.4466
  504SOL     OW 2013   0.082   2.606   2.175 -0.3278  0.2033 -0.3148
  504SOL    HW1 2014   0.098   2.518   2.134 -0.1554 -3.0139  1.0949
  504SOL    HW2 2015   0.022   2.583   2.247  3.4800  2.2284 -0.0436
  504SOL     MW 2016   0.076   2.591   2.179  0.1973  0.0460 -0.0930
  505SOL     OW 2017   1.612   2.858   2.696 -0.1406  0.2228  0.1920
  505SOL    HW1 2018   1.632   2.882   2.606  1.2528  0.0891 -1.0079
  505SOL    HW2 2019   1.528   2.905   2.719 -0.5186 -1.5246  1.5084
  505SOL     MW 2020   1.604   2.867   2.687 -0.0066 -0.0254  0.2073
  506SOL     OW 2021   1.551   0.125   2.736 -0.5070  0.3468  0.9355
  506SOL    HW1 2022   1.545   0.070   2.811  1.5364  0.6282 -0.5297
  506SOL    HW2 2023   1.616   0.089   2.679 -0.7726 -3.1230 -1.9936
  506SOL     MW 2024   1.559   0.113   2.738 -0.2724 -0.0739  0.3557
  507SOL     OW 2025   0.817   2.699   2.850 -0.8792 -0.1047  0.0257
  507SOL    HW1 2026   0.838   2.764   2.778 -0.0532  0.1461 -0.1173
  507SOL    HW2 2027   0.733   2.725   2.879  1.6473 -0.4941 -0.1681
  507SOL     MW 2028   0.809   2.711   2.844 -0.4369 -0.1230 -0.0187
  508SOL     OW 2029   1.165   2.150   2.543  0.8721 -0.0606  0.3023
  508SOL    HW1 2030   1.245   2.173   2.590  2.2499  2.6906  0.9867
  508SOL    HW2 2031   1.105   2.140   2.613  1.1224  1.0426  0.3007
  508SOL     MW 2032   1.168   2.152   2.558  1.0869  0.4480  0.3924
  509SOL     OW 2033   0.553   2.601   2.880  0.1617  0.0009 -0.0054
  509SOL    HW1 2034   0.563   2.544   2.800 -1.1088  3.3192  0.3651
  509SOL    HW2 2035   0.481   2.663   2.852 -1.0140  0.1238 -0.0419
  509SOL     MW 2036   0.545   2.602   2.866 -0.1610  0.4550  0.0387
  510SOL     OW 2037   1.535   2.636   1.728 -0.7011  0.4617 -1.0215
  510SOL    HW1 2038   1.597   2.687   1.786  1.4162 -0.0435  0.3813
  510SOL    HW2 2039   1.443   2.639   1.764 -0.6656 -1.3426  0.2412
  510SOL     MW 2040   1.531   2.643   1.740 -0.4170  0.1570 -0.6698
  511SOL     OW 2041   0.382   2.588   2.517  0.1144  0.1894 -0.0117
  511SOL    HW1 2042   0.435   2.546   2.581  0.7587 -0.1337 -1.1693
  511SOL    HW2 2043   0.423   2.575   2.431  1.4797  3.3783 -0.5986
  511SOL     MW 2044   0.394   2.581   2.514  0.3796  0.5675 -0.2419
  512SOL     OW 2045   0.933   1.997   2.808  0.0732  0.2122 -0.0610
  512SOL    HW1 2046   0.840   2.020   2.820  0.7652 -1.9844  0.7413
  512SOL    HW2 2047   0.950   1.921   2.866 -1.6201  1.4735 -0.0778
  512SOL     MW 2048   0.923   1.990   2.817 -0.0589  0.0888  0.0427
  513SOL     OW 2049   1.466   2.417   2.208  0.0685 -0.4335  0.3704
  513SOL    HW1 2050   1.537   2.475   2.236  1.2376  2.1962 -2.6377
  513SOL    HW2 2051   1.472   2.342   2.270  0.9851 -2.1482 -2.2291
  513SOL     MW 2052   1.476   2.415   2.220  0.3437 -0.3128 -0.3695
  514SOL     OW 2053   0.189   2.401   2.637  0.3870 -0.4712  0.0647
  514SOL    HW1 2054   0.249   2.434   2.572 -0.5955  0.0578  0.5104
  514SOL    HW2 2055   0.250   2.374   2.706 -0.6962 -0.8595  1.5746
  514SOL     MW 2056   0.205   2.402   2.638  0.1145 -0.4527  0.3227
  515SOL     OW 2057   1.061   2.014   1.904  0.0506  0.1955  0.0020
  515SOL    HW1 2058   1.046   2.077   1.975  1.6958 -1.7735 -2.7890
  515SOL    HW2 2059   1.148   1.988   1.931  1.4260 -2.0074 -2.4250
  515SOL     MW 2060   1.070   2.019   1.917  0.4492 -0.3550 -0.6865
  516SOL     OW 2061   1.312   2.611   2.903  0.2773  0.0594  0.1017
  516SOL    HW1 2062   1.302   2.632   2.807 -0.7349 -0.8441  0.8828
  516SOL    HW2 2063   1.257   2.529   2.918  3.7861 -0.5496 -0.8221
  516SOL     MW 2064   1.303   2.603   2.892  0.6067 -0.1402  0.0828
  517SOL     OW 2065   0.450   2.275   2.334 -0.3737 -0.1689 -0.5273
  517SOL    HW1 2066   0.435   2.364   2.303 -0.1287  1.5259 -0.3293
  517SOL    HW2 2067   0.396   2.223   2.272 -0.0193 -0.1075  0.1582
  517SOL     MW 2068   0.441   2.280   2.322 -0.2946  0.0628 -0.4107
  518SOL     OW 2069   1.770   0.217   3.027 -0.1841 -0.2430  0.1541
  518SOL    HW1 2070   1.736   0.278   3.093 -1.0838 -0.1988  0.4243
  518SOL    HW2 2071   1.732   0.135   3.040 -0.7702 -2.7831  1.2321
  518SOL     MW 2072   1.761   0.214   3.037 -0.3801 -0.5723  0.3320
  519SOL     OW 2073   0.590   2.377   1.997  0.8236 -0.1800  0.0788
  519SOL    HW1 2074   0.627   2.291   1.970 -1.9685 -2.6367  0.5362
  519SOL    HW2 2075   0.517   2.400   1.936 -1.1193 -1.8290 -2.6906
  519SOL     MW 2076   0.585   2.369   1.985  0.1988 -0.7217 -0.2263
  520SOL     OW 2077   1.132   2.155   2.908 -0.4072 -0.4089 -0.4811
  520SOL    HW1 2078   1.052   2.107   2.880  0.0575 -0.1075  2.2021
  520SOL    HW2 2079   1.133   2.117   2.999 -0.7346  0.7722  1.4606
  520SOL     MW 2080   1.122   2.144   2.916 -0.3891 -0.2133  0.1291
  521SOL     OW 2081   1.694   2.123   2.179  0.2620 -0.2461 -0.2019
  521SOL    HW1 2082   1.754   2.124   2.109  0.9612 -1.2635 -1.2686
  521SOL    HW2 2083   1.676   2.032   2.211 -2.7705  0.4027  1.9850
  521SOL     MW 2084   1.700   2.111   2.174 -0.0458 -0.2947 -0.0541
  522SOL     OW 2085   2.824   2.540   2.138  0.6172  0.1129  0.5624
  522SOL    HW1 2086   2.856   2.526   2.234  0.0016 -0.8784  0.6123
  522SOL    HW2 2087   2.850   2.636   2.124 -1.0098  1.5259 -1.4248
  522SOL     MW 2088   2.832   2.551   2.149  0.3213  0.1686  0.3068
  523SOL     OW 2089   0.786   1.483   2.145  0.3763  0.7127 -0.0187
  523SOL    HW1 2090   0.785   1.535   2.065 -0.2659  0.6727 -0.1650
  523SOL    HW2 2091   0.868   1.428   2.141 -1.6029 -0.6913 -1.7533
  523SOL     MW 2092   0.797   1.483   2.134  0.0304  0.5221 -0.2669
  524SOL     OW 2093   0.539   2.354   3.019  0.4581 -0.2061  0.5398
  524SOL    HW1 2094   0.549   2.432   2.963  0.4428 -2.4723  0.6427
  524SOL    HW2 2095   0.620   2.299   3.023 -3.3340  1.8614  1.5885
  524SOL     MW 2096   0.551   2.357   3.012 -0.0442 -0.2323  0.6917
  525SOL     OW 2097   0.291   2.162   2.135  0.2624 -0.1202 -0.1300
  525SOL    HW1 2098   0.236   2.123   2.205 -0.6023  0.6321 -2.6834
  525SOL    HW2 2099   0.352   2.095   2.097 -1.3511 -1.6968  0.4299
  525SOL     MW 2100   0.292   2.148   2.139 -0.0646 -0.2290 -0.3930
  526SOL     OW 2101   0.680   2.102   1.931 -0.9141 -0.2892  0.1193
  526SOL    HW1 2102   0.726   2.096   1.851  4.2198  0.4988 -1.0537
  526SOL    HW2 2103   0.750   2.108   1.998  2.3548 -3.9128  2.0059
  526SOL     MW 2104   0.695   2.102   1.929  0.1945 -0.6634  0.2135
  527SOL     OW 2105   1.279   1.902   2.043  0.1003 -0.0548  0.4305
  527SOL    HW1 2106   1.225   1.862   2.109 -1.2208  1.8365  2.6279
  527SOL    HW2 2107   1.338   1.827   2.016 -1.3832  1.9072 -1.1361
  527SOL     MW 2108   1.280   1.887   2.048 -0.2698  0.4536  0.5137
  528SOL     OW 2109   0.618   2.910   2.910  0.1576 -0.2669  0.5852
  528SOL    HW1 2110   0.698   2.968   2.905 -0.0055 -0.4043 -0.6785
  528SOL    HW2 2111   0.590   2.899   2.821  1.3241  0.4423 -2.2402
  528SOL     MW 2112   0.625   2.916   2.898  0.2900 -0.1915  0.0457
  529SOL     OW 2113   1.106   2.258   1.768  0.4559  0.0327  0.0168
  529SOL    HW1 2114   1.125   2.194   1.832 -0.0677  2.0648  0.9464
  529SOL    HW2 2115   1.162   2.265   1.693  0.9594  2.1356 -0.6668
  529SOL     MW 2116   1.116   2.250   1.767  0.4533  0.5782  0.0492
  530SOL     OW 2117   1.137   2.434   2.953 -0.0254 -0.5308 -0.0886
  530SOL    HW1 2118   1.083   2.456   3.028 -0.3658 -1.7377 -2.6034
  530SOL    HW2 2119   1.125   2.341   2.932  0.2158 -1.6959  0.8107
  530SOL     MW 2120   1.128   2.425   2.960 -0.0385 -0.8438 -0.3017
  531SOL     OW 2121   0.906   1.828   2.587 -0.4527  0.1421  0.6404
  531SOL    HW1 2122   0.917   1.889   2.664 -0.3194 -1.6527 -1.6527
  531SOL    HW2 2123   0.864   1.751   2.631  0.3308  3.9099  1.4740
  531SOL     MW 2124   0.902   1.826   2.603 -0.3318  0.4024  0.4478
  532SOL     OW 2125   1.695   0.363   2.763  0.3159  0.2710  0.1544
  532SOL    HW1 2126   1.638   0.293   2.739  0.1410 -1.0927  1.5134
  532SOL    HW2 2127   1.716   0.346   2.856  1.5875 -1.1778 -1.9113
  532SOL     MW 2128   1.690   0.352   2.772  0.4606 -0.1001  0.0611
  533SOL     OW 2129   1.765   2.858   2.940  0.6912  0.1063  0.0381
  533SOL    HW1 2130   1.728   2.785   2.989 -0.1489  1.2391  1.0765
  533SOL    HW2 2131   1.713   2.850   2.859  0.6175 -1.1702  1.7344
  533SOL     MW 2132   1.753   2.847   2.936  0.5706  0.0873  0.3989
  534SOL     OW 2133   1.749   2.560   2.530  0.6850 -0.6367 -0.4230
  534SOL    HW1 2134   1.665   2.517   2.534 -2.8072 -2.0025 -3.1818
  534SOL    HW2 2135   1.789   2.536   2.615  1.6724  2.2395 -2.3746
  534SOL     MW 2136   1.743   2.551   2.542  0.3545 -0.4374 -1.0445
  535SOL     OW 2137   1.834   2.349   1.933 -0.6423  0.8193  0.1786
  535SOL    HW1 2138   1.781   2.365   1.853 -1.1457 -0.2024  1.3319
  535SOL    HW2 2139   1.923   2.378   1.912 -0.1005 -1.1230 -1.3571
  535SOL     MW 2140   1.839   2.355   1.920 -0.6372  0.4282  0.1282
  536SOL     OW 2141   0.401   1.963   1.997 -0.5224 -0.1002  0.4175
  536SOL    HW1 2142   0.390   1.987   1.904 -1.0673 -0.9723 -1.4135
  536SOL    HW2 2143   0.492   1.936   2.007 -0.5981  0.3729 -1.3571
  536SOL     MW 2144   0.412   1.963   1.986 -0.6043 -0.1528 -0.0583
  537SOL     OW 2145   1.085   0.166   2.952 -0.5813  0.0295  0.1029
  537SOL    HW1 2146   1.057   0.135   3.034  0.1145 -0.3107  1.7194
  537SOL    HW2 2147   1.068   0.264   2.943  2.3570 -1.4417 -0.0385
  537SOL     MW 2148   1.079   0.175   2.962 -0.1018 -0.2095  0.2975
  538SOL     OW 2149   1.326   0.096   2.955 -0.3465  0.5679  0.7157
  538SOL    HW1 2150   1.235   0.111   2.944 -0.9420 -0.5390  0.0824
  538SOL    HW2 2151   1.359   0.164   3.015 -1.1567 -0.1153 -1.1674
  538SOL     MW 2152   1.318   0.107   2.961 -0.5320  0.3317  0.3837
  539SOL     OW 2153   0.701   2.734   2.474  0.4307  0.4232  0.1852
  539SOL    HW1 2154   0.783   2.785   2.502 -0.6595 -1.3264 -1.3259
  539SOL    HW2 2155   0.725   2.645   2.503  0.0248 -0.2816 -0.6049
  539SOL     MW 2156   0.715   2.729   2.482  0.2333  0.0994 -0.1184
  540SOL     OW 2157   0.347   2.271   2.857  0.7684 -0.0720  0.0003
  540SOL    HW1 2158   0.406   2.300   2.923  0.8883  1.4115  0.1280
  540SOL    HW2 2159   0.304   2.199   2.907  0.2533  1.8775 -1.3634
  540SOL     MW 2160   0.349   2.265   2.872  0.7163  0.3809 -0.1628
  541SOL     OW 2161   0.148   2.858   2.281  0.1024  0.6089  0.1545
  541SOL    HW1 2162   0.131   2.769   2.247 -4.8569  1.4000 -1.2494
  541SOL    HW2 2163   0.175   2.838   2.374  1.1440  0.0011 -2.2078
  541SOL     MW 2164   0.149   2.844   2.289 -0.4145  0.6330 -0.3424
  542SOL     OW 2165   0.856   2.314   2.824  0.0018  0.2307 -0.2601
  542SOL    HW1 2166   0.838   2.328   2.925  1.8104 -0.6279  0.0739
  542SOL    HW2 2167   0.910   2.393   2.807  2.0701  0.3033 -0.5572
  542SOL     MW 2168   0.861   2.326   2.835  0.5133  0.1270 -0.2552
  543SOL     OW 2169   1.361   2.681   2.593 -0.2677 -0.2329 -0.1158
  543SOL    HW1 2170   1.386   2.590   2.596  0.8725 -1.0749 -1.0088
  543SOL    HW2 2171   1.437   2.729   2.631  0.7961 -0.2310  2.1085
  543SOL     MW 2172   1.374   2.675   2.598  0.0231 -0.3438  0.0598
  544SOL     OW 2173   0.671   0.077   2.713 -0.3518  0.4731 -0.2531
  544SOL    HW1 2174   0.582   0.059   2.738  0.7231 -0.9519 -2.1227
  544SOL    HW2 2175   0.687   0.039   2.631  1.8113 -0.5583 -1.3913
  544SOL     MW 2176   0.661   0.070   2.705  0.0754  0.1490 -0.6500
  545SOL     OW 2177   1.511   2.207   2.406  0.5112 -0.3553 -0.0246
  545SOL    HW1 2178   1.467   2.126   2.417  2.5282 -0.7680 -1.1165
  545SOL    HW2 2179   1.600   2.199   2.379 -1.5546 -2.9678  0.7638
  545SOL     MW 2180   1.517   2.195   2.404  0.5048 -0.7545 -0.0646
  546SOL     OW 2181   2.990   1.950   0.163 -0.0697  0.4957  0.2003
  546SOL    HW1 2182   2.946   2.024   0.112  0.1877  2.7689 -1.9208
  546SOL    HW2 2183   3.066   1.925   0.105 -0.2908 -0.4634  0.7857
  546SOL     MW 2184   2.994   1.956   0.149 -0.0649  0.6691 -0.0023
  547SOL     OW 2185   0.139   2.869   0.055 -0.4357  0.3473  0.8684
  547SOL    HW1 2186   0.156   2.924  -0.021 -1.9013  1.8958 -0.0220
  547SOL    HW2 2187   0.185   2.791   0.034 -0.2380  2.0757  1.7728
  547SOL     MW 2188   0.147   2.866   0.042 -0.6030  0.7797  0.8703
  548SOL     OW 2189   0.258   2.550   0.270 -0.0911 -0.3256  0.1742
  548SOL    HW1 2190   0.281   2.565   0.182 -2.0284  0.7028 -0.2972
  548SOL    HW2 2191   0.163   2.544   0.264  1.3338  0.8123  0.0131
  548SOL     MW 2192   0.249   2.551   0.258 -0.1587 -0.0397  0.0908
  549SOL     OW 2193   0.643   1.857   2.093  0.5121 -0.1753  0.8259
  549SOL    HW1 2194   0.668   1.948   2.091  4.0524  1.3242 -0.6067
  549SOL    HW2 2195   0.671   1.815   2.178  0.6698 -1.3706 -2.9825
  549SOL     MW 2196   0.650   1.863   2.104  1.0000 -0.1352  0.1344
  550SOL     OW 2197   1.740   1.821   2.472 -0.0055  0.0472  0.3053
  550SOL    HW1 2198   1.727   1.822   2.376 -1.8924 -4.2978 -1.1939
  550SOL    HW2 2199   1.785   1.898   2.498  1.8518 -0.4131 -0.2782
  550SOL     MW 2200   1.744   1.831   2.463 -0.0094 -0.5868  0.0305
  551SOL     OW 2201   0.849   2.384   0.211  0.6560 -0.1549 -0.4495
  551SOL    HW1 2202   0.944   2.383   0.212 -1.5538  1.9635  2.1932
  551SOL    HW2 2203   0.831   2.327   0.134  1.4974  0.8639  0.2918
  551SOL     MW 2204   0.859   2.376   0.201  0.4755  0.2590 -0.0030
  552SOL     OW 2205   1.710   1.844   2.196 -0.6907 -0.8745 -0.1335
  552SOL    HW1 2206   1.615   1.816   2.222 -1.3939 -1.6628 -0.2155
  552SOL    HW2 2207   1.753   1.785   2.132 -0.5466 -2.1319  0.6754
  552SOL     MW 2208   1.703   1.833   2.191 -0.7645 -1.1444 -0.0376
  553SOL     OW 2209   1.223   2.276   1.522  0.3387  0.1789  0.7330
  553SOL    HW1 2210   1.272   2.196   1.497  0.0035 -0.8083  4.6253
  553SOL    HW2 2211   1.283   2.349   1.543 -0.3182  0.0367  1.1365
  553SOL     MW 2212   1.237   2.275   1.521  0.2078  0.0299  1.2998
  554SOL     OW 2213   0.536   2.887   2.638 -0.1091  0.1579  1.0306
  554SOL    HW1 2214   0.517   2.952   2.570  0.6029  2.3360  0.0613
  554SOL    HW2 2215   0.581   2.822   2.584  1.4094  0.4775  1.7016
  554SOL     MW 2216   0.539   2.887   2.622  0.1852  0.4874  0.9912
  555SOL     OW 2217   0.562   2.430   2.657  0.5261 -0.3412 -0.2859
  555SOL    HW1 2218   0.558   2.335   2.632  4.1638 -2.6194 -1.8879
  555SOL    HW2 2219   0.653   2.432   2.643  1.0870  2.3068  2.8997
  555SOL     MW 2220   0.573   2.418   2.652  1.0801 -0.2924 -0.0769
  556SOL     OW 2221   1.033   1.828   0.128  0.2543  0.3377  0.0278
  556SOL    HW1 2222   1.036   1.819   0.036 -1.0161  1.8585 -1.0303
  556SOL    HW2 2223   1.122   1.853   0.161  0.5018 -0.5617 -2.4126
  556SOL     MW 2224   1.045   1.830   0.120  0.1193  0.4197 -0.4338
  557SOL     OW 2225   1.006   2.650   0.455 -0.2421 -0.0244  0.0526
  557SOL    HW1 2226   1.094   2.662   0.410 -0.4563  0.3588 -2.0800
  557SOL    HW2 2227   0.949   2.718   0.412 -2.1527  1.8790 -1.0983
  557SOL     MW 2228   1.010   2.661   0.443 -0.5224  0.2773 -0.3806
  558SOL     OW 2229   0.262   2.103   3.062  0.2542  0.2532  0.4058
  558SOL    HW1 2230   0.226   2.016   3.094 -1.4000  0.0684 -0.1346
  558SOL    HW2 2231   0.193   2.164   3.112  0.6555 -0.4106 -0.9627
  558SOL     MW 2232   0.248   2.100   3.073  0.0889  0.1413  0.1540
  559SOL     OW 2233   1.221   2.210   2.046  0.5663  0.1284 -0.5114
  559SOL    HW1 2234   1.203   2.300   2.036 -0.9391  0.8602 -2.0829
  559SOL    HW2 2235   1.188   2.194   2.135  0.7723 -0.4609 -0.0436
  559SOL     MW 2236   1.214   2.220   2.056  0.3949  0.1472 -0.6570
  560SOL     OW 2237   1.927   2.935   0.056  0.2317 -0.2988  0.4022
  560SOL    HW1 2238   1.998   2.972   0.001 -0.1698  0.1790 -0.6216
  560SOL    HW2 2239   1.863   2.891   0.003  0.6666  1.3442 -3.2211
  560SOL     MW 2240   1.928   2.934   0.042  0.2361 -0.0190 -0.2109
  561SOL     OW 2241   0.394   2.077   0.219  0.5389  0.4740 -0.4684
  561SOL    HW1 2242   0.352   2.101   0.138 -1.6155 -0.4619  0.1140
  561SOL    HW2 2243   0.396   2.168   0.263  1.9620 -1.8243 -1.8085
  561SOL     MW 2244   0.389   2.092   0.214  0.4424  0.0473 -0.5684
  562SOL     OW 2245   0.853   2.124   2.128 -0.1421 -0.4286 -0.5402
  562SOL    HW1 2246   0.816   2.175   2.200  1.2564  1.3624 -1.3352
  562SOL    HW2 2247   0.939   2.109   2.165  1.8794  4.3887  3.4486
  562SOL     MW 2248   0.859   2.129   2.142  0.3091  0.4433 -0.1188
  563SOL     OW 2249   1.278   0.280   0.460 -0.0921  0.0143  0.0999
  563SOL    HW1 2250   1.207   0.231   0.432  1.1340 -0.6956 -0.9397
  563SOL    HW2 2251   1.304   0.226   0.538 -1.1861  1.5152  0.5990
  563SOL     MW 2252   1.272   0.266   0.467 -0.0747  0.1186  0.0286
  564SOL     OW 2253   1.051   2.532   2.334 -0.4449  0.0933 -0.0208
  564SOL    HW1 2254   1.071   2.526   2.240  0.6610  2.7555  0.8016
  564SOL    HW2 2255   1.082   2.622   2.363  1.2207 -2.7175 -2.6554
  564SOL     MW 2256   1.058   2.543   2.325 -0.0792  0.0737 -0.2599
  565SOL     OW 2257   2.908   2.658   2.653  0.0639 -0.0102  0.0181
  565SOL    HW1 2258   2.957   2.739   2.641 -0.7308 -0.7369  0.2427
  565SOL    HW2 2259   2.864   2.627   2.575 -3.5129  1.0726 -2.2839
  565SOL     MW 2260   2.909   2.665   2.641 -0.5129  0.0368 -0.2560
  566SOL     OW 2261   2.168   2.113   2.355  0.4960 -0.2665 -0.2039
  566SOL    HW1 2262   2.205   2.096   2.269 -0.1073  1.1489  0.6319
  566SOL    HW2 2263   2.243   2.145   2.407 -0.8602  0.4590  0.6664
  566SOL     MW 2264   2.183   2.115   2.351  0.2375  0.0160  0.0212
  567SOL     OW 2265   1.108   2.876   0.163  0.0516 -0.0609  0.6182
  567SOL    HW1 2266   1.084   2.967   0.183  1.3994 -0.9545 -0.5333
  567SOL    HW2 2267   1.177   2.887   0.104 -0.3049 -0.8931 -0.4177
  567SOL     MW 2268   1.114   2.889   0.158  0.1824 -0.2886  0.3296
  568SOL     OW 2269   1.644   2.152   2.813 -0.2291 -0.0700 -0.6137
  568SOL    HW1 2270   1.699   2.222   2.854  2.8325 -2.7270 -2.1540
  568SOL    HW2 2271   1.706   2.114   2.757 -0.0190 -2.0085  1.6507
  568SOL     MW 2272   1.659   2.156   2.811  0.2025 -0.6764 -0.5182
  569SOL     OW 2273   0.053   2.212   2.492 -0.3076 -0.1615  0.6825
  569SOL    HW1 2274  -0.004   2.263   2.437 -2.2479  0.9961 -2.2383
  569SOL    HW2 2275   0.094   2.279   2.546  0.0665 -0.5170  0.3624
  569SOL     MW 2276   0.051   2.228   2.492 -0.5143 -0.0557  0.2549
  570SOL     OW 2277   1.576   0.356   0.453 -0.0324 -0.3240  0.2936
  570SOL    HW1 2278   1.484   0.332   0.443 -2.4872 -0.7366 -0.2311
  570SOL    HW2 2279   1.589   0.405   0.531 -1.9919  0.1007 -0.5791
  570SOL     MW 2280   1.566   0.359   0.462 -0.6148 -0.3224  0.1092
  571SOL     OW 2281   1.457   2.421   1.930 -0.5008 -0.0383  0.6349
  571SOL    HW1 2282   1.452   2.444   2.025 -0.4791 -0.7283 -0.5944
  571SOL    HW2 2283   1.461   2.328   1.917  3.3360  0.5678 -1.2854
  571SOL     MW 2284   1.457   2.412   1.941  0.0083 -0.0494  0.2193
  572SOL     OW 2285   0.899   2.553   3.052  0.2553 -0.2105 -0.4373
  572SOL    HW1 2286   0.860   2.602   2.980 -1.0509  2.0860  0.0502
  572SOL    HW2 2287   0.821   2.538   3.107 -2.2255  2.4051 -2.0322
  572SOL     MW 2288   0.884   2.557   3.050 -0.2443  0.4376 -0.5834
  573SOL     OW 2289   1.140   2.391   0.211 -0.1177  0.0870 -0.2097
  573SOL    HW1 2290   1.225   2.363   0.172 -1.6760 -0.3072  0.5834
  573SOL    HW2 2291   1.143   2.483   0.214  0.5824  0.5456 -0.1117
  573SOL     MW 2292   1.152   2.399   0.206 -0.2309  0.0955 -0.0921
  574SOL     OW 2293   1.223   2.677   0.309  0.1742  0.0189 -0.5367
  574SOL    HW1 2294   1.312   2.713   0.331 -0.7901  0.0963 -1.1128
  574SOL    HW2 2295   1.172   2.741   0.254 -0.7811  2.7030  0.1509
  574SOL     MW 2296   1.228   2.690   0.305 -0.0791  0.3832 -0.5220
  575SOL     OW 2297   3.074   2.253   1.881  0.0738 -0.1903 -0.3255
  575SOL    HW1 2298   3.079   2.175   1.821  1.3714  1.7656 -1.5757
  575SOL    HW2 2299   3.144   2.311   1.853 -0.0617 -2.4158 -0.1462
  575SOL     MW 2300   3.084   2.250   1.869  0.2271 -0.2259 -0.4668
  576SOL     OW 2301   2.747   1.843   2.075 -0.2456  0.2002  0.2227
  576SOL    HW1 2302   2.770   1.927   2.031 -3.3898 -0.4510  2.9301
  576SOL    HW2 2303   2.673   1.808   2.028 -1.3585  1.2338  0.8008
  576SOL     MW 2304   2.740   1.849   2.063 -0.8073  0.2507  0.6562
  577SOL     OW 2305   2.041   0.349   0.076  0.3626  0.7957 -0.5098
  577SOL    HW1 2306   1.977   0.387   0.019  0.1651  0.0604 -0.2439
  577SOL    HW2 2307   1.996   0.299   0.142  1.5684 -2.5462  2.6823
  577SOL     MW 2308   2.027   0.347   0.077  0.4957  0.2577 -0.0536
  578SOL     OW 2309   1.886   2.197   2.373  0.1901 -0.0017  0.1862
  578SOL    HW1 2310   1.824   2.155   2.316  3.8477  1.7875 -0.0656
  578SOL    HW2 2311   1.969   2.154   2.340  1.5716 -0.6164  1.5833
  578SOL     MW 2312   1.889   2.186   2.361  0.8549  0.1532  0.3373
  579SOL     OW 2313   0.838   2.484   2.519 -0.5986  0.6290 -0.1677
  579SOL    HW1 2314   0.908   2.477   2.586 -1.7929  0.5100 -2.1203
  579SOL    HW2 2315   0.896   2.497   2.440 -0.2534 -1.3274 -0.4105
  579SOL     MW 2316   0.855   2.485   2.517 -0.7106  0.3552 -0.4573
  580SOL     OW 2317   0.916   2.892   3.054 -0.3878 -0.4141 -0.2490
  580SOL    HW1 2318   0.971   2.881   3.138  1.5395 -0.2085  1.9781
  580SOL    HW2 2319   0.903   2.800   3.024 -2.5781 -2.3785  0.4992
  580SOL     MW 2320   0.922   2.878   3.061 -0.4225 -0.6461  0.1436
  581SOL     OW 2321   1.056   2.558   1.776  0.2559 -0.1778 -0.4882
  581SOL    HW1 2322   1.143   2.596   1.760 -0.4478  2.1386  0.2312
  581SOL    HW2 2323   1.069   2.459   1.774  0.0391 -1.1189  1.8303
  581SOL     MW 2324   1.069   2.550   1.774  0.1345  0.0036 -0.0874
  582SOL     OW 2325   3.062   2.879   2.629  0.7507  0.3049  0.3139
  582SOL    HW1 2326   3.050   2.959   2.685  0.3430 -0.6052 -1.2461
  582SOL    HW2 2327   3.155   2.847   2.641  1.3657  0.5138  0.2886
  582SOL     MW 2328   3.073   2.885   2.638  0.7780  0.2124  0.1047
  583SOL     OW 2329   1.943   2.540   2.733  0.0811 -0.7771  0.5455
  583SOL    HW1 2330   2.008   2.596   2.685  0.4325  2.9360 -2.9697
  583SOL    HW2 2331   1.967   2.449   2.710 -1.4643 -1.2849  1.3402
  583SOL     MW 2332   1.955   2.535   2.724 -0.0764 -0.3542  0.1866
  584SOL     OW 2333   0.171   1.845   2.136  0.0865 -0.0762 -0.4811
  584SOL    HW1 2334   0.237   1.880   2.072 -0.9729 -1.3209 -1.0375
  584SOL    HW2 2335   0.155   1.912   2.202  1.9615  0.0929 -1.9305
  584SOL     MW 2336   0.178   1.858   2.136  0.1941 -0.2181 -0.7457
  585SOL     OW 2337   1.497   2.559   0.097 -0.9327 -0.4531 -0.6135
  585SOL    HW1 2338   1.448   2.571   0.008  2.9034  2.4067  0.6746
  585SOL    HW2 2339   1.455   2.619   0.156 -0.6645  0.0222  2.2331
  585SOL     MW 2340   1.485   2.568   0.093 -0.3912 -0.0131 -0.0679
  586SOL     OW 2341   1.265   2.959   2.343 -0.3138 -0.0681 -0.5909
  586SOL    HW1 2342   1.345   2.905   2.364 -1.5692 -0.4900 -1.3173
  586SOL    HW2 2343   1.248   3.028   2.407  0.1386 -1.3695  1.1060
  586SOL     MW 2344   1.273   2.961   2.354 -0.4197 -0.2955 -0.4629
  587SOL     OW 2345   1.191   1.618   2.190  0.2570 -0.3415  0.1020
  587SOL    HW1 2346   1.219   1.540   2.234 -1.7538 -0.3196 -1.2986
  587SOL    HW2 2347   1.150   1.596   2.108 -1.5752 -1.5112 -1.5130
  587SOL     MW 2348   1.189   1.605   2.185 -0.2501 -0.4929 -0.2959
  588SOL     OW 2349   1.371   2.219   2.728  0.5010  0.0549 -0.4289
  588SOL    HW1 2350   1.459   2.188   2.762  0.2845 -1.7400  0.0754
  588SOL    HW2 2351   1.323   2.216   2.809 -4.1551 -0.0411  3.2142
  588SOL     MW 2352   1.376   2.215   2.743 -0.1419 -0.1945  0.1183
  589SOL     OW 2353   1.323   2.039   3.082 -0.2941  0.0891  0.5018
  589SOL    HW1 2354   1.371   2.111   3.117  0.4328  1.9667 -0.0426
  589SOL    HW2 2355   1.301   1.985   3.158  1.3010 -2.0792 -1.0390
  589SOL     MW 2356   1.326   2.041   3.097  0.0123  0.0508  0.2267
  590SOL     OW 2357   0.442   2.529   2.245  0.2014  0.4918  0.3523
  590SOL    HW1 2358   0.371   2.540   2.178 -0.8574 -0.3257 -1.0486
  590SOL    HW2 2359   0.521   2.501   2.197  0.2102 -1.0386 -0.8623
  590SOL     MW 2360   0.443   2.527   2.230  0.0629  0.1820  0.0073
  591SOL     OW 2361   2.234   0.702   3.017 -0.1363 -0.8621  0.1885
  591SOL    HW1 2362   2.143   0.707   3.011  0.6526 -3.4532  0.0070
  591SOL    HW2 2363   2.266   0.681   2.927 -0.1172  1.0426 -0.7465
  591SOL     MW 2364   2.226   0.700   3.004 -0.0297 -0.9526  0.0412
  592SOL     OW 2365   1.890   2.876   0.813 -0.3372 -0.3827  0.2972
  592SOL    HW1 2366   1.897   2.935   0.743  3.5075  0.6775 -0.4590
  592SOL    HW2 2367   1.942   2.793   0.801 -2.6908 -0.5599 -0.7242
  592SOL     MW 2368   1.898   2.873   0.802 -0.1405 -0.2662  0.0626
  593SOL     OW 2369   1.898   0.834   0.904  0.1692 -0.0420  0.2600
  593SOL    HW1 2370   1.810   0.804   0.883  2.4509 -0.8427  0.4181
  593SOL    HW2 2371   1.950   0.750   0.925 -1.2016 -1.4660  1.1463
  593SOL     MW 2372   1.893   0.819   0.904  0.2894 -0.3355  0.3978
  594SOL     OW 2373   2.776   1.104   1.430  0.1051 -0.0353  0.0600
  594SOL    HW1 2374   2.840   1.175   1.433 -2.7395 -0.1586  1.2548
  594SOL    HW2 2375   2.752   1.095   1.338  0.0086  0.1138 -0.5963
  594SOL     MW 2376   2.781   1.112   1.418 -0.2829 -0.0319  0.1311
  595SOL     OW 2377   0.420   0.975   0.690  0.0321  0.8026  1.0534
  595SOL    HW1 2378   0.505   1.028   0.656  0.7014  1.5575 -2.5969
  595SOL    HW2 2379   0.437   0.981   0.788  1.5795 -0.3480 -2.5167
  595SOL     MW 2380   0.433   0.983   0.698  0.3246  0.7504  0.1007
  596SOL     OW 2381   2.445   1.338   0.592 -0.6200  0.0714  0.0920
  596SOL    HW1 2382   2.466   1.428   0.564  0.9574 -0.0990  1.1989
  596SOL    HW2 2383   2.526   1.301   0.637  0.0653  0.8445  1.4239
  596SOL     MW 2384   2.458   1.345   0.594 -0.3215  0.1509  0.4137
  597SOL     OW 2385   2.299   0.671   1.712  0.2179 -0.2116 -0.1689
  597SOL    HW1 2386   2.350   0.591   1.754  2.8457 -2.2280  1.0805
  597SOL    HW2 2387   2.281   0.632   1.625  0.4904 -0.4526  0.4727
  597SOL     MW 2388   2.303   0.655   1.706  0.6006 -0.5094  0.0806
  598SOL     OW 2389   2.620   1.052   2.815 -0.0191 -0.7981 -0.2496
  598SOL    HW1 2390   2.666   0.969   2.815  0.0086 -1.1078 -0.7740
  598SOL    HW2 2391   2.665   1.107   2.875  1.3207 -0.1291  0.1621
  598SOL     MW 2392   2.632   1.048   2.823  0.1613 -0.7507 -0.2644
  599SOL     OW 2393   2.890   0.359   2.099  0.2149  0.2737 -0.1989
  599SOL    HW1 2394   2.879   0.374   2.194 -0.2497 -2.2209 -1.5607
  599SOL    HW2 2395   2.953   0.421   2.062  1.3427  0.3794  1.5857
  599SOL     MW 2396   2.897   0.369   2.107  0.3024 -0.0415 -0.1431
  600SOL     OW 2397   1.841   1.646   0.850 -0.2311 -0.0811  0.5811
  600SOL    HW1 2398   1.851   1.595   0.929  1.8643 -2.3246  2.7389
  600SOL    HW2 2399   1.758   1.696   0.856 -0.1367 -3.0065  3.6800
  600SOL     MW 2400   1.831   1.646   0.861  0.0578 -0.7630  1.2747
  601SOL     OW 2401   2.463   0.723   0.880 -0.0763  0.1944  0.2573
  601SOL    HW1 2402   2.459   0.755   0.972  1.1029  1.0583  1.2284
  601SOL    HW2 2403   2.388   0.674   0.844 -2.8370 -1.2526 -0.9389
  601SOL     MW 2404   2.453   0.721   0.887 -0.2850  0.1175  0.2276
  602SOL     OW 2405   2.298   1.945   0.754 -0.2464  0.0063 -0.2889
  602SOL    HW1 2406   2.233   1.880   0.790 -1.4021  2.1785  0.2199
  602SOL    HW2 2407   2.300   1.931   0.663  0.5018 -3.0533 -0.0157
  602SOL     MW 2408   2.290   1.935   0.747 -0.3002 -0.1108 -0.1857
  603SOL     OW 2409   3.019   1.376   1.848 -0.2317 -0.3620 -0.2378
  603SOL    HW1 2410   3.088   1.393   1.913  1.4921  0.3026 -3.3640
  603SOL    HW2 2411   3.023   1.293   1.805  0.1114  0.6455 -0.2569
  603SOL     MW 2412   3.029   1.367   1.851  0.0410 -0.1414 -0.6528
  604SOL     OW 2413   2.110   1.513   0.477 -0.3097  0.3103  0.0131
  604SOL    HW1 2414   2.135   1.467   0.559  1.8745  1.1657  0.2038
  604SOL    HW2 2415   2.029   1.554   0.497 -2.1369 -0.1058 -1.0537
  604SOL     MW 2416   2.103   1.512   0.490 -0.2626  0.3683 -0.1025
  605SOL     OW 2417   2.663   1.565   0.829  0.3588 -0.2747 -0.0228
  605SOL    HW1 2418   2.627   1.634   0.779 -1.7515 -2.1088 -2.4888
  605SOL    HW2 2419   2.600   1.537   0.893 -2.4624 -1.8987 -0.4197
  605SOL     MW 2420   2.650   1.570   0.831 -0.2919 -0.7309 -0.4005
  606SOL     OW 2421   2.544   1.814   1.898  0.2689  0.5005 -0.2042
  606SOL    HW1 2422   2.461   1.804   1.940 -1.7408  2.9428 -0.9139
  606SOL    HW2 2423   2.584   1.735   1.861  1.9292  1.5622  0.0647
  606SOL     MW 2424   2.538   1.802   1.899  0.2228  0.9628 -0.2623
  607SOL     OW 2425   2.381   1.045   2.961  0.5154 -0.0107  0.4701
  607SOL    HW1 2426   2.466   1.050   2.909  2.5960  2.0837 -1.4526
  607SOL    HW2 2427   2.409   1.070   3.050 -0.6324  0.4179 -2.4747
  607SOL     MW 2428   2.396   1.049   2.966  0.6385  0.3222 -0.1722
  608SOL     OW 2429   1.927   0.297   0.678 -0.1545 -0.4193 -0.1973
  608SOL    HW1 2430   1.962   0.327   0.596 -3.1257  0.6690  1.1732
  608SOL    HW2 2431   1.911   0.199   0.667 -1.2537 -0.4898  2.4176
  608SOL     MW 2432   1.930   0.288   0.666 -0.6916 -0.2850  0.3286
  609SOL     OW 2433   2.107   1.956   3.025  0.2629  0.0943 -0.5618
  609SOL    HW1 2434   2.083   1.881   2.971  1.2727  0.2176 -1.8066
  609SOL    HW2 2435   2.111   1.924   3.116  1.4959  1.6866 -0.6276
  609SOL     MW 2436   2.104   1.942   3.030  0.5588  0.3206 -0.7347
  610SOL     OW 2437   1.842   1.088   1.357 -0.2187 -0.1064  0.2003
  610SOL    HW1 2438   1.866   1.006   1.312  0.3636  0.7001  1.0381
  610SOL    HW2 2439   1.769   1.059   1.417  0.1340 -1.0737  1.1036
  610SOL     MW 2440   1.836   1.073   1.359 -0.0953 -0.1276  0.4300
  611SOL     OW 2441   2.550   1.833   0.729 -0.5562 -0.4141  0.5211
  611SOL    HW1 2442   2.464   1.879   0.745 -4.6573  0.2823 -0.8752
  611SOL    HW2 2443   2.557   1.798   0.638  0.6479 -1.9263 -1.2996
  611SOL     MW 2444   2.540   1.834   0.719 -0.9384 -0.5217  0.0966
  612SOL     OW 2445   2.770   2.795   0.369  0.0415 -0.3460 -0.0491
  612SOL    HW1 2446   2.848   2.836   0.414 -0.3039 -0.5997  0.2329
  612SOL    HW2 2447   2.801   2.762   0.286 -3.0632  0.3446  0.3858
  612SOL     MW 2448   2.784   2.796   0.364 -0.4137 -0.2884  0.0455
  613SOL     OW 2449   1.629   1.001   1.093  0.5377  0.3519  0.3128
  613SOL    HW1 2450   1.609   1.082   1.145 -0.2385 -1.5296  3.4512
  613SOL    HW2 2451   1.711   0.963   1.131  0.4303 -1.9162 -0.9717
  613SOL     MW 2452   1.637   1.007   1.105  0.4211 -0.1956  0.5574
  614SOL     OW 2453   2.071   0.498   1.526 -0.9288  0.6597 -0.5264
  614SOL    HW1 2454   2.090   0.414   1.572 -0.7122  0.0713 -0.2025
  614SOL    HW2 2455   2.103   0.480   1.435 -1.0942 -2.2138 -0.5243
  614SOL     MW 2456   2.078   0.485   1.520 -0.9221  0.2030 -0.4834
  615SOL     OW 2457   2.238   0.814   0.177  0.3098  0.0839  0.0434
  615SOL    HW1 2458   2.295   0.785   0.246 -1.3964 -1.8366 -0.1382
  615SOL    HW2 2459   2.277   0.777   0.096  1.5099 -1.4094 -0.5766
  615SOL     MW 2460   2.251   0.805   0.175  0.2430 -0.3665 -0.0623
  616SOL     OW 2461   2.618   0.377   1.608 -0.3350 -0.3732  0.1500
  616SOL    HW1 2462   2.544   0.323   1.583  1.0167  0.7288 -0.7847
  616SOL    HW2 2463   2.618   0.450   1.550  2.3232 -1.4151  1.8991
  616SOL     MW 2464   2.608   0.380   1.597  0.1941 -0.3653  0.2575
  617SOL     OW 2465   2.888   0.568   1.764 -0.0287 -0.2737  0.0237
  617SOL    HW1 2466   2.807   0.589   1.807 -1.1762 -1.5378  0.7818
  617SOL    HW2 2467   2.888   0.474   1.736  3.1984  0.1284 -0.1991
  617SOL     MW 2468   2.877   0.558   1.766  0.2457 -0.3875  0.0943
  618SOL     OW 2469   2.662   0.333   1.940  0.3667  0.5671  0.0402
  618SOL    HW1 2470   2.660   0.419   1.899 -2.6174 -0.2646 -2.3694
  618SOL    HW2 2471   2.739   0.348   2.002 -0.5048  1.4450  0.9996
  618SOL     MW 2472   2.672   0.346   1.943 -0.1420  0.5732 -0.1512
  619SOL     OW 2473   2.583   0.770   0.154 -0.4274  0.1283 -0.3819
  619SOL    HW1 2474   2.646   0.818   0.210 -1.8293  3.2424 -0.2160
  619SOL    HW2 2475   2.515   0.745   0.212 -0.1377  1.7544 -1.6750
  619SOL     MW 2476   2.582   0.773   0.169 -0.5741  0.7537 -0.5307
  620SOL     OW 2477   2.284   1.131   0.922  0.5712  0.1622 -0.2160
  620SOL    HW1 2478   2.348   1.086   0.869  1.6804  0.1070 -0.9902
  620SOL    HW2 2479   2.216   1.068   0.904  3.0687 -0.0561  0.0523
  620SOL     MW 2480   2.283   1.117   0.913  1.0471  0.1261 -0.2827
  621SOL     OW 2481   1.480   2.157   1.969  0.3983  0.5652  0.1116
  621SOL    HW1 2482   1.389   2.148   1.995 -0.8879 -0.5790 -1.9824
  621SOL    HW2 2483   1.536   2.189   2.041 -0.9624  2.7262  2.2910
  621SOL     MW 2484   1.475   2.160   1.982  0.0491  0.6994  0.1228
  622SOL     OW 2485   2.635   0.226   0.095 -0.1196 -0.0106 -0.0814
  622SOL    HW1 2486   2.698   0.262   0.156 -0.5163  0.5497  0.5650
  622SOL    HW2 2487   2.668   0.146   0.056 -0.4171 -2.5313 -0.4497
  622SOL     MW 2488   2.648   0.220   0.098 -0.2112 -0.2693 -0.0447
  623SOL     OW 2489   2.443   2.774   0.831 -0.6766 -0.3106  0.3217
  623SOL    HW1 2490   2.496   2.844   0.861 -0.6743  1.3547 -0.3283
  623SOL    HW2 2491   2.364   2.791   0.884 -0.7544 -0.1661  0.4253
  623SOL     MW 2492   2.440   2.785   0.842 -0.6866 -0.0718  0.2496
  624SOL     OW 2493   2.199   1.645   2.878  0.3622 -0.6701  0.3806
  624SOL    HW1 2494   2.147   1.626   2.958  0.4137 -0.6324  1.3158
  624SOL    HW2 2495   2.139   1.668   2.812 -1.6599  0.7448  2.2098
  624SOL     MW 2496   2.184   1.646   2.880  0.1022 -0.4784  0.7453
  625SOL     OW 2497   2.217   1.951   1.058  0.0332 -0.3302  0.3785
  625SOL    HW1 2498   2.279   1.890   1.097 -0.1530  0.7154  0.5920
  625SOL    HW2 2499   2.255   1.984   0.977  0.9119 -0.9632  2.9328
  625SOL     MW 2500   2.230   1.947   1.052  0.1246 -0.2758  0.7436
  626SOL     OW 2501   0.127   1.558   2.409 -0.9569  0.2496 -0.3115
  626SOL    HW1 2502   0.048   1.541   2.352 -1.2100 -0.1719  3.4859
  626SOL    HW2 2503   0.093   1.628   2.464 -2.9038  1.4410 -0.0736
  626SOL     MW 2504   0.112   1.565   2.409 -1.2472  0.3512  0.2209
  627SOL     OW 2505   2.452   0.799   2.590 -0.2830 -0.3066  0.4946
  627SOL    HW1 2506   2.394   0.878   2.591 -2.6939  0.5605  1.3038
  627SOL    HW2 2507   2.432   0.759   2.504  0.5746 -0.4870  0.7473
  627SOL     MW 2508   2.442   0.804   2.579 -0.4879 -0.2160  0.6347
  628SOL     OW 2509   2.309   1.384   1.349  0.0067 -0.2443  0.0886
  628SOL    HW1 2510   2.286   1.300   1.298 -0.1959  1.8556 -1.8543
  628SOL    HW2 2511   2.402   1.408   1.321  1.2905  0.4759 -1.2055
  628SOL     MW 2512   2.318   1.376   1.339  0.1494  0.1278 -0.3385
  629SOL     OW 2513   2.066   0.522   1.221 -0.1156  0.1109 -0.0353
  629SOL    HW1 2514   2.117   0.602   1.193 -1.0482 -0.7423  0.6659
  629SOL    HW2 2515   1.995   0.558   1.279 -1.3107  0.9920  1.3178
  629SOL     MW 2516   2.063   0.537   1.225 -0.3963  0.1146  0.2357
  630SOL     OW 2517   2.479   1.819   3.064  0.2919  0.2460  0.5490
  630SOL    HW1 2518   2.416   1.859   3.008  1.1661 -1.8615 -0.6785
  630SOL    HW2 2519   2.441   1.741   3.105 -0.3197  3.3712 -0.6819
  630SOL     MW 2520   2.466   1.814   3.062  0.3265  0.3803  0.2246
  631SOL     OW 2521   1.976   1.791   1.623  0.3282  0.3625  0.1010
  631SOL    HW1 2522   1.982   1.710   1.681 -1.4997  1.6398 -0.6809
  631SOL    HW2 2523   1.969   1.756   1.528 -0.6513  1.3190 -0.0383
  631SOL     MW 2524   1.976   1.776   1.618 -0.0422  0.6573 -0.0205
  632SOL     OW 2525   0.157   2.039   1.572 -0.1070  0.6393  0.4912
  632SOL    HW1 2526   0.074   2.053   1.626  2.3762  0.3023  0.7589
  632SOL    HW2 2527   0.150   1.947   1.538  0.9320  0.7191  1.8609
  632SOL     MW 2528   0.145   2.029   1.575  0.3577  0.6054  0.7072
  633SOL     OW 2529   2.405   0.683   0.380  0.8701  0.2268 -0.3895
  633SOL    HW1 2530   2.493   0.687   0.421  3.1534 -0.0537 -2.1203
  633SOL    HW2 2531   2.373   0.591   0.387  0.2707  4.2667 -1.9562
  633SOL     MW 2532   2.412   0.671   0.386  1.0923  0.7228 -0.8246
  634SOL     OW 2533   2.585   3.077   0.587  0.0478  0.3025  0.3393
  634SOL    HW1 2534   2.628   3.162   0.595 -0.3643 -0.6754 -3.1020
  634SOL    HW2 2535   2.567   3.059   0.492 -2.4897 -1.7587 -0.8620
  634SOL     MW 2536   2.588   3.086   0.576 -0.3414 -0.0984 -0.2733
  635SOL     OW 2537   2.600   0.077   1.868  0.8303  0.1124 -0.8489
  635SOL    HW1 2538   2.671   0.041   1.805 -0.1355 -0.4473 -2.8728
  635SOL    HW2 2539   2.634   0.165   1.896 -0.2809 -0.5527  2.0382
  635SOL     MW 2540   2.614   0.084   1.863  0.5563 -0.0492 -0.7350
  636SOL     OW 2541   2.944   1.673   0.990 -0.1420  0.3582  0.4414
  636SOL    HW1 2542   2.863   1.707   0.946  0.0401 -0.0765 -0.6022
  636SOL    HW2 2543   2.967   1.722   1.070 -0.4166 -2.0683  0.1711
  636SOL     MW 2544   2.936   1.684   0.995 -0.1542 -0.0193  0.2680
  637SOL     OW 2545   2.885   1.455   0.701  0.4193  0.5619 -0.8907
  637SOL    HW1 2546   2.952   1.521   0.724 -2.0907  0.3486 -0.8631
  637SOL    HW2 2547   2.806   1.480   0.757 -2.1700  0.8156 -0.7220
  637SOL     MW 2548   2.883   1.467   0.711 -0.2535  0.5672 -0.8648
  638SOL     OW 2549   2.667   0.682   0.499 -0.0448  0.8541 -0.1692
  638SOL    HW1 2550   2.745   0.654   0.449 -0.1413 -0.4128 -0.2378
  638SOL    HW2 2551   2.665   0.635   0.583 -1.7529 -0.5787 -0.8169
  638SOL     MW 2552   2.677   0.672   0.503 -0.2829  0.4979 -0.2637
  639SOL     OW 2553   1.914   0.013   0.640 -0.0244 -0.4178 -0.4477
  639SOL    HW1 2554   1.845  -0.027   0.586  0.3150 -1.6403  0.0594
  639SOL    HW2 2555   1.981   0.027   0.579  2.9609 -0.3168  4.8607
  639SOL     MW 2556   1.914   0.010   0.625  0.4143 -0.5658  0.3196
  640SOL     OW 2557   0.380   1.413   0.107  0.0875 -0.0167  0.0139
  640SOL    HW1 2558   0.426   1.471   0.048 -1.1091 -0.2413  1.2984
  640SOL    HW2 2559   0.372   1.325   0.062 -0.7397 -0.4442  0.1765
  640SOL     MW 2560   0.385   1.409   0.093 -0.1795 -0.1027  0.2048
  641SOL     OW 2561   2.280   0.431   0.414  0.2515  0.6216 -0.4354
  641SOL    HW1 2562   2.326   0.375   0.350 -4.6761 -1.3541 -1.1617
  641SOL    HW2 2563   2.327   0.413   0.494  3.5537 -0.3446  1.0677
  641SOL     MW 2564   2.292   0.421   0.416  0.0370  0.2335 -0.3329
  642SOL     OW 2565   3.086   0.034   0.478 -0.1081  0.3565  0.0776
  642SOL    HW1 2566   3.071   0.126   0.460 -0.8302 -1.1916 -1.8669
  642SOL    HW2 2567   3.002   0.001   0.512  1.2597 -0.4061  0.6834
  642SOL     MW 2568   3.073   0.042   0.480 -0.0229  0.0516 -0.0990
  643SOL     OW 2569   2.122   0.261   1.670 -0.3193  0.0127 -0.1675
  643SOL    HW1 2570   2.200   0.226   1.712 -0.8341 -0.4447 -0.6004
  643SOL    HW2 2571   2.107   0.196   1.597  0.3890  1.6874 -0.7471
  643SOL     MW 2572   2.130   0.248   1.666 -0.2938  0.1733 -0.3011
  644SOL     OW 2573   2.742   1.860   0.917 -0.1266 -0.1184 -0.1405
  644SOL    HW1 2574   2.715   1.823   0.998 -1.1980 -2.0712 -0.9348
  644SOL    HW2 2575   2.672   1.859   0.848  2.1584 -0.9441 -1.2537
  644SOL     MW 2576   2.729   1.855   0.919  0.0335 -0.4850 -0.3922
  645SOL     OW 2577   2.785   0.908   0.580 -0.7011 -0.0804 -0.1861
  645SOL    HW1 2578   2.852   0.875   0.635  0.0406  0.5582  0.2640
  645SOL    HW2 2579   2.737   0.837   0.536 -1.4242  1.5769 -1.1576
  645SOL     MW 2580   2.788   0.894   0.581 -0.6986  0.2225 -0.2549
  646SOL     OW 2581   0.065   2.328   0.890  0.4580  0.4447 -0.5338
  646SOL    HW1 2582   0.094   2.237   0.893  3.1966  0.8848 -1.7128
  646SOL    HW2 2583   0.041   2.354   0.795 -0.3071 -3.0425  4.0165
  646SOL     MW 2584   0.066   2.319   0.878  0.7184  0.0427 -0.0890
  647SOL     OW 2585   2.761   0.560   3.007 -0.2617  0.3142  0.4888
  647SOL    HW1 2586   2.692   0.495   2.995  1.8966  1.2553  0.6052
  647SOL    HW2 2587   2.717   0.641   3.001 -0.6640  3.5848 -1.6703
  647SOL     MW 2588   2.746   0.562   3.005 -0.0300  0.8699  0.2193
  648SOL     OW 2589   2.209   0.736   1.113  0.0243  0.2717 -0.4361
  648SOL    HW1 2590   2.198   0.762   1.020  1.3448  1.6708  2.2053
  648SOL    HW2 2591   2.234   0.810   1.164  0.4489 -1.8595 -1.5474
  648SOL     MW 2592   2.211   0.749   1.107  0.2546  0.1751 -0.2342
  649SOL     OW 2593   2.361   2.697   1.207  0.6757 -0.1914 -0.1107
  649SOL    HW1 2594   2.416   2.774   1.199 -4.4845  1.4329 -3.8302
  649SOL    HW2 2595   2.413   2.618   1.202  0.6230  0.8865  1.7410
  649SOL     MW 2596   2.375   2.697   1.205 -0.0121  0.1652 -0.3571
  650SOL     OW 2597   2.735   0.231   0.644  0.6197  0.1102 -0.1957
  650SOL    HW1 2598   2.748   0.274   0.731 -0.6534  1.7948  0.1953
  650SOL    HW2 2599   2.813   0.236   0.591  0.3252 -0.8363  2.6946
  650SOL     MW 2600   2.747   0.237   0.648  0.4128  0.2076  0.2372
  651SOL     OW 2601   3.040   0.273   0.824  0.2491 -0.0068  0.0036
  651SOL    HW1 2602   3.088   0.345   0.781 -0.9012 -0.3198  0.1176
  651SOL    HW2 2603   2.951   0.308   0.850 -1.4417  1.6099  1.3285
  651SOL     MW 2604   3.035   0.287   0.822 -0.1257  0.1652  0.1935
  652SOL     OW 2605   2.410   1.482   2.978 -0.0814 -0.5707  0.1699
  652SOL    HW1 2606   2.484   1.478   2.919 -0.9397 -1.9670 -0.1489
  652SOL    HW2 2607   2.348   1.534   2.926  0.0740  1.4620 -2.5622
  652SOL     MW 2608   2.412   1.488   2.963 -0.1741 -0.4867 -0.2326
  653SOL     OW 2609   2.012   0.377   0.437 -0.2433 -0.6529 -0.3780
  653SOL    HW1 2610   1.994   0.314   0.365 -2.0097  0.5400 -1.0546
  653SOL    HW2 2611   2.108   0.405   0.436 -0.8039 -0.3386 -1.5933
  653SOL     MW 2612   2.022   0.372   0.427 -0.5503 -0.4541 -0.6276
  654SOL     OW 2613   2.439   0.990   0.758  0.3999  0.2885  0.4337
  654SOL    HW1 2614   2.369   1.016   0.693  0.7901  3.8512  0.0950
  654SOL    HW2 2615   2.449   0.895   0.756 -0.9072  0.9565  0.0199
  654SOL     MW 2616   2.431   0.981   0.749  0.2789  0.8467  0.3344
  655SOL     OW 2617   3.057   0.948   0.432  0.2881 -0.5104 -0.0441
  655SOL    HW1 2618   3.039   1.017   0.498  1.2357  0.7859  0.9153
  655SOL    HW2 2619   3.099   0.876   0.475 -0.5523 -1.0764 -1.3835
  655SOL     MW 2620   3.060   0.948   0.446  0.3023 -0.4141 -0.0943
  656SOL     OW 2621   1.962   2.724   1.256 -0.0156  0.3162 -0.4957
  656SOL    HW1 2622   1.974   2.821   1.250  1.7692 -1.7632  1.3378
  656SOL    HW2 2623   2.024   2.683   1.320  1.2647  0.0343 -1.2052
  656SOL     MW 2624   1.972   2.731   1.264  0.3888  0.0046 -0.3474
  657SOL     OW 2625   0.234   1.649   1.249 -0.1305 -0.0363  0.8562
  657SOL    HW1 2626   0.153   1.602   1.257 -0.5036 -0.2776  1.3570
  657SOL    HW2 2627   0.240   1.661   1.151 -2.1273  0.5366  0.5408
  657SOL     MW 2628   0.224   1.644   1.237 -0.4432  0.0075  0.8807
  658SOL     OW 2629   2.641   1.334   0.255  0.8181 -0.2487  0.2793
  658SOL    HW1 2630   2.582   1.285   0.314 -0.0886  0.7162 -0.5867
  658SOL    HW2 2631   2.710   1.375   0.313  0.5306  1.6099 -0.0472
  658SOL     MW 2632   2.642   1.333   0.270  0.6605  0.1238  0.1219
  659SOL     OW 2633   2.221   1.536   1.021 -0.3484  0.3311  0.3015
  659SOL    HW1 2634   2.308   1.493   1.004  1.2741 -3.2181 -1.5322
  659SOL    HW2 2635   2.210   1.548   1.113  0.9464 -0.1114  2.9102
  659SOL     MW 2636   2.231   1.532   1.031  0.0365 -0.1956  0.4037
  660SOL     OW 2637   2.010   1.569   1.794  0.2215 -0.8009 -0.1809
  660SOL    HW1 2638   2.077   1.561   1.854 -0.1092  0.7385  0.8885
  660SOL    HW2 2639   2.009   1.477   1.773  0.2014  0.2708 -0.5497
  660SOL     MW 2640   2.019   1.556   1.799  0.1752 -0.4564 -0.0885
  661SOL     OW 2641   2.329   1.061   0.161 -0.1959 -0.1451  0.2841
  661SOL    HW1 2642   2.384   1.068   0.238  2.7417  0.3533  1.0507
  661SOL    HW2 2643   2.296   0.968   0.166 -3.1606  2.2251  0.9044
  661SOL     MW 2644   2.332   1.050   0.172 -0.1995  0.2334  0.4671
  662SOL     OW 2645   2.605   3.014   0.877  0.2846 -0.6615 -0.0125
  662SOL    HW1 2646   2.540   3.082   0.887 -0.7268 -3.7832  0.2677
  662SOL    HW2 2647   2.614   3.011   0.780 -1.2198 -0.6521 -0.7476
  662SOL     MW 2648   2.598   3.023   0.866 -0.0473 -1.0721 -0.0725
  663SOL     OW 2649   2.803   1.501   0.449  0.6732  0.5064  0.0707
  663SOL    HW1 2650   2.890   1.496   0.408 -1.8040 -1.7551  3.0482
  663SOL    HW2 2651   2.832   1.494   0.536 -1.7998 -1.2579  1.5295
  663SOL     MW 2652   2.818   1.499   0.455  0.0201 -0.0248  0.6560
  664SOL     OW 2653   2.488   1.554   1.643 -0.1430  0.1867 -0.0192
  664SOL    HW1 2654   2.451   1.636   1.612 -1.4137 -1.3597  1.4163
  664SOL    HW2 2655   2.407   1.494   1.648 -0.9926  1.2318 -0.6368
  664SOL     MW 2656   2.472   1.557   1.640 -0.4228  0.1206  0.0887
  665SOL     OW 2657   2.857   0.826   2.078  0.1559 -0.2748 -0.7403
  665SOL    HW1 2658   2.886   0.867   1.994 -0.9429  0.6653 -3.4735
  665SOL    HW2 2659   2.938   0.821   2.123 -1.0310  1.0369 -0.3606
  665SOL     MW 2660   2.872   0.831   2.073 -0.1457  0.0223 -1.0508
  666SOL     OW 2661   2.799   3.020   1.717 -0.6879  0.1030 -0.4862
  666SOL    HW1 2662   2.800   3.020   1.619  0.3750 -0.1435 -1.8558
  666SOL    HW2 2663   2.756   2.937   1.744  1.9256 -1.3576 -1.7132
  666SOL     MW 2664   2.793   3.009   1.708 -0.2029 -0.1222 -0.8288
  667SOL     OW 2665   1.965   2.653   1.776  0.4112  0.1177  0.0876
  667SOL    HW1 2666   2.017   2.604   1.845  0.2334 -1.9929 -0.7228
  667SOL    HW2 2667   2.031   2.708   1.730 -1.5562 -1.2430 -1.1930
  667SOL     MW 2668   1.981   2.654   1.779  0.1282 -0.3403 -0.1882
  668SOL     OW 2669   2.672   0.594   0.755 -0.1526  0.2832 -0.1908
  668SOL    HW1 2670   2.744   0.617   0.812 -2.7309 -1.1864 -0.7506
  668SOL    HW2 2671   2.605   0.633   0.815  0.5458  0.3107 -1.1939
  668SOL     MW 2672   2.673   0.602   0.770 -0.4007  0.0929 -0.3970
  669SOL     OW 2673   0.174   0.877   0.737  0.6252  0.2540 -0.2770
  669SOL    HW1 2674   0.118   0.940   0.773 -0.4758 -3.6967  0.5767
  669SOL    HW2 2675   0.258   0.923   0.711 -1.7087 -0.2330 -0.3882
  669SOL     MW 2676   0.178   0.891   0.738  0.1720 -0.3315 -0.1791
  670SOL     OW 2677   2.858   0.318   0.241  0.8308  0.3476 -0.0954
  670SOL    HW1 2678   2.898   0.251   0.186  0.3648 -0.5498 -0.2123
  670SOL    HW2 2679   2.883   0.408   0.212  2.1205  0.6972 -0.6520
  670SOL     MW 2680   2.867   0.321   0.230  0.9395  0.2753 -0.1842
  671SOL     OW 2681   2.182   3.024   1.594  0.3634 -0.3272  0.2425
  671SOL    HW1 2682   2.164   3.052   1.508 -1.3850  1.2470 -0.5729
  671SOL    HW2 2683   2.100   3.043   1.637  3.6065  1.3652 -0.5691
  671SOL     MW 2684   2.169   3.030   1.588  0.5606  0.1038  0.0278
  672SOL     OW 2685   1.937   1.645   1.373 -0.4659 -0.2584  0.1066
  672SOL    HW1 2686   1.849   1.673   1.404 -0.4078  0.5374 -0.1725
  672SOL    HW2 2687   1.927   1.668   1.283 -1.3917  0.7619 -0.6918
  672SOL     MW 2688   1.924   1.652   1.365 -0.5804 -0.0188 -0.0356
  673SOL     OW 2689   2.745   1.159   0.505  0.7083 -0.1170 -0.6601
  673SOL    HW1 2690   2.771   1.063   0.509 -0.4611 -2.5444  1.3340
  673SOL    HW2 2691   2.825   1.191   0.546 -0.1696  0.6679  0.9964
  673SOL     MW 2692   2.759   1.151   0.511  0.4382 -0.3337 -0.1784
  674SOL     OW 2693   2.449   0.074   1.267 -0.2579 -0.3978  0.2158
  674SOL    HW1 2694   2.434   0.119   1.184  1.2647  0.5052 -0.0174
  674SOL    HW2 2695   2.467  -0.017   1.249  1.3766 -0.5043  1.9696
  674SOL     MW 2696   2.449   0.068   1.254  0.1586 -0.2927  0.4164
  675SOL     OW 2697   2.953   0.886   1.131 -0.1963  1.0162 -0.4523
  675SOL    HW1 2698   3.029   0.858   1.186  0.4095 -2.0514  0.4634
  675SOL    HW2 2699   2.948   0.823   1.065  0.7035 -0.3040  0.3010
  675SOL     MW 2700   2.962   0.874   1.130  0.0023  0.4373 -0.2321
  676SOL     OW 2701   2.878   1.506   1.669  0.2003 -0.3050 -0.0108
  676SOL    HW1 2702   2.818   1.427   1.656 -0.7816 -0.1851  0.7955
  676SOL    HW2 2703   2.938   1.468   1.733  1.9216  2.1416 -0.3447
  676SOL     MW 2704   2.878   1.491   1.676  0.2978  0.0336  0.0515
  677SOL     OW 2705   2.492   0.837   1.811 -0.5660 -0.1890  0.4445
  677SOL    HW1 2706   2.414   0.775   1.783  0.9995 -0.5208  2.9368
  677SOL    HW2 2707   2.532   0.863   1.724 -0.7079  2.0907 -0.3608
  677SOL     MW 2708   2.487   0.832   1.796 -0.3782  0.0680  0.6671
  678SOL     OW 2709   2.539   1.601   0.512 -0.3506 -0.5273 -0.0497
  678SOL    HW1 2710   2.473   1.628   0.442 -0.9461 -0.2398  1.5998
  678SOL    HW2 2711   2.622   1.580   0.472 -0.6852 -1.5254  1.9467
  678SOL     MW 2712   2.541   1.602   0.497 -0.4733 -0.6211  0.4314
  679SOL     OW 2713   2.376   0.525   1.215  0.0280  0.5571  0.4281
  679SOL    HW1 2714   2.327   0.456   1.171 -1.7052  1.2025  0.7216
  679SOL    HW2 2715   2.317   0.601   1.219 -1.4576 -0.6852 -0.1329
  679SOL     MW 2716   2.362   0.526   1.210 -0.3967  0.4783  0.3928
  680SOL     OW 2717   2.400   0.232   1.528  0.2596 -0.0998  0.2773
  680SOL    HW1 2718   2.382   0.171   1.605  1.6711 -1.9071  0.5948
  680SOL    HW2 2719   2.410   0.169   1.451 -1.0223 -1.0722 -0.5616
  680SOL     MW 2720   2.399   0.216   1.528  0.2767 -0.4665  0.2085
  681SOL     OW 2721   0.308   0.533   1.508  0.6262 -0.4512 -0.3204
  681SOL    HW1 2722   0.308   0.447   1.541 -1.7718 -1.0020  2.7844
  681SOL    HW2 2723   0.400   0.559   1.527  1.1515 -0.7415  1.6511
  681SOL     MW 2724   0.320   0.525   1.515  0.3791 -0.5622  0.3494
  682SOL     OW 2725   0.192   2.948   1.530  0.7857  0.9118 -0.0628
  682SOL    HW1 2726   0.188   3.019   1.476 -2.5143 -1.8234 -1.1891
  682SOL    HW2 2727   0.116   2.960   1.595 -0.6476 -2.1029  3.1346
  682SOL     MW 2728   0.181   2.959   1.531  0.1612  0.1532  0.2105
  683SOL     OW 2729   1.946   0.806   2.968 -0.5066  0.3740  0.4285
  683SOL    HW1 2730   1.873   0.790   2.903 -0.7525 -0.9890 -2.0680
  683SOL    HW2 2731   1.954   0.904   2.984  2.6601  1.3783 -0.2001
  683SOL     MW 2732   1.937   0.817   2.962 -0.1212  0.3266  0.0162
  684SOL     OW 2733   2.110   1.738   0.834 -0.0397  0.0526 -0.4490
  684SOL    HW1 2734   2.017   1.717   0.827 -0.1513 -0.6953 -2.2317
  684SOL    HW2 2735   2.156   1.667   0.874 -0.1134  0.1676 -2.2998
  684SOL     MW 2736   2.104   1.726   0.838 -0.0641 -0.0309 -0.9284
  685SOL     OW 2737   2.687   1.762   1.165 -0.1169 -0.1632  0.0510
  685SOL    HW1 2738   2.741   1.784   1.241 -1.6833 -0.4528 -1.6193
  685SOL    HW2 2739   2.673   1.668   1.173 -1.3616 -0.5313  0.0443
  685SOL     MW 2740   2.692   1.753   1.176 -0.4878 -0.2500 -0.1703
  686SOL     OW 2741   2.871   0.682   1.506  0.0244 -0.0350  0.0036
  686SOL    HW1 2742   2.896   0.629   1.582  2.0431  1.4980 -0.7890
  686SOL    HW2 2743   2.946   0.737   1.507  0.0830 -0.8801  0.5473
  686SOL     MW 2744   2.884   0.682   1.516  0.2985  0.0558 -0.0293
  687SOL     OW 2745   2.209   0.306   1.202 -0.0987  0.4388 -0.1905
  687SOL    HW1 2746   2.198   0.248   1.123 -0.2233 -0.2239 -2.2984
  687SOL    HW2 2747   2.133   0.370   1.203  0.3378  0.1449  1.7286
  687SOL     MW 2748   2.198   0.307   1.192 -0.0576  0.3126 -0.2154
  688SOL     OW 2749   2.373   0.503   1.498 -0.5563  0.3692  0.2364
  688SOL    HW1 2750   2.359   0.408   1.505  1.3376  0.2105 -0.9790
  688SOL    HW2 2751   2.403   0.521   1.405  1.7814  0.3038  1.1548
  688SOL     MW 2752   2.375   0.493   1.487  0.0020  0.3397  0.1972
  689SOL     OW 2753   2.539   0.778   2.992  0.5146 -0.0454  0.0626
  689SOL    HW1 2754   2.470   0.839   2.970 -2.1243  0.4172 -2.7642
  689SOL    HW2 2755   2.556   0.797   3.082 -1.0021  1.6050 -2.4813
  689SOL     MW 2756   2.532   0.789   3.001 -0.0337  0.2334 -0.6460
  690SOL     OW 2757   2.093   0.980   1.923 -0.2286  0.8370  0.6280
  690SOL    HW1 2758   2.013   0.936   1.905  0.9019 -0.8486  1.8647
  690SOL    HW2 2759   2.139   0.969   1.839 -0.5569 -0.7757  1.0121
  690SOL     MW 2760   2.089   0.973   1.910 -0.1227  0.4019  0.8418
  691SOL     OW 2761   2.462   0.376   0.894  0.2444  0.4188 -0.1596
  691SOL    HW1 2762   2.529   0.405   0.963  2.3541 -1.1038 -2.7369
  691SOL    HW2 2763   2.404   0.451   0.895 -0.7688 -0.8651 -2.0294
  691SOL     MW 2764   2.463   0.390   0.903  0.3890  0.0485 -0.7464
  692SOL     OW 2765   2.798   1.644   1.460  0.0760  0.3687 -0.0125
  692SOL    HW1 2766   2.837   1.602   1.535  2.9949 -2.7112  2.6502
  692SOL    HW2 2767   2.815   1.736   1.482  1.4906 -1.2403 -0.5269
  692SOL     MW 2768   2.805   1.651   1.473  0.6477 -0.2500  0.2709
  693SOL     OW 2769   2.281   0.484   0.097 -0.1618  0.1022 -0.2636
  693SOL    HW1 2770   2.209   0.420   0.082 -0.8125  0.7889  0.1030
  693SOL    HW2 2771   2.279   0.554   0.034 -0.9236  4.0217 -0.6525
  693SOL     MW 2772   2.271   0.485   0.087 -0.3482  0.7099 -0.2665
  694SOL     OW 2773   1.955   1.267   1.191  0.0192  0.2451  0.3058
  694SOL    HW1 2774   2.045   1.229   1.177  2.7204 -0.9136  0.0051
  694SOL    HW2 2775   1.902   1.195   1.227 -1.1932  0.7610 -1.1648
  694SOL     MW 2776   1.960   1.252   1.194  0.2156  0.1603  0.0721
  695SOL     OW 2777   3.073   1.516   1.309 -0.2247 -0.4864 -0.2024
  695SOL    HW1 2778   3.024   1.490   1.228 -2.8026 -0.6039 -1.6197
  695SOL    HW2 2779   3.019   1.567   1.367 -1.7975 -2.8813 -0.5595
  695SOL     MW 2780   3.059   1.519   1.306 -0.7723 -0.8179 -0.4365
  696SOL     OW 2781   2.028   1.375   0.938  0.3833 -0.1445 -0.2703
  696SOL    HW1 2782   2.100   1.428   0.981  1.6653 -0.7146 -0.5233
  696SOL    HW2 2783   1.995   1.305   1.001 -0.8450  0.7122 -0.0138
  696SOL     MW 2784   2.033   1.373   0.952  0.3904 -0.1067 -0.2699
  697SOL     OW 2785   2.897   1.052   2.265 -0.3519 -0.5346  0.0765
  697SOL    HW1 2786   2.869   1.142   2.250  0.1619 -2.5158 -1.1007
  697SOL    HW2 2787   2.874   1.005   2.188  0.6769  1.8242  1.5264
  697SOL     MW 2788   2.890   1.058   2.253 -0.1483 -0.4848  0.1125
  698SOL     OW 2789   2.521   0.424   3.020  0.1329 -0.0203 -0.7791
  698SOL    HW1 2790   2.468   0.495   3.056  0.4366  0.2730  2.0674
  698SOL    HW2 2791   2.527   0.355   3.082 -1.0170 -2.5006 -0.2375
  698SOL     MW 2792   2.515   0.424   3.033  0.0212 -0.3089 -0.3320
  699SOL     OW 2793   1.819   1.640   2.046 -0.0660  0.4306  0.0732
  699SOL    HW1 2794   1.776   1.553   2.075  0.5987 -1.1600 -3.1567
  699SOL    HW2 2795   1.912   1.618   2.052 -1.2415 -1.9248 -1.4997
  699SOL     MW 2796   1.826   1.626   2.051 -0.1334 -0.0900 -0.5604
  700SOL     OW 2797   2.684   0.887   1.556  0.2492 -0.4118 -0.8992
  700SOL    HW1 2798   2.731   0.958   1.503  0.5764  1.0333 -1.3694
  700SOL    HW2 2799   2.728   0.802   1.546 -2.1448  1.5961 -3.0906
  700SOL     MW 2800   2.696   0.885   1.548 -0.0235  0.0438 -1.2503
  701SOL     OW 2801   1.655   1.291   2.590  0.0403  0.4612 -0.2352
  701SOL    HW1 2802   1.747   1.303   2.600  0.7625 -0.4362 -0.4653
  701SOL    HW2 2803   1.624   1.329   2.676  0.0255 -2.3196  1.7683
  701SOL     MW 2804   1.663   1.298   2.603  0.1336 -0.0241 -0.0012
  702SOL     OW 2805   2.226   0.540   0.828  0.0487 -0.2501 -0.4445
  702SOL    HW1 2806   2.215   0.457   0.789 -1.5111 -1.6912 -0.9551
  702SOL    HW2 2807   2.228   0.599   0.753  1.9100 -1.7609  1.3919
  702SOL     MW 2808   2.225   0.537   0.813  0.0885 -0.6396 -0.2696
  703SOL     OW 2809   2.679   1.247   1.011  0.2081  0.3411 -0.1856
  703SOL    HW1 2810   2.660   1.208   0.923 -2.3586 -0.8161 -1.1265
  703SOL    HW2 2811   2.694   1.172   1.074 -3.2842  1.1410 -0.1589
  703SOL     MW 2812   2.678   1.232   1.008 -0.5913  0.2940 -0.3062
  704SOL     OW 2813   0.011   1.328   0.191  0.0923  0.0092  0.1751
  704SOL    HW1 2814  -0.074   1.286   0.186 -0.7603 -1.6515 -2.6319
  704SOL    HW2 2815   0.068   1.258   0.224 -1.8800  2.0626  0.2410
  704SOL     MW 2816   0.007   1.313   0.195 -0.2804  0.0610 -0.1866
  705SOL     OW 2817   2.213   1.637   1.261  0.7310 -0.0008  0.2011
  705SOL    HW1 2818   2.121   1.666   1.269 -1.5316 -1.2400  1.2842
  705SOL    HW2 2819   2.234   1.566   1.319 -0.6416 -0.2823  1.5057
  705SOL     MW 2820   2.204   1.631   1.270  0.2514 -0.2015  0.5161
  706SOL     OW 2821   2.982   1.200   0.667  0.4142  0.4724 -0.4710
  706SOL    HW1 2822   3.067   1.224   0.628 -0.6576 -2.6792 -0.8965
  706SOL    HW2 2823   2.936   1.287   0.698 -1.8879  1.4557  1.5210
  706SOL     MW 2824   2.987   1.215   0.666 -0.0309  0.1863 -0.2643
  707SOL     OW 2825   2.414   0.103   0.960 -0.2033  0.0930  0.4683
  707SOL    HW1 2826   2.424   0.191   0.929 -0.9287 -2.2537  1.1203
  707SOL    HW2 2827   2.319   0.083   0.957 -0.4794  2.4842  1.0306
  707SOL     MW 2828   2.403   0.112   0.956 -0.3354  0.0988  0.6285
  708SOL     OW 2829   2.516   1.564   0.127 -0.5366 -0.1399 -0.0041
  708SOL    HW1 2830   2.532   1.479   0.172  0.9383 -3.9832 -0.3880
  708SOL    HW2 2831   2.504   1.550   0.035  3.5750  1.1938  2.3900
  708SOL     MW 2832   2.517   1.551   0.121  0.2005 -0.4710  0.2611
  709SOL     OW 2833   1.741   1.667   0.133  0.7121  0.0637 -0.0141
  709SOL    HW1 2834   1.738   1.594   0.072 -0.7462  1.5761  1.7742
  709SOL    HW2 2835   1.683   1.655   0.210 -2.1183  1.8413  0.0902
  709SOL     MW 2836   1.733   1.656   0.135  0.1463  0.4978  0.2356
  710SOL     OW 2837   2.228   1.167   1.201 -0.1038  0.3033 -0.2013
  710SOL    HW1 2838   2.264   1.162   1.113 -0.7786  1.0426 -0.0836
  710SOL    HW2 2839   2.228   1.079   1.233  1.1137 -1.9071 -0.1358
  710SOL     MW 2840   2.233   1.155   1.194 -0.0322  0.1092 -0.1771
  711SOL     OW 2841   2.340   0.101   1.799 -0.7230  0.4442 -0.5984
  711SOL    HW1 2842   2.441   0.088   1.814 -0.8836  3.8702  1.2809
  711SOL    HW2 2843   2.311   0.022   1.772 -0.4985 -0.5658 -1.5777
  711SOL     MW 2844   2.349   0.089   1.797 -0.7146  0.7630 -0.4796
  712SOL     OW 2845   1.668   0.617   0.006 -0.3779  0.2194 -0.0024
  712SOL    HW1 2846   1.599   0.648  -0.054 -1.3867  2.1673  2.4428
  712SOL    HW2 2847   1.695   0.697   0.057  1.7270  2.7893 -4.0299
  712SOL     MW 2848   1.662   0.632   0.005 -0.2333  0.8155 -0.2112
  713SOL     OW 2849   2.541   0.770   1.149  0.5834 -0.0134 -0.4827
  713SOL    HW1 2850   2.623   0.728   1.148 -1.9124  0.1927  2.0823
  713SOL    HW2 2851   2.521   0.772   1.244  0.3133 -1.6590  2.3154
  713SOL     MW 2852   2.549   0.765   1.161  0.2185 -0.2033  0.2249
  714SOL     OW 2853   2.240   0.171   2.066  0.6785  0.0125  0.0793
  714SOL    HW1 2854   2.302   0.116   2.117 -1.9210 -2.8838 -1.9867
  714SOL    HW2 2855   2.281   0.157   1.980 -0.9800 -2.3454 -2.1050
  714SOL     MW 2856   2.254   0.162   2.061  0.1167 -0.6807 -0.4815
  715SOL     OW 2857   1.735   1.896   1.677  0.0046  0.1288  0.4963
  715SOL    HW1 2858   1.823   1.857   1.689 -0.7394 -1.8461 -0.3541
  715SOL    HW2 2859   1.676   1.830   1.720  2.8313 -1.8285  3.0559
  715SOL     MW 2860   1.739   1.882   1.684  0.2794 -0.3900  0.7218
  716SOL     OW 2861   2.218   0.730   0.602 -0.4375 -0.0304 -0.8380
  716SOL    HW1 2862   2.281   0.730   0.529 -0.8386  1.0805 -1.8258
  716SOL    HW2 2863   2.137   0.737   0.548  1.4479  0.5448 -2.1700
  716SOL     MW 2864   2.216   0.731   0.585 -0.2417  0.1921 -1.1440
  717SOL     OW 2865   2.893   1.421   2.993  0.4520 -0.5688 -0.0105
  717SOL    HW1 2866   2.980   1.429   2.944 -1.9109 -2.9978 -2.3258
  717SOL    HW2 2867   2.875   1.506   3.033 -0.5196  0.8129  1.8774
  717SOL     MW 2868   2.902   1.433   2.992  0.0120 -0.7070 -0.0669
  718SOL     OW 2869   2.600   1.494   1.248 -0.7122 -0.1139 -0.0662
  718SOL    HW1 2870   2.637   1.535   1.330  1.1897  2.8363  1.1847
  718SOL    HW2 2871   2.671   1.436   1.224 -2.0820  0.7157  2.9436
  718SOL     MW 2872   2.614   1.492   1.256 -0.6420  0.3848  0.4960
  719SOL     OW 2873   2.167   1.364   0.694 -0.3444 -0.5972  0.6451
  719SOL    HW1 2874   2.263   1.356   0.697 -2.3074 -1.4498  0.6606
  719SOL    HW2 2875   2.130   1.357   0.786  2.4398  0.7356  1.7238
  719SOL     MW 2876   2.175   1.362   0.707 -0.2360 -0.5338  0.7895
  720SOL     OW 2877   2.851   1.187   0.179  0.5015  0.2086 -0.2434
  720SOL    HW1 2878   2.831   1.118   0.245  0.2246 -1.2782  1.9514
  720SOL    HW2 2879   2.774   1.240   0.185 -1.7284  0.0697 -0.4180
  720SOL     MW 2880   2.838   1.185   0.188  0.1708 -0.0059  0.0232
  721SOL     OW 2881   2.461   0.790   1.444 -0.2947  0.5542 -0.1671
  721SOL    HW1 2882   2.460   0.711   1.497  0.2467  0.5080 -0.0753
  721SOL    HW2 2883   2.553   0.822   1.475 -1.3220 -0.1800 -3.1531
  721SOL     MW 2884   2.473   0.784   1.455 -0.3588  0.4512 -0.5490
  722SOL     OW 2885   2.470   1.149   0.401 -0.3721 -0.0985 -1.0814
  722SOL    HW1 2886   2.425   1.187   0.472  1.0307 -2.6251 -1.4269
  722SOL    HW2 2887   2.563   1.153   0.431 -0.7063 -0.6977 -0.5174
  722SOL     MW 2888   2.476   1.155   0.414 -0.2311 -0.5109 -1.0526
  723SOL     OW 2889   2.270   1.363   1.633 -0.3839 -0.1250  0.2439
  723SOL    HW1 2890   2.247   1.381   1.541 -0.1445  1.3245  1.9365
  723SOL    HW2 2891   2.192   1.337   1.682  0.8375  0.2107  3.3378
  723SOL     MW 2892   2.257   1.362   1.627 -0.1912  0.1105  0.8754
  724SOL     OW 2893   2.471   0.352   0.598  0.5442  0.2770 -0.2101
  724SOL    HW1 2894   2.467   0.389   0.687 -0.3338 -0.0648 -1.7506
  724SOL    HW2 2895   2.560   0.313   0.592 -0.3671  1.1797  0.1283
  724SOL     MW 2896   2.482   0.352   0.609  0.3082  0.3510 -0.3687
  725SOL     OW 2897   2.610   0.474   1.107  0.1224 -0.0961  0.2640
  725SOL    HW1 2898   2.659   0.457   1.184  3.3747  1.7589  1.1751
  725SOL    HW2 2899   2.518   0.494   1.137  0.2017  0.3063  2.7653
  725SOL     MW 2900   2.604   0.474   1.121  0.5620  0.2018  0.7142
  726SOL     OW 2901   2.569   2.379   0.526 -0.2396  0.0982 -0.5388
  726SOL    HW1 2902   2.512   2.447   0.491 -0.8481 -0.4778 -0.4668
  726SOL    HW2 2903   2.528   2.356   0.614  0.1310  1.9092  0.0708
  726SOL     MW 2904   2.556   2.385   0.533 -0.2710  0.2612 -0.4489
  727SOL     OW 2905   2.917   0.313   1.668  0.1027 -0.1477 -0.1299
  727SOL    HW1 2906   2.933   0.305   1.578 -0.9601 -2.0458  0.0526
  727SOL    HW2 2907   2.824   0.295   1.688 -1.4654 -0.1783  3.0638
  727SOL     MW 2908   2.907   0.310   1.659 -0.2444 -0.4021  0.3156
  728SOL     OW 2909   2.755   1.189   2.990  0.0774 -0.2940 -0.1953
  728SOL    HW1 2910   2.780   1.278   2.969 -0.3681  3.0095 -1.2273
  728SOL    HW2 2911   2.782   1.175   3.080  0.5440  1.4957 -3.9710
  728SOL     MW 2912   2.762   1.199   2.999  0.0802  0.3780 -0.8296
  729SOL     OW 2913   2.486   1.444   0.999 -0.1706  0.3057 -0.5950
  729SOL    HW1 2914   2.519   1.475   1.088 -0.9004 -0.3918 -1.5396
  729SOL    HW2 2915   2.518   1.350   1.001 -1.1172 -0.5940 -1.0607
  729SOL     MW 2916   2.495   1.436   1.011 -0.3917  0.0950 -0.7811
  730SOL     OW 2917   2.057   1.121   0.143 -0.1374  0.4714  0.6194
  730SOL    HW1 2918   2.157   1.115   0.145 -1.3860 -1.5612  1.6341
  730SOL    HW2 2919   2.042   1.205   0.192  0.4358  1.1486 -1.3445
  730SOL     MW 2920   2.068   1.131   0.150 -0.2265  0.2926  0.4942
  731SOL     OW 2921   2.764   1.813   2.903  0.0257  0.1540 -0.1790
  731SOL    HW1 2922   2.689   1.839   2.851 -1.4902 -0.0486  0.4397
  731SOL    HW2 2923   2.817   1.892   2.892  1.2858 -0.5431 -2.4496
  731SOL     MW 2924   2.761   1.827   2.895 -0.0081  0.0353 -0.3969
  732SOL     OW 2925   2.268   0.914   1.296 -0.1447 -0.5808  0.5067
  732SOL    HW1 2926   2.188   0.898   1.351  1.8490 -1.1935  0.0211
  732SOL    HW2 2927   2.345   0.906   1.361 -2.5466 -1.1749 -0.7896
  732SOL     MW 2928   2.268   0.911   1.312 -0.1985 -0.7401  0.2716
  733SOL     OW 2929   2.359   2.891   3.043  0.1448 -0.1735  0.3779
  733SOL    HW1 2930   2.267   2.922   3.036  1.3752  2.5354 -1.9803
  733SOL    HW2 2931   2.342   2.795   3.040  2.4351 -0.8025 -0.7596
  733SOL     MW 2932   2.345   2.882   3.042  0.6093  0.1009 -0.0833
  734SOL     OW 2933   1.533   0.346   2.517 -0.0705 -1.0596 -0.6429
  734SOL    HW1 2934   1.465   0.302   2.566  0.2864  1.5595 -1.9995
  734SOL    HW2 2935   1.567   0.284   2.446  0.2864  1.2122  1.0109
  734SOL     MW 2936   1.529   0.332   2.514  0.0237 -0.4143 -0.6037
  735SOL     OW 2937   2.974   0.911   2.752  0.7118 -0.5379 -0.4617
  735SOL    HW1 2938   2.890   0.869   2.748 -0.0026  1.4079  1.2668
  735SOL    HW2 2939   2.984   0.956   2.832 -1.3532 -2.3203  1.8105
  735SOL     MW 2940   2.964   0.911   2.762  0.3451 -0.5163  0.0662
  736SOL     OW 2941   0.046   0.613   2.504  0.2112  0.5389  0.4597
  736SOL    HW1 2942   0.049   0.673   2.429  0.3957 -0.1873 -1.0906
  736SOL    HW2 2943   0.066   0.526   2.467 -2.9978  0.3620 -0.0615
  736SOL     MW 2944   0.049   0.609   2.489 -0.1879  0.4197  0.1864
  737SOL     OW 2945   2.885   0.600   2.565 -0.1067 -0.3300  0.7096
  737SOL    HW1 2946   2.831   0.608   2.485  0.3837  0.5361  0.4460
  737SOL    HW2 2947   2.972   0.636   2.540  0.3254 -0.3749 -1.0863
  737SOL     MW 2948   2.889   0.606   2.551  0.0150 -0.2216  0.4379
  738SOL     OW 2949   0.161   0.393   1.919 -0.0699 -0.3219 -0.4688
  738SOL    HW1 2950   0.247   0.419   1.902 -1.2178  0.5438  0.0029
  738SOL    HW2 2951   0.163   0.309   1.876 -0.5227  1.4995 -1.5338
  738SOL     MW 2952   0.173   0.385   1.911 -0.2811  0.0326 -0.5471
  739SOL     OW 2953   2.519   1.026   2.162  0.3379  0.2193  0.1989
  739SOL    HW1 2954   2.431   1.002   2.126 -1.5304 -2.9201  0.6474
  739SOL    HW2 2955   2.566   1.073   2.094  1.1619 -1.6903  0.9265
  739SOL     MW 2956   2.514   1.029   2.148  0.2002 -0.4469  0.3541
  740SOL     OW 2957   0.280   1.707   2.929  0.1261  0.0079 -0.4128
  740SOL    HW1 2958   0.258   1.614   2.936  1.4427 -1.1071 -0.8210
  740SOL    HW2 2959   0.364   1.708   2.979 -0.3576  0.3270 -0.1655
  740SOL     MW 2960   0.288   1.695   2.937  0.2360 -0.0971 -0.4340
  741SOL     OW 2961   2.221   1.285   2.624 -0.2001 -0.4380 -0.0062
  741SOL    HW1 2962   2.212   1.372   2.582  0.4205  0.0486  0.2204
  741SOL    HW2 2963   2.180   1.302   2.713  1.1234 -0.5211 -0.2431
  741SOL     MW 2964   2.214   1.299   2.630  0.0564 -0.3848 -0.0075
  742SOL     OW 2965   1.557   1.403   2.331 -0.6108  0.3693 -0.1166
  742SOL    HW1 2966   1.516   1.326   2.301 -0.5466 -0.4961  0.7685
  742SOL    HW2 2967   1.596   1.370   2.418  0.7403  1.3242  0.9855
  742SOL     MW 2968   1.557   1.388   2.339 -0.4240  0.3811  0.1456
  743SOL     OW 2969   2.513   1.270   2.666 -0.1578 -1.0494  0.0973
  743SOL    HW1 2970   2.449   1.249   2.601 -0.2032 -1.9167  1.3076
  743SOL    HW2 2971   2.566   1.192   2.671 -2.0688  1.9609  3.1953
  743SOL     MW 2972   2.512   1.257   2.658 -0.4159 -0.7666  0.6657
  744SOL     OW 2973   2.795   0.976   1.788 -0.0013  0.1916  0.0711
  744SOL    HW1 2974   2.740   1.032   1.844 -0.8300 -3.0580  3.8382
  744SOL    HW2 2975   2.742   0.946   1.712  0.7476 -1.6498 -2.6406
  744SOL     MW 2976   2.781   0.979   1.785 -0.0119 -0.4801  0.2104
  745SOL     OW 2977   1.852   0.478   2.460  0.0342  0.4603  0.7210
  745SOL    HW1 2978   1.804   0.464   2.383 -0.3098  0.2364 -2.3047
  745SOL    HW2 2979   1.814   0.412   2.519 -3.3826  1.1482  1.2923
  745SOL     MW 2980   1.841   0.467   2.458 -0.4620  0.5216  0.3972
  746SOL     OW 2981   1.552   1.420   1.746  0.4220  0.3310  0.1292
  746SOL    HW1 2982   1.606   1.493   1.766  3.9861  0.7911  0.4938
  746SOL    HW2 2983   1.493   1.403   1.826  0.7161  1.0483  0.3833
  746SOL     MW 2984   1.551   1.427   1.759  0.9310  0.4864  0.2108
  747SOL     OW 2985   2.623   1.166   1.950 -0.5139 -0.5605  0.1666
  747SOL    HW1 2986   2.544   1.158   1.892 -0.6704  1.5403  0.7559
  747SOL    HW2 2987   2.610   1.254   1.999 -0.4675  0.7952  0.5774
  747SOL     MW 2988   2.611   1.177   1.949 -0.5284 -0.1044  0.2985
  748SOL     OW 2989   0.133   2.968   1.955  0.7904  0.5291  0.5165
  748SOL    HW1 2990   0.187   3.046   1.944 -4.2282  0.3194 -0.6067
  748SOL    HW2 2991   0.063   2.980   2.017 -1.0385 -1.7167  0.3843
  748SOL     MW 2992   0.131   2.980   1.962 -0.1130  0.2051  0.3509
  749SOL     OW 2993   2.394   0.651   2.803  0.2316  0.4737 -0.0406
  749SOL    HW1 2994   2.405   0.721   2.744  0.6545  4.0466 -0.5911
  749SOL    HW2 2995   2.471   0.659   2.863 -0.3197 -1.0939  0.8129
  749SOL     MW 2996   2.406   0.661   2.803  0.2146  0.7383 -0.0006
  750SOL     OW 2997   2.060   3.063   2.009  0.0440 -0.3472 -0.9541
  750SOL    HW1 2998   2.092   3.153   2.043 -0.4807  0.3102 -2.6271
  750SOL    HW2 2999   2.141   3.010   1.986  0.3770  0.5376 -0.8919
  750SOL     MW 3000   2.075   3.068   2.010  0.0187 -0.1437 -1.1666
  751SOL     OW 3001   0.036   0.370   2.397 -0.2298  0.2580  0.3490
  751SOL    HW1 3002  -0.054   0.358   2.376  1.2996  1.6498 -1.0378
  751SOL    HW2 3003   0.082   0.337   2.314 -3.3970  1.1967 -2.1144
  751SOL     MW 3004   0.030   0.364   2.383 -0.4459  0.5655 -0.1590
  752SOL     OW 3005   2.160   0.964   2.775  0.0441 -0.0275 -0.1644
  752SOL    HW1 3006   2.234   0.985   2.836 -1.3588 -0.4576 -0.9653
  752SOL    HW2 3007   2.123   0.883   2.813  1.1045 -0.9676  0.7772
  752SOL     MW 3008   2.165   0.956   2.788 -0.0011 -0.2083 -0.1458
  753SOL     OW 3009   2.868   0.304   2.382  0.2952 -0.4260 -0.1538
  753SOL    HW1 3010   2.817   0.225   2.352 -1.1344 -0.6656 -1.3153
  753SOL    HW2 3011   2.799   0.375   2.397  0.3783  0.0357 -0.7910
  753SOL     MW 3012   2.852   0.303   2.380  0.1176 -0.3967 -0.3911
  754SOL     OW 3013   2.290   3.002   2.637 -0.4461 -0.0330  0.2053
  754SOL    HW1 3014   2.291   2.975   2.545 -0.6645 -1.1081  0.5826
  754SOL    HW2 3015   2.359   2.962   2.691  1.4512  2.0329  0.3081
  754SOL     MW 3016   2.299   2.993   2.632 -0.2246  0.0977  0.2687
  755SOL     OW 3017   2.772   1.641   2.426 -0.1680  0.2345 -0.2541
  755SOL    HW1 3018   2.741   1.550   2.422  0.4597 -1.1158 -2.1976
  755SOL    HW2 3019   2.787   1.656   2.526  0.4180  0.2054 -1.0291
  755SOL     MW 3020   2.770   1.631   2.439 -0.0079  0.0525 -0.6128
  756SOL     OW 3021   2.221   1.281   2.940 -0.1438 -0.4475  0.7066
  756SOL    HW1 3022   2.283   1.348   2.966 -1.4729 -1.2132  2.5539
  756SOL    HW2 3023   2.272   1.204   2.922  0.2874 -1.2249 -1.3176
  756SOL     MW 3024   2.236   1.280   2.941 -0.2623 -0.6511  0.6833
  757SOL     OW 3025   2.232   0.963   1.689 -0.4373  0.4358 -0.0370
  757SOL    HW1 3026   2.259   0.870   1.690 -1.4326  1.6188 -0.3660
  757SOL    HW2 3027   2.169   0.962   1.614 -2.4248  0.9656  0.9659
  757SOL     MW 3028   2.227   0.951   1.679 -0.8308  0.6618  0.0519
  758SOL     OW 3029   2.148   1.867   2.466  0.0436 -0.2915  0.8329
  758SOL    HW1 3030   2.133   1.958   2.441 -0.1005 -0.2435 -3.3257
  758SOL    HW2 3031   2.216   1.850   2.398  1.9434 -1.5822  1.3475
  758SOL     MW 3032   2.155   1.877   2.454  0.2752 -0.4555  0.3521
  759SOL     OW 3033   1.565   1.454   2.783  0.6942 -0.5102  0.2644
  759SOL    HW1 3034   1.585   1.514   2.708 -1.5764  1.7495 -3.6158
  759SOL    HW2 3035   1.626   1.486   2.852  0.2359  1.0851  2.7856
  759SOL     MW 3036   1.576   1.466   2.782  0.3341 -0.0015  0.0851
  760SOL     OW 3037   2.579   1.883   2.708  0.6418  0.4889  0.1039
  760SOL    HW1 3038   2.521   1.831   2.650  1.7446 -0.3319  0.5873
  760SOL    HW2 3039   2.658   1.914   2.662  1.8244  0.8978  0.3007
  760SOL     MW 3040   2.582   1.880   2.694  0.9433  0.4345  0.1936
  761SOL     OW 3041   2.333   0.423   2.332 -0.1768  0.5824  0.8340
  761SOL    HW1 3042   2.257   0.370   2.353  0.8189  0.4524 -1.4951
  761SOL    HW2 3043   2.380   0.444   2.416 -1.3964 -2.8787 -1.5377
  761SOL     MW 3044   2.329   0.419   2.346 -0.2063  0.1086  0.2138
  762SOL     OW 3045   0.020   0.181   2.133  0.0813  0.1332  0.3687
  762SOL    HW1 3046   0.004   0.118   2.203 -1.2560 -0.2479 -0.3397
  762SOL    HW2 3047  -0.062   0.230   2.112  2.1529  3.8419  1.4189
  762SOL     MW 3048   0.007   0.179   2.139  0.1782  0.5722  0.4138
  763SOL     OW 3049   2.458   1.181   2.367  0.0591  0.1926  0.1937
  763SOL    HW1 3050   2.502   1.118   2.310 -0.1391 -1.1929  0.8763
  763SOL    HW2 3051   2.529   1.253   2.374  0.2202 -2.5950  1.9823
  763SOL     MW 3052   2.473   1.182   2.360  0.0542 -0.3580  0.5198
  764SOL     OW 3053   0.407   0.028   2.785  0.2518  0.5950  0.0697
  764SOL    HW1 3054   0.351   0.097   2.754 -1.8795 -1.2207 -2.0305
  764SOL    HW2 3055   0.428   0.046   2.880 -1.1660 -1.9116  2.9450
  764SOL     MW 3056   0.402   0.039   2.793 -0.2165  0.0247  0.1720
  765SOL     OW 3057   2.787   0.034   2.363 -0.3456  0.1145 -0.2839
  765SOL    HW1 3058   2.729   0.016   2.285  0.4217 -1.7717  1.3045
  765SOL    HW2 3059   2.818  -0.053   2.395  2.2058  0.0423 -0.0482
  765SOL     MW 3060   2.783   0.020   2.357  0.0923 -0.1439 -0.0432
  766SOL     OW 3061   1.914   2.943   2.236 -0.0356  0.4050  0.0000
  766SOL    HW1 3062   1.973   2.995   2.177 -0.1908 -0.5779 -0.2576
  766SOL    HW2 3063   1.857   2.887   2.170  2.2374  0.3516  1.5361
  766SOL     MW 3064   1.914   2.942   2.220  0.2438  0.2683  0.1687
  767SOL     OW 3065   2.674   0.630   1.899 -0.2146  0.1980 -0.4132
  767SOL    HW1 3066   2.707   0.673   1.979  0.5383 -1.7863  3.5794
  767SOL    HW2 3067   2.612   0.696   1.864 -1.2084 -1.5285  0.4771
  767SOL     MW 3068   2.670   0.644   1.905 -0.2464 -0.2916  0.2311
  768SOL     OW 3069   0.035   1.449   2.877  0.6537  0.0177  0.6307
  768SOL    HW1 3070   0.075   1.475   2.963 -0.9473  2.8485  2.1203
  768SOL    HW2 3071   0.091   1.377   2.839 -1.3420 -2.8107 -0.7732
  768SOL     MW 3072   0.048   1.443   2.883  0.1792  0.0180  0.6420
  769SOL     OW 3073   2.418   0.690   2.336 -0.3806  0.0858  0.4395
  769SOL    HW1 3074   2.383   0.597   2.331 -0.3343 -1.9780 -1.8295
  769SOL    HW2 3075   2.482   0.695   2.270  0.0510  1.9438  2.9062
  769SOL     MW 3076   2.422   0.678   2.327 -0.3175  0.0587  0.4656
  770SOL     OW 3077   3.095   1.646   2.671 -0.6874  0.0131 -0.4203
  770SOL    HW1 3078   2.999   1.643   2.674 -0.4166 -0.3473 -1.9249
  770SOL    HW2 3079   3.132   1.568   2.714  0.4605 -0.3866  1.0038
  770SOL     MW 3080   3.087   1.635   2.677 -0.5002 -0.0872 -0.4310
  771SOL     OW 3081   3.056   0.569   1.984  0.2929 -0.3184  0.2822
  771SOL    HW1 3082   2.997   0.555   1.907 -0.0144  1.6645 -2.0863
  771SOL    HW2 3083   3.140   0.517   1.975  2.4843  1.7353 -3.6392
  771SOL     MW 3084   3.059   0.560   1.973  0.5415  0.2142 -0.5477
  772SOL     OW 3085   0.006   3.075   2.337  0.1508  0.3440  0.1623
  772SOL    HW1 3086  -0.084   3.030   2.354 -1.1602  0.3206  0.7335
  772SOL    HW2 3087   0.071   2.999   2.312 -1.8091 -1.4742 -0.1925
  772SOL     MW 3088   0.003   3.059   2.336 -0.2808  0.1010  0.1908
  773SOL     OW 3089   2.487   2.905   2.806 -0.6296  0.3204 -0.7218
  773SOL    HW1 3090   2.505   2.827   2.759 -1.4447  0.5133  0.0725
  773SOL    HW2 3091   2.419   2.881   2.867 -0.5590 -1.0486  0.4867
  773SOL     MW 3092   2.480   2.892   2.808 -0.7278  0.1653 -0.4576
  774SOL     OW 3093   2.359   1.182   1.808  0.1978  0.1033 -0.0923
  774SOL    HW1 3094   2.350   1.237   1.728 -0.7039  3.1251 -0.7929
  774SOL    HW2 3095   2.333   1.092   1.770  1.4253 -1.6515 -2.6243
  774SOL     MW 3096   2.354   1.177   1.792  0.2408  0.2705 -0.5188
  775SOL     OW 3097   2.352   2.894   2.369  0.0949 -0.6023  0.5606
  775SOL    HW1 3098   2.387   2.975   2.335 -0.2997  0.2171  0.4601
  775SOL    HW2 3099   2.426   2.840   2.360 -0.0867 -1.0970 -1.3522
  775SOL     MW 3100   2.366   2.898   2.363  0.0189 -0.5594  0.2950
  776SOL     OW 3101   0.140   1.501   0.028  0.1425 -0.1501  0.4404
  776SOL    HW1 3102   0.235   1.470   0.035  0.2474 -2.5748  2.0811
  776SOL    HW2 3103   0.089   1.428   0.071 -3.9831 -0.5211  2.0482
  776SOL     MW 3104   0.146   1.487   0.035 -0.3880 -0.5189  0.8690
  777SOL     OW 3105   3.015   1.103   1.704  0.1463  0.0894 -0.3995
  777SOL    HW1 3106   2.981   1.173   1.657 -0.9548  2.7020 -1.7089
  777SOL    HW2 3107   2.943   1.064   1.758  1.1661  0.4187  0.1249
  777SOL     MW 3108   3.001   1.107   1.705  0.1356  0.4775 -0.5030
  778SOL     OW 3109   2.949   0.487   2.807 -0.1050  0.2920 -1.0232
  778SOL    HW1 3110   2.895   0.517   2.878 -1.6490  2.1569  0.4793
  778SOL    HW2 3111   2.899   0.506   2.726 -0.6759 -1.4616 -0.0007
  778SOL     MW 3112   2.935   0.493   2.806 -0.3841  0.3067 -0.6900
  779SOL     OW 3113   2.211   0.559   2.107 -0.0429  0.4458 -0.2108
  779SOL    HW1 3114   2.143   0.590   2.173  2.3253 -0.8324  1.1362
  779SOL    HW2 3115   2.231   0.471   2.150 -1.3701 -0.5290  1.6370
  779SOL     MW 3116   2.205   0.551   2.121  0.0944  0.1486  0.2107
  780SOL     OW 3117   0.242   0.242   2.708  0.2427 -0.6140  0.3977
  780SOL    HW1 3118   0.154   0.255   2.723 -1.3733  0.2293  0.5216
  780SOL    HW2 3119   0.281   0.331   2.713 -1.1574 -0.0399 -1.2250
  780SOL     MW 3120   0.236   0.255   2.711 -0.1552 -0.4270  0.1999
  781SOL     OW 3121   0.017   1.214   2.442 -0.0225 -0.1168 -0.1510
  781SOL    HW1 3122   0.050   1.229   2.355 -1.7109 -1.8427  0.8605
  781SOL    HW2 3123   0.009   1.117   2.454 -0.3160  0.9345  0.4427
  781SOL     MW 3124   0.020   1.203   2.432 -0.2840 -0.2058  0.0608
  782SOL     OW 3125   0.706   1.481   0.071  0.2753  0.1340 -0.3618
  782SOL    HW1 3126   0.669   1.561   0.043 -1.8341 -2.4897  0.0848
  782SOL    HW2 3127   0.698   1.492   0.166  1.2426 -1.2752  2.0460
  782SOL     MW 3128   0.700   1.493   0.080  0.1246 -0.3981  0.0148
  783SOL     OW 3129   2.694   0.560   2.365  0.2249 -0.0780 -0.5266
  783SOL    HW1 3130   2.664   0.616   2.292  1.0623 -1.4998  2.0985
  783SOL    HW2 3131   2.614   0.550   2.420  1.5827  1.1580  0.5777
  783SOL     MW 3132   2.679   0.566   2.363  0.5146 -0.1025 -0.0345
  784SOL     OW 3133   0.153   0.802   2.819 -0.3245  0.0063  0.2996
  784SOL    HW1 3134   0.078   0.821   2.771 -1.9989  0.2575 -0.1794
  784SOL    HW2 3135   0.216   0.858   2.774 -0.9141 -1.1512 -1.5234
  784SOL     MW 3136   0.151   0.812   2.807 -0.6232 -0.1133 -0.0041
  785SOL     OW 3137   0.489   0.414   2.157 -0.4461  0.2131 -0.1070
  785SOL    HW1 3138   0.466   0.439   2.061 -1.1359 -0.2438 -1.1255
  785SOL    HW2 3139   0.408   0.369   2.187  1.9160 -2.5235 -0.3534
  785SOL     MW 3140   0.475   0.411   2.148 -0.2254 -0.2083 -0.2739
  786SOL     OW 3141   1.871   0.488   3.026 -0.2555  0.7993  0.6131
  786SOL    HW1 3142   1.920   0.567   3.008 -2.2942 -1.8982  3.6482
  786SOL    HW2 3143   1.794   0.529   3.062 -2.9399 -2.0117 -0.6620
  786SOL     MW 3144   1.867   0.504   3.028 -0.8786  0.0725  0.8453
  787SOL     OW 3145   2.371   0.194   2.907 -0.0089 -0.3634  0.3416
  787SOL    HW1 3146   2.461   0.144   2.889 -0.4827 -0.7017 -0.2979
  787SOL    HW2 3147   2.397   0.283   2.940 -1.0235  1.1622  0.6238
  787SOL     MW 3148   2.386   0.199   2.909 -0.2053 -0.2068  0.2944
  788SOL     OW 3149   2.911   2.890   2.392  0.2469 -0.3384 -0.0657
  788SOL    HW1 3150   2.968   2.876   2.472  0.0873 -2.4135 -2.1694
  788SOL    HW2 3151   2.949   2.838   2.328 -0.7644  0.2342  0.3190
  788SOL     MW 3152   2.924   2.881   2.394  0.0924 -0.5367 -0.2925
  789SOL     OW 3153   0.090   0.207   0.102 -0.2990 -0.6160 -0.4174
  789SOL    HW1 3154   0.025   0.150   0.131  3.1275 -1.1890  3.9369
  789SOL    HW2 3155   0.046   0.268   0.042 -0.6442  1.0267 -0.1253
  789SOL     MW 3156   0.076   0.208   0.098  0.1076 -0.4748  0.1957
  790SOL     OW 3157   3.037   0.940   2.472  0.2887 -0.3485  0.3174
  790SOL    HW1 3158   3.001   0.929   2.564  0.7153  1.0255 -0.7115
  790SOL    HW2 3159   2.977   0.972   2.403 -2.6674 -1.0847 -1.0817
  790SOL     MW 3160   3.024   0.943   2.475 -0.0451 -0.2643 -0.0030
  791SOL     OW 3161   2.481   0.480   2.569  0.3145  0.3812 -0.0822
  791SOL    HW1 3162   2.459   0.518   2.655  1.1553 -0.2342 -0.4393
  791SOL    HW2 3163   2.496   0.389   2.590 -0.9415  0.0827  1.5092
  791SOL     MW 3164   2.480   0.473   2.583  0.2597  0.2607  0.0807
  792SOL     OW 3165   2.513   0.223   2.428 -0.1591  0.0277  0.3536
  792SOL    HW1 3166   2.470   0.296   2.385 -1.3072 -0.8436 -1.1209
  792SOL    HW2 3167   2.458   0.188   2.499 -0.9230  1.4575  1.7194
  792SOL     MW 3168   2.500   0.228   2.432 -0.4114  0.1014  0.3393
  793SOL     OW 3169   1.851   1.173   2.045 -0.0569 -0.7621  0.2792
  793SOL    HW1 3170   1.820   1.143   1.953  1.7070  1.3276  1.8078
  793SOL    HW2 3171   1.949   1.181   2.039  0.3331  0.3739 -0.1433
  793SOL     MW 3172   1.860   1.170   2.032  0.2273 -0.3365  0.4251
  794SOL     OW 3173   1.392   2.286   0.130  0.1785  0.1451  0.0777
  794SOL    HW1 3174   1.431   2.370   0.106 -2.8729 -1.3716 -0.5526
  794SOL    HW2 3175   1.462   2.259   0.192 -1.2198 -0.4586 -4.0487
  794SOL     MW 3176   1.406   2.294   0.135 -0.4086 -0.1347 -0.5499
  795SOL     OW 3177   2.284   1.005   2.496 -0.3484 -0.3871  0.2736
  795SOL    HW1 3178   2.226   1.062   2.550 -2.6755  1.4750 -1.9422
  795SOL    HW2 3179   2.353   1.074   2.460  0.1700  0.1374  0.2234
  795SOL     MW 3180   2.285   1.022   2.498 -0.5871 -0.0722 -0.0254
  796SOL     OW 3181   0.210   0.553   2.713  0.6980  0.7295 -1.0074
  796SOL    HW1 3182   0.174   0.606   2.781  0.1191  0.1386 -1.3927
  796SOL    HW2 3183   0.163   0.575   2.634 -2.1491 -2.3740 -1.0204
  796SOL     MW 3184   0.199   0.563   2.712  0.2460  0.2420 -1.0599
  797SOL     OW 3185   2.786   0.215   2.646 -0.0889  0.1895 -0.0208
  797SOL    HW1 3186   2.759   0.195   2.560  0.2584  2.0901  0.5552
  797SOL    HW2 3187   2.883   0.220   2.647  1.9180  0.9406 -0.6798
  797SOL     MW 3188   2.795   0.213   2.635  0.2217  0.5393 -0.0317
  798SOL     OW 3189   2.430   0.058   2.231 -0.1822 -0.0625 -0.1451
  798SOL    HW1 3190   2.477   0.125   2.290 -0.2167 -2.1170  2.6327
  798SOL    HW2 3191   2.505   0.002   2.197 -0.0057  3.1852  1.6461
  798SOL     MW 3192   2.446   0.059   2.234 -0.1635  0.0949  0.4577
  799SOL     OW 3193   2.616   2.982   0.060 -0.3359  0.0639  0.1315
  799SOL    HW1 3194   2.532   2.963   0.021 -1.3892 -2.3490  2.6145
  799SOL    HW2 3195   2.600   2.997   0.155 -0.2632  0.1629 -1.2593
  799SOL     MW 3196   2.603   2.981   0.067 -0.4653 -0.2414  0.2756
  800SOL     OW 3197   1.952   3.032   1.738 -0.0725 -0.4506  0.3710
  800SOL    HW1 3198   1.871   2.980   1.739 -2.3630 -0.8009  2.5146
  800SOL    HW2 3199   1.983   3.048   1.829 -1.7551 -3.0963 -0.8988
  800SOL     MW 3200   1.945   3.027   1.750 -0.5967 -0.8459  0.4863
  801SOL     OW 3201   2.896   1.294   2.611  0.2840 -0.4142 -0.4641
  801SOL    HW1 3202   2.919   1.259   2.694 -1.8152 -2.9992  0.7021
  801SOL    HW2 3203   2.969   1.265   2.556  1.3844  1.2962 -0.9030
  801SOL     MW 3204   2.909   1.286   2.615  0.1522 -0.5296 -0.3681
  802SOL     OW 3205   2.636   1.463   2.816  0.0548 -0.6875  0.3954
  802SOL    HW1 3206   2.601   1.380   2.772 -0.2147 -0.6558  1.8298
  802SOL    HW2 3207   2.684   1.427   2.895 -2.0273  0.2619 -0.0880
  802SOL     MW 3208   2.638   1.447   2.821 -0.2555 -0.5580  0.5209
  803SOL     OW 3209   2.364   1.386   1.972  0.2769  0.4088  0.0586
  803SOL    HW1 3210   2.304   1.365   2.042 -0.9452 -0.5637  0.2859
  803SOL    HW2 3211   2.354   1.309   1.913  0.7649 -0.1367 -0.5559
  803SOL     MW 3212   2.355   1.373   1.973  0.1801  0.2086  0.0075
  804SOL     OW 3213   2.206   0.144   0.017  0.3451 -0.0725  0.2055
  804SOL    HW1 3214   2.131   0.205   0.015  3.9747  0.0086  0.1278
  804SOL    HW2 3215   2.255   0.158  -0.060 -2.1638  0.6865  2.2705
  804SOL     MW 3216   2.203   0.154   0.007  0.4930  0.0383  0.4677
  805SOL     OW 3217   2.734   0.801   2.681 -0.0840  0.1084  0.0174
  805SOL    HW1 3218   2.660   0.820   2.625  1.8961  0.0091 -1.5230
  805SOL    HW2 3219   2.783   0.733   2.642  1.7901  2.3374 -3.7782
  805SOL     MW 3220   2.731   0.795   2.668  0.4246  0.3894 -0.6866
  806SOL     OW 3221   2.617   0.773   2.181  0.0429  0.0292  0.1202
  806SOL    HW1 3222   2.707   0.799   2.171 -0.8664 -0.1352  0.6152
  806SOL    HW2 3223   2.574   0.863   2.174  0.0985  1.4274  0.9822
  806SOL     MW 3224   2.623   0.788   2.179 -0.0697  0.1920  0.2992
  807SOL     OW 3225   3.039   1.046   1.979  0.0792  0.2098  0.2335
  807SOL    HW1 3226   3.101   0.976   1.990 -0.3076  2.0012  2.6240
  807SOL    HW2 3227   3.053   1.098   2.059  1.4033 -0.2271 -4.9833
  807SOL     MW 3228   3.049   1.044   1.991  0.2028  0.3885 -0.1394
  808SOL     OW 3229   2.610   0.067   2.826 -0.0739  0.1555  0.1901
  808SOL    HW1 3230   2.577  -0.023   2.812  0.1553 -2.1099  1.4037
  808SOL    HW2 3231   2.645   0.096   2.744  0.0161  2.3622 -1.4114
  808SOL     MW 3232   2.610   0.059   2.813 -0.0318  0.1478  0.1389
  809SOL     OW 3233   2.683   1.377   2.404  0.1165 -0.5605  0.1557
  809SOL    HW1 3234   2.731   1.336   2.482  1.9165 -1.3590 -2.0835
  809SOL    HW2 3235   2.735   1.365   2.321  0.8531  2.0357  1.2242
  809SOL     MW 3236   2.696   1.370   2.403  0.4512 -0.3233  0.0013
  810SOL     OW 3237   2.237   1.286   2.193 -0.0765 -0.3449 -0.0225
  810SOL    HW1 3238   2.279   1.261   2.275  2.5136  0.2718  0.0584
  810SOL    HW2 3239   2.225   1.198   2.157 -0.7476  0.1364 -1.9133
  810SOL     MW 3240   2.241   1.271   2.199  0.1767 -0.2000 -0.2613
  811SOL     OW 3241   1.617   0.229   2.274 -0.2853  0.5604  1.4861
  811SOL    HW1 3242   1.692   0.175   2.288 -0.7384 -0.1712 -0.7904
  811SOL    HW2 3243   1.607   0.228   2.176 -1.7139  0.1022 -2.2880
  811SOL     MW 3244   1.626   0.222   2.263 -0.5335  0.4034  0.6878
  812SOL     OW 3245   1.472   2.793   2.053 -0.1623 -0.0681  0.2151
  812SOL    HW1 3246   1.571   2.785   2.057  0.1680  1.2616 -3.3018
  812SOL    HW2 3247   1.448   2.781   2.144  2.0780  0.0432  1.7530
  812SOL     MW 3248   1.482   2.790   2.066  0.1769  0.1220 -0.0460
  813SOL     OW 3249   1.983   0.629   2.248  0.8945  0.0619  0.3296
  813SOL    HW1 3250   1.888   0.632   2.230 -1.7655  1.4340 -0.9976
  813SOL    HW2 3251   2.018   0.714   2.246 -1.1896  1.2077 -1.5042
  813SOL     MW 3252   1.975   0.641   2.245  0.2686  0.3941 -0.0875
  814SOL     OW 3253   2.724   1.294   1.641  0.0668  0.2175 -0.3976
  814SOL    HW1 3254   2.683   1.300   1.727  2.1017  2.2455  2.4153
  814SOL    HW2 3255   2.692   1.216   1.594 -3.5044  0.4539 -0.6523
  814SOL     MW 3256   2.714   1.285   1.646 -0.1359  0.5163 -0.0600
  815SOL     OW 3257   2.557   1.774   2.320 -0.2209 -0.2398  0.6019
  815SOL    HW1 3258   2.514   1.691   2.283  3.3517  1.1154  0.5111
  815SOL    HW2 3259   2.642   1.745   2.360 -1.7592 -1.2886  2.4993
  815SOL     MW 3260   2.563   1.759   2.320  0.0475 -0.1994  0.8403
  816SOL     OW 3261   0.711   0.672   2.762  0.0722  0.1779  0.2568
  816SOL    HW1 3262   0.727   0.579   2.790 -0.0152 -2.0419  0.3978
  816SOL    HW2 3263   0.639   0.654   2.709 -2.0907  1.6440 -2.0875
  816SOL     MW 3264   0.704   0.657   2.759 -0.2247  0.0784 -0.0339
  817SOL     OW 3265   3.008   1.261   1.431 -0.4247 -0.1872  0.4195
  817SOL    HW1 3266   3.086   1.267   1.485  3.6328 -0.2885  1.6345
  817SOL    HW2 3267   3.037   1.322   1.365 -1.1669  1.6544  1.8877
  817SOL     MW 3268   3.022   1.270   1.429  0.0128  0.0424  0.7735
  818SOL     OW 3269   1.925   1.092   2.633 -0.2635 -0.1958 -0.3760
  818SOL    HW1 3270   1.919   1.046   2.552 -5.4662 -2.8625  0.7630
  818SOL    HW2 3271   1.981   1.042   2.694  1.1689  1.3832  4.7406
  818SOL     MW 3272   1.932   1.079   2.630 -0.7610 -0.3393  0.4494
  819SOL     OW 3273   2.099   0.299   2.410  0.0368 -0.0202 -0.2010
  819SOL    HW1 3274   2.041   0.374   2.407 -1.0134 -0.6334 -0.9522
  819SOL    HW2 3275   2.115   0.277   2.496 -2.0234  1.4605 -4.0747
  819SOL     MW 3276   2.093   0.306   2.421 -0.3736  0.0942 -0.8112
  820SOL     OW 3277   2.469   1.666   2.565  0.3432  0.0217  0.1229
  820SOL    HW1 3278   2.527   1.597   2.596  0.3710  1.4916  0.9896
  820SOL    HW2 3279   2.495   1.690   2.479 -0.1988 -2.3585 -0.7896
  820SOL     MW 3280   2.480   1.660   2.558  0.2753 -0.0984  0.1168
  821SOL     OW 3281   2.601   1.444   2.092  0.1476 -0.1119 -0.7698
  821SOL    HW1 3282   2.618   1.518   2.033 -1.3117 -2.7410  0.6034
  821SOL    HW2 3283   2.508   1.420   2.058 -0.2025  1.0237 -1.4448
  821SOL     MW 3284   2.591   1.451   2.080 -0.0911 -0.3089 -0.6776
  822SOL     OW 3285   2.956   2.737   1.514  0.1518  0.4677  0.1768
  822SOL    HW1 3286   2.958   2.743   1.605 -1.0946 -0.1985  1.4382
  822SOL    HW2 3287   2.903   2.817   1.486  0.9676 -1.9886 -1.6386
  822SOL     MW 3288   2.949   2.748   1.522  0.0950  0.0557  0.1037
  823SOL     OW 3289   2.363   0.487   1.897  0.3298  0.0718 -0.3049
  823SOL    HW1 3290   2.431   0.433   1.939 -2.1713  1.2032 -2.3919
  823SOL    HW2 3291   2.302   0.514   1.967 -1.5597 -2.4173 -1.9244
  823SOL     MW 3292   2.364   0.483   1.912 -0.2495 -0.1073 -0.7939
  824SOL     OW 3293   2.228   1.532   2.489  0.5658  0.5701 -0.3415
  824SOL    HW1 3294   2.289   1.590   2.531  1.2015 -1.6959 -0.2711
  824SOL    HW2 3295   2.140   1.564   2.492  0.0081  1.2837 -0.5192
  824SOL     MW 3296   2.224   1.544   2.495  0.5761  0.3653 -0.3557
  825SOL     OW 3297   1.916   2.616   0.239 -0.9787 -0.3130  0.1403
  825SOL    HW1 3298   1.896   2.532   0.291 -2.4592 -1.4395 -0.9056
  825SOL    HW2 3299   1.994   2.592   0.186 -1.8035  4.6601  3.8427
  825SOL     MW 3300   1.924   2.602   0.239 -1.2829  0.1945  0.4908
  826SOL     OW 3301   1.867   2.400   0.384  0.1038 -0.1825 -0.5370
  826SOL    HW1 3302   1.784   2.350   0.388  1.0760 -2.8154 -1.3397
  826SOL    HW2 3303   1.847   2.461   0.458  0.4822 -1.3840 -3.0713
  826SOL     MW 3304   1.853   2.401   0.394  0.2820 -0.6884 -0.9773
  827SOL     OW 3305   1.981   2.147   0.809  0.4123  0.5984  0.1313
  827SOL    HW1 3306   1.913   2.169   0.741 -0.6781  1.1341 -2.4747
  827SOL    HW2 3307   1.947   2.074   0.852  2.2973 -2.1331 -1.2676
  827SOL     MW 3308   1.968   2.140   0.806  0.5171  0.3087 -0.3971
  828SOL     OW 3309   0.103   2.655   0.662 -0.4402  0.0773  0.1064
  828SOL    HW1 3310   0.193   2.628   0.644  0.9131  0.2573 -0.0938
  828SOL    HW2 3311   0.063   2.705   0.588 -1.4989 -2.4050  0.0039
  828SOL     MW 3312   0.110   2.658   0.650 -0.4014 -0.2265  0.0665
  829SOL     OW 3313   2.942   2.974   1.187 -0.6459  0.5313 -0.1540
  829SOL    HW1 3314   2.856   2.947   1.140  2.3189  0.5300  0.7359
  829SOL    HW2 3315   2.988   2.882   1.186  0.6347  0.6143 -1.9259
  829SOL     MW 3316   2.937   2.958   1.181 -0.0858  0.5421 -0.2704
  830SOL     OW 3317   2.539   2.841   1.982  0.0160 -0.4448  0.0319
  830SOL    HW1 3318   2.450   2.873   1.994 -0.2167  0.8763 -0.4552
  830SOL    HW2 3319   2.557   2.831   1.891  0.2997  0.1988 -0.1197
  830SOL     MW 3320   2.530   2.844   1.972  0.0228 -0.1856 -0.0524
  831SOL     OW 3321   2.436   2.425   1.209  0.3858 -0.5518 -0.0293
  831SOL    HW1 3322   2.386   2.374   1.279 -0.1340  0.7494 -0.2755
  831SOL    HW2 3323   2.527   2.389   1.205  0.9025  1.8585 -1.2646
  831SOL     MW 3324   2.441   2.414   1.218  0.3854 -0.0621 -0.2248
  832SOL     OW 3325   2.317   2.220   1.860 -0.2093 -0.3549  0.4340
  832SOL    HW1 3326   2.356   2.304   1.855 -0.3728 -3.4276 -1.3269
  832SOL    HW2 3327   2.394   2.166   1.834 -0.6384 -1.1471  2.6221
  832SOL     MW 3328   2.332   2.224   1.856 -0.2875 -0.8648  0.4904
  833SOL     OW 3329   1.732   2.474   0.885  0.2306  0.6840  0.1081
  833SOL    HW1 3330   1.648   2.444   0.921 -2.3081  3.0740  0.7829
  833SOL    HW2 3331   1.779   2.531   0.951 -0.3019 -1.1813 -0.3271
  833SOL     MW 3332   1.727   2.478   0.898 -0.1746  0.7532  0.1398
  834SOL     OW 3333   2.205   2.453   0.547 -0.6680 -0.0676 -0.0447
  834SOL    HW1 3334   2.163   2.380   0.592 -1.6102  1.2358 -1.4419
  834SOL    HW2 3335   2.232   2.427   0.458 -0.1044  2.0711 -1.9572
  834SOL     MW 3336   2.203   2.440   0.541 -0.7180  0.3866 -0.4814
  835SOL     OW 3337   1.835   2.555   0.616 -0.1804  0.3582  0.2749
  835SOL    HW1 3338   1.803   2.531   0.697  0.6479 -1.8337  2.3477
  835SOL    HW2 3339   1.923   2.580   0.628 -0.2684  0.1461 -0.5307
  835SOL     MW 3340   1.842   2.555   0.628 -0.0827  0.0410  0.4421
  836SOL     OW 3341   1.891   2.244   1.563  0.1273 -0.0281 -0.1781
  836SOL    HW1 3342   1.965   2.221   1.615 -1.4925  2.1717 -0.4122
  836SOL    HW2 3343   1.821   2.279   1.624 -0.4733  1.4377  1.4655
  836SOL     MW 3344   1.892   2.246   1.578 -0.1657  0.4555  0.0079
  837SOL     OW 3345   2.179   0.276   0.741 -0.1443 -0.5828  0.0061
  837SOL    HW1 3346   2.084   0.299   0.715  0.9017 -0.2359 -0.0039
  837SOL    HW2 3347   2.219   0.242   0.661  1.6378 -2.4251 -0.0977
  837SOL     MW 3348   2.172   0.275   0.727  0.2289 -0.7801 -0.0089
  838SOL     OW 3349   2.921   2.042   0.901  0.0408  0.2045  0.5242
  838SOL    HW1 3350   2.854   1.965   0.912  1.7235 -3.1029 -1.0477
  838SOL    HW2 3351   3.002   1.996   0.883 -0.6104  1.1641  0.3599
  838SOL     MW 3352   2.923   2.026   0.900  0.1769 -0.1052  0.2952
  839SOL     OW 3353   1.519   2.332   1.051  0.3888 -0.3371  0.1577
  839SOL    HW1 3354   1.519   2.382   1.137 -1.9003  0.9293  0.8704
  839SOL    HW2 3355   1.571   2.258   1.076 -1.5320 -0.9887  1.8522
  839SOL     MW 3356   1.526   2.329   1.066 -0.1667 -0.2560  0.4753
  840SOL     OW 3357   2.396   2.203   2.460 -0.3065  0.6982  0.0190
  840SOL    HW1 3358   2.361   2.283   2.412 -1.2717 -0.8798  2.0510
  840SOL    HW2 3359   2.362   2.215   2.547 -0.1313  1.2003  1.6453
  840SOL     MW 3360   2.387   2.215   2.465 -0.4108  0.5562  0.5017
  841SOL     OW 3361   2.160   2.495   0.110 -0.3675 -0.1317  0.4081
  841SOL    HW1 3362   2.205   2.523   0.032  0.0835  0.8090  0.0017
  841SOL    HW2 3363   2.132   2.411   0.084  3.3207 -0.6568  0.0029
  841SOL     MW 3364   2.162   2.488   0.096  0.1786 -0.0769  0.3010
  842SOL     OW 3365   2.636   2.116   1.548  0.4849 -0.4194  0.9664
  842SOL    HW1 3366   2.603   2.087   1.634 -1.4849  1.0405 -2.2065
  842SOL    HW2 3367   2.571   2.071   1.489  0.0476 -0.8567 -1.3262
  842SOL     MW 3368   2.623   2.106   1.552  0.1673 -0.2845  0.2453
  843SOL     OW 3369   2.686   2.791   1.745 -0.3630 -0.2536 -0.0438
  843SOL    HW1 3370   2.767   2.740   1.762 -0.8887  0.7275 -1.5299
  843SOL    HW2 3371   2.640   2.734   1.673  0.1843 -3.6400  3.4057
  843SOL     MW 3372   2.691   2.777   1.738 -0.3601 -0.5710  0.2152
  844SOL     OW 3373   2.672   2.283   1.188  0.3296  0.5530  0.3032
  844SOL    HW1 3374   2.668   2.334   1.103 -0.9641  2.7893  1.0768
  844SOL    HW2 3375   2.726   2.323   1.246 -1.7745  2.5284 -0.6362
  844SOL     MW 3376   2.679   2.295   1.184 -0.1187  1.1087  0.2814
  845SOL     OW 3377   2.877   2.477   0.353 -0.1281  0.1392 -0.7178
  845SOL    HW1 3378   2.857   2.382   0.337 -0.9606 -0.6693 -2.2383
  845SOL    HW2 3379   2.844   2.502   0.439  1.1246  1.7665 -0.6478
  845SOL     MW 3380   2.870   2.468   0.362 -0.0726  0.2472 -0.9092
  846SOL     OW 3381   1.528   2.874   0.733 -0.1321  0.0192 -0.3638
  846SOL    HW1 3382   1.572   2.934   0.792 -3.9831 -0.5465  1.6136
  846SOL    HW2 3383   1.435   2.908   0.734 -3.1606 -2.2241  2.6581
  846SOL     MW 3384   1.522   2.886   0.741 -1.0398 -0.3514  0.2958
  847SOL     OW 3385   2.666   1.971   0.146 -0.7144  0.2248  0.2437
  847SOL    HW1 3386   2.726   1.921   0.207  0.9746  1.6713 -0.3419
  847SOL    HW2 3387   2.633   1.905   0.087 -1.6164 -1.6095  0.0785
  847SOL     MW 3388   2.670   1.956   0.146 -0.6106  0.1736  0.1446
  848SOL     OW 3389   2.501   2.088   1.311 -0.5339 -0.3231 -0.4665
  848SOL    HW1 3390   2.585   2.109   1.267 -1.3032  0.8566  0.8516
  848SOL    HW2 3391   2.475   2.001   1.278 -0.5260 -1.5013 -1.5384
  848SOL     MW 3392   2.509   2.079   1.301 -0.6343 -0.3229 -0.4340
  849SOL     OW 3393   2.054   2.667   0.793 -0.0702  0.4411  0.1971
  849SOL    HW1 3394   2.069   2.577   0.825 -2.2320 -2.0243  3.5609
  849SOL    HW2 3395   2.119   2.675   0.719  1.3728  1.5901 -0.6803
  849SOL     MW 3396   2.065   2.656   0.787 -0.1650  0.2674  0.5252
  850SOL     OW 3397   2.226   1.865   1.696 -0.2185  0.0498  0.4115
  850SOL    HW1 3398   2.144   1.823   1.675  0.2170  0.1642 -2.2970
  850SOL    HW2 3399   2.197   1.952   1.675 -0.5179  0.8223 -0.5942
  850SOL     MW 3400   2.211   1.871   1.690 -0.2006  0.1668 -0.0786
  851SOL     OW 3401   2.308   2.374   0.309 -0.8094  0.7431 -0.1972
  851SOL    HW1 3402   2.247   2.399   0.238  1.7018 -0.4153  1.8017
  851SOL    HW2 3403   2.388   2.440   0.303  1.5602 -2.1494 -0.2108
  851SOL     MW 3404   2.311   2.386   0.299 -0.1654  0.2086  0.0647
  852SOL     OW 3405   2.325   2.097   0.269  0.0137  0.1851  0.2617
  852SOL    HW1 3406   2.316   2.177   0.322  0.2219  3.2788 -0.5634
  852SOL    HW2 3407   2.371   2.128   0.188  2.6811 -2.4723  0.0218
  852SOL     MW 3408   2.330   2.112   0.265  0.3931  0.2427  0.1212
  853SOL     OW 3409   2.462   2.459   1.873  0.0269 -0.6576 -0.1961
  853SOL    HW1 3410   2.472   2.506   1.789 -0.7357 -1.4377 -3.7338
  853SOL    HW2 3411   2.554   2.441   1.886  0.1194  2.7391  0.0373
  853SOL     MW 3412   2.475   2.463   1.864 -0.0615 -0.3124 -0.6321
  854SOL     OW 3413   2.820   2.261   0.770 -0.3935 -0.0438  0.0886
  854SOL    HW1 3414   2.774   2.200   0.711 -2.3586  0.7955  1.2718
  854SOL    HW2 3415   2.866   2.195   0.828 -1.8322  2.4105  3.7171
  854SOL     MW 3416   2.820   2.244   0.770 -0.8426  0.3907  0.7234
  855SOL     OW 3417   2.768   2.230   0.356 -1.2030  0.0953  0.5791
  855SOL    HW1 3418   2.703   2.267   0.413  1.4656  0.2169 -0.1984
  855SOL    HW2 3419   2.821   2.185   0.420  1.1324 -0.0765 -0.2238
  855SOL     MW 3420   2.766   2.229   0.372 -0.5427  0.0887  0.3706
  856SOL     OW 3421   2.171   1.854   0.213  0.1134 -0.0700  0.0805
  856SOL    HW1 3422   2.078   1.866   0.227  0.1648  3.5692  0.2835
  856SOL    HW2 3423   2.203   1.930   0.264 -0.2871 -1.5063  0.4115
  856SOL     MW 3424   2.163   1.866   0.222  0.0673  0.2206  0.1510
  857SOL     OW 3425   2.461   1.922   0.452  0.2072 -0.1321 -0.3308
  857SOL    HW1 3426   2.412   1.968   0.386 -0.9118 -2.9934 -0.1977
  857SOL    HW2 3427   2.431   1.833   0.439  0.9045 -2.5922 -0.9793
  857SOL     MW 3428   2.451   1.916   0.442  0.1516 -0.8342 -0.3988
  858SOL     OW 3429   2.935   2.698   1.814 -0.4844 -0.2912  0.3917
  858SOL    HW1 3430   3.032   2.693   1.795  1.1048 -0.5111  0.6060
  858SOL    HW2 3431   2.917   2.610   1.829  2.0398 -0.9360  1.7138
  858SOL     MW 3432   2.945   2.686   1.813  0.0583 -0.4053  0.5944
  859SOL     OW 3433   2.070   2.415   0.886  0.0143  0.3856  0.1717
  859SOL    HW1 3434   2.055   2.322   0.865  2.1217 -1.0135 -1.3963
  859SOL    HW2 3435   2.156   2.418   0.929 -0.6492 -1.9633 -1.1181
  859SOL     MW 3436   2.079   2.403   0.889  0.2048 -0.1089 -0.2054
  860SOL     OW 3437   2.690   2.539   0.178  0.0329  0.8771 -0.1253
  860SOL    HW1 3438   2.759   2.527   0.245  1.1311  0.2391  0.8440
  860SOL    HW2 3439   2.712   2.624   0.130 -0.2458  2.1392 -0.6939
  860SOL     MW 3440   2.702   2.549   0.181  0.1410  0.9595 -0.0724
  861SOL     OW 3441   1.683   2.111   1.164 -0.5399  0.5999 -0.1568
  861SOL    HW1 3442   1.761   2.084   1.213 -1.2395 -0.2088  1.7976
  861SOL    HW2 3443   1.612   2.069   1.218 -1.7664  1.3596  3.0829
  861SOL     MW 3444   1.684   2.102   1.178 -0.7940  0.5934  0.5285
  862SOL     OW 3445   2.429   1.854   1.515  0.0322  0.5114  0.3816
  862SOL    HW1 3446   2.353   1.851   1.580 -0.4769  0.0384  0.8854
  862SOL    HW2 3447   2.403   1.838   1.422  0.3765  0.6287  0.5581
  862SOL     MW 3448   2.416   1.851   1.511  0.0104  0.4645  0.4714
  863SOL     OW 3449   3.036   1.825   1.218 -0.6011 -0.2773  0.0282
  863SOL    HW1 3450   3.078   1.840   1.302 -0.5166 -2.6299 -1.0450
  863SOL    HW2 3451   3.015   1.920   1.209  2.7848 -0.7932  1.9457
  863SOL     MW 3452   3.039   1.840   1.228 -0.1432 -0.6558  0.1396
  864SOL     OW 3453   0.037   1.867   0.924 -0.0393 -0.0498  0.4786
  864SOL    HW1 3454  -0.014   1.843   1.003 -2.6309 -0.7637 -2.3650
  864SOL    HW2 3455   0.005   1.808   0.856 -1.0673 -0.8048 -1.3938
  864SOL     MW 3456   0.026   1.856   0.925 -0.5169 -0.2436 -0.1436
  865SOL     OW 3457   2.469   2.145   0.056  0.2819  0.4927 -0.4255
  865SOL    HW1 3458   2.529   2.078   0.107 -1.5503  0.7159 -0.3695
  865SOL    HW2 3459   2.447   2.091  -0.020  1.5152  1.5356  3.5110
  865SOL     MW 3460   2.474   2.129   0.053  0.2029  0.6597  0.1013
  866SOL     OW 3461   2.695   2.406   1.523  0.2266  0.3526 -0.2272
  866SOL    HW1 3462   2.683   2.310   1.514  1.5053  0.3258  0.6609
  866SOL    HW2 3463   2.745   2.436   1.447  1.9261 -0.1624  1.2102
  866SOL     MW 3464   2.700   2.397   1.512  0.6195  0.2811  0.0796
  867SOL     OW 3465   0.112   2.698   1.875  0.0984 -0.5690 -0.3204
  867SOL    HW1 3466   0.182   2.653   1.924  1.3310 -1.2168  1.3120
  867SOL    HW2 3467   0.145   2.784   1.911  1.8099  2.4926 -0.9242
  867SOL     MW 3468   0.126   2.703   1.886  0.4869 -0.2505 -0.1847
  868SOL     OW 3469   2.784   2.616   0.591 -0.3317 -0.2818  0.5407
  868SOL    HW1 3470   2.698   2.575   0.581  3.2541  0.0597  2.0595
  868SOL    HW2 3471   2.789   2.681   0.517 -2.9467 -0.2389  0.7939
  868SOL     MW 3472   2.773   2.619   0.580 -0.2036 -0.2311  0.7745
  869SOL     OW 3473   1.906   2.326   1.076 -0.2384 -0.0471 -0.1207
  869SOL    HW1 3474   1.968   2.361   1.013 -0.7128 -0.7108  0.0097
  869SOL    HW2 3475   1.826   2.302   1.027  3.5448 -1.2678  0.4336
  869SOL     MW 3476   1.904   2.327   1.061  0.1982 -0.2957 -0.0304
  870SOL     OW 3477   2.317   0.129   0.513 -0.1477 -0.7738  0.5927
  870SOL    HW1 3478   2.336   0.147   0.425 -2.1876  0.0234 -1.4226
  870SOL    HW2 3479   2.404   0.123   0.555  0.3990  3.7125  2.2820
  870SOL     MW 3480   2.331   0.131   0.507 -0.3447 -0.0767  0.5497
  871SOL     OW 3481   2.428   2.182   0.769  0.0162 -0.5613  0.2977
  871SOL    HW1 3482   2.368   2.109   0.769  2.6454  2.3652  1.4647
  871SOL    HW2 3483   2.394   2.251   0.822  0.6347  1.8008 -2.0038
  871SOL     MW 3484   2.416   2.181   0.776  0.4447  0.1365  0.1480
  872SOL     OW 3485   2.055   2.560   1.483  0.0271  0.3565 -0.1701
  872SOL    HW1 3486   2.020   2.589   1.567  0.7636  2.2316 -1.3421
  872SOL    HW2 3487   1.994   2.507   1.435 -0.5895 -1.5185  0.1792
  872SOL     MW 3488   2.042   2.557   1.488  0.0429  0.3565 -0.2786
  873SOL     OW 3489   2.809   2.071   1.897  1.2245 -0.4681 -0.7090
  873SOL    HW1 3490   2.830   2.134   1.972 -1.4443 -1.2377 -0.1081
  873SOL    HW2 3491   2.890   2.056   1.847  0.1322 -0.5334  0.4636
  873SOL     MW 3492   2.822   2.077   1.900  0.7283 -0.5782 -0.4750
  874SOL     OW 3493   2.402   1.560   2.267  0.5512  0.0185  0.6401
  874SOL    HW1 3494   2.346   1.542   2.345 -0.0357  2.0502 -2.8983
  874SOL    HW2 3495   2.471   1.496   2.264  0.4406 -0.9406 -0.0431
  874SOL     MW 3496   2.404   1.549   2.277  0.4592  0.1600  0.0831
  875SOL     OW 3497   2.309   2.353   0.951 -0.0633  0.6500  0.1596
  875SOL    HW1 3498   2.361   2.415   0.886 -0.4131  0.7829 -0.5366
  875SOL    HW2 3499   2.368   2.340   1.024 -0.5916 -0.1893 -1.6873
  875SOL     MW 3500   2.324   2.359   0.952 -0.1791  0.5568 -0.1759
  876SOL     OW 3501   3.058   2.336   1.293 -0.6003  0.0700  0.5806
  876SOL    HW1 3502   3.100   2.365   1.216 -0.2837 -0.3951  3.3223
  876SOL    HW2 3503   3.105   2.386   1.364 -2.4139 -0.9943  0.4394
  876SOL     MW 3504   3.070   2.346   1.292 -0.7978 -0.1318  0.9237
  877SOL     OW 3505   3.093   2.804   0.456 -0.1298  0.1764 -0.6712
  877SOL    HW1 3506   3.102   2.900   0.463 -1.0688  1.4133 -1.4397
  877SOL    HW2 3507   3.073   2.782   0.366  1.4079  0.9828 -0.1565
  877SOL     MW 3508   3.092   2.814   0.445 -0.0508  0.4460 -0.7047
  878SOL     OW 3509   2.418   1.810   1.226 -0.1745  0.1536  0.0835
  878SOL    HW1 3510   2.343   1.744   1.250 -0.9391 -0.5265  0.5821
  878SOL    HW2 3511   2.507   1.773   1.198 -1.0018  0.0004  2.6117
  878SOL     MW 3512   2.420   1.796   1.225 -0.3845  0.0436  0.4828
  879SOL     OW 3513   2.694   2.406   0.953  0.0326 -0.3510  0.2492
  879SOL    HW1 3514   2.751   2.478   0.974  0.3566 -2.2339 -0.0787
  879SOL    HW2 3515   2.738   2.349   0.888  0.6081 -2.5568  3.0829
  879SOL     MW 3516   2.707   2.408   0.947  0.1513 -0.8905  0.5798
  880SOL     OW 3517   2.715   2.049   0.584  0.3386  0.0644 -0.1533
  880SOL    HW1 3518   2.650   2.027   0.648 -0.5714 -2.3778  2.2214
  880SOL    HW2 3519   2.676   2.028   0.500  2.2573  2.0235 -0.7536
  880SOL     MW 3520   2.701   2.043   0.581  0.4717  0.0007  0.0808
  881SOL     OW 3521   2.931   2.771   0.769 -0.4920 -0.4267 -0.0546
  881SOL    HW1 3522   2.890   2.707   0.703 -0.0445  0.3575 -0.4565
  881SOL    HW2 3523   3.028   2.753   0.777  1.7296  0.9679  0.7597
  881SOL     MW 3524   2.938   2.760   0.761 -0.1399 -0.1392 -0.0002
  882SOL     OW 3525   2.241   2.894   1.939 -0.0505 -0.2444 -1.0044
  882SOL    HW1 3526   2.230   2.864   1.849 -0.1362  0.6083 -2.5357
  882SOL    HW2 3527   2.216   2.814   1.980  3.0577 -2.3570 -0.0005
  882SOL     MW 3528   2.236   2.879   1.933  0.3483 -0.4106 -1.0740
  883SOL     OW 3529   2.287   2.229   1.416  0.6019 -0.6971 -0.7786
  883SOL    HW1 3530   2.368   2.177   1.386  1.2697  2.2141 -0.2155
  883SOL    HW2 3531   2.226   2.224   1.349 -0.1618 -1.0356 -0.4366
  883SOL     MW 3532   2.290   2.221   1.403  0.5893 -0.3577 -0.6592
  884SOL     OW 3533   1.963   1.759   1.120  0.2252  0.0512 -0.0744
  884SOL    HW1 3534   1.928   1.848   1.083  1.0830  1.6624 -0.9297
  884SOL    HW2 3535   2.030   1.738   1.054  0.1114  1.3016 -0.7975
  884SOL     MW 3536   1.967   1.768   1.106  0.3233  0.4288 -0.2826
  885SOL     OW 3537   2.858   2.441   1.733 -0.8281 -0.0048 -0.0320
  885SOL    HW1 3538   2.911   2.359   1.746 -0.7238  1.0879 -0.7336
  885SOL    HW2 3539   2.822   2.435   1.649  2.0409  0.4942 -1.4331
  885SOL     MW 3540   2.860   2.429   1.724 -0.4358  0.2052 -0.3094
  886SOL     OW 3541   2.838   2.512   1.335  0.4055 -0.5796  0.2683
  886SOL    HW1 3542   2.917   2.461   1.318 -0.9098 -0.3104  1.0474
  886SOL    HW2 3543   2.872   2.582   1.397 -0.3604  0.2377  0.0448
  886SOL     MW 3544   2.853   2.515   1.341  0.1309 -0.4363  0.3416
  887SOL     OW 3545   2.318   2.621   1.479  0.3134 -0.1824 -0.0516
  887SOL    HW1 3546   2.328   2.641   1.385  1.2482  1.8247  0.8648
  887SOL    HW2 3547   2.223   2.596   1.482  0.3187 -1.7650 -0.6452
  887SOL     MW 3548   2.307   2.620   1.467  0.4374 -0.1264 -0.0090
  888SOL     OW 3549   1.853   2.024   1.362 -0.2870  0.0798  0.2297
  888SOL    HW1 3550   1.941   2.041   1.314  0.4650  0.7421  3.2512
  888SOL    HW2 3551   1.865   2.093   1.430  0.6437 -0.0268  2.0834
  888SOL     MW 3552   1.866   2.035   1.365 -0.0650  0.1531  0.8729
  889SOL     OW 3553   2.260   2.073   2.089  0.4284  0.4320 -0.0515
  889SOL    HW1 3554   2.349   2.075   2.129  0.1230 -1.0473  1.7282
  889SOL    HW2 3555   2.261   2.122   2.006 -0.1966 -0.0600 -0.0938
  889SOL     MW 3556   2.272   2.080   2.083  0.3056  0.1719  0.1777
  890SOL     OW 3557   0.102   2.287   0.093 -0.1777  0.2279  0.0370
  890SOL    HW1 3558   0.057   2.371   0.094 -0.3970 -1.7817  0.4943
  890SOL    HW2 3559   0.082   2.251   0.183  1.6851  2.4372  0.7232
  890SOL     MW 3560   0.093   2.293   0.105  0.0392  0.2543  0.1879
  891SOL     OW 3561   3.060   2.077   1.386  0.6133  0.1356 -0.1108
  891SOL    HW1 3562   3.137   2.075   1.444  0.9522  0.3359 -3.3457
  891SOL    HW2 3563   3.066   2.168   1.355 -0.5430 -1.4542  3.4750
  891SOL     MW 3564   3.071   2.089   1.390  0.5054 -0.0477 -0.0645
  892SOL     OW 3565   2.358   2.344   2.875 -0.7195 -0.0189  0.1737
  892SOL    HW1 3566   2.390   2.251   2.896 -0.8867 -0.0714 -0.1394
  892SOL    HW2 3567   2.442   2.393   2.873 -0.8689  0.5500 -1.1658
  892SOL     MW 3568   2.373   2.338   2.878 -0.7612  0.0492 -0.0443
  893SOL     OW 3569   1.586   2.470   1.282 -0.1166  0.1090 -0.0248
  893SOL    HW1 3570   1.528   2.517   1.347 -4.1400  2.1729  2.4621
  893SOL    HW2 3571   1.670   2.452   1.323  1.1017  0.4177  0.1132
  893SOL     MW 3572   1.589   2.474   1.296 -0.4867  0.4221  0.3216
  894SOL     OW 3573   2.912   1.829   0.571  0.1264 -0.2902 -0.3690
  894SOL    HW1 3574   2.836   1.876   0.602 -4.2824  1.2175  1.0553
  894SOL    HW2 3575   2.879   1.801   0.478  1.1125 -0.3814  1.3100
  894SOL     MW 3576   2.898   1.832   0.563 -0.3252 -0.1033  0.0404
  895SOL     OW 3577   2.056   2.123   1.223 -0.0298  0.3490 -0.2389
  895SOL    HW1 3578   2.015   2.195   1.172 -1.7782 -0.5511  1.0411
  895SOL    HW2 3579   2.100   2.061   1.164 -0.7609 -2.1641  2.0646
  895SOL     MW 3580   2.056   2.124   1.208 -0.3570 -0.1014  0.2339
  896SOL     OW 3581   2.210   2.803   0.966 -0.1573  0.0194 -0.0993
  896SOL    HW1 3582   2.233   2.764   1.049 -1.2751  0.2568 -0.4030
  896SOL    HW2 3583   2.147   2.751   0.921 -0.6643 -0.4809 -1.5031
  896SOL     MW 3584   2.205   2.791   0.971 -0.3716 -0.0153 -0.3246
  897SOL     OW 3585   3.001   2.901   0.178  0.2083  0.2938 -0.3080
  897SOL    HW1 3586   3.078   2.891   0.119 -2.1345  0.4009 -0.2042
  897SOL    HW2 3587   2.927   2.866   0.125 -1.9791 -3.0095 -0.3947
  897SOL     MW 3588   3.001   2.895   0.163 -0.3894 -0.1279 -0.3058
  898SOL     OW 3589   2.075   0.116   1.382 -0.4138  0.5172 -0.2404
  898SOL    HW1 3590   2.032   0.061   1.315  1.9626 -1.1115 -2.3237
  898SOL    HW2 3591   2.127   0.172   1.330  0.6136  0.0037  2.0266
  898SOL     MW 3592   2.076   0.116   1.366  0.0353  0.2346 -0.2162
  899SOL     OW 3593   2.870   2.993   0.572 -0.2829 -0.2978  0.0726
  899SOL    HW1 3594   2.874   2.934   0.650  0.7233 -0.7809 -1.1434
  899SOL    HW2 3595   2.792   3.047   0.581  1.4857 -0.9449 -0.9487
  899SOL     MW 3596   2.860   2.992   0.583  0.0832 -0.4469 -0.2226
  900SOL     OW 3597   0.109   2.473   1.117  0.3842  0.0073  0.1021
  900SOL    HW1 3598   0.092   2.566   1.100  1.3231  0.6172  2.6231
  900SOL    HW2 3599   0.098   2.422   1.034 -1.4989  0.6943  0.5040
  900SOL     MW 3600   0.105   2.479   1.104  0.2596  0.1784  0.4877
  901SOL     OW 3601   1.747   2.839   1.770 -0.7079  0.4767  0.5555
  901SOL    HW1 3602   1.810   2.773   1.735 -0.9098  0.2313 -0.8094
  901SOL    HW2 3603   1.691   2.843   1.690 -0.4558 -1.4289 -2.6855
  901SOL     MW 3604   1.748   2.831   1.755 -0.7013  0.1929 -0.0522
  902SOL     OW 3605   2.539   2.080   1.821  0.1760  0.1382  0.0011
  902SOL    HW1 3606   2.529   1.981   1.845 -0.1316  0.5585 -1.8173
  902SOL    HW2 3607   2.632   2.091   1.848  0.3648 -0.3166  2.4736
  902SOL     MW 3608   2.550   2.068   1.828  0.1604  0.1336  0.0874
  903SOL     OW 3609   1.685   2.779   0.547 -0.1744  0.1380  0.2884
  903SOL    HW1 3610   1.728   2.696   0.583 -2.0574  1.2629 -1.4906
  903SOL    HW2 3611   1.637   2.818   0.618 -0.4115 -0.7231 -0.7713
  903SOL     MW 3612   1.684   2.773   0.561 -0.4542  0.1728 -0.0861
  904SOL     OW 3613   2.530   2.585   1.645  0.3675 -1.0257  0.0462
  904SOL    HW1 3614   2.452   2.601   1.589  0.9108  0.0755 -2.3237
  904SOL    HW2 3615   2.588   2.519   1.602 -0.3820  0.4711 -1.4876
  904SOL     MW 3616   2.527   2.578   1.632  0.3403 -0.6830 -0.4688
  905SOL     OW 3617   2.422   2.550   2.126 -0.3999  0.2940 -0.5600
  905SOL    HW1 3618   2.444   2.505   2.042 -2.7750 -0.6277 -1.0817
  905SOL    HW2 3619   2.370   2.497   2.193 -1.4535 -0.5581 -0.0017
  905SOL     MW 3620   2.418   2.537   2.124 -0.8523  0.0600 -0.5551
  906SOL     OW 3621   2.484   2.499   0.814  0.4719  0.0962 -0.2485
  906SOL    HW1 3622   2.569   2.482   0.858 -1.4699 -1.3148  0.8885
  906SOL    HW2 3623   2.476   2.595   0.820  1.5179  2.8847  0.1550
  906SOL     MW 3624   2.494   2.509   0.821  0.3537  0.2780 -0.0453
  907SOL     OW 3625   2.527   2.916   1.252  0.0067 -0.0627  0.1973
  907SOL    HW1 3626   2.563   2.864   1.325  1.0451 -0.2676 -0.2170
  907SOL    HW2 3627   2.591   2.908   1.183  0.0638  1.5496 -1.7019
  907SOL     MW 3628   2.540   2.908   1.253  0.1513  0.1230 -0.1079
  908SOL     OW 3629   2.637   2.354   3.093  0.2517  0.1754 -0.4132
  908SOL    HW1 3630   2.594   2.268   3.116 -0.2654  1.6734  0.1050
  908SOL    HW2 3631   2.646   2.408   3.180  0.6600 -1.1041  3.0749
  908SOL     MW 3632   2.633   2.350   3.108  0.2373  0.2043  0.1154
  909SOL     OW 3633   1.780   0.163   1.051 -0.4425 -0.1790 -0.1207
  909SOL    HW1 3634   1.784   0.259   1.034 -0.2650 -0.4553 -0.1723
  909SOL    HW2 3635   1.819   0.152   1.136 -1.5800  0.9893 -0.0155
  909SOL     MW 3636   1.786   0.174   1.060 -0.5692 -0.0613 -0.1136
  910SOL     OW 3637   2.309   1.682   0.384 -0.5784 -0.5929  0.7132
  910SOL    HW1 3638   2.242   1.633   0.432 -3.5850 -2.4228  0.4700
  910SOL    HW2 3639   2.264   1.719   0.307 -0.5102  1.3634  1.9786
  910SOL     MW 3640   2.294   1.680   0.380 -0.9661 -0.5762  0.8481
  911SOL     OW 3641   2.162   2.130   1.650 -0.6827 -0.3502 -0.3427
  911SOL    HW1 3642   2.221   2.154   1.722 -0.0050  1.5473 -0.7145
  911SOL    HW2 3643   2.200   2.171   1.569  2.4801 -0.5119  0.2744
  911SOL     MW 3644   2.175   2.139   1.649 -0.1760 -0.1212 -0.3104
  912SOL     OW 3645   2.852   1.937   1.498 -0.3880 -0.2563  0.1536
  912SOL    HW1 3646   2.913   1.973   1.433 -0.6887 -1.2077  0.0083
  912SOL    HW2 3647   2.773   1.990   1.509  0.6107 -1.2093 -1.2494
  912SOL     MW 3648   2.850   1.949   1.491 -0.2959 -0.5076 -0.0507
  913SOL     OW 3649   2.563   2.982   0.339  0.3175 -0.5197 -0.0547
  913SOL    HW1 3650   2.630   2.920   0.352  0.3885  1.3108 -1.8587
  913SOL    HW2 3651   2.484   2.933   0.318  2.2026 -1.5691  0.9475
  913SOL     MW 3652   2.561   2.967   0.338  0.5756 -0.4166 -0.1605
  914SOL     OW 3653   2.787   1.653   0.019  0.3908  0.3531 -0.1264
  914SOL    HW1 3654   2.778   1.720  -0.056  0.7049 -0.2046  0.1417
  914SOL    HW2 3655   2.700   1.639   0.053  3.3077 -0.5319 -3.1584
  914SOL     MW 3656   2.774   1.660   0.014  0.8171  0.1628 -0.4911
  915SOL     OW 3657   1.931   0.161   0.275 -0.3439  0.3271 -0.3993
  915SOL    HW1 3658   1.973   0.085   0.321 -1.5772 -0.3176  0.4339
  915SOL    HW2 3659   1.844   0.125   0.246 -0.6882 -0.7159 -0.7140
  915SOL     MW 3660   1.925   0.146   0.277 -0.5521  0.1044 -0.3309
  916SOL     OW 3661   1.887   2.079   1.975 -0.7073 -0.0501  0.6012
  916SOL    HW1 3662   1.889   2.168   1.948 -0.8473 -2.9539 -2.3754
  916SOL    HW2 3663   1.864   2.030   1.899 -0.3953  0.8732  1.2147
  916SOL     MW 3664   1.884   2.084   1.961 -0.6846 -0.3114  0.2894
  917SOL     OW 3665   2.234   2.322   2.647  0.2011 -0.1385  0.1567
  917SOL    HW1 3666   2.275   2.326   2.741 -0.3524 -0.2259  2.0321
  917SOL    HW2 3667   2.264   2.415   2.618  2.1234  0.8013  0.8583
  917SOL     MW 3668   2.243   2.335   2.656  0.3817 -0.0261  0.4967
  918SOL     OW 3669   1.987   1.671   2.557  0.1845 -0.0748  0.5474
  918SOL    HW1 3670   1.903   1.697   2.528 -2.1297 -0.2394  0.8541
  918SOL    HW2 3671   2.044   1.737   2.511 -1.7170 -0.6950 -1.1965
  918SOL     MW 3672   1.983   1.683   2.547 -0.3717 -0.1783  0.3578
  919SOL     OW 3673   3.018   2.362   2.317 -0.0833  0.3133  0.0351
  919SOL    HW1 3674   2.940   2.309   2.284 -4.6391 -0.2715  0.0831
  919SOL    HW2 3675   3.070   2.353   2.234  0.5276 -0.0151 -1.0924
  919SOL     MW 3676   3.015   2.354   2.302 -0.6038  0.1928 -0.1074
  920SOL     OW 3677   2.786   2.773   0.089 -0.1643  0.4995  0.0180
  920SOL    HW1 3678   2.728   2.844   0.061 -0.9791 -1.2739 -0.0586
  920SOL    HW2 3679   2.800   2.718   0.008  2.3747  1.3201  1.1485
  920SOL     MW 3680   2.780   2.775   0.075  0.0632  0.3738  0.1570
  921SOL     OW 3681   2.573   2.664   2.654  0.2934 -0.9769  0.6070
  921SOL    HW1 3682   2.657   2.646   2.614 -1.5503 -2.2339 -0.0555
  921SOL    HW2 3683   2.579   2.584   2.710 -1.9680  0.4861 -0.4150
  921SOL     MW 3684   2.585   2.651   2.656 -0.2482 -0.9497  0.3847
  922SOL     OW 3685   2.090   2.854   0.261 -0.2834  0.6384  0.3825
  922SOL    HW1 3686   2.057   2.890   0.178  0.6303  2.7020  0.8074
  922SOL    HW2 3687   2.043   2.772   0.274 -0.0513  3.9048 -3.0602
  922SOL     MW 3688   2.079   2.848   0.252 -0.1322  1.3416 -0.0157
  923SOL     OW 3689   2.223   2.765   1.688 -1.1753  0.7372 -0.4837
  923SOL    HW1 3690   2.267   2.720   1.612 -1.2061 -1.0029 -0.3802
  923SOL    HW2 3691   2.208   2.850   1.652  1.1259 -0.9828 -4.7005
  923SOL     MW 3692   2.227   2.770   1.673 -0.8758  0.2807 -1.0264
  924SOL     OW 3693   1.112   2.777   2.473  0.3717 -0.1034 -0.1143
  924SOL    HW1 3694   1.145   2.846   2.415 -2.2879  1.0790  1.0192
  924SOL    HW2 3695   1.189   2.737   2.512 -1.5134  2.2277  0.9881
  924SOL     MW 3696   1.127   2.781   2.470 -0.2280  0.3602  0.1807
  925SOL     OW 3697   3.064   0.273   2.694 -0.4093  0.2459 -0.1554
  925SOL    HW1 3698   3.078   0.304   2.607  1.0025  0.4595  0.3718
  925SOL    HW2 3699   3.024   0.349   2.750  0.5031  2.5459  0.3666
  925SOL     MW 3700   3.061   0.287   2.690 -0.1026  0.5775 -0.0170
  926SOL     OW 3701   2.700   2.382   1.948 -0.8119 -0.2603 -0.1472
  926SOL    HW1 3702   2.709   2.441   2.024 -1.8073  3.1653  1.7003
  926SOL    HW2 3703   2.774   2.408   1.885  1.7606  3.8465  1.8877
  926SOL     MW 3704   2.711   2.393   1.950 -0.6038  0.7335  0.3650
  927SOL     OW 3705   2.399   0.197   0.250  0.2168 -0.4361  0.4020
  927SOL    HW1 3706   2.478   0.215   0.197  0.2285 -0.1941  0.7168
  927SOL    HW2 3707   2.317   0.178   0.194 -0.9956 -0.8388 -0.0339
  927SOL     MW 3708   2.399   0.197   0.236  0.0584 -0.4573  0.3860
  928SOL     OW 3709   2.097   2.413   1.889 -0.0845  0.6632 -0.5961
  928SOL    HW1 3710   2.152   2.340   1.869  3.1640  0.1610 -2.1437
  928SOL    HW2 3711   2.144   2.472   1.951  1.2220 -0.1929 -0.1633
  928SOL     MW 3712   2.110   2.411   1.895  0.5165  0.4840 -0.7432
  929SOL     OW 3713   2.680   2.314   2.498  0.4802 -0.1052 -0.1778
  929SOL    HW1 3714   2.606   2.255   2.519  2.4630 -0.3154  1.9431
  929SOL    HW2 3715   2.746   2.308   2.574  0.9478  0.8862  1.3399
  929SOL     MW 3716   2.679   2.305   2.511  0.8035 -0.0021  0.3023
  930SOL     OW 3717   2.014   2.930   2.728 -0.3998 -0.2168  0.2882
  930SOL    HW1 3718   2.013   2.856   2.790 -1.0612 -0.0602 -0.1650
  930SOL    HW2 3719   2.107   2.964   2.726 -2.0948 -0.0888 -1.7162
  930SOL     MW 3720   2.026   2.925   2.736 -0.7107 -0.1793 -0.0360
  931SOL     OW 3721   2.997   2.770   2.062 -0.2561  0.3719 -0.2207
  931SOL    HW1 3722   3.068   2.710   2.057 -1.0352  2.2514  0.7813
  931SOL    HW2 3723   2.957   2.768   1.974  0.3400  2.7041 -1.9708
  931SOL     MW 3724   3.001   2.762   2.050 -0.2803  0.9276 -0.3194
  932SOL     OW 3725   2.774   1.972   2.533  0.3405 -0.5819 -0.1094
  932SOL    HW1 3726   2.862   2.001   2.531 -0.4611 -0.1095  1.0240
  932SOL    HW2 3727   2.751   1.982   2.442  2.8136  1.2589 -2.4980
  932SOL     MW 3728   2.783   1.977   2.521  0.5611 -0.2767 -0.2750
  933SOL     OW 3729   2.111   2.748   2.285 -0.4401  0.2473 -0.6270
  933SOL    HW1 3730   2.198   2.792   2.296  0.9271  0.1408 -0.7778
  933SOL    HW2 3731   2.045   2.815   2.283  1.0805 -0.9673 -2.1114
  933SOL     MW 3732   2.114   2.763   2.286 -0.0591  0.0730 -0.8428
  934SOL     OW 3733   2.085   2.697   2.565 -0.3390  0.7588 -0.2560
  934SOL    HW1 3734   2.049   2.787   2.582  1.1645 -1.7645 -0.0967
  934SOL    HW2 3735   2.081   2.697   2.470  1.1380 -0.0634 -2.4496
  934SOL     MW 3736   2.080   2.709   2.555  0.0543  0.3174 -0.5244
  935SOL     OW 3737   2.661   1.580   1.848 -0.4424 -0.4451  0.7490
  935SOL    HW1 3738   2.747   1.578   1.810 -1.3835 -0.9478 -1.8854
  935SOL    HW2 3739   2.592   1.557   1.774  0.8855  2.8821  1.9478
  935SOL     MW 3740   2.663   1.577   1.833 -0.3914 -0.0725  0.5595
  936SOL     OW 3741   2.902   2.196   0.039 -0.3402  0.0841 -0.1524
  936SOL    HW1 3742   2.935   2.279   0.008  0.2869  1.5205  0.7747
  936SOL    HW2 3743   2.822   2.226   0.083 -1.3757  0.5361 -0.9438
  936SOL     MW 3744   2.896   2.211   0.041 -0.3941  0.3333 -0.1345
  937SOL     OW 3745   1.959   2.274   2.629  0.0357  0.0322 -0.5629
  937SOL    HW1 3746   2.053   2.258   2.626  0.5751  0.8201 -1.1763
  937SOL    HW2 3747   1.922   2.250   2.540  1.3320 -0.9943  1.1312
  937SOL     MW 3748   1.967   2.269   2.617  0.2779  0.0007 -0.4203
  938SOL     OW 3749   2.269   1.824   1.959  0.2976  0.4614  0.3091
  938SOL    HW1 3750   2.240   1.830   1.870 -1.9144 -0.8973 -1.0731
  938SOL    HW2 3751   2.244   1.900   2.012  1.5716  3.1320  2.4106
  938SOL     MW 3752   2.262   1.835   1.954  0.1738  0.6345  0.4040
  939SOL     OW 3753   2.733   2.027   2.271  0.7454 -0.1170 -0.2932
  939SOL    HW1 3754   2.730   1.949   2.213 -0.0420 -0.2511  1.8251
  939SOL    HW2 3755   2.641   2.056   2.262 -2.7944  0.4851 -0.2901
  939SOL     MW 3756   2.720   2.021   2.262  0.1745 -0.0553 -0.0133
  940SOL     OW 3757   2.330   0.183   2.635 -0.1272 -0.1196  0.1554
  940SOL    HW1 3758   2.307   0.087   2.638  3.2561  2.3681  0.5262
  940SOL    HW2 3759   2.331   0.205   2.728 -2.5422 -0.6724  0.5137
  940SOL     MW 3760   2.327   0.173   2.648  0.0005  0.1357  0.2516
  941SOL     OW 3761   0.105   2.350   2.106  0.3585  0.1910  0.0316
  941SOL    HW1 3762   0.180   2.293   2.111  2.8791 -4.9198 -2.3409
  941SOL    HW2 3763   0.050   2.314   2.034 -1.6361  0.5564 -2.0956
  941SOL     MW 3764   0.108   2.338   2.097  0.4279 -0.4351 -0.5621
  942SOL     OW 3765   2.842   2.208   2.121  0.2896 -0.1183 -0.6789
  942SOL    HW1 3766   2.773   2.261   2.087 -0.7386 -0.9858 -1.0026
  942SOL    HW2 3767   2.800   2.145   2.186  1.2129 -1.3124 -0.3110
  942SOL     MW 3768   2.827   2.207   2.125  0.2758 -0.3903 -0.6731
  943SOL     OW 3769   0.161   2.039   2.339  0.4100  0.4471 -0.2054
  943SOL    HW1 3770   0.114   2.102   2.394  0.7110 -0.1167 -0.0652
  943SOL    HW2 3771   0.201   1.973   2.397  0.8531  1.1749 -1.1293
  943SOL     MW 3772   0.160   2.039   2.354  0.5082  0.4687 -0.3088
  944SOL     OW 3773   2.185   2.645   2.042 -0.2400 -0.2764 -0.2365
  944SOL    HW1 3774   2.278   2.620   2.061 -1.7874  0.1403 -0.0547
  944SOL    HW2 3775   2.159   2.671   2.132 -0.2008 -0.5501 -0.6271
  944SOL     MW 3776   2.194   2.645   2.056 -0.4390 -0.2576 -0.2640
  945SOL     OW 3777   2.820   2.645   2.967 -0.6600 -0.2085  0.5074
  945SOL    HW1 3778   2.772   2.571   2.926  1.1002 -0.8103 -0.2218
  945SOL    HW2 3779   2.854   2.689   2.884 -1.9435 -0.2895 -2.4788
  945SOL     MW 3780   2.818   2.641   2.951 -0.5971 -0.2986  0.0172
  946SOL     OW 3781   2.552   2.739   2.267 -0.2000 -0.1743  0.3294
  946SOL    HW1 3782   2.567   2.789   2.183 -0.2035 -0.0840  0.7192
  946SOL    HW2 3783   2.503   2.663   2.223  0.2400  2.0110 -0.2062
  946SOL     MW 3784   2.548   2.736   2.250 -0.1424  0.1259  0.3102
  947SOL     OW 3785   2.094   3.086   0.421 -0.0278  0.0532  0.0484
  947SOL    HW1 3786   2.124   3.016   0.365  1.3834 -0.6645  1.9031
  947SOL    HW2 3787   2.169   3.136   0.453 -1.7381 -1.6891 -2.4134
  947SOL     MW 3788   2.108   3.083   0.418 -0.0672 -0.2714 -0.0317
  948SOL     OW 3789   1.796   3.092   2.634  0.6936 -0.4508 -0.3591
  948SOL    HW1 3790   1.859   3.024   2.624  4.0461 -0.9062  1.7199
  948SOL    HW2 3791   1.824   3.147   2.556  0.1199  2.1649 -1.5829
  948SOL     MW 3792   1.808   3.090   2.622  1.0602 -0.1658 -0.2462
  949SOL     OW 3793   2.470   2.039   2.259 -0.0483 -0.4637 -0.2687
  949SOL    HW1 3794   2.481   1.944   2.283 -0.8211 -2.0380  0.1582
  949SOL    HW2 3795   2.444   2.085   2.340 -1.5234 -1.4315  0.6540
  949SOL     MW 3796   2.468   2.033   2.273 -0.3449 -0.7991 -0.0907
  950SOL     OW 3797   2.287   2.627   3.001  0.1426 -0.3349  0.0226
  950SOL    HW1 3798   2.290   2.544   2.959 -1.6374  1.9814  2.0266
  950SOL    HW2 3799   2.197   2.654   2.974 -0.8069 -2.1946  0.7676
  950SOL     MW 3800   2.276   2.620   2.992 -0.2176 -0.2746  0.3853
  951SOL     OW 3801   2.882   2.055   2.881 -0.0631 -0.3608  0.1656
  951SOL    HW1 3802   2.889   2.110   2.963 -0.5389 -0.4824 -1.9234
  951SOL    HW2 3803   2.969   2.066   2.827  0.3862  0.5940 -1.5734
  951SOL     MW 3804   2.894   2.064   2.885 -0.0666 -0.2508 -0.3395
  952SOL     OW 3805   3.042   1.715   2.043  0.3854 -0.2830  0.2855
  952SOL    HW1 3806   2.980   1.787   2.026 -1.7524 -2.0303  1.8996
  952SOL    HW2 3807   3.127   1.748   2.080  0.5391 -1.3243 -1.9356
  952SOL     MW 3808   3.045   1.729   2.046  0.1236 -0.6510  0.2054
  953SOL     OW 3809   1.937   1.791   2.830 -0.2915  0.4398  0.0539
  953SOL    HW1 3810   1.847   1.782   2.869 -3.4713 -0.6055 -1.8272
  953SOL    HW2 3811   1.946   1.727   2.765  0.7059  1.6536 -0.2997
  953SOL     MW 3812   1.926   1.781   2.827 -0.5794  0.4621 -0.2409
  954SOL     OW 3813   2.402   2.051   2.863  0.1854  0.0534  1.0324
  954SOL    HW1 3814   2.322   2.029   2.808  1.1137 -1.1295  0.2236
  954SOL    HW2 3815   2.466   1.996   2.817  0.8109 -0.3754  0.6340
  954SOL     MW 3816   2.400   2.041   2.850  0.3904 -0.1592  0.8731
  955SOL     OW 3817   1.561   1.629   2.550  0.6709 -0.2659  0.0674
  955SOL    HW1 3818   1.546   1.595   2.462  0.6881 -0.5997 -0.8427
  955SOL    HW2 3819   1.642   1.688   2.535  0.1065 -3.2694 -0.4022
  955SOL     MW 3820   1.570   1.632   2.536  0.5987 -0.7062 -0.1147
  956SOL     OW 3821   2.618   2.464   2.861 -0.1959  0.0167 -0.2527
  956SOL    HW1 3822   2.619   2.441   2.953 -1.4827 -0.9496  4.1364
  956SOL    HW2 3823   2.667   2.391   2.817  2.0884  0.0306 -0.3825
  956SOL     MW 3824   2.625   2.451   2.867 -0.0643 -0.1090  0.3093
  957SOL     OW 3825   2.347   2.802   0.330 -0.6283 -0.3304  0.0720
  957SOL    HW1 3826   2.271   2.827   0.287 -1.1739 -0.5893  0.0497
  957SOL    HW2 3827   2.310   2.781   0.419 -2.0157  2.8363 -0.2206
  957SOL     MW 3828   2.332   2.803   0.336 -0.8833  0.0532  0.0305
  958SOL     OW 3829   2.046   2.711   2.902 -0.6225  0.0243  0.2185
  958SOL    HW1 3830   1.986   2.644   2.858  2.9963 -1.7364 -0.6231
  958SOL    HW2 3831   1.992   2.753   2.970 -0.4284 -1.1935 -1.5949
  958SOL     MW 3832   2.031   2.708   2.905 -0.1194 -0.3687 -0.1318
  959SOL     OW 3833   2.484   2.564   0.342 -0.1800  0.4106 -0.3747
  959SOL    HW1 3834   2.563   2.570   0.284  0.8694 -0.5226  1.7348
  959SOL    HW2 3835   2.445   2.655   0.333 -0.9058  2.5921  3.0653
  959SOL     MW 3836   2.489   2.577   0.333 -0.1373  0.5753  0.3575
  960SOL     OW 3837   1.964   2.484   2.347  0.0439  0.1145 -0.1184
  960SOL    HW1 3838   1.945   2.394   2.310  2.1584 -2.1883  1.0133
  960SOL    HW2 3839   1.890   2.504   2.412 -0.2637  2.8937  0.3818
  960SOL     MW 3840   1.952   2.475   2.351  0.2823  0.1773  0.0969
  961SOL     OW 3841   2.266   2.435   2.321 -0.5642  0.1844  0.0453
  961SOL    HW1 3842   2.172   2.448   2.317  0.6629  4.5441  1.1119
  961SOL    HW2 3843   2.293   2.478   2.407 -0.3985  3.2384 -0.0928
  961SOL     MW 3844   2.257   2.442   2.332 -0.3804  1.1625  0.1678
  962SOL     OW 3845   2.184   1.987   2.717 -0.3239  0.2066  0.4247
  962SOL    HW1 3846   2.126   1.944   2.783  0.9816  1.2351 -0.4955
  962SOL    HW2 3847   2.167   1.938   2.633  0.9530  0.2472 -1.0306
  962SOL     MW 3848   2.174   1.975   2.715  0.0168  0.3476  0.1113
  963SOL     OW 3849   1.785   2.542   2.135 -0.3295  0.0825  0.5651
  963SOL    HW1 3850   1.855   2.530   2.193 -2.5772 -2.2029 -1.1683
  963SOL    HW2 3851   1.793   2.473   2.058 -4.5880  0.2019 -2.5794
  963SOL     MW 3852   1.795   2.531   2.132 -1.1879 -0.2033 -0.0785
  964SOL     OW 3853   1.839   2.013   2.661  0.2394  0.7185 -0.2006
  964SOL    HW1 3854   1.898   2.087   2.687  1.6263  1.0303  0.5032
  964SOL    HW2 3855   1.875   1.947   2.727 -2.2907 -0.5035 -1.1299
  964SOL     MW 3856   1.852   2.014   2.673  0.0886  0.5984 -0.2304
  965SOL     OW 3857   2.257   2.709   0.591 -0.4603 -0.3830 -0.2091
  965SOL    HW1 3858   2.250   2.610   0.578 -1.1237 -1.0558  1.4037
  965SOL    HW2 3859   2.325   2.729   0.661 -0.7470 -1.1433  1.0047
  965SOL     MW 3860   2.265   2.699   0.599 -0.5857 -0.5721  0.1638
  966SOL     OW 3861   2.743   2.583   2.456  0.2103 -0.2293  0.4187
  966SOL    HW1 3862   2.691   2.610   2.382 -1.0045  3.5215  0.4422
  966SOL    HW2 3863   2.719   2.493   2.467 -2.0507 -0.0830 -0.7934
  966SOL     MW 3864   2.733   2.575   2.448 -0.2483  0.2849  0.2619
  967SOL     OW 3865   2.795   0.016   3.010  0.4108 -0.7025 -0.4418
  967SOL    HW1 3866   2.729  -0.047   3.041 -1.2865  1.2087  0.5964
  967SOL    HW2 3867   2.749   0.071   2.945  0.5891 -0.0733 -0.6223
  967SOL     MW 3868   2.780   0.015   3.006  0.2104 -0.3673 -0.3286
  968SOL     OW 3869   2.989   2.467   3.098  0.2592  0.2367  0.1800
  968SOL    HW1 3870   2.930   2.549   3.087  1.6481  0.5284 -1.3414
  968SOL    HW2 3871   3.033   2.470   3.012 -1.6436  0.0149 -0.5423
  968SOL     MW 3872   2.987   2.478   3.085  0.1914  0.2459 -0.1160
  969SOL     OW 3873   1.595   2.122   1.708 -0.3979  0.7463  0.2833
  969SOL    HW1 3874   1.642   2.045   1.687  0.9036  3.0692  1.4936
  969SOL    HW2 3875   1.561   2.113   1.796 -2.2949 -2.4004  1.7481
  969SOL     MW 3876   1.597   2.111   1.717 -0.4764  0.6376  0.6363
  970SOL     OW 3877   1.647   1.669   1.835  0.1724  0.4394 -0.8501
  970SOL    HW1 3878   1.717   1.660   1.902 -0.3770 -1.0737 -0.3024
  970SOL    HW2 3879   1.565   1.676   1.888  2.0168  3.6828  2.7325
  970SOL     MW 3880   1.645   1.669   1.851  0.3432  0.6677 -0.3052
  971SOL     OW 3881   1.866   0.137   2.406  0.4542 -0.3306  0.1025
  971SOL    HW1 3882   1.911   0.069   2.361  0.5568 -2.7865 -0.8934
  971SOL    HW2 3883   1.937   0.207   2.411 -1.0089  1.3631 -0.6318
  971SOL     MW 3884   1.881   0.137   2.401  0.2747 -0.4312 -0.1258
  972SOL     OW 3885   0.232   2.830   2.532  0.2435 -0.4878  0.3035
  972SOL    HW1 3886   0.271   2.740   2.552 -0.9150 -2.8213 -1.4193
  972SOL    HW2 3887   0.292   2.903   2.519  0.0481  4.0278 -1.2925
  972SOL     MW 3888   0.245   2.828   2.533  0.0649 -0.1999 -0.1344
  973SOL     OW 3889   2.652   3.051   2.106 -0.0268 -0.0253  0.5260
  973SOL    HW1 3890   2.627   2.973   2.051  0.4245 -2.1006  1.6006
  973SOL    HW2 3891   2.654   3.111   2.034 -0.4601  2.1471  0.6611
  973SOL     MW 3892   2.649   3.049   2.089 -0.0245 -0.0125  0.6856
  974SOL     OW 3893   1.967   0.317   2.697  0.0511 -0.2202 -0.0889
  974SOL    HW1 3894   1.986   0.234   2.741  1.2983  0.5976  0.3820
  974SOL    HW2 3895   1.870   0.334   2.715 -0.3239  0.0670 -0.6998
  974SOL     MW 3896   1.957   0.308   2.705  0.1662 -0.0744 -0.1074
  975SOL     OW 3897   2.343   2.572   2.550  0.3873 -0.1172  0.4908
  975SOL    HW1 3898   2.429   2.617   2.559  0.5084  1.4672 -2.1412
  975SOL    HW2 3899   2.267   2.636   2.565 -1.4162 -1.0850  0.0196
  975SOL     MW 3900   2.344   2.586   2.553  0.1654 -0.0358  0.0814
  976SOL     OW 3901   0.301   0.279   1.676 -0.0402 -0.4521  0.2481
  976SOL    HW1 3902   0.341   0.233   1.747 -1.4561 -0.2166  0.9533
  976SOL    HW2 3903   0.210   0.256   1.672 -2.7593  0.0076  0.0960
  976SOL     MW 3904   0.294   0.270   1.685 -0.5858 -0.3604  0.3211
  977SOL     OW 3905   1.727   2.837   2.443  0.2320 -0.2844  0.6169
  977SOL    HW1 3906   1.774   2.762   2.486 -1.2382  0.3394  1.1844
  977SOL    HW2 3907   1.790   2.864   2.375 -1.0942  2.0660 -0.2923
  977SOL     MW 3908   1.742   2.831   2.440 -0.1370  0.1080  0.5719
   3.10000   3.10000   3.10000
