977 TIP4P/2005f water molecules t=   1.10000 step= 1100
 3908
    1SOL     OW    1   0.409   0.786   0.017  0.4028 -0.0056 -0.7244
    1SOL    HW1    2   0.407   0.817  -0.072 -1.1694 -1.3224  1.2847
    1SOL    HW2    3   0.325   0.734   0.024 -0.7210 -2.5526  3.2401
    1SOL     MW    4   0.397   0.783   0.006  0.0471 -0.5154  0.0637
    2SOL     OW    5   0.334   3.050   1.176 -0.2340 -0.1956 -0.2041
    2SOL    HW1    6   0.385   3.124   1.140  3.4881  0.4168 -2.0596
    2SOL    HW2    7   0.244   3.074   1.201  0.7130 -0.7668  0.7155
    2SOL     MW    8   0.329   3.063   1.174  0.3821 -0.1901 -0.3276
    3SOL     OW    9   2.602   0.434   0.986 -0.7375 -0.4344  0.0621
    3SOL    HW1   10   2.653   0.484   0.935 -1.5808 -1.9880  1.0481
    3SOL    HW2   11   2.575   0.474   1.071  1.7457 -1.6105  0.3418
    3SOL     MW   12   2.605   0.446   0.990 -0.5211 -0.7946  0.2291
    4SOL     OW   13   2.937   1.693   0.540  0.3136  0.3198 -0.6953
    4SOL    HW1   14   2.868   1.743   0.490 -2.9683  2.0527  0.3391
    4SOL    HW2   15   2.987   1.657   0.468 -0.2904  3.9089 -1.1718
    4SOL     MW   16   2.934   1.694   0.524 -0.1991  1.0220 -0.6217
    5SOL     OW   17   1.724   1.489   0.524 -0.8766  0.0864 -0.0520
    5SOL    HW1   18   1.767   1.431   0.583  1.0486  0.8404  0.9073
    5SOL    HW2   19   1.628   1.494   0.552 -0.3910  0.0382 -0.1995
    5SOL     MW   20   1.717   1.482   0.535 -0.5585  0.1795  0.0551
    6SOL     OW   21   0.802   1.361   0.582  0.1182 -0.6983  0.1933
    6SOL    HW1   22   0.706   1.363   0.602  0.9162  2.2311  2.2826
    6SOL    HW2   23   0.831   1.283   0.630 -0.6579 -0.5210  0.3424
    6SOL     MW   24   0.793   1.351   0.591  0.1211 -0.2884  0.4887
    7SOL     OW   25   2.078   1.021   0.016  0.2618  0.1534  0.4536
    7SOL    HW1   26   2.067   1.078  -0.062 -1.7361  1.2819 -0.6562
    7SOL    HW2   27   2.125   1.070   0.081  1.5087 -0.8525  0.2925
    7SOL     MW   28   2.083   1.035   0.014  0.1627  0.1696  0.2859
    8SOL     OW   29   0.905   1.449   1.171  0.0121  0.1437  0.1251
    8SOL    HW1   30   1.001   1.445   1.180  0.9363  2.8726  1.0298
    8SOL    HW2   31   0.876   1.362   1.187  1.9739  1.1767  0.0965
    8SOL     MW   32   0.914   1.437   1.174  0.3929  0.6401  0.2407
    9SOL     OW   33   1.004   0.525   1.395 -0.0874 -0.3858 -0.0684
    9SOL    HW1   34   0.991   0.453   1.329 -0.8130 -0.3704 -0.9479
    9SOL    HW2   35   1.042   0.487   1.475 -1.5592  2.0790  0.0281
    9SOL     MW   36   1.008   0.511   1.397 -0.3774 -0.0586 -0.1717
   10SOL     OW   37   0.214   0.770   0.477  0.2944  0.1834  0.3892
   10SOL    HW1   38   0.306   0.796   0.443  2.6497  1.0298  2.0151
   10SOL    HW2   39   0.198   0.814   0.566 -1.1817 -1.2235 -0.7622
   10SOL     MW   40   0.224   0.779   0.484  0.4104  0.1094  0.4518
   11SOL     OW   41   0.812   1.143   1.612 -0.0666 -0.2637 -0.3094
   11SOL    HW1   42   0.878   1.131   1.683 -1.7836 -0.8027 -0.9941
   11SOL    HW2   43   0.806   1.068   1.557 -0.9373  5.0661 -4.9972
   11SOL     MW   44   0.820   1.132   1.614 -0.4080  0.3684 -1.0182
   12SOL     OW   45   0.018   1.074   0.881 -0.3391 -0.8745  0.4964
   12SOL    HW1   46   0.055   1.148   0.927  1.6934 -0.7988  2.4776
   12SOL    HW2   47  -0.003   1.118   0.802  1.7153  1.9789  1.0905
   12SOL     MW   48   0.020   1.090   0.876  0.2002 -0.4880  0.8362
   13SOL     OW   49   1.841   1.439   1.333  0.3248 -0.3316  0.2053
   13SOL    HW1   50   1.902   1.377   1.301  0.6149  2.3782  0.5028
   13SOL    HW2   51   1.873   1.530   1.317  0.8738 -1.2687 -1.2990
   13SOL     MW   52   1.853   1.443   1.327  0.4355 -0.0977  0.0461
   14SOL     OW   53   0.569   0.396   1.866 -0.3219 -0.4216  0.0828
   14SOL    HW1   54   0.509   0.318   1.867  1.2577 -0.1013 -2.3690
   14SOL    HW2   55   0.641   0.364   1.819 -2.3160  1.2536  2.0004
   14SOL     MW   56   0.570   0.382   1.860 -0.3766 -0.1583  0.0123
   15SOL     OW   57   1.968   0.352   1.052  0.6738  0.1660 -0.4551
   15SOL    HW1   58   1.940   0.420   1.113 -2.4126 -0.4605  0.8991
   15SOL    HW2   59   2.019   0.391   0.981  0.4867 -0.5694  0.1956
   15SOL     MW   60   1.971   0.366   1.051  0.2419 -0.0137 -0.1906
   16SOL     OW   61   0.189   1.797   0.320  0.0085 -0.4001 -0.2924
   16SOL    HW1   62   0.283   1.760   0.328  1.5032  3.6976 -1.8845
   16SOL    HW2   63   0.193   1.890   0.337 -1.2257  1.4759  0.0328
   16SOL     MW   64   0.202   1.804   0.323  0.0429  0.3881 -0.4595
   17SOL     OW   65   1.084   0.928   1.449 -0.5578  0.1608  0.1906
   17SOL    HW1   66   1.134   0.887   1.516  0.5112 -0.2198 -3.2360
   17SOL    HW2   67   0.989   0.921   1.471  0.0016  1.3828 -0.0480
   17SOL     MW   68   1.078   0.921   1.461 -0.3430  0.2718 -0.2930
   18SOL     OW   69   0.035   1.572   0.401  0.3320  0.0846 -0.7220
   18SOL    HW1   70   0.080   1.652   0.385 -1.8980 -2.9024 -2.4674
   18SOL    HW2   71   0.012   1.536   0.315 -0.7399  2.5021  1.3536
   18SOL     MW   72   0.038   1.578   0.387 -0.1037  0.0095 -0.6784
   19SOL     OW   73   0.089   1.284   1.036 -0.6572  0.5139  0.0138
   19SOL    HW1   74   0.125   1.357   0.978 -1.0319 -3.2814 -0.5303
   19SOL    HW2   75  -0.002   1.318   1.051 -1.1112  0.2453  1.3186
   19SOL     MW   76   0.082   1.298   1.031 -0.7665 -0.0223  0.1142
   20SOL     OW   77   0.448   2.156   1.176  0.3102  0.3256  0.3832
   20SOL    HW1   78   0.394   2.082   1.149  0.0273 -1.1912 -0.3123
   20SOL    HW2   79   0.404   2.197   1.253  1.6965 -2.0179  1.0158
   20SOL     MW   80   0.435   2.152   1.182  0.4558 -0.1837  0.3749
   21SOL     OW   81   0.454   0.870   0.423  0.1796  0.1980  0.1194
   21SOL    HW1   82   0.519   0.845   0.491 -0.7747 -0.0585  0.9017
   21SOL    HW2   83   0.507   0.881   0.347 -0.0617 -1.7739  0.1439
   21SOL     MW   84   0.469   0.868   0.422  0.0219 -0.0960  0.2259
   22SOL     OW   85   1.590   0.645   1.040 -0.3594  0.4409  0.1312
   22SOL    HW1   86   1.549   0.621   0.959 -0.9833  0.2946  2.7208
   22SOL    HW2   87   1.536   0.716   1.069  1.0499 -1.1518 -1.0876
   22SOL     MW   88   1.577   0.651   1.033 -0.2558  0.2115  0.3120
   23SOL     OW   89   3.045   0.691   0.683 -0.5115 -0.0175  0.5605
   23SOL    HW1   90   3.109   0.634   0.736 -0.3890 -2.3499  2.4044
   23SOL    HW2   91   3.104   0.767   0.680  1.4925 -0.8888 -0.0045
   23SOL     MW   92   3.061   0.694   0.690 -0.2309 -0.4402  0.7292
   24SOL     OW   93   2.024   2.198   0.030 -0.1166 -0.0305  0.2407
   24SOL    HW1   94   1.992   2.210   0.119  1.8387 -0.1290 -0.4732
   24SOL    HW2   95   2.036   2.103   0.007  0.3042 -2.0069 -0.1145
   24SOL     MW   96   2.021   2.187   0.039  0.1969 -0.3043  0.0996
   25SOL     OW   97   0.231   1.423   0.569 -0.1072 -0.0790 -0.2355
   25SOL    HW1   98   0.166   1.467   0.518  0.7386 -1.2395  0.0762
   25SOL    HW2   99   0.307   1.440   0.523 -0.1716  0.4788  0.8896
   25SOL     MW  100   0.232   1.431   0.556 -0.0041 -0.1585 -0.0460
   26SOL     OW  101   2.097   1.054   0.336 -0.5640  0.4361 -0.5356
   26SOL    HW1  102   2.045   1.110   0.392  0.9833  1.7259 -0.9665
   26SOL    HW2  103   2.161   1.124   0.307 -1.3506  0.2169  1.7313
   26SOL     MW  104   2.099   1.070   0.340 -0.4636  0.5774 -0.2934
   27SOL     OW  105   1.989   1.445   0.228 -0.2285  0.0919 -0.3339
   27SOL    HW1  106   1.924   1.515   0.251 -0.4203  0.3966 -1.0401
   27SOL    HW2  107   2.039   1.428   0.307 -1.3120  2.0831 -0.0762
   27SOL     MW  108   1.987   1.452   0.242 -0.3968  0.3948 -0.3931
   28SOL     OW  109   0.439   0.995   1.956  0.3341  0.0006  0.4864
   28SOL    HW1  110   0.459   0.988   2.046 -0.8543  0.5868 -3.7291
   28SOL    HW2  111   0.345   0.978   1.950  0.0954  0.7079 -1.4570
   28SOL     MW  112   0.429   0.992   1.967  0.1458  0.1713 -0.3262
   29SOL     OW  113   0.207   1.449   0.859 -0.1115 -0.1664  0.6383
   29SOL    HW1  114   0.208   1.545   0.877 -2.2454 -1.9897  1.9970
   29SOL    HW2  115   0.208   1.445   0.762 -1.0407  0.3260 -0.8390
   29SOL     MW  116   0.207   1.461   0.849 -0.5156 -0.3420  0.6226
   30SOL     OW  117   0.811   1.197   1.233 -0.4588  0.0610  0.1941
   30SOL    HW1  118   0.732   1.217   1.285 -1.7158 -1.3092  3.5766
   30SOL    HW2  119   0.882   1.196   1.305  1.6704 -0.1909  1.5585
   30SOL     MW  120   0.810   1.199   1.250 -0.3437 -0.1530  0.8204
   31SOL     OW  121   0.449   0.257   0.162 -0.1494  0.4226 -0.2257
   31SOL    HW1  122   0.462   0.175   0.204 -0.2927 -1.9823 -1.5990
   31SOL    HW2  123   0.462   0.238   0.067  0.3889  2.4702 -0.7654
   31SOL     MW  124   0.452   0.244   0.155 -0.0973  0.3754 -0.4781
   32SOL     OW  125   2.821   0.966   1.187  0.3720 -0.1616  0.2123
   32SOL    HW1  126   2.761   0.901   1.155 -0.4940  0.1705 -3.4106
   32SOL    HW2  127   2.906   0.931   1.159 -1.1100 -1.5127  0.1392
   32SOL     MW  128   2.824   0.953   1.179  0.0622 -0.2960 -0.2754
   33SOL     OW  129   1.714   1.301   0.324 -0.5110 -0.1400 -0.0016
   33SOL    HW1  130   1.776   1.239   0.353 -1.3183  1.0678  1.9083
   33SOL    HW2  131   1.735   1.378   0.376  0.6449  1.9102 -1.9677
   33SOL     MW  132   1.725   1.303   0.334 -0.4650  0.2899 -0.0090
   34SOL     OW  133   1.215   1.907   1.102 -0.4888  0.5101  0.0478
   34SOL    HW1  134   1.137   1.956   1.129  0.0525  1.8837  0.8534
   34SOL    HW2  135   1.282   1.934   1.168  2.1262  0.7523 -0.3973
   34SOL     MW  136   1.214   1.917   1.114 -0.0723  0.7233  0.0954
   35SOL     OW  137   0.394   0.151   1.859 -0.7172  0.2000  0.0044
   35SOL    HW1  138   0.408   0.086   1.929 -1.3167  2.2933  0.2396
   35SOL    HW2  139   0.444   0.120   1.780  0.0851 -0.3411  3.7042
   35SOL     MW  140   0.403   0.138   1.858 -0.6904  0.4048  0.5236
   36SOL     OW  141   1.967   1.964   0.606  0.0187 -0.2085  0.1037
   36SOL    HW1  142   1.933   1.964   0.515 -1.1469  2.3410 -1.4829
   36SOL    HW2  143   1.975   1.872   0.626  0.6284  1.4857  0.9315
   36SOL     MW  144   1.963   1.952   0.597 -0.0546  0.3514  0.0036
   37SOL     OW  145   1.798   1.972   0.956 -0.3227 -0.4279  0.1667
   37SOL    HW1  146   1.732   1.910   0.922  1.7365  2.5057 -0.4335
   37SOL    HW2  147   1.748   2.040   1.004 -1.7624  1.0636 -1.4370
   37SOL     MW  148   1.783   1.973   0.958 -0.2409  0.1560 -0.1241
   38SOL     OW  149   2.807   0.939   0.149 -0.3652 -0.1559  0.2515
   38SOL    HW1  150   2.830   0.919   0.243 -0.8503  3.5996  2.2597
   38SOL    HW2  151   2.885   0.925   0.099  0.6322  1.0730  1.0524
   38SOL     MW  152   2.820   0.934   0.155 -0.2976  0.5017  0.6221
   39SOL     OW  153   1.434   0.618   0.803  0.0445 -0.1597  0.1463
   39SOL    HW1  154   1.384   0.540   0.828 -0.0589 -0.6731  0.4942
   39SOL    HW2  155   1.366   0.683   0.805  2.2428 -2.1059 -0.6953
   39SOL     MW  156   1.419   0.617   0.807  0.3209 -0.4842  0.0812
   40SOL     OW  157   1.186   1.922   0.304  0.1666  0.3330 -0.1785
   40SOL    HW1  158   1.230   1.863   0.368  0.1343 -2.4372 -0.2127
   40SOL    HW2  159   1.166   2.002   0.356 -3.9787  0.8250 -1.4411
   40SOL     MW  160   1.190   1.925   0.320 -0.3845  0.0324 -0.3496
   41SOL     OW  161   0.569   0.518   1.600 -0.3002 -0.4740 -1.0535
   41SOL    HW1  162   0.654   0.561   1.618 -0.2000 -0.3933 -1.6351
   41SOL    HW2  163   0.536   0.502   1.694 -2.7040  2.5885 -0.7680
   41SOL     MW  164   0.576   0.522   1.615 -0.6041 -0.0593 -1.0925
   42SOL     OW  165   1.285   3.005   2.015 -0.0286  0.0680  0.2857
   42SOL    HW1  166   1.196   2.995   2.042 -1.3851  0.7450 -0.2122
   42SOL    HW2  167   1.336   2.932   2.058 -1.3633 -1.3693 -0.1026
   42SOL     MW  168   1.280   2.994   2.024 -0.3837 -0.0323  0.1688
   43SOL     OW  169   1.526   0.116   1.694  0.3463  0.2922 -0.1145
   43SOL    HW1  170   1.591   0.076   1.629 -2.2620 -3.9561 -0.6129
   43SOL    HW2  171   1.444   0.069   1.679  0.1362 -2.2880  1.1133
   43SOL     MW  172   1.524   0.104   1.684 -0.0256 -0.6088 -0.0183
   44SOL     OW  173   1.109   0.800   1.020  0.4722  0.0176 -0.8831
   44SOL    HW1  174   1.133   0.890   1.002  2.0008  0.5073  0.5104
   44SOL    HW2  175   1.126   0.786   1.112 -4.0008 -2.7938 -0.2056
   44SOL     MW  176   1.114   0.810   1.030  0.0837 -0.2888 -0.6099
   45SOL     OW  177   1.237   0.760   0.630  0.3334  0.2901 -0.0916
   45SOL    HW1  178   1.164   0.818   0.652  2.2075  1.2837  1.6560
   45SOL    HW2  179   1.187   0.684   0.584 -0.7218 -1.9990 -1.4961
   45SOL     MW  180   1.221   0.758   0.627  0.4415  0.1192 -0.0463
   46SOL     OW  181   0.556   1.150   0.597  0.4621 -0.1499 -0.1429
   46SOL    HW1  182   0.525   1.144   0.505  1.1739 -1.8598  0.8348
   46SOL    HW2  183   0.644   1.115   0.578  3.3887  0.8799 -0.4592
   46SOL     MW  184   0.564   1.144   0.582  0.9421 -0.2396 -0.0556
   47SOL     OW  185   0.225   2.039   1.979  0.4134 -0.9416 -0.5119
   47SOL    HW1  186   0.287   1.972   2.011 -0.7661 -0.8255  0.2409
   47SOL    HW2  187   0.209   2.097   2.055 -0.5282  1.0379  0.7509
   47SOL     MW  188   0.231   2.038   1.993  0.1335 -0.6651 -0.2460
   48SOL     OW  189   1.069   0.501   1.070  0.3528  0.4959  0.6906
   48SOL    HW1  190   0.984   0.473   1.047  3.2951  1.1522 -0.9394
   48SOL    HW2  191   1.067   0.597   1.047  0.3661  3.0249 -0.1383
   48SOL     MW  192   1.057   0.510   1.064  0.7427  0.9161  0.3661
   49SOL     OW  193   1.709   0.695   1.555 -0.8815 -0.2690  0.6221
   49SOL    HW1  194   1.705   0.632   1.631 -0.7954 -1.1117  1.2369
   49SOL    HW2  195   1.771   0.653   1.500  0.2390 -1.2783  1.9833
   49SOL     MW  196   1.717   0.681   1.557 -0.7223 -0.5133  0.8828
   50SOL     OW  197   1.325   1.073   0.517 -0.3295  0.3134 -0.1253
   50SOL    HW1  198   1.284   1.112   0.593  0.9458  0.7748  0.0314
   50SOL    HW2  199   1.391   1.020   0.559  0.8434  2.1660 -0.7405
   50SOL     MW  200   1.328   1.071   0.532 -0.0065  0.6187 -0.1858
   51SOL     OW  201   0.352   2.924   0.908  0.4273  0.5214 -0.0378
   51SOL    HW1  202   0.440   2.877   0.913  0.5536 -1.3635 -2.4387
   51SOL    HW2  203   0.329   2.971   0.995 -2.4427 -1.4265  2.4233
   51SOL     MW  204   0.360   2.924   0.920  0.0653  0.0157 -0.0299
   52SOL     OW  205   0.786   1.715   0.412  0.4790  0.0467 -0.1403
   52SOL    HW1  206   0.786   1.807   0.389  0.3197 -1.4869  2.9056
   52SOL    HW2  207   0.815   1.665   0.333  1.8068  0.0221  0.3044
   52SOL     MW  208   0.789   1.720   0.398  0.6332 -0.1589  0.3203
   53SOL     OW  209   0.449   2.109   0.471  0.4142  0.2268 -0.4355
   53SOL    HW1  210   0.378   2.096   0.411 -0.2576  2.7830 -1.0925
   53SOL    HW2  211   0.442   2.209   0.473  0.4530  0.9246  1.0235
   53SOL     MW  212   0.438   2.121   0.463  0.3307  0.6561 -0.3297
   54SOL     OW  213   1.996   0.936   0.796 -0.0459 -0.3187  0.2860
   54SOL    HW1  214   2.061   0.936   0.725 -1.6519 -0.8212 -1.8708
   54SOL    HW2  215   1.982   0.842   0.815  0.0912 -1.5544  1.3314
   54SOL     MW  216   2.002   0.923   0.789 -0.2397 -0.5481  0.1393
   55SOL     OW  217   0.546   1.558   1.615 -0.1500  0.5822 -0.0399
   55SOL    HW1  218   0.481   1.577   1.547  0.0810 -1.1025 -1.6824
   55SOL    HW2  219   0.619   1.529   1.560  0.3045 -2.3114  0.1738
   55SOL     MW  220   0.547   1.557   1.599 -0.0596 -0.0219 -0.2284
   56SOL     OW  221   0.617   0.840   0.186 -0.1552  0.4408 -0.0552
   56SOL    HW1  222   0.651   0.911   0.134  0.3694 -0.0993  1.1206
   56SOL    HW2  223   0.537   0.816   0.136  2.5180  1.7616 -2.3003
   56SOL     MW  224   0.611   0.846   0.172  0.2667  0.5438 -0.1962
   57SOL     OW  225   1.185   1.257   1.176  0.5646  0.4216 -0.2975
   57SOL    HW1  226   1.276   1.239   1.171  0.1721  0.4071 -1.5135
   57SOL    HW2  227   1.143   1.233   1.258  1.8927 -2.3516  0.3325
   57SOL     MW  228   1.191   1.251   1.186  0.6880  0.0538 -0.3748
   58SOL     OW  229   0.519   1.242   1.351 -0.0752  0.1016 -0.1822
   58SOL    HW1  230   0.510   1.334   1.318 -1.5412  0.6976  4.7905
   58SOL    HW2  231   0.528   1.269   1.443  1.2622  0.0887  0.8908
   58SOL     MW  232   0.519   1.258   1.359 -0.0921  0.1786  0.6155
   59SOL     OW  233   1.548   1.691   0.358 -0.0099  0.0699  0.2719
   59SOL    HW1  234   1.589   1.728   0.435  1.1928 -0.1514  0.2143
   59SOL    HW2  235   1.449   1.691   0.370  0.4180  1.5926 -1.2640
   59SOL     MW  236   1.541   1.696   0.370  0.2052  0.2416  0.0616
   60SOL     OW  237   0.051   0.222   1.663  0.3385  0.0391  0.7766
   60SOL    HW1  238  -0.023   0.264   1.693  2.8926 -2.0639 -1.0374
   60SOL    HW2  239   0.071   0.139   1.717 -1.2198 -0.9016  1.6070
   60SOL     MW  240   0.044   0.217   1.674  0.4699 -0.3624  0.6468
   61SOL     OW  241   2.034   1.421   3.058 -0.9182 -0.1995 -0.0865
   61SOL    HW1  242   2.012   1.425   3.155  1.5972 -1.2735  1.3732
   61SOL    HW2  243   2.114   1.365   3.055 -0.5587 -1.3064  0.9600
   61SOL     MW  244   2.041   1.414   3.070 -0.5389 -0.4873  0.2441
   62SOL     OW  245   0.585   1.695   0.599  0.3044 -0.6183 -0.0783
   62SOL    HW1  246   0.665   1.715   0.546 -0.9053 -2.8074 -0.5406
   62SOL    HW2  247   0.575   1.607   0.589  4.2876  2.8184 -2.9245
   62SOL     MW  248   0.595   1.686   0.591  0.6703 -0.4537 -0.5149
   63SOL     OW  249   1.686   0.689   0.714 -0.0254  0.0483  0.0357
   63SOL    HW1  250   1.724   0.759   0.660  0.3418 -1.0394  0.1798
   63SOL    HW2  251   1.590   0.702   0.712  0.1012 -0.5133 -1.6564
   63SOL     MW  252   1.678   0.700   0.707  0.0397 -0.1693 -0.1686
   64SOL     OW  253   0.224   1.725   0.833 -0.2093  0.5473  0.2807
   64SOL    HW1  254   0.282   1.744   0.763  0.4746  1.0611  2.4856
   64SOL    HW2  255   0.151   1.784   0.825  0.9097 -1.0880  0.3165
   64SOL     MW  256   0.222   1.735   0.822  0.0286  0.3993  0.5763
   65SOL     OW  257   1.588   2.312   0.408  0.0688 -0.1793  0.2526
   65SOL    HW1  258   1.651   2.263   0.464 -0.0597  0.7955  0.3992
   65SOL    HW2  259   1.541   2.350   0.485  1.1828 -0.3783 -1.0715
   65SOL     MW  260   1.590   2.310   0.426  0.1988 -0.0769  0.0972
   66SOL     OW  261   0.290   0.520   0.542  0.1679 -0.0070  0.0282
   66SOL    HW1  262   0.353   0.483   0.469  0.4236  0.1146 -3.0456
   66SOL    HW2  263   0.275   0.613   0.518  1.1685 -0.9724 -1.1198
   66SOL     MW  264   0.296   0.527   0.529  0.3336 -0.1184 -0.5288
   67SOL     OW  265   1.479   0.081   1.994 -0.1114  0.4878 -0.3397
   67SOL    HW1  266   1.512   0.087   1.902 -0.2926  2.6247 -3.0843
   67SOL    HW2  267   1.394   0.031   1.998 -1.5829 -1.8668 -0.6784
   67SOL     MW  268   1.472   0.075   1.983 -0.3294  0.4591 -0.7465
   68SOL     OW  269   0.693   0.040   2.983  0.0554 -0.0261  0.2553
   68SOL    HW1  270   0.701   0.112   2.913 -2.2397  0.3651 -1.4677
   68SOL    HW2  271   0.777   0.043   3.035 -1.1327 -1.9639  1.4768
   68SOL     MW  272   0.705   0.050   2.981 -0.4042 -0.2301  0.1891
   69SOL     OW  273   1.034   0.198   1.971 -0.5877  0.2364  0.4147
   69SOL    HW1  274   1.122   0.220   2.009  0.4633 -1.1559 -2.3952
   69SOL    HW2  275   1.019   0.108   2.003  0.6123 -1.4914  2.5575
   69SOL     MW  276   1.044   0.189   1.980 -0.2907 -0.1752  0.3267
   70SOL     OW  277   0.588   1.740   1.170 -0.0645  0.1376  0.5695
   70SOL    HW1  278   0.646   1.691   1.228 -1.3776  1.7292  0.1056
   70SOL    HW2  279   0.636   1.775   1.093  2.1034  1.4451  0.1399
   70SOL     MW  280   0.602   1.738   1.167  0.0483  0.5201  0.4516
   71SOL     OW  281   1.590   0.464   1.244  0.0679  0.1948 -0.1741
   71SOL    HW1  282   1.554   0.535   1.301 -1.4017  0.8056 -1.3043
   71SOL    HW2  283   1.569   0.511   1.162 -0.3132 -1.4066 -1.7186
   71SOL     MW  284   1.583   0.479   1.241 -0.1763  0.0641 -0.5270
   72SOL     OW  285   0.789   1.849   1.012  0.2327  0.6633  0.3414
   72SOL    HW1  286   0.775   1.887   0.922 -0.6030 -1.7368  1.3056
   72SOL    HW2  287   0.804   1.755   0.989  2.6969 -0.9300  1.4259
   72SOL     MW  288   0.789   1.842   0.997  0.4476  0.1364  0.6117
   73SOL     OW  289   1.184   0.734   1.282 -0.2350  0.7104  0.7003
   73SOL    HW1  290   1.140   0.655   1.309 -2.1068  0.3229 -0.0543
   73SOL    HW2  291   1.140   0.810   1.334 -1.8712  0.9249  0.3046
   73SOL     MW  292   1.172   0.734   1.293 -0.6979  0.6876  0.5486
   74SOL     OW  293   2.749   0.194   1.060  0.4608 -0.0862  1.1170
   74SOL    HW1  294   2.814   0.170   1.000  0.3004 -1.1957  1.6820
   74SOL    HW2  295   2.695   0.269   1.029 -0.1482  1.0037  1.2324
   74SOL     MW  296   2.750   0.201   1.048  0.3593 -0.0888  1.2068
   75SOL     OW  297   1.545   1.454   0.150  0.1609  0.1237  0.0229
   75SOL    HW1  298   1.583   1.518   0.088 -0.3845  1.5347 -0.0921
   75SOL    HW2  299   1.612   1.424   0.213 -0.7179  2.4318 -1.3044
   75SOL     MW  300   1.559   1.459   0.150 -0.0270  0.6144 -0.1674
   76SOL     OW  301   2.938   0.542   0.479  0.1221 -0.0953  0.0502
   76SOL    HW1  302   2.967   0.582   0.564 -0.0407 -1.6202  0.9149
   76SOL    HW2  303   3.018   0.509   0.443 -0.5975  0.4227  0.9411
   76SOL     MW  304   2.952   0.543   0.486  0.0057 -0.2282  0.2819
   77SOL     OW  305   0.830   0.578   0.481  0.0854  0.2455 -0.0597
   77SOL    HW1  306   0.811   0.571   0.387  1.6030 -0.7226  0.1861
   77SOL    HW2  307   0.799   0.488   0.509  0.8771 -0.7097  0.9620
   77SOL     MW  308   0.824   0.565   0.472  0.3901 -0.0082  0.1075
   78SOL     OW  309   0.755   0.901   1.238  0.1291  0.0698 -0.3323
   78SOL    HW1  310   0.773   0.984   1.194 -1.2055 -2.9412 -0.1256
   78SOL    HW2  311   0.669   0.869   1.204 -0.0970  0.0726 -1.9240
   78SOL     MW  312   0.746   0.908   1.228 -0.0768 -0.3271 -0.5151
   79SOL     OW  313   1.928   1.669   0.606 -0.4212 -0.1130 -0.0864
   79SOL    HW1  314   1.852   1.619   0.581 -3.3251 -0.4693  0.3488
   79SOL    HW2  315   1.929   1.662   0.703 -2.7329  0.5697  0.9447
   79SOL     MW  316   1.918   1.662   0.616 -1.1093 -0.0699  0.1071
   80SOL     OW  317   0.073   0.943   0.315 -0.4219 -0.5432 -0.2497
   80SOL    HW1  318  -0.014   0.904   0.336 -2.2577 -0.5325  2.8037
   80SOL    HW2  319   0.118   0.884   0.373 -0.3402  1.9019  1.1641
   80SOL     MW  320   0.068   0.930   0.325 -0.6534 -0.2192  0.3397
   81SOL     OW  321   1.903   1.872   0.310 -0.3868 -0.5635 -0.3277
   81SOL    HW1  322   1.886   1.783   0.276 -2.7011  0.3744  0.7503
   81SOL    HW2  323   1.832   1.917   0.257  1.0678 -3.1568 -0.8948
   81SOL     MW  324   1.892   1.866   0.299 -0.5002 -0.7820 -0.2603
   82SOL     OW  325   0.804   1.007   0.551  0.1418 -0.0766 -0.2066
   82SOL    HW1  326   0.839   1.016   0.458  0.8069  0.2333 -1.8312
   82SOL    HW2  327   0.760   0.927   0.543 -0.2550  1.9491  0.5978
   82SOL     MW  328   0.803   0.997   0.538  0.1772  0.2316 -0.3148
   83SOL     OW  329   0.065   0.680   1.441 -0.0863  0.0867  0.4170
   83SOL    HW1  330   0.088   0.760   1.389  0.1750 -0.8055 -1.0700
   83SOL    HW2  331   0.135   0.617   1.438  0.9208  1.2229 -1.6021
   83SOL     MW  332   0.077   0.682   1.433  0.0811  0.1189 -0.0456
   84SOL     OW  333   0.114   0.202   1.008 -0.3883 -0.1933 -0.4375
   84SOL    HW1  334   0.032   0.253   0.997 -0.5709  1.0985 -2.5172
   84SOL    HW2  335   0.101   0.144   1.080 -0.2401 -0.7858 -1.9432
   84SOL     MW  336   0.101   0.201   1.016 -0.3928 -0.1010 -0.9106
   85SOL     OW  337   0.459   0.455   0.752 -0.3739  0.1441 -0.3523
   85SOL    HW1  338   0.412   0.490   0.673 -2.1521  1.0983 -2.4159
   85SOL    HW2  339   0.419   0.370   0.759  2.6408  2.6105 -1.7124
   85SOL     MW  340   0.448   0.448   0.743 -0.2107  0.5954 -0.8040
   86SOL     OW  341   1.173   0.232   1.105 -0.2140 -0.1735 -0.1231
   86SOL    HW1  342   1.134   0.314   1.116  0.0597 -0.4497  0.5731
   86SOL    HW2  343   1.244   0.247   1.168  0.0155  1.8165 -1.4364
   86SOL     MW  344   1.177   0.245   1.115 -0.1476  0.0526 -0.2045
   87SOL     OW  345   1.229   1.547   1.296 -0.9621  0.2554 -0.4809
   87SOL    HW1  346   1.247   1.594   1.214  3.3562 -1.7206 -0.8625
   87SOL    HW2  347   1.224   1.460   1.263  1.8929  2.8033  1.8214
   87SOL     MW  348   1.231   1.542   1.281 -0.0156  0.3308 -0.2275
   88SOL     OW  349   1.190   1.071   0.952  0.1132 -0.1609 -0.0799
   88SOL    HW1  350   1.286   1.067   0.960  2.0547 -1.6896  0.7806
   88SOL    HW2  351   1.155   1.136   1.019 -2.4530 -1.6374  0.8601
   88SOL     MW  352   1.198   1.079   0.962  0.0308 -0.5574  0.1576
   89SOL     OW  353   1.731   0.735   0.359  0.8211  0.4913  0.1490
   89SOL    HW1  354   1.740   0.638   0.369 -0.8376  0.5712 -0.1962
   89SOL    HW2  355   1.823   0.759   0.327  0.4952 -2.9384 -1.6528
   89SOL     MW  356   1.745   0.725   0.356  0.5593  0.0493 -0.1343
   90SOL     OW  357   0.822   1.059   2.793 -0.1361 -0.0717  0.4688
   90SOL    HW1  358   0.861   0.983   2.835 -1.3830  2.1892 -2.3092
   90SOL    HW2  359   0.821   1.113   2.868  1.0604 -1.8602  1.3207
   90SOL     MW  360   0.827   1.056   2.808 -0.1428 -0.0094  0.2147
   91SOL     OW  361   2.146   0.676   0.440 -0.2760 -0.4043  1.1861
   91SOL    HW1  362   2.199   0.731   0.379  3.6356 -0.0725  1.4240
   91SOL    HW2  363   2.183   0.587   0.436  2.3702 -0.6051  1.1555
   91SOL     MW  364   2.158   0.672   0.432  0.5892 -0.3870  1.2135
   92SOL     OW  365   1.747   0.920   0.568  0.0772 -0.1732 -0.1383
   92SOL    HW1  366   1.656   0.926   0.604  2.5016  0.1219 -1.7088
   92SOL    HW2  367   1.740   0.852   0.498  2.2853 -1.2205  1.3398
   92SOL     MW  368   1.734   0.911   0.564  0.6884 -0.2725 -0.1505
   93SOL     OW  369   0.971   0.252   0.429 -0.1514 -0.5546  0.4073
   93SOL    HW1  370   0.880   0.266   0.456  0.5128 -1.0459  0.4818
   93SOL    HW2  371   0.968   0.261   0.331 -0.7584  0.9558 -0.6917
   93SOL     MW  372   0.959   0.255   0.420 -0.1439 -0.4202  0.2721
   94SOL     OW  373   1.853   1.371   1.687  0.1974  0.0532  0.1927
   94SOL    HW1  374   1.855   1.346   1.588  0.0868 -1.4694 -0.7273
   94SOL    HW2  375   1.790   1.306   1.716  2.2384 -1.0003 -1.8493
   94SOL     MW  376   1.845   1.359   1.678  0.4521 -0.2867 -0.1981
   95SOL     OW  377   0.798   1.586   0.953  0.0061 -0.6834  0.0820
   95SOL    HW1  378   0.831   1.551   1.036  2.7556 -0.4221  0.9625
   95SOL    HW2  379   0.713   1.543   0.935 -0.4800 -1.4158 -1.1925
   95SOL     MW  380   0.792   1.576   0.962  0.3047 -0.7455  0.0300
   96SOL     OW  381   1.260   1.878   1.677  1.1541 -0.2528 -0.0753
   96SOL    HW1  382   1.194   1.873   1.743  0.7676  3.9020 -1.7435
   96SOL    HW2  383   1.272   1.796   1.646  1.9035  0.0233  1.0113
   96SOL     MW  384   1.253   1.867   1.682  1.2020  0.3318 -0.1520
   97SOL     OW  385   1.200   1.456   0.845 -0.6041 -0.2604  0.5603
   97SOL    HW1  386   1.212   1.528   0.905 -0.6815 -0.9224  1.0003
   97SOL    HW2  387   1.105   1.478   0.817 -1.4117  0.6771  1.0078
   97SOL     MW  388   1.189   1.469   0.849 -0.7209 -0.2240  0.6774
   98SOL     OW  389   1.435   1.286   1.068  0.2311  0.1330  0.7772
   98SOL    HW1  390   1.502   1.334   1.110 -1.2788 -1.0431  1.3567
   98SOL    HW2  391   1.401   1.344   0.997 -1.5247  0.4479  1.0989
   98SOL     MW  392   1.440   1.300   1.064 -0.1998  0.0194  0.8961
   99SOL     OW  393   1.380   0.311   1.283  0.2432 -0.8673 -0.3565
   99SOL    HW1  394   1.472   0.352   1.273  0.5405 -1.8422  2.4424
   99SOL    HW2  395   1.346   0.337   1.369 -2.5383  0.5695 -0.9043
   99SOL     MW  396   1.388   0.320   1.293 -0.0846 -0.8064 -0.0595
  100SOL     OW  397   1.048   1.180   1.392  0.1213  0.1756  0.1116
  100SOL    HW1  398   1.035   1.213   1.485 -3.3906  1.2857 -0.1240
  100SOL    HW2  399   1.064   1.082   1.388  0.6482  0.8184 -1.6350
  100SOL     MW  400   1.048   1.172   1.404 -0.2726  0.4069 -0.1499
  101SOL     OW  401   0.508   1.165   0.336 -0.1920  0.4683 -0.7003
  101SOL    HW1  402   0.446   1.094   0.342  0.2984  1.4629 -0.2294
  101SOL    HW2  403   0.582   1.138   0.275  2.0998  0.7533 -2.6026
  101SOL     MW  404   0.510   1.152   0.329  0.1751  0.6371 -0.8891
  102SOL     OW  405   2.880   0.657   1.008  0.1775 -0.3105 -1.1986
  102SOL    HW1  406   2.936   0.727   0.991  1.9716 -0.5004  0.7946
  102SOL    HW2  407   2.846   0.665   1.100  1.2567 -1.6937  1.3885
  102SOL     MW  408   2.883   0.667   1.018  0.5566 -0.5181 -0.5943
  103SOL     OW  409   1.679   0.296   1.869 -0.1263  0.0851 -0.2190
  103SOL    HW1  410   1.642   0.223   1.823  1.6559  1.4298  2.2963
  103SOL    HW2  411   1.681   0.267   1.965 -1.5666 -0.5411  2.0698
  103SOL     MW  412   1.674   0.282   1.875 -0.0812  0.1799  0.4148
  104SOL     OW  413   0.144   1.523   1.604  0.2867 -0.5321  0.5601
  104SOL    HW1  414   0.187   1.445   1.613 -1.0576 -0.4059 -0.4971
  104SOL    HW2  415   0.047   1.506   1.619 -0.7445 -1.7522  0.7967
  104SOL     MW  416   0.137   1.510   1.607 -0.0267 -0.6764  0.4518
  105SOL     OW  417   0.060   1.234   0.403 -0.0159 -0.3299 -0.3899
  105SOL    HW1  418   0.069   1.145   0.397  0.2746 -0.3019 -0.7229
  105SOL    HW2  419   0.138   1.273   0.440 -1.2313  2.5051  0.5388
  105SOL     MW  420   0.072   1.227   0.407 -0.1379  0.0478 -0.3113
  106SOL     OW  421   0.831   0.347   0.988 -0.4081  0.0653  0.4718
  106SOL    HW1  422   0.759   0.395   0.945 -1.2410  0.0637  0.8709
  106SOL    HW2  423   0.905   0.328   0.925 -0.4554  0.7246  0.5693
  106SOL     MW  424   0.831   0.351   0.974 -0.5243  0.1521  0.5373
  107SOL     OW  425   0.792   2.191   2.926  0.5848 -0.2707 -0.5353
  107SOL    HW1  426   0.732   2.164   2.853 -0.7697  0.7080 -0.3699
  107SOL    HW2  427   0.758   2.150   3.010  1.9737  1.6574  0.6625
  107SOL     MW  428   0.780   2.182   2.928  0.5894  0.1128 -0.3554
  108SOL     OW  429   1.320   1.609   1.634 -0.1966  0.7458 -0.1121
  108SOL    HW1  430   1.228   1.591   1.590 -1.3452  0.5496  3.2256
  108SOL    HW2  431   1.390   1.599   1.562 -0.1830  0.2667 -1.7361
  108SOL     MW  432   1.317   1.605   1.618 -0.3463  0.6567  0.1140
  109SOL     OW  433   1.978   0.764   0.262 -0.1543  0.5856  0.2502
  109SOL    HW1  434   2.017   0.839   0.223  1.5668 -0.5103  0.8747
  109SOL    HW2  435   2.046   0.742   0.332  1.1484 -0.4138 -2.0708
  109SOL     MW  436   1.992   0.771   0.266  0.2447  0.3091  0.0264
  110SOL     OW  437   0.364   1.849   0.641  0.4895  0.2548 -0.0664
  110SOL    HW1  438   0.441   1.792   0.622 -3.5160  0.5576 -3.3739
  110SOL    HW2  439   0.373   1.920   0.576 -0.3621  1.6403 -0.4174
  110SOL     MW  440   0.375   1.851   0.630 -0.1514  0.4776 -0.5491
  111SOL     OW  441   0.817   0.897   1.497 -0.4295  0.1720 -0.5241
  111SOL    HW1  442   0.782   0.878   1.405 -3.5190 -1.5340  0.2816
  111SOL    HW2  443   0.829   0.808   1.527 -0.1946  2.0441 -1.9576
  111SOL     MW  444   0.814   0.883   1.489 -0.8061  0.1939 -0.6070
  112SOL     OW  445   1.297   1.118   1.633 -0.3486  0.1217  0.3502
  112SOL    HW1  446   1.213   1.167   1.642 -0.0455  0.0052 -0.9551
  112SOL    HW2  447   1.278   1.025   1.627 -2.1921  1.3269 -1.6240
  112SOL     MW  448   1.283   1.112   1.633 -0.5519  0.2654 -0.0825
  113SOL     OW  449   1.267   3.079   1.748 -0.1476 -0.2265  0.0499
  113SOL    HW1  450   1.262   3.019   1.822  2.4088 -2.8065  0.9592
  113SOL    HW2  451   1.266   3.019   1.673  0.1224 -0.3044 -2.1140
  113SOL     MW  452   1.266   3.063   1.748  0.2253 -0.5772 -0.1156
  114SOL     OW  453   0.287   2.849   1.934 -0.5713  0.0738  0.0937
  114SOL    HW1  454   0.284   2.922   1.988 -0.8862 -1.9706 -1.0870
  114SOL    HW2  455   0.291   2.890   1.846  2.6410  0.7845  1.2972
  114SOL     MW  456   0.287   2.864   1.929 -0.1890 -0.1021  0.0967
  115SOL     OW  457   0.520   0.848   1.126  0.0671 -0.1348 -0.1053
  115SOL    HW1  458   0.500   0.754   1.152 -0.1832 -0.6657  1.9428
  115SOL    HW2  459   0.473   0.902   1.196 -0.5212  1.1189 -0.0384
  115SOL     MW  460   0.511   0.843   1.138 -0.0436 -0.0394  0.1738
  116SOL     OW  461   0.800   1.078   0.973  0.0164 -0.4505 -0.6067
  116SOL    HW1  462   0.844   1.098   0.894 -2.5649 -0.6766  1.6056
  116SOL    HW2  463   0.828   1.143   1.039  2.9956  1.8862  1.2747
  116SOL     MW  464   0.810   1.089   0.971  0.0689 -0.1720 -0.0666
  117SOL     OW  465   1.189   1.203   0.725  0.0002 -0.2625  0.3296
  117SOL    HW1  466   1.208   1.144   0.804 -2.4996  0.7868 -1.0959
  117SOL    HW2  467   1.205   1.289   0.761  0.6371  1.2723 -1.6735
  117SOL     MW  468   1.194   1.206   0.740 -0.2456  0.0785 -0.1227
  118SOL     OW  469   3.032   2.968   1.671 -0.0302 -0.4351 -0.8455
  118SOL    HW1  470   3.096   3.003   1.732 -0.8636  0.3288  2.0158
  118SOL    HW2  471   2.942   3.001   1.703 -0.2454  0.1085  2.0415
  118SOL     MW  472   3.028   2.977   1.683 -0.1685 -0.2626 -0.0871
  119SOL     OW  473   0.471   1.467   1.225  0.0073  0.1973 -0.9929
  119SOL    HW1  474   0.502   1.531   1.159 -1.7419  2.2909 -0.4639
  119SOL    HW2  475   0.380   1.463   1.198  1.1116  1.2117 -0.3174
  119SOL     MW  476   0.464   1.475   1.213 -0.0778  0.6074 -0.8340
  120SOL     OW  477   0.299   0.754   0.959  0.5596  0.6991 -0.0552
  120SOL    HW1  478   0.280   0.689   1.027 -1.2210  1.4879  0.0783
  120SOL    HW2  479   0.381   0.796   0.983  0.4322 -1.6141 -0.7126
  120SOL     MW  480   0.307   0.751   0.971  0.3079  0.4979 -0.1243
  121SOL     OW  481   1.741   1.130   1.730  0.6782 -0.0743 -0.8200
  121SOL    HW1  482   1.651   1.096   1.760  0.7240  1.3906 -0.0752
  121SOL    HW2  483   1.774   1.075   1.662 -2.2600  1.8354 -2.2080
  121SOL     MW  484   1.734   1.118   1.725  0.2966  0.3709 -0.9048
  122SOL     OW  485   0.132   0.538   0.800 -0.1052 -0.4951  0.1228
  122SOL    HW1  486   0.188   0.508   0.727 -1.3873 -1.7804 -0.8014
  122SOL    HW2  487   0.191   0.603   0.844  2.7252  1.2052 -2.4352
  122SOL     MW  488   0.147   0.543   0.796  0.0991 -0.4403 -0.3366
  123SOL     OW  489   1.907   1.141   0.501  0.2243 -0.3024 -0.2588
  123SOL    HW1  490   1.865   1.057   0.527 -0.4258 -0.2750 -0.7738
  123SOL    HW2  491   1.941   1.169   0.586  1.9668 -1.5803  1.0499
  123SOL     MW  492   1.906   1.134   0.516  0.3685 -0.4674 -0.1541
  124SOL     OW  493   0.653   0.565   0.944 -0.7603  0.3021  0.1549
  124SOL    HW1  494   0.584   0.534   0.888  0.9509  0.8856 -1.8271
  124SOL    HW2  495   0.664   0.655   0.905  0.4110  0.4446  1.6710
  124SOL     MW  496   0.646   0.573   0.932 -0.3799  0.3979  0.0934
  125SOL     OW  497   0.650   1.783   1.721  0.0965 -0.4435 -0.5299
  125SOL    HW1  498   0.605   1.709   1.676  1.7486 -0.3189  0.6352
  125SOL    HW2  499   0.588   1.846   1.736  0.6501  1.7369 -0.5154
  125SOL     MW  500   0.636   1.781   1.717  0.3875 -0.1394 -0.3742
  126SOL     OW  501   2.091   1.588   1.961  0.5244  0.0832 -0.0932
  126SOL    HW1  502   2.121   1.670   1.999  0.1089  0.8890  0.2705
  126SOL    HW2  503   2.172   1.539   1.974  0.6484 -0.0727  1.0986
  126SOL     MW  504   2.105   1.592   1.967  0.4860  0.1690  0.1120
  127SOL     OW  505   0.617   0.792   1.813 -0.0848 -0.1712  0.3064
  127SOL    HW1  506   0.688   0.767   1.872  0.8079  1.5001  1.1981
  127SOL    HW2  507   0.590   0.876   1.845 -2.0304 -0.7014  2.4881
  127SOL     MW  508   0.623   0.799   1.825 -0.2237 -0.0206  0.7119
  128SOL     OW  509   1.757   0.727   2.922 -0.8265 -0.1217 -0.0179
  128SOL    HW1  510   1.778   0.677   2.839 -3.5658  0.2569 -0.0519
  128SOL    HW2  511   1.750   0.819   2.900 -0.0638  0.1052 -1.6721
  128SOL     MW  512   1.759   0.733   2.908 -1.0873 -0.0418 -0.2407
  129SOL     OW  513   1.580   0.946   0.192  0.4531  0.4620 -0.5788
  129SOL    HW1  514   1.523   0.878   0.156  1.2655 -2.3046 -0.2867
  129SOL    HW2  515   1.626   0.910   0.267  1.4609  0.4457 -0.0063
  129SOL     MW  516   1.579   0.933   0.197  0.6932  0.0948 -0.4647
  130SOL     OW  517   0.747   1.376   0.320  0.0502  0.7022  0.1002
  130SOL    HW1  518   0.773   1.372   0.418 -3.0910  3.2462  1.0603
  130SOL    HW2  519   0.811   1.435   0.277  2.6221  2.5077 -0.3109
  130SOL     MW  520   0.759   1.383   0.327 -0.0249  1.2761  0.1727
  131SOL     OW  521   3.036   0.829   0.026  0.3145  0.2851 -0.1880
  131SOL    HW1  522   3.036   0.874  -0.056  0.5744 -1.9500  2.4223
  131SOL    HW2  523   3.126   0.803   0.053  0.8550 -0.3889  2.0471
  131SOL     MW  524   3.048   0.832   0.019  0.4201 -0.0987  0.4513
  132SOL     OW  525   2.675   0.124   1.329 -0.4044  0.3055  0.5780
  132SOL    HW1  526   2.719   0.146   1.239  1.2298 -0.3279 -0.1969
  132SOL    HW2  527   2.590   0.088   1.298 -0.8869  0.3788 -0.5157
  132SOL     MW  528   2.669   0.122   1.313 -0.2524  0.2316  0.3314
  133SOL     OW  529   1.057   0.170   1.694 -0.1358 -0.0165 -0.0481
  133SOL    HW1  530   1.139   0.120   1.699 -0.7904 -0.7312  3.0773
  133SOL    HW2  531   1.045   0.199   1.786  1.3346 -1.4381 -0.4591
  133SOL     MW  532   1.066   0.167   1.706 -0.0282 -0.2984  0.3101
  134SOL     OW  533   1.416   2.527   1.404  0.1262  0.0472 -0.0270
  134SOL    HW1  534   1.327   2.554   1.390  2.5876  0.6138 -0.9528
  134SOL    HW2  535   1.430   2.546   1.497  0.1342  1.1961  0.3910
  134SOL     MW  536   1.406   2.533   1.414  0.4520  0.2736 -0.0940
  135SOL     OW  537   2.992   0.982   2.910 -0.3693  0.6510 -0.2147
  135SOL    HW1  538   3.079   1.029   2.927  3.2269 -0.0217  0.9050
  135SOL    HW2  539   2.925   1.051   2.905 -0.0393 -0.7120 -0.1946
  135SOL     MW  540   2.995   0.997   2.912  0.1487  0.3824 -0.0643
  136SOL     OW  541   0.174   2.014   0.799  0.2931 -0.1065 -0.1470
  136SOL    HW1  542   0.087   1.977   0.777 -1.6989 -1.0403  0.7293
  136SOL    HW2  543   0.232   1.976   0.730 -0.7051  1.1953 -0.8705
  136SOL     MW  544   0.170   2.004   0.787 -0.1014 -0.0579 -0.1269
  137SOL     OW  545   0.705   2.032   0.531 -0.4896 -0.5599 -0.2099
  137SOL    HW1  546   0.733   2.029   0.626 -1.4685  0.5105  2.6957
  137SOL    HW2  547   0.609   2.042   0.522 -1.6439  1.7039  1.4588
  137SOL     MW  548   0.696   2.033   0.542 -0.7710 -0.1200  0.3936
  138SOL     OW  549   0.510   0.585   1.171 -0.1517  0.4731 -0.3346
  138SOL    HW1  550   0.418   0.565   1.164  1.0288 -2.1639  0.0868
  138SOL    HW2  551   0.553   0.568   1.083 -2.9995 -0.4749 -1.5573
  138SOL     MW  552   0.503   0.580   1.159 -0.3717  0.0001 -0.4403
  139SOL     OW  553   2.810   0.622   1.266  0.0547 -0.5916 -0.5803
  139SOL    HW1  554   2.861   0.542   1.287  2.8530 -1.3786 -0.0083
  139SOL    HW2  555   2.836   0.679   1.343 -3.5391 -0.0032  0.1776
  139SOL     MW  556   2.820   0.619   1.279 -0.0502 -0.6178 -0.4049
  140SOL     OW  557   0.935   0.431   2.057  0.5926  0.0793 -0.3874
  140SOL    HW1  558   0.968   0.346   2.038 -3.0123  0.1762  0.7382
  140SOL    HW2  559   0.917   0.424   2.155 -0.4518  4.8635 -0.1321
  140SOL     MW  560   0.937   0.419   2.067 -0.0208  0.7233 -0.2052
  141SOL     OW  561   1.046   0.648   1.769 -0.4971 -1.0014 -0.1092
  141SOL    HW1  562   1.074   0.565   1.731  0.4507  0.0710 -1.3506
  141SOL    HW2  563   1.096   0.710   1.713  2.0636  0.2700  0.0321
  141SOL     MW  564   1.056   0.645   1.756 -0.0342 -0.6921 -0.2544
  142SOL     OW  565   0.918   1.166   0.747 -0.6628 -0.2459  0.2513
  142SOL    HW1  566   0.925   1.085   0.695 -1.1648  1.9437  1.1991
  142SOL    HW2  567   1.008   1.201   0.747 -1.3212 -0.8625  2.1680
  142SOL     MW  568   0.931   1.160   0.740 -0.8159 -0.0383  0.6292
  143SOL     OW  569   1.839   0.756   1.052 -0.4023 -0.1998  0.0618
  143SOL    HW1  570   1.904   0.720   0.993  0.1493  2.9442  0.7272
  143SOL    HW2  571   1.756   0.716   1.022 -0.4204 -1.3453  2.6056
  143SOL     MW  572   1.837   0.746   1.040 -0.3319  0.0639  0.4852
  144SOL     OW  573   0.289   1.269   1.640 -0.0358  0.8546 -0.2339
  144SOL    HW1  574   0.380   1.235   1.632 -0.2558 -0.6781  1.8362
  144SOL    HW2  575   0.275   1.263   1.737  1.5859  0.1361 -0.4999
  144SOL     MW  576   0.299   1.264   1.652  0.1491  0.5576  0.0042
  145SOL     OW  577   0.230   0.496   1.172  0.5662  0.5736  0.2205
  145SOL    HW1  578   0.286   0.446   1.234  0.2321 -1.0458 -2.8664
  145SOL    HW2  579   0.183   0.411   1.135 -0.7272 -3.4210  1.6985
  145SOL     MW  580   0.231   0.478   1.175  0.3515 -0.1671  0.0082
  146SOL     OW  581   0.852   1.981   1.399  0.3877  0.1819  0.4353
  146SOL    HW1  582   0.918   2.000   1.331  0.4882 -0.8203 -1.3173
  146SOL    HW2  583   0.765   1.980   1.351 -1.4276 -1.4473  1.7808
  146SOL     MW  584   0.850   1.983   1.384  0.1614 -0.1653  0.3816
  147SOL     OW  585   0.404   0.446   2.992 -0.7033 -0.2967  0.3460
  147SOL    HW1  586   0.323   0.443   3.041  0.2907  0.4723 -0.4380
  147SOL    HW2  587   0.415   0.539   2.977 -1.0747  1.4218 -0.5729
  147SOL     MW  588   0.395   0.458   2.997 -0.6211  0.0315  0.1214
  148SOL     OW  589   0.130   0.934   1.315 -0.0307  0.7324  0.0129
  148SOL    HW1  590   0.227   0.944   1.315 -3.4455  1.2400  3.4664
  148SOL    HW2  591   0.092   1.000   1.372  2.5584  0.7389 -0.2657
  148SOL     MW  592   0.138   0.944   1.322 -0.1396  0.8002  0.4318
  149SOL     OW  593   1.401   1.170   1.356  0.4862 -0.1748  0.1129
  149SOL    HW1  594   1.355   1.153   1.440 -0.6485 -1.7879 -1.5163
  149SOL    HW2  595   1.475   1.230   1.376 -0.6394  0.1353  0.6016
  149SOL     MW  596   1.405   1.175   1.370  0.1879 -0.3467 -0.0376
  150SOL     OW  597   1.774   1.351   0.767 -0.0555  0.1136  0.2491
  150SOL    HW1  598   1.824   1.279   0.811 -0.2816  1.3616 -1.6906
  150SOL    HW2  599   1.789   1.436   0.811 -3.2832 -1.6895  0.0725
  150SOL     MW  600   1.782   1.353   0.778 -0.5112  0.0404 -0.0301
  151SOL     OW  601   1.663   1.779   0.830  0.3904  0.4197  0.2457
  151SOL    HW1  602   1.631   1.829   0.761  0.3297  0.4642  1.3489
  151SOL    HW2  603   1.591   1.714   0.854  0.4034 -1.2453 -1.3372
  151SOL     MW  604   1.649   1.777   0.824  0.3841  0.2059  0.1824
  152SOL     OW  605   0.778   1.406   1.542  0.0841  0.0071  0.7426
  152SOL    HW1  606   0.786   1.318   1.576  3.0876  0.2394 -2.4310
  152SOL    HW2  607   0.807   1.464   1.609  1.8237  0.4837  2.1513
  152SOL     MW  608   0.783   1.402   1.555  0.7099  0.1006  0.5097
  153SOL     OW  609   2.617   1.218   0.805  0.0273  0.4558  0.4647
  153SOL    HW1  610   2.683   1.202   0.726  2.6602  0.9692 -0.3549
  153SOL    HW2  611   2.548   1.158   0.793 -0.1206  0.5108 -0.3647
  153SOL     MW  612   2.617   1.208   0.793  0.3551  0.5308  0.2471
  154SOL     OW  613   0.182   1.780   1.710 -0.2334 -0.7282  0.1120
  154SOL    HW1  614   0.145   1.696   1.672 -2.9157  0.4944  3.8090
  154SOL    HW2  615   0.270   1.752   1.741  1.0172  0.8128 -4.4755
  154SOL     MW  616   0.189   1.765   1.709 -0.4223 -0.3636 -0.0055
  155SOL     OW  617   1.191   0.658   0.237 -0.0345 -0.7294  0.2772
  155SOL    HW1  618   1.198   0.593   0.305 -2.0594  0.5133 -2.0234
  155SOL    HW2  619   1.176   0.735   0.293 -3.3579  1.2925  0.5600
  155SOL     MW  620   1.190   0.659   0.253 -0.7402 -0.2987  0.0110
  156SOL     OW  621   1.499   3.037   1.103  0.2078 -0.3340 -0.2942
  156SOL    HW1  622   1.592   3.063   1.105  1.9374 -3.7121  0.1103
  156SOL    HW2  623   1.501   2.945   1.123  0.5216 -2.0399 -0.6724
  156SOL     MW  624   1.512   3.028   1.106  0.4774 -1.0048 -0.2907
  157SOL     OW  625   1.469   1.169   0.103 -0.2836 -0.0573  0.1449
  157SOL    HW1  626   1.491   1.085   0.162 -0.0733 -3.2835 -0.0048
  157SOL    HW2  627   1.529   1.240   0.122 -0.0815  0.0836 -0.0398
  157SOL     MW  628   1.480   1.167   0.114 -0.2292 -0.4644  0.1008
  158SOL     OW  629   0.489   1.619   2.221 -0.6522 -0.6706  0.1199
  158SOL    HW1  630   0.473   1.686   2.154 -1.0189 -0.2027  1.5981
  158SOL    HW2  631   0.438   1.650   2.296 -1.0217 -1.8464 -3.7038
  158SOL     MW  632   0.480   1.632   2.222 -0.7493 -0.7640 -0.1895
  159SOL     OW  633   1.274   1.672   0.469 -0.2300  0.5017  0.3329
  159SOL    HW1  634   1.240   1.608   0.403  1.3531 -0.9140 -0.8371
  159SOL    HW2  635   1.197   1.700   0.522  1.6984 -0.3177 -0.3561
  159SOL     MW  636   1.259   1.668   0.468  0.2333  0.2068  0.0876
  160SOL     OW  637   0.523   1.105   1.623 -0.0876 -0.3082 -0.4329
  160SOL    HW1  638   0.495   1.012   1.620  0.4049 -0.7704 -0.0407
  160SOL    HW2  639   0.616   1.101   1.644 -1.8056  1.8635  0.2262
  160SOL     MW  640   0.531   1.092   1.626 -0.2493 -0.0827 -0.2942
  161SOL     OW  641   0.504   2.285   2.557  0.0038 -0.1890 -0.4743
  161SOL    HW1  642   0.407   2.271   2.555 -2.3907 -0.6909  0.4771
  161SOL    HW2  643   0.540   2.213   2.505  1.1704 -1.2158 -1.2782
  161SOL     MW  644   0.496   2.273   2.549 -0.1582 -0.3907 -0.4549
  162SOL     OW  645   1.074   1.781   1.907 -0.2978  0.1037  0.1555
  162SOL    HW1  646   1.074   1.856   1.969 -2.6793 -0.3517 -1.2786
  162SOL    HW2  647   0.983   1.753   1.922  1.0379  1.9372  5.1963
  162SOL     MW  648   1.062   1.787   1.917 -0.4358  0.2855  0.6314
  163SOL     OW  649   2.108   3.076   0.874  0.4028 -0.7435 -0.9283
  163SOL    HW1  650   2.079   3.151   0.811 -1.4130  1.5652  0.0935
  163SOL    HW2  651   2.107   2.993   0.824  0.3347  0.0648  0.8951
  163SOL     MW  652   2.104   3.075   0.859  0.1543 -0.3322 -0.5529
  164SOL     OW  653   0.328   0.207   0.794  0.0498  0.0938  0.2837
  164SOL    HW1  654   0.249   0.214   0.852 -0.3900  1.1816  0.5020
  164SOL    HW2  655   0.311   0.135   0.742  0.1212  1.2624  0.6975
  164SOL     MW  656   0.315   0.198   0.795  0.0012  0.3915  0.3671
  165SOL     OW  657   1.368   1.308   0.352 -0.1176  0.0408  0.2744
  165SOL    HW1  658   1.345   1.226   0.393  2.0959  1.1547 -3.9845
  165SOL    HW2  659   1.402   1.269   0.269  1.0031  0.9797 -0.2491
  165SOL     MW  660   1.370   1.292   0.346  0.3223  0.3117 -0.3566
  166SOL     OW  661   0.520   1.208   0.997  0.0067 -0.2950 -0.3222
  166SOL    HW1  662   0.458   1.204   1.073  0.2225  1.0240 -0.6967
  166SOL    HW2  663   0.598   1.158   1.033 -0.9422  0.4481  2.1248
  166SOL     MW  664   0.522   1.201   1.012 -0.0900 -0.0229 -0.0487
  167SOL     OW  665   0.797   1.095   0.280  0.3298 -0.9287 -0.0397
  167SOL    HW1  666   0.784   1.186   0.299  1.0774  1.0480 -0.8641
  167SOL    HW2  667   0.860   1.074   0.211  2.2702  2.0433  2.1946
  167SOL     MW  668   0.803   1.104   0.273  0.6844 -0.2758  0.1463
  168SOL     OW  669   1.682   1.663   3.036  0.5437 -0.0731 -0.3856
  168SOL    HW1  670   1.607   1.688   2.981 -0.3053 -2.0440  1.6322
  168SOL    HW2  671   1.701   1.572   3.008 -5.1777  0.9266 -2.0725
  168SOL     MW  672   1.674   1.654   3.025 -0.3232 -0.2012 -0.3419
  169SOL     OW  673   0.405   0.987   1.340 -0.3093  0.1395  0.0073
  169SOL    HW1  674   0.432   0.953   1.427  1.5535  0.6840 -0.5318
  169SOL    HW2  675   0.431   1.081   1.345 -3.3438  1.2014 -0.3441
  169SOL     MW  676   0.412   0.995   1.352 -0.4639  0.3514 -0.1102
  170SOL     OW  677   1.091   1.557   1.523  0.3284  0.6829 -0.0083
  170SOL    HW1  678   1.018   1.621   1.517 -0.0694 -2.7358 -2.3276
  170SOL    HW2  679   1.135   1.559   1.436  0.7239 -1.7510 -2.3847
  170SOL     MW  680   1.087   1.566   1.511  0.3281 -0.0893 -0.6278
  171SOL     OW  681   0.531   1.418   0.627  0.5967 -0.5427 -0.5228
  171SOL    HW1  682   0.524   1.429   0.722  1.6104  1.2895  1.1921
  171SOL    HW2  683   0.497   1.326   0.614 -1.4869 -1.5180  1.3790
  171SOL     MW  684   0.525   1.408   0.638  0.4555 -0.4296 -0.0456
  172SOL     OW  685   0.879   0.304   1.279  0.3007 -0.4296  0.4334
  172SOL    HW1  686   0.856   0.300   1.188 -3.0248 -3.0949 -0.1101
  172SOL    HW2  687   0.796   0.331   1.317  1.7368 -4.0111 -0.4181
  172SOL     MW  688   0.865   0.307   1.272  0.0514 -1.2538  0.2493
  173SOL     OW  689   0.450   1.702   0.336 -0.1565  0.6997 -0.6131
  173SOL    HW1  690   0.470   1.607   0.317  1.0080  0.9952  0.2358
  173SOL    HW2  691   0.503   1.725   0.408 -0.3330 -0.6433 -2.8519
  173SOL     MW  692   0.460   1.692   0.343 -0.0261  0.5615 -0.7965
  174SOL     OW  693   1.861   0.936   1.529 -0.0359 -0.3208 -0.6143
  174SOL    HW1  694   1.817   0.850   1.548  0.0416 -2.2408 -1.0095
  174SOL    HW2  695   1.843   0.945   1.437  0.7729 -0.9943 -2.3967
  174SOL     MW  696   1.853   0.926   1.519  0.0810 -0.6630 -0.9016
  175SOL     OW  697   0.499   1.461   0.225  0.0545  0.1232 -0.0239
  175SOL    HW1  698   0.437   1.388   0.220 -2.0245 -3.6018 -0.9546
  175SOL    HW2  699   0.573   1.437   0.273 -0.5677  2.4668  0.1047
  175SOL     MW  700   0.501   1.448   0.231 -0.3019 -0.0590 -0.1297
  176SOL     OW  701   0.211   1.488   1.167 -0.7590 -0.0605  0.2942
  176SOL    HW1  702   0.196   1.399   1.127 -1.0020 -0.8442 -2.1656
  176SOL    HW2  703   0.133   1.493   1.221  2.2204  2.4871 -1.4454
  176SOL     MW  704   0.199   1.477   1.169 -0.3980  0.1722 -0.2599
  177SOL     OW  705   0.669   0.439   1.343 -0.4482 -0.5730 -0.3560
  177SOL    HW1  706   0.608   0.490   1.285  1.8659 -0.5622  2.4965
  177SOL    HW2  707   0.637   0.471   1.423 -1.0204 -2.0960 -1.7221
  177SOL     MW  708   0.657   0.450   1.346 -0.2184 -0.7725 -0.1599
  178SOL     OW  709   3.057   0.577   2.940  0.1202  0.2134  0.1905
  178SOL    HW1  710   3.005   0.585   3.020 -0.6048 -0.6616 -1.6280
  178SOL    HW2  711   3.002   0.584   2.863 -0.0368 -0.5520 -1.9332
  178SOL     MW  712   3.043   0.579   2.941  0.0038 -0.0030 -0.3296
  179SOL     OW  713   1.593   1.368   1.299 -0.1890  0.5356 -0.0163
  179SOL    HW1  714   1.566   1.419   1.377 -0.7636 -0.2050 -2.1556
  179SOL    HW2  715   1.687   1.390   1.309 -0.5038  1.7275 -1.3814
  179SOL     MW  716   1.602   1.378   1.310 -0.3064  0.5951 -0.4787
  180SOL     OW  717   3.016   0.229   0.441 -0.4131  0.6694  0.6407
  180SOL    HW1  718   2.956   0.229   0.365  0.8978  1.0843 -1.5258
  180SOL    HW2  719   3.085   0.298   0.419  0.3260  1.5305  1.3301
  180SOL     MW  720   3.017   0.238   0.428 -0.1426  0.8378  0.4458
  181SOL     OW  721   1.127   1.333   3.094  0.0621  0.0781 -0.2806
  181SOL    HW1  722   1.183   1.408   3.111 -2.4648 -1.1045 -1.4325
  181SOL    HW2  723   1.188   1.279   3.043 -0.6516  0.7712 -0.9877
  181SOL     MW  724   1.143   1.336   3.090 -0.3654  0.0135 -0.5259
  182SOL     OW  725   0.470   0.852   1.569 -0.8945 -0.2725  0.0802
  182SOL    HW1  726   0.374   0.837   1.597  0.6698  1.8014 -2.3379
  182SOL    HW2  727   0.523   0.786   1.615  2.2463  2.4042 -1.9805
  182SOL     MW  728   0.464   0.842   1.579 -0.2737  0.3543 -0.5108
  183SOL     OW  729   1.596   1.589   1.144 -0.5145  0.6579  0.2099
  183SOL    HW1  730   1.519   1.641   1.162  2.4211  1.6614  0.4383
  183SOL    HW2  731   1.595   1.514   1.201  0.1998 -0.5923 -0.5549
  183SOL     MW  732   1.586   1.586   1.154 -0.0330  0.6253  0.1391
  184SOL     OW  733   0.837   0.674   1.961  0.2586  0.3783 -0.2655
  184SOL    HW1  734   0.903   0.678   1.893 -1.4216 -0.2290  1.5133
  184SOL    HW2  735   0.858   0.586   2.001 -1.6879  0.3699 -1.0245
  184SOL     MW  736   0.848   0.663   1.957 -0.2199  0.2971 -0.1309
  185SOL     OW  737   1.172   0.966   1.910 -0.3490  0.1115  0.0842
  185SOL    HW1  738   1.156   0.884   1.969 -0.7091  0.8932  0.4540
  185SOL    HW2  739   1.211   1.028   1.967 -2.6486  0.9782 -1.6423
  185SOL     MW  740   1.175   0.963   1.926 -0.6999  0.3290 -0.0948
  186SOL     OW  741   0.367   1.675   1.417  0.2110 -0.6021 -0.3134
  186SOL    HW1  742   0.421   1.631   1.349 -1.6306 -1.9682  2.3894
  186SOL    HW2  743   0.288   1.631   1.402  2.7219 -0.7605 -0.0230
  186SOL     MW  744   0.364   1.663   1.406  0.2993 -0.8033  0.0815
  187SOL     OW  745   1.457   0.709   1.335  1.1648  0.1784 -0.1510
  187SOL    HW1  746   1.435   0.722   1.429 -1.9687  1.3070 -1.8260
  187SOL    HW2  747   1.366   0.712   1.298  2.8658  0.9887  0.3694
  187SOL     MW  748   1.442   0.711   1.343  0.9758  0.4342 -0.3034
  188SOL     OW  749   1.884   1.168   0.901 -0.0055  0.0642 -0.1038
  188SOL    HW1  750   1.879   1.175   0.996 -0.3296  3.2593 -0.7493
  188SOL    HW2  751   1.901   1.074   0.889 -0.4779  0.3294 -1.7132
  188SOL     MW  752   1.885   1.156   0.912 -0.1106  0.5208 -0.4013
  189SOL     OW  753   0.653   0.843   0.851  0.1686  0.1410  0.0567
  189SOL    HW1  754   0.564   0.880   0.863  2.4994 -3.4580  1.7786
  189SOL    HW2  755   0.703   0.899   0.915 -1.6012 -0.5020  1.0546
  189SOL     MW  756   0.648   0.855   0.861  0.2427 -0.4187  0.4156
  190SOL     OW  757   1.922   0.238   2.179 -0.2228 -0.1168  0.2080
  190SOL    HW1  758   1.909   0.242   2.273  1.0558  1.4827 -0.0891
  190SOL    HW2  759   1.986   0.314   2.156  1.3186 -1.0092 -3.8598
  190SOL     MW  760   1.929   0.248   2.189  0.1493 -0.0235 -0.3679
  191SOL     OW  761   1.486   0.956   1.209  0.2392 -0.3419 -0.7939
  191SOL    HW1  762   1.449   1.032   1.255  2.0477 -2.3768  0.2116
  191SOL    HW2  763   1.477   0.880   1.270  2.6234  0.1179 -0.0113
  191SOL     MW  764   1.480   0.956   1.223  0.7924 -0.5497 -0.5580
  192SOL     OW  765   0.611   2.095   2.769 -0.2421 -0.6857  0.0142
  192SOL    HW1  766   0.574   2.138   2.688  0.4253 -0.2303  1.0934
  192SOL    HW2  767   0.600   2.001   2.756  0.5037 -2.2160 -4.0872
  192SOL     MW  768   0.605   2.089   2.757 -0.0556 -0.8275 -0.3846
  193SOL     OW  769   0.965   1.522   0.720 -0.5254  0.2707  0.0561
  193SOL    HW1  770   0.904   1.524   0.791 -0.6504 -2.4185 -2.3515
  193SOL    HW2  771   0.920   1.468   0.643 -3.9769  1.1953 -0.6167
  193SOL     MW  772   0.951   1.515   0.719 -0.9973  0.0379 -0.3503
  194SOL     OW  773   0.532   1.488   0.936 -0.0637  0.4317  0.4690
  194SOL    HW1  774   0.538   1.393   0.952  0.5558 -0.8642  0.5335
  194SOL    HW2  775   0.439   1.512   0.936 -0.3711 -1.1456  0.0385
  194SOL     MW  776   0.521   1.478   0.938 -0.0225  0.0526  0.4207
  195SOL     OW  777   1.297   1.168   2.980 -0.4852  0.1135 -0.3107
  195SOL    HW1  778   1.364   1.170   3.046 -0.0383  0.6118 -2.6013
  195SOL    HW2  779   1.241   1.087   2.979  0.2915 -1.2750 -4.6284
  195SOL     MW  780   1.298   1.157   2.988 -0.3237 -0.0040 -1.1826
  196SOL     OW  781   2.182   1.002   0.601 -0.0683 -0.3702 -0.7509
  196SOL    HW1  782   2.146   0.986   0.518  1.3917 -1.8503  2.6529
  196SOL    HW2  783   2.195   1.100   0.595  0.6587  2.5437 -0.8597
  196SOL     MW  784   2.179   1.013   0.589  0.2203 -0.1810 -0.3162
  197SOL     OW  785   0.658   1.312   2.108  0.5333  0.1216 -0.4034
  197SOL    HW1  786   0.683   1.218   2.086  0.3823  2.9743 -2.9224
  197SOL    HW2  787   0.615   1.341   2.023 -0.8177 -1.4315  0.8156
  197SOL     MW  788   0.656   1.303   2.094  0.3352  0.2930 -0.5749
  198SOL     OW  789   2.935   1.379   1.058  0.1129 -0.2016 -0.4364
  198SOL    HW1  790   2.905   1.462   1.021 -0.5296  0.4357  2.2589
  198SOL    HW2  791   2.864   1.318   1.064 -0.0196 -1.1361 -0.8412
  198SOL     MW  792   2.922   1.382   1.054  0.0106 -0.2408 -0.1342
  199SOL     OW  793   0.498   1.408   1.887  0.2525  0.1616  0.2675
  199SOL    HW1  794   0.426   1.351   1.915  0.5384 -4.0592  0.2227
  199SOL    HW2  795   0.478   1.438   1.795  2.6257 -3.0824 -3.6903
  199SOL     MW  796   0.486   1.404   1.878  0.6034 -0.8233 -0.2606
  200SOL     OW  797   1.906   2.927   1.362 -0.0650 -0.4717  0.8083
  200SOL    HW1  798   1.908   2.939   1.267  2.2255 -0.7561 -2.1491
  200SOL    HW2  799   1.814   2.950   1.394 -0.6181 -0.2670  2.0435
  200SOL     MW  800   1.894   2.931   1.354  0.1642 -0.4822  0.5811
  201SOL     OW  801   1.032   0.285   0.808 -0.6701  0.9248 -0.0129
  201SOL    HW1  802   1.008   0.210   0.758  1.9186  1.7294  0.3424
  201SOL    HW2  803   1.111   0.324   0.768  3.3783 -1.0817 -2.3619
  201SOL     MW  804   1.039   0.280   0.796  0.2056  0.7662 -0.2759
  202SOL     OW  805   1.524   1.552   0.899  0.1661  0.4540  0.5416
  202SOL    HW1  806   1.519   1.457   0.878  0.2457 -0.7944 -0.3795
  202SOL    HW2  807   1.570   1.554   0.986  0.7529 -1.0173 -0.4418
  202SOL     MW  808   1.530   1.540   0.908  0.2540  0.0952  0.2903
  203SOL     OW  809   2.999   0.435   1.362 -0.4869  0.7577  1.0876
  203SOL    HW1  810   3.075   0.365   1.362 -2.1947 -1.4255 -0.8363
  203SOL    HW2  811   3.043   0.519   1.363 -0.2205  0.0651 -1.1965
  203SOL     MW  812   3.015   0.437   1.362 -0.6771  0.3783  0.5324
  204SOL     OW  813   1.026   1.766   0.562 -0.2795  0.3513  0.1242
  204SOL    HW1  814   1.009   1.702   0.629 -2.3655 -0.5975  0.5858
  204SOL    HW2  815   0.957   1.742   0.502 -0.4791 -0.2057  2.2320
  204SOL     MW  816   1.015   1.754   0.563 -0.5810  0.1526  0.4632
  205SOL     OW  817   1.387   0.029   1.327 -0.2982 -0.0281 -0.0415
  205SOL    HW1  818   1.422   0.008   1.242  1.1539  1.1977  1.2585
  205SOL    HW2  819   1.345   0.113   1.310  3.6991  0.9752 -2.8437
  205SOL     MW  820   1.386   0.037   1.314  0.4208  0.2660 -0.2397
  206SOL     OW  821   0.464   3.023   1.415  0.6354  0.6667 -0.3651
  206SOL    HW1  822   0.419   3.048   1.328  0.0162 -3.5164 -0.2231
  206SOL    HW2  823   0.527   2.955   1.386 -0.1775 -0.8008 -1.6350
  206SOL     MW  824   0.467   3.017   1.400  0.4464 -0.0788 -0.5139
  207SOL     OW  825   0.906   1.559   0.214  0.0472  0.0489 -0.1071
  207SOL    HW1  826   0.924   1.610   0.136  1.8055  2.0247  0.7260
  207SOL    HW2  827   0.996   1.522   0.236 -0.4941  1.1475 -3.0254
  207SOL     MW  828   0.920   1.561   0.207  0.2078  0.4545 -0.3822
  208SOL     OW  829   0.744   1.611   1.340  0.1914  0.4411 -0.3100
  208SOL    HW1  830   0.774   1.664   1.412 -1.2515  0.5790 -0.4094
  208SOL    HW2  831   0.818   1.549   1.344  0.7491  1.2748 -1.6861
  208SOL     MW  832   0.757   1.610   1.350  0.0746  0.5693 -0.5047
  209SOL     OW  833   1.560   0.457   2.940 -0.1508  0.1410 -0.5419
  209SOL    HW1  834   1.611   0.529   2.969  0.7382 -0.0844  0.0088
  209SOL    HW2  835   1.635   0.392   2.916  2.3201 -1.3603  0.5533
  209SOL     MW  836   1.577   0.458   2.941  0.2925 -0.0868 -0.3247
  210SOL     OW  837   1.510   1.273   0.772 -0.2695  0.3063 -0.4676
  210SOL    HW1  838   1.604   1.288   0.766  0.6644 -0.6303  1.0319
  210SOL    HW2  839   1.477   1.320   0.694 -3.1729  0.1031  1.5898
  210SOL     MW  840   1.518   1.281   0.761 -0.5294  0.1560  0.0017
  211SOL     OW  841   1.726   0.237   0.961 -0.1624 -0.2691  0.1289
  211SOL    HW1  842   1.705   0.295   0.890  2.1363 -0.5255 -0.3260
  211SOL    HW2  843   1.810   0.274   0.991  1.2276 -1.8131  1.0298
  211SOL     MW  844   1.734   0.250   0.955  0.3243 -0.5066  0.1878
  212SOL     OW  845   0.289   1.036   0.155  0.0272  0.1890  0.1125
  212SOL    HW1  846   0.232   0.983   0.211 -1.9657  1.8492  1.7795
  212SOL    HW2  847   0.314   0.984   0.081 -0.5725  0.6386 -1.0079
  212SOL     MW  848   0.285   1.022   0.153 -0.3149  0.4674  0.1846
  213SOL     OW  849   0.537   1.716   3.027 -0.3722  0.3466 -0.3144
  213SOL    HW1  850   0.515   1.794   3.086 -1.7950  0.5338  0.5633
  213SOL    HW2  851   0.569   1.756   2.943 -2.0139 -0.8384  0.0592
  213SOL     MW  852   0.538   1.732   3.023 -0.7765  0.2149 -0.1493
  214SOL     OW  853   0.656   0.358   2.148  0.0887  0.3759 -0.2516
  214SOL    HW1  854   0.569   0.409   2.172  0.9875  1.2114  1.0263
  214SOL    HW2  855   0.683   0.377   2.061  1.4968  1.2715  2.1788
  214SOL     MW  856   0.648   0.367   2.140  0.3931  0.6043  0.2377
  215SOL     OW  857   0.489   0.734   2.657 -0.1333 -0.2588  0.7083
  215SOL    HW1  858   0.498   0.706   2.563  0.5200  0.2413 -4.8902
  215SOL    HW2  859   0.408   0.682   2.684 -0.7546 -2.5507 -3.3044
  215SOL     MW  860   0.479   0.723   2.648 -0.1291 -0.4952 -0.5598
  216SOL     OW  861   2.935   3.022   2.691  0.6675 -0.1418  0.2265
  216SOL    HW1  862   2.915   3.016   2.781  0.0242  0.0560  1.2732
  216SOL    HW2  863   2.925   3.115   2.673  0.1582  0.5837  0.9945
  216SOL     MW  864   2.931   3.034   2.700  0.5154 -0.0199  0.4659
  217SOL     OW  865   1.040   1.093   0.134  0.3639  0.5382 -0.0347
  217SOL    HW1  866   1.069   1.030   0.069 -0.0621  0.8731 -2.2231
  217SOL    HW2  867   1.062   1.183   0.111 -3.0486  0.2962  0.4115
  217SOL     MW  868   1.047   1.096   0.123 -0.1426  0.5505 -0.2645
  218SOL     OW  869   0.922   1.323   2.562  0.1638  0.9501  0.4633
  218SOL    HW1  870   0.947   1.254   2.626 -3.2993 -0.9616  1.1027
  218SOL    HW2  871   0.979   1.398   2.583  0.3866 -0.1054  0.6835
  218SOL     MW  872   0.933   1.324   2.573 -0.2637  0.5586  0.5767
  219SOL     OW  873   1.125   0.364   2.640 -0.5756 -0.2364 -0.5725
  219SOL    HW1  874   1.204   0.412   2.652  0.9798 -1.1861  0.6940
  219SOL    HW2  875   1.076   0.428   2.591  0.5770 -0.9604  1.3876
  219SOL     MW  876   1.129   0.379   2.635 -0.2183 -0.4572 -0.1468
  220SOL     OW  877   1.757   0.450   2.206 -0.3316  0.1989  0.3241
  220SOL    HW1  878   1.689   0.476   2.137  1.2540  1.2698 -3.6710
  220SOL    HW2  879   1.791   0.365   2.190 -0.7240  0.9549  1.9153
  220SOL     MW  880   1.752   0.442   2.195 -0.1742  0.4399  0.0070
  221SOL     OW  881   0.360   1.305   2.948 -0.4981 -0.2139 -0.1318
  221SOL    HW1  882   0.410   1.232   2.911  0.6526  0.9772  0.1680
  221SOL    HW2  883   0.408   1.385   2.924  1.8597 -0.6313 -1.8190
  221SOL     MW  884   0.373   1.306   2.940 -0.0352 -0.1118 -0.3148
  222SOL     OW  885   0.401   0.974   2.682  0.6970  0.0044 -0.3241
  222SOL    HW1  886   0.353   1.007   2.607  3.7101  1.6895  0.6762
  222SOL    HW2  887   0.438   0.889   2.652 -2.7009 -2.5909  1.4701
  222SOL     MW  888   0.399   0.967   2.668  0.6462 -0.1157  0.0446
  223SOL     OW  889   0.070   2.033   2.514  0.4064  0.0977 -0.3350
  223SOL    HW1  890   0.104   2.001   2.597  1.5909  2.0604  0.6255
  223SOL    HW2  891   0.125   2.109   2.490 -1.3396  0.1644  1.0501
  223SOL     MW  892   0.082   2.039   2.522  0.3323  0.3655 -0.0255
  224SOL     OW  893   1.564   0.754   2.598  0.4854  0.0969 -0.0549
  224SOL    HW1  894   1.549   0.806   2.676  2.8567  1.8536 -1.6861
  224SOL    HW2  895   1.542   0.821   2.535 -1.3021  2.1354  0.2388
  224SOL     MW  896   1.559   0.770   2.600  0.5625  0.5976 -0.2314
  225SOL     OW  897   2.908   1.449   2.296  0.6431  0.2001 -0.6030
  225SOL    HW1  898   2.948   1.527   2.255  2.7352  2.5903 -1.8484
  225SOL    HW2  899   2.853   1.487   2.365  1.0775 -2.2159 -2.2208
  225SOL     MW  900   2.906   1.464   2.299  0.9764  0.1967 -0.9808
  226SOL     OW  901   0.445   1.502   2.725 -0.8297 -0.1193  0.2301
  226SOL    HW1  902   0.532   1.471   2.694  1.7474 -0.4457  1.5805
  226SOL    HW2  903   0.414   1.569   2.672  0.5449 -1.6348  1.5356
  226SOL     MW  904   0.452   1.507   2.714 -0.3083 -0.3623  0.5805
  227SOL     OW  905   0.540   1.118   2.855  0.0366 -0.0593  0.9207
  227SOL    HW1  906   0.627   1.093   2.829  0.6295  4.0457 -0.6465
  227SOL    HW2  907   0.495   1.061   2.792  1.7134  3.0268 -0.3251
  227SOL     MW  908   0.545   1.107   2.843  0.3361  0.8895  0.5496
  228SOL     OW  909   0.723   1.056   2.034 -0.4323  1.2697  0.0743
  228SOL    HW1  910   0.800   1.065   1.974 -0.1842  1.1305 -0.6983
  228SOL    HW2  911   0.749   1.006   2.110 -0.9792  3.3523  0.4255
  228SOL     MW  912   0.737   1.050   2.036 -0.4717  1.5261  0.0187
  229SOL     OW  913   0.182   0.641   0.012 -0.4287  0.2819  0.3889
  229SOL    HW1  914   0.115   0.629  -0.056  1.5407  0.4102  1.1446
  229SOL    HW2  915   0.168   0.572   0.075 -1.8004  1.5480 -0.7887
  229SOL     MW  916   0.172   0.630   0.011 -0.3499  0.4659  0.3333
  230SOL     OW  917   1.683   1.307   2.005 -0.0716  0.2107  0.0225
  230SOL    HW1  918   1.628   1.295   2.086 -0.8512  0.9313  1.1653
  230SOL    HW2  919   1.719   1.219   1.988  2.8254  0.2153  0.2510
  230SOL     MW  920   1.680   1.294   2.013  0.2078  0.3064  0.2034
  231SOL     OW  921   2.725   1.247   2.203  0.2759  0.3628  0.6181
  231SOL    HW1  922   2.796   1.308   2.228  4.9528  2.7260 -0.2860
  231SOL    HW2  923   2.676   1.302   2.140 -1.3302 -0.2018  1.5961
  231SOL     MW  924   2.728   1.262   2.198  0.6811  0.6001  0.6279
  232SOL     OW  925   2.234   0.877   2.001  0.7142 -0.0205  0.0968
  232SOL    HW1  926   2.151   0.856   1.954  0.2781  0.1621 -1.0448
  232SOL    HW2  927   2.207   0.917   2.086 -0.6319 -1.4753 -1.3549
  232SOL     MW  928   2.219   0.879   2.006  0.4791 -0.1884 -0.2454
  233SOL     OW  929   2.079   0.444   2.077  0.7760 -0.2598  0.0682
  233SOL    HW1  930   2.149   0.384   2.054  0.3751  0.7745  3.9975
  233SOL    HW2  931   2.120   0.497   2.150  0.6753 -2.7885  1.4009
  233SOL     MW  932   2.094   0.443   2.084  0.7098 -0.4570  0.7625
  234SOL     OW  933   0.217   1.063   2.479 -0.2582 -0.1797  0.1381
  234SOL    HW1  934   0.125   1.082   2.464 -0.3979  1.9119  1.1003
  234SOL    HW2  935   0.247   1.142   2.527 -2.9262  0.6516  0.9099
  234SOL     MW  936   0.209   1.076   2.484 -0.6286  0.2060  0.3669
  235SOL     OW  937   1.130   3.066   2.769  0.1436  0.1513  0.3094
  235SOL    HW1  938   1.159   3.010   2.846 -1.9787 -1.1316 -0.9144
  235SOL    HW2  939   1.074   3.133   2.808  0.4055 -1.2390  0.2582
  235SOL     MW  940   1.127   3.067   2.784 -0.1019 -0.2014  0.1412
  236SOL     OW  941   2.906   0.623   0.135 -0.4135  0.3268 -0.0847
  236SOL    HW1  942   2.811   0.636   0.115 -0.5180  0.9400  1.2213
  236SOL    HW2  943   2.957   0.698   0.098  2.4093  0.3429 -1.9363
  236SOL     MW  944   2.900   0.635   0.128 -0.0548  0.4098 -0.1567
  237SOL     OW  945   2.019   1.130   2.197 -0.2882  0.2984  0.7767
  237SOL    HW1  946   1.968   1.122   2.117  2.2729  2.6091 -1.6949
  237SOL    HW2  947   2.073   1.043   2.200  2.3419  0.1180 -1.8436
  237SOL     MW  948   2.020   1.117   2.187  0.3968  0.5795  0.1049
  238SOL     OW  949   1.081   1.815   2.945  0.0690 -0.4120  0.0904
  238SOL    HW1  950   1.048   1.729   2.912  0.6570 -0.6975  2.0697
  238SOL    HW2  951   1.174   1.795   2.960 -1.0447  1.7288  1.8444
  238SOL     MW  952   1.089   1.801   2.942 -0.0003 -0.1672  0.5830
  239SOL     OW  953   1.305   1.419   2.375 -0.0067  0.5467  0.4554
  239SOL    HW1  954   1.214   1.436   2.388 -1.9022 -1.5565 -0.9314
  239SOL    HW2  955   1.314   1.325   2.412 -2.8285 -0.5947  1.4960
  239SOL     MW  956   1.294   1.409   2.382 -0.6291  0.1186  0.4097
  240SOL     OW  957   0.651   0.887   2.325 -0.5131  0.2918 -0.0195
  240SOL    HW1  958   0.705   0.946   2.385  1.1207  3.0681  0.4080
  240SOL    HW2  959   0.715   0.839   2.272 -3.6413  0.1754 -0.8417
  240SOL     MW  960   0.667   0.888   2.326 -0.7103  0.6428 -0.0716
  241SOL     OW  961   0.675   0.389   0.004 -0.1650 -0.0564  0.2646
  241SOL    HW1  962   0.704   0.459   0.064  2.4335 -0.5994  0.0171
  241SOL    HW2  963   0.582   0.396   0.002  0.1494 -0.6488 -1.8591
  241SOL     MW  964   0.666   0.399   0.012  0.2194 -0.2062 -0.0483
  242SOL     OW  965   1.497   1.726   2.327 -0.2116  0.0993 -0.0123
  242SOL    HW1  966   1.461   1.815   2.338  2.0333  1.4060 -0.1443
  242SOL    HW2  967   1.439   1.694   2.253 -1.0913  0.4968 -0.0023
  242SOL     MW  968   1.484   1.734   2.319 -0.0315  0.3242 -0.0284
  243SOL     OW  969   1.031   0.171   2.470 -0.5231  0.0009 -0.1869
  243SOL    HW1  970   1.101   0.169   2.406  0.1673  0.5998  2.8020
  243SOL    HW2  971   1.075   0.234   2.531  1.5060 -1.9681  0.2763
  243SOL     MW  972   1.046   0.179   2.470 -0.1643 -0.1798  0.2686
  244SOL     OW  973   0.229   0.802   2.373 -0.5823  0.4200 -0.5728
  244SOL    HW1  974   0.245   0.888   2.409  0.6570 -0.9601 -0.8987
  244SOL    HW2  975   0.313   0.756   2.363 -0.6823  0.2336  0.9343
  244SOL     MW  976   0.242   0.807   2.376 -0.4320  0.2133 -0.4170
  245SOL     OW  977   1.230   0.186   2.292 -0.7274 -0.4781 -0.4649
  245SOL    HW1  978   1.239   0.098   2.328 -0.3982  1.1136 -1.8091
  245SOL    HW2  979   1.274   0.251   2.354  0.3624  0.6054  1.1842
  245SOL     MW  980   1.237   0.183   2.305 -0.5402 -0.1252 -0.4247
  246SOL     OW  981   1.243   1.158   2.088 -0.4151  0.1877 -0.3555
  246SOL    HW1  982   1.177   1.112   2.147 -0.2196 -1.8234 -0.0067
  246SOL    HW2  983   1.318   1.166   2.154  0.7048  0.7683  2.3627
  246SOL     MW  984   1.244   1.153   2.105 -0.2415 -0.0011  0.0492
  247SOL     OW  985   0.760   0.577   0.206  0.3966 -0.1067 -0.0971
  247SOL    HW1  986   0.736   0.666   0.225  0.2978 -1.2723 -0.3470
  247SOL    HW2  987   0.848   0.585   0.151 -1.0530  0.7068 -2.1973
  247SOL     MW  988   0.769   0.590   0.201  0.1923 -0.1531 -0.4071
  248SOL     OW  989   0.310   1.299   2.590  0.1210 -0.1760  0.8382
  248SOL    HW1  990   0.325   1.346   2.509 -0.2273 -0.4738  1.4388
  248SOL    HW2  991   0.362   1.352   2.650 -0.1182  0.2243 -2.9654
  248SOL     MW  992   0.319   1.312   2.587  0.0435 -0.1625  0.4156
  249SOL     OW  993   0.172   1.881   2.723  0.0634 -0.2313  0.4781
  249SOL    HW1  994   0.143   1.792   2.689 -2.0034 -1.1105 -0.3719
  249SOL    HW2  995   0.205   1.856   2.809 -0.4995  1.5074 -0.5658
  249SOL     MW  996   0.173   1.866   2.730 -0.2835 -0.1179  0.2282
  250SOL     OW  997   2.181   0.930   2.293 -0.1651 -0.3801  0.2413
  250SOL    HW1  998   2.221   0.847   2.308 -1.6817  1.6948 -0.5118
  250SOL    HW2  999   2.246   0.997   2.319 -3.2194  1.6367  0.1855
  250SOL     MW 1000   2.195   0.928   2.298 -0.7682  0.1598  0.1346
  251SOL     OW 1001   0.174   0.930   1.952  0.0283 -0.0031 -0.3686
  251SOL    HW1 1002   0.191   0.854   1.998  0.6282  0.4567 -0.4492
  251SOL    HW2 1003   0.154   0.903   1.856  1.1881 -1.4892 -0.5555
  251SOL     MW 1004   0.174   0.916   1.945  0.2605 -0.1385 -0.4039
  252SOL     OW 1005   1.738   1.023   2.889 -0.1704 -0.1528  0.0512
  252SOL    HW1 1006   1.743   1.058   2.983 -0.7385 -0.6185  2.0072
  252SOL    HW2 1007   1.814   1.053   2.836  1.2868 -0.1500  0.0787
  252SOL     MW 1008   1.748   1.032   2.895 -0.0531 -0.2139  0.3129
  253SOL     OW 1009   1.171   1.789   2.552 -0.4423 -0.0599 -0.2581
  253SOL    HW1 1010   1.171   1.768   2.452 -0.4379  0.8796  0.9656
  253SOL    HW2 1011   1.084   1.829   2.559 -0.8062 -0.9266 -1.7935
  253SOL     MW 1012   1.160   1.791   2.540 -0.4897 -0.0503 -0.2992
  254SOL     OW 1013   1.058   1.044   2.240 -0.3017  0.1689 -0.0285
  254SOL    HW1 1014   1.043   0.955   2.266  0.4652  1.4182  2.6583
  254SOL    HW2 1015   0.976   1.101   2.259 -1.9944  1.4731 -0.7728
  254SOL     MW 1016   1.046   1.040   2.246 -0.4238  0.5058  0.2278
  255SOL     OW 1017   0.811   2.556   2.127  0.0245 -0.1236  0.0772
  255SOL    HW1 1018   0.728   2.517   2.152  0.7667  0.5999  1.0043
  255SOL    HW2 1019   0.865   2.476   2.115 -1.4981  0.6104 -2.7820
  255SOL     MW 1020   0.808   2.540   2.129 -0.0785  0.0687 -0.1778
  256SOL     OW 1021   1.345   2.710   2.940 -0.6294  0.6984 -0.0592
  256SOL    HW1 1022   1.334   2.628   2.890  0.6180 -2.1906 -0.3138
  256SOL    HW2 1023   1.415   2.754   2.894  0.0604 -2.0289 -2.2531
  256SOL     MW 1024   1.353   2.705   2.927 -0.3738 -0.0426 -0.3823
  257SOL     OW 1025   0.192   1.920   0.034  0.1003  0.4430 -0.1104
  257SOL    HW1 1026   0.183   1.884   0.119 -1.8053 -0.9970 -0.4916
  257SOL    HW2 1027   0.208   1.847  -0.028 -1.8388  0.6241 -1.1418
  257SOL     MW 1028   0.193   1.905   0.037 -0.4070  0.2769 -0.2968
  258SOL     OW 1029   0.818   1.053   2.490 -0.2476  0.1257  0.5262
  258SOL    HW1 1030   0.847   1.118   2.430  0.6583 -5.0022  1.7475
  258SOL    HW2 1031   0.755   1.095   2.553  0.0647  1.1655  1.2504
  258SOL     MW 1032   0.813   1.067   2.490 -0.0869 -0.4137  0.7829
  259SOL     OW 1033   0.871   0.376   2.328  0.5740  0.1033  0.0460
  259SOL    HW1 1034   0.802   0.342   2.268  2.2864 -3.8426 -0.5775
  259SOL    HW2 1035   0.931   0.304   2.345 -0.7827  0.2007 -0.8189
  259SOL     MW 1036   0.870   0.362   2.322  0.6209 -0.4045 -0.1504
  260SOL     OW 1037   0.537   0.104   1.599  0.4192 -0.2212  0.8553
  260SOL    HW1 1038   0.521   0.036   1.526  0.6072 -0.7615 -0.7985
  260SOL    HW2 1039   0.636   0.115   1.615 -0.3648 -0.9255  0.3566
  260SOL     MW 1040   0.548   0.096   1.592  0.3406 -0.3854  0.5713
  261SOL     OW 1041   1.165   0.724   2.042  0.5134  0.1819 -0.1501
  261SOL    HW1 1042   1.159   0.700   2.132 -0.3783 -1.0226  0.8772
  261SOL    HW2 1043   1.163   0.638   1.995 -2.4415  0.7413  2.2070
  261SOL     MW 1044   1.164   0.710   2.047  0.0059  0.0968  0.2964
  262SOL     OW 1045   1.039   0.295   0.166  0.3130 -0.0465 -0.1194
  262SOL    HW1 1046   1.135   0.310   0.157  2.3321 -2.1508  1.1023
  262SOL    HW2 1047   1.019   0.212   0.119 -0.2835  1.9111 -0.1232
  262SOL     MW 1048   1.049   0.286   0.158  0.5007 -0.0659  0.0413
  263SOL     OW 1049   0.413   0.029   2.447  0.5688  0.3042  0.3963
  263SOL    HW1 1050   0.325   0.073   2.445  0.1476  0.5983 -0.4174
  263SOL    HW2 1051   0.477   0.075   2.392  0.8523  0.4541  0.0009
  263SOL     MW 1052   0.410   0.041   2.440  0.5507  0.3628  0.2367
  264SOL     OW 1053   1.480   1.351   1.822  0.6353 -0.1110 -0.6124
  264SOL    HW1 1054   1.432   1.268   1.827  1.1890  0.3575  1.8116
  264SOL    HW2 1055   1.547   1.340   1.892  0.1940 -0.5973 -2.8803
  264SOL     MW 1056   1.482   1.338   1.832  0.6501 -0.1133 -0.5918
  265SOL     OW 1057   0.750   2.801   2.240  0.4998 -0.1172 -0.3753
  265SOL    HW1 1058   0.790   2.723   2.200  0.1879  0.2566 -1.6803
  265SOL    HW2 1059   0.734   2.784   2.332 -2.5464 -2.8597 -0.7092
  265SOL     MW 1060   0.753   2.789   2.247  0.0567 -0.4297 -0.5915
  266SOL     OW 1061   0.866   0.761   2.215 -0.3774  0.0137  0.0827
  266SOL    HW1 1062   0.875   0.742   2.123 -1.2405  0.8570 -0.4412
  266SOL    HW2 1063   0.884   0.677   2.255 -2.2778 -0.3975 -3.3964
  266SOL     MW 1064   0.869   0.747   2.208 -0.7420  0.0707 -0.4454
  267SOL     OW 1065   1.411   1.768   2.699 -0.3886 -0.3520  0.2481
  267SOL    HW1 1066   1.474   1.713   2.649  1.1348  1.6781 -4.3423
  267SOL    HW2 1067   1.330   1.789   2.644 -1.7652  2.4936 -1.0586
  267SOL     MW 1068   1.408   1.764   2.685 -0.3692  0.2913 -0.5299
  268SOL     OW 1069   0.194   0.842   1.657  0.2298  0.6014 -0.2383
  268SOL    HW1 1070   0.173   0.926   1.619  1.3600 -0.6774 -0.1217
  268SOL    HW2 1071   0.176   0.763   1.601  1.2054  0.3722  1.3078
  268SOL     MW 1072   0.189   0.842   1.644  0.5076  0.4025 -0.0189
  269SOL     OW 1073   1.399   1.997   2.356 -0.1878 -0.1178 -0.7898
  269SOL    HW1 1074   1.451   2.073   2.379  1.0579  1.2881 -1.3107
  269SOL    HW2 1075   1.300   1.999   2.382 -1.5593  3.6869 -2.9283
  269SOL     MW 1076   1.393   2.008   2.363 -0.2044  0.5697 -1.1407
  270SOL     OW 1077   1.116   0.413   1.623  0.3521  0.4645  0.1570
  270SOL    HW1 1078   1.073   0.324   1.636 -2.4497  0.4363 -1.4730
  270SOL    HW2 1079   1.207   0.398   1.614  0.6745  0.4792  2.1677
  270SOL     MW 1080   1.123   0.399   1.623  0.0250  0.4628  0.2072
  271SOL     OW 1081   0.845   0.014   2.593 -0.2597  0.5435  0.0324
  271SOL    HW1 1082   0.869  -0.051   2.655  0.3479 -0.0869 -0.4144
  271SOL    HW2 1083   0.925   0.069   2.576 -1.4515 -1.7232  1.7817
  271SOL     MW 1084   0.859   0.013   2.599 -0.3368  0.1613  0.2042
  272SOL     OW 1085   1.518   2.834   2.770  0.1611 -0.0590  0.2722
  272SOL    HW1 1086   1.465   2.827   2.691 -0.8560  1.1200 -2.2138
  272SOL    HW2 1087   1.500   2.928   2.801  0.4898  1.3678  0.7787
  272SOL     MW 1088   1.509   2.845   2.764  0.0703  0.2848  0.0110
  273SOL     OW 1089   1.501   0.925   2.794  0.5181 -0.5965 -0.2542
  273SOL    HW1 1090   1.579   0.966   2.838 -2.1961 -1.2742 -0.1558
  273SOL    HW2 1091   1.452   0.997   2.756  1.6286  0.1794  2.0400
  273SOL     MW 1092   1.505   0.940   2.795  0.3065 -0.5836  0.0615
  274SOL     OW 1093   1.450   0.709   0.113 -0.8104  0.3386  0.2510
  274SOL    HW1 1094   1.499   0.632   0.144 -1.1529 -0.9393 -0.3167
  274SOL    HW2 1095   1.362   0.709   0.160  0.2146  0.6096  1.3874
  274SOL     MW 1096   1.445   0.699   0.123 -0.7203  0.2058  0.3260
  275SOL     OW 1097   1.659   0.552   1.779 -0.6037 -0.0999 -0.0750
  275SOL    HW1 1098   1.732   0.589   1.831 -0.0562  0.4453  0.0442
  275SOL    HW2 1099   1.654   0.461   1.813  0.3648 -0.1043 -2.3072
  275SOL     MW 1100   1.668   0.545   1.791 -0.4037 -0.0286 -0.3538
  276SOL     OW 1101   0.300   1.231   1.933  0.4008  0.3484  0.2057
  276SOL    HW1 1102   0.366   1.166   1.930  0.0986  0.6993 -2.1935
  276SOL    HW2 1103   0.251   1.214   2.015 -1.6488  1.1291  1.1068
  276SOL     MW 1104   0.302   1.220   1.943  0.0905  0.4977  0.0080
  277SOL     OW 1105   1.910   1.169   2.456 -0.1423 -0.7048  0.2529
  277SOL    HW1 1106   1.947   1.257   2.462 -1.3717 -0.4864 -2.2569
  277SOL    HW2 1107   1.934   1.139   2.368  2.5214  2.7706  1.1211
  277SOL     MW 1108   1.918   1.177   2.445  0.0469 -0.2174  0.0363
  278SOL     OW 1109   1.409   0.683   1.694  0.5809 -0.0332 -0.0734
  278SOL    HW1 1110   1.392   0.628   1.774  1.9123  0.9881 -0.8743
  278SOL    HW2 1111   1.507   0.686   1.700  0.2489  0.2916 -1.6588
  278SOL     MW 1112   1.420   0.676   1.705  0.7127  0.1444 -0.3882
  279SOL     OW 1113   0.597   0.102   2.251  0.1714  0.3094  0.0300
  279SOL    HW1 1114   0.691   0.070   2.266  2.1476  0.7091 -2.6351
  279SOL    HW2 1115   0.611   0.194   2.235  1.5273  0.2450  1.6766
  279SOL     MW 1116   0.611   0.110   2.251  0.6111  0.3536 -0.1044
  280SOL     OW 1117   1.477   0.963   2.149 -0.1631 -0.4121  0.5925
  280SOL    HW1 1118   1.528   0.898   2.098 -0.9962 -1.9914  1.8647
  280SOL    HW2 1119   1.488   0.936   2.237 -1.0057 -0.7928 -3.1318
  280SOL     MW 1120   1.485   0.951   2.154 -0.3842 -0.6707  0.2690
  281SOL     OW 1121   1.351   1.323   2.742  0.2663 -0.4663 -0.0980
  281SOL    HW1 1122   1.444   1.324   2.737 -0.1458  0.6131 -3.1243
  281SOL    HW2 1123   1.322   1.275   2.820 -0.0398  0.0269  1.1398
  281SOL     MW 1124   1.359   1.317   2.752  0.1715 -0.2588 -0.3340
  282SOL     OW 1125   1.080   1.285   1.649  0.2747 -0.5247 -0.7672
  282SOL    HW1 1126   1.103   1.378   1.636 -3.1466  1.4331 -0.5466
  282SOL    HW2 1127   1.018   1.275   1.725  1.5439 -0.8063  1.2616
  282SOL     MW 1128   1.075   1.296   1.657 -0.0092 -0.3036 -0.4704
  283SOL     OW 1129   0.796   1.249   2.994  0.1414 -0.3238 -0.0823
  283SOL    HW1 1130   0.882   1.257   3.036  0.9854  1.4111  3.0507
  283SOL    HW2 1131   0.753   1.336   3.018  1.9521  0.5929  0.0990
  283SOL     MW 1132   0.801   1.262   3.003  0.4917  0.0261  0.3550
  284SOL     OW 1133   0.478   0.683   2.389 -0.2365  0.2990  0.1562
  284SOL    HW1 1134   0.535   0.753   2.346 -0.1017  0.3851  1.3858
  284SOL    HW2 1135   0.466   0.598   2.340 -2.2282 -1.8818 -3.2102
  284SOL     MW 1136   0.484   0.681   2.377 -0.4815  0.0226 -0.1257
  285SOL     OW 1137   0.981   0.831   2.813 -0.3972 -0.3758 -0.1257
  285SOL    HW1 1138   1.037   0.851   2.735  1.6705 -0.7484  2.0988
  285SOL    HW2 1139   0.909   0.777   2.779  1.9711 -0.7025 -1.5875
  285SOL     MW 1140   0.979   0.826   2.798  0.1881 -0.4681 -0.0251
  286SOL     OW 1141   1.123   1.507   2.668  0.1418 -0.2051  0.9075
  286SOL    HW1 1142   1.215   1.479   2.690  0.4988 -0.9930 -2.4891
  286SOL    HW2 1143   1.136   1.595   2.645 -0.9599 -0.1802 -3.2426
  286SOL     MW 1144   1.137   1.515   2.668  0.0435 -0.3057 -0.0882
  287SOL     OW 1145   1.131   0.930   0.354  0.1884  0.1620  0.2742
  287SOL    HW1 1146   1.218   0.956   0.390  1.3811 -0.5808  1.9028
  287SOL    HW2 1147   1.107   0.998   0.297  1.1562  0.7704  3.4127
  287SOL     MW 1148   1.139   0.943   0.351  0.4735  0.1443  0.9032
  288SOL     OW 1149   1.558   0.564   2.066  0.1194 -0.0492 -0.3179
  288SOL    HW1 1150   1.509   0.562   2.148 -2.0300 -0.7533  0.1939
  288SOL    HW2 1151   1.572   0.652   2.037  1.7236  0.0520 -1.0234
  288SOL     MW 1152   1.554   0.575   2.073  0.0475 -0.1287 -0.3435
  289SOL     OW 1153   1.091   1.002   2.595  0.6862 -0.1861  0.0179
  289SOL    HW1 1154   1.107   0.921   2.552 -0.1585  0.1298  2.0797
  289SOL    HW2 1155   1.000   1.033   2.572 -0.6720 -1.3922 -1.8274
  289SOL     MW 1156   1.082   0.996   2.586  0.3956 -0.3036  0.0464
  290SOL     OW 1157   0.831   0.626   1.583 -0.2608 -0.5091  0.3119
  290SOL    HW1 1158   0.881   0.597   1.504 -3.3254 -2.0142 -3.1271
  290SOL    HW2 1159   0.901   0.647   1.648 -1.8445 -0.7008  0.0170
  290SOL     MW 1160   0.847   0.625   1.581 -0.8741 -0.7329 -0.1808
  291SOL     OW 1161   0.197   0.376   0.123 -0.1432  0.1434  0.7571
  291SOL    HW1 1162   0.254   0.314   0.166 -2.1121 -0.7857  0.7988
  291SOL    HW2 1163   0.134   0.328   0.065  0.9468 -2.1689 -1.3724
  291SOL     MW 1164   0.196   0.362   0.121 -0.2592 -0.2842  0.4816
  292SOL     OW 1165   0.984   0.555   0.062 -0.2049 -0.0646  0.2946
  292SOL    HW1 1166   1.051   0.591   0.117  0.9947 -1.2527  1.0208
  292SOL    HW2 1167   0.977   0.456   0.079  0.5811  0.1559 -4.7062
  292SOL     MW 1168   0.992   0.546   0.071  0.0571 -0.1923 -0.2694
  293SOL     OW 1169   0.160   0.127   2.427 -0.2378 -0.4571  0.1382
  293SOL    HW1 1170   0.093   0.087   2.375  1.1318  0.7339  0.4272
  293SOL    HW2 1171   0.116   0.179   2.497  0.9003 -0.9237  0.4804
  293SOL     MW 1172   0.145   0.129   2.430  0.0931 -0.3616  0.2215
  294SOL     OW 1173   1.450   0.600   2.338 -0.0315 -0.5150  0.2409
  294SOL    HW1 1174   1.478   0.646   2.420  1.1028  0.2584 -3.7312
  294SOL    HW2 1175   1.427   0.514   2.365  1.0966  1.0643 -2.2483
  294SOL     MW 1176   1.451   0.594   2.353  0.2670 -0.2046 -0.6116
  295SOL     OW 1177   0.942   0.550   2.541 -0.2302 -0.6327  0.0475
  295SOL    HW1 1178   0.908   0.497   2.468  0.3234 -1.3325 -1.0679
  295SOL    HW2 1179   0.870   0.592   2.579  2.8363 -0.6435 -4.3129
  295SOL     MW 1180   0.928   0.548   2.537  0.2475 -0.7265 -0.6750
  296SOL     OW 1181   1.279   0.276   2.055 -0.1753 -0.1067  0.5248
  296SOL    HW1 1182   1.360   0.225   2.030 -3.3547 -2.2389 -2.0862
  296SOL    HW2 1183   1.267   0.251   2.149  1.5481  0.3331 -0.4395
  296SOL     MW 1184   1.289   0.266   2.064 -0.3674 -0.3300  0.0531
  297SOL     OW 1185   1.397   0.403   1.588  0.4537  0.2563 -0.5037
  297SOL    HW1 1186   1.435   0.491   1.612 -0.8115  2.4813  0.2380
  297SOL    HW2 1187   1.457   0.336   1.629 -0.5503 -2.0949  1.6875
  297SOL     MW 1188   1.410   0.406   1.596  0.1543  0.2396 -0.1167
  298SOL     OW 1189   1.645   0.804   1.973  0.1614  0.6412 -0.0432
  298SOL    HW1 1190   1.656   0.858   1.898 -0.6049 -1.2118 -0.1702
  298SOL    HW2 1191   1.705   0.814   2.045 -2.4862 -4.6670  0.3188
  298SOL     MW 1192   1.655   0.812   1.973 -0.2890 -0.3037 -0.0122
  299SOL     OW 1193   0.564   1.094   0.045 -0.4774  0.4308 -0.8114
  299SOL    HW1 1194   0.588   1.139  -0.031  3.5657 -1.7553  1.7314
  299SOL    HW2 1195   0.483   1.131   0.084  2.2285 -0.7597  2.8499
  299SOL     MW 1196   0.557   1.105   0.040  0.4131 -0.0147  0.0072
  300SOL     OW 1197   1.298   1.158   2.546 -0.2193  0.0010 -0.0207
  300SOL    HW1 1198   1.214   1.118   2.576  0.0317 -1.5931  1.6951
  300SOL    HW2 1199   1.322   1.216   2.622  1.9168  0.7940 -1.5969
  300SOL     MW 1200   1.290   1.160   2.560  0.0957 -0.1047 -0.0023
  301SOL     OW 1201   1.463   0.880   0.638 -0.8206  0.4729  0.4183
  301SOL    HW1 1202   1.450   0.916   0.728  0.1677 -2.5943  1.6378
  301SOL    HW2 1203   1.381   0.823   0.628 -1.7114 -2.3283 -3.1461
  301SOL     MW 1204   1.450   0.877   0.649 -0.8077 -0.3014  0.1089
  302SOL     OW 1205   0.136   1.568   1.985 -0.0312  0.9544  0.4935
  302SOL    HW1 1206   0.178   1.531   2.060  2.1936 -0.9713 -0.2337
  302SOL    HW2 1207   0.059   1.616   2.012  1.1580 -1.4614 -0.9862
  302SOL     MW 1208   0.131   1.569   1.998  0.4192  0.3816  0.2024
  303SOL     OW 1209   0.413   1.811   2.636 -0.1563  0.0484  0.7437
  303SOL    HW1 1210   0.395   1.761   2.555  0.3242  2.5198  0.3112
  303SOL    HW2 1211   0.330   1.854   2.659  3.8287  2.4258  0.4797
  303SOL     MW 1212   0.400   1.810   2.628  0.4328  0.6882  0.6518
  304SOL     OW 1213   0.552   2.068   2.392 -0.1801  0.1910  0.1368
  304SOL    HW1 1214   0.574   2.118   2.312 -1.2710  0.3934  1.7661
  304SOL    HW2 1215   0.592   1.979   2.387 -2.4912  1.2848 -0.1050
  304SOL     MW 1216   0.560   2.063   2.381 -0.6290  0.3620  0.3198
  305SOL     OW 1217   1.126   0.565   0.484 -0.0066 -0.1126  0.1857
  305SOL    HW1 1218   1.030   0.573   0.471  0.5548  0.4142 -2.4214
  305SOL    HW2 1219   1.128   0.476   0.514  0.3074  0.4852 -1.3067
  305SOL     MW 1220   1.113   0.555   0.486  0.1089  0.0358 -0.3552
  306SOL     OW 1221   1.165   1.480   0.271 -0.0894  0.7107 -0.1831
  306SOL    HW1 1222   1.211   1.399   0.307  1.0216  0.2868 -1.4251
  306SOL    HW2 1223   1.219   1.509   0.200  0.8742 -1.0274  0.7377
  306SOL     MW 1224   1.178   1.473   0.267  0.1843  0.4255 -0.2255
  307SOL     OW 1225   1.347   0.526   1.899  0.1185 -0.3001 -0.5919
  307SOL    HW1 1226   1.297   0.444   1.928 -1.4269  0.1282 -1.7216
  307SOL    HW2 1227   1.410   0.550   1.971  0.3323  3.1651 -0.2816
  307SOL     MW 1228   1.349   0.518   1.912 -0.0572  0.2136 -0.7000
  308SOL     OW 1229   2.155   0.543   2.738 -0.1620  0.9335 -0.4688
  308SOL    HW1 1230   2.249   0.528   2.747  1.2462 -2.5362  1.3983
  308SOL    HW2 1231   2.136   0.632   2.723  0.7453  2.2548  1.3869
  308SOL     MW 1232   2.165   0.553   2.737  0.1435  0.6500  0.0224
  309SOL     OW 1233   0.482   0.463   0.333 -0.2660  0.5059 -0.1910
  309SOL    HW1 1234   0.528   0.534   0.295 -0.3501  0.9456 -0.0304
  309SOL    HW2 1235   0.486   0.392   0.265  2.0230 -0.1870  0.8455
  309SOL     MW 1236   0.489   0.463   0.319  0.0250  0.4725 -0.0331
  310SOL     OW 1237   0.432   0.628   1.964  0.0559 -0.5704 -0.1518
  310SOL    HW1 1238   0.471   0.546   1.916  1.8111 -1.7614 -3.8501
  310SOL    HW2 1239   0.485   0.698   1.922 -1.9853  0.5863 -1.0616
  310SOL     MW 1240   0.444   0.627   1.952  0.0181 -0.5749 -0.7598
  311SOL     OW 1241   1.865   0.601   1.960 -0.6376 -0.1249  0.1572
  311SOL    HW1 1242   1.868   0.640   2.044 -2.5298  0.3631 -1.6355
  311SOL    HW2 1243   1.926   0.529   1.963  0.1563  0.3166 -3.3310
  311SOL     MW 1244   1.873   0.596   1.971 -0.7825 -0.0023 -0.5396
  312SOL     OW 1245   1.836   2.513   0.144 -0.3155 -0.1154 -0.1067
  312SOL    HW1 1246   1.903   2.535   0.208 -1.2773 -1.4876  0.3381
  312SOL    HW2 1247   1.752   2.548   0.183 -1.8957  1.1033  1.0777
  312SOL     MW 1248   1.833   2.521   0.158 -0.6509 -0.1356  0.1083
  313SOL     OW 1249   0.157   1.122   2.974  0.2533  0.4681 -0.1870
  313SOL    HW1 1250   0.093   1.154   3.043 -0.1971 -1.9640  0.2934
  313SOL    HW2 1251   0.228   1.184   2.959 -1.4877 -1.5241 -3.8583
  313SOL     MW 1252   0.158   1.134   2.981 -0.0359 -0.1157 -0.6080
  314SOL     OW 1253   2.181   2.988   2.943 -0.2829  0.4402  0.0017
  314SOL    HW1 1254   2.106   3.045   2.935  0.5144  1.0079  0.2785
  314SOL    HW2 1255   2.234   3.027   3.013 -1.0657  0.1495 -1.5704
  314SOL     MW 1256   2.178   3.001   2.951 -0.2810  0.4768 -0.1692
  315SOL     OW 1257   1.540   1.916   3.067  0.4348 -1.0624 -0.5903
  315SOL    HW1 1258   1.472   1.958   3.128 -2.4495 -1.7726  2.6175
  315SOL    HW2 1259   1.557   1.985   2.996  0.6137 -0.7401 -1.8580
  315SOL     MW 1260   1.533   1.930   3.066  0.0778 -1.1136 -0.3343
  316SOL     OW 1261   1.308   0.578   2.709  0.3468 -1.0041  0.1792
  316SOL    HW1 1262   1.403   0.593   2.709  4.0705 -1.1048 -2.4005
  316SOL    HW2 1263   1.273   0.618   2.792 -3.0397  0.3659  0.2189
  316SOL     MW 1264   1.316   0.586   2.720  0.3913 -0.8366 -0.1559
  317SOL     OW 1265   0.674   1.446   2.592  0.0077  0.3939  0.2997
  317SOL    HW1 1266   0.753   1.393   2.599 -0.2281  0.4922  1.4454
  317SOL    HW2 1267   0.663   1.468   2.491  0.9631  2.5317 -2.2115
  317SOL     MW 1268   0.683   1.442   2.580  0.1026  0.6890  0.1195
  318SOL     OW 1269   1.329   0.332   2.964  0.2923  0.0851  0.2417
  318SOL    HW1 1270   1.257   0.398   2.942 -0.4587  0.0428 -2.2594
  318SOL    HW2 1271   1.408   0.385   2.971 -0.5493 -2.6428 -1.2647
  318SOL     MW 1272   1.330   0.348   2.962  0.0822 -0.2804 -0.2870
  319SOL     OW 1273   0.806   0.448   2.859  0.2886 -0.0519  0.2120
  319SOL    HW1 1274   0.792   0.365   2.810  1.7613 -0.6878 -1.7558
  319SOL    HW2 1275   0.743   0.451   2.935  3.5736 -3.1137  1.2430
  319SOL     MW 1276   0.796   0.438   2.862  0.9163 -0.5398  0.0884
  320SOL     OW 1277   1.072   1.360   2.035  0.3435  0.0595 -0.4144
  320SOL    HW1 1278   1.130   1.285   2.059  1.0065 -0.6442  1.0453
  320SOL    HW2 1279   1.127   1.412   1.973  0.6225  0.3766 -0.3811
  320SOL     MW 1280   1.087   1.357   2.030  0.4678  0.0085 -0.2174
  321SOL     OW 1281   1.141   0.952   3.019  0.2579  0.0863 -0.3697
  321SOL    HW1 1282   1.088   0.924   2.948  0.6211 -0.3439  0.7541
  321SOL    HW2 1283   1.204   0.888   3.035  0.6318  1.9436 -0.1793
  321SOL     MW 1284   1.143   0.940   3.012  0.3552  0.2746 -0.1963
  322SOL     OW 1285   1.206   0.850   1.672 -0.3166 -0.0746 -0.5292
  322SOL    HW1 1286   1.285   0.797   1.677 -0.6366  0.5047  0.9670
  322SOL    HW2 1287   1.196   0.900   1.756 -2.1305  1.0191  1.0882
  322SOL     MW 1288   1.215   0.850   1.683 -0.5982  0.1461 -0.1184
  323SOL     OW 1289   1.208   1.531   1.872  0.2976 -0.2273 -0.1287
  323SOL    HW1 1290   1.254   1.520   1.790 -0.7414 -0.5729  0.3954
  323SOL    HW2 1291   1.167   1.615   1.884 -0.0646 -2.4823 -1.1702
  323SOL     MW 1292   1.208   1.541   1.863  0.1128 -0.5705 -0.1969
  324SOL     OW 1293   1.498   0.977   2.433  0.2701  0.9230 -0.0620
  324SOL    HW1 1294   1.421   1.024   2.440 -0.8455 -2.3181 -0.8115
  324SOL    HW2 1295   1.562   1.048   2.461  2.8471 -3.1473  0.6870
  324SOL     MW 1296   1.496   0.993   2.438  0.4629 -0.0416 -0.0621
  325SOL     OW 1297   1.096   0.517   2.906  0.3448  0.0840  0.3325
  325SOL    HW1 1298   1.078   0.541   2.998  2.7808  1.0795 -1.0785
  325SOL    HW2 1299   1.009   0.495   2.862 -3.5709 -0.7020 -0.9156
  325SOL     MW 1300   1.082   0.517   2.913  0.1495  0.1116 -0.0183
  326SOL     OW 1301   0.457   1.365   2.311  0.2685  0.4585  0.4941
  326SOL    HW1 1302   0.522   1.334   2.243  3.7121  0.7076 -0.1578
  326SOL    HW2 1303   0.453   1.459   2.283 -1.2953 -2.3368  0.9481
  326SOL     MW 1304   0.465   1.373   2.299  0.5165  0.1225  0.4680
  327SOL     OW 1305   1.920   0.787   2.437 -0.1651  0.2605 -0.1117
  327SOL    HW1 1306   1.892   0.730   2.517 -0.2699 -0.6918  0.4712
  327SOL    HW2 1307   1.921   0.872   2.474  0.9170  1.9092  1.3635
  327SOL     MW 1308   1.916   0.790   2.452 -0.0361  0.3524  0.1598
  328SOL     OW 1309   0.213   1.391   2.207 -0.2680  0.4183 -0.4516
  328SOL    HW1 1310   0.153   1.317   2.182 -1.6272 -0.1159  4.3236
  328SOL    HW2 1311   0.291   1.353   2.246 -3.0537  0.4019 -0.6507
  328SOL     MW 1312   0.215   1.376   2.208 -0.8149  0.3457  0.1521
  329SOL     OW 1313   0.131   0.236   1.405 -0.4974 -0.3268  0.1139
  329SOL    HW1 1314   0.118   0.214   1.499  2.4194  2.8662  0.0477
  329SOL    HW2 1315   0.219   0.281   1.400  0.3019 -0.6797  0.2126
  329SOL     MW 1316   0.141   0.239   1.417 -0.0071  0.0479  0.1182
  330SOL     OW 1317   0.378   3.100   2.080  0.0863 -0.5935 -0.4615
  330SOL    HW1 1318   0.461   3.104   2.136  0.2091  1.7100 -0.3188
  330SOL    HW2 1319   0.327   3.042   2.139  0.7580  0.8202  2.5835
  330SOL     MW 1320   0.382   3.093   2.096  0.1911 -0.1031 -0.0409
  331SOL     OW 1321   0.863   1.243   2.288 -0.5067 -0.0108  0.3253
  331SOL    HW1 1322   0.804   1.296   2.236 -2.1561  0.0931  1.8646
  331SOL    HW2 1323   0.870   1.287   2.374 -0.3607 -1.7000  2.0344
  331SOL     MW 1324   0.856   1.256   2.292 -0.7051 -0.2200  0.7539
  332SOL     OW 1325   1.350   1.736   2.954  0.1667 -0.9858 -0.4060
  332SOL    HW1 1326   1.388   1.739   2.862  0.3756 -0.6174 -1.2620
  332SOL    HW2 1327   1.393   1.810   3.000 -1.7580 -0.5105  0.2847
  332SOL     MW 1328   1.361   1.746   2.948 -0.0597 -0.8745 -0.4278
  333SOL     OW 1329   1.722   1.399   2.957  0.1547 -0.1235 -0.0748
  333SOL    HW1 1330   1.811   1.397   2.978 -2.5590 -1.2809  2.2985
  333SOL    HW2 1331   1.683   1.340   3.023 -0.7019  1.2749  1.5772
  333SOL     MW 1332   1.729   1.391   2.968 -0.3163 -0.0917  0.4563
  334SOL     OW 1333   1.326   0.026   2.569 -0.4622  0.5910 -0.3811
  334SOL    HW1 1334   1.257  -0.012   2.629 -0.1917 -0.6376 -1.3516
  334SOL    HW2 1335   1.376   0.087   2.622  1.5218 -1.5436 -1.5804
  334SOL     MW 1336   1.323   0.029   2.584 -0.1647  0.1473 -0.6674
  335SOL     OW 1337   1.343   0.767   2.955 -0.3499  0.3155 -0.0715
  335SOL    HW1 1338   1.401   0.749   3.033 -1.2618 -1.1473 -0.1312
  335SOL    HW2 1339   1.386   0.819   2.887 -2.6871  0.4784 -1.7406
  335SOL     MW 1340   1.357   0.771   2.956 -0.7786  0.1440 -0.2996
  336SOL     OW 1341   0.948   1.147   1.878 -0.1938  0.5313 -0.1929
  336SOL    HW1 1342   0.944   1.201   1.952  1.9038 -3.2282 -0.2264
  336SOL    HW2 1343   1.020   1.086   1.883 -0.0063 -1.1476  0.1279
  336SOL     MW 1344   0.957   1.146   1.888  0.1077 -0.1862 -0.1550
  337SOL     OW 1345   0.649   1.826   2.820  0.3214  0.5473 -0.1676
  337SOL    HW1 1346   0.567   1.795   2.779 -1.5416  0.6208  0.4475
  337SOL    HW2 1347   0.706   1.756   2.801 -1.6891  0.3808 -0.5366
  337SOL     MW 1348   0.645   1.813   2.812 -0.1896  0.5350 -0.1351
  338SOL     OW 1349   1.144   0.729   2.553  0.1043 -0.2407  0.5272
  338SOL    HW1 1350   1.064   0.667   2.562 -0.9256  0.4453 -0.8780
  338SOL    HW2 1351   1.221   0.691   2.605  0.8631  0.3305 -0.1441
  338SOL     MW 1352   1.143   0.716   2.561  0.0685 -0.0748  0.2533
  339SOL     OW 1353   1.485   1.071   1.825 -0.0949  0.2714  0.1805
  339SOL    HW1 1354   1.438   1.086   1.746  0.0100 -0.8567  0.6352
  339SOL    HW2 1355   1.433   1.035   1.895  1.5355 -0.0270  1.9468
  339SOL     MW 1356   1.472   1.068   1.824  0.1341  0.0832  0.4735
  340SOL     OW 1357   1.309   1.532   0.047 -0.2186  0.2590 -0.1765
  340SOL    HW1 1358   1.336   1.611  -0.004 -0.2926 -0.6662  0.2486
  340SOL    HW2 1359   1.386   1.492   0.089  1.1104 -1.7963  1.9526
  340SOL     MW 1360   1.323   1.537   0.046 -0.0530 -0.1342  0.1605
  341SOL     OW 1361   0.073   1.372   2.767 -0.8466 -0.4702 -0.4499
  341SOL    HW1 1362   0.160   1.355   2.735 -0.4002 -0.4908  3.7568
  341SOL    HW2 1363   0.005   1.359   2.697  0.3954 -1.0752 -1.8409
  341SOL     MW 1364   0.076   1.368   2.754 -0.6239 -0.5528 -0.0784
  342SOL     OW 1365   1.313   0.309   0.133  0.2446  0.6052  0.6338
  342SOL    HW1 1366   1.399   0.346   0.161 -1.3934 -0.8181  1.5458
  342SOL    HW2 1367   1.306   0.337   0.040  1.5297  0.2194 -2.2386
  342SOL     MW 1368   1.323   0.317   0.124  0.1980  0.3665  0.3752
  343SOL     OW 1369   0.266   0.271   2.100 -0.1538  0.1903 -0.6925
  343SOL    HW1 1370   0.318   0.189   2.100 -1.9582 -4.1891 -3.2931
  343SOL    HW2 1371   0.186   0.235   2.063  0.9185 -0.1539 -1.4834
  343SOL     MW 1372   0.263   0.255   2.095 -0.2504 -0.4329 -1.1400
  344SOL     OW 1373   1.710   2.005   0.185 -0.2303  0.2430  0.3151
  344SOL    HW1 1374   1.737   2.093   0.152 -0.3454  1.6414 -1.5246
  344SOL    HW2 1375   1.674   1.960   0.111 -3.4199 -0.5467 -0.0894
  344SOL     MW 1376   1.709   2.011   0.171 -0.6663  0.3233  0.0190
  345SOL     OW 1377   0.730   1.570   2.338 -0.5229 -0.6436  0.0048
  345SOL    HW1 1378   0.658   1.582   2.272 -0.6831  2.4309  2.2155
  345SOL    HW2 1379   0.810   1.550   2.291  0.1994 -0.5742  1.1449
  345SOL     MW 1380   0.731   1.569   2.323 -0.4487 -0.2288  0.4469
  346SOL     OW 1381   1.758   1.113   0.034 -0.1356  0.8944  0.2905
  346SOL    HW1 1382   1.847   1.091   0.059 -1.2461 -3.2290  0.9811
  346SOL    HW2 1383   1.701   1.064   0.092  2.6760  0.9823  0.3188
  346SOL     MW 1384   1.762   1.104   0.045  0.0889  0.3620  0.3854
  347SOL     OW 1385   1.183   0.663   2.307 -0.5571 -0.4699 -0.0689
  347SOL    HW1 1386   1.277   0.637   2.304  0.1902  1.7227  0.9677
  347SOL    HW2 1387   1.166   0.685   2.399 -1.3326 -0.6578  2.1540
  347SOL     MW 1388   1.193   0.662   2.319 -0.5609 -0.2054  0.3612
  348SOL     OW 1389   1.352   2.657   1.909 -0.5659 -0.2642 -0.2546
  348SOL    HW1 1390   1.426   2.600   1.943  0.0626  0.3868 -0.3480
  348SOL    HW2 1391   1.387   2.741   1.952 -1.9337 -0.2049 -0.3126
  348SOL     MW 1392   1.367   2.661   1.919 -0.6634 -0.1705 -0.2745
  349SOL     OW 1393   1.446   0.241   2.734  0.0418 -0.3608  0.3270
  349SOL    HW1 1394   1.390   0.256   2.812 -0.9194 -1.9857  0.8345
  349SOL    HW2 1395   1.529   0.279   2.750  1.7290  0.8628  2.3270
  349SOL     MW 1396   1.450   0.248   2.746  0.1376 -0.4138  0.6578
  350SOL     OW 1397   1.842   0.633   2.654 -0.1669 -0.6488 -0.2259
  350SOL    HW1 1398   1.761   0.600   2.616  2.2547  0.2186  0.3015
  350SOL    HW2 1399   1.885   0.556   2.698  0.1651 -4.3838 -0.8224
  350SOL     MW 1400   1.837   0.619   2.655  0.1964 -1.0272 -0.2350
  351SOL     OW 1401   0.106   1.081   1.547  0.3537  0.4809  0.3640
  351SOL    HW1 1402   0.043   1.070   1.622  0.2171  3.9678  1.1259
  351SOL    HW2 1403   0.165   1.155   1.579 -2.6219 -0.8756  3.1719
  351SOL     MW 1404   0.105   1.089   1.561 -0.0569  0.7620  0.8350
  352SOL     OW 1405   0.814   1.632   2.700  0.4855  0.0209 -0.1546
  352SOL    HW1 1406   0.892   1.597   2.747 -1.0489 -1.4406 -0.2324
  352SOL    HW2 1407   0.755   1.559   2.664 -0.1437 -2.3350 -0.0056
  352SOL     MW 1408   0.816   1.617   2.702  0.2001 -0.4828 -0.1452
  353SOL     OW 1409   3.068   2.528   2.663 -0.2692  0.5111  0.8019
  353SOL    HW1 1410   3.164   2.523   2.643  2.8995 -0.5314 -2.2248
  353SOL    HW2 1411   3.053   2.619   2.642  0.4376 -0.6741 -0.7366
  353SOL     MW 1412   3.079   2.540   2.658  0.2421  0.2172  0.1995
  354SOL     OW 1413   0.254   2.484   0.814  0.2242 -0.1861 -0.0004
  354SOL    HW1 1414   0.305   2.447   0.883  0.3004  1.9964  1.1275
  354SOL    HW2 1415   0.173   2.435   0.801 -2.4122  0.2458  2.1772
  354SOL     MW 1416   0.250   2.473   0.821 -0.1136  0.1588  0.4357
  355SOL     OW 1417   0.011   2.258   0.389 -0.1769  0.1066  0.4746
  355SOL    HW1 1418  -0.067   2.202   0.406 -0.0723  0.9722  0.1002
  355SOL    HW2 1419   0.022   2.308   0.469  0.1364 -2.9470 -0.4862
  355SOL     MW 1420   0.002   2.257   0.402 -0.1218 -0.1821  0.2985
  356SOL     OW 1421   0.836   2.810   0.981 -0.1852 -0.6556  0.4834
  356SOL    HW1 1422   0.880   2.857   0.901  0.3943 -0.4762 -1.8908
  356SOL    HW2 1423   0.744   2.815   0.959 -0.0296 -0.3706 -1.3518
  356SOL     MW 1424   0.829   2.817   0.968 -0.0882 -0.5944 -0.0720
  357SOL     OW 1425   1.767   2.931   0.391 -0.0417  0.4408 -0.3220
  357SOL    HW1 1426   1.723   2.864   0.443  0.5857  1.5359  0.9598
  357SOL    HW2 1427   1.858   2.903   0.369 -1.1656  1.0778  2.3154
  357SOL     MW 1428   1.774   2.918   0.395 -0.1072  0.6694  0.1951
  358SOL     OW 1429   0.464   0.163   1.049 -0.1729  0.4320 -0.1503
  358SOL    HW1 1430   0.555   0.145   1.026  0.8232 -0.0728  0.5938
  358SOL    HW2 1431   0.426   0.178   0.966  0.5064 -0.7004 -0.2951
  358SOL     MW 1432   0.471   0.163   1.035  0.0482  0.2160 -0.0712
  359SOL     OW 1433   0.860   2.884   1.842  0.2227 -0.3032 -0.2597
  359SOL    HW1 1434   0.834   2.794   1.859  0.7935  0.5077  0.9558
  359SOL    HW2 1435   0.882   2.878   1.748  3.0949  2.4115 -2.0345
  359SOL     MW 1436   0.859   2.871   1.832  0.6769  0.1619 -0.3335
  360SOL     OW 1437   0.579   2.778   0.914 -0.1739  0.1150  0.0811
  360SOL    HW1 1438   0.562   2.734   0.832  0.7733  1.7229 -0.6093
  360SOL    HW2 1439   0.589   2.711   0.983  0.0313  0.3161 -1.9923
  360SOL     MW 1440   0.578   2.763   0.913 -0.0218  0.3537 -0.2835
  361SOL     OW 1441   0.189   2.632   1.365 -0.5272 -0.6261  0.4819
  361SOL    HW1 1442   0.173   2.717   1.403  0.3673  0.3818  0.2981
  361SOL    HW2 1443   0.284   2.622   1.339  0.7555 -3.0812  0.2631
  361SOL     MW 1444   0.200   2.642   1.367 -0.2399 -0.8171  0.4288
  362SOL     OW 1445   1.492   2.397   0.649 -0.4448  0.3905  0.4898
  362SOL    HW1 1446   1.495   2.357   0.739 -0.8735  0.4697  0.9443
  362SOL    HW2 1447   1.538   2.478   0.658  0.3219  1.1081 -0.6320
  362SOL     MW 1448   1.498   2.402   0.662 -0.4002  0.4956  0.4018
  363SOL     OW 1449   0.299   3.060   0.660  0.1514 -0.3801  0.1988
  363SOL    HW1 1450   0.310   3.023   0.744  0.5422  0.1112 -1.0224
  363SOL    HW2 1451   0.203   3.072   0.653 -0.9632 -1.0134 -0.2206
  363SOL     MW 1452   0.288   3.057   0.670  0.0559 -0.3988 -0.0176
  364SOL     OW 1453   0.741   0.187   0.201  0.0869  0.5923  0.1926
  364SOL    HW1 1454   0.666   0.126   0.214  1.8483  1.9340 -0.0281
  364SOL    HW2 1455   0.717   0.259   0.137  0.0746 -0.2485 -1.5434
  364SOL     MW 1456   0.728   0.188   0.194  0.3177  0.6584 -0.0655
  365SOL     OW 1457   0.972   2.029   1.144 -0.2619  0.1256  0.7706
  365SOL    HW1 1458   0.972   2.116   1.115  0.9993 -3.7198  0.2685
  365SOL    HW2 1459   0.892   1.982   1.110 -0.5186 -0.3926  1.5620
  365SOL     MW 1460   0.962   2.034   1.135 -0.1294 -0.4502  0.8088
  366SOL     OW 1461   2.863   2.695   1.024  0.1349 -0.0451 -0.1128
  366SOL    HW1 1462   2.946   2.677   1.081 -0.3567 -0.2304 -0.1048
  366SOL    HW2 1463   2.903   2.715   0.936  1.2503  1.8502 -0.5184
  366SOL     MW 1464   2.879   2.696   1.020  0.2172  0.1806 -0.1653
  367SOL     OW 1465   1.224   2.983   0.878 -0.1092  0.0194  0.4939
  367SOL    HW1 1466   1.238   3.055   0.814  0.5262  2.3602  0.3269
  367SOL    HW2 1467   1.185   2.916   0.818 -1.1551  1.0234  0.2415
  367SOL     MW 1468   1.220   2.984   0.861 -0.1633  0.4607  0.4386
  368SOL     OW 1469   1.662   0.420   0.716 -0.1069  0.0340  0.4999
  368SOL    HW1 1470   1.735   0.385   0.662 -0.3262 -1.9153  0.1986
  368SOL    HW2 1471   1.665   0.514   0.725 -2.3750  0.5094  0.2615
  368SOL     MW 1472   1.672   0.428   0.710 -0.4351 -0.1605  0.4287
  369SOL     OW 1473   0.148   2.453   1.782  0.6148 -0.7936  0.3212
  369SOL    HW1 1474   0.245   2.472   1.783 -0.9927 -1.9108  1.4159
  369SOL    HW2 1475   0.110   2.546   1.770  1.3876  3.2957 -0.2376
  369SOL     MW 1476   0.156   2.468   1.781  0.5047 -0.4015  0.3919
  370SOL     OW 1477   0.721   0.095   1.012 -0.0210  0.1288 -0.6464
  370SOL    HW1 1478   0.782   0.166   0.999 -1.7412 -2.3405 -2.1676
  370SOL    HW2 1479   0.784   0.038   1.044 -0.7052  0.3181 -2.3202
  370SOL     MW 1480   0.738   0.097   1.014 -0.3383 -0.1721 -1.0680
  371SOL     OW 1481   1.329   2.914   1.527  0.4027 -0.2788 -0.0223
  371SOL    HW1 1482   1.263   2.843   1.527  0.7219 -0.8380  0.7592
  371SOL    HW2 1483   1.322   2.965   1.444  0.4114 -0.9355 -0.6358
  371SOL     MW 1484   1.320   2.911   1.516  0.4460 -0.4392 -0.0001
  372SOL     OW 1485   0.742   2.302   0.463  0.1840  0.1180  0.2970
  372SOL    HW1 1486   0.727   2.209   0.475 -0.7006  2.2961  2.3610
  372SOL    HW2 1487   0.775   2.316   0.363 -1.2090  1.0062 -1.7452
  372SOL     MW 1488   0.744   2.292   0.451 -0.1165  0.5226  0.2998
  373SOL     OW 1489   2.777   3.006   1.441  0.5232  0.2315  0.1821
  373SOL    HW1 1490   2.862   2.986   1.408  0.5357 -0.0335  1.4312
  373SOL    HW2 1491   2.749   3.084   1.395  1.3657  1.2174  0.1608
  373SOL     MW 1492   2.785   3.014   1.431  0.6360  0.3266  0.3441
  374SOL     OW 1493   1.541   0.448   0.223  0.2752 -0.4461 -0.3595
  374SOL    HW1 1494   1.608   0.384   0.198 -0.0976 -2.1629 -0.0841
  374SOL    HW2 1495   1.517   0.426   0.312 -1.4333  1.4212 -0.5123
  374SOL     MW 1496   1.547   0.437   0.232  0.0006 -0.4262 -0.3433
  375SOL     OW 1497   0.983   2.108   2.258  0.0382 -0.4404 -0.3883
  375SOL    HW1 1498   1.036   2.099   2.344  3.5283  1.1290 -0.1339
  375SOL    HW2 1499   0.960   2.016   2.236 -0.8002  2.0586 -1.5727
  375SOL     MW 1500   0.987   2.095   2.266  0.3881  0.0964 -0.5110
  376SOL     OW 1501   0.743   2.540   0.083  0.0037 -0.2655  0.5132
  376SOL    HW1 1502   0.691   2.475   0.135 -1.3330  2.9602 -1.7616
  376SOL    HW2 1503   0.752   2.490  -0.001  1.4861 -0.8409 -3.2733
  376SOL     MW 1504   0.738   2.525   0.079  0.0229  0.0842 -0.2865
  377SOL     OW 1505   1.288   2.015   0.864 -0.1682  0.0342 -0.5646
  377SOL    HW1 1506   1.213   2.015   0.801  0.8502 -0.1175  3.2534
  377SOL    HW2 1507   1.268   1.957   0.935  2.3792  0.1216 -2.0323
  377SOL     MW 1508   1.275   2.007   0.865  0.3022  0.0257 -0.2545
  378SOL     OW 1509   0.891   2.836   1.578 -0.2198  0.3882  0.2261
  378SOL    HW1 1510   0.865   2.747   1.549  0.6189 -2.2043 -0.2215
  378SOL    HW2 1511   0.876   2.894   1.500  0.7374 -0.8181 -1.0364
  378SOL     MW 1512   0.886   2.832   1.564  0.0171 -0.1130  0.0004
  379SOL     OW 1513   1.147   1.767   2.260  0.3541 -0.2791  0.0110
  379SOL    HW1 1514   1.056   1.748   2.238 -0.0621 -1.9996  1.0913
  379SOL    HW2 1515   1.205   1.708   2.210 -3.4795 -1.5165 -2.0095
  379SOL     MW 1516   1.143   1.757   2.250 -0.2067 -0.6693 -0.1130
  380SOL     OW 1517   0.794   0.109   1.621  0.0101  0.3002 -0.4679
  380SOL    HW1 1518   0.809   0.143   1.530  0.8460 -2.3073  0.9273
  380SOL    HW2 1519   0.882   0.108   1.660 -0.1474 -1.0310 -0.7072
  380SOL     MW 1520   0.808   0.113   1.614  0.0996 -0.2194 -0.3154
  381SOL     OW 1521   0.799   2.019   0.790 -0.4039 -0.6773 -0.0100
  381SOL    HW1 1522   0.892   2.015   0.776 -0.3161  0.8213  1.4437
  381SOL    HW2 1523   0.791   2.070   0.870  3.5251 -1.4059 -2.6288
  381SOL     MW 1524   0.810   2.025   0.799  0.1261 -0.5757 -0.1637
  382SOL     OW 1525   0.725   0.074   0.720  0.3504 -0.0117 -0.1191
  382SOL    HW1 1526   0.721   0.061   0.817  3.2447 -0.6094  3.5942
  382SOL    HW2 1527   0.702  -0.018   0.694 -2.3778  1.9499  0.5011
  382SOL     MW 1528   0.721   0.060   0.729  0.3723  0.1682  0.4527
  383SOL     OW 1529   0.534   3.085   0.267  0.3882  0.2280 -0.2579
  383SOL    HW1 1530   0.576   3.022   0.209 -2.3721 -0.3989 -0.3603
  383SOL    HW2 1531   0.504   3.030   0.334  2.8554  1.0491 -1.9618
  383SOL     MW 1532   0.536   3.069   0.268  0.3495  0.2536 -0.4962
  384SOL     OW 1533   0.708   2.911   0.621 -0.2062 -0.0597  0.2784
  384SOL    HW1 1534   0.787   2.885   0.668  0.6308 -0.8527  1.2232
  384SOL    HW2 1535   0.652   2.834   0.616 -0.7485  0.8156  0.7849
  384SOL     MW 1536   0.711   2.897   0.627 -0.1673 -0.0488  0.4699
  385SOL     OW 1537   1.379   2.077   1.529  0.0952 -0.4652  0.4476
  385SOL    HW1 1538   1.461   2.098   1.579  0.0306 -1.2116 -1.1362
  385SOL    HW2 1539   1.338   2.015   1.585 -4.2199  0.5514 -2.3287
  385SOL     MW 1540   1.385   2.072   1.543 -0.4827 -0.4296 -0.1277
  386SOL     OW 1541   1.309   0.389   0.898 -0.0472 -0.5270 -0.0352
  386SOL    HW1 1542   1.245   0.418   0.958 -0.5243 -1.6854 -2.2011
  386SOL    HW2 1543   1.320   0.298   0.926  0.9626  2.2452  1.6274
  386SOL     MW 1544   1.302   0.381   0.910  0.0231 -0.3141 -0.1016
  387SOL     OW 1545   0.826   2.198   1.544  0.3448 -0.0252  0.1578
  387SOL    HW1 1546   0.891   2.248   1.492  1.4875 -0.2509 -0.2861
  387SOL    HW2 1547   0.830   2.111   1.505  1.6755  1.4013  0.1145
  387SOL     MW 1548   0.835   2.193   1.532  0.6711  0.1333  0.0935
  388SOL     OW 1549   1.523   2.765   1.181 -0.0894 -0.4073  0.0001
  388SOL    HW1 1550   1.426   2.771   1.195  0.8809  3.2257  0.6119
  388SOL    HW2 1551   1.544   2.696   1.117 -0.0878  1.9235 -1.8624
  388SOL     MW 1552   1.513   2.757   1.174  0.0388  0.3796 -0.1649
  389SOL     OW 1553   0.441   0.105   3.023  0.3326  0.4114 -0.0773
  389SOL    HW1 1554   0.530   0.071   3.010 -1.2652  1.1955 -3.8226
  389SOL    HW2 1555   0.437   0.152   2.941  0.2636  1.0573 -1.4643
  389SOL     MW 1556   0.452   0.107   3.011  0.1127  0.6001 -0.7544
  390SOL     OW 1557   1.285   0.078   0.692 -0.1329  0.2245 -0.2171
  390SOL    HW1 1558   1.359   0.062   0.633  3.0417 -0.6310  0.2887
  390SOL    HW2 1559   1.327   0.124   0.766  0.3922 -2.8200 -2.7726
  390SOL     MW 1560   1.300   0.082   0.694  0.3552 -0.2901 -0.4875
  391SOL     OW 1561   0.353   2.240   1.418 -0.0218 -0.1311 -0.3249
  391SOL    HW1 1562   0.320   2.147   1.420  0.1757  0.2632  0.1366
  391SOL    HW2 1563   0.287   2.301   1.450 -2.7209 -2.1580  1.8855
  391SOL     MW 1564   0.340   2.236   1.423 -0.3519 -0.3465  0.0277
  392SOL     OW 1565   2.021   2.217   0.318 -0.2624  0.0935 -0.1863
  392SOL    HW1 1566   2.103   2.174   0.350 -2.3039 -1.9712  2.2772
  392SOL    HW2 1567   1.997   2.292   0.380 -2.0698 -0.4131 -1.6223
  392SOL     MW 1568   2.029   2.221   0.331 -0.7702 -0.2457 -0.0507
  393SOL     OW 1569   0.226   2.972   2.802  0.5411 -0.0492  0.0180
  393SOL    HW1 1570   0.315   2.942   2.779  4.0463  0.5601  0.1269
  393SOL    HW2 1571   0.218   3.066   2.771  2.0960 -1.0485 -0.0869
  393SOL     MW 1572   0.237   2.980   2.795  1.2087 -0.1006  0.0185
  394SOL     OW 1573   0.855   1.749   1.556  0.1262  0.4874 -0.5025
  394SOL    HW1 1574   0.787   1.768   1.625 -0.6075 -2.1331  0.8765
  394SOL    HW2 1575   0.857   1.828   1.496 -0.3493 -1.5153  0.7553
  394SOL     MW 1576   0.846   1.762   1.557 -0.0334 -0.1226 -0.1546
  395SOL     OW 1577   0.970   2.828   2.657 -0.4238  0.3171  0.1590
  395SOL    HW1 1578   1.035   2.893   2.675 -2.5168  0.3222  0.1622
  395SOL    HW2 1579   1.017   2.758   2.602  0.8365 -0.2876 -0.7439
  395SOL     MW 1580   0.985   2.827   2.652 -0.5337  0.2380  0.0403
  396SOL     OW 1581   0.715   1.849   2.375 -0.2324 -0.0370  0.0054
  396SOL    HW1 1582   0.783   1.864   2.445  0.8212  1.8084  2.0834
  396SOL    HW2 1583   0.711   1.754   2.356  2.0003  3.4978 -0.6712
  396SOL     MW 1584   0.724   1.839   2.382  0.2012  0.6728  0.1903
  397SOL     OW 1585   1.015   2.322   1.328  0.3307  0.2286  0.8524
  397SOL    HW1 1586   1.044   2.354   1.245 -1.4021 -0.1755  1.8677
  397SOL    HW2 1587   1.100   2.310   1.370 -3.3669 -0.7246  0.9086
  397SOL     MW 1588   1.030   2.324   1.322 -0.3858  0.0495  0.9937
  398SOL     OW 1589   0.525   2.662   0.676  0.2600  0.1271  0.0571
  398SOL    HW1 1590   0.465   2.597   0.695  2.0999  1.9791  0.3505
  398SOL    HW2 1591   0.600   2.610   0.640 -1.2014 -0.1455  0.8263
  398SOL     MW 1592   0.527   2.647   0.674  0.3099  0.3355  0.1973
  399SOL     OW 1593   0.235   2.091   0.307 -0.4442  0.0563 -0.3745
  399SOL    HW1 1594   0.170   2.155   0.335  0.9411  1.4026 -1.3139
  399SOL    HW2 1595   0.268   2.127   0.218  0.4573 -0.7655 -3.1272
  399SOL     MW 1596   0.231   2.105   0.299 -0.1425  0.1255 -0.8616
  400SOL     OW 1597   0.514   1.939   0.089  0.3576 -0.4001 -0.3112
  400SOL    HW1 1598   0.480   2.030   0.079  1.5102  1.1636  1.7327
  400SOL    HW2 1599   0.454   1.894   0.148 -0.7821 -1.2751  0.3059
  400SOL     MW 1600   0.502   1.945   0.095  0.3593 -0.3092  0.0399
  401SOL     OW 1601   0.755   2.063   0.064  0.2377 -0.2037 -0.2841
  401SOL    HW1 1602   0.805   1.981   0.091 -1.0984 -0.4232 -0.0979
  401SOL    HW2 1603   0.668   2.021   0.073 -0.2063 -0.3647  0.6101
  401SOL     MW 1604   0.750   2.047   0.068  0.0028 -0.2539 -0.1415
  402SOL     OW 1605   0.596   2.975   1.765  0.2834  0.1437 -0.8403
  402SOL    HW1 1606   0.679   2.946   1.799 -1.3024  2.0890  0.2602
  402SOL    HW2 1607   0.623   3.047   1.711  0.9634  1.9741  2.2170
  402SOL     MW 1608   0.610   2.981   1.762  0.1639  0.6418 -0.2917
  403SOL     OW 1609   0.086   0.432   0.387  0.4429 -0.5145  0.1116
  403SOL    HW1 1610   0.163   0.444   0.448  0.1980 -2.3821  0.1142
  403SOL    HW2 1611   0.120   0.419   0.296  2.3261  3.1521  2.0332
  403SOL     MW 1612   0.101   0.432   0.383  0.6590 -0.2771  0.3655
  404SOL     OW 1613   0.946   2.929   0.766  0.4191  0.0698 -0.3571
  404SOL    HW1 1614   1.013   2.879   0.717  1.1885 -1.5959  1.5137
  404SOL    HW2 1615   0.963   3.013   0.719  1.8871  0.9263 -0.7552
  404SOL     MW 1616   0.957   2.933   0.753  0.7143 -0.0370 -0.1628
  405SOL     OW 1617   0.528   2.405   1.542  0.4974  0.6415 -0.0001
  405SOL    HW1 1618   0.510   2.476   1.479  0.0419  3.1653 -0.7207
  405SOL    HW2 1619   0.479   2.335   1.491 -3.5492  0.6934 -1.3829
  405SOL     MW 1620   0.519   2.405   1.527 -0.0966  0.9813 -0.2777
  406SOL     OW 1621   0.367   2.400   1.075 -0.0695  0.0766 -0.1053
  406SOL    HW1 1622   0.272   2.405   1.090 -1.0739 -1.5465 -1.2496
  406SOL    HW2 1623   0.391   2.307   1.083  1.9392 -1.1191  0.0618
  406SOL     MW 1624   0.357   2.389   1.078  0.0630 -0.2953 -0.2342
  407SOL     OW 1625   0.001   2.655   1.143  0.4314  0.2219 -0.0272
  407SOL    HW1 1626   0.053   2.646   1.228  1.1051 -0.7398  1.3353
  407SOL    HW2 1627   0.057   2.704   1.083 -2.1833 -1.8324  0.3516
  407SOL     MW 1628   0.016   2.660   1.147  0.1753 -0.1760  0.2026
  408SOL     OW 1629   2.177   2.168   0.650 -0.1738  0.5439 -0.7454
  408SOL    HW1 1630   2.163   2.176   0.741  0.2217 -1.7480 -0.4039
  408SOL    HW2 1631   2.107   2.103   0.627  1.9821 -0.0395  2.1627
  408SOL     MW 1632   2.166   2.161   0.659  0.1628  0.1645 -0.3166
  409SOL     OW 1633   1.442   0.147   0.936 -0.5282  0.1832  0.3733
  409SOL    HW1 1634   1.523   0.197   0.953  0.6040  1.6068 -0.7226
  409SOL    HW2 1635   1.438   0.077   1.001 -0.9853 -0.4621 -1.6052
  409SOL     MW 1636   1.452   0.144   0.947 -0.4391  0.2859 -0.0324
  410SOL     OW 1637   1.115   2.454   1.110 -0.0701 -0.3890 -0.2045
  410SOL    HW1 1638   1.053   2.461   1.041  0.4596 -1.3231  0.1274
  410SOL    HW2 1639   1.170   2.378   1.071  1.1333 -2.0126 -0.9106
  410SOL     MW 1640   1.114   2.445   1.095  0.1586 -0.7264 -0.2538
  411SOL     OW 1641   1.976   0.080   2.873 -0.3169  0.0955 -0.5337
  411SOL    HW1 1642   1.916   0.038   2.814 -1.5659 -0.3586 -0.9267
  411SOL    HW2 1643   1.920   0.110   2.939  2.0110  0.5882 -0.3329
  411SOL     MW 1644   1.961   0.078   2.874 -0.1746  0.1006 -0.5591
  412SOL     OW 1645   1.034   2.254   0.586  0.2419 -0.0626 -0.4387
  412SOL    HW1 1646   1.048   2.319   0.654  0.7417 -0.3705  0.9994
  412SOL    HW2 1647   0.952   2.294   0.539  2.3084  2.6180 -0.5833
  412SOL     MW 1648   1.025   2.267   0.588  0.5805  0.2505 -0.2681
  413SOL     OW 1649   0.588   2.732   3.062 -0.0934  0.1084  0.2762
  413SOL    HW1 1650   0.654   2.667   3.110  3.2870 -3.9379 -0.7971
  413SOL    HW2 1651   0.634   2.758   2.981 -3.0444 -2.8875  2.0852
  413SOL     MW 1652   0.603   2.727   3.057 -0.0368 -0.8207  0.3733
  414SOL     OW 1653   1.905   2.973   1.076 -0.4702  0.4865  0.5093
  414SOL    HW1 1654   1.844   3.041   1.102 -0.7574  1.5589  0.7928
  414SOL    HW2 1655   1.947   3.008   0.997 -0.4252 -0.1994  0.8895
  414SOL     MW 1656   1.902   2.986   1.069 -0.5022  0.5375  0.5969
  415SOL     OW 1657   1.835   2.671   1.079  0.6213  0.8955 -0.3400
  415SOL    HW1 1658   1.825   2.670   1.177 -2.0179  0.9487  1.0724
  415SOL    HW2 1659   1.852   2.763   1.068 -0.2653  1.2340  0.1068
  415SOL     MW 1660   1.836   2.683   1.091  0.1561  0.9472 -0.0947
  416SOL     OW 1661   0.554   1.986   1.365 -0.4503  0.6241 -0.6093
  416SOL    HW1 1662   0.521   2.058   1.308 -1.1870  1.0480  0.9317
  416SOL    HW2 1663   0.499   1.914   1.350 -0.2216  0.6568  1.5370
  416SOL     MW 1664   0.542   1.986   1.355 -0.5173  0.6843 -0.1228
  417SOL     OW 1665   0.988   3.055   2.063 -0.1089 -0.4217 -0.3006
  417SOL    HW1 1666   0.938   3.071   2.139  0.0663 -0.9941 -2.8489
  417SOL    HW2 1667   0.934   2.989   2.005 -3.7115 -1.0597  0.8777
  417SOL     MW 1668   0.974   3.048   2.066 -0.5611 -0.5814 -0.4814
  418SOL     OW 1669   0.709   2.927   0.113 -1.0235  0.3833 -0.5108
  418SOL    HW1 1670   0.786   2.909   0.056 -0.9966 -0.3179 -0.2426
  418SOL    HW2 1671   0.641   2.871   0.065  2.7371 -2.2503 -1.1411
  418SOL     MW 1672   0.710   2.917   0.099 -0.5238 -0.0567 -0.5586
  419SOL     OW 1673   0.471   2.602   1.341  0.9081  0.0401  0.0598
  419SOL    HW1 1674   0.516   2.671   1.390 -1.1283 -3.9967  1.2819
  419SOL    HW2 1675   0.509   2.613   1.248 -1.1781 -2.3209 -1.2114
  419SOL     MW 1676   0.482   2.613   1.335  0.3641 -0.8040  0.0533
  420SOL     OW 1677   0.856   2.256   0.995  0.1871  0.4215  0.4812
  420SOL    HW1 1678   0.794   2.267   1.070 -1.1039 -0.6360 -1.8606
  420SOL    HW2 1679   0.869   2.335   0.939  0.7883  2.4549 -0.5558
  420SOL     MW 1680   0.850   2.268   0.998  0.0960  0.5503  0.0354
  421SOL     OW 1681   2.953   0.156   3.043 -0.3211  0.3688 -0.4567
  421SOL    HW1 1682   2.876   0.127   3.005  1.7363  0.3730  1.2005
  421SOL    HW2 1683   2.991   0.072   3.073  0.9446  2.7892 -0.6972
  421SOL     MW 1684   2.948   0.141   3.042  0.1174  0.6887 -0.2698
  422SOL     OW 1685   0.894   2.525   0.919  0.2982 -0.1562  0.8199
  422SOL    HW1 1686   0.832   2.583   0.961  0.1044  0.5078  0.9217
  422SOL    HW2 1687   0.858   2.513   0.828 -1.5896 -2.7796 -1.0808
  422SOL     MW 1688   0.881   2.531   0.913  0.0235 -0.4147  0.5826
  423SOL     OW 1689   1.449   0.080   0.470  0.3077 -0.1213  0.3662
  423SOL    HW1 1690   1.423   0.058   0.382  0.4797  0.4892 -0.4765
  423SOL    HW2 1691   1.483   0.166   0.471 -1.7067 -0.4289  0.3558
  423SOL     MW 1692   1.450   0.089   0.459  0.0646 -0.0813  0.2537
  424SOL     OW 1693   0.686   2.286   1.197 -0.1402  0.1105  0.3106
  424SOL    HW1 1694   0.598   2.241   1.171 -3.5101  1.5391 -1.2572
  424SOL    HW2 1695   0.702   2.272   1.288 -2.7326  1.9054  0.3682
  424SOL     MW 1696   0.676   2.278   1.206 -0.9269  0.5358  0.1114
  425SOL     OW 1697   1.721   2.807   2.049 -0.7164  0.1200 -0.3954
  425SOL    HW1 1698   1.747   2.788   1.961  2.2924 -2.0722  0.1831
  425SOL    HW2 1699   1.742   2.717   2.079 -1.9713  0.1568 -1.0404
  425SOL     MW 1700   1.727   2.792   2.041 -0.4850 -0.1643 -0.4042
  426SOL     OW 1701   0.828   1.690   1.966  0.5778  0.1852  0.1308
  426SOL    HW1 1702   0.779   1.716   1.888  0.1008 -0.7606 -1.6382
  426SOL    HW2 1703   0.820   1.762   2.027  2.2532  0.6504  0.4579
  426SOL     MW 1704   0.820   1.703   1.964  0.7359  0.1218 -0.0595
  427SOL     OW 1705   0.372   1.651   1.894  0.3434 -0.0476 -0.1025
  427SOL    HW1 1706   0.431   1.580   1.902 -1.1201 -0.7794 -3.6851
  427SOL    HW2 1707   0.289   1.607   1.918  0.2051 -0.5000  0.2236
  427SOL     MW 1708   0.369   1.635   1.898  0.1321 -0.2039 -0.5322
  428SOL     OW 1709   0.613   2.594   1.116  0.5012  0.1536 -0.8468
  428SOL    HW1 1710   0.696   2.582   1.158 -1.0443 -4.3393  1.5990
  428SOL    HW2 1711   0.605   2.503   1.102  0.5474 -1.2368  1.9115
  428SOL     MW 1712   0.623   2.580   1.120  0.3034 -0.6227 -0.1602
  429SOL     OW 1713   1.260   2.777   1.131 -0.0088 -0.2051  0.5948
  429SOL    HW1 1714   1.173   2.752   1.172 -0.5754  1.7491 -0.9571
  429SOL    HW2 1715   1.239   2.859   1.083  0.6748 -0.7057  0.3947
  429SOL     MW 1716   1.245   2.785   1.130  0.0066 -0.0133  0.3636
  430SOL     OW 1717   1.137   2.741   0.702  0.3266 -0.2490  0.1220
  430SOL    HW1 1718   1.161   2.651   0.722 -0.3178 -0.9518 -2.2437
  430SOL    HW2 1719   1.065   2.739   0.629 -0.8774  0.6775 -1.2395
  430SOL     MW 1720   1.131   2.729   0.695  0.0827 -0.2195 -0.3697
  431SOL     OW 1721   0.350   1.931   1.054  0.3166  0.4563 -0.4925
  431SOL    HW1 1722   0.392   1.847   1.064  1.9766 -0.4060  0.7649
  431SOL    HW2 1723   0.314   1.933   0.962 -0.3175  0.5170 -3.3466
  431SOL     MW 1724   0.351   1.921   1.043  0.4519  0.3506 -0.7031
  432SOL     OW 1725   0.070   0.035   1.240 -0.1995  0.0030  0.5291
  432SOL    HW1 1726   0.087   0.079   1.323 -0.1681  0.8922 -3.0793
  432SOL    HW2 1727   0.009  -0.041   1.249  2.4981  0.5814 -0.2587
  432SOL     MW 1728   0.064   0.031   1.252  0.1606  0.1966 -0.0509
  433SOL     OW 1729   0.610   2.812   1.505 -0.1601 -0.1536  0.0458
  433SOL    HW1 1730   0.571   2.831   1.585 -1.2897  1.2024 -0.6828
  433SOL    HW2 1731   0.702   2.814   1.514 -2.2760  0.7338 -1.1306
  433SOL     MW 1732   0.617   2.815   1.517 -0.5883  0.1424 -0.2056
  434SOL     OW 1733   1.580   2.833   1.515 -0.0121 -0.3993  0.0552
  434SOL    HW1 1734   1.492   2.879   1.529 -0.3879 -0.5425 -0.9319
  434SOL    HW2 1735   1.569   2.769   1.441 -1.6338 -4.2290  3.2931
  434SOL     MW 1736   1.567   2.830   1.507 -0.2756 -0.9235  0.3522
  435SOL     OW 1737   2.859   1.786   0.218  0.4638 -0.0709  0.0456
  435SOL    HW1 1738   2.908   1.865   0.188 -2.3068 -0.7204 -0.7318
  435SOL    HW2 1739   2.810   1.767   0.131 -2.1242  1.0335 -3.4550
  435SOL     MW 1740   2.859   1.794   0.203 -0.2432 -0.0109 -0.5188
  436SOL     OW 1741   1.348   2.688   0.432  0.5188 -0.4185  0.5412
  436SOL    HW1 1742   1.422   2.712   0.492  5.2096 -0.2117 -1.3199
  436SOL    HW2 1743   1.291   2.754   0.468  1.5098 -1.0505  1.0578
  436SOL     MW 1744   1.350   2.700   0.445  1.2684 -0.4746  0.3638
  437SOL     OW 1745   0.855   2.971   1.338  0.3971  0.4123  0.1319
  437SOL    HW1 1746   0.918   3.043   1.357 -0.1131  2.5836 -1.4845
  437SOL    HW2 1747   0.905   2.909   1.289 -0.6118  0.1003  0.6584
  437SOL     MW 1748   0.870   2.973   1.334  0.1967  0.6576 -0.0119
  438SOL     OW 1749   0.811   2.624   1.842 -0.1555 -0.5525  0.3080
  438SOL    HW1 1750   0.814   2.592   1.929 -2.0234  1.0144 -0.7053
  438SOL    HW2 1751   0.766   2.544   1.801  2.6082 -1.5106  0.0256
  438SOL     MW 1752   0.806   2.609   1.848 -0.0373 -0.4722  0.1371
  439SOL     OW 1753   1.241   2.174   0.422  0.0828 -0.1698 -0.2767
  439SOL    HW1 1754   1.173   2.203   0.485 -0.8144 -3.6147 -2.3213
  439SOL    HW2 1755   1.220   2.215   0.337  2.0116 -0.9283 -0.3354
  439SOL     MW 1756   1.229   2.184   0.419  0.2189 -0.7244 -0.5542
  440SOL     OW 1757   1.774   3.036   3.068  0.3336  0.0665 -0.0614
  440SOL    HW1 1758   1.712   3.012   3.140 -3.1670  1.6870 -1.7211
  440SOL    HW2 1759   1.851   2.986   3.086 -2.2009  2.3226  0.2606
  440SOL     MW 1760   1.776   3.027   3.080 -0.4626  0.5780 -0.2379
  441SOL     OW 1761   0.310   2.634   0.474  0.3477  0.5177  0.0648
  441SOL    HW1 1762   0.314   2.601   0.386 -0.0845 -1.2471 -1.6345
  441SOL    HW2 1763   0.350   2.723   0.481 -0.9367 -1.2246  2.2445
  441SOL     MW 1764   0.316   2.642   0.463  0.1212  0.0549  0.1282
  442SOL     OW 1765   3.090   2.419   0.615  0.5590 -0.5990 -0.2718
  442SOL    HW1 1766   3.124   2.507   0.612  1.5664  2.1285  0.5911
  442SOL    HW2 1767   3.007   2.421   0.660 -0.5484  1.9892 -0.9184
  442SOL     MW 1768   3.084   2.431   0.621  0.5458  0.1024 -0.2433
  443SOL     OW 1769   1.407   1.802   1.906  0.1149 -0.2655 -0.1723
  443SOL    HW1 1770   1.400   1.849   1.826 -1.8830 -1.2076  0.2564
  443SOL    HW2 1771   1.330   1.746   1.902 -0.4938 -1.8629  0.0261
  443SOL     MW 1772   1.396   1.801   1.895 -0.2290 -0.6006 -0.0896
  444SOL     OW 1773   0.866   2.556   1.537 -0.1941  0.2764 -0.5966
  444SOL    HW1 1774   0.925   2.553   1.611 -0.7494 -1.3413  2.6018
  444SOL    HW2 1775   0.800   2.491   1.566 -2.1971  0.0301 -2.1141
  444SOL     MW 1776   0.865   2.547   1.550 -0.5317  0.0305 -0.3748
  445SOL     OW 1777   1.039   0.088   1.349 -0.0425 -0.1230 -0.7268
  445SOL    HW1 1778   1.001   0.174   1.332  1.9824  0.6731  2.2674
  445SOL    HW2 1779   1.085   0.070   1.268  1.7612 -0.1073  2.7963
  445SOL     MW 1780   1.040   0.097   1.336  0.4626 -0.0159  0.1331
  446SOL     OW 1781   2.739   2.918   1.118 -0.1135 -0.0407  0.0321
  446SOL    HW1 1782   2.703   2.972   1.045  0.5895  1.9701 -0.4018
  446SOL    HW2 1783   2.783   2.837   1.080  1.8951 -1.1451  0.1223
  446SOL     MW 1784   2.740   2.914   1.103  0.2443  0.0789 -0.0132
  447SOL     OW 1785   0.082   2.017   1.650 -0.4965  0.2310  0.2581
  447SOL    HW1 1786   0.133   1.944   1.684 -0.2165 -0.1234 -2.9060
  447SOL    HW2 1787  -0.001   1.977   1.612 -1.3426 -0.3643  0.3545
  447SOL     MW 1788   0.078   2.002   1.649 -0.5712  0.1057 -0.1466
  448SOL     OW 1789   1.742   2.419   1.614  0.6635  0.2711  0.3571
  448SOL    HW1 1790   1.690   2.338   1.598  0.7738 -1.9578  0.7268
  448SOL    HW2 1791   1.689   2.492   1.583 -3.0632  1.9041  1.3079
  448SOL     MW 1792   1.728   2.418   1.608  0.1864  0.1925  0.5313
  449SOL     OW 1793   0.794   2.863   0.361  0.6722  0.4373 -0.5200
  449SOL    HW1 1794   0.732   2.881   0.285  1.1991  0.6542 -1.0448
  449SOL    HW2 1795   0.746   2.912   0.434 -0.9963  1.5757  2.3740
  449SOL     MW 1796   0.780   2.872   0.361  0.5216  0.6161 -0.2074
  450SOL     OW 1797   1.204   2.468   0.726 -0.2347 -0.5051  0.1774
  450SOL    HW1 1798   1.222   2.435   0.817  3.5017 -1.6499  3.7300
  450SOL    HW2 1799   1.283   2.440   0.684  0.4014  1.5116  2.9476
  450SOL     MW 1800   1.217   2.460   0.733  0.3422 -0.3900  1.0116
  451SOL     OW 1801   0.559   2.087   1.630 -0.4057 -0.2480 -0.2941
  451SOL    HW1 1802   0.636   2.135   1.599 -0.7500 -0.3450 -0.5467
  451SOL    HW2 1803   0.552   2.029   1.552  1.7814 -2.6824 -1.9765
  451SOL     MW 1804   0.568   2.086   1.616 -0.1626 -0.5820 -0.5494
  452SOL     OW 1805   0.287   2.705   0.004 -0.4836  0.0120  0.2308
  452SOL    HW1 1806   0.382   2.723  -0.015  0.2069 -1.5515 -1.4644
  452SOL    HW2 1807   0.220   2.747  -0.055 -0.3587  0.3952  0.4092
  452SOL     MW 1808   0.291   2.713  -0.006 -0.3760 -0.1437  0.0307
  453SOL     OW 1809   0.341   2.976   1.662 -0.2151  0.4118 -0.4855
  453SOL    HW1 1810   0.421   2.977   1.711 -2.6568  0.6278  1.2387
  453SOL    HW2 1811   0.377   2.979   1.569  2.1883  1.2793 -1.5829
  453SOL     MW 1812   0.356   2.977   1.656 -0.2202  0.5548 -0.4028
  454SOL     OW 1813   0.997   2.769   1.215 -0.2939  0.0659  0.2382
  454SOL    HW1 1814   0.986   2.672   1.218 -1.0927 -0.8128 -4.9978
  454SOL    HW2 1815   0.936   2.775   1.144  0.2615  1.1503  0.8690
  454SOL     MW 1816   0.988   2.757   1.206 -0.3260  0.0930 -0.3694
  455SOL     OW 1817   1.617   2.930   0.165  0.1196 -0.1495 -0.1993
  455SOL    HW1 1818   1.667   2.932   0.250  0.3647 -0.0377  1.0424
  455SOL    HW2 1819   1.603   2.828   0.166 -2.8663 -1.2323 -1.6903
  455SOL     MW 1820   1.622   2.917   0.176 -0.2420 -0.2776 -0.2322
  456SOL     OW 1821   2.767   0.363   1.474  0.2085 -0.1844  0.8122
  456SOL    HW1 1822   2.723   0.286   1.435 -1.1104 -2.0423 -1.5115
  456SOL    HW2 1823   2.856   0.369   1.428  1.7112 -1.2413 -1.1515
  456SOL     MW 1824   2.773   0.354   1.463  0.2327 -0.5690  0.2465
  457SOL     OW 1825   0.977   1.564   2.917  0.4178 -0.3942  0.2132
  457SOL    HW1 1826   0.893   1.552   2.968 -3.7733  0.5824  1.0919
  457SOL    HW2 1827   1.029   1.486   2.938 -0.7975 -2.5428  0.0107
  457SOL     MW 1828   0.973   1.552   2.927 -0.2955 -0.5488  0.3024
  458SOL     OW 1829   1.463   1.477   0.554 -0.4071  0.3017  0.3237
  458SOL    HW1 1830   1.405   1.552   0.552 -1.1693 -0.5608 -2.2044
  458SOL    HW2 1831   1.434   1.415   0.486 -0.2149 -0.2987 -0.8676
  458SOL     MW 1832   1.451   1.479   0.545 -0.4823  0.1087 -0.1671
  459SOL     OW 1833   1.455   0.086   0.188  0.3137 -0.0725 -0.4996
  459SOL    HW1 1834   1.453   0.005   0.139  2.8529 -1.1252  0.6823
  459SOL    HW2 1835   1.397   0.153   0.147  1.4162 -1.5407 -0.0952
  459SOL     MW 1836   1.447   0.084   0.176  0.7942 -0.4051 -0.2903
  460SOL     OW 1837   1.742   2.158   0.625 -0.3594 -0.5880 -0.1204
  460SOL    HW1 1838   1.662   2.118   0.663 -0.7868  0.1527  2.2310
  460SOL    HW2 1839   1.798   2.082   0.606 -1.7468 -1.4873 -1.3068
  460SOL     MW 1840   1.739   2.143   0.628 -0.5988 -0.6089  0.0333
  461SOL     OW 1841   0.366   2.379   0.576 -0.0436 -0.2251  0.0409
  461SOL    HW1 1842   0.331   2.463   0.544 -0.2575  0.9857 -0.7205
  461SOL    HW2 1843   0.333   2.378   0.664  1.0193  1.9470 -2.1135
  461SOL     MW 1844   0.357   2.390   0.583  0.0684  0.2213 -0.3438
  462SOL     OW 1845   0.412   0.297   1.299 -0.0955 -0.5221 -0.2992
  462SOL    HW1 1846   0.438   0.251   1.217  1.2854 -1.5066 -1.4629
  462SOL    HW2 1847   0.493   0.315   1.348 -2.1064  1.7567 -1.7763
  462SOL     MW 1848   0.426   0.293   1.294 -0.1786 -0.3513 -0.6476
  463SOL     OW 1849   0.974   0.071   0.643  0.3211  0.0069  0.2558
  463SOL    HW1 1850   0.972   0.098   0.551  1.8154  1.5197 -2.0601
  463SOL    HW2 1851   0.884   0.068   0.674  1.0527  0.8086  0.2556
  463SOL     MW 1852   0.962   0.074   0.635  0.6148  0.3123 -0.0498
  464SOL     OW 1853   0.826   3.078   2.307 -0.6223  0.1076 -0.1816
  464SOL    HW1 1854   0.792   2.989   2.292 -0.4254  2.1754 -0.0106
  464SOL    HW2 1855   0.860   3.076   2.403  0.5046 -2.2369  1.4925
  464SOL     MW 1856   0.826   3.066   2.317 -0.4476  0.0711  0.0619
  465SOL     OW 1857   0.710   0.300   0.480  0.3178 -0.1426  0.2223
  465SOL    HW1 1858   0.688   0.238   0.549  3.5606 -0.7969  0.2661
  465SOL    HW2 1859   0.692   0.245   0.402 -0.2403 -0.5167 -1.2445
  465SOL     MW 1860   0.705   0.284   0.479  0.6720 -0.2783  0.0346
  466SOL     OW 1861   1.068   2.016   0.708 -0.0182 -0.0312  0.1411
  466SOL    HW1 1862   1.031   1.941   0.663 -1.4086  0.2920  0.3897
  466SOL    HW2 1863   1.038   2.101   0.674  1.2553  1.4780  0.1610
  466SOL     MW 1864   1.059   2.017   0.697 -0.0336  0.2105  0.1765
  467SOL     OW 1865   1.225   2.277   0.926 -0.3519  0.3835 -0.0433
  467SOL    HW1 1866   1.324   2.293   0.922 -0.9230  0.3146  0.1276
  467SOL    HW2 1867   1.220   2.187   0.901 -0.4849  1.6096 -0.2760
  467SOL     MW 1868   1.237   2.267   0.922 -0.4448  0.5362 -0.0515
  468SOL     OW 1869   0.381   2.606   2.020 -0.0530 -0.6398  0.3126
  468SOL    HW1 1870   0.419   2.558   1.939  1.5867  1.9064  2.0781
  468SOL    HW2 1871   0.339   2.691   1.983 -1.7047 -1.0774  1.9292
  468SOL     MW 1872   0.380   2.611   2.004 -0.0545 -0.3616  0.7588
  469SOL     OW 1873   0.360   2.193   1.798 -0.2848  0.0255  0.0867
  469SOL    HW1 1874   0.299   2.125   1.824  0.0690  2.3497  1.6719
  469SOL    HW2 1875   0.435   2.145   1.753  2.2078 -1.1622 -0.0419
  469SOL     MW 1876   0.362   2.178   1.796  0.0908  0.1755  0.2789
  470SOL     OW 1877   3.001   2.595   0.102 -0.3371  0.0988 -0.2623
  470SOL    HW1 1878   2.937   2.546   0.160  2.1379  2.9480  1.1969
  470SOL    HW2 1879   2.970   2.623   0.016  0.3362  0.4376 -1.2389
  470SOL     MW 1880   2.988   2.592   0.099  0.0783  0.5195 -0.1986
  471SOL     OW 1881   1.164   2.699   1.459  0.9194  0.2588  0.1654
  471SOL    HW1 1882   1.104   2.704   1.534 -1.7696  0.1151  2.1126
  471SOL    HW2 1883   1.107   2.736   1.386 -1.2319  0.2761  0.4717
  471SOL     MW 1884   1.149   2.705   1.459  0.2808  0.2421  0.4627
  472SOL     OW 1885   2.879   2.119   0.371 -0.3795 -0.4474 -0.6627
  472SOL    HW1 1886   2.918   2.095   0.291  2.2326  0.0046  2.1729
  472SOL    HW2 1887   2.822   2.047   0.403 -2.2066  0.1140 -0.7647
  472SOL     MW 1888   2.876   2.106   0.364 -0.2759 -0.3137 -0.3020
  473SOL     OW 1889   0.833   2.567   1.256 -0.6147 -0.2328 -0.2377
  473SOL    HW1 1890   0.882   2.489   1.261 -1.0067  0.4306  1.0572
  473SOL    HW2 1891   0.803   2.569   1.348  0.0567  0.2047 -0.4592
  473SOL     MW 1892   0.836   2.557   1.269 -0.5778 -0.0876 -0.0961
  474SOL     OW 1893   0.872   2.110   1.794 -0.1956 -0.2070  0.1438
  474SOL    HW1 1894   0.949   2.147   1.834 -2.5422  0.4088 -2.7512
  474SOL    HW2 1895   0.875   2.142   1.701 -0.0976  0.8363  1.1639
  474SOL     MW 1896   0.882   2.119   1.787 -0.4923  0.0119 -0.1036
  475SOL     OW 1897   1.651   0.008   1.492 -0.3409 -0.1610  0.7013
  475SOL    HW1 1898   1.610   0.040   1.413  0.4853  0.1039 -3.2175
  475SOL    HW2 1899   1.641  -0.088   1.490  0.8959 -0.7511  0.6757
  475SOL     MW 1900   1.644  -0.001   1.481 -0.0687 -0.2039  0.1808
  476SOL     OW 1901   1.406   2.601   0.956  0.1142  0.2482  0.7064
  476SOL    HW1 1902   1.333   2.626   1.005  1.9920 -0.1182 -0.9065
  476SOL    HW2 1903   1.434   2.685   0.925 -0.1382 -2.4545  0.6630
  476SOL     MW 1904   1.400   2.615   0.958  0.3286 -0.1567  0.4879
  477SOL     OW 1905   0.776   2.499   0.641 -0.0975 -0.2841 -0.0259
  477SOL    HW1 1906   0.836   2.559   0.599 -0.4637 -1.0587  1.6219
  477SOL    HW2 1907   0.753   2.435   0.569 -1.4865 -2.7679  3.0889
  477SOL     MW 1908   0.781   2.499   0.625 -0.3291 -0.7140  0.6025
  478SOL     OW 1909   0.155   2.723   0.926  0.2319  0.0025 -0.4536
  478SOL    HW1 1910   0.204   2.802   0.927 -0.0148 -2.8253  1.6017
  478SOL    HW2 1911   0.220   2.649   0.903  3.1209  0.1687  3.0556
  478SOL     MW 1912   0.170   2.724   0.923  0.5805 -0.3486  0.2806
  479SOL     OW 1913   1.438   1.987   1.274  0.1948 -0.1084 -0.2207
  479SOL    HW1 1914   1.414   2.010   1.366 -3.7214 -0.3138  0.5725
  479SOL    HW2 1915   1.519   1.933   1.291 -0.1286  0.0219 -1.9924
  479SOL     MW 1916   1.445   1.983   1.288 -0.3646 -0.1183 -0.3498
  480SOL     OW 1917   1.884   2.378   1.320  0.0550  0.4546 -0.5324
  480SOL    HW1 1918   1.904   2.287   1.334  0.3866  1.0510  0.8298
  480SOL    HW2 1919   1.943   2.408   1.249  0.8586 -1.5739  0.0911
  480SOL     MW 1920   1.895   2.370   1.313  0.2048  0.2657 -0.2704
  481SOL     OW 1921   0.991   0.054   1.024  0.1633  0.3184 -0.5717
  481SOL    HW1 1922   1.037  -0.005   0.965 -0.6613 -1.0442 -2.2398
  481SOL    HW2 1923   1.043   0.130   1.042  1.7058  1.4765 -1.2154
  481SOL     MW 1924   1.004   0.056   1.019  0.2581  0.2914 -0.8767
  482SOL     OW 1925   1.029   3.015   0.279  0.1322  0.0691 -0.7165
  482SOL    HW1 1926   0.952   2.960   0.296  3.1292 -1.4944  0.9710
  482SOL    HW2 1927   0.994   3.103   0.287  0.0665  0.7262  0.9344
  482SOL     MW 1928   1.014   3.019   0.282  0.5189 -0.0505 -0.2760
  483SOL     OW 1929   0.416   2.911   0.472 -0.0498  0.0089  0.2455
  483SOL    HW1 1930   0.347   2.922   0.410 -0.6573  0.5719  1.0370
  483SOL    HW2 1931   0.381   2.959   0.548 -1.2624 -1.5238 -0.3112
  483SOL     MW 1932   0.402   2.918   0.474 -0.2899 -0.1191  0.2764
  484SOL     OW 1933   1.673   1.873   1.375  0.3716 -0.0832  0.2867
  484SOL    HW1 1934   1.718   1.958   1.377  1.5796 -0.8673  0.2231
  484SOL    HW2 1935   1.690   1.832   1.460 -1.4028 -0.3786 -0.3161
  484SOL     MW 1936   1.681   1.879   1.387  0.2969 -0.2256  0.1987
  485SOL     OW 1937   0.551   2.399   0.223  0.1471 -0.7476  0.0986
  485SOL    HW1 1938   0.570   2.350   0.310  1.8760 -1.0113 -0.1527
  485SOL    HW2 1939   0.482   2.466   0.231  0.8722 -0.9268  1.1387
  485SOL     MW 1940   0.544   2.401   0.236  0.4708 -0.8060  0.2026
  486SOL     OW 1941   0.138   2.395   1.498  0.6210  0.8297  0.2232
  486SOL    HW1 1942   0.140   2.484   1.463 -0.0659 -2.2249 -0.5693
  486SOL    HW2 1943   0.117   2.412   1.593  1.9263  1.9987  1.7683
  486SOL     MW 1944   0.135   2.409   1.506  0.7026  0.5809  0.3225
  487SOL     OW 1945   1.280   1.639   1.040 -0.0643 -0.1385  0.3513
  487SOL    HW1 1946   1.241   1.727   1.045  3.2689  0.4970 -0.9449
  487SOL    HW2 1947   1.345   1.648   0.975  2.6535  2.9750 -0.3446
  487SOL     MW 1948   1.283   1.652   1.032  0.7340  0.3562  0.0884
  488SOL     OW 1949   1.660   1.869   0.541 -0.2068 -0.2479 -0.7105
  488SOL    HW1 1950   1.731   1.850   0.480 -1.1071  0.1696  2.2176
  488SOL    HW2 1951   1.597   1.914   0.483 -0.7878 -2.3953 -1.9331
  488SOL     MW 1952   1.661   1.872   0.526 -0.4023 -0.4762 -0.4854
  489SOL     OW 1953   0.646   0.768   0.591 -0.1698  0.0857  0.7304
  489SOL    HW1 1954   0.698   0.693   0.571 -2.4772  0.9642  4.3410
  489SOL    HW2 1955   0.663   0.781   0.682 -0.5600  1.1934  1.2000
  489SOL     MW 1956   0.655   0.760   0.600 -0.5257  0.3478  1.2687
  490SOL     OW 1957   1.473   2.018   0.420  0.7199  0.0873 -0.1120
  490SOL    HW1 1958   1.508   2.067   0.343  0.4074  0.3012  2.9591
  490SOL    HW2 1959   1.391   2.071   0.437 -1.2572  0.0635 -0.1487
  490SOL     MW 1960   1.467   2.032   0.412  0.4178  0.1124  0.2883
  491SOL     OW 1961   1.207   2.937   0.475  0.3200  0.2582  0.1174
  491SOL    HW1 1962   1.275   3.000   0.478 -0.9676 -1.0521 -2.5670
  491SOL    HW2 1963   1.150   2.967   0.405  2.2059 -0.4811 -0.6694
  491SOL     MW 1964   1.208   2.949   0.466  0.3989 -0.0122 -0.3406
  492SOL     OW 1965   1.515   2.089   0.727  0.2233  0.4114  0.4993
  492SOL    HW1 1966   1.512   2.035   0.645  1.5762  0.4442  0.1670
  492SOL    HW2 1967   1.430   2.074   0.773 -2.4124 -0.1721  1.3286
  492SOL     MW 1968   1.503   2.080   0.722  0.0541  0.3387  0.5649
  493SOL     OW 1969   0.199   2.981   0.320  0.6350  0.2102 -0.1295
  493SOL    HW1 1970   0.135   3.041   0.363 -0.0591 -0.6653  0.0017
  493SOL    HW2 1971   0.215   3.001   0.225  0.5623  0.6442 -1.0460
  493SOL     MW 1972   0.192   2.992   0.313  0.5338  0.1519 -0.2331
  494SOL     OW 1973   0.439   2.470   1.796 -0.0087 -0.2258  0.3286
  494SOL    HW1 1974   0.414   2.378   1.818 -1.6369  0.7925  1.6497
  494SOL    HW2 1975   0.446   2.469   1.705  1.4387  0.0441 -0.3080
  494SOL     MW 1976   0.437   2.458   1.787 -0.0326 -0.0558  0.4189
  495SOL     OW 1977   2.918   1.687   2.600 -0.7528 -0.0193 -0.1511
  495SOL    HW1 1978   2.914   1.780   2.585  0.2543 -0.5987 -2.6716
  495SOL    HW2 1979   2.909   1.689   2.694  2.3516  0.8156 -2.7708
  495SOL     MW 1980   2.916   1.700   2.610 -0.2104  0.0144 -0.8293
  496SOL     OW 1981   2.887   2.318   2.688  0.3016 -0.4481 -0.1806
  496SOL    HW1 1982   2.951   2.249   2.705  3.8056 -1.7232  1.4799
  496SOL    HW2 1983   2.958   2.387   2.661  0.5701  0.9840 -0.3713
  496SOL     MW 1984   2.905   2.318   2.686  0.7993 -0.4274  0.0133
  497SOL     OW 1985   1.585   2.254   2.643 -0.3086 -0.1611 -0.0084
  497SOL    HW1 1986   1.517   2.201   2.602 -1.2977 -1.0225  0.9648
  497SOL    HW2 1987   1.594   2.206   2.724  1.6669 -2.1125 -1.6957
  497SOL     MW 1988   1.577   2.240   2.648 -0.1784 -0.5322 -0.1026
  498SOL     OW 1989   1.522   2.737   2.383  0.5012  0.0193  0.2606
  498SOL    HW1 1990   1.536   2.643   2.348 -3.2598 -2.6066  0.9505
  498SOL    HW2 1991   1.595   2.740   2.442  3.6604  0.4019 -1.2287
  498SOL     MW 1992   1.534   2.725   2.386  0.4218 -0.2767  0.1552
  499SOL     OW 1993   0.933   0.082   0.021  0.3947  0.1619 -0.3873
  499SOL    HW1 1994   0.868   0.098   0.090  3.5087 -4.1764  0.5775
  499SOL    HW2 1995   0.964  -0.013   0.034  1.8975  2.1264 -0.3622
  499SOL     MW 1996   0.929   0.072   0.032  1.0039 -0.1513 -0.2567
  500SOL     OW 1997   1.136   2.530   2.758  0.3108  0.8299 -0.2679
  500SOL    HW1 1998   1.164   2.462   2.820  1.7493 -0.4313 -1.6108
  500SOL    HW2 1999   1.067   2.577   2.807 -0.8303 -0.7624  2.3523
  500SOL     MW 2000   1.131   2.528   2.773  0.3500  0.4534 -0.0994
  501SOL     OW 2001   1.766   2.232   3.066  0.6204 -0.3977 -0.0491
  501SOL    HW1 2002   1.758   2.313   3.112 -2.9881  3.8932 -0.5347
  501SOL    HW2 2003   1.864   2.215   3.074  0.0571 -1.9982  1.3574
  501SOL     MW 2004   1.778   2.241   3.073  0.0700 -0.0427  0.0724
  502SOL     OW 2005   0.070   2.809   2.958  0.3627 -0.5047  0.4490
  502SOL    HW1 2006   0.026   2.732   2.927  2.8373  3.3041 -1.5249
  502SOL    HW2 2007   0.125   2.847   2.885 -2.7540  0.7514  1.9091
  502SOL     MW 2008   0.071   2.804   2.944  0.2780  0.1636  0.3812
  503SOL     OW 2009   1.097   2.675   2.062  0.1417  0.3073  0.7728
  503SOL    HW1 2010   1.181   2.670   2.021 -1.6732 -3.2982  0.7787
  503SOL    HW2 2011   1.040   2.677   1.991  1.0097  1.3854  1.6927
  503SOL     MW 2012   1.101   2.675   2.047  0.0168 -0.0261  0.8949
  504SOL     OW 2013   3.094   2.700   2.079 -0.1592 -0.2521  0.0103
  504SOL    HW1 2014   3.147   2.620   2.072  0.3678 -0.3427 -0.2103
  504SOL    HW2 2015   3.005   2.664   2.054 -2.0835  3.7510 -1.6887
  504SOL     MW 2016   3.089   2.684   2.074 -0.3435  0.2641 -0.2430
  505SOL     OW 2017   1.688   2.617   2.843  1.2153 -0.2728  0.7578
  505SOL    HW1 2018   1.726   2.607   2.758 -0.6407  0.7274  1.2771
  505SOL    HW2 2019   1.646   2.701   2.840  1.8102 -0.3683  2.8608
  505SOL     MW 2020   1.687   2.627   2.831  1.0489 -0.1535  1.1038
  506SOL     OW 2021   1.586   3.091   2.863 -0.5634  0.0707  0.1686
  506SOL    HW1 2022   1.645   3.046   2.924 -0.7694  2.9858  2.1555
  506SOL    HW2 2023   1.643   3.097   2.784 -2.1014 -0.6804  1.7461
  506SOL     MW 2024   1.601   3.086   2.860 -0.7935  0.3562  0.6389
  507SOL     OW 2025   0.897   2.658   2.845 -0.5590 -0.0892 -0.2094
  507SOL    HW1 2026   0.912   2.731   2.787  1.4018  1.3573  2.9446
  507SOL    HW2 2027   0.805   2.639   2.840  0.1844 -4.0693 -1.4400
  507SOL     MW 2028   0.887   2.665   2.837 -0.2022 -0.4235  0.0444
  508SOL     OW 2029   1.157   2.106   2.501 -0.3362 -0.5113 -0.0919
  508SOL    HW1 2030   1.223   2.089   2.567 -1.7747  0.4977 -1.4870
  508SOL    HW2 2031   1.104   2.170   2.558 -3.1051  2.2596  2.1088
  508SOL     MW 2032   1.159   2.112   2.517 -0.8913 -0.0126  0.0144
  509SOL     OW 2033   0.619   2.607   2.750  0.2217  0.0042 -0.1163
  509SOL    HW1 2034   0.653   2.578   2.663  1.7653  1.4264  0.9962
  509SOL    HW2 2035   0.523   2.589   2.756 -1.2456 -1.2279 -0.8323
  509SOL     MW 2036   0.611   2.601   2.739  0.2318  0.0293 -0.0640
  510SOL     OW 2037   1.493   2.606   1.673  0.0319  0.1467 -0.5378
  510SOL    HW1 2038   1.526   2.683   1.637 -1.4920  2.4209 -1.4708
  510SOL    HW2 2039   1.444   2.628   1.755 -0.5127 -0.4691  0.0604
  510SOL     MW 2040   1.491   2.619   1.679 -0.2411  0.3655 -0.5820
  511SOL     OW 2041   0.424   2.623   2.442 -0.1821 -0.1162  0.4597
  511SOL    HW1 2042   0.517   2.589   2.473 -2.6606  1.2929 -1.7877
  511SOL    HW2 2043   0.430   2.645   2.350 -0.0154 -0.0134  1.4864
  511SOL     MW 2044   0.437   2.621   2.434 -0.4871  0.0833  0.2986
  512SOL     OW 2045   0.977   2.047   2.810 -0.2799  0.3417 -0.1658
  512SOL    HW1 2046   0.907   2.107   2.854 -3.5215  0.2978  0.7081
  512SOL    HW2 2047   0.986   1.966   2.859 -0.5666  0.4827 -2.1765
  512SOL     MW 2048   0.969   2.044   2.822 -0.7454  0.3545 -0.3158
  513SOL     OW 2049   1.590   2.484   2.264 -0.4474 -0.2140 -0.0105
  513SOL    HW1 2050   1.627   2.478   2.178 -0.6389 -0.8285  0.4696
  513SOL    HW2 2051   1.660   2.476   2.329 -1.7099  0.6233  1.8466
  513SOL     MW 2052   1.604   2.482   2.262 -0.6392 -0.1846  0.2979
  514SOL     OW 2053   0.237   2.507   2.630  0.7079  0.3126 -0.0147
  514SOL    HW1 2054   0.299   2.571   2.595  0.4601 -3.5195 -0.8425
  514SOL    HW2 2055   0.278   2.474   2.711  0.0658 -3.2698  1.8666
  514SOL     MW 2056   0.250   2.511   2.636  0.5905 -0.6657  0.1243
  515SOL     OW 2057   1.145   2.013   2.049 -0.3007  0.0775  0.0108
  515SOL    HW1 2058   1.130   2.096   1.995  1.6314  2.1722 -2.4098
  515SOL    HW2 2059   1.232   2.013   2.081 -1.3224  0.1526  1.1918
  515SOL     MW 2060   1.154   2.024   2.046 -0.1806  0.3637 -0.1527
  516SOL     OW 2061   1.479   2.501   0.011  0.3154  0.8688 -0.0439
  516SOL    HW1 2062   1.488   2.453  -0.073 -0.6634 -0.5930  2.6616
  516SOL    HW2 2063   1.412   2.566  -0.009 -1.4329  0.7173  0.2405
  516SOL     MW 2064   1.471   2.503  -0.002 -0.0444  0.6560  0.3506
  517SOL     OW 2065   0.557   2.428   2.136  0.5568  0.5729 -1.0568
  517SOL    HW1 2066   0.526   2.517   2.122  0.1943  2.1033  1.2764
  517SOL    HW2 2067   0.478   2.375   2.103 -3.2381 -1.7079 -0.9388
  517SOL     MW 2068   0.542   2.433   2.130  0.0082  0.4739 -0.7334
  518SOL     OW 2069   1.759   0.198   3.072 -0.7813  0.1999 -0.4702
  518SOL    HW1 2070   1.736   0.211   3.165 -0.1839 -1.1130  3.8294
  518SOL    HW2 2071   1.735   0.102   3.061  2.6310 -1.6907 -1.2483
  518SOL     MW 2072   1.753   0.187   3.083 -0.2522 -0.2228 -0.0056
  519SOL     OW 2073   0.720   2.385   1.774  0.3451 -0.6686  0.4139
  519SOL    HW1 2074   0.756   2.300   1.759 -1.2496 -0.2259  0.2641
  519SOL    HW2 2075   0.625   2.386   1.747 -1.2269 -1.4788 -2.1834
  519SOL     MW 2076   0.712   2.374   1.769 -0.0727 -0.7171  0.0515
  520SOL     OW 2077   1.175   2.124   2.974  1.0061  0.0373 -0.0765
  520SOL    HW1 2078   1.108   2.062   2.940  0.9850  0.1702 -2.2054
  520SOL    HW2 2079   1.224   2.081   3.048  0.6016  2.3785 -0.3082
  520SOL     MW 2080   1.172   2.110   2.979  0.9499  0.3637 -0.3880
  521SOL     OW 2081   1.730   2.027   2.159  0.3779  0.3287 -0.2825
  521SOL    HW1 2082   1.747   2.075   2.073 -1.7018  1.9398  0.8891
  521SOL    HW2 2083   1.662   1.962   2.139  0.7047  0.3431  1.8919
  521SOL     MW 2084   1.723   2.025   2.145  0.1466  0.5432  0.1589
  522SOL     OW 2085   2.873   2.527   2.229 -0.2191  0.4976 -0.0533
  522SOL    HW1 2086   2.946   2.467   2.226  1.6578  0.2983 -1.4019
  522SOL    HW2 2087   2.900   2.596   2.279 -1.5695 -2.5444  0.1292
  522SOL     MW 2088   2.886   2.528   2.235 -0.1496  0.0699 -0.2072
  523SOL     OW 2089   0.960   1.575   2.177  0.5384 -0.7694  0.2267
  523SOL    HW1 2090   0.894   1.601   2.111 -1.1624  1.1143  1.6464
  523SOL    HW2 2091   1.001   1.498   2.144  0.9436 -1.1272  0.4954
  523SOL     MW 2092   0.956   1.568   2.164  0.3675 -0.5681  0.4495
  524SOL     OW 2093   0.696   2.435   2.951  0.1311  0.3889 -0.4686
  524SOL    HW1 2094   0.690   2.477   2.867  1.5121 -2.1677  2.5791
  524SOL    HW2 2095   0.743   2.344   2.939 -0.4991  0.6740  0.2296
  524SOL     MW 2096   0.701   2.428   2.938  0.2301  0.0892  0.0256
  525SOL     OW 2097   0.365   2.277   2.072 -0.7669  0.7683  0.0975
  525SOL    HW1 2098   0.354   2.214   2.145 -1.0155 -2.8150  2.7630
  525SOL    HW2 2099   0.366   2.222   1.988  0.7183 -0.4518  0.5072
  525SOL     MW 2100   0.364   2.262   2.071 -0.6037  0.1345  0.5032
  526SOL     OW 2101   0.683   2.011   1.956 -0.6389  0.5700  0.3504
  526SOL    HW1 2102   0.727   2.057   1.886 -0.5700 -0.7862 -1.0955
  526SOL    HW2 2103   0.679   2.082   2.022  0.8278  1.0485 -1.9096
  526SOL     MW 2104   0.689   2.026   1.956 -0.4363  0.4542 -0.1386
  527SOL     OW 2105   1.444   2.017   2.084  0.0551  0.1667  0.6732
  527SOL    HW1 2106   1.425   2.006   2.176 -0.6578 -1.8560 -1.0935
  527SOL    HW2 2107   1.415   1.931   2.052  0.5295  1.4869 -1.8444
  527SOL     MW 2108   1.438   2.004   2.092  0.0236  0.0740  0.1079
  528SOL     OW 2109   0.703   2.880   2.851 -0.6704  0.9518 -0.0299
  528SOL    HW1 2110   0.720   2.968   2.888  0.3814  0.8718 -1.7907
  528SOL    HW2 2111   0.628   2.896   2.791  0.1313  1.8789 -0.4927
  528SOL     MW 2112   0.696   2.894   2.848 -0.4259  1.0636 -0.3233
  529SOL     OW 2113   1.099   2.248   1.879  0.2684 -0.0737 -0.1315
  529SOL    HW1 2114   1.054   2.287   1.960 -0.2100  2.0166 -0.7633
  529SOL    HW2 2115   1.101   2.326   1.822 -1.1908 -3.5053  2.1785
  529SOL     MW 2116   1.093   2.263   1.882  0.0128 -0.2507  0.0899
  530SOL     OW 2117   1.149   2.388   2.990  0.0518 -0.3132  0.5201
  530SOL    HW1 2118   1.069   2.407   3.034  2.3225  0.5334  3.8524
  530SOL    HW2 2119   1.148   2.292   2.983 -1.9958 -0.8739  2.0442
  530SOL     MW 2120   1.138   2.378   2.995  0.0813 -0.2755  1.1609
  531SOL     OW 2121   0.894   1.871   2.578 -0.3189 -0.1295  0.0143
  531SOL    HW1 2122   0.889   1.936   2.653 -0.3926  0.3624 -0.8813
  531SOL    HW2 2123   0.856   1.793   2.619  0.3985  0.4951  1.6227
  531SOL     MW 2124   0.888   1.869   2.594 -0.2340  0.0178  0.1083
  532SOL     OW 2125   1.755   0.316   2.840  0.3721 -0.6181 -0.1047
  532SOL    HW1 2126   1.750   0.260   2.921 -0.3392  0.9343  0.3996
  532SOL    HW2 2127   1.835   0.363   2.848 -3.0024  0.2592  0.9474
  532SOL     MW 2128   1.765   0.315   2.852 -0.1670 -0.2975  0.1006
  533SOL     OW 2129   1.915   2.643   3.011 -0.3584 -0.5576  0.2256
  533SOL    HW1 2130   1.905   2.594   3.091  0.4318  0.4679  1.5205
  533SOL    HW2 2131   1.840   2.629   2.963  1.5510  0.1755  2.8897
  533SOL     MW 2132   1.904   2.635   3.015 -0.0022 -0.3256  0.7479
  534SOL     OW 2133   1.766   2.413   2.485 -0.0864  0.3825  0.3222
  534SOL    HW1 2134   1.692   2.357   2.517 -0.3645  0.5674  1.6002
  534SOL    HW2 2135   1.841   2.412   2.546 -2.8359  0.2225 -0.2336
  534SOL     MW 2136   1.766   2.405   2.497 -0.4859  0.3858  0.4175
  535SOL     OW 2137   1.903   2.361   1.838  0.2633 -0.1076 -0.1108
  535SOL    HW1 2138   1.865   2.418   1.771  0.9255  0.3556  1.4983
  535SOL    HW2 2139   2.000   2.382   1.832 -0.8245  1.6318 -0.4019
  535SOL     MW 2140   1.911   2.371   1.828  0.2072  0.1830  0.0631
  536SOL     OW 2141   0.438   1.853   2.050  0.0139  0.5970 -0.0603
  536SOL    HW1 2142   0.405   1.793   1.979  0.8889 -0.2110  3.5387
  536SOL    HW2 2143   0.523   1.884   2.032 -2.3377  0.1460 -0.2434
  536SOL     MW 2144   0.445   1.849   2.038 -0.1809  0.4309  0.3904
  537SOL     OW 2145   1.033   0.201   2.855  0.4460  0.3950 -0.0972
  537SOL    HW1 2146   1.013   0.280   2.903 -0.4432  3.3383 -0.2832
  537SOL    HW2 2147   1.069   0.244   2.772  0.8415  0.0506 -1.7200
  537SOL     MW 2148   1.035   0.217   2.850  0.3809  0.7379 -0.3359
  538SOL     OW 2149   1.366   0.059   3.000  0.2561  0.6349  0.4326
  538SOL    HW1 2150   1.353   0.152   2.985 -0.1324 -0.6672 -0.1900
  538SOL    HW2 2151   1.450   0.034   2.954 -0.5809 -1.0006  1.2655
  538SOL     MW 2152   1.375   0.068   2.992  0.0944  0.2473  0.4603
  539SOL     OW 2153   0.743   2.781   2.508 -0.0208  0.4667 -0.6293
  539SOL    HW1 2154   0.820   2.796   2.565 -2.5511  1.2829 -0.1859
  539SOL    HW2 2155   0.741   2.685   2.489  0.5990  0.4457 -0.0394
  539SOL     MW 2156   0.753   2.770   2.513 -0.2729  0.5716 -0.4929
  540SOL     OW 2157   0.419   2.427   2.850  0.2648  0.4600  0.2828
  540SOL    HW1 2158   0.508   2.402   2.876  1.0038  1.3775 -1.8328
  540SOL    HW2 2159   0.358   2.414   2.923 -0.0213  3.1815  0.5731
  540SOL     MW 2160   0.422   2.422   2.863  0.3246  0.9401  0.0420
  541SOL     OW 2161   0.189   2.924   2.196 -0.0229 -0.6902 -0.5170
  541SOL    HW1 2162   0.183   2.845   2.148 -1.7031  1.6443 -0.0288
  541SOL    HW2 2163   0.227   2.896   2.277  1.2259 -1.2791  0.3060
  541SOL     MW 2164   0.193   2.910   2.201 -0.0798 -0.4599 -0.3440
  542SOL     OW 2165   1.013   2.279   2.660 -0.0444 -0.2332  0.4912
  542SOL    HW1 2166   0.996   2.198   2.714  0.4029 -1.3254 -3.4946
  542SOL    HW2 2167   1.058   2.343   2.715  3.9680 -0.5414  1.9020
  542SOL     MW 2168   1.017   2.277   2.674  0.5440 -0.4180  0.1515
  543SOL     OW 2169   1.475   2.437   2.852  0.4678 -0.0584  0.0828
  543SOL    HW1 2170   1.480   2.371   2.782  0.6907 -4.0119  0.9801
  543SOL    HW2 2171   1.551   2.502   2.834  1.1791  2.0611 -0.2087
  543SOL     MW 2172   1.486   2.437   2.840  0.5911 -0.3004  0.1627
  544SOL     OW 2173   0.722   0.204   2.767  0.3724 -0.4599  0.3761
  544SOL    HW1 2174   0.637   0.202   2.726 -2.3492 -1.8772 -1.4134
  544SOL    HW2 2175   0.767   0.152   2.700 -0.8780 -1.4484 -0.2837
  544SOL     MW 2176   0.717   0.197   2.753 -0.1517 -0.7773  0.0530
  545SOL     OW 2177   1.589   2.197   2.317  0.0500  0.0005  0.3074
  545SOL    HW1 2178   1.579   2.282   2.273 -1.7603 -0.6620 -1.1735
  545SOL    HW2 2179   1.653   2.148   2.267  2.0209  4.3532  0.5242
  545SOL     MW 2180   1.596   2.202   2.305  0.0712  0.4874  0.1406
  546SOL     OW 2181   3.030   1.991   0.117  0.2739 -0.0712  0.2579
  546SOL    HW1 2182   3.010   2.065   0.058 -0.1920  1.6024 -0.6057
  546SOL    HW2 2183   3.103   1.941   0.075  1.8970 -0.9013 -0.6098
  546SOL     MW 2184   3.037   1.994   0.104  0.4266  0.0401  0.0295
  547SOL     OW 2185   0.252   3.053   0.069 -0.4996 -0.0574 -0.9277
  547SOL    HW1 2186   0.321   3.083   0.014 -3.7891  0.7314  3.2451
  547SOL    HW2 2187   0.193   3.005   0.011 -5.2565  1.8670 -1.7298
  547SOL     MW 2188   0.253   3.050   0.054 -1.5613  0.3005 -0.4829
  548SOL     OW 2189   0.297   2.512   0.200  0.1624 -0.0074 -0.0027
  548SOL    HW1 2190   0.293   2.590   0.135  1.1944  0.1538 -0.0026
  548SOL    HW2 2191   0.224   2.453   0.169 -1.4830  1.0491  0.9688
  548SOL     MW 2192   0.287   2.514   0.187  0.0815  0.1533  0.1255
  549SOL     OW 2193   0.862   1.889   2.152 -0.3069  0.0179 -0.2875
  549SOL    HW1 2194   0.811   1.939   2.090  3.9091  1.2948  1.0463
  549SOL    HW2 2195   0.794   1.858   2.218  0.2780 -1.4328  1.0527
  549SOL     MW 2196   0.846   1.891   2.152  0.3265 -0.0051  0.0653
  550SOL     OW 2197   1.777   1.736   2.607 -0.2081 -0.3039  0.0363
  550SOL    HW1 2198   1.797   1.749   2.512  1.5509 -1.8645 -1.6968
  550SOL    HW2 2199   1.764   1.825   2.630 -0.0248 -0.9804  2.4749
  550SOL     MW 2200   1.778   1.750   2.597  0.0481 -0.5991  0.1294
  551SOL     OW 2201   0.838   2.271   0.210 -0.3316  0.5976 -0.3462
  551SOL    HW1 2202   0.929   2.275   0.177  0.1823 -0.7285 -0.7027
  551SOL    HW2 2203   0.810   2.199   0.154  0.5605  1.2037  0.0597
  551SOL     MW 2204   0.846   2.262   0.198 -0.1461  0.5026 -0.3397
  552SOL     OW 2205   1.764   1.684   2.339 -0.4824 -0.1561 -0.6309
  552SOL    HW1 2206   1.669   1.700   2.331  1.9778 -0.9098  0.5024
  552SOL    HW2 2207   1.817   1.628   2.271 -1.0713  1.0358 -2.1215
  552SOL     MW 2208   1.758   1.679   2.329 -0.2355 -0.0983 -0.6780
  553SOL     OW 2209   1.254   2.322   1.483 -0.0084  0.0547  0.1969
  553SOL    HW1 2210   1.304   2.243   1.501 -1.8826  1.7687  1.9398
  553SOL    HW2 2211   1.321   2.389   1.464  2.5512 -2.2679 -2.2346
  553SOL     MW 2212   1.270   2.321   1.483  0.0820 -0.0256  0.1060
  554SOL     OW 2213   0.530   2.915   2.636 -0.2004  0.3629  0.0358
  554SOL    HW1 2214   0.537   2.986   2.565 -0.4015 -1.4188  0.0008
  554SOL    HW2 2215   0.600   2.853   2.611 -0.1680 -0.9715 -0.7374
  554SOL     MW 2216   0.540   2.916   2.623 -0.2227 -0.0482 -0.0708
  555SOL     OW 2217   0.694   2.492   2.515 -0.4262 -0.2687 -0.2577
  555SOL    HW1 2218   0.647   2.406   2.527 -0.0586  0.5047 -0.9332
  555SOL    HW2 2219   0.781   2.455   2.475  2.4760 -3.2761 -1.7693
  555SOL     MW 2220   0.699   2.476   2.512  0.0052 -0.5635 -0.5463
  556SOL     OW 2221   0.965   1.874   0.134  0.4438  0.0301 -0.4225
  556SOL    HW1 2222   1.022   1.903   0.064 -1.9749  2.0154 -0.0341
  556SOL    HW2 2223   1.016   1.886   0.216 -0.8632  1.2256  2.7220
  556SOL     MW 2224   0.979   1.879   0.136 -0.0477  0.4498  0.0436
  557SOL     OW 2225   0.950   2.697   0.513  0.1199  0.0174 -0.1211
  557SOL    HW1 2226   1.004   2.634   0.464 -1.7695  2.0670  2.0793
  557SOL    HW2 2227   0.891   2.744   0.448 -2.6282 -0.0091 -1.7935
  557SOL     MW 2228   0.949   2.694   0.498 -0.4920  0.2843 -0.0514
  558SOL     OW 2229   0.224   2.333   3.015 -0.5439  0.0750 -0.1207
  558SOL    HW1 2230   0.187   2.278   2.948 -0.6432  1.0148 -1.4675
  558SOL    HW2 2231   0.168   2.341   3.096 -0.8120  0.4201  1.2633
  558SOL     MW 2232   0.212   2.327   3.017 -0.5924  0.2445 -0.1158
  559SOL     OW 2233   0.966   2.346   2.113  0.2593 -0.1005  0.2412
  559SOL    HW1 2234   1.007   2.406   2.177  0.7753  0.0282 -2.8579
  559SOL    HW2 2235   0.986   2.259   2.163 -2.4351  0.5932 -1.0255
  559SOL     MW 2236   0.974   2.343   2.128 -0.0282  0.0080 -0.3348
  560SOL     OW 2237   1.987   2.882   0.028  0.0614  0.4593 -0.2093
  560SOL    HW1 2238   2.055   2.892  -0.040  0.7116 -0.6072  2.9955
  560SOL    HW2 2239   1.954   2.792   0.008 -2.2951 -0.3938  0.3152
  560SOL     MW 2240   1.991   2.872   0.016 -0.1637  0.2060  0.2828
  561SOL     OW 2241   0.418   2.208   0.080 -0.2457 -0.2221 -0.9513
  561SOL    HW1 2242   0.364   2.246   0.005 -0.5387  0.9363 -0.3018
  561SOL    HW2 2243   0.466   2.277   0.133  0.9965 -1.3427 -0.1075
  561SOL     MW 2244   0.417   2.222   0.077 -0.1205 -0.2171 -0.7543
  562SOL     OW 2245   0.674   2.179   2.180  0.2296 -0.2069  0.3366
  562SOL    HW1 2246   0.653   2.271   2.170 -1.9611 -0.4282  0.8934
  562SOL    HW2 2247   0.772   2.182   2.205  2.0855  3.4241  0.7590
  562SOL     MW 2248   0.684   2.191   2.182  0.1854  0.2430  0.4658
  563SOL     OW 2249   1.207   0.307   0.564  0.6518  0.2403  0.3184
  563SOL    HW1 2250   1.126   0.282   0.512  2.2795 -1.4751  0.0424
  563SOL    HW2 2251   1.237   0.226   0.604 -0.2166 -1.0523  0.4006
  563SOL     MW 2252   1.200   0.293   0.562  0.7519 -0.1566  0.2928
  564SOL     OW 2253   1.103   2.529   2.294  0.5068 -0.4445  0.0675
  564SOL    HW1 2254   1.097   2.603   2.235  0.7308 -0.7034  0.5974
  564SOL    HW2 2255   1.130   2.572   2.384  2.0890 -0.7012  0.0779
  564SOL     MW 2256   1.105   2.545   2.298  0.7451 -0.5125  0.1388
  565SOL     OW 2257   2.837   2.723   2.650 -0.3044  0.1261 -0.2157
  565SOL    HW1 2258   2.869   2.813   2.652  1.6935  0.0506  0.0529
  565SOL    HW2 2259   2.778   2.730   2.570  2.3366  1.7011 -0.5533
  565SOL     MW 2260   2.833   2.736   2.640  0.3077  0.3239 -0.2248
  566SOL     OW 2261   2.167   1.851   2.331 -0.5300  0.0810  0.6282
  566SOL    HW1 2262   2.180   1.824   2.242 -1.4820  0.5666  0.2945
  566SOL    HW2 2263   2.204   1.937   2.349  0.4004 -3.2965 -0.5194
  566SOL     MW 2264   2.173   1.859   2.321 -0.5329 -0.3006  0.4327
  567SOL     OW 2265   1.191   2.923   2.983  0.0692 -0.5317  0.8144
  567SOL    HW1 2266   1.248   2.994   3.014 -0.8749 -1.0355 -2.5566
  567SOL    HW2 2267   1.254   2.847   2.991 -1.8600  3.0237  1.0928
  567SOL     MW 2268   1.207   2.922   2.988 -0.3099 -0.1291  0.4063
  568SOL     OW 2269   1.567   2.105   2.883  0.1988  0.5075  0.0248
  568SOL    HW1 2270   1.641   2.148   2.929 -0.3578  2.8099 -3.7375
  568SOL    HW2 2271   1.625   2.042   2.829  2.3187 -1.5524 -2.4115
  568SOL     MW 2272   1.584   2.102   2.882  0.4050  0.5395 -0.7930
  569SOL     OW 2273   0.176   2.271   2.456  0.2924 -0.0408  0.1089
  569SOL    HW1 2274   0.111   2.292   2.390  1.4126  1.2981 -0.0960
  569SOL    HW2 2275   0.192   2.361   2.488 -0.8730 -0.5736 -0.9690
  569SOL     MW 2276   0.169   2.286   2.452  0.2865  0.0655 -0.0604
  570SOL     OW 2277   1.456   0.384   0.480  0.2389 -0.0128  0.3527
  570SOL    HW1 2278   1.360   0.376   0.511 -1.7507 -0.1507  2.0953
  570SOL    HW2 2279   1.503   0.413   0.558  2.2686 -2.2068 -0.1195
  570SOL     MW 2280   1.449   0.387   0.494  0.2442 -0.3205  0.5203
  571SOL     OW 2281   1.503   2.455   2.010 -0.2059 -0.0373  0.1962
  571SOL    HW1 2282   1.442   2.433   2.078 -1.4822 -1.9428 -0.2649
  571SOL    HW2 2283   1.530   2.372   1.966 -1.5490 -1.9085 -1.4552
  571SOL     MW 2284   1.499   2.441   2.013 -0.5515 -0.5356 -0.0826
  572SOL     OW 2285   1.056   2.607   0.100  0.9570 -0.3895  0.1011
  572SOL    HW1 2286   1.061   2.689   0.052 -0.6144  0.5954  0.9218
  572SOL    HW2 2287   0.956   2.611   0.121 -0.3938  1.1673  0.9329
  572SOL     MW 2288   1.043   2.618   0.096  0.5714 -0.0541  0.3191
  573SOL     OW 2289   1.109   2.280   0.206 -0.5322 -0.3375 -0.3805
  573SOL    HW1 2290   1.170   2.278   0.128 -0.9068 -0.7443 -0.8911
  573SOL    HW2 2291   1.114   2.368   0.255  0.7287  0.7276  0.8265
  573SOL     MW 2292   1.118   2.291   0.202 -0.4152 -0.2507 -0.2886
  574SOL     OW 2293   1.127   2.524   0.355  0.1118 -0.4609  0.1399
  574SOL    HW1 2294   1.209   2.563   0.375 -1.2159 -0.1103  0.9377
  574SOL    HW2 2295   1.102   2.548   0.264 -1.1717  0.5102  2.9790
  574SOL     MW 2296   1.134   2.532   0.346 -0.2327 -0.2865  0.6197
  575SOL     OW 2297  -0.004   2.220   1.803 -0.7866 -0.5695 -0.0181
  575SOL    HW1 2298   0.041   2.145   1.759 -2.1853  1.2074 -0.3116
  575SOL    HW2 2299   0.049   2.298   1.790 -0.0068 -2.8579  0.9354
  575SOL     MW 2300   0.009   2.220   1.796 -0.8682 -0.6370  0.0690
  576SOL     OW 2301   2.768   1.788   2.109  0.0776 -0.9433 -0.1839
  576SOL    HW1 2302   2.811   1.808   2.027  2.4123 -1.8094 -0.4608
  576SOL    HW2 2303   2.691   1.738   2.082  0.5825  0.5167  0.7205
  576SOL     MW 2304   2.763   1.784   2.095  0.4522 -0.8649 -0.1011
  577SOL     OW 2305   2.048   0.212   0.101  0.6932 -0.3264 -0.1649
  577SOL    HW1 2306   1.983   0.251   0.039  1.3939  1.3187  0.9906
  577SOL    HW2 2307   1.992   0.178   0.170  0.2112  2.6632  0.9548
  577SOL     MW 2308   2.032   0.213   0.102  0.7220  0.2851  0.1353
  578SOL     OW 2309   1.944   2.010   2.366  0.1651  0.3323 -0.0143
  578SOL    HW1 2310   1.871   1.972   2.307 -1.1067  2.4966 -2.4491
  578SOL    HW2 2311   2.017   1.952   2.351  0.8618  0.8857  2.8383
  578SOL     MW 2312   1.944   1.997   2.356  0.0892  0.6909  0.0408
  579SOL     OW 2313   0.912   2.376   2.407  0.0485  0.0999 -0.0584
  579SOL    HW1 2314   0.938   2.329   2.488 -0.2758  2.1342 -0.6673
  579SOL    HW2 2315   0.985   2.435   2.386 -0.7680 -0.2741  1.1601
  579SOL     MW 2316   0.925   2.378   2.415 -0.1020  0.3190  0.0220
  580SOL     OW 2317   0.920   2.908   3.038  0.0256 -0.2723  0.6815
  580SOL    HW1 2318   1.015   2.913   3.018  0.1115  1.4652  0.0931
  580SOL    HW2 2319   0.879   2.865   2.967 -0.7274  0.5272  1.7244
  580SOL     MW 2320   0.927   2.903   3.026 -0.0624  0.0625  0.7415
  581SOL     OW 2321   1.126   2.446   1.707 -0.0233  0.2297 -0.1615
  581SOL    HW1 2322   1.185   2.492   1.763 -0.6014  3.6731  1.6524
  581SOL    HW2 2323   1.177   2.390   1.643  1.2984 -2.3816 -0.6491
  581SOL     MW 2324   1.141   2.445   1.706  0.0748  0.3395  0.0135
  582SOL     OW 2325   0.047   2.791   2.601  0.2252 -0.4384 -0.0604
  582SOL    HW1 2326  -0.003   2.838   2.668  0.4126 -1.3393  2.8813
  582SOL    HW2 2327   0.130   2.837   2.587  2.8938 -2.6668  0.3041
  582SOL     MW 2328   0.052   2.803   2.608  0.6021 -0.8513  0.3758
  583SOL     OW 2329   1.987   2.404   2.644  0.0805 -0.2190  0.3651
  583SOL    HW1 2330   2.072   2.417   2.593  0.8406 -0.4900 -0.4896
  583SOL    HW2 2331   1.969   2.305   2.649  0.7126  1.7522  1.3279
  583SOL     MW 2332   1.996   2.392   2.638  0.2642  0.0054  0.3794
  584SOL     OW 2333   0.143   1.863   2.221 -0.9590 -0.1002  0.0908
  584SOL    HW1 2334   0.213   1.899   2.165 -0.9523  2.1719 -1.8255
  584SOL    HW2 2335   0.120   1.946   2.264 -0.5258 -0.8361  0.8476
  584SOL     MW 2336   0.149   1.879   2.219 -0.9009  0.1025 -0.0622
  585SOL     OW 2337   1.560   2.678   0.227  0.5679 -0.2356 -0.3727
  585SOL    HW1 2338   1.529   2.616   0.158  2.1035 -1.4050  0.6379
  585SOL    HW2 2339   1.501   2.671   0.304 -0.2700 -1.0401  3.5696
  585SOL     MW 2340   1.548   2.669   0.228  0.6600 -0.4961  0.2808
  586SOL     OW 2341   1.344   2.866   2.536  0.6061  0.4604  0.2681
  586SOL    HW1 2342   1.422   2.830   2.482 -0.2326  0.7677 -0.1340
  586SOL    HW2 2343   1.345   2.959   2.530 -1.4671 -2.5198  0.4313
  586SOL     MW 2344   1.355   2.873   2.528  0.2219  0.1077  0.2366
  587SOL     OW 2345   1.343   1.586   2.144  0.2267  0.5377 -0.7246
  587SOL    HW1 2346   1.341   1.512   2.208  0.1966  0.4438  0.8347
  587SOL    HW2 2347   1.308   1.547   2.062 -1.4558  1.0247  1.1333
  587SOL     MW 2348   1.338   1.571   2.142  0.0007  0.5896 -0.2737
  588SOL     OW 2349   1.320   2.079   2.716 -0.4831  0.3110 -0.3781
  588SOL    HW1 2350   1.364   2.002   2.691 -1.4312 -0.9271 -0.4182
  588SOL    HW2 2351   1.312   2.072   2.806 -0.2847 -1.3408 -0.6527
  588SOL     MW 2352   1.325   2.068   2.724 -0.5821 -0.0703 -0.4196
  589SOL     OW 2353   1.339   2.016   0.111  0.2979 -0.4434  0.5140
  589SOL    HW1 2354   1.379   2.098   0.148  1.9813  0.9058  1.5994
  589SOL    HW2 2355   1.289   1.981   0.188  0.4889 -3.1852  1.6784
  589SOL     MW 2356   1.338   2.022   0.126  0.5452 -0.6272  0.8108
  590SOL     OW 2357   0.495   2.770   2.206  0.4321  0.0822  0.3113
  590SOL    HW1 2358   0.481   2.725   2.124  1.4752  0.8408 -0.1547
  590SOL    HW2 2359   0.588   2.781   2.208 -1.3487 -1.6493 -1.6977
  590SOL     MW 2360   0.505   2.765   2.196  0.3348 -0.0462 -0.0152
  591SOL     OW 2361   2.244   0.632   0.006  0.0441  0.2128  0.1047
  591SOL    HW1 2362   2.170   0.662  -0.042  3.8354 -3.0267 -1.2360
  591SOL    HW2 2363   2.321   0.658  -0.034  2.3109  0.4053  1.1265
  591SOL     MW 2364   2.245   0.639  -0.006  0.8434 -0.1892  0.0626
  592SOL     OW 2365   1.771   2.954   0.782 -0.3663  0.0521 -0.4085
  592SOL    HW1 2366   1.779   3.014   0.708 -1.3429 -1.5818  1.6296
  592SOL    HW2 2367   1.860   2.915   0.787 -1.1013  0.1017  2.7990
  592SOL     MW 2368   1.783   2.957   0.773 -0.5921 -0.1569  0.2836
  593SOL     OW 2369   1.948   0.651   0.801  0.5747 -0.2439  0.1566
  593SOL    HW1 2370   1.854   0.655   0.770 -0.7690 -0.9837 -1.1814
  593SOL    HW2 2371   1.973   0.560   0.806  0.0862 -0.7023 -1.6898
  593SOL     MW 2372   1.939   0.639   0.797  0.3330 -0.4020 -0.2636
  594SOL     OW 2373   2.791   1.169   1.401 -0.3619 -0.2037  0.2034
  594SOL    HW1 2374   2.884   1.216   1.404 -0.4393  4.8346  3.0938
  594SOL    HW2 2375   2.792   1.138   1.310  0.4734  0.6252 -2.5136
  594SOL     MW 2376   2.803   1.171   1.389 -0.2619  0.5704  0.2263
  595SOL     OW 2377   0.446   1.003   0.794  0.1657 -0.6346  0.0996
  595SOL    HW1 2378   0.491   1.038   0.719 -1.5884 -1.6294  2.6690
  595SOL    HW2 2379   0.437   1.073   0.854 -1.1178  1.3460  0.8238
  595SOL     MW 2380   0.450   1.017   0.792 -0.2351 -0.5046  0.5341
  596SOL     OW 2381   2.485   1.339   0.583  0.4327  0.0965 -0.0587
  596SOL    HW1 2382   2.554   1.383   0.531 -0.1659 -2.2794 -1.2851
  596SOL    HW2 2383   2.504   1.348   0.673 -0.7486 -1.1302 -0.9948
  596SOL     MW 2384   2.496   1.346   0.588  0.1979 -0.3788 -0.3440
  597SOL     OW 2385   2.193   0.667   1.609  0.1152  0.0329  0.0017
  597SOL    HW1 2386   2.215   0.599   1.671  0.8465  0.8801  0.5368
  597SOL    HW2 2387   2.117   0.633   1.564  1.4810  1.8176  1.0472
  597SOL     MW 2388   2.186   0.654   1.611  0.3919  0.3801  0.2102
  598SOL     OW 2389   2.577   1.028   2.789 -0.9510  0.1625 -0.3670
  598SOL    HW1 2390   2.599   1.007   2.696  0.3418 -0.4261 -1.1105
  598SOL    HW2 2391   2.659   1.080   2.821 -0.3725  0.1589  2.5863
  598SOL     MW 2392   2.591   1.032   2.781 -0.7041  0.0843 -0.0754
  599SOL     OW 2393   2.965   0.381   2.053  0.2763 -0.0866 -0.5427
  599SOL    HW1 2394   3.009   0.409   2.136  1.3626 -3.1214  0.4149
  599SOL    HW2 2395   2.973   0.467   2.008  0.5018  1.4102 -1.8820
  599SOL     MW 2396   2.972   0.396   2.058  0.4493 -0.2895 -0.5931
  600SOL     OW 2397   1.865   1.599   0.861  0.2282  0.0596  0.7754
  600SOL    HW1 2398   1.917   1.647   0.930  0.1828 -2.6138  1.9868
  600SOL    HW2 2399   1.785   1.652   0.847 -0.9992  1.4537  0.1443
  600SOL     MW 2400   1.862   1.612   0.868  0.0603 -0.1092  0.8520
  601SOL     OW 2401   2.515   0.753   0.833  0.2101  0.3788 -0.1159
  601SOL    HW1 2402   2.522   0.783   0.928 -0.3808 -0.7921  2.0708
  601SOL    HW2 2403   2.446   0.691   0.821 -1.7943 -0.9297 -0.2660
  601SOL     MW 2404   2.507   0.748   0.844 -0.1323  0.0517  0.1528
  602SOL     OW 2405   2.310   1.946   0.780 -0.0819 -0.0557 -0.0278
  602SOL    HW1 2406   2.280   1.869   0.732 -0.8450 -1.7044  2.7989
  602SOL    HW2 2407   2.286   2.022   0.727 -0.4208 -0.4293 -1.0098
  602SOL     MW 2408   2.303   1.946   0.766 -0.2273 -0.3226  0.2156
  603SOL     OW 2409   0.028   1.349   1.824 -0.6002 -0.2087 -0.1637
  603SOL    HW1 2410   0.065   1.412   1.887  1.1471  1.1153 -3.2458
  603SOL    HW2 2411   0.006   1.270   1.876  1.1938 -2.0331 -0.4125
  603SOL     MW 2412   0.030   1.347   1.839 -0.1330 -0.2747 -0.6032
  604SOL     OW 2413   2.132   1.537   0.480 -0.7335 -0.0124 -0.5419
  604SOL    HW1 2414   2.144   1.448   0.512  0.5173  0.9884  0.3074
  604SOL    HW2 2415   2.054   1.576   0.509  1.2911 -0.9925  1.3854
  604SOL     MW 2416   2.123   1.531   0.488 -0.3014 -0.0097 -0.1755
  605SOL     OW 2417   2.548   1.478   0.848 -0.0228 -0.3691 -0.2131
  605SOL    HW1 2418   2.561   1.534   0.774 -3.0432 -2.6743  1.3181
  605SOL    HW2 2419   2.597   1.400   0.835 -0.7237  2.9300 -0.3974
  605SOL     MW 2420   2.556   1.475   0.836 -0.5138 -0.2379 -0.0354
  606SOL     OW 2421   2.554   1.659   2.020 -0.4812  0.7074  0.1826
  606SOL    HW1 2422   2.468   1.701   2.013  0.6059  1.4115  0.0426
  606SOL    HW2 2423   2.573   1.617   1.934 -0.7464 -0.2955 -1.0455
  606SOL     MW 2424   2.546   1.659   2.008 -0.3728  0.6679  0.0021
  607SOL     OW 2425   2.427   1.099   3.004  0.2436 -0.5987  0.5615
  607SOL    HW1 2426   2.472   1.062   2.924  2.8124 -0.4954  0.8457
  607SOL    HW2 2427   2.474   1.061   3.076 -1.6044  2.0025 -1.3423
  607SOL     MW 2428   2.439   1.089   3.003  0.3387 -0.2419  0.3478
  608SOL     OW 2429   1.855   0.279   0.574  0.1854 -0.1086 -0.2869
  608SOL    HW1 2430   1.866   0.306   0.486 -0.0005  1.5552  0.7890
  608SOL    HW2 2431   1.782   0.219   0.581 -0.2547 -0.5342  1.6527
  608SOL     MW 2432   1.846   0.275   0.563  0.1028  0.0548  0.1110
  609SOL     OW 2433   2.043   1.954   3.005 -0.2527 -0.0188  0.5104
  609SOL    HW1 2434   1.975   1.889   2.966  1.3998  0.6459  0.1821
  609SOL    HW2 2435   2.098   1.916   3.076  0.0927 -0.0689 -0.0238
  609SOL     MW 2436   2.041   1.941   3.009  0.0109  0.0623  0.3966
  610SOL     OW 2437   1.761   0.990   1.252  0.7762 -0.1732 -0.0430
  610SOL    HW1 2438   1.769   0.923   1.178 -2.1996 -0.1919 -2.4208
  610SOL    HW2 2439   1.670   1.012   1.261  1.1994  0.2628 -1.3991
  610SOL     MW 2440   1.750   0.984   1.244  0.4394 -0.1181 -0.5356
  611SOL     OW 2441   2.528   1.691   0.686 -0.3604  0.0561  0.0104
  611SOL    HW1 2442   2.557   1.784   0.693  1.2209 -1.4887 -3.5745
  611SOL    HW2 2443   2.435   1.690   0.719 -1.8138  1.7385 -2.8071
  611SOL     MW 2444   2.519   1.703   0.691 -0.3435  0.0743 -0.8343
  612SOL     OW 2445   2.871   2.889   0.386  0.0558 -0.0463 -0.4780
  612SOL    HW1 2446   2.909   2.913   0.472  0.2413  0.8832  0.2318
  612SOL    HW2 2447   2.938   2.829   0.351 -1.2207  2.8212 -1.4091
  612SOL     MW 2448   2.885   2.884   0.393 -0.0881  0.4547 -0.5072
  613SOL     OW 2449   1.460   1.025   0.895 -0.3106  0.0736  0.3586
  613SOL    HW1 2450   1.497   1.116   0.871  2.4282 -0.4842 -2.9608
  613SOL    HW2 2451   1.478   1.021   0.986 -2.1839  0.6408 -1.2749
  613SOL     MW 2452   1.467   1.037   0.904 -0.1964  0.0749 -0.2949
  614SOL     OW 2453   1.999   0.567   1.473 -0.0659 -0.4669  0.4685
  614SOL    HW1 2454   1.971   0.476   1.507 -1.2807 -3.2069  0.1922
  614SOL    HW2 2455   1.974   0.569   1.380 -0.5259 -1.2738  0.2514
  614SOL     MW 2456   1.992   0.555   1.465 -0.2868 -0.9349  0.4034
  615SOL     OW 2457   2.331   0.760   0.241 -0.3693  0.2882 -0.2303
  615SOL    HW1 2458   2.403   0.711   0.278 -3.2987  1.7087  1.6651
  615SOL    HW2 2459   2.304   0.727   0.152  0.2630 -2.8654  2.5571
  615SOL     MW 2460   2.337   0.749   0.234 -0.6724  0.0595  0.3875
  616SOL     OW 2461   2.508   0.413   1.651  0.0573 -0.0006  0.0361
  616SOL    HW1 2462   2.502   0.321   1.618 -2.2506 -2.8900  0.9370
  616SOL    HW2 2463   2.469   0.474   1.586  0.6424  1.9637 -0.4328
  616SOL     MW 2464   2.502   0.409   1.638 -0.1700 -0.1227  0.0931
  617SOL     OW 2465   2.791   0.637   1.708 -0.2428  0.1824 -0.2280
  617SOL    HW1 2466   2.703   0.648   1.753 -0.4014 -0.1565  0.2917
  617SOL    HW2 2467   2.819   0.547   1.721  2.0360  1.0606 -2.2170
  617SOL     MW 2468   2.783   0.626   1.716  0.0369  0.2536 -0.4219
  618SOL     OW 2469   2.736   0.349   1.919 -0.3597 -0.3341  0.3108
  618SOL    HW1 2470   2.669   0.419   1.936 -0.6109  0.8093  2.2565
  618SOL    HW2 2471   2.812   0.374   1.971  0.0748  0.3622 -2.2245
  618SOL     MW 2472   2.737   0.362   1.928 -0.3355 -0.0914  0.2330
  619SOL     OW 2473   2.683   0.720   0.064  0.0752  0.3458 -0.0406
  619SOL    HW1 2474   2.720   0.804   0.094  0.0238  1.0012 -1.1332
  619SOL    HW2 2475   2.652   0.689   0.145 -0.2951  0.7597  0.0350
  619SOL     MW 2476   2.684   0.727   0.078  0.0196  0.4869 -0.1748
  620SOL     OW 2477   2.210   1.049   0.922 -0.0242 -0.2326 -0.3275
  620SOL    HW1 2478   2.280   1.044   0.856 -0.0784  0.1898 -3.0112
  620SOL    HW2 2479   2.141   1.005   0.873 -0.9197  0.0672 -0.4825
  620SOL     MW 2480   2.210   1.043   0.907 -0.1495 -0.1373 -0.7021
  621SOL     OW 2481   1.562   2.209   1.916 -0.1559  0.0288  0.1052
  621SOL    HW1 2482   1.521   2.139   1.971  3.8705  1.2635 -2.3965
  621SOL    HW2 2483   1.655   2.182   1.914  0.1026 -1.4673  2.3210
  621SOL     MW 2484   1.569   2.196   1.923  0.4095 -0.0057  0.0675
  622SOL     OW 2485   2.586   0.183   0.239  0.1850  0.1708  0.4123
  622SOL    HW1 2486   2.673   0.222   0.248 -0.3826 -0.5850 -1.6673
  622SOL    HW2 2487   2.602   0.091   0.275 -0.1614 -1.0006 -0.5765
  622SOL     MW 2488   2.600   0.176   0.245  0.0644 -0.0835  0.0074
  623SOL     OW 2489   2.414   2.773   0.847  0.5782 -0.2458  0.4937
  623SOL    HW1 2490   2.465   2.851   0.847 -1.7859  1.3124 -1.7126
  623SOL    HW2 2491   2.377   2.785   0.940  2.1409 -0.3361  2.8634
  623SOL     MW 2492   2.415   2.785   0.860  0.4724 -0.0521  0.5153
  624SOL     OW 2493   2.149   1.681   3.016 -0.0743 -0.4194  0.3059
  624SOL    HW1 2494   2.127   1.597   3.042  0.0154 -1.4794 -1.3588
  624SOL    HW2 2495   2.083   1.701   2.962  2.0108 -2.7731  0.8025
  624SOL     MW 2496   2.138   1.673   3.012  0.2126 -0.8698  0.1518
  625SOL     OW 2497   2.187   1.868   1.041 -0.2059 -0.4285  0.2404
  625SOL    HW1 2498   2.262   1.834   1.096 -0.5155 -0.2654 -0.4845
  625SOL    HW2 2499   2.224   1.894   0.956  1.0438 -1.8738  1.0281
  625SOL     MW 2500   2.202   1.867   1.037 -0.0818 -0.5977  0.2487
  626SOL     OW 2501   0.283   1.696   2.414 -0.4367  0.4587  0.9248
  626SOL    HW1 2502   0.208   1.662   2.457  0.5168  1.2990  1.8865
  626SOL    HW2 2503   0.243   1.753   2.350 -0.4236  1.0965  1.1317
  626SOL     MW 2504   0.268   1.699   2.411 -0.3092  0.6537  1.0790
  627SOL     OW 2505   2.458   0.709   2.539  0.3469  0.5273 -0.2016
  627SOL    HW1 2506   2.432   0.800   2.550 -1.1074  1.6971 -3.8520
  627SOL    HW2 2507   2.421   0.686   2.455  3.6608 -0.2447 -0.9909
  627SOL     MW 2508   2.450   0.718   2.529  0.5923  0.5798 -0.7874
  628SOL     OW 2509   2.298   1.376   1.306 -0.7598  0.2621  0.7165
  628SOL    HW1 2510   2.258   1.295   1.263  1.4776  1.3925 -0.3187
  628SOL    HW2 2511   2.351   1.415   1.236 -1.6828  3.0397 -1.3506
  628SOL     MW 2512   2.300   1.370   1.291 -0.5864  0.7777  0.3072
  629SOL     OW 2513   1.853   0.542   1.237  0.3293  0.2804 -0.2379
  629SOL    HW1 2514   1.832   0.619   1.188 -1.3505 -0.8125 -1.7116
  629SOL    HW2 2515   1.769   0.492   1.233 -1.2924  0.9744  2.7352
  629SOL     MW 2516   1.839   0.545   1.230 -0.1063  0.2278 -0.0401
  630SOL     OW 2517   2.357   1.870   3.071  0.1036  0.4108 -0.3001
  630SOL    HW1 2518   2.347   1.946   3.004 -1.6963  3.9870  1.3055
  630SOL    HW2 2519   2.273   1.826   3.079  2.8040 -2.9121 -0.9339
  630SOL     MW 2520   2.345   1.874   3.063  0.2224  0.4443 -0.1719
  631SOL     OW 2521   2.066   1.771   1.545  0.0657 -0.7143  0.1725
  631SOL    HW1 2522   2.071   1.686   1.595  1.2085 -2.3794  3.6241
  631SOL    HW2 2523   2.041   1.746   1.453  0.8502 -0.3372 -2.5134
  631SOL     MW 2524   2.063   1.756   1.540  0.3200 -0.8842  0.2735
  632SOL     OW 2525   0.226   1.983   1.407  0.2321  0.0630 -0.0559
  632SOL    HW1 2526   0.159   2.006   1.475  1.0676 -1.1382  0.0465
  632SOL    HW2 2527   0.223   1.888   1.383  1.5334  2.1507  2.2826
  632SOL     MW 2528   0.217   1.974   1.413  0.5140  0.1800  0.2662
  633SOL     OW 2529   2.569   0.598   0.290 -0.1328  0.4230 -0.4212
  633SOL    HW1 2530   2.593   0.565   0.376 -0.1092  1.9113 -2.0158
  633SOL    HW2 2531   2.533   0.527   0.236  0.0445  1.3013 -4.5771
  633SOL     MW 2532   2.567   0.584   0.294 -0.1063  0.7353 -1.1799
  634SOL     OW 2533   2.667   0.028   0.656 -0.1672  0.1668  0.1926
  634SOL    HW1 2534   2.711   0.118   0.657  2.6995  0.4367 -1.5854
  634SOL    HW2 2535   2.667  -0.001   0.565  0.6535  1.8560  0.1766
  634SOL     MW 2536   2.673   0.036   0.644  0.3193  0.4253 -0.0441
  635SOL     OW 2537   2.570   0.128   1.857  0.3996  0.3315 -0.3672
  635SOL    HW1 2538   2.631   0.080   1.794 -1.8285  0.6630  0.0342
  635SOL    HW2 2539   2.621   0.211   1.882 -0.0632  1.1092  2.5874
  635SOL     MW 2540   2.584   0.133   1.852  0.0446  0.4778  0.0755
  636SOL     OW 2541   2.837   1.607   0.901  0.1919  0.0751 -0.2516
  636SOL    HW1 2542   2.761   1.619   0.957 -0.5497 -1.0738 -0.3799
  636SOL    HW2 2543   2.893   1.676   0.931  0.8252  0.4337  1.1006
  636SOL     MW 2544   2.835   1.618   0.912  0.1776 -0.0291 -0.0901
  637SOL     OW 2545   2.866   1.465   0.670  0.0675  0.0161 -1.1597
  637SOL    HW1 2546   2.898   1.551   0.638 -1.5948  0.5775  0.8381
  637SOL    HW2 2547   2.841   1.485   0.760 -0.8343  2.5879 -0.2452
  637SOL     MW 2548   2.867   1.479   0.678 -0.2708  0.4295 -0.7755
  638SOL     OW 2549   2.667   0.524   0.535 -0.2134 -0.2381 -0.5396
  638SOL    HW1 2550   2.753   0.527   0.495 -0.7848 -1.2611  1.4624
  638SOL    HW2 2551   2.684   0.553   0.627  0.9965  1.3687 -0.3887
  638SOL     MW 2552   2.680   0.529   0.542 -0.1291 -0.1611 -0.2556
  639SOL     OW 2553   1.712   0.024   0.571 -0.2832 -0.5549 -0.6365
  639SOL    HW1 2554   1.615   0.026   0.561 -3.7688  0.7084 -1.9702
  639SOL    HW2 2555   1.748  -0.032   0.499  1.9854 -0.2200  1.7073
  639SOL     MW 2556   1.704   0.017   0.561 -0.4438 -0.3440 -0.5032
  640SOL     OW 2557   0.268   1.309   0.130 -0.4121  0.0239 -0.5122
  640SOL    HW1 2558   0.306   1.312   0.041  0.8693  0.5196 -0.4357
  640SOL    HW2 2559   0.257   1.215   0.143 -0.6004  1.6283 -0.6038
  640SOL     MW 2560   0.271   1.297   0.120 -0.2679  0.3010 -0.5142
  641SOL     OW 2561   2.230   0.410   0.425  0.4402  0.3356 -0.5910
  641SOL    HW1 2562   2.241   0.385   0.338  0.6359  0.1612  1.1514
  641SOL    HW2 2563   2.306   0.376   0.474 -2.6864  0.6623 -0.9307
  641SOL     MW 2564   2.242   0.402   0.420  0.0535  0.3557 -0.4059
  642SOL     OW 2565   0.031   3.097   0.541 -0.2623  0.5788 -0.3717
  642SOL    HW1 2566  -0.004   3.186   0.516 -2.0680 -2.5194 -1.8634
  642SOL    HW2 2567  -0.044   3.044   0.581 -0.6811 -3.0574  1.0678
  642SOL     MW 2568   0.017   3.102   0.543 -0.5558 -0.3097 -0.3786
  643SOL     OW 2569   2.010   0.367   1.676  0.1403 -0.2919  0.3126
  643SOL    HW1 2570   1.929   0.337   1.727  0.0313 -0.7811 -1.0684
  643SOL    HW2 2571   2.015   0.315   1.595  0.3912  1.1696 -1.1574
  643SOL     MW 2572   2.000   0.356   1.672  0.1590 -0.1636 -0.0636
  644SOL     OW 2573   2.717   1.928   1.053 -0.3866 -0.2354 -0.5224
  644SOL    HW1 2574   2.708   1.861   1.122 -1.7783 -0.7719 -1.1590
  644SOL    HW2 2575   2.629   1.948   1.020 -0.7181 -0.2683  2.0064
  644SOL     MW 2576   2.704   1.922   1.057 -0.6140 -0.3105 -0.2728
  645SOL     OW 2577   2.820   0.838   0.643  0.3762 -0.2489 -0.5184
  645SOL    HW1 2578   2.896   0.791   0.674  1.4216 -0.2944 -0.6913
  645SOL    HW2 2579   2.750   0.794   0.694 -0.8742 -0.6504  1.6862
  645SOL     MW 2580   2.820   0.826   0.654  0.3492 -0.3079 -0.2503
  646SOL     OW 2581   0.064   2.270   0.859 -0.0132  0.1795  0.8305
  646SOL    HW1 2582   0.098   2.182   0.867  2.9396 -0.0147  0.2538
  646SOL    HW2 2583  -0.023   2.247   0.824  0.1229  0.0203 -0.1524
  646SOL     MW 2584   0.057   2.255   0.856  0.3943  0.1329  0.6247
  647SOL     OW 2585   2.718   0.502   2.930  0.1214  0.2415  0.5115
  647SOL    HW1 2586   2.694   0.492   3.019 -2.9592 -0.1735 -1.4620
  647SOL    HW2 2587   2.643   0.484   2.874 -0.3031  1.4127  0.3359
  647SOL     MW 2588   2.705   0.498   2.934 -0.3411  0.3413  0.2279
  648SOL     OW 2589   2.178   0.710   1.177  0.5448 -0.2784 -0.1878
  648SOL    HW1 2590   2.210   0.630   1.215  2.5080 -2.0094  0.9223
  648SOL    HW2 2591   2.227   0.780   1.212 -1.5121 -1.7651  0.2045
  648SOL     MW 2592   2.189   0.709   1.187  0.5324 -0.7030  0.0104
  649SOL     OW 2593   2.376   2.678   1.317 -0.0499  0.4115  0.3829
  649SOL    HW1 2594   2.460   2.707   1.350  0.6291  1.4524 -0.8212
  649SOL    HW2 2595   2.386   2.590   1.275 -4.1258 -4.1409  2.6803
  649SOL     MW 2596   2.389   2.671   1.316 -0.4981 -0.0518  0.5271
  650SOL     OW 2597   2.852   0.244   0.675  0.0207 -0.1856 -0.1410
  650SOL    HW1 2598   2.878   0.307   0.740 -1.3432 -1.0419  0.3703
  650SOL    HW2 2599   2.921   0.243   0.602  0.0406 -0.0027  3.2839
  650SOL     MW 2600   2.865   0.252   0.674 -0.1567 -0.2745  0.3783
  651SOL     OW 2601   3.064   0.437   0.989  0.0993  0.1538  0.0523
  651SOL    HW1 2602   3.141   0.469   0.934 -0.0303 -0.8651  1.6055
  651SOL    HW2 2603   3.005   0.513   0.994  0.3078  1.0498 -0.1508
  651SOL     MW 2604   3.067   0.452   0.982  0.1097  0.1376  0.2305
  652SOL     OW 2605   2.436   1.541   3.044 -0.5487  0.0444  0.7671
  652SOL    HW1 2606   2.492   1.523   2.972 -0.5915  2.0913 -0.3186
  652SOL    HW2 2607   2.382   1.621   3.021 -2.0072  1.2094  0.5583
  652SOL     MW 2608   2.437   1.549   3.032 -0.7468  0.4682  0.5963
  653SOL     OW 2609   1.827   0.470   0.368 -0.3081  0.3872 -0.9654
  653SOL    HW1 2610   1.739   0.437   0.348 -2.8071 -3.3747 -0.8060
  653SOL    HW2 2611   1.892   0.468   0.297 -0.4817 -0.0702  0.7069
  653SOL     MW 2612   1.824   0.466   0.356 -0.6607 -0.1695 -0.7237
  654SOL     OW 2613   2.411   1.023   0.753  0.1436 -0.4256 -0.1159
  654SOL    HW1 2614   2.355   1.010   0.673  0.7277  0.3686 -1.5759
  654SOL    HW2 2615   2.444   0.933   0.772 -0.8972  0.3130 -1.3625
  654SOL     MW 2616   2.408   1.009   0.745  0.0833 -0.2234 -0.4730
  655SOL     OW 2617   2.908   0.843   0.388 -0.6354  0.6259  0.0718
  655SOL    HW1 2618   2.877   0.842   0.478 -0.7899  1.1709 -0.1081
  655SOL    HW2 2619   2.889   0.749   0.361  0.4193 -1.9641  0.1094
  655SOL     MW 2620   2.901   0.830   0.397 -0.5167  0.3561  0.0530
  656SOL     OW 2621   1.802   2.655   1.350 -0.8251  0.1124  0.2623
  656SOL    HW1 2622   1.860   2.734   1.376 -1.0310  0.7759  1.3044
  656SOL    HW2 2623   1.850   2.572   1.361 -1.7985  0.8344 -0.1103
  656SOL     MW 2624   1.816   2.654   1.355 -0.9807  0.2952  0.3507
  657SOL     OW 2625   0.148   1.772   1.158 -0.5417 -0.8334  0.1101
  657SOL    HW1 2626   0.214   1.838   1.130  1.2070  0.4660 -0.7959
  657SOL    HW2 2627   0.175   1.683   1.137 -0.8298  2.9955  1.8127
  657SOL     MW 2628   0.160   1.769   1.151 -0.3490 -0.1568  0.2152
  658SOL     OW 2629   2.654   1.316   0.249 -0.0213 -0.2895 -0.2948
  658SOL    HW1 2630   2.629   1.247   0.314 -2.2535 -2.3173  1.2565
  658SOL    HW2 2631   2.676   1.399   0.300  0.8499  1.1322 -1.9601
  658SOL     MW 2632   2.654   1.318   0.264 -0.2009 -0.3694 -0.3098
  659SOL     OW 2633   2.256   1.537   0.977  0.1520  0.2980  0.0547
  659SOL    HW1 2634   2.354   1.538   0.965  1.8127  2.7434 -2.0159
  659SOL    HW2 2635   2.239   1.581   1.071 -1.9944  2.3274  1.2459
  659SOL     MW 2636   2.267   1.543   0.988  0.0879  0.8884 -0.0614
  660SOL     OW 2637   2.081   1.533   1.678  0.4313 -0.3567  0.5054
  660SOL    HW1 2638   2.115   1.548   1.769  1.3216 -1.0639 -0.9896
  660SOL    HW2 2639   1.996   1.488   1.698  0.5141  0.5617 -0.6313
  660SOL     MW 2640   2.074   1.529   1.693  0.5597 -0.3288  0.1582
  661SOL     OW 2641   2.484   0.991   0.167  0.4588 -0.7081 -0.4627
  661SOL    HW1 2642   2.545   1.011   0.240 -1.2060  1.0658 -2.4923
  661SOL    HW2 2643   2.413   0.934   0.201 -1.2755 -0.0091 -2.4479
  661SOL     MW 2644   2.483   0.986   0.182  0.0103 -0.3818 -0.9924
  662SOL     OW 2645   2.572   3.044   0.897  0.5077 -0.1804  0.0012
  662SOL    HW1 2646   2.492   3.078   0.930 -0.5007 -0.6808  0.5034
  662SOL    HW2 2647   2.595   3.078   0.811  0.5798 -0.7845  0.3662
  662SOL     MW 2648   2.564   3.053   0.890  0.3842 -0.3261  0.1156
  663SOL     OW 2649   2.685   1.491   0.461 -0.0049  0.0378 -0.1090
  663SOL    HW1 2650   2.642   1.575   0.458  1.5512 -0.8261 -3.2320
  663SOL    HW2 2651   2.745   1.499   0.536 -1.9391 -2.8238 -1.2921
  663SOL     MW 2652   2.688   1.503   0.471 -0.0548 -0.4537 -0.6771
  664SOL     OW 2653   2.564   1.541   1.567  0.3377  0.2398  0.7767
  664SOL    HW1 2654   2.535   1.631   1.555  0.5431 -0.2649 -1.6505
  664SOL    HW2 2655   2.477   1.490   1.574  0.2561  0.4016  0.8550
  664SOL     MW 2656   2.549   1.546   1.566  0.3541  0.1946  0.4668
  665SOL     OW 2657   2.809   0.846   2.040 -0.6026 -0.3755 -0.0448
  665SOL    HW1 2658   2.760   0.893   1.972 -0.9975  2.0035  2.2327
  665SOL    HW2 2659   2.855   0.770   2.008 -1.5463  0.1402 -0.3004
  665SOL     MW 2660   2.808   0.842   2.027 -0.7792  0.0064  0.2220
  666SOL     OW 2661   2.774   3.090   1.706  0.1037 -0.0805 -0.1643
  666SOL    HW1 2662   2.772   3.079   1.609 -5.9707  2.0850 -0.9783
  666SOL    HW2 2663   2.738   3.009   1.741  1.7108 -0.2537  0.1202
  666SOL     MW 2664   2.769   3.078   1.698 -0.4858  0.1824 -0.2342
  667SOL     OW 2665   1.974   2.658   1.789 -0.4239  0.4127 -0.5921
  667SOL    HW1 2666   2.002   2.647   1.880 -0.8720  0.5134 -0.6512
  667SOL    HW2 2667   2.038   2.725   1.760  0.1013  0.0144 -1.6853
  667SOL     MW 2668   1.986   2.665   1.797 -0.4137  0.3734 -0.7441
  668SOL     OW 2669   2.720   0.588   0.788 -0.3144 -0.3318  0.0695
  668SOL    HW1 2670   2.786   0.618   0.847  2.3750 -0.7743 -1.5635
  668SOL    HW2 2671   2.644   0.630   0.823  4.2197 -0.1274 -2.4450
  668SOL     MW 2672   2.719   0.597   0.800  0.6387 -0.3632 -0.4777
  669SOL     OW 2673   0.144   0.886   0.703 -0.2069 -0.4966  0.1083
  669SOL    HW1 2674   0.104   0.962   0.744 -1.8806  1.9966 -0.4038
  669SOL    HW2 2675   0.209   0.876   0.776 -0.7119  0.3338  3.9390
  669SOL     MW 2676   0.147   0.894   0.718 -0.4943 -0.0581  0.5462
  670SOL     OW 2677   2.861   0.296   0.206 -0.0244 -0.2172  0.0831
  670SOL    HW1 2678   2.914   0.250   0.137  2.0677 -1.3224 -1.2044
  670SOL    HW2 2679   2.898   0.382   0.212  2.7354  0.5247 -0.2637
  670SOL     MW 2680   2.873   0.301   0.197  0.6157 -0.2651 -0.1325
  671SOL     OW 2681   2.042   3.054   1.574 -0.1607 -0.4179  0.2983
  671SOL    HW1 2682   1.978   3.007   1.518  0.2583 -0.8765 -0.2482
  671SOL    HW2 2683   1.993   3.077   1.656 -3.0771 -0.0551  0.0036
  671SOL     MW 2684   2.027   3.051   1.577 -0.4902 -0.4306  0.1873
  672SOL     OW 2685   1.901   1.704   1.313  0.0774 -0.3348 -0.3984
  672SOL    HW1 2686   1.818   1.745   1.334 -0.3303  0.3265 -1.4296
  672SOL    HW2 2687   1.910   1.728   1.217  0.7653 -0.6610  2.4843
  672SOL     MW 2688   1.891   1.712   1.303  0.1143 -0.2906 -0.1541
  673SOL     OW 2689   2.785   1.124   0.613 -0.0167  0.0256 -0.3523
  673SOL    HW1 2690   2.801   1.029   0.627  0.4543  1.9548  3.1609
  673SOL    HW2 2691   2.869   1.168   0.634  0.0366  0.4043  0.1030
  673SOL     MW 2692   2.798   1.117   0.618  0.0525  0.3301  0.1713
  674SOL     OW 2693   2.451   3.064   1.286  0.3783  0.4440 -0.5004
  674SOL    HW1 2694   2.406   3.080   1.199 -0.1806 -0.0523 -1.6978
  674SOL    HW2 2695   2.488   2.977   1.292 -2.0041 -0.8676 -0.5525
  674SOL     MW 2696   2.450   3.055   1.276 -0.0097  0.2055 -0.6652
  675SOL     OW 2697   3.067   0.874   1.080 -0.5164  0.4034  0.0861
  675SOL    HW1 2698   3.125   0.895   1.152  1.2295  0.4531  0.8172
  675SOL    HW2 2699   3.087   0.939   1.018  1.3731 -0.0065 -1.3501
  675SOL     MW 2700   3.077   0.885   1.081 -0.0368  0.3559 -0.0069
  676SOL     OW 2701   2.952   1.488   1.658  0.4165 -0.1065 -0.3513
  676SOL    HW1 2702   2.891   1.423   1.631 -1.9911 -2.0099  1.5357
  676SOL    HW2 2703   3.013   1.445   1.715 -0.1651  0.6075  0.9922
  676SOL     MW 2704   2.952   1.474   1.662  0.0221 -0.2634  0.0750
  677SOL     OW 2705   2.370   0.582   1.989 -0.2180 -0.2679 -0.4077
  677SOL    HW1 2706   2.327   0.544   1.915 -0.3181  1.9559 -1.1898
  677SOL    HW2 2707   2.314   0.656   2.014 -1.1521  2.4595  0.2721
  677SOL     MW 2708   2.357   0.586   1.983 -0.3544  0.3853 -0.4212
  678SOL     OW 2709   2.515   1.684   0.326 -0.0946 -0.5576 -0.0081
  678SOL    HW1 2710   2.451   1.718   0.390 -0.8712  0.6328 -3.2895
  678SOL    HW2 2711   2.487   1.597   0.306 -0.6728  2.1322  1.3233
  678SOL     MW 2712   2.503   1.677   0.332 -0.2734 -0.0456 -0.2654
  679SOL     OW 2713   2.241   0.470   1.286  0.0835  0.8217 -0.0920
  679SOL    HW1 2714   2.247   0.379   1.262 -0.9489  0.4844  0.3834
  679SOL    HW2 2715   2.172   0.467   1.349  0.0026  2.3117 -0.2302
  679SOL     MW 2716   2.233   0.458   1.291 -0.0633  0.9738 -0.0475
  680SOL     OW 2717   2.375   0.181   1.457  0.2402 -0.1850 -0.2208
  680SOL    HW1 2718   2.279   0.191   1.453 -3.2915 -1.0486  0.6773
  680SOL    HW2 2719   2.388   0.096   1.409  0.7784  3.9917  0.1082
  680SOL     MW 2720   2.364   0.171   1.451 -0.1548  0.2521 -0.0589
  681SOL     OW 2721   0.296   0.516   1.533  0.0456  0.6820  0.5495
  681SOL    HW1 2722   0.260   0.468   1.612 -2.3019 -1.7004  4.0856
  681SOL    HW2 2723   0.389   0.522   1.543 -1.6361  1.2010 -1.4313
  681SOL     MW 2724   0.304   0.510   1.545 -0.4860  0.4361  0.7547
  682SOL     OW 2725   0.144   2.847   1.517 -0.2935 -0.4289  0.3029
  682SOL    HW1 2726   0.228   2.872   1.560  1.0603  2.2668 -0.6737
  682SOL    HW2 2727   0.079   2.911   1.542  0.9388 -1.4179  1.5511
  682SOL     MW 2728   0.147   2.859   1.526  0.0477 -0.2037  0.3387
  683SOL     OW 2729   2.060   0.786   2.962 -0.0060  0.1643 -0.6109
  683SOL    HW1 2730   1.963   0.766   2.955  0.5064 -1.6638  2.0008
  683SOL    HW2 2731   2.064   0.869   3.010 -0.6881 -0.5030 -1.4243
  683SOL     MW 2732   2.048   0.795   2.967 -0.0284 -0.1650 -0.3736
  684SOL     OW 2733   2.247   1.660   0.739  0.7504  0.4510  0.7244
  684SOL    HW1 2734   2.195   1.612   0.674  0.8609 -1.8320  0.5653
  684SOL    HW2 2735   2.219   1.619   0.819 -0.0300  0.2841 -1.2582
  684SOL     MW 2736   2.237   1.648   0.741  0.6620  0.1277  0.4418
  685SOL     OW 2737   2.629   1.729   1.206  0.3703 -0.7050  0.5473
  685SOL    HW1 2738   2.703   1.696   1.257 -0.2043 -2.7164 -0.1405
  685SOL    HW2 2739   2.584   1.652   1.183  1.2687  1.9810 -2.6308
  685SOL     MW 2740   2.633   1.714   1.209  0.4130 -0.6160  0.0373
  686SOL     OW 2741   2.907   0.744   1.489  0.6013 -0.4908 -0.2480
  686SOL    HW1 2742   2.872   0.692   1.558 -1.8159  0.9778  0.6312
  686SOL    HW2 2743   3.002   0.721   1.472  1.2087 -0.1725 -2.0154
  686SOL     MW 2744   2.915   0.734   1.496  0.3625 -0.2550 -0.3652
  687SOL     OW 2745   2.148   0.212   1.207 -0.0345 -0.0828  0.3836
  687SOL    HW1 2746   2.181   0.159   1.136  1.4311 -0.4720  0.5539
  687SOL    HW2 2747   2.086   0.262   1.158 -0.4203  0.6291  2.7183
  687SOL     MW 2748   2.144   0.212   1.191  0.1080 -0.0402  0.7141
  688SOL     OW 2749   2.392   0.574   1.475  0.2128  0.0404  0.0630
  688SOL    HW1 2750   2.328   0.539   1.409 -2.6743  0.7757 -0.6643
  688SOL    HW2 2751   2.323   0.614   1.534 -0.6626  4.4518  2.4514
  688SOL     MW 2752   2.374   0.574   1.474 -0.2836  0.7195  0.2822
  689SOL     OW 2753   2.474   0.718   2.953  0.1137 -0.9006 -0.4118
  689SOL    HW1 2754   2.494   0.803   2.919  0.6099 -0.2031 -2.1582
  689SOL    HW2 2755   2.545   0.693   3.016 -0.3882  1.6369  0.5994
  689SOL     MW 2756   2.486   0.726   2.957  0.1130 -0.4738 -0.5088
  690SOL     OW 2757   1.982   0.835   1.858 -0.0805 -0.7158  0.2034
  690SOL    HW1 2758   1.955   0.744   1.871 -1.4503  0.2855 -0.7577
  690SOL    HW2 2759   2.038   0.854   1.786 -1.3245  1.2694 -0.1739
  690SOL     MW 2760   1.986   0.825   1.850 -0.4253 -0.3217  0.0268
  691SOL     OW 2761   2.402   0.273   0.876 -0.0882 -0.8527 -0.9278
  691SOL    HW1 2762   2.469   0.314   0.926 -2.0408  1.1681  1.3109
  691SOL    HW2 2763   2.340   0.344   0.878 -1.4886 -1.6590  0.2770
  691SOL     MW 2764   2.403   0.288   0.883 -0.5306 -0.6925 -0.4735
  692SOL     OW 2765   2.842   1.682   1.437  0.4543 -0.3536  0.4702
  692SOL    HW1 2766   2.869   1.629   1.509 -0.9936  0.6539  0.1547
  692SOL    HW2 2767   2.876   1.776   1.460 -1.1276  0.1696  0.6140
  692SOL     MW 2768   2.850   1.688   1.449  0.0545 -0.1516  0.4476
  693SOL     OW 2769   2.256   0.393   0.134  0.0209 -0.3178  0.0236
  693SOL    HW1 2770   2.187   0.332   0.111 -1.4013 -1.9961 -1.8054
  693SOL    HW2 2771   2.245   0.474   0.077  2.4049  0.2161  0.8123
  693SOL     MW 2772   2.245   0.396   0.124  0.1478 -0.4688 -0.1136
  694SOL     OW 2773   1.931   1.218   1.201 -0.8040  0.3366  0.0271
  694SOL    HW1 2774   2.019   1.181   1.218  0.4801 -0.1785 -2.1889
  694SOL    HW2 2775   1.876   1.147   1.236  2.8059 -2.6126 -0.3206
  694SOL     MW 2776   1.936   1.204   1.208 -0.1583 -0.1205 -0.3112
  695SOL     OW 2777   3.070   1.536   1.285  0.6169 -0.6459  0.0083
  695SOL    HW1 2778   3.015   1.483   1.224  2.1393  0.7993 -0.1581
  695SOL    HW2 2779   3.008   1.599   1.329 -0.8528  1.0095  0.4202
  695SOL     MW 2780   3.055   1.537   1.283  0.6239 -0.2368  0.0407
  696SOL     OW 2781   2.072   1.358   0.829 -0.8388 -0.2465  0.0972
  696SOL    HW1 2782   2.108   1.402   0.903 -1.8686 -1.3293 -3.6182
  696SOL    HW2 2783   2.012   1.297   0.867 -2.5115  1.7221 -1.4004
  696SOL     MW 2784   2.069   1.356   0.844 -1.1954 -0.1296 -0.5906
  697SOL     OW 2785   2.913   1.048   2.183  0.3009 -0.4718 -0.8883
  697SOL    HW1 2786   2.847   1.111   2.179  3.7723 -1.4387  2.8080
  697SOL    HW2 2787   2.885   0.984   2.118 -1.7666  0.8883 -1.6141
  697SOL     MW 2788   2.901   1.048   2.174  0.4861 -0.4200 -0.4964
  698SOL     OW 2789   2.503   0.346   0.018 -1.0608 -0.0498  0.3790
  698SOL    HW1 2790   2.411   0.358   0.051 -2.2003  1.6728 -0.9754
  698SOL    HW2 2791   2.544   0.286   0.083  2.8328 -1.7505 -0.1035
  698SOL     MW 2792   2.496   0.340   0.031 -0.6974 -0.0469  0.1366
  699SOL     OW 2793   1.827   1.559   2.070  0.3760 -0.0550 -0.0938
  699SOL    HW1 2794   1.794   1.470   2.061  0.2912 -1.5812  0.8207
  699SOL    HW2 2795   1.911   1.567   2.037  0.7660 -3.0551  1.2018
  699SOL     MW 2796   1.833   1.548   2.065  0.4162 -0.6522  0.1978
  700SOL     OW 2797   2.696   0.923   1.489  0.4826  0.1392  0.4946
  700SOL    HW1 2798   2.747   1.003   1.485 -0.9477 -0.3550  1.0086
  700SOL    HW2 2799   2.771   0.859   1.480 -1.0872 -1.9994  2.5336
  700SOL     MW 2800   2.712   0.925   1.487  0.0868 -0.2082  0.8314
  701SOL     OW 2801   1.634   1.184   2.502 -0.0017 -0.4146 -0.2544
  701SOL    HW1 2802   1.729   1.182   2.484 -2.1190 -0.3917 -0.3918
  701SOL    HW2 2803   1.622   1.243   2.576 -0.6413 -0.0759  1.1223
  701SOL     MW 2804   1.645   1.192   2.510 -0.3655 -0.3669 -0.0909
  702SOL     OW 2805   2.141   0.408   0.860 -0.1427 -0.3750  0.0105
  702SOL    HW1 2806   2.128   0.358   0.782  0.0936  4.0053  0.8083
  702SOL    HW2 2807   2.173   0.497   0.832 -0.3735  0.5663 -0.2409
  702SOL     MW 2808   2.143   0.413   0.846 -0.1419  0.3271  0.0826
  703SOL     OW 2809   2.718   1.203   1.064 -0.1964  0.4871 -0.3930
  703SOL    HW1 2810   2.662   1.186   0.990  2.4294  2.1013  0.8079
  703SOL    HW2 2811   2.750   1.116   1.103  0.2562 -0.7972  1.3956
  703SOL     MW 2812   2.714   1.190   1.059  0.2097  0.5307  0.0014
  704SOL     OW 2813   3.059   1.168   0.057 -0.0797 -0.3166  0.2885
  704SOL    HW1 2814   2.965   1.168   0.091  0.4927 -0.4179  0.4401
  704SOL    HW2 2815   3.105   1.139   0.130 -0.3658  0.2660 -2.1881
  704SOL     MW 2816   3.052   1.164   0.071 -0.0419 -0.2531 -0.0183
  705SOL     OW 2817   2.178   1.620   1.225  0.6242 -0.3076 -0.0058
  705SOL    HW1 2818   2.085   1.633   1.231 -1.1956 -0.6219  0.7897
  705SOL    HW2 2819   2.204   1.530   1.249  0.6826  0.4306 -1.7436
  705SOL     MW 2820   2.169   1.610   1.229  0.3918 -0.2517 -0.1302
  706SOL     OW 2821   3.026   1.227   0.661 -0.4724  0.3576 -0.0474
  706SOL    HW1 2822   3.077   1.240   0.575 -2.5832  1.9428 -1.8972
  706SOL    HW2 2823   2.993   1.315   0.668  3.0919 -1.8035  1.2317
  706SOL     MW 2824   3.028   1.240   0.650 -0.2806  0.2816 -0.1227
  707SOL     OW 2825   2.326   0.067   1.027 -0.6232 -0.4038 -0.0999
  707SOL    HW1 2826   2.339   0.147   0.980  2.3047  2.4502  2.8321
  707SOL    HW2 2827   2.262   0.015   0.978 -1.2371  3.0338 -0.5948
  707SOL     MW 2828   2.319   0.071   1.014 -0.3179  0.4263  0.2216
  708SOL     OW 2829   2.412   1.429   0.190  0.2040  0.4087 -0.2859
  708SOL    HW1 2830   2.501   1.391   0.197  1.7799  0.3717  2.3545
  708SOL    HW2 2831   2.404   1.486   0.116 -0.1660  0.7271  2.7170
  708SOL     MW 2832   2.422   1.432   0.181  0.3631  0.4459  0.4587
  709SOL     OW 2833   1.769   1.642   0.209 -0.0182  0.2212  0.2404
  709SOL    HW1 2834   1.747   1.672   0.120 -0.2934  2.5140 -1.3973
  709SOL    HW2 2835   1.682   1.637   0.248  0.9625  0.5060 -0.1385
  709SOL     MW 2836   1.754   1.645   0.202  0.0749  0.5613 -0.0256
  710SOL     OW 2837   2.209   1.157   1.168 -0.4023 -0.2473 -0.4948
  710SOL    HW1 2838   2.204   1.132   1.074 -0.6436 -2.5862  1.6550
  710SOL    HW2 2839   2.205   1.069   1.213 -0.4362 -0.9049  2.5232
  710SOL     MW 2840   2.208   1.142   1.161 -0.4386 -0.6427  0.1871
  711SOL     OW 2841   2.332   0.179   1.734 -0.1042  0.2509 -0.4518
  711SOL    HW1 2842   2.423   0.175   1.774 -0.3988  0.4517 -0.2643
  711SOL    HW2 2843   2.348   0.151   1.648 -1.2002  1.1681  0.5838
  711SOL     MW 2844   2.346   0.175   1.728 -0.2877  0.3984 -0.2904
  712SOL     OW 2845   1.907   0.521   0.093  0.0630  0.9952  0.0370
  712SOL    HW1 2846   1.816   0.552   0.095 -2.8131  0.6584  1.9217
  712SOL    HW2 2847   1.960   0.593   0.124 -0.2263 -2.1636 -3.7404
  712SOL     MW 2848   1.902   0.534   0.098 -0.3546  0.5340 -0.2128
  713SOL     OW 2849   2.553   0.826   1.078  0.0146 -0.1327  0.2507
  713SOL    HW1 2850   2.553   0.744   1.130  0.0906 -4.6720 -1.3725
  713SOL    HW2 2851   2.482   0.863   1.120 -2.5404  0.0895 -0.8547
  713SOL     MW 2852   2.544   0.820   1.091 -0.3125 -0.7023 -0.1093
  714SOL     OW 2853   2.223   0.199   1.980 -0.4852  0.4303 -0.4273
  714SOL    HW1 2854   2.274   0.131   2.027  0.8530 -2.2374  1.2333
  714SOL    HW2 2855   2.279   0.201   1.898  2.6009 -1.7230  1.6009
  714SOL     MW 2856   2.237   0.190   1.976  0.0986 -0.2058  0.0594
  715SOL     OW 2857   1.750   1.882   1.701 -0.1859  0.5789  0.3733
  715SOL    HW1 2858   1.843   1.872   1.685  2.4485 -0.3655 -0.9952
  715SOL    HW2 2859   1.735   1.863   1.792 -0.0848  0.5037  0.7562
  715SOL     MW 2860   1.761   1.878   1.711  0.1751  0.4444  0.2433
  716SOL     OW 2861   2.304   0.599   0.729 -0.4456 -0.1575 -0.1925
  716SOL    HW1 2862   2.351   0.548   0.664  0.9933 -0.1062  1.8969
  716SOL    HW2 2863   2.250   0.659   0.679 -0.3301  1.6872 -0.9170
  716SOL     MW 2864   2.303   0.600   0.714 -0.2405  0.0926 -0.0124
  717SOL     OW 2865   2.879   1.615   2.868  0.5517 -0.1325  0.0652
  717SOL    HW1 2866   2.960   1.619   2.913 -0.2206 -3.6573 -1.7601
  717SOL    HW2 2867   2.829   1.679   2.922  0.4739 -0.9513  1.5485
  717SOL     MW 2868   2.883   1.624   2.881  0.4395 -0.7056  0.0201
  718SOL     OW 2869   2.683   1.437   1.335  0.4134  0.0230  0.0916
  718SOL    HW1 2870   2.642   1.492   1.400  3.5019  0.7106 -0.5251
  718SOL    HW2 2871   2.709   1.354   1.378  1.7337 -0.7457 -0.9188
  718SOL     MW 2872   2.681   1.433   1.350  0.9951  0.0123 -0.1231
  719SOL     OW 2873   2.201   1.287   0.592  0.5320 -0.6019  0.2362
  719SOL    HW1 2874   2.297   1.305   0.592 -1.5890 -0.4476  1.0983
  719SOL    HW2 2875   2.179   1.294   0.688 -0.0660  0.3710  2.2742
  719SOL     MW 2876   2.211   1.290   0.604  0.1733 -0.4532  0.6188
  720SOL     OW 2877   2.785   1.177   0.053  0.5839  0.0918  0.4560
  720SOL    HW1 2878   2.761   1.086   0.083  0.6274 -0.5554 -4.0387
  720SOL    HW2 2879   2.748   1.253   0.102  0.7023 -1.2216  1.1334
  720SOL     MW 2880   2.777   1.175   0.063  0.6053 -0.1669 -0.0477
  721SOL     OW 2881   2.452   0.838   1.346  0.5414 -0.1912  0.2800
  721SOL    HW1 2882   2.441   0.770   1.416  1.1670 -0.6118 -0.4221
  721SOL    HW2 2883   2.530   0.886   1.375  0.8667 -2.1900 -0.7868
  721SOL     MW 2884   2.461   0.836   1.359  0.6668 -0.5104  0.0466
  722SOL     OW 2885   2.609   1.108   0.424  0.3992 -0.1137  0.4500
  722SOL    HW1 2886   2.531   1.146   0.466  0.0920  0.0121  2.2361
  722SOL    HW2 2887   2.683   1.111   0.487 -3.6017  1.4327  1.5777
  722SOL     MW 2888   2.608   1.113   0.438 -0.1692  0.1069  0.8344
  723SOL     OW 2889   2.326   1.381   1.586 -0.4794  0.2293 -0.6409
  723SOL    HW1 2890   2.317   1.373   1.491 -2.8217  1.6996  0.4034
  723SOL    HW2 2891   2.249   1.422   1.614  0.1373 -3.0604  2.7355
  723SOL     MW 2892   2.315   1.385   1.577 -0.7071 -0.0107 -0.0576
  724SOL     OW 2893   2.425   0.365   0.602  0.0383  0.0039  0.3752
  724SOL    HW1 2894   2.413   0.322   0.684  2.1945 -0.8613 -0.2669
  724SOL    HW2 2895   2.521   0.369   0.584 -0.0712  0.5789  1.1127
  724SOL     MW 2896   2.436   0.360   0.610  0.3084 -0.0344  0.3878
  725SOL     OW 2897   2.547   0.595   1.207  0.3219  0.3785  0.3062
  725SOL    HW1 2898   2.622   0.577   1.257 -0.9186 -0.7255  0.7606
  725SOL    HW2 2899   2.479   0.607   1.274  1.7253  0.8275 -0.1918
  725SOL     MW 2900   2.548   0.594   1.223  0.3434  0.2921  0.3005
  726SOL     OW 2901   2.565   2.465   0.565  0.1246  0.2437 -0.0512
  726SOL    HW1 2902   2.525   2.522   0.503 -1.4157 -0.3099 -0.7137
  726SOL    HW2 2903   2.499   2.468   0.639 -1.5755  2.0678  0.2207
  726SOL     MW 2904   2.551   2.473   0.567 -0.3030  0.4113 -0.1027
  727SOL     OW 2905   2.889   0.345   1.710 -0.5823 -0.4187 -0.2741
  727SOL    HW1 2906   2.835   0.351   1.631 -1.1474  1.4545  3.1926
  727SOL    HW2 2907   2.831   0.348   1.792  0.9730 -2.5822 -2.1563
  727SOL     MW 2908   2.874   0.346   1.710 -0.4517 -0.4570 -0.0651
  728SOL     OW 2909   2.797   1.171   2.882  0.4030 -0.2885  0.4665
  728SOL    HW1 2910   2.805   1.253   2.838 -3.0390 -0.4627  2.6071
  728SOL    HW2 2911   2.794   1.186   2.977 -0.4559  0.2729 -0.1694
  728SOL     MW 2912   2.798   1.184   2.889 -0.1645 -0.2374  0.6651
  729SOL     OW 2913   2.498   1.489   1.140 -0.0029  0.1762  0.1929
  729SOL    HW1 2914   2.550   1.436   1.207 -3.2021  0.6882 -0.3911
  729SOL    HW2 2915   2.534   1.460   1.058 -3.7087 -0.6971 -0.2101
  729SOL     MW 2916   2.510   1.478   1.138 -0.9140  0.1285  0.0627
  730SOL     OW 2917   2.265   1.182   0.185 -0.0990  0.1192  0.2719
  730SOL    HW1 2918   2.340   1.117   0.193 -0.0846  2.2847 -2.3617
  730SOL    HW2 2919   2.311   1.255   0.149 -0.2347 -3.0240 -2.1917
  730SOL     MW 2920   2.281   1.183   0.182 -0.1150 -0.0098 -0.4006
  731SOL     OW 2921   2.762   1.933   2.853  0.2830  0.8835 -0.0064
  731SOL    HW1 2922   2.704   1.954   2.775  0.5670  0.6155 -0.4366
  731SOL    HW2 2923   2.838   1.986   2.846 -2.5069  0.5943  0.9725
  731SOL     MW 2924   2.764   1.943   2.841 -0.0476  0.8099  0.0660
  732SOL     OW 2925   2.223   0.969   1.343  0.2044 -1.0500 -0.3873
  732SOL    HW1 2926   2.196   0.979   1.433 -0.6947 -0.7340 -0.3458
  732SOL    HW2 2927   2.310   0.930   1.353 -2.1702  1.8043  0.7765
  732SOL     MW 2928   2.231   0.965   1.356 -0.2275 -0.6317 -0.2282
  733SOL     OW 2929   2.358   2.746   2.996 -0.1920 -0.2116 -0.0881
  733SOL    HW1 2930   2.287   2.801   2.967 -0.9455 -2.8726 -1.4136
  733SOL    HW2 2931   2.344   2.654   2.973  0.9774  0.5550 -1.5034
  733SOL     MW 2932   2.346   2.741   2.989 -0.1371 -0.4616 -0.4497
  734SOL     OW 2933   1.420   0.340   2.481 -0.0823  0.1207  0.0651
  734SOL    HW1 2934   1.411   0.318   2.574 -0.8823  2.9678 -1.7916
  734SOL    HW2 2935   1.444   0.259   2.436 -1.9196  0.1852 -0.6355
  734SOL     MW 2936   1.422   0.326   2.488 -0.4303  0.5049 -0.2723
  735SOL     OW 2937   2.918   0.907   2.643 -0.0958  0.1690  0.3140
  735SOL    HW1 2938   2.929   0.815   2.616  1.3821 -3.9434  1.3071
  735SOL    HW2 2939   2.950   0.902   2.733  0.0074  2.1189  1.3816
  735SOL     MW 2940   2.924   0.894   2.651  0.1128 -0.1163  0.5859
  736SOL     OW 2941   0.088   0.577   2.515  0.2062  0.1236  0.1884
  736SOL    HW1 2942   0.119   0.655   2.472  0.2551 -1.0941  2.5748
  736SOL    HW2 2943   0.082   0.513   2.442  1.3878  1.4476 -1.0330
  736SOL     MW 2944   0.091   0.579   2.500  0.3686  0.1377  0.3421
  737SOL     OW 2945   2.926   0.635   2.580 -0.0735  0.2229  0.1803
  737SOL    HW1 2946   2.871   0.617   2.506  0.8439  0.1162  1.4126
  737SOL    HW2 2947   3.019   0.606   2.550  2.4838 -2.0288  0.8300
  737SOL     MW 2948   2.931   0.629   2.566  0.3850 -0.0882  0.4286
  738SOL     OW 2949   0.127   0.579   1.900 -0.5075 -0.0943  0.2908
  738SOL    HW1 2950   0.206   0.601   1.949 -1.4914 -2.3265  1.4289
  738SOL    HW2 2951   0.157   0.500   1.853  2.5388  0.9974 -1.4537
  738SOL     MW 2952   0.142   0.571   1.901 -0.2354 -0.2448  0.2108
  739SOL     OW 2953   2.473   1.000   2.060  0.3850 -0.1275 -0.2154
  739SOL    HW1 2954   2.397   0.946   2.033 -2.5568 -0.1216 -0.4137
  739SOL    HW2 2955   2.491   1.074   2.002  0.7496 -0.8433 -1.1882
  739SOL     MW 2956   2.466   1.003   2.048  0.0450 -0.2212 -0.3699
  740SOL     OW 2957   0.247   1.707   2.952 -0.2719  0.0022  0.2943
  740SOL    HW1 2958   0.181   1.637   2.975 -0.4603  1.2425  0.2740
  740SOL    HW2 2959   0.332   1.675   2.979  0.0841 -1.3129  1.1941
  740SOL     MW 2960   0.250   1.694   2.959 -0.2498 -0.0077  0.4103
  741SOL     OW 2961   2.229   1.123   2.758 -0.3698 -0.8879  0.1279
  741SOL    HW1 2962   2.164   1.169   2.701 -0.3785 -0.7163  0.1527
  741SOL    HW2 2963   2.253   1.188   2.829  2.7931  0.9396 -0.4189
  741SOL     MW 2964   2.223   1.138   2.760  0.0464 -0.6241  0.0590
  742SOL     OW 2965   1.516   1.245   2.217  0.8458  0.1079 -0.4752
  742SOL    HW1 2966   1.513   1.148   2.213 -2.8898  0.5827  1.4867
  742SOL    HW2 2967   1.531   1.269   2.311  1.5139 -1.6376  2.4013
  742SOL     MW 2968   1.517   1.235   2.229  0.4411 -0.0597  0.1632
  743SOL     OW 2969   2.444   1.297   2.701  0.0893 -0.2254  0.1691
  743SOL    HW1 2970   2.346   1.280   2.685 -2.2528 -0.2776  1.5778
  743SOL    HW2 2971   2.479   1.218   2.726 -0.0766  2.1523 -1.5071
  743SOL     MW 2972   2.436   1.284   2.702 -0.2416  0.0814  0.1338
  744SOL     OW 2973   2.749   0.978   1.788 -0.4160 -0.3541  0.2498
  744SOL    HW1 2974   2.682   1.049   1.779 -3.2773  1.2325  0.4121
  744SOL    HW2 2975   2.766   0.936   1.701  0.7915 -0.9038 -0.0082
  744SOL     MW 2976   2.743   0.982   1.775 -0.6342 -0.2173  0.2372
  745SOL     OW 2977   1.698   0.469   2.470  0.3598  0.2773  0.0966
  745SOL    HW1 2978   1.695   0.482   2.372 -3.3806 -1.9119 -3.4878
  745SOL    HW2 2979   1.619   0.420   2.488  1.6333  0.9271  2.4535
  745SOL     MW 2980   1.687   0.464   2.459  0.0343  0.0742 -0.0653
  746SOL     OW 2981   1.573   1.432   1.566 -0.3651  0.0743  0.5082
  746SOL    HW1 2982   1.667   1.436   1.591 -0.9347  0.4917  1.1933
  746SOL    HW2 2983   1.542   1.391   1.650 -1.2854 -1.0829  1.0881
  746SOL     MW 2984   1.581   1.427   1.581 -0.5617 -0.0233  0.6751
  747SOL     OW 2985   2.552   1.170   1.810  0.2723 -0.4940  0.3646
  747SOL    HW1 2986   2.460   1.189   1.776 -0.9469  1.3088 -0.0268
  747SOL    HW2 2987   2.561   1.250   1.871 -0.4379 -1.3751 -0.5698
  747SOL     MW 2988   2.541   1.183   1.814  0.0177 -0.3724  0.1897
  748SOL     OW 2989   0.127   0.026   1.816 -0.3166  0.3698  0.5254
  748SOL    HW1 2990   0.218   0.047   1.820 -1.1340 -2.5593 -0.0760
  748SOL    HW2 2991   0.082   0.063   1.899  0.9353  0.5307 -0.5907
  748SOL     MW 2992   0.133   0.034   1.827 -0.2593  0.0046  0.2988
  749SOL     OW 2993   2.449   0.530   2.754  0.5242 -0.4185  0.4414
  749SOL    HW1 2994   2.483   0.589   2.683  2.5401 -2.6685 -0.7069
  749SOL    HW2 2995   2.447   0.596   2.828  1.3633 -1.6847 -1.5586
  749SOL     MW 2996   2.453   0.547   2.754  0.9009 -0.8824  0.0260
  750SOL     OW 2997   2.028   0.004   1.992 -0.2030 -0.2785  0.5252
  750SOL    HW1 2998   2.083   0.086   1.994  0.4248 -1.6341  1.2979
  750SOL    HW2 2999   2.094  -0.061   1.991 -2.0601 -1.1932 -1.3135
  750SOL     MW 3000   2.044   0.006   1.992 -0.3652 -0.5780  0.3845
  751SOL     OW 3001   0.057   0.388   2.296  0.2280  0.4072  0.1846
  751SOL    HW1 3002  -0.026   0.343   2.334  2.3980 -1.0146  0.9350
  751SOL    HW2 3003   0.123   0.324   2.273 -1.2921  1.4156  0.9096
  751SOL     MW 3004   0.055   0.373   2.298  0.3138  0.3527  0.3792
  752SOL     OW 3005   2.135   0.815   2.655 -0.0580 -0.0921  0.3044
  752SOL    HW1 3006   2.179   0.887   2.612 -3.7057  1.2401  1.1610
  752SOL    HW2 3007   2.158   0.832   2.748  0.4363  0.0767 -0.0812
  752SOL     MW 3008   2.144   0.827   2.662 -0.4741  0.1060  0.3665
  753SOL     OW 3009   2.935   0.262   2.403 -0.0167 -0.1248  0.3194
  753SOL    HW1 3010   2.903   0.200   2.332 -1.7875 -0.9721 -2.1112
  753SOL    HW2 3011   2.867   0.328   2.404 -0.1027  1.3209  1.8785
  753SOL     MW 3012   2.922   0.263   2.394 -0.2617 -0.0459  0.2044
  754SOL     OW 3013   2.245   2.989   2.587  0.3445 -0.3258 -0.3884
  754SOL    HW1 3014   2.272   2.979   2.497 -0.2331  1.0253 -1.0039
  754SOL    HW2 3015   2.321   2.950   2.635  1.0237 -1.0664 -0.4739
  754SOL     MW 3016   2.259   2.983   2.581  0.3579 -0.2453 -0.4809
  755SOL     OW 3017   2.716   1.520   2.482 -0.1644 -0.2389  0.7086
  755SOL    HW1 3018   2.709   1.434   2.527 -0.5015  0.9853 -2.1224
  755SOL    HW2 3019   2.784   1.578   2.523  1.4518 -0.1841  0.9269
  755SOL     MW 3020   2.724   1.516   2.494  0.0044 -0.0702  0.3639
  756SOL     OW 3021   2.271   1.306   2.966  0.4285 -0.5712  0.1703
  756SOL    HW1 3022   2.328   1.381   2.984  2.5869 -3.1833  2.2837
  756SOL    HW2 3023   2.327   1.223   2.980 -0.6992 -2.9067 -1.8370
  756SOL     MW 3024   2.286   1.305   2.971  0.5645 -1.2240  0.1843
  757SOL     OW 3025   2.131   0.930   1.602  0.0882 -0.4206  0.1248
  757SOL    HW1 3026   2.161   0.838   1.593 -1.1028 -1.8298  0.3479
  757SOL    HW2 3027   2.032   0.930   1.585 -0.7908 -1.7888 -0.2077
  757SOL     MW 3028   2.122   0.918   1.598 -0.1849 -0.7870  0.1104
  758SOL     OW 3029   2.189   1.777   2.607  0.0938  0.4505  0.0842
  758SOL    HW1 3030   2.187   1.771   2.512 -1.7654 -2.2710  1.1624
  758SOL    HW2 3031   2.280   1.761   2.632 -0.3207 -0.4153 -1.6828
  758SOL     MW 3032   2.201   1.774   2.598 -0.2062 -0.0228 -0.0067
  759SOL     OW 3033   1.615   1.347   2.714 -0.3046  0.3315 -0.2420
  759SOL    HW1 3034   1.612   1.432   2.666  0.6599 -1.4855  0.2284
  759SOL    HW2 3035   1.651   1.358   2.806 -1.0924  0.2826  1.5723
  759SOL     MW 3036   1.620   1.360   2.720 -0.2813  0.0853  0.0595
  760SOL     OW 3037   2.560   2.006   2.691  0.6350 -0.3021 -0.3104
  760SOL    HW1 3038   2.537   1.909   2.665  4.7362 -0.0443 -0.6207
  760SOL    HW2 3039   2.583   2.053   2.609 -1.2440  0.4817  3.1025
  760SOL     MW 3040   2.560   2.000   2.677  0.9282 -0.1646  0.0990
  761SOL     OW 3041   2.132   0.428   2.475  0.3899  0.0497  0.0462
  761SOL    HW1 3042   2.062   0.364   2.465 -0.3558  3.2575 -1.5611
  761SOL    HW2 3043   2.119   0.466   2.563 -3.4039  2.0033  1.4578
  761SOL     MW 3044   2.121   0.425   2.485 -0.2090  0.7307  0.0204
  762SOL     OW 3045   3.091   0.152   2.017  0.3425  0.4450  0.4260
  762SOL    HW1 3046   3.075   0.100   2.094  1.2846  0.6973 -0.1078
  762SOL    HW2 3047   3.030   0.225   2.028  1.8088  0.0606  0.8304
  762SOL     MW 3048   3.081   0.155   2.028  0.6602  0.4276  0.4089
  763SOL     OW 3049   2.446   1.074   2.311  0.1111  0.3832 -0.3527
  763SOL    HW1 3050   2.467   1.036   2.221  0.0044 -0.5686 -1.3442
  763SOL    HW2 3051   2.506   1.144   2.332  1.0797 -3.0361  0.3455
  763SOL     MW 3052   2.456   1.078   2.302  0.2248 -0.1935 -0.3914
  764SOL     OW 3053   0.438   0.278   2.780 -0.2527  0.5648  0.2058
  764SOL    HW1 3054   0.362   0.245   2.740 -1.1738 -0.5943  3.7068
  764SOL    HW2 3055   0.423   0.362   2.822 -0.8577  1.1067  0.6657
  764SOL     MW 3056   0.426   0.285   2.780 -0.4541  0.4834  0.7284
  765SOL     OW 3057   2.754   0.089   2.290  0.4044 -0.1935 -0.2718
  765SOL    HW1 3058   2.704   0.075   2.208 -0.7784  0.3046  1.8209
  765SOL    HW2 3059   2.806   0.003   2.301 -0.5917 -2.1982 -0.6724
  765SOL     MW 3060   2.754   0.076   2.281  0.1169 -0.3923 -0.0486
  766SOL     OW 3061   1.855   3.010   2.213  0.5446 -0.4079  0.2138
  766SOL    HW1 3062   1.916   3.067   2.164  0.0801  1.2437 -1.8278
  766SOL    HW2 3063   1.818   2.958   2.141  3.2263  0.1987  2.1362
  766SOL     MW 3064   1.858   3.011   2.197  0.8372 -0.1100  0.1981
  767SOL     OW 3065   2.631   0.617   1.944 -0.1172  0.2104  0.0244
  767SOL    HW1 3066   2.667   0.681   2.003  0.2496  0.7480 -1.5827
  767SOL    HW2 3067   2.533   0.622   1.950  0.0307  0.1131 -1.5995
  767SOL     MW 3068   2.623   0.626   1.952 -0.0493  0.2685 -0.4019
  768SOL     OW 3069   0.025   1.565   2.982  0.2340 -0.3625 -0.6755
  768SOL    HW1 3070   0.033   1.524   3.067  1.6277  2.6627 -1.7578
  768SOL    HW2 3071   0.030   1.487   2.921 -2.9975  1.1896 -1.4918
  768SOL     MW 3072   0.027   1.549   2.985 -0.0085  0.2414 -0.9260
  769SOL     OW 3073   2.338   0.709   2.301 -0.0309 -0.4566  0.0349
  769SOL    HW1 3074   2.256   0.660   2.284 -1.7932 -1.2317 -0.5619
  769SOL    HW2 3075   2.396   0.689   2.226  0.2211  0.0022 -1.1174
  769SOL     MW 3076   2.334   0.700   2.289 -0.2301 -0.4983 -0.1959
  770SOL     OW 3077   0.098   1.628   2.604  0.2292 -0.4176 -0.6502
  770SOL    HW1 3078   0.004   1.652   2.584 -0.6510 -2.9961 -0.3656
  770SOL    HW2 3079   0.105   1.545   2.660  0.7057 -2.0616 -0.9097
  770SOL     MW 3080   0.086   1.620   2.609  0.1759 -0.9747 -0.6469
  771SOL     OW 3081   2.961   0.627   1.920 -0.0189 -0.4090  0.0238
  771SOL    HW1 3082   2.914   0.646   1.839 -0.7687  0.2564  4.0324
  771SOL    HW2 3083   3.056   0.629   1.905  0.6495  1.4958  0.7458
  771SOL     MW 3084   2.967   0.629   1.908 -0.0296 -0.0699  0.6479
  772SOL     OW 3085   3.085   3.099   2.244  0.4570  0.1307  0.5409
  772SOL    HW1 3086   3.018   3.051   2.288  1.3746  2.8297 -1.3873
  772SOL    HW2 3087   3.164   3.044   2.250 -3.2988  0.4777 -0.7916
  772SOL     MW 3088   3.087   3.085   2.251  0.0825  0.5326  0.1107
  773SOL     OW 3089   2.444   2.823   2.752  0.2618  0.3767 -0.4911
  773SOL    HW1 3090   2.454   2.750   2.695  0.1672 -1.0545  2.0590
  773SOL    HW2 3091   2.448   2.792   2.844  1.1278 -0.0039 -0.0737
  773SOL     MW 3092   2.446   2.809   2.757  0.3636  0.1376 -0.0996
  774SOL     OW 3093   2.286   1.151   1.727  0.5439  0.5603  0.1937
  774SOL    HW1 3094   2.256   1.224   1.672 -1.9013 -1.6058 -2.2507
  774SOL    HW2 3095   2.227   1.076   1.696 -2.6016 -1.2055  0.3971
  774SOL     MW 3096   2.274   1.151   1.715 -0.1938  0.0416 -0.1020
  775SOL     OW 3097   2.323   2.914   2.341 -0.2089  0.3823 -0.1731
  775SOL    HW1 3098   2.339   2.987   2.284  2.9669 -1.6646  0.9358
  775SOL    HW2 3099   2.404   2.865   2.331  0.2846 -0.5281  0.1864
  775SOL     MW 3100   2.336   2.917   2.332  0.2752 -0.0079  0.0207
  776SOL     OW 3101   0.019   1.429   0.120 -0.0692  0.3801  0.3133
  776SOL    HW1 3102   0.103   1.399   0.134 -2.2722  1.8943 -1.3752
  776SOL    HW2 3103  -0.034   1.346   0.120  1.2997  0.2300 -0.2102
  776SOL     MW 3104   0.023   1.414   0.122 -0.1793  0.5601  0.0215
  777SOL     OW 3105   3.026   1.079   1.743  0.3513  0.0076  0.2023
  777SOL    HW1 3106   3.010   1.165   1.712  0.5380 -1.5897 -0.1214
  777SOL    HW2 3107   2.939   1.052   1.781  0.6974  0.1861  0.1155
  777SOL     MW 3108   3.012   1.087   1.744  0.4216 -0.1796  0.1482
  778SOL     OW 3109   2.916   0.408   2.748 -0.0462 -0.1901  0.0397
  778SOL    HW1 3110   2.849   0.443   2.809  0.3820 -0.3355 -0.4962
  778SOL    HW2 3111   2.930   0.477   2.687 -1.2891  0.2221  2.6854
  778SOL     MW 3112   2.909   0.422   2.748 -0.1537 -0.1549  0.3181
  779SOL     OW 3113   2.099   0.617   2.298  0.4145  0.1168 -0.0370
  779SOL    HW1 3114   2.019   0.657   2.321 -1.0509 -1.3810  3.1499
  779SOL    HW2 3115   2.117   0.546   2.373  1.0724 -4.1185  0.8826
  779SOL     MW 3116   2.090   0.613   2.311  0.3080 -0.6396  0.5048
  780SOL     OW 3117   0.201   0.165   2.745  0.6299 -0.6115  0.0298
  780SOL    HW1 3118   0.194   0.211   2.823 -1.2056 -1.2390 -0.9992
  780SOL    HW2 3119   0.109   0.169   2.723  0.9159 -1.3773 -0.1587
  780SOL     MW 3120   0.188   0.172   2.752  0.4255 -0.7953 -0.1308
  781SOL     OW 3121   3.047   1.316   2.508  0.3696  0.3182  0.3633
  781SOL    HW1 3122   3.035   1.363   2.425 -0.3300  0.0293  0.9148
  781SOL    HW2 3123   3.063   1.225   2.477 -0.3516 -3.7834 -1.5882
  781SOL     MW 3124   3.047   1.310   2.493  0.1821 -0.2611  0.1786
  782SOL     OW 3125   0.753   1.518   3.052 -0.3913  0.9945  1.0291
  782SOL    HW1 3126   0.670   1.569   3.047 -1.7701 -0.8227 -3.5167
  782SOL    HW2 3127   0.757   1.516   3.150 -3.2889 -0.4512 -0.6945
  782SOL     MW 3128   0.743   1.525   3.064 -0.9555  0.5640  0.2019
  783SOL     OW 3129   2.739   0.474   2.417 -0.7826  0.1407  0.0579
  783SOL    HW1 3130   2.673   0.451   2.349 -1.9745  1.1328  0.9082
  783SOL    HW2 3131   2.685   0.465   2.494 -1.1921 -1.7503 -2.2033
  783SOL     MW 3132   2.723   0.470   2.418 -0.9939  0.0221 -0.1282
  784SOL     OW 3133   0.248   0.868   2.877  0.5396  0.9180  0.2991
  784SOL    HW1 3134   0.202   0.943   2.906 -0.6500 -0.2265 -1.1734
  784SOL    HW2 3135   0.307   0.907   2.816 -2.6082 -1.8753  1.5967
  784SOL     MW 3136   0.249   0.883   2.873 -0.0326  0.3984  0.2760
  785SOL     OW 3137   0.428   0.487   2.189  0.1047  0.3809 -0.2168
  785SOL    HW1 3138   0.441   0.548   2.115 -1.7497  3.0791  1.2319
  785SOL    HW2 3139   0.363   0.418   2.158  0.8670 -0.6917 -0.8824
  785SOL     MW 3140   0.421   0.486   2.175 -0.0394  0.5953 -0.1135
  786SOL     OW 3141   1.973   0.474   2.919 -0.2319  0.5830 -0.8921
  786SOL    HW1 3142   1.983   0.499   3.011  2.0323  0.2214  2.7656
  786SOL    HW2 3143   2.052   0.503   2.861 -1.0773 -2.6314  1.2463
  786SOL     MW 3144   1.984   0.481   2.924 -0.0447  0.1111 -0.1274
  787SOL     OW 3145   2.420   0.167   2.913 -0.0014 -0.0521 -0.0135
  787SOL    HW1 3146   2.486   0.105   2.861 -0.1556  0.4359  0.8305
  787SOL    HW2 3147   2.472   0.215   2.980  0.9817  2.0207 -1.0514
  787SOL     MW 3148   2.436   0.165   2.915  0.1080  0.2858 -0.0391
  788SOL     OW 3149   2.885   2.964   2.362 -0.0085 -0.2209 -0.1734
  788SOL    HW1 3150   2.833   2.959   2.441 -4.0269 -0.6917  0.8195
  788SOL    HW2 3151   2.928   2.873   2.360  0.6198  1.5035 -0.8244
  788SOL     MW 3152   2.884   2.951   2.372 -0.4558 -0.0555 -0.1283
  789SOL     OW 3153   0.051   0.315   2.957  0.3693  0.1236 -0.3279
  789SOL    HW1 3154  -0.030   0.276   2.989 -1.7753  2.1386 -0.9385
  789SOL    HW2 3155   0.027   0.414   2.953  2.7004  1.3907  0.9570
  789SOL     MW 3156   0.037   0.323   2.960  0.3939  0.5566 -0.2390
  790SOL     OW 3157   3.043   1.063   2.437  0.2753  0.3300  0.1057
  790SOL    HW1 3158   3.013   1.010   2.515  0.4826 -0.1080 -0.2107
  790SOL    HW2 3159   2.990   1.041   2.360 -1.6663 -1.0267 -1.4133
  790SOL     MW 3160   3.032   1.053   2.437  0.0464  0.0932 -0.1364
  791SOL     OW 3161   2.603   0.339   2.627  0.0088 -0.2893  0.3415
  791SOL    HW1 3162   2.529   0.382   2.674 -1.1127 -0.0283 -2.4338
  791SOL    HW2 3163   2.669   0.323   2.699 -0.6615 -0.3199  0.8690
  791SOL     MW 3164   2.602   0.343   2.643 -0.2276 -0.2589  0.0449
  792SOL     OW 3165   2.354   0.269   2.390  0.0342 -0.0543 -0.6482
  792SOL    HW1 3166   2.279   0.288   2.448 -0.7970 -0.3645  1.1493
  792SOL    HW2 3167   2.420   0.222   2.451  0.5421  0.5213 -0.1205
  792SOL     MW 3168   2.353   0.265   2.406 -0.0085 -0.0193 -0.3414
  793SOL     OW 3169   1.847   1.061   1.981 -0.2639  0.5308  0.2852
  793SOL    HW1 3170   1.822   1.090   1.899  1.2703  0.3485  2.3708
  793SOL    HW2 3171   1.898   0.986   1.956 -0.9584 -1.8466 -1.0647
  793SOL     MW 3172   1.851   1.055   1.967 -0.1531  0.1930  0.3823
  794SOL     OW 3173   1.425   2.268   0.178  0.4721 -0.4122  0.0492
  794SOL    HW1 3174   1.445   2.335   0.107  0.3854 -0.2496  1.1031
  794SOL    HW2 3175   1.475   2.301   0.250 -1.3917  0.2770 -0.4510
  794SOL     MW 3176   1.435   2.281   0.178  0.2148 -0.2998  0.1223
  795SOL     OW 3177   2.359   0.966   2.552  0.1734 -0.0651 -0.0782
  795SOL    HW1 3178   2.339   1.028   2.623 -1.0330 -0.8914  0.1336
  795SOL    HW2 3179   2.417   1.011   2.487 -0.0256 -1.1560  3.3664
  795SOL     MW 3180   2.364   0.980   2.553 -0.0120 -0.3181  0.4042
  796SOL     OW 3181   0.268   0.597   2.734  0.3420  0.1499 -0.2884
  796SOL    HW1 3182   0.225   0.675   2.762  0.1826  1.4042  0.7198
  796SOL    HW2 3183   0.216   0.563   2.657  0.2131 -1.6338  0.4410
  796SOL     MW 3184   0.256   0.603   2.727  0.3039  0.0801 -0.0592
  797SOL     OW 3185   2.573   0.111   2.492 -0.0956 -0.2704 -0.0144
  797SOL    HW1 3186   2.593   0.198   2.551  0.2523  1.4990  1.6569
  797SOL    HW2 3187   2.629   0.124   2.415  2.5645 -0.6652  2.5001
  797SOL     MW 3188   2.583   0.124   2.490  0.3013 -0.0890  0.5379
  798SOL     OW 3189   2.321   0.069   2.217  0.0212 -0.3008 -0.0293
  798SOL    HW1 3190   2.326   0.144   2.283  0.1503  1.8898 -2.4985
  798SOL    HW2 3191   2.413   0.066   2.183  3.9114 -0.4542  0.8299
  798SOL     MW 3192   2.334   0.078   2.221  0.5515 -0.0320 -0.2417
  799SOL     OW 3193   2.461   2.928   0.119 -0.2178 -0.0966  0.8410
  799SOL    HW1 3194   2.399   2.856   0.096  1.3622 -1.5511 -1.8121
  799SOL    HW2 3195   2.412   3.009   0.107 -0.9490  1.3301 -0.8482
  799SOL     MW 3196   2.446   2.930   0.114 -0.1058 -0.1003  0.2681
  800SOL     OW 3197   1.865   0.016   1.775 -0.5891 -0.4054  0.3892
  800SOL    HW1 3198   1.817  -0.067   1.770 -0.7493 -0.4867 -0.9235
  800SOL    HW2 3199   1.912   0.013   1.856 -0.2290 -1.5557 -0.6058
  800SOL     MW 3200   1.865   0.005   1.785 -0.5627 -0.5679  0.0847
  801SOL     OW 3201   2.799   1.274   2.614  0.2567 -0.5613  1.0712
  801SOL    HW1 3202   2.806   1.179   2.607 -0.9409  3.1717 -0.1308
  801SOL    HW2 3203   2.888   1.299   2.581 -1.4888  2.2094  2.3094
  801SOL     MW 3204   2.812   1.265   2.609 -0.1316  0.2968  1.0759
  802SOL     OW 3205   2.580   1.544   2.827  0.0898 -0.0198  0.0140
  802SOL    HW1 3206   2.564   1.454   2.787 -0.1456  1.0498 -0.8174
  802SOL    HW2 3207   2.677   1.550   2.837 -1.6586  1.1348 -2.5745
  802SOL     MW 3208   2.591   1.533   2.823 -0.1719  0.2737 -0.4372
  803SOL     OW 3209   2.309   1.411   2.002 -0.5719 -0.2711 -0.0132
  803SOL    HW1 3210   2.278   1.403   2.089 -1.2247 -1.0505  2.9096
  803SOL    HW2 3211   2.274   1.329   1.963  0.3088 -0.3188  0.1632
  803SOL     MW 3212   2.301   1.399   2.008 -0.5418 -0.3802  0.3957
  804SOL     OW 3213   2.281   0.062   0.037 -0.4975 -0.2282  0.5447
  804SOL    HW1 3214   2.188   0.092   0.046 -0.1514  1.0679  0.4389
  804SOL    HW2 3215   2.312   0.097  -0.049 -2.3570 -0.2971 -1.1237
  804SOL     MW 3216   2.273   0.070   0.026 -0.6972 -0.0663  0.3106
  805SOL     OW 3217   2.687   0.998   2.526  0.1363  0.2924 -0.8908
  805SOL    HW1 3218   2.666   0.937   2.458  0.5691 -1.4773  0.5777
  805SOL    HW2 3219   2.766   0.964   2.570  0.6127  0.7723 -1.4474
  805SOL     MW 3220   2.694   0.985   2.523  0.2563  0.1222 -0.7705
  806SOL     OW 3221   2.535   0.399   2.222  0.1431 -0.4418 -0.3122
  806SOL    HW1 3222   2.458   0.359   2.263  0.2234 -0.2903  1.9048
  806SOL    HW2 3223   2.520   0.398   2.128  1.6553  1.4106 -2.0593
  806SOL     MW 3224   2.523   0.394   2.215  0.3532 -0.1774 -0.2502
  807SOL     OW 3225   0.077   1.177   2.106 -0.7366 -0.2773  0.3161
  807SOL    HW1 3226   0.097   1.095   2.064 -1.9050 -0.3219 -1.4691
  807SOL    HW2 3227   0.010   1.160   2.177 -4.2698  0.8053 -0.4967
  807SOL     MW 3228   0.071   1.164   2.110 -1.3569 -0.1403 -0.0267
  808SOL     OW 3229   2.566   3.079   2.747  0.2635 -0.0888  0.5123
  808SOL    HW1 3230   2.517   2.995   2.744 -0.3552 -0.5890  3.0879
  808SOL    HW2 3231   2.563   3.124   2.657  0.2797  4.2223 -2.4457
  808SOL     MW 3232   2.559   3.074   2.735  0.1840  0.4140  0.4618
  809SOL     OW 3233   2.566   1.282   2.422 -0.4907 -0.1344 -0.5706
  809SOL    HW1 3234   2.618   1.237   2.486  3.0744 -0.1330  0.0454
  809SOL    HW2 3235   2.623   1.290   2.347  0.9638 -1.4757 -2.3541
  809SOL     MW 3236   2.580   1.277   2.420  0.1716 -0.3112 -0.7247
  810SOL     OW 3237   2.246   1.281   2.238  0.4092  1.3341 -0.2822
  810SOL    HW1 3238   2.303   1.205   2.265  3.3525 -1.8568 -1.2009
  810SOL    HW2 3239   2.153   1.252   2.222 -1.9637  1.2590 -1.0660
  810SOL     MW 3240   2.241   1.267   2.239  0.4845  0.9032 -0.5068
  811SOL     OW 3241   1.551   0.152   2.273  0.2874 -0.4993 -0.3553
  811SOL    HW1 3242   1.628   0.104   2.322  1.3392 -1.3251  0.0507
  811SOL    HW2 3243   1.541   0.090   2.199  0.5052 -1.6915  1.1676
  811SOL     MW 3244   1.560   0.138   2.270  0.4549 -0.7655 -0.1008
  812SOL     OW 3245   1.459   2.843   2.135  0.0235 -0.1447 -0.4053
  812SOL    HW1 3246   1.546   2.846   2.086 -0.0933 -2.4572 -0.6132
  812SOL    HW2 3247   1.493   2.820   2.220 -1.5397 -2.0771 -0.2693
  812SOL     MW 3248   1.475   2.841   2.140 -0.1981 -0.7048 -0.4148
  813SOL     OW 3249   1.825   0.740   2.188 -0.2444 -0.5642  0.0972
  813SOL    HW1 3250   1.782   0.653   2.195 -0.1406  0.1282 -1.5081
  813SOL    HW2 3251   1.846   0.765   2.278 -2.5239 -0.2592  0.2561
  813SOL     MW 3252   1.822   0.732   2.201 -0.5315 -0.4326 -0.0936
  814SOL     OW 3253   2.758   1.262   1.658  0.4060  0.3289  0.5507
  814SOL    HW1 3254   2.691   1.228   1.720  0.5221  0.2207  2.4150
  814SOL    HW2 3255   2.776   1.210   1.576  1.5922  0.8649 -0.8103
  814SOL     MW 3256   2.751   1.251   1.655  0.5778  0.3854  0.6171
  815SOL     OW 3257   2.482   1.656   2.422 -0.1164  0.1212  0.3496
  815SOL    HW1 3258   2.409   1.587   2.422 -2.5320 -1.6996  1.7816
  815SOL    HW2 3259   2.566   1.601   2.443  1.4026 -4.0757  3.7890
  815SOL     MW 3260   2.484   1.640   2.425 -0.2347 -0.6728  0.9923
  816SOL     OW 3261   0.748   0.691   2.726 -0.3696  0.5895 -0.1056
  816SOL    HW1 3262   0.762   0.610   2.784  0.8145  0.2893 -2.2911
  816SOL    HW2 3263   0.650   0.705   2.724 -2.1596  0.1774  0.9974
  816SOL     MW 3264   0.737   0.682   2.734 -0.4496  0.4955 -0.2484
  817SOL     OW 3265   3.029   1.283   1.415 -0.1550 -0.0522 -0.7354
  817SOL    HW1 3266   3.113   1.241   1.441  0.9409  0.1733 -0.2047
  817SOL    HW2 3267   3.055   1.369   1.381 -0.3753 -1.1290 -1.2608
  817SOL     MW 3268   3.043   1.288   1.414 -0.0395 -0.1645 -0.7347
  818SOL     OW 3269   1.953   1.044   2.698  0.4421 -0.9456  0.3939
  818SOL    HW1 3270   1.926   1.068   2.608 -1.2832 -1.2432  1.5419
  818SOL    HW2 3271   1.992   0.955   2.694  0.5448 -1.5876  0.5084
  818SOL     MW 3272   1.954   1.035   2.685  0.2280 -1.0696  0.5605
  819SOL     OW 3273   1.896   0.278   2.452 -0.2852  0.1411  0.0539
  819SOL    HW1 3274   1.837   0.353   2.467 -0.7400 -3.0452 -1.0723
  819SOL    HW2 3275   1.937   0.257   2.543  2.0398  1.9853 -0.6200
  819SOL     MW 3276   1.893   0.285   2.466 -0.0384 -0.0360 -0.1836
  820SOL     OW 3277   2.461   1.742   2.677  0.1816  0.1312 -0.0138
  820SOL    HW1 3278   2.499   1.665   2.726 -2.2464  0.9694  1.7580
  820SOL    HW2 3279   2.483   1.720   2.582 -0.1672  1.1286 -0.7856
  820SOL     MW 3280   2.469   1.729   2.671 -0.1848  0.3734  0.1182
  821SOL     OW 3281   2.570   1.344   1.999 -0.1980 -0.0612 -0.5403
  821SOL    HW1 3282   2.612   1.400   1.933  0.1421  0.0239 -0.6666
  821SOL    HW2 3283   2.477   1.378   2.013 -1.2170 -1.5746 -0.2290
  821SOL     MW 3284   2.564   1.356   1.992 -0.2876 -0.2496 -0.5159
  822SOL     OW 3285   2.821   2.598   1.477  0.1892  0.0967  0.1612
  822SOL    HW1 3286   2.839   2.602   1.569 -0.6449 -0.8042 -0.3426
  822SOL    HW2 3287   2.745   2.661   1.461 -1.5621 -1.8306 -0.2286
  822SOL     MW 3288   2.813   2.607   1.487 -0.1519 -0.2764  0.0433
  823SOL     OW 3289   2.252   0.474   1.783 -0.0443  0.3538  0.9608
  823SOL    HW1 3290   2.328   0.426   1.750  0.2873 -1.6203  1.1668
  823SOL    HW2 3291   2.174   0.417   1.767  2.9232 -0.1865 -1.1398
  823SOL     MW 3292   2.251   0.460   1.777  0.3910  0.0220  0.7108
  824SOL     OW 3293   2.071   1.371   2.594 -0.1430  0.6997 -0.6325
  824SOL    HW1 3294   2.145   1.425   2.557  0.5658  1.5389 -1.5883
  824SOL    HW2 3295   2.037   1.434   2.666  1.6823  2.8535  0.5610
  824SOL     MW 3296   2.076   1.387   2.599  0.1913  1.0946 -0.6012
  825SOL     OW 3297   2.064   2.586   0.281  0.7498 -0.3799 -0.1733
  825SOL    HW1 3298   2.084   2.557   0.372  1.1348  1.8362  0.7805
  825SOL    HW2 3299   2.110   2.534   0.212  1.8886  0.7797 -0.4010
  825SOL     MW 3300   2.073   2.575   0.284  0.9509  0.0655 -0.0775
  826SOL     OW 3301   1.937   2.369   0.533  0.5731 -0.7889 -0.0047
  826SOL    HW1 3302   1.870   2.300   0.555  0.7377 -2.5067  1.1630
  826SOL    HW2 3303   1.905   2.451   0.578 -0.6518  0.3143  2.6621
  826SOL     MW 3304   1.924   2.370   0.542  0.4332 -0.8700  0.5012
  827SOL     OW 3305   1.945   2.189   0.854  0.6130 -0.3796 -0.1312
  827SOL    HW1 3306   1.869   2.226   0.814  2.4590  1.9577 -0.6897
  827SOL    HW2 3307   1.918   2.101   0.876 -1.3954  2.6945 -4.1062
  827SOL     MW 3308   1.932   2.182   0.852  0.5915  0.3344 -0.7293
  828SOL     OW 3309   0.063   2.683   0.588 -0.4231 -0.1000 -0.4227
  828SOL    HW1 3310   0.153   2.686   0.557 -0.6578 -1.5875 -4.2201
  828SOL    HW2 3311   0.014   2.723   0.520 -0.9931  3.0067  0.0301
  828SOL     MW 3312   0.068   2.689   0.575 -0.5292  0.1136 -0.8640
  829SOL     OW 3313   2.981   2.925   1.264  0.4842  0.3469 -0.4007
  829SOL    HW1 3314   2.918   2.939   1.198  0.4736 -0.9255  0.4955
  829SOL    HW2 3315   3.026   2.840   1.252  0.0138 -0.8059  1.0707
  829SOL     MW 3316   2.978   2.916   1.254  0.4207  0.0269 -0.0883
  830SOL     OW 3317   2.501   2.847   2.047  0.4096  0.6278 -0.2419
  830SOL    HW1 3318   2.410   2.842   2.007 -2.1377  1.4486  0.7836
  830SOL    HW2 3319   2.559   2.851   1.972  0.8762  2.2594  0.0811
  830SOL     MW 3320   2.497   2.847   2.032  0.1351  0.9514 -0.0639
  831SOL     OW 3321   2.412   2.408   1.259 -0.2668  0.1802 -0.5056
  831SOL    HW1 3322   2.368   2.344   1.322 -2.1219  0.1474  0.0617
  831SOL    HW2 3323   2.507   2.384   1.266 -0.9264  1.4763 -0.7796
  831SOL     MW 3324   2.419   2.396   1.268 -0.5986  0.3469 -0.4669
  832SOL     OW 3325   2.429   2.242   1.892 -0.0685  0.1335  0.1716
  832SOL    HW1 3326   2.458   2.341   1.894 -1.2625  1.1870  1.3981
  832SOL    HW2 3327   2.506   2.185   1.877 -0.9418 -1.2317 -0.7343
  832SOL     MW 3328   2.443   2.248   1.890 -0.3413  0.0924  0.2139
  833SOL     OW 3329   1.772   2.431   0.935 -0.0083  0.1022  0.2924
  833SOL    HW1 3330   1.683   2.410   0.938  0.3954  0.1770 -1.8386
  833SOL    HW2 3331   1.770   2.514   0.977  1.2703  3.5110  0.5770
  833SOL     MW 3332   1.760   2.439   0.941  0.2137  0.5618  0.0488
  834SOL     OW 3333   2.227   2.455   0.536 -0.3917  0.0992 -0.1758
  834SOL    HW1 3334   2.183   2.373   0.564  3.4874 -1.2795 -2.4802
  834SOL    HW2 3335   2.285   2.410   0.469  1.7888 -0.8297 -0.0326
  834SOL     MW 3336   2.229   2.438   0.531  0.4078 -0.2053 -0.4610
  835SOL     OW 3337   1.831   2.571   0.676  0.9006  0.2375 -0.2484
  835SOL    HW1 3338   1.818   2.528   0.774 -0.1269 -2.5757  1.3897
  835SOL    HW2 3339   1.890   2.639   0.706 -0.9727  0.4708 -0.1216
  835SOL     MW 3340   1.837   2.574   0.693  0.5179 -0.1029 -0.0156
  836SOL     OW 3341   1.951   2.126   1.664  0.1705  0.1095  0.4089
  836SOL    HW1 3342   2.042   2.137   1.687 -0.9875  0.7776  1.6620
  836SOL    HW2 3343   1.918   2.205   1.710 -0.4248  0.9178  0.1355
  836SOL     MW 3344   1.959   2.138   1.673 -0.0608  0.3043  0.5381
  837SOL     OW 3345   2.084   0.182   0.700  0.2508 -0.1071  0.5976
  837SOL    HW1 3346   2.005   0.228   0.657 -1.3599  3.1547  1.9386
  837SOL    HW2 3347   2.144   0.137   0.632  0.3781  0.0375 -0.2020
  837SOL     MW 3348   2.081   0.182   0.685  0.0551  0.3424  0.6690
  838SOL     OW 3349   2.907   2.040   0.913 -0.2639 -0.0989 -0.3015
  838SOL    HW1 3350   2.825   2.005   0.951  0.3853  0.1163  0.6013
  838SOL    HW2 3351   2.934   1.971   0.852 -0.7456 -0.2914  2.3225
  838SOL     MW 3352   2.900   2.026   0.910 -0.2418 -0.0959  0.1638
  839SOL     OW 3353   1.493   2.340   0.925 -0.8631 -0.0173 -0.5487
  839SOL    HW1 3354   1.476   2.413   0.986  1.7886 -1.5680  1.1578
  839SOL    HW2 3355   1.535   2.265   0.977  1.5843  1.7929 -0.1774
  839SOL     MW 3356   1.496   2.340   0.940 -0.1903  0.0169 -0.2746
  840SOL     OW 3357   2.298   2.094   2.395 -0.4221 -0.7447  0.1392
  840SOL    HW1 3358   2.237   2.168   2.364  3.0514  1.7793  0.5903
  840SOL    HW2 3359   2.357   2.130   2.457  0.7705 -0.3816 -1.4927
  840SOL     MW 3360   2.298   2.109   2.400  0.1936 -0.3638 -0.0166
  841SOL     OW 3361   2.190   2.429   0.090 -0.5081  0.2488 -0.5225
  841SOL    HW1 3362   2.249   2.435   0.019 -0.0502 -1.9449  1.4305
  841SOL    HW2 3363   2.121   2.370   0.050 -2.4300  1.9243 -3.5588
  841SOL     MW 3364   2.189   2.422   0.076 -0.7013  0.1805 -0.6654
  842SOL     OW 3365   2.678   1.998   1.584  0.5259 -0.0173  0.0353
  842SOL    HW1 3366   2.619   1.920   1.582  0.1730  3.9224 -0.1765
  842SOL    HW2 3367   2.633   2.059   1.520 -4.0843 -0.0275 -2.0146
  842SOL     MW 3368   2.664   1.996   1.575 -0.1289  0.5011 -0.2631
  843SOL     OW 3369   2.669   2.852   1.820 -0.1446  0.1752  0.2361
  843SOL    HW1 3370   2.736   2.786   1.805 -1.9581  1.1395  2.0570
  843SOL    HW2 3371   2.609   2.837   1.751 -0.9365  3.3109  1.6682
  843SOL     MW 3372   2.670   2.841   1.809 -0.4883  0.7161  0.6653
  844SOL     OW 3373   2.663   2.316   1.223 -0.2138  0.1607 -0.1634
  844SOL    HW1 3374   2.703   2.363   1.150 -1.1707 -0.7428  3.0757
  844SOL    HW2 3375   2.729   2.305   1.290  0.8572  0.2226 -2.9205
  844SOL     MW 3376   2.677   2.321   1.222 -0.1987  0.0497 -0.0998
  845SOL     OW 3377   2.859   2.492   0.294 -0.4498  0.4952  0.7714
  845SOL    HW1 3378   2.779   2.431   0.293  2.8703 -2.0040  1.4025
  845SOL    HW2 3379   2.837   2.553   0.365 -0.4072  1.7046  1.3933
  845SOL     MW 3380   2.846   2.492   0.303 -0.0062  0.3250  0.9367
  846SOL     OW 3381   1.532   2.844   0.830  0.2549 -0.4279  0.0215
  846SOL    HW1 3382   1.612   2.896   0.821 -1.0038 -0.8264  0.5279
  846SOL    HW2 3383   1.473   2.903   0.880  0.5075  2.2039 -0.9034
  846SOL     MW 3384   1.535   2.858   0.836  0.1222 -0.1332 -0.0337
  847SOL     OW 3385   2.515   1.963   0.174 -0.3397  0.0109  0.2348
  847SOL    HW1 3386   2.552   1.884   0.212 -1.6562  1.3264 -2.0300
  847SOL    HW2 3387   2.447   1.938   0.107  4.1201 -2.2676  0.6882
  847SOL     MW 3388   2.511   1.949   0.170  0.0751 -0.1162 -0.0042
  848SOL     OW 3389   2.552   2.106   1.342  0.3692  0.2389  0.2838
  848SOL    HW1 3390   2.580   2.183   1.299 -0.7706 -3.1478  1.9984
  848SOL    HW2 3391   2.566   2.040   1.277 -0.1187  2.8686 -0.5411
  848SOL     MW 3392   2.558   2.107   1.328  0.1544  0.1390  0.4012
  849SOL     OW 3393   2.013   2.803   0.769  0.1425  0.4065  0.3051
  849SOL    HW1 3394   2.036   2.751   0.851  3.8653 -1.2198 -1.3425
  849SOL    HW2 3395   2.085   2.769   0.712  0.7465 -1.2040  1.5968
  849SOL     MW 3396   2.026   2.792   0.772  0.7134 -0.0205  0.2582
  850SOL     OW 3397   2.265   1.891   1.703 -0.6674 -0.8111 -0.2898
  850SOL    HW1 3398   2.177   1.859   1.680  3.0278 -0.4944 -1.1397
  850SOL    HW2 3399   2.271   1.987   1.691 -2.0128 -0.9596 -2.2419
  850SOL     MW 3400   2.254   1.899   1.698 -0.3574 -0.7889 -0.6595
  851SOL     OW 3401   2.367   2.346   0.314 -0.5269 -0.3864 -0.1364
  851SOL    HW1 3402   2.317   2.373   0.238  1.0405  1.6225  1.9263
  851SOL    HW2 3403   2.444   2.403   0.319  3.4308 -0.9900 -0.0079
  851SOL     MW 3404   2.370   2.357   0.304  0.2021 -0.2010  0.1527
  852SOL     OW 3405   2.339   2.083   0.336 -0.2082  0.1178 -0.3881
  852SOL    HW1 3406   2.352   2.176   0.324 -0.7331 -1.0333  0.5552
  852SOL    HW2 3407   2.419   2.042   0.294  0.4132  2.1108  0.2725
  852SOL     MW 3408   2.351   2.090   0.329 -0.1955  0.2289 -0.1765
  853SOL     OW 3409   2.479   2.504   1.961  0.2202 -0.2250  0.0644
  853SOL    HW1 3410   2.506   2.543   1.876 -0.6123  1.1577 -0.8659
  853SOL    HW2 3411   2.557   2.463   1.998 -0.7503 -0.4321 -0.1488
  853SOL     MW 3412   2.493   2.504   1.955 -0.0177 -0.0699 -0.0865
  854SOL     OW 3413   2.873   2.264   0.783 -0.2269 -0.5361  0.0159
  854SOL    HW1 3414   2.795   2.244   0.729 -0.5243 -1.3489  0.5547
  854SOL    HW2 3415   2.894   2.175   0.833  2.3768  0.1769  0.4319
  854SOL     MW 3416   2.866   2.249   0.783  0.0774 -0.5493  0.1419
  855SOL     OW 3417   2.661   2.293   0.358 -0.3803  0.6761 -0.0829
  855SOL    HW1 3418   2.626   2.310   0.446 -0.9328  0.6726  2.6932
  855SOL    HW2 3419   2.742   2.246   0.366 -0.4552 -1.2821 -2.3307
  855SOL     MW 3420   2.667   2.289   0.371 -0.4631  0.4173 -0.0132
  856SOL     OW 3421   2.141   1.901   0.192  0.0761  0.8087  0.3310
  856SOL    HW1 3422   2.059   1.889   0.241  2.7503 -1.9676 -2.2062
  856SOL    HW2 3423   2.193   1.965   0.239  0.6537 -0.6176  3.5196
  856SOL     MW 3424   2.137   1.908   0.205  0.5051  0.2542  0.4169
  857SOL     OW 3425   2.489   1.987   0.548  0.0765 -0.0449  0.8541
  857SOL    HW1 3426   2.425   2.032   0.489 -3.6396 -1.4034 -2.3665
  857SOL    HW2 3427   2.431   1.909   0.542 -1.0479  0.6417  0.2758
  857SOL     MW 3428   2.473   1.983   0.539 -0.5622 -0.1336  0.3528
  858SOL     OW 3429   2.869   2.647   1.766 -0.1395 -0.4576 -0.2642
  858SOL    HW1 3430   2.958   2.695   1.748  2.2363 -0.0473  2.4721
  858SOL    HW2 3431   2.883   2.560   1.798  0.8630  0.7025  0.3928
  858SOL     MW 3432   2.883   2.642   1.768  0.3062 -0.2504  0.1835
  859SOL     OW 3433   2.139   2.562   0.932  0.3696  0.0558 -0.2486
  859SOL    HW1 3434   2.097   2.512   1.001  1.3722 -0.1935 -1.9089
  859SOL    HW2 3435   2.138   2.502   0.858 -1.0021  1.3053 -1.0148
  859SOL     MW 3436   2.133   2.548   0.931  0.3209  0.1878 -0.5688
  860SOL     OW 3437   2.666   2.608   0.119  0.2457 -0.3218 -0.0518
  860SOL    HW1 3438   2.747   2.587   0.176 -1.1341  1.9897 -2.3192
  860SOL    HW2 3439   2.683   2.697   0.081  1.0142 -1.4008  2.8500
  860SOL     MW 3440   2.679   2.617   0.122  0.1650 -0.1592  0.0319
  861SOL     OW 3441   1.588   2.153   1.088  0.4266  0.3062  0.1244
  861SOL    HW1 3442   1.610   2.223   1.152  1.8696  1.2853  1.1068
  861SOL    HW2 3443   1.532   2.097   1.144 -0.0592  1.6135  0.3648
  861SOL     MW 3444   1.583   2.155   1.104  0.5529  0.6079  0.2857
  862SOL     OW 3445   2.481   1.801   1.561 -0.0770  0.0771 -0.2459
  862SOL    HW1 3446   2.410   1.824   1.624  1.0693 -1.0760  2.5602
  862SOL    HW2 3447   2.447   1.833   1.477  1.5572  1.3539 -0.5003
  862SOL     MW 3448   2.467   1.808   1.558  0.2899  0.0934  0.0908
  863SOL     OW 3449   3.018   1.767   1.031  0.1674 -0.6660  0.0848
  863SOL    HW1 3450   3.094   1.752   1.090 -1.8550 -1.2878 -0.0206
  863SOL    HW2 3451   3.005   1.863   1.043 -1.3031 -0.4815 -0.2081
  863SOL     MW 3452   3.026   1.778   1.040 -0.2934 -0.7237  0.0322
  864SOL     OW 3453   3.046   1.839   0.748  0.3921  0.4165  0.3289
  864SOL    HW1 3454   3.041   1.778   0.826 -0.6991 -1.6003  1.7837
  864SOL    HW2 3455   2.986   1.795   0.684 -2.4764 -1.1757  0.5204
  864SOL     MW 3456   3.037   1.825   0.750 -0.1304 -0.0597  0.5462
  865SOL     OW 3457   2.480   2.200   0.013 -0.1048 -0.0602  0.4068
  865SOL    HW1 3458   2.527   2.144   0.078  2.7939  3.3495 -0.2151
  865SOL    HW2 3459   2.415   2.151  -0.042 -0.8999 -2.0048  1.1557
  865SOL     MW 3460   2.478   2.186   0.014  0.1728  0.1331  0.4235
  866SOL     OW 3461   2.665   2.369   1.685  0.1428 -0.5088 -0.4222
  866SOL    HW1 3462   2.655   2.291   1.742  1.9266 -1.5640 -2.0691
  866SOL    HW2 3463   2.708   2.332   1.601  1.2686  1.0163  0.6146
  866SOL     MW 3464   2.669   2.353   1.681  0.5267 -0.4468 -0.5027
  867SOL     OW 3465   0.033   2.719   1.784  0.3709 -0.1715 -0.0509
  867SOL    HW1 3466   0.024   2.748   1.874 -3.4923 -0.2214 -4.1328
  867SOL    HW2 3467   0.043   2.800   1.729  0.4801  0.5534  1.2393
  867SOL     MW 3468   0.034   2.734   1.788 -0.1244 -0.0824 -0.4192
  868SOL     OW 3469   2.778   2.623   0.537 -0.2454  0.6046  0.0189
  868SOL    HW1 3470   2.711   2.555   0.545 -0.2337  0.3442  0.2425
  868SOL    HW2 3471   2.725   2.693   0.497 -1.4217 -0.9049 -0.0905
  868SOL     MW 3472   2.762   2.623   0.532 -0.3991  0.3711  0.0340
  869SOL     OW 3473   2.074   2.315   1.081 -0.0320 -0.4081 -0.9013
  869SOL    HW1 3474   2.169   2.308   1.060  0.4544  1.7606 -2.4128
  869SOL    HW2 3475   2.014   2.290   1.007 -3.1537  0.0736  2.4472
  869SOL     MW 3476   2.079   2.311   1.069 -0.3797 -0.0584 -0.6589
  870SOL     OW 3477   2.134   0.056   0.451 -0.1613 -0.2504  0.4142
  870SOL    HW1 3478   2.220   0.084   0.406 -1.7459 -1.4162 -2.2480
  870SOL    HW2 3479   2.131  -0.040   0.445 -2.6527 -2.1086 -0.1047
  870SOL     MW 3480   2.145   0.047   0.444 -0.6991 -0.6494 -0.0055
  871SOL     OW 3481   2.480   2.037   0.960 -1.1002 -0.5194 -0.4287
  871SOL    HW1 3482   2.422   2.013   0.886  1.4147  1.8886 -0.4510
  871SOL    HW2 3483   2.447   2.123   0.981 -0.8154 -0.7046  1.8123
  871SOL     MW 3484   2.468   2.045   0.953 -0.7308 -0.2261 -0.1360
  872SOL     OW 3485   2.022   2.510   1.559  0.0370 -0.5251 -0.0834
  872SOL    HW1 3486   2.003   2.565   1.634  2.0455 -1.9901 -0.1928
  872SOL    HW2 3487   1.936   2.464   1.552 -1.1693 -0.2273  0.0080
  872SOL     MW 3488   2.008   2.511   1.568  0.1428 -0.6791 -0.0858
  873SOL     OW 3489   2.909   2.027   1.965 -0.5934  0.0976 -0.1464
  873SOL    HW1 3490   2.888   2.083   2.043  0.8186  3.2226 -1.0658
  873SOL    HW2 3491   3.004   2.042   1.948  2.0849  3.2271  0.0047
  873SOL     MW 3492   2.919   2.037   1.973 -0.0537  0.9228 -0.2478
  874SOL     OW 3493   2.320   1.426   2.457  0.3172 -0.0332 -0.3012
  874SOL    HW1 3494   2.289   1.378   2.377  2.9201 -1.6842  0.4474
  874SOL    HW2 3495   2.395   1.376   2.494  0.8758 -1.5914  0.0356
  874SOL     MW 3496   2.326   1.413   2.452  0.7343 -0.4566 -0.1580
  875SOL     OW 3497   2.327   2.289   1.016 -0.2700  0.3853 -0.1847
  875SOL    HW1 3498   2.351   2.351   0.945  1.6440  0.5454  0.4519
  875SOL    HW2 3499   2.371   2.329   1.094  2.3269 -2.7649  0.3290
  875SOL     MW 3500   2.336   2.302   1.017  0.3252 -0.0092 -0.0329
  876SOL     OW 3501   3.058   2.286   1.304  0.0664  0.1456  0.1855
  876SOL    HW1 3502   3.088   2.329   1.218 -0.7041 -1.7285 -0.0473
  876SOL    HW2 3503   3.129   2.313   1.368 -1.5836  3.3893  1.8799
  876SOL     MW 3504   3.072   2.295   1.301 -0.2530  0.3263  0.3784
  877SOL     OW 3505   0.011   2.770   0.311  0.3328  0.2415  0.1629
  877SOL    HW1 3506   0.074   2.842   0.301 -1.5184  1.8485 -1.1389
  877SOL    HW2 3507   0.015   2.726   0.224 -1.8843  0.2604  0.1310
  877SOL     MW 3508   0.020   2.774   0.298 -0.2040  0.4560 -0.0131
  878SOL     OW 3509   2.376   1.826   1.297 -0.4729 -0.0801 -0.5927
  878SOL    HW1 3510   2.323   1.742   1.308  2.2084  1.2383  1.5305
  878SOL    HW2 3511   2.456   1.790   1.259  0.2926 -2.3684 -1.1618
  878SOL     MW 3512   2.379   1.810   1.293 -0.0181 -0.2081 -0.3877
  879SOL     OW 3513   2.742   2.446   0.973  0.4841  0.3074 -0.0230
  879SOL    HW1 3514   2.783   2.534   0.976 -1.6208 -1.1054 -1.3892
  879SOL    HW2 3515   2.795   2.396   0.913  1.6180 -0.6828  1.5717
  879SOL     MW 3516   2.754   2.451   0.965  0.3560 -0.0096  0.0071
  880SOL     OW 3517   2.620   2.164   0.740  0.1161  0.2487 -0.1806
  880SOL    HW1 3518   2.587   2.119   0.822  0.2243 -5.6608  1.9037
  880SOL    HW2 3519   2.583   2.118   0.668 -0.6535  0.2984 -1.1004
  880SOL     MW 3520   2.611   2.152   0.741  0.0288 -0.5245 -0.0269
  881SOL     OW 3521   2.924   2.734   0.757  0.8481 -0.4907 -0.2412
  881SOL    HW1 3522   2.871   2.692   0.688 -1.4534 -0.6317 -3.3364
  881SOL    HW2 3523   3.017   2.711   0.734  0.1859 -2.1793  1.8146
  881SOL     MW 3524   2.929   2.725   0.745  0.4571 -0.7321 -0.3783
  882SOL     OW 3525   2.234   2.903   1.955  0.2880  0.3480 -0.2424
  882SOL    HW1 3526   2.217   2.917   1.857 -0.5165  0.0086  2.4351
  882SOL    HW2 3527   2.167   2.840   1.985 -2.5955 -3.6342  0.8488
  882SOL     MW 3528   2.223   2.896   1.946 -0.1986 -0.2222  0.2549
  883SOL     OW 3529   2.310   2.202   1.423  0.2586 -0.3289 -0.8513
  883SOL    HW1 3530   2.396   2.155   1.406  0.6134  0.5417 -0.9666
  883SOL    HW2 3531   2.241   2.153   1.374 -1.3135  0.4927  0.9497
  883SOL     MW 3532   2.312   2.189   1.414  0.0980 -0.1056 -0.6289
  884SOL     OW 3533   1.943   1.757   1.055  0.1370  0.5254  0.2498
  884SOL    HW1 3534   1.893   1.826   1.009  2.8069  1.4900 -1.3047
  884SOL    HW2 3535   2.037   1.796   1.050 -2.5268  1.4460 -1.3699
  884SOL     MW 3536   1.949   1.771   1.049  0.1378  0.7741 -0.1690
  885SOL     OW 3537   2.888   2.389   1.842 -0.1591  0.5547 -0.3759
  885SOL    HW1 3538   2.966   2.337   1.818  1.9298  2.3568  1.7943
  885SOL    HW2 3539   2.821   2.376   1.779  0.4779  2.0305 -1.4956
  885SOL     MW 3540   2.889   2.380   1.831  0.2006  0.9872 -0.2373
  886SOL     OW 3541   2.806   2.315   1.462  0.1725  0.6409  0.0992
  886SOL    HW1 3542   2.889   2.296   1.428 -2.2316  0.4812  0.7517
  886SOL    HW2 3543   2.803   2.415   1.471  0.1333  0.6370 -0.5254
  886SOL     MW 3544   2.817   2.326   1.459 -0.1499  0.6193  0.1029
  887SOL     OW 3545   2.283   2.630   1.580 -0.2040  0.0517  0.3258
  887SOL    HW1 3546   2.294   2.665   1.488  2.1347  3.5151  0.4615
  887SOL    HW2 3547   2.209   2.570   1.578  0.0666  1.2022 -0.0112
  887SOL     MW 3548   2.275   2.627   1.568  0.1403  0.6605  0.2992
  888SOL     OW 3549   1.893   2.102   1.376 -0.2517  0.5971  0.1833
  888SOL    HW1 3550   1.980   2.079   1.343 -0.6287  0.8005 -0.2017
  888SOL    HW2 3551   1.916   2.121   1.465  0.4638  2.8793 -0.3195
  888SOL     MW 3552   1.908   2.102   1.383 -0.2071  0.9251  0.0662
  889SOL     OW 3553   2.312   2.033   2.065  0.4723 -0.3869  0.0015
  889SOL    HW1 3554   2.389   2.035   2.126 -0.5426 -1.1546  2.7288
  889SOL    HW2 3555   2.315   2.121   2.024  0.5916 -0.2350 -0.6725
  889SOL     MW 3556   2.323   2.045   2.067  0.3541 -0.4682  0.2724
  890SOL     OW 3557   0.054   2.356   0.148 -0.1847 -0.0706  0.0119
  890SOL    HW1 3558   0.016   2.445   0.160 -0.5267 -1.1997 -2.0618
  890SOL    HW2 3559   0.020   2.306   0.225 -0.8322  0.6338 -1.1778
  890SOL     MW 3560   0.045   2.361   0.160 -0.3152 -0.1266 -0.4187
  891SOL     OW 3561   3.038   2.011   1.293  0.4027  0.2857  0.0230
  891SOL    HW1 3562   3.121   1.970   1.306  2.0209 -0.1520 -2.2651
  891SOL    HW2 3563   3.062   2.100   1.298  0.2813 -3.4033 -1.4823
  891SOL     MW 3564   3.052   2.017   1.295  0.6002 -0.2588 -0.4775
  892SOL     OW 3565   2.446   2.311   2.750 -0.1499 -0.1978 -0.3588
  892SOL    HW1 3566   2.443   2.232   2.802 -0.1033 -1.3259 -0.6160
  892SOL    HW2 3567   2.532   2.353   2.769  2.3366  1.1691  2.7210
  892SOL     MW 3568   2.457   2.306   2.759  0.1843 -0.1663  0.0136
  893SOL     OW 3569   1.603   2.414   1.234 -0.4455  0.0288 -0.1288
  893SOL    HW1 3570   1.543   2.467   1.286  2.2172 -0.3425 -0.6840
  893SOL    HW2 3571   1.684   2.411   1.286 -0.0791  3.0501 -0.5223
  893SOL     MW 3572   1.606   2.421   1.248 -0.0458  0.3784 -0.2540
  894SOL     OW 3573   2.737   1.872   0.446  0.4686 -0.4468  0.3797
  894SOL    HW1 3574   2.651   1.898   0.464  1.9401 -1.7692  2.0554
  894SOL    HW2 3575   2.756   1.836   0.352 -1.1069  1.2393 -2.6447
  894SOL     MW 3576   2.728   1.871   0.436  0.4549 -0.3988  0.2018
  895SOL     OW 3577   2.113   2.098   1.242  0.4979  0.2521  0.1317
  895SOL    HW1 3578   2.090   2.174   1.173 -0.6654  0.4602 -0.9701
  895SOL    HW2 3579   2.149   2.032   1.188 -0.1844 -0.7142  1.5027
  895SOL     MW 3580   2.115   2.099   1.226  0.2544  0.1521  0.1672
  896SOL     OW 3581   2.307   2.803   1.081  0.1579  0.3275  0.2187
  896SOL    HW1 3582   2.340   2.743   1.142  0.3621 -1.3935 -0.3654
  896SOL    HW2 3583   2.218   2.783   1.089  5.3265  1.1945 -1.6258
  896SOL     MW 3584   2.300   2.793   1.090  0.8667  0.2148 -0.1018
  897SOL     OW 3585   3.045   3.002   3.097  0.1316  0.6643 -0.4222
  897SOL    HW1 3586   3.089   2.932   3.040  0.9504 -2.4445 -4.4281
  897SOL    HW2 3587   2.999   2.947   3.163  3.6266 -1.6836  1.2022
  897SOL     MW 3588   3.045   2.986   3.098  0.7008 -0.0557 -0.7364
  898SOL     OW 3589   2.099   0.199   1.468  0.3509  0.2476  0.3364
  898SOL    HW1 3590   2.091   0.110   1.503 -1.0827  0.8038  2.2959
  898SOL    HW2 3591   2.119   0.193   1.371 -2.4984 -2.8831  0.7789
  898SOL     MW 3592   2.101   0.187   1.460 -0.2142 -0.0921  0.6533
  899SOL     OW 3593   2.920   2.971   0.636  0.3748  0.3300  0.0932
  899SOL    HW1 3594   2.928   2.891   0.688  0.9847 -2.4225  0.3197
  899SOL    HW2 3595   2.842   3.025   0.664 -1.2108  0.5253 -1.1022
  899SOL     MW 3596   2.910   2.968   0.647  0.2460 -0.0074 -0.0346
  900SOL     OW 3597   0.096   2.408   1.086 -1.0546 -0.1827 -0.1659
  900SOL    HW1 3598   0.060   2.495   1.091 -1.7292 -2.4195  1.6392
  900SOL    HW2 3599   0.068   2.367   1.001 -0.6697  0.3089 -0.8044
  900SOL     MW 3600   0.088   2.414   1.076 -1.0928 -0.4129 -0.0120
  901SOL     OW 3601   1.726   2.835   1.771  0.1660  0.0154 -0.1189
  901SOL    HW1 3602   1.803   2.775   1.754 -0.4601  2.1125 -1.2665
  901SOL    HW2 3603   1.678   2.835   1.687 -2.4573 -0.5231  0.3577
  901SOL     MW 3604   1.730   2.827   1.758 -0.2627  0.2211 -0.2074
  902SOL     OW 3605   2.701   2.125   1.811  0.0220 -0.4002 -0.1165
  902SOL    HW1 3606   2.701   2.076   1.728  0.3377  1.2399  0.0267
  902SOL    HW2 3607   2.775   2.092   1.866  1.3073  2.3203 -0.9684
  902SOL     MW 3608   2.710   2.114   1.807  0.2332  0.1752 -0.2100
  903SOL     OW 3609   1.593   2.721   0.581  0.1631 -0.3047  0.7327
  903SOL    HW1 3610   1.672   2.676   0.613 -1.7367 -0.9483 -0.3883
  903SOL    HW2 3611   1.570   2.761   0.663 -0.1573 -1.4064  2.2341
  903SOL     MW 3612   1.601   2.720   0.596 -0.1298 -0.5350  0.7829
  904SOL     OW 3613   2.529   2.590   1.713  0.0878 -0.6774  0.1518
  904SOL    HW1 3614   2.443   2.599   1.671  0.9208  0.7625 -2.6397
  904SOL    HW2 3615   2.572   2.509   1.693  1.1371  0.3663  0.1008
  904SOL     MW 3616   2.524   2.581   1.705  0.3361 -0.3497 -0.2232
  905SOL     OW 3617   2.276   2.536   2.161  0.0857 -0.5817 -0.9466
  905SOL    HW1 3618   2.350   2.520   2.102  0.0586  0.2019  2.8803
  905SOL    HW2 3619   2.261   2.454   2.208 -2.8894 -1.0247 -0.9472
  905SOL     MW 3620   2.284   2.523   2.159 -0.3104 -0.5368 -0.4418
  906SOL     OW 3621   2.433   2.477   0.854  0.4710  0.4966 -0.3199
  906SOL    HW1 3622   2.526   2.458   0.851 -1.1183 -3.0264 -0.8983
  906SOL    HW2 3623   2.429   2.567   0.870 -3.4139 -4.5918 -1.4348
  906SOL     MW 3624   2.445   2.486   0.856 -0.2513 -0.6396 -0.5433
  907SOL     OW 3625   2.632   2.797   1.353  0.4202  0.2153  0.0519
  907SOL    HW1 3626   2.680   2.873   1.382 -0.9016 -0.3983 -1.0194
  907SOL    HW2 3627   2.653   2.803   1.259 -2.3769  1.7375 -0.0512
  907SOL     MW 3628   2.641   2.807   1.344 -0.1233  0.3352 -0.1030
  908SOL     OW 3629   2.715   2.334   3.084 -0.7602 -0.2379  0.6649
  908SOL    HW1 3630   2.634   2.290   3.072  2.4333  1.4699 -0.1002
  908SOL    HW2 3631   2.691   2.407   3.142  1.0903 -0.0254 -0.8417
  908SOL     MW 3632   2.701   2.338   3.090 -0.0947  0.0155  0.3652
  909SOL     OW 3633   1.719   0.072   1.178  0.3385 -0.8783  0.3430
  909SOL    HW1 3634   1.722   0.138   1.104  1.6910  0.6306  1.1019
  909SOL    HW2 3635   1.774   0.113   1.249 -0.1256  0.1346 -1.7814
  909SOL     MW 3636   1.727   0.086   1.178  0.4557 -0.5456  0.1628
  910SOL     OW 3637   2.272   1.795   0.421 -0.4831  0.9908 -0.5961
  910SOL    HW1 3638   2.224   1.721   0.452 -1.1101  1.0026 -0.3826
  910SOL    HW2 3639   2.240   1.808   0.331 -2.6155  2.0458 -0.4504
  910SOL     MW 3640   2.262   1.787   0.413 -0.8472  1.1316 -0.5487
  911SOL     OW 3641   2.263   2.178   1.692  0.0474 -0.5496 -0.7227
  911SOL    HW1 3642   2.332   2.191   1.757 -0.0150 -2.2141  0.1512
  911SOL    HW2 3643   2.292   2.207   1.603 -0.4428 -0.1290 -0.7438
  911SOL     MW 3644   2.276   2.184   1.689 -0.0255 -0.7137 -0.6102
  912SOL     OW 3645   2.933   1.923   1.540 -0.1255 -0.1104 -0.0785
  912SOL    HW1 3646   2.950   1.962   1.447  0.1241 -1.1788  0.5693
  912SOL    HW2 3647   2.835   1.923   1.547 -0.5417 -0.0469  0.4746
  912SOL     MW 3648   2.922   1.928   1.528 -0.1475 -0.2430  0.0800
  913SOL     OW 3649   2.630   3.041   0.363  0.1220  0.0515 -0.0397
  913SOL    HW1 3650   2.712   2.990   0.341 -0.9902 -0.6687 -2.8059
  913SOL    HW2 3651   2.569   3.003   0.307  1.8494 -0.7060  1.6231
  913SOL     MW 3652   2.632   3.029   0.353  0.2031 -0.1435 -0.1853
  914SOL     OW 3653   2.716   1.748   3.053 -0.2297 -0.2430 -0.3474
  914SOL    HW1 3654   2.715   1.834   3.005 -0.7577  2.6770 -0.5331
  914SOL    HW2 3655   2.630   1.716   3.059  2.4030 -0.0523 -2.6778
  914SOL     MW 3656   2.705   1.755   3.048  0.0480  0.1674 -0.6794
  915SOL     OW 3657   1.703   0.229   0.225 -0.3077 -0.0477 -0.4940
  915SOL    HW1 3658   1.769   0.175   0.278 -1.2300 -1.3368  2.6649
  915SOL    HW2 3659   1.616   0.192   0.244  0.1660  2.3856  0.8495
  915SOL     MW 3660   1.700   0.217   0.234 -0.3669  0.1033  0.1001
  916SOL     OW 3661   1.814   2.114   1.901  0.3945  0.2738  0.4576
  916SOL    HW1 3662   1.863   2.196   1.894  0.3728 -1.8706  2.9960
  916SOL    HW2 3663   1.828   2.065   1.819 -1.0962  0.7480  0.1767
  916SOL     MW 3664   1.823   2.118   1.889  0.1949  0.0534  0.7554
  917SOL     OW 3665   2.530   2.226   2.499 -0.8161  0.1675  0.1732
  917SOL    HW1 3666   2.499   2.250   2.589 -1.2956 -1.3380  2.1104
  917SOL    HW2 3667   2.610   2.276   2.473 -0.3780  0.2593 -0.6966
  917SOL     MW 3668   2.537   2.236   2.507 -0.8215 -0.0191  0.3141
  918SOL     OW 3669   1.996   1.599   2.717 -0.4199 -0.1901 -0.2336
  918SOL    HW1 3670   1.912   1.621   2.677  0.5748 -0.3208 -0.9889
  918SOL    HW2 3671   2.064   1.649   2.672 -0.6524 -1.8204  0.9932
  918SOL     MW 3672   1.994   1.608   2.706 -0.3194 -0.4225 -0.1714
  919SOL     OW 3673   3.075   2.330   2.259 -0.4998 -0.1661 -0.4044
  919SOL    HW1 3674   3.003   2.275   2.228  1.7495 -1.5792  0.6190
  919SOL    HW2 3675   3.131   2.356   2.187 -1.8391 -2.1893  3.0463
  919SOL     MW 3676   3.073   2.327   2.246 -0.3797 -0.6195  0.1859
  920SOL     OW 3677   2.711   2.863   0.007  0.0361  0.4437 -0.1154
  920SOL    HW1 3678   2.623   2.893   0.031  0.1822 -2.0819  0.1981
  920SOL    HW2 3679   2.687   2.813  -0.078 -0.5728  1.2142 -1.0924
  920SOL     MW 3680   2.696   2.860  -0.001 -0.0250  0.2121 -0.2029
  921SOL     OW 3681   2.431   2.567   2.632 -0.1171 -0.1058  0.6174
  921SOL    HW1 3682   2.504   2.588   2.583 -0.1794  0.1058  3.6038
  921SOL    HW2 3683   2.454   2.482   2.661 -2.5852  2.3863  1.2538
  921SOL     MW 3684   2.443   2.559   2.630 -0.4509  0.2509  1.0954
  922SOL     OW 3685   2.040   2.848   0.296 -0.5327 -0.1240 -0.1494
  922SOL    HW1 3686   2.024   2.881   0.206 -0.7241 -0.3844  0.2399
  922SOL    HW2 3687   2.032   2.752   0.287  1.2979  2.1078 -2.3199
  922SOL     MW 3688   2.037   2.839   0.283 -0.3164  0.1361 -0.3844
  923SOL     OW 3689   2.144   2.845   1.686  0.3305  0.5823 -0.3687
  923SOL    HW1 3690   2.204   2.789   1.638 -1.2692 -0.3082 -0.1815
  923SOL    HW2 3691   2.128   2.922   1.631  0.1175  1.5009 -1.2238
  923SOL     MW 3692   2.150   2.848   1.673  0.0913  0.5860 -0.4568
  924SOL     OW 3693   1.134   2.677   2.528 -0.5887  0.1020  0.0612
  924SOL    HW1 3694   1.199   2.743   2.510 -3.2363  3.0795 -2.0826
  924SOL    HW2 3695   1.162   2.614   2.592 -0.5480  1.7836  1.2847
  924SOL     MW 3696   1.146   2.677   2.534 -0.9327  0.7167 -0.0602
  925SOL     OW 3697   3.048   0.182   2.642  0.5245 -0.1151 -0.5701
  925SOL    HW1 3698   2.996   0.197   2.561  2.3642 -1.1864 -0.0428
  925SOL    HW2 3699   3.012   0.243   2.704 -0.2858  0.3407  1.6236
  925SOL     MW 3700   3.036   0.192   2.640  0.6603 -0.1963 -0.2111
  926SOL     OW 3701   2.710   2.412   2.048 -0.8359  0.2583 -0.1483
  926SOL    HW1 3702   2.735   2.474   2.116  1.3082  0.1390 -2.0800
  926SOL    HW2 3703   2.760   2.446   1.970  1.6113  0.8320 -0.5953
  926SOL     MW 3704   2.720   2.425   2.046 -0.2301  0.3183 -0.4621
  927SOL     OW 3705   2.348   0.120   0.308  0.4227  0.0427  0.4508
  927SOL    HW1 3706   2.429   0.165   0.295 -2.6220 -0.9671 -0.3023
  927SOL    HW2 3707   2.316   0.106   0.214 -2.0120 -0.0176 -0.3181
  927SOL     MW 3708   2.355   0.124   0.294 -0.3003 -0.0985  0.2500
  928SOL     OW 3709   2.160   2.403   1.801 -0.1098 -0.7000 -0.6336
  928SOL    HW1 3710   2.212   2.405   1.884  1.7099  1.3475 -3.8581
  928SOL    HW2 3711   2.192   2.330   1.749  0.1355  1.0398 -1.0713
  928SOL     MW 3712   2.171   2.394   1.805  0.1627 -0.2003 -1.1168
  929SOL     OW 3713   2.745   2.378   2.453  0.2063 -0.7609  0.2080
  929SOL    HW1 3714   2.795   2.393   2.373 -0.4327  0.0211 -2.7214
  929SOL    HW2 3715   2.804   2.352   2.523  0.5292  1.9060  0.1362
  929SOL     MW 3716   2.759   2.376   2.451  0.1646 -0.3059 -0.1880
  930SOL     OW 3717   2.013   2.863   2.737 -0.0564 -0.4674  0.1566
  930SOL    HW1 3718   2.034   2.777   2.780 -0.7360 -2.5068  1.2683
  930SOL    HW2 3719   2.087   2.917   2.753  1.8352 -1.1026  0.2201
  930SOL     MW 3720   2.025   2.859   2.744  0.1035 -0.8203  0.3117
  931SOL     OW 3721   3.029   2.744   2.356  0.2771 -0.2340  0.4639
  931SOL    HW1 3722   3.089   2.758   2.431 -1.3681  0.0633  1.5574
  931SOL    HW2 3723   3.076   2.722   2.269 -0.2076 -1.0106 -1.3044
  931SOL     MW 3724   3.043   2.743   2.355 -0.0039 -0.2972  0.3748
  932SOL     OW 3725   2.897   1.959   2.558  0.6384 -0.2056 -0.1833
  932SOL    HW1 3726   2.984   1.998   2.544 -0.2099 -2.6593 -0.8928
  932SOL    HW2 3727   2.845   1.979   2.479 -0.6853  0.4663 -0.8174
  932SOL     MW 3728   2.902   1.967   2.546  0.3519 -0.4407 -0.3606
  933SOL     OW 3729   2.075   2.838   2.257 -0.1760 -0.6026 -0.3819
  933SOL    HW1 3730   2.158   2.872   2.289  0.6945 -1.4583  1.0495
  933SOL    HW2 3731   2.006   2.909   2.246  0.5291  4.8139 -0.2574
  933SOL     MW 3732   2.077   2.852   2.260  0.0318 -0.0009 -0.1766
  934SOL     OW 3733   2.026   2.710   2.511 -0.0707  0.1813  0.1988
  934SOL    HW1 3734   2.042   2.769   2.587  1.7135  1.8814 -0.8066
  934SOL    HW2 3735   2.039   2.769   2.433  0.5513  1.5380  1.9029
  934SOL     MW 3736   2.030   2.726   2.511  0.2468  0.5846  0.2910
  935SOL     OW 3737   2.688   1.514   1.805  0.3552 -0.0584  0.5207
  935SOL    HW1 3738   2.778   1.486   1.813 -1.1630  0.5218  0.3112
  935SOL    HW2 3739   2.679   1.510   1.714 -1.4356 -0.3557 -1.6266
  935SOL     MW 3740   2.699   1.510   1.794 -0.0814 -0.0210  0.2098
  936SOL     OW 3741   3.007   2.205   3.062  0.2073  0.0533  0.5250
  936SOL    HW1 3742   3.055   2.252   3.131  1.3098  1.3457 -1.4178
  936SOL    HW2 3743   2.917   2.233   3.051 -0.5306  0.7069 -0.5891
  936SOL     MW 3744   3.001   2.215   3.069  0.2554  0.3100  0.1217
  937SOL     OW 3745   1.955   2.132   2.603  0.1607  0.2337 -0.1896
  937SOL    HW1 3746   2.035   2.093   2.652 -0.8589 -1.4120 -1.2714
  937SOL    HW2 3747   1.946   2.084   2.519 -1.1903 -0.1897 -1.2727
  937SOL     MW 3748   1.965   2.120   2.599 -0.1521 -0.0393 -0.4753
  938SOL     OW 3749   2.289   1.782   1.975  0.4430  0.4105 -0.1429
  938SOL    HW1 3750   2.293   1.807   1.882 -1.3746 -0.9761 -0.1022
  938SOL    HW2 3751   2.303   1.865   2.024  1.0692  2.4845  1.2413
  938SOL     MW 3752   2.292   1.796   1.969  0.2858  0.5012  0.0451
  939SOL     OW 3753   2.737   1.986   2.316  0.4988  0.1889 -0.2704
  939SOL    HW1 3754   2.774   1.929   2.244  2.4620  1.1776  2.6268
  939SOL    HW2 3755   2.634   1.969   2.314 -3.2145  0.0190 -1.5359
  939SOL     MW 3756   2.728   1.976   2.306  0.2679  0.2970 -0.0551
  940SOL     OW 3757   2.281   0.170   2.694 -0.1862  0.0627  0.7448
  940SOL    HW1 3758   2.264   0.078   2.673  2.5517  0.7434 -1.5138
  940SOL    HW2 3759   2.329   0.189   2.785  0.9897 -1.1651  1.8584
  940SOL     MW 3760   2.285   0.160   2.703  0.3302 -0.0095  0.5937
  941SOL     OW 3761   0.127   2.444   2.069  0.4109  0.3558  0.0332
  941SOL    HW1 3762   0.214   2.458   2.087 -2.9934 -2.1831  0.4213
  941SOL    HW2 3763   0.118   2.442   1.972 -1.3283  3.4078 -2.3301
  941SOL     MW 3764   0.138   2.445   2.059 -0.2677  0.4235 -0.2274
  942SOL     OW 3765   2.859   2.199   2.180  0.0648  0.9535  0.1835
  942SOL    HW1 3766   2.788   2.237   2.132  0.6500 -2.5118 -1.8312
  942SOL    HW2 3767   2.821   2.135   2.233  1.1128 -0.5995 -2.9612
  942SOL     MW 3768   2.845   2.196   2.180  0.2803  0.2914 -0.4972
  943SOL     OW 3769   0.290   2.114   2.274 -0.6185 -0.3353  0.3605
  943SOL    HW1 3770   0.282   2.186   2.331  0.0258 -1.3935  1.0929
  943SOL    HW2 3771   0.355   2.056   2.318 -0.5051 -0.2615  1.0631
  943SOL     MW 3772   0.298   2.115   2.288 -0.5185 -0.4652  0.5498
  944SOL     OW 3773   2.087   2.659   2.033 -0.0714 -0.6516 -0.2878
  944SOL    HW1 3774   2.153   2.617   2.085 -0.1428 -1.2984  0.8815
  944SOL    HW2 3775   2.035   2.690   2.109 -1.8388  1.4931  1.3005
  944SOL     MW 3776   2.089   2.658   2.050 -0.3140 -0.4540  0.0760
  945SOL     OW 3777   2.671   2.687   2.901 -0.0385  0.0825 -0.0328
  945SOL    HW1 3778   2.688   2.595   2.895 -2.0078 -0.3019 -0.1338
  945SOL    HW2 3779   2.676   2.725   2.812  0.1397  0.7513  0.8233
  945SOL     MW 3780   2.674   2.680   2.888 -0.2748  0.1200  0.0668
  946SOL     OW 3781   2.474   2.692   2.267  0.3222 -0.3157 -0.4644
  946SOL    HW1 3782   2.485   2.748   2.182  0.2828 -2.2782  1.5802
  946SOL    HW2 3783   2.400   2.635   2.239 -0.8212 -2.7059  0.1720
  946SOL     MW 3784   2.466   2.691   2.252  0.1662 -0.8900 -0.1107
  947SOL     OW 3785   1.909   0.076   0.308 -0.0534 -0.1570 -0.0513
  947SOL    HW1 3786   1.882  -0.004   0.335  2.1102 -0.7700 -1.2877
  947SOL    HW2 3787   1.996   0.085   0.357  1.5362 -0.7553 -0.1243
  947SOL     MW 3788   1.917   0.067   0.318  0.4418 -0.3169 -0.2240
  948SOL     OW 3789   1.787   3.033   2.702  0.1067 -0.3850  0.5951
  948SOL    HW1 3790   1.854   2.962   2.704  0.4833 -1.2156 -1.5948
  948SOL    HW2 3791   1.771   3.051   2.602 -1.6717  1.2017  0.0693
  948SOL     MW 3792   1.794   3.026   2.689 -0.0783 -0.2852  0.2368
  949SOL     OW 3793   2.475   1.923   2.269  0.0911 -0.2692 -0.3668
  949SOL    HW1 3794   2.442   1.843   2.303 -2.2214  1.6091  2.9785
  949SOL    HW2 3795   2.411   1.989   2.303  1.1407  0.1124 -0.6739
  949SOL     MW 3796   2.462   1.921   2.278 -0.0756  0.0290  0.0341
  950SOL     OW 3797   2.306   2.481   2.920  0.6132  0.9256 -0.3294
  950SOL    HW1 3798   2.362   2.424   2.865  0.1739  0.1220  0.0923
  950SOL    HW2 3799   2.233   2.517   2.860 -1.0553  0.6833 -1.5512
  950SOL     MW 3800   2.303   2.479   2.905  0.3351  0.7876 -0.4350
  951SOL     OW 3801   3.007   2.069   2.823 -0.1148  0.0420  0.2396
  951SOL    HW1 3802   3.024   2.097   2.916  1.6248  0.1585  0.5506
  951SOL    HW2 3803   3.071   1.999   2.801 -0.7661 -0.3022  0.5960
  951SOL     MW 3804   3.018   2.063   2.832  0.0288  0.0120  0.3276
  952SOL     OW 3805   3.030   1.680   2.171 -0.4701  0.5805  0.2832
  952SOL    HW1 3806   2.951   1.730   2.158  1.8802  1.1032  0.0973
  952SOL    HW2 3807   3.104   1.741   2.173  0.7679  0.0094  2.4103
  952SOL     MW 3808   3.029   1.695   2.169  0.0033  0.5741  0.5393
  953SOL     OW 3809   1.893   1.776   2.901  0.1278 -0.0695  0.6361
  953SOL    HW1 3810   1.821   1.735   2.956 -0.8861  1.3348  1.3710
  953SOL    HW2 3811   1.922   1.705   2.837  2.8382 -1.8738 -2.3851
  953SOL     MW 3812   1.888   1.761   2.900  0.3516 -0.1223  0.3344
  954SOL     OW 3813   2.378   2.079   2.886 -0.3031  0.0443 -0.0331
  954SOL    HW1 3814   2.294   2.075   2.849  2.3340  2.9864  1.5330
  954SOL    HW2 3815   2.439   2.035   2.815  1.7834  1.6312 -1.6306
  954SOL     MW 3816   2.375   2.072   2.872  0.3201  0.6419 -0.0373
  955SOL     OW 3817   1.557   1.578   2.563  0.3693  0.2905 -0.0706
  955SOL    HW1 3818   1.509   1.615   2.486  1.0341 -1.4452  0.3516
  955SOL    HW2 3819   1.649   1.611   2.553  0.2796 -2.3326 -0.7121
  955SOL     MW 3820   1.563   1.587   2.552  0.4452 -0.2846 -0.0995
  956SOL     OW 3821   2.685   2.419   2.825 -0.1449  0.1634  0.1355
  956SOL    HW1 3822   2.720   2.404   2.914  0.5353 -1.5107 -2.9788
  956SOL    HW2 3823   2.756   2.390   2.767  3.4513 -1.1401  1.2306
  956SOL     MW 3824   2.699   2.413   2.829  0.4193 -0.2295 -0.1309
  957SOL     OW 3825   2.315   2.829   0.376 -0.1959  0.2968  0.3362
  957SOL    HW1 3826   2.230   2.826   0.331 -2.4292 -2.2287  1.8420
  957SOL    HW2 3827   2.292   2.792   0.469 -1.8405 -0.7396  1.1799
  957SOL     MW 3828   2.301   2.824   0.382 -0.7075 -0.1732  0.6462
  958SOL     OW 3829   2.095   2.621   2.808 -0.2889 -0.5018 -0.6300
  958SOL    HW1 3830   2.059   2.549   2.756  3.2441 -0.4153 -3.7213
  958SOL    HW2 3831   2.044   2.631   2.894  1.5277 -0.4454 -1.5057
  958SOL     MW 3832   2.084   2.613   2.813  0.4169 -0.4829 -1.1534
  959SOL     OW 3833   2.519   2.641   0.346  0.0452 -0.1260  0.4381
  959SOL    HW1 3834   2.561   2.651   0.266  2.5260  1.3053  2.2693
  959SOL    HW2 3835   2.455   2.716   0.352  1.2602  0.8891  1.5945
  959SOL     MW 3836   2.516   2.652   0.336  0.5328  0.1968  0.8323
  960SOL     OW 3837   1.927   2.299   2.281 -0.3030 -0.0477  0.8594
  960SOL    HW1 3838   1.913   2.208   2.271  2.1018  1.6041 -1.3985
  960SOL    HW2 3839   1.854   2.323   2.334 -0.2408 -1.3972 -1.3991
  960SOL     MW 3840   1.916   2.290   2.287  0.0225 -0.0078  0.2635
  961SOL     OW 3841   2.205   2.325   2.304 -0.1261  0.3513 -0.1957
  961SOL    HW1 3842   2.112   2.315   2.294  0.9651 -0.6328  0.8523
  961SOL    HW2 3843   2.211   2.380   2.387 -2.5026 -0.6769  3.7124
  961SOL     MW 3844   2.194   2.331   2.314 -0.2957  0.0858  0.4582
  962SOL     OW 3845   2.135   2.003   2.758  0.1801 -0.9852  0.0211
  962SOL    HW1 3846   2.110   1.985   2.847 -1.6153  2.3458  0.3173
  962SOL    HW2 3847   2.160   1.918   2.713  0.8200 -0.1616  1.6062
  962SOL     MW 3848   2.135   1.989   2.764  0.0277 -0.4370  0.2693
  963SOL     OW 3849   1.824   2.539   2.075  0.7539 -0.2893 -0.2429
  963SOL    HW1 3850   1.873   2.469   2.124 -2.7060 -1.4671 -0.4628
  963SOL    HW2 3851   1.820   2.504   1.987 -2.2462 -0.7087 -0.8191
  963SOL     MW 3852   1.830   2.525   2.070 -0.0984 -0.5001 -0.3479
  964SOL     OW 3853   1.752   1.989   2.725  0.1380  0.9878 -0.2638
  964SOL    HW1 3854   1.806   2.047   2.672 -1.6617  0.7402  0.0708
  964SOL    HW2 3855   1.809   1.943   2.792 -1.2435  1.1550  2.0697
  964SOL     MW 3856   1.766   1.991   2.727 -0.2817  0.9772  0.0882
  965SOL     OW 3857   2.236   2.725   0.611 -0.0649 -0.4819 -0.1067
  965SOL    HW1 3858   2.244   2.629   0.602  1.3198 -0.2224 -1.0318
  965SOL    HW2 3859   2.301   2.741   0.683  2.0883 -2.0550 -0.3584
  965SOL     MW 3860   2.245   2.714   0.619  0.4019 -0.6552 -0.2620
  966SOL     OW 3861   2.646   2.627   2.460 -0.2951 -0.3473 -0.3174
  966SOL    HW1 3862   2.592   2.646   2.378  1.2955  0.2213  1.2172
  966SOL    HW2 3863   2.706   2.551   2.453  0.9442  4.3542  0.0158
  966SOL     MW 3864   2.647   2.620   2.448  0.0783  0.3480 -0.0710
  967SOL     OW 3865   2.769   3.072   2.919  0.3686  0.4672  1.0286
  967SOL    HW1 3866   2.755   3.020   2.998 -0.2497  0.3472  1.1286
  967SOL    HW2 3867   2.697   3.070   2.852  1.6345  1.7855  1.6534
  967SOL     MW 3868   2.758   3.065   2.921  0.4540  0.6253  1.1243
  968SOL     OW 3869   2.951   2.620   2.906  0.6010 -0.1499  0.3521
  968SOL    HW1 3870   2.889   2.663   2.852 -3.0876  0.4014  0.7156
  968SOL    HW2 3871   2.996   2.563   2.843  0.3018 -0.2438  0.6932
  968SOL     MW 3872   2.949   2.618   2.891  0.0749 -0.0895  0.4450
  969SOL     OW 3873   1.622   2.163   1.653 -0.4297 -0.0654  0.4682
  969SOL    HW1 3874   1.671   2.077   1.659  1.4423 -0.7116  2.6131
  969SOL    HW2 3875   1.579   2.176   1.739 -0.0978 -1.4179 -1.3479
  969SOL     MW 3876   1.622   2.154   1.665 -0.1389 -0.3291  0.5116
  970SOL     OW 3877   1.698   1.788   1.963 -0.2002 -0.1860 -0.0996
  970SOL    HW1 3878   1.743   1.708   2.008 -0.2011 -0.1924  1.5695
  970SOL    HW2 3879   1.605   1.773   1.938  2.3688 -1.0763 -0.4459
  970SOL     MW 3880   1.692   1.775   1.966  0.1386 -0.3043  0.0749
  971SOL     OW 3881   1.741   0.020   2.440  0.0511  0.9672 -0.2947
  971SOL    HW1 3882   1.778  -0.030   2.369  0.0107  1.6390  1.0597
  971SOL    HW2 3883   1.792   0.099   2.445 -0.7714 -1.2039  1.1062
  971SOL     MW 3884   1.753   0.024   2.432 -0.0628  0.7694  0.0688
  972SOL     OW 3885   0.270   2.881   2.473 -0.1065 -0.3398  0.3004
  972SOL    HW1 3886   0.339   2.816   2.474 -0.2603 -0.5874 -1.1817
  972SOL    HW2 3887   0.316   2.962   2.488 -2.5959  0.2378 -0.6096
  972SOL     MW 3888   0.285   2.883   2.475 -0.4552 -0.2963 -0.0152
  973SOL     OW 3889   2.559   0.013   2.087  0.7861 -0.2785  0.3019
  973SOL    HW1 3890   2.524  -0.080   2.090 -0.4900 -1.9644  0.5293
  973SOL    HW2 3891   2.559   0.044   1.991  0.2683  0.8370  0.1967
  973SOL     MW 3892   2.554   0.005   2.074  0.5494 -0.3538  0.3180
  974SOL     OW 3893   2.028   0.255   2.688  0.2531  0.2345  0.4477
  974SOL    HW1 3894   2.121   0.248   2.678  0.5600  0.3751  1.0480
  974SOL    HW2 3895   2.009   0.197   2.765 -0.0346  1.9218  0.6387
  974SOL     MW 3896   2.038   0.246   2.696  0.2556  0.4757  0.5521
  975SOL     OW 3897   2.203   2.498   2.495 -0.7032  0.2805  0.0149
  975SOL    HW1 3898   2.289   2.510   2.531 -1.0126  2.1657 -1.1242
  975SOL    HW2 3899   2.155   2.583   2.506 -2.9737  0.5474  1.9862
  975SOL     MW 3900   2.208   2.511   2.501 -1.0436  0.5644  0.1247
  976SOL     OW 3901   0.233   0.360   1.778  0.5941 -0.2334  0.3214
  976SOL    HW1 3902   0.276   0.295   1.829 -1.2567  0.1567 -2.1474
  976SOL    HW2 3903   0.154   0.305   1.742 -1.8642  1.5658 -0.4857
  976SOL     MW 3904   0.229   0.344   1.780  0.0256  0.0554 -0.1108
  977SOL     OW 3905   1.758   2.680   2.558  0.1371 -0.0795 -0.3964
  977SOL    HW1 3906   1.762   2.592   2.525 -0.0683  2.2912  1.1979
  977SOL    HW2 3907   1.850   2.704   2.544  1.4322  2.4573  0.7938
  977SOL     MW 3908   1.771   2.672   2.552  0.2808  0.5680 -0.0290
   3.10000   3.10000   3.10000
